# vtk DataFile Version 2.0
Comment goes here
ASCII

DATASET STRUCTURED_POINTS
DIMENSIONS    64   64   1

ORIGIN    0.000   0.000   0.000
SPACING   0.0781250.078125   1.000

POINT_DATA   4096
VECTORS u double

0.022618 -0.000000 1.000000 0.046724 -0.000000 1.000000 0.055471 -0.000000 1.000000 0.082239 -0.000000 1.000000 0.092382 -0.000000 1.000000 0.121227 -0.000000 1.000000 0.132511 -0.000000 1.000000 0.162684 -0.000000 1.000000 0.174527 -0.000000 1.000000 0.204780 -0.000000 1.000000 0.215956 -0.000000 1.000000 0.244237 -0.000000 1.000000 0.252655 -0.000000 1.000000 0.276023 -0.000000 1.000000 0.278808 -0.000000 1.000000 0.293711 -0.000000 1.000000 0.287689 -0.000000 1.000000 0.290664 -0.000000 1.000000 0.273227 -0.000000 1.000000 0.261848 -0.000000 1.000000 0.231947 -0.000000 1.000000 0.205736 -0.000000 1.000000 0.164651 -0.000000 1.000000 0.125597 -0.000000 1.000000 0.077169 -0.000000 1.000000 0.029631 -0.000000 1.000000 -0.020223 -0.000000 1.000000 -0.070291 -0.000000 1.000000 -0.114716 -0.000000 1.000000 -0.161033 -0.000000 1.000000 -0.193734 -0.000000 1.000000 -0.231058 -0.000000 1.000000 -0.247700 -0.000000 1.000000 -0.272881 -0.000000 1.000000 -0.271974 -0.000000 1.000000 -0.284407 -0.000000 1.000000 -0.267465 -0.000000 1.000000 -0.268905 -0.000000 1.000000 -0.239939 -0.000000 1.000000 -0.233827 -0.000000 1.000000 -0.198361 -0.000000 1.000000 -0.188851 -0.000000 1.000000 -0.152697 -0.000000 1.000000 -0.143617 -0.000000 1.000000 -0.111687 -0.000000 1.000000 -0.105646 -0.000000 1.000000 -0.081074 -0.000000 1.000000 -0.078971 -0.000000 1.000000 -0.062753 -0.000000 1.000000 -0.063804 -0.000000 1.000000 -0.055024 -0.000000 1.000000 -0.057257 -0.000000 1.000000 -0.053743 -0.000000 1.000000 -0.054757 -0.000000 1.000000 -0.053928 -0.000000 1.000000 -0.051627 -0.000000 1.000000 -0.051217 -0.000000 1.000000 -0.044286 -0.000000 1.000000 -0.042761 -0.000000 1.000000 -0.030784 -0.000000 1.000000 -0.027411 -0.000000 1.000000 -0.010686 -0.000000 1.000000 -0.005334 -0.000000 1.000000 0.015456 -0.000000 1.000000 
0.020469 -0.015634 1.000000 0.043642 -0.016426 1.000000 0.051646 -0.017758 1.000000 0.077464 -0.018456 1.000000 0.086912 -0.019494 1.000000 0.114859 -0.020064 1.000000 0.125558 -0.020728 1.000000 0.154979 -0.021008 1.000000 0.166420 -0.021048 1.000000 0.196167 -0.020714 1.000000 0.207187 -0.019729 1.000000 0.235285 -0.018350 1.000000 0.243821 -0.015893 1.000000 0.267352 -0.013076 1.000000 0.270497 -0.008844 1.000000 0.285868 -0.004441 1.000000 0.280360 0.001524 1.000000 0.284004 0.007231 1.000000 0.267109 0.014408 1.000000 0.256472 0.020640 1.000000 0.227021 0.028056 1.000000 0.201509 0.033648 1.000000 0.160715 0.040070 1.000000 0.122259 0.043741 1.000000 0.073969 0.047983 1.000000 0.026941 0.048696 1.000000 -0.022844 0.049961 1.000000 -0.072425 0.047247 1.000000 -0.116719 0.045371 1.000000 -0.162489 0.039509 1.000000 -0.194872 0.035012 1.000000 -0.231538 0.026983 1.000000 -0.247600 0.020912 1.000000 -0.272011 0.012137 1.000000 -0.270261 0.005763 1.000000 -0.281851 -0.002255 1.000000 -0.263870 -0.007751 1.000000 -0.264461 -0.013763 1.000000 -0.234379 -0.017539 1.000000 -0.227491 -0.020789 1.000000 -0.190979 -0.022488 1.000000 -0.180850 -0.022832 1.000000 -0.143871 -0.022617 1.000000 -0.134403 -0.020505 1.000000 -0.101987 -0.018986 1.000000 -0.095835 -0.015307 1.000000 -0.071172 -0.013338 1.000000 -0.069236 -0.009160 1.000000 -0.053303 -0.007583 1.000000 -0.054758 -0.003865 1.000000 -0.046556 -0.003274 1.000000 -0.049359 -0.000640 1.000000 -0.046605 -0.001250 1.000000 -0.048282 0.000093 1.000000 -0.048287 -0.001565 1.000000 -0.046690 -0.001356 1.000000 -0.047114 -0.003671 1.000000 -0.040909 -0.004228 1.000000 -0.040186 -0.006751 1.000000 -0.028966 -0.007675 1.000000 -0.026365 -0.010049 1.000000 -0.010449 -0.011039 1.000000 -0.005854 -0.013071 1.000000 0.014062 -0.013976 1.000000 
0.020204 -0.029580 1.000000 0.044619 -0.031177 1.000000 0.053446 -0.033822 1.000000 0.080493 -0.035266 1.000000 0.090748 -0.037395 1.000000 0.119952 -0.038645 1.000000 0.131511 -0.040120 1.000000 0.162291 -0.040863 1.000000 0.174733 -0.041188 1.000000 0.205995 -0.040767 1.000000 0.218200 -0.039118 1.000000 0.247939 -0.036634 1.000000 0.257781 -0.032067 1.000000 0.282914 -0.026676 1.000000 0.287275 -0.018516 1.000000 0.303905 -0.009863 1.000000 0.299184 0.001864 1.000000 0.303372 0.013251 1.000000 0.286465 0.027533 1.000000 0.275338 0.040088 1.000000 0.244815 0.054962 1.000000 0.217635 0.066307 1.000000 0.174664 0.079250 1.000000 0.133476 0.086746 1.000000 0.082143 0.095318 1.000000 0.031690 0.096813 1.000000 -0.021522 0.099366 1.000000 -0.074660 0.093875 1.000000 -0.122160 0.090064 1.000000 -0.171029 0.078153 1.000000 -0.205835 0.069049 1.000000 -0.244681 0.052729 1.000000 -0.262029 0.040473 1.000000 -0.287488 0.022660 1.000000 -0.285812 0.009840 1.000000 -0.297371 -0.006391 1.000000 -0.278438 -0.017390 1.000000 -0.278187 -0.029491 1.000000 -0.246494 -0.036970 1.000000 -0.238345 -0.043401 1.000000 -0.200014 -0.046640 1.000000 -0.188634 -0.047108 1.000000 -0.150060 -0.046447 1.000000 -0.139706 -0.041884 1.000000 -0.106233 -0.038568 1.000000 -0.099758 -0.030816 1.000000 -0.074695 -0.026599 1.000000 -0.072988 -0.017868 1.000000 -0.057228 -0.014478 1.000000 -0.059262 -0.006747 1.000000 -0.051563 -0.005399 1.000000 -0.054995 0.000049 1.000000 -0.052774 -0.001077 1.000000 -0.054840 0.001682 1.000000 -0.055153 -0.001592 1.000000 -0.053523 -0.001173 1.000000 -0.053895 -0.005781 1.000000 -0.047191 -0.006927 1.000000 -0.046055 -0.011943 1.000000 -0.033949 -0.013821 1.000000 -0.030664 -0.018517 1.000000 -0.013619 -0.020511 1.000000 -0.008201 -0.024510 1.000000 0.012947 -0.026323 1.000000 
0.015693 -0.047307 1.000000 0.039442 -0.049668 1.000000 0.047565 -0.053631 1.000000 0.073865 -0.055758 1.000000 0.083473 -0.058953 1.000000 0.112039 -0.060827 1.000000 0.123210 -0.063067 1.000000 0.153743 -0.064230 1.000000 0.166311 -0.064751 1.000000 0.197997 -0.064181 1.000000 0.211044 -0.061673 1.000000 0.242028 -0.057932 1.000000 0.253440 -0.050868 1.000000 0.280541 -0.042570 1.000000 0.286929 -0.029835 1.000000 0.305854 -0.016349 1.000000 0.303073 0.002057 1.000000 0.309276 0.019949 1.000000 0.293563 0.042441 1.000000 0.283545 0.062291 1.000000 0.252926 0.085760 1.000000 0.225543 0.103798 1.000000 0.180980 0.124229 1.000000 0.138257 0.136263 1.000000 0.084087 0.149768 1.000000 0.031182 0.152360 1.000000 -0.025432 0.156312 1.000000 -0.081213 0.147884 1.000000 -0.131765 0.141739 1.000000 -0.182677 0.123184 1.000000 -0.219331 0.108665 1.000000 -0.259038 0.083178 1.000000 -0.276508 0.063719 1.000000 -0.301434 0.035919 1.000000 -0.298082 0.015646 1.000000 -0.307866 -0.009628 1.000000 -0.285797 -0.026936 1.000000 -0.282936 -0.045707 1.000000 -0.247267 -0.057381 1.000000 -0.236234 -0.067270 1.000000 -0.193856 -0.072199 1.000000 -0.179922 -0.072786 1.000000 -0.137994 -0.071544 1.000000 -0.125939 -0.064332 1.000000 -0.090384 -0.058934 1.000000 -0.083362 -0.046845 1.000000 -0.057735 -0.040107 1.000000 -0.056629 -0.026627 1.000000 -0.041687 -0.021309 1.000000 -0.045172 -0.009530 1.000000 -0.039240 -0.007541 1.000000 -0.044508 0.000570 1.000000 -0.044442 -0.001405 1.000000 -0.048273 0.002473 1.000000 -0.050638 -0.002882 1.000000 -0.050403 -0.002614 1.000000 -0.052429 -0.010002 1.000000 -0.046675 -0.012068 1.000000 -0.046733 -0.019993 1.000000 -0.035242 -0.023065 1.000000 -0.032807 -0.030379 1.000000 -0.016241 -0.033502 1.000000 -0.011510 -0.039637 1.000000 0.009108 -0.042382 1.000000 
0.013055 -0.059914 1.000000 0.038365 -0.063049 1.000000 0.047363 -0.068244 1.000000 0.075117 -0.071173 1.000000 0.085561 -0.075569 1.000000 0.115656 -0.078382 1.000000 0.127860 -0.081824 1.000000 0.160291 -0.083964 1.000000 0.174395 -0.085443 1.000000 0.208621 -0.085499 1.000000 0.223930 -0.083149 1.000000 0.258166 -0.079031 1.000000 0.272512 -0.070580 1.000000 0.303274 -0.060165 1.000000 0.312791 -0.043829 1.000000 0.335072 -0.026007 1.000000 0.334751 -0.001557 1.000000 0.343038 0.022761 1.000000 0.328120 0.053263 1.000000 0.318023 0.080725 1.000000 0.285772 0.112965 1.000000 0.255670 0.138252 1.000000 0.206847 0.166536 1.000000 0.158924 0.183639 1.000000 0.098377 0.202393 1.000000 0.038632 0.206332 1.000000 -0.025317 0.211761 1.000000 -0.088260 0.200208 1.000000 -0.145601 0.191528 1.000000 -0.202580 0.165719 1.000000 -0.244088 0.145410 1.000000 -0.287694 0.109906 1.000000 -0.307223 0.082869 1.000000 -0.333429 0.044234 1.000000 -0.329209 0.016272 1.000000 -0.337847 -0.018676 1.000000 -0.312498 -0.042320 1.000000 -0.306744 -0.068021 1.000000 -0.266325 -0.083673 1.000000 -0.251607 -0.096812 1.000000 -0.204154 -0.102952 1.000000 -0.186773 -0.102969 1.000000 -0.140547 -0.100430 1.000000 -0.126156 -0.089494 1.000000 -0.087889 -0.081145 1.000000 -0.080125 -0.063465 1.000000 -0.053686 -0.053332 1.000000 -0.053390 -0.033916 1.000000 -0.039300 -0.025934 1.000000 -0.044628 -0.009194 1.000000 -0.040559 -0.006063 1.000000 -0.047926 0.005251 1.000000 -0.049923 0.002688 1.000000 -0.055373 0.007878 1.000000 -0.059323 0.000538 1.000000 -0.059773 0.000618 1.000000 -0.062546 -0.009509 1.000000 -0.056458 -0.012623 1.000000 -0.056416 -0.023377 1.000000 -0.043791 -0.027748 1.000000 -0.040650 -0.037518 1.000000 -0.022514 -0.041807 1.000000 -0.016801 -0.049860 1.000000 0.005482 -0.053526 1.000000 
0.006388 -0.080189 1.000000 0.031217 -0.083977 1.000000 0.039437 -0.090383 1.000000 0.066428 -0.093956 1.000000 0.076042 -0.099492 1.000000 0.105449 -0.103126 1.000000 0.117177 -0.107702 1.000000 0.149555 -0.110765 1.000000 0.164085 -0.113081 1.000000 0.199482 -0.113716 1.000000 0.216591 -0.111218 1.000000 0.253578 -0.106514 1.000000 0.271198 -0.095977 1.000000 0.306117 -0.082849 1.000000 0.319861 -0.061633 1.000000 0.346875 -0.038309 1.000000 0.350588 -0.005909 1.000000 0.362873 0.026581 1.000000 0.350366 0.067456 1.000000 0.342186 0.104638 1.000000 0.309542 0.148113 1.000000 0.278408 0.182724 1.000000 0.225931 0.220974 1.000000 0.174011 0.244733 1.000000 0.107072 0.270060 1.000000 0.041292 0.276055 1.000000 -0.030336 0.283204 1.000000 -0.099737 0.268168 1.000000 -0.164076 0.256060 1.000000 -0.226195 0.221671 1.000000 -0.272193 0.193779 1.000000 -0.318370 0.146314 1.000000 -0.338797 0.109453 1.000000 -0.364581 0.057905 1.000000 -0.357556 0.020065 1.000000 -0.363128 -0.026339 1.000000 -0.331982 -0.058039 1.000000 -0.321366 -0.091879 1.000000 -0.273407 -0.112518 1.000000 -0.253163 -0.129441 1.000000 -0.197961 -0.137033 1.000000 -0.175627 -0.136393 1.000000 -0.122984 -0.132161 1.000000 -0.105306 -0.116990 1.000000 -0.063126 -0.104965 1.000000 -0.054380 -0.081048 1.000000 -0.027014 -0.066843 1.000000 -0.028014 -0.041012 1.000000 -0.015666 -0.030070 1.000000 -0.023910 -0.008271 1.000000 -0.023309 -0.004244 1.000000 -0.034194 0.009934 1.000000 -0.040207 0.006042 1.000000 -0.048805 0.011872 1.000000 -0.056315 0.001517 1.000000 -0.058941 0.000609 1.000000 -0.064272 -0.013317 1.000000 -0.059283 -0.018198 1.000000 -0.060756 -0.032660 1.000000 -0.048446 -0.038832 1.000000 -0.046093 -0.051656 1.000000 -0.027965 -0.057351 1.000000 -0.022756 -0.067633 1.000000 -0.000607 -0.072237 1.000000 
0.001660 -0.091739 1.000000 0.028320 -0.096098 1.000000 0.037346 -0.103455 1.000000 0.065786 -0.107779 1.000000 0.075981 -0.114590 1.000000 0.106841 -0.119517 1.000000 0.119413 -0.125930 1.000000 0.153898 -0.130872 1.000000 0.170224 -0.135370 1.000000 0.209063 -0.138006 1.000000 0.229521 -0.137244 1.000000 0.271630 -0.133637 1.000000 0.294256 -0.123120 1.000000 0.335594 -0.108828 1.000000 0.355236 -0.084587 1.000000 0.388676 -0.056734 1.000000 0.397537 -0.017555 1.000000 0.414370 0.022984 1.000000 0.404270 0.073950 1.000000 0.396964 0.121549 1.000000 0.362417 0.176743 1.000000 0.327452 0.221863 1.000000 0.268245 0.270933 1.000000 0.207971 0.302498 1.000000 0.130326 0.335112 1.000000 0.053147 0.343740 1.000000 -0.031052 0.352790 1.000000 -0.112475 0.333948 1.000000 -0.188449 0.317986 1.000000 -0.260595 0.273836 1.000000 -0.314693 0.237585 1.000000 -0.366948 0.176509 1.000000 -0.390384 0.129079 1.000000 -0.417555 0.062993 1.000000 -0.408294 0.014819 1.000000 -0.411022 -0.044250 1.000000 -0.373419 -0.084082 1.000000 -0.356998 -0.126595 1.000000 -0.300103 -0.151876 1.000000 -0.272809 -0.172258 1.000000 -0.208256 -0.180488 1.000000 -0.179479 -0.177947 1.000000 -0.119078 -0.170751 1.000000 -0.097163 -0.149351 1.000000 -0.050305 -0.132071 1.000000 -0.040416 -0.099577 1.000000 -0.012008 -0.079698 1.000000 -0.014848 -0.045264 1.000000 -0.004600 -0.030039 1.000000 -0.016633 -0.001551 1.000000 -0.019975 0.004221 1.000000 -0.035086 0.022149 1.000000 -0.045314 0.017299 1.000000 -0.057177 0.023985 1.000000 -0.067900 0.010674 1.000000 -0.072029 0.008575 1.000000 -0.078958 -0.009168 1.000000 -0.073640 -0.016139 1.000000 -0.075162 -0.034214 1.000000 -0.061185 -0.042411 1.000000 -0.057855 -0.057998 1.000000 -0.037452 -0.065144 1.000000 -0.030902 -0.077217 1.000000 -0.006519 -0.082671 1.000000 
-0.006503 -0.115028 1.000000 0.019701 -0.119663 1.000000 0.027636 -0.127849 1.000000 0.054859 -0.132591 1.000000 0.063548 -0.140548 1.000000 0.093020 -0.146558 1.000000 0.104387 -0.154759 1.000000 0.138329 -0.161576 1.000000 0.154815 -0.168246 1.000000 0.195135 -0.173013 1.000000 0.218172 -0.173784 1.000000 0.264644 -0.171249 1.000000 0.292724 -0.159942 1.000000 0.341211 -0.143829 1.000000 0.368423 -0.114715 1.000000 0.410363 -0.080609 1.000000 0.426823 -0.031603 1.000000 0.451043 0.019848 1.000000 0.445838 0.084862 1.000000 0.442235 0.146491 1.000000 0.407595 0.217626 1.000000 0.370959 0.276895 1.000000 0.305719 0.340455 1.000000 0.238295 0.382651 1.000000 0.149518 0.424884 1.000000 0.061379 0.437433 1.000000 -0.036481 0.448825 1.000000 -0.129697 0.425565 1.000000 -0.218284 0.404180 1.000000 -0.299847 0.347915 1.000000 -0.362175 0.300132 1.000000 -0.419223 0.222004 1.000000 -0.444589 0.160061 1.000000 -0.471287 0.075815 1.000000 -0.457559 0.013531 1.000000 -0.455254 -0.061214 1.000000 -0.408091 -0.112063 1.000000 -0.383547 -0.165195 1.000000 -0.314117 -0.196707 1.000000 -0.277506 -0.221288 1.000000 -0.200041 -0.230362 1.000000 -0.162878 -0.225571 1.000000 -0.091858 -0.214477 1.000000 -0.064437 -0.185763 1.000000 -0.011318 -0.161713 1.000000 0.000036 -0.119344 1.000000 0.029529 -0.092410 1.000000 0.024180 -0.048421 1.000000 0.030990 -0.028285 1.000000 0.013733 0.007104 1.000000 0.004204 0.014209 1.000000 -0.016938 0.035273 1.000000 -0.033934 0.028133 1.000000 -0.050861 0.034459 1.000000 -0.067178 0.016370 1.000000 -0.074398 0.011666 1.000000 -0.084901 -0.011706 1.000000 -0.080642 -0.021993 1.000000 -0.083811 -0.045116 1.000000 -0.069511 -0.056139 1.000000 -0.066608 -0.075389 1.000000 -0.045445 -0.084304 1.000000 -0.038986 -0.098567 1.000000 -0.014230 -0.104799 1.000000 
-0.012370 -0.125670 1.000000 0.015759 -0.130236 1.000000 0.024133 -0.138614 1.000000 0.052266 -0.143691 1.000000 0.060646 -0.152751 1.000000 0.090698 -0.160356 1.000000 0.101879 -0.171238 1.000000 0.137303 -0.181300 1.000000 0.155086 -0.192176 1.000000 0.199259 -0.201363 1.000000 0.226502 -0.206754 1.000000 0.280250 -0.208188 1.000000 0.316104 -0.199686 1.000000 0.375020 -0.184528 1.000000 0.412544 -0.153739 1.000000 0.465906 -0.115133 1.000000 0.492275 -0.058235 1.000000 0.525428 0.003968 1.000000 0.525975 0.082758 1.000000 0.525429 0.159791 1.000000 0.489372 0.248018 1.000000 0.447902 0.323739 1.000000 0.372949 0.403597 1.000000 0.292914 0.458700 1.000000 0.187397 0.512028 1.000000 0.081279 0.529739 1.000000 -0.036834 0.543866 1.000000 -0.149281 0.515750 1.000000 -0.256813 0.488136 1.000000 -0.354338 0.417727 1.000000 -0.429747 0.356961 1.000000 -0.496104 0.258923 1.000000 -0.525966 0.181143 1.000000 -0.554108 0.075963 1.000000 -0.536107 -0.001213 1.000000 -0.528275 -0.093718 1.000000 -0.469932 -0.155789 1.000000 -0.435076 -0.220569 1.000000 -0.350513 -0.257917 1.000000 -0.301660 -0.286333 1.000000 -0.208560 -0.295116 1.000000 -0.160347 -0.286130 1.000000 -0.076584 -0.269192 1.000000 -0.042065 -0.229891 1.000000 0.018373 -0.196544 1.000000 0.031327 -0.140424 1.000000 0.061815 -0.103843 1.000000 0.052825 -0.046725 1.000000 0.055284 -0.019591 1.000000 0.031074 0.025235 1.000000 0.014240 0.034892 1.000000 -0.014395 0.060287 1.000000 -0.038829 0.051222 1.000000 -0.061340 0.057230 1.000000 -0.083068 0.034211 1.000000 -0.092709 0.026298 1.000000 -0.105702 -0.002924 1.000000 -0.100795 -0.017230 1.000000 -0.103849 -0.045344 1.000000 -0.086856 -0.059613 1.000000 -0.082284 -0.082065 1.000000 -0.057719 -0.092766 1.000000 -0.049249 -0.108432 1.000000 -0.021522 -0.115154 1.000000 
-0.020296 -0.152308 1.000000 0.007075 -0.156166 1.000000 0.013578 -0.164357 1.000000 0.039215 -0.169104 1.000000 0.044458 -0.178980 1.000000 0.071164 -0.187791 1.000000 0.079098 -0.201364 1.000000 0.112053 -0.214784 1.000000 0.128432 -0.230202 1.000000 0.173305 -0.244428 1.000000 0.203252 -0.254775 1.000000 0.262911 -0.260851 1.000000 0.307047 -0.254711 1.000000 0.377498 -0.240270 1.000000 0.428050 -0.205601 1.000000 0.496238 -0.160340 1.000000 0.536661 -0.091125 1.000000 0.583385 -0.013852 1.000000 0.593876 0.084860 1.000000 0.600836 0.183094 1.000000 0.566336 0.295153 1.000000 0.523110 0.393319 1.000000 0.439419 0.495444 1.000000 0.347977 0.568202 1.000000 0.224602 0.636519 1.000000 0.100183 0.661664 1.000000 -0.040694 0.679386 1.000000 -0.173202 0.645545 1.000000 -0.302271 0.609237 1.000000 -0.415996 0.520849 1.000000 -0.505825 0.441897 1.000000 -0.580597 0.318223 1.000000 -0.614361 0.218065 1.000000 -0.642093 0.085957 1.000000 -0.617341 -0.012301 1.000000 -0.601516 -0.127390 1.000000 -0.527969 -0.205262 1.000000 -0.479879 -0.284614 1.000000 -0.375089 -0.330123 1.000000 -0.310820 -0.363241 1.000000 -0.196758 -0.371675 1.000000 -0.134546 -0.357548 1.000000 -0.033657 -0.332759 1.000000 0.010008 -0.280720 1.000000 0.080171 -0.235105 1.000000 0.095351 -0.162786 1.000000 0.126845 -0.113909 1.000000 0.113334 -0.041889 1.000000 0.109378 -0.006534 1.000000 0.076231 0.048148 1.000000 0.048810 0.059678 1.000000 0.010286 0.088342 1.000000 -0.025085 0.075079 1.000000 -0.055352 0.078698 1.000000 -0.085458 0.047739 1.000000 -0.099197 0.034300 1.000000 -0.116850 -0.003620 1.000000 -0.112569 -0.023846 1.000000 -0.117035 -0.059054 1.000000 -0.098522 -0.077704 1.000000 -0.093522 -0.104525 1.000000 -0.066983 -0.117339 1.000000 -0.057848 -0.134764 1.000000 -0.029119 -0.141677 1.000000 
-0.024866 -0.161864 1.000000 0.004078 -0.164111 1.000000 0.010028 -0.170753 1.000000 0.034975 -0.174571 1.000000 0.037771 -0.184699 1.000000 0.062561 -0.194997 1.000000 0.067520 -0.212128 1.000000 0.099458 -0.230633 1.000000 0.114820 -0.253428 1.000000 0.162532 -0.276184 1.000000 0.196556 -0.296361 1.000000 0.265661 -0.311983 1.000000 0.321210 -0.314273 1.000000 0.408204 -0.305531 1.000000 0.476484 -0.272479 1.000000 0.564758 -0.223745 1.000000 0.623899 -0.145381 1.000000 0.687720 -0.053246 1.000000 0.710800 0.065307 1.000000 0.725574 0.187331 1.000000 0.691909 0.325744 1.000000 0.643433 0.450656 1.000000 0.546563 0.578730 1.000000 0.436670 0.673517 1.000000 0.287837 0.759822 1.000000 0.135474 0.795035 1.000000 -0.037640 0.817251 1.000000 -0.200937 0.777327 1.000000 -0.361102 0.730930 1.000000 -0.500907 0.621281 1.000000 -0.612780 0.521562 1.000000 -0.702905 0.367459 1.000000 -0.744529 0.242639 1.000000 -0.774446 0.078944 1.000000 -0.742727 -0.041790 1.000000 -0.717253 -0.183090 1.000000 -0.625079 -0.277426 1.000000 -0.559123 -0.373449 1.000000 -0.429060 -0.426976 1.000000 -0.343577 -0.464664 1.000000 -0.203494 -0.471390 1.000000 -0.122173 -0.449231 1.000000 -0.000375 -0.413746 1.000000 0.055409 -0.343720 1.000000 0.137060 -0.281887 1.000000 0.154683 -0.187098 1.000000 0.186859 -0.121826 1.000000 0.166725 -0.029258 1.000000 0.154578 0.017511 1.000000 0.109355 0.085804 1.000000 0.069229 0.100837 1.000000 0.018199 0.134181 1.000000 -0.029428 0.116861 1.000000 -0.068448 0.117603 1.000000 -0.106859 0.078055 1.000000 -0.123857 0.057690 1.000000 -0.144790 0.010448 1.000000 -0.138909 -0.017045 1.000000 -0.142562 -0.059391 1.000000 -0.119579 -0.083126 1.000000 -0.111625 -0.113604 1.000000 -0.080025 -0.128440 1.000000 -0.067840 -0.146296 1.000000 -0.035294 -0.152706 1.000000 
-0.028655 -0.191681 1.000000 -0.001431 -0.191060 1.000000 0.000990 -0.195254 1.000000 0.020690 -0.196847 1.000000 0.016975 -0.206566 1.000000 0.034128 -0.217540 1.000000 0.031227 -0.238260 1.000000 0.055843 -0.262083 1.000000 0.065341 -0.293276 1.000000 0.110340 -0.326165 1.000000 0.145222 -0.357905 1.000000 0.220977 -0.385505 1.000000 0.288226 -0.397254 1.000000 0.393409 -0.395544 1.000000 0.484020 -0.362155 1.000000 0.598319 -0.307754 1.000000 0.683612 -0.214087 1.000000 0.772651 -0.100754 1.000000 0.815784 0.047006 1.000000 0.845936 0.201985 1.000000 0.818355 0.377294 1.000000 0.769460 0.538665 1.000000 0.661091 0.702207 1.000000 0.533908 0.826929 1.000000 0.357367 0.937715 1.000000 0.175124 0.987141 1.000000 -0.035487 1.015797 1.000000 -0.232838 0.969007 1.000000 -0.430246 0.909207 1.000000 -0.598721 0.772526 1.000000 -0.737135 0.643895 1.000000 -0.843390 0.449972 1.000000 -0.894154 0.289606 1.000000 -0.925306 0.084155 1.000000 -0.884402 -0.069494 1.000000 -0.846766 -0.245038 1.000000 -0.730444 -0.363392 1.000000 -0.642393 -0.480632 1.000000 -0.478838 -0.545670 1.000000 -0.366661 -0.588807 1.000000 -0.191336 -0.593079 1.000000 -0.085394 -0.560667 1.000000 0.065027 -0.510341 1.000000 0.136945 -0.418155 1.000000 0.234292 -0.334378 1.000000 0.255869 -0.212585 1.000000 0.288838 -0.125951 1.000000 0.261034 -0.009608 1.000000 0.237495 0.050837 1.000000 0.177403 0.133497 1.000000 0.119670 0.150833 1.000000 0.052909 0.186999 1.000000 -0.011823 0.161726 1.000000 -0.062155 0.156129 1.000000 -0.112525 0.103147 1.000000 -0.134397 0.072231 1.000000 -0.160884 0.011432 1.000000 -0.154414 -0.026073 1.000000 -0.158582 -0.078384 1.000000 -0.132070 -0.108642 1.000000 -0.122163 -0.144080 1.000000 -0.086869 -0.161124 1.000000 -0.072896 -0.179496 1.000000 -0.038716 -0.184652 1.000000 
-0.026656 -0.199149 1.000000 0.000846 -0.193756 1.000000 0.000556 -0.192875 1.000000 0.016055 -0.190557 1.000000 0.005503 -0.198137 1.000000 0.015205 -0.209248 1.000000 0.003093 -0.233842 1.000000 0.020253 -0.264747 1.000000 0.022319 -0.307925 1.000000 0.065477 -0.356065 1.000000 0.101280 -0.406997 1.000000 0.187539 -0.454987 1.000000 0.270483 -0.486705 1.000000 0.401762 -0.501324 1.000000 0.523046 -0.477389 1.000000 0.673135 -0.423337 1.000000 0.793875 -0.319713 1.000000 0.915523 -0.185418 1.000000 0.984945 -0.007978 1.000000 1.032794 0.184759 1.000000 1.012016 0.402220 1.000000 0.959090 0.607920 1.000000 0.833910 0.814282 1.000000 0.680264 0.977242 1.000000 0.465449 1.118606 1.000000 0.239670 1.187888 1.000000 -0.022755 1.225213 1.000000 -0.270720 1.172087 1.000000 -0.521315 1.096813 1.000000 -0.735449 0.928169 1.000000 -0.914643 0.766232 1.000000 -1.050162 0.524478 1.000000 -1.118207 0.324555 1.000000 -1.155689 0.069191 1.000000 -1.105260 -0.120330 1.000000 -1.051852 -0.337047 1.000000 -0.904246 -0.481798 1.000000 -0.784260 -0.625056 1.000000 -0.576696 -0.702709 1.000000 -0.425673 -0.752166 1.000000 -0.204793 -0.752656 1.000000 -0.063732 -0.705594 1.000000 0.122794 -0.636084 1.000000 0.216867 -0.512985 1.000000 0.333310 -0.400811 1.000000 0.359413 -0.241644 1.000000 0.392616 -0.126990 1.000000 0.353376 0.022086 1.000000 0.315275 0.101142 1.000000 0.234794 0.203629 1.000000 0.155791 0.225331 1.000000 0.068986 0.265674 1.000000 -0.014907 0.231925 1.000000 -0.077815 0.218305 1.000000 -0.139814 0.150297 1.000000 -0.164960 0.106048 1.000000 -0.194873 0.030465 1.000000 -0.184560 -0.019347 1.000000 -0.186300 -0.081735 1.000000 -0.152507 -0.119544 1.000000 -0.137657 -0.158805 1.000000 -0.095157 -0.177708 1.000000 -0.076836 -0.194449 1.000000 -0.038161 -0.196946 1.000000 
-0.018586 -0.230687 1.000000 0.005020 -0.218273 1.000000 -0.001942 -0.210463 1.000000 0.003153 -0.201793 1.000000 -0.020216 -0.205716 1.000000 -0.026507 -0.215130 1.000000 -0.055863 -0.243308 1.000000 -0.056644 -0.281309 1.000000 -0.071077 -0.338500 1.000000 -0.040162 -0.405125 1.000000 -0.010635 -0.479966 1.000000 0.079911 -0.554709 1.000000 0.177629 -0.611477 1.000000 0.337256 -0.648107 1.000000 0.497235 -0.633528 1.000000 0.693911 -0.578584 1.000000 0.863970 -0.456475 1.000000 1.033051 -0.291824 1.000000 1.142303 -0.070265 1.000000 1.221292 0.174915 1.000000 1.216788 0.450997 1.000000 1.167873 0.716771 1.000000 1.029136 0.981033 1.000000 0.849976 1.195390 1.000000 0.592869 1.378309 1.000000 0.318247 1.475344 1.000000 -0.006543 1.526186 1.000000 -0.313840 1.467567 1.000000 -0.631620 1.373936 1.000000 -0.899996 1.165854 1.000000 -1.132310 0.958609 1.000000 -1.302892 0.653536 1.000000 -1.394939 0.395133 1.000000 -1.441282 0.071208 1.000000 -1.380900 -0.173331 1.000000 -1.309908 -0.446052 1.000000 -1.122789 -0.630985 1.000000 -0.963305 -0.808183 1.000000 -0.696467 -0.904256 1.000000 -0.495067 -0.960710 1.000000 -0.210462 -0.955021 1.000000 -0.022342 -0.888254 1.000000 0.215330 -0.790940 1.000000 0.340169 -0.628671 1.000000 0.483608 -0.476924 1.000000 0.517707 -0.271891 1.000000 0.551440 -0.119915 1.000000 0.499499 0.067733 1.000000 0.441642 0.169419 1.000000 0.336610 0.292981 1.000000 0.228805 0.316642 1.000000 0.117545 0.357697 1.000000 0.007818 0.308526 1.000000 -0.070308 0.281036 1.000000 -0.148037 0.190292 1.000000 -0.177414 0.127289 1.000000 -0.212638 0.031032 1.000000 -0.198833 -0.034646 1.000000 -0.198949 -0.110436 1.000000 -0.158518 -0.157285 1.000000 -0.139414 -0.201430 1.000000 -0.091151 -0.221945 1.000000 -0.069737 -0.236491 1.000000 -0.029174 -0.234831 1.000000 
-0.000028 -0.233343 1.000000 0.020904 -0.210400 1.000000 0.007227 -0.191008 1.000000 0.001584 -0.172283 1.000000 -0.036609 -0.168478 1.000000 -0.061071 -0.173600 1.000000 -0.112068 -0.203705 1.000000 -0.134462 -0.249533 1.000000 -0.171363 -0.324407 1.000000 -0.155584 -0.416507 1.000000 -0.136282 -0.527070 1.000000 -0.038660 -0.643251 1.000000 0.078034 -0.744050 1.000000 0.278794 -0.820930 1.000000 0.492712 -0.834044 1.000000 0.754454 -0.790072 1.000000 0.991969 -0.658853 1.000000 1.222853 -0.463751 1.000000 1.384850 -0.196219 1.000000 1.500879 0.110274 1.000000 1.516095 0.455639 1.000000 1.467809 0.795573 1.000000 1.309240 1.132178 1.000000 1.092733 1.413509 1.000000 0.778660 1.650336 1.000000 0.435896 1.787300 1.000000 0.026779 1.857299 1.000000 -0.366287 1.797164 1.000000 -0.779498 1.682969 1.000000 -1.134116 1.428859 1.000000 -1.449137 1.169129 1.000000 -1.682993 0.787107 1.000000 -1.818094 0.462944 1.000000 -1.885120 0.055152 1.000000 -1.814728 -0.251704 1.000000 -1.718678 -0.595157 1.000000 -1.476698 -0.828401 1.000000 -1.256450 -1.051378 1.000000 -0.907593 -1.170947 1.000000 -0.629809 -1.238171 1.000000 -0.259747 -1.225381 1.000000 -0.002663 -1.131386 1.000000 0.301300 -0.998595 1.000000 0.469101 -0.781262 1.000000 0.646120 -0.578350 1.000000 0.689292 -0.309476 1.000000 0.722462 -0.108782 1.000000 0.650714 0.131884 1.000000 0.567311 0.264031 1.000000 0.427766 0.416466 1.000000 0.284786 0.444395 1.000000 0.142164 0.486660 1.000000 0.003925 0.419778 1.000000 -0.089966 0.374159 1.000000 -0.181611 0.257403 1.000000 -0.211215 0.170650 1.000000 -0.247698 0.051884 1.000000 -0.225014 -0.033036 1.000000 -0.219345 -0.122050 1.000000 -0.167427 -0.179080 1.000000 -0.140691 -0.226172 1.000000 -0.082948 -0.247384 1.000000 -0.056020 -0.256426 1.000000 -0.011056 -0.248097 1.000000 
0.033505 -0.262647 1.000000 0.046539 -0.225527 1.000000 0.020999 -0.191143 1.000000 -0.003542 -0.157957 1.000000 -0.065075 -0.143060 1.000000 -0.120161 -0.139672 1.000000 -0.205713 -0.169917 1.000000 -0.267061 -0.222014 1.000000 -0.343133 -0.317378 1.000000 -0.362160 -0.440206 1.000000 -0.368768 -0.596891 1.000000 -0.278037 -0.769024 1.000000 -0.147253 -0.928931 1.000000 0.097069 -1.062785 1.000000 0.378922 -1.109188 1.000000 0.725278 -1.077841 1.000000 1.056266 -0.924874 1.000000 1.375765 -0.684705 1.000000 1.614110 -0.348290 1.000000 1.791030 0.043670 1.000000 1.842540 0.484067 1.000000 1.808556 0.923625 1.000000 1.636839 1.356109 1.000000 1.383546 1.725970 1.000000 1.006425 2.035145 1.000000 0.583900 2.227225 1.000000 0.070620 2.328369 1.000000 -0.427915 2.273845 1.000000 -0.966668 2.141765 1.000000 -1.428960 1.835494 1.000000 -1.855814 1.507486 1.000000 -2.169553 1.022493 1.000000 -2.366310 0.597260 1.000000 -2.465088 0.067842 1.000000 -2.388939 -0.339773 1.000000 -2.268608 -0.784082 1.000000 -1.958655 -1.093212 1.000000 -1.662201 -1.377287 1.000000 -1.201168 -1.530897 1.000000 -0.821739 -1.608556 1.000000 -0.328945 -1.582167 1.000000 0.023017 -1.449301 1.000000 0.422945 -1.262704 1.000000 0.651365 -0.973491 1.000000 0.876095 -0.697115 1.000000 0.934926 -0.348233 1.000000 0.967162 -0.081337 1.000000 0.873361 0.222884 1.000000 0.755112 0.392367 1.000000 0.573918 0.575505 1.000000 0.383448 0.602243 1.000000 0.202909 0.638558 1.000000 0.026909 0.540657 1.000000 -0.084473 0.466573 1.000000 -0.193479 0.311541 1.000000 -0.221965 0.193377 1.000000 -0.259736 0.044831 1.000000 -0.226878 -0.063000 1.000000 -0.214901 -0.168023 1.000000 -0.151711 -0.235939 1.000000 -0.117584 -0.285909 1.000000 -0.052163 -0.306615 1.000000 -0.021115 -0.308384 1.000000 0.024944 -0.290824 1.000000 