# vtk DataFile Version 2.0
Comment goes here
ASCII

DATASET STRUCTURED_POINTS
DIMENSIONS    64   64   1

ORIGIN    0.000   0.000   0.000
SPACING   0.0781250.078125   1.000

POINT_DATA   4096
VECTORS u double

0.086226 0.000000 1.000000 0.133113 0.000000 1.000000 0.219749 0.000000 1.000000 0.267798 0.000000 1.000000 0.353788 0.000000 1.000000 0.404178 0.000000 1.000000 0.488949 0.000000 1.000000 0.542241 0.000000 1.000000 0.624309 0.000000 1.000000 0.680071 0.000000 1.000000 0.756749 0.000000 1.000000 0.813195 0.000000 1.000000 0.880435 0.000000 1.000000 0.934187 0.000000 1.000000 0.986672 0.000000 1.000000 1.032784 0.000000 1.000000 1.064368 0.000000 1.000000 1.096763 0.000000 1.000000 1.101271 0.000000 1.000000 1.113595 0.000000 1.000000 1.085914 0.000000 1.000000 1.072716 0.000000 1.000000 1.009959 0.000000 1.000000 0.967933 0.000000 1.000000 0.870416 0.000000 1.000000 0.799381 0.000000 1.000000 0.671122 0.000000 1.000000 0.574463 0.000000 1.000000 0.423005 0.000000 1.000000 0.307421 0.000000 1.000000 0.142993 0.000000 1.000000 0.017613 0.000000 1.000000 -0.148161 0.000000 1.000000 -0.273043 0.000000 1.000000 -0.428577 0.000000 1.000000 -0.542871 0.000000 1.000000 -0.677939 0.000000 1.000000 -0.773035 0.000000 1.000000 -0.879811 0.000000 1.000000 -0.949571 0.000000 1.000000 -1.023270 0.000000 1.000000 -1.064611 0.000000 1.000000 -1.103664 0.000000 1.000000 -1.116670 0.000000 1.000000 -1.122469 0.000000 1.000000 -1.110046 0.000000 1.000000 -1.086374 0.000000 1.000000 -1.053525 0.000000 1.000000 -1.005770 0.000000 1.000000 -0.958605 0.000000 1.000000 -0.892850 0.000000 1.000000 -0.837493 0.000000 1.000000 -0.759629 0.000000 1.000000 -0.701260 0.000000 1.000000 -0.616287 0.000000 1.000000 -0.558570 0.000000 1.000000 -0.470225 0.000000 1.000000 -0.415183 0.000000 1.000000 -0.325899 0.000000 1.000000 -0.274139 0.000000 1.000000 -0.185221 0.000000 1.000000 -0.136303 0.000000 1.000000 -0.048224 0.000000 1.000000 -0.001040 0.000000 1.000000 
0.078252 -0.067076 1.000000 0.125396 -0.066761 1.000000 0.212557 -0.067342 1.000000 0.260984 -0.067020 1.000000 0.347648 -0.068190 1.000000 0.398603 -0.067580 1.000000 0.484234 -0.069031 1.000000 0.538343 -0.067680 1.000000 0.621482 -0.068915 1.000000 0.678358 -0.066220 1.000000 0.756317 -0.066562 1.000000 0.814185 -0.061843 1.000000 0.882874 -0.060496 1.000000 0.938308 -0.053118 1.000000 0.992329 -0.049299 1.000000 1.040278 -0.038848 1.000000 1.073364 -0.031989 1.000000 1.107587 -0.018451 1.000000 1.113425 -0.008416 1.000000 1.127387 0.007679 1.000000 1.100724 0.020439 1.000000 1.088800 0.037977 1.000000 1.026633 0.052392 1.000000 0.985379 0.069772 1.000000 0.887951 0.084276 1.000000 0.817104 0.099647 1.000000 0.688414 0.112459 1.000000 0.591335 0.124058 1.000000 0.438961 0.133521 1.000000 0.322373 0.140006 1.000000 0.156630 0.144904 1.000000 0.029729 0.145577 1.000000 -0.137644 0.145328 1.000000 -0.264454 0.140208 1.000000 -0.421738 0.134914 1.000000 -0.538216 0.124681 1.000000 -0.675048 0.115082 1.000000 -0.772386 0.100936 1.000000 -0.880815 0.088268 1.000000 -0.952663 0.071729 1.000000 -1.027806 0.057520 1.000000 -1.070896 0.040197 1.000000 -1.111116 0.026030 1.000000 -1.125407 0.009403 1.000000 -1.132064 -0.003312 1.000000 -1.120417 -0.018047 1.000000 -1.097294 -0.028261 1.000000 -1.064759 -0.040302 1.000000 -1.017272 -0.047460 1.000000 -0.970074 -0.056460 1.000000 -0.904367 -0.060556 1.000000 -0.848775 -0.066611 1.000000 -0.770809 -0.068116 1.000000 -0.712130 -0.071671 1.000000 -0.626968 -0.071345 1.000000 -0.568949 -0.073031 1.000000 -0.480368 -0.071693 1.000000 -0.425069 -0.072163 1.000000 -0.335520 -0.070522 1.000000 -0.283549 -0.070339 1.000000 -0.194336 -0.068918 1.000000 -0.145231 -0.068498 1.000000 -0.056811 -0.067632 1.000000 -0.009429 -0.067225 1.000000 
0.086691 -0.134826 1.000000 0.132842 -0.134305 1.000000 0.219478 -0.135587 1.000000 0.266931 -0.135091 1.000000 0.353202 -0.137619 1.000000 0.403307 -0.136586 1.000000 0.488814 -0.139740 1.000000 0.542318 -0.137248 1.000000 0.625726 -0.140016 1.000000 0.682377 -0.134834 1.000000 0.761076 -0.135826 1.000000 0.819209 -0.126557 1.000000 0.889104 -0.124123 1.000000 0.945323 -0.109456 1.000000 1.000880 -0.101970 1.000000 1.050027 -0.081035 1.000000 1.084695 -0.067310 1.000000 1.120258 -0.040061 1.000000 1.127321 -0.019800 1.000000 1.142363 0.012701 1.000000 1.116122 0.038587 1.000000 1.104574 0.074091 1.000000 1.041656 0.103421 1.000000 0.999718 0.138682 1.000000 0.900192 0.168275 1.000000 0.827467 0.199538 1.000000 0.695440 0.225770 1.000000 0.595440 0.249452 1.000000 0.438876 0.268962 1.000000 0.318738 0.282331 1.000000 0.148510 0.292644 1.000000 0.017993 0.294274 1.000000 -0.153559 0.294183 1.000000 -0.283474 0.284094 1.000000 -0.444107 0.273762 1.000000 -0.562699 0.253310 1.000000 -0.701668 0.234170 1.000000 -0.799829 0.205767 1.000000 -0.908991 0.180277 1.000000 -0.980289 0.146991 1.000000 -1.054771 0.118232 1.000000 -1.096070 0.083310 1.000000 -1.134427 0.054511 1.000000 -1.145982 0.020948 1.000000 -1.149891 -0.004989 1.000000 -1.134967 -0.034771 1.000000 -1.108602 -0.055658 1.000000 -1.072697 -0.080022 1.000000 -1.021898 -0.094684 1.000000 -0.971670 -0.112905 1.000000 -0.902967 -0.121300 1.000000 -0.845017 -0.133558 1.000000 -0.764651 -0.136645 1.000000 -0.704450 -0.143841 1.000000 -0.617606 -0.143181 1.000000 -0.558876 -0.146599 1.000000 -0.469316 -0.143879 1.000000 -0.413973 -0.144848 1.000000 -0.324039 -0.141520 1.000000 -0.272504 -0.141184 1.000000 -0.183355 -0.138318 1.000000 -0.134995 -0.137525 1.000000 -0.046937 -0.135802 1.000000 -0.000476 -0.135063 1.000000 
0.079013 -0.200394 1.000000 0.124625 -0.199549 1.000000 0.211746 -0.201432 1.000000 0.258915 -0.200744 1.000000 0.346103 -0.204566 1.000000 0.396423 -0.203192 1.000000 0.483502 -0.208042 1.000000 0.537989 -0.204592 1.000000 0.623809 -0.208974 1.000000 0.682455 -0.201570 1.000000 0.764494 -0.203394 1.000000 0.825780 -0.189871 1.000000 0.899862 -0.186610 1.000000 0.960339 -0.164894 1.000000 1.020622 -0.154002 1.000000 1.074797 -0.122662 1.000000 1.114190 -0.102221 1.000000 1.154935 -0.061078 1.000000 1.166019 -0.030521 1.000000 1.185591 0.018877 1.000000 1.161923 0.058228 1.000000 1.153434 0.112444 1.000000 1.091020 0.157247 1.000000 1.050026 0.211235 1.000000 0.948602 0.256527 1.000000 0.874402 0.304400 1.000000 0.738140 0.344486 1.000000 0.634355 0.380622 1.000000 0.471687 0.410224 1.000000 0.345926 0.430372 1.000000 0.168470 0.445649 1.000000 0.031189 0.447646 1.000000 -0.147872 0.446794 1.000000 -0.284901 0.430756 1.000000 -0.452521 0.414139 1.000000 -0.577789 0.382243 1.000000 -0.722550 0.352212 1.000000 -0.826229 0.308259 1.000000 -0.939528 0.268727 1.000000 -1.014641 0.217509 1.000000 -1.091416 0.173301 1.000000 -1.134547 0.119852 1.000000 -1.173411 0.075942 1.000000 -1.184841 0.024866 1.000000 -1.187721 -0.014328 1.000000 -1.171026 -0.059336 1.000000 -1.142486 -0.090531 1.000000 -1.103725 -0.127006 1.000000 -1.050091 -0.148487 1.000000 -0.996624 -0.175390 1.000000 -0.924949 -0.187209 1.000000 -0.864044 -0.204927 1.000000 -0.781010 -0.208684 1.000000 -0.718583 -0.218716 1.000000 -0.629639 -0.216919 1.000000 -0.569560 -0.221321 1.000000 -0.478531 -0.216596 1.000000 -0.422629 -0.217440 1.000000 -0.331781 -0.211992 1.000000 -0.280281 -0.211023 1.000000 -0.190621 -0.206427 1.000000 -0.142671 -0.204916 1.000000 -0.054319 -0.202151 1.000000 -0.008435 -0.200854 1.000000 
0.088003 -0.267885 1.000000 0.131790 -0.267038 1.000000 0.218247 -0.269877 1.000000 0.263744 -0.269447 1.000000 0.350678 -0.275127 1.000000 0.399740 -0.273986 1.000000 0.487305 -0.281305 1.000000 0.541264 -0.277554 1.000000 0.628611 -0.284482 1.000000 0.687809 -0.275520 1.000000 0.772615 -0.279152 1.000000 0.835819 -0.261925 1.000000 0.913896 -0.258683 1.000000 0.977731 -0.230215 1.000000 1.042901 -0.216427 1.000000 1.101576 -0.174603 1.000000 1.146037 -0.147448 1.000000 1.191693 -0.091890 1.000000 1.207000 -0.050456 1.000000 1.230814 0.016797 1.000000 1.209381 0.070745 1.000000 1.203269 0.144994 1.000000 1.140118 0.206828 1.000000 1.098666 0.281100 1.000000 0.993027 0.343899 1.000000 0.915108 0.410000 1.000000 0.771358 0.465816 1.000000 0.660900 0.515905 1.000000 0.488376 0.557391 1.000000 0.353950 0.585549 1.000000 0.165613 0.607380 1.000000 0.019006 0.610615 1.000000 -0.170534 0.610274 1.000000 -0.316178 0.588743 1.000000 -0.492623 0.566650 1.000000 -0.624601 0.523339 1.000000 -0.775592 0.482610 1.000000 -0.883236 0.422746 1.000000 -0.999642 0.368689 1.000000 -1.075608 0.298878 1.000000 -1.152314 0.238138 1.000000 -1.193313 0.165306 1.000000 -1.229299 0.104804 1.000000 -1.236141 0.035258 1.000000 -1.233987 -0.018804 1.000000 -1.211065 -0.080005 1.000000 -1.176169 -0.122960 1.000000 -1.130548 -0.172417 1.000000 -1.070174 -0.201785 1.000000 -1.010278 -0.238047 1.000000 -0.932382 -0.253880 1.000000 -0.866367 -0.277498 1.000000 -0.778305 -0.282105 1.000000 -0.712548 -0.295212 1.000000 -0.620068 -0.292205 1.000000 -0.558415 -0.297707 1.000000 -0.465299 -0.290810 1.000000 -0.409241 -0.291598 1.000000 -0.317503 -0.283868 1.000000 -0.266835 -0.282344 1.000000 -0.177159 -0.275927 1.000000 -0.130649 -0.273826 1.000000 -0.042826 -0.270039 1.000000 0.001309 -0.268396 1.000000 
0.080388 -0.330876 1.000000 0.122622 -0.329793 1.000000 0.209294 -0.333385 1.000000 0.253597 -0.333175 1.000000 0.341466 -0.340562 1.000000 0.390126 -0.339819 1.000000 0.479789 -0.349567 1.000000 0.534648 -0.345897 1.000000 0.625657 -0.355520 1.000000 0.687582 -0.345574 1.000000 0.777864 -0.351404 1.000000 0.846005 -0.331153 1.000000 0.931308 -0.328522 1.000000 1.002306 -0.293899 1.000000 1.075925 -0.277847 1.000000 1.143434 -0.225798 1.000000 1.196544 -0.192338 1.000000 1.251532 -0.122042 1.000000 1.274293 -0.069641 1.000000 1.306345 0.016497 1.000000 1.289661 0.085773 1.000000 1.289038 0.181707 1.000000 1.226640 0.261850 1.000000 1.186612 0.358326 1.000000 1.077024 0.440086 1.000000 0.995865 0.526069 1.000000 0.843617 0.598693 1.000000 0.725546 0.663603 1.000000 0.540994 0.717174 1.000000 0.395634 0.753135 1.000000 0.193318 0.780593 1.000000 0.033924 0.783794 1.000000 -0.169832 0.781978 1.000000 -0.328563 0.752844 1.000000 -0.517897 0.722563 1.000000 -0.661763 0.665212 1.000000 -0.823029 0.610847 1.000000 -0.940013 0.532309 1.000000 -1.063231 0.461099 1.000000 -1.145018 0.370181 1.000000 -1.224803 0.291006 1.000000 -1.267697 0.196838 1.000000 -1.303279 0.118770 1.000000 -1.308271 0.029554 1.000000 -1.302814 -0.039403 1.000000 -1.275014 -0.117154 1.000000 -1.234731 -0.171048 1.000000 -1.182382 -0.233001 1.000000 -1.115549 -0.268757 1.000000 -1.048541 -0.313182 1.000000 -0.964210 -0.331120 1.000000 -0.892075 -0.359004 1.000000 -0.798519 -0.362503 1.000000 -0.728477 -0.376953 1.000000 -0.631923 -0.371051 1.000000 -0.567961 -0.376090 1.000000 -0.472222 -0.365771 1.000000 -0.415501 -0.365237 1.000000 -0.322354 -0.354397 1.000000 -0.272188 -0.351366 1.000000 -0.181974 -0.342613 1.000000 -0.136679 -0.339249 1.000000 -0.048814 -0.334109 1.000000 -0.006233 -0.331682 1.000000 
0.089921 -0.396740 1.000000 0.129274 -0.395944 1.000000 0.214816 -0.400853 1.000000 0.256485 -0.401620 1.000000 0.343912 -0.411656 1.000000 0.390584 -0.412309 1.000000 0.481039 -0.425827 1.000000 0.535096 -0.423423 1.000000 0.628684 -0.437416 1.000000 0.691648 -0.427726 1.000000 0.786726 -0.437575 1.000000 0.858360 -0.415369 1.000000 0.950774 -0.414983 1.000000 1.027990 -0.374833 1.000000 1.110554 -0.357555 1.000000 1.186591 -0.295222 1.000000 1.249270 -0.255547 1.000000 1.313817 -0.169639 1.000000 1.344942 -0.105268 1.000000 1.385586 0.001429 1.000000 1.373933 0.088052 1.000000 1.378663 0.208015 1.000000 1.316049 0.309254 1.000000 1.276216 0.430715 1.000000 1.160096 0.534646 1.000000 1.073078 0.643407 1.000000 0.908291 0.736135 1.000000 0.778844 0.818528 1.000000 0.577435 0.887303 1.000000 0.416977 0.933225 1.000000 0.195968 0.969091 1.000000 0.020168 0.973766 1.000000 -0.201606 0.972760 1.000000 -0.375643 0.936809 1.000000 -0.580215 0.899850 1.000000 -0.736224 0.828470 1.000000 -0.908330 0.760860 1.000000 -1.032787 0.662948 1.000000 -1.161531 0.573694 1.000000 -1.245447 0.460451 1.000000 -1.325389 0.360817 1.000000 -1.365277 0.243781 1.000000 -1.396314 0.145378 1.000000 -1.394046 0.034793 1.000000 -1.380435 -0.052060 1.000000 -1.342449 -0.148088 1.000000 -1.291759 -0.215592 1.000000 -1.227997 -0.291599 1.000000 -1.150089 -0.335626 1.000000 -1.072370 -0.389386 1.000000 -0.977920 -0.410345 1.000000 -0.897460 -0.443188 1.000000 -0.795953 -0.445703 1.000000 -0.720798 -0.461808 1.000000 -0.618906 -0.452721 1.000000 -0.552847 -0.457409 1.000000 -0.454166 -0.443270 1.000000 -0.397609 -0.441466 1.000000 -0.303395 -0.427181 1.000000 -0.254841 -0.422725 1.000000 -0.164865 -0.411436 1.000000 -0.122000 -0.406985 1.000000 -0.035153 -0.400485 1.000000 0.004613 -0.397598 1.000000 
0.082094 -0.455537 1.000000 0.118517 -0.454688 1.000000 0.203572 -0.460596 1.000000 0.242706 -0.462271 1.000000 0.330637 -0.474660 1.000000 0.375778 -0.476947 1.000000 0.468449 -0.494079 1.000000 0.522795 -0.493541 1.000000 0.621041 -0.512071 1.000000 0.687072 -0.503616 1.000000 0.789819 -0.518116 1.000000 0.868146 -0.495202 1.000000 0.971338 -0.498152 1.000000 1.059167 -0.453679 1.000000 1.154915 -0.436448 1.000000 1.244749 -0.364515 1.000000 1.321384 -0.319564 1.000000 1.400995 -0.217713 1.000000 1.444507 -0.141410 1.000000 1.498751 -0.012495 1.000000 1.495312 0.092695 1.000000 1.509273 0.239591 1.000000 1.448373 0.364298 1.000000 1.411054 0.514279 1.000000 1.288794 0.643223 1.000000 1.196499 0.777874 1.000000 1.017945 0.892928 1.000000 0.876025 0.994459 1.000000 0.655101 1.079041 1.000000 0.476956 1.134602 1.000000 0.233523 1.177402 1.000000 0.037375 1.181368 1.000000 -0.206868 1.177789 1.000000 -0.401456 1.131452 1.000000 -0.626097 1.083144 1.000000 -0.800548 0.993327 1.000000 -0.988257 0.907410 1.000000 -1.126846 0.785511 1.000000 -1.265346 0.673759 1.000000 -1.357497 0.534039 1.000000 -1.441060 0.410836 1.000000 -1.482722 0.267763 1.000000 -1.511859 0.147539 1.000000 -1.505303 0.013675 1.000000 -1.485303 -0.091000 1.000000 -1.438153 -0.205830 1.000000 -1.377856 -0.285500 1.000000 -1.302024 -0.374671 1.000000 -1.212937 -0.424384 1.000000 -1.122855 -0.485351 1.000000 -1.017595 -0.506030 1.000000 -0.927013 -0.540971 1.000000 -0.816710 -0.539165 1.000000 -0.735074 -0.554000 1.000000 -0.627105 -0.539002 1.000000 -0.558110 -0.540830 1.000000 -0.455895 -0.521009 1.000000 -0.399057 -0.516008 1.000000 -0.303290 -0.497165 1.000000 -0.256157 -0.489897 1.000000 -0.165991 -0.475453 1.000000 -0.125527 -0.468961 1.000000 -0.039277 -0.460722 1.000000 -0.002383 -0.456757 1.000000 
0.092074 -0.517639 1.000000 0.124245 -0.517422 1.000000 0.207196 -0.525043 1.000000 0.242332 -0.528685 1.000000 0.329080 -0.544728 1.000000 0.370958 -0.550121 1.000000 0.464171 -0.572843 1.000000 0.516778 -0.576015 1.000000 0.618212 -0.601693 1.000000 0.685145 -0.596504 1.000000 0.794602 -0.618649 1.000000 0.877712 -0.596888 1.000000 0.991596 -0.606004 1.000000 1.088901 -0.558409 1.000000 1.198836 -0.543137 1.000000 1.302490 -0.461691 1.000000 1.395011 -0.411793 1.000000 1.490807 -0.292762 1.000000 1.548944 -0.203025 1.000000 1.618394 -0.049376 1.000000 1.624699 0.077530 1.000000 1.648910 0.254954 1.000000 1.589387 0.407472 1.000000 1.553823 0.590295 1.000000 1.422420 0.749202 1.000000 1.321610 0.914256 1.000000 1.123795 1.056609 1.000000 0.964031 1.181372 1.000000 0.716794 1.286372 1.000000 0.514732 1.354802 1.000000 0.242313 1.408673 1.000000 0.020304 1.414157 1.000000 -0.251580 1.411591 1.000000 -0.470211 1.356038 1.000000 -0.718095 1.298942 1.000000 -0.911622 1.190631 1.000000 -1.115697 1.087159 1.000000 -1.265939 0.940036 1.000000 -1.412441 0.804345 1.000000 -1.507786 0.636165 1.000000 -1.591065 0.486043 1.000000 -1.627970 0.314580 1.000000 -1.649808 0.167958 1.000000 -1.631991 0.008236 1.000000 -1.599367 -0.119210 1.000000 -1.536370 -0.255534 1.000000 -1.460030 -0.351722 1.000000 -1.366301 -0.456518 1.000000 -1.260181 -0.514795 1.000000 -1.153421 -0.584728 1.000000 -1.032932 -0.606187 1.000000 -0.929989 -0.644073 1.000000 -0.808372 -0.637643 1.000000 -0.720041 -0.651414 1.000000 -0.605156 -0.629685 1.000000 -0.534304 -0.628618 1.000000 -0.428825 -0.602323 1.000000 -0.373288 -0.594071 1.000000 -0.276853 -0.570081 1.000000 -0.232748 -0.560024 1.000000 -0.143605 -0.542067 1.000000 -0.106999 -0.533699 1.000000 -0.022744 -0.523629 1.000000 0.009948 -0.518969 1.000000 
0.083774 -0.569834 1.000000 0.111181 -0.569810 1.000000 0.192294 -0.578684 1.000000 0.222942 -0.584155 1.000000 0.309038 -0.603286 1.000000 0.347436 -0.612038 1.000000 0.442241 -0.639899 1.000000 0.493560 -0.647582 1.000000 0.600068 -0.680438 1.000000 0.669547 -0.680007 1.000000 0.788745 -0.710683 1.000000 0.879990 -0.692196 1.000000 1.008876 -0.709342 1.000000 1.120952 -0.660918 1.000000 1.250406 -0.650036 1.000000 1.374708 -0.560690 1.000000 1.488804 -0.507881 1.000000 1.608101 -0.371645 1.000000 1.686148 -0.268997 1.000000 1.777448 -0.088250 1.000000 1.797753 0.062179 1.000000 1.837286 0.274903 1.000000 1.781810 0.459386 1.000000 1.750947 0.681246 1.000000 1.611007 0.875436 1.000000 1.502334 1.076499 1.000000 1.283650 1.250507 1.000000 1.104634 1.401461 1.000000 0.827608 1.528340 1.000000 0.598618 1.609082 1.000000 0.292524 1.671829 1.000000 0.040198 1.675261 1.000000 -0.264798 1.668304 1.000000 -0.513726 1.597967 1.000000 -0.790907 1.524555 1.000000 -1.011631 1.390930 1.000000 -1.238026 1.261728 1.000000 -1.408799 1.082255 1.000000 -1.568305 0.915605 1.000000 -1.674886 0.712662 1.000000 -1.761733 0.531020 1.000000 -1.799904 0.326506 1.000000 -1.817331 0.151561 1.000000 -1.791604 -0.036765 1.000000 -1.748238 -0.186621 1.000000 -1.669825 -0.345167 1.000000 -1.578013 -0.455569 1.000000 -1.464258 -0.574521 1.000000 -1.340299 -0.637264 1.000000 -1.213390 -0.712600 1.000000 -1.076070 -0.729461 1.000000 -0.957605 -0.765531 1.000000 -0.823189 -0.749113 1.000000 -0.726284 -0.757216 1.000000 -0.603505 -0.724738 1.000000 -0.529991 -0.717161 1.000000 -0.420643 -0.682025 1.000000 -0.366171 -0.667979 1.000000 -0.268666 -0.637705 1.000000 -0.227634 -0.623146 1.000000 -0.139233 -0.601202 1.000000 -0.106724 -0.589821 1.000000 -0.024264 -0.577669 1.000000 0.003822 -0.571574 1.000000 
0.094037 -0.624998 1.000000 0.115517 -0.625941 1.000000 0.192873 -0.636803 1.000000 0.217674 -0.645429 1.000000 0.301037 -0.669222 1.000000 0.334102 -0.683325 1.000000 0.428267 -0.718968 1.000000 0.475779 -0.733842 1.000000 0.585184 -0.777680 1.000000 0.654170 -0.785181 1.000000 0.781496 -0.829093 1.000000 0.877963 -0.817019 1.000000 1.021557 -0.846965 1.000000 1.146677 -0.799939 1.000000 1.297299 -0.796893 1.000000 1.442648 -0.700089 1.000000 1.581867 -0.645186 1.000000 1.727285 -0.490107 1.000000 1.829813 -0.372372 1.000000 1.946886 -0.160981 1.000000 1.985131 0.017693 1.000000 2.043347 0.270897 1.000000 1.993009 0.493811 1.000000 1.967262 0.761097 1.000000 1.815207 0.997814 1.000000 1.694496 1.241614 1.000000 1.446827 1.454309 1.000000 1.240338 1.637414 1.000000 0.923258 1.792388 1.000000 0.657518 1.889887 1.000000 0.308244 1.967093 1.000000 0.016949 1.971479 1.000000 -0.328257 1.965514 1.000000 -0.613053 1.882146 1.000000 -0.923922 1.796847 1.000000 -1.173124 1.637750 1.000000 -1.422926 1.484327 1.000000 -1.610624 1.270315 1.000000 -1.780592 1.070431 1.000000 -1.890978 0.829593 1.000000 -1.975879 0.611061 1.000000 -2.006132 0.370178 1.000000 -2.011850 0.159659 1.000000 -1.968961 -0.060856 1.000000 -1.906614 -0.240989 1.000000 -1.804152 -0.425760 1.000000 -1.688239 -0.557289 1.000000 -1.546826 -0.694232 1.000000 -1.397076 -0.765663 1.000000 -1.244412 -0.848957 1.000000 -1.084634 -0.861972 1.000000 -0.948412 -0.896954 1.000000 -0.798834 -0.868964 1.000000 -0.694484 -0.871098 1.000000 -0.563972 -0.825978 1.000000 -0.490541 -0.811480 1.000000 -0.378678 -0.766143 1.000000 -0.328096 -0.746048 1.000000 -0.231249 -0.708619 1.000000 -0.195568 -0.689457 1.000000 -0.109708 -0.662977 1.000000 -0.082981 -0.648668 1.000000 -0.004115 -0.634174 1.000000 0.018082 -0.627008 1.000000 
0.085132 -0.667269 1.000000 0.099575 -0.668645 1.000000 0.172883 -0.680842 1.000000 0.190507 -0.692319 1.000000 0.270996 -0.719713 1.000000 0.297437 -0.739267 1.000000 0.391320 -0.781577 1.000000 0.434309 -0.804499 1.000000 0.547988 -0.858828 1.000000 0.617203 -0.876319 1.000000 0.755696 -0.934476 1.000000 0.860644 -0.932256 1.000000 1.024126 -0.978056 1.000000 1.168866 -0.936660 1.000000 1.347722 -0.946008 1.000000 1.523527 -0.845258 1.000000 1.695585 -0.792518 1.000000 1.877385 -0.619592 1.000000 2.011543 -0.488598 1.000000 2.163543 -0.243568 1.000000 2.225594 -0.034282 1.000000 2.309300 0.267025 1.000000 2.267989 0.535471 1.000000 2.251124 0.859049 1.000000 2.087966 1.148203 1.000000 1.955768 1.444878 1.000000 1.676862 1.704665 1.000000 1.440854 1.925031 1.000000 1.078897 2.111160 1.000000 0.772962 2.224096 1.000000 0.374571 2.312398 1.000000 0.039834 2.311762 1.000000 -0.352157 2.298306 1.000000 -0.679937 2.193632 1.000000 -1.032435 2.084626 1.000000 -1.321216 1.889933 1.000000 -1.602531 1.699227 1.000000 -1.819973 1.439921 1.000000 -2.006513 1.195959 1.000000 -2.131999 0.907949 1.000000 -2.219112 0.646174 1.000000 -2.249447 0.362477 1.000000 -2.246677 0.114389 1.000000 -2.190634 -0.142001 1.000000 -2.111626 -0.351429 1.000000 -1.984597 -0.563542 1.000000 -1.844988 -0.712896 1.000000 -1.671090 -0.865683 1.000000 -1.493446 -0.939678 1.000000 -1.308063 -1.025042 1.000000 -1.122367 -1.025461 1.000000 -0.962862 -1.051332 1.000000 -0.795585 -1.003042 1.000000 -0.681591 -0.992078 1.000000 -0.542264 -0.928681 1.000000 -0.468655 -0.902455 1.000000 -0.353856 -0.844470 1.000000 -0.307440 -0.815408 1.000000 -0.211027 -0.770233 1.000000 -0.181081 -0.744687 1.000000 -0.097680 -0.713790 1.000000 -0.077274 -0.695414 1.000000 -0.002090 -0.678732 1.000000 0.013412 -0.669726 1.000000 
0.095532 -0.711161 1.000000 0.102251 -0.713692 1.000000 0.169362 -0.727735 1.000000 0.178855 -0.743542 1.000000 0.253983 -0.776152 1.000000 0.271993 -0.803649 1.000000 0.362583 -0.855840 1.000000 0.397874 -0.890510 1.000000 0.512405 -0.960573 1.000000 0.577256 -0.992888 1.000000 0.723838 -1.072534 1.000000 0.832235 -1.085450 1.000000 1.014422 -1.155187 1.000000 1.175486 -1.123534 1.000000 1.384869 -1.151554 1.000000 1.591791 -1.047952 1.000000 1.802706 -0.999045 1.000000 2.025905 -0.806065 1.000000 2.200219 -0.658529 1.000000 2.395214 -0.375031 1.000000 2.489591 -0.128065 1.000000 2.606827 0.228501 1.000000 2.578849 0.551987 1.000000 2.574098 0.941121 1.000000 2.395581 1.293171 1.000000 2.246349 1.652718 1.000000 1.923241 1.969223 1.000000 1.644408 2.235379 1.000000 1.221179 2.460280 1.000000 0.859162 2.594213 1.000000 0.397893 2.700222 1.000000 0.006341 2.698207 1.000000 -0.441445 2.685285 1.000000 -0.820867 2.562424 1.000000 -1.221122 2.438126 1.000000 -1.552091 2.207846 1.000000 -1.866885 1.983084 1.000000 -2.108598 1.674297 1.000000 -2.308072 1.382457 1.000000 -2.437089 1.042192 1.000000 -2.518369 0.728510 1.000000 -2.535454 0.397743 1.000000 -2.514293 0.100845 1.000000 -2.432929 -0.195908 1.000000 -2.326495 -0.447026 1.000000 -2.163928 -0.692397 1.000000 -1.988716 -0.870796 1.000000 -1.771820 -1.045774 1.000000 -1.554526 -1.128690 1.000000 -1.328094 -1.220036 1.000000 -1.108602 -1.207173 1.000000 -0.923482 -1.223736 1.000000 -0.736957 -1.150235 1.000000 -0.617500 -1.124420 1.000000 -0.471853 -1.038913 1.000000 -0.404040 -0.999888 1.000000 -0.289616 -0.927359 1.000000 -0.252116 -0.888877 1.000000 -0.159059 -0.834977 1.000000 -0.137882 -0.802804 1.000000 -0.059412 -0.766784 1.000000 -0.047062 -0.744257 1.000000 0.022259 -0.724861 1.000000 0.030108 -0.714230 1.000000 
0.086238 -0.739413 1.000000 0.083443 -0.742475 1.000000 0.143303 -0.757445 1.000000 0.142228 -0.776940 1.000000 0.210826 -0.812851 1.000000 0.217497 -0.847867 1.000000 0.303910 -0.907458 1.000000 0.328709 -0.954322 1.000000 0.444254 -1.038210 1.000000 0.503360 -1.087751 1.000000 0.660495 -1.189455 1.000000 0.774626 -1.222841 1.000000 0.981733 -1.321307 1.000000 1.167401 -1.307107 1.000000 1.417288 -1.362314 1.000000 1.669272 -1.263096 1.000000 1.929970 -1.226632 1.000000 2.209689 -1.017104 1.000000 2.433805 -0.857907 1.000000 2.684581 -0.532940 1.000000 2.819318 -0.245895 1.000000 2.979168 0.177766 1.000000 2.970422 0.568200 1.000000 2.982520 1.042317 1.000000 2.790558 1.475952 1.000000 2.624420 1.917219 1.000000 2.253934 2.306606 1.000000 1.928989 2.627093 1.000000 1.437517 2.896406 1.000000 1.015900 3.047382 1.000000 0.484833 3.165219 1.000000 0.034323 3.151100 1.000000 -0.475535 3.125514 1.000000 -0.912760 2.973310 1.000000 -1.371632 2.815850 1.000000 -1.761360 2.535696 1.000000 -2.122631 2.255734 1.000000 -2.409435 1.881108 1.000000 -2.629913 1.524451 1.000000 -2.779629 1.118246 1.000000 -2.859219 0.744539 1.000000 -2.874233 0.358402 1.000000 -2.838497 0.011864 1.000000 -2.737145 -0.329800 1.000000 -2.607075 -0.620430 1.000000 -2.407221 -0.901320 1.000000 -2.197153 -1.105003 1.000000 -1.927433 -1.299874 1.000000 -1.665764 -1.383405 1.000000 -1.384022 -1.470966 1.000000 -1.122859 -1.430073 1.000000 -0.902062 -1.422977 1.000000 -0.691963 -1.309024 1.000000 -0.565788 -1.257182 1.000000 -0.413440 -1.142142 1.000000 -0.353219 -1.084692 1.000000 -0.239542 -0.996394 1.000000 -0.212325 -0.945965 1.000000 -0.122764 -0.884467 1.000000 -0.111116 -0.844334 1.000000 -0.037728 -0.804610 1.000000 -0.034196 -0.777085 1.000000 0.028847 -0.755901 1.000000 0.027865 -0.743000 1.000000 
0.096830 -0.766739 1.000000 0.084848 -0.770758 1.000000 0.135325 -0.786520 1.000000 0.123718 -0.811064 1.000000 0.183065 -0.851421 1.000000 0.177109 -0.896733 1.000000 0.255383 -0.967052 1.000000 0.265791 -1.030853 1.000000 0.376744 -1.135225 1.000000 0.422736 -1.209130 1.000000 0.584049 -1.343800 1.000000 0.694328 -1.406688 1.000000 0.922457 -1.547962 1.000000 1.125541 -1.559089 1.000000 1.418562 -1.653425 1.000000 1.716197 -1.560635 1.000000 2.036431 -1.539461 1.000000 2.381406 -1.309900 1.000000 2.670228 -1.133421 1.000000 2.991854 -0.760545 1.000000 3.183903 -0.422652 1.000000 3.403434 0.077398 1.000000 3.425415 0.548636 1.000000 3.464210 1.120985 1.000000 3.254179 1.651270 1.000000 3.063766 2.189342 1.000000 2.623727 2.664654 1.000000 2.230336 3.051796 1.000000 1.643401 3.373368 1.000000 1.136585 3.546896 1.000000 0.517066 3.681799 1.000000 -0.011248 3.658576 1.000000 -0.590816 3.632367 1.000000 -1.097866 3.458521 1.000000 -1.623983 3.286726 1.000000 -2.078762 2.958844 1.000000 -2.491923 2.631160 1.000000 -2.816201 2.181579 1.000000 -3.053753 1.752651 1.000000 -3.206066 1.271498 1.000000 -3.272437 0.823114 1.000000 -3.266113 0.377022 1.000000 -3.202977 -0.036243 1.000000 -3.066760 -0.427331 1.000000 -2.900024 -0.776950 1.000000 -2.650061 -1.102318 1.000000 -2.388362 -1.350583 1.000000 -2.050277 -1.577162 1.000000 -1.724431 -1.672101 1.000000 -1.371837 -1.762942 1.000000 -1.055678 -1.689133 1.000000 -0.795530 -1.654632 1.000000 -0.562889 -1.486509 1.000000 -0.441718 -1.402943 1.000000 -0.290822 -1.251482 1.000000 -0.250732 -1.173786 1.000000 -0.144721 -1.068253 1.000000 -0.135382 -1.005655 1.000000 -0.053836 -0.936186 1.000000 -0.055319 -0.887840 1.000000 0.009852 -0.843705 1.000000 0.003227 -0.810832 1.000000 0.057560 -0.786921 1.000000 0.047599 -0.771621 1.000000 
0.088111 -0.776662 1.000000 0.064500 -0.780970 1.000000 0.103587 -0.796315 1.000000 0.077705 -0.824680 1.000000 0.125150 -0.866242 1.000000 0.101359 -0.920184 1.000000 0.168412 -0.996140 1.000000 0.157940 -1.075684 1.000000 0.261534 -1.195156 1.000000 0.288103 -1.295056 1.000000 0.453406 -1.461046 1.000000 0.558260 -1.561248 1.000000 0.814238 -1.752520 1.000000 1.044902 -1.803212 1.000000 1.396755 -1.952970 1.000000 1.763222 -1.880965 1.000000 2.159543 -1.891841 1.000000 2.593371 -1.650901 1.000000 2.959194 -1.468354 1.000000 3.368951 -1.046615 1.000000 3.628219 -0.657476 1.000000 3.918442 -0.063746 1.000000 3.980039 0.507424 1.000000 4.051095 1.213553 1.000000 3.827314 1.876395 1.000000 3.612580 2.547671 1.000000 3.099842 3.140036 1.000000 2.633223 3.607419 1.000000 1.940842 3.990157 1.000000 1.346485 4.173717 1.000000 0.632514 4.313053 1.000000 0.034265 4.258982 1.000000 -0.613536 4.212132 1.000000 -1.187335 4.006477 1.000000 -1.795773 3.796746 1.000000 -2.344076 3.403636 1.000000 -2.836036 2.993172 1.000000 -3.237847 2.442939 1.000000 -3.505587 1.914316 1.000000 -3.690029 1.336929 1.000000 -3.747163 0.804586 1.000000 -3.736191 0.288942 1.000000 -3.651085 -0.187489 1.000000 -3.488243 -0.632753 1.000000 -3.292766 -1.037129 1.000000 -2.989928 -1.412982 1.000000 -2.679168 -1.704787 1.000000 -2.253134 -1.963805 1.000000 -1.852151 -2.061845 1.000000 -1.396959 -2.139719 1.000000 -1.005088 -2.006380 1.000000 -0.684725 -1.915766 1.000000 -0.421919 -1.662835 1.000000 -0.310746 -1.529249 1.000000 -0.165190 -1.333128 1.000000 -0.153498 -1.230793 1.000000 -0.058489 -1.111744 1.000000 -0.070772 -1.036850 1.000000 0.001633 -0.964530 1.000000 -0.014103 -0.908022 1.000000 0.042374 -0.863156 1.000000 0.024835 -0.824793 1.000000 0.069700 -0.800273 1.000000 0.049363 -0.782269 1.000000 