# vtk DataFile Version 2.0
Comment goes here
ASCII

DATASET STRUCTURED_POINTS
DIMENSIONS    64   64   1

ORIGIN    0.000   0.000   0.000
SPACING   0.0781250.078125   1.000

POINT_DATA   4096
SCALARS uMag double
LOOKUP_TABLE default

3.535209e-01 3.671406e-01 3.500849e-01 3.551104e-01 3.324438e-01 3.298901e-01 3.033798e-01 2.944272e-01 2.658157e-01 2.518366e-01 2.228871e-01 2.054606e-01 1.779518e-01 1.587772e-01 1.343749e-01 1.150280e-01 9.501229e-02 7.656711e-02 6.148125e-02 4.411294e-02 3.347209e-02 1.621112e-02 8.426841e-03 1.077569e-02 1.813415e-02 4.193702e-02 5.151673e-02 8.234843e-02 9.614103e-02 1.351920e-01 1.536893e-01 2.000803e-01 2.217959e-01 2.722751e-01 2.938715e-01 3.432255e-01 3.602470e-01 4.023290e-01 4.102934e-01 4.393309e-01 4.348136e-01 4.465846e-01 4.279897e-01 4.205629e-01 3.884354e-01 3.623682e-01 3.192551e-01 2.773087e-01 2.272641e-01 1.737811e-01 1.216468e-01 6.176162e-02 1.237071e-02 4.878598e-02 9.132168e-02 1.492814e-01 1.820635e-01 2.334422e-01 2.549790e-01 2.976250e-01 3.077339e-01 3.406332e-01 3.401392e-01 3.631656e-01 
3.582494e-01 3.721019e-01 3.551442e-01 3.603838e-01 3.378877e-01 3.355109e-01 3.092271e-01 3.003978e-01 2.720452e-01 2.581238e-01 2.294420e-01 2.120052e-01 1.847574e-01 1.655163e-01 1.413685e-01 1.219293e-01 1.021867e-01 8.368104e-02 6.895753e-02 5.169599e-02 4.171057e-02 2.543201e-02 1.983722e-02 1.409055e-02 1.965336e-02 3.978206e-02 5.009219e-02 8.057317e-02 9.544197e-02 1.351268e-01 1.548670e-01 2.024557e-01 2.254676e-01 2.774630e-01 3.003039e-01 3.512520e-01 3.693753e-01 4.128904e-01 4.217464e-01 4.518539e-01 4.479840e-01 4.603358e-01 4.421587e-01 4.348031e-01 4.029474e-01 3.765480e-01 3.337553e-01 2.913635e-01 2.421403e-01 1.889336e-01 1.397426e-01 8.601544e-02 5.750521e-02 6.989100e-02 1.034158e-01 1.563984e-01 1.879524e-01 2.383920e-01 2.595905e-01 3.021444e-01 3.121159e-01 3.451691e-01 3.446225e-01 3.678731e-01 
3.618463e-01 3.751152e-01 3.574071e-01 3.622129e-01 3.392334e-01 3.364684e-01 3.099270e-01 3.006680e-01 2.722323e-01 2.577665e-01 2.291221e-01 2.109855e-01 1.838590e-01 1.637885e-01 1.398566e-01 1.195910e-01 1.002599e-01 8.122377e-02 6.737167e-02 5.049489e-02 4.248384e-02 2.944805e-02 2.838967e-02 2.793153e-02 3.477546e-02 5.064837e-02 6.211393e-02 8.940617e-02 1.055965e-01 1.430092e-01 1.638004e-01 2.096905e-01 2.332056e-01 2.839481e-01 3.066685e-01 3.567698e-01 3.742840e-01 4.173430e-01 4.254021e-01 4.554343e-01 4.509673e-01 4.636253e-01 4.454471e-01 4.388087e-01 4.079218e-01 3.827644e-01 3.423419e-01 3.021232e-01 2.575186e-01 2.089466e-01 1.691426e-01 1.279928e-01 1.137645e-01 1.187930e-01 1.414152e-01 1.821773e-01 2.088247e-01 2.539809e-01 2.724851e-01 3.124027e-01 3.205146e-01 3.521009e-01 3.501569e-01 3.725210e-01 
3.749920e-01 3.881700e-01 3.699487e-01 3.747632e-01 3.516774e-01 3.488875e-01 3.225664e-01 3.131289e-01 2.851271e-01 2.702277e-01 2.421096e-01 2.232329e-01 1.966273e-01 1.755486e-01 1.520943e-01 1.307132e-01 1.118764e-01 9.191695e-02 7.876157e-02 6.154607e-02 5.464729e-02 4.167317e-02 4.156593e-02 3.746227e-02 4.477673e-02 5.518001e-02 6.877148e-02 9.314927e-02 1.124128e-01 1.491483e-01 1.732872e-01 2.201514e-01 2.468131e-01 2.996856e-01 3.250314e-01 3.778870e-01 3.973650e-01 4.432314e-01 4.526329e-01 4.850097e-01 4.814558e-01 4.956588e-01 4.782754e-01 4.723187e-01 4.425353e-01 4.174667e-01 3.790516e-01 3.390468e-01 2.982379e-01 2.514540e-01 2.181139e-01 1.809760e-01 1.704396e-01 1.687098e-01 1.848017e-01 2.155295e-01 2.376282e-01 2.777541e-01 2.935252e-01 3.311896e-01 3.373754e-01 3.679909e-01 3.646310e-01 3.866254e-01 
3.868961e-01 3.992029e-01 3.796400e-01 3.838550e-01 3.600439e-01 3.567230e-01 3.301947e-01 3.201105e-01 2.922795e-01 2.764482e-01 2.487163e-01 2.285121e-01 2.023678e-01 1.795916e-01 1.566177e-01 1.334051e-01 1.151604e-01 9.373617e-02 8.156823e-02 6.404697e-02 5.896046e-02 4.761646e-02 5.019997e-02 4.812933e-02 5.827650e-02 6.805274e-02 8.519807e-02 1.076463e-01 1.310743e-01 1.658921e-01 1.938239e-01 2.391484e-01 2.683801e-01 3.202371e-01 3.465712e-01 3.990192e-01 4.181218e-01 4.641777e-01 4.725224e-01 5.055977e-01 5.012180e-01 5.165464e-01 4.994657e-01 4.950663e-01 4.674359e-01 4.445173e-01 4.106183e-01 3.737886e-01 3.401137e-01 2.982062e-01 2.736381e-01 2.415677e-01 2.353263e-01 2.298529e-01 2.411953e-01 2.620673e-01 2.781764e-01 3.109165e-01 3.220242e-01 3.553309e-01 3.579412e-01 3.860850e-01 3.799808e-01 4.005471e-01 
4.086106e-01 4.206115e-01 4.000667e-01 4.041749e-01 3.801309e-01 3.766856e-01 3.505104e-01 3.400599e-01 3.129262e-01 2.962722e-01 2.693013e-01 2.476797e-01 2.220961e-01 1.973192e-01 1.745185e-01 1.489204e-01 1.304100e-01 1.065786e-01 9.386021e-02 7.432338e-02 6.883228e-02 5.585832e-02 5.881281e-02 5.451700e-02 6.651691e-02 7.337633e-02 9.421281e-02 1.144419e-01 1.428940e-01 1.771085e-01 2.105778e-01 2.571945e-01 2.916985e-01 3.466205e-01 3.773783e-01 4.341329e-01 4.565288e-01 5.072448e-01 5.177937e-01 5.548932e-01 5.519173e-01 5.698924e-01 5.538626e-01 5.504939e-01 5.241024e-01 5.009115e-01 4.689913e-01 4.313136e-01 4.006604e-01 3.580480e-01 3.367654e-01 3.033822e-01 2.978730e-01 2.876460e-01 2.959083e-01 3.100159e-01 3.219409e-01 3.495035e-01 3.567710e-01 3.870310e-01 3.863808e-01 4.129294e-01 4.042487e-01 4.240573e-01 
4.288256e-01 4.398257e-01 4.175279e-01 4.210145e-01 3.961992e-01 3.922608e-01 3.661322e-01 3.550471e-01 3.285088e-01 3.107786e-01 2.846006e-01 2.612141e-01 2.362645e-01 2.089808e-01 1.864139e-01 1.578145e-01 1.391005e-01 1.123066e-01 9.910688e-02 7.733581e-02 7.153009e-02 5.779341e-02 6.185962e-02 5.869900e-02 7.466698e-02 8.353201e-02 1.108776e-01 1.326425e-01 1.688382e-01 2.036443e-01 2.444024e-01 2.907490e-01 3.304714e-01 3.847668e-01 4.178006e-01 4.742559e-01 4.962690e-01 5.474592e-01 5.562562e-01 5.946525e-01 5.902845e-01 6.102264e-01 5.946900e-01 5.938318e-01 5.706624e-01 5.504662e-01 5.244226e-01 4.901013e-01 4.668023e-01 4.272921e-01 4.121817e-01 3.795112e-01 3.754236e-01 3.606634e-01 3.649531e-01 3.709054e-01 3.767106e-01 3.968682e-01 3.982640e-01 4.235425e-01 4.179574e-01 4.415421e-01 4.289819e-01 4.470803e-01 
4.591896e-01 4.698595e-01 4.463795e-01 4.498526e-01 4.249762e-01 4.210752e-01 3.957205e-01 3.843816e-01 3.590182e-01 3.403559e-01 3.152302e-01 2.899268e-01 2.653876e-01 2.351147e-01 2.119094e-01 1.794128e-01 1.588154e-01 1.275441e-01 1.113659e-01 8.502176e-02 7.614373e-02 5.890519e-02 6.273468e-02 5.889590e-02 7.881141e-02 8.798000e-02 1.212379e-01 1.428975e-01 1.862757e-01 2.212433e-01 2.698776e-01 3.176772e-01 3.650422e-01 4.229236e-01 4.625220e-01 5.247764e-01 5.518411e-01 6.099965e-01 6.223442e-01 6.670907e-01 6.650136e-01 6.890886e-01 6.749226e-01 6.753167e-01 6.530410e-01 6.315909e-01 6.064444e-01 5.692946e-01 5.471377e-01 5.040771e-01 4.899014e-01 4.531280e-01 4.486011e-01 4.287919e-01 4.305278e-01 4.309608e-01 4.326355e-01 4.481386e-01 4.448508e-01 4.669922e-01 4.570051e-01 4.787815e-01 4.626601e-01 4.798583e-01 
4.875557e-01 4.973576e-01 4.720431e-01 4.751521e-01 4.498129e-01 4.458309e-01 4.211390e-01 4.096532e-01 3.856196e-01 3.662291e-01 3.424373e-01 3.152967e-01 2.913750e-01 2.579072e-01 2.341083e-01 1.973147e-01 1.748446e-01 1.388110e-01 1.195806e-01 8.844691e-02 7.526057e-02 5.341562e-02 5.490325e-02 5.175169e-02 7.811301e-02 9.316600e-02 1.368655e-01 1.648942e-01 2.205036e-01 2.602185e-01 3.206947e-01 3.704401e-01 4.265138e-01 4.838961e-01 5.272034e-01 5.882951e-01 6.143841e-01 6.724821e-01 6.815688e-01 7.279742e-01 7.235018e-01 7.506577e-01 7.373520e-01 7.417310e-01 7.241896e-01 7.070166e-01 6.892021e-01 6.556346e-01 6.407878e-01 5.991207e-01 5.891478e-01 5.499103e-01 5.444857e-01 5.178968e-01 5.142596e-01 5.058168e-01 5.001204e-01 5.078726e-01 4.973201e-01 5.142686e-01 4.981062e-01 5.168749e-01 4.959799e-01 5.115242e-01 
5.261857e-01 5.359434e-01 5.096972e-01 5.132956e-01 4.885712e-01 4.853321e-01 4.623353e-01 4.513418e-01 4.293810e-01 4.095329e-01 3.873243e-01 3.581356e-01 3.344406e-01 2.970661e-01 2.714819e-01 2.290975e-01 2.025573e-01 1.596360e-01 1.341675e-01 9.518540e-02 7.410159e-02 4.431509e-02 4.357503e-02 4.609170e-02 8.135486e-02 1.033949e-01 1.546907e-01 1.865402e-01 2.508409e-01 2.920861e-01 3.623718e-01 4.125791e-01 4.783420e-01 5.375786e-01 5.892669e-01 6.559068e-01 6.886388e-01 7.557679e-01 7.700451e-01 8.259795e-01 8.253559e-01 8.589905e-01 8.479437e-01 8.540366e-01 8.371617e-01 8.175053e-01 7.992858e-01 7.606035e-01 7.450199e-01 6.970668e-01 6.862675e-01 6.405058e-01 6.335285e-01 6.005500e-01 5.936397e-01 5.792784e-01 5.684150e-01 5.713559e-01 5.547010e-01 5.683864e-01 5.464881e-01 5.634245e-01 5.380977e-01 5.528573e-01 
5.619153e-01 5.713205e-01 5.436677e-01 5.476364e-01 5.233052e-01 5.210944e-01 4.999711e-01 4.902322e-01 4.709207e-01 4.516327e-01 4.316985e-01 4.012446e-01 3.781033e-01 3.369482e-01 3.093419e-01 2.610650e-01 2.302440e-01 1.807804e-01 1.495877e-01 1.046634e-01 7.512396e-02 3.714318e-02 1.742414e-02 3.088088e-02 7.654100e-02 1.114319e-01 1.749979e-01 2.198004e-01 3.006367e-01 3.530403e-01 4.408681e-01 4.965945e-01 5.756662e-01 6.334307e-01 6.899302e-01 7.514929e-01 7.806732e-01 8.444482e-01 8.516168e-01 9.084772e-01 9.033172e-01 9.415639e-01 9.323395e-01 9.451178e-01 9.359916e-01 9.232459e-01 9.150368e-01 8.810484e-01 8.733283e-01 8.253314e-01 8.169203e-01 7.651024e-01 7.541480e-01 7.104004e-01 6.949603e-01 6.688922e-01 6.479139e-01 6.417850e-01 6.157814e-01 6.241003e-01 5.947318e-01 6.090257e-01 5.783408e-01 5.919179e-01 
6.071485e-01 6.172805e-01 5.896398e-01 5.953134e-01 5.730538e-01 5.733064e-01 5.556488e-01 5.483801e-01 5.328857e-01 5.147531e-01 4.976156e-01 4.656537e-01 4.428753e-01 3.969467e-01 3.662220e-01 3.102589e-01 2.726443e-01 2.135502e-01 1.727145e-01 1.178025e-01 7.715752e-02 3.444870e-02 1.688959e-02 5.979855e-02 1.062034e-01 1.536378e-01 2.216931e-01 2.766285e-01 3.657784e-01 4.238738e-01 5.223567e-01 5.771836e-01 6.666357e-01 7.198009e-01 7.844080e-01 8.451676e-01 8.800929e-01 9.515791e-01 9.641956e-01 1.033766e+00 1.034299e+00 1.082400e+00 1.077265e+00 1.092617e+00 1.084626e+00 1.068162e+00 1.058553e+00 1.017177e+00 1.007066e+00 9.500642e-01 9.392695e-01 8.782387e-01 8.644129e-01 8.119292e-01 7.915173e-01 7.576774e-01 7.291070e-01 7.168974e-01 6.822313e-01 6.867023e-01 6.497645e-01 6.622505e-01 6.263970e-01 6.396212e-01 
6.479357e-01 6.586979e-01 6.307437e-01 6.382347e-01 6.179950e-01 6.215866e-01 6.080125e-01 6.050840e-01 5.947731e-01 5.802813e-01 5.675132e-01 5.360979e-01 5.142926e-01 4.640473e-01 4.290945e-01 3.645157e-01 3.188354e-01 2.505583e-01 2.017349e-01 1.434066e-01 1.012309e-01 7.632777e-02 6.719349e-02 1.020777e-01 1.390012e-01 1.962681e-01 2.704491e-01 3.449209e-01 4.529388e-01 5.331613e-01 6.566036e-01 7.256757e-01 8.356429e-01 8.870180e-01 9.570918e-01 1.002885e+00 1.026500e+00 1.083262e+00 1.077782e+00 1.142496e+00 1.131763e+00 1.184885e+00 1.182478e+00 1.208568e+00 1.213820e+00 1.209183e+00 1.214425e+00 1.180529e+00 1.179754e+00 1.121470e+00 1.110883e+00 1.038779e+00 1.016324e+00 9.464490e-01 9.122058e-01 8.614347e-01 8.181945e-01 7.945175e-01 7.474899e-01 7.465003e-01 7.007442e-01 7.114628e-01 6.701370e-01 6.831345e-01 
6.954969e-01 7.084005e-01 6.823347e-01 6.938250e-01 6.782510e-01 6.877674e-01 6.808968e-01 6.846623e-01 6.815933e-01 6.719536e-01 6.647674e-01 6.335631e-01 6.133416e-01 5.574898e-01 5.181288e-01 4.428004e-01 3.864357e-01 3.041989e-01 2.412745e-01 1.714956e-01 1.244800e-01 1.139313e-01 1.269943e-01 1.785425e-01 2.261440e-01 2.987052e-01 3.801571e-01 4.744055e-01 5.934188e-01 6.914849e-01 8.287408e-01 9.020038e-01 1.023593e+00 1.061936e+00 1.137266e+00 1.165377e+00 1.187092e+00 1.239494e+00 1.232816e+00 1.308955e+00 1.302607e+00 1.367712e+00 1.370416e+00 1.398251e+00 1.404916e+00 1.394287e+00 1.396960e+00 1.353300e+00 1.348393e+00 1.278274e+00 1.263714e+00 1.179252e+00 1.152551e+00 1.070457e+00 1.028603e+00 9.665632e-01 9.113863e-01 8.788734e-01 8.188197e-01 8.126539e-01 7.567279e-01 7.656608e-01 7.186939e-01 7.321636e-01 
7.361656e-01 7.510438e-01 7.264383e-01 7.420942e-01 7.311775e-01 7.482093e-01 7.492377e-01 7.631617e-01 7.699576e-01 7.700218e-01 7.717307e-01 7.452121e-01 7.281512e-01 6.679054e-01 6.212510e-01 5.324087e-01 4.613624e-01 3.638910e-01 2.883503e-01 2.163578e-01 1.789352e-01 1.909435e-01 2.185052e-01 2.777147e-01 3.270798e-01 4.077471e-01 4.932407e-01 6.118052e-01 7.515808e-01 8.887645e-01 1.062768e+00 1.171703e+00 1.329953e+00 1.377258e+00 1.463927e+00 1.466445e+00 1.463763e+00 1.478392e+00 1.427999e+00 1.479742e+00 1.441050e+00 1.503436e+00 1.504671e+00 1.545172e+00 1.571862e+00 1.579614e+00 1.603408e+00 1.571732e+00 1.577944e+00 1.504948e+00 1.487310e+00 1.384042e+00 1.341469e+00 1.231127e+00 1.167323e+00 1.080169e+00 1.003613e+00 9.564554e-01 8.800361e-01 8.688421e-01 8.028621e-01 8.115798e-01 7.596828e-01 7.742663e-01 
7.774554e-01 7.964797e-01 7.766718e-01 7.999815e-01 7.978400e-01 8.268342e-01 8.399824e-01 8.681159e-01 8.878979e-01 8.992184e-01 9.114302e-01 8.880732e-01 8.760140e-01 8.094398e-01 7.582494e-01 6.550882e-01 5.686199e-01 4.506701e-01 3.521385e-01 2.609604e-01 2.206139e-01 2.535714e-01 3.133067e-01 4.015543e-01 4.786879e-01 5.847538e-01 6.904804e-01 8.419282e-01 1.003146e+00 1.180258e+00 1.379911e+00 1.512568e+00 1.692739e+00 1.728193e+00 1.825011e+00 1.792877e+00 1.778673e+00 1.767603e+00 1.698392e+00 1.751017e+00 1.705357e+00 1.773569e+00 1.772724e+00 1.803158e+00 1.825439e+00 1.818432e+00 1.834372e+00 1.788564e+00 1.786736e+00 1.697882e+00 1.673723e+00 1.554318e+00 1.506770e+00 1.379449e+00 1.304706e+00 1.200822e+00 1.105111e+00 1.044441e+00 9.478451e-01 9.291699e-01 8.494109e-01 8.563422e-01 7.988415e-01 8.150660e-01 
8.084772e-01 8.306795e-01 8.145469e-01 8.452264e-01 8.514841e-01 8.943126e-01 9.207655e-01 9.675410e-01 1.003414e+00 1.033118e+00 1.061257e+00 1.049612e+00 1.046640e+00 9.772583e-01 9.149203e-01 7.915390e-01 6.821492e-01 5.405763e-01 4.209011e-01 3.202606e-01 2.922216e-01 3.567977e-01 4.508780e-01 5.666971e-01 6.658954e-01 7.849195e-01 8.973851e-01 1.070017e+00 1.246780e+00 1.477541e+00 1.725667e+00 1.930653e+00 2.182472e+00 2.263486e+00 2.399355e+00 2.349533e+00 2.307523e+00 2.244991e+00 2.098730e+00 2.095719e+00 1.972002e+00 2.009059e+00 1.986093e+00 2.017512e+00 2.061358e+00 2.075752e+00 2.114267e+00 2.083871e+00 2.091930e+00 1.995721e+00 1.962512e+00 1.811469e+00 1.736278e+00 1.562365e+00 1.453937e+00 1.313417e+00 1.187356e+00 1.109417e+00 9.917460e-01 9.700359e-01 8.794770e-01 8.884517e-01 8.273024e-01 8.458093e-01 
8.292130e-01 8.576349e-01 8.500387e-01 8.932061e-01 9.138462e-01 9.771654e-01 1.022643e+00 1.093310e+00 1.147756e+00 1.195314e+00 1.238314e+00 1.231417e+00 1.239719e+00 1.162033e+00 1.097454e+00 9.577674e-01 8.331816e-01 6.727799e-01 5.227745e-01 3.866370e-01 3.401837e-01 4.332302e-01 5.802457e-01 7.472110e-01 8.954691e-01 1.048584e+00 1.191725e+00 1.399148e+00 1.600458e+00 1.891589e+00 2.178568e+00 2.440997e+00 2.740205e+00 2.828073e+00 3.013459e+00 2.937986e+00 2.898487e+00 2.809351e+00 2.628882e+00 2.621210e+00 2.471644e+00 2.495997e+00 2.444763e+00 2.422163e+00 2.436689e+00 2.408135e+00 2.418637e+00 2.362446e+00 2.350219e+00 2.228414e+00 2.181511e+00 2.009701e+00 1.931705e+00 1.734527e+00 1.611888e+00 1.446919e+00 1.289565e+00 1.191055e+00 1.041762e+00 1.009192e+00 9.002683e-01 9.074697e-01 8.417945e-01 8.631071e-01 
8.361656e-01 8.678901e-01 8.661700e-01 9.201558e-01 9.534216e-01 1.037172e+00 1.099822e+00 1.195373e+00 1.267236e+00 1.338978e+00 1.404340e+00 1.419528e+00 1.451938e+00 1.376185e+00 1.286999e+00 1.113318e+00 9.614855e-01 7.846060e-01 6.233581e-01 4.718934e-01 4.242434e-01 5.506630e-01 7.602567e-01 9.888825e-01 1.194680e+00 1.371729e+00 1.528050e+00 1.727681e+00 1.907891e+00 2.231644e+00 2.547323e+00 2.928641e+00 3.369406e+00 3.597342e+00 3.905343e+00 3.857987e+00 3.815774e+00 3.704396e+00 3.424401e+00 3.337097e+00 3.037989e+00 2.975312e+00 2.860502e+00 2.798926e+00 2.824757e+00 2.810288e+00 2.824163e+00 2.778881e+00 2.765302e+00 2.621828e+00 2.555090e+00 2.329563e+00 2.202060e+00 1.924351e+00 1.751941e+00 1.537142e+00 1.338821e+00 1.224972e+00 1.050142e+00 1.019877e+00 9.006236e-01 9.123090e-01 8.449332e-01 8.682651e-01 
8.170728e-01 8.560187e-01 8.668002e-01 9.380017e-01 9.914247e-01 1.103455e+00 1.188914e+00 1.313951e+00 1.401774e+00 1.493260e+00 1.574188e+00 1.595912e+00 1.656211e+00 1.564177e+00 1.464956e+00 1.256567e+00 1.097887e+00 9.503339e-01 7.969998e-01 6.188821e-01 5.083079e-01 6.430573e-01 9.238351e-01 1.242908e+00 1.530799e+00 1.754237e+00 1.951917e+00 2.153072e+00 2.329439e+00 2.698881e+00 3.045501e+00 3.538431e+00 4.071064e+00 4.354762e+00 4.848032e+00 4.845126e+00 4.866061e+00 4.755359e+00 4.417914e+00 4.327618e+00 3.985874e+00 3.895151e+00 3.708195e+00 3.487569e+00 3.434281e+00 3.318532e+00 3.255141e+00 3.161899e+00 3.099297e+00 2.902707e+00 2.799642e+00 2.550453e+00 2.432293e+00 2.120394e+00 1.929611e+00 1.680941e+00 1.428859e+00 1.284996e+00 1.060725e+00 1.015457e+00 8.733954e-01 8.836142e-01 8.152299e-01 8.418136e-01 
7.829255e-01 8.233744e-01 8.420699e-01 9.265467e-01 9.957587e-01 1.129274e+00 1.226834e+00 1.369349e+00 1.459970e+00 1.575242e+00 1.694389e+00 1.773582e+00 1.915437e+00 1.836448e+00 1.626225e+00 1.306379e+00 1.126229e+00 1.047325e+00 9.855012e-01 8.433111e-01 7.175009e-01 8.166418e-01 1.162696e+00 1.592898e+00 1.995628e+00 2.282162e+00 2.534909e+00 2.689111e+00 2.795393e+00 3.093851e+00 3.350121e+00 3.996801e+00 4.816937e+00 5.490275e+00 6.283464e+00 6.363511e+00 6.403511e+00 6.337331e+00 5.869089e+00 5.644256e+00 5.019323e+00 4.762264e+00 4.490494e+00 4.167819e+00 4.119924e+00 4.012060e+00 3.878754e+00 3.777206e+00 3.692845e+00 3.441584e+00 3.311014e+00 2.971231e+00 2.745551e+00 2.274106e+00 2.009581e+00 1.710191e+00 1.407187e+00 1.265824e+00 1.014242e+00 9.819389e-01 8.324626e-01 8.477022e-01 7.801082e-01 8.051305e-01 
7.048994e-01 7.509581e-01 7.856799e-01 8.895237e-01 9.822601e-01 1.143824e+00 1.258298e+00 1.424544e+00 1.518273e+00 1.666916e+00 1.819529e+00 1.936562e+00 2.153298e+00 2.030771e+00 1.729361e+00 1.237071e+00 1.118365e+00 1.327824e+00 1.445182e+00 1.344681e+00 1.098426e+00 1.090789e+00 1.450073e+00 2.006965e+00 2.524859e+00 2.900650e+00 3.244169e+00 3.366471e+00 3.476344e+00 3.781792e+00 4.113150e+00 5.049129e+00 6.001031e+00 6.707682e+00 7.936057e+00 8.159996e+00 8.318070e+00 8.242880e+00 7.606709e+00 7.327018e+00 6.660663e+00 6.456444e+00 6.076056e+00 5.363623e+00 5.171190e+00 4.863457e+00 4.536889e+00 4.359992e+00 4.195141e+00 3.831428e+00 3.617871e+00 3.299592e+00 3.122427e+00 2.545755e+00 2.203867e+00 1.863853e+00 1.457876e+00 1.278916e+00 9.539520e-01 9.040213e-01 7.320792e-01 7.471972e-01 6.879657e-01 7.147014e-01 
6.167321e-01 6.617276e-01 7.082212e-01 8.268674e-01 9.379950e-01 1.109602e+00 1.219264e+00 1.371849e+00 1.437365e+00 1.620506e+00 1.870254e+00 2.135601e+00 2.625380e+00 2.543034e+00 1.742172e+00 8.108222e-01 1.068922e+00 1.638384e+00 2.000176e+00 2.083329e+00 1.901168e+00 1.683653e+00 1.916610e+00 2.568859e+00 3.233751e+00 3.762070e+00 4.273102e+00 4.422845e+00 4.667114e+00 5.004520e+00 5.229321e+00 6.227351e+00 7.550507e+00 9.108461e+00 1.069029e+01 1.088097e+01 1.103867e+01 1.127724e+01 1.052092e+01 9.863280e+00 8.527924e+00 8.094444e+00 7.796794e+00 6.893376e+00 6.701139e+00 6.358148e+00 5.625822e+00 5.329300e+00 5.167550e+00 4.767998e+00 4.658299e+00 4.230045e+00 3.734266e+00 2.708569e+00 2.098384e+00 1.778635e+00 1.304879e+00 1.187861e+00 8.432232e-01 8.208045e-01 6.492872e-01 6.625466e-01 6.072150e-01 6.237628e-01 
4.717862e-01 5.177002e-01 5.846336e-01 7.218679e-01 8.571561e-01 1.040743e+00 1.152887e+00 1.308701e+00 1.372322e+00 1.663815e+00 1.997484e+00 2.405771e+00 3.112439e+00 3.135366e+00 2.000300e+00 1.679349e-01 1.210394e+00 2.182107e+00 2.957754e+00 3.280298e+00 3.043398e+00 2.671554e+00 2.698326e+00 3.312405e+00 4.020488e+00 4.713909e+00 5.424923e+00 5.641801e+00 6.183719e+00 6.779717e+00 7.551912e+00 9.212450e+00 9.945107e+00 1.046618e+01 1.361905e+01 1.497717e+01 1.529116e+01 1.501412e+01 1.337676e+01 1.219487e+01 1.091936e+01 1.143831e+01 1.138447e+01 9.621974e+00 9.315327e+00 8.514737e+00 7.086904e+00 6.535275e+00 6.333157e+00 5.780404e+00 5.633940e+00 5.764174e+00 5.643273e+00 4.059919e+00 2.440455e+00 1.953536e+00 1.228458e+00 1.089615e+00 6.615935e-01 6.307552e-01 4.579560e-01 4.736067e-01 4.498001e-01 4.603563e-01 
3.307762e-01 3.838075e-01 4.767600e-01 6.356501e-01 7.977282e-01 9.690884e-01 1.068882e+00 1.147168e+00 1.141078e+00 1.490078e+00 2.050198e+00 2.962542e+00 4.805194e+00 4.137861e+00 1.156824e+00 2.543485e+00 3.408048e+00 3.348915e+00 3.636106e+00 4.578924e+00 5.073054e+00 4.362931e+00 3.815655e+00 4.197977e+00 4.852351e+00 5.781112e+00 6.763066e+00 7.186559e+00 8.589049e+00 1.013348e+01 1.074248e+01 8.383901e+00 6.147192e+00 1.222950e+01 1.838863e+01 1.945971e+01 1.803567e+01 1.586694e+01 1.156390e+01 7.039814e+00 5.500272e+00 8.743502e+00 1.249527e+01 1.221457e+01 1.287963e+01 1.285435e+01 9.844694e+00 8.471468e+00 8.419965e+00 8.103090e+00 8.255827e+00 7.807798e+00 7.476953e+00 6.072143e+00 3.023084e+00 2.064781e+00 1.008317e+00 9.292344e-01 5.180997e-01 5.071669e-01 3.533637e-01 3.424868e-01 3.275080e-01 3.146810e-01 
1.354471e-01 2.037652e-01 3.321297e-01 5.153486e-01 6.983313e-01 8.517361e-01 9.442732e-01 9.563190e-01 9.685881e-01 1.633633e+00 2.475543e+00 4.236000e+00 5.429927e+00 9.704268e+00 1.335172e+01 1.304070e+01 1.283482e+01 9.896394e+00 7.707421e+00 7.182781e+00 7.312581e+00 6.752344e+00 5.744443e+00 5.447144e+00 5.638859e+00 6.698677e+00 8.001336e+00 8.803230e+00 1.117307e+01 1.236256e+01 1.044165e+01 7.730243e+00 2.828659e+00 9.163370e+00 1.571492e+01 1.916028e+01 1.935388e+01 1.511948e+01 1.091583e+01 9.806621e+00 9.059334e+00 8.846756e+00 2.509639e+00 5.220692e+00 9.280310e+00 1.556330e+01 1.350826e+01 1.181038e+01 1.149670e+01 9.022399e+00 7.235720e+00 8.093526e+00 9.920874e+00 9.054934e+00 4.588117e+00 2.331902e+00 7.921701e-01 4.977294e-01 1.464441e-01 1.639033e-01 1.458845e-01 8.714818e-02 1.766286e-01 1.003423e-01 
5.595325e-02 2.110790e-01 3.372615e-01 5.347630e-01 7.341285e-01 8.785598e-01 1.008908e+00 9.165642e-01 8.994194e-01 1.277785e+00 1.914103e+00 3.695228e+00 5.854052e+00 1.358126e+01 1.536848e+01 1.604640e+01 1.837469e+01 1.866198e+01 1.800478e+01 1.447702e+01 1.180918e+01 9.900487e+00 7.783837e+00 6.946659e+00 6.434143e+00 7.597500e+00 8.923865e+00 9.313495e+00 1.234729e+01 1.393751e+01 1.269026e+01 9.299650e+00 5.721569e+00 1.468431e+01 2.057112e+01 2.279079e+01 2.070935e+01 1.280442e+01 6.333585e+00 3.872386e+00 3.533086e+00 1.215651e+01 1.301167e+01 1.133857e+01 6.019619e+00 1.292392e+01 1.506194e+01 1.365218e+01 1.319439e+01 9.328189e+00 1.256543e+01 1.615000e+01 8.361193e+00 8.158346e+00 7.581178e+00 3.429100e+00 1.624124e+00 3.648524e-01 2.035631e-01 9.718382e-02 1.183782e-01 9.205146e-02 1.155945e-01 8.884045e-02 
2.363780e-01 3.272010e-01 3.873942e-01 5.824318e-01 7.617850e-01 9.250932e-01 1.066959e+00 9.630127e-01 8.616940e-01 4.084437e-01 9.234299e-01 1.459298e+00 4.940070e+00 8.024877e+00 4.773705e+00 5.899864e+00 7.598341e+00 1.210960e+01 2.339149e+01 2.847914e+01 1.932643e+01 1.098838e+01 1.168406e+01 9.266617e+00 7.393333e+00 8.193990e+00 9.286892e+00 1.027344e+01 1.502326e+01 1.693029e+01 1.682222e+01 1.338383e+01 1.442960e+01 2.287808e+01 2.204667e+01 1.883961e+01 1.307013e+01 7.514281e+00 3.448879e+00 1.311037e+00 4.779519e+00 6.181155e+00 1.016637e+01 1.588531e+01 2.152044e+01 8.793258e+00 1.418949e+01 1.242933e+01 1.294229e+01 5.269942e+00 5.390645e+00 1.720018e+01 1.874302e+01 7.046774e+00 7.350953e+00 3.635283e+00 2.129349e+00 8.751699e-01 6.437647e-01 4.919406e-01 4.098356e-01 3.799775e-01 3.165425e-01 3.097022e-01 
4.128695e-01 5.212495e-01 5.494227e-01 7.398648e-01 8.929097e-01 1.097555e+00 1.257494e+00 1.291094e+00 1.220270e+00 8.424636e-01 5.730896e-01 4.538705e-01 2.384178e+00 5.404742e+00 5.768233e+00 8.129026e+00 8.866770e+00 5.443492e+00 9.669425e+00 2.986604e+01 3.441409e+01 1.957665e+01 8.880290e+00 1.089886e+01 8.740925e+00 9.589750e+00 1.111471e+01 1.116141e+01 1.415807e+01 1.618588e+01 1.507854e+01 1.339840e+01 1.300102e+01 1.103930e+01 9.935394e+00 1.151063e+01 1.294089e+01 1.359633e+01 1.259997e+01 1.183450e+01 1.101475e+01 8.338644e+00 1.029826e+01 1.035982e+01 1.707215e+01 2.221080e+01 9.538623e+00 1.025477e+01 1.523331e+01 9.072085e+00 7.155872e+00 1.085004e+01 7.041996e+00 6.203923e+00 3.724269e+00 1.969625e+00 8.934443e-01 9.227681e-01 5.197716e-01 6.727183e-01 4.574052e-01 5.477766e-01 4.267687e-01 4.929261e-01 
5.406017e-01 6.617150e-01 6.713795e-01 8.767505e-01 1.010353e+00 1.283098e+00 1.473732e+00 1.714976e+00 1.781758e+00 1.835918e+00 1.583333e+00 1.637775e+00 1.900422e+00 3.996601e+00 4.557189e+00 6.239650e+00 8.810940e+00 1.056194e+01 1.066421e+01 1.486166e+01 2.849302e+01 3.487737e+01 1.847607e+01 1.582782e+00 3.596651e+00 3.440213e+00 6.642389e+00 5.314880e+00 8.677025e+00 1.586205e+01 1.156380e+01 6.491044e+00 1.949092e+00 4.736501e+00 8.253445e+00 1.093428e+01 1.260802e+01 1.397714e+01 1.446118e+01 1.501699e+01 1.474115e+01 1.251813e+01 1.098299e+01 8.619509e+00 6.425790e+00 1.335245e+01 1.692163e+01 5.340290e+00 1.423004e+01 1.259188e+01 2.631455e+01 1.926945e+01 8.929645e+00 6.809440e+00 3.382541e+00 2.292162e+00 1.070935e+00 9.660381e-01 5.853329e-01 7.468964e-01 5.599431e-01 6.702911e-01 5.414711e-01 6.264419e-01 
6.779809e-01 8.068037e-01 7.995646e-01 1.008627e+00 1.122055e+00 1.436004e+00 1.642993e+00 2.032054e+00 2.217958e+00 2.598342e+00 2.596263e+00 3.009176e+00 3.030717e+00 4.338564e+00 5.179302e+00 6.077061e+00 7.969538e+00 8.377308e+00 1.077593e+01 9.327492e+00 9.759261e+00 2.573114e+01 3.372803e+01 2.089790e+01 1.572847e+01 1.671477e+01 1.434607e+01 1.342753e+01 1.909489e+01 1.534942e+01 7.771469e+00 4.619176e+00 1.112814e+00 3.559356e+00 5.761799e+00 8.193885e+00 1.009440e+01 1.193951e+01 1.308357e+01 1.387086e+01 1.416339e+01 1.331334e+01 1.259821e+01 9.960139e+00 7.018924e+00 7.551079e+00 1.245675e+01 2.513451e+01 1.738764e+01 2.089955e+01 8.800708e+00 2.050209e+01 1.383173e+01 6.948424e+00 2.874747e+00 2.244409e+00 1.130337e+00 1.312188e+00 7.743562e-01 9.845507e-01 7.030212e-01 8.487260e-01 6.745332e-01 7.806532e-01 
7.060809e-01 8.572782e-01 8.552884e-01 1.081888e+00 1.193086e+00 1.545238e+00 1.770949e+00 2.259405e+00 2.533806e+00 3.102623e+00 3.301781e+00 3.909965e+00 4.133785e+00 5.083469e+00 6.007876e+00 6.721295e+00 8.297109e+00 8.336530e+00 8.678314e+00 6.591019e+00 4.136478e+00 7.181280e+00 2.101489e+01 2.772579e+01 2.505299e+01 2.548729e+01 2.458565e+01 2.198034e+01 1.869675e+01 1.058077e+01 6.681303e+00 3.581465e+00 1.246203e+00 2.386266e+00 4.126992e+00 6.337717e+00 8.239450e+00 1.017654e+01 1.156379e+01 1.254078e+01 1.304952e+01 1.282119e+01 1.296909e+01 1.240390e+01 1.178191e+01 1.340775e+01 1.354789e+01 1.992622e+01 1.463791e+01 1.940732e+01 2.795093e+01 1.680613e+01 8.402180e+00 2.960279e+00 1.854989e+00 5.119043e-01 4.642776e-01 3.507538e-01 2.576770e-01 6.921163e-01 5.532524e-01 7.782713e-01 6.467105e-01 7.908767e-01 
7.732624e-01 9.126052e-01 8.967137e-01 1.117097e+00 1.218669e+00 1.575884e+00 1.803912e+00 2.324531e+00 2.633132e+00 3.280328e+00 3.571026e+00 4.294782e+00 4.653219e+00 5.587312e+00 6.592775e+00 7.215817e+00 8.669433e+00 8.501787e+00 8.901655e+00 7.367593e+00 4.145506e+00 1.434971e+00 8.424327e+00 2.211614e+01 2.328327e+01 2.159402e+01 2.382316e+01 2.409753e+01 1.849082e+01 1.060030e+01 6.765697e+00 2.594387e+00 1.265616e+00 1.667659e+00 3.125391e+00 5.344967e+00 7.442757e+00 9.533096e+00 1.106241e+01 1.210538e+01 1.268935e+01 1.285693e+01 1.323997e+01 1.399760e+01 1.352512e+01 1.603348e+01 1.278318e+01 6.512939e+00 3.132282e-01 3.055734e+00 3.361649e+00 5.582695e+00 1.212412e+00 1.196011e+00 8.018711e-01 1.048746e+00 5.804122e-01 1.037238e+00 7.199249e-01 1.019325e+00 7.731777e-01 9.439736e-01 7.615126e-01 8.821922e-01 
7.060809e-01 8.572782e-01 8.552884e-01 1.081888e+00 1.193086e+00 1.545238e+00 1.770949e+00 2.259405e+00 2.533806e+00 3.102623e+00 3.301781e+00 3.909965e+00 4.133785e+00 5.083469e+00 6.007876e+00 6.721295e+00 8.297109e+00 8.336530e+00 8.678314e+00 6.591019e+00 4.136478e+00 7.181280e+00 2.101489e+01 2.772579e+01 2.505299e+01 2.548729e+01 2.458565e+01 2.198034e+01 1.869675e+01 1.058077e+01 6.681303e+00 3.581465e+00 1.246203e+00 2.386266e+00 4.126992e+00 6.337717e+00 8.239450e+00 1.017654e+01 1.156379e+01 1.254078e+01 1.304952e+01 1.282119e+01 1.296909e+01 1.240390e+01 1.178191e+01 1.340775e+01 1.354789e+01 1.992622e+01 1.463791e+01 1.940732e+01 2.795093e+01 1.680613e+01 8.402180e+00 2.960279e+00 1.854989e+00 5.119043e-01 4.642776e-01 3.507538e-01 2.576770e-01 6.921163e-01 5.532524e-01 7.782713e-01 6.467105e-01 7.908767e-01 
6.779809e-01 8.068037e-01 7.995646e-01 1.008627e+00 1.122055e+00 1.436004e+00 1.642993e+00 2.032054e+00 2.217958e+00 2.598342e+00 2.596263e+00 3.009176e+00 3.030717e+00 4.338564e+00 5.179302e+00 6.077061e+00 7.969538e+00 8.377308e+00 1.077593e+01 9.327492e+00 9.759261e+00 2.573114e+01 3.372803e+01 2.089790e+01 1.572847e+01 1.671477e+01 1.434607e+01 1.342753e+01 1.909489e+01 1.534942e+01 7.771469e+00 4.619176e+00 1.112814e+00 3.559356e+00 5.761799e+00 8.193885e+00 1.009440e+01 1.193951e+01 1.308357e+01 1.387086e+01 1.416339e+01 1.331334e+01 1.259821e+01 9.960139e+00 7.018924e+00 7.551079e+00 1.245675e+01 2.513451e+01 1.738764e+01 2.089955e+01 8.800708e+00 2.050209e+01 1.383173e+01 6.948424e+00 2.874747e+00 2.244409e+00 1.130337e+00 1.312188e+00 7.743562e-01 9.845507e-01 7.030212e-01 8.487260e-01 6.745332e-01 7.806532e-01 