# vtk DataFile Version 2.0
Comment goes here
ASCII

DATASET STRUCTURED_POINTS
DIMENSIONS    64   64   1

ORIGIN    0.000   0.000   0.000
SPACING   0.0781250.078125   1.000

POINT_DATA   4096
SCALARS uMag double
LOOKUP_TABLE default

3.102784e-01 3.300734e-01 3.424925e-01 3.598480e-01 3.662750e-01 3.820408e-01 3.833652e-01 3.980728e-01 3.948459e-01 4.086777e-01 4.011348e-01 4.139383e-01 4.020274e-01 4.133224e-01 3.966915e-01 4.056306e-01 3.835653e-01 3.888484e-01 3.602195e-01 3.600239e-01 3.233568e-01 3.153930e-01 2.691701e-01 2.509782e-01 1.942090e-01 1.637483e-01 9.672146e-02 5.316322e-02 2.184842e-02 7.737459e-02 1.557745e-01 2.198146e-01 2.949844e-01 3.620263e-01 4.263275e-01 4.897102e-01 5.359387e-01 5.891326e-01 6.119654e-01 6.498036e-01 6.467891e-01 6.662925e-01 6.381542e-01 6.388017e-01 5.890815e-01 5.725849e-01 5.068272e-01 4.765738e-01 4.012993e-01 3.616306e-01 2.833258e-01 2.387898e-01 1.630840e-01 1.177810e-01 4.892254e-02 6.038116e-03 5.330094e-02 9.173010e-02 1.403681e-01 1.734561e-01 2.114207e-01 2.392437e-01 2.673880e-01 2.906758e-01 
3.106261e-01 3.312404e-01 3.446747e-01 3.629094e-01 3.703078e-01 3.869674e-01 3.891560e-01 4.047347e-01 4.022197e-01 4.168623e-01 4.098603e-01 4.233830e-01 4.118622e-01 4.237730e-01 4.074468e-01 4.169149e-01 3.951706e-01 4.009376e-01 3.727625e-01 3.730605e-01 3.371017e-01 3.297052e-01 2.846312e-01 2.672188e-01 2.126253e-01 1.838154e-01 1.232661e-01 8.847963e-02 6.601167e-02 9.467775e-02 1.628573e-01 2.236885e-01 2.980195e-01 3.648709e-01 4.299982e-01 4.942248e-01 5.418306e-01 5.963370e-01 6.207241e-01 6.600391e-01 6.585750e-01 6.795056e-01 6.528214e-01 6.546784e-01 6.062790e-01 5.906392e-01 5.260786e-01 4.962417e-01 4.221178e-01 3.824299e-01 3.054709e-01 2.606941e-01 1.873934e-01 1.426985e-01 8.279291e-02 5.381308e-02 6.542998e-02 9.398791e-02 1.391586e-01 1.711475e-01 2.091271e-01 2.372139e-01 2.661007e-01 2.900571e-01 
3.181967e-01 3.365941e-01 3.482182e-01 3.646957e-01 3.706447e-01 3.859114e-01 3.869922e-01 4.014956e-01 3.981994e-01 4.120641e-01 4.045890e-01 4.176343e-01 4.059293e-01 4.176904e-01 4.014521e-01 4.111478e-01 3.897526e-01 3.961964e-01 3.686512e-01 3.701827e-01 3.352823e-01 3.298796e-01 2.868521e-01 2.727139e-01 2.230238e-01 2.005499e-01 1.543789e-01 1.353346e-01 1.334456e-01 1.544831e-01 2.118851e-01 2.629084e-01 3.334038e-01 3.940192e-01 4.572373e-01 5.170451e-01 5.627482e-01 6.140645e-01 6.360806e-01 6.731773e-01 6.689697e-01 6.884647e-01 6.590310e-01 6.600647e-01 6.094006e-01 5.934163e-01 5.276174e-01 4.978620e-01 4.241365e-01 3.850692e-01 3.110661e-01 2.680048e-01 2.024714e-01 1.628669e-01 1.221056e-01 1.045892e-01 1.167330e-01 1.334270e-01 1.699105e-01 1.951349e-01 2.287809e-01 2.527821e-01 2.787916e-01 2.998597e-01 
3.256928e-01 3.437500e-01 3.557420e-01 3.723953e-01 3.789466e-01 3.947503e-01 3.965334e-01 4.118230e-01 4.092196e-01 4.240186e-01 4.171578e-01 4.312133e-01 4.200569e-01 4.328994e-01 4.172645e-01 4.282017e-01 4.076758e-01 4.156947e-01 3.895444e-01 3.932078e-01 3.605463e-01 3.580871e-01 3.187062e-01 3.086899e-01 2.653209e-01 2.488199e-01 2.129828e-01 2.000411e-01 2.000048e-01 2.132749e-01 2.613366e-01 3.030279e-01 3.703823e-01 4.258748e-01 4.894481e-01 5.472028e-01 5.941946e-01 6.454803e-01 6.686421e-01 7.069404e-01 7.034466e-01 7.247167e-01 6.957014e-01 6.985138e-01 6.483182e-01 6.336445e-01 5.687875e-01 5.395674e-01 4.677156e-01 4.283821e-01 3.577293e-01 3.139866e-01 2.538257e-01 2.136717e-01 1.775853e-01 1.550712e-01 1.582475e-01 1.634245e-01 1.917862e-01 2.107181e-01 2.412836e-01 2.624903e-01 2.875346e-01 3.074275e-01 
3.406800e-01 3.552916e-01 3.647147e-01 3.787995e-01 3.834632e-01 3.974076e-01 3.978948e-01 4.119203e-01 4.085290e-01 4.225797e-01 4.153709e-01 4.291622e-01 4.180727e-01 4.311718e-01 4.160486e-01 4.278731e-01 4.083697e-01 4.180787e-01 3.935608e-01 3.999498e-01 3.697842e-01 3.714267e-01 3.361805e-01 3.322150e-01 2.964511e-01 2.887458e-01 2.657377e-01 2.628204e-01 2.735210e-01 2.885441e-01 3.370285e-01 3.723281e-01 4.380269e-01 4.857275e-01 5.478042e-01 5.988477e-01 6.436030e-01 6.899410e-01 7.096797e-01 7.448326e-01 7.370222e-01 7.566499e-01 7.232200e-01 7.254468e-01 6.717880e-01 6.571619e-01 5.908907e-01 5.621027e-01 4.919005e-01 4.534558e-01 3.883969e-01 3.465092e-01 2.962704e-01 2.594708e-01 2.344731e-01 2.134800e-01 2.180427e-01 2.170678e-01 2.391176e-01 2.502187e-01 2.748896e-01 2.899160e-01 3.105062e-01 3.257970e-01 
3.536017e-01 3.672352e-01 3.766727e-01 3.905961e-01 3.957437e-01 4.101737e-01 4.114315e-01 4.264235e-01 4.238867e-01 4.391928e-01 4.327521e-01 4.479278e-01 4.374889e-01 4.520718e-01 4.376666e-01 4.512431e-01 4.328931e-01 4.449737e-01 4.224599e-01 4.322694e-01 4.053143e-01 4.117654e-01 3.812427e-01 3.834780e-01 3.540302e-01 3.530155e-01 3.362361e-01 3.372729e-01 3.493459e-01 3.615538e-01 4.073823e-01 4.357604e-01 5.005920e-01 5.421416e-01 6.056823e-01 6.533536e-01 7.001013e-01 7.459303e-01 7.669262e-01 8.036719e-01 7.960808e-01 8.183445e-01 7.844795e-01 7.892962e-01 7.352223e-01 7.221740e-01 6.561289e-01 6.272430e-01 5.582332e-01 5.178302e-01 4.547517e-01 4.093095e-01 3.607436e-01 3.189194e-01 2.926983e-01 2.644206e-01 2.634595e-01 2.540131e-01 2.702709e-01 2.749665e-01 2.961295e-01 3.073214e-01 3.261876e-01 3.393817e-01 
3.744812e-01 3.838738e-01 3.901956e-01 4.010356e-01 4.040822e-01 4.164220e-01 4.164364e-01 4.301614e-01 4.270487e-01 4.417503e-01 4.352363e-01 4.503741e-01 4.403117e-01 4.554519e-01 4.419637e-01 4.568603e-01 4.401269e-01 4.545672e-01 4.344881e-01 4.480473e-01 4.244775e-01 4.364768e-01 4.107907e-01 4.207574e-01 3.986929e-01 4.074677e-01 4.010005e-01 4.117892e-01 4.339304e-01 4.512817e-01 5.031791e-01 5.297289e-01 5.971873e-01 6.321519e-01 6.959064e-01 7.357607e-01 7.802301e-01 8.195778e-01 8.358827e-01 8.685523e-01 8.546558e-01 8.751025e-01 8.347401e-01 8.392297e-01 7.802019e-01 7.674615e-01 6.996120e-01 6.710992e-01 6.043968e-01 5.643484e-01 5.075187e-01 4.626522e-01 4.223853e-01 3.811127e-01 3.611326e-01 3.314249e-01 3.304593e-01 3.157414e-01 3.268325e-01 3.242354e-01 3.391104e-01 3.434561e-01 3.568727e-01 3.645143e-01 
3.907427e-01 3.990798e-01 4.054609e-01 4.162898e-01 4.201316e-01 4.333916e-01 4.347032e-01 4.500518e-01 4.483591e-01 4.650230e-01 4.596504e-01 4.767272e-01 4.673570e-01 4.842759e-01 4.712990e-01 4.880704e-01 4.723267e-01 4.893833e-01 4.714840e-01 4.892246e-01 4.694263e-01 4.877719e-01 4.673671e-01 4.856227e-01 4.695744e-01 4.868656e-01 4.852481e-01 5.014762e-01 5.253858e-01 5.422728e-01 5.941740e-01 6.151571e-01 6.839231e-01 7.120865e-01 7.789476e-01 8.143993e-01 8.621075e-01 9.008958e-01 9.190449e-01 9.543880e-01 9.405776e-01 9.652689e-01 9.238547e-01 9.322285e-01 8.719473e-01 8.609745e-01 7.922843e-01 7.622782e-01 6.950919e-01 6.501277e-01 5.924655e-01 5.400534e-01 4.976066e-01 4.473900e-01 4.232441e-01 3.843566e-01 3.779454e-01 3.551108e-01 3.612847e-01 3.526956e-01 3.642149e-01 3.647028e-01 3.762124e-01 3.815937e-01 
4.153553e-01 4.191936e-01 4.223146e-01 4.300612e-01 4.320830e-01 4.435178e-01 4.441771e-01 4.586897e-01 4.571103e-01 4.736136e-01 4.687474e-01 4.861191e-01 4.775261e-01 4.951907e-01 4.834704e-01 5.016644e-01 4.880094e-01 5.075735e-01 4.927466e-01 5.146246e-01 4.987341e-01 5.234861e-01 5.079080e-01 5.353754e-01 5.259550e-01 5.551133e-01 5.629225e-01 5.916856e-01 6.268623e-01 6.528378e-01 7.148926e-01 7.377034e-01 8.130942e-01 8.356194e-01 9.045447e-01 9.305963e-01 9.757205e-01 1.005975e+00 1.017663e+00 1.047946e+00 1.025347e+00 1.048433e+00 9.980838e-01 1.006824e+00 9.399858e-01 9.296938e-01 8.589100e-01 8.288449e-01 7.645967e-01 7.187323e-01 6.675239e-01 6.137377e-01 5.779261e-01 5.257367e-01 5.046959e-01 4.621777e-01 4.535550e-01 4.246880e-01 4.247421e-01 4.087112e-01 4.130748e-01 4.063929e-01 4.115987e-01 4.110256e-01 
4.327801e-01 4.359827e-01 4.397449e-01 4.482218e-01 4.520555e-01 4.655730e-01 4.688958e-01 4.864969e-01 4.877002e-01 5.075911e-01 5.047282e-01 5.250033e-01 5.171185e-01 5.367896e-01 5.248549e-01 5.444704e-01 5.309221e-01 5.524427e-01 5.394297e-01 5.654144e-01 5.537348e-01 5.861380e-01 5.768023e-01 6.154907e-01 6.129421e-01 6.546074e-01 6.677255e-01 7.059296e-01 7.434420e-01 7.716761e-01 8.345058e-01 8.517196e-01 9.291768e-01 9.422822e-01 1.015354e+00 1.034240e+00 1.083809e+00 1.112786e+00 1.127155e+00 1.161649e+00 1.139372e+00 1.169353e+00 1.117770e+00 1.132646e+00 1.064089e+00 1.056040e+00 9.834086e-01 9.498364e-01 8.830437e-01 8.280896e-01 7.728012e-01 7.064070e-01 6.648073e-01 5.994079e-01 5.715135e-01 5.174375e-01 5.021825e-01 4.645520e-01 4.593924e-01 4.374918e-01 4.384597e-01 4.281876e-01 4.315601e-01 4.290129e-01 
4.583936e-01 4.574857e-01 4.585321e-01 4.647068e-01 4.679031e-01 4.806965e-01 4.849471e-01 5.028972e-01 5.057519e-01 5.264535e-01 5.251890e-01 5.463459e-01 5.397901e-01 5.603997e-01 5.499991e-01 5.708593e-01 5.598091e-01 5.833621e-01 5.741073e-01 6.037502e-01 5.964849e-01 6.354016e-01 6.306436e-01 6.799314e-01 6.830770e-01 7.399819e-01 7.622102e-01 8.183879e-01 8.691763e-01 9.127017e-01 9.899128e-01 1.013171e+00 1.101155e+00 1.108366e+00 1.184684e+00 1.190152e+00 1.235470e+00 1.251748e+00 1.256535e+00 1.284430e+00 1.250027e+00 1.279336e+00 1.216001e+00 1.232908e+00 1.156306e+00 1.149755e+00 1.075388e+00 1.040935e+00 9.784868e-01 9.205553e-01 8.724766e-01 8.020976e-01 7.658225e-01 6.957558e-01 6.678152e-01 6.076935e-01 5.868578e-01 5.415450e-01 5.277261e-01 4.975085e-01 4.896779e-01 4.718705e-01 4.680776e-01 4.595928e-01 
4.744625e-01 4.737805e-01 4.767931e-01 4.851354e-01 4.922433e-01 5.092913e-01 5.189383e-01 5.426500e-01 5.509982e-01 5.776678e-01 5.801712e-01 6.060261e-01 6.003153e-01 6.234195e-01 6.114043e-01 6.327034e-01 6.198660e-01 6.434335e-01 6.349182e-01 6.670915e-01 6.645533e-01 7.117365e-01 7.151671e-01 7.795476e-01 7.921564e-01 8.682649e-01 8.980247e-01 9.710874e-01 1.025246e+00 1.076052e+00 1.153696e+00 1.171072e+00 1.260270e+00 1.252503e+00 1.332696e+00 1.324404e+00 1.374547e+00 1.386347e+00 1.394180e+00 1.427308e+00 1.393325e+00 1.433043e+00 1.368627e+00 1.395191e+00 1.317036e+00 1.313770e+00 1.236991e+00 1.196281e+00 1.129080e+00 1.056117e+00 1.000129e+00 9.102484e-01 8.642076e-01 7.757732e-01 7.378568e-01 6.634567e-01 6.340319e-01 5.790234e-01 5.590777e-01 5.229924e-01 5.116262e-01 4.906178e-01 4.853515e-01 4.754648e-01 
4.974255e-01 4.938491e-01 4.957692e-01 5.036626e-01 5.127214e-01 5.313062e-01 5.449295e-01 5.710929e-01 5.837354e-01 6.126718e-01 6.184162e-01 6.460352e-01 6.424471e-01 6.671778e-01 6.572739e-01 6.801056e-01 6.706850e-01 6.955418e-01 6.921673e-01 7.263369e-01 7.291831e-01 7.816208e-01 7.893764e-01 8.648054e-01 8.815781e-01 9.768574e-01 1.014949e+00 1.114427e+00 1.184588e+00 1.261563e+00 1.359797e+00 1.391256e+00 1.496859e+00 1.483145e+00 1.567522e+00 1.538083e+00 1.579373e+00 1.569778e+00 1.561465e+00 1.584420e+00 1.532649e+00 1.572921e+00 1.492493e+00 1.523541e+00 1.435326e+00 1.434526e+00 1.357248e+00 1.313612e+00 1.253562e+00 1.173852e+00 1.126917e+00 1.029258e+00 9.873946e-01 8.912635e-01 8.491723e-01 7.660162e-01 7.259845e-01 6.610110e-01 6.283856e-01 5.825818e-01 5.601419e-01 5.312415e-01 5.181409e-01 5.028362e-01 
5.085316e-01 5.063570e-01 5.124525e-01 5.246259e-01 5.410611e-01 5.671444e-01 5.906044e-01 6.264349e-01 6.489148e-01 6.876195e-01 7.000875e-01 7.355082e-01 7.334174e-01 7.625418e-01 7.493347e-01 7.722731e-01 7.584324e-01 7.802207e-01 7.757958e-01 8.081627e-01 8.163452e-01 8.755546e-01 8.947003e-01 9.892055e-01 1.020251e+00 1.144341e+00 1.194630e+00 1.323500e+00 1.399746e+00 1.494389e+00 1.593414e+00 1.621761e+00 1.728276e+00 1.692762e+00 1.781107e+00 1.727262e+00 1.772962e+00 1.751540e+00 1.744470e+00 1.770528e+00 1.716779e+00 1.769547e+00 1.686766e+00 1.731113e+00 1.641176e+00 1.644448e+00 1.564146e+00 1.509565e+00 1.441600e+00 1.337355e+00 1.276635e+00 1.149010e+00 1.092422e+00 9.719159e-01 9.164531e-01 8.168000e-01 7.660434e-01 6.908549e-01 6.511379e-01 5.995859e-01 5.737259e-01 5.420868e-01 5.283616e-01 5.123741e-01 
5.236636e-01 5.207708e-01 5.288182e-01 5.436194e-01 5.663243e-01 5.972706e-01 6.291429e-01 6.696532e-01 6.994237e-01 7.409433e-01 7.579032e-01 7.954800e-01 7.966068e-01 8.299688e-01 8.214384e-01 8.497547e-01 8.432251e-01 8.672689e-01 8.720791e-01 9.029209e-01 9.182483e-01 9.787651e-01 1.001842e+00 1.104832e+00 1.136871e+00 1.281821e+00 1.337283e+00 1.502996e+00 1.598658e+00 1.738240e+00 1.870241e+00 1.931239e+00 2.069142e+00 2.033856e+00 2.132198e+00 2.048336e+00 2.077160e+00 2.020067e+00 1.983181e+00 1.991396e+00 1.908358e+00 1.960916e+00 1.852471e+00 1.901775e+00 1.795448e+00 1.800094e+00 1.720250e+00 1.656215e+00 1.599410e+00 1.480145e+00 1.431435e+00 1.289513e+00 1.235695e+00 1.104760e+00 1.039212e+00 9.285686e-01 8.600535e-01 7.723666e-01 7.144939e-01 6.514755e-01 6.119389e-01 5.722095e-01 5.505574e-01 5.303184e-01 
5.240821e-01 5.236910e-01 5.387771e-01 5.602011e-01 5.947352e-01 6.366035e-01 6.835376e-01 7.371837e-01 7.814463e-01 8.359862e-01 8.631504e-01 9.128967e-01 9.177722e-01 9.621738e-01 9.505935e-01 9.840317e-01 9.720517e-01 9.908450e-01 9.927224e-01 1.011712e+00 1.032384e+00 1.092684e+00 1.130796e+00 1.254596e+00 1.307473e+00 1.492506e+00 1.567221e+00 1.780531e+00 1.887694e+00 2.063937e+00 2.201041e+00 2.270277e+00 2.416691e+00 2.357328e+00 2.469372e+00 2.353269e+00 2.390543e+00 2.314009e+00 2.272998e+00 2.275246e+00 2.180021e+00 2.239360e+00 2.121164e+00 2.183538e+00 2.071354e+00 2.077292e+00 1.991368e+00 1.906321e+00 1.834311e+00 1.672880e+00 1.597295e+00 1.406632e+00 1.331539e+00 1.170967e+00 1.090043e+00 9.637108e-01 8.836683e-01 7.867678e-01 7.215956e-01 6.531002e-01 6.108541e-01 5.686261e-01 5.477537e-01 5.273414e-01 
5.242959e-01 5.261969e-01 5.477277e-01 5.757730e-01 6.221234e-01 6.719206e-01 7.311556e-01 7.885972e-01 8.400578e-01 8.922918e-01 9.215600e-01 9.702791e-01 9.802384e-01 1.037163e+00 1.039853e+00 1.095205e+00 1.103749e+00 1.133280e+00 1.156746e+00 1.165312e+00 1.193920e+00 1.245553e+00 1.285143e+00 1.408741e+00 1.455783e+00 1.654480e+00 1.723803e+00 1.980290e+00 2.108468e+00 2.358291e+00 2.554131e+00 2.695978e+00 2.913953e+00 2.877774e+00 3.024389e+00 2.876585e+00 2.888108e+00 2.760879e+00 2.665441e+00 2.639991e+00 2.494941e+00 2.548991e+00 2.383079e+00 2.442596e+00 2.293543e+00 2.294362e+00 2.207202e+00 2.093599e+00 2.036330e+00 1.840416e+00 1.779696e+00 1.560219e+00 1.484127e+00 1.313843e+00 1.214333e+00 1.078061e+00 9.709466e-01 8.596238e-01 7.695576e-01 6.874892e-01 6.289498e-01 5.785086e-01 5.505105e-01 5.275944e-01 
5.057376e-01 5.104886e-01 5.417098e-01 5.777763e-01 6.394090e-01 7.006743e-01 7.769345e-01 8.451572e-01 9.112178e-01 9.736737e-01 1.015426e+00 1.081636e+00 1.104681e+00 1.194350e+00 1.203136e+00 1.286302e+00 1.293751e+00 1.321012e+00 1.338689e+00 1.309403e+00 1.339875e+00 1.371576e+00 1.426896e+00 1.567693e+00 1.641758e+00 1.891253e+00 1.987145e+00 2.314272e+00 2.461018e+00 2.777872e+00 2.989356e+00 3.166832e+00 3.421661e+00 3.369617e+00 3.568227e+00 3.397036e+00 3.437126e+00 3.296035e+00 3.187989e+00 3.136084e+00 2.954756e+00 2.993002e+00 2.800857e+00 2.867067e+00 2.699725e+00 2.690848e+00 2.590008e+00 2.435396e+00 2.345473e+00 2.072560e+00 1.947212e+00 1.636496e+00 1.529444e+00 1.332628e+00 1.222778e+00 1.081512e+00 9.670852e-01 8.509136e-01 7.550818e-01 6.673579e-01 6.071830e-01 5.533292e-01 5.275467e-01 5.040333e-01 
4.832118e-01 4.936624e-01 5.368167e-01 5.834033e-01 6.614534e-01 7.303955e-01 8.175670e-01 8.797148e-01 9.433934e-01 9.844777e-01 1.018444e+00 1.071996e+00 1.111003e+00 1.238145e+00 1.290373e+00 1.443888e+00 1.496961e+00 1.558838e+00 1.630086e+00 1.558994e+00 1.587812e+00 1.587998e+00 1.634703e+00 1.760461e+00 1.818979e+00 2.058054e+00 2.123725e+00 2.483621e+00 2.645480e+00 3.076631e+00 3.398655e+00 3.732102e+00 4.152173e+00 4.171127e+00 4.462539e+00 4.264380e+00 4.259668e+00 4.051252e+00 3.843855e+00 3.761522e+00 3.507991e+00 3.540104e+00 3.264579e+00 3.307280e+00 3.051716e+00 3.035401e+00 2.934719e+00 2.704618e+00 2.631493e+00 2.286152e+00 2.177143e+00 1.793041e+00 1.660710e+00 1.469295e+00 1.328072e+00 1.189134e+00 1.038018e+00 9.079876e-01 7.800687e-01 6.756653e-01 5.965013e-01 5.334669e-01 5.020784e-01 4.777984e-01 
4.372484e-01 4.498409e-01 5.039529e-01 5.573744e-01 6.489932e-01 7.216881e-01 8.166377e-01 8.723216e-01 9.378305e-01 9.723121e-01 1.022885e+00 1.107450e+00 1.209586e+00 1.442583e+00 1.537958e+00 1.776122e+00 1.820169e+00 1.880567e+00 1.920612e+00 1.732666e+00 1.752227e+00 1.693537e+00 1.749803e+00 1.888645e+00 1.981829e+00 2.287394e+00 2.390002e+00 2.855208e+00 3.047759e+00 3.597198e+00 3.949145e+00 4.379210e+00 4.897261e+00 4.907358e+00 5.325761e+00 5.125571e+00 5.175463e+00 4.973855e+00 4.732418e+00 4.571636e+00 4.243965e+00 4.220827e+00 3.917286e+00 3.981303e+00 3.695689e+00 3.654821e+00 3.543706e+00 3.252403e+00 3.118538e+00 2.639668e+00 2.349141e+00 1.758264e+00 1.553423e+00 1.376073e+00 1.247890e+00 1.141112e+00 9.996883e-01 8.761749e-01 7.466390e-01 6.346759e-01 5.533603e-01 4.830339e-01 4.535500e-01 4.264309e-01 
3.890136e-01 4.107834e-01 4.824294e-01 5.486692e-01 6.565206e-01 7.309671e-01 8.255182e-01 8.548007e-01 8.963270e-01 8.760722e-01 9.140102e-01 9.757549e-01 1.178087e+00 1.509010e+00 1.720360e+00 2.120978e+00 2.185434e+00 2.306453e+00 2.480781e+00 2.130493e+00 2.095171e+00 1.974685e+00 2.001320e+00 2.124513e+00 2.211406e+00 2.470662e+00 2.511601e+00 2.968441e+00 3.159238e+00 3.878893e+00 4.435697e+00 5.201137e+00 6.061209e+00 6.177965e+00 6.742684e+00 6.451037e+00 6.343354e+00 5.993302e+00 5.543922e+00 5.379977e+00 5.008552e+00 5.044394e+00 4.651138e+00 4.674932e+00 4.201633e+00 4.250649e+00 4.211958e+00 3.743490e+00 3.635254e+00 3.080552e+00 2.867466e+00 2.051565e+00 1.602166e+00 1.480151e+00 1.290350e+00 1.224319e+00 1.044626e+00 9.153101e-01 7.510566e-01 6.181645e-01 5.151602e-01 4.315860e-01 3.975234e-01 3.699444e-01 
3.187182e-01 3.432196e-01 4.254084e-01 4.945190e-01 6.045416e-01 6.642138e-01 7.385102e-01 7.241589e-01 7.329527e-01 6.736340e-01 7.571701e-01 9.164755e-01 1.404953e+00 2.024621e+00 2.358288e+00 2.885662e+00 2.821166e+00 2.914418e+00 2.946488e+00 2.260806e+00 2.196269e+00 1.994032e+00 2.020814e+00 2.186749e+00 2.338216e+00 2.714372e+00 2.831480e+00 3.476640e+00 3.747146e+00 4.684587e+00 5.265266e+00 6.267382e+00 7.256833e+00 7.207472e+00 7.876380e+00 7.454923e+00 7.307264e+00 6.930139e+00 6.374674e+00 6.010950e+00 5.588476e+00 5.602669e+00 5.338934e+00 5.582376e+00 5.136078e+00 5.182311e+00 5.261880e+00 4.821282e+00 4.662571e+00 3.967579e+00 3.346237e+00 2.247860e+00 1.233064e+00 1.210323e+00 1.061167e+00 1.100816e+00 9.693587e-01 8.701571e-01 7.146619e-01 5.734725e-01 4.641354e-01 3.663338e-01 3.289329e-01 2.947779e-01 
2.676523e-01 3.044485e-01 4.050262e-01 4.850821e-01 6.021713e-01 6.572329e-01 7.149319e-01 6.706288e-01 6.505578e-01 5.805106e-01 7.471135e-01 9.970264e-01 1.748298e+00 2.152216e+00 2.580809e+00 3.307572e+00 2.996547e+00 3.323038e+00 4.013885e+00 2.883208e+00 2.536002e+00 2.350250e+00 2.332720e+00 2.553695e+00 2.787773e+00 3.095979e+00 3.163087e+00 3.737731e+00 4.016829e+00 5.198308e+00 6.135847e+00 7.885254e+00 9.255769e+00 8.968603e+00 9.531537e+00 8.521566e+00 7.796125e+00 6.836075e+00 5.748171e+00 5.687664e+00 5.747892e+00 6.304135e+00 6.098165e+00 6.230991e+00 5.375455e+00 6.086270e+00 6.723670e+00 5.821969e+00 5.697873e+00 5.394963e+00 5.764116e+00 4.266530e+00 1.624550e+00 1.257000e+00 9.680420e-01 1.099600e+00 9.540166e-01 8.684744e-01 7.016723e-01 5.442148e-01 4.210297e-01 3.067974e-01 2.658866e-01 2.299476e-01 
2.398955e-01 2.834330e-01 3.834023e-01 4.613582e-01 5.621202e-01 5.932343e-01 6.057912e-01 5.296894e-01 4.998813e-01 6.026404e-01 8.838812e-01 1.568196e+00 2.574835e+00 2.640195e+00 2.692496e+00 2.236606e+00 1.561789e+00 2.839678e+00 3.510725e+00 2.636058e+00 2.246350e+00 2.299174e+00 2.298023e+00 2.658173e+00 3.009368e+00 3.533069e+00 3.793531e+00 4.843531e+00 5.563490e+00 7.413998e+00 8.653384e+00 1.107880e+01 1.180381e+01 1.025237e+01 1.040047e+01 8.484537e+00 7.590911e+00 6.270746e+00 5.101943e+00 5.072678e+00 6.215647e+00 7.213432e+00 7.040429e+00 7.763062e+00 7.001401e+00 7.314454e+00 8.379963e+00 8.137493e+00 8.224264e+00 8.369440e+00 8.976962e+00 9.103033e+00 4.287734e+00 1.498863e+00 8.632700e-01 9.180952e-01 8.615598e-01 8.038048e-01 6.684131e-01 5.164371e-01 3.932993e-01 2.768695e-01 2.317327e-01 1.998162e-01 
2.823717e-01 3.250721e-01 4.182704e-01 4.943964e-01 5.845523e-01 6.154686e-01 6.194015e-01 6.132428e-01 7.448284e-01 1.258298e+00 2.305341e+00 4.740576e+00 9.160724e+00 1.225404e+01 1.101672e+01 9.606858e+00 9.132919e+00 5.102044e+00 1.360475e+00 2.205612e+00 1.203606e+00 2.545673e+00 2.918394e+00 3.552869e+00 4.177336e+00 4.587699e+00 4.975461e+00 6.234138e+00 7.670241e+00 1.046126e+01 1.336733e+01 1.752747e+01 1.747840e+01 1.483746e+01 1.495550e+01 1.222212e+01 1.099508e+01 8.367398e+00 5.807342e+00 8.717255e+00 1.349380e+01 1.611485e+01 1.329197e+01 1.163974e+01 8.924585e+00 9.881488e+00 1.275099e+01 1.003892e+01 9.766990e+00 1.365146e+01 2.021364e+01 2.006117e+01 1.066119e+01 2.957860e+00 9.603187e-01 6.484188e-01 7.106019e-01 6.682641e-01 6.018377e-01 4.686342e-01 3.808406e-01 2.843430e-01 2.596573e-01 2.423900e-01 
3.867449e-01 4.301654e-01 5.108570e-01 5.856535e-01 6.665495e-01 7.110286e-01 7.504108e-01 9.107500e-01 1.399673e+00 2.590415e+00 5.037312e+00 9.675253e+00 1.603379e+01 2.331584e+01 2.266748e+01 2.459088e+01 2.683414e+01 2.630954e+01 1.864497e+01 8.759062e+00 3.654085e+00 1.910865e+00 2.956237e+00 4.043900e+00 4.804671e+00 5.451384e+00 6.400616e+00 9.359570e+00 1.309782e+01 1.864369e+01 2.368791e+01 2.441023e+01 2.356562e+01 1.771897e+01 1.582089e+01 1.239989e+01 1.315035e+01 1.673454e+01 2.099425e+01 2.702991e+01 2.559415e+01 2.528428e+01 2.377761e+01 2.397142e+01 2.063561e+01 1.367527e+01 1.608324e+01 1.623534e+01 1.669458e+01 2.347412e+01 2.513967e+01 3.254291e+01 2.604974e+01 8.820668e+00 2.949887e+00 7.036854e-01 6.978677e-01 5.616378e-01 5.572215e-01 4.618325e-01 4.109925e-01 3.536279e-01 3.480231e-01 3.495146e-01 
4.971466e-01 5.334550e-01 5.995811e-01 6.622439e-01 7.214324e-01 7.499702e-01 7.613033e-01 9.387037e-01 1.533054e+00 3.004482e+00 5.992376e+00 1.115257e+01 1.387451e+01 9.917058e+00 1.149999e+01 1.653389e+01 2.043541e+01 2.889552e+01 3.439834e+01 2.632512e+01 1.629436e+01 6.618177e+00 3.841869e+00 5.765449e+00 7.419573e+00 7.659613e+00 9.431273e+00 1.408352e+01 1.880588e+01 1.884576e+01 1.603837e+01 1.643779e+01 2.287883e+01 1.982742e+01 2.385438e+01 2.648072e+01 2.945872e+01 2.942956e+01 2.835668e+01 1.875879e+01 6.038098e+00 5.873633e+00 1.037420e+01 1.441655e+01 2.535689e+01 2.858437e+01 3.003365e+01 1.985197e+01 1.143590e+01 2.827641e+01 3.333812e+01 1.399328e+01 3.457976e+01 1.690524e+01 5.213740e+00 1.482296e+00 3.151394e-01 2.027630e-01 4.279109e-01 4.282294e-01 4.560188e-01 4.386643e-01 4.550821e-01 4.627534e-01 
6.359772e-01 6.712445e-01 7.384173e-01 8.039388e-01 8.716562e-01 9.141518e-01 9.269836e-01 1.012238e+00 1.361599e+00 2.387477e+00 4.611935e+00 8.518738e+00 1.198100e+01 8.888361e+00 4.484196e+00 6.385538e+00 5.252264e+00 5.826103e+00 1.840429e+01 2.978023e+01 3.186546e+01 2.218247e+01 9.799891e+00 6.749781e+00 7.947070e+00 7.737735e+00 1.019249e+01 1.550674e+01 1.309528e+01 2.771768e+00 1.821728e+01 3.378045e+01 2.890067e+01 2.671336e+01 2.558659e+01 2.284561e+01 1.874907e+01 1.721841e+01 1.427351e+01 2.279601e+01 2.622084e+01 2.738543e+01 2.013344e+01 1.867984e+01 7.718714e+00 1.355794e+01 3.556598e+01 3.511591e+01 1.532795e+01 2.265953e+01 3.296114e+01 1.184212e+01 2.792284e+01 1.807177e+01 5.485899e+00 1.851813e+00 3.024722e-01 3.326271e-01 5.277360e-01 5.243551e-01 5.764434e-01 5.596712e-01 5.896396e-01 5.960125e-01 
7.413568e-01 7.755481e-01 8.385334e-01 9.027049e-01 9.699913e-01 1.022806e+00 1.048017e+00 1.122409e+00 1.370102e+00 2.054388e+00 3.479843e+00 5.806996e+00 8.751061e+00 9.408860e+00 7.477359e+00 9.164154e+00 1.078282e+01 9.716751e+00 4.123992e+00 1.101498e+01 2.772228e+01 3.501262e+01 2.424798e+01 1.248943e+01 1.184687e+01 7.718160e+00 9.826864e+00 1.265610e+01 3.098947e+00 1.729055e+01 2.659064e+01 2.452284e+01 1.596956e+01 1.362916e+01 1.445330e+01 1.896160e+01 2.244506e+01 2.734017e+01 2.785376e+01 2.897244e+01 2.501819e+01 2.338381e+01 2.270969e+01 2.518604e+01 2.689663e+01 2.418419e+01 1.805571e+01 3.072450e+01 3.755709e+01 3.452818e+01 1.395863e+01 2.752934e+01 2.799447e+01 1.349966e+01 4.670517e+00 1.626163e+00 7.971876e-01 5.572481e-01 6.408626e-01 6.019742e-01 6.626759e-01 6.516284e-01 6.913655e-01 6.999426e-01 
8.524875e-01 8.816277e-01 9.478236e-01 1.009631e+00 1.084363e+00 1.138047e+00 1.159199e+00 1.149074e+00 1.177175e+00 1.431652e+00 2.252530e+00 3.629689e+00 5.660011e+00 6.947118e+00 6.686233e+00 8.127114e+00 1.035915e+01 1.225173e+01 1.288438e+01 7.058999e+00 8.857341e+00 2.954814e+01 3.922609e+01 2.893194e+01 9.616838e+00 3.816923e+00 9.266969e+00 1.236261e+01 1.840017e+01 2.256992e+01 1.770644e+01 1.313532e+01 1.151488e+01 1.226610e+01 1.285744e+01 1.544281e+01 1.683285e+01 1.904332e+01 2.012778e+01 1.868676e+01 1.677735e+01 1.595006e+01 1.645546e+01 1.728078e+01 2.067764e+01 2.549801e+01 2.376062e+01 1.514226e+01 2.235297e+01 3.496381e+01 3.082422e+01 2.981945e+01 1.862211e+01 6.564278e+00 2.719666e+00 1.192581e+00 9.903147e-01 7.060254e-01 7.812000e-01 7.035669e-01 7.742710e-01 7.524889e-01 8.035221e-01 8.048776e-01 
9.160521e-01 9.509571e-01 1.019874e+00 1.088967e+00 1.174209e+00 1.247924e+00 1.296658e+00 1.296146e+00 1.254518e+00 1.217741e+00 1.465464e+00 2.121673e+00 3.288610e+00 4.464286e+00 4.836921e+00 6.281057e+00 8.323750e+00 1.098038e+01 1.451801e+01 1.599610e+01 1.222551e+01 9.534138e+00 2.787228e+01 3.962706e+01 2.767997e+01 1.607834e+01 9.477821e+00 1.569618e+01 2.260080e+01 1.701155e+01 1.246876e+01 9.217224e+00 7.625728e+00 7.429669e+00 7.248638e+00 8.995404e+00 1.038600e+01 1.265139e+01 1.514307e+01 1.498841e+01 1.436552e+01 1.381953e+01 1.389453e+01 1.386763e+01 1.497630e+01 1.562661e+01 1.745296e+01 1.420672e+01 8.821385e+00 1.103104e+01 1.751276e+01 1.211378e+01 4.728134e+00 1.834810e+00 1.206060e+00 6.654081e-01 6.884001e-01 5.478465e-01 6.948278e-01 6.756794e-01 7.832871e-01 7.871474e-01 8.521948e-01 8.635355e-01 
9.723803e-01 9.994515e-01 1.068400e+00 1.129824e+00 1.215294e+00 1.282417e+00 1.329991e+00 1.301230e+00 1.185368e+00 9.209434e-01 7.279986e-01 1.089692e+00 2.043557e+00 3.258947e+00 3.952487e+00 5.098782e+00 6.785887e+00 9.023017e+00 1.256009e+01 1.666650e+01 1.978905e+01 1.842987e+01 1.350303e+01 1.915863e+01 2.758056e+01 2.528134e+01 2.090262e+01 2.608023e+01 2.428458e+01 1.609029e+01 1.407334e+01 9.869576e+00 7.428798e+00 4.617098e+00 3.981957e+00 5.908659e+00 7.790516e+00 9.815034e+00 1.188085e+01 1.217549e+01 1.240863e+01 1.207554e+01 1.223275e+01 1.159577e+01 1.195225e+01 1.188283e+01 1.266347e+01 1.041741e+01 1.073479e+01 7.853024e+00 3.095952e+00 1.480710e+00 1.706857e+00 1.307741e+00 5.862021e-01 3.566945e-01 5.062600e-01 4.851880e-01 6.997205e-01 7.063261e-01 8.387931e-01 8.399024e-01 9.135783e-01 9.168795e-01 
9.779920e-01 1.013703e+00 1.085883e+00 1.157135e+00 1.250702e+00 1.333699e+00 1.398985e+00 1.391301e+00 1.286886e+00 9.820266e-01 4.976100e-01 3.477093e-01 1.314024e+00 2.635652e+00 3.428969e+00 4.632679e+00 6.201315e+00 8.255301e+00 1.151617e+01 1.550925e+01 2.000705e+01 2.213489e+01 1.991944e+01 4.765959e+00 1.644427e+01 2.676174e+01 3.464497e+01 4.000640e+01 3.049007e+01 2.160201e+01 1.887000e+01 1.324683e+01 9.491633e+00 4.237988e+00 7.331126e-01 3.221662e+00 6.225503e+00 8.933621e+00 1.163466e+01 1.245325e+01 1.291869e+01 1.264309e+01 1.259544e+01 1.172949e+01 1.169248e+01 1.085509e+01 1.219013e+01 1.184624e+01 1.253259e+01 8.789458e+00 4.272399e+00 3.517507e+00 2.415281e+00 1.314068e+00 4.343763e-01 1.528154e-01 2.686018e-01 3.560783e-01 6.105537e-01 6.608150e-01 8.065225e-01 8.274802e-01 9.057069e-01 9.201477e-01 
9.723803e-01 9.994515e-01 1.068400e+00 1.129824e+00 1.215294e+00 1.282417e+00 1.329991e+00 1.301230e+00 1.185368e+00 9.209434e-01 7.279986e-01 1.089692e+00 2.043557e+00 3.258947e+00 3.952487e+00 5.098782e+00 6.785887e+00 9.023017e+00 1.256009e+01 1.666650e+01 1.978905e+01 1.842987e+01 1.350303e+01 1.915863e+01 2.758056e+01 2.528134e+01 2.090262e+01 2.608023e+01 2.428458e+01 1.609029e+01 1.407334e+01 9.869576e+00 7.428798e+00 4.617098e+00 3.981957e+00 5.908659e+00 7.790516e+00 9.815034e+00 1.188085e+01 1.217549e+01 1.240863e+01 1.207554e+01 1.223275e+01 1.159577e+01 1.195225e+01 1.188283e+01 1.266347e+01 1.041741e+01 1.073479e+01 7.853024e+00 3.095952e+00 1.480710e+00 1.706857e+00 1.307741e+00 5.862021e-01 3.566945e-01 5.062600e-01 4.851880e-01 6.997205e-01 7.063261e-01 8.387931e-01 8.399024e-01 9.135783e-01 9.168795e-01 
9.160521e-01 9.509571e-01 1.019874e+00 1.088967e+00 1.174209e+00 1.247924e+00 1.296658e+00 1.296146e+00 1.254518e+00 1.217741e+00 1.465464e+00 2.121673e+00 3.288610e+00 4.464286e+00 4.836921e+00 6.281057e+00 8.323750e+00 1.098038e+01 1.451801e+01 1.599610e+01 1.222551e+01 9.534138e+00 2.787228e+01 3.962706e+01 2.767997e+01 1.607834e+01 9.477821e+00 1.569618e+01 2.260080e+01 1.701155e+01 1.246876e+01 9.217224e+00 7.625728e+00 7.429669e+00 7.248638e+00 8.995404e+00 1.038600e+01 1.265139e+01 1.514307e+01 1.498841e+01 1.436552e+01 1.381953e+01 1.389453e+01 1.386763e+01 1.497630e+01 1.562661e+01 1.745296e+01 1.420672e+01 8.821385e+00 1.103104e+01 1.751276e+01 1.211378e+01 4.728134e+00 1.834810e+00 1.206060e+00 6.654081e-01 6.884001e-01 5.478465e-01 6.948278e-01 6.756794e-01 7.832871e-01 7.871474e-01 8.521948e-01 8.635355e-01 