# vtk DataFile Version 2.0
Comment goes here
ASCII

DATASET STRUCTURED_POINTS
DIMENSIONS    64   64   1

ORIGIN    0.000   0.000   0.000
SPACING   0.0781250.078125   1.000

POINT_DATA   4096
SCALARS uMag double
LOOKUP_TABLE default

1.749353e-01 1.992283e-01 1.749419e-01 1.962121e-01 1.783088e-01 1.988861e-01 1.904228e-01 2.120308e-01 2.149590e-01 2.381733e-01 2.528659e-01 2.766348e-01 3.015060e-01 3.228920e-01 3.542862e-01 3.686006e-01 4.011124e-01 4.025483e-01 4.298238e-01 4.125451e-01 4.284433e-01 3.879226e-01 3.877825e-01 3.220862e-01 3.038099e-01 2.145263e-01 1.792363e-01 7.180744e-02 2.391031e-02 9.278807e-02 1.462204e-01 2.610929e-01 3.116012e-01 4.131916e-01 4.526452e-01 5.312215e-01 5.535268e-01 6.027720e-01 6.050534e-01 6.228329e-01 6.057618e-01 5.938401e-01 5.611221e-01 5.241259e-01 4.814363e-01 4.255523e-01 3.793129e-01 3.111354e-01 2.674446e-01 1.931832e-01 1.570503e-01 8.209101e-02 5.698403e-02 1.432899e-02 2.667164e-02 9.116079e-02 9.070534e-02 1.464360e-01 1.346553e-01 1.809404e-01 1.604923e-01 1.977971e-01 1.721459e-01 2.018932e-01 
1.745228e-01 1.995099e-01 1.759357e-01 1.978714e-01 1.805284e-01 2.018602e-01 1.938442e-01 2.164163e-01 2.197038e-01 2.441093e-01 2.590200e-01 2.841129e-01 3.089825e-01 3.316943e-01 3.628408e-01 3.783811e-01 4.104448e-01 4.129643e-01 4.396994e-01 4.233983e-01 4.388310e-01 3.993441e-01 3.990655e-01 3.349209e-01 3.173159e-01 2.317705e-01 1.996841e-01 1.103688e-01 8.727694e-02 1.228721e-01 1.662598e-01 2.723960e-01 3.201902e-01 4.199867e-01 4.579038e-01 5.364668e-01 5.578279e-01 6.078631e-01 6.097502e-01 6.287769e-01 6.118428e-01 6.014195e-01 5.692827e-01 5.338697e-01 4.920651e-01 4.377179e-01 3.925193e-01 3.257968e-01 2.832043e-01 2.106110e-01 1.757025e-01 1.046396e-01 8.189691e-02 4.215971e-02 4.258181e-02 8.925193e-02 8.816751e-02 1.418146e-01 1.304078e-01 1.767671e-01 1.570316e-01 1.949683e-01 1.701635e-01 2.006482e-01 
1.763317e-01 1.994180e-01 1.732840e-01 1.934427e-01 1.740045e-01 1.941320e-01 1.847996e-01 2.071563e-01 2.100957e-01 2.353107e-01 2.507075e-01 2.772961e-01 3.032411e-01 3.277004e-01 3.603986e-01 3.776000e-01 4.117271e-01 4.156426e-01 4.450658e-01 4.299261e-01 4.488279e-01 4.106482e-01 4.148800e-01 3.533837e-01 3.420162e-01 2.642538e-01 2.426191e-01 1.778731e-01 1.699963e-01 1.949561e-01 2.264620e-01 3.171582e-01 3.587822e-01 4.534515e-01 4.878120e-01 5.639612e-01 5.829180e-01 6.308467e-01 6.309297e-01 6.474647e-01 6.291483e-01 6.158323e-01 5.827903e-01 5.443520e-01 5.023200e-01 4.452232e-01 4.007485e-01 3.321895e-01 2.915925e-01 2.195449e-01 1.883828e-01 1.252838e-01 1.087663e-01 8.792900e-02 8.611400e-02 1.210442e-01 1.156055e-01 1.632560e-01 1.481595e-01 1.917201e-01 1.685842e-01 2.045937e-01 1.766589e-01 2.053152e-01 
1.776182e-01 2.000604e-01 1.729365e-01 1.923680e-01 1.719644e-01 1.921322e-01 1.823637e-01 2.063650e-01 2.097516e-01 2.382834e-01 2.547373e-01 2.856670e-01 3.128037e-01 3.418574e-01 3.756708e-01 3.971454e-01 4.324040e-01 4.399783e-01 4.708493e-01 4.588118e-01 4.799314e-01 4.448799e-01 4.527248e-01 3.959317e-01 3.904963e-01 3.223957e-01 3.100976e-01 2.611946e-01 2.597765e-01 2.782703e-01 3.014227e-01 3.777543e-01 4.110080e-01 4.994085e-01 5.275687e-01 6.016756e-01 6.163532e-01 6.638959e-01 6.614989e-01 6.782271e-01 6.590697e-01 6.461050e-01 6.136154e-01 5.755308e-01 5.351625e-01 4.784143e-01 4.364216e-01 3.684325e-01 3.307829e-01 2.602559e-01 2.318274e-01 1.718109e-01 1.554976e-01 1.293959e-01 1.221257e-01 1.420534e-01 1.323225e-01 1.732417e-01 1.554993e-01 1.972949e-01 1.724666e-01 2.081940e-01 1.791300e-01 2.075294e-01 
1.807378e-01 1.998061e-01 1.681572e-01 1.843235e-01 1.600883e-01 1.783928e-01 1.663975e-01 1.912814e-01 1.945948e-01 2.266103e-01 2.444702e-01 2.802661e-01 3.095406e-01 3.437659e-01 3.803127e-01 4.065902e-01 4.454252e-01 4.571054e-01 4.927613e-01 4.841890e-01 5.116620e-01 4.800615e-01 4.961335e-01 4.443235e-01 4.491482e-01 3.900121e-01 3.891854e-01 3.515773e-01 3.570230e-01 3.744457e-01 3.941152e-01 4.614848e-01 4.881599e-01 5.708464e-01 5.931427e-01 6.638710e-01 6.737883e-01 7.180200e-01 7.117817e-01 7.243631e-01 7.022501e-01 6.844318e-01 6.501113e-01 6.070562e-01 5.663931e-01 5.053244e-01 4.649727e-01 3.943522e-01 3.604022e-01 2.906643e-01 2.672888e-01 2.134158e-01 2.006893e-01 1.809303e-01 1.717868e-01 1.886328e-01 1.736250e-01 2.089767e-01 1.851833e-01 2.229575e-01 1.921852e-01 2.248165e-01 1.902774e-01 2.156106e-01 
1.849202e-01 2.013735e-01 1.673381e-01 1.801913e-01 1.532524e-01 1.697972e-01 1.562927e-01 1.836623e-01 1.879746e-01 2.264505e-01 2.467609e-01 2.908741e-01 3.228127e-01 3.656274e-01 4.047065e-01 4.388780e-01 4.803041e-01 4.986491e-01 5.374201e-01 5.342525e-01 5.659898e-01 5.391874e-01 5.613006e-01 5.151441e-01 5.280152e-01 4.769131e-01 4.848113e-01 4.551115e-01 4.651917e-01 4.821603e-01 4.983733e-01 5.591352e-01 5.775227e-01 6.549986e-01 6.684065e-01 7.364259e-01 7.392503e-01 7.821011e-01 7.715397e-01 7.832152e-01 7.595009e-01 7.408601e-01 7.070968e-01 6.631206e-01 6.244700e-01 5.622768e-01 5.246183e-01 4.526320e-01 4.210262e-01 3.495824e-01 3.266807e-01 2.695880e-01 2.539103e-01 2.267043e-01 2.119325e-01 2.197182e-01 1.990070e-01 2.292617e-01 2.007949e-01 2.370303e-01 2.028045e-01 2.348767e-01 1.978565e-01 2.218936e-01 
1.899989e-01 2.009209e-01 1.605560e-01 1.672860e-01 1.343423e-01 1.471893e-01 1.304518e-01 1.610203e-01 1.667370e-01 2.132492e-01 2.366094e-01 2.900002e-01 3.251427e-01 3.771209e-01 4.198685e-01 4.624575e-01 5.087319e-01 5.343782e-01 5.798424e-01 5.828349e-01 6.235374e-01 6.022254e-01 6.355307e-01 5.951556e-01 6.205144e-01 5.760785e-01 5.953279e-01 5.710441e-01 5.875668e-01 6.047272e-01 6.206873e-01 6.781368e-01 6.919965e-01 7.665534e-01 7.740847e-01 8.392607e-01 8.361457e-01 8.744565e-01 8.582000e-01 8.632255e-01 8.344207e-01 8.079249e-01 7.704112e-01 7.186781e-01 6.785037e-01 6.098546e-01 5.735176e-01 4.975200e-01 4.698416e-01 3.980190e-01 3.798306e-01 3.261136e-01 3.126228e-01 2.889510e-01 2.716246e-01 2.787168e-01 2.516729e-01 2.781765e-01 2.415747e-01 2.736304e-01 2.310279e-01 2.590125e-01 2.142995e-01 2.337823e-01 
2.010310e-01 2.062543e-01 1.633904e-01 1.614398e-01 1.238948e-01 1.292591e-01 1.090549e-01 1.439320e-01 1.530160e-01 2.115767e-01 2.400037e-01 3.069377e-01 3.466547e-01 4.120523e-01 4.588875e-01 5.137764e-01 5.640326e-01 6.000590e-01 6.499752e-01 6.611341e-01 7.075172e-01 6.926350e-01 7.335066e-01 6.990361e-01 7.337386e-01 6.957670e-01 7.243776e-01 7.061108e-01 7.283851e-01 7.480932e-01 7.628397e-01 8.189316e-01 8.246875e-01 8.963640e-01 8.925264e-01 9.547552e-01 9.415685e-01 9.771580e-01 9.547312e-01 9.572868e-01 9.262028e-01 8.973634e-01 8.601817e-01 8.059356e-01 7.673122e-01 6.955468e-01 6.607313e-01 5.804765e-01 5.530097e-01 4.752665e-01 4.547689e-01 3.932319e-01 3.745481e-01 3.421677e-01 3.178123e-01 3.182707e-01 2.839438e-01 3.077585e-01 2.649231e-01 2.967590e-01 2.497193e-01 2.772626e-01 2.298199e-01 2.467040e-01 
2.110946e-01 2.078411e-01 1.586939e-01 1.449203e-01 9.975718e-02 9.345537e-02 6.853681e-02 1.147201e-01 1.317743e-01 2.049289e-01 2.391108e-01 3.193107e-01 3.631046e-01 4.414226e-01 4.925176e-01 5.596762e-01 6.157591e-01 6.628500e-01 7.211661e-01 7.418486e-01 7.996782e-01 7.927667e-01 8.477170e-01 8.198639e-01 8.695822e-01 8.367417e-01 8.783233e-01 8.628087e-01 8.929212e-01 9.128403e-01 9.292612e-01 9.851095e-01 9.880375e-01 1.060067e+00 1.051169e+00 1.111745e+00 1.092182e+00 1.121238e+00 1.091039e+00 1.082637e+00 1.043134e+00 1.001598e+00 9.571078e-01 8.910406e-01 8.481152e-01 7.670981e-01 7.321988e-01 6.462546e-01 6.225265e-01 5.432169e-01 5.274971e-01 4.679667e-01 4.509770e-01 4.213567e-01 3.932741e-01 3.939393e-01 3.512503e-01 3.722785e-01 3.186932e-01 3.461792e-01 2.882551e-01 3.106279e-01 2.537318e-01 2.642696e-01 
2.377608e-01 2.254171e-01 1.777329e-01 1.478278e-01 1.015826e-01 6.663548e-02 2.993194e-02 9.096405e-02 1.212096e-01 2.117263e-01 2.547508e-01 3.525381e-01 4.033111e-01 4.998143e-01 5.570325e-01 6.415483e-01 7.032871e-01 7.653446e-01 8.293249e-01 8.616715e-01 9.261054e-01 9.276844e-01 9.912482e-01 9.698884e-01 1.030505e+00 1.003824e+00 1.057086e+00 1.048239e+00 1.087181e+00 1.113190e+00 1.130935e+00 1.190156e+00 1.184350e+00 1.255732e+00 1.231216e+00 1.287727e+00 1.253502e+00 1.277048e+00 1.238243e+00 1.224578e+00 1.181887e+00 1.135617e+00 1.090538e+00 1.019611e+00 9.764784e-01 8.894948e-01 8.534903e-01 7.593884e-01 7.328166e-01 6.426825e-01 6.218299e-01 5.502133e-01 5.257888e-01 4.861840e-01 4.490062e-01 4.447969e-01 3.928225e-01 4.138286e-01 3.527460e-01 3.818156e-01 3.195344e-01 3.416729e-01 2.835717e-01 2.900213e-01 
2.597620e-01 2.368537e-01 1.885209e-01 1.432088e-01 1.031475e-01 3.471031e-02 3.436987e-02 9.243790e-02 1.406092e-01 2.366036e-01 2.868100e-01 3.958480e-01 4.513396e-01 5.624447e-01 6.245246e-01 7.247525e-01 7.932306e-01 8.705339e-01 9.445454e-01 9.906541e-01 1.069090e+00 1.082108e+00 1.163081e+00 1.150142e+00 1.229480e+00 1.207672e+00 1.277530e+00 1.270066e+00 1.319939e+00 1.345820e+00 1.367465e+00 1.428677e+00 1.421631e+00 1.497246e+00 1.468969e+00 1.525272e+00 1.484665e+00 1.497255e+00 1.447328e+00 1.414480e+00 1.357326e+00 1.290223e+00 1.231361e+00 1.142655e+00 1.090176e+00 9.904070e-01 9.518246e-01 8.502877e-01 8.276097e-01 7.350471e-01 7.202323e-01 6.500828e-01 6.275539e-01 5.906675e-01 5.479342e-01 5.443969e-01 4.807213e-01 4.991523e-01 4.237564e-01 4.478412e-01 3.721066e-01 3.877056e-01 3.194164e-01 3.177405e-01 
3.144016e-01 2.817066e-01 2.419755e-01 1.837342e-01 1.570637e-01 8.349769e-02 9.721036e-02 1.195851e-01 1.773449e-01 2.765353e-01 3.377135e-01 4.630800e-01 5.289214e-01 6.619362e-01 7.336218e-01 8.568297e-01 9.338281e-01 1.031701e+00 1.112996e+00 1.175208e+00 1.260817e+00 1.285096e+00 1.375218e+00 1.369955e+00 1.461951e+00 1.446979e+00 1.532515e+00 1.534274e+00 1.599119e+00 1.637242e+00 1.665701e+00 1.737629e+00 1.721299e+00 1.799115e+00 1.746979e+00 1.795698e+00 1.731790e+00 1.732488e+00 1.669858e+00 1.626146e+00 1.563746e+00 1.487489e+00 1.425210e+00 1.327538e+00 1.270714e+00 1.160546e+00 1.116280e+00 1.001215e+00 9.718162e-01 8.622056e-01 8.395465e-01 7.524307e-01 7.202490e-01 6.723279e-01 6.178477e-01 6.119665e-01 5.365485e-01 5.584568e-01 4.747564e-01 5.024970e-01 4.239121e-01 4.393065e-01 3.733273e-01 3.664058e-01 
3.576985e-01 3.158850e-01 2.839897e-01 2.209953e-01 2.150892e-01 1.576224e-01 1.932260e-01 2.100744e-01 2.729680e-01 3.628872e-01 4.315167e-01 5.619697e-01 6.348533e-01 7.825663e-01 8.612190e-01 1.003103e+00 1.088437e+00 1.205939e+00 1.299136e+00 1.380329e+00 1.482749e+00 1.523342e+00 1.634816e+00 1.641199e+00 1.757096e+00 1.748183e+00 1.856632e+00 1.859755e+00 1.941826e+00 1.980182e+00 2.017104e+00 2.094262e+00 2.079560e+00 2.168081e+00 2.114763e+00 2.165167e+00 2.095473e+00 2.074051e+00 1.992772e+00 1.912687e+00 1.823202e+00 1.711901e+00 1.623832e+00 1.499662e+00 1.424739e+00 1.297422e+00 1.246498e+00 1.122335e+00 1.098085e+00 9.854973e-01 9.725438e-01 8.866730e-01 8.577158e-01 8.128783e-01 7.499712e-01 7.450891e-01 6.526616e-01 6.715856e-01 5.687380e-01 5.901778e-01 4.957455e-01 5.028355e-01 4.274524e-01 4.112038e-01 
4.511491e-01 4.017208e-01 3.809487e-01 3.131420e-01 3.159274e-01 2.571404e-01 2.940027e-01 3.002922e-01 3.691690e-01 4.580112e-01 5.410034e-01 6.867619e-01 7.764367e-01 9.508179e-01 1.045878e+00 1.218018e+00 1.317686e+00 1.462875e+00 1.566453e+00 1.669338e+00 1.779393e+00 1.834891e+00 1.955139e+00 1.970837e+00 2.100466e+00 2.099368e+00 2.228926e+00 2.246041e+00 2.354989e+00 2.418218e+00 2.476518e+00 2.580756e+00 2.560074e+00 2.656894e+00 2.563123e+00 2.597077e+00 2.486348e+00 2.438329e+00 2.336188e+00 2.233119e+00 2.132033e+00 2.002041e+00 1.902558e+00 1.761052e+00 1.673012e+00 1.527805e+00 1.463629e+00 1.318279e+00 1.282764e+00 1.144444e+00 1.121791e+00 1.012717e+00 9.724889e-01 9.165744e-01 8.386523e-01 8.362578e-01 7.291813e-01 7.566566e-01 6.455340e-01 6.726346e-01 5.784648e-01 5.847031e-01 5.163397e-01 4.941065e-01 
5.240256e-01 4.694724e-01 4.619466e-01 3.994809e-01 4.223821e-01 3.806801e-01 4.355186e-01 4.506206e-01 5.319532e-01 6.193584e-01 7.163808e-01 8.685545e-01 9.735054e-01 1.166871e+00 1.275647e+00 1.470976e+00 1.582730e+00 1.752267e+00 1.870481e+00 1.998770e+00 2.129009e+00 2.207490e+00 2.353380e+00 2.385245e+00 2.544850e+00 2.552293e+00 2.714807e+00 2.736522e+00 2.876446e+00 2.945122e+00 3.024590e+00 3.142520e+00 3.131114e+00 3.252190e+00 3.162855e+00 3.201928e+00 3.088510e+00 2.988375e+00 2.847585e+00 2.670153e+00 2.513095e+00 2.322845e+00 2.175137e+00 1.994679e+00 1.873467e+00 1.705577e+00 1.627358e+00 1.471168e+00 1.444259e+00 1.302284e+00 1.297992e+00 1.189034e+00 1.155688e+00 1.103523e+00 1.012717e+00 1.011989e+00 8.798347e-01 9.036663e-01 7.674248e-01 7.861847e-01 6.747094e-01 6.703689e-01 5.952743e-01 5.632223e-01 
6.633952e-01 6.032728e-01 6.065312e-01 5.424399e-01 5.711185e-01 5.288637e-01 5.872946e-01 6.001746e-01 6.928979e-01 7.850108e-01 9.059643e-01 1.079502e+00 1.214893e+00 1.446571e+00 1.584921e+00 1.822777e+00 1.960949e+00 2.168244e+00 2.303385e+00 2.460395e+00 2.599030e+00 2.696991e+00 2.849540e+00 2.892063e+00 3.063193e+00 3.077652e+00 3.266250e+00 3.309657e+00 3.499444e+00 3.621166e+00 3.761594e+00 3.946989e+00 3.947486e+00 4.089754e+00 3.921550e+00 3.922489e+00 3.731321e+00 3.573925e+00 3.396849e+00 3.171372e+00 2.983138e+00 2.752091e+00 2.572223e+00 2.355831e+00 2.203932e+00 2.004399e+00 1.900171e+00 1.711202e+00 1.668204e+00 1.486586e+00 1.473317e+00 1.331873e+00 1.287676e+00 1.226802e+00 1.117347e+00 1.129007e+00 9.798155e-01 1.020462e+00 8.784050e-01 9.044394e-01 7.985077e-01 7.911990e-01 7.282368e-01 6.890648e-01 
7.710420e-01 7.103863e-01 7.309402e-01 6.792065e-01 7.290678e-01 7.081255e-01 7.875123e-01 8.175812e-01 9.314357e-01 1.033307e+00 1.182548e+00 1.374383e+00 1.545829e+00 1.814945e+00 1.984257e+00 2.256240e+00 2.414578e+00 2.651936e+00 2.806140e+00 2.996760e+00 3.159726e+00 3.289024e+00 3.470129e+00 3.532086e+00 3.736496e+00 3.760443e+00 3.996153e+00 4.056070e+00 4.308568e+00 4.459539e+00 4.656807e+00 4.875249e+00 4.897456e+00 5.084681e+00 4.925209e+00 4.942196e+00 4.769544e+00 4.483244e+00 4.218424e+00 3.841103e+00 3.533447e+00 3.202374e+00 2.935634e+00 2.663856e+00 2.452017e+00 2.219782e+00 2.083585e+00 1.879206e+00 1.851557e+00 1.663454e+00 1.687848e+00 1.539477e+00 1.511522e+00 1.455148e+00 1.326893e+00 1.343091e+00 1.158539e+00 1.196996e+00 1.025378e+00 1.041449e+00 9.203042e-01 8.999391e-01 8.358217e-01 7.869322e-01 
9.588954e-01 8.943837e-01 9.270143e-01 8.771284e-01 9.338825e-01 9.167640e-01 1.001941e+00 1.036460e+00 1.167949e+00 1.283799e+00 1.476253e+00 1.706429e+00 1.939367e+00 2.275589e+00 2.497512e+00 2.834186e+00 3.043140e+00 3.333349e+00 3.516725e+00 3.743129e+00 3.913562e+00 4.065355e+00 4.245834e+00 4.316043e+00 4.519839e+00 4.542196e+00 4.802751e+00 4.896240e+00 5.240594e+00 5.504294e+00 5.858005e+00 6.228428e+00 6.308731e+00 6.518944e+00 6.166161e+00 6.094924e+00 5.784051e+00 5.409034e+00 5.102135e+00 4.646941e+00 4.261256e+00 3.842957e+00 3.498597e+00 3.149234e+00 2.872223e+00 2.578639e+00 2.389800e+00 2.131426e+00 2.082977e+00 1.828481e+00 1.851232e+00 1.652935e+00 1.621883e+00 1.561928e+00 1.412799e+00 1.461175e+00 1.262853e+00 1.334832e+00 1.168738e+00 1.194417e+00 1.089179e+00 1.061946e+00 1.016223e+00 9.582433e-01 
1.100284e+00 1.040584e+00 1.095392e+00 1.065286e+00 1.146356e+00 1.158319e+00 1.267767e+00 1.329747e+00 1.490803e+00 1.631161e+00 1.877616e+00 2.152206e+00 2.472241e+00 2.896158e+00 3.185725e+00 3.577416e+00 3.816617e+00 4.140436e+00 4.345920e+00 4.613870e+00 4.808815e+00 4.996664e+00 5.199239e+00 5.280731e+00 5.507265e+00 5.527666e+00 5.852642e+00 5.994066e+00 6.468177e+00 6.829052e+00 7.314329e+00 7.722455e+00 7.792889e+00 8.017741e+00 7.627339e+00 7.637906e+00 7.489164e+00 6.818774e+00 6.338415e+00 5.630628e+00 5.021076e+00 4.472185e+00 3.994347e+00 3.569240e+00 3.175520e+00 2.813092e+00 2.531747e+00 2.236264e+00 2.215917e+00 1.947342e+00 2.054833e+00 1.819147e+00 1.835451e+00 1.777920e+00 1.604192e+00 1.663064e+00 1.420253e+00 1.501857e+00 1.313504e+00 1.333098e+00 1.225303e+00 1.184362e+00 1.148408e+00 1.082160e+00 
1.329918e+00 1.269538e+00 1.341350e+00 1.318953e+00 1.410611e+00 1.432757e+00 1.548019e+00 1.622283e+00 1.806587e+00 1.979908e+00 2.310654e+00 2.667338e+00 3.134050e+00 3.691293e+00 4.056352e+00 4.537805e+00 4.867551e+00 5.257972e+00 5.504215e+00 5.800295e+00 5.982638e+00 6.179687e+00 6.358173e+00 6.435376e+00 6.630092e+00 6.623212e+00 6.956913e+00 7.145605e+00 7.756416e+00 8.299285e+00 9.098241e+00 9.777113e+00 1.000987e+01 1.015149e+01 9.195219e+00 9.030614e+00 8.709262e+00 8.087010e+00 7.677758e+00 6.944204e+00 6.176347e+00 5.452594e+00 4.824780e+00 4.235186e+00 3.706588e+00 3.203598e+00 2.787387e+00 2.385180e+00 2.347923e+00 1.961556e+00 2.096751e+00 1.779325e+00 1.851146e+00 1.777495e+00 1.582076e+00 1.688615e+00 1.448991e+00 1.601637e+00 1.457096e+00 1.494618e+00 1.425836e+00 1.374073e+00 1.366597e+00 1.289770e+00 
1.491746e+00 1.443309e+00 1.544078e+00 1.549826e+00 1.670288e+00 1.731610e+00 1.873846e+00 1.993495e+00 2.218780e+00 2.453138e+00 2.892023e+00 3.361172e+00 4.059955e+00 4.819355e+00 5.310114e+00 5.852911e+00 6.186641e+00 6.580517e+00 6.824523e+00 7.152605e+00 7.333465e+00 7.552165e+00 7.726517e+00 7.787436e+00 7.972256e+00 7.921715e+00 8.341630e+00 8.621787e+00 9.425976e+00 1.014487e+01 1.116444e+01 1.182608e+01 1.191549e+01 1.177221e+01 1.049268e+01 1.077886e+01 1.130912e+01 9.969819e+00 9.244956e+00 8.317456e+00 7.247785e+00 6.448949e+00 5.680240e+00 4.969887e+00 4.167844e+00 3.450756e+00 2.721948e+00 2.185667e+00 2.233249e+00 1.842824e+00 2.208622e+00 1.762454e+00 2.050025e+00 1.964027e+00 1.722368e+00 1.778680e+00 1.455744e+00 1.648423e+00 1.522083e+00 1.575382e+00 1.540470e+00 1.481390e+00 1.503444e+00 1.423526e+00 
1.739752e+00 1.697700e+00 1.826025e+00 1.848545e+00 1.987737e+00 2.067506e+00 2.215839e+00 2.362431e+00 2.619624e+00 2.944115e+00 3.562838e+00 4.262855e+00 5.388395e+00 6.420654e+00 6.920199e+00 7.508109e+00 7.974015e+00 8.400182e+00 8.652135e+00 8.932704e+00 9.015093e+00 9.199378e+00 9.332646e+00 9.412565e+00 9.544531e+00 9.427487e+00 9.805782e+00 1.008991e+01 1.086520e+01 1.156962e+01 1.302258e+01 1.429538e+01 1.524212e+01 1.468411e+01 1.179724e+01 1.185347e+01 1.195482e+01 1.167206e+01 1.147608e+01 1.075536e+01 9.334630e+00 8.065622e+00 7.071596e+00 6.063274e+00 4.998918e+00 3.949108e+00 2.801015e+00 1.971526e+00 2.116111e+00 1.573942e+00 2.020631e+00 1.492021e+00 2.262937e+00 2.077302e+00 1.791842e+00 1.662341e+00 1.267427e+00 1.575653e+00 1.582956e+00 1.677370e+00 1.727970e+00 1.659104e+00 1.726890e+00 1.639033e+00 
1.891571e+00 1.871183e+00 2.038400e+00 2.097135e+00 2.272917e+00 2.402766e+00 2.586124e+00 2.814552e+00 3.144635e+00 3.651878e+00 4.513638e+00 5.567081e+00 7.281756e+00 8.697129e+00 9.440038e+00 9.987436e+00 1.023477e+01 1.048861e+01 1.061332e+01 1.087979e+01 1.090911e+01 1.114014e+01 1.132857e+01 1.144719e+01 1.154678e+01 1.125435e+01 1.170178e+01 1.195998e+01 1.263140e+01 1.331224e+01 1.524958e+01 1.717272e+01 1.823279e+01 1.548143e+01 1.084047e+01 1.286095e+01 1.508586e+01 1.257212e+01 1.259397e+01 1.306250e+01 1.157783e+01 1.022764e+01 9.038184e+00 7.734970e+00 5.987194e+00 4.413466e+00 2.575655e+00 1.023694e+00 1.613800e+00 1.109335e+00 2.185762e+00 1.218499e+00 2.784715e+00 2.837890e+00 2.491671e+00 1.977875e+00 1.105376e+00 1.352858e+00 1.437964e+00 1.599694e+00 1.755586e+00 1.699918e+00 1.827089e+00 1.748406e+00 
2.115511e+00 2.114557e+00 2.327901e+00 2.416788e+00 2.631027e+00 2.791768e+00 2.997406e+00 3.280991e+00 3.678666e+00 4.435679e+00 5.683688e+00 7.356502e+00 9.871550e+00 1.184742e+01 1.242434e+01 1.284514e+01 1.335260e+01 1.345082e+01 1.339407e+01 1.341113e+01 1.321715e+01 1.351849e+01 1.393827e+01 1.436714e+01 1.439505e+01 1.379520e+01 1.394623e+01 1.397505e+01 1.350024e+01 1.256212e+01 1.473634e+01 1.906822e+01 2.426235e+01 1.959861e+01 1.245897e+01 1.423118e+01 3.492063e+00 1.250834e+01 1.444329e+01 1.700592e+01 1.564615e+01 1.286668e+01 1.140732e+01 9.823932e+00 7.723426e+00 5.847281e+00 3.711136e+00 7.170756e-01 1.801999e+00 8.807659e-01 1.492602e+00 3.071235e-01 3.544437e+00 3.616146e+00 3.302922e+00 2.379135e+00 1.002346e+00 1.048068e+00 1.323839e+00 1.551227e+00 1.855000e+00 1.800943e+00 1.997967e+00 1.922855e+00 
2.217544e+00 2.249269e+00 2.515627e+00 2.645763e+00 2.912189e+00 3.128774e+00 3.396029e+00 3.813353e+00 4.388763e+00 5.633979e+00 7.415906e+00 9.691421e+00 1.164197e+01 1.437859e+01 1.710564e+01 1.747366e+01 1.701882e+01 1.648923e+01 1.607024e+01 1.618157e+01 1.612462e+01 1.694459e+01 1.794721e+01 1.854688e+01 1.796269e+01 1.635722e+01 1.643488e+01 1.630040e+01 1.487516e+01 1.169591e+01 1.261270e+01 1.850535e+01 2.443310e+01 2.017671e+01 1.416663e+01 9.187914e+00 1.650972e+01 1.607752e+01 1.171783e+01 1.925204e+01 2.091163e+01 1.763300e+01 1.515901e+01 1.286709e+01 9.438182e+00 7.538395e+00 6.469573e+00 2.717601e+00 4.284465e+00 2.560037e+00 2.550664e+00 3.176484e+00 5.532584e+00 5.274555e+00 4.700597e+00 3.546179e+00 1.592643e+00 8.929977e-01 9.019322e-01 1.246656e+00 1.733961e+00 1.725011e+00 2.012310e+00 1.965588e+00 
2.371873e+00 2.439908e+00 2.777009e+00 2.955109e+00 3.298999e+00 3.569209e+00 3.926060e+00 4.444232e+00 5.229078e+00 6.910445e+00 9.133124e+00 1.109873e+01 1.061828e+01 1.719708e+01 2.227952e+01 2.300439e+01 2.262866e+01 2.121670e+01 2.014884e+01 1.984390e+01 1.961265e+01 2.107051e+01 2.286402e+01 2.345941e+01 2.163381e+01 1.891794e+01 1.946677e+01 2.302078e+01 1.847575e+01 1.060801e+01 1.078087e+01 1.938885e+01 2.246146e+01 2.647356e+01 2.296975e+01 1.496962e+01 1.434246e+01 7.767574e+00 2.107902e+01 2.178829e+01 2.616142e+01 2.060238e+01 1.776300e+01 1.607485e+01 1.277718e+01 1.225010e+01 1.186298e+01 7.883341e+00 1.190574e+01 5.530980e+00 5.471805e+00 1.048767e+01 1.115292e+01 9.032156e+00 6.402550e+00 4.616593e+00 2.097751e+00 1.125058e+00 6.682437e-01 1.041526e+00 1.690769e+00 1.699329e+00 2.075246e+00 2.051185e+00 
2.406934e+00 2.513318e+00 2.918680e+00 3.137849e+00 3.559064e+00 3.879507e+00 4.345946e+00 4.998100e+00 6.080285e+00 8.350526e+00 1.099364e+01 1.219859e+01 6.313330e+00 2.820546e+01 3.364927e+01 2.549251e+01 2.257730e+01 2.357217e+01 2.335698e+01 2.385803e+01 2.381061e+01 2.589569e+01 2.748893e+01 2.587331e+01 2.360132e+01 2.480256e+01 3.173538e+01 2.660928e+01 9.769376e+00 1.182670e+01 1.749811e+01 2.499626e+01 3.130059e+01 3.919010e+01 4.503764e+01 4.888283e+01 2.603390e+01 2.598229e+01 3.508937e+01 3.494055e+01 3.876834e+01 2.850841e+01 2.129456e+01 1.900755e+01 1.436021e+01 1.628136e+01 1.794681e+01 1.528215e+01 2.201720e+01 1.645576e+01 1.269712e+01 1.068986e+01 1.200910e+01 1.328659e+01 9.794223e+00 6.748767e+00 3.281093e+00 1.862468e+00 2.709439e-01 6.385711e-01 1.461870e+00 1.527116e+00 1.999623e+00 2.015713e+00 
2.476993e+00 2.628981e+00 3.120305e+00 3.404072e+00 3.944618e+00 4.353588e+00 5.008027e+00 5.779003e+00 7.226810e+00 9.676771e+00 1.302764e+01 1.325383e+01 6.149319e+00 3.390979e+01 3.538453e+01 2.262065e+01 2.754069e+01 2.925318e+01 2.760427e+01 2.662632e+01 2.428935e+01 2.568532e+01 2.534482e+01 2.182762e+01 3.077588e+01 3.696044e+01 3.238800e+01 1.535971e+01 1.280250e+01 1.600906e+01 1.625944e+01 1.995712e+01 2.518188e+01 2.682721e+01 3.474265e+01 4.451688e+01 5.133968e+01 4.158998e+01 3.511066e+01 3.802659e+01 4.528952e+01 3.722436e+01 2.334998e+01 2.357360e+01 1.955608e+01 2.702886e+01 3.075876e+01 2.927827e+01 3.261230e+01 3.206790e+01 2.059707e+01 1.027736e+01 2.342565e+00 1.433788e+01 9.554249e+00 7.204370e+00 3.557889e+00 2.316429e+00 6.850422e-01 5.878776e-01 1.361400e+00 1.422121e+00 1.966742e+00 2.012638e+00 
2.480563e+00 2.663554e+00 3.229788e+00 3.554085e+00 4.194266e+00 4.646808e+00 5.416142e+00 6.160758e+00 7.628501e+00 9.807729e+00 1.337715e+01 1.472008e+01 8.907307e+00 2.592328e+01 3.965423e+01 3.394518e+01 3.602928e+01 3.472797e+01 3.022731e+01 2.332707e+01 1.802408e+01 1.982303e+01 1.009807e+01 2.804779e+01 4.644584e+01 3.534833e+01 1.833087e+01 1.054999e+01 8.594414e+00 5.317868e+00 2.653644e+00 4.913472e+00 6.670966e+00 6.062949e+00 8.424348e+00 1.202379e+01 2.439805e+01 2.445186e+01 2.092172e+01 3.306021e+01 3.757333e+01 3.599930e+01 2.576371e+01 2.514827e+01 1.953964e+01 3.320590e+01 2.863318e+01 1.356898e+01 3.317366e+01 7.065392e+01 3.043999e+01 9.613993e+00 7.503990e+00 1.302231e+01 7.690244e+00 6.245051e+00 3.186364e+00 2.168857e+00 8.135507e-01 5.327852e-01 1.275407e+00 1.301957e+00 1.892113e+00 1.955124e+00 
2.488045e+00 2.708710e+00 3.344116e+00 3.733622e+00 4.479429e+00 5.038359e+00 5.944160e+00 6.783169e+00 8.254354e+00 1.031503e+01 1.387492e+01 1.730807e+01 1.519919e+01 1.170114e+01 3.728089e+01 5.490152e+01 5.144549e+01 2.940704e+01 1.182005e+01 5.066039e+00 7.873917e+00 1.445885e+01 2.235119e+01 5.027889e+01 4.308013e+01 2.209154e+01 1.070214e+01 5.488943e+00 2.646463e+00 3.904258e+00 5.519181e+00 6.270399e+00 4.950900e+00 3.592853e+00 1.991075e+00 2.126083e+00 7.784445e+00 1.295647e+01 2.145091e+01 3.287201e+01 3.542586e+01 2.055416e+01 2.855067e+01 2.938588e+01 2.088643e+01 3.542937e+01 3.129256e+01 2.994337e+01 6.112014e+01 5.463236e+01 1.397093e+01 2.235742e+01 1.752849e+01 1.365839e+01 8.720631e+00 6.313090e+00 3.675523e+00 2.330476e+00 1.242144e+00 7.031664e-01 1.259141e+00 1.222726e+00 1.834828e+00 1.912482e+00 
2.507445e+00 2.746634e+00 3.448237e+00 3.883170e+00 4.739437e+00 5.379173e+00 6.440204e+00 7.331369e+00 8.849753e+00 1.055513e+01 1.386011e+01 1.761727e+01 2.122390e+01 1.620125e+01 1.917254e+01 4.274005e+01 6.102466e+01 5.456805e+01 4.785234e+01 4.422922e+01 3.813544e+01 3.594839e+01 4.723634e+01 4.674367e+01 2.939988e+01 1.814736e+01 1.279729e+01 9.065327e+00 8.035859e+00 7.694721e+00 7.774748e+00 7.102851e+00 5.835090e+00 4.652431e+00 3.689594e+00 4.453155e+00 4.525241e+00 1.185434e+01 1.298840e+01 2.441875e+01 4.439824e+01 3.472169e+01 1.194351e+01 8.604731e+00 1.271875e+01 1.359879e+01 4.836251e+01 3.952437e+01 4.823786e+01 4.427266e+01 3.736907e+01 2.089454e+01 1.744130e+01 1.026955e+01 7.825624e+00 4.703797e+00 3.343308e+00 1.776491e+00 1.451839e+00 8.138627e-01 1.360850e+00 1.227301e+00 1.830064e+00 1.894672e+00 
2.479504e+00 2.736969e+00 3.461922e+00 3.931756e+00 4.824019e+00 5.528868e+00 6.619239e+00 7.586525e+00 8.990335e+00 1.063867e+01 1.329990e+01 1.732188e+01 2.236227e+01 2.596834e+01 2.097426e+01 1.527327e+01 2.865735e+01 4.657097e+01 5.072853e+01 5.623061e+01 5.737787e+01 5.963539e+01 5.899114e+01 4.383165e+01 3.135751e+01 2.180103e+01 1.622396e+01 1.204295e+01 1.041554e+01 9.062056e+00 8.407175e+00 7.247120e+00 6.032852e+00 4.840390e+00 4.843003e+00 4.890825e+00 8.260207e+00 9.386703e+00 2.008891e+01 2.120561e+01 4.323787e+01 5.416149e+01 5.372907e+01 5.792594e+01 4.441110e+01 6.703034e+01 5.455796e+01 2.577157e+01 1.821704e+01 2.968601e+01 2.126238e+01 1.336836e+01 1.260880e+01 7.515317e+00 6.624504e+00 3.572173e+00 2.985551e+00 1.392299e+00 1.453557e+00 8.009134e-01 1.338089e+00 1.178947e+00 1.780037e+00 1.851164e+00 
2.517009e+00 2.777215e+00 3.532695e+00 4.020443e+00 4.970651e+00 5.714599e+00 6.907123e+00 7.935317e+00 9.490684e+00 1.118886e+01 1.397826e+01 1.821363e+01 2.410443e+01 3.173734e+01 3.217928e+01 2.586746e+01 4.928860e+00 1.737414e+01 3.120557e+01 4.477580e+01 5.731190e+01 7.134219e+01 6.780388e+01 5.089594e+01 3.587384e+01 2.438693e+01 1.811329e+01 1.340306e+01 1.133723e+01 9.494294e+00 8.459838e+00 6.971000e+00 5.636149e+00 4.423513e+00 4.188680e+00 3.806039e+00 6.170831e+00 5.222728e+00 1.213378e+01 4.344910e+00 1.590866e+01 2.644039e+01 5.050046e+01 6.637476e+01 4.264034e+01 6.469315e+01 2.298449e+01 1.470974e+01 2.240798e+01 1.460966e+01 1.665192e+01 1.397866e+01 1.342241e+01 8.322979e+00 7.328366e+00 3.737501e+00 3.314779e+00 1.460926e+00 1.673296e+00 9.304336e-01 1.440319e+00 1.229953e+00 1.819960e+00 1.875938e+00 
2.479504e+00 2.736969e+00 3.461922e+00 3.931756e+00 4.824019e+00 5.528868e+00 6.619239e+00 7.586525e+00 8.990335e+00 1.063867e+01 1.329990e+01 1.732188e+01 2.236227e+01 2.596834e+01 2.097426e+01 1.527327e+01 2.865735e+01 4.657097e+01 5.072853e+01 5.623061e+01 5.737787e+01 5.963539e+01 5.899114e+01 4.383165e+01 3.135751e+01 2.180103e+01 1.622396e+01 1.204295e+01 1.041554e+01 9.062056e+00 8.407175e+00 7.247120e+00 6.032852e+00 4.840390e+00 4.843003e+00 4.890825e+00 8.260207e+00 9.386703e+00 2.008891e+01 2.120561e+01 4.323787e+01 5.416149e+01 5.372907e+01 5.792594e+01 4.441110e+01 6.703034e+01 5.455796e+01 2.577157e+01 1.821704e+01 2.968601e+01 2.126238e+01 1.336836e+01 1.260880e+01 7.515317e+00 6.624504e+00 3.572173e+00 2.985551e+00 1.392299e+00 1.453557e+00 8.009134e-01 1.338089e+00 1.178947e+00 1.780037e+00 1.851164e+00 
2.507445e+00 2.746634e+00 3.448237e+00 3.883170e+00 4.739437e+00 5.379173e+00 6.440204e+00 7.331369e+00 8.849753e+00 1.055513e+01 1.386011e+01 1.761727e+01 2.122390e+01 1.620125e+01 1.917254e+01 4.274005e+01 6.102466e+01 5.456805e+01 4.785234e+01 4.422922e+01 3.813544e+01 3.594839e+01 4.723634e+01 4.674367e+01 2.939988e+01 1.814736e+01 1.279729e+01 9.065327e+00 8.035859e+00 7.694721e+00 7.774748e+00 7.102851e+00 5.835090e+00 4.652431e+00 3.689594e+00 4.453155e+00 4.525241e+00 1.185434e+01 1.298840e+01 2.441875e+01 4.439824e+01 3.472169e+01 1.194351e+01 8.604731e+00 1.271875e+01 1.359879e+01 4.836251e+01 3.952437e+01 4.823786e+01 4.427266e+01 3.736907e+01 2.089454e+01 1.744130e+01 1.026955e+01 7.825624e+00 4.703797e+00 3.343308e+00 1.776491e+00 1.451839e+00 8.138627e-01 1.360850e+00 1.227301e+00 1.830064e+00 1.894672e+00 