# vtk DataFile Version 2.0
Comment goes here
ASCII

DATASET STRUCTURED_POINTS
DIMENSIONS    64   64   1

ORIGIN    0.000   0.000   0.000
SPACING   0.0781250.078125   1.000

POINT_DATA   4096
SCALARS uY double
LOOKUP_TABLE default

-1.851880e-13 -1.662475e-13 -1.504364e-13 -1.336620e-13 -1.212217e-13 -1.068002e-13 -9.598227e-14 -8.185739e-14 -7.305165e-14 -6.134523e-14 -5.577798e-14 -4.573636e-14 -4.271985e-14 -3.386755e-14 -3.447947e-14 -2.687360e-14 -2.928973e-14 -2.284634e-14 -2.875236e-14 -2.389269e-14 -3.403053e-14 -3.260970e-14 -4.609638e-14 -4.693648e-14 -6.455270e-14 -6.961883e-14 -8.945918e-14 -9.832162e-14 -1.206053e-13 -1.321274e-13 -1.550183e-13 -1.706038e-13 -1.922224e-13 -2.122850e-13 -2.340638e-13 -2.561771e-13 -2.773422e-13 -3.015183e-13 -3.197488e-13 -3.422691e-13 -3.550201e-13 -3.736270e-13 -3.868181e-13 -4.011036e-13 -4.091152e-13 -4.186583e-13 -4.189324e-13 -4.202532e-13 -4.162241e-13 -4.109720e-13 -4.040763e-13 -3.938098e-13 -3.853125e-13 -3.734845e-13 -3.616426e-13 -3.441444e-13 -3.280626e-13 -3.080882e-13 -2.910549e-13 -2.710997e-13 -2.546685e-13 -2.361238e-13 -2.201704e-13 -2.013653e-13 
1.987518e-03 -1.718009e-03 -6.015135e-03 -8.820538e-03 -1.261013e-02 -1.453202e-02 -1.773147e-02 -1.878205e-02 -2.129526e-02 -2.146429e-02 -2.318801e-02 -2.246764e-02 -2.334171e-02 -2.178845e-02 -2.187459e-02 -1.968131e-02 -1.923046e-02 -1.676552e-02 -1.622709e-02 -1.400458e-02 -1.395091e-02 -1.252263e-02 -1.349340e-02 -1.328049e-02 -1.558066e-02 -1.669129e-02 -2.020571e-02 -2.231215e-02 -2.642179e-02 -2.877413e-02 -3.244412e-02 -3.405329e-02 -3.609742e-02 -3.603780e-02 -3.547520e-02 -3.318778e-02 -2.955173e-02 -2.502317e-02 -1.850097e-02 -1.226010e-02 -3.626839e-03 3.411956e-03 1.301086e-02 1.977714e-02 2.909730e-02 3.459015e-02 4.252980e-02 4.599551e-02 5.176377e-02 5.280865e-02 5.600974e-02 5.463803e-02 5.527380e-02 5.184620e-02 5.024773e-02 4.537093e-02 4.208040e-02 3.645775e-02 3.209137e-02 2.637745e-02 2.150413e-02 1.620262e-02 1.126619e-02 6.690861e-03 
4.285687e-03 -3.150618e-03 -1.182206e-02 -1.744094e-02 -2.507982e-02 -2.893403e-02 -3.538601e-02 -3.750784e-02 -4.258016e-02 -4.294313e-02 -4.641854e-02 -4.499031e-02 -4.673537e-02 -4.361117e-02 -4.374561e-02 -3.930495e-02 -3.834599e-02 -3.333983e-02 -3.222144e-02 -2.771275e-02 -2.762762e-02 -2.476722e-02 -2.684400e-02 -2.652014e-02 -3.140241e-02 -3.385715e-02 -4.131113e-02 -4.587562e-02 -5.460542e-02 -5.971859e-02 -6.754364e-02 -7.112886e-02 -7.554138e-02 -7.564186e-02 -7.456791e-02 -6.999017e-02 -6.245086e-02 -5.314909e-02 -3.955605e-02 -2.662892e-02 -8.635648e-03 6.002118e-03 2.597009e-02 4.007173e-02 5.939712e-02 7.086103e-02 8.724578e-02 9.449179e-02 1.063069e-01 1.085156e-01 1.149703e-01 1.121633e-01 1.133022e-01 1.062517e-01 1.028036e-01 9.279308e-02 8.591498e-02 7.441808e-02 6.540308e-02 5.377501e-02 4.379778e-02 3.306409e-02 2.302362e-02 1.380555e-02 
4.824335e-03 -6.327412e-03 -1.932431e-02 -2.772706e-02 -3.918091e-02 -4.493675e-02 -5.463410e-02 -5.780068e-02 -6.545035e-02 -6.597518e-02 -7.121946e-02 -6.901849e-02 -7.159886e-02 -6.676941e-02 -6.680281e-02 -5.988318e-02 -5.811201e-02 -5.023574e-02 -4.808235e-02 -4.089777e-02 -4.023131e-02 -3.555657e-02 -3.819020e-02 -3.746084e-02 -4.448306e-02 -4.813529e-02 -5.927585e-02 -6.630931e-02 -7.962626e-02 -8.761843e-02 -9.975873e-02 -1.054589e-01 -1.125267e-01 -1.128707e-01 -1.116249e-01 -1.047603e-01 -9.365943e-02 -7.954506e-02 -5.921120e-02 -3.958567e-02 -1.255819e-02 9.607106e-03 3.962208e-02 6.089231e-02 8.992458e-02 1.071264e-01 1.317113e-01 1.424815e-01 1.601720e-01 1.633000e-01 1.729113e-01 1.684531e-01 1.700563e-01 1.591984e-01 1.538958e-01 1.385966e-01 1.281404e-01 1.106449e-01 9.699725e-02 7.936604e-02 6.430947e-02 4.809366e-02 3.298626e-02 1.911271e-02 
6.251435e-03 -8.667854e-03 -2.620441e-02 -3.739664e-02 -5.283440e-02 -6.051602e-02 -7.361958e-02 -7.790036e-02 -8.827792e-02 -8.905903e-02 -9.617324e-02 -9.325986e-02 -9.667575e-02 -9.010080e-02 -8.991138e-02 -8.034355e-02 -7.756066e-02 -6.655797e-02 -6.320379e-02 -5.311108e-02 -5.188554e-02 -4.534218e-02 -4.890544e-02 -4.804831e-02 -5.805362e-02 -6.360698e-02 -7.975350e-02 -9.035521e-02 -1.098837e-01 -1.220615e-01 -1.400935e-01 -1.491056e-01 -1.599105e-01 -1.612356e-01 -1.600257e-01 -1.508970e-01 -1.354104e-01 -1.157230e-01 -8.691248e-02 -5.917752e-02 -2.080976e-02 1.066271e-02 5.315873e-02 8.340058e-02 1.242864e-01 1.487311e-01 1.830783e-01 1.983477e-01 2.227497e-01 2.271434e-01 2.400323e-01 2.336883e-01 2.352995e-01 2.199877e-01 2.120142e-01 1.905989e-01 1.756222e-01 1.513355e-01 1.321778e-01 1.079292e-01 8.709298e-02 6.501046e-02 4.434165e-02 2.563065e-02 
4.206838e-03 -1.443837e-02 -3.640404e-02 -5.031541e-02 -6.965751e-02 -7.919996e-02 -9.569935e-02 -1.010544e-01 -1.142276e-01 -1.152348e-01 -1.243139e-01 -1.206060e-01 -1.248599e-01 -1.163133e-01 -1.156592e-01 -1.029965e-01 -9.860618e-02 -8.379855e-02 -7.829193e-02 -6.445587e-02 -6.148548e-02 -5.223393e-02 -5.552169e-02 -5.387945e-02 -6.588521e-02 -7.301156e-02 -9.359432e-02 -1.077978e-01 -1.334583e-01 -1.501077e-01 -1.743892e-01 -1.870508e-01 -2.022377e-01 -2.047470e-01 -2.043260e-01 -1.929342e-01 -1.737939e-01 -1.484177e-01 -1.118128e-01 -7.591090e-02 -2.687189e-02 1.376410e-02 6.806764e-02 1.069113e-01 1.590183e-01 1.901906e-01 2.337863e-01 2.530059e-01 2.837770e-01 2.889351e-01 3.049339e-01 2.962830e-01 2.978672e-01 2.777555e-01 2.671440e-01 2.393247e-01 2.198757e-01 1.885632e-01 1.639401e-01 1.329029e-01 1.063388e-01 7.829445e-02 5.214023e-02 2.857353e-02 
3.521568e-03 -1.884987e-02 -4.553726e-02 -6.210938e-02 -8.559978e-02 -9.701711e-02 -1.171871e-01 -1.237606e-01 -1.400323e-01 -1.415002e-01 -1.527850e-01 -1.484761e-01 -1.536147e-01 -1.430870e-01 -1.417449e-01 -1.256889e-01 -1.192656e-01 -1.001321e-01 -9.205266e-02 -7.393870e-02 -6.909790e-02 -5.688621e-02 -6.038549e-02 -5.830106e-02 -7.367416e-02 -8.353003e-02 -1.108726e-01 -1.306419e-01 -1.654523e-01 -1.890285e-01 -2.226232e-01 -2.412836e-01 -2.630718e-01 -2.683042e-01 -2.692452e-01 -2.557734e-01 -2.315505e-01 -1.991458e-01 -1.515428e-01 -1.048632e-01 -4.085973e-02 1.226143e-02 8.287238e-02 1.336685e-01 2.008987e-01 2.415601e-01 2.971658e-01 3.220732e-01 3.606035e-01 3.670646e-01 3.862443e-01 3.747362e-01 3.753270e-01 3.491229e-01 3.342960e-01 2.984970e-01 2.728329e-01 2.330487e-01 2.014014e-01 1.625146e-01 1.290352e-01 9.442304e-02 6.199630e-02 3.334751e-02 
-2.206430e-03 -2.821226e-02 -5.941761e-02 -7.851092e-02 -1.059915e-01 -1.191699e-01 -1.429945e-01 -1.507578e-01 -1.703098e-01 -1.722902e-01 -1.860975e-01 -1.812101e-01 -1.874606e-01 -1.747499e-01 -1.725372e-01 -1.524819e-01 -1.431846e-01 -1.186638e-01 -1.064787e-01 -8.268339e-02 -7.395490e-02 -5.730400e-02 -5.889817e-02 -5.516782e-02 -7.213342e-02 -8.408951e-02 -1.171200e-01 -1.424990e-01 -1.862655e-01 -2.173179e-01 -2.608572e-01 -2.862085e-01 -3.157988e-01 -3.242108e-01 -3.279120e-01 -3.123979e-01 -2.843745e-01 -2.446944e-01 -1.871928e-01 -1.295639e-01 -5.164155e-02 1.374531e-02 9.957864e-02 1.616683e-01 2.429776e-01 2.922197e-01 3.590033e-01 3.886794e-01 4.344646e-01 4.414564e-01 4.636501e-01 4.487040e-01 4.483850e-01 4.156548e-01 3.967983e-01 3.526667e-01 3.209520e-01 2.723939e-01 2.338271e-01 1.868567e-01 1.465435e-01 1.052326e-01 6.664727e-02 3.290622e-02 
-6.195402e-03 -3.562691e-02 -7.160050e-02 -9.297006e-02 -1.246883e-01 -1.395823e-01 -1.674635e-01 -1.766904e-01 -2.000885e-01 -2.031156e-01 -2.199930e-01 -2.150585e-01 -2.226400e-01 -2.079104e-01 -2.044967e-01 -1.800135e-01 -1.670487e-01 -1.362090e-01 -1.190087e-01 -8.844205e-02 -7.526004e-02 -5.340990e-02 -5.340499e-02 -4.815392e-02 -6.842207e-02 -8.394970e-02 -1.260814e-01 -1.600191e-01 -2.176081e-01 -2.601718e-01 -3.189852e-01 -3.551961e-01 -3.967914e-01 -4.113912e-01 -4.193332e-01 -4.025096e-01 -3.686565e-01 -3.197434e-01 -2.471636e-01 -1.743442e-01 -7.542364e-02 7.730604e-03 1.161441e-01 1.950493e-01 2.966545e-01 3.589504e-01 4.411273e-01 4.782723e-01 5.332348e-01 5.414157e-01 5.664115e-01 5.468755e-01 5.438172e-01 5.022473e-01 4.766659e-01 4.215573e-01 3.809875e-01 3.213800e-01 2.735299e-01 2.169469e-01 1.681296e-01 1.193850e-01 7.365133e-02 3.469727e-02 
-1.647249e-02 -4.914736e-02 -8.952966e-02 -1.129066e-01 -1.485424e-01 -1.649438e-01 -1.968222e-01 -2.075227e-01 -2.351569e-01 -2.395130e-01 -2.602712e-01 -2.556692e-01 -2.654205e-01 -2.487510e-01 -2.443484e-01 -2.148184e-01 -1.972310e-01 -1.586100e-01 -1.341567e-01 -9.464460e-02 -7.380977e-02 -4.428534e-02 -3.915746e-02 -3.022277e-02 -5.068990e-02 -6.852257e-02 -1.177228e-01 -1.601330e-01 -2.309941e-01 -2.860028e-01 -3.611022e-01 -4.095711e-01 -4.654044e-01 -4.873158e-01 -5.021743e-01 -4.843498e-01 -4.469373e-01 -3.883808e-01 -3.023769e-01 -2.139495e-01 -9.547062e-02 5.157714e-03 1.345705e-01 2.291745e-01 3.494837e-01 4.233268e-01 5.196678e-01 5.628691e-01 6.263763e-01 6.347106e-01 6.625008e-01 6.377674e-01 6.324296e-01 5.816907e-01 5.499821e-01 4.836466e-01 4.346716e-01 3.637464e-01 3.068405e-01 2.403884e-01 1.831736e-01 1.268402e-01 7.409479e-02 2.994164e-02 
-2.455614e-02 -5.978211e-02 -1.045618e-01 -1.292999e-01 -1.689686e-01 -1.866771e-01 -2.231034e-01 -2.357762e-01 -2.687015e-01 -2.755345e-01 -3.013964e-01 -2.984258e-01 -3.110353e-01 -2.930803e-01 -2.872728e-01 -2.521744e-01 -2.285948e-01 -1.806468e-01 -1.472109e-01 -9.671919e-02 -6.675145e-02 -2.772256e-02 -1.698157e-02 -3.638451e-03 -2.579343e-02 -4.723057e-02 -1.078298e-01 -1.625813e-01 -2.539864e-01 -3.276556e-01 -4.280161e-01 -4.960005e-01 -5.740293e-01 -6.092051e-01 -6.346545e-01 -6.180968e-01 -5.747086e-01 -5.040374e-01 -3.966125e-01 -2.859666e-01 -1.366093e-01 -9.651037e-03 1.524055e-01 2.715227e-01 4.200045e-01 5.123825e-01 6.289285e-01 6.821942e-01 7.566227e-01 7.657442e-01 7.954222e-01 7.632146e-01 7.523003e-01 6.883950e-01 6.461717e-01 5.643854e-01 5.027712e-01 4.172126e-01 3.479712e-01 2.697161e-01 2.020411e-01 1.374815e-01 7.673568e-02 2.765309e-02 
-3.955998e-02 -7.700794e-02 -1.255604e-01 -1.511489e-01 -1.941867e-01 -2.127867e-01 -2.535205e-01 -2.682180e-01 -3.071229e-01 -3.171810e-01 -3.499008e-01 -3.497522e-01 -3.673886e-01 -3.489909e-01 -3.430455e-01 -3.020565e-01 -2.717301e-01 -2.126782e-01 -1.672053e-01 -1.025498e-01 -5.853182e-02 -5.917911e-03 1.622828e-02 3.793908e-02 1.957173e-02 -2.757054e-03 -7.073288e-02 -1.371105e-01 -2.474607e-01 -3.411812e-01 -4.682716e-01 -5.586257e-01 -6.631896e-01 -7.145217e-01 -7.561023e-01 -7.421195e-01 -6.970297e-01 -6.136486e-01 -4.871483e-01 -3.532528e-01 -1.746893e-01 -2.171324e-02 1.708097e-01 3.125065e-01 4.867438e-01 5.951572e-01 7.301370e-01 7.913579e-01 8.760136e-01 8.846798e-01 9.166965e-01 8.767036e-01 8.615880e-01 7.847292e-01 7.335434e-01 6.365231e-01 5.633344e-01 4.631117e-01 3.819802e-01 2.917116e-01 2.136695e-01 1.407061e-01 7.206117e-02 1.809275e-02 
-5.146319e-02 -8.952438e-02 -1.412144e-01 -1.662665e-01 -2.124189e-01 -2.313845e-01 -2.771492e-01 -2.947384e-01 -3.415889e-01 -3.571914e-01 -3.993988e-01 -4.049348e-01 -4.293201e-01 -4.121821e-01 -4.055387e-01 -3.580786e-01 -3.187417e-01 -2.462291e-01 -1.859067e-01 -1.037172e-01 -4.271420e-02 2.722966e-02 6.317722e-02 9.606616e-02 8.159740e-02 5.849132e-02 -2.118468e-02 -1.033235e-01 -2.427205e-01 -3.655500e-01 -5.343567e-01 -6.597749e-01 -8.062311e-01 -8.857191e-01 -9.520702e-01 -9.465985e-01 -8.975560e-01 -7.987985e-01 -6.408684e-01 -4.733252e-01 -2.472541e-01 -5.384800e-02 1.876152e-01 3.658847e-01 5.799833e-01 7.152153e-01 8.768588e-01 9.518652e-01 1.049328e+00 1.057833e+00 1.089876e+00 1.037723e+00 1.012601e+00 9.159129e-01 8.487661e-01 7.299141e-01 6.390185e-01 5.196101e-01 4.223957e-01 3.180736e-01 2.275087e-01 1.460918e-01 6.897072e-02 1.127321e-02 
-7.001562e-02 -1.081641e-01 -1.619491e-01 -1.855401e-01 -2.334687e-01 -2.519557e-01 -3.019889e-01 -3.224900e-01 -3.782506e-01 -4.009043e-01 -4.558957e-01 -4.697665e-01 -5.055325e-01 -4.919378e-01 -4.880243e-01 -4.345423e-01 -3.863072e-01 -2.987390e-01 -2.198661e-01 -1.159971e-01 -3.080101e-02 6.297763e-02 1.220468e-01 1.733524e-01 1.724084e-01 1.543302e-01 7.099893e-02 -2.431493e-02 -1.884261e-01 -3.420306e-01 -5.542251e-01 -7.204392e-01 -9.173663e-01 -1.032186e+00 -1.135342e+00 -1.142297e+00 -1.097471e+00 -9.821040e-01 -7.952906e-01 -5.911311e-01 -3.185137e-01 -8.478774e-02 2.026182e-01 4.137142e-01 6.636136e-01 8.212421e-01 1.006834e+00 1.092372e+00 1.201897e+00 1.208854e+00 1.242267e+00 1.178630e+00 1.146892e+00 1.032060e+00 9.525586e-01 8.132614e-01 7.068984e-01 5.688380e-01 4.562740e-01 3.377920e-01 2.346257e-01 1.445008e-01 5.880067e-02 -2.596914e-03 
-8.352810e-02 -1.186509e-01 -1.727518e-01 -1.923017e-01 -2.410206e-01 -2.579216e-01 -3.131483e-01 -3.379972e-01 -4.062884e-01 -4.403846e-01 -5.135415e-01 -5.414367e-01 -5.921514e-01 -5.854537e-01 -5.827020e-01 -5.221551e-01 -4.612363e-01 -3.555514e-01 -2.548459e-01 -1.249669e-01 -1.134237e-02 1.127371e-01 2.008560e-01 2.775114e-01 2.946094e-01 2.856161e-01 1.968495e-01 8.591719e-02 -1.155314e-01 -3.121050e-01 -5.925772e-01 -8.218570e-01 -1.099380e+00 -1.273668e+00 -1.432454e+00 -1.465209e+00 -1.422960e+00 -1.288302e+00 -1.052555e+00 -7.943995e-01 -4.444634e-01 -1.461374e-01 2.170529e-01 4.829311e-01 7.888634e-01 9.851325e-01 1.204783e+00 1.309023e+00 1.432648e+00 1.437234e+00 1.467094e+00 1.383623e+00 1.335032e+00 1.189989e+00 1.086986e+00 9.170265e-01 7.866244e-01 6.242654e-01 4.915622e-01 3.575980e-01 2.402872e-01 1.429404e-01 4.922811e-02 -1.304759e-02 
-1.025597e-01 -1.339771e-01 -1.868160e-01 -2.008274e-01 -2.478654e-01 -2.616089e-01 -3.201054e-01 -3.491110e-01 -4.308223e-01 -4.788829e-01 -5.755139e-01 -6.220787e-01 -6.961068e-01 -7.002515e-01 -7.055063e-01 -6.391889e-01 -5.677520e-01 -4.444303e-01 -3.190254e-01 -1.596672e-01 -8.292457e-03 1.555216e-01 2.867790e-01 4.014629e-01 4.527861e-01 4.645083e-01 3.857410e-01 2.660759e-01 3.799313e-02 -2.024495e-01 -5.512582e-01 -8.542448e-01 -1.228462e+00 -1.478684e+00 -1.719570e+00 -1.787423e+00 -1.762481e+00 -1.603948e+00 -1.318511e+00 -9.968818e-01 -5.664049e-01 -2.029274e-01 2.311697e-01 5.430730e-01 8.965932e-01 1.122794e+00 1.371677e+00 1.489013e+00 1.625494e+00 1.625849e+00 1.654559e+00 1.554273e+00 1.496542e+00 1.326366e+00 1.207776e+00 1.010966e+00 8.607232e-01 6.755237e-01 5.234763e-01 3.739009e-01 2.416787e-01 1.365258e-01 3.406420e-02 -2.927149e-02 
-1.129378e-01 -1.354426e-01 -1.835189e-01 -1.878100e-01 -2.310272e-01 -2.396856e-01 -3.026801e-01 -3.382213e-01 -4.400189e-01 -5.100122e-01 -6.408442e-01 -7.163588e-01 -8.199376e-01 -8.394226e-01 -8.452571e-01 -7.686038e-01 -6.794213e-01 -5.360353e-01 -3.865255e-01 -1.963465e-01 -5.206920e-03 2.070250e-01 3.925692e-01 5.590095e-01 6.583775e-01 7.029723e-01 6.404250e-01 5.156593e-01 2.484558e-01 -4.951347e-02 -5.070925e-01 -9.222954e-01 -1.453122e+00 -1.826899e+00 -2.187219e+00 -2.316014e+00 -2.305519e+00 -2.119389e+00 -1.749284e+00 -1.332404e+00 -7.668402e-01 -2.951757e-01 2.595409e-01 6.504398e-01 1.077902e+00 1.357252e+00 1.644319e+00 1.785229e+00 1.934203e+00 1.926433e+00 1.944644e+00 1.811449e+00 1.725775e+00 1.508210e+00 1.356012e+00 1.116660e+00 9.351822e-01 7.213172e-01 5.456116e-01 3.817225e-01 2.350560e-01 1.267517e-01 1.837934e-02 -4.050141e-02 
-1.278357e-01 -1.409230e-01 -1.822826e-01 -1.748881e-01 -2.103671e-01 -2.115583e-01 -2.752005e-01 -3.169168e-01 -4.388679e-01 -5.347480e-01 -7.068201e-01 -8.174959e-01 -9.628515e-01 -1.000587e+00 -1.016748e+00 -9.284154e-01 -8.268346e-01 -6.719753e-01 -5.021165e-01 -2.852418e-01 -4.587540e-02 2.259304e-01 4.843469e-01 7.230080e-01 8.949956e-01 9.933439e-01 9.741253e-01 8.592346e-01 5.771368e-01 2.252574e-01 -3.318583e-01 -8.753438e-01 -1.588232e+00 -2.120667e+00 -2.660455e+00 -2.869965e+00 -2.898326e+00 -2.667403e+00 -2.195754e+00 -1.654077e+00 -9.360288e-01 -3.551930e-01 3.086409e-01 7.550558e-01 1.235834e+00 1.550834e+00 1.867294e+00 2.021164e+00 2.179117e+00 2.158508e+00 2.167392e+00 2.009192e+00 1.912798e+00 1.660234e+00 1.491463e+00 1.218013e+00 1.012167e+00 7.720886e-01 5.723326e-01 3.932130e-01 2.292701e-01 1.161405e-01 -4.603220e-04 -5.581971e-02 
-1.282602e-01 -1.244781e-01 -1.535792e-01 -1.287709e-01 -1.529555e-01 -1.440714e-01 -2.102990e-01 -2.626024e-01 -4.173618e-01 -5.537764e-01 -7.889547e-01 -9.522214e-01 -1.149968e+00 -1.207260e+00 -1.200850e+00 -1.079031e+00 -9.476079e-01 -7.841873e-01 -6.146410e-01 -3.879161e-01 -1.138523e-01 2.245811e-01 5.735864e-01 9.076475e-01 1.182864e+00 1.360358e+00 1.408808e+00 1.321931e+00 1.022351e+00 6.108543e-01 -1.065721e-01 -8.424487e-01 -1.860736e+00 -2.644646e+00 -3.429714e+00 -3.761777e+00 -3.815769e+00 -3.534443e+00 -2.900987e+00 -2.174378e+00 -1.204021e+00 -4.328303e-01 4.286648e-01 9.756026e-01 1.537084e+00 1.920081e+00 2.263476e+00 2.442111e+00 2.603557e+00 2.558969e+00 2.543655e+00 2.328847e+00 2.182742e+00 1.849930e+00 1.634847e+00 1.304394e+00 1.061059e+00 7.927196e-01 5.681350e-01 3.818463e-01 2.056269e-01 9.796118e-02 -2.032749e-02 -6.299598e-02 
-1.348955e-01 -1.147472e-01 -1.300987e-01 -8.626149e-02 -9.435109e-02 -7.310125e-02 -1.361454e-01 -1.999116e-01 -3.859439e-01 -5.695070e-01 -8.731410e-01 -1.092876e+00 -1.355015e+00 -1.424028e+00 -1.403187e+00 -1.228601e+00 -1.075377e+00 -9.386275e-01 -7.964546e-01 -5.900394e-01 -2.799519e-01 1.356236e-01 5.946216e-01 1.054387e+00 1.463762e+00 1.752726e+00 1.910245e+00 1.878315e+00 1.611175e+00 1.159498e+00 3.265846e-01 -6.114228e-01 -1.954500e+00 -3.061857e+00 -4.242834e+00 -4.743906e+00 -4.863709e+00 -4.480845e+00 -3.618042e+00 -2.623731e+00 -1.348228e+00 -3.941812e-01 6.289096e-01 1.213315e+00 1.807153e+00 2.231820e+00 2.593368e+00 2.778246e+00 2.934452e+00 2.848918e+00 2.795799e+00 2.541702e+00 2.385040e+00 1.998928e+00 1.774721e+00 1.404726e+00 1.132816e+00 8.388230e-01 5.841383e-01 3.868607e-01 1.906081e-01 8.399364e-02 -4.151784e-02 -7.423823e-02 
-1.185008e-01 -7.335739e-02 -6.784547e-02 1.172820e-03 1.404844e-02 5.009727e-02 -1.267577e-02 -9.609883e-02 -3.356223e-01 -5.915287e-01 -1.006352e+00 -1.309716e+00 -1.665822e+00 -1.738707e+00 -1.584364e+00 -1.278758e+00 -1.062532e+00 -9.758888e-01 -9.500761e-01 -8.416598e-01 -5.557138e-01 -5.818383e-02 5.440839e-01 1.166633e+00 1.768144e+00 2.209585e+00 2.534074e+00 2.603133e+00 2.407014e+00 1.956414e+00 9.415191e-01 -2.991847e-01 -2.249332e+00 -3.870263e+00 -5.541133e+00 -6.258658e+00 -6.393274e+00 -5.918447e+00 -4.750229e+00 -3.390010e+00 -1.637619e+00 -3.363755e-01 1.034110e+00 1.709720e+00 2.350855e+00 2.873108e+00 3.209795e+00 3.412130e+00 3.556961e+00 3.409647e+00 3.310963e+00 2.952590e+00 2.679006e+00 2.130293e+00 1.850695e+00 1.417764e+00 1.111297e+00 8.072693e-01 5.335699e-01 3.487965e-01 1.463625e-01 5.979045e-02 -6.140681e-02 -7.130751e-02 
-1.167621e-01 -4.932055e-02 -2.365277e-02 7.006575e-02 1.072647e-01 1.580079e-01 1.016655e-01 -5.811244e-03 -2.919572e-01 -6.272148e-01 -1.137175e+00 -1.510554e+00 -1.959806e+00 -2.002905e+00 -1.727104e+00 -1.221818e+00 -9.624225e-01 -1.050162e+00 -1.229375e+00 -1.305755e+00 -1.041770e+00 -4.380537e-01 3.246185e-01 1.156615e+00 1.977368e+00 2.612976e+00 3.155761e+00 3.364818e+00 3.333362e+00 2.953151e+00 1.915432e+00 4.329856e-01 -2.045966e+00 -4.358635e+00 -6.986529e+00 -8.068571e+00 -8.279915e+00 -7.565869e+00 -5.865073e+00 -3.921431e+00 -1.585786e+00 -1.931984e-02 1.578283e+00 2.199736e+00 2.807813e+00 3.437599e+00 3.773625e+00 3.963306e+00 4.086762e+00 3.823174e+00 3.595875e+00 3.160798e+00 2.848600e+00 2.181281e+00 1.935251e+00 1.484808e+00 1.151419e+00 8.381246e-01 5.270392e-01 3.438076e-01 1.182966e-01 4.218632e-02 -8.514219e-02 -7.802023e-02 
-7.959419e-02 1.680462e-02 6.957770e-02 1.922348e-01 2.601465e-01 3.278959e-01 2.789986e-01 1.396539e-01 -2.157417e-01 -6.610723e-01 -1.338950e+00 -1.838003e+00 -2.542371e+00 -2.542499e+00 -1.725966e+00 -7.974369e-01 -4.436225e-01 -7.857940e-01 -1.441448e+00 -1.949608e+00 -1.875881e+00 -1.123235e+00 -9.711929e-02 1.009893e+00 2.148896e+00 3.027393e+00 3.898954e+00 4.342078e+00 4.663933e+00 4.609605e+00 3.609666e+00 1.702370e+00 -2.181303e+00 -5.747525e+00 -9.421622e+00 -1.081869e+01 -1.088284e+01 -9.966498e+00 -7.668041e+00 -5.015289e+00 -1.904724e+00 2.652671e-01 2.598735e+00 3.234703e+00 3.802278e+00 4.697063e+00 4.833094e+00 4.983275e+00 5.122664e+00 4.755390e+00 4.509251e+00 3.832939e+00 3.044669e+00 1.906046e+00 1.664738e+00 1.257553e+00 9.506761e-01 7.081888e-01 4.036537e-01 2.761107e-01 5.627528e-02 2.000904e-02 -9.698197e-02 -5.882253e-02 
-7.623093e-02 4.390019e-02 1.190442e-01 2.664689e-01 3.631016e-01 4.437229e-01 4.063394e-01 2.283573e-01 -1.771447e-01 -7.425150e-01 -1.529266e+00 -2.161378e+00 -3.099405e+00 -2.894943e+00 -1.528228e+00 -1.221920e-02 3.285045e-01 -6.359828e-01 -1.932662e+00 -3.001501e+00 -3.030336e+00 -2.043153e+00 -7.831993e-01 6.542789e-01 2.105994e+00 3.280871e+00 4.547780e+00 5.285708e+00 6.123269e+00 6.564513e+00 5.957049e+00 3.877882e+00 -9.699935e-01 -6.535923e+00 -1.289008e+01 -1.496808e+01 -1.471931e+01 -1.292116e+01 -9.081245e+00 -5.030385e+00 -1.182876e+00 9.422144e-01 3.581070e+00 4.032727e+00 4.609839e+00 6.076142e+00 6.169885e+00 6.163110e+00 6.322295e+00 5.671727e+00 5.038739e+00 4.153977e+00 2.983630e+00 1.296612e+00 1.268662e+00 1.101192e+00 8.472701e-01 6.846289e-01 3.463421e-01 2.503211e-01 7.570815e-03 -5.237425e-03 -1.264036e-01 -6.586595e-02 
-1.937864e-02 1.236031e-01 2.246278e-01 3.962989e-01 5.306722e-01 6.303513e-01 6.262113e-01 4.215901e-01 -1.542235e-02 -7.368880e-01 -1.771399e+00 -2.838490e+00 -4.802952e+00 -4.117664e+00 -6.893679e-01 1.658153e+00 1.811238e+00 2.882443e-01 -2.205434e+00 -4.470275e+00 -4.920521e+00 -3.423732e+00 -1.623007e+00 1.672758e-01 2.011247e+00 3.494558e+00 5.311131e+00 6.437161e+00 8.331166e+00 1.011379e+01 1.027156e+01 6.958406e+00 -2.363308e+00 -1.124927e+01 -1.811767e+01 -1.935728e+01 -1.800768e+01 -1.564571e+01 -1.113066e+01 -6.048533e+00 -2.195152e+00 3.137899e-01 5.262067e+00 5.946546e+00 6.573379e+00 9.305146e+00 8.624182e+00 8.099178e+00 8.412190e+00 7.646531e+00 7.389909e+00 6.102584e+00 2.895701e+00 -7.992118e-01 -5.689722e-01 6.228973e-02 1.847535e-01 3.823660e-01 1.349413e-01 1.703082e-01 -4.910428e-02 -6.210565e-03 -1.149397e-01 -2.490950e-02 
-2.656445e-02 1.342185e-01 2.526733e-01 4.415577e-01 6.021761e-01 7.143456e-01 7.371662e-01 5.030930e-01 5.108163e-02 -8.512787e-01 -1.976075e+00 -3.340347e+00 -4.356043e+00 -1.819198e+00 8.087922e-01 1.945699e+00 1.736301e+00 -6.319822e-01 -4.277591e+00 -7.127051e+00 -6.726192e+00 -4.261777e+00 -2.273544e+00 -3.083542e-01 1.695279e+00 3.509777e+00 5.957894e+00 7.383821e+00 9.949929e+00 1.179918e+01 1.000221e+01 6.406841e+00 -8.492064e-01 -9.065556e+00 -1.569343e+01 -1.911753e+01 -1.935369e+01 -1.505247e+01 -1.004286e+01 -6.937989e+00 -6.318770e+00 -5.347788e+00 1.649620e+00 4.290070e+00 6.410755e+00 1.240426e+01 1.255453e+01 1.127266e+01 1.148759e+01 8.990713e+00 7.227539e+00 7.366682e+00 4.132611e+00 -2.627786e+00 -2.686814e+00 -8.766208e-01 -3.696515e-01 1.936009e-01 -2.286070e-02 1.000382e-01 -1.277155e-01 -4.849643e-02 -1.551405e-01 -4.233417e-02 
4.296214e-02 2.063470e-01 3.370396e-01 5.343633e-01 7.288033e-01 8.668432e-01 9.756445e-01 7.987135e-01 5.655893e-01 -2.130072e-01 -5.607494e-01 -1.087853e+00 2.124321e+00 5.967776e+00 2.673138e+00 1.047789e+00 -1.207300e+00 -6.017152e+00 -1.118861e+01 -1.375089e+01 -1.105104e+01 -5.829934e+00 -1.823916e+00 6.466557e-02 1.744067e+00 3.531677e+00 6.223387e+00 6.695079e+00 9.435018e+00 1.219945e+01 9.635646e+00 7.257526e+00 6.267816e-01 -9.372768e+00 -1.550310e+01 -1.861931e+01 -1.786502e+01 -1.128458e+01 -5.621925e+00 -3.834055e+00 -2.078388e+00 -4.286796e+00 -4.760412e+00 -2.654931e+00 1.489220e-01 1.102963e+01 1.450059e+01 1.262730e+01 1.269076e+01 8.448071e+00 9.986617e+00 1.477777e+01 8.208766e+00 -6.099254e+00 -7.073365e+00 -2.956194e+00 -1.517570e+00 -1.736215e-01 -1.937594e-01 9.616495e-02 -1.065295e-01 7.717845e-03 -9.637284e-02 2.347316e-02 
1.467520e-02 1.822964e-01 3.177898e-01 5.175905e-01 7.245075e-01 8.830110e-01 1.043769e+00 9.454953e-01 8.613800e-01 2.795133e-01 2.954903e-01 2.845443e-01 4.312332e+00 7.860004e+00 4.621099e+00 5.146465e+00 3.389459e+00 -4.860690e+00 -1.741554e+01 -2.539641e+01 -1.925552e+01 -7.665825e+00 -1.217932e+00 1.065518e+00 1.914880e+00 3.307346e+00 6.210308e+00 5.814830e+00 9.684258e+00 1.150571e+01 1.092743e+01 8.977860e+00 -6.338408e+00 -1.689970e+01 -1.753255e+01 -1.607090e+01 -1.226131e+01 -7.494713e+00 -3.448625e+00 -1.164000e+00 4.513319e+00 3.904695e+00 1.297396e+00 -1.801733e+00 -1.134871e+01 2.312800e+00 1.410088e+01 1.173574e+01 1.272193e+01 4.975202e+00 4.668336e+00 1.658205e+01 1.606549e+01 -1.489079e+00 -6.367377e+00 -3.025995e+00 -1.786470e+00 -3.225727e-01 -3.577901e-01 -1.399596e-02 -2.054074e-01 -6.070486e-02 -1.490965e-01 -1.435068e-02 
8.061767e-02 2.207201e-01 3.416828e-01 5.205290e-01 7.200317e-01 8.809863e-01 1.068643e+00 1.043217e+00 1.046257e+00 6.386055e-01 5.727159e-01 4.472662e-01 2.311362e+00 4.755155e+00 3.939647e+00 6.650883e+00 6.999127e+00 2.798413e+00 -9.392528e+00 -2.771295e+01 -3.181110e+01 -1.910432e+01 -3.156359e+00 4.544024e+00 3.452359e+00 3.767770e+00 5.250814e+00 2.114672e+00 5.484575e+00 1.089503e+01 1.212955e+01 7.084352e+00 -4.868220e+00 -9.776393e+00 -9.913556e+00 -9.779171e+00 -8.575530e+00 -6.716308e+00 -4.476727e+00 -2.303081e+00 2.110017e+00 4.223636e+00 6.230729e+00 5.546684e+00 -7.150231e+00 -5.671950e+00 1.922976e+00 8.665939e+00 1.504701e+01 8.130652e+00 7.154673e+00 7.819213e+00 5.890780e+00 -1.184898e-01 -2.200326e+00 -4.416369e-01 -3.165167e-01 4.499260e-01 1.280527e-01 2.767015e-01 1.011484e-02 8.313281e-02 -3.064533e-02 6.678109e-02 
3.084513e-02 1.569651e-01 2.642167e-01 4.197890e-01 5.956998e-01 7.482739e-01 9.376889e-01 9.802702e-01 1.072573e+00 8.868403e-01 9.221154e-01 8.899678e-01 1.666192e+00 3.061994e+00 2.516036e+00 3.916228e+00 3.394418e+00 2.880257e+00 -1.612141e+00 -1.456436e+01 -2.611546e+01 -2.909573e+01 -1.539870e+01 1.335682e+00 3.002714e+00 1.541390e+00 4.069630e+00 2.558440e+00 8.673512e+00 1.560084e+01 1.152513e+01 5.880175e+00 -9.332380e-02 -4.186178e+00 -6.333894e+00 -7.037674e+00 -6.511102e+00 -5.408437e+00 -3.662035e+00 -2.131108e+00 9.492661e-02 1.293456e+00 2.857420e+00 5.501403e+00 1.375798e+00 -3.847079e+00 -1.285636e+01 1.788237e-02 1.418047e+01 7.481237e+00 1.621485e+01 1.259254e+01 2.340517e+00 -6.353137e-01 -2.084059e+00 -8.567072e-01 -6.726430e-01 9.176086e-03 -1.653199e-01 3.246168e-02 -1.336617e-01 -2.907844e-02 -9.604638e-02 6.394065e-03 
6.419824e-02 1.432378e-01 2.147917e-01 3.216713e-01 4.474337e-01 5.601108e-01 7.037596e-01 7.573931e-01 8.459408e-01 7.742578e-01 8.053641e-01 8.203674e-01 1.117766e+00 1.869487e+00 1.650499e+00 2.319715e+00 1.695113e+00 3.876085e-01 -2.188666e+00 -5.776807e+00 -9.621334e+00 -2.028876e+01 -2.323757e+01 -7.645826e+00 1.225988e+00 4.978610e-01 3.667816e+00 7.117469e+00 1.300992e+01 1.208689e+01 6.513744e+00 4.192548e+00 9.674756e-02 -2.537926e+00 -3.761124e+00 -4.274122e+00 -4.055556e+00 -3.523143e+00 -2.500055e+00 -1.552064e+00 -3.038650e-01 8.757122e-02 4.151502e-01 1.218688e+00 -9.995408e-01 -9.461943e-01 -5.523002e+00 -1.149916e+00 -4.217524e-01 -1.378123e+01 2.697586e+00 1.992696e+01 1.369664e+01 5.834705e+00 2.453368e+00 1.389285e+00 8.435323e-01 7.217632e-01 3.478566e-01 2.944468e-01 8.664545e-02 9.400430e-02 1.260545e-02 5.994479e-02 
1.520653e-02 6.172562e-02 1.022458e-01 1.609775e-01 2.293934e-01 2.926216e-01 3.743237e-01 4.146102e-01 4.778986e-01 4.689469e-01 5.072268e-01 5.410964e-01 6.462649e-01 9.697779e-01 8.142526e-01 1.038329e+00 6.429848e-01 1.161110e-01 -5.670970e-01 -2.378075e+00 -2.966311e+00 -6.284916e+00 -1.177556e+01 -7.429470e+00 2.610628e-01 -2.699496e-01 -1.251756e+00 2.666172e+00 6.748612e+00 5.862562e+00 4.002959e+00 2.750041e+00 4.633637e-01 -9.298873e-01 -1.838654e+00 -2.158683e+00 -2.094065e+00 -1.809828e+00 -1.286142e+00 -8.134672e-01 -3.757737e-01 -2.753092e-01 -5.703345e-01 -1.425745e-01 -1.017940e+00 3.709692e-01 4.760269e+00 6.234974e+00 4.784336e+00 -1.524210e+00 -4.319214e+00 2.287030e+00 3.389353e+00 -2.052704e-01 -7.363270e-02 -1.107294e-01 -5.753988e-03 6.975634e-02 -8.956253e-03 2.662637e-02 -3.767590e-02 -5.832504e-03 -3.089071e-02 5.874883e-03 
3.379152e-13 3.147653e-13 2.784304e-13 2.501144e-13 2.391384e-13 2.032158e-13 2.184732e-13 1.739206e-13 2.274292e-13 1.696382e-13 2.644111e-13 1.874029e-13 2.683045e-13 1.576142e-13 1.221460e-14 9.218160e-14 -2.077492e-13 7.363602e-14 -6.273106e-13 -2.523598e-13 -1.095596e-12 2.619964e-14 1.290896e-12 -1.679940e-12 -1.978855e-12 -9.047034e-13 -2.305484e-12 -4.074903e-12 -4.004373e-12 -1.901070e-12 2.443420e-13 7.992608e-13 1.453766e-12 1.717346e-12 2.079112e-12 1.891340e-12 2.010828e-12 1.681778e-12 8.318213e-13 -2.028071e-13 -1.421083e-12 -2.051027e-12 -1.692312e-12 -1.152762e-12 -2.147015e-12 -9.077155e-13 -7.916730e-12 -6.188070e-12 4.715003e-12 8.210987e-13 -2.502424e-12 -3.591787e-13 1.397769e-12 1.147870e-12 1.107672e-12 1.049494e-12 7.864351e-13 8.345085e-13 6.293092e-13 6.549889e-13 5.101739e-13 5.100591e-13 4.143523e-13 3.997780e-13 
-1.520653e-02 -6.172562e-02 -1.022458e-01 -1.609775e-01 -2.293934e-01 -2.926216e-01 -3.743237e-01 -4.146102e-01 -4.778986e-01 -4.689469e-01 -5.072268e-01 -5.410964e-01 -6.462649e-01 -9.697779e-01 -8.142526e-01 -1.038329e+00 -6.429848e-01 -1.161110e-01 5.670970e-01 2.378075e+00 2.966311e+00 6.284916e+00 1.177556e+01 7.429470e+00 -2.610628e-01 2.699496e-01 1.251756e+00 -2.666172e+00 -6.748612e+00 -5.862562e+00 -4.002959e+00 -2.750041e+00 -4.633637e-01 9.298873e-01 1.838654e+00 2.158683e+00 2.094065e+00 1.809828e+00 1.286142e+00 8.134672e-01 3.757737e-01 2.753092e-01 5.703345e-01 1.425745e-01 1.017940e+00 -3.709692e-01 -4.760269e+00 -6.234974e+00 -4.784336e+00 1.524210e+00 4.319214e+00 -2.287030e+00 -3.389353e+00 2.052704e-01 7.363270e-02 1.107294e-01 5.753988e-03 -6.975634e-02 8.956253e-03 -2.662637e-02 3.767590e-02 5.832504e-03 3.089071e-02 -5.874883e-03 