# vtk DataFile Version 2.0
Comment goes here
ASCII

DATASET STRUCTURED_POINTS
DIMENSIONS    64   64   1

ORIGIN    0.000   0.000   0.000
SPACING   0.0781250.078125   1.000

POINT_DATA   4096
SCALARS uY double
LOOKUP_TABLE default

3.281618e-14 2.913054e-14 2.490176e-14 2.021472e-14 1.708282e-14 1.238682e-14 1.130514e-14 5.219377e-15 3.815423e-15 -4.133330e-15 -5.987013e-15 -1.586140e-14 -1.730049e-14 -2.858483e-14 -2.893800e-14 -4.013275e-14 -4.203624e-14 -5.464669e-14 -5.492543e-14 -6.637483e-14 -6.559733e-14 -7.805989e-14 -7.716613e-14 -9.102097e-14 -9.134735e-14 -1.042835e-13 -1.029633e-13 -1.109454e-13 -1.057028e-13 -1.100378e-13 -1.023937e-13 -1.049347e-13 -9.768025e-14 -9.392750e-14 -8.766098e-14 -8.306590e-14 -7.683751e-14 -6.685980e-14 -5.985673e-14 -4.758058e-14 -3.987449e-14 -2.502067e-14 -1.787374e-14 -4.124625e-16 4.723799e-15 2.276962e-14 2.905939e-14 4.173309e-14 4.425219e-14 5.337544e-14 5.270504e-14 6.141686e-14 5.921421e-14 6.388422e-14 5.870595e-14 6.119381e-14 5.640735e-14 5.737450e-14 5.194952e-14 5.133066e-14 4.542411e-14 4.333280e-14 3.818918e-14 3.656095e-14 
-1.868213e-02 -1.559418e-02 -1.178287e-02 -8.681920e-03 -4.608785e-03 -1.593364e-03 2.627698e-03 5.469840e-03 9.746566e-03 1.235405e-02 1.661463e-02 1.895877e-02 2.313630e-02 2.521295e-02 2.921687e-02 3.102218e-02 3.470789e-02 3.620464e-02 3.936212e-02 4.045222e-02 4.283119e-02 4.335370e-02 4.472393e-02 4.449156e-02 4.471569e-02 4.358207e-02 4.266429e-02 4.058798e-02 3.866115e-02 3.572146e-02 3.296408e-02 2.931246e-02 2.584074e-02 2.162873e-02 1.744926e-02 1.280692e-02 7.887477e-03 2.983932e-03 -2.598621e-03 -7.472742e-03 -1.342903e-02 -1.785510e-02 -2.371391e-02 -2.724688e-02 -3.249883e-02 -3.481497e-02 -3.907014e-02 -4.006929e-02 -4.314180e-02 -4.295204e-02 -4.484764e-02 -4.374140e-02 -4.457867e-02 -4.285244e-02 -4.277263e-02 -4.065217e-02 -3.976388e-02 -3.737270e-02 -3.574605e-02 -3.313147e-02 -3.082388e-02 -2.800674e-02 -2.509102e-02 -2.210605e-02 
-3.786749e-02 -3.164806e-02 -2.413997e-02 -1.790274e-02 -9.887063e-03 -3.829625e-03 4.484218e-03 1.019441e-02 1.864999e-02 2.390850e-02 3.239768e-02 3.717339e-02 4.559714e-02 4.990792e-02 5.810542e-02 6.195741e-02 6.963043e-02 7.294101e-02 7.962408e-02 8.216475e-02 8.728235e-02 8.867872e-02 9.168457e-02 9.149931e-02 9.204670e-02 8.993237e-02 8.799525e-02 8.384411e-02 7.970546e-02 7.369299e-02 6.777224e-02 6.024942e-02 5.285979e-02 4.418055e-02 3.540395e-02 2.585744e-02 1.567373e-02 5.604405e-03 -5.804918e-03 -1.581528e-02 -2.785118e-02 -3.695633e-02 -4.866659e-02 -5.595843e-02 -6.633378e-02 -7.114623e-02 -7.943748e-02 -8.155972e-02 -8.744012e-02 -8.713040e-02 -9.065916e-02 -8.847511e-02 -8.992849e-02 -8.647893e-02 -8.616171e-02 -8.190922e-02 -8.004270e-02 -7.523814e-02 -7.195442e-02 -6.669257e-02 -6.209478e-02 -5.641876e-02 -5.064316e-02 -4.462715e-02 
-5.651500e-02 -4.716234e-02 -3.560377e-02 -2.620281e-02 -1.386966e-02 -4.735445e-03 8.020270e-03 1.660844e-02 2.951057e-02 3.736168e-02 5.020981e-02 5.724551e-02 6.986719e-02 7.609910e-02 8.825292e-02 9.370299e-02 1.049663e-01 1.095498e-01 1.192666e-01 1.226901e-01 1.300481e-01 1.317918e-01 1.360273e-01 1.354629e-01 1.361176e-01 1.327458e-01 1.298495e-01 1.235351e-01 1.175743e-01 1.086074e-01 1.002278e-01 8.913481e-02 7.873065e-02 6.598450e-02 5.349971e-02 3.942423e-02 2.460780e-02 9.621843e-03 -7.404393e-03 -2.243924e-02 -4.077831e-02 -5.450442e-02 -7.259655e-02 -8.352714e-02 -9.968182e-02 -1.067388e-01 -1.196973e-01 -1.225721e-01 -1.317870e-01 -1.309465e-01 -1.365137e-01 -1.328960e-01 -1.352627e-01 -1.298539e-01 -1.295012e-01 -1.230124e-01 -1.202742e-01 -1.130512e-01 -1.081130e-01 -1.002484e-01 -9.325392e-02 -8.476924e-02 -7.592396e-02 -6.690590e-02 
-7.663930e-02 -6.401743e-02 -4.876218e-02 -3.609072e-02 -1.984984e-02 -7.566606e-03 9.218506e-03 2.074445e-02 3.776424e-02 4.831222e-02 6.538831e-02 7.491958e-02 9.192421e-02 1.005349e-01 1.172219e-01 1.250013e-01 1.408037e-01 1.476424e-01 1.615703e-01 1.670086e-01 1.777691e-01 1.809736e-01 1.873034e-01 1.872491e-01 1.883391e-01 1.841901e-01 1.800107e-01 1.715199e-01 1.628207e-01 1.504548e-01 1.383218e-01 1.229547e-01 1.081349e-01 9.053361e-02 7.304984e-02 5.365957e-02 3.315343e-02 1.246758e-02 -1.092608e-02 -3.178006e-02 -5.680314e-02 -7.592970e-02 -1.003760e-01 -1.156461e-01 -1.371682e-01 -1.470249e-01 -1.639518e-01 -1.679516e-01 -1.796608e-01 -1.784867e-01 -1.852653e-01 -1.802821e-01 -1.828744e-01 -1.755017e-01 -1.746346e-01 -1.658687e-01 -1.619957e-01 -1.522866e-01 -1.456139e-01 -1.350474e-01 -1.257181e-01 -1.142955e-01 -1.025550e-01 -9.039048e-02 
-9.576696e-02 -7.986790e-02 -6.017158e-02 -4.415569e-02 -2.320918e-02 -7.674133e-03 1.389517e-02 2.842295e-02 5.015201e-02 6.332451e-02 8.492954e-02 9.663990e-02 1.179392e-01 1.282945e-01 1.490086e-01 1.581741e-01 1.776542e-01 1.855978e-01 2.026609e-01 2.089062e-01 2.219682e-01 2.255135e-01 2.330194e-01 2.325640e-01 2.335623e-01 2.280362e-01 2.226358e-01 2.117723e-01 2.011320e-01 1.856353e-01 1.712848e-01 1.523421e-01 1.351411e-01 1.136244e-01 9.317665e-02 6.933597e-02 4.457865e-02 1.871102e-02 -1.061353e-02 -3.714550e-02 -6.942905e-02 -9.396165e-02 -1.260131e-01 -1.454625e-01 -1.738249e-01 -1.859749e-01 -2.082201e-01 -2.125314e-01 -2.278085e-01 -2.253847e-01 -2.341703e-01 -2.270420e-01 -2.304364e-01 -2.206106e-01 -2.196277e-01 -2.084031e-01 -2.036128e-01 -1.914548e-01 -1.830568e-01 -1.699216e-01 -1.580400e-01 -1.438086e-01 -1.287376e-01 -1.134958e-01 
-1.172343e-01 -9.780990e-02 -7.429237e-02 -5.474749e-02 -2.983566e-02 -1.095096e-02 1.462141e-02 3.218910e-02 5.795350e-02 7.382795e-02 9.961182e-02 1.137911e-01 1.396065e-01 1.524080e-01 1.781282e-01 1.899181e-01 2.148096e-01 2.256004e-01 2.480224e-01 2.571372e-01 2.747362e-01 2.806908e-01 2.910603e-01 2.918711e-01 2.934345e-01 2.874120e-01 2.801785e-01 2.668544e-01 2.525202e-01 2.329810e-01 2.139798e-01 1.901223e-01 1.679924e-01 1.411762e-01 1.154996e-01 8.591823e-02 5.508494e-02 2.275824e-02 -1.380911e-02 -4.737094e-02 -8.759708e-02 -1.189164e-01 -1.585169e-01 -1.834071e-01 -2.178374e-01 -2.332667e-01 -2.595220e-01 -2.647688e-01 -2.820499e-01 -2.786563e-01 -2.879283e-01 -2.786988e-01 -2.816619e-01 -2.693227e-01 -2.674040e-01 -2.536315e-01 -2.475117e-01 -2.327903e-01 -2.225764e-01 -2.067056e-01 -1.924101e-01 -1.751417e-01 -1.570529e-01 -1.384709e-01 
-1.374129e-01 -1.144403e-01 -8.589302e-02 -6.265979e-02 -3.246201e-02 -9.985780e-03 2.087328e-02 4.169850e-02 7.254103e-02 9.113646e-02 1.216649e-01 1.379185e-01 1.681419e-01 1.824168e-01 2.122958e-01 2.251617e-01 2.539878e-01 2.657079e-01 2.916276e-01 3.016037e-01 3.218098e-01 3.283157e-01 3.398827e-01 3.404329e-01 3.415000e-01 3.339467e-01 3.247916e-01 3.086496e-01 2.918461e-01 2.687517e-01 2.477492e-01 2.203061e-01 1.969522e-01 1.666674e-01 1.395703e-01 1.058979e-01 7.166075e-02 3.370949e-02 -9.416422e-03 -5.006598e-02 -9.951132e-02 -1.380180e-01 -1.876196e-01 -2.179638e-01 -2.611310e-01 -2.790712e-01 -3.115848e-01 -3.163267e-01 -3.372440e-01 -3.312218e-01 -3.421009e-01 -3.293984e-01 -3.327252e-01 -3.170897e-01 -3.148103e-01 -2.982977e-01 -2.911878e-01 -2.740941e-01 -2.620932e-01 -2.438090e-01 -2.267663e-01 -2.067317e-01 -1.849363e-01 -1.631470e-01 
-1.605609e-01 -1.336357e-01 -1.009747e-01 -7.376477e-02 -3.942665e-02 -1.325688e-02 2.159561e-02 4.559800e-02 8.028217e-02 1.014715e-01 1.359187e-01 1.543795e-01 1.890680e-01 2.056197e-01 2.410234e-01 2.567247e-01 2.922515e-01 3.075675e-01 3.407118e-01 3.548323e-01 3.814830e-01 3.919333e-01 4.076500e-01 4.107276e-01 4.124870e-01 4.048456e-01 3.927415e-01 3.735023e-01 3.512329e-01 3.228806e-01 2.958181e-01 2.625055e-01 2.338949e-01 1.980649e-01 1.661777e-01 1.267174e-01 8.642554e-02 4.117812e-02 -1.048760e-02 -6.017881e-02 -1.199475e-01 -1.677983e-01 -2.273361e-01 -2.651639e-01 -3.158090e-01 -3.378163e-01 -3.744343e-01 -3.795602e-01 -4.015441e-01 -3.931502e-01 -4.031643e-01 -3.868514e-01 -3.885996e-01 -3.694331e-01 -3.655940e-01 -3.461597e-01 -3.375517e-01 -3.179293e-01 -3.041222e-01 -2.831987e-01 -2.636860e-01 -2.405436e-01 -2.155234e-01 -1.901077e-01 
-1.823804e-01 -1.514540e-01 -1.129015e-01 -8.141209e-02 -4.093336e-02 -1.057356e-02 3.029564e-02 5.802355e-02 9.827643e-02 1.223749e-01 1.617508e-01 1.820872e-01 2.211497e-01 2.386318e-01 2.782301e-01 2.943761e-01 3.342353e-01 3.501532e-01 3.875276e-01 4.027049e-01 4.326613e-01 4.442207e-01 4.612676e-01 4.645037e-01 4.649417e-01 4.555374e-01 4.399268e-01 4.169776e-01 3.908993e-01 3.581438e-01 3.292996e-01 2.925404e-01 2.650809e-01 2.271424e-01 1.972841e-01 1.550846e-01 1.134752e-01 6.214919e-02 2.845396e-03 -5.669704e-02 -1.295671e-01 -1.883224e-01 -2.624638e-01 -3.084284e-01 -3.711345e-01 -3.961468e-01 -4.402766e-01 -4.433145e-01 -4.684769e-01 -4.548052e-01 -4.651899e-01 -4.429529e-01 -4.439659e-01 -4.201136e-01 -4.154026e-01 -3.929770e-01 -3.833458e-01 -3.617504e-01 -3.462167e-01 -3.233458e-01 -3.009202e-01 -2.751902e-01 -2.459723e-01 -2.171674e-01 
-2.073393e-01 -1.717669e-01 -1.285413e-01 -9.230464e-02 -4.730679e-02 -1.264204e-02 3.224390e-02 6.336616e-02 1.070280e-01 1.333799e-01 1.758819e-01 1.976177e-01 2.404710e-01 2.594473e-01 3.048424e-01 3.237027e-01 3.720753e-01 3.924233e-01 4.400518e-01 4.612355e-01 5.008620e-01 5.188802e-01 5.422627e-01 5.502236e-01 5.514596e-01 5.426755e-01 5.219494e-01 4.946891e-01 4.598957e-01 4.196822e-01 3.825483e-01 3.385185e-01 3.061425e-01 2.631305e-01 2.306700e-01 1.838454e-01 1.373694e-01 7.812481e-02 8.287657e-03 -6.375160e-02 -1.515506e-01 -2.245000e-01 -3.132558e-01 -3.705879e-01 -4.434150e-01 -4.738602e-01 -5.221181e-01 -5.242573e-01 -5.485458e-01 -5.295906e-01 -5.364498e-01 -5.075940e-01 -5.048971e-01 -4.756679e-01 -4.684205e-01 -4.426274e-01 -4.314645e-01 -4.077162e-01 -3.906601e-01 -3.655967e-01 -3.407865e-01 -3.120120e-01 -2.792907e-01 -2.464671e-01 
-2.312083e-01 -1.909138e-01 -1.405491e-01 -9.905204e-02 -4.663879e-02 -6.756180e-03 4.524440e-02 8.093007e-02 1.308219e-01 1.604214e-01 2.078340e-01 2.309951e-01 2.776120e-01 2.962888e-01 3.453592e-01 3.631585e-01 4.162787e-01 4.363957e-01 4.895890e-01 5.121844e-01 5.565730e-01 5.769079e-01 6.020473e-01 6.111837e-01 6.095480e-01 5.987467e-01 5.713076e-01 5.388099e-01 4.974574e-01 4.514377e-01 4.128865e-01 3.659619e-01 3.395714e-01 2.977632e-01 2.746905e-01 2.287365e-01 1.855984e-01 1.199899e-01 4.046107e-02 -4.693936e-02 -1.557244e-01 -2.472387e-01 -3.594962e-01 -4.303738e-01 -5.210216e-01 -5.553679e-01 -6.125585e-01 -6.094135e-01 -6.350496e-01 -6.056274e-01 -6.097631e-01 -5.703427e-01 -5.644156e-01 -5.281421e-01 -5.189881e-01 -4.901197e-01 -4.780312e-01 -4.534044e-01 -4.350100e-01 -4.091068e-01 -3.813964e-01 -3.505170e-01 -3.130294e-01 -2.765960e-01 
-2.575014e-01 -2.114572e-01 -1.554092e-01 -1.078217e-01 -5.009049e-02 -4.738964e-03 5.147572e-02 9.103084e-02 1.435363e-01 1.746471e-01 2.232423e-01 2.457624e-01 2.937988e-01 3.116544e-01 3.656574e-01 3.851362e-01 4.491700e-01 4.743427e-01 5.428023e-01 5.740363e-01 6.336557e-01 6.646634e-01 7.000075e-01 7.179544e-01 7.173281e-01 7.087901e-01 6.724137e-01 6.338919e-01 5.783468e-01 5.213839e-01 4.712304e-01 4.148925e-01 3.853854e-01 3.402246e-01 3.201891e-01 2.731287e-01 2.284846e-01 1.547757e-01 6.104302e-02 -4.526817e-02 -1.782575e-01 -2.933428e-01 -4.292499e-01 -5.188487e-01 -6.242631e-01 -6.663693e-01 -7.272385e-01 -7.203727e-01 -7.410619e-01 -7.003950e-01 -6.956323e-01 -6.435209e-01 -6.297034e-01 -5.845957e-01 -5.711952e-01 -5.384411e-01 -5.250510e-01 -4.993739e-01 -4.803227e-01 -4.534222e-01 -4.237875e-01 -3.902798e-01 -3.490031e-01 -3.080671e-01 
-2.830687e-01 -2.312054e-01 -1.662361e-01 -1.117879e-01 -4.467838e-02 7.668192e-03 7.279787e-02 1.184717e-01 1.782514e-01 2.132704e-01 2.662419e-01 2.891433e-01 3.386433e-01 3.532760e-01 4.085122e-01 4.230989e-01 4.918945e-01 5.146527e-01 5.911446e-01 6.244219e-01 6.919363e-01 7.278865e-01 7.663722e-01 7.879616e-01 7.818941e-01 7.715341e-01 7.226232e-01 6.771583e-01 6.106527e-01 5.467097e-01 4.964955e-01 4.386268e-01 4.241866e-01 3.864117e-01 3.897667e-01 3.508029e-01 3.182132e-01 2.375832e-01 1.293508e-01 -3.805379e-03 -1.741889e-01 -3.233754e-01 -4.997374e-01 -6.130702e-01 -7.457029e-01 -7.927597e-01 -8.633069e-01 -8.444965e-01 -8.614936e-01 -8.000949e-01 -7.856010e-01 -7.139405e-01 -6.915082e-01 -6.352203e-01 -6.177705e-01 -5.822053e-01 -5.681533e-01 -5.439392e-01 -5.245618e-01 -4.990832e-01 -4.670243e-01 -4.324908e-01 -3.859453e-01 -3.412032e-01 
-3.087423e-01 -2.494424e-01 -1.770272e-01 -1.141290e-01 -3.998630e-02 2.020324e-02 9.045763e-02 1.413590e-01 2.027359e-01 2.380398e-01 2.880183e-01 3.054358e-01 3.496285e-01 3.571777e-01 4.126810e-01 4.257433e-01 5.083762e-01 5.357624e-01 6.362552e-01 6.818173e-01 7.745261e-01 8.285513e-01 8.845115e-01 9.230193e-01 9.188559e-01 9.151531e-01 8.514131e-01 7.992954e-01 7.111660e-01 6.327927e-01 5.672701e-01 4.964377e-01 4.828200e-01 4.436333e-01 4.604175e-01 4.262699e-01 3.976138e-01 3.082246e-01 1.772456e-01 1.226831e-02 -2.014043e-01 -3.918843e-01 -6.083089e-01 -7.533442e-01 -9.076413e-01 -9.657822e-01 -1.037757e+00 -1.009120e+00 -1.012856e+00 -9.282346e-01 -8.940704e-01 -7.973350e-01 -7.586571e-01 -6.869902e-01 -6.620430e-01 -6.219358e-01 -6.071208e-01 -5.842195e-01 -5.660386e-01 -5.421177e-01 -5.093748e-01 -4.733907e-01 -4.229642e-01 -3.732591e-01 
-3.337174e-01 -2.670308e-01 -1.832034e-01 -1.108473e-01 -2.413959e-02 4.625218e-02 1.288246e-01 1.890306e-01 2.599853e-01 3.007771e-01 3.537009e-01 3.691557e-01 4.080170e-01 4.053273e-01 4.535666e-01 4.515342e-01 5.373689e-01 5.569440e-01 6.705531e-01 7.199122e-01 8.278112e-01 8.929362e-01 9.564552e-01 1.004509e+00 9.910287e-01 9.872538e-01 9.010225e-01 8.427411e-01 7.398337e-01 6.585690e-01 5.991327e-01 5.294567e-01 5.457619e-01 5.212816e-01 5.838824e-01 5.679542e-01 5.637993e-01 4.636527e-01 3.054690e-01 8.883003e-02 -1.968305e-01 -4.518302e-01 -7.393257e-01 -9.247841e-01 -1.119052e+00 -1.181270e+00 -1.260018e+00 -1.205462e+00 -1.193768e+00 -1.068398e+00 -1.009888e+00 -8.761507e-01 -8.179322e-01 -7.280973e-01 -6.948314e-01 -6.528531e-01 -6.375809e-01 -6.203450e-01 -6.037125e-01 -5.852329e-01 -5.514407e-01 -5.165445e-01 -4.607733e-01 -4.072716e-01 
-3.539692e-01 -2.774281e-01 -1.831769e-01 -9.821576e-02 -7.227302e-04 8.266324e-02 1.737118e-01 2.434472e-01 3.161434e-01 3.561996e-01 3.981844e-01 3.969815e-01 4.131382e-01 3.866537e-01 4.188444e-01 4.077251e-01 5.106425e-01 5.309382e-01 6.852953e-01 7.523395e-01 9.042780e-01 1.001476e+00 1.096888e+00 1.178363e+00 1.169454e+00 1.183034e+00 1.073592e+00 1.014707e+00 8.854709e-01 7.940662e-01 7.198494e-01 6.307243e-01 6.528828e-01 6.218155e-01 7.109272e-01 7.032708e-01 7.056190e-01 5.910826e-01 3.878927e-01 1.117713e-01 -2.568270e-01 -5.843908e-01 -9.379031e-01 -1.174503e+00 -1.396296e+00 -1.472092e+00 -1.544590e+00 -1.467487e+00 -1.426900e+00 -1.255342e+00 -1.156253e+00 -9.720318e-01 -8.812079e-01 -7.644263e-01 -7.177476e-01 -6.705726e-01 -6.551896e-01 -6.434416e-01 -6.311400e-01 -6.188155e-01 -5.869004e-01 -5.531057e-01 -4.939920e-01 -4.354073e-01 
-3.724975e-01 -2.864862e-01 -1.774318e-01 -7.873416e-02 3.687407e-02 1.366941e-01 2.474542e-01 3.337114e-01 4.223048e-01 4.718987e-01 5.145076e-01 5.066282e-01 5.006254e-01 4.491973e-01 4.480921e-01 3.936129e-01 4.935283e-01 4.930115e-01 6.720928e-01 7.494768e-01 9.344489e-01 1.057969e+00 1.174066e+00 1.278155e+00 1.253389e+00 1.270200e+00 1.118995e+00 1.064178e+00 9.271594e-01 8.615822e-01 8.172922e-01 7.326410e-01 8.031928e-01 7.843422e-01 9.482010e-01 9.658753e-01 1.003149e+00 8.623533e-01 5.995434e-01 2.166835e-01 -2.988233e-01 -7.485348e-01 -1.223440e+00 -1.520429e+00 -1.790861e+00 -1.860469e+00 -1.925209e+00 -1.794073e+00 -1.714514e+00 -1.464776e+00 -1.313101e+00 -1.057836e+00 -9.269457e-01 -7.825332e-01 -7.203148e-01 -6.740364e-01 -6.575864e-01 -6.578592e-01 -6.496206e-01 -6.487934e-01 -6.185571e-01 -5.894549e-01 -5.260129e-01 -4.641956e-01 
-3.785232e-01 -2.794941e-01 -1.551787e-01 -3.665972e-02 9.781571e-02 2.219472e-01 3.513255e-01 4.595921e-01 5.553213e-01 6.057580e-01 6.237825e-01 5.750584e-01 5.075101e-01 3.913123e-01 3.269270e-01 2.526480e-01 3.736239e-01 3.559580e-01 6.095069e-01 7.129324e-01 9.777793e-01 1.161214e+00 1.338162e+00 1.508284e+00 1.492888e+00 1.547601e+00 1.357970e+00 1.327920e+00 1.179244e+00 1.142644e+00 1.102822e+00 9.835636e-01 1.058362e+00 9.970699e-01 1.196805e+00 1.211332e+00 1.240914e+00 1.067059e+00 7.037233e-01 1.979139e-01 -4.870774e-01 -1.059890e+00 -1.631460e+00 -2.000100e+00 -2.288322e+00 -2.366747e+00 -2.404673e+00 -2.226941e+00 -2.094094e+00 -1.757872e+00 -1.525789e+00 -1.165402e+00 -9.707497e-01 -7.834822e-01 -6.997093e-01 -6.494600e-01 -6.333432e-01 -6.454539e-01 -6.457864e-01 -6.580802e-01 -6.340713e-01 -6.106317e-01 -5.457055e-01 -4.795936e-01 
-3.803777e-01 -2.693378e-01 -1.258349e-01 1.346746e-02 1.758711e-01 3.285704e-01 4.932124e-01 6.324092e-01 7.575581e-01 8.226065e-01 8.371559e-01 7.746624e-01 6.587604e-01 5.099331e-01 3.482036e-01 1.547342e-01 2.557742e-01 1.816617e-01 4.809831e-01 6.133461e-01 9.500246e-01 1.194360e+00 1.427069e+00 1.645328e+00 1.599020e+00 1.652336e+00 1.368678e+00 1.371279e+00 1.262827e+00 1.367816e+00 1.435099e+00 1.311420e+00 1.437427e+00 1.343494e+00 1.655081e+00 1.696554e+00 1.760534e+00 1.526188e+00 1.035926e+00 2.962844e-01 -7.138668e-01 -1.523043e+00 -2.289456e+00 -2.721082e+00 -3.033670e+00 -3.067796e+00 -3.055344e+00 -2.773253e+00 -2.563368e+00 -2.083115e+00 -1.745121e+00 -1.241816e+00 -9.708060e-01 -7.544735e-01 -6.483998e-01 -6.078723e-01 -5.878390e-01 -6.196561e-01 -6.261329e-01 -6.572805e-01 -6.393390e-01 -6.258373e-01 -5.596503e-01 -4.918894e-01 
-3.606295e-01 -2.331342e-01 -6.730474e-02 1.031463e-01 2.996869e-01 4.983107e-01 7.038084e-01 8.906242e-01 1.034017e+00 1.101436e+00 1.064595e+00 9.157810e-01 6.810986e-01 3.930478e-01 6.721980e-02 -1.080839e-01 3.137830e-02 -1.478016e-01 2.799110e-01 4.397115e-01 9.078671e-01 1.260097e+00 1.605683e+00 1.948455e+00 1.915545e+00 2.033223e+00 1.663874e+00 1.752930e+00 1.711993e+00 2.001193e+00 2.144620e+00 1.936157e+00 2.026309e+00 1.764981e+00 2.128561e+00 2.137576e+00 2.149343e+00 1.870375e+00 1.171042e+00 1.463980e-01 -1.254201e+00 -2.267762e+00 -3.140991e+00 -3.649735e+00 -3.915194e+00 -3.934412e+00 -3.853111e+00 -3.487257e+00 -3.204225e+00 -2.578626e+00 -2.076046e+00 -1.328052e+00 -9.316837e-01 -6.732769e-01 -5.484700e-01 -5.162083e-01 -4.972661e-01 -5.492221e-01 -5.688872e-01 -6.219566e-01 -6.166207e-01 -6.156183e-01 -5.519226e-01 -4.822965e-01 
-3.340865e-01 -1.921388e-01 -2.698676e-03 1.985345e-01 4.370514e-01 6.824379e-01 9.448200e-01 1.174595e+00 1.352324e+00 1.409981e+00 1.346256e+00 1.166491e+00 9.045386e-01 7.363540e-01 2.218000e-01 -2.532447e-01 -1.574125e-01 -5.048748e-01 -3.059123e-02 1.835276e-01 7.700423e-01 1.230006e+00 1.704638e+00 2.133220e+00 2.033809e+00 2.099456e+00 1.455704e+00 1.604305e+00 1.778476e+00 2.625010e+00 3.108198e+00 2.795654e+00 2.826177e+00 2.358469e+00 2.933396e+00 3.018830e+00 3.063858e+00 2.744927e+00 1.882066e+00 3.143928e-01 -1.926417e+00 -3.457042e+00 -4.618355e+00 -5.105356e+00 -5.257045e+00 -5.138196e+00 -4.916860e+00 -4.382423e+00 -3.991692e+00 -3.114519e+00 -2.384060e+00 -1.293640e+00 -7.495962e-01 -5.300845e-01 -4.083929e-01 -4.165696e-01 -3.876555e-01 -4.644548e-01 -4.902882e-01 -5.685404e-01 -5.757105e-01 -5.910536e-01 -5.322907e-01 -4.640518e-01 
-2.811326e-01 -1.210585e-01 9.792303e-02 3.425731e-01 6.351274e-01 9.532245e-01 1.283439e+00 1.585407e+00 1.773872e+00 1.812807e+00 1.619447e+00 1.260407e+00 8.756743e-01 4.992608e-01 -2.849177e-01 -3.271349e-01 -1.072504e-01 -1.003663e+00 -3.647260e-01 -1.553225e-01 5.543494e-01 1.143058e+00 1.769667e+00 2.390431e+00 2.310716e+00 2.463835e+00 1.562501e+00 1.890592e+00 2.419102e+00 3.993596e+00 4.754103e+00 4.161814e+00 3.947256e+00 2.939292e+00 3.681037e+00 3.729262e+00 3.659044e+00 3.587839e+00 2.559032e+00 2.203956e-01 -3.181100e+00 -5.091804e+00 -6.254459e+00 -6.793480e+00 -6.701437e+00 -6.528491e+00 -6.195355e+00 -5.550615e+00 -5.160677e+00 -4.105914e+00 -2.961606e+00 -1.138296e+00 -3.033745e-01 -1.829770e-01 -1.465085e-01 -2.295025e-01 -2.125490e-01 -3.189349e-01 -3.624555e-01 -4.712441e-01 -4.992348e-01 -5.353364e-01 -4.855066e-01 -4.200202e-01 
-2.222361e-01 -4.751244e-02 1.950775e-01 4.785834e-01 8.218214e-01 1.199694e+00 1.593076e+00 1.917939e+00 2.095299e+00 1.989837e+00 1.604295e+00 9.534147e-01 8.864969e-01 1.879285e+00 9.492707e-01 -9.249275e-02 -6.272460e-02 -1.534501e+00 -9.695022e-01 -5.933082e-01 2.222079e-01 8.556561e-01 1.672077e+00 2.355252e+00 2.163879e+00 2.118063e+00 3.192302e-01 5.459492e-01 1.899480e+00 5.545353e+00 7.324064e+00 6.045145e+00 5.146282e+00 3.363970e+00 4.651180e+00 5.029809e+00 4.983676e+00 5.744201e+00 5.619188e+00 1.880762e+00 -4.505820e+00 -7.952864e+00 -9.424817e+00 -9.499270e+00 -8.830301e+00 -8.390407e+00 -7.823637e+00 -7.036376e+00 -6.666313e+00 -5.238077e+00 -3.475884e+00 -5.359818e-01 7.016546e-01 3.998854e-01 2.023929e-01 -4.711911e-02 -3.292502e-02 -1.634934e-01 -2.138739e-01 -3.499096e-01 -3.997369e-01 -4.581870e-01 -4.228778e-01 -3.633005e-01 
-1.448735e-01 4.318598e-02 3.150598e-01 6.421011e-01 1.048354e+00 1.508332e+00 1.986226e+00 2.399559e+00 2.579360e+00 2.412237e+00 1.470505e+00 1.211798e-01 8.122744e-01 2.510066e+00 9.110861e-01 1.416438e+00 1.544772e+00 -2.759720e+00 -2.122171e+00 -1.284627e+00 -4.432023e-01 1.856464e-01 1.000845e+00 1.716149e+00 1.484293e+00 1.558134e+00 -1.018395e+00 -4.998399e-01 2.260841e+00 8.331096e+00 1.066638e+01 8.393425e+00 6.763747e+00 3.363890e+00 4.773714e+00 4.851581e+00 4.658360e+00 8.666453e+00 1.128231e+01 5.170165e+00 -6.422558e+00 -1.134290e+01 -1.219416e+01 -1.223574e+01 -1.085578e+01 -1.036998e+01 -9.758220e+00 -8.868450e+00 -9.045907e+00 -7.918169e+00 -5.022869e+00 6.250824e-01 2.912630e+00 1.818992e+00 9.528696e-01 3.343566e-01 2.434983e-01 5.722528e-02 -2.342885e-02 -1.959191e-01 -2.748858e-01 -3.600317e-01 -3.406686e-01 -2.899076e-01 
-6.918809e-02 1.275518e-01 4.107588e-01 7.725616e-01 1.216993e+00 1.740472e+00 2.276001e+00 2.725374e+00 2.861837e+00 2.196569e+00 -6.661585e-02 -4.493501e+00 6.323513e-01 1.402735e+01 9.628008e+00 5.147728e-01 3.462855e-02 -5.087136e+00 -5.230873e+00 -2.892790e+00 -1.461449e+00 -9.131807e-01 4.139038e-01 9.459943e-01 1.409244e-01 -6.769531e-01 -6.289925e+00 -7.110712e+00 -1.679733e+00 1.149643e+01 1.667113e+01 1.115382e+01 7.601405e+00 2.524678e+00 2.828799e+00 3.408852e+00 5.514882e+00 1.456964e+01 2.385642e+01 1.668494e+01 -5.049083e+00 -1.736075e+01 -1.908146e+01 -1.680944e+01 -1.337392e+01 -1.261199e+01 -1.177519e+01 -1.093307e+01 -1.174903e+01 -1.082425e+01 -7.070787e+00 2.269161e+00 6.496500e+00 3.930224e+00 1.968194e+00 7.879735e-01 5.374227e-01 3.011096e-01 1.840494e-01 -1.698158e-02 -1.310319e-01 -2.409436e-01 -2.459228e-01 -2.057644e-01 
1.750507e-03 1.962022e-01 4.910627e-01 8.673437e-01 1.352281e+00 1.924375e+00 2.559666e+00 3.135931e+00 3.459515e+00 2.792545e+00 -4.131777e-01 -7.048313e+00 -4.123842e+00 1.761266e+01 2.019158e+01 8.649035e+00 4.583238e+00 -9.873232e+00 -1.217103e+01 -5.875049e+00 -3.510835e+00 -2.541587e+00 -1.560124e-01 7.881878e-01 -8.562608e-01 -2.394658e+00 -1.137737e+01 -1.273032e+01 -3.192561e+00 9.004754e+00 1.419205e+01 1.083357e+01 8.847254e+00 7.290182e+00 6.375147e+00 6.716397e+00 6.720689e+00 7.199110e+00 1.688223e+01 2.622504e+01 9.448103e+00 -1.220078e+01 -1.929484e+01 -2.022331e+01 -1.589027e+01 -1.485346e+01 -1.372603e+01 -1.162639e+01 -1.401034e+01 -1.679859e+01 -1.386345e+01 2.872387e+00 1.254678e+01 8.030369e+00 3.785729e+00 1.591912e+00 9.339085e-01 5.618601e-01 3.767907e-01 1.395931e-01 -4.174876e-03 -1.357129e-01 -1.575839e-01 -1.300368e-01 
5.941276e-02 2.474047e-01 5.252066e-01 9.091442e-01 1.387384e+00 2.014851e+00 2.696455e+00 3.518791e+00 4.147522e+00 4.564026e+00 2.631655e+00 -2.424441e+00 -8.116500e+00 4.267502e+00 1.624338e+01 1.794178e+01 1.953461e+01 -2.094994e+00 -1.668206e+01 -1.098448e+01 -5.551269e+00 -3.779827e+00 3.540407e+00 7.622858e+00 6.736813e+00 3.178421e+00 -1.623612e+01 -2.430355e+01 -1.258706e+01 5.547915e-01 1.310438e+01 1.799058e+01 1.320647e+01 9.069258e+00 6.387658e+00 6.935389e+00 5.120071e+00 3.643697e-01 5.924886e+00 2.156260e+01 1.849749e+01 -3.912452e+00 -1.965556e+01 -2.223167e+01 -1.580588e+01 -1.567253e+01 -1.440549e+01 -1.223298e+01 -1.427751e+01 -1.546393e+01 -1.861174e+01 -1.905732e+00 1.520729e+01 1.075567e+01 5.001024e+00 2.404891e+00 1.339987e+00 8.680006e-01 5.781762e-01 3.101109e-01 1.267312e-01 -2.159256e-02 -6.779310e-02 -5.225146e-02 
8.828191e-02 2.510148e-01 5.045986e-01 8.436799e-01 1.287837e+00 1.844754e+00 2.499038e+00 3.234930e+00 3.955278e+00 4.542486e+00 4.210683e+00 1.431757e+00 -3.615286e+00 -2.406300e+00 2.901007e+00 1.353571e+01 2.351883e+01 1.198719e+01 -7.330784e+00 -1.068406e+01 -4.934618e+00 -2.533413e+00 1.131295e+01 1.686577e+01 9.569379e+00 1.527722e+00 -1.799087e+01 -2.349148e+01 -1.158930e+01 -1.369309e+00 9.084654e+00 1.342780e+01 7.523662e+00 1.680056e+00 -5.859450e-01 1.291554e+00 2.296801e+00 3.171414e+00 6.386457e+00 1.241575e+01 1.930162e+01 1.527919e+01 -9.202590e+00 -2.784226e+01 -2.002517e+01 -1.810131e+01 -1.507921e+01 -1.000960e+01 -1.713700e+01 -1.611912e+01 -1.396072e+01 -1.808925e+00 1.124705e+01 7.847001e+00 3.813030e+00 1.982304e+00 1.208526e+00 8.372653e-01 5.853451e-01 3.453131e-01 1.726294e-01 3.254687e-02 -1.615891e-02 -9.429951e-03 
9.732559e-02 2.308157e-01 4.304070e-01 7.140630e-01 1.065511e+00 1.532600e+00 2.042421e+00 2.652367e+00 3.172050e+00 3.644755e+00 3.607820e+00 2.326353e+00 -1.179476e-01 -1.802650e+00 -4.145738e+00 -8.125166e-01 7.272480e+00 1.749079e+01 1.748297e+01 3.927426e+00 -1.986179e+00 -1.420103e+00 1.097152e+01 1.000479e+01 4.262904e-01 4.898455e-01 -8.241730e+00 -1.217106e+01 -6.761160e+00 -2.905879e+00 1.862967e-01 1.803179e+00 -2.088043e-01 -1.692178e+00 -2.251776e+00 -5.684512e-01 3.911557e-01 1.320484e+00 1.237258e+00 3.045302e+00 9.749965e+00 1.510250e+01 5.789144e+00 -9.367325e+00 -7.218189e+00 -1.112763e+01 -1.499899e+01 -1.366200e+01 -2.477496e+01 -2.030592e+01 -4.667199e+00 4.577145e+00 7.144524e+00 4.325215e+00 2.468861e+00 1.428382e+00 1.041375e+00 7.608941e-01 5.662582e-01 3.556517e-01 2.029648e-01 7.711159e-02 2.607537e-02 2.604198e-02 
7.740602e-02 1.688977e-01 3.122069e-01 5.073097e-01 7.587747e-01 1.078448e+00 1.441235e+00 1.859346e+00 2.219140e+00 2.572889e+00 2.611218e+00 2.490705e+00 1.604759e+00 2.951747e+00 1.274586e+00 -5.318625e+00 -8.336877e+00 8.145854e-01 1.102732e+01 1.091872e+01 9.391047e+00 9.129539e+00 1.040476e+01 -8.715491e-01 -2.812744e+00 3.516296e+00 -3.494058e+00 -8.376496e+00 -7.393922e+00 -3.815657e+00 -4.906408e-01 1.045676e+00 -2.518409e-01 -1.282758e+00 -1.667927e+00 -5.221375e-01 8.496118e-01 2.304693e+00 3.577765e+00 3.442105e+00 8.099320e+00 1.235348e+01 3.151970e+00 -7.249148e+00 -6.225308e+00 -7.322801e+00 -1.650941e+01 -2.019785e+01 -1.632906e+01 -7.582519e+00 9.227099e-01 3.648669e+00 3.338729e+00 2.009275e+00 1.205224e+00 8.440424e-01 6.640724e-01 5.289960e-01 3.986364e-01 2.620553e-01 1.530996e-01 6.545304e-02 2.820276e-02 2.660732e-02 
4.428735e-02 9.190619e-02 1.632622e-01 2.649989e-01 3.895354e-01 5.529183e-01 7.281378e-01 9.281909e-01 1.086506e+00 1.195804e+00 1.182006e+00 9.961310e-01 7.926024e-01 1.237674e+00 1.030966e+00 -2.929495e+00 -1.090491e+01 -1.693788e+01 -9.540880e+00 6.438757e+00 1.632004e+01 2.030387e+01 1.466877e+01 1.052420e+00 -6.436686e-02 2.190914e+00 -2.011980e+00 -3.279065e+00 -2.603597e+00 -1.709402e+00 -9.621738e-01 -5.755328e-01 -9.777789e-01 -1.160059e+00 -1.202913e+00 -6.271621e-01 -2.241963e-04 5.939630e-01 1.338970e+00 8.782194e-01 4.558103e+00 8.704314e+00 7.673273e-01 -1.202355e+01 -1.251825e+01 -2.399656e+00 -2.129446e+00 -7.109571e+00 -3.060591e+00 1.027241e+00 1.078191e+00 1.017780e+00 7.633136e-01 4.544672e-01 4.023886e-01 3.399449e-01 3.305783e-01 2.723241e-01 2.192700e-01 1.464276e-01 9.085265e-02 4.301574e-02 2.200286e-02 2.008901e-02 
-5.489513e-14 -5.356943e-14 -4.866874e-14 -4.289993e-14 -4.820938e-14 -4.089143e-14 -6.821681e-14 -7.045624e-14 -1.719214e-13 -2.189172e-13 -4.883976e-13 -6.041150e-13 -1.227457e-12 -1.861078e-12 -4.011525e-12 -5.109272e-12 -4.376812e-12 -2.581316e-12 8.257239e-13 5.970350e-12 1.285228e-11 1.117836e-11 6.343331e-12 -2.745934e-12 -3.581138e-12 -3.005722e-13 -2.578429e-12 -2.250291e-12 -2.452848e-12 -1.526945e-12 -2.497605e-12 -2.669991e-12 -3.114786e-12 -1.571853e-12 -6.519422e-13 -3.629900e-13 1.945327e-13 -7.583229e-13 -6.969546e-13 -1.596952e-12 -2.369340e-12 -1.369754e-12 1.145087e-12 1.568110e-12 -9.977249e-13 1.563485e-12 1.433742e-12 -1.370533e-13 3.275802e-12 2.717807e-12 2.289994e-12 1.887523e-12 5.489268e-13 5.017813e-13 1.322379e-13 1.218680e-13 1.258554e-14 -1.270080e-14 -4.011352e-14 -5.925181e-14 -5.976067e-14 -6.851697e-14 -6.108524e-14 -6.160082e-14 
-4.428735e-02 -9.190619e-02 -1.632622e-01 -2.649989e-01 -3.895354e-01 -5.529183e-01 -7.281378e-01 -9.281909e-01 -1.086506e+00 -1.195804e+00 -1.182006e+00 -9.961310e-01 -7.926024e-01 -1.237674e+00 -1.030966e+00 2.929495e+00 1.090491e+01 1.693788e+01 9.540880e+00 -6.438757e+00 -1.632004e+01 -2.030387e+01 -1.466877e+01 -1.052420e+00 6.436686e-02 -2.190914e+00 2.011980e+00 3.279065e+00 2.603597e+00 1.709402e+00 9.621738e-01 5.755328e-01 9.777789e-01 1.160059e+00 1.202913e+00 6.271621e-01 2.241963e-04 -5.939630e-01 -1.338970e+00 -8.782194e-01 -4.558103e+00 -8.704314e+00 -7.673273e-01 1.202355e+01 1.251825e+01 2.399656e+00 2.129446e+00 7.109571e+00 3.060591e+00 -1.027241e+00 -1.078191e+00 -1.017780e+00 -7.633136e-01 -4.544672e-01 -4.023886e-01 -3.399449e-01 -3.305783e-01 -2.723241e-01 -2.192700e-01 -1.464276e-01 -9.085265e-02 -4.301574e-02 -2.200286e-02 -2.008901e-02 