# vtk DataFile Version 2.0
Comment goes here
ASCII

DATASET STRUCTURED_POINTS
FIELD FieldData 1
TIME 1 1 double
1.88000000
DIMENSIONS    64   64   1

ORIGIN    0.000   0.000   0.000
SPACING   0.015625 0.015625   1.000

POINT_DATA   4096
SCALARS Concentration double
LOOKUP_TABLE default

1.756122e-02 1.766742e-02 1.808031e-02 1.881420e-02 1.989333e-02 2.135190e-02 2.323221e-02 2.558457e-02 2.846357e-02 3.192653e-02 3.602763e-02 4.081419e-02 4.631964e-02 5.255838e-02 5.952056e-02 6.716719e-02 7.543104e-02 8.421336e-02 9.339349e-02 1.028268e-01 1.123613e-01 1.218349e-01 1.310934e-01 1.399845e-01 1.483707e-01 1.561210e-01 1.631200e-01 1.692629e-01 1.744585e-01 1.786268e-01 1.817004e-01 1.836245e-01 1.843586e-01 1.838774e-01 1.822005e-01 1.793638e-01 1.754180e-01 1.704292e-01 1.644749e-01 1.576477e-01 1.500497e-01 1.417981e-01 1.330191e-01 1.238515e-01 1.144412e-01 1.049417e-01 9.550999e-02 8.629882e-02 7.745209e-02 6.909390e-02 6.132740e-02 5.422517e-02 4.783353e-02 4.216763e-02 3.722026e-02 3.296140e-02 2.934859e-02 2.632854e-02 2.384600e-02 2.184523e-02 2.027594e-02 1.909366e-02 1.826307e-02 1.775767e-02 
1.777145e-02 1.787700e-02 1.828858e-02 1.902054e-02 2.009721e-02 2.155289e-02 2.343011e-02 2.577944e-02 2.865590e-02 3.211740e-02 3.621886e-02 4.100866e-02 4.652146e-02 5.277311e-02 5.975541e-02 6.743102e-02 7.573446e-02 8.456832e-02 9.381335e-02 1.033254e-01 1.129532e-01 1.225338e-01 1.319128e-01 1.409366e-01 1.494658e-01 1.573648e-01 1.645134e-01 1.708009e-01 1.761298e-01 1.804130e-01 1.835761e-01 1.855581e-01 1.863143e-01 1.858173e-01 1.840891e-01 1.811697e-01 1.771160e-01 1.720009e-01 1.659090e-01 1.589390e-01 1.511985e-01 1.428089e-01 1.339000e-01 1.246135e-01 1.150957e-01 1.055009e-01 9.598654e-02 8.670543e-02 7.780130e-02 6.939736e-02 6.159579e-02 5.446770e-02 4.805802e-02 4.238029e-02 3.742593e-02 3.316360e-02 2.954976e-02 2.653024e-02 2.404914e-02 2.205019e-02 2.048273e-02 1.930205e-02 1.847265e-02 1.796788e-02 
1.840653e-02 1.851005e-02 1.891761e-02 1.964368e-02 2.071276e-02 2.215951e-02 2.402710e-02 2.636690e-02 2.923514e-02 3.269137e-02 3.679284e-02 4.159084e-02 4.712375e-02 5.341172e-02 6.045140e-02 6.821051e-02 7.662860e-02 8.561282e-02 9.504766e-02 1.047915e-01 1.146941e-01 1.245919e-01 1.343279e-01 1.437449e-01 1.526959e-01 1.610337e-01 1.686233e-01 1.753375e-01 1.810590e-01 1.856808e-01 1.891075e-01 1.912603e-01 1.920815e-01 1.915384e-01 1.896589e-01 1.864954e-01 1.821234e-01 1.766362e-01 1.701385e-01 1.627481e-01 1.545875e-01 1.457916e-01 1.364995e-01 1.268610e-01 1.170251e-01 1.071490e-01 9.739131e-02 8.790521e-02 7.883322e-02 7.029625e-02 6.239303e-02 5.519057e-02 4.872926e-02 4.301814e-02 3.804433e-02 3.377272e-02 3.015660e-02 2.713923e-02 2.466275e-02 2.266944e-02 2.110759e-02 1.993174e-02 1.910587e-02 1.860298e-02 
1.947952e-02 1.957979e-02 1.998088e-02 2.069747e-02 2.175442e-02 2.318685e-02 2.503892e-02 2.736330e-02 3.021815e-02 3.366576e-02 3.776701e-02 4.257808e-02 4.814326e-02 5.448983e-02 6.162236e-02 6.951684e-02 7.812124e-02 8.734989e-02 9.709392e-02 1.072151e-01 1.175657e-01 1.279797e-01 1.382967e-01 1.483506e-01 1.579826e-01 1.670266e-01 1.753246e-01 1.827238e-01 1.890761e-01 1.942430e-01 1.980957e-01 2.005252e-01 2.014520e-01 2.008351e-01 1.987119e-01 1.951555e-01 1.902723e-01 1.841888e-01 1.770422e-01 1.689791e-01 1.601455e-01 1.506962e-01 1.407854e-01 1.305751e-01 1.202206e-01 1.098842e-01 9.972783e-02 8.990520e-02 8.055765e-02 7.180212e-02 6.373212e-02 5.640765e-02 4.986183e-02 4.409606e-02 3.909050e-02 3.480375e-02 3.118390e-02 2.817002e-02 2.570105e-02 2.371689e-02 2.216411e-02 2.099606e-02 2.017587e-02 1.967599e-02 
2.101179e-02 2.110761e-02 2.150000e-02 2.220386e-02 2.324457e-02 2.465793e-02 2.648906e-02 2.879231e-02 3.162856e-02 3.506358e-02 3.916319e-02 4.398993e-02 4.959622e-02 5.601885e-02 6.327329e-02 7.134687e-02 8.019905e-02 8.975430e-02 9.991253e-02 1.105408e-01 1.214940e-01 1.326036e-01 1.437031e-01 1.546147e-01 1.651624e-01 1.751559e-01 1.844065e-01 1.927280e-01 1.999315e-01 2.058368e-01 2.102686e-01 2.130760e-01 2.141478e-01 2.134309e-01 2.109761e-01 2.068860e-01 2.013112e-01 1.944249e-01 1.864078e-01 1.774450e-01 1.677120e-01 1.573895e-01 1.466496e-01 1.356703e-01 1.246161e-01 1.136577e-01 1.029615e-01 9.268332e-02 8.296294e-02 7.391247e-02 6.561799e-02 5.813005e-02 5.147152e-02 4.563337e-02 4.058613e-02 3.627983e-02 3.265552e-02 2.964664e-02 2.718785e-02 2.521591e-02 2.367514e-02 2.251731e-02 2.170449e-02 2.120843e-02 
2.303228e-02 2.312273e-02 2.350477e-02 2.419358e-02 2.521511e-02 2.660597e-02 2.841259e-02 3.069105e-02 3.350497e-02 3.692470e-02 4.102186e-02 4.586689e-02 5.152206e-02 5.803606e-02 6.543781e-02 7.372889e-02 8.288326e-02 9.283788e-02 1.035040e-01 1.147544e-01 1.264480e-01 1.384110e-01 1.504699e-01 1.624292e-01 1.740917e-01 1.852364e-01 1.956388e-01 2.050754e-01 2.133113e-01 2.201185e-01 2.252645e-01 2.285422e-01 2.297962e-01 2.289564e-01 2.260916e-01 2.213451e-01 2.149278e-01 2.070719e-01 1.980096e-01 1.879691e-01 1.771568e-01 1.657812e-01 1.540343e-01 1.421142e-01 1.301984e-01 1.184695e-01 1.071026e-01 9.625694e-02 8.607223e-02 7.665464e-02 6.808152e-02 6.039116e-02 5.359354e-02 4.766627e-02 4.256773e-02 3.823724e-02 3.460707e-02 3.160372e-02 2.915664e-02 2.719885e-02 2.567188e-02 2.452572e-02 2.372118e-02 2.322932e-02 
2.557560e-02 2.566002e-02 2.603084e-02 2.670341e-02 2.770427e-02 2.907085e-02 3.085098e-02 3.310277e-02 3.589294e-02 3.929582e-02 4.338989e-02 4.825486e-02 5.396430e-02 6.058063e-02 6.814865e-02 7.668660e-02 8.618570e-02 9.659770e-02 1.078470e-01 1.198133e-01 1.323593e-01 1.453055e-01 1.584687e-01 1.716330e-01 1.845751e-01 1.970398e-01 2.087613e-01 2.194774e-01 2.289020e-01 2.367560e-01 2.427386e-01 2.465724e-01 2.480441e-01 2.470602e-01 2.437126e-01 2.381971e-01 2.308024e-01 2.218336e-01 2.115817e-01 2.003213e-01 1.882887e-01 1.757190e-01 1.628230e-01 1.498217e-01 1.369083e-01 1.242825e-01 1.121314e-01 1.006216e-01 8.989356e-02 8.004752e-02 7.115029e-02 6.322549e-02 5.626738e-02 5.023752e-02 4.507982e-02 4.072100e-02 3.708307e-02 3.408477e-02 3.164934e-02 2.970566e-02 2.819248e-02 2.705797e-02 2.626161e-02 2.577363e-02 
2.868086e-02 2.875909e-02 2.911925e-02 2.977638e-02 3.075761e-02 3.210116e-02 3.385611e-02 3.608272e-02 3.885099e-02 4.224005e-02 4.633501e-02 5.122444e-02 5.699516e-02 6.372547e-02 7.147771e-02 8.028960e-02 9.017185e-02 1.010933e-01 1.129935e-01 1.257587e-01 1.392570e-01 1.532986e-01 1.676912e-01 1.821889e-01 1.965376e-01 2.104382e-01 2.235802e-01 2.356665e-01 2.463684e-01 2.553654e-01 2.622818e-01 2.667499e-01 2.684745e-01 2.673265e-01 2.634296e-01 2.570538e-01 2.485917e-01 2.384336e-01 2.269247e-01 2.143765e-01 2.010445e-01 1.871865e-01 1.730309e-01 1.588276e-01 1.447926e-01 1.311489e-01 1.181035e-01 1.058341e-01 9.448560e-02 8.415134e-02 7.488619e-02 6.669597e-02 5.955628e-02 5.340982e-02 4.818363e-02 4.379037e-02 4.014007e-02 3.714262e-02 3.471535e-02 3.278293e-02 3.128114e-02 3.015620e-02 2.936640e-02 2.888083e-02 
3.238768e-02 3.246010e-02 3.281165e-02 3.345703e-02 3.442294e-02 3.574859e-02 3.748404e-02 3.969143e-02 4.244406e-02 4.582605e-02 4.992982e-02 5.485354e-02 6.069662e-02 6.755311e-02 7.550667e-02 8.461632e-02 9.491491e-02 1.063899e-01 1.189976e-01 1.326310e-01 1.471622e-01 1.623904e-01 1.781102e-01 1.940432e-01 2.098966e-01 2.253234e-01 2.399618e-01 2.534859e-01 2.655245e-01 2.757292e-01 2.836485e-01 2.888088e-01 2.908148e-01 2.894866e-01 2.849886e-01 2.776816e-01 2.680857e-01 2.566864e-01 2.438791e-01 2.300066e-01 2.153333e-01 2.001283e-01 1.846311e-01 1.691290e-01 1.538641e-01 1.390936e-01 1.250528e-01 1.119374e-01 9.989914e-02 8.902440e-02 7.935364e-02 7.087139e-02 6.353142e-02 5.725483e-02 5.194953e-02 4.751168e-02 4.383987e-02 4.083539e-02 3.840921e-02 3.648153e-02 3.498522e-02 3.386476e-02 3.307719e-02 3.259097e-02 
3.673464e-02 3.680238e-02 3.714967e-02 3.779054e-02 3.875074e-02 4.006936e-02 4.179763e-02 4.399907e-02 4.674997e-02 5.013948e-02 5.426748e-02 5.924274e-02 6.517826e-02 7.218545e-02 8.036758e-02 8.980731e-02 1.005638e-01 1.126464e-01 1.260291e-01 1.406111e-01 1.562702e-01 1.727870e-01 1.899477e-01 2.074231e-01 2.248716e-01 2.418729e-01 2.579966e-01 2.729009e-01 2.862098e-01 2.976023e-01 3.065617e-01 3.124764e-01 3.147986e-01 3.132649e-01 3.081025e-01 2.998117e-01 2.890898e-01 2.765189e-01 2.624995e-01 2.473657e-01 2.313646e-01 2.147763e-01 1.978524e-01 1.809358e-01 1.643113e-01 1.482806e-01 1.331235e-01 1.190596e-01 1.062526e-01 9.477866e-02 8.466022e-02 7.585534e-02 6.829214e-02 6.186509e-02 5.646178e-02 5.196293e-02 4.825478e-02 4.522942e-02 4.279118e-02 4.085597e-02 3.935406e-02 3.822866e-02 3.743541e-02 3.694336e-02 
4.175279e-02 4.181785e-02 4.216780e-02 4.281578e-02 4.378599e-02 4.511597e-02 4.685771e-02 4.907571e-02 5.184867e-02 5.527052e-02 5.944872e-02 6.450291e-02 7.056100e-02 7.775278e-02 8.620447e-02 9.602304e-02 1.072942e-01 1.200505e-01 1.342885e-01 1.499119e-01 1.667999e-01 1.847104e-01 2.034169e-01 2.225339e-01 2.416518e-01 2.602755e-01 2.778984e-01 2.941640e-01 3.086706e-01 3.211710e-01 3.311190e-01 3.377678e-01 3.404045e-01 3.386609e-01 3.328422e-01 3.235935e-01 3.118007e-01 2.981248e-01 2.829402e-01 2.665828e-01 2.492820e-01 2.312899e-01 2.128561e-01 1.944086e-01 1.762824e-01 1.588461e-01 1.424401e-01 1.273194e-01 1.136624e-01 1.015304e-01 9.092228e-02 8.176113e-02 7.394329e-02 6.733788e-02 6.181161e-02 5.722810e-02 5.346080e-02 5.039239e-02 4.792085e-02 4.595826e-02 4.443297e-02 4.328688e-02 4.247573e-02 4.197000e-02 
4.746372e-02 4.752915e-02 4.789211e-02 4.856437e-02 4.956802e-02 5.093808e-02 5.272485e-02 5.499451e-02 5.782724e-02 6.132146e-02 6.559194e-02 7.076999e-02 7.699887e-02 8.442938e-02 9.321215e-02 1.034839e-01 1.153600e-01 1.289014e-01 1.441240e-01 1.609343e-01 1.792102e-01 1.986762e-01 2.191131e-01 2.400428e-01 2.609784e-01 2.812887e-01 3.003171e-01 3.177010e-01 3.330983e-01 3.464881e-01 3.573658e-01 3.648045e-01 3.677956e-01 3.657919e-01 3.592337e-01 3.490229e-01 3.363316e-01 3.218504e-01 3.057712e-01 2.883425e-01 2.697541e-01 2.502773e-01 2.301793e-01 2.099950e-01 1.901551e-01 1.710995e-01 1.532612e-01 1.369382e-01 1.223255e-01 1.094603e-01 9.830164e-02 8.873307e-02 8.061708e-02 7.379382e-02 6.810687e-02 6.340227e-02 5.954025e-02 5.639448e-02 5.385700e-02 5.183688e-02 5.026135e-02 4.907118e-02 4.822442e-02 4.769370e-02 
5.387214e-02 5.394214e-02 5.433203e-02 5.505195e-02 5.612092e-02 5.757078e-02 5.944778e-02 6.181908e-02 6.476576e-02 6.839055e-02 7.281531e-02 7.818358e-02 8.465524e-02 9.240356e-02 1.016079e-01 1.124376e-01 1.250466e-01 1.395265e-01 1.559195e-01 1.741209e-01 1.939928e-01 2.152005e-01 2.375335e-01 2.604093e-01 2.831952e-01 3.051982e-01 3.257318e-01 3.443965e-01 3.606456e-01 3.746535e-01 3.861048e-01 3.940071e-01 3.972013e-01 3.950028e-01 3.879823e-01 3.771430e-01 3.638024e-01 3.485427e-01 3.314083e-01 3.128198e-01 2.930001e-01 2.720214e-01 2.501022e-01 2.279939e-01 2.062101e-01 1.852950e-01 1.658142e-01 1.481264e-01 1.324404e-01 1.187484e-01 1.069666e-01 9.692792e-02 8.845650e-02 8.135980e-02 7.545799e-02 7.057920e-02 6.657094e-02 6.329845e-02 6.064860e-02 5.852865e-02 5.686425e-02 5.559809e-02 5.469158e-02 5.412065e-02 
6.096408e-02 6.104407e-02 6.147920e-02 6.227727e-02 6.345358e-02 6.503563e-02 6.706482e-02 6.960522e-02 7.274046e-02 7.657696e-02 8.124359e-02 8.689725e-02 9.371535e-02 1.018973e-01 1.116533e-01 1.231947e-01 1.367176e-01 1.523617e-01 1.701899e-01 1.900878e-01 2.118557e-01 2.350687e-01 2.595906e-01 2.846772e-01 3.096420e-01 3.335701e-01 3.554458e-01 3.749244e-01 3.915185e-01 4.058132e-01 4.177596e-01 4.262378e-01 4.297143e-01 4.271812e-01 4.195310e-01 4.080720e-01 3.944196e-01 3.788802e-01 3.610913e-01 3.414472e-01 3.201197e-01 2.972971e-01 2.732977e-01 2.489665e-01 2.249432e-01 2.018510e-01 1.804583e-01 1.611964e-01 1.442802e-01 1.296437e-01 1.171404e-01 1.065434e-01 9.763177e-02 9.018003e-02 8.398390e-02 7.885470e-02 7.462730e-02 7.115947e-02 6.833358e-02 6.605601e-02 6.425140e-02 6.286716e-02 6.186949e-02 6.123847e-02 
6.870172e-02 6.879842e-02 6.930115e-02 7.021514e-02 7.155076e-02 7.333052e-02 7.558929e-02 7.838676e-02 8.180674e-02 8.596091e-02 9.098471e-02 9.705053e-02 1.043546e-01 1.131261e-01 1.236110e-01 1.360681e-01 1.507511e-01 1.678562e-01 1.874907e-01 2.095009e-01 2.335712e-01 2.590681e-01 2.859908e-01 3.134126e-01 3.401286e-01 3.653971e-01 3.889862e-01 4.107921e-01 4.289814e-01 4.434942e-01 4.547323e-01 4.621998e-01 4.651705e-01 4.629482e-01 4.561065e-01 4.453827e-01 4.316143e-01 4.144514e-01 3.943107e-01 3.730791e-01 3.506772e-01 3.261891e-01 2.999267e-01 2.732070e-01 2.466984e-01 2.211047e-01 1.975097e-01 1.764445e-01 1.581314e-01 1.424104e-01 1.290609e-01 1.177838e-01 1.083142e-01 1.003932e-01 9.379361e-02 8.831081e-02 8.376730e-02 8.001417e-02 7.692996e-02 7.441946e-02 7.240984e-02 7.085495e-02 6.972687e-02 6.901119e-02 
7.702241e-02 7.714382e-02 7.774120e-02 7.881628e-02 8.037393e-02 8.243025e-02 8.501300e-02 8.817645e-02 9.200036e-02 9.660438e-02 1.021311e-01 1.087703e-01 1.167396e-01 1.263032e-01 1.377463e-01 1.513860e-01 1.675375e-01 1.864875e-01 2.083835e-01 2.330765e-01 2.599326e-01 2.880452e-01 3.175342e-01 3.474222e-01 3.771856e-01 4.050373e-01 4.288859e-01 4.492282e-01 4.649938e-01 4.764319e-01 4.842793e-01 4.888921e-01 4.905866e-01 4.893365e-01 4.850344e-01 4.776657e-01 4.670255e-01 4.522373e-01 4.334456e-01 4.118213e-01 3.864469e-01 3.588300e-01 3.304072e-01 3.012238e-01 2.719769e-01 2.435397e-01 2.174147e-01 1.942961e-01 1.743786e-01 1.573872e-01 1.430092e-01 1.308770e-01 1.206807e-01 1.121334e-01 1.049838e-01 9.901258e-02 9.402861e-02 8.987651e-02 8.643091e-02 8.359489e-02 8.130177e-02 7.951275e-02 7.820740e-02 7.737770e-02 
8.583972e-02 8.599508e-02 8.671784e-02 8.800594e-02 8.985744e-02 9.228137e-02 9.529662e-02 9.895226e-02 1.033211e-01 1.085314e-01 1.147328e-01 1.221378e-01 1.309865e-01 1.415871e-01 1.542677e-01 1.694100e-01 1.873996e-01 2.086242e-01 2.333416e-01 2.614323e-01 2.918448e-01 3.230676e-01 3.556654e-01 3.881231e-01 4.174729e-01 4.410660e-01 4.564266e-01 4.664867e-01 4.725312e-01 4.766389e-01 4.795156e-01 4.811252e-01 4.816547e-01 4.812183e-01 4.796878e-01 4.771922e-01 4.735789e-01 4.682988e-01 4.594069e-01 4.455887e-01 4.240592e-01 3.967260e-01 3.656934e-01 3.334390e-01 3.012799e-01 2.696515e-01 2.406561e-01 2.152002e-01 1.934324e-01 1.749140e-01 1.592556e-01 1.460252e-01 1.348778e-01 1.255015e-01 1.176184e-01 1.109937e-01 1.054191e-01 1.007327e-01 9.680201e-02 9.353251e-02 9.086444e-02 8.876783e-02 8.723090e-02 8.625339e-02 
9.504289e-02 9.524267e-02 9.612552e-02 9.768442e-02 9.991012e-02 1.028028e-01 1.063719e-01 1.106598e-01 1.157334e-01 1.217237e-01 1.287924e-01 1.371768e-01 1.471464e-01 1.590620e-01 1.733059e-01 1.903273e-01 2.105715e-01 2.345145e-01 2.625189e-01 2.946672e-01 3.291078e-01 3.641801e-01 3.976782e-01 4.249643e-01 4.411859e-01 4.484187e-01 4.489511e-01 4.481440e-01 4.488977e-01 4.513349e-01 4.542263e-01 4.563887e-01 4.571214e-01 4.562510e-01 4.540494e-01 4.514422e-01 4.492162e-01 4.487607e-01 4.499164e-01 4.502163e-01 4.443134e-01 4.297532e-01 4.036648e-01 3.707917e-01 3.352470e-01 3.001646e-01 2.679260e-01 2.397829e-01 2.157894e-01 1.953557e-01 1.780413e-01 1.633808e-01 1.509924e-01 1.405399e-01 1.317072e-01 1.242383e-01 1.179020e-01 1.125273e-01 1.079727e-01 1.041491e-01 1.010046e-01 9.851890e-02 9.669067e-02 9.552821e-02 
1.045068e-01 1.047624e-01 1.058423e-01 1.077341e-01 1.104197e-01 1.138894e-01 1.181413e-01 1.232106e-01 1.291557e-01 1.361113e-01 1.442462e-01 1.538310e-01 1.651643e-01 1.786843e-01 1.948348e-01 2.141502e-01 2.370914e-01 2.641118e-01 2.956411e-01 3.318902e-01 3.696260e-01 4.041804e-01 4.274374e-01 4.359147e-01 4.327387e-01 4.261646e-01 4.218573e-01 4.213946e-01 4.240066e-01 4.277180e-01 4.312196e-01 4.335519e-01 4.342803e-01 4.333341e-01 4.308837e-01 4.275587e-01 4.238446e-01 4.211901e-01 4.213453e-01 4.254287e-01 4.325846e-01 4.370360e-01 4.299714e-01 4.079717e-01 3.738036e-01 3.358951e-01 2.999455e-01 2.685811e-01 2.418430e-01 2.189398e-01 1.994745e-01 1.829765e-01 1.690137e-01 1.572157e-01 1.472014e-01 1.386866e-01 1.314058e-01 1.251767e-01 1.198499e-01 1.153426e-01 1.116123e-01 1.086496e-01 1.064655e-01 1.050782e-01 
1.140890e-01 1.144129e-01 1.157292e-01 1.180182e-01 1.212528e-01 1.254105e-01 1.304774e-01 1.364780e-01 1.434622e-01 1.515640e-01 1.609559e-01 1.719409e-01 1.848554e-01 2.002327e-01 2.186232e-01 2.406780e-01 2.668964e-01 2.974521e-01 3.326376e-01 3.715197e-01 4.069564e-01 4.273489e-01 4.288485e-01 4.196385e-01 4.092099e-01 4.015047e-01 3.976202e-01 3.973448e-01 4.002331e-01 4.043935e-01 4.083605e-01 4.110334e-01 4.118845e-01 4.107947e-01 4.079512e-01 4.039893e-01 3.996653e-01 3.964884e-01 3.961593e-01 3.994407e-01 4.069827e-01 4.180021e-01 4.285114e-01 4.284651e-01 4.098737e-01 3.756484e-01 3.371144e-01 3.019495e-01 2.717210e-01 2.456086e-01 2.233879e-01 2.046179e-01 1.887521e-01 1.753555e-01 1.639445e-01 1.541915e-01 1.457898e-01 1.385414e-01 1.322947e-01 1.269731e-01 1.225465e-01 1.190175e-01 1.164124e-01 1.147601e-01 
1.236481e-01 1.240532e-01 1.256450e-01 1.283958e-01 1.322677e-01 1.372233e-01 1.432341e-01 1.503114e-01 1.584923e-01 1.679082e-01 1.787227e-01 1.912746e-01 2.059229e-01 2.233347e-01 2.441782e-01 2.693457e-01 2.992709e-01 3.337101e-01 3.723025e-01 4.082640e-01 4.277779e-01 4.250439e-01 4.109503e-01 3.968865e-01 3.858933e-01 3.782431e-01 3.747217e-01 3.748965e-01 3.779047e-01 3.820416e-01 3.859426e-01 3.885687e-01 3.894171e-01 3.883397e-01 3.854939e-01 3.814382e-01 3.769689e-01 3.734635e-01 3.725659e-01 3.753562e-01 3.827292e-01 3.940772e-01 4.086299e-01 4.234298e-01 4.281923e-01 4.111942e-01 3.764902e-01 3.384380e-01 3.045277e-01 2.747080e-01 2.492537e-01 2.279047e-01 2.098963e-01 1.947188e-01 1.817385e-01 1.705835e-01 1.608987e-01 1.524755e-01 1.451654e-01 1.389002e-01 1.336667e-01 1.294819e-01 1.263901e-01 1.244326e-01 
1.330344e-01 1.335346e-01 1.354406e-01 1.387152e-01 1.433085e-01 1.491644e-01 1.562390e-01 1.645235e-01 1.740408e-01 1.849087e-01 1.972775e-01 2.115017e-01 2.279516e-01 2.474209e-01 2.706800e-01 2.988596e-01 3.324696e-01 3.705681e-01 4.081247e-01 4.290582e-01 4.255920e-01 4.088947e-01 3.910444e-01 3.761519e-01 3.649484e-01 3.575697e-01 3.540273e-01 3.538554e-01 3.562310e-01 3.597708e-01 3.632513e-01 3.656589e-01 3.664484e-01 3.654208e-01 3.627422e-01 3.589751e-01 3.549790e-01 3.519848e-01 3.513783e-01 3.541573e-01 3.611037e-01 3.723011e-01 3.874272e-01 4.056805e-01 4.235703e-01 4.294471e-01 4.114994e-01 3.757743e-01 3.382502e-01 3.047738e-01 2.760358e-01 2.521074e-01 2.319147e-01 2.148935e-01 2.002559e-01 1.875855e-01 1.764938e-01 1.667657e-01 1.582681e-01 1.509437e-01 1.448033e-01 1.398808e-01 1.362424e-01 1.339433e-01 
1.421135e-01 1.427228e-01 1.449788e-01 1.488333e-01 1.542235e-01 1.610707e-01 1.693132e-01 1.789159e-01 1.898852e-01 2.023154e-01 2.163362e-01 2.323120e-01 2.505984e-01 2.721458e-01 2.976919e-01 3.287371e-01 3.661096e-01 4.050692e-01 4.310078e-01 4.302205e-01 4.119288e-01 3.917566e-01 3.734932e-01 3.584128e-01 3.469311e-01 3.391772e-01 3.350869e-01 3.341516e-01 3.355866e-01 3.382372e-01 3.410135e-01 3.429847e-01 3.436197e-01 3.426997e-01 3.403952e-01 3.372308e-01 3.340422e-01 3.319293e-01 3.320815e-01 3.354004e-01 3.425868e-01 3.537747e-01 3.687933e-01 3.873278e-01 4.084148e-01 4.283561e-01 4.322703e-01 4.095891e-01 3.719535e-01 3.349556e-01 3.031067e-01 2.767755e-01 2.544360e-01 2.355752e-01 2.192377e-01 2.049728e-01 1.923753e-01 1.812298e-01 1.714344e-01 1.629457e-01 1.558070e-01 1.500712e-01 1.458308e-01 1.431566e-01 
1.507479e-01 1.514797e-01 1.541183e-01 1.586015e-01 1.648512e-01 1.727619e-01 1.822535e-01 1.932552e-01 2.057594e-01 2.198189e-01 2.355552e-01 2.533197e-01 2.734786e-01 2.971221e-01 3.248604e-01 3.587263e-01 3.982896e-01 4.312016e-01 4.377958e-01 4.200053e-01 3.974147e-01 3.768638e-01 3.586908e-01 3.434796e-01 3.316207e-01 3.232194e-01 3.181731e-01 3.160470e-01 3.161740e-01 3.176166e-01 3.194480e-01 3.208251e-01 3.212408e-01 3.204740e-01 3.186993e-01 3.164076e-01 3.143894e-01 3.135903e-01 3.149855e-01 3.193352e-01 3.272005e-01 3.387364e-01 3.539167e-01 3.723811e-01 3.938311e-01 4.170204e-01 4.368082e-01 4.337230e-01 4.038100e-01 3.645501e-01 3.299295e-01 3.013687e-01 2.769826e-01 2.563088e-01 2.382908e-01 2.223956e-01 2.082424e-01 1.956051e-01 1.844358e-01 1.747054e-01 1.664994e-01 1.598923e-01 1.550066e-01 1.519317e-01 
1.588224e-01 1.596865e-01 1.627311e-01 1.678780e-01 1.750316e-01 1.840558e-01 1.948498e-01 2.072989e-01 2.213807e-01 2.370862e-01 2.545359e-01 2.740358e-01 2.959788e-01 3.216541e-01 3.513582e-01 3.887335e-01 4.273985e-01 4.455047e-01 4.330560e-01 4.088349e-01 3.857692e-01 3.652630e-01 3.471606e-01 3.317247e-01 3.192393e-01 3.098542e-01 3.035465e-01 2.999780e-01 2.986168e-01 2.987014e-01 2.994581e-01 3.001441e-01 3.003006e-01 2.997257e-01 2.985848e-01 2.973238e-01 2.966609e-01 2.973956e-01 3.003272e-01 3.060674e-01 3.150247e-01 3.272791e-01 3.427153e-01 3.610493e-01 3.820500e-01 4.053389e-01 4.304738e-01 4.459542e-01 4.313650e-01 3.941678e-01 3.562700e-01 3.255361e-01 2.992236e-01 2.768028e-01 2.571599e-01 2.396177e-01 2.238786e-01 2.096928e-01 1.970922e-01 1.860611e-01 1.767354e-01 1.692125e-01 1.636480e-01 1.601520e-01 
1.662215e-01 1.672241e-01 1.706865e-01 1.765134e-01 1.845894e-01 1.947461e-01 2.068581e-01 2.207613e-01 2.364157e-01 2.537271e-01 2.728332e-01 2.939109e-01 3.175171e-01 3.448104e-01 3.764215e-01 4.158037e-01 4.481511e-01 4.500023e-01 4.259737e-01 4.009315e-01 3.780431e-01 3.575991e-01 3.392893e-01 3.232880e-01 3.098799e-01 2.992462e-01 2.914471e-01 2.862574e-01 2.832725e-01 2.818851e-01 2.814739e-01 2.814101e-01 2.812880e-01 2.809362e-01 2.805040e-01 2.803945e-01 2.812287e-01 2.836614e-01 2.883365e-01 2.957264e-01 3.060947e-01 3.194129e-01 3.354835e-01 3.539990e-01 3.746996e-01 3.978655e-01 4.232022e-01 4.484759e-01 4.501447e-01 4.207078e-01 3.809112e-01 3.481822e-01 3.204516e-01 2.964645e-01 2.753631e-01 2.562260e-01 2.389271e-01 2.231898e-01 2.091439e-01 1.967955e-01 1.863316e-01 1.778782e-01 1.716227e-01 1.676979e-01 
1.728528e-01 1.739954e-01 1.778740e-01 1.843759e-01 1.933644e-01 2.046391e-01 2.180480e-01 2.333749e-01 2.505626e-01 2.694130e-01 2.901132e-01 3.126020e-01 3.378536e-01 3.663548e-01 4.005831e-01 4.397227e-01 4.611552e-01 4.486405e-01 4.218074e-01 3.970780e-01 3.744746e-01 3.538679e-01 3.350578e-01 3.181763e-01 3.035678e-01 2.914723e-01 2.820420e-01 2.751541e-01 2.705223e-01 2.676684e-01 2.660897e-01 2.652766e-01 2.648833e-01 2.647687e-01 2.650660e-01 2.661303e-01 2.684745e-01 2.726426e-01 2.791443e-01 2.883247e-01 3.003159e-01 3.149715e-01 3.320084e-01 3.510028e-01 3.717993e-01 3.944135e-01 4.191728e-01 4.459149e-01 4.617202e-01 4.438852e-01 4.050801e-01 3.695607e-01 3.407808e-01 3.152078e-01 2.927282e-01 2.719996e-01 2.531477e-01 2.358661e-01 2.203806e-01 2.067257e-01 1.951323e-01 1.857589e-01 1.788199e-01 1.744731e-01 
1.786247e-01 1.799032e-01 1.841801e-01 1.913269e-01 2.011846e-01 2.135259e-01 2.281669e-01 2.448521e-01 2.634885e-01 2.837990e-01 3.059691e-01 3.297245e-01 3.563778e-01 3.857395e-01 4.225172e-01 4.590266e-01 4.688728e-01 4.465503e-01 4.207749e-01 3.965524e-01 3.743804e-01 3.534317e-01 3.339204e-01 3.159337e-01 2.999634e-01 2.863022e-01 2.752002e-01 2.666248e-01 2.603915e-01 2.561294e-01 2.534331e-01 2.519004e-01 2.512528e-01 2.513764e-01 2.523906e-01 2.545902e-01 2.583932e-01 2.642514e-01 2.725619e-01 2.835618e-01 2.972662e-01 3.134158e-01 3.316403e-01 3.513652e-01 3.724736e-01 3.945663e-01 4.188349e-01 4.440642e-01 4.682463e-01 4.619338e-01 4.266274e-01 3.889101e-01 3.594492e-01 3.325149e-01 3.087362e-01 2.865060e-01 2.661534e-01 2.474014e-01 2.305333e-01 2.156355e-01 2.029639e-01 1.927166e-01 1.851275e-01 1.803810e-01 
1.834662e-01 1.848709e-01 1.895114e-01 1.972463e-01 2.078945e-01 2.212098e-01 2.369739e-01 2.549112e-01 2.748751e-01 2.965576e-01 3.200625e-01 3.450084e-01 3.727115e-01 4.026718e-01 4.406097e-01 4.728178e-01 4.731057e-01 4.467867e-01 4.226682e-01 3.990129e-01 3.769963e-01 3.555374e-01 3.351607e-01 3.159863e-01 2.986123e-01 2.833943e-01 2.706761e-01 2.605094e-01 2.528001e-01 2.472600e-01 2.435660e-01 2.413935e-01 2.405234e-01 2.408686e-01 2.425297e-01 2.457530e-01 2.508855e-01 2.583016e-01 2.683067e-01 2.810511e-01 2.964368e-01 3.141030e-01 3.335800e-01 3.542176e-01 3.757989e-01 3.977954e-01 4.212436e-01 4.450342e-01 4.717634e-01 4.747829e-01 4.444888e-01 4.065220e-01 3.762090e-01 3.481890e-01 3.230411e-01 2.994160e-01 2.776145e-01 2.575068e-01 2.393552e-01 2.233234e-01 2.096668e-01 1.986276e-01 1.904495e-01 1.853430e-01 
1.873094e-01 1.888220e-01 1.937718e-01 2.020082e-01 2.133298e-01 2.274821e-01 2.442109e-01 2.632496e-01 2.843782e-01 3.073420e-01 3.320601e-01 3.582903e-01 3.868378e-01 4.176533e-01 4.550695e-01 4.825254e-01 4.757318e-01 4.493081e-01 4.260077e-01 4.029797e-01 3.808332e-01 3.588730e-01 3.376232e-01 3.173489e-01 2.986976e-01 2.821013e-01 2.679696e-01 2.564229e-01 2.474422e-01 2.408125e-01 2.362791e-01 2.335736e-01 2.325192e-01 2.330512e-01 2.352549e-01 2.393423e-01 2.456060e-01 2.543626e-01 2.658383e-01 2.800966e-01 2.969510e-01 3.159776e-01 3.365991e-01 3.581468e-01 3.802072e-01 4.023499e-01 4.250758e-01 4.482549e-01 4.741911e-01 4.841011e-01 4.591523e-01 4.220897e-01 3.904299e-01 3.615777e-01 3.350629e-01 3.102441e-01 2.871388e-01 2.658655e-01 2.465958e-01 2.295948e-01 2.150935e-01 2.033809e-01 1.947010e-01 1.892892e-01 
1.901024e-01 1.916999e-01 1.968882e-01 2.055108e-01 2.173508e-01 2.321524e-01 2.496314e-01 2.695455e-01 2.916023e-01 3.156454e-01 3.413711e-01 3.688467e-01 3.980918e-01 4.301002e-01 4.660622e-01 4.891017e-01 4.775807e-01 4.527510e-01 4.296620e-01 4.071225e-01 3.847188e-01 3.623400e-01 3.403419e-01 3.191828e-01 2.995030e-01 2.818188e-01 2.665764e-01 2.539564e-01 2.439920e-01 2.365238e-01 2.313468e-01 2.282350e-01 2.270409e-01 2.277142e-01 2.303321e-01 2.350864e-01 2.422310e-01 2.520321e-01 2.646521e-01 2.800996e-01 2.981156e-01 3.182422e-01 3.398013e-01 3.621527e-01 3.846693e-01 4.071199e-01 4.294172e-01 4.522616e-01 4.762491e-01 4.901846e-01 4.698370e-01 4.339553e-01 4.011746e-01 3.717679e-01 3.441439e-01 3.184183e-01 2.942817e-01 2.721138e-01 2.519775e-01 2.342355e-01 2.190868e-01 2.068617e-01 1.978003e-01 1.921578e-01 
1.918004e-01 1.934505e-01 1.987887e-01 2.076554e-01 2.198232e-01 2.350386e-01 2.529967e-01 2.734798e-01 2.961412e-01 3.209125e-01 3.473176e-01 3.756970e-01 4.054215e-01 4.383463e-01 4.730453e-01 4.928491e-01 4.787373e-01 4.553994e-01 4.324269e-01 4.101691e-01 3.875297e-01 3.648657e-01 3.423601e-01 3.206264e-01 3.002808e-01 2.819011e-01 2.659532e-01 2.526556e-01 2.420739e-01 2.340810e-01 2.285028e-01 2.251380e-01 2.238570e-01 2.246174e-01 2.274933e-01 2.326641e-01 2.403568e-01 2.508083e-01 2.641423e-01 2.803353e-01 2.990791e-01 3.199012e-01 3.420464e-01 3.649110e-01 3.876978e-01 4.103525e-01 4.323504e-01 4.549861e-01 4.777297e-01 4.938213e-01 4.766741e-01 4.417979e-01 4.082356e-01 3.783863e-01 3.499589e-01 3.236147e-01 2.987859e-01 2.760347e-01 2.553346e-01 2.371167e-01 2.215527e-01 2.090007e-01 1.996958e-01 1.939059e-01 
1.923728e-01 1.940423e-01 1.994328e-01 2.083838e-01 2.206648e-01 2.360231e-01 2.541473e-01 2.748285e-01 2.977020e-01 3.227320e-01 3.493831e-01 3.781070e-01 4.080137e-01 4.413066e-01 4.754813e-01 4.940407e-01 4.791327e-01 4.563202e-01 4.334144e-01 4.112668e-01 3.885547e-01 3.658009e-01 3.431246e-01 3.211949e-01 3.006177e-01 2.819957e-01 2.658006e-01 2.522665e-01 2.414692e-01 2.332940e-01 2.275767e-01 2.241245e-01 2.228136e-01 2.236047e-01 2.265724e-01 2.318898e-01 2.397761e-01 2.504589e-01 2.640487e-01 2.805110e-01 2.995204e-01 3.205974e-01 3.429594e-01 3.660115e-01 3.888998e-01 4.116242e-01 4.335174e-01 4.560550e-01 4.783408e-01 4.949928e-01 4.789422e-01 4.445290e-01 4.106426e-01 3.806295e-01 3.519027e-01 3.253485e-01 3.002863e-01 2.773416e-01 2.564545e-01 2.380787e-01 2.223767e-01 2.097163e-01 2.003307e-01 1.944927e-01 
1.918004e-01 1.934505e-01 1.987887e-01 2.076554e-01 2.198232e-01 2.350386e-01 2.529967e-01 2.734798e-01 2.961412e-01 3.209125e-01 3.473176e-01 3.756970e-01 4.054215e-01 4.383463e-01 4.730453e-01 4.928491e-01 4.787373e-01 4.553994e-01 4.324269e-01 4.101691e-01 3.875297e-01 3.648657e-01 3.423601e-01 3.206264e-01 3.002808e-01 2.819011e-01 2.659532e-01 2.526556e-01 2.420739e-01 2.340810e-01 2.285028e-01 2.251380e-01 2.238570e-01 2.246174e-01 2.274933e-01 2.326641e-01 2.403568e-01 2.508083e-01 2.641423e-01 2.803353e-01 2.990791e-01 3.199012e-01 3.420464e-01 3.649110e-01 3.876978e-01 4.103525e-01 4.323504e-01 4.549861e-01 4.777297e-01 4.938213e-01 4.766741e-01 4.417979e-01 4.082356e-01 3.783863e-01 3.499589e-01 3.236147e-01 2.987859e-01 2.760347e-01 2.553346e-01 2.371167e-01 2.215527e-01 2.090007e-01 1.996958e-01 1.939059e-01 
1.901024e-01 1.916999e-01 1.968882e-01 2.055108e-01 2.173508e-01 2.321524e-01 2.496314e-01 2.695455e-01 2.916023e-01 3.156454e-01 3.413711e-01 3.688467e-01 3.980918e-01 4.301002e-01 4.660622e-01 4.891017e-01 4.775807e-01 4.527510e-01 4.296620e-01 4.071225e-01 3.847188e-01 3.623400e-01 3.403419e-01 3.191828e-01 2.995030e-01 2.818188e-01 2.665764e-01 2.539564e-01 2.439920e-01 2.365238e-01 2.313468e-01 2.282350e-01 2.270409e-01 2.277142e-01 2.303321e-01 2.350864e-01 2.422310e-01 2.520321e-01 2.646521e-01 2.800996e-01 2.981156e-01 3.182422e-01 3.398013e-01 3.621527e-01 3.846693e-01 4.071199e-01 4.294172e-01 4.522616e-01 4.762491e-01 4.901846e-01 4.698370e-01 4.339553e-01 4.011746e-01 3.717679e-01 3.441439e-01 3.184183e-01 2.942817e-01 2.721138e-01 2.519775e-01 2.342355e-01 2.190868e-01 2.068617e-01 1.978003e-01 1.921578e-01 