# vtk DataFile Version 2.0
Comment goes here
ASCII

DATASET STRUCTURED_POINTS
FIELD FieldData 1
TIME 1 1 double
1.51000000
DIMENSIONS    64   64   1

ORIGIN    0.000   0.000   0.000
SPACING   0.015625 0.015625   1.000

POINT_DATA   4096
SCALARS Concentration double
LOOKUP_TABLE default

8.507832e-03 8.579806e-03 8.836825e-03 9.288818e-03 9.952627e-03 1.085274e-02 1.202048e-02 1.349508e-02 1.532148e-02 1.755089e-02 2.023628e-02 2.343189e-02 2.718581e-02 3.153795e-02 3.651121e-02 4.210672e-02 4.829678e-02 5.502768e-02 6.221849e-02 6.976393e-02 7.754147e-02 8.541359e-02 9.324083e-02 1.008782e-01 1.081910e-01 1.150428e-01 1.213111e-01 1.268739e-01 1.316278e-01 1.354735e-01 1.383301e-01 1.401279e-01 1.408177e-01 1.403713e-01 1.388027e-01 1.361515e-01 1.324769e-01 1.278590e-01 1.223918e-01 1.161854e-01 1.093612e-01 1.020516e-01 9.439503e-02 8.653493e-02 7.861829e-02 7.078969e-02 6.318776e-02 5.593670e-02 4.914287e-02 4.288722e-02 3.722540e-02 3.218451e-02 2.776665e-02 2.394830e-02 2.069187e-02 1.794831e-02 1.566494e-02 1.378746e-02 1.226548e-02 1.105269e-02 1.011012e-02 9.405344e-03 8.913858e-03 8.618079e-03 
8.653736e-03 8.725548e-03 8.982805e-03 9.435457e-03 1.010039e-02 1.100218e-02 1.217227e-02 1.365012e-02 1.548105e-02 1.771664e-02 2.041039e-02 2.361722e-02 2.738622e-02 3.175841e-02 3.675801e-02 4.238827e-02 4.862311e-02 5.541026e-02 6.267025e-02 7.029865e-02 7.817368e-02 8.615752e-02 9.411027e-02 1.018853e-01 1.093463e-01 1.163544e-01 1.227817e-01 1.284997e-01 1.333980e-01 1.373695e-01 1.403255e-01 1.421894e-01 1.429064e-01 1.424462e-01 1.408235e-01 1.380826e-01 1.342886e-01 1.295299e-01 1.239083e-01 1.175417e-01 1.105583e-01 1.030970e-01 9.529893e-02 8.730961e-02 7.927774e-02 7.134859e-02 6.366090e-02 5.633825e-02 4.948595e-02 4.318358e-02 3.748521e-02 3.241640e-02 2.797706e-02 2.414241e-02 2.087365e-02 1.812078e-02 1.583035e-02 1.394755e-02 1.242156e-02 1.120570e-02 1.026074e-02 9.554138e-03 9.061278e-03 8.764542e-03 
9.094179e-03 9.165519e-03 9.423535e-03 9.878238e-03 1.054664e-02 1.145355e-02 1.263081e-02 1.411849e-02 1.596289e-02 1.821679e-02 2.093524e-02 2.417537e-02 2.798908e-02 3.242090e-02 3.749898e-02 4.323254e-02 4.960058e-02 5.655549e-02 6.402180e-02 7.189812e-02 8.006421e-02 8.838193e-02 9.670919e-02 1.048945e-01 1.127954e-01 1.202631e-01 1.271550e-01 1.333241e-01 1.386406e-01 1.429751e-01 1.462175e-01 1.482714e-01 1.490668e-01 1.485673e-01 1.467898e-01 1.437914e-01 1.396539e-01 1.344883e-01 1.284182e-01 1.215840e-01 1.141332e-01 1.062224e-01 9.800282e-02 8.962805e-02 8.125185e-02 7.302217e-02 6.507802e-02 5.754139e-02 5.051444e-02 4.407264e-02 3.826537e-02 3.311319e-02 2.860991e-02 2.472679e-02 2.142146e-02 1.864099e-02 1.632967e-02 1.443104e-02 1.289299e-02 1.166781e-02 1.071561e-02 1.000341e-02 9.506346e-03 9.206689e-03 
9.838868e-03 9.909392e-03 1.016870e-02 1.062688e-02 1.130115e-02 1.221666e-02 1.340586e-02 1.490978e-02 1.677621e-02 1.905997e-02 2.181868e-02 2.511301e-02 2.899957e-02 3.352867e-02 3.873530e-02 4.463630e-02 5.122114e-02 5.844962e-02 6.625293e-02 7.453407e-02 8.317541e-02 9.203728e-02 1.009740e-01 1.098249e-01 1.184368e-01 1.266446e-01 1.342839e-01 1.411784e-01 1.471688e-01 1.520902e-01 1.557969e-01 1.581600e-01 1.590835e-01 1.585208e-01 1.564926e-01 1.530768e-01 1.483834e-01 1.425609e-01 1.357683e-01 1.281814e-01 1.199780e-01 1.113411e-01 1.024390e-01 9.343838e-02 8.450227e-02 7.578307e-02 6.742079e-02 5.953505e-02 5.222313e-02 4.555406e-02 3.956955e-02 3.428049e-02 2.967238e-02 2.570984e-02 2.234454e-02 1.951880e-02 1.717311e-02 1.524835e-02 1.369021e-02 1.244939e-02 1.148492e-02 1.076320e-02 1.025896e-02 9.954299e-03 
1.090421e-02 1.097355e-02 1.123473e-02 1.169793e-02 1.238060e-02 1.330833e-02 1.451433e-02 1.604085e-02 1.793763e-02 2.026237e-02 2.307616e-02 2.644453e-02 3.043055e-02 3.509257e-02 4.047510e-02 4.660546e-02 5.348546e-02 6.108753e-02 6.935173e-02 7.818697e-02 8.747792e-02 9.708221e-02 1.068473e-01 1.165992e-01 1.261687e-01 1.353660e-01 1.439989e-01 1.518538e-01 1.587334e-01 1.644283e-01 1.687472e-01 1.715186e-01 1.726121e-01 1.719683e-01 1.696114e-01 1.656468e-01 1.602209e-01 1.535313e-01 1.457825e-01 1.371957e-01 1.279873e-01 1.183749e-01 1.085513e-01 9.870247e-02 8.900455e-02 7.961736e-02 7.068329e-02 6.231956e-02 5.461759e-02 4.763770e-02 4.140959e-02 3.593180e-02 3.117940e-02 2.710754e-02 2.365965e-02 2.077144e-02 1.837820e-02 1.641715e-02 1.483082e-02 1.356786e-02 1.258586e-02 1.185044e-02 1.133582e-02 1.102389e-02 
1.231297e-02 1.238072e-02 1.264445e-02 1.311444e-02 1.380835e-02 1.475222e-02 1.598013e-02 1.753574e-02 1.947106e-02 2.184744e-02 2.473031e-02 2.819123e-02 3.230135e-02 3.712913e-02 4.273120e-02 4.914834e-02 5.639653e-02 6.446253e-02 7.330044e-02 8.282515e-02 9.292320e-02 1.034461e-01 1.142313e-01 1.250849e-01 1.358182e-01 1.462104e-01 1.560412e-01 1.650548e-01 1.730139e-01 1.796561e-01 1.847324e-01 1.880140e-01 1.893224e-01 1.885818e-01 1.858181e-01 1.811750e-01 1.748485e-01 1.671007e-01 1.581926e-01 1.483978e-01 1.379767e-01 1.271816e-01 1.162360e-01 1.053482e-01 9.471233e-02 8.449881e-02 7.485483e-02 6.589629e-02 5.770847e-02 5.033931e-02 4.380430e-02 3.808884e-02 3.315454e-02 2.894473e-02 2.539233e-02 2.242478e-02 1.997085e-02 1.796318e-02 1.634019e-02 1.504807e-02 1.404274e-02 1.328890e-02 1.276023e-02 1.243842e-02 
1.409368e-02 1.415942e-02 1.442666e-02 1.490569e-02 1.561435e-02 1.657908e-02 1.783483e-02 1.942674e-02 2.140935e-02 2.384815e-02 2.681395e-02 3.038528e-02 3.464288e-02 3.966725e-02 4.552965e-02 5.228711e-02 5.997279e-02 6.858971e-02 7.810508e-02 8.844397e-02 9.949364e-02 1.110962e-01 1.230724e-01 1.352039e-01 1.472752e-01 1.590286e-01 1.702110e-01 1.805221e-01 1.896846e-01 1.973824e-01 2.033055e-01 2.071623e-01 2.087189e-01 2.078761e-01 2.046614e-01 1.992623e-01 1.919299e-01 1.829982e-01 1.727892e-01 1.616315e-01 1.498320e-01 1.376846e-01 1.254463e-01 1.133529e-01 1.016214e-01 9.043683e-02 7.995557e-02 7.029270e-02 6.152515e-02 5.368953e-02 4.678653e-02 4.078571e-02 3.563276e-02 3.125671e-02 2.757790e-02 2.451390e-02 2.198568e-02 1.992032e-02 1.825127e-02 1.692198e-02 1.588651e-02 1.510863e-02 1.456150e-02 1.422669e-02 
1.627976e-02 1.634311e-02 1.661525e-02 1.710643e-02 1.783451e-02 1.882618e-02 2.011717e-02 2.175406e-02 2.379405e-02 2.630685e-02 2.936991e-02 3.306952e-02 3.749723e-02 4.274741e-02 4.890811e-02 5.605529e-02 6.424191e-02 7.348952e-02 8.377992e-02 9.504560e-02 1.071719e-01 1.199875e-01 1.332901e-01 1.468271e-01 1.603529e-01 1.735655e-01 1.861907e-01 1.978898e-01 2.083606e-01 2.172335e-01 2.241242e-01 2.286545e-01 2.305160e-01 2.295661e-01 2.258326e-01 2.195674e-01 2.110988e-01 2.008587e-01 1.892401e-01 1.766205e-01 1.633465e-01 1.497403e-01 1.360955e-01 1.226748e-01 1.097239e-01 9.744798e-02 8.601531e-02 7.554523e-02 6.610947e-02 5.773420e-02 5.040391e-02 4.407093e-02 3.866256e-02 3.409149e-02 3.026347e-02 2.708472e-02 2.446743e-02 2.233144e-02 2.060508e-02 1.922876e-02 1.815462e-02 1.734557e-02 1.677434e-02 1.642255e-02 
1.890798e-02 1.896870e-02 1.924796e-02 1.975580e-02 2.050991e-02 2.153698e-02 2.287323e-02 2.456652e-02 2.667661e-02 2.927735e-02 3.245407e-02 3.630147e-02 4.092304e-02 4.642844e-02 5.292471e-02 6.050891e-02 6.925655e-02 7.920977e-02 9.036645e-02 1.026662e-01 1.159883e-01 1.301421e-01 1.448915e-01 1.599457e-01 1.750209e-01 1.897660e-01 2.038829e-01 2.169945e-01 2.287807e-01 2.388324e-01 2.466981e-01 2.519183e-01 2.541032e-01 2.530557e-01 2.488032e-01 2.416674e-01 2.320527e-01 2.204855e-01 2.074302e-01 1.933051e-01 1.784928e-01 1.633556e-01 1.482155e-01 1.333638e-01 1.190804e-01 1.055969e-01 9.310217e-02 8.172354e-02 7.153155e-02 6.254242e-02 5.472423e-02 4.801042e-02 4.230777e-02 3.751065e-02 3.350816e-02 3.019385e-02 2.746993e-02 2.524759e-02 2.344971e-02 2.201365e-02 2.088965e-02 2.004000e-02 1.943725e-02 1.906331e-02 
2.201662e-02 2.207466e-02 2.236442e-02 2.289552e-02 2.368511e-02 2.475951e-02 2.615501e-02 2.792037e-02 3.011763e-02 3.282464e-02 3.613514e-02 4.015339e-02 4.499559e-02 5.078803e-02 5.765827e-02 6.572676e-02 7.509357e-02 8.582404e-02 9.793315e-02 1.113676e-01 1.259955e-01 1.415965e-01 1.578877e-01 1.745249e-01 1.911814e-01 2.074396e-01 2.230006e-01 2.374792e-01 2.505877e-01 2.618989e-01 2.708607e-01 2.768898e-01 2.794701e-01 2.783206e-01 2.734577e-01 2.653224e-01 2.544404e-01 2.414960e-01 2.270276e-01 2.114513e-01 1.951480e-01 1.784874e-01 1.618259e-01 1.454783e-01 1.297717e-01 1.149784e-01 1.013158e-01 8.892924e-02 7.789079e-02 6.821055e-02 5.983953e-02 5.269176e-02 4.665133e-02 4.159242e-02 3.738565e-02 3.391048e-02 3.105766e-02 2.872847e-02 2.684022e-02 2.532731e-02 2.413832e-02 2.323531e-02 2.259102e-02 2.218802e-02 
2.564233e-02 2.569809e-02 2.600347e-02 2.656739e-02 2.740604e-02 2.854477e-02 3.001939e-02 3.187895e-02 3.418740e-02 3.702647e-02 4.049707e-02 4.471576e-02 4.981201e-02 5.592928e-02 6.321727e-02 7.182091e-02 8.186743e-02 9.344697e-02 1.065952e-01 1.212666e-01 1.373158e-01 1.544860e-01 1.724289e-01 1.907533e-01 2.090763e-01 2.269004e-01 2.439244e-01 2.597199e-01 2.740274e-01 2.864348e-01 2.963197e-01 3.030229e-01 3.059427e-01 3.047117e-01 2.993478e-01 2.903832e-01 2.784091e-01 2.642230e-01 2.484286e-01 2.314219e-01 2.136075e-01 1.954063e-01 1.771700e-01 1.592352e-01 1.419941e-01 1.257683e-01 1.108185e-01 9.731041e-02 8.532443e-02 7.486535e-02 6.586736e-02 5.822396e-02 5.179417e-02 4.643036e-02 4.198245e-02 3.831497e-02 3.530331e-02 3.283986e-02 3.083581e-02 2.922290e-02 2.794840e-02 2.697475e-02 2.627547e-02 2.583426e-02 
2.981717e-02 2.987155e-02 3.019994e-02 3.081016e-02 3.171682e-02 3.294362e-02 3.452502e-02 3.650971e-02 3.896286e-02 4.196970e-02 4.563756e-02 5.009696e-02 5.549172e-02 6.198335e-02 6.974432e-02 7.894550e-02 8.974273e-02 1.022552e-01 1.165431e-01 1.325768e-01 1.501950e-01 1.690948e-01 1.888343e-01 2.089548e-01 2.290065e-01 2.483193e-01 2.666113e-01 2.834971e-01 2.989050e-01 3.125205e-01 3.235191e-01 3.310481e-01 3.343754e-01 3.330286e-01 3.270319e-01 3.170539e-01 3.038192e-01 2.884280e-01 2.715367e-01 2.533622e-01 2.342126e-01 2.145025e-01 1.946411e-01 1.749967e-01 1.560623e-01 1.382473e-01 1.218552e-01 1.070853e-01 9.402558e-02 8.267955e-02 7.296265e-02 6.474637e-02 5.786202e-02 5.213777e-02 4.740074e-02 4.349846e-02 4.028808e-02 3.765318e-02 3.549885e-02 3.375449e-02 3.236674e-02 3.129916e-02 3.052685e-02 3.003533e-02 
3.456383e-02 3.461856e-02 3.498034e-02 3.565537e-02 3.665595e-02 3.800324e-02 3.972936e-02 4.188178e-02 4.452619e-02 4.775094e-02 5.167006e-02 5.642550e-02 6.218095e-02 6.911587e-02 7.742650e-02 8.730941e-02 9.895184e-02 1.125034e-01 1.280601e-01 1.456140e-01 1.649997e-01 1.858488e-01 2.075852e-01 2.297216e-01 2.517078e-01 2.727611e-01 2.926238e-01 3.107071e-01 3.269463e-01 3.412545e-01 3.527632e-01 3.606081e-01 3.640882e-01 3.626822e-01 3.564472e-01 3.460649e-01 3.321785e-01 3.159955e-01 2.981335e-01 2.786348e-01 2.579289e-01 2.366106e-01 2.149463e-01 1.933323e-01 1.724538e-01 1.528077e-01 1.347607e-01 1.185369e-01 1.042376e-01 9.186449e-02 8.131017e-02 7.242208e-02 6.499854e-02 5.884190e-02 5.375307e-02 4.955824e-02 4.609557e-02 4.323953e-02 4.088893e-02 3.897137e-02 3.743370e-02 3.624157e-02 3.537271e-02 3.481527e-02 
3.989231e-02 3.995003e-02 4.035905e-02 4.112336e-02 4.225201e-02 4.376258e-02 4.568370e-02 4.806078e-02 5.095925e-02 5.447059e-02 5.871563e-02 6.384699e-02 7.005154e-02 7.752952e-02 8.650231e-02 9.719304e-02 1.098220e-01 1.245758e-01 1.415965e-01 1.609284e-01 1.824106e-01 2.056039e-01 2.296887e-01 2.541240e-01 2.783790e-01 3.011480e-01 3.221427e-01 3.409164e-01 3.577676e-01 3.730959e-01 3.856999e-01 3.942186e-01 3.978970e-01 3.963306e-01 3.896445e-01 3.783341e-01 3.633255e-01 3.465911e-01 3.283678e-01 3.081143e-01 2.861121e-01 2.629546e-01 2.390966e-01 2.150973e-01 1.918557e-01 1.700388e-01 1.500222e-01 1.320696e-01 1.162954e-01 1.027002e-01 9.114740e-02 8.145284e-02 7.337659e-02 6.669043e-02 6.116518e-02 5.659903e-02 5.281220e-02 4.966893e-02 4.706150e-02 4.491613e-02 4.318087e-02 4.182460e-02 4.082899e-02 4.018576e-02 
4.579451e-02 4.585915e-02 4.633338e-02 4.721832e-02 4.851868e-02 5.024735e-02 5.242818e-02 5.510373e-02 5.833872e-02 6.222828e-02 6.690128e-02 7.252367e-02 7.930119e-02 8.746585e-02 9.726760e-02 1.089571e-01 1.227914e-01 1.389944e-01 1.577745e-01 1.792379e-01 2.032785e-01 2.292737e-01 2.559855e-01 2.828509e-01 3.094286e-01 3.346340e-01 3.586488e-01 3.797701e-01 3.969252e-01 4.111490e-01 4.222824e-01 4.295187e-01 4.325036e-01 4.311057e-01 4.254650e-01 4.156266e-01 4.021128e-01 3.860568e-01 3.664857e-01 3.435600e-01 3.190488e-01 2.940495e-01 2.678410e-01 2.409973e-01 2.149795e-01 1.905713e-01 1.681895e-01 1.481408e-01 1.305743e-01 1.155004e-01 1.027350e-01 9.205842e-02 8.317947e-02 7.583737e-02 6.975965e-02 6.471909e-02 6.051478e-02 5.699940e-02 5.405808e-02 5.161591e-02 4.962328e-02 4.805348e-02 4.689368e-02 4.614031e-02 
5.224264e-02 5.231935e-02 5.288108e-02 5.392521e-02 5.545099e-02 5.746527e-02 5.998581e-02 6.305186e-02 6.672725e-02 7.111246e-02 7.634656e-02 8.261313e-02 9.014119e-02 9.919219e-02 1.100615e-01 1.230296e-01 1.383969e-01 1.564227e-01 1.773914e-01 2.015215e-01 2.287951e-01 2.583620e-01 2.882925e-01 3.181103e-01 3.481349e-01 3.752532e-01 3.981653e-01 4.157945e-01 4.281522e-01 4.368630e-01 4.426911e-01 4.461131e-01 4.473828e-01 4.466376e-01 4.439710e-01 4.389560e-01 4.311665e-01 4.203164e-01 4.050064e-01 3.845289e-01 3.596214e-01 3.316505e-01 3.017327e-01 2.718354e-01 2.426210e-01 2.152017e-01 1.899669e-01 1.673220e-01 1.475405e-01 1.306424e-01 1.163857e-01 1.044938e-01 9.461502e-02 8.644502e-02 7.966209e-02 7.401297e-02 6.927188e-02 6.527731e-02 6.190611e-02 5.908191e-02 5.675861e-02 5.491507e-02 5.354576e-02 5.265296e-02 
5.918517e-02 5.928065e-02 5.995666e-02 6.120598e-02 6.302096e-02 6.540117e-02 6.835685e-02 7.192383e-02 7.616545e-02 8.119045e-02 8.715184e-02 9.425754e-02 1.027677e-01 1.129802e-01 1.252378e-01 1.398697e-01 1.572294e-01 1.776074e-01 2.013496e-01 2.287615e-01 2.599338e-01 2.934118e-01 3.272821e-01 3.592860e-01 3.868672e-01 4.055109e-01 4.165674e-01 4.222805e-01 4.250502e-01 4.266427e-01 4.277107e-01 4.284716e-01 4.287172e-01 4.283294e-01 4.274491e-01 4.262503e-01 4.247278e-01 4.225772e-01 4.184801e-01 4.100483e-01 3.951711e-01 3.718435e-01 3.412067e-01 3.081581e-01 2.754409e-01 2.446122e-01 2.159281e-01 1.901069e-01 1.675926e-01 1.484735e-01 1.323873e-01 1.189986e-01 1.078689e-01 9.864915e-02 9.096976e-02 8.454650e-02 7.912352e-02 7.452092e-02 7.060566e-02 6.729868e-02 6.455868e-02 6.237099e-02 6.073952e-02 5.967358e-02 
6.654924e-02 6.667155e-02 6.749274e-02 6.899987e-02 7.117696e-02 7.401470e-02 7.751447e-02 8.170887e-02 8.666150e-02 9.249386e-02 9.937698e-02 1.075522e-01 1.173180e-01 1.290210e-01 1.430652e-01 1.598272e-01 1.797383e-01 2.030722e-01 2.302016e-01 2.613903e-01 2.965273e-01 3.334565e-01 3.673558e-01 3.908977e-01 4.024799e-01 4.041105e-01 4.003909e-01 3.968116e-01 3.968221e-01 3.992731e-01 4.019314e-01 4.037634e-01 4.043755e-01 4.037753e-01 4.020150e-01 3.991895e-01 3.962880e-01 3.952173e-01 3.976334e-01 4.022873e-01 4.038414e-01 3.970837e-01 3.788546e-01 3.489138e-01 3.138669e-01 2.791971e-01 2.465987e-01 2.168913e-01 1.910883e-01 1.693081e-01 1.510183e-01 1.357912e-01 1.231009e-01 1.125637e-01 1.037574e-01 9.636216e-02 9.008581e-02 8.472472e-02 8.013324e-02 7.622775e-02 7.297275e-02 7.036087e-02 6.840764e-02 6.713066e-02 
7.423970e-02 7.439841e-02 7.539924e-02 7.722244e-02 7.984187e-02 8.323768e-02 8.740075e-02 9.236088e-02 9.818303e-02 1.050065e-01 1.130248e-01 1.225208e-01 1.338354e-01 1.473698e-01 1.635969e-01 1.829616e-01 2.059966e-01 2.330059e-01 2.642076e-01 2.997991e-01 3.377749e-01 3.714766e-01 3.907443e-01 3.940813e-01 3.867458e-01 3.774539e-01 3.714927e-01 3.694241e-01 3.707948e-01 3.738225e-01 3.767931e-01 3.788476e-01 3.795547e-01 3.788702e-01 3.768548e-01 3.737225e-01 3.703522e-01 3.681777e-01 3.688898e-01 3.736657e-01 3.823425e-01 3.921930e-01 3.944253e-01 3.823431e-01 3.544725e-01 3.181115e-01 2.813808e-01 2.475152e-01 2.180159e-01 1.932315e-01 1.723704e-01 1.549456e-01 1.403614e-01 1.282124e-01 1.180260e-01 1.094403e-01 1.021230e-01 9.583855e-02 9.042716e-02 8.579711e-02 8.192046e-02 7.879759e-02 7.645825e-02 7.492960e-02 
8.214616e-02 8.235198e-02 8.356958e-02 8.577082e-02 8.891752e-02 9.297688e-02 9.792759e-02 1.037966e-01 1.106512e-01 1.186540e-01 1.280225e-01 1.390899e-01 1.522295e-01 1.678991e-01 1.866221e-01 2.089187e-01 2.355079e-01 2.666006e-01 3.022800e-01 3.409059e-01 3.742170e-01 3.894772e-01 3.860888e-01 3.729807e-01 3.597766e-01 3.499821e-01 3.442854e-01 3.428227e-01 3.448894e-01 3.485319e-01 3.520807e-01 3.545448e-01 3.554367e-01 3.546535e-01 3.522824e-01 3.486323e-01 3.446154e-01 3.416987e-01 3.417258e-01 3.461212e-01 3.547246e-01 3.672890e-01 3.819376e-01 3.910130e-01 3.839826e-01 3.571317e-01 3.194132e-01 2.815505e-01 2.481231e-01 2.201017e-01 1.963614e-01 1.764052e-01 1.595988e-01 1.455440e-01 1.337174e-01 1.237151e-01 1.151607e-01 1.077802e-01 1.013979e-01 9.591094e-02 9.130065e-02 8.757569e-02 8.478287e-02 8.296026e-02 
9.014472e-02 9.040943e-02 9.188233e-02 9.452524e-02 9.828533e-02 1.031140e-01 1.089754e-01 1.158932e-01 1.239368e-01 1.332970e-01 1.442151e-01 1.570775e-01 1.722728e-01 1.902900e-01 2.116637e-01 2.369315e-01 2.670838e-01 3.022956e-01 3.413977e-01 3.757167e-01 3.898558e-01 3.819245e-01 3.647278e-01 3.479106e-01 3.341942e-01 3.246245e-01 3.195967e-01 3.185557e-01 3.205564e-01 3.239177e-01 3.272646e-01 3.296402e-01 3.305331e-01 3.297692e-01 3.274618e-01 3.240053e-01 3.202564e-01 3.174848e-01 3.172284e-01 3.208417e-01 3.288882e-01 3.415293e-01 3.578752e-01 3.760812e-01 3.896228e-01 3.850984e-01 3.571154e-01 3.181509e-01 2.810454e-01 2.495233e-01 2.226222e-01 1.998401e-01 1.805494e-01 1.643410e-01 1.506529e-01 1.390286e-01 1.290563e-01 1.204143e-01 1.129156e-01 1.064419e-01 1.009874e-01 9.656994e-02 9.325662e-02 9.109816e-02 
9.810723e-02 9.844338e-02 1.002107e-01 1.033582e-01 1.078157e-01 1.135145e-01 1.204018e-01 1.284949e-01 1.378656e-01 1.487347e-01 1.613631e-01 1.761976e-01 1.936035e-01 2.141136e-01 2.381433e-01 2.663059e-01 2.999129e-01 3.386579e-01 3.752857e-01 3.922785e-01 3.826953e-01 3.622986e-01 3.418472e-01 3.245736e-01 3.111267e-01 3.018575e-01 2.968142e-01 2.954712e-01 2.969069e-01 2.997340e-01 3.027258e-01 3.049291e-01 3.057870e-01 3.050763e-01 3.029301e-01 2.998063e-01 2.965530e-01 2.943473e-01 2.944947e-01 2.981686e-01 3.059762e-01 3.181209e-01 3.343696e-01 3.539710e-01 3.754624e-01 3.916166e-01 3.861429e-01 3.549327e-01 3.157258e-01 2.805169e-01 2.504131e-01 2.247194e-01 2.028127e-01 1.843007e-01 1.685873e-01 1.551740e-01 1.436274e-01 1.335756e-01 1.248268e-01 1.172450e-01 1.108423e-01 1.056464e-01 1.017486e-01 9.921440e-02 
1.059028e-01 1.063239e-01 1.084238e-01 1.121357e-01 1.173679e-01 1.240270e-01 1.320396e-01 1.414128e-01 1.522183e-01 1.647061e-01 1.791509e-01 1.960666e-01 2.157659e-01 2.388505e-01 2.655534e-01 2.963646e-01 3.332508e-01 3.719587e-01 3.953468e-01 3.884926e-01 3.657681e-01 3.423514e-01 3.214934e-01 3.042759e-01 2.908935e-01 2.815513e-01 2.761445e-01 2.741045e-01 2.746104e-01 2.765050e-01 2.787605e-01 2.805029e-01 2.812016e-01 2.806151e-01 2.788837e-01 2.764616e-01 2.741204e-01 2.728782e-01 2.738249e-01 2.779548e-01 2.858976e-01 2.979137e-01 3.139307e-01 3.335060e-01 3.564457e-01 3.806757e-01 3.968671e-01 3.853408e-01 3.501135e-01 3.117515e-01 2.785805e-01 2.501998e-01 2.257741e-01 2.049492e-01 1.871596e-01 1.718563e-01 1.586313e-01 1.470544e-01 1.369479e-01 1.281553e-01 1.207142e-01 1.146635e-01 1.101235e-01 1.071765e-01 
1.134046e-01 1.139258e-01 1.163951e-01 1.207237e-01 1.267967e-01 1.344888e-01 1.437044e-01 1.544297e-01 1.667372e-01 1.808898e-01 1.971796e-01 2.161662e-01 2.380951e-01 2.636842e-01 2.927806e-01 3.264555e-01 3.651596e-01 3.965723e-01 3.982807e-01 3.752380e-01 3.490530e-01 3.253419e-01 3.046059e-01 2.874063e-01 2.738823e-01 2.640502e-01 2.577964e-01 2.546566e-01 2.539409e-01 2.547084e-01 2.560764e-01 2.572591e-01 2.577509e-01 2.573178e-01 2.560906e-01 2.545074e-01 2.532659e-01 2.532587e-01 2.553902e-01 2.604842e-01 2.690588e-01 2.813344e-01 2.973406e-01 3.168984e-01 3.398667e-01 3.654444e-01 3.912332e-01 4.022387e-01 3.806633e-01 3.426463e-01 3.063536e-01 2.757774e-01 2.489105e-01 2.258253e-01 2.059643e-01 1.887326e-01 1.737746e-01 1.606013e-01 1.490617e-01 1.389832e-01 1.304335e-01 1.234686e-01 1.182401e-01 1.148524e-01 
1.204903e-01 1.211253e-01 1.239910e-01 1.289746e-01 1.359344e-01 1.447072e-01 1.551702e-01 1.672772e-01 1.810958e-01 1.968813e-01 2.149382e-01 2.358521e-01 2.597654e-01 2.876202e-01 3.184354e-01 3.554713e-01 3.926736e-01 4.085777e-01 3.903353e-01 3.623118e-01 3.357610e-01 3.122559e-01 2.916921e-01 2.743921e-01 2.603506e-01 2.496388e-01 2.421821e-01 2.376516e-01 2.354938e-01 2.349362e-01 2.352446e-01 2.357338e-01 2.359589e-01 2.357080e-01 2.350965e-01 2.345144e-01 2.345668e-01 2.360123e-01 2.395951e-01 2.459868e-01 2.555653e-01 2.684829e-01 2.847232e-01 3.041755e-01 3.267354e-01 3.521462e-01 3.796109e-01 4.052492e-01 4.037419e-01 3.718988e-01 3.332295e-01 3.004342e-01 2.714572e-01 2.462628e-01 2.244820e-01 2.053802e-01 1.887130e-01 1.739311e-01 1.609276e-01 1.495243e-01 1.398238e-01 1.319078e-01 1.259610e-01 1.221154e-01 
1.270464e-01 1.278060e-01 1.310856e-01 1.367459e-01 1.446161e-01 1.544894e-01 1.662124e-01 1.796907e-01 1.949857e-01 2.123061e-01 2.319976e-01 2.545753e-01 2.802658e-01 3.098913e-01 3.423908e-01 3.813575e-01 4.122929e-01 4.097639e-01 3.808890e-01 3.528075e-01 3.267782e-01 3.036835e-01 2.831358e-01 2.653809e-01 2.504603e-01 2.385135e-01 2.295695e-01 2.234275e-01 2.196821e-01 2.177075e-01 2.168907e-01 2.166455e-01 2.165812e-01 2.165172e-01 2.165476e-01 2.170146e-01 2.184357e-01 2.214534e-01 2.266743e-01 2.346171e-01 2.455187e-01 2.594149e-01 2.762055e-01 2.956817e-01 3.178509e-01 3.425605e-01 3.699175e-01 3.998537e-01 4.165515e-01 3.967504e-01 3.585141e-01 3.229210e-01 2.926384e-01 2.655614e-01 2.421617e-01 2.213381e-01 2.030665e-01 1.867291e-01 1.722830e-01 1.595602e-01 1.487022e-01 1.398269e-01 1.331533e-01 1.288464e-01 
1.329686e-01 1.338588e-01 1.375554e-01 1.438921e-01 1.526677e-01 1.636282e-01 1.765859e-01 1.913860e-01 2.080780e-01 2.267869e-01 2.479285e-01 2.718291e-01 2.990869e-01 3.298581e-01 3.646522e-01 4.029759e-01 4.236729e-01 4.064155e-01 3.753870e-01 3.478169e-01 3.225610e-01 2.996230e-01 2.787925e-01 2.602038e-01 2.440715e-01 2.306312e-01 2.200222e-01 2.121481e-01 2.067462e-01 2.033124e-01 2.013420e-01 2.003395e-01 1.999743e-01 2.000955e-01 2.007788e-01 2.023132e-01 2.051329e-01 2.097747e-01 2.167278e-01 2.263641e-01 2.388101e-01 2.539916e-01 2.717113e-01 2.916068e-01 3.137170e-01 3.377250e-01 3.645821e-01 3.935557e-01 4.212299e-01 4.163437e-01 3.817483e-01 3.435204e-01 3.122388e-01 2.834968e-01 2.586547e-01 2.362825e-01 2.165183e-01 1.987188e-01 1.828841e-01 1.688850e-01 1.568951e-01 1.470815e-01 1.396942e-01 1.349364e-01 
1.381632e-01 1.391845e-01 1.432857e-01 1.502740e-01 1.599186e-01 1.719194e-01 1.860517e-01 2.020982e-01 2.200846e-01 2.400417e-01 2.624380e-01 2.873885e-01 3.159071e-01 3.474323e-01 3.847416e-01 4.205038e-01 4.290928e-01 4.033828e-01 3.742704e-01 3.473349e-01 3.227265e-01 2.995953e-01 2.781001e-01 2.583518e-01 2.407789e-01 2.256935e-01 2.133522e-01 2.037398e-01 1.967019e-01 1.918489e-01 1.887655e-01 1.870355e-01 1.863783e-01 1.866707e-01 1.879718e-01 1.905248e-01 1.946917e-01 2.009198e-01 2.095968e-01 2.209749e-01 2.350903e-01 2.517765e-01 2.707222e-01 2.914331e-01 3.138228e-01 3.374596e-01 3.634577e-01 3.906434e-01 4.216952e-01 4.297129e-01 4.009464e-01 3.618702e-01 3.294425e-01 2.995657e-01 2.734537e-01 2.498086e-01 2.287018e-01 2.095903e-01 1.924657e-01 1.772803e-01 1.642246e-01 1.535285e-01 1.454672e-01 1.402858e-01 
1.425468e-01 1.436923e-01 1.481661e-01 1.557524e-01 1.661920e-01 1.791455e-01 1.943485e-01 2.115331e-01 2.306810e-01 2.517600e-01 2.752142e-01 3.010569e-01 3.304027e-01 3.624468e-01 4.010030e-01 4.331310e-01 4.317938e-01 4.031519e-01 3.764190e-01 3.502909e-01 3.260086e-01 3.024016e-01 2.800045e-01 2.589441e-01 2.398592e-01 2.231284e-01 2.091134e-01 1.978674e-01 1.893105e-01 1.831517e-01 1.790498e-01 1.766549e-01 1.757306e-01 1.761753e-01 1.780362e-01 1.815164e-01 1.869180e-01 1.946151e-01 2.048996e-01 2.179527e-01 2.337284e-01 2.519965e-01 2.723175e-01 2.941218e-01 3.170806e-01 3.407355e-01 3.657885e-01 3.918261e-01 4.217845e-01 4.382224e-01 4.166350e-01 3.781968e-01 3.442486e-01 3.136294e-01 2.863486e-01 2.616604e-01 2.393460e-01 2.190827e-01 2.007939e-01 1.845463e-01 1.705274e-01 1.590373e-01 1.503676e-01 1.448061e-01 
1.460470e-01 1.473013e-01 1.520954e-01 1.601947e-01 1.713156e-01 1.850894e-01 2.012134e-01 2.193897e-01 2.395423e-01 2.616328e-01 2.860041e-01 3.127598e-01 3.427287e-01 3.755363e-01 4.140124e-01 4.419915e-01 4.338504e-01 4.052864e-01 3.799811e-01 3.547744e-01 3.306235e-01 3.065348e-01 2.832258e-01 2.609335e-01 2.404531e-01 2.222365e-01 2.067402e-01 1.940711e-01 1.842116e-01 1.769369e-01 1.719685e-01 1.690095e-01 1.678579e-01 1.684284e-01 1.707604e-01 1.750255e-01 1.814785e-01 1.904355e-01 2.021160e-01 2.166566e-01 2.339386e-01 2.536977e-01 2.753479e-01 2.983193e-01 3.219578e-01 3.459530e-01 3.703202e-01 3.956258e-01 4.228409e-01 4.434422e-01 4.289698e-01 3.919641e-01 3.566332e-01 3.254315e-01 2.970993e-01 2.715266e-01 2.481552e-01 2.269142e-01 2.076277e-01 1.904819e-01 1.756450e-01 1.634848e-01 1.543009e-01 1.484198e-01 
1.486018e-01 1.499421e-01 1.549841e-01 1.634804e-01 1.751282e-01 1.895402e-01 2.063810e-01 2.253427e-01 2.462886e-01 2.692218e-01 2.943418e-01 3.219825e-01 3.524606e-01 3.862570e-01 4.239268e-01 4.477532e-01 4.352946e-01 4.082280e-01 3.835411e-01 3.591398e-01 3.349783e-01 3.105498e-01 2.865024e-01 2.632405e-01 2.416464e-01 2.222550e-01 2.055968e-01 1.918239e-01 1.809649e-01 1.728351e-01 1.672047e-01 1.638152e-01 1.624903e-01 1.631556e-01 1.658462e-01 1.707106e-01 1.779695e-01 1.878956e-01 2.006636e-01 2.163836e-01 2.348770e-01 2.558687e-01 2.786195e-01 3.025989e-01 3.268477e-01 3.512565e-01 3.751927e-01 3.998889e-01 4.248667e-01 4.470690e-01 4.378066e-01 4.023682e-01 3.662445e-01 3.345364e-01 3.053451e-01 2.790372e-01 2.548113e-01 2.328006e-01 2.127348e-01 1.948977e-01 1.794322e-01 1.667602e-01 1.571836e-01 1.510598e-01 
1.501619e-01 1.515568e-01 1.567559e-01 1.655037e-01 1.774856e-01 1.923042e-01 2.096021e-01 2.290714e-01 2.505302e-01 2.740295e-01 2.996494e-01 3.279394e-01 3.587737e-01 3.933752e-01 4.301807e-01 4.509837e-01 4.363481e-01 4.107663e-01 3.862522e-01 3.623194e-01 3.380684e-01 3.134377e-01 2.889136e-01 2.650463e-01 2.427336e-01 2.225743e-01 2.051673e-01 1.906890e-01 1.791969e-01 1.705276e-01 1.644797e-01 1.608188e-01 1.593846e-01 1.601090e-01 1.630247e-01 1.682665e-01 1.760334e-01 1.865724e-01 2.000342e-01 2.165185e-01 2.358029e-01 2.575944e-01 2.810509e-01 3.056836e-01 3.303245e-01 3.550052e-01 3.786714e-01 4.028805e-01 4.265990e-01 4.493720e-01 4.432829e-01 4.091250e-01 3.726449e-01 3.404748e-01 3.106630e-01 2.838169e-01 2.590084e-01 2.364868e-01 2.159151e-01 1.976357e-01 1.817703e-01 1.687747e-01 1.589500e-01 1.526733e-01 
1.506897e-01 1.521041e-01 1.573579e-01 1.661931e-01 1.782911e-01 1.932515e-01 2.107094e-01 2.303580e-01 2.520004e-01 2.757074e-01 3.015183e-01 3.300629e-01 3.610631e-01 3.959969e-01 4.324031e-01 4.519793e-01 4.366366e-01 4.116190e-01 3.871483e-01 3.633893e-01 3.391095e-01 3.144279e-01 2.897547e-01 2.656918e-01 2.431394e-01 2.227207e-01 2.050584e-01 1.903408e-01 1.786342e-01 1.697823e-01 1.635923e-01 1.598390e-01 1.583675e-01 1.591122e-01 1.621050e-01 1.674757e-01 1.754161e-01 1.861650e-01 1.998670e-01 2.166213e-01 2.361830e-01 2.582564e-01 2.819640e-01 3.068288e-01 3.316136e-01 3.563989e-01 3.799876e-01 4.040369e-01 4.273435e-01 4.502315e-01 4.451690e-01 4.114962e-01 3.748977e-01 3.425307e-01 3.124955e-01 2.854531e-01 2.604409e-01 2.377415e-01 2.169961e-01 1.985651e-01 1.825632e-01 1.694569e-01 1.595477e-01 1.532189e-01 
1.501619e-01 1.515568e-01 1.567559e-01 1.655037e-01 1.774856e-01 1.923042e-01 2.096021e-01 2.290714e-01 2.505302e-01 2.740295e-01 2.996494e-01 3.279394e-01 3.587737e-01 3.933752e-01 4.301807e-01 4.509837e-01 4.363481e-01 4.107663e-01 3.862522e-01 3.623194e-01 3.380684e-01 3.134377e-01 2.889136e-01 2.650463e-01 2.427336e-01 2.225743e-01 2.051673e-01 1.906890e-01 1.791969e-01 1.705276e-01 1.644797e-01 1.608188e-01 1.593846e-01 1.601090e-01 1.630247e-01 1.682665e-01 1.760334e-01 1.865724e-01 2.000342e-01 2.165185e-01 2.358029e-01 2.575944e-01 2.810509e-01 3.056836e-01 3.303245e-01 3.550052e-01 3.786714e-01 4.028805e-01 4.265990e-01 4.493720e-01 4.432829e-01 4.091250e-01 3.726449e-01 3.404748e-01 3.106630e-01 2.838169e-01 2.590084e-01 2.364868e-01 2.159151e-01 1.976357e-01 1.817703e-01 1.687747e-01 1.589500e-01 1.526733e-01 
1.486018e-01 1.499421e-01 1.549841e-01 1.634804e-01 1.751282e-01 1.895402e-01 2.063810e-01 2.253427e-01 2.462886e-01 2.692218e-01 2.943418e-01 3.219825e-01 3.524606e-01 3.862570e-01 4.239268e-01 4.477532e-01 4.352946e-01 4.082280e-01 3.835411e-01 3.591398e-01 3.349783e-01 3.105498e-01 2.865024e-01 2.632405e-01 2.416464e-01 2.222550e-01 2.055968e-01 1.918239e-01 1.809649e-01 1.728351e-01 1.672047e-01 1.638152e-01 1.624903e-01 1.631556e-01 1.658462e-01 1.707106e-01 1.779695e-01 1.878956e-01 2.006636e-01 2.163836e-01 2.348770e-01 2.558687e-01 2.786195e-01 3.025989e-01 3.268477e-01 3.512565e-01 3.751927e-01 3.998889e-01 4.248667e-01 4.470690e-01 4.378066e-01 4.023682e-01 3.662445e-01 3.345364e-01 3.053451e-01 2.790372e-01 2.548113e-01 2.328006e-01 2.127348e-01 1.948977e-01 1.794322e-01 1.667602e-01 1.571836e-01 1.510598e-01 