# vtk DataFile Version 2.0
Comment goes here
ASCII

DATASET STRUCTURED_POINTS
FIELD FieldData 1
TIME 1 1 double
1.04000000
DIMENSIONS    64   64   1

ORIGIN    0.000   0.000   0.000
SPACING   0.015625 0.015625   1.000

POINT_DATA   4096
SCALARS Concentration double
LOOKUP_TABLE default

2.074250e-03 2.105614e-03 2.207610e-03 2.382413e-03 2.633965e-03 2.968206e-03 3.393563e-03 3.921272e-03 4.566087e-03 5.346687e-03 6.286396e-03 7.413354e-03 8.760640e-03 1.036558e-02 1.226828e-02 1.450944e-02 1.712621e-02 2.014861e-02 2.359250e-02 2.745665e-02 3.171433e-02 3.631555e-02 4.117985e-02 4.620738e-02 5.127403e-02 5.624694e-02 6.097809e-02 6.532293e-02 6.913557e-02 7.228387e-02 7.464889e-02 7.613484e-02 7.667308e-02 7.622513e-02 7.482006e-02 7.252358e-02 6.942883e-02 6.565354e-02 6.132970e-02 5.660408e-02 5.162372e-02 4.653887e-02 4.148674e-02 3.659335e-02 3.196229e-02 2.767507e-02 2.378426e-02 2.031647e-02 1.727389e-02 1.463988e-02 1.238437e-02 1.046940e-02 8.853859e-03 7.497138e-03 6.361503e-03 5.413673e-03 4.625210e-03 3.972782e-03 3.437518e-03 3.004736e-03 2.663077e-03 2.404197e-03 2.222082e-03 2.112837e-03 
2.143798e-03 2.175797e-03 2.279998e-03 2.458566e-03 2.715432e-03 3.056531e-03 3.490296e-03 4.027997e-03 4.684448e-03 5.478459e-03 6.433531e-03 7.578106e-03 8.945649e-03 1.057406e-02 1.250413e-02 1.477750e-02 1.743241e-02 2.050027e-02 2.399840e-02 2.792733e-02 3.226201e-02 3.695413e-02 4.192460e-02 4.707488e-02 5.228270e-02 5.741353e-02 6.231518e-02 6.683645e-02 7.082202e-02 7.412741e-02 7.662068e-02 7.819258e-02 7.876534e-02 7.829477e-02 7.681381e-02 7.439638e-02 7.114848e-02 6.720108e-02 6.269890e-02 5.779910e-02 5.265611e-02 4.742513e-02 4.224593e-02 3.724300e-02 3.251845e-02 2.815236e-02 2.419548e-02 2.067258e-02 1.758400e-02 1.491149e-02 1.262354e-02 1.068101e-02 9.041852e-03 7.664714e-03 6.511293e-03 5.547907e-03 4.745823e-03 4.081522e-03 3.536011e-03 3.094549e-03 2.745748e-03 2.481260e-03 2.295078e-03 2.183325e-03 
2.354130e-03 2.388035e-03 2.498852e-03 2.688720e-03 2.961527e-03 3.323188e-03 3.782148e-03 4.349761e-03 5.041028e-03 5.875093e-03 6.876014e-03 8.073045e-03 9.500824e-03 1.119882e-02 1.320990e-02 1.557832e-02 1.834559e-02 2.154702e-02 2.520438e-02 2.932329e-02 3.388373e-02 3.884273e-02 4.412520e-02 4.963650e-02 5.525641e-02 6.084708e-02 6.624443e-02 7.127879e-02 7.576714e-02 7.952951e-02 8.239569e-02 8.421757e-02 8.489049e-02 8.435442e-02 8.265276e-02 7.988367e-02 7.619021e-02 7.174233e-02 6.672136e-02 6.131497e-02 5.569843e-02 5.004112e-02 4.448852e-02 3.916362e-02 3.416471e-02 2.956742e-02 2.541695e-02 2.173241e-02 1.850879e-02 1.572294e-02 1.333930e-02 1.131526e-02 9.606078e-03 8.168238e-03 6.961859e-03 5.952046e-03 5.109261e-03 4.409428e-03 3.833227e-03 3.365740e-03 2.995507e-03 2.714179e-03 2.515781e-03 2.396486e-03 
2.710571e-03 2.747657e-03 2.869571e-03 3.078400e-03 3.377966e-03 3.774153e-03 4.275427e-03 4.893287e-03 5.643035e-03 6.544380e-03 7.622256e-03 8.907266e-03 1.043589e-02 1.225017e-02 1.439622e-02 1.692254e-02 1.987565e-02 2.329712e-02 2.721554e-02 3.164453e-02 3.657177e-02 4.196252e-02 4.774782e-02 5.383862e-02 6.011610e-02 6.643671e-02 7.261878e-02 7.846446e-02 8.374809e-02 8.823401e-02 9.169167e-02 9.391061e-02 9.474317e-02 9.410348e-02 9.205199e-02 8.872563e-02 8.432679e-02 7.908698e-02 7.324502e-02 6.703583e-02 6.066682e-02 5.432918e-02 4.817697e-02 4.233330e-02 3.689090e-02 3.191856e-02 2.745268e-02 2.350363e-02 2.005794e-02 1.708492e-02 1.454254e-02 1.238280e-02 1.055668e-02 9.017229e-03 7.722030e-03 6.634270e-03 5.723095e-03 4.963538e-03 4.335744e-03 3.824508e-03 3.418248e-03 3.108614e-03 2.889676e-03 2.757695e-03 
3.222081e-03 3.263635e-03 3.401216e-03 3.636843e-03 3.974247e-03 4.419281e-03 4.980447e-03 5.669449e-03 6.502007e-03 7.498583e-03 8.685297e-03 1.009450e-02 1.176513e-02 1.374250e-02 1.607697e-02 1.882238e-02 2.203171e-02 2.575427e-02 3.002727e-02 3.487410e-02 4.029195e-02 4.625628e-02 5.270555e-02 5.955805e-02 6.669585e-02 7.397034e-02 8.117850e-02 8.808889e-02 9.442075e-02 9.986546e-02 1.041102e-01 1.068595e-01 1.079056e-01 1.071286e-01 1.046108e-01 1.005433e-01 9.520930e-02 8.892427e-02 8.200267e-02 7.474108e-02 6.738650e-02 6.015728e-02 5.321691e-02 4.668877e-02 4.065844e-02 3.518583e-02 3.029632e-02 2.598913e-02 2.224044e-02 1.900992e-02 1.624766e-02 1.389868e-02 1.190865e-02 1.022616e-02 8.805560e-03 7.607509e-03 6.599458e-03 5.755250e-03 5.054324e-03 4.481076e-03 4.023758e-03 3.674011e-03 3.425963e-03 3.275992e-03 
3.901342e-03 3.948665e-03 4.106641e-03 4.377197e-03 4.763965e-03 5.272778e-03 5.912214e-03 6.694267e-03 7.635211e-03 8.756470e-03 1.008563e-02 1.165717e-02 1.351294e-02 1.570217e-02 1.828011e-02 2.130682e-02 2.484252e-02 2.894532e-02 3.366169e-02 3.902577e-02 4.504431e-02 5.170342e-02 5.894836e-02 6.670488e-02 7.485481e-02 8.324380e-02 9.164681e-02 9.979789e-02 1.073556e-01 1.139270e-01 1.191023e-01 1.224808e-01 1.237820e-01 1.228428e-01 1.197732e-01 1.148304e-01 1.083972e-01 1.008883e-01 9.270560e-02 8.421488e-02 7.570542e-02 6.742600e-02 5.954981e-02 5.220293e-02 4.546284e-02 3.938027e-02 3.396867e-02 2.921543e-02 2.508540e-02 2.152776e-02 1.848371e-02 1.589050e-02 1.368767e-02 1.181867e-02 1.023408e-02 8.891566e-03 7.756540e-03 6.801383e-03 6.004643e-03 5.350199e-03 4.826062e-03 4.423835e-03 4.137701e-03 3.964175e-03 
4.764389e-03 4.818807e-03 5.002089e-03 5.316074e-03 5.764256e-03 6.352498e-03 7.089501e-03 7.987668e-03 9.063978e-03 1.034103e-02 1.184813e-02 1.362217e-02 1.570830e-02 1.815991e-02 2.103763e-02 2.440792e-02 2.833872e-02 3.289680e-02 3.813799e-02 4.410622e-02 5.081674e-02 5.826424e-02 6.639829e-02 7.515111e-02 8.440351e-02 9.399984e-02 1.036958e-01 1.131977e-01 1.221015e-01 1.299226e-01 1.361388e-01 1.402259e-01 1.418147e-01 1.406945e-01 1.370050e-01 1.310837e-01 1.234299e-01 1.145741e-01 1.050127e-01 9.518494e-02 8.541874e-02 7.599256e-02 6.708633e-02 5.882804e-02 5.128718e-02 4.450627e-02 3.848848e-02 3.320982e-02 2.862494e-02 2.467231e-02 2.128466e-02 1.839094e-02 1.592457e-02 1.382341e-02 1.203406e-02 1.051084e-02 9.216898e-03 8.122911e-03 7.206345e-03 6.450434e-03 5.842838e-03 5.375091e-03 5.041397e-03 4.838432e-03 
5.830737e-03 5.893619e-03 6.107409e-03 6.473857e-03 6.996336e-03 7.680751e-03 8.536037e-03 9.575174e-03 1.081608e-02 1.228278e-02 1.400663e-02 1.602724e-02 1.839332e-02 2.116270e-02 2.440155e-02 2.818302e-02 3.258259e-02 3.767589e-02 4.352707e-02 5.018897e-02 5.768204e-02 6.600608e-02 7.510876e-02 8.492434e-02 9.532649e-02 1.061570e-01 1.171545e-01 1.280096e-01 1.382654e-01 1.473494e-01 1.546287e-01 1.594443e-01 1.613317e-01 1.600258e-01 1.557012e-01 1.487829e-01 1.398959e-01 1.296859e-01 1.187384e-01 1.075576e-01 9.650020e-02 8.587660e-02 7.587371e-02 6.662816e-02 5.820359e-02 5.063858e-02 4.392913e-02 3.804255e-02 3.292472e-02 2.850425e-02 2.470578e-02 2.145004e-02 1.866430e-02 1.628066e-02 1.424160e-02 1.249783e-02 1.101000e-02 9.746774e-03 8.684323e-03 7.805014e-03 7.096017e-03 6.548700e-03 6.157243e-03 5.918486e-03 
7.122512e-03 7.195300e-03 7.445176e-03 7.873807e-03 8.484432e-03 9.283122e-03 1.027911e-02 1.148618e-02 1.292350e-02 1.461690e-02 1.660014e-02 1.891582e-02 2.161657e-02 2.476469e-02 2.843220e-02 3.269862e-02 3.764751e-02 4.336239e-02 4.991569e-02 5.736611e-02 6.573601e-02 7.502268e-02 8.516223e-02 9.608190e-02 1.076395e-01 1.196778e-01 1.319255e-01 1.440813e-01 1.556456e-01 1.659640e-01 1.742931e-01 1.798344e-01 1.820201e-01 1.805314e-01 1.755784e-01 1.676798e-01 1.575890e-01 1.460668e-01 1.337794e-01 1.212855e-01 1.089541e-01 9.712524e-02 8.598938e-02 7.569680e-02 6.631157e-02 5.787507e-02 5.038406e-02 4.380010e-02 3.806435e-02 3.309583e-02 2.881249e-02 2.512646e-02 2.195939e-02 1.923731e-02 1.689866e-02 1.489023e-02 1.316992e-02 1.170409e-02 1.046724e-02 9.440634e-03 8.610700e-03 7.968534e-03 7.508201e-03 7.226720e-03 
8.664646e-03 8.748908e-03 9.041035e-03 9.542601e-03 1.025672e-02 1.118973e-02 1.235141e-02 1.375666e-02 1.542624e-02 1.738836e-02 1.967980e-02 2.234658e-02 2.544573e-02 2.904433e-02 3.322066e-02 3.806133e-02 4.365851e-02 5.010504e-02 5.748121e-02 6.585170e-02 7.523543e-02 8.562073e-02 9.691785e-02 1.090334e-01 1.217808e-01 1.349897e-01 1.483691e-01 1.616556e-01 1.743366e-01 1.856977e-01 1.949263e-01 2.010973e-01 2.035499e-01 2.019017e-01 1.964116e-01 1.876832e-01 1.765827e-01 1.639507e-01 1.504988e-01 1.368058e-01 1.232286e-01 1.101593e-01 9.780379e-02 8.635367e-02 7.588173e-02 6.644316e-02 5.804303e-02 5.064197e-02 4.417836e-02 3.856174e-02 3.370301e-02 2.950484e-02 2.588294e-02 2.275672e-02 2.006040e-02 1.773638e-02 1.573945e-02 1.403307e-02 1.258966e-02 1.138886e-02 1.041609e-02 9.661989e-03 9.120374e-03 8.788411e-03 
1.048317e-02 1.058069e-02 1.092204e-02 1.150870e-02 1.234360e-02 1.343355e-02 1.478908e-02 1.642675e-02 1.836954e-02 2.064855e-02 2.330445e-02 2.638744e-02 2.995967e-02 3.409350e-02 3.887479e-02 4.439809e-02 5.076731e-02 5.808559e-02 6.644481e-02 7.591214e-02 8.650098e-02 9.817569e-02 1.108011e-01 1.242345e-01 1.382021e-01 1.525216e-01 1.668964e-01 1.811552e-01 1.947847e-01 2.070052e-01 2.169642e-01 2.236462e-01 2.263196e-01 2.245455e-01 2.186357e-01 2.092539e-01 1.973391e-01 1.837828e-01 1.693276e-01 1.545527e-01 1.397738e-01 1.254371e-01 1.117552e-01 9.899365e-02 8.725765e-02 7.663150e-02 6.714689e-02 5.876665e-02 5.143221e-02 4.504042e-02 3.949473e-02 3.468520e-02 3.052069e-02 2.691265e-02 2.379054e-02 2.109170e-02 1.876709e-02 1.677662e-02 1.508974e-02 1.368414e-02 1.254365e-02 1.165824e-02 1.102125e-02 1.063003e-02 
1.260520e-02 1.271810e-02 1.311684e-02 1.380281e-02 1.477870e-02 1.605195e-02 1.763425e-02 1.954441e-02 2.180863e-02 2.446197e-02 2.754985e-02 3.112762e-02 3.526413e-02 4.003800e-02 4.554510e-02 5.189107e-02 5.919610e-02 6.757976e-02 7.714794e-02 8.797388e-02 1.000571e-01 1.133321e-01 1.275943e-01 1.426247e-01 1.579930e-01 1.734558e-01 1.886513e-01 2.035871e-01 2.178150e-01 2.304968e-01 2.408470e-01 2.478162e-01 2.506371e-01 2.487907e-01 2.426686e-01 2.329621e-01 2.206361e-01 2.065522e-01 1.914276e-01 1.757459e-01 1.597180e-01 1.439360e-01 1.286606e-01 1.142969e-01 1.009974e-01 8.889462e-02 7.806065e-02 6.846820e-02 6.006339e-02 5.272658e-02 4.634914e-02 4.080286e-02 3.598684e-02 3.180165e-02 2.817110e-02 2.502597e-02 2.231250e-02 1.998593e-02 1.801206e-02 1.636566e-02 1.502826e-02 1.398884e-02 1.323999e-02 1.277926e-02 
1.505592e-02 1.518689e-02 1.565291e-02 1.645522e-02 1.759616e-02 1.908409e-02 2.093216e-02 2.316243e-02 2.580530e-02 2.890140e-02 3.250240e-02 3.666975e-02 4.148052e-02 4.702211e-02 5.340436e-02 6.074919e-02 6.920271e-02 7.890598e-02 8.998763e-02 1.025164e-01 1.164767e-01 1.317415e-01 1.480141e-01 1.649184e-01 1.817505e-01 1.982694e-01 2.141470e-01 2.296854e-01 2.444725e-01 2.574610e-01 2.679458e-01 2.749717e-01 2.778400e-01 2.759826e-01 2.698544e-01 2.600886e-01 2.475487e-01 2.330365e-01 2.173191e-01 2.008141e-01 1.836051e-01 1.663591e-01 1.492663e-01 1.329567e-01 1.177183e-01 1.037508e-01 9.121163e-02 8.008893e-02 7.034792e-02 6.184408e-02 5.445126e-02 4.801277e-02 4.241202e-02 3.753441e-02 3.329550e-02 2.961789e-02 2.644189e-02 2.371726e-02 2.140439e-02 1.947432e-02 1.790523e-02 1.668481e-02 1.580446e-02 1.526201e-02 
1.785792e-02 1.801039e-02 1.855601e-02 1.949560e-02 2.083101e-02 2.257183e-02 2.473318e-02 2.734142e-02 3.043270e-02 3.405462e-02 3.826742e-02 4.313994e-02 4.875961e-02 5.522481e-02 6.266735e-02 7.123378e-02 8.110912e-02 9.246581e-02 1.054514e-01 1.201216e-01 1.364110e-01 1.541332e-01 1.728690e-01 1.920865e-01 2.108690e-01 2.287435e-01 2.451215e-01 2.608262e-01 2.757509e-01 2.886164e-01 2.989048e-01 3.057959e-01 3.086514e-01 3.068021e-01 3.008199e-01 2.912591e-01 2.788976e-01 2.644300e-01 2.486292e-01 2.315513e-01 2.129202e-01 1.937652e-01 1.744411e-01 1.557518e-01 1.381136e-01 1.218080e-01 1.071076e-01 9.404411e-02 8.262002e-02 7.266491e-02 6.402637e-02 5.650416e-02 4.995697e-02 4.424671e-02 3.927763e-02 3.496229e-02 3.123413e-02 2.803557e-02 2.532020e-02 2.305410e-02 2.121092e-02 1.977657e-02 1.874081e-02 1.810178e-02 
2.102731e-02 2.120575e-02 2.184632e-02 2.294935e-02 2.451549e-02 2.655616e-02 2.908877e-02 3.214549e-02 3.576943e-02 4.001746e-02 4.495945e-02 5.067401e-02 5.726102e-02 6.483376e-02 7.355628e-02 8.361545e-02 9.525350e-02 1.086784e-01 1.240507e-01 1.413575e-01 1.604627e-01 1.810566e-01 2.026934e-01 2.244088e-01 2.447831e-01 2.635893e-01 2.806377e-01 2.970650e-01 3.127458e-01 3.258585e-01 3.357766e-01 3.420966e-01 3.446486e-01 3.429828e-01 3.374946e-01 3.283511e-01 3.159477e-01 3.008946e-01 2.842728e-01 2.663804e-01 2.468865e-01 2.263982e-01 2.048057e-01 1.833162e-01 1.628458e-01 1.436761e-01 1.262842e-01 1.107718e-01 9.723084e-02 8.547092e-02 7.530620e-02 6.647367e-02 5.879013e-02 5.208279e-02 4.623952e-02 4.116154e-02 3.677304e-02 3.300880e-02 2.981352e-02 2.714751e-02 2.497835e-02 2.328985e-02 2.206929e-02 2.131572e-02 
2.457201e-02 2.478230e-02 2.553703e-02 2.683601e-02 2.867792e-02 3.107622e-02 3.405117e-02 3.764210e-02 4.190079e-02 4.689459e-02 5.270521e-02 5.942051e-02 6.715796e-02 7.604869e-02 8.630877e-02 9.818272e-02 1.119955e-01 1.279866e-01 1.462873e-01 1.667440e-01 1.890259e-01 2.126892e-01 2.370392e-01 2.612666e-01 2.847877e-01 3.061376e-01 3.238083e-01 3.388043e-01 3.516507e-01 3.615766e-01 3.685290e-01 3.726645e-01 3.741920e-01 3.731573e-01 3.695374e-01 3.631525e-01 3.538248e-01 3.416181e-01 3.268031e-01 3.090142e-01 2.875389e-01 2.639759e-01 2.399049e-01 2.158043e-01 1.923031e-01 1.698430e-01 1.492271e-01 1.307064e-01 1.145401e-01 1.005547e-01 8.853437e-02 7.812885e-02 6.909359e-02 6.120066e-02 5.431712e-02 4.832862e-02 4.315048e-02 3.870920e-02 3.493961e-02 3.179543e-02 2.923659e-02 2.724438e-02 2.580306e-02 2.491307e-02 
2.848828e-02 2.873799e-02 2.963091e-02 3.116593e-02 3.333911e-02 3.616560e-02 3.966878e-02 4.389678e-02 4.891046e-02 5.478946e-02 6.162619e-02 6.951937e-02 7.860472e-02 8.904463e-02 1.011273e-01 1.151895e-01 1.316568e-01 1.507894e-01 1.726346e-01 1.967877e-01 2.226526e-01 2.496164e-01 2.776109e-01 3.039501e-01 3.261924e-01 3.432501e-01 3.542233e-01 3.603246e-01 3.637099e-01 3.657641e-01 3.670214e-01 3.677458e-01 3.679085e-01 3.676862e-01 3.669114e-01 3.656652e-01 3.636992e-01 3.607630e-01 3.553113e-01 3.450638e-01 3.289111e-01 3.074789e-01 2.818852e-01 2.540714e-01 2.270504e-01 2.008321e-01 1.764224e-01 1.542687e-01 1.348850e-01 1.181816e-01 1.039208e-01 9.164927e-02 8.102536e-02 7.174442e-02 6.363663e-02 5.657146e-02 5.045373e-02 4.520464e-02 4.074796e-02 3.703150e-02 3.400591e-02 3.164974e-02 2.994420e-02 2.889140e-02 
3.275833e-02 3.305714e-02 3.411757e-02 3.593730e-02 3.850850e-02 4.184774e-02 4.598088e-02 5.096617e-02 5.687348e-02 6.379435e-02 7.183151e-02 8.109096e-02 9.173605e-02 1.039685e-01 1.181961e-01 1.348635e-01 1.545295e-01 1.774239e-01 2.034596e-01 2.319241e-01 2.621019e-01 2.924274e-01 3.192532e-01 3.384401e-01 3.475451e-01 3.483353e-01 3.449897e-01 3.412357e-01 3.384557e-01 3.371236e-01 3.367890e-01 3.367737e-01 3.366740e-01 3.365537e-01 3.362753e-01 3.362846e-01 3.372064e-01 3.397426e-01 3.437018e-01 3.474468e-01 3.478609e-01 3.405405e-01 3.233788e-01 2.978118e-01 2.678036e-01 2.370406e-01 2.082447e-01 1.818263e-01 1.585835e-01 1.386005e-01 1.216622e-01 1.071919e-01 9.472685e-02 8.384178e-02 7.431433e-02 6.598904e-02 5.876272e-02 5.255474e-02 4.727888e-02 4.287891e-02 3.929464e-02 3.650291e-02 3.448130e-02 3.323445e-02 
3.734994e-02 3.770977e-02 3.897310e-02 4.113550e-02 4.418359e-02 4.813485e-02 5.301549e-02 5.889478e-02 6.584909e-02 7.398115e-02 8.339843e-02 9.421529e-02 1.066269e-01 1.209083e-01 1.376160e-01 1.573508e-01 1.807717e-01 2.080252e-01 2.387844e-01 2.719245e-01 3.045228e-01 3.299512e-01 3.417675e-01 3.399190e-01 3.298968e-01 3.187111e-01 3.109429e-01 3.074922e-01 3.066446e-01 3.070700e-01 3.077069e-01 3.080097e-01 3.079831e-01 3.077582e-01 3.071844e-01 3.063421e-01 3.057157e-01 3.062083e-01 3.093822e-01 3.167826e-01 3.278935e-01 3.384626e-01 3.423664e-01 3.334450e-01 3.103138e-01 2.784303e-01 2.449667e-01 2.136474e-01 1.858651e-01 1.619897e-01 1.418730e-01 1.248427e-01 1.102657e-01 9.756453e-02 8.642138e-02 7.664913e-02 6.813336e-02 6.080072e-02 5.455677e-02 4.934613e-02 4.509685e-02 4.178642e-02 3.938848e-02 3.791122e-02 
4.221339e-02 4.264867e-02 4.415589e-02 4.672768e-02 5.034214e-02 5.501726e-02 6.077515e-02 6.769665e-02 7.585917e-02 8.537456e-02 9.634961e-02 1.089061e-01 1.232952e-01 1.398902e-01 1.594674e-01 1.827596e-01 2.105173e-01 2.425963e-01 2.780931e-01 3.124789e-01 3.354528e-01 3.399453e-01 3.288571e-01 3.124426e-01 2.978361e-01 2.870751e-01 2.804594e-01 2.776964e-01 2.773502e-01 2.782040e-01 2.792721e-01 2.799297e-01 2.800577e-01 2.797033e-01 2.788256e-01 2.775733e-01 2.765529e-01 2.766555e-01 2.794050e-01 2.858601e-01 2.961177e-01 3.097994e-01 3.260001e-01 3.388115e-01 3.381244e-01 3.187116e-01 2.857067e-01 2.497352e-01 2.169108e-01 1.884926e-01 1.646468e-01 1.446368e-01 1.276629e-01 1.129284e-01 9.998132e-02 8.857624e-02 7.858537e-02 6.995271e-02 6.257906e-02 5.641797e-02 5.138533e-02 4.746342e-02 4.462142e-02 4.287320e-02 
4.728660e-02 4.781401e-02 4.961180e-02 5.266773e-02 5.694813e-02 6.246905e-02 6.924369e-02 7.736177e-02 8.689387e-02 9.795715e-02 1.106493e-01 1.251069e-01 1.416611e-01 1.608436e-01 1.836603e-01 2.110330e-01 2.435572e-01 2.804533e-01 3.166479e-01 3.382469e-01 3.373757e-01 3.206810e-01 3.003804e-01 2.823885e-01 2.679718e-01 2.576588e-01 2.517658e-01 2.496577e-01 2.498377e-01 2.510991e-01 2.524415e-01 2.533048e-01 2.535336e-01 2.531309e-01 2.521237e-01 2.506777e-01 2.493812e-01 2.491002e-01 2.512070e-01 2.568321e-01 2.665818e-01 2.801156e-01 2.972420e-01 3.169578e-01 3.348834e-01 3.401362e-01 3.232109e-01 2.885723e-01 2.513017e-01 2.179611e-01 1.898459e-01 1.664532e-01 1.468022e-01 1.298440e-01 1.149307e-01 1.017312e-01 9.009051e-02 7.998522e-02 7.131639e-02 6.405763e-02 5.811572e-02 5.348183e-02 5.012228e-02 4.805877e-02 
5.249017e-02 5.312851e-02 5.526706e-02 5.888661e-02 6.393643e-02 7.042795e-02 7.835699e-02 8.781961e-02 9.886419e-02 1.116142e-01 1.261439e-01 1.426259e-01 1.615131e-01 1.835107e-01 2.099720e-01 2.417890e-01 2.789125e-01 3.166479e-01 3.396370e-01 3.370055e-01 3.174173e-01 2.941987e-01 2.729310e-01 2.550788e-01 2.413419e-01 2.318001e-01 2.262314e-01 2.239930e-01 2.238827e-01 2.248342e-01 2.259942e-01 2.268089e-01 2.270606e-01 2.266900e-01 2.257922e-01 2.245811e-01 2.236453e-01 2.237169e-01 2.259424e-01 2.312456e-01 2.402652e-01 2.531018e-01 2.699729e-01 2.902435e-01 3.128055e-01 3.338454e-01 3.415085e-01 3.238151e-01 2.877431e-01 2.498593e-01 2.171387e-01 1.900129e-01 1.674759e-01 1.481255e-01 1.311139e-01 1.159881e-01 1.025433e-01 9.080899e-02 8.068685e-02 7.218769e-02 6.521114e-02 5.976431e-02 5.581226e-02 5.338855e-02 
5.773856e-02 5.850795e-02 6.103988e-02 6.530443e-02 7.122851e-02 7.881336e-02 8.802872e-02 9.896946e-02 1.116459e-01 1.261833e-01 1.426228e-01 1.611895e-01 1.825012e-01 2.074149e-01 2.376475e-01 2.740945e-01 3.134320e-01 3.403262e-01 3.395716e-01 3.184146e-01 2.930730e-01 2.693461e-01 2.485220e-01 2.313078e-01 2.180154e-01 2.086563e-01 2.029628e-01 2.002794e-01 1.996380e-01 2.001219e-01 2.009623e-01 2.016280e-01 2.018592e-01 2.015665e-01 2.008705e-01 2.000147e-01 1.995592e-01 2.001622e-01 2.027666e-01 2.081423e-01 2.169532e-01 2.293947e-01 2.456292e-01 2.653941e-01 2.881868e-01 3.132999e-01 3.364051e-01 3.430266e-01 3.215878e-01 2.829449e-01 2.457136e-01 2.147518e-01 1.892445e-01 1.674455e-01 1.482676e-01 1.311409e-01 1.157805e-01 1.022905e-01 9.057807e-02 8.070781e-02 7.257920e-02 6.622177e-02 6.160430e-02 5.877630e-02 
6.293121e-02 6.385271e-02 6.682875e-02 7.181448e-02 7.870752e-02 8.749294e-02 9.810094e-02 1.106202e-01 1.249929e-01 1.413586e-01 1.596833e-01 1.803194e-01 2.040040e-01 2.317663e-01 2.659550e-01 3.058433e-01 3.391473e-01 3.450323e-01 3.245914e-01 2.968909e-01 2.708636e-01 2.477245e-01 2.276347e-01 2.110154e-01 1.980164e-01 1.885790e-01 1.824098e-01 1.789498e-01 1.774525e-01 1.771606e-01 1.774311e-01 1.777658e-01 1.779063e-01 1.777407e-01 1.773995e-01 1.771198e-01 1.774168e-01 1.788454e-01 1.821728e-01 1.879996e-01 1.969054e-01 2.091245e-01 2.248538e-01 2.439825e-01 2.662419e-01 2.915743e-01 3.190297e-01 3.426663e-01 3.435628e-01 3.149363e-01 2.753160e-01 2.401175e-01 2.116390e-01 1.873660e-01 1.659871e-01 1.468509e-01 1.295109e-01 1.141935e-01 1.007943e-01 8.945687e-02 8.008295e-02 7.273443e-02 6.738923e-02 6.411831e-02 
6.796933e-02 6.906339e-02 7.252952e-02 7.830237e-02 8.624463e-02 9.631669e-02 1.083989e-01 1.225622e-01 1.386573e-01 1.568401e-01 1.769801e-01 1.996188e-01 2.256600e-01 2.561431e-01 2.947259e-01 3.337341e-01 3.507111e-01 3.358836e-01 3.066935e-01 2.782157e-01 2.527516e-01 2.302997e-01 2.108513e-01 1.945476e-01 1.814728e-01 1.715813e-01 1.646562e-01 1.602495e-01 1.577901e-01 1.566496e-01 1.562801e-01 1.562294e-01 1.562479e-01 1.562208e-01 1.562685e-01 1.566167e-01 1.577234e-01 1.600673e-01 1.642777e-01 1.708301e-01 1.801972e-01 1.925609e-01 2.080767e-01 2.266594e-01 2.482978e-01 2.729363e-01 3.006823e-01 3.302508e-01 3.503884e-01 3.406958e-01 3.045231e-01 2.653130e-01 2.339090e-01 2.073276e-01 1.838280e-01 1.627454e-01 1.434283e-01 1.262620e-01 1.111277e-01 9.826228e-02 8.757906e-02 7.917852e-02 7.305704e-02 6.931156e-02 
7.274406e-02 7.402894e-02 7.802025e-02 8.462630e-02 9.366902e-02 1.050768e-01 1.186692e-01 1.344901e-01 1.522649e-01 1.721822e-01 1.939102e-01 2.183895e-01 2.462660e-01 2.798464e-01 3.209515e-01 3.514067e-01 3.500758e-01 3.223264e-01 2.921076e-01 2.642711e-01 2.395109e-01 2.175538e-01 1.983372e-01 1.819384e-01 1.684323e-01 1.578102e-01 1.499232e-01 1.444381e-01 1.409109e-01 1.388261e-01 1.377288e-01 1.372223e-01 1.370855e-01 1.372087e-01 1.376974e-01 1.387486e-01 1.407575e-01 1.441256e-01 1.493670e-01 1.568601e-01 1.669717e-01 1.798251e-01 1.955066e-01 2.139459e-01 2.351144e-01 2.591119e-01 2.861404e-01 3.161222e-01 3.456902e-01 3.547972e-01 3.307471e-01 2.900130e-01 2.549155e-01 2.266678e-01 2.011039e-01 1.782572e-01 1.570480e-01 1.380992e-01 1.212637e-01 1.068715e-01 9.486805e-02 8.539193e-02 7.847382e-02 7.424022e-02 
7.715576e-02 7.864470e-02 8.317855e-02 9.063372e-02 1.007956e-01 1.135463e-01 1.286525e-01 1.461052e-01 1.655027e-01 1.870518e-01 2.101290e-01 2.362239e-01 2.652340e-01 3.025599e-01 3.431420e-01 3.604398e-01 3.428454e-01 3.118465e-01 2.820524e-01 2.553196e-01 2.310568e-01 2.093100e-01 1.899252e-01 1.730617e-01 1.588147e-01 1.472394e-01 1.382587e-01 1.316276e-01 1.270077e-01 1.239747e-01 1.221463e-01 1.211802e-01 1.208800e-01 1.211483e-01 1.220718e-01 1.238237e-01 1.267393e-01 1.311596e-01 1.375103e-01 1.460880e-01 1.571688e-01 1.708073e-01 1.870173e-01 2.056845e-01 2.267001e-01 2.502282e-01 2.761244e-01 3.054055e-01 3.358545e-01 3.600934e-01 3.509290e-01 3.134165e-01 2.748851e-01 2.451861e-01 2.175867e-01 1.930277e-01 1.700383e-01 1.493858e-01 1.309325e-01 1.150573e-01 1.017665e-01 9.122667e-02 8.351874e-02 7.879948e-02 
8.110047e-02 8.279608e-02 8.786500e-02 9.614892e-02 1.074029e-01 1.214512e-01 1.380309e-01 1.570463e-01 1.780366e-01 2.011153e-01 2.255019e-01 2.529028e-01 2.826865e-01 3.224177e-01 3.587729e-01 3.631043e-01 3.355844e-01 3.058294e-01 2.768732e-01 2.509331e-01 2.268468e-01 2.049289e-01 1.850417e-01 1.674272e-01 1.522390e-01 1.395858e-01 1.294552e-01 1.216730e-01 1.159767e-01 1.120176e-01 1.094750e-01 1.080572e-01 1.075936e-01 1.079999e-01 1.093465e-01 1.117825e-01 1.155916e-01 1.210643e-01 1.285516e-01 1.382864e-01 1.504746e-01 1.651060e-01 1.821323e-01 2.013552e-01 2.226000e-01 2.459006e-01 2.710598e-01 2.990845e-01 3.284235e-01 3.593654e-01 3.634460e-01 3.331324e-01 2.931750e-01 2.616070e-01 2.324843e-01 2.063248e-01 1.818638e-01 1.596785e-01 1.397891e-01 1.225450e-01 1.080609e-01 9.651670e-02 8.806089e-02 8.287952e-02 
8.448770e-02 8.638010e-02 9.194879e-02 1.009996e-01 1.132663e-01 1.285086e-01 1.464646e-01 1.669249e-01 1.894730e-01 2.139989e-01 2.398600e-01 2.683703e-01 2.992273e-01 3.388814e-01 3.685118e-01 3.621632e-01 3.319880e-01 3.034076e-01 2.755424e-01 2.499625e-01 2.258563e-01 2.035099e-01 1.829406e-01 1.644297e-01 1.482208e-01 1.344653e-01 1.232133e-01 1.143412e-01 1.076462e-01 1.028374e-01 9.964281e-02 9.781329e-02 9.719860e-02 9.772805e-02 9.945899e-02 1.025224e-01 1.071593e-01 1.136182e-01 1.221956e-01 1.330721e-01 1.464051e-01 1.621196e-01 1.801240e-01 2.001076e-01 2.218671e-01 2.452108e-01 2.700850e-01 2.969222e-01 3.255864e-01 3.564779e-01 3.709962e-01 3.486340e-01 3.093569e-01 2.754992e-01 2.454017e-01 2.178402e-01 1.922190e-01 1.686967e-01 1.475711e-01 1.291104e-01 1.135657e-01 1.011159e-01 9.198518e-02 8.638522e-02 
8.723059e-02 8.929597e-02 9.529886e-02 1.050107e-01 1.181536e-01 1.344207e-01 1.535784e-01 1.752841e-01 1.992556e-01 2.250528e-01 2.524669e-01 2.818833e-01 3.144112e-01 3.522917e-01 3.746133e-01 3.598777e-01 3.304929e-01 3.025766e-01 2.759902e-01 2.507253e-01 2.266429e-01 2.038323e-01 1.825900e-01 1.632032e-01 1.460397e-01 1.312788e-01 1.190320e-01 1.092113e-01 1.016592e-01 9.612704e-02 9.237924e-02 9.020074e-02 8.945797e-02 9.009264e-02 9.215219e-02 9.575223e-02 1.011015e-01 1.084174e-01 1.179580e-01 1.298641e-01 1.442614e-01 1.610148e-01 1.800086e-01 2.008057e-01 2.232063e-01 2.467467e-01 2.715605e-01 2.974358e-01 3.252512e-01 3.538733e-01 3.750731e-01 3.602483e-01 3.225675e-01 2.868761e-01 2.561115e-01 2.274020e-01 2.008371e-01 1.761804e-01 1.540238e-01 1.345359e-01 1.181000e-01 1.048830e-01 9.518108e-02 8.922586e-02 
8.925661e-02 9.145758e-02 9.779776e-02 1.080197e-01 1.218397e-01 1.388929e-01 1.589804e-01 1.816370e-01 2.067256e-01 2.334820e-01 2.621378e-01 2.921630e-01 3.260888e-01 3.620257e-01 3.781366e-01 3.579087e-01 3.301135e-01 3.028849e-01 2.773314e-01 2.522899e-01 2.282168e-01 2.049875e-01 1.831746e-01 1.630506e-01 1.451031e-01 1.295284e-01 1.164908e-01 1.059251e-01 9.770724e-02 9.161666e-02 8.744353e-02 8.499703e-02 8.415564e-02 8.487152e-02 8.718434e-02 9.119897e-02 9.710191e-02 1.050883e-01 1.153918e-01 1.281235e-01 1.433907e-01 1.610065e-01 1.808407e-01 2.023387e-01 2.253010e-01 2.490180e-01 2.737236e-01 2.987712e-01 3.254987e-01 3.524971e-01 3.769220e-01 3.679191e-01 3.322314e-01 2.958738e-01 2.644813e-01 2.348471e-01 2.074431e-01 1.818628e-01 1.588880e-01 1.386061e-01 1.214888e-01 1.076858e-01 9.754885e-02 9.132337e-02 
9.050334e-02 9.279080e-02 9.934617e-02 1.098926e-01 1.241437e-01 1.416954e-01 1.623750e-01 1.856360e-01 2.114458e-01 2.388292e-01 2.682777e-01 2.987126e-01 3.331898e-01 3.677294e-01 3.798363e-01 3.568393e-01 3.299414e-01 3.032940e-01 2.784101e-01 2.535462e-01 2.294996e-01 2.060029e-01 1.838247e-01 1.632199e-01 1.447670e-01 1.286691e-01 1.151287e-01 1.040930e-01 9.545807e-02 8.901945e-02 8.458221e-02 8.196968e-02 8.106768e-02 8.183487e-02 8.430617e-02 8.858048e-02 9.483161e-02 1.032422e-01 1.140324e-01 1.272955e-01 1.431293e-01 1.613103e-01 1.817000e-01 2.036555e-01 2.269723e-01 2.507637e-01 2.752973e-01 2.997173e-01 3.255697e-01 3.518570e-01 3.778396e-01 3.725568e-01 3.385548e-01 3.022141e-01 2.701680e-01 2.398242e-01 2.117366e-01 1.854998e-01 1.619652e-01 1.411628e-01 1.236055e-01 1.094276e-01 9.901320e-02 9.261556e-02 
9.092634e-02 9.324401e-02 9.987314e-02 1.105305e-01 1.249285e-01 1.426498e-01 1.635308e-01 1.869988e-01 2.130634e-01 2.406772e-01 2.704295e-01 3.010480e-01 3.356554e-01 3.696049e-01 3.803117e-01 3.565120e-01 3.298726e-01 3.034820e-01 2.788518e-01 2.540699e-01 2.300390e-01 2.064501e-01 1.841407e-01 1.633630e-01 1.447278e-01 1.284424e-01 1.147227e-01 1.035202e-01 9.473830e-02 8.817736e-02 8.364758e-02 8.097680e-02 8.005336e-02 8.083813e-02 8.336468e-02 8.772948e-02 9.410261e-02 1.026621e-01 1.136245e-01 1.270765e-01 1.431133e-01 1.614985e-01 1.820904e-01 2.042153e-01 2.276645e-01 2.514927e-01 2.759768e-01 3.002082e-01 3.257927e-01 3.518713e-01 3.781208e-01 3.739813e-01 3.406759e-01 3.044590e-01 2.721343e-01 2.415260e-01 2.131847e-01 1.867185e-01 1.629948e-01 1.420200e-01 1.243165e-01 1.100140e-01 9.950723e-02 9.305258e-02 
9.050334e-02 9.279080e-02 9.934617e-02 1.098926e-01 1.241437e-01 1.416954e-01 1.623750e-01 1.856360e-01 2.114458e-01 2.388292e-01 2.682777e-01 2.987126e-01 3.331898e-01 3.677294e-01 3.798363e-01 3.568393e-01 3.299414e-01 3.032940e-01 2.784101e-01 2.535462e-01 2.294996e-01 2.060029e-01 1.838247e-01 1.632199e-01 1.447670e-01 1.286691e-01 1.151287e-01 1.040930e-01 9.545807e-02 8.901945e-02 8.458221e-02 8.196968e-02 8.106768e-02 8.183487e-02 8.430617e-02 8.858048e-02 9.483161e-02 1.032422e-01 1.140324e-01 1.272955e-01 1.431293e-01 1.613103e-01 1.817000e-01 2.036555e-01 2.269723e-01 2.507637e-01 2.752973e-01 2.997173e-01 3.255697e-01 3.518570e-01 3.778396e-01 3.725568e-01 3.385548e-01 3.022141e-01 2.701680e-01 2.398242e-01 2.117366e-01 1.854998e-01 1.619652e-01 1.411628e-01 1.236055e-01 1.094276e-01 9.901320e-02 9.261556e-02 
8.925661e-02 9.145758e-02 9.779776e-02 1.080197e-01 1.218397e-01 1.388929e-01 1.589804e-01 1.816370e-01 2.067256e-01 2.334820e-01 2.621378e-01 2.921630e-01 3.260888e-01 3.620257e-01 3.781366e-01 3.579087e-01 3.301135e-01 3.028849e-01 2.773314e-01 2.522899e-01 2.282168e-01 2.049875e-01 1.831746e-01 1.630506e-01 1.451031e-01 1.295284e-01 1.164908e-01 1.059251e-01 9.770724e-02 9.161666e-02 8.744353e-02 8.499703e-02 8.415564e-02 8.487152e-02 8.718434e-02 9.119897e-02 9.710191e-02 1.050883e-01 1.153918e-01 1.281235e-01 1.433907e-01 1.610065e-01 1.808407e-01 2.023387e-01 2.253010e-01 2.490180e-01 2.737236e-01 2.987712e-01 3.254987e-01 3.524971e-01 3.769220e-01 3.679191e-01 3.322314e-01 2.958738e-01 2.644813e-01 2.348471e-01 2.074431e-01 1.818628e-01 1.588880e-01 1.386061e-01 1.214888e-01 1.076858e-01 9.754885e-02 9.132337e-02 