# vtk DataFile Version 2.0
Comment goes here
ASCII

DATASET STRUCTURED_POINTS
FIELD FieldData 1
TIME 1 1 double
0.64000000
DIMENSIONS    64   64   1

ORIGIN    0.000   0.000   0.000
SPACING   0.015625 0.015625   1.000

POINT_DATA   4096
SCALARS Concentration double
LOOKUP_TABLE default

1.616672e-04 1.687952e-04 1.907806e-04 2.283807e-04 2.829190e-04 3.562488e-04 4.507006e-04 5.690985e-04 7.147412e-04 8.915380e-04 1.104103e-03 1.358123e-03 1.660645e-03 2.020729e-03 2.449838e-03 2.962580e-03 3.576684e-03 4.313038e-03 5.193865e-03 6.241749e-03 7.475856e-03 8.908899e-03 1.054124e-02 1.235798e-02 1.432366e-02 1.638299e-02 1.845994e-02 2.046407e-02 2.229537e-02 2.385353e-02 2.504607e-02 2.579730e-02 2.605625e-02 2.580329e-02 2.505741e-02 2.386904e-02 2.231341e-02 2.048346e-02 1.847933e-02 1.640177e-02 1.434115e-02 1.237414e-02 1.055607e-02 8.922671e-03 7.488822e-03 6.254109e-03 5.205773e-03 4.324513e-03 3.587737e-03 2.973126e-03 2.459808e-03 2.030008e-03 1.669166e-03 1.365807e-03 1.110924e-03 8.974768e-04 7.198220e-04 5.733514e-04 4.541839e-04 3.590188e-04 2.850417e-04 2.299112e-04 1.917695e-04 1.692780e-04 
1.737035e-04 1.813202e-04 2.048182e-04 2.449949e-04 3.032419e-04 3.815033e-04 4.822127e-04 6.083038e-04 7.631796e-04 9.508493e-04 1.176017e-03 1.444472e-03 1.763387e-03 2.142031e-03 2.592203e-03 3.129080e-03 3.771312e-03 4.541315e-03 5.462459e-03 6.559000e-03 7.852008e-03 9.356321e-03 1.107413e-02 1.299204e-02 1.507486e-02 1.726626e-02 1.948684e-02 2.164038e-02 2.361840e-02 2.530968e-02 2.660985e-02 2.743178e-02 2.771617e-02 2.743999e-02 2.662532e-02 2.533062e-02 2.364253e-02 2.166593e-02 1.951201e-02 1.729017e-02 1.509669e-02 1.301177e-02 1.109186e-02 9.372459e-03 7.866932e-03 6.573023e-03 5.475813e-03 4.554075e-03 3.783529e-03 3.140695e-03 2.603157e-03 2.152209e-03 1.772722e-03 1.452882e-03 1.183479e-03 9.573413e-04 7.687303e-04 6.129470e-04 4.860132e-04 3.845236e-04 3.055548e-04 2.466618e-04 2.058948e-04 1.818458e-04 
2.104505e-04 2.195540e-04 2.476554e-04 2.956764e-04 3.652181e-04 4.585066e-04 5.782929e-04 7.278535e-04 9.109158e-04 1.131805e-03 1.395512e-03 1.708150e-03 2.077295e-03 2.512868e-03 3.027688e-03 3.638628e-03 4.366934e-03 5.239064e-03 6.282168e-03 7.525473e-03 8.995782e-03 1.071414e-02 1.268846e-02 1.490978e-02 1.734450e-02 1.993342e-02 2.258812e-02 2.519520e-02 2.762100e-02 2.972040e-02 3.135189e-02 3.239210e-02 3.275520e-02 3.240736e-02 3.138045e-02 2.975851e-02 2.766426e-02 2.524005e-02 2.263124e-02 1.997322e-02 1.737961e-02 1.494041e-02 1.271496e-02 1.073745e-02 9.016664e-03 7.544584e-03 6.299971e-03 5.255801e-03 4.382764e-03 3.653559e-03 3.041690e-03 2.525830e-03 2.089151e-03 1.718812e-03 1.404956e-03 1.140011e-03 9.179219e-04 7.337060e-04 5.830762e-04 4.623022e-04 3.681206e-04 2.977654e-04 2.490032e-04 2.202116e-04 
2.744068e-04 2.860802e-04 3.221436e-04 3.837368e-04 4.728288e-04 5.921403e-04 7.449813e-04 9.352300e-04 1.167188e-03 1.445737e-03 1.776377e-03 2.165789e-03 2.622262e-03 3.156837e-03 3.784088e-03 4.523716e-03 5.401191e-03 6.449619e-03 7.702672e-03 9.197757e-03 1.097094e-02 1.305346e-02 1.546235e-02 1.819629e-02 2.122425e-02 2.448349e-02 2.787144e-02 3.124758e-02 3.443710e-02 3.723710e-02 3.944116e-02 4.086073e-02 4.136133e-02 4.088897e-02 3.949379e-02 3.730657e-02 3.451521e-02 3.132749e-02 2.794704e-02 2.455185e-02 2.128300e-02 1.824613e-02 1.550422e-02 1.308930e-02 1.100225e-02 9.225810e-03 7.728330e-03 6.473396e-03 5.423432e-03 4.544526e-03 3.803486e-03 3.174720e-03 2.638569e-03 2.180421e-03 1.789314e-03 1.456961e-03 1.176756e-03 9.432106e-04 7.514931e-04 5.972992e-04 4.767675e-04 3.865677e-04 3.239680e-04 2.869698e-04 
3.697626e-04 3.852269e-04 4.330472e-04 5.146922e-04 6.326841e-04 7.904891e-04 9.922600e-04 1.242785e-03 1.547234e-03 1.911333e-03 2.341351e-03 2.844833e-03 3.431125e-03 4.112923e-03 4.907321e-03 5.838046e-03 6.936468e-03 8.244714e-03 9.805933e-03 1.166845e-02 1.388051e-02 1.648671e-02 1.951614e-02 2.297777e-02 2.684505e-02 3.105180e-02 3.547910e-02 3.995099e-02 4.423703e-02 4.805041e-02 5.108854e-02 5.306439e-02 5.376750e-02 5.311265e-02 5.117839e-02 4.816814e-02 4.436864e-02 4.008455e-02 3.560408e-02 3.116314e-02 2.693879e-02 2.305560e-02 1.958024e-02 1.654072e-02 1.392710e-02 1.170979e-02 9.843397e-03 8.279159e-03 6.968468e-03 5.867819e-03 4.934948e-03 4.138307e-03 3.454214e-03 2.865514e-03 2.359610e-03 1.927154e-03 1.560705e-03 1.254007e-03 1.001404e-03 7.977235e-04 6.381995e-04 5.186513e-04 4.355959e-04 3.864686e-04 
5.022484e-04 5.229085e-04 5.868600e-04 6.960356e-04 8.537351e-04 1.064476e-03 1.333603e-03 1.667197e-03 2.071666e-03 2.553952e-03 3.121444e-03 3.782927e-03 4.549272e-03 5.435453e-03 6.461992e-03 7.657835e-03 9.061868e-03 1.072693e-02 1.270915e-02 1.506925e-02 1.786912e-02 2.116818e-02 2.500822e-02 2.941008e-02 3.435152e-02 3.976560e-02 4.551588e-02 5.139009e-02 5.709605e-02 6.224176e-02 6.639589e-02 6.912830e-02 7.011050e-02 6.920514e-02 6.653887e-02 6.242756e-02 5.730277e-02 5.159897e-02 4.570980e-02 3.993622e-02 3.449232e-02 2.952478e-02 2.510137e-02 2.124618e-02 1.793637e-02 1.512894e-02 1.276322e-02 1.077655e-02 9.107839e-03 7.700450e-03 6.501393e-03 5.471547e-03 4.582026e-03 3.812213e-03 3.147264e-03 2.576299e-03 2.090672e-03 1.683011e-03 1.346474e-03 1.074647e-03 8.614792e-04 7.015882e-04 5.904310e-04 5.246472e-04 
6.789291e-04 7.063991e-04 7.915244e-04 9.368672e-04 1.146780e-03 1.427211e-03 1.785130e-03 2.228403e-03 2.765166e-03 3.404072e-03 4.154118e-03 5.025869e-03 6.032335e-03 7.191566e-03 8.528469e-03 1.007839e-02 1.188876e-02 1.402416e-02 1.655619e-02 1.955800e-02 2.310354e-02 2.726564e-02 3.209636e-02 3.762715e-02 4.384083e-02 5.067243e-02 5.797595e-02 6.550668e-02 7.291078e-02 7.966963e-02 8.519324e-02 8.886921e-02 9.020383e-02 8.898322e-02 8.540545e-02 7.994319e-02 7.321439e-02 6.581259e-02 5.825738e-02 5.091625e-02 4.403707e-02 3.778380e-02 3.222260e-02 2.737193e-02 2.319643e-02 1.964148e-02 1.663248e-02 1.409442e-02 1.195390e-02 1.013865e-02 8.584047e-03 7.242350e-03 6.078326e-03 5.066925e-03 4.190274e-03 3.435334e-03 2.791731e-03 2.250488e-03 1.803086e-03 1.441384e-03 1.157560e-03 9.445883e-04 7.964852e-04 7.088125e-04 
9.080317e-04 9.441523e-04 1.056212e-03 1.247605e-03 1.524073e-03 1.893464e-03 2.364926e-03 2.948741e-03 3.655425e-03 4.496048e-03 5.481929e-03 6.626202e-03 7.944940e-03 9.460295e-03 1.120277e-02 1.321505e-02 1.555369e-02 1.829332e-02 2.152346e-02 2.532676e-02 2.978486e-02 3.497727e-02 4.095905e-02 4.776667e-02 5.538015e-02 6.374291e-02 7.269729e-02 8.198552e-02 9.122401e-02 9.977914e-02 1.068930e-01 1.117133e-01 1.134919e-01 1.118736e-01 1.071907e-01 1.001576e-01 9.164219e-02 8.240668e-02 7.308076e-02 6.406850e-02 5.563336e-02 4.796410e-02 4.111832e-02 3.511437e-02 2.990848e-02 2.544058e-02 2.162913e-02 1.839137e-02 1.564479e-02 1.329919e-02 1.128014e-02 9.530771e-03 8.008603e-03 6.682920e-03 5.531802e-03 4.539118e-03 3.691985e-03 2.979103e-03 2.389585e-03 1.912907e-03 1.538844e-03 1.258174e-03 1.062996e-03 9.474503e-04 
1.198656e-03 1.245478e-03 1.390913e-03 1.639433e-03 1.998568e-03 2.478645e-03 3.091675e-03 3.851179e-03 4.770934e-03 5.865401e-03 7.149257e-03 8.639378e-03 1.035620e-02 1.232738e-02 1.459035e-02 1.719597e-02 2.020938e-02 2.371310e-02 2.780669e-02 3.258393e-02 3.812327e-02 4.450134e-02 5.176288e-02 5.993943e-02 6.900227e-02 7.890270e-02 8.949499e-02 1.005262e-01 1.115930e-01 1.219318e-01 1.306261e-01 1.366106e-01 1.388547e-01 1.368208e-01 1.310163e-01 1.224220e-01 1.121348e-01 1.010706e-01 8.998050e-02 7.930135e-02 6.929684e-02 6.016289e-02 5.194745e-02 4.466885e-02 3.828286e-02 3.273621e-02 2.795096e-02 2.384814e-02 2.033494e-02 1.731164e-02 1.469635e-02 1.242361e-02 1.044289e-02 8.716450e-03 7.216925e-03 5.923764e-03 4.820422e-03 3.892235e-03 3.124981e-03 2.504876e-03 2.018472e-03 1.653657e-03 1.400033e-03 1.249908e-03 
1.560650e-03 1.620414e-03 1.806267e-03 2.124046e-03 2.583536e-03 3.198234e-03 3.983850e-03 4.958198e-03 6.139462e-03 7.546855e-03 9.199892e-03 1.112089e-02 1.333658e-02 1.588209e-02 1.880373e-02 2.216131e-02 2.602820e-02 3.049026e-02 3.564287e-02 4.159111e-02 4.840379e-02 5.613945e-02 6.482209e-02 7.446107e-02 8.499318e-02 9.638346e-02 1.084408e-01 1.209275e-01 1.335159e-01 1.453943e-01 1.555598e-01 1.627250e-01 1.654827e-01 1.629874e-01 1.560437e-01 1.459865e-01 1.341667e-01 1.215825e-01 1.090104e-01 9.683029e-02 8.529868e-02 7.468687e-02 6.502310e-02 5.634058e-02 4.861039e-02 4.179567e-02 3.583980e-02 3.067528e-02 2.619973e-02 2.231849e-02 1.894701e-02 1.601156e-02 1.345278e-02 1.122390e-02 9.290132e-03 7.624551e-03 6.205244e-03 5.012693e-03 4.027997e-03 3.232954e-03 2.609843e-03 2.142821e-03 1.818290e-03 1.626248e-03 
2.004311e-03 2.079382e-03 2.313112e-03 2.713016e-03 3.291663e-03 4.066509e-03 5.057972e-03 6.289456e-03 7.785058e-03 9.570563e-03 1.167239e-02 1.412073e-02 1.695134e-02 2.020964e-02 2.395347e-02 2.825287e-02 3.318871e-02 3.884623e-02 4.530874e-02 5.266021e-02 6.097179e-02 7.027877e-02 8.056681e-02 9.180999e-02 1.038784e-01 1.167150e-01 1.301518e-01 1.439836e-01 1.578746e-01 1.708180e-01 1.817355e-01 1.894104e-01 1.923880e-01 1.897036e-01 1.822794e-01 1.714765e-01 1.586106e-01 1.447216e-01 1.307608e-01 1.171615e-01 1.041510e-01 9.201181e-02 8.078432e-02 7.053011e-02 6.124909e-02 5.294071e-02 4.557918e-02 3.909824e-02 3.342027e-02 2.846336e-02 2.414411e-02 2.038100e-02 1.710456e-02 1.425613e-02 1.179074e-02 9.672254e-03 7.871005e-03 6.360536e-03 5.115454e-03 4.111640e-03 3.325797e-03 2.737339e-03 2.328663e-03 2.086917e-03 
2.540505e-03 2.633327e-03 2.922618e-03 3.417910e-03 4.135089e-03 5.096458e-03 6.328267e-03 7.861082e-03 9.726765e-03 1.196006e-02 1.459703e-02 1.767907e-02 2.125482e-02 2.538403e-02 3.014007e-02 3.560573e-02 4.187033e-02 4.901563e-02 5.711214e-02 6.621111e-02 7.634979e-02 8.756845e-02 9.984161e-02 1.130720e-01 1.270257e-01 1.416302e-01 1.563862e-01 1.709388e-01 1.852581e-01 1.985342e-01 2.097910e-01 2.177719e-01 2.208988e-01 2.180866e-01 2.103688e-01 1.991926e-01 1.860072e-01 1.717134e-01 1.570063e-01 1.420616e-01 1.272526e-01 1.132557e-01 1.001122e-01 8.791747e-02 7.674431e-02 6.660577e-02 5.748463e-02 4.935664e-02 4.217948e-02 3.588407e-02 3.039029e-02 2.560760e-02 2.145376e-02 1.785420e-02 1.474962e-02 1.209083e-02 9.837022e-03 7.952062e-03 6.401676e-03 5.153967e-03 4.178490e-03 3.448773e-03 2.942314e-03 2.642857e-03 
3.180469e-03 3.293467e-03 3.645952e-03 4.249780e-03 5.124672e-03 6.298675e-03 7.805101e-03 9.683499e-03 1.197575e-02 1.472859e-02 1.799137e-02 2.182118e-02 2.628481e-02 3.146187e-02 3.744718e-02 4.433941e-02 5.223878e-02 6.122087e-02 7.134248e-02 8.262856e-02 9.508475e-02 1.087194e-01 1.235004e-01 1.393010e-01 1.556117e-01 1.720726e-01 1.884237e-01 2.043619e-01 2.194219e-01 2.322523e-01 2.421383e-01 2.488224e-01 2.513926e-01 2.491159e-01 2.426425e-01 2.328203e-01 2.202027e-01 2.051801e-01 1.890132e-01 1.724859e-01 1.558295e-01 1.395215e-01 1.239057e-01 1.092460e-01 9.565868e-02 8.317977e-02 7.184489e-02 6.167156e-02 5.264261e-02 4.470034e-02 3.776994e-02 3.174887e-02 2.653916e-02 2.204423e-02 1.818507e-02 1.489408e-02 1.211487e-02 9.797967e-03 7.897197e-03 6.370622e-03 5.178820e-03 4.288189e-03 3.670407e-03 3.305277e-03 
3.936341e-03 4.071901e-03 4.495004e-03 5.220080e-03 6.271071e-03 7.682620e-03 9.496301e-03 1.176266e-02 1.453616e-02 1.787925e-02 2.185899e-02 2.655398e-02 3.205567e-02 3.847088e-02 4.592226e-02 5.452926e-02 6.440342e-02 7.561442e-02 8.820697e-02 1.021871e-01 1.175659e-01 1.343228e-01 1.524495e-01 1.715737e-01 1.913735e-01 2.114618e-01 2.298597e-01 2.451672e-01 2.576305e-01 2.669344e-01 2.731970e-01 2.769989e-01 2.783780e-01 2.772168e-01 2.734890e-01 2.672016e-01 2.582240e-01 2.458885e-01 2.304121e-01 2.119755e-01 1.917047e-01 1.719456e-01 1.531010e-01 1.351126e-01 1.183659e-01 1.029224e-01 8.885765e-02 7.619214e-02 6.491905e-02 5.498932e-02 4.633248e-02 3.883420e-02 3.237621e-02 2.683380e-02 2.210094e-02 1.808514e-02 1.470857e-02 1.190400e-02 9.609606e-03 7.770830e-03 6.337236e-03 5.266869e-03 4.524714e-03 4.086219e-03 
4.820936e-03 4.981344e-03 5.482100e-03 6.340311e-03 7.584322e-03 9.256020e-03 1.140634e-02 1.409892e-02 1.740374e-02 2.140342e-02 2.618825e-02 3.186564e-02 3.856018e-02 4.641430e-02 5.558705e-02 6.622020e-02 7.844080e-02 9.230522e-02 1.078626e-01 1.251033e-01 1.440513e-01 1.647037e-01 1.870130e-01 2.104380e-01 2.333345e-01 2.525452e-01 2.654412e-01 2.727726e-01 2.765264e-01 2.779076e-01 2.779699e-01 2.776975e-01 2.775877e-01 2.777601e-01 2.779458e-01 2.777838e-01 2.766232e-01 2.730037e-01 2.656265e-01 2.530783e-01 2.339941e-01 2.111852e-01 1.880080e-01 1.658112e-01 1.450858e-01 1.260235e-01 1.086634e-01 9.301686e-02 7.908079e-02 6.679410e-02 5.609996e-02 4.686781e-02 3.895897e-02 3.221218e-02 2.648643e-02 2.165592e-02 1.761416e-02 1.427062e-02 1.154334e-02 9.362211e-03 7.663635e-03 6.396184e-03 5.517458e-03 4.998337e-03 
5.848564e-03 6.036098e-03 6.621302e-03 7.623872e-03 9.076362e-03 1.102825e-02 1.354057e-02 1.669219e-02 2.057164e-02 2.528686e-02 3.095775e-02 3.772929e-02 4.576833e-02 5.526240e-02 6.641176e-02 7.938183e-02 9.430536e-02 1.112374e-01 1.302325e-01 1.513117e-01 1.744569e-01 1.996350e-01 2.263274e-01 2.504329e-01 2.665427e-01 2.733707e-01 2.728625e-01 2.682671e-01 2.624503e-01 2.579593e-01 2.551818e-01 2.537021e-01 2.531878e-01 2.536392e-01 2.549548e-01 2.576144e-01 2.621318e-01 2.678954e-01 2.725077e-01 2.733464e-01 2.670083e-01 2.513050e-01 2.276037e-01 2.010018e-01 1.756750e-01 1.523986e-01 1.311877e-01 1.120988e-01 9.508988e-02 8.009053e-02 6.704671e-02 5.582258e-02 4.625868e-02 3.815286e-02 3.131992e-02 2.559163e-02 2.082406e-02 1.689698e-02 1.370304e-02 1.115351e-02 9.169440e-03 7.689141e-03 6.662440e-03 6.055809e-03 
7.034142e-03 7.251135e-03 7.927552e-03 9.085255e-03 1.076034e-02 1.300967e-02 1.590472e-02 1.954149e-02 2.403024e-02 2.951032e-02 3.613866e-02 4.410853e-02 5.363970e-02 6.497436e-02 7.835869e-02 9.397162e-02 1.119529e-01 1.323484e-01 1.553110e-01 1.808150e-01 2.086855e-01 2.376880e-01 2.622854e-01 2.736312e-01 2.723528e-01 2.630675e-01 2.518690e-01 2.430358e-01 2.363830e-01 2.320800e-01 2.294656e-01 2.280111e-01 2.274998e-01 2.278974e-01 2.291872e-01 2.317444e-01 2.360270e-01 2.424343e-01 2.513294e-01 2.625854e-01 2.721384e-01 2.738655e-01 2.632122e-01 2.390674e-01 2.100678e-01 1.820691e-01 1.564396e-01 1.333719e-01 1.128987e-01 9.483392e-02 7.913636e-02 6.566046e-02 5.423793e-02 4.462196e-02 3.657426e-02 2.987402e-02 2.432906e-02 1.978210e-02 1.609420e-02 1.315476e-02 1.086744e-02 9.159921e-03 7.974375e-03 7.273482e-03 
8.393796e-03 8.642956e-03 9.418098e-03 1.074248e-02 1.265437e-02 1.521721e-02 1.851246e-02 2.265500e-02 2.777997e-02 3.406486e-02 4.171210e-02 5.097509e-02 6.213787e-02 7.550433e-02 9.136358e-02 1.098881e-01 1.311945e-01 1.553640e-01 1.826389e-01 2.129405e-01 2.446514e-01 2.693203e-01 2.765037e-01 2.679268e-01 2.521125e-01 2.367993e-01 2.248337e-01 2.162687e-01 2.101890e-01 2.064542e-01 2.044079e-01 2.033850e-01 2.030353e-01 2.032716e-01 2.041658e-01 2.061564e-01 2.098321e-01 2.157625e-01 2.244750e-01 2.364243e-01 2.516087e-01 2.674795e-01 2.765028e-01 2.701154e-01 2.460368e-01 2.144017e-01 1.839985e-01 1.565918e-01 1.323296e-01 1.109294e-01 9.230814e-02 7.633757e-02 6.286111e-02 5.159097e-02 4.222970e-02 3.449283e-02 2.812817e-02 2.293276e-02 1.872921e-02 1.538175e-02 1.277485e-02 1.082586e-02 9.470064e-03 8.667645e-03 
9.942317e-03 1.022699e-02 1.110998e-02 1.261460e-02 1.477916e-02 1.767189e-02 2.138299e-02 2.604741e-02 3.182815e-02 3.894863e-02 4.766559e-02 5.830730e-02 7.123146e-02 8.681238e-02 1.053687e-01 1.270351e-01 1.518799e-01 1.800512e-01 2.121043e-01 2.463916e-01 2.727271e-01 2.780474e-01 2.644741e-01 2.440987e-01 2.250211e-01 2.094980e-01 1.980146e-01 1.902730e-01 1.852258e-01 1.823083e-01 1.808057e-01 1.801259e-01 1.799044e-01 1.800349e-01 1.806244e-01 1.820795e-01 1.849630e-01 1.899341e-01 1.977546e-01 2.092125e-01 2.245764e-01 2.434176e-01 2.637502e-01 2.778437e-01 2.735168e-01 2.479463e-01 2.136397e-01 1.814385e-01 1.531882e-01 1.282644e-01 1.065041e-01 8.782104e-02 7.210452e-02 5.904472e-02 4.827789e-02 3.944860e-02 3.222960e-02 2.636369e-02 2.162678e-02 1.785485e-02 1.491168e-02 1.270546e-02 1.116616e-02 1.025353e-02 
1.169316e-02 1.201794e-02 1.302115e-02 1.472427e-02 1.716248e-02 2.040611e-02 2.455164e-02 2.975490e-02 3.620930e-02 4.419258e-02 5.402510e-02 6.612393e-02 8.093023e-02 9.888522e-02 1.203305e-01 1.452935e-01 1.738024e-01 2.062026e-01 2.424282e-01 2.726167e-01 2.799034e-01 2.639679e-01 2.401491e-01 2.175255e-01 1.985284e-01 1.837522e-01 1.731235e-01 1.661060e-01 1.617840e-01 1.594445e-01 1.583690e-01 1.579635e-01 1.578491e-01 1.579007e-01 1.582483e-01 1.592862e-01 1.616011e-01 1.658787e-01 1.729225e-01 1.834930e-01 1.980976e-01 2.168246e-01 2.392223e-01 2.630611e-01 2.796462e-01 2.735543e-01 2.439931e-01 2.077770e-01 1.752937e-01 1.467208e-01 1.216774e-01 1.000935e-01 8.197562e-02 6.699983e-02 5.474280e-02 4.476996e-02 3.666554e-02 3.010877e-02 2.482019e-02 2.060471e-02 1.730435e-02 1.482039e-02 1.308003e-02 1.204560e-02 
1.365348e-02 1.402476e-02 1.516548e-02 1.709251e-02 1.983361e-02 2.345726e-02 2.806247e-02 3.382587e-02 4.097273e-02 4.984386e-02 6.082924e-02 7.445052e-02 9.122702e-02 1.116725e-01 1.361055e-01 1.644259e-01 1.965819e-01 2.332883e-01 2.678787e-01 2.819321e-01 2.672984e-01 2.410176e-01 2.150808e-01 1.926972e-01 1.743418e-01 1.603673e-01 1.504760e-01 1.440738e-01 1.402645e-01 1.382943e-01 1.374477e-01 1.371733e-01 1.371093e-01 1.371346e-01 1.373750e-01 1.381943e-01 1.401463e-01 1.439163e-01 1.502959e-01 1.600973e-01 1.739013e-01 1.920028e-01 2.141427e-01 2.399235e-01 2.663002e-01 2.818279e-01 2.690618e-01 2.350077e-01 1.982810e-01 1.660875e-01 1.377093e-01 1.131293e-01 9.248507e-02 7.549461e-02 6.166999e-02 5.050740e-02 4.148610e-02 3.421588e-02 2.835237e-02 2.366746e-02 1.998104e-02 1.719085e-02 1.522508e-02 1.405268e-02 
1.582377e-02 1.625089e-02 1.755394e-02 1.974142e-02 2.282807e-02 2.687575e-02 3.198036e-02 3.833924e-02 4.620830e-02 5.600140e-02 6.817652e-02 8.337459e-02 1.021695e-01 1.251363e-01 1.525471e-01 1.839672e-01 2.200120e-01 2.580223e-01 2.814477e-01 2.734761e-01 2.462436e-01 2.180034e-01 1.922921e-01 1.705803e-01 1.530436e-01 1.398308e-01 1.304891e-01 1.243988e-01 1.207649e-01 1.188581e-01 1.180236e-01 1.177403e-01 1.176785e-01 1.177169e-01 1.179793e-01 1.187912e-01 1.206765e-01 1.242665e-01 1.303055e-01 1.395391e-01 1.525874e-01 1.698973e-01 1.913914e-01 2.169171e-01 2.450602e-01 2.725348e-01 2.818110e-01 2.595364e-01 2.218906e-01 1.858186e-01 1.543948e-01 1.268517e-01 1.036586e-01 8.460333e-02 6.914932e-02 5.675316e-02 4.677578e-02 3.875944e-02 3.228454e-02 2.709064e-02 2.297519e-02 1.983764e-02 1.761164e-02 1.627803e-02 
1.818995e-02 1.868601e-02 2.018412e-02 2.267967e-02 2.616844e-02 3.069794e-02 3.635511e-02 4.335301e-02 5.197905e-02 6.272307e-02 7.611663e-02 9.292233e-02 1.137333e-01 1.391470e-01 1.692623e-01 2.032675e-01 2.424140e-01 2.752414e-01 2.803648e-01 2.561651e-01 2.257281e-01 1.973913e-01 1.725797e-01 1.516812e-01 1.349570e-01 1.222678e-01 1.132021e-01 1.071563e-01 1.034389e-01 1.013806e-01 1.003897e-01 9.999221e-02 9.989123e-02 9.997672e-02 1.003586e-01 1.013275e-01 1.033582e-01 1.070233e-01 1.129966e-01 1.219427e-01 1.344660e-01 1.509805e-01 1.716581e-01 1.962720e-01 2.244532e-01 2.547914e-01 2.797696e-01 2.762348e-01 2.443770e-01 2.053873e-01 1.713754e-01 1.411589e-01 1.154729e-01 9.434131e-02 7.721499e-02 6.354916e-02 5.258339e-02 4.378550e-02 3.665691e-02 3.090300e-02 2.630337e-02 2.276468e-02 2.023362e-02 1.870897e-02 
2.072408e-02 2.130462e-02 2.303789e-02 2.590081e-02 2.986296e-02 3.494864e-02 4.122717e-02 4.892043e-02 5.834203e-02 7.005850e-02 8.466410e-02 1.030521e-01 1.257467e-01 1.534733e-01 1.856730e-01 2.221584e-01 2.610762e-01 2.824977e-01 2.693667e-01 2.382485e-01 2.080909e-01 1.803689e-01 1.564173e-01 1.363064e-01 1.201392e-01 1.077200e-01 9.864684e-02 9.239289e-02 8.836552e-02 8.597075e-02 8.469031e-02 8.409494e-02 8.392537e-02 8.408073e-02 8.465982e-02 8.591490e-02 8.827373e-02 9.224007e-02 9.840733e-02 1.073523e-01 1.196026e-01 1.355675e-01 1.554539e-01 1.792171e-01 2.067358e-01 2.368426e-01 2.681691e-01 2.827276e-01 2.627746e-01 2.243648e-01 1.879046e-01 1.557146e-01 1.276907e-01 1.046235e-01 8.585225e-02 7.092502e-02 5.895236e-02 4.933787e-02 4.150342e-02 3.512492e-02 2.997093e-02 2.596376e-02 2.307204e-02 2.131980e-02 
2.337730e-02 2.406004e-02 2.607448e-02 2.937309e-02 3.389183e-02 3.962094e-02 4.660236e-02 5.505408e-02 6.530835e-02 7.799503e-02 9.376179e-02 1.136101e-01 1.379453e-01 1.676446e-01 2.012580e-01 2.400148e-01 2.742725e-01 2.807203e-01 2.550073e-01 2.231610e-01 1.934250e-01 1.668651e-01 1.437389e-01 1.242980e-01 1.084580e-01 9.605557e-02 8.675232e-02 8.010524e-02 7.562062e-02 7.277970e-02 7.113122e-02 7.029260e-02 7.003661e-02 7.027654e-02 7.109577e-02 7.271462e-02 7.551263e-02 7.992978e-02 8.648182e-02 9.565259e-02 1.078863e-01 1.235289e-01 1.427566e-01 1.657025e-01 1.920949e-01 2.218244e-01 2.535901e-01 2.801668e-01 2.754696e-01 2.421974e-01 2.036689e-01 1.700778e-01 1.400290e-01 1.152504e-01 9.496693e-02 7.883992e-02 6.587512e-02 5.541665e-02 4.682178e-02 3.974413e-02 3.395461e-02 2.940097e-02 2.608489e-02 2.406328e-02 
2.608460e-02 2.688820e-02 2.923254e-02 3.303966e-02 3.820491e-02 4.467292e-02 5.244777e-02 6.172652e-02 7.284963e-02 8.648536e-02 1.033342e-01 1.244464e-01 1.501711e-01 1.812878e-01 2.159138e-01 2.552720e-01 2.816667e-01 2.737876e-01 2.420828e-01 2.114392e-01 1.824421e-01 1.569340e-01 1.345089e-01 1.154889e-01 9.972345e-02 8.711545e-02 7.739948e-02 7.022388e-02 6.518022e-02 6.182216e-02 5.975839e-02 5.864941e-02 5.829781e-02 5.862999e-02 5.971557e-02 6.174577e-02 6.505609e-02 7.002898e-02 7.710643e-02 8.668912e-02 9.912843e-02 1.146929e-01 1.334927e-01 1.557022e-01 1.810191e-01 2.098693e-01 2.403644e-01 2.724376e-01 2.821773e-01 2.574183e-01 2.186518e-01 1.838300e-01 1.522709e-01 1.260200e-01 1.044482e-01 8.722369e-02 7.330920e-02 6.198599e-02 5.257409e-02 4.471594e-02 3.820274e-02 3.301870e-02 2.921050e-02 2.687526e-02 
2.875977e-02 2.970149e-02 3.242036e-02 3.680269e-02 4.269784e-02 4.999327e-02 5.864575e-02 6.880938e-02 8.082242e-02 9.535124e-02 1.131643e-01 1.352686e-01 1.621347e-01 1.940623e-01 2.296717e-01 2.671839e-01 2.840307e-01 2.652590e-01 2.323843e-01 2.027174e-01 1.748540e-01 1.501816e-01 1.283077e-01 1.094763e-01 9.359140e-02 8.061254e-02 7.036887e-02 6.258628e-02 5.693652e-02 5.303536e-02 5.054338e-02 4.915982e-02 4.871132e-02 4.913792e-02 5.049565e-02 5.295270e-02 5.680561e-02 6.238724e-02 7.007666e-02 8.019583e-02 9.301598e-02 1.087059e-01 1.273148e-01 1.489412e-01 1.733800e-01 2.009921e-01 2.305901e-01 2.636564e-01 2.841028e-01 2.690744e-01 2.322045e-01 1.962002e-01 1.638641e-01 1.365118e-01 1.140108e-01 9.586411e-02 8.109334e-02 6.890874e-02 5.863842e-02 4.992713e-02 4.261021e-02 3.671893e-02 3.235711e-02 2.966810e-02 
3.130484e-02 3.239688e-02 3.552185e-02 4.052667e-02 4.721169e-02 5.539824e-02 6.498769e-02 7.606958e-02 8.896510e-02 1.043002e-01 1.229092e-01 1.457141e-01 1.733909e-01 2.057425e-01 2.421229e-01 2.762772e-01 2.834888e-01 2.579474e-01 2.260849e-01 1.970673e-01 1.703179e-01 1.462315e-01 1.246948e-01 1.058300e-01 8.966359e-02 7.620107e-02 6.536329e-02 5.694346e-02 5.067922e-02 4.624056e-02 4.333007e-02 4.168101e-02 4.113952e-02 4.165804e-02 4.328079e-02 4.615785e-02 5.055224e-02 5.675716e-02 6.509792e-02 7.583228e-02 8.916295e-02 1.051641e-01 1.238349e-01 1.451402e-01 1.690029e-01 1.954995e-01 2.244804e-01 2.563333e-01 2.829896e-01 2.776024e-01 2.440384e-01 2.072315e-01 1.745480e-01 1.464867e-01 1.233766e-01 1.045066e-01 8.898692e-02 7.596555e-02 6.481536e-02 5.520083e-02 4.702310e-02 4.036976e-02 3.541098e-02 3.233998e-02 
3.360945e-02 3.485534e-02 3.839429e-02 4.403309e-02 5.152318e-02 6.061575e-02 7.115193e-02 8.314143e-02 9.687180e-02 1.129037e-01 1.321140e-01 1.553579e-01 1.834715e-01 2.160059e-01 2.525580e-01 2.827547e-01 2.817616e-01 2.527103e-01 2.223383e-01 1.940029e-01 1.681200e-01 1.444115e-01 1.230191e-01 1.039755e-01 8.743918e-02 7.345094e-02 6.201627e-02 5.298023e-02 4.613680e-02 4.119914e-02 3.790430e-02 3.601362e-02 3.538835e-02 3.599166e-02 3.785810e-02 4.112432e-02 4.602639e-02 5.282580e-02 6.180621e-02 7.317210e-02 8.707461e-02 1.035043e-01 1.224198e-01 1.436535e-01 1.672009e-01 1.928988e-01 2.211558e-01 2.513330e-01 2.808400e-01 2.834056e-01 2.539188e-01 2.169845e-01 1.841108e-01 1.556613e-01 1.321691e-01 1.127664e-01 9.661045e-02 8.280810e-02 7.079546e-02 6.027386e-02 5.122459e-02 4.379718e-02 3.823223e-02 3.477319e-02 
3.556318e-02 3.695318e-02 4.087971e-02 4.711200e-02 5.535676e-02 6.529778e-02 7.671678e-02 8.953873e-02 1.040062e-01 1.206046e-01 1.402294e-01 1.637015e-01 1.919452e-01 2.244580e-01 2.607295e-01 2.871854e-01 2.802383e-01 2.497790e-01 2.205988e-01 1.928806e-01 1.675676e-01 1.440427e-01 1.226480e-01 1.033427e-01 8.641390e-02 7.191998e-02 5.994060e-02 5.035708e-02 4.300809e-02 3.763986e-02 3.401575e-02 3.191950e-02 3.122351e-02 3.189976e-02 3.397523e-02 3.757710e-02 4.292056e-02 5.024349e-02 5.979866e-02 7.174911e-02 8.621109e-02 1.031026e-01 1.223592e-01 1.436836e-01 1.671170e-01 1.923051e-01 2.198766e-01 2.488050e-01 2.792889e-01 2.874605e-01 2.617692e-01 2.251065e-01 1.921832e-01 1.636043e-01 1.399055e-01 1.201403e-01 1.034694e-01 8.898149e-02 7.618038e-02 6.481547e-02 5.495173e-02 4.680007e-02 4.066854e-02 3.684686e-02 
3.705930e-02 3.856912e-02 4.281720e-02 4.954190e-02 5.841334e-02 6.905905e-02 8.120905e-02 9.471419e-02 1.097697e-01 1.267979e-01 1.466898e-01 1.702748e-01 1.984856e-01 2.309206e-01 2.667149e-01 2.900194e-01 2.790485e-01 2.484320e-01 2.200253e-01 1.928060e-01 1.678210e-01 1.443704e-01 1.229073e-01 1.033525e-01 8.608626e-02 7.117859e-02 5.876484e-02 4.875072e-02 4.100821e-02 3.530685e-02 3.142931e-02 2.917555e-02 2.842590e-02 2.915865e-02 3.139574e-02 3.525785e-02 4.094544e-02 4.867940e-02 5.869134e-02 7.111393e-02 8.604041e-02 1.033345e-01 1.229151e-01 1.443890e-01 1.678093e-01 1.927086e-01 2.197226e-01 2.478288e-01 2.781831e-01 2.901586e-01 2.675971e-01 2.313601e-01 1.984293e-01 1.698709e-01 1.460615e-01 1.260640e-01 1.090010e-01 9.396677e-02 8.051896e-02 6.845680e-02 5.791739e-02 4.916512e-02 4.256413e-02 3.844215e-02 
3.800641e-02 3.959618e-02 4.405867e-02 5.111177e-02 6.040138e-02 7.151713e-02 8.415350e-02 9.810994e-02 1.135460e-01 1.308419e-01 1.508781e-01 1.745055e-01 2.026347e-01 2.349988e-01 2.703696e-01 2.916094e-01 2.783526e-01 2.479283e-01 2.199222e-01 1.930519e-01 1.682455e-01 1.448221e-01 1.232940e-01 1.035612e-01 8.606784e-02 7.088672e-02 5.819145e-02 4.790013e-02 3.990622e-02 3.399278e-02 2.995437e-02 2.760089e-02 2.681737e-02 2.758611e-02 2.992585e-02 3.395359e-02 3.986088e-02 4.785825e-02 5.816527e-02 7.089508e-02 8.612941e-02 1.036951e-01 1.235042e-01 1.450993e-01 1.685349e-01 1.932882e-01 2.199300e-01 2.476258e-01 2.776336e-01 2.917435e-01 2.712109e-01 2.353446e-01 2.024080e-01 1.739126e-01 1.500544e-01 1.299310e-01 1.126226e-01 9.723460e-02 8.335963e-02 7.083389e-02 5.984412e-02 5.069139e-02 4.377750e-02 3.945540e-02 
3.833584e-02 3.995445e-02 4.449402e-02 5.166517e-02 6.110492e-02 7.238955e-02 8.520026e-02 9.931900e-02 1.148917e-01 1.322859e-01 1.523765e-01 1.760274e-01 2.041309e-01 2.364736e-01 2.716543e-01 2.921511e-01 2.781635e-01 2.478210e-01 2.199264e-01 1.931782e-01 1.684266e-01 1.450106e-01 1.234561e-01 1.036611e-01 8.608832e-02 7.081310e-02 5.802049e-02 4.763363e-02 3.955275e-02 3.356595e-02 2.947181e-02 2.708383e-02 2.628866e-02 2.706998e-02 2.944552e-02 3.353101e-02 3.951475e-02 4.760383e-02 5.801332e-02 7.085020e-02 8.619157e-02 1.038530e-01 1.237430e-01 1.453844e-01 1.688288e-01 1.935390e-01 2.200535e-01 2.476344e-01 2.774990e-01 2.922915e-01 2.725117e-01 2.368241e-01 2.038694e-01 1.753821e-01 1.514910e-01 1.313154e-01 1.139142e-01 9.839814e-02 8.436897e-02 7.167686e-02 6.052522e-02 5.122876e-02 4.420247e-02 3.980853e-02 
3.800641e-02 3.959618e-02 4.405867e-02 5.111177e-02 6.040138e-02 7.151713e-02 8.415350e-02 9.810994e-02 1.135460e-01 1.308419e-01 1.508781e-01 1.745055e-01 2.026347e-01 2.349988e-01 2.703696e-01 2.916094e-01 2.783526e-01 2.479283e-01 2.199222e-01 1.930519e-01 1.682455e-01 1.448221e-01 1.232940e-01 1.035612e-01 8.606784e-02 7.088672e-02 5.819145e-02 4.790013e-02 3.990622e-02 3.399278e-02 2.995437e-02 2.760089e-02 2.681737e-02 2.758611e-02 2.992585e-02 3.395359e-02 3.986088e-02 4.785825e-02 5.816527e-02 7.089508e-02 8.612941e-02 1.036951e-01 1.235042e-01 1.450993e-01 1.685349e-01 1.932882e-01 2.199300e-01 2.476258e-01 2.776336e-01 2.917435e-01 2.712109e-01 2.353446e-01 2.024080e-01 1.739126e-01 1.500544e-01 1.299310e-01 1.126226e-01 9.723460e-02 8.335963e-02 7.083389e-02 5.984412e-02 5.069139e-02 4.377750e-02 3.945540e-02 
3.705930e-02 3.856912e-02 4.281720e-02 4.954190e-02 5.841334e-02 6.905905e-02 8.120905e-02 9.471419e-02 1.097697e-01 1.267979e-01 1.466898e-01 1.702748e-01 1.984856e-01 2.309206e-01 2.667149e-01 2.900194e-01 2.790485e-01 2.484320e-01 2.200253e-01 1.928060e-01 1.678210e-01 1.443704e-01 1.229073e-01 1.033525e-01 8.608626e-02 7.117859e-02 5.876484e-02 4.875072e-02 4.100821e-02 3.530685e-02 3.142931e-02 2.917555e-02 2.842590e-02 2.915865e-02 3.139574e-02 3.525785e-02 4.094544e-02 4.867940e-02 5.869134e-02 7.111393e-02 8.604041e-02 1.033345e-01 1.229151e-01 1.443890e-01 1.678093e-01 1.927086e-01 2.197226e-01 2.478288e-01 2.781831e-01 2.901586e-01 2.675971e-01 2.313601e-01 1.984293e-01 1.698709e-01 1.460615e-01 1.260640e-01 1.090010e-01 9.396677e-02 8.051896e-02 6.845680e-02 5.791739e-02 4.916512e-02 4.256413e-02 3.844215e-02 