# vtk DataFile Version 2.0
Comment goes here
ASCII

DATASET STRUCTURED_POINTS
FIELD FieldData 1
TIME 1 1 double
0.11000000
DIMENSIONS    64   64   1

ORIGIN    0.000   0.000   0.000
SPACING   0.015625 0.015625   1.000

POINT_DATA   4096
SCALARS Concentration double
LOOKUP_TABLE default

2.621607e-15 6.339503e-15 2.688753e-14 1.136179e-13 4.589345e-13 1.765180e-12 6.452270e-12 2.237490e-11 7.348766e-11 2.282693e-10 6.697576e-10 1.854547e-09 4.843558e-09 1.193148e-08 2.773822e-08 6.095308e-08 1.269638e-07 2.519292e-07 4.798347e-07 8.864342e-07 1.605644e-06 2.869446e-06 5.084984e-06 8.967406e-06 1.574621e-05 2.743397e-05 4.702789e-05 7.829862e-05 1.245075e-04 1.854441e-04 2.532517e-04 3.101978e-04 3.336747e-04 3.102015e-04 2.532554e-04 1.854472e-04 1.245087e-04 7.829934e-05 4.702801e-05 2.743398e-05 1.574606e-05 8.967228e-06 5.084803e-06 2.869295e-06 1.605533e-06 8.863599e-07 4.797908e-07 2.519051e-07 1.269521e-07 6.094762e-08 2.773595e-08 1.193054e-08 4.843212e-09 1.854418e-09 6.697141e-10 2.282543e-10 7.348301e-11 2.237344e-11 6.451846e-12 1.765058e-12 4.589015e-13 1.136092e-13 2.688536e-14 6.339004e-15 
5.798669e-15 1.396198e-14 5.887701e-14 2.472389e-13 9.914670e-13 3.781647e-12 1.368991e-11 4.694769e-11 1.522401e-10 4.660846e-10 1.345300e-09 3.657362e-09 9.358981e-09 2.254131e-08 5.112631e-08 1.093657e-07 2.212503e-07 4.253846e-07 7.833628e-07 1.397569e-06 2.447506e-06 4.226320e-06 7.231180e-06 1.231142e-05 2.089623e-05 3.528816e-05 5.887613e-05 9.588201e-05 1.499044e-04 2.205726e-04 2.988279e-04 3.643852e-04 3.913943e-04 3.643897e-04 2.988324e-04 2.205764e-04 1.499059e-04 9.588282e-05 5.887611e-05 3.528794e-05 2.089578e-05 1.231098e-05 7.230781e-06 4.226017e-06 2.447298e-06 1.397436e-06 7.832871e-07 4.253454e-07 2.212323e-07 1.093578e-07 5.112326e-08 2.254012e-08 9.358586e-09 3.657218e-09 1.345257e-09 4.660693e-10 1.522357e-10 4.694621e-11 1.368949e-11 3.781517e-12 9.914312e-13 2.472288e-13 5.887440e-14 1.396135e-14 
2.146991e-14 5.142456e-14 2.153507e-13 8.975369e-13 3.568391e-12 1.347606e-11 4.822902e-11 1.632309e-10 5.213878e-10 1.569001e-09 4.441247e-09 1.181173e-08 2.949168e-08 6.911695e-08 1.520986e-07 3.146981e-07 6.136966e-07 1.133103e-06 1.995775e-06 3.393445e-06 5.655715e-06 9.270119e-06 1.500804e-05 2.411716e-05 3.860892e-05 6.162341e-05 9.767590e-05 1.522863e-04 2.300233e-04 3.300330e-04 4.396970e-04 5.311294e-04 5.687648e-04 5.311363e-04 4.397043e-04 3.300391e-04 2.300257e-04 1.522875e-04 9.767525e-05 6.162219e-05 3.860721e-05 2.411560e-05 1.500674e-05 9.269207e-06 5.655121e-06 3.393092e-06 1.995586e-06 1.133014e-06 6.136605e-07 3.146846e-07 1.520949e-07 6.911586e-08 2.949160e-08 1.181172e-08 4.441278e-09 1.569009e-09 5.213925e-10 1.632318e-10 4.822932e-11 1.347609e-11 3.568393e-12 8.975329e-13 2.153491e-13 5.142399e-14 
7.788103e-14 1.856237e-13 7.723171e-13 3.196700e-12 1.261013e-11 4.719759e-11 1.671896e-10 5.592583e-10 1.762665e-09 5.224666e-09 1.453888e-08 3.793587e-08 9.273069e-08 2.122989e-07 4.553486e-07 9.160985e-07 1.732636e-06 3.093504e-06 5.251015e-06 8.574702e-06 1.369500e-05 2.146385e-05 3.312779e-05 5.059873e-05 7.683739e-05 1.163376e-04 1.754405e-04 2.617928e-04 3.815857e-04 5.331747e-04 6.978890e-04 8.346973e-04 8.910183e-04 8.347102e-04 6.979036e-04 5.331875e-04 3.815917e-04 2.617954e-04 1.754383e-04 1.163334e-04 7.683199e-05 5.059399e-05 3.312403e-05 2.146134e-05 1.369346e-05 8.573848e-06 5.250597e-06 3.093340e-06 1.732590e-06 9.160917e-07 4.553544e-07 2.123034e-07 9.273379e-08 3.793713e-08 1.453945e-08 5.224849e-09 1.762731e-09 5.592760e-10 1.671949e-10 4.719881e-11 1.261043e-11 3.196759e-12 7.723286e-13 1.856254e-13 
2.666357e-13 6.323824e-13 2.614180e-12 1.074670e-11 4.206763e-11 1.560790e-10 5.473911e-10 1.810370e-09 5.632832e-09 1.645499e-08 4.504870e-08 1.154275e-07 2.765441e-07 6.193491e-07 1.297007e-06 2.542739e-06 4.676573e-06 8.100316e-06 1.330084e-05 2.094224e-05 3.216690e-05 4.841618e-05 7.160567e-05 1.045418e-04 1.514375e-04 2.185758e-04 3.147446e-04 4.505143e-04 6.343945e-04 8.637047e-04 1.111064e-03 1.316043e-03 1.400529e-03 1.316069e-03 1.111095e-03 8.637331e-04 6.344095e-04 4.505198e-04 3.147376e-04 2.185634e-04 1.514224e-04 1.045290e-04 7.159605e-05 4.841017e-05 3.216345e-05 2.094055e-05 1.330016e-05 8.100177e-06 4.676632e-06 2.542822e-06 1.297074e-06 6.193838e-07 2.765621e-07 1.154344e-07 4.505157e-08 1.645590e-08 5.633147e-09 1.810457e-09 5.474168e-10 1.560852e-10 4.206920e-11 1.074703e-11 2.614251e-12 6.323953e-13 
8.642193e-13 2.039573e-12 8.376876e-12 3.420239e-11 1.328608e-10 4.886652e-10 1.696929e-09 5.549463e-09 1.704840e-08 4.909458e-08 1.322691e-07 3.329390e-07 7.822114e-07 1.714894e-06 3.509419e-06 6.712052e-06 1.202221e-05 2.024004e-05 3.222285e-05 4.903801e-05 7.257985e-05 1.051778e-04 1.495203e-04 2.094055e-04 2.904392e-04 4.009485e-04 5.526315e-04 7.596918e-04 1.033710e-03 1.370856e-03 1.732345e-03 2.031497e-03 2.155012e-03 2.031549e-03 1.732414e-03 1.370921e-03 1.033746e-03 7.597020e-04 5.526106e-04 4.009142e-04 2.904002e-04 2.093746e-04 1.494984e-04 1.051652e-04 7.257351e-05 4.903559e-05 3.222250e-05 2.024057e-05 1.202289e-05 6.712545e-06 3.509730e-06 1.715042e-06 7.822825e-07 3.329657e-07 1.322797e-07 4.909790e-08 1.704952e-08 5.549772e-09 1.697020e-09 4.886873e-10 1.328665e-10 3.420362e-11 8.377144e-12 2.039623e-12 
2.662036e-12 6.251798e-12 2.551217e-11 1.034581e-10 3.988183e-10 1.454151e-09 4.999904e-09 1.616851e-08 4.904388e-08 1.392298e-07 3.691766e-07 9.130179e-07 2.103996e-06 4.517004e-06 9.037941e-06 1.687611e-05 2.946874e-05 4.829024e-05 7.467781e-05 1.100791e-04 1.572803e-04 2.199140e-04 3.012976e-04 4.060345e-04 5.409637e-04 7.164276e-04 9.472373e-04 1.251776e-03 1.645441e-03 2.123302e-03 2.632623e-03 3.053527e-03 3.227555e-03 3.053632e-03 2.632770e-03 2.123437e-03 1.645513e-03 1.251783e-03 9.471738e-04 7.163375e-04 5.408705e-04 4.059662e-04 3.012534e-04 2.198923e-04 1.572721e-04 1.100787e-04 7.468079e-05 4.829393e-05 2.947179e-05 1.687800e-05 9.039028e-06 4.517497e-06 2.104222e-06 9.130997e-07 3.692082e-07 1.392395e-07 4.904716e-08 1.616940e-08 5.000167e-09 1.454215e-09 3.988349e-10 1.034617e-10 2.551298e-11 6.251953e-12 
7.814200e-12 1.826462e-11 7.406374e-11 2.983275e-10 1.141271e-09 4.125170e-09 1.404373e-08 4.490439e-08 1.344794e-07 3.763285e-07 9.820073e-07 2.386064e-06 5.393347e-06 1.133987e-05 2.218994e-05 4.047104e-05 6.894596e-05 1.100927e-04 1.656337e-04 2.369628e-04 3.275005e-04 4.428328e-04 5.862576e-04 7.625121e-04 9.790962e-04 1.247985e-03 1.587029e-03 2.019101e-03 2.564088e-03 3.216097e-03 3.906263e-03 4.475237e-03 4.710542e-03 4.475448e-03 3.906566e-03 3.216365e-03 2.564215e-03 2.019075e-03 1.586854e-03 1.247767e-03 9.788915e-04 7.623763e-04 5.861806e-04 4.428046e-04 3.274991e-04 2.369745e-04 1.656495e-04 1.101065e-04 6.895611e-05 4.047691e-05 2.219315e-05 1.134127e-05 5.393969e-06 2.386282e-06 9.820904e-07 3.763534e-07 1.344878e-07 4.490664e-08 1.404441e-08 4.125336e-09 1.141315e-09 2.983373e-10 7.406593e-11 1.826504e-11 
2.189713e-11 5.095161e-11 2.053537e-10 8.217085e-10 3.119773e-09 1.117877e-08 3.767858e-08 1.191097e-07 3.521202e-07 9.711166e-07 2.493202e-06 5.950212e-06 1.318927e-05 2.715426e-05 5.196379e-05 9.258309e-05 1.539415e-04 2.397168e-04 3.513383e-04 4.888110e-04 6.551123e-04 8.588327e-04 1.101821e-03 1.387648e-03 1.723429e-03 2.122083e-03 2.604135e-03 3.196934e-03 3.925143e-03 4.781813e-03 5.680203e-03 6.417256e-03 6.721399e-03 6.417660e-03 5.680785e-03 4.782285e-03 3.925314e-03 3.196776e-03 2.603694e-03 2.121597e-03 1.723016e-03 1.387410e-03 1.101713e-03 8.588211e-04 6.551472e-04 4.888644e-04 3.513918e-04 2.397586e-04 1.539701e-04 9.259882e-05 5.197206e-05 2.715770e-05 1.319076e-05 5.950708e-06 2.493389e-06 9.711703e-07 3.521388e-07 1.191146e-07 3.768012e-08 1.117915e-08 3.119879e-09 8.217330e-10 2.053594e-10 5.095277e-11 
5.865111e-11 1.359109e-10 5.446344e-10 2.165405e-09 8.160261e-09 2.898681e-08 9.672338e-08 3.022460e-07 8.818108e-07 2.395979e-06 6.049700e-06 1.417502e-05 3.079767e-05 6.206075e-05 1.161015e-04 2.020391e-04 3.278959e-04 4.981447e-04 7.119313e-04 9.649899e-04 1.257655e-03 1.603069e-03 1.999089e-03 2.446102e-03 2.949520e-03 3.522471e-03 4.187783e-03 4.976813e-03 5.918557e-03 7.004082e-03 8.127578e-03 9.041473e-03 9.416529e-03 9.042220e-03 8.128633e-03 7.004855e-03 5.918727e-03 4.976338e-03 4.186801e-03 3.521497e-03 2.948768e-03 2.445737e-03 1.998981e-03 1.603133e-03 1.257792e-03 9.651458e-04 7.120761e-04 4.982519e-04 3.279671e-04 2.020766e-04 1.161207e-04 6.206836e-05 3.080087e-05 1.417603e-05 6.050082e-06 2.396085e-06 8.818489e-07 3.022562e-07 9.672677e-08 2.898770e-08 8.160518e-09 2.165468e-09 5.446495e-10 1.359141e-10 
1.503009e-10 3.470357e-10 1.383397e-09 5.466795e-09 2.045164e-08 7.202256e-08 2.378988e-07 7.346992e-07 2.114709e-06 5.658327e-06 1.404287e-05 3.228239e-05 6.869882e-05 1.353930e-04 2.474449e-04 4.203246e-04 6.656058e-04 9.865150e-04 1.375600e-03 1.819417e-03 2.313214e-03 2.875874e-03 3.497794e-03 4.173869e-03 4.906377e-03 5.707991e-03 6.603188e-03 7.625950e-03 8.807472e-03 1.013447e-02 1.148175e-02 1.256253e-02 1.300169e-02 1.256384e-02 1.148353e-02 1.013558e-02 8.807495e-03 7.624799e-03 6.601212e-03 5.706206e-03 4.905130e-03 4.173407e-03 3.497782e-03 2.876142e-03 2.313586e-03 1.819800e-03 1.375946e-03 9.867652e-04 6.657671e-04 4.204059e-04 2.474848e-04 1.354077e-04 6.870477e-05 3.228408e-05 1.404352e-05 5.658495e-06 2.114777e-06 7.347179e-07 2.379059e-07 7.202457e-08 2.045227e-08 5.466962e-09 1.383440e-09 3.470454e-10 
3.688840e-10 8.492381e-10 3.369873e-09 1.324123e-08 4.918797e-08 1.717422e-07 5.615194e-07 1.713450e-06 4.863797e-06 1.280880e-05 3.122414e-05 7.036516e-05 1.465259e-04 2.821512e-04 5.032625e-04 8.337720e-04 1.287400e-03 1.860920e-03 2.532313e-03 3.272399e-03 4.071855e-03 4.953748e-03 5.896314e-03 6.886555e-03 7.923007e-03 9.018005e-03 1.019725e-02 1.149415e-02 1.293742e-02 1.450503e-02 1.605428e-02 1.727220e-02 1.776017e-02 1.727435e-02 1.605703e-02 1.450645e-02 1.293717e-02 1.149200e-02 1.019377e-02 9.015107e-03 7.921132e-03 6.886072e-03 5.896531e-03 4.954364e-03 4.072634e-03 3.273187e-03 2.533055e-03 1.861456e-03 1.287738e-03 8.339336e-04 5.033382e-04 2.821764e-04 1.465357e-04 7.036760e-05 3.122515e-05 1.280905e-05 4.863922e-06 1.713489e-06 5.615358e-07 1.717474e-07 4.918965e-08 1.324170e-08 3.369996e-09 8.492668e-10 
8.680063e-10 1.994165e-09 7.883525e-09 3.081721e-08 1.137086e-07 3.936803e-07 1.273988e-06 3.840232e-06 1.074566e-05 2.783489e-05 6.659251e-05 1.469625e-04 2.991128e-04 5.620521e-04 9.772524e-04 1.577319e-03 2.372793e-03 3.343136e-03 4.439813e-03 5.612122e-03 6.856343e-03 8.189827e-03 9.575236e-03 1.099079e-02 1.242941e-02 1.390094e-02 1.542940e-02 1.704167e-02 1.875716e-02 2.054171e-02 2.224235e-02 2.354338e-02 2.405546e-02 2.354663e-02 2.224604e-02 2.054309e-02 1.875666e-02 1.703821e-02 1.542382e-02 1.389665e-02 1.242679e-02 1.099050e-02 9.575854e-03 8.190962e-03 6.857772e-03 5.613635e-03 4.441327e-03 3.344233e-03 2.373455e-03 1.577609e-03 9.773771e-04 5.620856e-04 2.991248e-04 1.469642e-04 6.659354e-05 2.783514e-05 1.074587e-05 3.840312e-06 1.274027e-06 3.936939e-07 1.137131e-07 3.081857e-08 7.883886e-09 1.994251e-09 
1.960814e-09 4.500136e-09 1.774241e-08 6.904384e-08 2.531441e-07 8.692048e-07 2.783958e-06 8.287618e-06 2.284971e-05 5.817857e-05 1.364771e-04 2.946239e-04 5.853383e-04 1.071890e-03 1.814443e-03 2.850306e-03 4.174221e-03 5.731203e-03 7.431007e-03 9.202281e-03 1.107571e-02 1.303542e-02 1.502110e-02 1.699921e-02 1.895667e-02 2.090066e-02 2.285166e-02 2.482116e-02 2.681237e-02 2.877884e-02 3.056999e-02 3.189474e-02 3.240591e-02 3.189877e-02 3.057366e-02 2.877982e-02 2.681324e-02 2.481747e-02 2.284378e-02 2.089513e-02 1.895320e-02 1.699909e-02 1.502201e-02 1.303689e-02 1.107790e-02 9.204895e-03 7.433932e-03 5.733338e-03 4.175428e-03 2.850774e-03 1.814619e-03 1.071920e-03 5.853466e-04 2.946224e-04 1.364779e-04 5.817895e-05 2.285019e-05 8.287843e-06 2.784064e-06 8.692435e-07 2.531569e-07 6.904767e-08 1.774342e-08 4.500380e-09 
4.258476e-09 9.775665e-09 3.848620e-08 1.492105e-07 5.438636e-07 1.852434e-06 5.871982e-06 1.725909e-05 4.686222e-05 1.171964e-04 2.692990e-04 5.679833e-04 1.099977e-03 1.960283e-03 3.226943e-03 4.929658e-03 7.027030e-03 9.404673e-03 1.192231e-02 1.451217e-02 1.725616e-02 2.006342e-02 2.286109e-02 2.560378e-02 2.825023e-02 3.078662e-02 3.322927e-02 3.557440e-02 3.781742e-02 3.991556e-02 4.173383e-02 4.302586e-02 4.351426e-02 4.303183e-02 4.173689e-02 3.991760e-02 3.782464e-02 3.557030e-02 3.321631e-02 3.077975e-02 2.824589e-02 2.560432e-02 2.286235e-02 2.006505e-02 1.725942e-02 1.451669e-02 1.192784e-02 9.408628e-03 7.029016e-03 4.930259e-03 3.227100e-03 1.960251e-03 1.099957e-03 5.679695e-04 2.692980e-04 1.171970e-04 4.686334e-05 1.725969e-05 5.872263e-06 1.852540e-06 5.438984e-07 1.492210e-07 3.848898e-08 9.776332e-09 
8.906093e-09 2.048049e-08 8.063411e-08 3.117396e-07 1.130240e-06 3.819635e-06 1.198270e-05 3.476358e-05 9.290868e-05 2.280370e-04 5.127360e-04 1.055160e-03 1.989126e-03 3.445525e-03 5.511327e-03 8.187856e-03 1.136799e-02 1.485920e-02 1.847706e-02 2.225628e-02 2.621136e-02 3.019886e-02 3.407652e-02 3.776782e-02 4.121631e-02 4.442127e-02 4.743288e-02 5.022172e-02 5.277335e-02 5.505393e-02 5.693584e-02 5.821016e-02 5.868165e-02 5.822188e-02 5.693523e-02 5.505508e-02 5.279299e-02 5.021515e-02 4.740957e-02 4.441895e-02 4.121409e-02 3.776728e-02 3.407728e-02 3.019987e-02 2.621587e-02 2.226362e-02 1.848688e-02 1.486605e-02 1.137090e-02 8.188391e-03 5.511314e-03 3.445343e-03 1.989047e-03 1.055128e-03 5.127354e-04 2.280406e-04 9.291208e-05 3.476536e-05 1.198346e-05 3.819919e-06 1.130331e-06 3.117668e-07 8.064117e-08 2.048218e-08 
1.796618e-08 4.146231e-08 1.635339e-07 6.311270e-07 2.277426e-06 7.638403e-06 2.371324e-05 6.788208e-05 1.784579e-04 4.295056e-04 9.438580e-04 1.892595e-03 3.467988e-03 5.832992e-03 9.065281e-03 1.310879e-02 1.776997e-02 2.276255e-02 2.794112e-02 3.351618e-02 3.913466e-02 4.460653e-02 4.984209e-02 5.476619e-02 5.919550e-02 6.314826e-02 6.687957e-02 7.036523e-02 7.353927e-02 7.630552e-02 7.847561e-02 7.986287e-02 8.037534e-02 7.990153e-02 7.846814e-02 7.628827e-02 7.357387e-02 7.035723e-02 6.684347e-02 6.316181e-02 5.919542e-02 5.476042e-02 4.984351e-02 4.460842e-02 3.914133e-02 3.352711e-02 2.795670e-02 2.277315e-02 1.777348e-02 1.310860e-02 9.064750e-03 5.832483e-03 3.467780e-03 1.892529e-03 9.438599e-04 4.295169e-04 1.784668e-04 6.788669e-05 2.371516e-05 7.639117e-06 2.277651e-06 6.311942e-07 1.635513e-07 4.146645e-08 
3.501594e-08 8.127099e-08 3.217638e-07 1.241049e-06 4.460104e-06 1.484893e-05 4.561149e-05 1.287713e-04 3.327563e-04 7.844784e-04 1.682720e-03 3.282580e-03 5.839057e-03 9.531361e-03 1.440471e-02 2.032673e-02 2.701069e-02 3.416458e-02 4.180943e-02 4.981672e-02 5.773656e-02 6.521655e-02 7.188314e-02 7.785139e-02 8.310390e-02 8.758989e-02 9.133280e-02 9.421544e-02 9.642692e-02 9.809074e-02 9.921021e-02 9.985842e-02 1.001309e-01 9.994630e-02 9.921632e-02 9.803454e-02 9.644300e-02 9.422599e-02 9.129442e-02 8.760968e-02 8.311275e-02 7.783574e-02 7.188861e-02 6.522559e-02 5.774243e-02 4.982796e-02 4.183113e-02 3.417975e-02 2.701442e-02 2.032510e-02 1.440346e-02 9.530491e-03 5.838685e-03 3.282496e-03 1.682747e-03 7.845159e-04 3.327795e-04 1.287830e-04 4.561611e-05 1.485063e-05 4.460629e-06 1.241204e-06 3.218036e-07 8.128040e-08 
6.602639e-08 1.545104e-07 6.154789e-07 2.375634e-06 8.508468e-06 2.812212e-05 8.544045e-05 2.377378e-04 6.032294e-04 1.391337e-03 2.908426e-03 5.510781e-03 9.504221e-03 1.506190e-02 2.218314e-02 3.066959e-02 4.020354e-02 5.055402e-02 6.184855e-02 7.318221e-02 8.286480e-02 9.054200e-02 9.607190e-02 9.943705e-02 1.008709e-01 1.007928e-01 9.968575e-02 9.802867e-02 9.627137e-02 9.469988e-02 9.348997e-02 9.272869e-02 9.251019e-02 9.279850e-02 9.349917e-02 9.465722e-02 9.624135e-02 9.802290e-02 9.968744e-02 1.008095e-01 1.008816e-01 9.941743e-02 9.607369e-02 9.055996e-02 8.285903e-02 7.318388e-02 6.187414e-02 5.057226e-02 4.020695e-02 3.066545e-02 2.218093e-02 1.506070e-02 9.503530e-03 5.510613e-03 2.908486e-03 1.391423e-03 6.032823e-04 2.377645e-04 8.545095e-05 2.812599e-05 8.509653e-06 2.375984e-06 6.155685e-07 1.545314e-07 
1.205649e-07 2.853467e-07 1.146732e-06 4.436001e-06 1.584386e-05 5.198272e-05 1.561053e-04 4.276392e-04 1.064044e-03 2.397098e-03 4.874277e-03 8.953385e-03 1.496369e-02 2.305554e-02 3.321875e-02 4.522874e-02 5.895205e-02 7.418516e-02 8.808080e-02 9.826802e-02 1.037832e-01 1.048948e-01 1.024761e-01 9.760272e-02 9.145068e-02 8.509337e-02 7.941977e-02 7.486747e-02 7.138560e-02 6.891262e-02 6.732030e-02 6.641154e-02 6.612517e-02 6.643113e-02 6.731539e-02 6.890366e-02 7.136008e-02 7.481817e-02 7.943097e-02 8.512375e-02 9.144652e-02 9.758826e-02 1.024713e-01 1.049165e-01 1.037867e-01 9.825543e-02 8.810479e-02 7.421789e-02 5.895693e-02 4.522239e-02 3.321565e-02 2.305460e-02 1.496250e-02 8.953033e-03 4.874412e-03 2.397305e-03 1.064164e-03 4.276994e-04 1.561283e-04 5.199111e-05 1.584640e-05 4.436745e-06 1.146922e-06 2.853913e-07 
2.132764e-07 5.125131e-07 2.084771e-06 8.096270e-06 2.885246e-05 9.392055e-05 2.784503e-04 7.498929e-04 1.826253e-03 4.010459e-03 7.913525e-03 1.406960e-02 2.279653e-02 3.427436e-02 4.855145e-02 6.568950e-02 8.449238e-02 9.933582e-02 1.070728e-01 1.075126e-01 1.018552e-01 9.241385e-02 8.183695e-02 7.228053e-02 6.447082e-02 5.837687e-02 5.378147e-02 5.038457e-02 4.790036e-02 4.621202e-02 4.516354e-02 4.458221e-02 4.439810e-02 4.458647e-02 4.515818e-02 4.620537e-02 4.787745e-02 5.034373e-02 5.379027e-02 5.840322e-02 6.446659e-02 7.228485e-02 8.184417e-02 9.242610e-02 1.018679e-01 1.074961e-01 1.070840e-01 9.936929e-02 8.449611e-02 6.568129e-02 4.854660e-02 3.427484e-02 2.279452e-02 1.406853e-02 7.913720e-03 4.010900e-03 1.826518e-03 7.500258e-04 2.785006e-04 9.393886e-05 2.885798e-05 8.097879e-06 2.085182e-06 5.126091e-07 
3.653429e-07 8.961276e-07 3.704547e-06 1.446881e-05 5.145818e-05 1.659923e-04 4.850416e-04 1.281579e-03 3.047050e-03 6.504591e-03 1.242226e-02 2.135644e-02 3.365217e-02 4.966411e-02 6.968275e-02 9.079726e-02 1.052280e-01 1.089885e-01 1.032386e-01 9.141812e-02 7.803136e-02 6.615119e-02 5.625158e-02 4.831886e-02 4.217966e-02 3.761546e-02 3.431081e-02 3.198473e-02 3.037662e-02 2.932793e-02 2.869545e-02 2.835452e-02 2.824685e-02 2.835458e-02 2.869127e-02 2.932093e-02 3.036070e-02 3.196335e-02 3.431699e-02 3.763096e-02 4.217831e-02 4.832361e-02 5.626394e-02 6.615334e-02 7.803252e-02 9.140641e-02 1.032427e-01 1.089969e-01 1.052196e-01 9.079545e-02 6.968673e-02 4.967086e-02 3.365109e-02 2.135451e-02 1.242282e-02 6.505665e-03 3.047658e-03 1.281872e-03 4.851494e-04 1.660314e-04 5.146995e-05 1.447222e-05 3.705416e-06 8.963307e-07 
6.048270e-07 1.525719e-06 6.442301e-06 2.534834e-05 8.996935e-05 2.869838e-04 8.252063e-04 2.132987e-03 4.933134e-03 1.020343e-02 1.880755e-02 3.131857e-02 4.831339e-02 7.035381e-02 9.310918e-02 1.067086e-01 1.066906e-01 9.612971e-02 8.126031e-02 6.707405e-02 5.480063e-02 4.455297e-02 3.641921e-02 3.027521e-02 2.579332e-02 2.261595e-02 2.040356e-02 1.890066e-02 1.789937e-02 1.726342e-02 1.688524e-02 1.668477e-02 1.662139e-02 1.668379e-02 1.688200e-02 1.725794e-02 1.789031e-02 1.889067e-02 2.040515e-02 2.262192e-02 2.579476e-02 3.027960e-02 3.642822e-02 4.455495e-02 5.480199e-02 6.707277e-02 8.126330e-02 9.612645e-02 1.066852e-01 1.067125e-01 9.311712e-02 7.036921e-02 4.831919e-02 3.131496e-02 1.880854e-02 1.020580e-02 4.934474e-03 2.133627e-03 8.254398e-04 2.870700e-04 8.999560e-05 2.535598e-05 6.444226e-06 1.526167e-06 
9.618285e-07 2.504967e-06 1.083680e-05 4.311324e-05 1.532950e-04 4.853432e-04 1.371935e-03 3.451448e-03 7.728033e-03 1.543189e-02 2.740584e-02 4.446180e-02 6.735914e-02 9.176300e-02 1.058147e-01 1.036037e-01 9.058503e-02 7.484180e-02 6.032011e-02 4.769517e-02 3.721748e-02 2.887044e-02 2.255167e-02 1.798276e-02 1.479163e-02 1.262176e-02 1.117335e-02 1.022968e-02 9.627599e-03 9.258961e-03 9.045746e-03 8.935498e-03 8.900794e-03 8.934560e-03 9.043616e-03 9.255617e-03 9.623210e-03 1.022539e-02 1.117336e-02 1.262379e-02 1.479299e-02 1.798511e-02 2.255642e-02 2.887195e-02 3.721807e-02 4.769218e-02 6.031848e-02 7.483166e-02 9.056196e-02 1.035931e-01 1.058098e-01 9.177474e-02 6.737541e-02 4.445843e-02 2.740738e-02 1.543666e-02 7.730639e-03 3.452683e-03 1.372388e-03 4.855023e-04 1.533428e-04 4.312665e-05 1.084016e-05 2.505721e-06 
1.465936e-06 3.944101e-06 1.747099e-05 7.021598e-05 2.498743e-04 7.846987e-04 2.184738e-03 5.366611e-03 1.166653e-02 2.245416e-02 3.842869e-02 6.081232e-02 8.685912e-02 1.036305e-01 1.020551e-01 8.824077e-02 7.214809e-02 5.746941e-02 4.473113e-02 3.394493e-02 2.521600e-02 1.852181e-02 1.367648e-02 1.032338e-02 8.075856e-03 6.605846e-03 5.662822e-03 5.071741e-03 4.709395e-03 4.495228e-03 4.374796e-03 4.313997e-03 4.295007e-03 4.313412e-03 4.373616e-03 4.493498e-03 4.707421e-03 5.069932e-03 5.662510e-03 6.606378e-03 8.076721e-03 1.032471e-02 1.367892e-02 1.852290e-02 2.521659e-02 3.394364e-02 4.473012e-02 5.746395e-02 7.214085e-02 8.825381e-02 1.020695e-01 1.036402e-01 8.685297e-02 6.078839e-02 3.842741e-02 2.246237e-02 1.167157e-02 5.368940e-03 2.185599e-03 7.849890e-04 2.499601e-04 7.023909e-05 1.747666e-05 3.945326e-06 
2.139428e-06 5.944302e-06 2.691852e-05 1.091244e-04 3.879667e-04 1.206624e-03 3.303346e-03 7.910910e-03 1.668597e-02 3.092120e-02 5.120947e-02 7.789663e-02 9.947397e-02 1.022908e-01 8.921335e-02 7.290843e-02 5.801332e-02 4.514740e-02 3.409880e-02 2.491268e-02 1.769030e-02 1.234277e-02 8.590625e-03 6.063668e-03 4.414303e-03 3.366961e-03 2.718310e-03 2.327487e-03 2.098241e-03 1.968509e-03 1.898444e-03 1.864287e-03 1.853825e-03 1.864005e-03 1.897907e-03 1.967757e-03 2.097455e-03 2.326792e-03 2.718117e-03 3.367090e-03 4.414701e-03 6.064236e-03 8.591609e-03 1.234318e-02 1.769053e-02 2.491204e-02 3.409849e-02 4.514737e-02 5.801506e-02 7.291499e-02 8.921392e-02 1.022907e-01 9.947729e-02 7.787270e-02 5.120747e-02 3.093283e-02 1.669322e-02 7.914061e-03 3.304546e-03 1.207021e-03 3.880885e-04 1.091568e-04 2.692666e-05 5.946020e-06 
2.986731e-06 8.558129e-06 3.953125e-05 1.613430e-04 5.720147e-04 1.759106e-03 4.728525e-03 1.102195e-02 2.255623e-02 4.016580e-02 6.467342e-02 9.112932e-02 1.024109e-01 9.316395e-02 7.667974e-02 6.145576e-02 4.819900e-02 3.688439e-02 2.728268e-02 1.944291e-02 1.339957e-02 9.002538e-03 5.954976e-03 3.924306e-03 2.617423e-03 1.804603e-03 1.315769e-03 1.031782e-03 8.722623e-04 7.859808e-04 7.414278e-04 7.205577e-04 7.143382e-04 7.204441e-04 7.412177e-04 7.856944e-04 8.719749e-04 1.031530e-03 1.315678e-03 1.804616e-03 2.617561e-03 3.924480e-03 5.955252e-03 9.002486e-03 1.339936e-02 1.944197e-02 2.728127e-02 3.688187e-02 4.819337e-02 6.144738e-02 7.665945e-02 9.314664e-02 1.024203e-01 9.114565e-02 6.471106e-02 4.019410e-02 2.256893e-02 1.102663e-02 4.730148e-03 1.759609e-03 5.721664e-04 1.613822e-04 3.954118e-05 8.560182e-06 
3.983229e-06 1.174198e-05 5.516696e-05 2.262769e-04 7.984810e-04 2.426591e-03 6.394851e-03 1.452437e-02 2.879988e-02 4.951492e-02 7.688190e-02 9.826689e-02 9.850823e-02 8.318666e-02 6.741624e-02 5.348486e-02 4.165398e-02 3.160626e-02 2.318042e-02 1.637593e-02 1.116475e-02 7.367611e-03 4.721481e-03 2.953039e-03 1.819848e-03 1.124369e-03 7.154878e-04 4.851710e-04 3.606884e-04 2.962040e-04 2.643962e-04 2.501236e-04 2.460049e-04 2.500850e-04 2.643259e-04 2.961094e-04 3.605947e-04 4.850875e-04 7.154482e-04 1.124352e-03 1.819858e-03 2.953014e-03 4.721420e-03 7.367287e-03 1.116421e-02 1.637475e-02 2.317853e-02 3.160293e-02 4.164720e-02 5.347476e-02 6.740063e-02 8.317451e-02 9.848937e-02 9.825082e-02 7.691582e-02 4.954632e-02 2.881391e-02 1.452912e-02 6.396526e-03 2.427085e-03 7.986383e-04 2.263170e-04 5.517783e-05 1.174422e-05 
5.066731e-06 1.531339e-05 7.294550e-05 3.001816e-04 1.052875e-03 3.162894e-03 8.167540e-03 1.812847e-02 3.481590e-02 5.826206e-02 8.587313e-02 1.000844e-01 9.211684e-02 7.552466e-02 6.094578e-02 4.815411e-02 3.741209e-02 2.836921e-02 2.085725e-02 1.479989e-02 1.011801e-02 6.653117e-03 4.203104e-03 2.552715e-03 1.495888e-03 8.531786e-04 4.816853e-04 2.773640e-04 1.702359e-04 1.166720e-04 9.126381e-05 8.028974e-05 7.721461e-05 8.027819e-05 9.124269e-05 1.166434e-04 1.702060e-04 2.773340e-04 4.816605e-04 8.531457e-04 1.495837e-03 2.552598e-03 4.202896e-03 6.652664e-03 1.011731e-02 1.479858e-02 2.085523e-02 2.836580e-02 3.740635e-02 4.814685e-02 6.093948e-02 7.552179e-02 9.211038e-02 1.000641e-01 8.587718e-02 5.827262e-02 3.482155e-02 1.812990e-02 8.168165e-03 3.163062e-03 1.052950e-03 3.002012e-04 7.295233e-05 1.531479e-05 
6.136462e-06 1.893024e-05 9.112813e-05 3.756621e-04 1.309238e-03 3.890679e-03 9.862724e-03 2.145181e-02 4.007020e-02 6.552579e-02 9.137085e-02 9.890219e-02 8.621135e-02 7.035629e-02 5.660719e-02 4.469667e-02 3.474864e-02 2.648134e-02 1.964112e-02 1.408075e-02 9.700804e-03 6.392322e-03 4.017234e-03 2.405910e-03 1.374701e-03 7.519828e-04 3.965255e-04 2.043642e-04 1.057711e-04 5.772034e-05 3.557344e-05 2.628006e-05 2.373276e-05 2.627690e-05 3.556740e-05 5.771165e-05 1.057600e-04 2.043494e-04 3.965037e-04 7.519424e-04 1.374626e-03 2.405758e-03 4.016976e-03 6.391842e-03 9.700099e-03 1.407958e-02 1.963947e-02 2.647887e-02 3.474515e-02 4.469285e-02 5.660402e-02 7.035545e-02 8.622685e-02 9.892115e-02 9.138464e-02 6.552656e-02 4.006908e-02 2.145036e-02 9.862244e-03 3.890502e-03 1.309219e-03 3.756600e-04 9.113097e-05 1.893094e-05 
7.062393e-06 2.212243e-05 1.072796e-04 4.425396e-04 1.533733e-03 4.516671e-03 1.128351e-02 2.413947e-02 4.416636e-02 7.077202e-02 9.429071e-02 9.688614e-02 8.199350e-02 6.707791e-02 5.387063e-02 4.256231e-02 3.316951e-02 2.545885e-02 1.907473e-02 1.381496e-02 9.584602e-03 6.331902e-03 3.970725e-03 2.362059e-03 1.333736e-03 7.160928e-04 3.665821e-04 1.798012e-04 8.531399e-05 4.002159e-05 1.953063e-05 1.109192e-05 8.811475e-06 1.109097e-05 1.952848e-05 4.001786e-05 8.530721e-05 1.797890e-04 3.665582e-04 7.160453e-04 1.333647e-03 2.361889e-03 3.970450e-03 6.331436e-03 9.583965e-03 1.381403e-02 1.907361e-02 2.545754e-02 3.316825e-02 4.256208e-02 5.387141e-02 6.707919e-02 8.199609e-02 9.689995e-02 9.429779e-02 7.076110e-02 4.415591e-02 2.413364e-02 1.128114e-02 4.515854e-03 1.533523e-03 4.424890e-04 1.072717e-04 2.212095e-05 
7.706446e-06 2.437004e-05 1.186985e-04 4.896969e-04 1.690771e-03 4.948397e-03 1.224638e-02 2.590708e-02 4.679086e-02 7.388899e-02 9.560132e-02 9.523818e-02 7.953766e-02 6.524052e-02 5.235966e-02 4.140233e-02 3.234624e-02 2.497626e-02 1.885568e-02 1.375097e-02 9.581120e-03 6.338681e-03 3.970297e-03 2.353766e-03 1.321692e-03 7.039724e-04 3.562462e-04 1.716552e-04 7.901712e-05 3.501689e-05 1.531181e-05 7.278933e-06 5.124522e-06 7.278464e-06 1.531051e-05 3.501417e-05 7.901102e-05 1.716428e-04 3.562204e-04 7.039210e-04 1.321596e-03 2.353591e-03 3.970022e-03 6.338243e-03 9.580569e-03 1.375028e-02 1.885503e-02 2.497583e-02 3.234640e-02 4.140414e-02 5.236299e-02 6.524592e-02 7.954099e-02 9.525153e-02 9.560330e-02 7.387138e-02 4.677360e-02 2.589782e-02 1.224246e-02 4.947093e-03 1.690427e-03 4.896198e-04 1.186862e-04 2.436800e-05 
7.948395e-06 2.521883e-05 1.230191e-04 5.075365e-04 1.750027e-03 5.110327e-03 1.260429e-02 2.655077e-02 4.772189e-02 7.492808e-02 9.596183e-02 9.460218e-02 7.870755e-02 6.462531e-02 5.186545e-02 4.102587e-02 3.208594e-02 2.483383e-02 1.880229e-02 1.374571e-02 9.591017e-03 6.347926e-03 3.974443e-03 2.353684e-03 1.319419e-03 7.011446e-04 3.537138e-04 1.696872e-04 7.757316e-05 3.395255e-05 1.448149e-05 6.569904e-06 4.453153e-06 6.569502e-06 1.448029e-05 3.394987e-05 7.756691e-05 1.696742e-04 3.536866e-04 7.010906e-04 1.319320e-03 2.353506e-03 3.974171e-03 6.347510e-03 9.590526e-03 1.374516e-02 1.880194e-02 2.483399e-02 3.208702e-02 4.102913e-02 5.187076e-02 6.463407e-02 7.871313e-02 9.461213e-02 9.596139e-02 7.490874e-02 4.770215e-02 2.653949e-02 1.259928e-02 5.108562e-03 1.749532e-03 5.074175e-04 1.229973e-04 2.521487e-05 
7.706446e-06 2.437004e-05 1.186985e-04 4.896969e-04 1.690771e-03 4.948397e-03 1.224638e-02 2.590708e-02 4.679086e-02 7.388899e-02 9.560132e-02 9.523818e-02 7.953766e-02 6.524052e-02 5.235966e-02 4.140233e-02 3.234624e-02 2.497626e-02 1.885568e-02 1.375097e-02 9.581120e-03 6.338681e-03 3.970297e-03 2.353766e-03 1.321692e-03 7.039724e-04 3.562462e-04 1.716552e-04 7.901712e-05 3.501689e-05 1.531181e-05 7.278933e-06 5.124522e-06 7.278464e-06 1.531051e-05 3.501417e-05 7.901102e-05 1.716428e-04 3.562204e-04 7.039210e-04 1.321596e-03 2.353591e-03 3.970022e-03 6.338243e-03 9.580569e-03 1.375028e-02 1.885503e-02 2.497583e-02 3.234640e-02 4.140414e-02 5.236299e-02 6.524592e-02 7.954099e-02 9.525153e-02 9.560330e-02 7.387138e-02 4.677360e-02 2.589782e-02 1.224246e-02 4.947093e-03 1.690427e-03 4.896198e-04 1.186862e-04 2.436800e-05 
7.062393e-06 2.212243e-05 1.072796e-04 4.425396e-04 1.533733e-03 4.516671e-03 1.128351e-02 2.413947e-02 4.416636e-02 7.077202e-02 9.429071e-02 9.688614e-02 8.199350e-02 6.707791e-02 5.387063e-02 4.256231e-02 3.316951e-02 2.545885e-02 1.907473e-02 1.381496e-02 9.584602e-03 6.331902e-03 3.970725e-03 2.362059e-03 1.333736e-03 7.160928e-04 3.665821e-04 1.798012e-04 8.531399e-05 4.002159e-05 1.953063e-05 1.109192e-05 8.811475e-06 1.109097e-05 1.952848e-05 4.001786e-05 8.530721e-05 1.797890e-04 3.665582e-04 7.160453e-04 1.333647e-03 2.361889e-03 3.970450e-03 6.331436e-03 9.583965e-03 1.381403e-02 1.907361e-02 2.545754e-02 3.316825e-02 4.256208e-02 5.387141e-02 6.707919e-02 8.199609e-02 9.689995e-02 9.429779e-02 7.076110e-02 4.415591e-02 2.413364e-02 1.128114e-02 4.515854e-03 1.533523e-03 4.424890e-04 1.072717e-04 2.212095e-05 