# vtk DataFile Version 2.0
Comment goes here
ASCII

DATASET STRUCTURED_POINTS
FIELD FieldData 1
TIME 1 1 double
1.06000000
DIMENSIONS    64   64   1

ORIGIN    0.000   0.000   0.000
SPACING   0.015625 0.015625   1.000

POINT_DATA   4096
SCALARS Concentration double
LOOKUP_TABLE default

2.249322e-03 2.282370e-03 2.390558e-03 2.576262e-03 2.843926e-03 3.200103e-03 3.654223e-03 4.218641e-03 4.909792e-03 5.748092e-03 6.759228e-03 7.973467e-03 9.426444e-03 1.115709e-02 1.320691e-02 1.561584e-02 1.841917e-02 2.164174e-02 2.529297e-02 2.936200e-02 3.381319e-02 3.858655e-02 4.359604e-02 4.873773e-02 5.388779e-02 5.891336e-02 6.367121e-02 6.802224e-02 7.182787e-02 7.496313e-02 7.731531e-02 7.879340e-02 7.933039e-02 7.888643e-02 7.749129e-02 7.520925e-02 7.212972e-02 6.836356e-02 6.403642e-02 5.928674e-02 5.425665e-02 4.909066e-02 4.392603e-02 3.888856e-02 3.408601e-02 2.960509e-02 2.550850e-02 2.183187e-02 1.858726e-02 1.576469e-02 1.333939e-02 1.127544e-02 9.532436e-03 8.068518e-03 6.844189e-03 5.823733e-03 4.976413e-03 4.276642e-03 3.703662e-03 3.241210e-03 2.876688e-03 2.600829e-03 2.406917e-03 2.290591e-03 
2.321265e-03 2.354927e-03 2.465285e-03 2.654703e-03 2.927619e-03 3.290582e-03 3.753034e-03 4.327373e-03 5.030110e-03 5.881805e-03 6.908348e-03 8.140340e-03 9.613832e-03 1.136838e-02 1.344621e-02 1.588827e-02 1.873097e-02 2.200056e-02 2.570796e-02 2.984402e-02 3.437476e-02 3.924186e-02 4.436099e-02 4.963041e-02 5.492703e-02 6.011545e-02 6.504812e-02 6.957906e-02 7.356009e-02 7.685409e-02 7.933538e-02 8.090000e-02 8.147182e-02 8.100545e-02 7.953433e-02 7.713087e-02 7.389696e-02 6.995648e-02 6.544777e-02 6.051964e-02 5.532198e-02 5.000437e-02 4.470701e-02 3.955609e-02 3.465694e-02 3.009437e-02 2.592931e-02 2.219552e-02 1.890327e-02 1.604092e-02 1.358222e-02 1.149005e-02 9.722983e-03 8.238379e-03 6.996119e-03 5.960054e-03 5.099115e-03 4.387512e-03 3.804341e-03 3.333270e-03 2.961661e-03 2.680239e-03 2.482294e-03 2.363475e-03 
2.538664e-03 2.574161e-03 2.691011e-03 2.891544e-03 3.180172e-03 3.563425e-03 4.050788e-03 4.654754e-03 5.392073e-03 6.283680e-03 7.356104e-03 8.640830e-03 1.017521e-02 1.200049e-02 1.416116e-02 1.670091e-02 1.965961e-02 2.306752e-02 2.694013e-02 3.127332e-02 3.603815e-02 4.118151e-02 4.662348e-02 5.226727e-02 5.799010e-02 6.365103e-02 6.908944e-02 7.414043e-02 7.862735e-02 8.237883e-02 8.523152e-02 8.704491e-02 8.771662e-02 8.718598e-02 8.549633e-02 8.274359e-02 7.906480e-02 7.462168e-02 6.958824e-02 6.414396e-02 5.846028e-02 5.270203e-02 4.701662e-02 4.153183e-02 3.634810e-02 3.154530e-02 2.717894e-02 2.327708e-02 1.984471e-02 1.686514e-02 1.430795e-02 1.213233e-02 1.029401e-02 8.747980e-03 7.452431e-03 6.369860e-03 5.468323e-03 4.721378e-03 4.107762e-03 3.610908e-03 3.218093e-03 2.920013e-03 2.709986e-03 2.583697e-03 
2.906880e-03 2.945429e-03 3.073140e-03 3.292279e-03 3.607223e-03 4.024473e-03 4.553580e-03 5.207208e-03 6.002491e-03 6.961002e-03 8.110278e-03 9.483295e-03 1.111945e-02 1.306276e-02 1.536125e-02 1.806316e-02 2.121364e-02 2.484944e-02 2.899301e-02 3.364815e-02 3.879355e-02 4.438395e-02 5.034578e-02 5.658811e-02 6.298740e-02 6.939433e-02 7.562901e-02 8.149743e-02 8.677969e-02 9.125077e-02 9.468863e-02 9.689432e-02 9.772410e-02 9.709248e-02 9.505895e-02 9.175637e-02 8.737800e-02 8.214450e-02 7.628577e-02 7.002814e-02 6.357640e-02 5.711847e-02 5.081290e-02 4.479074e-02 3.914686e-02 3.395405e-02 2.925947e-02 2.508248e-02 2.141969e-02 1.824664e-02 1.552622e-02 1.321186e-02 1.125473e-02 9.606078e-03 8.221326e-03 7.060841e-03 6.091226e-03 5.285008e-03 4.620317e-03 4.080210e-03 3.651820e-03 3.325795e-03 3.095496e-03 2.956664e-03 
3.434930e-03 3.477754e-03 3.620761e-03 3.866140e-03 4.218219e-03 4.683460e-03 5.271518e-03 5.995290e-03 6.872444e-03 7.925398e-03 9.183070e-03 1.068037e-02 1.245943e-02 1.456789e-02 1.705841e-02 1.998499e-02 2.339976e-02 2.734752e-02 3.185969e-02 3.694971e-02 4.260574e-02 4.879196e-02 5.544213e-02 6.247202e-02 6.975605e-02 7.713563e-02 8.440648e-02 9.133954e-02 9.765845e-02 1.030697e-01 1.072729e-01 1.099927e-01 1.110298e-01 1.102669e-01 1.077837e-01 1.037625e-01 9.847028e-02 9.220608e-02 8.527132e-02 7.795359e-02 7.049893e-02 6.312495e-02 5.600359e-02 4.927051e-02 4.301448e-02 3.729958e-02 3.216290e-02 2.761262e-02 2.363517e-02 2.019597e-02 1.724969e-02 1.474220e-02 1.261891e-02 1.082614e-02 9.315772e-03 8.045321e-03 6.979519e-03 6.089488e-03 5.352561e-03 4.751279e-03 4.272575e-03 3.907025e-03 3.648049e-03 3.491463e-03 
4.135545e-03 4.183869e-03 4.346740e-03 4.626249e-03 5.026678e-03 5.554452e-03 6.219387e-03 7.034696e-03 8.018746e-03 9.195037e-03 1.059419e-02 1.225350e-02 1.421841e-02 1.654090e-02 1.927910e-02 2.249392e-02 2.624534e-02 3.058762e-02 3.556177e-02 4.119195e-02 4.747557e-02 5.438624e-02 6.186394e-02 6.982998e-02 7.815415e-02 8.666765e-02 9.514075e-02 1.033076e-01 1.108305e-01 1.173372e-01 1.224369e-01 1.257604e-01 1.270428e-01 1.261267e-01 1.231173e-01 1.182560e-01 1.118994e-01 1.044376e-01 9.625385e-02 8.770327e-02 7.907627e-02 7.062358e-02 6.253215e-02 5.494556e-02 4.794718e-02 4.159288e-02 3.590921e-02 3.089275e-02 2.651864e-02 2.274128e-02 1.950580e-02 1.674948e-02 1.441098e-02 1.243080e-02 1.075661e-02 9.342521e-03 8.150966e-03 7.151343e-03 6.319986e-03 5.638761e-03 5.094334e-03 4.677163e-03 4.380732e-03 4.200936e-03 
5.024832e-03 5.079903e-03 5.267364e-03 5.589208e-03 6.049669e-03 6.655158e-03 7.415714e-03 8.344975e-03 9.462187e-03 1.079215e-02 1.236750e-02 1.422829e-02 1.642372e-02 1.901060e-02 2.205324e-02 2.561994e-02 2.977946e-02 3.459563e-02 4.011963e-02 4.638526e-02 5.339836e-02 6.113929e-02 6.955193e-02 7.856138e-02 8.803030e-02 9.778086e-02 1.075577e-01 1.170627e-01 1.258913e-01 1.335898e-01 1.396659e-01 1.436485e-01 1.451992e-01 1.441183e-01 1.405371e-01 1.347630e-01 1.272501e-01 1.184893e-01 1.089487e-01 9.905645e-02 8.914597e-02 7.950347e-02 7.033112e-02 6.178272e-02 5.393740e-02 4.684358e-02 4.051957e-02 3.495053e-02 3.010146e-02 2.591500e-02 2.232688e-02 1.926484e-02 1.666041e-02 1.444759e-02 1.256945e-02 1.097618e-02 9.627651e-03 8.491218e-03 7.542017e-03 6.761085e-03 6.134718e-03 5.653209e-03 5.310085e-03 5.101333e-03 
6.122411e-03 6.185517e-03 6.402557e-03 6.775441e-03 7.308376e-03 8.007779e-03 8.884043e-03 9.951363e-03 1.123013e-02 1.274669e-02 1.453610e-02 1.664153e-02 1.911640e-02 2.202293e-02 2.543208e-02 2.942045e-02 3.406587e-02 3.944268e-02 4.561128e-02 5.261465e-02 6.046308e-02 6.913976e-02 7.858548e-02 8.872352e-02 9.939993e-02 1.104250e-01 1.215211e-01 1.323690e-01 1.425078e-01 1.514065e-01 1.584747e-01 1.631305e-01 1.649593e-01 1.637119e-01 1.595521e-01 1.528554e-01 1.441812e-01 1.341191e-01 1.232146e-01 1.119591e-01 1.007189e-01 8.981777e-02 7.947611e-02 6.986861e-02 6.107377e-02 5.313783e-02 4.607420e-02 3.985977e-02 3.445037e-02 2.977755e-02 2.576718e-02 2.233704e-02 1.941094e-02 1.691578e-02 1.478962e-02 1.297824e-02 1.143866e-02 1.013581e-02 9.043410e-03 8.141422e-03 7.415657e-03 6.856126e-03 6.456379e-03 6.212470e-03 
7.450581e-03 7.523081e-03 7.775058e-03 8.208347e-03 8.827126e-03 9.637899e-03 1.065153e-02 1.188300e-02 1.335411e-02 1.509316e-02 1.713799e-02 1.953531e-02 2.234331e-02 2.563009e-02 2.947414e-02 3.396095e-02 3.917876e-02 4.521240e-02 5.213220e-02 5.998716e-02 6.878913e-02 7.851508e-02 8.909484e-02 1.004404e-01 1.123693e-01 1.246790e-01 1.370727e-01 1.492288e-01 1.606261e-01 1.706696e-01 1.786767e-01 1.839684e-01 1.860623e-01 1.846628e-01 1.799653e-01 1.724057e-01 1.626338e-01 1.513285e-01 1.390965e-01 1.264906e-01 1.138997e-01 1.016885e-01 9.009799e-02 7.933420e-02 6.948223e-02 6.059080e-02 5.267721e-02 4.571241e-02 3.964711e-02 3.440111e-02 2.989104e-02 2.602336e-02 2.271379e-02 1.988122e-02 1.745830e-02 1.538590e-02 1.361776e-02 1.211607e-02 1.085277e-02 9.806481e-03 8.962313e-03 8.309894e-03 7.842714e-03 7.556899e-03 
9.034474e-03 9.117839e-03 9.410734e-03 9.914799e-03 1.063427e-02 1.157580e-02 1.275097e-02 1.417577e-02 1.587396e-02 1.787615e-02 2.022369e-02 2.296737e-02 2.617099e-02 2.990949e-02 3.427019e-02 3.934959e-02 4.524801e-02 5.206390e-02 5.987714e-02 6.874376e-02 7.866977e-02 8.961905e-02 1.014929e-01 1.141751e-01 1.274198e-01 1.409932e-01 1.545816e-01 1.678978e-01 1.803947e-01 1.914328e-01 2.002681e-01 2.061281e-01 2.084695e-01 2.069366e-01 2.017730e-01 1.934661e-01 1.827546e-01 1.703800e-01 1.569771e-01 1.431195e-01 1.291848e-01 1.155929e-01 1.026244e-01 9.054650e-02 7.946919e-02 6.945569e-02 6.053454e-02 5.267706e-02 4.582980e-02 3.990084e-02 3.479544e-02 3.040667e-02 2.664042e-02 2.340599e-02 2.062986e-02 1.824704e-02 1.620757e-02 1.447020e-02 1.300472e-02 1.178796e-02 1.080409e-02 1.004211e-02 9.495396e-03 9.160092e-03 
1.090044e-02 1.099635e-02 1.133695e-02 1.192365e-02 1.276061e-02 1.385484e-02 1.521881e-02 1.687001e-02 1.883459e-02 2.114627e-02 2.385057e-02 2.700332e-02 3.067496e-02 3.494888e-02 3.992363e-02 4.570972e-02 5.242410e-02 6.018151e-02 6.907541e-02 7.916463e-02 9.044667e-02 1.028530e-01 1.162405e-01 1.304299e-01 1.450781e-01 1.599165e-01 1.746314e-01 1.890146e-01 2.024556e-01 2.142911e-01 2.237499e-01 2.300239e-01 2.325549e-01 2.309318e-01 2.254525e-01 2.166135e-01 2.051820e-01 1.919240e-01 1.774632e-01 1.624049e-01 1.471027e-01 1.320385e-01 1.175284e-01 1.039280e-01 9.140102e-02 8.003721e-02 6.989736e-02 6.095665e-02 5.316421e-02 4.641267e-02 4.059414e-02 3.558339e-02 3.127362e-02 2.756187e-02 2.436681e-02 2.161653e-02 1.925644e-02 1.724120e-02 1.553777e-02 1.412073e-02 1.297285e-02 1.208233e-02 1.144227e-02 1.104884e-02 
1.307588e-02 1.318632e-02 1.358260e-02 1.426583e-02 1.524016e-02 1.651286e-02 1.809760e-02 2.001393e-02 2.229129e-02 2.496715e-02 2.809257e-02 3.172936e-02 3.595675e-02 4.086887e-02 4.657989e-02 5.322015e-02 6.092956e-02 6.984727e-02 8.008129e-02 9.169735e-02 1.046708e-01 1.188955e-01 1.341525e-01 1.501517e-01 1.663876e-01 1.824789e-01 1.981049e-01 2.132682e-01 2.273839e-01 2.397722e-01 2.496905e-01 2.562939e-01 2.589982e-01 2.572922e-01 2.515784e-01 2.423617e-01 2.304588e-01 2.166279e-01 2.014309e-01 1.853881e-01 1.687132e-01 1.519968e-01 1.356551e-01 1.201872e-01 1.058581e-01 9.280691e-02 8.113985e-02 7.084813e-02 6.188485e-02 5.412510e-02 4.744105e-02 4.168177e-02 3.672195e-02 3.244144e-02 2.874880e-02 2.556291e-02 2.282374e-02 2.048060e-02 1.849700e-02 1.684447e-02 1.550397e-02 1.446254e-02 1.371287e-02 1.325113e-02 
1.558659e-02 1.571406e-02 1.617567e-02 1.697208e-02 1.810743e-02 1.958942e-02 2.143326e-02 2.366080e-02 2.630552e-02 2.941012e-02 3.303217e-02 3.724133e-02 4.212779e-02 4.780082e-02 5.439627e-02 6.207335e-02 7.100499e-02 8.136095e-02 9.326749e-02 1.067840e-01 1.218565e-01 1.383012e-01 1.558061e-01 1.738787e-01 1.918089e-01 2.091571e-01 2.257067e-01 2.417147e-01 2.564009e-01 2.690697e-01 2.790834e-01 2.857036e-01 2.884536e-01 2.867295e-01 2.810510e-01 2.718222e-01 2.597584e-01 2.455245e-01 2.295693e-01 2.124736e-01 1.943913e-01 1.759669e-01 1.575892e-01 1.399145e-01 1.233975e-01 1.082476e-01 9.466783e-02 8.267781e-02 7.225299e-02 6.324708e-02 5.550689e-02 4.884435e-02 4.310638e-02 3.814872e-02 3.386519e-02 3.016324e-02 2.697548e-02 2.424506e-02 2.193093e-02 2.000098e-02 1.843363e-02 1.721449e-02 1.633573e-02 1.579348e-02 
1.845577e-02 1.860350e-02 1.914239e-02 2.007251e-02 2.139781e-02 2.312653e-02 2.527591e-02 2.787078e-02 3.094950e-02 3.456008e-02 3.876930e-02 4.365580e-02 4.932526e-02 5.590679e-02 6.356901e-02 7.251156e-02 8.295335e-02 9.510212e-02 1.090910e-01 1.249635e-01 1.425944e-01 1.617359e-01 1.819448e-01 2.025440e-01 2.226038e-01 2.412419e-01 2.582135e-01 2.744376e-01 2.893386e-01 3.021303e-01 3.122564e-01 3.190177e-01 3.218786e-01 3.200634e-01 3.142692e-01 3.049196e-01 2.927855e-01 2.785136e-01 2.624371e-01 2.448368e-01 2.254031e-01 2.049289e-01 1.841130e-01 1.638086e-01 1.446441e-01 1.269165e-01 1.109509e-01 9.683228e-02 8.457735e-02 7.402653e-02 6.499409e-02 5.724019e-02 5.057157e-02 4.480787e-02 3.982315e-02 3.550881e-02 3.178918e-02 2.859957e-02 2.589359e-02 2.363470e-02 2.179859e-02 2.036910e-02 1.933755e-02 1.870004e-02 
2.170057e-02 2.187282e-02 2.250405e-02 2.359342e-02 2.514445e-02 2.716586e-02 2.967717e-02 3.270687e-02 3.629918e-02 4.050847e-02 4.540960e-02 5.109432e-02 5.768718e-02 6.534711e-02 7.428762e-02 8.476819e-02 9.706604e-02 1.114279e-01 1.279707e-01 1.466695e-01 1.672836e-01 1.894329e-01 2.126073e-01 2.356440e-01 2.574504e-01 2.772976e-01 2.955397e-01 3.129259e-01 3.280684e-01 3.404786e-01 3.498471e-01 3.557833e-01 3.582072e-01 3.566646e-01 3.515640e-01 3.430120e-01 3.313999e-01 3.170320e-01 2.998434e-01 2.807982e-01 2.602042e-01 2.383147e-01 2.153471e-01 1.921954e-01 1.700558e-01 1.492923e-01 1.304393e-01 1.136947e-01 9.917084e-02 8.671407e-02 7.610609e-02 6.704085e-02 5.926499e-02 5.254861e-02 4.673539e-02 4.169715e-02 3.734674e-02 3.361123e-02 3.043887e-02 2.778873e-02 2.563279e-02 2.395304e-02 2.273971e-02 2.198907e-02 
2.532987e-02 2.553226e-02 2.627472e-02 2.755514e-02 2.937612e-02 3.174663e-02 3.468862e-02 3.823440e-02 4.243497e-02 4.735101e-02 5.306775e-02 5.968679e-02 6.736269e-02 7.629250e-02 8.675811e-02 9.909433e-02 1.136550e-01 1.307092e-01 1.503084e-01 1.722932e-01 1.961926e-01 2.214906e-01 2.474420e-01 2.732352e-01 2.981998e-01 3.196161e-01 3.368201e-01 3.508967e-01 3.617385e-01 3.696394e-01 3.748646e-01 3.778377e-01 3.788426e-01 3.781468e-01 3.755619e-01 3.708567e-01 3.635639e-01 3.535015e-01 3.399567e-01 3.227414e-01 3.014781e-01 2.767055e-01 2.510396e-01 2.251670e-01 1.999095e-01 1.757349e-01 1.535071e-01 1.336187e-01 1.163357e-01 1.015593e-01 8.905065e-02 7.842184e-02 6.934219e-02 6.150820e-02 5.472429e-02 4.883254e-02 4.373457e-02 3.934986e-02 3.562163e-02 3.250432e-02 2.996607e-02 2.798708e-02 2.655640e-02 2.567078e-02 
2.934152e-02 2.958140e-02 3.045881e-02 3.196972e-02 3.411504e-02 3.690344e-02 4.035887e-02 4.451728e-02 4.943598e-02 5.518162e-02 6.184928e-02 6.955324e-02 7.847900e-02 8.888555e-02 1.011414e-01 1.156892e-01 1.329621e-01 1.532432e-01 1.764570e-01 2.022510e-01 2.298181e-01 2.586511e-01 2.880124e-01 3.147619e-01 3.363434e-01 3.507934e-01 3.582918e-01 3.611155e-01 3.621745e-01 3.626879e-01 3.628564e-01 3.628728e-01 3.626699e-01 3.626500e-01 3.624372e-01 3.622107e-01 3.617072e-01 3.609814e-01 3.588854e-01 3.522199e-01 3.391502e-01 3.188060e-01 2.930507e-01 2.638359e-01 2.347383e-01 2.066986e-01 1.805588e-01 1.569548e-01 1.363635e-01 1.187956e-01 1.040109e-01 9.153807e-02 8.093733e-02 7.181069e-02 6.390045e-02 5.701192e-02 5.103418e-02 4.588109e-02 4.149113e-02 3.781602e-02 3.482006e-02 3.248250e-02 3.079134e-02 2.974434e-02 
3.371884e-02 3.400557e-02 3.504686e-02 3.683604e-02 3.937100e-02 4.265915e-02 4.672534e-02 5.160806e-02 5.736985e-02 6.408070e-02 7.184603e-02 8.079209e-02 9.114786e-02 1.032501e-01 1.175947e-01 1.347380e-01 1.552167e-01 1.792633e-01 2.066336e-01 2.367475e-01 2.686032e-01 3.002663e-01 3.270780e-01 3.441725e-01 3.496111e-01 3.464877e-01 3.405589e-01 3.356866e-01 3.329143e-01 3.319562e-01 3.321491e-01 3.325621e-01 3.326136e-01 3.323554e-01 3.316286e-01 3.310606e-01 3.315002e-01 3.338599e-01 3.388081e-01 3.449626e-01 3.492298e-01 3.458321e-01 3.313341e-01 3.061770e-01 2.749331e-01 2.424341e-01 2.118209e-01 1.839641e-01 1.594980e-01 1.386267e-01 1.211560e-01 1.065229e-01 9.417047e-02 8.356366e-02 7.436240e-02 6.632191e-02 5.931838e-02 5.326090e-02 4.808652e-02 4.374703e-02 4.020403e-02 3.743737e-02 3.543427e-02 3.419462e-02 
3.843122e-02 3.877652e-02 4.001675e-02 4.214130e-02 4.514333e-02 4.902716e-02 5.381651e-02 5.954999e-02 6.629237e-02 7.411325e-02 8.312615e-02 9.347226e-02 1.054361e-01 1.194611e-01 1.361896e-01 1.563292e-01 1.804850e-01 2.088181e-01 2.408349e-01 2.755342e-01 3.092347e-01 3.345277e-01 3.443979e-01 3.394961e-01 3.271538e-01 3.149185e-01 3.071435e-01 3.039998e-01 3.031716e-01 3.034940e-01 3.042955e-01 3.048150e-01 3.048846e-01 3.045695e-01 3.037667e-01 3.027219e-01 3.020965e-01 3.025628e-01 3.056057e-01 3.128741e-01 3.246192e-01 3.372830e-01 3.443737e-01 3.381140e-01 3.156583e-01 2.828768e-01 2.476584e-01 2.149281e-01 1.859782e-01 1.612342e-01 1.405991e-01 1.234611e-01 1.091036e-01 9.682780e-02 8.616968e-02 7.682093e-02 6.863698e-02 6.152744e-02 5.543130e-02 5.030622e-02 4.611327e-02 4.283560e-02 4.046080e-02 3.899219e-02 
4.342867e-02 4.384684e-02 4.532657e-02 4.785199e-02 5.140865e-02 5.599552e-02 6.163124e-02 6.835124e-02 7.621736e-02 8.529422e-02 9.570275e-02 1.076028e-01 1.213618e-01 1.375492e-01 1.570142e-01 1.805855e-01 2.089827e-01 2.420943e-01 2.787649e-01 3.143868e-01 3.378775e-01 3.414241e-01 3.288414e-01 3.115924e-01 2.963966e-01 2.847725e-01 2.775232e-01 2.745932e-01 2.743843e-01 2.754972e-01 2.769214e-01 2.778918e-01 2.781489e-01 2.776946e-01 2.765194e-01 2.749019e-01 2.735941e-01 2.735400e-01 2.763941e-01 2.832195e-01 2.941804e-01 3.084461e-01 3.253883e-01 3.398322e-01 3.406245e-01 3.212962e-01 2.870412e-01 2.498207e-01 2.159602e-01 1.867450e-01 1.624409e-01 1.423922e-01 1.257651e-01 1.116186e-01 9.934135e-02 8.852711e-02 7.900444e-02 7.068707e-02 6.352074e-02 5.747730e-02 5.252006e-02 4.864011e-02 4.582650e-02 4.408838e-02 
4.864931e-02 4.915696e-02 5.092267e-02 5.392268e-02 5.813167e-02 6.353944e-02 7.015450e-02 7.800330e-02 8.713844e-02 9.761244e-02 1.095549e-01 1.231504e-01 1.388801e-01 1.574765e-01 1.799868e-01 2.073963e-01 2.403165e-01 2.781767e-01 3.159383e-01 3.392672e-01 3.392642e-01 3.222898e-01 3.013875e-01 2.826061e-01 2.674045e-01 2.564379e-01 2.500252e-01 2.476481e-01 2.477823e-01 2.491496e-01 2.507017e-01 2.517572e-01 2.520706e-01 2.516060e-01 2.504158e-01 2.487471e-01 2.472992e-01 2.470036e-01 2.492920e-01 2.552841e-01 2.655801e-01 2.798543e-01 2.978045e-01 3.182146e-01 3.365738e-01 3.415151e-01 3.233095e-01 2.871705e-01 2.489710e-01 2.150030e-01 1.865241e-01 1.632053e-01 1.440511e-01 1.278593e-01 1.138203e-01 1.014017e-01 9.039107e-02 8.071230e-02 7.232388e-02 6.522259e-02 5.937920e-02 5.479826e-02 5.147314e-02 4.942141e-02 
5.401151e-02 5.462718e-02 5.672796e-02 6.028058e-02 6.524293e-02 7.159158e-02 7.931634e-02 8.842892e-02 9.896108e-02 1.109503e-01 1.245329e-01 1.399363e-01 1.577883e-01 1.790099e-01 2.048860e-01 2.364048e-01 2.739161e-01 3.133247e-01 3.394472e-01 3.395828e-01 3.207689e-01 2.972089e-01 2.751934e-01 2.565040e-01 2.418353e-01 2.314724e-01 2.252785e-01 2.226992e-01 2.225221e-01 2.235992e-01 2.249609e-01 2.259593e-01 2.262867e-01 2.258680e-01 2.248020e-01 2.233779e-01 2.222741e-01 2.223415e-01 2.248060e-01 2.305910e-01 2.403136e-01 2.540376e-01 2.717449e-01 2.928390e-01 3.158735e-01 3.365533e-01 3.422444e-01 3.216724e-01 2.838558e-01 2.453521e-01 2.125242e-01 1.856425e-01 1.637790e-01 1.453915e-01 1.294690e-01 1.153278e-01 1.026937e-01 9.151261e-02 8.175593e-02 7.346116e-02 6.660999e-02 6.122910e-02 5.731855e-02 5.490925e-02 
5.942829e-02 6.017199e-02 6.265910e-02 6.684400e-02 7.266266e-02 8.007165e-02 8.903305e-02 9.953483e-02 1.115770e-01 1.251741e-01 1.404775e-01 1.577584e-01 1.778524e-01 2.018272e-01 2.311802e-01 2.670227e-01 3.075328e-01 3.386141e-01 3.427268e-01 3.233019e-01 2.978746e-01 2.734854e-01 2.518160e-01 2.336231e-01 2.193890e-01 2.092492e-01 2.029604e-01 1.999327e-01 1.991555e-01 1.996634e-01 2.005887e-01 2.013431e-01 2.016103e-01 2.012967e-01 2.005177e-01 1.995647e-01 1.990462e-01 1.997175e-01 2.025789e-01 2.084448e-01 2.179457e-01 2.312847e-01 2.484957e-01 2.692154e-01 2.926943e-01 3.180329e-01 3.401541e-01 3.426969e-01 3.170338e-01 2.767484e-01 2.395634e-01 2.091660e-01 1.845700e-01 1.639253e-01 1.460585e-01 1.301175e-01 1.157582e-01 1.029567e-01 9.170301e-02 8.208945e-02 7.411616e-02 6.783967e-02 6.327275e-02 6.046332e-02 
6.479483e-02 6.568697e-02 6.860887e-02 7.349962e-02 8.026692e-02 8.884073e-02 9.914187e-02 1.111270e-01 1.247436e-01 1.399853e-01 1.570038e-01 1.761454e-01 1.984376e-01 2.250868e-01 2.577160e-01 2.975192e-01 3.347379e-01 3.473636e-01 3.312086e-01 3.038112e-01 2.770618e-01 2.529828e-01 2.318780e-01 2.142589e-01 2.003047e-01 1.900769e-01 1.832930e-01 1.794633e-01 1.777884e-01 1.774689e-01 1.777675e-01 1.781530e-01 1.783114e-01 1.781378e-01 1.777494e-01 1.774303e-01 1.777253e-01 1.792713e-01 1.828832e-01 1.892298e-01 1.988426e-01 2.119663e-01 2.286663e-01 2.488463e-01 2.720037e-01 2.980606e-01 3.255393e-01 3.463057e-01 3.409604e-01 3.076980e-01 2.674269e-01 2.334563e-01 2.060522e-01 1.831080e-01 1.632371e-01 1.454639e-01 1.293100e-01 1.148135e-01 1.019678e-01 9.094099e-02 8.175376e-02 7.450348e-02 6.922080e-02 6.597598e-02 
7.000927e-02 7.106934e-02 7.446956e-02 8.013010e-02 8.792481e-02 9.775078e-02 1.094746e-01 1.230131e-01 1.382413e-01 1.551327e-01 1.738365e-01 1.947839e-01 2.193347e-01 2.484376e-01 2.850086e-01 3.257444e-01 3.502221e-01 3.428719e-01 3.153829e-01 2.866283e-01 2.600654e-01 2.365213e-01 2.159728e-01 1.986542e-01 1.846483e-01 1.739857e-01 1.664478e-01 1.616382e-01 1.589340e-01 1.576861e-01 1.572699e-01 1.572152e-01 1.572290e-01 1.572073e-01 1.572555e-01 1.576353e-01 1.588195e-01 1.613539e-01 1.658985e-01 1.729838e-01 1.830490e-01 1.962818e-01 2.127562e-01 2.323963e-01 2.550384e-01 2.806763e-01 3.089371e-01 3.377979e-01 3.521544e-01 3.347274e-01 2.957780e-01 2.576718e-01 2.276515e-01 2.024483e-01 1.806204e-01 1.610351e-01 1.430668e-01 1.268382e-01 1.123447e-01 9.984057e-02 8.937478e-02 8.109214e-02 7.504886e-02 7.134167e-02 
7.495667e-02 7.620180e-02 8.011257e-02 8.658718e-02 9.546038e-02 1.065919e-01 1.197818e-01 1.349000e-01 1.517207e-01 1.702000e-01 1.904297e-01 2.129802e-01 2.395083e-01 2.707740e-01 3.109207e-01 3.469198e-01 3.549889e-01 3.319744e-01 3.021133e-01 2.734602e-01 2.476706e-01 2.245494e-01 2.042591e-01 1.868548e-01 1.724345e-01 1.610390e-01 1.525213e-01 1.465895e-01 1.427617e-01 1.405132e-01 1.393238e-01 1.387840e-01 1.386309e-01 1.387655e-01 1.392791e-01 1.404033e-01 1.425441e-01 1.461626e-01 1.517905e-01 1.598466e-01 1.706623e-01 1.843654e-01 2.009809e-01 2.204330e-01 2.426633e-01 2.676408e-01 2.955927e-01 3.254937e-01 3.524953e-01 3.525331e-01 3.216013e-01 2.807411e-01 2.482488e-01 2.212473e-01 1.975791e-01 1.763113e-01 1.565767e-01 1.386561e-01 1.225267e-01 1.085410e-01 9.678078e-02 8.744457e-02 8.062172e-02 7.643901e-02 
7.953300e-02 8.097523e-02 8.541352e-02 9.272156e-02 1.026927e-01 1.151473e-01 1.298141e-01 1.465136e-01 1.648894e-01 1.849022e-01 2.064338e-01 2.304036e-01 2.581630e-01 2.918991e-01 3.331420e-01 3.597398e-01 3.526036e-01 3.225930e-01 2.930581e-01 2.651865e-01 2.399010e-01 2.169901e-01 1.965493e-01 1.786944e-01 1.635402e-01 1.511853e-01 1.415520e-01 1.344358e-01 1.294650e-01 1.262150e-01 1.242513e-01 1.232216e-01 1.228931e-01 1.231763e-01 1.241477e-01 1.260105e-01 1.291115e-01 1.338373e-01 1.406209e-01 1.497878e-01 1.615839e-01 1.760654e-01 1.931915e-01 2.128533e-01 2.349202e-01 2.594738e-01 2.864848e-01 3.160621e-01 3.466710e-01 3.621255e-01 3.429834e-01 3.032534e-01 2.678245e-01 2.393926e-01 2.138395e-01 1.909673e-01 1.695166e-01 1.499639e-01 1.322535e-01 1.168215e-01 1.037920e-01 9.341142e-02 8.581408e-02 8.115832e-02 
8.362821e-02 8.527344e-02 9.023513e-02 9.836224e-02 1.094089e-01 1.231559e-01 1.392687e-01 1.575191e-01 1.774259e-01 1.989481e-01 2.216754e-01 2.469165e-01 2.751961e-01 3.113885e-01 3.508481e-01 3.668016e-01 3.477528e-01 3.176832e-01 2.883918e-01 2.613562e-01 2.362003e-01 2.131688e-01 1.922367e-01 1.736480e-01 1.575494e-01 1.441053e-01 1.332985e-01 1.249980e-01 1.189138e-01 1.147004e-01 1.119934e-01 1.104910e-01 1.099908e-01 1.104137e-01 1.118249e-01 1.143984e-01 1.184293e-01 1.242438e-01 1.321983e-01 1.425468e-01 1.554633e-01 1.709375e-01 1.888620e-01 2.090559e-01 2.312940e-01 2.556286e-01 2.817611e-01 3.105197e-01 3.400724e-01 3.658456e-01 3.588762e-01 3.232474e-01 2.853891e-01 2.558129e-01 2.286497e-01 2.043327e-01 1.813702e-01 1.603295e-01 1.411823e-01 1.244023e-01 1.101876e-01 9.881828e-02 9.048737e-02 8.538289e-02 
8.714630e-02 8.898640e-02 9.443782e-02 1.033256e-01 1.153751e-01 1.303246e-01 1.478060e-01 1.675237e-01 1.889405e-01 2.119517e-01 2.359797e-01 2.623807e-01 2.910144e-01 3.280476e-01 3.636899e-01 3.696880e-01 3.440821e-01 3.156481e-01 2.871864e-01 2.607086e-01 2.355355e-01 2.121561e-01 1.905580e-01 1.710977e-01 1.539752e-01 1.394214e-01 1.274723e-01 1.180557e-01 1.109437e-01 1.058515e-01 1.024693e-01 1.005376e-01 9.987927e-02 1.004276e-01 1.022370e-01 1.054573e-01 1.103419e-01 1.171691e-01 1.262390e-01 1.377481e-01 1.518183e-01 1.683755e-01 1.872589e-01 2.081958e-01 2.308963e-01 2.552824e-01 2.810175e-01 3.087434e-01 3.371149e-01 3.664198e-01 3.694392e-01 3.389285e-01 3.006620e-01 2.699211e-01 2.416552e-01 2.160247e-01 1.918174e-01 1.694441e-01 1.490427e-01 1.310501e-01 1.157778e-01 1.035151e-01 9.452287e-02 8.901291e-02 
8.999464e-02 9.200725e-02 9.788506e-02 1.074316e-01 1.203530e-01 1.363466e-01 1.550407e-01 1.760601e-01 1.989000e-01 2.232882e-01 2.487636e-01 2.762183e-01 3.056766e-01 3.419390e-01 3.726647e-01 3.705415e-01 3.425963e-01 3.149912e-01 2.876230e-01 2.615990e-01 2.364680e-01 2.127224e-01 1.904788e-01 1.701790e-01 1.521034e-01 1.365426e-01 1.235835e-01 1.132001e-01 1.052101e-01 9.937378e-02 9.542188e-02 9.312810e-02 9.233654e-02 9.299145e-02 9.513853e-02 9.890845e-02 1.045232e-01 1.122253e-01 1.222751e-01 1.348259e-01 1.499634e-01 1.675530e-01 1.874008e-01 2.091186e-01 2.324103e-01 2.569759e-01 2.826641e-01 3.095461e-01 3.372843e-01 3.658437e-01 3.763450e-01 3.511040e-01 3.136180e-01 2.815663e-01 2.525950e-01 2.257737e-01 2.005614e-01 1.770229e-01 1.555696e-01 1.365415e-01 1.203786e-01 1.073572e-01 9.780579e-02 9.195252e-02 
9.209698e-02 9.424480e-02 1.004537e-01 1.105092e-01 1.241066e-01 1.409062e-01 1.605519e-01 1.825853e-01 2.065937e-01 2.320556e-01 2.588332e-01 2.870225e-01 3.175899e-01 3.525287e-01 3.786230e-01 3.704994e-01 3.426659e-01 3.154721e-01 2.889604e-01 2.631844e-01 2.380870e-01 2.140052e-01 1.912235e-01 1.702222e-01 1.513670e-01 1.349939e-01 1.212326e-01 1.100914e-01 1.014203e-01 9.501096e-02 9.062201e-02 8.805095e-02 8.715703e-02 8.789371e-02 9.030006e-02 9.449300e-02 1.006730e-01 1.090575e-01 1.198807e-01 1.332639e-01 1.492690e-01 1.677087e-01 1.883648e-01 2.107334e-01 2.345205e-01 2.591805e-01 2.847594e-01 3.107848e-01 3.379008e-01 3.649885e-01 3.803792e-01 3.600521e-01 3.237169e-01 2.906346e-01 2.611699e-01 2.333192e-01 2.072846e-01 1.827789e-01 1.604979e-01 1.406587e-01 1.238145e-01 1.102122e-01 1.002355e-01 9.412134e-02 
9.338910e-02 9.562347e-02 1.020438e-01 1.124235e-01 1.264525e-01 1.437651e-01 1.640226e-01 1.867068e-01 2.114939e-01 2.376476e-01 2.653423e-01 2.939419e-01 3.254044e-01 3.592319e-01 3.819439e-01 3.700601e-01 3.428623e-01 3.158996e-01 2.899926e-01 2.643831e-01 2.393496e-01 2.150606e-01 1.919446e-01 1.704920e-01 1.511376e-01 1.342447e-01 1.199746e-01 1.083563e-01 9.925905e-02 9.249301e-02 8.783281e-02 8.509004e-02 8.413311e-02 8.492134e-02 8.748977e-02 9.194740e-02 9.848255e-02 1.072982e-01 1.186143e-01 1.325324e-01 1.491015e-01 1.680949e-01 1.892808e-01 2.120613e-01 2.361460e-01 2.607945e-01 2.861853e-01 3.115229e-01 3.381043e-01 3.644008e-01 3.826209e-01 3.657914e-01 3.304539e-01 2.967785e-01 2.669304e-01 2.382956e-01 2.116510e-01 1.864555e-01 1.636145e-01 1.432397e-01 1.259565e-01 1.119822e-01 1.017350e-01 9.545506e-02 
9.382635e-02 9.609061e-02 1.025831e-01 1.130730e-01 1.272488e-01 1.447354e-01 1.652026e-01 1.881112e-01 2.131803e-01 2.395819e-01 2.676388e-01 2.963855e-01 3.282549e-01 3.616425e-01 3.829991e-01 3.698340e-01 3.429386e-01 3.160891e-01 2.904204e-01 2.648865e-01 2.398839e-01 2.155233e-01 1.922871e-01 1.706709e-01 1.511354e-01 1.340551e-01 1.196024e-01 1.078140e-01 9.856587e-02 9.167420e-02 8.691879e-02 8.411584e-02 8.313664e-02 8.394255e-02 8.656736e-02 9.111725e-02 9.777674e-02 1.067439e-01 1.182343e-01 1.323424e-01 1.491129e-01 1.683054e-01 1.896818e-01 2.126110e-01 2.368021e-01 2.614468e-01 2.867731e-01 3.118841e-01 3.382893e-01 3.643127e-01 3.833194e-01 3.676328e-01 3.327279e-01 2.989143e-01 2.689304e-01 2.400050e-01 2.131358e-01 1.876942e-01 1.646609e-01 1.441050e-01 1.266755e-01 1.125774e-01 1.022402e-01 9.590535e-02 
9.338910e-02 9.562347e-02 1.020438e-01 1.124235e-01 1.264525e-01 1.437651e-01 1.640226e-01 1.867068e-01 2.114939e-01 2.376476e-01 2.653423e-01 2.939419e-01 3.254044e-01 3.592319e-01 3.819439e-01 3.700601e-01 3.428623e-01 3.158996e-01 2.899926e-01 2.643831e-01 2.393496e-01 2.150606e-01 1.919446e-01 1.704920e-01 1.511376e-01 1.342447e-01 1.199746e-01 1.083563e-01 9.925905e-02 9.249301e-02 8.783281e-02 8.509004e-02 8.413311e-02 8.492134e-02 8.748977e-02 9.194740e-02 9.848255e-02 1.072982e-01 1.186143e-01 1.325324e-01 1.491015e-01 1.680949e-01 1.892808e-01 2.120613e-01 2.361460e-01 2.607945e-01 2.861853e-01 3.115229e-01 3.381043e-01 3.644008e-01 3.826209e-01 3.657914e-01 3.304539e-01 2.967785e-01 2.669304e-01 2.382956e-01 2.116510e-01 1.864555e-01 1.636145e-01 1.432397e-01 1.259565e-01 1.119822e-01 1.017350e-01 9.545506e-02 
9.209698e-02 9.424480e-02 1.004537e-01 1.105092e-01 1.241066e-01 1.409062e-01 1.605519e-01 1.825853e-01 2.065937e-01 2.320556e-01 2.588332e-01 2.870225e-01 3.175899e-01 3.525287e-01 3.786230e-01 3.704994e-01 3.426659e-01 3.154721e-01 2.889604e-01 2.631844e-01 2.380870e-01 2.140052e-01 1.912235e-01 1.702222e-01 1.513670e-01 1.349939e-01 1.212326e-01 1.100914e-01 1.014203e-01 9.501096e-02 9.062201e-02 8.805095e-02 8.715703e-02 8.789371e-02 9.030006e-02 9.449300e-02 1.006730e-01 1.090575e-01 1.198807e-01 1.332639e-01 1.492690e-01 1.677087e-01 1.883648e-01 2.107334e-01 2.345205e-01 2.591805e-01 2.847594e-01 3.107848e-01 3.379008e-01 3.649885e-01 3.803792e-01 3.600521e-01 3.237169e-01 2.906346e-01 2.611699e-01 2.333192e-01 2.072846e-01 1.827789e-01 1.604979e-01 1.406587e-01 1.238145e-01 1.102122e-01 1.002355e-01 9.412134e-02 