# vtk DataFile Version 2.0
Comment goes here
ASCII

DATASET STRUCTURED_POINTS
FIELD FieldData 1
TIME 1 1 double
1.30000000
DIMENSIONS    64   64   1

ORIGIN    0.000   0.000   0.000
SPACING   0.015625 0.015625   1.000

POINT_DATA   4096
SCALARS Concentration double
LOOKUP_TABLE default

4.995990e-03 5.047959e-03 5.224763e-03 5.532063e-03 5.979980e-03 6.583038e-03 7.361328e-03 8.339948e-03 9.550520e-03 1.102962e-02 1.282039e-02 1.496850e-02 1.752322e-02 2.053029e-02 2.403239e-02 2.805833e-02 3.262435e-02 3.772093e-02 4.331855e-02 4.935465e-02 5.574746e-02 6.238440e-02 6.914368e-02 7.588323e-02 8.246483e-02 8.874093e-02 9.457203e-02 9.981741e-02 1.043484e-01 1.080455e-01 1.108056e-01 1.125457e-01 1.132053e-01 1.127514e-01 1.112010e-01 1.086055e-01 1.050434e-01 1.006113e-01 9.543054e-02 8.962821e-02 8.335225e-02 7.674457e-02 6.996211e-02 6.314623e-02 5.644640e-02 4.998718e-02 4.388610e-02 3.822636e-02 3.307273e-02 2.845503e-02 2.438290e-02 2.084002e-02 1.779657e-02 1.520982e-02 1.303262e-02 1.121582e-02 9.712403e-03 8.479521e-03 7.479436e-03 6.680714e-03 6.057534e-03 5.590007e-03 5.263193e-03 5.067106e-03 
5.108812e-03 5.161023e-03 5.339087e-03 5.648662e-03 6.099880e-03 6.707305e-03 7.491136e-03 8.476586e-03 9.695453e-03 1.118458e-02 1.298747e-02 1.515034e-02 1.772309e-02 2.075240e-02 2.428199e-02 2.834203e-02 3.295018e-02 3.809853e-02 4.375914e-02 4.987077e-02 5.635283e-02 6.309310e-02 6.997005e-02 7.684078e-02 8.356712e-02 8.999933e-02 9.599336e-02 1.014025e-01 1.060900e-01 1.099276e-01 1.128011e-01 1.146188e-01 1.153117e-01 1.148436e-01 1.132320e-01 1.105351e-01 1.068395e-01 1.022526e-01 9.690575e-02 9.093497e-02 8.449587e-02 7.773561e-02 7.081532e-02 6.387618e-02 5.706857e-02 5.051667e-02 4.433755e-02 3.861300e-02 3.340629e-02 2.874550e-02 2.463858e-02 2.106767e-02 1.800154e-02 1.539638e-02 1.320409e-02 1.137483e-02 9.861048e-03 8.619506e-03 7.612194e-03 6.807499e-03 6.179495e-03 5.708176e-03 5.378578e-03 5.180703e-03 
5.449581e-03 5.502502e-03 5.684349e-03 6.000765e-03 6.461911e-03 7.082433e-03 7.882781e-03 8.888501e-03 1.013194e-02 1.165065e-02 1.348922e-02 1.569541e-02 1.832114e-02 2.141561e-02 2.502579e-02 2.918562e-02 3.391719e-02 3.921717e-02 4.506245e-02 5.139581e-02 5.814020e-02 6.518496e-02 7.240904e-02 7.966755e-02 8.681986e-02 9.370988e-02 1.001808e-01 1.060693e-01 1.112152e-01 1.154641e-01 1.186703e-01 1.207153e-01 1.215056e-01 1.209959e-01 1.192053e-01 1.162107e-01 1.121238e-01 1.070829e-01 1.012492e-01 9.478483e-02 8.786720e-02 8.065878e-02 7.333132e-02 6.602876e-02 5.890398e-02 5.208013e-02 4.567239e-02 3.975817e-02 3.439632e-02 2.960951e-02 2.540091e-02 2.174787e-02 1.861534e-02 1.595609e-02 1.371944e-02 1.185344e-02 1.030905e-02 9.041805e-03 8.012985e-03 7.190430e-03 6.547899e-03 6.065131e-03 5.727112e-03 5.523826e-03 
6.026030e-03 6.080124e-03 6.268311e-03 6.596205e-03 7.074012e-03 7.716487e-03 8.544445e-03 9.583992e-03 1.086834e-02 1.243634e-02 1.433422e-02 1.661235e-02 1.932587e-02 2.252823e-02 2.627155e-02 3.059600e-02 3.553071e-02 4.107979e-02 4.722772e-02 5.392349e-02 6.109558e-02 6.863505e-02 7.642151e-02 8.430549e-02 9.214139e-02 9.976137e-02 1.069905e-01 1.136403e-01 1.195152e-01 1.244200e-01 1.281587e-01 1.305689e-01 1.315171e-01 1.309415e-01 1.288643e-01 1.253937e-01 1.206820e-01 1.149176e-01 1.083084e-01 1.010573e-01 9.337537e-02 8.544788e-02 7.746409e-02 6.957378e-02 6.193493e-02 5.466905e-02 4.788872e-02 4.166451e-02 3.604836e-02 3.105442e-02 2.667820e-02 2.288951e-02 1.964705e-02 1.689810e-02 1.458777e-02 1.266066e-02 1.106524e-02 9.755093e-03 8.690324e-03 7.837851e-03 7.170918e-03 6.668881e-03 6.316678e-03 6.104264e-03 
6.851310e-03 6.906985e-03 7.104060e-03 7.448100e-03 7.949354e-03 8.622697e-03 9.489388e-03 1.057627e-02 1.191774e-02 1.355438e-02 1.553475e-02 1.791244e-02 2.074716e-02 2.409799e-02 2.802400e-02 3.257355e-02 3.778517e-02 4.367264e-02 5.023039e-02 5.741528e-02 6.516256e-02 7.336488e-02 8.190188e-02 9.061736e-02 9.935803e-02 1.079414e-01 1.161706e-01 1.238269e-01 1.306702e-01 1.364520e-01 1.409069e-01 1.438112e-01 1.449738e-01 1.443106e-01 1.418472e-01 1.377356e-01 1.321858e-01 1.254551e-01 1.178150e-01 1.095210e-01 1.008275e-01 9.194783e-02 8.309295e-02 7.442102e-02 6.609684e-02 5.823980e-02 5.095944e-02 4.431744e-02 3.835718e-02 3.308164e-02 2.847663e-02 2.450193e-02 2.110816e-02 1.823527e-02 1.582279e-02 1.381067e-02 1.214391e-02 1.077368e-02 9.658416e-03 8.763781e-03 8.062350e-03 7.533014e-03 7.160673e-03 6.935265e-03 
7.944123e-03 8.001755e-03 8.210359e-03 8.575406e-03 9.107179e-03 9.820655e-03 1.073756e-02 1.188569e-02 1.330087e-02 1.502586e-02 1.711228e-02 1.961767e-02 2.260702e-02 2.614667e-02 3.030397e-02 3.513741e-02 4.069658e-02 4.700696e-02 5.407442e-02 6.186453e-02 7.031955e-02 7.933177e-02 8.877924e-02 9.849428e-02 1.083137e-01 1.180355e-01 1.274416e-01 1.362831e-01 1.442736e-01 1.511035e-01 1.564235e-01 1.599299e-01 1.613567e-01 1.605885e-01 1.576566e-01 1.527698e-01 1.462134e-01 1.383303e-01 1.294673e-01 1.199384e-01 1.100452e-01 1.000308e-01 9.013226e-02 8.051791e-02 7.136244e-02 6.278354e-02 5.488858e-02 4.772979e-02 4.134106e-02 3.571285e-02 3.081952e-02 2.660924e-02 2.302284e-02 1.999150e-02 1.744793e-02 1.532611e-02 1.356721e-02 1.211914e-02 1.093827e-02 9.988707e-03 9.242162e-03 8.677031e-03 8.278229e-03 8.035688e-03 
9.328052e-03 9.387975e-03 9.610871e-03 1.000207e-02 1.057184e-02 1.133521e-02 1.231434e-02 1.353815e-02 1.504408e-02 1.687744e-02 1.909342e-02 2.175446e-02 2.493131e-02 2.869826e-02 3.313248e-02 3.830373e-02 4.427410e-02 5.108178e-02 5.874524e-02 6.723856e-02 7.651057e-02 8.645011e-02 9.693096e-02 1.077690e-01 1.187889e-01 1.297685e-01 1.404710e-01 1.506240e-01 1.598957e-01 1.679122e-01 1.742229e-01 1.784264e-01 1.801607e-01 1.792725e-01 1.757986e-01 1.700199e-01 1.623153e-01 1.531317e-01 1.429012e-01 1.320002e-01 1.207772e-01 1.095027e-01 9.843978e-02 8.776659e-02 7.766981e-02 6.826619e-02 5.966328e-02 5.190380e-02 4.501315e-02 3.896827e-02 3.373185e-02 2.923910e-02 2.542029e-02 2.219657e-02 1.949261e-02 1.723618e-02 1.536374e-02 1.381939e-02 1.255700e-02 1.153891e-02 1.073584e-02 1.012573e-02 9.693568e-03 9.429347e-03 
1.103169e-02 1.109424e-02 1.133455e-02 1.175769e-02 1.237385e-02 1.319803e-02 1.425269e-02 1.556799e-02 1.718320e-02 1.914652e-02 2.151712e-02 2.436312e-02 2.776202e-02 3.179668e-02 3.655401e-02 4.211718e-02 4.856115e-02 5.593850e-02 6.428033e-02 7.356938e-02 8.375932e-02 9.473073e-02 1.063484e-01 1.184013e-01 1.306977e-01 1.429863e-01 1.550179e-01 1.665091e-01 1.771013e-01 1.863627e-01 1.937351e-01 1.986983e-01 2.007722e-01 1.997529e-01 1.956879e-01 1.889474e-01 1.800257e-01 1.694849e-01 1.578426e-01 1.455238e-01 1.329163e-01 1.203109e-01 1.080027e-01 9.618095e-02 8.505024e-02 7.472999e-02 6.533162e-02 5.689102e-02 4.942582e-02 4.290025e-02 3.726462e-02 3.244091e-02 2.834765e-02 2.489485e-02 2.199929e-02 1.958135e-02 1.757207e-02 1.591108e-02 1.454954e-02 1.344769e-02 1.257522e-02 1.190969e-02 1.143630e-02 1.114517e-02 
1.308683e-02 1.315239e-02 1.341373e-02 1.387558e-02 1.454786e-02 1.544542e-02 1.659087e-02 1.801556e-02 1.976074e-02 2.187783e-02 2.443028e-02 2.749243e-02 3.114915e-02 3.549292e-02 4.062076e-02 4.662826e-02 5.360506e-02 6.161863e-02 7.071366e-02 8.088035e-02 9.207627e-02 1.041670e-01 1.170031e-01 1.303338e-01 1.439453e-01 1.575520e-01 1.708972e-01 1.837086e-01 1.956157e-01 2.061432e-01 2.146146e-01 2.203776e-01 2.228106e-01 2.216516e-01 2.169614e-01 2.092159e-01 1.990424e-01 1.871300e-01 1.740763e-01 1.603445e-01 1.463489e-01 1.323915e-01 1.187974e-01 1.057679e-01 9.353239e-02 8.221726e-02 7.194551e-02 6.274824e-02 5.463918e-02 4.756964e-02 4.147866e-02 3.627342e-02 3.186092e-02 2.814039e-02 2.501954e-02 2.241051e-02 2.023832e-02 1.843770e-02 1.695681e-02 1.575356e-02 1.479668e-02 1.406351e-02 1.353961e-02 1.321541e-02 
1.552828e-02 1.559739e-02 1.588434e-02 1.639327e-02 1.713369e-02 1.812003e-02 1.937493e-02 2.093055e-02 2.283056e-02 2.512976e-02 2.789623e-02 3.121112e-02 3.516694e-02 3.986685e-02 4.541851e-02 5.193195e-02 5.950937e-02 6.823616e-02 7.817175e-02 8.931633e-02 1.016290e-01 1.149548e-01 1.291223e-01 1.438189e-01 1.587964e-01 1.736985e-01 1.882550e-01 2.022338e-01 2.153082e-01 2.269980e-01 2.365247e-01 2.430867e-01 2.458870e-01 2.445820e-01 2.392606e-01 2.305360e-01 2.191960e-01 2.060493e-01 1.917370e-01 1.767049e-01 1.613693e-01 1.460405e-01 1.311005e-01 1.167749e-01 1.033317e-01 9.091468e-02 7.966542e-02 6.961640e-02 6.077744e-02 5.308784e-02 4.647291e-02 4.082629e-02 3.604267e-02 3.200889e-02 2.862271e-02 2.578716e-02 2.342074e-02 2.145268e-02 1.982801e-02 1.850169e-02 1.744203e-02 1.662616e-02 1.604037e-02 1.567551e-02 
1.839033e-02 1.846378e-02 1.878216e-02 1.934881e-02 2.017251e-02 2.126694e-02 2.265459e-02 2.436808e-02 2.645361e-02 2.896982e-02 3.198959e-02 3.560159e-02 3.990616e-02 4.501790e-02 5.105538e-02 5.814456e-02 6.640241e-02 7.593340e-02 8.681302e-02 9.905225e-02 1.126141e-01 1.273117e-01 1.429460e-01 1.591155e-01 1.755133e-01 1.916928e-01 2.073701e-01 2.223870e-01 2.364740e-01 2.491877e-01 2.596591e-01 2.669570e-01 2.701032e-01 2.686619e-01 2.627531e-01 2.531443e-01 2.407747e-01 2.265549e-01 2.111248e-01 1.948999e-01 1.782825e-01 1.615756e-01 1.452217e-01 1.294909e-01 1.147099e-01 1.010510e-01 8.869232e-02 7.766974e-02 6.799361e-02 5.958915e-02 5.236902e-02 4.621010e-02 4.099301e-02 3.659090e-02 3.289047e-02 2.978496e-02 2.718556e-02 2.501560e-02 2.321649e-02 2.174016e-02 2.055473e-02 1.963742e-02 1.897547e-02 1.856054e-02 
2.170583e-02 2.178487e-02 2.214245e-02 2.278069e-02 2.370734e-02 2.493489e-02 2.648543e-02 2.839175e-02 3.070257e-02 3.348106e-02 3.680538e-02 4.077245e-02 4.549078e-02 5.108777e-02 5.769293e-02 6.545156e-02 7.449638e-02 8.495948e-02 9.693435e-02 1.104512e-01 1.254710e-01 1.417726e-01 1.591247e-01 1.770009e-01 1.950059e-01 2.125177e-01 2.291595e-01 2.448944e-01 2.596282e-01 2.730426e-01 2.842416e-01 2.921811e-01 2.956523e-01 2.940807e-01 2.876435e-01 2.773358e-01 2.642619e-01 2.493836e-01 2.332177e-01 2.160175e-01 1.981346e-01 1.799094e-01 1.619342e-01 1.445632e-01 1.281985e-01 1.130617e-01 9.937774e-02 8.719791e-02 7.652926e-02 6.728117e-02 5.934630e-02 5.258093e-02 4.684827e-02 4.200540e-02 3.792684e-02 3.449456e-02 3.161191e-02 2.919537e-02 2.718218e-02 2.552108e-02 2.418039e-02 2.313757e-02 2.238133e-02 2.190439e-02 
2.550075e-02 2.558728e-02 2.599425e-02 2.672213e-02 2.777719e-02 2.917020e-02 3.092260e-02 3.306751e-02 3.565547e-02 3.875571e-02 4.245207e-02 4.685113e-02 5.206972e-02 5.825004e-02 6.553269e-02 7.408665e-02 8.406345e-02 9.563105e-02 1.089078e-01 1.239435e-01 1.406966e-01 1.588820e-01 1.782401e-01 1.980484e-01 2.177784e-01 2.366552e-01 2.542826e-01 2.707570e-01 2.860157e-01 2.998685e-01 3.114344e-01 3.196933e-01 3.233297e-01 3.216983e-01 3.150088e-01 3.043881e-01 2.909735e-01 2.756560e-01 2.587766e-01 2.405975e-01 2.214829e-01 2.016971e-01 1.819172e-01 1.626311e-01 1.443768e-01 1.274381e-01 1.121386e-01 9.854861e-02 8.667938e-02 7.641471e-02 6.762028e-02 6.012476e-02 5.376858e-02 4.839026e-02 4.384958e-02 4.001639e-02 3.678475e-02 3.406370e-02 3.178480e-02 2.989434e-02 2.836063e-02 2.716170e-02 2.628815e-02 2.573422e-02 
2.979267e-02 2.988950e-02 3.035928e-02 3.120021e-02 3.241664e-02 3.401688e-02 3.602177e-02 3.846466e-02 4.139823e-02 4.489873e-02 4.905728e-02 5.399145e-02 5.982738e-02 6.672429e-02 7.483480e-02 8.435875e-02 9.546979e-02 1.083899e-01 1.232610e-01 1.401686e-01 1.590298e-01 1.794927e-01 2.012677e-01 2.233842e-01 2.452842e-01 2.658499e-01 2.843442e-01 3.011462e-01 3.164988e-01 3.303933e-01 3.420446e-01 3.505122e-01 3.542980e-01 3.525920e-01 3.457096e-01 3.350144e-01 3.216726e-01 3.064705e-01 2.894226e-01 2.705271e-01 2.499934e-01 2.281978e-01 2.062279e-01 1.846233e-01 1.640311e-01 1.448502e-01 1.275248e-01 1.121828e-01 9.882809e-02 8.731459e-02 7.746690e-02 6.907582e-02 6.195275e-02 5.591228e-02 5.079807e-02 4.646535e-02 4.279826e-02 3.969642e-02 3.708498e-02 3.490763e-02 3.313261e-02 3.173862e-02 3.071868e-02 3.006902e-02 
3.458443e-02 3.469553e-02 3.524532e-02 3.622903e-02 3.764857e-02 3.950905e-02 4.183072e-02 4.464750e-02 4.801541e-02 5.201831e-02 5.675687e-02 6.236210e-02 6.896957e-02 7.675973e-02 8.589665e-02 9.662271e-02 1.091378e-01 1.237407e-01 1.405987e-01 1.598241e-01 1.812442e-01 2.043472e-01 2.288899e-01 2.534370e-01 2.771509e-01 2.990536e-01 3.189549e-01 3.374486e-01 3.538849e-01 3.679712e-01 3.790625e-01 3.866845e-01 3.899602e-01 3.884691e-01 3.824033e-01 3.725321e-01 3.594604e-01 3.435056e-01 3.247817e-01 3.044853e-01 2.829364e-01 2.596514e-01 2.354855e-01 2.112330e-01 1.878973e-01 1.659550e-01 1.461183e-01 1.285933e-01 1.133933e-01 1.003353e-01 8.918636e-02 7.968973e-02 7.161506e-02 6.475022e-02 5.891808e-02 5.395889e-02 4.974473e-02 4.616402e-02 4.313514e-02 4.059843e-02 3.852150e-02 3.688390e-02 3.568154e-02 3.491315e-02 
3.986303e-02 3.999386e-02 4.064537e-02 4.180893e-02 4.348346e-02 4.566991e-02 4.838846e-02 5.167375e-02 5.558797e-02 6.022191e-02 6.569012e-02 7.213810e-02 7.971275e-02 8.861777e-02 9.903130e-02 1.112506e-01 1.255108e-01 1.422208e-01 1.615591e-01 1.836741e-01 2.081149e-01 2.342145e-01 2.615475e-01 2.886382e-01 3.154115e-01 3.400023e-01 3.606328e-01 3.784262e-01 3.927554e-01 4.036671e-01 4.114661e-01 4.164016e-01 4.183011e-01 4.173250e-01 4.134721e-01 4.067076e-01 3.967756e-01 3.835032e-01 3.665483e-01 3.465703e-01 3.230148e-01 2.965282e-01 2.698851e-01 2.430265e-01 2.165530e-01 1.913610e-01 1.684749e-01 1.482860e-01 1.308148e-01 1.158523e-01 1.031009e-01 9.223801e-02 8.298462e-02 7.509150e-02 6.836082e-02 6.261456e-02 5.771317e-02 5.353016e-02 4.997823e-02 4.699239e-02 4.453902e-02 4.259847e-02 4.116992e-02 4.025517e-02 
4.559502e-02 4.575268e-02 4.653239e-02 4.792063e-02 4.991276e-02 5.250447e-02 5.571655e-02 5.958475e-02 6.418069e-02 6.960351e-02 7.598364e-02 8.348367e-02 9.226131e-02 1.025490e-01 1.145366e-01 1.286016e-01 1.450161e-01 1.643543e-01 1.867705e-01 2.124460e-01 2.404469e-01 2.698214e-01 3.004314e-01 3.299678e-01 3.560970e-01 3.765613e-01 3.897669e-01 3.984576e-01 4.034720e-01 4.065445e-01 4.086975e-01 4.099789e-01 4.104086e-01 4.099805e-01 4.087990e-01 4.068061e-01 4.038647e-01 3.996680e-01 3.924534e-01 3.811357e-01 3.634272e-01 3.390674e-01 3.108804e-01 2.805028e-01 2.505508e-01 2.216403e-01 1.951603e-01 1.717671e-01 1.515085e-01 1.342122e-01 1.194947e-01 1.069639e-01 9.626363e-02 8.710389e-02 7.925869e-02 7.253317e-02 6.677395e-02 6.184066e-02 5.763865e-02 5.409615e-02 5.117735e-02 4.886324e-02 4.715668e-02 4.606312e-02 
5.172724e-02 5.192083e-02 5.286032e-02 5.452614e-02 5.690926e-02 5.999869e-02 6.381684e-02 6.840051e-02 7.383498e-02 8.022874e-02 8.773025e-02 9.651799e-02 1.067634e-01 1.187258e-01 1.326164e-01 1.489099e-01 1.679415e-01 1.904838e-01 2.166360e-01 2.465509e-01 2.786639e-01 3.117252e-01 3.424157e-01 3.658121e-01 3.784655e-01 3.829528e-01 3.814169e-01 3.790845e-01 3.781239e-01 3.783519e-01 3.795241e-01 3.807216e-01 3.812997e-01 3.807889e-01 3.794472e-01 3.777721e-01 3.767130e-01 3.771903e-01 3.795515e-01 3.821888e-01 3.804232e-01 3.713146e-01 3.518736e-01 3.231572e-01 2.901465e-01 2.571099e-01 2.265857e-01 1.994488e-01 1.758339e-01 1.556833e-01 1.385893e-01 1.240453e-01 1.116050e-01 1.009110e-01 9.170917e-02 8.378446e-02 7.697094e-02 7.111635e-02 6.611732e-02 6.189392e-02 5.840697e-02 5.563816e-02 5.359422e-02 5.228508e-02 
5.818667e-02 5.842710e-02 5.956269e-02 6.156630e-02 6.442352e-02 6.811476e-02 7.266505e-02 7.811165e-02 8.455816e-02 9.212204e-02 1.009736e-01 1.113021e-01 1.232950e-01 1.372422e-01 1.533824e-01 1.723341e-01 1.944890e-01 2.208954e-01 2.513753e-01 2.859243e-01 3.213736e-01 3.515913e-01 3.690245e-01 3.723779e-01 3.652462e-01 3.556017e-01 3.490999e-01 3.473465e-01 3.485387e-01 3.503838e-01 3.524431e-01 3.539434e-01 3.546221e-01 3.540876e-01 3.525652e-01 3.502454e-01 3.479079e-01 3.462285e-01 3.469559e-01 3.522163e-01 3.616538e-01 3.709408e-01 3.717149e-01 3.596950e-01 3.329390e-01 2.982561e-01 2.632832e-01 2.317652e-01 2.040190e-01 1.803933e-01 1.604447e-01 1.435368e-01 1.290574e-01 1.165603e-01 1.057495e-01 9.639119e-02 8.831058e-02 8.134695e-02 7.538824e-02 7.034561e-02 6.617602e-02 6.286186e-02 6.041443e-02 5.884896e-02 
6.488335e-02 6.518376e-02 6.655615e-02 6.896423e-02 7.238635e-02 7.679192e-02 8.220886e-02 8.867320e-02 9.631116e-02 1.052451e-01 1.156740e-01 1.277830e-01 1.417870e-01 1.580001e-01 1.767267e-01 1.987498e-01 2.245597e-01 2.554232e-01 2.906385e-01 3.276887e-01 3.573351e-01 3.688624e-01 3.634080e-01 3.495610e-01 3.359367e-01 3.258639e-01 3.202003e-01 3.187861e-01 3.204281e-01 3.230115e-01 3.257136e-01 3.276435e-01 3.284774e-01 3.278591e-01 3.260033e-01 3.231697e-01 3.202198e-01 3.180862e-01 3.185980e-01 3.231590e-01 3.320644e-01 3.446448e-01 3.589976e-01 3.687903e-01 3.638897e-01 3.397999e-01 3.043819e-01 2.684623e-01 2.360718e-01 2.082501e-01 1.849516e-01 1.653233e-01 1.485333e-01 1.339826e-01 1.213242e-01 1.103020e-01 1.007405e-01 9.247542e-02 8.538728e-02 7.938023e-02 7.440663e-02 7.045103e-02 6.752978e-02 6.566511e-02 
7.171496e-02 7.208995e-02 7.374302e-02 7.662636e-02 8.070855e-02 8.594454e-02 9.236450e-02 9.999974e-02 1.090028e-01 1.194928e-01 1.317058e-01 1.458021e-01 1.620456e-01 1.807731e-01 2.024162e-01 2.279760e-01 2.579024e-01 2.934144e-01 3.312740e-01 3.607445e-01 3.688225e-01 3.570940e-01 3.384340e-01 3.214034e-01 3.077396e-01 2.980357e-01 2.930120e-01 2.921522e-01 2.940573e-01 2.969188e-01 2.997854e-01 3.017851e-01 3.026280e-01 3.020050e-01 3.001365e-01 2.972647e-01 2.942038e-01 2.918991e-01 2.919755e-01 2.958718e-01 3.043218e-01 3.167661e-01 3.326295e-01 3.510713e-01 3.665102e-01 3.665815e-01 3.438708e-01 3.075493e-01 2.708381e-01 2.386386e-01 2.116745e-01 1.890861e-01 1.697915e-01 1.529962e-01 1.382933e-01 1.254011e-01 1.141599e-01 1.044069e-01 9.602155e-02 8.890369e-02 8.300261e-02 7.830672e-02 7.483922e-02 7.263133e-02 
7.856975e-02 7.903600e-02 8.101579e-02 8.444721e-02 8.928491e-02 9.546532e-02 1.030177e-01 1.119637e-01 1.224823e-01 1.346776e-01 1.488285e-01 1.650439e-01 1.836681e-01 2.050575e-01 2.298859e-01 2.592198e-01 2.932406e-01 3.316375e-01 3.628542e-01 3.703324e-01 3.553688e-01 3.334750e-01 3.128484e-01 2.955603e-01 2.822550e-01 2.732388e-01 2.684428e-01 2.672997e-01 2.686758e-01 2.711397e-01 2.737328e-01 2.755990e-01 2.763842e-01 2.758047e-01 2.740833e-01 2.715240e-01 2.689322e-01 2.672194e-01 2.677280e-01 2.715619e-01 2.794130e-01 2.913201e-01 3.071685e-01 3.265035e-01 3.480864e-01 3.669382e-01 3.687142e-01 3.447740e-01 3.072767e-01 2.707919e-01 2.400248e-01 2.143525e-01 1.924205e-01 1.732592e-01 1.563742e-01 1.414601e-01 1.283773e-01 1.169793e-01 1.071474e-01 9.878570e-02 9.184139e-02 8.631156e-02 8.222803e-02 7.963486e-02 
8.533281e-02 8.590823e-02 8.826077e-02 9.231104e-02 9.799424e-02 1.052231e-01 1.140204e-01 1.243913e-01 1.365373e-01 1.505316e-01 1.667033e-01 1.850659e-01 2.061108e-01 2.301261e-01 2.581821e-01 2.914523e-01 3.289069e-01 3.632055e-01 3.739740e-01 3.586248e-01 3.337542e-01 3.101182e-01 2.897444e-01 2.729020e-01 2.599343e-01 2.509732e-01 2.458937e-01 2.441321e-01 2.447220e-01 2.465073e-01 2.485648e-01 2.501072e-01 2.507672e-01 2.502882e-01 2.488808e-01 2.468612e-01 2.449688e-01 2.440551e-01 2.452351e-01 2.494307e-01 2.572775e-01 2.689267e-01 2.843260e-01 3.033113e-01 3.255455e-01 3.502682e-01 3.712594e-01 3.708048e-01 3.427677e-01 3.040825e-01 2.693847e-01 2.406003e-01 2.159992e-01 1.943850e-01 1.752434e-01 1.582036e-01 1.431635e-01 1.299987e-01 1.185979e-01 1.088791e-01 1.007898e-01 9.434164e-02 8.957782e-02 8.655844e-02 
9.188720e-02 9.259142e-02 9.536087e-02 1.000953e-01 1.067032e-01 1.150684e-01 1.251983e-01 1.370739e-01 1.509103e-01 1.667326e-01 1.849207e-01 2.053407e-01 2.286475e-01 2.549973e-01 2.860436e-01 3.233980e-01 3.605448e-01 3.789110e-01 3.668530e-01 3.401223e-01 3.136778e-01 2.902698e-01 2.702937e-01 2.537449e-01 2.408313e-01 2.315866e-01 2.258076e-01 2.230313e-01 2.224831e-01 2.232583e-01 2.245244e-01 2.255813e-01 2.260561e-01 2.257234e-01 2.247672e-01 2.235062e-01 2.226046e-01 2.228173e-01 2.250454e-01 2.300168e-01 2.382499e-01 2.499619e-01 2.651696e-01 2.838372e-01 3.057150e-01 3.310026e-01 3.583914e-01 3.784259e-01 3.710276e-01 3.368663e-01 2.987735e-01 2.668767e-01 2.396977e-01 2.157099e-01 1.943561e-01 1.752042e-01 1.581709e-01 1.431849e-01 1.301423e-01 1.189908e-01 1.096821e-01 1.022504e-01 9.675563e-02 9.327971e-02 
9.812045e-02 9.897265e-02 1.021977e-01 1.076680e-01 1.152574e-01 1.248192e-01 1.363297e-01 1.497447e-01 1.652653e-01 1.828737e-01 2.029739e-01 2.252892e-01 2.507159e-01 2.789824e-01 3.130380e-01 3.529468e-01 3.815758e-01 3.793498e-01 3.524283e-01 3.237919e-01 2.976799e-01 2.747601e-01 2.550454e-01 2.385119e-01 2.252519e-01 2.152940e-01 2.084874e-01 2.044703e-01 2.026308e-01 2.022585e-01 2.026205e-01 2.031070e-01 2.033630e-01 2.031982e-01 2.027626e-01 2.023556e-01 2.025558e-01 2.040287e-01 2.074981e-01 2.135400e-01 2.225701e-01 2.347541e-01 2.501119e-01 2.686124e-01 2.901858e-01 3.150935e-01 3.430036e-01 3.717651e-01 3.853719e-01 3.660344e-01 3.280251e-01 2.923390e-01 2.628940e-01 2.366146e-01 2.131846e-01 1.920087e-01 1.730210e-01 1.562247e-01 1.415234e-01 1.289082e-01 1.183418e-01 1.098882e-01 1.036316e-01 9.968076e-02 
1.039239e-01 1.049415e-01 1.086455e-01 1.148823e-01 1.234830e-01 1.342693e-01 1.471694e-01 1.621159e-01 1.792641e-01 1.985719e-01 2.204324e-01 2.445004e-01 2.719964e-01 3.020616e-01 3.396328e-01 3.781179e-01 3.912429e-01 3.702165e-01 3.399768e-01 3.116661e-01 2.864406e-01 2.639093e-01 2.442331e-01 2.273158e-01 2.133315e-01 2.023278e-01 1.942304e-01 1.887823e-01 1.855109e-01 1.838578e-01 1.832166e-01 1.830635e-01 1.830726e-01 1.830889e-01 1.832278e-01 1.837589e-01 1.851792e-01 1.880473e-01 1.929364e-01 2.002973e-01 2.104405e-01 2.234657e-01 2.393517e-01 2.580018e-01 2.793811e-01 3.035578e-01 3.308851e-01 3.604183e-01 3.883104e-01 3.874134e-01 3.550786e-01 3.162007e-01 2.846268e-01 2.563900e-01 2.310718e-01 2.080831e-01 1.872667e-01 1.687556e-01 1.524477e-01 1.383952e-01 1.265785e-01 1.170998e-01 1.100755e-01 1.056467e-01 
1.091970e-01 1.103905e-01 1.145811e-01 1.215897e-01 1.311983e-01 1.431982e-01 1.574532e-01 1.738789e-01 1.925413e-01 2.134076e-01 2.367392e-01 2.623287e-01 2.913693e-01 3.233359e-01 3.631237e-01 3.950297e-01 3.923724e-01 3.616363e-01 3.320702e-01 3.045843e-01 2.801051e-01 2.577315e-01 2.377233e-01 2.200671e-01 2.050144e-01 1.927047e-01 1.831443e-01 1.761749e-01 1.714366e-01 1.684893e-01 1.668367e-01 1.660352e-01 1.657935e-01 1.659859e-01 1.666990e-01 1.681693e-01 1.708199e-01 1.751082e-01 1.814948e-01 1.903238e-01 2.018141e-01 2.159840e-01 2.327309e-01 2.518794e-01 2.732976e-01 2.970184e-01 3.233643e-01 3.521471e-01 3.836492e-01 3.989229e-01 3.779973e-01 3.389385e-01 3.044295e-01 2.747269e-01 2.475753e-01 2.230222e-01 2.005342e-01 1.804541e-01 1.626440e-01 1.472270e-01 1.342101e-01 1.237370e-01 1.159656e-01 1.110717e-01 
1.138465e-01 1.152176e-01 1.198821e-01 1.276375e-01 1.382140e-01 1.513756e-01 1.669127e-01 1.847355e-01 2.047876e-01 2.270890e-01 2.516347e-01 2.785803e-01 3.085271e-01 3.428382e-01 3.827733e-01 4.050446e-01 3.894888e-01 3.577110e-01 3.290327e-01 3.025485e-01 2.782862e-01 2.556912e-01 2.349540e-01 2.162484e-01 1.998909e-01 1.861251e-01 1.750289e-01 1.665273e-01 1.603481e-01 1.561420e-01 1.535005e-01 1.520652e-01 1.515778e-01 1.519363e-01 1.532046e-01 1.555887e-01 1.594369e-01 1.651188e-01 1.730075e-01 1.833636e-01 1.963272e-01 2.118399e-01 2.297067e-01 2.496555e-01 2.713841e-01 2.948990e-01 3.201502e-01 3.479199e-01 3.777105e-01 4.043276e-01 3.963704e-01 3.597421e-01 3.219503e-01 2.910633e-01 2.622931e-01 2.364083e-01 2.124774e-01 1.910058e-01 1.718497e-01 1.551833e-01 1.410595e-01 1.296581e-01 1.211876e-01 1.158583e-01 
1.177891e-01 1.193302e-01 1.244339e-01 1.328769e-01 1.443401e-01 1.585654e-01 1.752735e-01 1.943772e-01 2.157073e-01 2.393492e-01 2.650349e-01 2.932631e-01 3.239429e-01 3.603913e-01 3.984530e-01 4.106681e-01 3.868559e-01 3.575532e-01 3.298189e-01 3.041801e-01 2.798188e-01 2.567508e-01 2.350526e-01 2.151467e-01 1.973813e-01 1.821336e-01 1.695344e-01 1.595847e-01 1.520729e-01 1.467202e-01 1.431851e-01 1.411734e-01 1.404631e-01 1.409681e-01 1.427375e-01 1.459484e-01 1.508852e-01 1.578537e-01 1.671597e-01 1.789983e-01 1.934508e-01 2.103871e-01 2.295227e-01 2.504769e-01 2.727938e-01 2.963731e-01 3.208606e-01 3.473607e-01 3.749769e-01 4.059672e-01 4.085754e-01 3.762846e-01 3.367522e-01 3.047872e-01 2.749399e-01 2.479057e-01 2.228158e-01 2.001349e-01 1.798252e-01 1.620569e-01 1.469580e-01 1.347288e-01 1.256355e-01 1.199179e-01 
1.209505e-01 1.226406e-01 1.281225e-01 1.371555e-01 1.493779e-01 1.645137e-01 1.822276e-01 2.024347e-01 2.248904e-01 2.497123e-01 2.764929e-01 3.058187e-01 3.373154e-01 3.747919e-01 4.096816e-01 4.134875e-01 3.859429e-01 3.589283e-01 3.324407e-01 3.075440e-01 2.830443e-01 2.594571e-01 2.367890e-01 2.157305e-01 1.966469e-01 1.800500e-01 1.661032e-01 1.548843e-01 1.462256e-01 1.398984e-01 1.356084e-01 1.331063e-01 1.322064e-01 1.328337e-01 1.350284e-01 1.389381e-01 1.448002e-01 1.528742e-01 1.634206e-01 1.765894e-01 1.924127e-01 2.106884e-01 2.310735e-01 2.530691e-01 2.761461e-01 2.999936e-01 3.242635e-01 3.496468e-01 3.759375e-01 4.062147e-01 4.165400e-01 3.890652e-01 3.493642e-01 3.161741e-01 2.855832e-01 2.574311e-01 2.313793e-01 2.076414e-01 1.863720e-01 1.676721e-01 1.517593e-01 1.388335e-01 1.292182e-01 1.231747e-01 
1.232662e-01 1.250749e-01 1.308507e-01 1.403401e-01 1.531493e-01 1.689886e-01 1.874850e-01 2.085508e-01 2.319090e-01 2.576650e-01 2.854137e-01 3.155759e-01 3.479641e-01 3.854984e-01 4.171736e-01 4.149168e-01 3.864297e-01 3.607615e-01 3.354430e-01 3.110934e-01 2.865276e-01 2.625030e-01 2.390458e-01 2.170470e-01 1.968967e-01 1.792206e-01 1.642061e-01 1.519919e-01 1.424379e-01 1.353592e-01 1.304923e-01 1.276190e-01 1.265748e-01 1.272942e-01 1.298110e-01 1.342525e-01 1.408271e-01 1.497641e-01 1.612936e-01 1.755218e-01 1.924506e-01 2.118215e-01 2.332528e-01 2.561299e-01 2.799067e-01 3.040217e-01 3.282975e-01 3.528064e-01 3.783626e-01 4.060687e-01 4.213973e-01 3.985276e-01 3.599301e-01 3.253692e-01 2.940772e-01 2.647952e-01 2.379198e-01 2.132929e-01 1.912738e-01 1.718490e-01 1.553171e-01 1.418601e-01 1.318496e-01 1.255597e-01 
1.246840e-01 1.265676e-01 1.325297e-01 1.423079e-01 1.554890e-01 1.717741e-01 1.907700e-01 2.123840e-01 2.363363e-01 2.627031e-01 2.911601e-01 3.218800e-01 3.550631e-01 3.921490e-01 4.213852e-01 4.154357e-01 3.873474e-01 3.623092e-01 3.377394e-01 3.136919e-01 2.890945e-01 2.647827e-01 2.408114e-01 2.181999e-01 1.973554e-01 1.789836e-01 1.632857e-01 1.504408e-01 1.403238e-01 1.327748e-01 1.275477e-01 1.244428e-01 1.233081e-01 1.240847e-01 1.268019e-01 1.315751e-01 1.385982e-01 1.480795e-01 1.602323e-01 1.751399e-01 1.927861e-01 2.128727e-01 2.349984e-01 2.584576e-01 2.827121e-01 3.069978e-01 3.313069e-01 3.552078e-01 3.802396e-01 4.059978e-01 4.240504e-01 4.046916e-01 3.673173e-01 3.316146e-01 2.997425e-01 2.695699e-01 2.420990e-01 2.168527e-01 1.943407e-01 1.744455e-01 1.575203e-01 1.437263e-01 1.334665e-01 1.270211e-01 
1.251639e-01 1.270747e-01 1.331017e-01 1.429801e-01 1.562899e-01 1.727290e-01 1.918984e-01 2.137025e-01 2.378650e-01 2.644483e-01 2.931778e-01 3.241124e-01 3.576650e-01 3.944739e-01 4.226991e-01 4.155742e-01 3.877553e-01 3.628825e-01 3.385798e-01 3.146285e-01 2.900374e-01 2.656314e-01 2.414912e-01 2.186684e-01 1.975844e-01 1.789697e-01 1.630334e-01 1.499684e-01 1.396552e-01 1.319428e-01 1.265907e-01 1.234055e-01 1.222395e-01 1.230356e-01 1.258221e-01 1.307111e-01 1.378908e-01 1.475626e-01 1.599340e-01 1.750803e-01 1.929792e-01 2.133182e-01 2.356887e-01 2.593522e-01 2.837740e-01 3.081198e-01 3.324478e-01 3.561403e-01 3.809792e-01 4.060342e-01 4.249444e-01 4.068395e-01 3.699513e-01 3.338097e-01 3.017139e-01 2.712126e-01 2.435261e-01 2.180630e-01 1.953804e-01 1.753242e-01 1.582651e-01 1.443567e-01 1.340126e-01 1.275148e-01 
1.246840e-01 1.265676e-01 1.325297e-01 1.423079e-01 1.554890e-01 1.717741e-01 1.907700e-01 2.123840e-01 2.363363e-01 2.627031e-01 2.911601e-01 3.218800e-01 3.550631e-01 3.921490e-01 4.213852e-01 4.154357e-01 3.873474e-01 3.623092e-01 3.377394e-01 3.136919e-01 2.890945e-01 2.647827e-01 2.408114e-01 2.181999e-01 1.973554e-01 1.789836e-01 1.632857e-01 1.504408e-01 1.403238e-01 1.327748e-01 1.275477e-01 1.244428e-01 1.233081e-01 1.240847e-01 1.268019e-01 1.315751e-01 1.385982e-01 1.480795e-01 1.602323e-01 1.751399e-01 1.927861e-01 2.128727e-01 2.349984e-01 2.584576e-01 2.827121e-01 3.069978e-01 3.313069e-01 3.552078e-01 3.802396e-01 4.059978e-01 4.240504e-01 4.046916e-01 3.673173e-01 3.316146e-01 2.997425e-01 2.695699e-01 2.420990e-01 2.168527e-01 1.943407e-01 1.744455e-01 1.575203e-01 1.437263e-01 1.334665e-01 1.270211e-01 
1.232662e-01 1.250749e-01 1.308507e-01 1.403401e-01 1.531493e-01 1.689886e-01 1.874850e-01 2.085508e-01 2.319090e-01 2.576650e-01 2.854137e-01 3.155759e-01 3.479641e-01 3.854984e-01 4.171736e-01 4.149168e-01 3.864297e-01 3.607615e-01 3.354430e-01 3.110934e-01 2.865276e-01 2.625030e-01 2.390458e-01 2.170470e-01 1.968967e-01 1.792206e-01 1.642061e-01 1.519919e-01 1.424379e-01 1.353592e-01 1.304923e-01 1.276190e-01 1.265748e-01 1.272942e-01 1.298110e-01 1.342525e-01 1.408271e-01 1.497641e-01 1.612936e-01 1.755218e-01 1.924506e-01 2.118215e-01 2.332528e-01 2.561299e-01 2.799067e-01 3.040217e-01 3.282975e-01 3.528064e-01 3.783626e-01 4.060687e-01 4.213973e-01 3.985276e-01 3.599301e-01 3.253692e-01 2.940772e-01 2.647952e-01 2.379198e-01 2.132929e-01 1.912738e-01 1.718490e-01 1.553171e-01 1.418601e-01 1.318496e-01 1.255597e-01 