# vtk DataFile Version 2.0
Comment goes here
ASCII

DATASET STRUCTURED_POINTS
FIELD FieldData 1
TIME 1 1 double
0.89000000
DIMENSIONS    64   64   1

ORIGIN    0.000   0.000   0.000
SPACING   0.015625 0.015625   1.000

POINT_DATA   4096
SCALARS Concentration double
LOOKUP_TABLE default

1.022814e-03 1.046006e-03 1.120005e-03 1.246416e-03 1.428068e-03 1.669193e-03 1.975636e-03 2.355230e-03 2.818175e-03 3.377632e-03 4.050181e-03 4.856381e-03 5.820901e-03 6.972317e-03 8.342019e-03 9.962228e-03 1.186315e-02 1.406886e-02 1.659362e-02 1.943640e-02 2.257981e-02 2.598621e-02 2.959961e-02 3.334425e-02 3.712979e-02 4.085245e-02 4.440127e-02 4.766171e-02 5.052292e-02 5.288314e-02 5.465195e-02 5.575623e-02 5.614259e-02 5.578496e-02 5.470613e-02 5.295842e-02 5.061601e-02 4.776822e-02 4.451752e-02 4.097430e-02 3.725297e-02 3.346607e-02 2.971689e-02 2.609795e-02 2.268441e-02 1.953403e-02 1.668390e-02 1.415235e-02 1.194003e-02 1.003299e-02 8.406979e-03 7.031760e-03 5.875051e-03 4.905386e-03 4.094188e-03 3.416739e-03 2.852507e-03 2.384889e-03 2.000754e-03 1.689887e-03 1.444463e-03 1.258611e-03 1.128082e-03 1.050019e-03 
1.063675e-03 1.087586e-03 1.163924e-03 1.294298e-03 1.481550e-03 1.729934e-03 2.045331e-03 2.435633e-03 2.911130e-03 3.485131e-03 4.174449e-03 4.999925e-03 5.986634e-03 7.163768e-03 8.563548e-03 1.021932e-02 1.216268e-02 1.441946e-02 1.700589e-02 1.992316e-02 2.315595e-02 2.666864e-02 3.040650e-02 3.429421e-02 3.824043e-02 4.213878e-02 4.587428e-02 4.932389e-02 5.236529e-02 5.488513e-02 5.678064e-02 5.796817e-02 5.838589e-02 5.800415e-02 5.684858e-02 5.497881e-02 5.248017e-02 4.945339e-02 4.601351e-02 4.228174e-02 3.838232e-02 3.443213e-02 3.053717e-02 2.679133e-02 2.326933e-02 2.002781e-02 1.710180e-02 1.450753e-02 1.224338e-02 1.029335e-02 8.631371e-03 7.225767e-03 6.043091e-03 5.051019e-03 4.220345e-03 3.525936e-03 2.946971e-03 2.466610e-03 2.071575e-03 1.751563e-03 1.498689e-03 1.307050e-03 1.172371e-03 1.091785e-03 
1.187282e-03 1.213349e-03 1.296723e-03 1.439032e-03 1.643157e-03 1.913428e-03 2.255830e-03 2.678431e-03 3.191783e-03 3.809605e-03 4.549338e-03 5.432665e-03 6.485910e-03 7.740065e-03 9.229852e-03 1.099187e-02 1.306198e-02 1.547102e-02 1.824132e-02 2.138057e-02 2.488005e-02 2.870961e-02 3.281892e-02 3.713337e-02 4.155860e-02 4.597929e-02 5.026527e-02 5.426860e-02 5.783466e-02 6.081708e-02 6.307799e-02 6.450494e-02 6.501269e-02 6.456208e-02 6.318598e-02 6.096434e-02 5.801303e-02 5.446523e-02 5.047173e-02 4.618465e-02 4.175606e-02 3.731905e-02 3.298930e-02 2.886483e-02 2.501957e-02 2.150634e-02 1.835431e-02 1.557321e-02 1.315457e-02 1.107619e-02 9.306748e-03 7.810201e-03 6.549727e-03 5.490430e-03 4.601262e-03 3.855814e-03 3.232413e-03 2.713579e-03 2.285631e-03 1.938001e-03 1.662638e-03 1.453529e-03 1.306326e-03 1.218122e-03 
1.397237e-03 1.426936e-03 1.522160e-03 1.684579e-03 1.917146e-03 2.224326e-03 2.612296e-03 3.089426e-03 3.666707e-03 4.358545e-03 5.183408e-03 6.164444e-03 7.330079e-03 8.714342e-03 1.035613e-02 1.229752e-02 1.458134e-02 1.724684e-02 2.032608e-02 2.383733e-02 2.778206e-02 3.213873e-02 3.686276e-02 4.187989e-02 4.708888e-02 5.235853e-02 5.753178e-02 6.242368e-02 6.682992e-02 7.055245e-02 7.339876e-02 7.521020e-02 7.586363e-02 7.530388e-02 7.357604e-02 7.079243e-02 6.711842e-02 6.273730e-02 5.785592e-02 5.267363e-02 4.738412e-02 4.214948e-02 3.710254e-02 3.235046e-02 2.796667e-02 2.399924e-02 2.046810e-02 1.737288e-02 1.469394e-02 1.239911e-02 1.044826e-02 8.798145e-03 7.406275e-03 6.233441e-03 5.245495e-03 4.413874e-03 3.715422e-03 3.131617e-03 2.648104e-03 2.253874e-03 1.940583e-03 1.702024e-03 1.533719e-03 1.432682e-03 
1.699572e-03 1.734409e-03 1.846451e-03 2.037438e-03 2.310440e-03 2.670137e-03 3.122994e-03 3.677839e-03 4.346302e-03 5.143781e-03 6.090202e-03 7.210825e-03 8.537068e-03 1.010726e-02 1.196618e-02 1.416354e-02 1.675188e-02 1.978181e-02 2.329864e-02 2.733417e-02 3.190399e-02 3.699620e-02 4.257326e-02 4.855881e-02 5.484177e-02 6.126746e-02 6.764262e-02 7.373200e-02 7.926450e-02 8.397393e-02 8.759624e-02 8.991702e-02 9.076403e-02 9.006365e-02 8.787411e-02 8.434843e-02 7.971349e-02 7.421632e-02 6.813882e-02 6.174261e-02 5.527874e-02 4.894932e-02 4.291232e-02 3.728855e-02 3.215274e-02 2.754761e-02 2.348217e-02 1.994217e-02 1.689347e-02 1.429031e-02 1.208064e-02 1.021118e-02 8.631537e-03 7.296433e-03 6.167333e-03 5.212609e-03 4.406983e-03 3.730447e-03 3.167678e-03 2.707026e-03 2.339707e-03 2.059222e-03 1.860883e-03 1.741580e-03 
2.102613e-03 2.144165e-03 2.278234e-03 2.506666e-03 2.832720e-03 3.261394e-03 3.799584e-03 4.456770e-03 5.245477e-03 6.182458e-03 7.289605e-03 8.595091e-03 1.013433e-02 1.195137e-02 1.409875e-02 1.663613e-02 1.962849e-02 2.314076e-02 2.723440e-02 3.195708e-02 3.733967e-02 4.338061e-02 5.004640e-02 5.725470e-02 6.487733e-02 7.272973e-02 8.057152e-02 8.811649e-02 9.502029e-02 1.009372e-01 1.055180e-01 1.084750e-01 1.095675e-01 1.086947e-01 1.059348e-01 1.014963e-01 9.568992e-02 8.883704e-02 8.130774e-02 7.342851e-02 6.551067e-02 5.781139e-02 5.052031e-02 4.378161e-02 3.767427e-02 3.223913e-02 2.747315e-02 2.334675e-02 1.980869e-02 1.679649e-02 1.424308e-02 1.208225e-02 1.025334e-02 8.703033e-03 7.386984e-03 6.269464e-03 5.322268e-03 4.523393e-03 3.856203e-03 3.308145e-03 2.869811e-03 2.534271e-03 2.296518e-03 2.153249e-03 
2.616791e-03 2.666680e-03 2.828215e-03 3.103406e-03 3.495784e-03 4.010816e-03 4.656005e-03 5.441745e-03 6.381769e-03 7.494665e-03 8.804889e-03 1.034449e-02 1.215403e-02 1.428494e-02 1.679954e-02 1.976992e-02 2.327612e-02 2.739997e-02 3.222118e-02 3.780403e-02 4.419434e-02 5.139739e-02 5.938200e-02 6.805098e-02 7.725728e-02 8.677837e-02 9.632685e-02 1.055592e-01 1.140438e-01 1.213398e-01 1.270019e-01 1.306761e-01 1.320459e-01 1.309869e-01 1.275935e-01 1.221316e-01 1.149951e-01 1.065836e-01 9.737316e-02 8.776225e-02 7.813527e-02 6.881152e-02 6.001892e-02 5.192978e-02 4.463299e-02 3.817028e-02 3.252852e-02 2.766345e-02 2.350561e-02 1.997361e-02 1.698273e-02 1.445109e-02 1.230528e-02 1.048182e-02 8.928945e-03 7.605612e-03 6.479770e-03 5.526801e-03 4.728298e-03 4.070496e-03 3.543115e-03 3.138610e-03 2.851518e-03 2.678250e-03 
3.254515e-03 3.314452e-03 3.509188e-03 3.840975e-03 4.313730e-03 4.933587e-03 5.708897e-03 6.651315e-03 7.776221e-03 9.104642e-03 1.066442e-02 1.249271e-02 1.463681e-02 1.715749e-02 2.012942e-02 2.363984e-02 2.778680e-02 3.267111e-02 3.839213e-02 4.502969e-02 5.264116e-02 6.123136e-02 7.075981e-02 8.110391e-02 9.208265e-02 1.034315e-01 1.148038e-01 1.258227e-01 1.360104e-01 1.448316e-01 1.517377e-01 1.562708e-01 1.579803e-01 1.566944e-01 1.525454e-01 1.459037e-01 1.373009e-01 1.272190e-01 1.162359e-01 1.047705e-01 9.325602e-02 8.210560e-02 7.158653e-02 6.191687e-02 5.320214e-02 4.549619e-02 3.878248e-02 3.300508e-02 2.807746e-02 2.389772e-02 2.036150e-02 1.736810e-02 1.482876e-02 1.266715e-02 1.082220e-02 9.245822e-03 7.900981e-03 6.759590e-03 5.800903e-03 5.009498e-03 4.373891e-03 3.885686e-03 3.538761e-03 3.329127e-03 
4.029964e-03 4.101699e-03 4.335616e-03 4.734287e-03 5.302160e-03 6.046277e-03 6.976133e-03 8.105096e-03 9.450737e-03 1.103736e-02 1.289723e-02 1.507416e-02 1.762410e-02 2.061975e-02 2.415072e-02 2.832258e-02 3.325340e-02 3.906457e-02 4.587363e-02 5.377214e-02 6.282132e-02 7.301211e-02 8.428269e-02 9.646243e-02 1.093416e-01 1.226020e-01 1.358706e-01 1.487658e-01 1.607318e-01 1.711060e-01 1.792339e-01 1.846060e-01 1.866457e-01 1.851434e-01 1.802688e-01 1.724782e-01 1.624013e-01 1.505872e-01 1.377440e-01 1.243201e-01 1.108049e-01 9.769361e-02 8.528838e-02 7.384884e-02 6.350868e-02 5.434796e-02 4.635872e-02 3.948194e-02 3.361852e-02 2.864749e-02 2.444400e-02 2.088630e-02 1.786744e-02 1.529548e-02 1.309759e-02 1.121668e-02 9.609205e-03 8.242560e-03 7.092858e-03 6.142483e-03 5.378315e-03 4.790810e-03 4.372955e-03 4.120208e-03 
4.959052e-03 5.044439e-03 5.323821e-03 5.800196e-03 6.478686e-03 7.367529e-03 8.477731e-03 9.824929e-03 1.142962e-02 1.332043e-02 1.553549e-02 1.812714e-02 2.116281e-02 2.472995e-02 2.893662e-02 3.390953e-02 3.978932e-02 4.671749e-02 5.482798e-02 6.421695e-02 7.494024e-02 8.695793e-02 1.001644e-01 1.143149e-01 1.291418e-01 1.442688e-01 1.592239e-01 1.736956e-01 1.872470e-01 1.991631e-01 2.087132e-01 2.152148e-01 2.177338e-01 2.158834e-01 2.100079e-01 2.008435e-01 1.892885e-01 1.759450e-01 1.615546e-01 1.463620e-01 1.308541e-01 1.157345e-01 1.013199e-01 8.793311e-02 7.575433e-02 6.491021e-02 5.542093e-02 4.723321e-02 4.024446e-02 3.431646e-02 2.930522e-02 2.506540e-02 2.146939e-02 1.840604e-02 1.578807e-02 1.354641e-02 1.162923e-02 9.997927e-03 8.624466e-03 7.488300e-03 6.574138e-03 5.870930e-03 5.370481e-03 5.067544e-03 
6.059319e-03 6.160250e-03 6.491638e-03 7.056975e-03 7.862201e-03 8.917033e-03 1.023438e-02 1.183280e-02 1.373659e-02 1.598007e-02 1.860894e-02 2.168660e-02 2.529497e-02 2.953998e-02 3.455107e-02 4.047941e-02 4.748777e-02 5.573701e-02 6.536966e-02 7.647965e-02 8.910147e-02 1.031480e-01 1.184432e-01 1.346261e-01 1.514024e-01 1.682941e-01 1.848620e-01 2.009667e-01 2.160872e-01 2.292864e-01 2.397855e-01 2.469843e-01 2.497968e-01 2.477502e-01 2.412821e-01 2.312337e-01 2.185006e-01 2.036493e-01 1.875886e-01 1.705859e-01 1.531627e-01 1.360925e-01 1.196604e-01 1.042227e-01 9.003156e-02 7.729571e-02 6.608514e-02 5.636927e-02 4.805291e-02 4.098768e-02 3.501347e-02 2.996120e-02 2.568023e-02 2.203691e-02 1.892611e-02 1.626356e-02 1.398674e-02 1.204928e-02 1.041768e-02 9.067606e-03 7.980957e-03 7.144793e-03 6.549454e-03 6.188834e-03 
7.349899e-03 7.468432e-03 7.858764e-03 8.524946e-03 9.473783e-03 1.071675e-02 1.226901e-02 1.415281e-02 1.639723e-02 1.904392e-02 2.214843e-02 2.578803e-02 3.006310e-02 3.510190e-02 4.105910e-02 4.811202e-02 5.644638e-02 6.623839e-02 7.763684e-02 9.072717e-02 1.055271e-01 1.218975e-01 1.395859e-01 1.580703e-01 1.770360e-01 1.959298e-01 2.138212e-01 2.307556e-01 2.466867e-01 2.608159e-01 2.724907e-01 2.810008e-01 2.845090e-01 2.819322e-01 2.742220e-01 2.629270e-01 2.492799e-01 2.336760e-01 2.167836e-01 1.982541e-01 1.786842e-01 1.594922e-01 1.408346e-01 1.230742e-01 1.065949e-01 9.169192e-02 7.850393e-02 6.701546e-02 5.714841e-02 4.874595e-02 4.163703e-02 3.562800e-02 3.054387e-02 2.622461e-02 2.254314e-02 1.939615e-02 1.670752e-02 1.442084e-02 1.249550e-02 1.090236e-02 9.619816e-03 8.632676e-03 7.929536e-03 7.503367e-03 
8.851511e-03 8.989806e-03 9.446474e-03 1.022605e-02 1.133617e-02 1.279018e-02 1.460577e-02 1.680955e-02 1.943653e-02 2.253765e-02 2.618082e-02 3.046107e-02 3.550082e-02 4.145612e-02 4.850949e-02 5.686757e-02 6.673634e-02 7.830814e-02 9.173161e-02 1.070967e-01 1.244071e-01 1.435135e-01 1.640379e-01 1.851909e-01 2.066151e-01 2.275756e-01 2.476064e-01 2.671330e-01 2.851902e-01 3.000027e-01 3.106938e-01 3.176782e-01 3.203998e-01 3.184414e-01 3.121599e-01 3.020199e-01 2.880368e-01 2.702969e-01 2.504813e-01 2.294459e-01 2.079137e-01 1.865745e-01 1.653905e-01 1.448952e-01 1.257050e-01 1.082803e-01 9.280937e-02 7.927761e-02 6.761696e-02 5.766228e-02 4.923366e-02 4.211333e-02 3.609990e-02 3.100355e-02 2.667004e-02 2.297309e-02 1.981920e-02 1.713926e-02 1.488361e-02 1.301723e-02 1.151426e-02 1.035705e-02 9.532300e-03 9.032085e-03 
1.058598e-02 1.074654e-02 1.127772e-02 1.218440e-02 1.347471e-02 1.516381e-02 1.727193e-02 1.983069e-02 2.288213e-02 2.648864e-02 3.073370e-02 3.573427e-02 4.163966e-02 4.863909e-02 5.694765e-02 6.680324e-02 7.843490e-02 9.205258e-02 1.078190e-01 1.258519e-01 1.462072e-01 1.687516e-01 1.930028e-01 2.177872e-01 2.431081e-01 2.686486e-01 2.913747e-01 3.105777e-01 3.253687e-01 3.353166e-01 3.412155e-01 3.443967e-01 3.454609e-01 3.447068e-01 3.418027e-01 3.362305e-01 3.271436e-01 3.128531e-01 2.937196e-01 2.705811e-01 2.448669e-01 2.195910e-01 1.948147e-01 1.705918e-01 1.479309e-01 1.273908e-01 1.092064e-01 9.328906e-02 7.955164e-02 6.780391e-02 5.785401e-02 4.945647e-02 4.238112e-02 3.640256e-02 3.133411e-02 2.702132e-02 2.334886e-02 2.023169e-02 1.760881e-02 1.543825e-02 1.368926e-02 1.234173e-02 1.138050e-02 1.079707e-02 
1.257606e-02 1.276170e-02 1.337663e-02 1.442567e-02 1.591682e-02 1.786658e-02 2.029743e-02 2.324627e-02 2.676332e-02 3.092486e-02 3.583361e-02 4.163388e-02 4.850800e-02 5.668492e-02 6.641927e-02 7.798822e-02 9.165065e-02 1.076564e-01 1.262034e-01 1.474615e-01 1.715043e-01 1.983073e-01 2.271166e-01 2.567141e-01 2.853467e-01 3.104058e-01 3.262662e-01 3.345250e-01 3.374927e-01 3.374509e-01 3.360392e-01 3.343329e-01 3.335011e-01 3.340991e-01 3.356027e-01 3.370069e-01 3.374037e-01 3.348595e-01 3.273127e-01 3.124440e-01 2.881461e-01 2.596620e-01 2.299633e-01 2.010010e-01 1.739509e-01 1.495490e-01 1.280551e-01 1.092727e-01 9.309023e-02 7.926015e-02 6.755969e-02 5.770396e-02 4.942549e-02 4.245541e-02 3.656776e-02 3.157336e-02 2.732927e-02 2.373077e-02 2.070292e-02 1.819571e-02 1.617313e-02 1.461294e-02 1.349859e-02 1.282151e-02 
1.484365e-02 1.505791e-02 1.576752e-02 1.697664e-02 1.869202e-02 2.093059e-02 2.371609e-02 2.709085e-02 3.111405e-02 3.587866e-02 4.151111e-02 4.818957e-02 5.613788e-02 6.563372e-02 7.698198e-02 9.051250e-02 1.065327e-01 1.253481e-01 1.472007e-01 1.722902e-01 2.006459e-01 2.322028e-01 2.655792e-01 2.969436e-01 3.188304e-01 3.282883e-01 3.278315e-01 3.219615e-01 3.146932e-01 3.093227e-01 3.066299e-01 3.052802e-01 3.048086e-01 3.049859e-01 3.059246e-01 3.082972e-01 3.132847e-01 3.205266e-01 3.269112e-01 3.284549e-01 3.204658e-01 3.002705e-01 2.693894e-01 2.359121e-01 2.039820e-01 1.750973e-01 1.496705e-01 1.274820e-01 1.084018e-01 9.213577e-02 7.841474e-02 6.689721e-02 5.726383e-02 4.918967e-02 4.239918e-02 3.665926e-02 3.179232e-02 2.766928e-02 2.419826e-02 2.132045e-02 1.899438e-02 1.719675e-02 1.591037e-02 1.512780e-02 
1.740910e-02 1.765627e-02 1.847379e-02 1.986408e-02 2.183100e-02 2.439025e-02 2.756528e-02 3.140329e-02 3.597323e-02 4.138776e-02 4.780272e-02 5.543853e-02 6.457195e-02 7.554317e-02 8.872308e-02 1.045128e-01 1.232822e-01 1.454153e-01 1.712228e-01 2.008787e-01 2.342213e-01 2.702090e-01 3.031194e-01 3.216524e-01 3.229225e-01 3.127696e-01 3.004073e-01 2.921996e-01 2.861171e-01 2.818451e-01 2.796308e-01 2.784139e-01 2.780072e-01 2.780605e-01 2.788384e-01 2.808314e-01 2.848040e-01 2.908165e-01 2.991125e-01 3.113032e-01 3.221922e-01 3.227840e-01 3.065012e-01 2.747453e-01 2.384914e-01 2.045086e-01 1.744460e-01 1.482044e-01 1.257023e-01 1.065865e-01 9.052637e-02 7.711210e-02 6.595351e-02 5.665414e-02 4.887349e-02 4.232316e-02 3.678139e-02 3.208920e-02 2.813419e-02 2.484808e-02 2.218434e-02 2.012017e-02 1.863932e-02 1.773703e-02 
2.028721e-02 2.057296e-02 2.151480e-02 2.311212e-02 2.536338e-02 2.828077e-02 3.188478e-02 3.622658e-02 4.138510e-02 4.749656e-02 5.475271e-02 6.342697e-02 7.386326e-02 8.647981e-02 1.017304e-01 1.200953e-01 1.420052e-01 1.679251e-01 1.982230e-01 2.330008e-01 2.710275e-01 3.053647e-01 3.216833e-01 3.167588e-01 3.003360e-01 2.832967e-01 2.706153e-01 2.629320e-01 2.580221e-01 2.551498e-01 2.540185e-01 2.535660e-01 2.534302e-01 2.532646e-01 2.533653e-01 2.542863e-01 2.568982e-01 2.618390e-01 2.698145e-01 2.821616e-01 2.984841e-01 3.152092e-01 3.221982e-01 3.089891e-01 2.758773e-01 2.376638e-01 2.023823e-01 1.715345e-01 1.450985e-01 1.227095e-01 1.039719e-01 8.840401e-02 7.553834e-02 6.488692e-02 5.602830e-02 4.860378e-02 4.233596e-02 3.702942e-02 3.254699e-02 2.881092e-02 2.577028e-02 2.340558e-02 2.170363e-02 2.066479e-02 
2.348606e-02 2.381753e-02 2.490420e-02 2.674045e-02 2.931621e-02 3.263666e-02 3.671587e-02 4.160698e-02 4.739914e-02 5.425592e-02 6.241338e-02 7.220965e-02 8.407279e-02 9.851215e-02 1.160736e-01 1.373062e-01 1.626567e-01 1.926730e-01 2.277413e-01 2.673466e-01 3.043594e-01 3.214511e-01 3.131328e-01 2.926287e-01 2.717462e-01 2.547990e-01 2.429752e-01 2.361791e-01 2.323714e-01 2.305614e-01 2.300473e-01 2.299605e-01 2.299496e-01 2.297301e-01 2.295705e-01 2.299485e-01 2.316362e-01 2.354806e-01 2.424024e-01 2.538723e-01 2.700592e-01 2.901620e-01 3.109727e-01 3.217665e-01 3.081691e-01 2.728066e-01 2.328520e-01 1.971579e-01 1.665058e-01 1.405506e-01 1.188375e-01 1.008657e-01 8.610060e-02 7.396042e-02 6.392832e-02 5.556053e-02 4.851062e-02 4.253899e-02 3.747900e-02 3.324346e-02 2.977866e-02 2.707190e-02 2.511628e-02 2.392026e-02 
2.700068e-02 2.738720e-02 2.864423e-02 3.075892e-02 3.370839e-02 3.748660e-02 4.209597e-02 4.758926e-02 5.406462e-02 6.171804e-02 7.083764e-02 8.184002e-02 9.525178e-02 1.116789e-01 1.317554e-01 1.560508e-01 1.849913e-01 2.192223e-01 2.590689e-01 2.991416e-01 3.210764e-01 3.132096e-01 2.899818e-01 2.658454e-01 2.451594e-01 2.292292e-01 2.182550e-01 2.117843e-01 2.084097e-01 2.070702e-01 2.069104e-01 2.070835e-01 2.071747e-01 2.069293e-01 2.065995e-01 2.066671e-01 2.079317e-01 2.112983e-01 2.177633e-01 2.284006e-01 2.436416e-01 2.634200e-01 2.869667e-01 3.106687e-01 3.217623e-01 3.037099e-01 2.648931e-01 2.245329e-01 1.895814e-01 1.599111e-01 1.350569e-01 1.144864e-01 9.766093e-02 8.390731e-02 7.261166e-02 6.323405e-02 5.534499e-02 4.865437e-02 4.296043e-02 3.816831e-02 3.422347e-02 3.112529e-02 2.887706e-02 2.749943e-02 
3.081257e-02 3.126567e-02 3.272441e-02 3.516575e-02 3.854910e-02 4.285140e-02 4.805709e-02 5.421434e-02 6.142844e-02 6.993153e-02 8.007213e-02 9.235554e-02 1.074201e-01 1.259539e-01 1.486652e-01 1.760603e-01 2.084849e-01 2.470627e-01 2.893753e-01 3.190389e-01 3.165304e-01 2.921796e-01 2.651786e-01 2.411423e-01 2.213893e-01 2.062802e-01 1.958732e-01 1.896083e-01 1.863479e-01 1.850918e-01 1.849411e-01 1.851267e-01 1.852298e-01 1.850331e-01 1.847558e-01 1.848469e-01 1.860457e-01 1.892384e-01 1.953681e-01 2.053878e-01 2.198435e-01 2.387857e-01 2.620520e-01 2.885948e-01 3.140693e-01 3.208619e-01 2.948455e-01 2.532052e-01 2.138271e-01 1.805806e-01 1.525665e-01 1.292894e-01 1.102759e-01 9.479234e-02 8.214175e-02 7.168222e-02 6.288946e-02 5.541633e-02 4.902098e-02 4.360304e-02 3.911057e-02 3.556115e-02 3.297349e-02 3.138502e-02 
3.488249e-02 3.541636e-02 3.711420e-02 3.993974e-02 4.382871e-02 4.873448e-02 5.461479e-02 6.150819e-02 6.952173e-02 7.892802e-02 9.013866e-02 1.037596e-01 1.205399e-01 1.412283e-01 1.665748e-01 1.968662e-01 2.325140e-01 2.748357e-01 3.125549e-01 3.216553e-01 2.993522e-01 2.699469e-01 2.428504e-01 2.195884e-01 2.005765e-01 1.861004e-01 1.759250e-01 1.695421e-01 1.660395e-01 1.645125e-01 1.641275e-01 1.641701e-01 1.642321e-01 1.641147e-01 1.640155e-01 1.643487e-01 1.658065e-01 1.691906e-01 1.753648e-01 1.851368e-01 1.990208e-01 2.173071e-01 2.398528e-01 2.663775e-01 2.955659e-01 3.201117e-01 3.161253e-01 2.810565e-01 2.384884e-01 2.018609e-01 1.709941e-01 1.450721e-01 1.238500e-01 1.065845e-01 9.251493e-02 8.091672e-02 7.115758e-02 6.283555e-02 5.566309e-02 4.954028e-02 4.442199e-02 4.035230e-02 3.737131e-02 3.553872e-02 
3.915324e-02 3.978432e-02 4.176469e-02 4.504111e-02 4.951942e-02 5.512141e-02 6.176805e-02 6.948041e-02 7.835902e-02 8.871761e-02 1.010285e-01 1.160051e-01 1.345030e-01 1.572848e-01 1.852091e-01 2.178975e-01 2.570583e-01 2.993511e-01 3.238028e-01 3.109575e-01 2.802289e-01 2.504170e-01 2.238318e-01 2.012790e-01 1.828638e-01 1.686509e-01 1.584230e-01 1.516960e-01 1.477282e-01 1.457216e-01 1.449260e-01 1.447038e-01 1.446752e-01 1.446671e-01 1.448469e-01 1.455864e-01 1.475036e-01 1.513115e-01 1.577795e-01 1.675924e-01 1.812513e-01 1.990101e-01 2.209048e-01 2.468048e-01 2.761040e-01 3.070472e-01 3.243998e-01 3.048389e-01 2.637322e-01 2.235455e-01 1.902645e-01 1.617513e-01 1.383554e-01 1.192842e-01 1.037436e-01 9.095286e-02 8.015948e-02 7.091317e-02 6.287629e-02 5.595702e-02 5.012312e-02 4.545434e-02 4.201910e-02 3.990502e-02 
4.354441e-02 4.429143e-02 4.660282e-02 5.040448e-02 5.556537e-02 6.196790e-02 6.948410e-02 7.810909e-02 8.792234e-02 9.927995e-02 1.126967e-01 1.290098e-01 1.491356e-01 1.738934e-01 2.041506e-01 2.388590e-01 2.807856e-01 3.178190e-01 3.233870e-01 2.954587e-01 2.635676e-01 2.341311e-01 2.083970e-01 1.863732e-01 1.682523e-01 1.540033e-01 1.434345e-01 1.361410e-01 1.315129e-01 1.288624e-01 1.275366e-01 1.269692e-01 1.268193e-01 1.269329e-01 1.274540e-01 1.287076e-01 1.312427e-01 1.356771e-01 1.426785e-01 1.528257e-01 1.665355e-01 1.840404e-01 2.053997e-01 2.304812e-01 2.592937e-01 2.907859e-01 3.208650e-01 3.212879e-01 2.872756e-01 2.449997e-01 2.095591e-01 1.789509e-01 1.535220e-01 1.327521e-01 1.157427e-01 1.017368e-01 8.985083e-02 7.960449e-02 7.061038e-02 6.279603e-02 5.614973e-02 5.079662e-02 4.684100e-02 4.440378e-02 
4.795984e-02 4.884474e-02 5.153976e-02 5.594482e-02 6.188744e-02 6.920146e-02 7.769996e-02 8.733811e-02 9.815830e-02 1.105458e-01 1.250255e-01 1.425655e-01 1.640363e-01 1.905193e-01 2.224279e-01 2.594337e-01 3.013652e-01 3.280058e-01 3.151834e-01 2.812057e-01 2.499532e-01 2.214382e-01 1.964123e-01 1.747850e-01 1.566831e-01 1.421325e-01 1.310068e-01 1.229864e-01 1.175783e-01 1.141954e-01 1.122748e-01 1.113211e-01 1.110321e-01 1.112755e-01 1.121708e-01 1.140007e-01 1.172451e-01 1.224357e-01 1.301456e-01 1.408497e-01 1.548774e-01 1.724013e-01 1.933895e-01 2.178628e-01 2.456955e-01 2.767998e-01 3.108925e-01 3.290021e-01 3.071911e-01 2.659677e-01 2.282166e-01 1.962373e-01 1.689835e-01 1.467437e-01 1.283397e-01 1.131422e-01 1.001289e-01 8.881388e-02 7.877201e-02 6.996149e-02 6.240496e-02 5.628084e-02 5.173880e-02 4.893760e-02 
5.228546e-02 5.332950e-02 5.645628e-02 6.153733e-02 6.835542e-02 7.668781e-02 8.627978e-02 9.703070e-02 1.089263e-01 1.223580e-01 1.378171e-01 1.563908e-01 1.787931e-01 2.065411e-01 2.392776e-01 2.788536e-01 3.182552e-01 3.312384e-01 3.048393e-01 2.707255e-01 2.399750e-01 2.125119e-01 1.879138e-01 1.664052e-01 1.480304e-01 1.329427e-01 1.210764e-01 1.122067e-01 1.059344e-01 1.017648e-01 9.921567e-02 9.785499e-02 9.741900e-02 9.779301e-02 9.907730e-02 1.015157e-01 1.055261e-01 1.115638e-01 1.201137e-01 1.315609e-01 1.461382e-01 1.639465e-01 1.848295e-01 2.088768e-01 2.356971e-01 2.662922e-01 2.995740e-01 3.295579e-01 3.229633e-01 2.860329e-01 2.461383e-01 2.131574e-01 1.843675e-01 1.609095e-01 1.412678e-01 1.249464e-01 1.108060e-01 9.837041e-02 8.720325e-02 7.730520e-02 6.875058e-02 6.177785e-02 5.659100e-02 5.339013e-02 
5.639926e-02 5.762049e-02 6.121790e-02 6.703298e-02 7.480398e-02 8.424543e-02 9.503177e-02 1.069881e-01 1.200322e-01 1.345212e-01 1.508955e-01 1.702915e-01 1.932934e-01 2.217065e-01 2.547384e-01 2.958628e-01 3.305451e-01 3.297392e-01 2.960802e-01 2.638182e-01 2.337703e-01 2.070670e-01 1.826064e-01 1.609193e-01 1.420327e-01 1.262270e-01 1.135032e-01 1.037154e-01 9.654798e-02 9.158246e-02 8.840641e-02 8.664321e-02 8.606201e-02 8.656480e-02 8.823521e-02 9.128541e-02 9.607983e-02 1.030085e-01 1.124831e-01 1.248064e-01 1.401313e-01 1.584716e-01 1.795547e-01 2.034077e-01 2.294849e-01 2.590258e-01 2.906125e-01 3.262195e-01 3.337743e-01 3.030413e-01 2.623263e-01 2.286157e-01 1.989917e-01 1.746958e-01 1.541329e-01 1.368241e-01 1.216104e-01 1.080299e-01 9.568557e-02 8.463051e-02 7.501273e-02 6.713397e-02 6.126069e-02 5.763524e-02 
6.017245e-02 6.158062e-02 6.566805e-02 7.224607e-02 8.101189e-02 9.161468e-02 1.036612e-01 1.168855e-01 1.311349e-01 1.466827e-01 1.639245e-01 1.839441e-01 2.073209e-01 2.358333e-01 2.688973e-01 3.099341e-01 3.386103e-01 3.269628e-01 2.910374e-01 2.601647e-01 2.309543e-01 2.045633e-01 1.799754e-01 1.578355e-01 1.382710e-01 1.216386e-01 1.080049e-01 9.728651e-02 8.923694e-02 8.350162e-02 7.972551e-02 7.757957e-02 7.686089e-02 7.748548e-02 7.952387e-02 8.316307e-02 8.872210e-02 9.653859e-02 1.069638e-01 1.202330e-01 1.364379e-01 1.555054e-01 1.771024e-01 2.010724e-01 2.268907e-01 2.553951e-01 2.860705e-01 3.223961e-01 3.403002e-01 3.167335e-01 2.764815e-01 2.421654e-01 2.124132e-01 1.876594e-01 1.665322e-01 1.483951e-01 1.321933e-01 1.174715e-01 1.039335e-01 9.168907e-02 8.098098e-02 7.217266e-02 6.559792e-02 6.153955e-02 
6.347993e-02 6.507462e-02 6.964404e-02 7.697183e-02 8.672096e-02 9.847747e-02 1.117904e-01 1.262930e-01 1.417707e-01 1.583676e-01 1.764629e-01 1.969929e-01 2.207111e-01 2.491049e-01 2.824040e-01 3.220506e-01 3.438099e-01 3.243921e-01 2.891737e-01 2.589422e-01 2.304845e-01 2.040880e-01 1.792361e-01 1.565145e-01 1.362291e-01 1.187585e-01 1.042453e-01 9.264768e-02 8.378105e-02 7.734190e-02 7.302222e-02 7.053218e-02 6.969097e-02 7.042694e-02 7.280052e-02 7.698003e-02 8.324823e-02 9.190150e-02 1.032453e-01 1.174570e-01 1.345954e-01 1.545018e-01 1.768466e-01 2.012491e-01 2.272941e-01 2.552000e-01 2.853921e-01 3.197336e-01 3.437918e-01 3.279712e-01 2.890157e-01 2.540331e-01 2.244367e-01 1.994802e-01 1.780431e-01 1.592152e-01 1.421155e-01 1.262906e-01 1.115903e-01 9.818045e-02 8.641047e-02 7.669873e-02 6.944597e-02 6.497050e-02 
6.620338e-02 6.796811e-02 7.297476e-02 8.098317e-02 9.163051e-02 1.044469e-01 1.189374e-01 1.346346e-01 1.512756e-01 1.688465e-01 1.877281e-01 2.086424e-01 2.326139e-01 2.607766e-01 2.944230e-01 3.321719e-01 3.470648e-01 3.227207e-01 2.893285e-01 2.593342e-01 2.313938e-01 2.047795e-01 1.796205e-01 1.563027e-01 1.353540e-01 1.171212e-01 1.018332e-01 8.947110e-02 7.990310e-02 7.286487e-02 6.808496e-02 6.530493e-02 6.436108e-02 6.519144e-02 6.784899e-02 7.248876e-02 7.936533e-02 8.874420e-02 1.008978e-01 1.159550e-01 1.339626e-01 1.546719e-01 1.777968e-01 2.027181e-01 2.291951e-01 2.567945e-01 2.865935e-01 3.187370e-01 3.459580e-01 3.367570e-01 2.995408e-01 2.641042e-01 2.347707e-01 2.097770e-01 1.881672e-01 1.687541e-01 1.508527e-01 1.340130e-01 1.182483e-01 1.037730e-01 9.104055e-02 8.051324e-02 7.265173e-02 6.780285e-02 
6.823954e-02 7.014234e-02 7.550190e-02 8.406003e-02 9.543650e-02 1.091180e-01 1.245796e-01 1.412689e-01 1.588876e-01 1.772708e-01 1.967972e-01 2.179670e-01 2.420282e-01 2.698483e-01 3.035375e-01 3.395230e-01 3.491011e-01 3.221230e-01 2.902683e-01 2.604119e-01 2.327514e-01 2.058685e-01 1.804406e-01 1.566266e-01 1.351507e-01 1.163117e-01 1.004170e-01 8.746064e-02 7.735202e-02 6.985451e-02 6.472342e-02 6.172319e-02 6.070199e-02 6.160573e-02 6.448222e-02 6.947770e-02 7.682693e-02 8.677337e-02 9.956755e-02 1.153012e-01 1.340161e-01 1.553801e-01 1.791518e-01 2.044973e-01 2.313341e-01 2.587204e-01 2.881002e-01 3.187807e-01 3.476222e-01 3.430806e-01 3.075437e-01 2.720167e-01 2.429504e-01 2.179864e-01 1.962498e-01 1.763498e-01 1.577788e-01 1.400948e-01 1.234552e-01 1.081106e-01 9.460047e-02 8.341766e-02 7.506966e-02 6.992357e-02 
6.950323e-02 7.149635e-02 7.708676e-02 8.600497e-02 9.786098e-02 1.121137e-01 1.282216e-01 1.455749e-01 1.638554e-01 1.827909e-01 2.027575e-01 2.240909e-01 2.481816e-01 2.757371e-01 3.093064e-01 3.439720e-01 3.502604e-01 3.219442e-01 2.908920e-01 2.612136e-01 2.337397e-01 2.067037e-01 1.811244e-01 1.569992e-01 1.351951e-01 1.159701e-01 9.969200e-02 8.636002e-02 7.591148e-02 6.812560e-02 6.277424e-02 5.963598e-02 5.856641e-02 5.951588e-02 6.252915e-02 6.774743e-02 7.539342e-02 8.569708e-02 9.889714e-02 1.150598e-01 1.342264e-01 1.560004e-01 1.801727e-01 2.057552e-01 2.327669e-01 2.599805e-01 2.890106e-01 3.189894e-01 3.486562e-01 3.469519e-01 3.127096e-01 2.772847e-01 2.483649e-01 2.234128e-01 2.015638e-01 1.813160e-01 1.622811e-01 1.440253e-01 1.268011e-01 1.108810e-01 9.685964e-02 8.524770e-02 7.658219e-02 7.124242e-02 
6.993527e-02 7.196046e-02 7.763185e-02 8.667625e-02 9.870008e-02 1.131529e-01 1.294869e-01 1.470730e-01 1.655847e-01 1.847143e-01 2.048335e-01 2.262209e-01 2.503110e-01 2.777606e-01 3.112644e-01 3.454645e-01 3.506856e-01 3.219510e-01 2.911295e-01 2.615244e-01 2.341181e-01 2.070308e-01 1.814005e-01 1.571663e-01 1.352474e-01 1.158873e-01 9.947567e-02 8.601353e-02 7.544767e-02 6.756246e-02 6.213531e-02 5.894981e-02 5.786373e-02 5.882964e-02 6.189106e-02 6.718762e-02 7.493784e-02 8.536717e-02 9.871079e-02 1.150261e-01 1.343541e-01 1.562736e-01 1.805856e-01 2.062472e-01 2.333101e-01 2.604606e-01 2.893661e-01 3.191497e-01 3.490758e-01 3.482742e-01 3.144786e-01 2.791169e-01 2.502524e-01 2.253070e-01 2.034162e-01 1.830421e-01 1.638418e-01 1.453854e-01 1.279568e-01 1.118360e-01 9.763652e-02 8.587536e-02 7.709962e-02 7.169290e-02 
6.950323e-02 7.149635e-02 7.708676e-02 8.600497e-02 9.786098e-02 1.121137e-01 1.282216e-01 1.455749e-01 1.638554e-01 1.827909e-01 2.027575e-01 2.240909e-01 2.481816e-01 2.757371e-01 3.093064e-01 3.439720e-01 3.502604e-01 3.219442e-01 2.908920e-01 2.612136e-01 2.337397e-01 2.067037e-01 1.811244e-01 1.569992e-01 1.351951e-01 1.159701e-01 9.969200e-02 8.636002e-02 7.591148e-02 6.812560e-02 6.277424e-02 5.963598e-02 5.856641e-02 5.951588e-02 6.252915e-02 6.774743e-02 7.539342e-02 8.569708e-02 9.889714e-02 1.150598e-01 1.342264e-01 1.560004e-01 1.801727e-01 2.057552e-01 2.327669e-01 2.599805e-01 2.890106e-01 3.189894e-01 3.486562e-01 3.469519e-01 3.127096e-01 2.772847e-01 2.483649e-01 2.234128e-01 2.015638e-01 1.813160e-01 1.622811e-01 1.440253e-01 1.268011e-01 1.108810e-01 9.685964e-02 8.524770e-02 7.658219e-02 7.124242e-02 
6.823954e-02 7.014234e-02 7.550190e-02 8.406003e-02 9.543650e-02 1.091180e-01 1.245796e-01 1.412689e-01 1.588876e-01 1.772708e-01 1.967972e-01 2.179670e-01 2.420282e-01 2.698483e-01 3.035375e-01 3.395230e-01 3.491011e-01 3.221230e-01 2.902683e-01 2.604119e-01 2.327514e-01 2.058685e-01 1.804406e-01 1.566266e-01 1.351507e-01 1.163117e-01 1.004170e-01 8.746064e-02 7.735202e-02 6.985451e-02 6.472342e-02 6.172319e-02 6.070199e-02 6.160573e-02 6.448222e-02 6.947770e-02 7.682693e-02 8.677337e-02 9.956755e-02 1.153012e-01 1.340161e-01 1.553801e-01 1.791518e-01 2.044973e-01 2.313341e-01 2.587204e-01 2.881002e-01 3.187807e-01 3.476222e-01 3.430806e-01 3.075437e-01 2.720167e-01 2.429504e-01 2.179864e-01 1.962498e-01 1.763498e-01 1.577788e-01 1.400948e-01 1.234552e-01 1.081106e-01 9.460047e-02 8.341766e-02 7.506966e-02 6.992357e-02 