# vtk DataFile Version 2.0
Comment goes here
ASCII

DATASET STRUCTURED_POINTS
FIELD FieldData 1
TIME 1 1 double
0.53000000
DIMENSIONS    64   64   1

ORIGIN    0.000   0.000   0.000
SPACING   0.015625 0.015625   1.000

POINT_DATA   4096
SCALARS Concentration double
LOOKUP_TABLE default

4.582015e-05 4.874325e-05 5.774680e-05 7.330196e-05 9.621370e-05 1.275860e-04 1.687865e-04 2.214091e-04 2.872456e-04 3.682760e-04 4.666981e-04 5.850269e-04 7.262790e-04 8.942771e-04 1.094045e-03 1.332293e-03 1.617878e-03 1.962161e-03 2.379047e-03 2.884473e-03 3.495163e-03 4.226218e-03 5.087850e-03 6.080698e-03 7.192883e-03 8.397463e-03 9.652102e-03 1.089953e-02 1.207185e-02 1.309520e-02 1.389717e-02 1.441350e-02 1.459515e-02 1.441361e-02 1.389707e-02 1.309489e-02 1.207135e-02 1.089910e-02 9.651840e-03 8.397581e-03 7.193465e-03 6.081779e-03 5.089450e-03 4.228230e-03 3.497592e-03 2.887213e-03 2.382059e-03 1.965323e-03 1.621115e-03 1.335490e-03 1.097126e-03 8.971584e-04 7.289100e-04 5.873682e-04 4.687347e-04 3.700068e-04 2.886844e-04 2.225785e-04 1.697144e-04 1.283029e-04 9.674836e-05 7.368033e-05 5.798889e-05 4.886229e-05 
5.055884e-05 5.376428e-05 6.363890e-05 8.069461e-05 1.058061e-04 1.401720e-04 1.852740e-04 2.428338e-04 3.147748e-04 4.032048e-04 5.104346e-04 6.390725e-04 7.922058e-04 9.737168e-04 1.188696e-03 1.443968e-03 1.748602e-03 2.114336e-03 2.555699e-03 3.089580e-03 3.734056e-03 4.506043e-03 5.418115e-03 6.472747e-03 7.658533e-03 8.948344e-03 1.029817e-02 1.164700e-02 1.292094e-02 1.403816e-02 1.491716e-02 1.548479e-02 1.568494e-02 1.548529e-02 1.491771e-02 1.403871e-02 1.292139e-02 1.164757e-02 1.029888e-02 8.949389e-03 7.659956e-03 6.474604e-03 5.420411e-03 4.508654e-03 3.737039e-03 3.092850e-03 2.559229e-03 2.118003e-03 1.752329e-03 1.447634e-03 1.192216e-03 9.770009e-04 7.951987e-04 6.417308e-04 5.127431e-04 4.051634e-04 3.164003e-04 2.441528e-04 1.863193e-04 1.409785e-04 1.064069e-04 8.111934e-05 6.391045e-05 5.389774e-05 
6.523658e-05 6.931368e-05 8.187663e-05 1.035636e-04 1.354653e-04 1.790734e-04 2.362249e-04 3.090372e-04 3.998450e-04 5.111524e-04 6.456203e-04 8.061408e-04 9.960114e-04 1.219280e-03 1.481220e-03 1.788973e-03 2.152223e-03 2.583824e-03 3.100178e-03 3.721003e-03 4.468391e-03 5.364352e-03 6.427461e-03 7.664899e-03 9.066839e-03 1.060518e-02 1.223081e-02 1.387163e-02 1.543671e-02 1.682171e-02 1.791967e-02 1.863282e-02 1.888538e-02 1.863448e-02 1.792226e-02 1.682500e-02 1.544020e-02 1.387544e-02 1.223460e-02 1.060919e-02 9.070954e-03 7.669237e-03 6.432001e-03 5.368948e-03 4.473213e-03 3.726015e-03 3.105394e-03 2.589118e-03 2.157521e-03 1.794127e-03 1.486132e-03 1.223835e-03 1.000142e-03 8.097932e-04 6.487789e-04 5.138211e-04 4.020512e-04 3.108204e-04 2.376327e-04 1.801559e-04 1.362692e-04 1.041304e-04 8.223822e-05 6.949106e-05 
9.144729e-05 9.706871e-05 1.143989e-04 1.443021e-04 1.882562e-04 2.482807e-04 3.268527e-04 4.268064e-04 5.512198e-04 7.033117e-04 8.863652e-04 1.103760e-03 1.359121e-03 1.656714e-03 2.002020e-03 2.402593e-03 2.869016e-03 3.415897e-03 4.062674e-03 4.833709e-03 5.757642e-03 6.864656e-03 8.182655e-03 9.725666e-03 1.148556e-02 1.343156e-02 1.550497e-02 1.761510e-02 1.964357e-02 2.145116e-02 2.289240e-02 2.383279e-02 2.416730e-02 2.383664e-02 2.289889e-02 2.145968e-02 1.965286e-02 1.762500e-02 1.551449e-02 1.344099e-02 1.149455e-02 9.734461e-03 8.191218e-03 6.872848e-03 5.765811e-03 4.841898e-03 4.070973e-03 3.424170e-03 2.877196e-03 2.410480e-03 2.009492e-03 1.663607e-03 1.365348e-03 1.109243e-03 8.910900e-04 7.072883e-04 5.544950e-04 4.294437e-04 3.289274e-04 2.498704e-04 1.894332e-04 1.451298e-04 1.149258e-04 9.732684e-05 
1.318836e-04 1.398636e-04 1.644788e-04 2.069444e-04 2.693409e-04 3.545110e-04 4.659355e-04 6.075752e-04 7.836775e-04 9.985803e-04 1.256522e-03 1.561596e-03 1.917838e-03 2.329689e-03 2.802716e-03 3.344797e-03 3.967517e-03 4.687720e-03 5.528933e-03 6.521892e-03 7.704203e-03 9.117006e-03 1.080018e-02 1.277676e-02 1.503883e-02 1.754969e-02 2.023634e-02 2.298198e-02 2.563168e-02 2.800096e-02 2.989530e-02 3.113441e-02 3.157679e-02 3.114214e-02 2.990877e-02 2.801885e-02 2.565138e-02 2.300262e-02 2.025581e-02 1.756838e-02 1.505599e-02 1.279292e-02 1.081535e-02 9.131065e-03 7.717814e-03 6.535215e-03 5.542197e-03 4.700773e-03 3.980311e-03 3.357057e-03 2.814283e-03 2.340322e-03 1.927414e-03 1.570004e-03 1.263745e-03 1.004639e-03 7.886504e-04 6.115654e-04 4.690634e-04 3.568996e-04 2.711039e-04 2.081808e-04 1.652641e-04 1.402476e-04 
1.903075e-04 2.016493e-04 2.366621e-04 2.970722e-04 3.858394e-04 5.070141e-04 6.655561e-04 8.670938e-04 1.117608e-03 1.423089e-03 1.789159e-03 2.220891e-03 2.722779e-03 3.299292e-03 3.955786e-03 4.700196e-03 5.545059e-03 6.509876e-03 7.623389e-03 8.924554e-03 1.046257e-02 1.229236e-02 1.446878e-02 1.702486e-02 1.994888e-02 2.319256e-02 2.666012e-02 3.019912e-02 3.360910e-02 3.665381e-02 3.908555e-02 4.067600e-02 4.124584e-02 4.069026e-02 3.911098e-02 3.668785e-02 3.364670e-02 3.023786e-02 2.669585e-02 2.322602e-02 1.997873e-02 1.705223e-02 1.449386e-02 1.231515e-02 1.048425e-02 8.945471e-03 7.643999e-03 6.529997e-03 5.564691e-03 4.718949e-03 3.973448e-03 3.315506e-03 2.737364e-03 2.233678e-03 1.800126e-03 1.432270e-03 1.125126e-03 8.731105e-04 6.702599e-04 5.105966e-04 3.884771e-04 2.989181e-04 2.378327e-04 2.022212e-04 
2.715170e-04 2.874596e-04 3.367158e-04 4.217293e-04 5.466973e-04 7.173763e-04 9.408293e-04 1.225066e-03 1.578549e-03 2.009628e-03 2.525870e-03 3.133662e-03 3.837976e-03 4.643064e-03 5.553612e-03 6.577235e-03 7.727342e-03 9.026721e-03 1.051076e-02 1.222905e-02 1.424527e-02 1.663096e-02 1.945739e-02 2.277002e-02 2.654536e-02 3.071341e-02 3.514720e-02 3.964929e-02 4.396633e-02 4.780447e-02 5.085880e-02 5.285295e-02 5.356968e-02 5.287797e-02 5.090441e-02 4.786594e-02 4.403432e-02 3.971801e-02 3.520898e-02 3.077007e-02 2.659476e-02 2.281438e-02 1.949738e-02 1.666670e-02 1.427884e-02 1.226103e-02 1.054200e-02 9.057010e-03 7.756792e-03 6.605306e-03 5.580031e-03 4.667307e-03 3.859778e-03 3.152764e-03 2.542233e-03 2.023305e-03 1.589723e-03 1.233986e-03 9.477840e-04 7.226588e-04 5.505763e-04 4.244377e-04 3.384301e-04 2.882958e-04 
3.812817e-04 4.033240e-04 4.714948e-04 5.892160e-04 7.623769e-04 9.990784e-04 1.309293e-03 1.704340e-03 2.196149e-03 2.796361e-03 3.515229e-03 4.360900e-03 5.338868e-03 6.452886e-03 7.706490e-03 9.106721e-03 1.066817e-02 1.241831e-02 1.440183e-02 1.668252e-02 1.934289e-02 2.247446e-02 2.616803e-02 3.048264e-02 3.536879e-02 4.071879e-02 4.635285e-02 5.200984e-02 5.737463e-02 6.210007e-02 6.583341e-02 6.826100e-02 6.913711e-02 6.830247e-02 6.591074e-02 6.220538e-02 5.749130e-02 5.212524e-02 4.645364e-02 4.080985e-02 3.544644e-02 3.055110e-02 2.622892e-02 2.252822e-02 1.939297e-02 1.672970e-02 1.444763e-02 1.246247e-02 1.071102e-02 9.147525e-03 7.744922e-03 6.488195e-03 5.370655e-03 4.388775e-03 3.539106e-03 2.816309e-03 2.212427e-03 1.717315e-03 1.319388e-03 1.006731e-03 7.679845e-04 5.931245e-04 4.739653e-04 4.045281e-04 
5.262704e-04 5.561937e-04 6.488326e-04 8.089100e-04 1.044572e-03 1.367061e-03 1.790274e-03 2.330024e-03 3.002967e-03 3.825245e-03 4.810777e-03 5.970089e-03 7.309339e-03 8.831612e-03 1.053903e-02 1.243839e-02 1.454684e-02 1.689967e-02 1.955549e-02 2.259837e-02 2.613460e-02 3.027897e-02 3.513910e-02 4.078766e-02 4.712564e-02 5.397542e-02 6.109215e-02 6.814332e-02 7.474875e-02 8.050606e-02 8.501202e-02 8.792477e-02 8.897849e-02 8.798915e-02 8.513532e-02 8.067618e-02 7.493741e-02 6.832462e-02 6.124513e-02 5.411362e-02 4.724269e-02 4.088994e-02 3.522915e-02 3.035819e-02 2.620793e-02 2.266663e-02 1.962123e-02 1.696258e-02 1.460768e-02 1.249627e-02 1.059360e-02 8.881831e-03 7.354616e-03 6.009849e-03 4.844845e-03 3.853702e-03 3.026161e-03 2.348482e-03 1.804603e-03 1.377898e-03 1.052494e-03 8.144201e-04 6.523091e-04 5.578862e-04 
7.139256e-04 7.537745e-04 8.772878e-04 1.090876e-03 1.405619e-03 1.836863e-03 2.403676e-03 3.127820e-03 4.032263e-03 5.139184e-03 6.467463e-03 8.030905e-03 9.836723e-03 1.188757e-02 1.418455e-02 1.673590e-02 1.956480e-02 2.272056e-02 2.628378e-02 3.036704e-02 3.510722e-02 4.064248e-02 4.709645e-02 5.454138e-02 6.280011e-02 7.158875e-02 8.053773e-02 8.919859e-02 9.713344e-02 1.039384e-01 1.092033e-01 1.125811e-01 1.138064e-01 1.126722e-01 1.093833e-01 1.041910e-01 9.741360e-02 8.945756e-02 8.074812e-02 7.178487e-02 6.296703e-02 5.468670e-02 4.722445e-02 4.075523e-02 3.521167e-02 3.046315e-02 2.637557e-02 2.280762e-02 1.964865e-02 1.681560e-02 1.425978e-02 1.195702e-02 9.899502e-03 8.086183e-03 6.514898e-03 5.178846e-03 4.064582e-03 3.153522e-03 2.423600e-03 1.851907e-03 1.416596e-03 1.098499e-03 8.820915e-04 7.561115e-04 
9.523848e-04 1.004455e-03 1.166031e-03 1.445657e-03 1.858133e-03 2.424032e-03 3.169057e-03 4.122666e-03 5.316072e-03 6.779418e-03 8.538240e-03 1.061095e-02 1.300672e-02 1.572876e-02 1.877894e-02 2.217091e-02 2.594092e-02 3.016271e-02 3.495037e-02 4.045553e-02 4.684677e-02 5.428032e-02 6.286767e-02 7.263181e-02 8.326755e-02 9.429449e-02 1.052654e-01 1.156800e-01 1.250591e-01 1.329866e-01 1.390272e-01 1.428534e-01 1.442337e-01 1.429704e-01 1.392649e-01 1.333241e-01 1.254306e-01 1.160017e-01 1.055135e-01 9.455034e-02 8.349630e-02 7.283295e-02 6.304783e-02 5.443942e-02 4.699445e-02 4.058950e-02 3.507666e-02 3.028102e-02 2.605406e-02 2.227820e-02 1.888027e-02 1.582259e-02 1.309179e-02 1.068609e-02 8.602819e-03 6.833470e-03 5.360101e-03 4.157649e-03 3.196126e-03 2.444429e-03 1.872983e-03 1.455948e-03 1.172505e-03 1.007601e-03 
1.250350e-03 1.317110e-03 1.524530e-03 1.883776e-03 2.414237e-03 3.142955e-03 4.103942e-03 5.336357e-03 6.881969e-03 8.781246e-03 1.106863e-02 1.376909e-02 1.689546e-02 2.045384e-02 2.445055e-02 2.891222e-02 3.389871e-02 3.952294e-02 4.594413e-02 5.335698e-02 6.195106e-02 7.186470e-02 8.315958e-02 9.574183e-02 1.091668e-01 1.228028e-01 1.359525e-01 1.479079e-01 1.582608e-01 1.668543e-01 1.733537e-01 1.774312e-01 1.788931e-01 1.775676e-01 1.736310e-01 1.672431e-01 1.586785e-01 1.482357e-01 1.361995e-01 1.231281e-01 1.094722e-01 9.600544e-02 8.340381e-02 7.208261e-02 6.215540e-02 5.354002e-02 4.611425e-02 3.968003e-02 3.404750e-02 2.905283e-02 2.458333e-02 2.057724e-02 1.700773e-02 1.386867e-02 1.115444e-02 8.853216e-03 6.940627e-03 5.382960e-03 4.139964e-03 3.170060e-03 2.433936e-03 1.897406e-03 1.533093e-03 1.321268e-03 
1.617117e-03 1.701174e-03 1.962626e-03 2.415772e-03 3.085494e-03 4.006616e-03 5.223259e-03 6.786525e-03 8.751402e-03 1.117158e-02 1.409332e-02 1.755096e-02 2.156388e-02 2.614493e-02 3.131145e-02 3.711318e-02 4.364837e-02 5.108278e-02 5.962820e-02 6.951273e-02 8.090931e-02 9.389737e-02 1.083966e-01 1.241511e-01 1.403344e-01 1.559613e-01 1.705750e-01 1.837434e-01 1.950733e-01 2.043229e-01 2.110597e-01 2.151290e-01 2.165538e-01 2.152869e-01 2.113473e-01 2.046833e-01 1.954469e-01 1.840116e-01 1.707942e-01 1.563798e-01 1.407441e-01 1.244913e-01 1.087268e-01 9.419436e-02 8.118915e-02 6.975954e-02 5.985349e-02 5.128788e-02 4.384038e-02 3.729402e-02 3.148202e-02 2.630401e-02 2.170905e-02 1.768023e-02 1.420496e-02 1.126537e-02 8.827842e-03 6.847213e-03 5.270090e-03 4.041780e-03 3.110989e-03 2.433372e-03 1.973662e-03 1.706526e-03 
2.062540e-03 2.166514e-03 2.490298e-03 3.051802e-03 3.882270e-03 5.025571e-03 6.537786e-03 8.484288e-03 1.093634e-02 1.396421e-02 1.762980e-02 2.198057e-02 2.704662e-02 3.285326e-02 3.943659e-02 4.688216e-02 5.533725e-02 6.503045e-02 7.621140e-02 8.910964e-02 1.038103e-01 1.202352e-01 1.380932e-01 1.567725e-01 1.755086e-01 1.936478e-01 2.099003e-01 2.228458e-01 2.323225e-01 2.388824e-01 2.430352e-01 2.453181e-01 2.461029e-01 2.454686e-01 2.432611e-01 2.390758e-01 2.325074e-01 2.230755e-01 2.102184e-01 1.942305e-01 1.759924e-01 1.571332e-01 1.385026e-01 1.206195e-01 1.041796e-01 8.943254e-02 7.650156e-02 6.529185e-02 5.557929e-02 4.710941e-02 3.965049e-02 3.305343e-02 2.722985e-02 2.214448e-02 1.777175e-02 1.408375e-02 1.103384e-02 8.561693e-03 6.597447e-03 5.070293e-03 3.914627e-03 3.074094e-03 2.504254e-03 2.173278e-03 
2.597293e-03 2.723825e-03 3.118200e-03 3.802336e-03 4.814567e-03 6.208891e-03 8.055034e-03 1.043498e-02 1.343946e-02 1.715933e-02 2.167664e-02 2.705694e-02 3.334615e-02 4.058836e-02 4.884666e-02 5.824963e-02 6.900058e-02 8.137862e-02 9.565391e-02 1.120020e-01 1.303809e-01 1.505847e-01 1.722219e-01 1.946460e-01 2.155658e-01 2.317729e-01 2.422085e-01 2.472866e-01 2.487423e-01 2.482032e-01 2.470617e-01 2.463058e-01 2.461160e-01 2.463729e-01 2.471311e-01 2.481832e-01 2.486776e-01 2.474036e-01 2.424850e-01 2.321513e-01 2.159514e-01 1.950752e-01 1.727618e-01 1.510793e-01 1.308496e-01 1.124071e-01 9.601321e-02 8.170340e-02 6.929987e-02 5.853121e-02 4.911123e-02 4.083671e-02 3.357387e-02 2.726127e-02 2.185386e-02 1.730870e-02 1.356123e-02 1.053151e-02 8.129270e-03 6.264376e-03 4.854585e-03 3.829819e-03 3.135362e-03 2.732126e-03 
3.232951e-03 3.384607e-03 3.857611e-03 4.678101e-03 5.891938e-03 7.563897e-03 9.778687e-03 1.263681e-02 1.625187e-02 2.073938e-02 2.620712e-02 3.274398e-02 4.041774e-02 4.929673e-02 5.947590e-02 7.113047e-02 8.451060e-02 9.994450e-02 1.176934e-01 1.379207e-01 1.604652e-01 1.851708e-01 2.106718e-01 2.324233e-01 2.459448e-01 2.497275e-01 2.463877e-01 2.399167e-01 2.334782e-01 2.284220e-01 2.250895e-01 2.233374e-01 2.228225e-01 2.233101e-01 2.249928e-01 2.282525e-01 2.332906e-01 2.398424e-01 2.463860e-01 2.497294e-01 2.461472e-01 2.329000e-01 2.113217e-01 1.858111e-01 1.610515e-01 1.384202e-01 1.181285e-01 1.003409e-01 8.487421e-02 7.147308e-02 5.979686e-02 4.959860e-02 4.069487e-02 3.299340e-02 2.642385e-02 2.092229e-02 1.640097e-02 1.275487e-02 9.869270e-03 7.631392e-03 5.940447e-03 4.711297e-03 3.878277e-03 3.394583e-03 
3.982503e-03 4.161998e-03 4.721714e-03 5.691934e-03 7.125988e-03 9.099389e-03 1.171232e-02 1.508514e-02 1.935710e-02 2.467289e-02 3.117160e-02 3.897204e-02 4.816865e-02 5.885953e-02 7.117275e-02 8.532692e-02 1.016189e-01 1.204128e-01 1.420261e-01 1.665765e-01 1.938765e-01 2.219793e-01 2.437324e-01 2.522740e-01 2.476462e-01 2.360342e-01 2.237744e-01 2.140278e-01 2.074785e-01 2.034530e-01 2.011648e-01 2.000220e-01 1.996687e-01 1.999443e-01 2.010058e-01 2.032676e-01 2.073685e-01 2.139681e-01 2.236120e-01 2.357297e-01 2.474727e-01 2.524064e-01 2.441544e-01 2.226233e-01 1.945420e-01 1.671727e-01 1.425417e-01 1.208940e-01 1.020590e-01 8.574274e-02 7.156063e-02 5.922407e-02 4.850275e-02 3.927259e-02 3.143254e-02 2.489279e-02 1.953594e-02 1.522625e-02 1.182013e-02 9.179280e-03 7.183080e-03 5.730767e-03 4.745747e-03 4.173531e-03 
4.860420e-03 5.070933e-03 5.726050e-03 6.859645e-03 8.531730e-03 1.082743e-02 1.386154e-02 1.777414e-02 2.273254e-02 2.891402e-02 3.649607e-02 4.563233e-02 5.645139e-02 6.908261e-02 8.369314e-02 1.005445e-01 1.199846e-01 1.424582e-01 1.683174e-01 1.976581e-01 2.281332e-01 2.498305e-01 2.537893e-01 2.421039e-01 2.250115e-01 2.096051e-01 1.977353e-01 1.891208e-01 1.833570e-01 1.798873e-01 1.780488e-01 1.772020e-01 1.769395e-01 1.770989e-01 1.778720e-01 1.797147e-01 1.832849e-01 1.890653e-01 1.975594e-01 2.092637e-01 2.247155e-01 2.419007e-01 2.537197e-01 2.501859e-01 2.287878e-01 1.983925e-01 1.689449e-01 1.430447e-01 1.205125e-01 1.010401e-01 8.415249e-02 6.951360e-02 5.684596e-02 4.598737e-02 3.680435e-02 2.917358e-02 2.294316e-02 1.793964e-02 1.398722e-02 1.091988e-02 8.597265e-03 6.903745e-03 5.752979e-03 5.083654e-03 
5.882910e-03 6.128611e-03 6.890281e-03 8.203952e-03 1.013409e-02 1.277237e-02 1.624492e-02 2.070932e-02 2.636259e-02 3.341740e-02 4.209653e-02 5.259720e-02 6.508584e-02 7.973494e-02 9.674913e-02 1.164545e-01 1.392569e-01 1.657017e-01 1.962260e-01 2.289101e-01 2.521074e-01 2.539428e-01 2.379177e-01 2.171428e-01 1.986979e-01 1.838276e-01 1.725764e-01 1.648074e-01 1.599829e-01 1.573453e-01 1.561249e-01 1.556541e-01 1.555159e-01 1.555540e-01 1.559670e-01 1.572016e-01 1.599227e-01 1.647523e-01 1.724322e-01 1.835642e-01 1.984651e-01 2.167945e-01 2.374803e-01 2.538174e-01 2.524887e-01 2.296385e-01 1.970128e-01 1.664284e-01 1.398931e-01 1.170456e-01 9.729382e-02 8.024310e-02 6.554879e-02 5.301169e-02 4.245514e-02 3.371779e-02 2.660483e-02 2.089811e-02 1.638649e-02 1.287526e-02 1.020611e-02 8.251810e-03 6.919152e-03 6.142051e-03 
7.066273e-03 7.352074e-03 8.233784e-03 9.747798e-03 1.196055e-02 1.496620e-02 1.889711e-02 2.392100e-02 3.025619e-02 3.815394e-02 4.789871e-02 5.973603e-02 7.388515e-02 9.055952e-02 1.100289e-01 1.326719e-01 1.590216e-01 1.897164e-01 2.239932e-01 2.508899e-01 2.545224e-01 2.368836e-01 2.131609e-01 1.914387e-01 1.733897e-01 1.593700e-01 1.491803e-01 1.423392e-01 1.382355e-01 1.361194e-01 1.352499e-01 1.349851e-01 1.349191e-01 1.349009e-01 1.351222e-01 1.360057e-01 1.381845e-01 1.422911e-01 1.490681e-01 1.591535e-01 1.731245e-01 1.910266e-01 2.126457e-01 2.364473e-01 2.543894e-01 2.513435e-01 2.249269e-01 1.906064e-01 1.597709e-01 1.333591e-01 1.106572e-01 9.114278e-02 7.441537e-02 6.020985e-02 4.830798e-02 3.849488e-02 3.052870e-02 2.413149e-02 1.905391e-02 1.507889e-02 1.203837e-02 9.798738e-03 8.264053e-03 7.365969e-03 
8.425469e-03 8.757660e-03 9.776645e-03 1.151677e-02 1.404281e-02 1.744555e-02 2.185675e-02 2.744657e-02 3.445095e-02 4.315305e-02 5.388692e-02 6.697467e-02 8.271465e-02 1.013894e-01 1.233153e-01 1.490214e-01 1.791308e-01 2.139480e-01 2.455136e-01 2.552319e-01 2.392024e-01 2.133415e-01 1.886702e-01 1.674802e-01 1.502962e-01 1.371621e-01 1.277841e-01 1.216589e-01 1.181164e-01 1.164101e-01 1.158097e-01 1.157035e-01 1.156942e-01 1.156393e-01 1.157139e-01 1.163227e-01 1.180684e-01 1.216063e-01 1.276788e-01 1.369605e-01 1.500215e-01 1.670804e-01 1.881728e-01 2.128091e-01 2.386989e-01 2.551826e-01 2.461465e-01 2.148209e-01 1.799580e-01 1.498181e-01 1.240462e-01 1.020584e-01 8.331704e-02 6.750690e-02 5.434317e-02 4.353060e-02 3.475129e-02 2.767627e-02 2.202585e-02 1.756524e-02 1.412404e-02 1.156893e-02 9.807080e-03 8.771425e-03 
9.971086e-03 1.035763e-02 1.153587e-02 1.353524e-02 1.641420e-02 2.025272e-02 2.517289e-02 3.133723e-02 3.899229e-02 4.845031e-02 6.010721e-02 7.436641e-02 9.161154e-02 1.122281e-01 1.366303e-01 1.652866e-01 1.992085e-01 2.348279e-01 2.538949e-01 2.442686e-01 2.179518e-01 1.907820e-01 1.666049e-01 1.461872e-01 1.298388e-01 1.175143e-01 1.088255e-01 1.032080e-01 9.999174e-02 9.846272e-02 9.794272e-02 9.786787e-02 9.787151e-02 9.782226e-02 9.787434e-02 9.839728e-02 9.994668e-02 1.031515e-01 1.087211e-01 1.173217e-01 1.295595e-01 1.457839e-01 1.660989e-01 1.901914e-01 2.173159e-01 2.438027e-01 2.540804e-01 2.356312e-01 2.001831e-01 1.661793e-01 1.374320e-01 1.129594e-01 9.227373e-02 7.495388e-02 6.061181e-02 4.886590e-02 3.932051e-02 3.158504e-02 2.535228e-02 2.037697e-02 1.649644e-02 1.358661e-02 1.156505e-02 1.037054e-02 
1.170643e-02 1.215761e-02 1.352342e-02 1.582523e-02 1.910983e-02 2.343728e-02 2.890904e-02 3.566630e-02 4.395806e-02 5.411943e-02 6.662021e-02 8.195522e-02 1.006263e-01 1.231445e-01 1.498971e-01 1.815507e-01 2.182106e-01 2.473977e-01 2.496997e-01 2.264393e-01 1.978426e-01 1.710874e-01 1.476502e-01 1.280228e-01 1.124417e-01 1.007173e-01 9.245104e-02 8.708183e-02 8.396593e-02 8.243890e-02 8.187279e-02 8.175437e-02 8.174366e-02 8.172287e-02 8.182420e-02 8.238767e-02 8.391979e-02 8.701666e-02 9.233834e-02 1.005218e-01 1.121530e-01 1.276120e-01 1.471222e-01 1.704516e-01 1.971337e-01 2.257271e-01 2.494353e-01 2.479432e-01 2.192594e-01 1.825770e-01 1.508009e-01 1.239537e-01 1.013581e-01 8.260085e-02 6.717241e-02 5.456907e-02 4.430803e-02 3.592501e-02 2.909145e-02 2.355945e-02 1.918757e-02 1.587168e-02 1.354866e-02 1.216837e-02 
1.362246e-02 1.415084e-02 1.573936e-02 1.839831e-02 2.215706e-02 2.704593e-02 3.313251e-02 4.052112e-02 4.945097e-02 6.027421e-02 7.354032e-02 8.985818e-02 1.098550e-01 1.342485e-01 1.630683e-01 1.978428e-01 2.338221e-01 2.510317e-01 2.375828e-01 2.090109e-01 1.805728e-01 1.546439e-01 1.320107e-01 1.131579e-01 9.815537e-02 8.681522e-02 7.872601e-02 7.336700e-02 7.014067e-02 6.844195e-02 6.770163e-02 6.745789e-02 6.740427e-02 6.743619e-02 6.766634e-02 6.839985e-02 7.009294e-02 7.329467e-02 7.860590e-02 8.661709e-02 9.786325e-02 1.127452e-01 1.314764e-01 1.539941e-01 1.798417e-01 2.082676e-01 2.369602e-01 2.510915e-01 2.346324e-01 1.988380e-01 1.639874e-01 1.351241e-01 1.106763e-01 9.058433e-02 7.415497e-02 6.076421e-02 4.982238e-02 4.078630e-02 3.331155e-02 2.715933e-02 2.222435e-02 1.843521e-02 1.575757e-02 1.415793e-02 
1.569400e-02 1.631469e-02 1.816830e-02 2.125190e-02 2.557239e-02 3.112024e-02 3.791482e-02 4.600366e-02 5.560178e-02 6.705896e-02 8.101522e-02 9.815911e-02 1.193204e-01 1.451933e-01 1.759159e-01 2.126040e-01 2.434002e-01 2.473665e-01 2.234519e-01 1.944653e-01 1.667268e-01 1.417084e-01 1.198451e-01 1.015859e-01 8.694500e-02 7.573215e-02 6.758077e-02 6.201975e-02 5.851323e-02 5.651584e-02 5.551453e-02 5.509487e-02 5.498011e-02 5.507902e-02 5.548674e-02 5.647801e-02 5.846271e-02 6.194105e-02 6.745454e-02 7.553262e-02 8.665345e-02 1.011764e-01 1.193100e-01 1.410454e-01 1.659719e-01 1.936672e-01 2.226844e-01 2.470876e-01 2.439722e-01 2.136096e-01 1.769403e-01 1.461819e-01 1.202562e-01 9.896951e-02 8.168295e-02 6.757247e-02 5.597438e-02 4.625502e-02 3.807213e-02 3.120977e-02 2.561772e-02 2.127122e-02 1.817452e-02 1.631580e-02 
1.787455e-02 1.860394e-02 2.076976e-02 2.435537e-02 2.934171e-02 3.567111e-02 4.329919e-02 5.219526e-02 6.252836e-02 7.462005e-02 8.920003e-02 1.069880e-01 1.291033e-01 1.558937e-01 1.883956e-01 2.250466e-01 2.480442e-01 2.397297e-01 2.116143e-01 1.832098e-01 1.564424e-01 1.321828e-01 1.109538e-01 9.306592e-02 7.855413e-02 6.724961e-02 5.884086e-02 5.291892e-02 4.900873e-02 4.662316e-02 4.530070e-02 4.466941e-02 4.448113e-02 4.465691e-02 4.527712e-02 4.658767e-02 4.895685e-02 5.283779e-02 5.871436e-02 6.705558e-02 7.827313e-02 9.267075e-02 1.104291e-01 1.315133e-01 1.556537e-01 1.823308e-01 2.107601e-01 2.390792e-01 2.483357e-01 2.261892e-01 1.898160e-01 1.572139e-01 1.302809e-01 1.079399e-01 8.993669e-02 7.515056e-02 6.288501e-02 5.241245e-02 4.341540e-02 3.572056e-02 2.935276e-02 2.434859e-02 2.075879e-02 1.859668e-02 
2.009559e-02 2.094990e-02 2.347570e-02 2.764511e-02 3.341288e-02 4.066922e-02 4.929147e-02 5.914993e-02 7.033580e-02 8.311415e-02 9.827109e-02 1.165405e-01 1.393014e-01 1.665788e-01 2.002994e-01 2.351240e-01 2.491125e-01 2.312466e-01 2.028673e-01 1.751539e-01 1.493201e-01 1.256987e-01 1.049223e-01 8.720515e-02 7.262689e-02 6.105767e-02 5.225363e-02 4.586690e-02 4.148188e-02 3.866242e-02 3.699242e-02 3.613573e-02 3.586906e-02 3.612492e-02 3.697094e-02 3.862829e-02 4.143026e-02 4.578755e-02 5.213374e-02 6.087939e-02 7.237226e-02 8.684861e-02 1.044420e-01 1.250687e-01 1.485384e-01 1.742275e-01 2.018754e-01 2.302736e-01 2.489708e-01 2.359458e-01 2.017569e-01 1.680203e-01 1.405565e-01 1.175168e-01 9.897849e-02 8.358147e-02 7.061004e-02 5.928109e-02 4.932774e-02 4.065139e-02 3.337156e-02 2.760101e-02 2.344121e-02 2.093149e-02 
2.226523e-02 2.325724e-02 2.618245e-02 3.100727e-02 3.766419e-02 4.599409e-02 5.578472e-02 6.679130e-02 7.898389e-02 9.253871e-02 1.082193e-01 1.267714e-01 1.496513e-01 1.769090e-01 2.105782e-01 2.421664e-01 2.477960e-01 2.245215e-01 1.970084e-01 1.700151e-01 1.448933e-01 1.217438e-01 1.012286e-01 8.351210e-02 6.872173e-02 5.677856e-02 4.750270e-02 4.060572e-02 3.572302e-02 3.246278e-02 3.044622e-02 2.936694e-02 2.902299e-02 2.935723e-02 3.042650e-02 3.243088e-02 3.567480e-02 4.053357e-02 4.739735e-02 5.662682e-02 6.850907e-02 8.321705e-02 1.008269e-01 1.212054e-01 1.441901e-01 1.691419e-01 1.960058e-01 2.236134e-01 2.476800e-01 2.431032e-01 2.121372e-01 1.784098e-01 1.508517e-01 1.276509e-01 1.087893e-01 9.285557e-02 7.910717e-02 6.678571e-02 5.570532e-02 4.588505e-02 3.755525e-02 3.091661e-02 2.611938e-02 2.322555e-02 
2.427501e-02 2.541029e-02 2.875445e-02 3.427680e-02 4.189676e-02 5.141774e-02 6.253586e-02 7.488778e-02 8.827834e-02 1.027702e-01 1.190030e-01 1.377635e-01 1.603885e-01 1.873866e-01 2.201399e-01 2.476242e-01 2.458624e-01 2.199033e-01 1.929987e-01 1.668655e-01 1.423393e-01 1.196122e-01 9.924053e-02 8.143986e-02 6.636495e-02 5.400879e-02 4.424735e-02 3.684821e-02 3.148973e-02 2.781635e-02 2.547934e-02 2.419560e-02 2.378072e-02 2.418664e-02 2.546115e-02 2.778723e-02 3.144688e-02 3.678697e-02 4.416262e-02 5.389365e-02 6.621227e-02 8.123987e-02 9.898223e-02 1.192870e-01 1.419397e-01 1.664118e-01 1.925070e-01 2.194498e-01 2.456555e-01 2.483406e-01 2.213681e-01 1.884542e-01 1.611481e-01 1.382622e-01 1.192357e-01 1.027995e-01 8.815986e-02 7.468818e-02 6.230674e-02 5.119845e-02 4.171021e-02 3.413468e-02 2.866058e-02 2.536447e-02 
2.600689e-02 2.727908e-02 3.102768e-02 3.723341e-02 4.581423e-02 5.655424e-02 6.906762e-02 8.288350e-02 9.761067e-02 1.131758e-01 1.299896e-01 1.488651e-01 1.708990e-01 1.972148e-01 2.287149e-01 2.519528e-01 2.442191e-01 2.173570e-01 1.907813e-01 1.653106e-01 1.411760e-01 1.187433e-01 9.841401e-02 8.047739e-02 6.510238e-02 5.235127e-02 4.214512e-02 3.429923e-02 2.852533e-02 2.449635e-02 2.188598e-02 2.042873e-02 1.995377e-02 2.042064e-02 2.186979e-02 2.447115e-02 2.848990e-02 3.425170e-02 4.208436e-02 5.227613e-02 6.501255e-02 8.037321e-02 9.829484e-02 1.186142e-01 1.410360e-01 1.651720e-01 1.906119e-01 2.170976e-01 2.438268e-01 2.521971e-01 2.293819e-01 1.976624e-01 1.711156e-01 1.488904e-01 1.298254e-01 1.128772e-01 9.722930e-02 8.247952e-02 6.868536e-02 5.622412e-02 4.555071e-02 3.704063e-02 3.090374e-02 2.721966e-02 
2.734637e-02 2.873363e-02 3.282541e-02 3.961947e-02 4.904266e-02 6.087909e-02 7.468380e-02 8.990704e-02 1.059666e-01 1.226480e-01 1.400736e-01 1.590157e-01 1.803197e-01 2.055098e-01 2.355441e-01 2.550193e-01 2.431134e-01 2.161158e-01 1.897839e-01 1.647453e-01 1.408406e-01 1.185874e-01 9.824247e-02 8.016851e-02 6.453198e-02 5.145622e-02 4.089249e-02 3.269424e-02 2.659663e-02 2.229328e-02 1.947338e-02 1.788362e-02 1.736279e-02 1.787615e-02 1.945878e-02 2.227136e-02 2.656755e-02 3.265843e-02 4.085192e-02 5.141423e-02 6.449306e-02 8.013903e-02 9.822531e-02 1.185878e-01 1.408456e-01 1.647396e-01 1.896978e-01 2.158675e-01 2.426552e-01 2.551158e-01 2.360769e-01 2.057155e-01 1.802352e-01 1.587151e-01 1.396153e-01 1.220981e-01 1.053849e-01 8.934819e-02 7.418674e-02 6.046609e-02 4.872159e-02 3.938864e-02 3.267874e-02 2.866380e-02 
2.819599e-02 2.966100e-02 3.398653e-02 4.118578e-02 5.119781e-02 6.381762e-02 7.856951e-02 9.486281e-02 1.119772e-01 1.295909e-01 1.475716e-01 1.666142e-01 1.873806e-01 2.115854e-01 2.403896e-01 2.570222e-01 2.425436e-01 2.155158e-01 1.893221e-01 1.645640e-01 1.408088e-01 1.186693e-01 9.830616e-02 8.013680e-02 6.432555e-02 5.103695e-02 4.024154e-02 3.181714e-02 2.551335e-02 2.103634e-02 1.808444e-02 1.641143e-02 1.586186e-02 1.640459e-02 1.807135e-02 2.101743e-02 2.548983e-02 3.179113e-02 4.021731e-02 5.102106e-02 6.432589e-02 8.016387e-02 9.836513e-02 1.187659e-01 1.409259e-01 1.646779e-01 1.893625e-01 2.154025e-01 2.421864e-01 2.570582e-01 2.408050e-01 2.116390e-01 1.871039e-01 1.661064e-01 1.469260e-01 1.288800e-01 1.112660e-01 9.420192e-02 7.799504e-02 6.334731e-02 5.083611e-02 4.092771e-02 3.382354e-02 2.958383e-02 
2.848778e-02 2.998010e-02 3.438812e-02 4.173163e-02 5.195544e-02 6.486173e-02 7.996710e-02 9.667273e-02 1.142084e-01 1.322146e-01 1.504433e-01 1.695428e-01 1.900766e-01 2.138183e-01 2.420123e-01 2.576526e-01 2.424296e-01 2.154260e-01 1.892614e-01 1.645792e-01 1.408614e-01 1.187496e-01 9.837107e-02 8.016236e-02 6.428530e-02 5.091954e-02 4.004116e-02 3.153689e-02 2.516075e-02 2.062324e-02 1.762552e-02 1.592370e-02 1.536414e-02 1.591693e-02 1.761267e-02 2.060489e-02 2.513835e-02 3.151297e-02 4.002043e-02 5.090907e-02 6.429320e-02 8.019875e-02 9.843929e-02 1.188510e-01 1.409724e-01 1.646654e-01 1.892482e-01 2.152366e-01 2.420382e-01 2.577635e-01 2.425157e-01 2.139013e-01 1.898011e-01 1.690129e-01 1.497753e-01 1.314812e-01 1.134793e-01 9.599655e-02 7.938041e-02 6.438149e-02 5.158616e-02 4.146805e-02 3.422159e-02 2.990118e-02 
2.819599e-02 2.966100e-02 3.398653e-02 4.118578e-02 5.119781e-02 6.381762e-02 7.856951e-02 9.486281e-02 1.119772e-01 1.295909e-01 1.475716e-01 1.666142e-01 1.873806e-01 2.115854e-01 2.403896e-01 2.570222e-01 2.425436e-01 2.155158e-01 1.893221e-01 1.645640e-01 1.408088e-01 1.186693e-01 9.830616e-02 8.013680e-02 6.432555e-02 5.103695e-02 4.024154e-02 3.181714e-02 2.551335e-02 2.103634e-02 1.808444e-02 1.641143e-02 1.586186e-02 1.640459e-02 1.807135e-02 2.101743e-02 2.548983e-02 3.179113e-02 4.021731e-02 5.102106e-02 6.432589e-02 8.016387e-02 9.836513e-02 1.187659e-01 1.409259e-01 1.646779e-01 1.893625e-01 2.154025e-01 2.421864e-01 2.570582e-01 2.408050e-01 2.116390e-01 1.871039e-01 1.661064e-01 1.469260e-01 1.288800e-01 1.112660e-01 9.420192e-02 7.799504e-02 6.334731e-02 5.083611e-02 4.092771e-02 3.382354e-02 2.958383e-02 
2.734637e-02 2.873363e-02 3.282541e-02 3.961947e-02 4.904266e-02 6.087909e-02 7.468380e-02 8.990704e-02 1.059666e-01 1.226480e-01 1.400736e-01 1.590157e-01 1.803197e-01 2.055098e-01 2.355441e-01 2.550193e-01 2.431134e-01 2.161158e-01 1.897839e-01 1.647453e-01 1.408406e-01 1.185874e-01 9.824247e-02 8.016851e-02 6.453198e-02 5.145622e-02 4.089249e-02 3.269424e-02 2.659663e-02 2.229328e-02 1.947338e-02 1.788362e-02 1.736279e-02 1.787615e-02 1.945878e-02 2.227136e-02 2.656755e-02 3.265843e-02 4.085192e-02 5.141423e-02 6.449306e-02 8.013903e-02 9.822531e-02 1.185878e-01 1.408456e-01 1.647396e-01 1.896978e-01 2.158675e-01 2.426552e-01 2.551158e-01 2.360769e-01 2.057155e-01 1.802352e-01 1.587151e-01 1.396153e-01 1.220981e-01 1.053849e-01 8.934819e-02 7.418674e-02 6.046609e-02 4.872159e-02 3.938864e-02 3.267874e-02 2.866380e-02 