# vtk DataFile Version 2.0
Comment goes here
ASCII

DATASET STRUCTURED_POINTS
FIELD FieldData 1
TIME 1 1 double
1.09000000
DIMENSIONS    64   64   1

ORIGIN    0.000   0.000   0.000
SPACING   0.015625 0.015625   1.000

POINT_DATA   4096
SCALARS Concentration double
LOOKUP_TABLE default

2.526027e-03 2.562003e-03 2.680814e-03 2.885337e-03 3.180785e-03 3.575092e-03 4.079316e-03 4.708272e-03 5.481080e-03 6.421784e-03 7.559646e-03 8.929132e-03 1.056914e-02 1.252136e-02 1.482757e-02 1.752560e-02 2.064475e-02 2.420003e-02 2.818809e-02 3.258215e-02 3.733263e-02 4.236504e-02 4.758710e-02 5.288787e-02 5.814552e-02 6.322736e-02 6.800171e-02 7.233661e-02 7.610874e-02 7.920295e-02 8.151900e-02 8.297314e-02 8.350278e-02 8.306849e-02 8.169880e-02 7.945486e-02 7.641863e-02 7.269009e-02 6.838334e-02 6.362328e-02 5.854200e-02 5.327428e-02 4.795416e-02 4.270774e-02 3.764765e-02 3.286855e-02 2.844607e-02 2.443102e-02 2.085095e-02 1.770933e-02 1.499148e-02 1.266757e-02 1.069978e-02 9.045665e-03 7.663445e-03 6.513658e-03 5.561800e-03 4.778228e-03 4.138912e-03 3.624504e-03 3.220229e-03 2.914892e-03 2.700573e-03 2.571937e-03 
2.601027e-03 2.637578e-03 2.758486e-03 2.966617e-03 3.267183e-03 3.668120e-03 4.180511e-03 4.819228e-03 5.603493e-03 6.557525e-03 7.710842e-03 9.098286e-03 1.075926e-02 1.273615e-02 1.507159e-02 1.780446e-02 2.096534e-02 2.457066e-02 2.861871e-02 3.308437e-02 3.791986e-02 4.305241e-02 4.839181e-02 5.382966e-02 5.924322e-02 6.449665e-02 6.945352e-02 7.397452e-02 7.792634e-02 8.118205e-02 8.362840e-02 8.516987e-02 8.573453e-02 8.527847e-02 8.383279e-02 8.146697e-02 7.827432e-02 7.436775e-02 6.987369e-02 6.492767e-02 5.966999e-02 5.424100e-02 4.877820e-02 4.340995e-02 3.824629e-02 3.337967e-02 2.888378e-02 2.480751e-02 2.117654e-02 1.799265e-02 1.523957e-02 1.288616e-02 1.089347e-02 9.218174e-03 7.817773e-03 6.652299e-03 5.686858e-03 4.891551e-03 4.242176e-03 3.719285e-03 3.308047e-03 2.997250e-03 2.778970e-03 2.647879e-03 
2.827411e-03 2.865697e-03 2.992886e-03 3.211820e-03 3.527699e-03 3.948468e-03 4.485284e-03 5.153179e-03 5.971688e-03 6.965533e-03 8.165011e-03 9.606075e-03 1.132967e-02 1.338020e-02 1.580288e-02 1.863980e-02 2.192531e-02 2.568018e-02 2.990748e-02 3.458712e-02 3.967652e-02 4.510779e-02 5.079558e-02 5.663556e-02 6.250190e-02 6.825025e-02 7.373017e-02 7.878135e-02 8.324260e-02 8.695415e-02 8.976723e-02 9.155406e-02 9.221725e-02 9.170002e-02 9.004104e-02 8.733257e-02 8.369894e-02 7.928852e-02 7.426150e-02 6.878343e-02 6.301759e-02 5.712095e-02 5.124091e-02 4.551118e-02 4.003850e-02 3.491024e-02 3.019475e-02 2.593527e-02 2.215207e-02 1.884170e-02 1.598329e-02 1.354168e-02 1.147458e-02 9.735963e-03 8.281258e-03 7.068899e-03 6.062878e-03 5.232497e-03 4.553059e-03 4.004804e-03 3.572754e-03 3.245626e-03 3.015503e-03 2.877071e-03 
3.210412e-03 3.251556e-03 3.389204e-03 3.626149e-03 3.967576e-03 4.421438e-03 4.999018e-03 5.715608e-03 6.591254e-03 7.651499e-03 8.927899e-03 1.045822e-02 1.228587e-02 1.445854e-02 1.702560e-02 2.003422e-02 2.352480e-02 2.752492e-02 3.204522e-02 3.707327e-02 4.257451e-02 4.848801e-02 5.473512e-02 6.121508e-02 6.779824e-02 7.432682e-02 8.062940e-02 8.651360e-02 9.177515e-02 9.620317e-02 9.959290e-02 1.017657e-01 1.025840e-01 1.019713e-01 9.997757e-02 9.673083e-02 9.240445e-02 8.720235e-02 8.133757e-02 7.502186e-02 6.845415e-02 6.181666e-02 5.527244e-02 4.896319e-02 4.299212e-02 3.744011e-02 3.236763e-02 2.780935e-02 2.377695e-02 2.025889e-02 1.722694e-02 1.463957e-02 1.244916e-02 1.060537e-02 9.060275e-03 7.769771e-03 6.696027e-03 5.807072e-03 5.077403e-03 4.486751e-03 4.019903e-03 3.665463e-03 3.415525e-03 3.264796e-03 
3.758997e-03 3.804138e-03 3.956484e-03 4.218767e-03 4.596154e-03 5.096619e-03 5.731618e-03 6.516812e-03 7.472952e-03 8.626711e-03 1.001136e-02 1.166713e-02 1.364078e-02 1.598442e-02 1.875300e-02 2.200052e-02 2.577537e-02 3.011403e-02 3.503685e-02 4.054092e-02 4.660135e-02 5.316494e-02 6.016000e-02 6.748816e-02 7.501188e-02 8.255597e-02 8.992170e-02 9.687638e-02 1.031617e-01 1.085033e-01 1.126268e-01 1.152903e-01 1.163067e-01 1.155738e-01 1.131561e-01 1.092263e-01 1.040184e-01 9.780523e-02 9.086481e-02 8.346679e-02 7.585489e-02 6.824497e-02 6.082112e-02 5.373661e-02 4.709408e-02 4.096733e-02 3.540785e-02 3.043959e-02 2.606367e-02 2.225794e-02 1.898471e-02 1.619392e-02 1.383090e-02 1.183950e-02 1.016729e-02 8.766724e-03 7.597517e-03 6.625948e-03 5.825417e-03 5.174954e-03 4.659018e-03 4.266050e-03 3.988155e-03 3.820068e-03 
4.485778e-03 4.536012e-03 4.707356e-03 5.002458e-03 5.426473e-03 5.987404e-03 6.696953e-03 7.571254e-03 8.631965e-03 9.907184e-03 1.143233e-02 1.325069e-02 1.541314e-02 1.797727e-02 2.100479e-02 2.455803e-02 2.869484e-02 3.346217e-02 3.889116e-02 4.498912e-02 5.174076e-02 5.909952e-02 6.699938e-02 7.534100e-02 8.397798e-02 9.271348e-02 1.013205e-01 1.095230e-01 1.170026e-01 1.234122e-01 1.283948e-01 1.316344e-01 1.328842e-01 1.320133e-01 1.291020e-01 1.243755e-01 1.181396e-01 1.107476e-01 1.025522e-01 9.388746e-02 8.504676e-02 7.628301e-02 6.780602e-02 5.978462e-02 5.232211e-02 4.548685e-02 3.932160e-02 3.383950e-02 2.902983e-02 2.485872e-02 2.127723e-02 1.822538e-02 1.563989e-02 1.345761e-02 1.162058e-02 1.007705e-02 8.783692e-03 7.704617e-03 6.811859e-03 6.083548e-03 5.503728e-03 5.060612e-03 4.746322e-03 4.555611e-03 
5.406891e-03 5.463347e-03 5.658139e-03 5.993823e-03 6.475561e-03 7.111406e-03 7.913387e-03 8.898241e-03 1.008875e-02 1.151475e-02 1.321423e-02 1.523414e-02 1.763024e-02 2.046664e-02 2.381304e-02 2.774156e-02 3.232101e-02 3.761006e-02 4.365153e-02 5.046250e-02 5.803617e-02 6.632940e-02 7.527858e-02 8.477946e-02 9.466759e-02 1.047204e-01 1.146788e-01 1.242230e-01 1.329734e-01 1.405107e-01 1.463962e-01 1.502406e-01 1.517379e-01 1.507259e-01 1.473025e-01 1.417453e-01 1.344305e-01 1.257907e-01 1.162497e-01 1.062056e-01 9.600297e-02 8.593950e-02 7.625721e-02 6.714796e-02 5.872292e-02 5.104679e-02 4.415614e-02 3.805350e-02 3.271681e-02 2.809921e-02 2.413948e-02 2.076602e-02 1.790563e-02 1.548685e-02 1.344521e-02 1.172396e-02 1.027616e-02 9.063342e-03 8.055859e-03 7.230746e-03 6.571510e-03 6.066068e-03 5.706537e-03 5.487678e-03 
6.541811e-03 6.605590e-03 6.828464e-03 7.212871e-03 7.764009e-03 8.490009e-03 9.403340e-03 1.052149e-02 1.186863e-02 1.347666e-02 1.538663e-02 1.764978e-02 2.032758e-02 2.349180e-02 2.722146e-02 3.160022e-02 3.670924e-02 4.262043e-02 4.938810e-02 5.703809e-02 6.556820e-02 7.493278e-02 8.506375e-02 9.584241e-02 1.070811e-01 1.185228e-01 1.298852e-01 1.408168e-01 1.508827e-01 1.595925e-01 1.664175e-01 1.708943e-01 1.726534e-01 1.715011e-01 1.675537e-01 1.611422e-01 1.527158e-01 1.427897e-01 1.318571e-01 1.203719e-01 1.087228e-01 9.724888e-02 8.623268e-02 7.589996e-02 6.637417e-02 5.772340e-02 4.998215e-02 4.314606e-02 3.718224e-02 3.203121e-02 2.761791e-02 2.385791e-02 2.066630e-02 1.796209e-02 1.567314e-02 1.373689e-02 1.210220e-02 1.072752e-02 9.581260e-03 8.639087e-03 7.883866e-03 7.303090e-03 6.888873e-03 6.635940e-03 
7.913077e-03 7.985382e-03 8.241315e-03 8.683203e-03 9.316317e-03 1.014890e-02 1.119400e-02 1.247005e-02 1.400291e-02 1.582699e-02 1.798690e-02 2.053904e-02 2.355157e-02 2.710556e-02 3.129122e-02 3.620632e-02 4.194694e-02 4.860040e-02 5.623371e-02 6.487968e-02 7.453717e-02 8.514885e-02 9.663322e-02 1.088450e-01 1.215493e-01 1.344460e-01 1.472232e-01 1.595082e-01 1.708211e-01 1.806172e-01 1.883017e-01 1.933582e-01 1.953640e-01 1.940902e-01 1.896779e-01 1.825016e-01 1.730642e-01 1.619418e-01 1.496679e-01 1.367312e-01 1.235574e-01 1.105459e-01 9.803296e-02 8.629689e-02 7.549203e-02 6.569466e-02 5.694550e-02 4.923537e-02 4.252302e-02 3.673478e-02 3.178015e-02 2.755913e-02 2.397275e-02 2.092844e-02 1.834482e-02 1.615246e-02 1.429520e-02 1.272788e-02 1.141656e-02 1.033526e-02 9.466016e-03 8.795773e-03 8.316597e-03 8.023149e-03 
9.545783e-03 9.627917e-03 9.922336e-03 1.043134e-02 1.116028e-02 1.211754e-02 1.331695e-02 1.477809e-02 1.652892e-02 1.860686e-02 2.106084e-02 2.395342e-02 2.736097e-02 3.137611e-02 3.610303e-02 4.165769e-02 4.815449e-02 5.570035e-02 6.437523e-02 7.421812e-02 8.522008e-02 9.729969e-02 1.103423e-01 1.241475e-01 1.384151e-01 1.527705e-01 1.669086e-01 1.804914e-01 1.930210e-01 2.038959e-01 2.124285e-01 2.180608e-01 2.203160e-01 2.189299e-01 2.140763e-01 2.061644e-01 1.957476e-01 1.834767e-01 1.699198e-01 1.555658e-01 1.408407e-01 1.261812e-01 1.120008e-01 9.865961e-02 8.635695e-02 7.519802e-02 6.524030e-02 5.647913e-02 4.886610e-02 4.231374e-02 3.671229e-02 3.194282e-02 2.788829e-02 2.444159e-02 2.150987e-02 1.901521e-02 1.689546e-02 1.510111e-02 1.359544e-02 1.235039e-02 1.134701e-02 1.057152e-02 1.001592e-02 9.674729e-03 
1.146687e-02 1.156036e-02 1.189964e-02 1.248674e-02 1.332726e-02 1.442971e-02 1.580890e-02 1.748583e-02 1.949102e-02 2.186552e-02 2.466349e-02 2.795514e-02 3.182700e-02 3.638681e-02 4.175693e-02 4.807776e-02 5.548781e-02 6.411942e-02 7.406821e-02 8.537649e-02 9.802145e-02 1.118775e-01 1.267825e-01 1.424401e-01 1.584478e-01 1.743426e-01 1.897948e-01 2.045314e-01 2.180661e-01 2.297795e-01 2.389532e-01 2.450347e-01 2.474993e-01 2.460258e-01 2.408492e-01 2.324013e-01 2.212537e-01 2.080954e-01 1.934511e-01 1.777326e-01 1.613549e-01 1.448623e-01 1.287592e-01 1.135101e-01 9.940492e-02 8.658551e-02 7.514801e-02 6.509761e-02 5.638463e-02 4.890496e-02 4.252507e-02 3.710088e-02 3.249108e-02 2.856951e-02 2.522805e-02 2.237829e-02 1.995048e-02 1.788990e-02 1.615645e-02 1.471957e-02 1.355911e-02 1.266034e-02 1.201519e-02 1.161802e-02 
1.370400e-02 1.381066e-02 1.420236e-02 1.488062e-02 1.585111e-02 1.712261e-02 1.871115e-02 2.063936e-02 2.294093e-02 2.566122e-02 2.886084e-02 3.261954e-02 3.703708e-02 4.224113e-02 4.837869e-02 5.562323e-02 6.414481e-02 7.410902e-02 8.562553e-02 9.873824e-02 1.133887e-01 1.293890e-01 1.464843e-01 1.642391e-01 1.821011e-01 1.993997e-01 2.159132e-01 2.316385e-01 2.461823e-01 2.588246e-01 2.686578e-01 2.751716e-01 2.778292e-01 2.762682e-01 2.707943e-01 2.618030e-01 2.498725e-01 2.358397e-01 2.202395e-01 2.033411e-01 1.854298e-01 1.670286e-01 1.487892e-01 1.313423e-01 1.150871e-01 1.002512e-01 8.699336e-02 7.535316e-02 6.528560e-02 5.667300e-02 4.935108e-02 4.314306e-02 3.787451e-02 3.339314e-02 2.957066e-02 2.630467e-02 2.351615e-02 2.114381e-02 1.914368e-02 1.748213e-02 1.613766e-02 1.509437e-02 1.434421e-02 1.388130e-02 
1.628416e-02 1.640626e-02 1.685963e-02 1.764498e-02 1.876805e-02 2.023734e-02 2.207014e-02 2.429121e-02 2.693788e-02 3.006060e-02 3.372772e-02 3.803104e-02 4.308727e-02 4.905119e-02 5.610241e-02 6.445968e-02 7.433236e-02 8.592683e-02 9.936187e-02 1.146698e-01 1.317370e-01 1.502726e-01 1.699362e-01 1.900619e-01 2.100129e-01 2.289758e-01 2.465865e-01 2.630038e-01 2.780485e-01 2.910597e-01 3.011297e-01 3.078431e-01 3.106127e-01 3.089882e-01 3.033846e-01 2.941818e-01 2.819460e-01 2.675895e-01 2.514417e-01 2.333761e-01 2.136783e-01 1.931837e-01 1.726090e-01 1.526335e-01 1.338625e-01 1.166015e-01 1.011261e-01 8.753159e-02 7.579857e-02 6.580072e-02 5.733796e-02 5.019216e-02 4.414320e-02 3.900406e-02 3.461835e-02 3.086587e-02 2.765548e-02 2.491822e-02 2.260553e-02 2.068034e-02 1.911969e-02 1.790641e-02 1.703263e-02 1.649224e-02 
1.923152e-02 1.937196e-02 1.989833e-02 2.081026e-02 2.211337e-02 2.381571e-02 2.593577e-02 2.849958e-02 3.154849e-02 3.513945e-02 3.935001e-02 4.428687e-02 5.008938e-02 5.694795e-02 6.508677e-02 7.478283e-02 8.629349e-02 9.986852e-02 1.156172e-01 1.335424e-01 1.534180e-01 1.748436e-01 1.973317e-01 2.200494e-01 2.421515e-01 2.622569e-01 2.803589e-01 2.971900e-01 3.130865e-01 3.270381e-01 3.374760e-01 3.441545e-01 3.468534e-01 3.452541e-01 3.396832e-01 3.302031e-01 3.172518e-01 3.021013e-01 2.853587e-01 2.666001e-01 2.458212e-01 2.234236e-01 2.003983e-01 1.777090e-01 1.561000e-01 1.360169e-01 1.178935e-01 1.019347e-01 8.817152e-02 7.648912e-02 6.664960e-02 5.838470e-02 5.141506e-02 4.550566e-02 4.046327e-02 3.614336e-02 3.244020e-02 2.927524e-02 2.659534e-02 2.435950e-02 2.254346e-02 2.112891e-02 2.010846e-02 1.947607e-02 
2.256533e-02 2.272800e-02 2.334175e-02 2.440450e-02 2.592155e-02 2.789982e-02 3.035898e-02 3.332589e-02 3.684565e-02 4.097977e-02 4.581784e-02 5.148551e-02 5.815083e-02 6.605159e-02 7.546822e-02 8.675339e-02 1.002132e-01 1.161421e-01 1.346032e-01 1.555386e-01 1.785437e-01 2.030489e-01 2.284800e-01 2.534649e-01 2.776515e-01 3.003286e-01 3.206757e-01 3.376856e-01 3.518107e-01 3.629707e-01 3.708786e-01 3.756382e-01 3.774173e-01 3.763500e-01 3.723822e-01 3.653022e-01 3.550497e-01 3.417405e-01 3.252737e-01 3.048120e-01 2.816112e-01 2.572611e-01 2.321901e-01 2.066715e-01 1.819914e-01 1.587290e-01 1.375457e-01 1.188032e-01 1.026181e-01 8.892085e-02 7.743886e-02 6.785297e-02 5.980610e-02 5.300329e-02 4.720056e-02 4.222305e-02 3.794611e-02 3.428047e-02 3.116760e-02 2.856363e-02 2.644424e-02 2.479016e-02 2.359515e-02 2.285311e-02 
2.629670e-02 2.648663e-02 2.720572e-02 2.844940e-02 3.022204e-02 3.252849e-02 3.538907e-02 3.883050e-02 4.290130e-02 4.766694e-02 5.322741e-02 5.973175e-02 6.738815e-02 7.649373e-02 8.740309e-02 1.005562e-01 1.163143e-01 1.350002e-01 1.565968e-01 1.809510e-01 2.073928e-01 2.351835e-01 2.636278e-01 2.918819e-01 3.180444e-01 3.392278e-01 3.550362e-01 3.650825e-01 3.710475e-01 3.741502e-01 3.759677e-01 3.769169e-01 3.771126e-01 3.768950e-01 3.760473e-01 3.743975e-01 3.717377e-01 3.666782e-01 3.576989e-01 3.428328e-01 3.223427e-01 2.968379e-01 2.685229e-01 2.399414e-01 2.118825e-01 1.850403e-01 1.603642e-01 1.383981e-01 1.193660e-01 1.032874e-01 8.986784e-02 7.873421e-02 6.943915e-02 6.160763e-02 5.493242e-02 4.919735e-02 4.425346e-02 3.999964e-02 3.637520e-02 3.333392e-02 3.085298e-02 2.891267e-02 2.750889e-02 2.663586e-02 
3.042644e-02 3.065042e-02 3.149751e-02 3.295942e-02 3.503887e-02 3.773679e-02 4.107321e-02 4.507246e-02 4.978568e-02 5.528033e-02 6.166800e-02 6.912002e-02 7.789592e-02 8.837115e-02 1.009873e-01 1.162900e-01 1.346825e-01 1.565249e-01 1.816622e-01 2.098877e-01 2.401459e-01 2.718337e-01 3.031885e-01 3.302318e-01 3.491171e-01 3.577185e-01 3.584047e-01 3.558628e-01 3.532719e-01 3.512870e-01 3.506929e-01 3.506291e-01 3.505111e-01 3.503826e-01 3.501732e-01 3.503543e-01 3.519414e-01 3.545091e-01 3.575320e-01 3.580001e-01 3.513823e-01 3.347754e-01 3.090965e-01 2.781827e-01 2.459378e-01 2.151147e-01 1.865101e-01 1.608950e-01 1.385804e-01 1.197395e-01 1.040635e-01 9.114270e-02 8.041605e-02 7.141612e-02 6.375104e-02 5.714865e-02 5.143292e-02 4.649182e-02 4.226464e-02 3.870444e-02 3.579247e-02 3.350974e-02 3.185602e-02 3.082633e-02 
3.494115e-02 3.520776e-02 3.621039e-02 3.793567e-02 4.038321e-02 4.354766e-02 4.744688e-02 5.209965e-02 5.755777e-02 6.388829e-02 7.121555e-02 7.973718e-02 8.976832e-02 1.017896e-01 1.163519e-01 1.341102e-01 1.555277e-01 1.809671e-01 2.101439e-01 2.427712e-01 2.774032e-01 3.110361e-01 3.374692e-01 3.501775e-01 3.485388e-01 3.396358e-01 3.303315e-01 3.246151e-01 3.226048e-01 3.225849e-01 3.236156e-01 3.243944e-01 3.246235e-01 3.242078e-01 3.231823e-01 3.218161e-01 3.213911e-01 3.228009e-01 3.279621e-01 3.370605e-01 3.467181e-01 3.506872e-01 3.415742e-01 3.177761e-01 2.847565e-01 2.495783e-01 2.164335e-01 1.866347e-01 1.605073e-01 1.384566e-01 1.201717e-01 1.051927e-01 9.283924e-02 8.252180e-02 7.374038e-02 6.615100e-02 5.954887e-02 5.380881e-02 4.887415e-02 4.469957e-02 4.127441e-02 3.858241e-02 3.662953e-02 3.541265e-02 
3.981288e-02 4.013313e-02 4.132480e-02 4.336739e-02 4.625569e-02 4.997441e-02 5.453674e-02 5.995062e-02 6.626640e-02 7.354570e-02 8.192870e-02 9.164187e-02 1.030722e-01 1.168145e-01 1.335585e-01 1.540821e-01 1.788991e-01 2.084190e-01 2.421165e-01 2.791714e-01 3.151301e-01 3.403132e-01 3.465731e-01 3.367504e-01 3.214583e-01 3.087039e-01 3.003545e-01 2.961903e-01 2.950756e-01 2.955253e-01 2.969033e-01 2.979733e-01 2.983438e-01 2.978042e-01 2.964988e-01 2.947885e-01 2.939023e-01 2.946420e-01 2.985896e-01 3.065021e-01 3.184269e-01 3.334896e-01 3.454169e-01 3.436622e-01 3.224230e-01 2.879257e-01 2.504374e-01 2.158715e-01 1.853429e-01 1.595835e-01 1.382846e-01 1.209590e-01 1.067655e-01 9.497885e-02 8.494941e-02 7.625052e-02 6.864147e-02 6.198144e-02 5.622322e-02 5.132626e-02 4.729407e-02 4.411573e-02 4.180698e-02 4.036788e-02 
4.499488e-02 4.538191e-02 4.680117e-02 4.922281e-02 5.263408e-02 5.700531e-02 6.234103e-02 6.863220e-02 7.592393e-02 8.426841e-02 9.382453e-02 1.048572e-01 1.178423e-01 1.335048e-01 1.527123e-01 1.763625e-01 2.050774e-01 2.391860e-01 2.775819e-01 3.153745e-01 3.405802e-01 3.430258e-01 3.282882e-01 3.094272e-01 2.927863e-01 2.800417e-01 2.719753e-01 2.684735e-01 2.681910e-01 2.695047e-01 2.714078e-01 2.728018e-01 2.733105e-01 2.726936e-01 2.711519e-01 2.690417e-01 2.674753e-01 2.674821e-01 2.707004e-01 2.781780e-01 2.900680e-01 3.057891e-01 3.241772e-01 3.407107e-01 3.436315e-01 3.237342e-01 2.875625e-01 2.484627e-01 2.131110e-01 1.831480e-01 1.584621e-01 1.384797e-01 1.222336e-01 1.088122e-01 9.740250e-02 8.746845e-02 7.872710e-02 7.101787e-02 6.430951e-02 5.857089e-02 5.382670e-02 5.007555e-02 4.734697e-02 4.564637e-02 
5.042508e-02 5.089480e-02 5.258580e-02 5.545607e-02 5.948213e-02 6.461404e-02 7.084299e-02 7.813429e-02 8.652490e-02 9.605021e-02 1.068971e-01 1.193726e-01 1.340727e-01 1.518592e-01 1.737846e-01 2.008095e-01 2.335306e-01 2.722399e-01 3.124806e-01 3.397522e-01 3.418887e-01 3.246487e-01 3.027878e-01 2.827246e-01 2.660483e-01 2.539591e-01 2.465335e-01 2.433303e-01 2.430961e-01 2.443794e-01 2.461641e-01 2.474853e-01 2.479734e-01 2.474079e-01 2.459923e-01 2.440805e-01 2.426347e-01 2.426674e-01 2.455978e-01 2.524751e-01 2.637364e-01 2.793835e-01 2.985198e-01 3.198631e-01 3.391089e-01 3.431946e-01 3.217935e-01 2.830674e-01 2.433078e-01 2.089738e-01 1.805616e-01 1.576769e-01 1.391786e-01 1.239693e-01 1.110572e-01 9.976822e-02 8.977372e-02 8.088472e-02 7.309643e-02 6.639065e-02 6.082322e-02 5.640661e-02 5.318977e-02 5.118592e-02 
5.602141e-02 5.659167e-02 5.860146e-02 6.199381e-02 6.673017e-02 7.273358e-02 7.997542e-02 8.838556e-02 9.798817e-02 1.087959e-01 1.210305e-01 1.350558e-01 1.516018e-01 1.717083e-01 1.965478e-01 2.270982e-01 2.639759e-01 3.055358e-01 3.375286e-01 3.434349e-01 3.258976e-01 3.015188e-01 2.784188e-01 2.585517e-01 2.424073e-01 2.306495e-01 2.233191e-01 2.199216e-01 2.193474e-01 2.203360e-01 2.218542e-01 2.230390e-01 2.234932e-01 2.230140e-01 2.217966e-01 2.202140e-01 2.191228e-01 2.195046e-01 2.225886e-01 2.293455e-01 2.402875e-01 2.554473e-01 2.743217e-01 2.963786e-01 3.203864e-01 3.409615e-01 3.423859e-01 3.161177e-01 2.751424e-01 2.364506e-01 2.043117e-01 1.783754e-01 1.574757e-01 1.403498e-01 1.258231e-01 1.130677e-01 1.017030e-01 9.150693e-02 8.250890e-02 7.470994e-02 6.820582e-02 6.302923e-02 5.925377e-02 5.690422e-02 
6.169010e-02 6.238097e-02 6.475936e-02 6.874990e-02 7.429422e-02 8.128106e-02 8.965443e-02 9.929767e-02 1.102176e-01 1.223949e-01 1.361001e-01 1.517521e-01 1.702545e-01 1.927989e-01 2.207407e-01 2.547567e-01 2.952321e-01 3.329163e-01 3.464049e-01 3.316365e-01 3.057915e-01 2.800738e-01 2.570964e-01 2.374621e-01 2.216987e-01 2.101405e-01 2.026532e-01 1.987296e-01 1.974289e-01 1.976980e-01 1.986123e-01 1.994257e-01 1.997539e-01 1.994221e-01 1.985998e-01 1.976490e-01 1.972897e-01 1.983928e-01 2.019794e-01 2.088967e-01 2.196642e-01 2.344381e-01 2.530178e-01 2.748510e-01 2.996053e-01 3.257704e-01 3.455293e-01 3.398831e-01 3.067245e-01 2.650401e-01 2.290691e-01 2.001714e-01 1.768431e-01 1.577175e-01 1.415100e-01 1.271955e-01 1.143663e-01 1.027495e-01 9.242516e-02 8.341575e-02 7.586849e-02 6.984199e-02 6.544088e-02 6.270539e-02 
6.732186e-02 6.815343e-02 7.094729e-02 7.560754e-02 8.204956e-02 9.012021e-02 9.972733e-02 1.106947e-01 1.230057e-01 1.365941e-01 1.517902e-01 1.690549e-01 1.894555e-01 2.143644e-01 2.449316e-01 2.829329e-01 3.238318e-01 3.480006e-01 3.412707e-01 3.151246e-01 2.875813e-01 2.618698e-01 2.391282e-01 2.198407e-01 2.042629e-01 1.925522e-01 1.845492e-01 1.798081e-01 1.775611e-01 1.769486e-01 1.771566e-01 1.775405e-01 1.777224e-01 1.775515e-01 1.771676e-01 1.769204e-01 1.774250e-01 1.794466e-01 1.838131e-01 1.912366e-01 2.021649e-01 2.167881e-01 2.350111e-01 2.566238e-01 2.813377e-01 3.085615e-01 3.360577e-01 3.500863e-01 3.333069e-01 2.938847e-01 2.542022e-01 2.227381e-01 1.969594e-01 1.758017e-01 1.578598e-01 1.419184e-01 1.275475e-01 1.144192e-01 1.026705e-01 9.235295e-02 8.367115e-02 7.671761e-02 7.163241e-02 6.847728e-02 
7.280510e-02 7.379689e-02 7.704814e-02 8.244123e-02 8.985970e-02 9.910232e-02 1.100305e-01 1.223986e-01 1.361554e-01 1.511766e-01 1.678568e-01 1.866894e-01 2.089228e-01 2.360576e-01 2.688369e-01 3.097244e-01 3.447115e-01 3.516698e-01 3.292088e-01 3.003480e-01 2.725457e-01 2.473239e-01 2.249424e-01 2.058317e-01 1.901455e-01 1.779846e-01 1.692015e-01 1.634390e-01 1.600846e-01 1.584444e-01 1.578302e-01 1.576942e-01 1.576911e-01 1.576922e-01 1.578088e-01 1.583580e-01 1.598550e-01 1.629491e-01 1.683070e-01 1.765056e-01 1.879140e-01 2.026914e-01 2.208177e-01 2.421453e-01 2.665045e-01 2.936604e-01 3.224785e-01 3.488075e-01 3.503743e-01 3.207864e-01 2.794802e-01 2.452061e-01 2.173074e-01 1.941202e-01 1.744974e-01 1.569054e-01 1.409603e-01 1.262650e-01 1.130276e-01 1.013341e-01 9.145186e-02 8.351453e-02 7.770238e-02 7.410403e-02 
7.801889e-02 7.918751e-02 8.292727e-02 8.909850e-02 9.754846e-02 1.080248e-01 1.203319e-01 1.341457e-01 1.493687e-01 1.657883e-01 1.838876e-01 2.040781e-01 2.280509e-01 2.568188e-01 2.925189e-01 3.331719e-01 3.570125e-01 3.475354e-01 3.181175e-01 2.889980e-01 2.617712e-01 2.369129e-01 2.147404e-01 1.954938e-01 1.793700e-01 1.664537e-01 1.566698e-01 1.497480e-01 1.452139e-01 1.425094e-01 1.410555e-01 1.403881e-01 1.401924e-01 1.403588e-01 1.409740e-01 1.423242e-01 1.448446e-01 1.490823e-01 1.555680e-01 1.647636e-01 1.769430e-01 1.922044e-01 2.105165e-01 2.316933e-01 2.557176e-01 2.821418e-01 3.111416e-01 3.410505e-01 3.588743e-01 3.431225e-01 3.040943e-01 2.666294e-01 2.372665e-01 2.121377e-01 1.909639e-01 1.717531e-01 1.542421e-01 1.379726e-01 1.232239e-01 1.101303e-01 9.901777e-02 9.007107e-02 8.351153e-02 7.946032e-02 
8.284811e-02 8.420528e-02 8.845006e-02 9.542197e-02 1.049289e-01 1.166723e-01 1.303883e-01 1.456781e-01 1.623705e-01 1.801545e-01 1.995496e-01 2.208326e-01 2.461473e-01 2.757713e-01 3.141120e-01 3.515814e-01 3.628924e-01 3.405590e-01 3.107134e-01 2.818199e-01 2.552547e-01 2.305455e-01 2.082688e-01 1.885600e-01 1.717030e-01 1.578139e-01 1.468868e-01 1.387381e-01 1.330016e-01 1.292290e-01 1.269371e-01 1.257326e-01 1.253390e-01 1.256617e-01 1.267711e-01 1.289168e-01 1.324629e-01 1.378681e-01 1.455596e-01 1.559008e-01 1.690806e-01 1.851324e-01 2.039697e-01 2.253559e-01 2.492547e-01 2.751503e-01 3.036659e-01 3.330755e-01 3.608056e-01 3.587461e-01 3.258255e-01 2.868059e-01 2.561928e-01 2.294382e-01 2.067915e-01 1.860671e-01 1.670199e-01 1.492188e-01 1.329785e-01 1.185070e-01 1.061746e-01 9.622848e-02 8.892622e-02 8.442582e-02 
8.717544e-02 8.872669e-02 9.347434e-02 1.012387e-01 1.117874e-01 1.247881e-01 1.399017e-01 1.566761e-01 1.748321e-01 1.939892e-01 2.145690e-01 2.368072e-01 2.629193e-01 2.930311e-01 3.319712e-01 3.644888e-01 3.645684e-01 3.363315e-01 3.074818e-01 2.790496e-01 2.526500e-01 2.277585e-01 2.050148e-01 1.845747e-01 1.667698e-01 1.517749e-01 1.396443e-01 1.302696e-01 1.233701e-01 1.185825e-01 1.155015e-01 1.137911e-01 1.132098e-01 1.136768e-01 1.152504e-01 1.181457e-01 1.226703e-01 1.292128e-01 1.381182e-01 1.496743e-01 1.639902e-01 1.810429e-01 2.006600e-01 2.225650e-01 2.465897e-01 2.722842e-01 3.000012e-01 3.287627e-01 3.592599e-01 3.688797e-01 3.437887e-01 3.053626e-01 2.731298e-01 2.453403e-01 2.213551e-01 1.993389e-01 1.788464e-01 1.596248e-01 1.419721e-01 1.262039e-01 1.127128e-01 1.018167e-01 9.380401e-02 8.887668e-02 
9.089594e-02 9.263734e-02 9.785930e-02 1.063694e-01 1.178966e-01 1.320887e-01 1.485320e-01 1.667608e-01 1.863646e-01 2.069491e-01 2.287034e-01 2.519449e-01 2.785410e-01 3.092124e-01 3.470126e-01 3.732599e-01 3.643060e-01 3.352807e-01 3.070837e-01 2.791823e-01 2.526844e-01 2.274814e-01 2.040954e-01 1.828163e-01 1.639906e-01 1.478798e-01 1.345814e-01 1.240578e-01 1.160901e-01 1.103822e-01 1.065897e-01 1.044222e-01 1.036706e-01 1.042656e-01 1.062566e-01 1.098278e-01 1.152435e-01 1.228369e-01 1.328903e-01 1.456361e-01 1.611120e-01 1.792574e-01 1.997924e-01 2.224382e-01 2.468065e-01 2.726161e-01 2.996434e-01 3.279457e-01 3.573676e-01 3.754430e-01 3.581901e-01 3.212089e-01 2.874934e-01 2.592947e-01 2.342422e-01 2.111625e-01 1.893613e-01 1.688619e-01 1.499236e-01 1.329820e-01 1.184352e-01 1.066758e-01 9.801700e-02 9.270372e-02 
9.390902e-02 9.582253e-02 1.014605e-01 1.106237e-01 1.230085e-01 1.382585e-01 1.558933e-01 1.754622e-01 1.964232e-01 2.184351e-01 2.413550e-01 2.656679e-01 2.925468e-01 3.238291e-01 3.597764e-01 3.793340e-01 3.636120e-01 3.353997e-01 3.075931e-01 2.804293e-01 2.539289e-01 2.285270e-01 2.045406e-01 1.824927e-01 1.627238e-01 1.456091e-01 1.312782e-01 1.197590e-01 1.108785e-01 1.043919e-01 1.000006e-01 9.744895e-02 9.655461e-02 9.725811e-02 9.960207e-02 1.037463e-01 1.099226e-01 1.184237e-01 1.294850e-01 1.432991e-01 1.598434e-01 1.790296e-01 2.004766e-01 2.239101e-01 2.487443e-01 2.748320e-01 3.014856e-01 3.292450e-01 3.569434e-01 3.793176e-01 3.686266e-01 3.334044e-01 2.993397e-01 2.710405e-01 2.451819e-01 2.211624e-01 1.982103e-01 1.765931e-01 1.565402e-01 1.385900e-01 1.231406e-01 1.106474e-01 1.014402e-01 9.580189e-02 
9.613174e-02 9.817992e-02 1.041415e-01 1.138135e-01 1.268679e-01 1.429526e-01 1.615393e-01 1.822081e-01 2.043040e-01 2.275684e-01 2.515411e-01 2.768171e-01 3.038246e-01 3.351211e-01 3.690766e-01 3.832094e-01 3.634699e-01 3.362160e-01 3.087615e-01 2.821428e-01 2.556267e-01 2.300596e-01 2.055712e-01 1.828966e-01 1.623610e-01 1.444453e-01 1.292994e-01 1.170066e-01 1.074232e-01 1.003421e-01 9.549551e-02 9.265222e-02 9.164934e-02 9.243459e-02 9.504648e-02 9.962687e-02 1.063855e-01 1.155879e-01 1.274356e-01 1.420963e-01 1.594964e-01 1.795305e-01 2.017209e-01 2.257953e-01 2.509968e-01 2.772387e-01 3.035848e-01 3.306782e-01 3.574328e-01 3.815950e-01 3.757560e-01 3.427516e-01 3.091792e-01 2.805412e-01 2.539335e-01 2.289966e-01 2.050585e-01 1.825078e-01 1.615585e-01 1.428118e-01 1.266607e-01 1.136020e-01 1.039741e-01 9.808764e-02 
9.749666e-02 9.963262e-02 1.058020e-01 1.158005e-01 1.292848e-01 1.459090e-01 1.651184e-01 1.865232e-01 2.093971e-01 2.335524e-01 2.583284e-01 2.843480e-01 3.115408e-01 3.424337e-01 3.747296e-01 3.853528e-01 3.636299e-01 3.367819e-01 3.096325e-01 2.833638e-01 2.568826e-01 2.312396e-01 2.064484e-01 1.833856e-01 1.623630e-01 1.439381e-01 1.282735e-01 1.154904e-01 1.054634e-01 9.800845e-02 9.287625e-02 8.985032e-02 8.877985e-02 8.961769e-02 9.239923e-02 9.725596e-02 1.043847e-01 1.140352e-01 1.263890e-01 1.415983e-01 1.595566e-01 1.801437e-01 2.028174e-01 2.272945e-01 2.527102e-01 2.789888e-01 3.050992e-01 3.316899e-01 3.580270e-01 3.829318e-01 3.802067e-01 3.491748e-01 3.161821e-01 2.869981e-01 2.597792e-01 2.341020e-01 2.094613e-01 1.862600e-01 1.647126e-01 1.454444e-01 1.288430e-01 1.154250e-01 1.055316e-01 9.948967e-02 
9.795754e-02 1.001228e-01 1.063625e-01 1.164715e-01 1.301017e-01 1.469097e-01 1.663341e-01 1.879991e-01 2.111538e-01 2.356434e-01 2.607376e-01 2.870743e-01 3.143954e-01 3.450895e-01 3.766489e-01 3.860431e-01 3.637680e-01 3.370403e-01 3.100163e-01 2.838719e-01 2.574037e-01 2.317291e-01 2.068244e-01 1.836177e-01 1.624174e-01 1.438097e-01 1.279610e-01 1.150065e-01 1.048258e-01 9.724273e-02 9.201303e-02 8.892499e-02 8.783131e-02 8.868619e-02 9.152448e-02 9.647431e-02 1.037281e-01 1.135314e-01 1.260584e-01 1.414576e-01 1.596093e-01 1.803901e-01 2.032316e-01 2.278478e-01 2.533361e-01 2.796230e-01 3.056627e-01 3.320981e-01 3.583227e-01 3.833765e-01 3.816586e-01 3.514165e-01 3.187196e-01 2.892892e-01 2.618417e-01 2.358815e-01 2.109839e-01 1.875479e-01 1.657890e-01 1.463394e-01 1.295837e-01 1.160432e-01 1.060593e-01 9.996406e-02 
9.749666e-02 9.963262e-02 1.058020e-01 1.158005e-01 1.292848e-01 1.459090e-01 1.651184e-01 1.865232e-01 2.093971e-01 2.335524e-01 2.583284e-01 2.843480e-01 3.115408e-01 3.424337e-01 3.747296e-01 3.853528e-01 3.636299e-01 3.367819e-01 3.096325e-01 2.833638e-01 2.568826e-01 2.312396e-01 2.064484e-01 1.833856e-01 1.623630e-01 1.439381e-01 1.282735e-01 1.154904e-01 1.054634e-01 9.800845e-02 9.287625e-02 8.985032e-02 8.877985e-02 8.961769e-02 9.239923e-02 9.725596e-02 1.043847e-01 1.140352e-01 1.263890e-01 1.415983e-01 1.595566e-01 1.801437e-01 2.028174e-01 2.272945e-01 2.527102e-01 2.789888e-01 3.050992e-01 3.316899e-01 3.580270e-01 3.829318e-01 3.802067e-01 3.491748e-01 3.161821e-01 2.869981e-01 2.597792e-01 2.341020e-01 2.094613e-01 1.862600e-01 1.647126e-01 1.454444e-01 1.288430e-01 1.154250e-01 1.055316e-01 9.948967e-02 
9.613174e-02 9.817992e-02 1.041415e-01 1.138135e-01 1.268679e-01 1.429526e-01 1.615393e-01 1.822081e-01 2.043040e-01 2.275684e-01 2.515411e-01 2.768171e-01 3.038246e-01 3.351211e-01 3.690766e-01 3.832094e-01 3.634699e-01 3.362160e-01 3.087615e-01 2.821428e-01 2.556267e-01 2.300596e-01 2.055712e-01 1.828966e-01 1.623610e-01 1.444453e-01 1.292994e-01 1.170066e-01 1.074232e-01 1.003421e-01 9.549551e-02 9.265222e-02 9.164934e-02 9.243459e-02 9.504648e-02 9.962687e-02 1.063855e-01 1.155879e-01 1.274356e-01 1.420963e-01 1.594964e-01 1.795305e-01 2.017209e-01 2.257953e-01 2.509968e-01 2.772387e-01 3.035848e-01 3.306782e-01 3.574328e-01 3.815950e-01 3.757560e-01 3.427516e-01 3.091792e-01 2.805412e-01 2.539335e-01 2.289966e-01 2.050585e-01 1.825078e-01 1.615585e-01 1.428118e-01 1.266607e-01 1.136020e-01 1.039741e-01 9.808764e-02 