# vtk DataFile Version 2.0
Comment goes here
ASCII

DATASET STRUCTURED_POINTS
FIELD FieldData 1
TIME 1 1 double
0.79000000
DIMENSIONS    64   64   1

ORIGIN    0.000   0.000   0.000
SPACING   0.015625 0.015625   1.000

POINT_DATA   4096
SCALARS Concentration double
LOOKUP_TABLE default

5.643172e-04 5.793689e-04 6.266056e-04 7.069487e-04 8.220734e-04 9.743996e-04 1.167166e-03 1.404523e-03 1.691722e-03 2.035444e-03 2.444167e-03 2.928849e-03 3.503343e-03 4.185318e-03 4.996122e-03 5.961456e-03 7.109511e-03 8.470725e-03 1.007283e-02 1.193973e-02 1.408314e-02 1.650268e-02 1.917612e-02 2.206373e-02 2.509749e-02 2.819177e-02 3.123846e-02 3.412160e-02 3.671606e-02 3.890197e-02 4.056765e-02 4.162005e-02 4.199057e-02 4.163888e-02 4.060211e-02 3.894893e-02 3.677208e-02 3.418343e-02 3.130297e-02 2.825621e-02 2.515985e-02 2.212231e-02 1.923036e-02 1.655225e-02 1.412868e-02 1.198145e-02 1.011148e-02 8.506569e-03 7.143014e-03 5.992733e-03 5.025328e-03 4.212436e-03 3.528354e-03 2.951699e-03 2.464794e-03 2.053830e-03 1.707842e-03 1.418418e-03 1.178865e-03 9.839891e-04 8.296170e-04 7.125410e-04 6.303040e-04 5.812227e-04 
5.948443e-04 6.105874e-04 6.600211e-04 7.440778e-04 8.644540e-04 1.023601e-03 1.224790e-03 1.472212e-03 1.771155e-03 2.128352e-03 2.552337e-03 3.054170e-03 3.647838e-03 4.351255e-03 5.186087e-03 6.178566e-03 7.357529e-03 8.754401e-03 1.039806e-02 1.231401e-02 1.451576e-02 1.700522e-02 1.976283e-02 2.275279e-02 2.590766e-02 2.914115e-02 3.234214e-02 3.538854e-02 3.814593e-02 4.048165e-02 4.227024e-02 4.340431e-02 4.380532e-02 4.342682e-02 4.231141e-02 4.053751e-02 3.821198e-02 3.546070e-02 3.241644e-02 2.921441e-02 2.597755e-02 2.281756e-02 1.982188e-02 1.705860e-02 1.456442e-02 1.235838e-02 1.043904e-02 8.792360e-03 7.393008e-03 6.211702e-03 5.217058e-03 4.380036e-03 3.674408e-03 3.078463e-03 2.574282e-03 2.147924e-03 1.788322e-03 1.487014e-03 1.237256e-03 1.033820e-03 8.724945e-04 7.500385e-04 6.639632e-04 6.125634e-04 
6.874805e-04 7.053147e-04 7.613838e-04 8.566552e-04 9.928895e-04 1.172630e-03 1.399250e-03 1.677057e-03 2.011454e-03 2.409319e-03 2.879355e-03 3.432906e-03 4.084355e-03 4.852303e-03 5.759365e-03 6.833267e-03 8.104796e-03 9.608202e-03 1.137583e-02 1.343788e-02 1.581322e-02 1.851058e-02 2.151762e-02 2.480738e-02 2.831462e-02 3.195129e-02 3.559713e-02 3.911253e-02 4.233602e-02 4.509901e-02 4.723708e-02 4.860307e-02 4.909055e-02 4.863612e-02 4.729744e-02 4.518041e-02 4.243097e-02 3.921458e-02 3.569994e-02 3.205038e-02 2.840671e-02 2.489058e-02 2.159143e-02 1.857578e-02 1.587166e-02 1.349054e-02 1.142414e-02 9.652788e-03 8.146443e-03 6.872184e-03 5.795795e-03 4.886206e-03 4.115706e-03 3.461604e-03 2.905315e-03 2.432489e-03 2.031794e-03 1.694602e-03 1.414031e-03 1.184747e-03 1.002423e-03 8.637215e-04 7.660561e-04 7.076554e-04 
8.460461e-04 8.674231e-04 9.347593e-04 1.049084e-03 1.212275e-03 1.427042e-03 1.696945e-03 2.026507e-03 2.421332e-03 2.888560e-03 3.437162e-03 4.078952e-03 4.828910e-03 5.706729e-03 6.736450e-03 7.948176e-03 9.375650e-03 1.105762e-02 1.303174e-02 1.533565e-02 1.799645e-02 2.103352e-02 2.444529e-02 2.821699e-02 3.228658e-02 3.656316e-02 4.091214e-02 4.516664e-02 4.912333e-02 5.255772e-02 5.524469e-02 5.697487e-02 5.759830e-02 5.702498e-02 5.533612e-02 5.268048e-02 4.926513e-02 4.531719e-02 4.106124e-02 3.670423e-02 3.241480e-02 2.833021e-02 2.454325e-02 2.111822e-02 1.807104e-02 1.540209e-02 1.309232e-02 1.111341e-02 9.427816e-03 7.997016e-03 6.782305e-03 5.749505e-03 4.868569e-03 4.115319e-03 3.470116e-03 2.918003e-03 2.447205e-03 2.048833e-03 1.715763e-03 1.442469e-03 1.224413e-03 1.058079e-03 9.407055e-04 8.704009e-04 
1.076874e-03 1.103346e-03 1.186902e-03 1.328675e-03 1.530727e-03 1.796038e-03 2.128466e-03 2.532878e-03 3.015204e-03 3.582969e-03 4.245530e-03 5.015307e-03 5.908028e-03 6.944727e-03 8.151203e-03 9.560490e-03 1.121002e-02 1.314415e-02 1.540718e-02 1.804610e-02 2.109835e-02 2.459676e-02 2.855308e-02 3.296767e-02 3.778121e-02 4.289890e-02 4.816701e-02 5.338356e-02 5.829104e-02 6.259376e-02 6.598915e-02 6.818886e-02 6.898789e-02 6.826214e-02 6.612279e-02 6.277289e-02 5.849688e-02 5.360064e-02 4.837979e-02 4.309792e-02 3.795938e-02 3.312251e-02 2.868491e-02 2.470880e-02 2.119585e-02 1.813227e-02 1.548556e-02 1.321636e-02 1.127774e-02 9.624077e-03 8.211104e-03 7.000743e-03 5.960081e-03 5.063105e-03 4.288895e-03 3.621733e-03 3.049282e-03 2.562282e-03 2.153247e-03 1.816345e-03 1.546700e-03 1.340503e-03 1.194717e-03 1.107257e-03 
1.388568e-03 1.421801e-03 1.526945e-03 1.705290e-03 1.959186e-03 2.292018e-03 2.708117e-03 3.212879e-03 3.812751e-03 4.515825e-03 5.331989e-03 6.274412e-03 7.359659e-03 8.610271e-03 1.005391e-02 1.172690e-02 1.367060e-02 1.593571e-02 1.857356e-02 2.164161e-02 2.518807e-02 2.926072e-02 3.388511e-02 3.907797e-02 4.478048e-02 5.089239e-02 5.723781e-02 6.357550e-02 6.958757e-02 7.489756e-02 7.911475e-02 8.185907e-02 8.286274e-02 8.196156e-02 7.930166e-02 7.514795e-02 6.987441e-02 6.387690e-02 5.753136e-02 5.116515e-02 4.502224e-02 3.928579e-02 3.406005e-02 2.940761e-02 2.531493e-02 2.175335e-02 1.867538e-02 1.602986e-02 1.375936e-02 1.181062e-02 1.013312e-02 8.684563e-03 7.428870e-03 6.338057e-03 5.389795e-03 4.567518e-03 3.858203e-03 3.252087e-03 2.741148e-03 2.319071e-03 1.980452e-03 1.721029e-03 1.537339e-03 1.427000e-03 
1.791655e-03 1.833460e-03 1.966038e-03 2.190917e-03 2.510869e-03 2.929888e-03 3.453014e-03 4.086452e-03 4.837439e-03 5.714899e-03 6.729462e-03 7.895204e-03 9.229593e-03 1.075672e-02 1.250610e-02 1.451738e-02 1.683587e-02 1.951866e-02 2.262397e-02 2.621954e-02 3.036374e-02 3.511876e-02 4.052361e-02 4.661179e-02 5.331991e-02 6.053978e-02 6.806909e-02 7.562419e-02 8.282258e-02 8.920543e-02 9.429247e-02 9.761111e-02 9.883195e-02 9.774840e-02 9.454312e-02 8.954172e-02 8.320764e-02 7.602839e-02 6.846164e-02 6.090356e-02 5.364024e-02 4.688506e-02 4.075219e-02 3.530884e-02 3.052735e-02 2.636378e-02 2.275616e-02 1.964162e-02 1.695258e-02 1.462803e-02 1.261123e-02 1.085558e-02 9.321859e-03 7.980114e-03 6.806603e-03 5.783857e-03 4.898031e-03 4.138670e-03 3.496959e-03 2.965837e-03 2.539097e-03 2.211785e-03 1.979807e-03 1.840342e-03 
2.298320e-03 2.350642e-03 2.517002e-03 2.799271e-03 3.200844e-03 3.726596e-03 4.382637e-03 5.176377e-03 6.116289e-03 7.212523e-03 8.476827e-03 9.924420e-03 1.157385e-02 1.345083e-02 1.558672e-02 1.802464e-02 2.081363e-02 2.401739e-02 2.770002e-02 3.193897e-02 3.679971e-02 4.235728e-02 4.865944e-02 5.575352e-02 6.356102e-02 7.195971e-02 8.071888e-02 8.951522e-02 9.790961e-02 1.053671e-01 1.113242e-01 1.152166e-01 1.166573e-01 1.153953e-01 1.116512e-01 1.058068e-01 9.841281e-02 9.004321e-02 8.123100e-02 7.243489e-02 6.397787e-02 5.610718e-02 4.895352e-02 4.259966e-02 3.700791e-02 3.212291e-02 2.786987e-02 2.417659e-02 2.096594e-02 1.816985e-02 1.572532e-02 1.358154e-02 1.169607e-02 1.003700e-02 8.579124e-03 7.303931e-03 6.196538e-03 5.245455e-03 4.440691e-03 3.774020e-03 3.238030e-03 2.826729e-03 2.535101e-03 2.359682e-03 
2.922015e-03 2.986952e-03 3.193940e-03 3.545349e-03 4.045445e-03 4.700365e-03 5.517761e-03 6.506822e-03 7.677862e-03 9.042870e-03 1.061524e-02 1.241179e-02 1.445246e-02 1.676488e-02 1.938251e-02 2.235236e-02 2.572756e-02 2.957863e-02 3.397494e-02 3.900195e-02 4.472882e-02 5.123863e-02 5.858340e-02 6.681749e-02 7.583280e-02 8.548456e-02 9.550460e-02 1.055267e-01 1.150582e-01 1.235066e-01 1.302486e-01 1.346515e-01 1.362928e-01 1.348774e-01 1.306637e-01 1.240678e-01 1.157015e-01 1.062025e-01 9.616151e-02 8.609781e-02 7.636958e-02 6.727044e-02 5.895791e-02 5.154487e-02 4.499192e-02 3.923529e-02 3.419245e-02 2.978421e-02 2.592579e-02 2.254234e-02 1.956452e-02 1.693688e-02 1.461345e-02 1.256009e-02 1.074990e-02 9.163044e-03 7.783181e-03 6.597300e-03 5.593633e-03 4.762211e-03 4.093839e-03 3.581018e-03 3.217417e-03 2.998665e-03 
3.677284e-03 3.757045e-03 4.011980e-03 4.445136e-03 5.061992e-03 5.870432e-03 6.880320e-03 8.103374e-03 9.552669e-03 1.124285e-02 1.318993e-02 1.541295e-02 1.793416e-02 2.078379e-02 2.399860e-02 2.763089e-02 3.173946e-02 3.640348e-02 4.169714e-02 4.771336e-02 5.451795e-02 6.219737e-02 7.079244e-02 8.035164e-02 9.070477e-02 1.016641e-01 1.129242e-01 1.240911e-01 1.346512e-01 1.439810e-01 1.514204e-01 1.562756e-01 1.581019e-01 1.565559e-01 1.519395e-01 1.446867e-01 1.354587e-01 1.249385e-01 1.137520e-01 1.024485e-01 9.139303e-02 8.093042e-02 7.126809e-02 6.258222e-02 5.484809e-02 4.800659e-02 4.197293e-02 3.666610e-02 3.199464e-02 2.787669e-02 2.423496e-02 2.100767e-02 1.814397e-02 1.560630e-02 1.336539e-02 1.139927e-02 9.689492e-03 8.220661e-03 6.978423e-03 5.950201e-03 5.124256e-03 4.490931e-03 4.042069e-03 3.772043e-03 
4.579462e-03 4.676418e-03 4.987095e-03 5.515458e-03 6.268592e-03 7.256745e-03 8.492790e-03 9.991982e-03 1.177126e-02 1.384914e-02 1.624541e-02 1.898257e-02 2.208652e-02 2.559180e-02 2.954086e-02 3.399448e-02 3.902080e-02 4.471095e-02 5.114506e-02 5.842087e-02 6.659319e-02 7.573777e-02 8.586952e-02 9.700890e-02 1.088934e-01 1.212862e-01 1.338296e-01 1.460801e-01 1.575002e-01 1.674887e-01 1.754079e-01 1.805589e-01 1.825197e-01 1.808923e-01 1.760330e-01 1.683475e-01 1.584838e-01 1.471123e-01 1.348525e-01 1.222822e-01 1.097689e-01 9.774035e-02 8.646868e-02 7.621886e-02 6.700684e-02 5.878952e-02 5.149503e-02 4.504661e-02 3.934895e-02 3.431172e-02 2.984655e-02 2.588166e-02 2.235817e-02 1.923280e-02 1.647215e-02 1.405088e-02 1.194723e-02 1.014236e-02 8.618129e-03 7.358315e-03 6.347609e-03 5.573408e-03 5.025079e-03 4.695320e-03 
5.644611e-03 5.761241e-03 6.135933e-03 6.773821e-03 7.684072e-03 8.880011e-03 1.037854e-02 1.219962e-02 1.436559e-02 1.690022e-02 1.982897e-02 2.317936e-02 2.698370e-02 3.128356e-02 3.613231e-02 4.160460e-02 4.778525e-02 5.478319e-02 6.268624e-02 7.159473e-02 8.153575e-02 9.256193e-02 1.046213e-01 1.176784e-01 1.312961e-01 1.451366e-01 1.588392e-01 1.719810e-01 1.840795e-01 1.945914e-01 2.029076e-01 2.083045e-01 2.103849e-01 2.086876e-01 2.036382e-01 1.956035e-01 1.852260e-01 1.731760e-01 1.600528e-01 1.463763e-01 1.323962e-01 1.185946e-01 1.053719e-01 9.315989e-02 8.205187e-02 7.205484e-02 6.312661e-02 5.520779e-02 4.820241e-02 4.200916e-02 3.652283e-02 3.165447e-02 2.733149e-02 2.349981e-02 2.011906e-02 1.715789e-02 1.458972e-02 1.239053e-02 1.053703e-02 9.007945e-03 7.783206e-03 6.846275e-03 6.183288e-03 5.784766e-03 
6.889377e-03 7.028429e-03 7.476086e-03 8.238938e-03 9.328717e-03 1.076263e-02 1.256264e-02 1.475486e-02 1.736855e-02 2.043457e-02 2.398609e-02 2.805818e-02 3.269314e-02 3.794473e-02 4.388460e-02 5.061051e-02 5.823349e-02 6.688720e-02 7.666614e-02 8.766157e-02 9.984604e-02 1.132083e-01 1.275953e-01 1.428483e-01 1.583657e-01 1.738019e-01 1.887920e-01 2.027713e-01 2.152183e-01 2.258052e-01 2.340977e-01 2.394545e-01 2.415555e-01 2.398578e-01 2.348785e-01 2.268982e-01 2.164491e-01 2.040591e-01 1.901797e-01 1.753193e-01 1.596927e-01 1.439298e-01 1.284996e-01 1.139391e-01 1.004899e-01 8.824064e-02 7.722509e-02 6.742855e-02 5.876604e-02 5.112701e-02 4.438252e-02 3.841731e-02 3.313574e-02 2.846562e-02 2.435422e-02 2.076078e-02 1.765125e-02 1.499466e-02 1.276074e-02 1.092173e-02 9.451382e-03 8.328193e-03 7.534195e-03 7.057219e-03 
8.330721e-03 8.495217e-03 9.025632e-03 9.930298e-03 1.122396e-02 1.292850e-02 1.507210e-02 1.768834e-02 2.081532e-02 2.449273e-02 2.876444e-02 3.367589e-02 3.928574e-02 4.566643e-02 5.292047e-02 6.117908e-02 7.059335e-02 8.132413e-02 9.346822e-02 1.070836e-01 1.220455e-01 1.382481e-01 1.553864e-01 1.732145e-01 1.907369e-01 2.073238e-01 2.229497e-01 2.372351e-01 2.498109e-01 2.605309e-01 2.689447e-01 2.743517e-01 2.764630e-01 2.747619e-01 2.697402e-01 2.616222e-01 2.509995e-01 2.384952e-01 2.244259e-01 2.090644e-01 1.922374e-01 1.744334e-01 1.564514e-01 1.391280e-01 1.228462e-01 1.078091e-01 9.417348e-02 8.200871e-02 7.126597e-02 6.183096e-02 5.354751e-02 4.626148e-02 3.984272e-02 3.418873e-02 2.922728e-02 2.490213e-02 2.116888e-02 1.798693e-02 1.531740e-02 1.312438e-02 1.137407e-02 1.003893e-02 9.096008e-03 8.529956e-03 
9.985884e-03 1.017956e-02 1.080403e-02 1.186969e-02 1.339460e-02 1.540604e-02 1.793922e-02 2.103655e-02 2.474626e-02 2.911897e-02 3.421183e-02 4.008525e-02 4.682136e-02 5.452210e-02 6.333475e-02 7.343761e-02 8.503030e-02 9.829699e-02 1.133128e-01 1.300643e-01 1.482514e-01 1.676151e-01 1.876421e-01 2.076806e-01 2.268792e-01 2.448233e-01 2.617715e-01 2.764801e-01 2.883612e-01 2.977661e-01 3.045848e-01 3.087651e-01 3.103382e-01 3.090979e-01 3.051850e-01 2.985475e-01 2.892914e-01 2.776640e-01 2.633446e-01 2.467008e-01 2.283235e-01 2.088403e-01 1.888266e-01 1.686864e-01 1.492748e-01 1.310035e-01 1.142248e-01 9.918040e-02 8.589085e-02 7.426571e-02 6.412518e-02 5.526885e-02 4.751804e-02 4.072571e-02 3.478865e-02 2.962789e-02 2.518393e-02 2.140425e-02 1.823931e-02 1.564400e-02 1.357561e-02 1.199975e-02 1.088771e-02 1.022058e-02 
1.187110e-02 1.209853e-02 1.283055e-02 1.407949e-02 1.586694e-02 1.822604e-02 2.119940e-02 2.483910e-02 2.920463e-02 3.435886e-02 4.037617e-02 4.733647e-02 5.535742e-02 6.458162e-02 7.522127e-02 8.750818e-02 1.016971e-01 1.179675e-01 1.363514e-01 1.566935e-01 1.784686e-01 2.011533e-01 2.241591e-01 2.471182e-01 2.684939e-01 2.855124e-01 2.984731e-01 3.074878e-01 3.133555e-01 3.168753e-01 3.187519e-01 3.198198e-01 3.201289e-01 3.199180e-01 3.188997e-01 3.170167e-01 3.135928e-01 3.081018e-01 2.995180e-01 2.867848e-01 2.697573e-01 2.485365e-01 2.256787e-01 2.025228e-01 1.798077e-01 1.579172e-01 1.375266e-01 1.190997e-01 1.027854e-01 8.854782e-02 7.620491e-02 6.550754e-02 5.621901e-02 4.812830e-02 4.108854e-02 3.498624e-02 2.974201e-02 2.528805e-02 2.156312e-02 1.851201e-02 1.608254e-02 1.423294e-02 1.292830e-02 1.214603e-02 
1.400145e-02 1.426830e-02 1.512483e-02 1.658505e-02 1.867332e-02 2.142800e-02 2.489872e-02 2.914799e-02 3.424559e-02 4.026835e-02 4.731051e-02 5.547928e-02 6.494004e-02 7.589380e-02 8.863478e-02 1.034554e-01 1.206573e-01 1.403797e-01 1.625790e-01 1.869621e-01 2.127174e-01 2.394801e-01 2.655112e-01 2.868074e-01 3.012878e-01 3.078931e-01 3.085109e-01 3.059587e-01 3.029521e-01 3.003432e-01 2.984843e-01 2.976078e-01 2.972374e-01 2.975087e-01 2.982124e-01 2.999163e-01 3.024873e-01 3.056311e-01 3.084930e-01 3.080689e-01 3.020109e-01 2.881821e-01 2.673365e-01 2.414742e-01 2.145964e-01 1.886339e-01 1.641413e-01 1.418679e-01 1.220595e-01 1.047727e-01 8.986164e-02 7.703683e-02 6.599692e-02 5.644791e-02 4.818005e-02 4.103227e-02 3.489689e-02 2.968860e-02 2.533303e-02 2.176572e-02 1.892522e-02 1.676267e-02 1.523706e-02 1.432239e-02 
1.638769e-02 1.670081e-02 1.770222e-02 1.940723e-02 2.184222e-02 2.505020e-02 2.908566e-02 3.401711e-02 3.992362e-02 4.689825e-02 5.505939e-02 6.454981e-02 7.560321e-02 8.849533e-02 1.036284e-01 1.213511e-01 1.420032e-01 1.656281e-01 1.921262e-01 2.210877e-01 2.513523e-01 2.791355e-01 2.987767e-01 3.063509e-01 3.030317e-01 2.941288e-01 2.844971e-01 2.767928e-01 2.720094e-01 2.696603e-01 2.687241e-01 2.684826e-01 2.683370e-01 2.683289e-01 2.683718e-01 2.691533e-01 2.714668e-01 2.761355e-01 2.837252e-01 2.932727e-01 3.025214e-01 3.064831e-01 2.998706e-01 2.811501e-01 2.537346e-01 2.233205e-01 1.941742e-01 1.675576e-01 1.437742e-01 1.229926e-01 1.051361e-01 8.988900e-02 7.688564e-02 6.572318e-02 5.611120e-02 4.782004e-02 4.070567e-02 3.466072e-02 2.959831e-02 2.544579e-02 2.213460e-02 1.961147e-02 1.783016e-02 1.676196e-02 
1.903621e-02 1.940442e-02 2.057615e-02 2.256720e-02 2.540461e-02 2.913437e-02 3.381287e-02 3.951214e-02 4.631435e-02 5.432063e-02 6.368279e-02 7.459611e-02 8.738149e-02 1.024162e-01 1.202298e-01 1.412418e-01 1.658380e-01 1.938821e-01 2.251814e-01 2.586027e-01 2.878598e-01 3.042077e-01 3.036716e-01 2.915175e-01 2.759912e-01 2.627010e-01 2.532539e-01 2.470921e-01 2.434753e-01 2.417433e-01 2.411071e-01 2.409705e-01 2.408667e-01 2.407703e-01 2.407120e-01 2.412297e-01 2.430007e-01 2.465410e-01 2.525978e-01 2.618908e-01 2.750928e-01 2.904794e-01 3.029958e-01 3.048705e-01 2.898549e-01 2.613477e-01 2.279295e-01 1.964388e-01 1.681266e-01 1.433063e-01 1.220844e-01 1.041016e-01 8.891798e-02 7.599587e-02 6.493373e-02 5.541273e-02 4.723674e-02 4.026814e-02 3.441018e-02 2.959097e-02 2.573843e-02 2.279795e-02 2.071932e-02 1.947237e-02 
2.194313e-02 2.237729e-02 2.374997e-02 2.607645e-02 2.938171e-02 3.371207e-02 3.912049e-02 4.567780e-02 5.346228e-02 6.258115e-02 7.321296e-02 8.562821e-02 1.002783e-01 1.176605e-01 1.384716e-01 1.632120e-01 1.922999e-01 2.252787e-01 2.608264e-01 2.916950e-01 3.054493e-01 2.988092e-01 2.811200e-01 2.622606e-01 2.461744e-01 2.334618e-01 2.243648e-01 2.187170e-01 2.158353e-01 2.148357e-01 2.147895e-01 2.150249e-01 2.150647e-01 2.148431e-01 2.144529e-01 2.144069e-01 2.154315e-01 2.182586e-01 2.238450e-01 2.328362e-01 2.454399e-01 2.610324e-01 2.794725e-01 2.976492e-01 3.057123e-01 2.938703e-01 2.640880e-01 2.284345e-01 1.950980e-01 1.657338e-01 1.407174e-01 1.196784e-01 1.021069e-01 8.728658e-02 7.468786e-02 6.386582e-02 5.454257e-02 4.655748e-02 3.980860e-02 3.423187e-02 2.975666e-02 2.633231e-02 2.390691e-02 2.245116e-02 
2.509585e-02 2.560938e-02 2.722022e-02 2.994143e-02 3.379263e-02 3.881614e-02 4.505409e-02 5.256880e-02 6.142553e-02 7.173596e-02 8.371009e-02 9.769846e-02 1.143258e-01 1.342473e-01 1.583016e-01 1.870811e-01 2.209800e-01 2.584891e-01 2.918254e-01 3.053845e-01 2.958025e-01 2.747019e-01 2.530103e-01 2.338298e-01 2.178992e-01 2.059585e-01 1.977992e-01 1.929328e-01 1.905592e-01 1.898463e-01 1.899408e-01 1.902370e-01 1.903124e-01 1.900854e-01 1.896723e-01 1.895120e-01 1.902517e-01 1.926045e-01 1.974365e-01 2.054699e-01 2.171799e-01 2.325849e-01 2.513673e-01 2.729038e-01 2.942726e-01 3.054876e-01 2.941567e-01 2.619370e-01 2.243771e-01 1.901453e-01 1.609842e-01 1.366137e-01 1.164532e-01 9.961965e-02 8.541600e-02 7.321913e-02 6.266616e-02 5.357130e-02 4.582901e-02 3.939345e-02 3.420254e-02 3.021688e-02 2.738686e-02 2.568704e-02 
2.846435e-02 2.907278e-02 3.096405e-02 3.414722e-02 3.863160e-02 4.445023e-02 5.162330e-02 6.019582e-02 7.020586e-02 8.176958e-02 9.513406e-02 1.107558e-01 1.294448e-01 1.520632e-01 1.796355e-01 2.126824e-01 2.510994e-01 2.878673e-01 3.050139e-01 2.959998e-01 2.732508e-01 2.487963e-01 2.265405e-01 2.077909e-01 1.927039e-01 1.814646e-01 1.738061e-01 1.692447e-01 1.670240e-01 1.663517e-01 1.664472e-01 1.667373e-01 1.668277e-01 1.666250e-01 1.662522e-01 1.661081e-01 1.667930e-01 1.689917e-01 1.735089e-01 1.810145e-01 1.919950e-01 2.066122e-01 2.249047e-01 2.467948e-01 2.710168e-01 2.943349e-01 3.053916e-01 2.907082e-01 2.548892e-01 2.162543e-01 1.827983e-01 1.548256e-01 1.319263e-01 1.129836e-01 9.710415e-02 8.347209e-02 7.161581e-02 6.132121e-02 5.247913e-02 4.507627e-02 3.906719e-02 3.443423e-02 3.113464e-02 2.915126e-02 
3.200619e-02 3.272717e-02 3.494632e-02 3.866632e-02 4.388131e-02 5.060803e-02 5.883271e-02 6.857080e-02 7.981802e-02 9.269283e-02 1.074875e-01 1.247943e-01 1.456588e-01 1.711344e-01 2.023474e-01 2.397805e-01 2.793060e-01 3.036185e-01 2.992062e-01 2.759891e-01 2.496126e-01 2.249930e-01 2.032558e-01 1.850770e-01 1.706074e-01 1.598757e-01 1.525114e-01 1.480131e-01 1.456716e-01 1.447820e-01 1.446560e-01 1.447887e-01 1.448362e-01 1.447079e-01 1.445166e-01 1.446038e-01 1.454907e-01 1.477972e-01 1.522264e-01 1.594143e-01 1.698641e-01 1.838918e-01 2.016161e-01 2.229626e-01 2.472772e-01 2.736989e-01 2.977604e-01 3.046254e-01 2.827720e-01 2.437505e-01 2.058124e-01 1.741778e-01 1.484389e-01 1.273163e-01 1.097102e-01 9.460097e-02 8.137757e-02 6.979635e-02 5.974571e-02 5.126070e-02 4.432393e-02 3.895059e-02 3.511138e-02 3.280178e-02 
3.565667e-02 3.650870e-02 3.910435e-02 4.343790e-02 4.948241e-02 5.723145e-02 6.662131e-02 7.762643e-02 9.017385e-02 1.043879e-01 1.205878e-01 1.395373e-01 1.625189e-01 1.907270e-01 2.257882e-01 2.666089e-01 2.990727e-01 3.041394e-01 2.833220e-01 2.555346e-01 2.287838e-01 2.045837e-01 1.834514e-01 1.659159e-01 1.519232e-01 1.413974e-01 1.339776e-01 1.292113e-01 1.264871e-01 1.251864e-01 1.247151e-01 1.246202e-01 1.245994e-01 1.245630e-01 1.246143e-01 1.250494e-01 1.263290e-01 1.289984e-01 1.336717e-01 1.409027e-01 1.511512e-01 1.647472e-01 1.818572e-01 2.025893e-01 2.264766e-01 2.530907e-01 2.809325e-01 3.032820e-01 3.011613e-01 2.705461e-01 2.297411e-01 1.942653e-01 1.657576e-01 1.424505e-01 1.231035e-01 1.065081e-01 9.186587e-02 7.892358e-02 6.755930e-02 5.788050e-02 4.990699e-02 4.370067e-02 3.925173e-02 3.657354e-02 
3.933936e-02 4.034060e-02 4.336009e-02 4.838164e-02 5.535319e-02 6.423770e-02 7.490870e-02 8.728478e-02 1.012019e-01 1.167854e-01 1.343747e-01 1.549125e-01 1.799656e-01 2.104977e-01 2.493638e-01 2.889197e-01 3.072096e-01 2.944322e-01 2.665770e-01 2.381819e-01 2.117904e-01 1.881686e-01 1.676701e-01 1.505294e-01 1.367016e-01 1.260683e-01 1.183197e-01 1.130597e-01 1.097706e-01 1.079218e-01 1.070025e-01 1.066163e-01 1.065002e-01 1.065716e-01 1.069197e-01 1.077994e-01 1.096092e-01 1.128243e-01 1.179701e-01 1.255222e-01 1.358849e-01 1.493468e-01 1.660886e-01 1.861837e-01 2.094593e-01 2.355974e-01 2.638870e-01 2.921579e-01 3.074906e-01 2.921520e-01 2.537912e-01 2.145371e-01 1.836098e-01 1.581848e-01 1.371372e-01 1.190619e-01 1.029633e-01 8.858977e-02 7.581478e-02 6.483594e-02 5.572413e-02 4.859779e-02 4.347421e-02 4.038826e-02 
4.295750e-02 4.412372e-02 4.760680e-02 5.337893e-02 6.136046e-02 7.147841e-02 8.353200e-02 9.737227e-02 1.127094e-01 1.296771e-01 1.485547e-01 1.705987e-01 1.973501e-01 2.302090e-01 2.711605e-01 3.033907e-01 3.061148e-01 2.817394e-01 2.528233e-01 2.247317e-01 1.989680e-01 1.758883e-01 1.557797e-01 1.387703e-01 1.248043e-01 1.137907e-01 1.054808e-01 9.955069e-02 9.557005e-02 9.308639e-02 9.166410e-02 9.095472e-02 9.073039e-02 9.091510e-02 9.158682e-02 9.296396e-02 9.539394e-02 9.928599e-02 1.050890e-01 1.132023e-01 1.239576e-01 1.375867e-01 1.542146e-01 1.739122e-01 1.965782e-01 2.220153e-01 2.498565e-01 2.789347e-01 3.047691e-01 3.054306e-01 2.755764e-01 2.347706e-01 2.013516e-01 1.742208e-01 1.515039e-01 1.320232e-01 1.144415e-01 9.858994e-02 8.432645e-02 7.196377e-02 6.163338e-02 5.351858e-02 4.766977e-02 4.414596e-02 
4.640964e-02 4.775137e-02 5.172423e-02 5.828822e-02 6.733782e-02 7.876028e-02 9.227927e-02 1.076639e-01 1.244724e-01 1.428291e-01 1.628388e-01 1.862042e-01 2.139096e-01 2.492271e-01 2.893663e-01 3.111569e-01 2.998707e-01 2.713690e-01 2.425444e-01 2.152485e-01 1.900652e-01 1.674375e-01 1.474791e-01 1.303355e-01 1.159867e-01 1.043927e-01 9.537549e-02 8.867674e-02 8.394261e-02 8.078835e-02 7.884080e-02 7.779610e-02 7.745639e-02 7.775556e-02 7.875898e-02 8.065489e-02 8.374466e-02 8.838159e-02 9.494903e-02 1.037776e-01 1.151347e-01 1.291809e-01 1.459798e-01 1.655495e-01 1.877601e-01 2.125711e-01 2.395124e-01 2.683959e-01 2.972770e-01 3.118851e-01 2.933602e-01 2.544327e-01 2.184552e-01 1.901681e-01 1.658835e-01 1.450938e-01 1.260296e-01 1.086658e-01 9.286582e-02 7.906356e-02 6.746686e-02 5.832203e-02 5.171908e-02 4.774045e-02 
4.958380e-02 5.110408e-02 5.557268e-02 6.293775e-02 7.307394e-02 8.582815e-02 1.008630e-01 1.178503e-01 1.362095e-01 1.559793e-01 1.770730e-01 2.014864e-01 2.296081e-01 2.663655e-01 3.031235e-01 3.140226e-01 2.928584e-01 2.644550e-01 2.359982e-01 2.094359e-01 1.846593e-01 1.622345e-01 1.421845e-01 1.246994e-01 1.098036e-01 9.751687e-02 8.772409e-02 8.022772e-02 7.473572e-02 7.092036e-02 6.846007e-02 6.708938e-02 6.663671e-02 6.704608e-02 6.837177e-02 7.077605e-02 7.452192e-02 7.991578e-02 8.728666e-02 9.690864e-02 1.089901e-01 1.236268e-01 1.408174e-01 1.605128e-01 1.825406e-01 2.068737e-01 2.330066e-01 2.611881e-01 2.896758e-01 3.134437e-01 3.061811e-01 2.716160e-01 2.343601e-01 2.052431e-01 1.797896e-01 1.577963e-01 1.373310e-01 1.184510e-01 1.011219e-01 8.587323e-02 7.301278e-02 6.283804e-02 5.548409e-02 5.105332e-02 
5.237301e-02 5.406407e-02 5.900608e-02 6.713587e-02 7.831771e-02 9.235966e-02 1.088924e-01 1.274774e-01 1.474556e-01 1.686593e-01 1.909197e-01 2.160655e-01 2.445369e-01 2.808060e-01 3.123486e-01 3.136808e-01 2.878697e-01 2.601187e-01 2.323815e-01 2.063618e-01 1.819063e-01 1.595150e-01 1.392397e-01 1.212999e-01 1.057913e-01 9.278405e-02 8.222475e-02 7.396388e-02 6.776114e-02 6.333407e-02 6.040245e-02 5.873314e-02 5.817609e-02 5.868613e-02 6.030690e-02 6.317989e-02 6.753665e-02 7.364577e-02 8.179405e-02 9.220785e-02 1.050509e-01 1.203576e-01 1.380785e-01 1.580836e-01 1.801782e-01 2.042652e-01 2.299491e-01 2.573731e-01 2.853020e-01 3.124710e-01 3.147268e-01 2.854499e-01 2.486340e-01 2.188221e-01 1.927604e-01 1.696576e-01 1.479122e-01 1.275428e-01 1.087495e-01 9.210707e-02 7.804546e-02 6.689159e-02 5.882807e-02 5.397073e-02 
5.467245e-02 5.651570e-02 6.187789e-02 7.068507e-02 8.280098e-02 9.799822e-02 1.159084e-01 1.359778e-01 1.575511e-01 1.801455e-01 2.036674e-01 2.292546e-01 2.581813e-01 2.928891e-01 3.188193e-01 3.122300e-01 2.848431e-01 2.573238e-01 2.304870e-01 2.049457e-01 1.808132e-01 1.583882e-01 1.378608e-01 1.194604e-01 1.033723e-01 8.970731e-02 7.846702e-02 6.954023e-02 6.272637e-02 5.777811e-02 5.444665e-02 5.252466e-02 5.187931e-02 5.247522e-02 5.434710e-02 5.762016e-02 6.250163e-02 6.923141e-02 7.806447e-02 8.919073e-02 1.027405e-01 1.186947e-01 1.369716e-01 1.573501e-01 1.796461e-01 2.036086e-01 2.290506e-01 2.557203e-01 2.832288e-01 3.105872e-01 3.201942e-01 2.962944e-01 2.608241e-01 2.306434e-01 2.043603e-01 1.802024e-01 1.572731e-01 1.354878e-01 1.153582e-01 9.745126e-02 8.232100e-02 7.029907e-02 6.161162e-02 5.638017e-02 
5.639134e-02 5.835736e-02 6.405112e-02 7.339025e-02 8.624589e-02 1.023598e-01 1.213864e-01 1.426717e-01 1.656161e-01 1.894157e-01 2.141007e-01 2.399174e-01 2.689162e-01 3.019399e-01 3.230015e-01 3.107418e-01 2.833917e-01 2.560839e-01 2.299284e-01 2.046763e-01 1.807467e-01 1.582324e-01 1.374630e-01 1.186608e-01 1.020913e-01 8.789257e-02 7.611092e-02 6.666146e-02 5.937312e-02 5.402290e-02 5.038439e-02 4.826876e-02 4.755558e-02 4.821743e-02 5.028208e-02 5.386313e-02 5.915068e-02 6.636413e-02 7.573680e-02 8.743123e-02 1.015551e-01 1.180448e-01 1.367955e-01 1.575008e-01 1.799828e-01 2.038299e-01 2.290214e-01 2.549663e-01 2.820199e-01 3.088651e-01 3.234357e-01 3.044038e-01 2.705519e-01 2.404780e-01 2.139944e-01 1.888216e-01 1.648051e-01 1.417774e-01 1.205300e-01 1.015871e-01 8.560120e-02 7.288921e-02 6.371007e-02 5.818415e-02 
5.745588e-02 5.950272e-02 6.541283e-02 7.509587e-02 8.843076e-02 1.051362e-01 1.248992e-01 1.469980e-01 1.708981e-01 1.955739e-01 2.211519e-01 2.471911e-01 2.759170e-01 3.075546e-01 3.252163e-01 3.097051e-01 2.825795e-01 2.554529e-01 2.297607e-01 2.047062e-01 1.809223e-01 1.583479e-01 1.374250e-01 1.183608e-01 1.014824e-01 8.694191e-02 7.481684e-02 6.503772e-02 5.745168e-02 5.185023e-02 4.802021e-02 4.578402e-02 4.502879e-02 4.573222e-02 4.791774e-02 5.169212e-02 5.723536e-02 6.475484e-02 7.447148e-02 8.653091e-02 1.010281e-01 1.178680e-01 1.369335e-01 1.578510e-01 1.804505e-01 2.041946e-01 2.291752e-01 2.546076e-01 2.813074e-01 3.078647e-01 3.252627e-01 3.096419e-01 2.771993e-01 2.474434e-01 2.206500e-01 1.946515e-01 1.697971e-01 1.458767e-01 1.238600e-01 1.042219e-01 8.767455e-02 7.451369e-02 6.501759e-02 5.930250e-02 
5.781644e-02 5.989078e-02 6.587490e-02 7.567632e-02 8.917703e-02 1.060866e-01 1.261095e-01 1.485003e-01 1.727594e-01 1.977825e-01 2.237483e-01 2.499408e-01 2.785458e-01 3.095777e-01 3.259359e-01 3.093573e-01 2.823296e-01 2.553053e-01 2.297876e-01 2.048094e-01 1.810714e-01 1.584704e-01 1.374853e-01 1.183225e-01 1.013293e-01 8.666430e-02 7.441541e-02 6.451864e-02 5.682726e-02 5.113744e-02 4.724040e-02 4.496207e-02 4.419206e-02 4.490977e-02 4.713724e-02 5.097888e-02 5.661144e-02 6.423827e-02 7.407619e-02 8.626501e-02 1.008949e-01 1.178603e-01 1.370379e-01 1.580320e-01 1.806717e-01 2.043794e-01 2.292844e-01 2.545460e-01 2.811254e-01 3.075945e-01 3.258666e-01 3.114457e-01 2.796394e-01 2.500637e-01 2.230913e-01 1.967494e-01 1.715627e-01 1.473073e-01 1.250117e-01 1.051269e-01 8.838386e-02 7.506739e-02 6.546210e-02 5.968181e-02 
5.745588e-02 5.950272e-02 6.541283e-02 7.509587e-02 8.843076e-02 1.051362e-01 1.248992e-01 1.469980e-01 1.708981e-01 1.955739e-01 2.211519e-01 2.471911e-01 2.759170e-01 3.075546e-01 3.252163e-01 3.097051e-01 2.825795e-01 2.554529e-01 2.297607e-01 2.047062e-01 1.809223e-01 1.583479e-01 1.374250e-01 1.183608e-01 1.014824e-01 8.694191e-02 7.481684e-02 6.503772e-02 5.745168e-02 5.185023e-02 4.802021e-02 4.578402e-02 4.502879e-02 4.573222e-02 4.791774e-02 5.169212e-02 5.723536e-02 6.475484e-02 7.447148e-02 8.653091e-02 1.010281e-01 1.178680e-01 1.369335e-01 1.578510e-01 1.804505e-01 2.041946e-01 2.291752e-01 2.546076e-01 2.813074e-01 3.078647e-01 3.252627e-01 3.096419e-01 2.771993e-01 2.474434e-01 2.206500e-01 1.946515e-01 1.697971e-01 1.458767e-01 1.238600e-01 1.042219e-01 8.767455e-02 7.451369e-02 6.501759e-02 5.930250e-02 
5.639134e-02 5.835736e-02 6.405112e-02 7.339025e-02 8.624589e-02 1.023598e-01 1.213864e-01 1.426717e-01 1.656161e-01 1.894157e-01 2.141007e-01 2.399174e-01 2.689162e-01 3.019399e-01 3.230015e-01 3.107418e-01 2.833917e-01 2.560839e-01 2.299284e-01 2.046763e-01 1.807467e-01 1.582324e-01 1.374630e-01 1.186608e-01 1.020913e-01 8.789257e-02 7.611092e-02 6.666146e-02 5.937312e-02 5.402290e-02 5.038439e-02 4.826876e-02 4.755558e-02 4.821743e-02 5.028208e-02 5.386313e-02 5.915068e-02 6.636413e-02 7.573680e-02 8.743123e-02 1.015551e-01 1.180448e-01 1.367955e-01 1.575008e-01 1.799828e-01 2.038299e-01 2.290214e-01 2.549663e-01 2.820199e-01 3.088651e-01 3.234357e-01 3.044038e-01 2.705519e-01 2.404780e-01 2.139944e-01 1.888216e-01 1.648051e-01 1.417774e-01 1.205300e-01 1.015871e-01 8.560120e-02 7.288921e-02 6.371007e-02 5.818415e-02 