# vtk DataFile Version 2.0
Comment goes here
ASCII

DATASET STRUCTURED_POINTS
FIELD FieldData 1
TIME 1 1 double
1.39000000
DIMENSIONS    64   64   1

ORIGIN    0.000   0.000   0.000
SPACING   0.015625 0.015625   1.000

POINT_DATA   4096
SCALARS Concentration double
LOOKUP_TABLE default

6.372592e-03 6.433052e-03 6.645159e-03 7.016785e-03 7.561288e-03 8.298521e-03 9.254347e-03 1.046200e-02 1.196063e-02 1.379633e-02 1.601872e-02 1.868050e-02 2.183147e-02 2.551590e-02 2.976470e-02 3.459144e-02 3.998591e-02 4.591128e-02 5.230367e-02 5.907229e-02 6.610739e-02 7.328139e-02 8.046289e-02 8.751265e-02 9.429750e-02 1.006810e-01 1.065424e-01 1.117612e-01 1.162348e-01 1.198636e-01 1.225659e-01 1.242698e-01 1.249215e-01 1.244861e-01 1.229795e-01 1.204500e-01 1.169625e-01 1.125988e-01 1.074554e-01 1.016395e-01 9.527262e-02 8.848193e-02 8.140712e-02 7.418774e-02 6.696682e-02 5.987902e-02 5.305405e-02 4.660319e-02 4.061892e-02 3.516592e-02 3.028257e-02 2.597930e-02 2.224387e-02 1.904493e-02 1.633914e-02 1.407569e-02 1.220244e-02 1.066853e-02 9.428172e-03 8.441089e-03 7.674212e-03 7.100816e-03 6.701093e-03 6.461033e-03 
6.497129e-03 6.557661e-03 6.770623e-03 7.143922e-03 7.690940e-03 8.431581e-03 9.391805e-03 1.060499e-02 1.211056e-02 1.395492e-02 1.618823e-02 1.886382e-02 2.203240e-02 2.573927e-02 3.001667e-02 3.487952e-02 4.031922e-02 4.630038e-02 5.276061e-02 5.961022e-02 6.674046e-02 7.402432e-02 8.133095e-02 8.852189e-02 9.546184e-02 1.020103e-01 1.080419e-01 1.134296e-01 1.180630e-01 1.218333e-01 1.246493e-01 1.264300e-01 1.271145e-01 1.266646e-01 1.250969e-01 1.224659e-01 1.188440e-01 1.143234e-01 1.090098e-01 1.030197e-01 9.648187e-02 8.952937e-02 8.230643e-02 7.495591e-02 6.762051e-02 6.043404e-02 5.352540e-02 4.700473e-02 4.096311e-02 3.546371e-02 3.054322e-02 2.621055e-02 2.245192e-02 1.923473e-02 1.651452e-02 1.423960e-02 1.235713e-02 1.081575e-02 9.569300e-03 8.577254e-03 7.806381e-03 7.229865e-03 6.827842e-03 6.586282e-03 
6.873185e-03 6.933950e-03 7.149490e-03 7.527783e-03 8.082293e-03 8.833088e-03 9.806404e-03 1.103609e-02 1.256229e-02 1.443247e-02 1.669827e-02 1.941506e-02 2.263614e-02 2.641007e-02 3.077287e-02 3.574383e-02 4.131888e-02 4.746723e-02 5.413069e-02 6.122308e-02 6.863832e-02 7.625070e-02 8.393001e-02 9.153676e-02 9.892936e-02 1.059556e-01 1.124774e-01 1.183480e-01 1.234368e-01 1.276087e-01 1.307463e-01 1.327446e-01 1.335218e-01 1.330312e-01 1.312908e-01 1.283730e-01 1.243706e-01 1.194039e-01 1.136043e-01 1.071137e-01 1.000819e-01 9.265849e-02 8.500096e-02 7.726080e-02 6.958318e-02 6.210088e-02 5.494108e-02 4.821064e-02 4.199672e-02 3.635784e-02 3.132589e-02 2.690497e-02 2.307689e-02 1.980509e-02 1.704181e-02 1.473269e-02 1.282277e-02 1.125918e-02 9.994618e-03 8.987831e-03 8.205093e-03 7.619310e-03 7.210459e-03 6.964447e-03 
7.509045e-03 7.570133e-03 7.789877e-03 8.176402e-03 8.743280e-03 9.510831e-03 1.050573e-02 1.176256e-02 1.332263e-02 1.523511e-02 1.755408e-02 2.033816e-02 2.364492e-02 2.752812e-02 3.203015e-02 3.717718e-02 4.297278e-02 4.939340e-02 5.638783e-02 6.387515e-02 7.175341e-02 7.989813e-02 8.817897e-02 9.645228e-02 1.045672e-01 1.123533e-01 1.196529e-01 1.262902e-01 1.321022e-01 1.369134e-01 1.405640e-01 1.429098e-01 1.438352e-01 1.432799e-01 1.412640e-01 1.378885e-01 1.332796e-01 1.276029e-01 1.210308e-01 1.137446e-01 1.059266e-01 9.775203e-02 8.939895e-02 8.103209e-02 7.280163e-02 6.484017e-02 5.727289e-02 5.020178e-02 4.370776e-02 3.784205e-02 3.262860e-02 2.806394e-02 2.412250e-02 2.076152e-02 1.792771e-02 1.556247e-02 1.360740e-02 1.200716e-02 1.071264e-02 9.681388e-03 8.878901e-03 8.277656e-03 7.857378e-03 7.603886e-03 
8.418697e-03 8.480187e-03 8.705823e-03 9.103879e-03 9.688080e-03 1.047906e-02 1.150407e-02 1.279868e-02 1.440573e-02 1.637674e-02 1.876904e-02 2.164574e-02 2.507019e-02 2.910342e-02 3.379638e-02 3.918496e-02 4.528297e-02 5.207691e-02 5.952459e-02 6.755200e-02 7.606141e-02 8.492880e-02 9.402118e-02 1.031869e-01 1.122597e-01 1.210450e-01 1.293601e-01 1.369915e-01 1.437383e-01 1.493736e-01 1.536858e-01 1.564801e-01 1.575975e-01 1.569590e-01 1.545881e-01 1.506233e-01 1.452326e-01 1.386391e-01 1.310660e-01 1.227426e-01 1.138929e-01 1.047247e-01 9.544410e-02 8.623383e-02 7.725494e-02 6.864159e-02 6.051793e-02 5.298033e-02 4.610208e-02 3.992473e-02 3.446174e-02 2.969923e-02 2.560168e-02 2.211767e-02 1.918644e-02 1.674349e-02 1.472574e-02 1.307445e-02 1.173805e-02 1.067251e-02 9.842250e-03 9.219194e-03 8.782751e-03 8.518648e-03 
9.621693e-03 9.683592e-03 9.916834e-03 1.032978e-02 1.093638e-02 1.175760e-02 1.282134e-02 1.416434e-02 1.583131e-02 1.787657e-02 2.036153e-02 2.335475e-02 2.692690e-02 3.114793e-02 3.607972e-02 4.177013e-02 4.824603e-02 5.550601e-02 6.351897e-02 7.221807e-02 8.150955e-02 9.126714e-02 1.013518e-01 1.115982e-01 1.218218e-01 1.317978e-01 1.413173e-01 1.501265e-01 1.579847e-01 1.646058e-01 1.697138e-01 1.730509e-01 1.744012e-01 1.736638e-01 1.708650e-01 1.661918e-01 1.598648e-01 1.521786e-01 1.434163e-01 1.338607e-01 1.237812e-01 1.134209e-01 1.030197e-01 9.278323e-02 8.288670e-02 7.346907e-02 6.465554e-02 5.653751e-02 4.917974e-02 4.261282e-02 3.683725e-02 3.182657e-02 2.753273e-02 2.389366e-02 2.083918e-02 1.829751e-02 1.619970e-02 1.448289e-02 1.309244e-02 1.198240e-02 1.111592e-02 1.046430e-02 1.000659e-02 9.728466e-03 
1.114278e-02 1.120511e-02 1.144790e-02 1.187950e-02 1.251406e-02 1.337290e-02 1.448461e-02 1.588720e-02 1.762750e-02 1.976307e-02 2.236004e-02 2.549345e-02 2.924257e-02 3.368819e-02 3.890522e-02 4.495629e-02 5.188384e-02 5.970135e-02 6.839010e-02 7.789127e-02 8.811284e-02 9.892334e-02 1.101713e-01 1.216718e-01 1.332104e-01 1.445252e-01 1.553788e-01 1.654737e-01 1.745376e-01 1.822236e-01 1.881934e-01 1.921207e-01 1.937257e-01 1.928822e-01 1.896200e-01 1.841826e-01 1.768458e-01 1.679786e-01 1.579225e-01 1.470087e-01 1.355532e-01 1.238377e-01 1.121442e-01 1.007083e-01 8.973010e-02 7.935726e-02 6.972018e-02 6.090661e-02 5.297315e-02 4.593797e-02 3.978653e-02 3.447723e-02 2.994691e-02 2.612062e-02 2.291677e-02 2.025492e-02 1.805907e-02 1.626152e-02 1.480401e-02 1.363845e-02 1.272651e-02 1.203887e-02 1.155424e-02 1.125829e-02 
1.301132e-02 1.307405e-02 1.332863e-02 1.378334e-02 1.445230e-02 1.535705e-02 1.652697e-02 1.800139e-02 1.982938e-02 2.207207e-02 2.480083e-02 2.809805e-02 3.205293e-02 3.675874e-02 4.230598e-02 4.877451e-02 5.622570e-02 6.469002e-02 7.416327e-02 8.459358e-02 9.588840e-02 1.079044e-01 1.204697e-01 1.333689e-01 1.463504e-01 1.591056e-01 1.713747e-01 1.828285e-01 1.931785e-01 2.020183e-01 2.089334e-01 2.135156e-01 2.154049e-01 2.144470e-01 2.106754e-01 2.044038e-01 1.959732e-01 1.858439e-01 1.744170e-01 1.620621e-01 1.491310e-01 1.359352e-01 1.228077e-01 1.100228e-01 9.781219e-02 8.634056e-02 7.574942e-02 6.612700e-02 5.752227e-02 4.994089e-02 4.335067e-02 3.769274e-02 3.288579e-02 2.883987e-02 2.545990e-02 2.265542e-02 2.034229e-02 1.844736e-02 1.690831e-02 1.567469e-02 1.470667e-02 1.397433e-02 1.345613e-02 1.313785e-02 
1.526027e-02 1.532346e-02 1.559264e-02 1.607597e-02 1.678741e-02 1.774852e-02 1.898910e-02 2.054969e-02 2.248200e-02 2.485082e-02 2.773330e-02 3.121996e-02 3.541126e-02 4.041504e-02 4.634007e-02 5.328719e-02 6.134036e-02 7.055119e-02 8.093183e-02 9.243836e-02 1.049731e-01 1.183757e-01 1.324403e-01 1.469126e-01 1.614768e-01 1.757661e-01 1.894939e-01 2.022927e-01 2.138949e-01 2.238478e-01 2.316806e-01 2.369067e-01 2.390787e-01 2.380111e-01 2.337412e-01 2.266662e-01 2.171855e-01 2.058439e-01 1.930803e-01 1.792677e-01 1.647865e-01 1.499855e-01 1.352619e-01 1.209444e-01 1.073184e-01 9.457320e-02 8.287103e-02 7.230441e-02 6.291655e-02 5.469907e-02 4.759906e-02 4.153676e-02 3.640889e-02 3.210764e-02 2.852185e-02 2.554951e-02 2.309710e-02 2.108545e-02 1.944771e-02 1.813107e-02 1.709411e-02 1.630654e-02 1.574665e-02 1.540056e-02 
1.792483e-02 1.798861e-02 1.827602e-02 1.879501e-02 1.955914e-02 2.058985e-02 2.191707e-02 2.358229e-02 2.563917e-02 2.815661e-02 3.121827e-02 3.492347e-02 3.938543e-02 4.472872e-02 5.108402e-02 5.857710e-02 6.732019e-02 7.738958e-02 8.881766e-02 1.015662e-01 1.155279e-01 1.305128e-01 1.462651e-01 1.624684e-01 1.787256e-01 1.945852e-01 2.097511e-01 2.238644e-01 2.367324e-01 2.478587e-01 2.566769e-01 2.626019e-01 2.650810e-01 2.638992e-01 2.590964e-01 2.511679e-01 2.405829e-01 2.280125e-01 2.139370e-01 1.986955e-01 1.826502e-01 1.661536e-01 1.496923e-01 1.336668e-01 1.184325e-01 1.042221e-01 9.123088e-02 7.956606e-02 6.926652e-02 6.031074e-02 5.262030e-02 4.609091e-02 4.059223e-02 3.599513e-02 3.216932e-02 2.899951e-02 2.638151e-02 2.422953e-02 2.247194e-02 2.105355e-02 1.993141e-02 1.907516e-02 1.846319e-02 1.808231e-02 
2.104015e-02 2.110493e-02 2.141555e-02 2.197955e-02 2.280984e-02 2.392739e-02 2.536208e-02 2.715599e-02 2.936466e-02 3.206024e-02 3.533262e-02 3.929158e-02 4.406510e-02 4.979721e-02 5.664484e-02 6.476467e-02 7.430369e-02 8.536947e-02 9.801754e-02 1.122155e-01 1.278377e-01 1.446556e-01 1.623409e-01 1.805117e-01 1.986381e-01 2.161860e-01 2.328172e-01 2.481139e-01 2.620593e-01 2.741566e-01 2.837986e-01 2.903311e-01 2.930837e-01 2.918075e-01 2.865373e-01 2.778980e-01 2.663996e-01 2.528222e-01 2.376278e-01 2.210128e-01 2.033327e-01 1.849982e-01 1.665942e-01 1.486093e-01 1.315107e-01 1.155827e-01 1.010727e-01 8.811116e-02 7.673742e-02 6.691525e-02 5.853513e-02 5.146239e-02 4.553260e-02 4.059082e-02 3.648337e-02 3.307968e-02 3.026331e-02 2.794118e-02 2.603636e-02 2.449175e-02 2.326333e-02 2.232105e-02 2.164373e-02 2.121910e-02 
2.463913e-02 2.470568e-02 2.504625e-02 2.566775e-02 2.658201e-02 2.780922e-02 2.937862e-02 3.133274e-02 3.372851e-02 3.664146e-02 4.016735e-02 4.442535e-02 4.956051e-02 5.574140e-02 6.315685e-02 7.200107e-02 8.246507e-02 9.469251e-02 1.087668e-01 1.246533e-01 1.421972e-01 1.611084e-01 1.809600e-01 2.012771e-01 2.213745e-01 2.405549e-01 2.584880e-01 2.748398e-01 2.899008e-01 3.031167e-01 3.136788e-01 3.208408e-01 3.238688e-01 3.225065e-01 3.167650e-01 3.073595e-01 2.948201e-01 2.801705e-01 2.639296e-01 2.461066e-01 2.269096e-01 2.066874e-01 1.862030e-01 1.660566e-01 1.468443e-01 1.289355e-01 1.126484e-01 9.816217e-02 8.552126e-02 7.467999e-02 6.549052e-02 5.778223e-02 5.134820e-02 4.600194e-02 4.156152e-02 3.787804e-02 3.482023e-02 3.228812e-02 3.020005e-02 2.849732e-02 2.713521e-02 2.608441e-02 2.532463e-02 2.484491e-02 
2.874852e-02 2.881822e-02 2.919795e-02 2.989365e-02 3.091561e-02 3.228261e-02 3.402272e-02 3.617831e-02 3.880740e-02 4.198850e-02 4.582343e-02 5.044128e-02 5.600434e-02 6.270678e-02 7.078112e-02 8.046807e-02 9.201205e-02 1.055994e-01 1.213419e-01 1.391917e-01 1.589442e-01 1.802230e-01 2.024769e-01 2.251553e-01 2.473905e-01 2.685326e-01 2.880961e-01 3.053355e-01 3.210505e-01 3.348292e-01 3.458562e-01 3.534177e-01 3.566458e-01 3.552208e-01 3.491484e-01 3.393346e-01 3.262552e-01 3.110646e-01 2.941470e-01 2.750262e-01 2.540091e-01 2.317329e-01 2.089998e-01 1.864268e-01 1.648235e-01 1.446280e-01 1.262656e-01 1.099838e-01 9.584568e-02 8.380105e-02 7.365700e-02 6.520142e-02 5.817402e-02 5.235087e-02 4.751229e-02 4.348853e-02 4.013346e-02 3.734029e-02 3.502252e-02 3.312048e-02 3.158924e-02 3.040093e-02 2.953679e-02 2.898764e-02 
3.338690e-02 3.346186e-02 3.389258e-02 3.468429e-02 3.584494e-02 3.739114e-02 3.934878e-02 4.175960e-02 4.468171e-02 4.819663e-02 5.241168e-02 5.746712e-02 6.354385e-02 7.086581e-02 7.971064e-02 9.038270e-02 1.031940e-01 1.183751e-01 1.360689e-01 1.561905e-01 1.784630e-01 2.023812e-01 2.272316e-01 2.524229e-01 2.768767e-01 2.995858e-01 3.202330e-01 3.382952e-01 3.551800e-01 3.702733e-01 3.820981e-01 3.898856e-01 3.931182e-01 3.916555e-01 3.855030e-01 3.751747e-01 3.610425e-01 3.446954e-01 3.268576e-01 3.068641e-01 2.845699e-01 2.602827e-01 2.351660e-01 2.100035e-01 1.857642e-01 1.629985e-01 1.422455e-01 1.238735e-01 1.079737e-01 9.450901e-02 8.323605e-02 7.389715e-02 6.616867e-02 5.977437e-02 5.445339e-02 5.001279e-02 4.628974e-02 4.317023e-02 4.056327e-02 3.840891e-02 3.666298e-02 3.529996e-02 3.430359e-02 3.366726e-02 
3.855748e-02 3.864122e-02 3.913932e-02 4.005484e-02 4.139386e-02 4.316962e-02 4.540471e-02 4.813910e-02 5.143014e-02 5.536144e-02 6.004589e-02 6.563514e-02 7.233167e-02 8.039278e-02 9.015010e-02 1.019728e-01 1.162646e-01 1.333062e-01 1.532687e-01 1.760065e-01 2.011515e-01 2.279942e-01 2.556239e-01 2.832136e-01 3.096466e-01 3.350994e-01 3.591272e-01 3.785918e-01 3.945896e-01 4.074908e-01 4.170272e-01 4.230009e-01 4.253499e-01 4.241924e-01 4.195947e-01 4.114274e-01 3.996735e-01 3.847721e-01 3.666566e-01 3.441605e-01 3.188683e-01 2.925619e-01 2.652528e-01 2.372433e-01 2.100822e-01 1.844173e-01 1.609266e-01 1.401342e-01 1.221721e-01 1.070376e-01 9.442977e-02 8.404926e-02 7.548498e-02 6.840548e-02 6.249971e-02 5.754885e-02 5.337048e-02 4.984345e-02 4.687289e-02 4.439972e-02 4.238201e-02 4.079784e-02 3.963497e-02 3.888878e-02 
4.424724e-02 4.434468e-02 4.493122e-02 4.600677e-02 4.757329e-02 4.964147e-02 5.222849e-02 5.537168e-02 5.912564e-02 6.357609e-02 6.883987e-02 7.508257e-02 8.252957e-02 9.147912e-02 1.023244e-01 1.155114e-01 1.315388e-01 1.507518e-01 1.733648e-01 1.991393e-01 2.276342e-01 2.578734e-01 2.885949e-01 3.195832e-01 3.492918e-01 3.744629e-01 3.949726e-01 4.088061e-01 4.171707e-01 4.219484e-01 4.249691e-01 4.266978e-01 4.273263e-01 4.267505e-01 4.253023e-01 4.225849e-01 4.185178e-01 4.117557e-01 4.004224e-01 3.825744e-01 3.589484e-01 3.306118e-01 2.997444e-01 2.687143e-01 2.383536e-01 2.094323e-01 1.827866e-01 1.591792e-01 1.387880e-01 1.216742e-01 1.074796e-01 9.585328e-02 8.628699e-02 7.838260e-02 7.176884e-02 6.619429e-02 6.145433e-02 5.742014e-02 5.399436e-02 5.112025e-02 4.876030e-02 4.689808e-02 4.552531e-02 4.464113e-02 
5.042116e-02 5.053902e-02 5.124019e-02 5.252031e-02 5.437518e-02 5.681142e-02 5.984014e-02 6.349407e-02 6.782349e-02 7.291492e-02 7.888919e-02 8.592677e-02 9.428121e-02 1.042976e-01 1.164434e-01 1.312504e-01 1.493236e-01 1.710720e-01 1.967669e-01 2.260746e-01 2.584690e-01 2.927477e-01 3.272281e-01 3.587381e-01 3.836580e-01 3.977856e-01 4.027841e-01 4.026362e-01 4.015506e-01 4.008934e-01 4.012690e-01 4.020215e-01 4.023967e-01 4.018920e-01 4.009184e-01 3.998231e-01 3.998224e-01 4.007617e-01 4.018396e-01 3.997353e-01 3.895023e-01 3.686183e-01 3.392176e-01 3.054546e-01 2.712110e-01 2.385703e-01 2.082647e-01 1.813741e-01 1.581145e-01 1.386615e-01 1.225787e-01 1.094665e-01 9.870276e-02 8.981293e-02 8.234913e-02 7.601994e-02 7.059466e-02 6.593626e-02 6.194712e-02 5.857469e-02 5.578904e-02 5.358040e-02 5.194599e-02 5.089081e-02 
5.702633e-02 5.717288e-02 5.801959e-02 5.955670e-02 6.177212e-02 6.466490e-02 6.823952e-02 7.252268e-02 7.755728e-02 8.343138e-02 9.026786e-02 9.826901e-02 1.077189e-01 1.190265e-01 1.327410e-01 1.495001e-01 1.700244e-01 1.947835e-01 2.241313e-01 2.575341e-01 2.943382e-01 3.318284e-01 3.643962e-01 3.845695e-01 3.896550e-01 3.843378e-01 3.765862e-01 3.717738e-01 3.712330e-01 3.730385e-01 3.754764e-01 3.774261e-01 3.782644e-01 3.775515e-01 3.756216e-01 3.726453e-01 3.701285e-01 3.694189e-01 3.726668e-01 3.801119e-01 3.875311e-01 3.876399e-01 3.737750e-01 3.453580e-01 3.094453e-01 2.726735e-01 2.380402e-01 2.072318e-01 1.805364e-01 1.582795e-01 1.399366e-01 1.250442e-01 1.128544e-01 1.027920e-01 9.431577e-02 8.708204e-02 8.082959e-02 7.541205e-02 7.073438e-02 6.675062e-02 6.344245e-02 6.080662e-02 5.885061e-02 5.758647e-02 
6.398628e-02 6.417187e-02 6.519963e-02 6.705313e-02 6.971041e-02 7.316014e-02 7.739667e-02 8.243942e-02 8.832129e-02 9.513129e-02 1.029959e-01 1.121449e-01 1.229048e-01 1.357611e-01 1.513673e-01 1.704748e-01 1.939335e-01 2.222813e-01 2.558874e-01 2.937436e-01 3.333413e-01 3.662223e-01 3.817833e-01 3.782282e-01 3.659956e-01 3.548472e-01 3.475724e-01 3.442279e-01 3.445869e-01 3.470151e-01 3.500353e-01 3.524446e-01 3.535033e-01 3.527272e-01 3.504145e-01 3.469226e-01 3.437384e-01 3.421469e-01 3.440568e-01 3.502279e-01 3.605686e-01 3.736705e-01 3.820216e-01 3.747496e-01 3.480739e-01 3.105962e-01 2.719902e-01 2.367926e-01 2.061111e-01 1.806056e-01 1.596096e-01 1.426304e-01 1.287693e-01 1.173350e-01 1.076742e-01 9.937553e-02 9.214413e-02 8.582104e-02 8.031860e-02 7.559932e-02 7.166104e-02 6.850942e-02 6.616627e-02 6.465219e-02 
7.121033e-02 7.144665e-02 7.269428e-02 7.492852e-02 7.811545e-02 8.223049e-02 8.725227e-02 9.319177e-02 1.000680e-01 1.079729e-01 1.170357e-01 1.275299e-01 1.398298e-01 1.545331e-01 1.723923e-01 1.943026e-01 2.211717e-01 2.535228e-01 2.915957e-01 3.322044e-01 3.657840e-01 3.784506e-01 3.701840e-01 3.536797e-01 3.384207e-01 3.270345e-01 3.200018e-01 3.175148e-01 3.187271e-01 3.219204e-01 3.255356e-01 3.283087e-01 3.295250e-01 3.287337e-01 3.261972e-01 3.223126e-01 3.184832e-01 3.161307e-01 3.171864e-01 3.227608e-01 3.330513e-01 3.473029e-01 3.637843e-01 3.770851e-01 3.738824e-01 3.478110e-01 3.091449e-01 2.696833e-01 2.347211e-01 2.055826e-01 1.816058e-01 1.622299e-01 1.464448e-01 1.334282e-01 1.223999e-01 1.128674e-01 1.044963e-01 9.711248e-02 9.064001e-02 8.505250e-02 8.036775e-02 7.660537e-02 7.380516e-02 7.199766e-02 
7.858859e-02 7.888928e-02 8.039804e-02 8.308031e-02 8.688752e-02 9.177823e-02 9.771025e-02 1.046814e-01 1.126932e-01 1.218400e-01 1.322559e-01 1.442696e-01 1.583179e-01 1.751224e-01 1.955463e-01 2.205577e-01 2.510430e-01 2.874202e-01 3.285181e-01 3.638593e-01 3.770795e-01 3.667472e-01 3.474653e-01 3.285120e-01 3.128011e-01 3.017984e-01 2.953924e-01 2.932792e-01 2.945169e-01 2.975280e-01 3.009309e-01 3.035420e-01 3.046936e-01 3.039721e-01 3.016216e-01 2.980686e-01 2.945257e-01 2.922941e-01 2.930691e-01 2.980274e-01 3.076639e-01 3.217852e-01 3.393398e-01 3.594122e-01 3.756847e-01 3.730900e-01 3.456194e-01 3.049631e-01 2.656429e-01 2.328478e-01 2.056792e-01 1.836527e-01 1.657188e-01 1.509183e-01 1.383527e-01 1.274239e-01 1.177613e-01 1.091664e-01 1.015826e-01 9.499502e-02 8.944882e-02 8.498155e-02 8.165511e-02 7.951180e-02 
8.600526e-02 8.638456e-02 8.819592e-02 9.139255e-02 9.590862e-02 1.016807e-01 1.086413e-01 1.167671e-01 1.260379e-01 1.365488e-01 1.484383e-01 1.621060e-01 1.780497e-01 1.971523e-01 2.203229e-01 2.486581e-01 2.827322e-01 3.225819e-01 3.607631e-01 3.780000e-01 3.682716e-01 3.463217e-01 3.244603e-01 3.055130e-01 2.901814e-01 2.792919e-01 2.728891e-01 2.705731e-01 2.713606e-01 2.738757e-01 2.768574e-01 2.791928e-01 2.802372e-01 2.796136e-01 2.775490e-01 2.744923e-01 2.715290e-01 2.698663e-01 2.709357e-01 2.758583e-01 2.852004e-01 2.988777e-01 3.163203e-01 3.374265e-01 3.605597e-01 3.778674e-01 3.719102e-01 3.398817e-01 2.983842e-01 2.618823e-01 2.315312e-01 2.066733e-01 1.863786e-01 1.696160e-01 1.553513e-01 1.428780e-01 1.317826e-01 1.218368e-01 1.130086e-01 1.052953e-01 9.877795e-02 9.351568e-02 8.959691e-02 8.707757e-02 
9.333369e-02 9.380691e-02 9.596096e-02 9.973464e-02 1.050414e-01 1.117908e-01 1.198843e-01 1.292687e-01 1.398953e-01 1.518565e-01 1.652899e-01 1.806763e-01 1.985623e-01 2.199959e-01 2.458855e-01 2.771486e-01 3.150125e-01 3.552089e-01 3.796875e-01 3.747744e-01 3.511731e-01 3.263876e-01 3.042849e-01 2.854432e-01 2.703479e-01 2.595040e-01 2.528320e-01 2.498584e-01 2.497289e-01 2.512685e-01 2.534113e-01 2.551838e-01 2.560029e-01 2.555246e-01 2.539595e-01 2.517509e-01 2.498112e-01 2.491809e-01 2.510384e-01 2.563565e-01 2.656998e-01 2.791892e-01 2.966425e-01 3.177124e-01 3.421356e-01 3.672348e-01 3.820477e-01 3.688373e-01 3.316129e-01 2.916932e-01 2.584218e-01 2.306703e-01 2.079500e-01 1.891076e-01 1.730512e-01 1.589290e-01 1.463011e-01 1.348964e-01 1.247181e-01 1.157755e-01 1.081952e-01 1.020617e-01 9.749428e-02 9.456541e-02 
1.004497e-01 1.010317e-01 1.035643e-01 1.079690e-01 1.141358e-01 1.219401e-01 1.312485e-01 1.419657e-01 1.540108e-01 1.674601e-01 1.824523e-01 1.995406e-01 2.193157e-01 2.429831e-01 2.712957e-01 3.051693e-01 3.456355e-01 3.788568e-01 3.840568e-01 3.621827e-01 3.349628e-01 3.097410e-01 2.877278e-01 2.689842e-01 2.538920e-01 2.426570e-01 2.352460e-01 2.312223e-01 2.298874e-01 2.302670e-01 2.314501e-01 2.325876e-01 2.331498e-01 2.328352e-01 2.318245e-01 2.305430e-01 2.297657e-01 2.303941e-01 2.333869e-01 2.395510e-01 2.493661e-01 2.630042e-01 2.803837e-01 3.013346e-01 3.256662e-01 3.521798e-01 3.782519e-01 3.856763e-01 3.620460e-01 3.220922e-01 2.852423e-01 2.550395e-01 2.298752e-01 2.089671e-01 1.910878e-01 1.752618e-01 1.610423e-01 1.481050e-01 1.365009e-01 1.262516e-01 1.175378e-01 1.104738e-01 1.052137e-01 1.018476e-01 
1.072267e-01 1.079318e-01 1.108726e-01 1.159508e-01 1.230299e-01 1.319457e-01 1.425257e-01 1.546224e-01 1.681173e-01 1.830584e-01 1.995792e-01 2.183176e-01 2.398468e-01 2.657437e-01 2.959551e-01 3.331816e-01 3.725206e-01 3.918298e-01 3.783344e-01 3.497087e-01 3.220572e-01 2.971664e-01 2.752382e-01 2.564007e-01 2.408906e-01 2.288938e-01 2.203879e-01 2.150356e-01 2.122790e-01 2.113200e-01 2.113999e-01 2.117903e-01 2.120444e-01 2.119128e-01 2.115414e-01 2.112966e-01 2.118289e-01 2.138965e-01 2.182773e-01 2.256192e-01 2.363101e-01 2.504853e-01 2.680640e-01 2.889129e-01 3.126987e-01 3.394248e-01 3.675464e-01 3.908770e-01 3.848100e-01 3.507082e-01 3.108554e-01 2.786952e-01 2.513745e-01 2.285759e-01 2.089671e-01 1.914619e-01 1.756537e-01 1.611630e-01 1.481022e-01 1.365087e-01 1.266226e-01 1.185931e-01 1.126111e-01 1.087922e-01 
1.135462e-01 1.143871e-01 1.177572e-01 1.235354e-01 1.315572e-01 1.416116e-01 1.534877e-01 1.669720e-01 1.819107e-01 1.982904e-01 2.162511e-01 2.364414e-01 2.594878e-01 2.872377e-01 3.190401e-01 3.587925e-01 3.922427e-01 3.959222e-01 3.693996e-01 3.406548e-01 3.133515e-01 2.890012e-01 2.670027e-01 2.477558e-01 2.314407e-01 2.183095e-01 2.084215e-01 2.015426e-01 1.972532e-01 1.949041e-01 1.938630e-01 1.935115e-01 1.934617e-01 1.935079e-01 1.937633e-01 1.945505e-01 1.964144e-01 1.999936e-01 2.059161e-01 2.146890e-01 2.265958e-01 2.416707e-01 2.597936e-01 2.806947e-01 3.041544e-01 3.300987e-01 3.582394e-01 3.881410e-01 3.987770e-01 3.757095e-01 3.357796e-01 3.008514e-01 2.720699e-01 2.474392e-01 2.262902e-01 2.071556e-01 1.898068e-01 1.737809e-01 1.592682e-01 1.463291e-01 1.352619e-01 1.262592e-01 1.195483e-01 1.152747e-01 
1.192943e-01 1.202803e-01 1.240891e-01 1.305721e-01 1.395379e-01 1.507284e-01 1.638938e-01 1.787485e-01 1.951050e-01 2.128501e-01 2.321580e-01 2.535251e-01 2.778715e-01 3.067354e-01 3.406598e-01 3.804477e-01 4.050116e-01 3.946510e-01 3.638360e-01 3.356804e-01 3.092384e-01 2.850531e-01 2.627581e-01 2.427356e-01 2.253148e-01 2.107927e-01 1.993357e-01 1.908233e-01 1.849509e-01 1.811957e-01 1.790326e-01 1.779413e-01 1.775891e-01 1.778042e-01 1.786757e-01 1.804813e-01 1.836751e-01 1.887909e-01 1.963365e-01 2.066991e-01 2.200633e-01 2.363502e-01 2.553627e-01 2.766770e-01 3.001719e-01 3.253576e-01 3.532981e-01 3.826923e-01 4.060979e-01 3.955819e-01 3.588371e-01 3.210989e-01 2.914307e-01 2.651359e-01 2.426120e-01 2.219562e-01 2.031427e-01 1.856482e-01 1.697275e-01 1.554844e-01 1.432643e-01 1.333130e-01 1.258902e-01 1.211758e-01 
1.243673e-01 1.255029e-01 1.297395e-01 1.369048e-01 1.467820e-01 1.590689e-01 1.734808e-01 1.896619e-01 2.073934e-01 2.264423e-01 2.470180e-01 2.693445e-01 2.947171e-01 3.239914e-01 3.602408e-01 3.982749e-01 4.129989e-01 3.924126e-01 3.629055e-01 3.351545e-01 3.093340e-01 2.848432e-01 2.619129e-01 2.408254e-01 2.220885e-01 2.060404e-01 1.929555e-01 1.827951e-01 1.753695e-01 1.702604e-01 1.670338e-01 1.652470e-01 1.646101e-01 1.649788e-01 1.664236e-01 1.691854e-01 1.736460e-01 1.802557e-01 1.894274e-01 2.014405e-01 2.163704e-01 2.340477e-01 2.541806e-01 2.762444e-01 3.000554e-01 3.249323e-01 3.520330e-01 3.796912e-01 4.090075e-01 4.098088e-01 3.781156e-01 3.394211e-01 3.088649e-01 2.813148e-01 2.575067e-01 2.355154e-01 2.153274e-01 1.964716e-01 1.792189e-01 1.637527e-01 1.504447e-01 1.396030e-01 1.315108e-01 1.263858e-01 
1.286696e-01 1.299479e-01 1.345797e-01 1.423730e-01 1.530888e-01 1.663900e-01 1.819603e-01 1.993945e-01 2.184348e-01 2.387624e-01 2.605627e-01 2.838446e-01 3.099957e-01 3.393337e-01 3.763740e-01 4.117007e-01 4.176983e-01 3.920799e-01 3.647716e-01 3.377295e-01 3.121419e-01 2.871418e-01 2.633901e-01 2.411263e-01 2.210281e-01 2.034673e-01 1.888208e-01 1.771191e-01 1.682617e-01 1.619153e-01 1.577209e-01 1.553015e-01 1.544049e-01 1.549081e-01 1.568688e-01 1.604961e-01 1.661164e-01 1.741081e-01 1.847934e-01 1.983756e-01 2.148340e-01 2.339386e-01 2.552767e-01 2.782886e-01 3.025974e-01 3.275928e-01 3.538372e-01 3.806137e-01 4.103332e-01 4.200405e-01 3.939222e-01 3.557592e-01 3.239332e-01 2.955874e-01 2.706056e-01 2.475157e-01 2.260618e-01 2.059816e-01 1.875041e-01 1.709312e-01 1.566359e-01 1.449928e-01 1.362981e-01 1.308067e-01 
1.321167e-01 1.335225e-01 1.384959e-01 1.468300e-01 1.582689e-01 1.724514e-01 1.890374e-01 2.075967e-01 2.278301e-01 2.493909e-01 2.723755e-01 2.967522e-01 3.236630e-01 3.533700e-01 3.899067e-01 4.216494e-01 4.208052e-01 3.936433e-01 3.675946e-01 3.414133e-01 3.159431e-01 2.905312e-01 2.660108e-01 2.426850e-01 2.213554e-01 2.024471e-01 1.864282e-01 1.733884e-01 1.633028e-01 1.559019e-01 1.508874e-01 1.479326e-01 1.468161e-01 1.474320e-01 1.498317e-01 1.541986e-01 1.608083e-01 1.699857e-01 1.819836e-01 1.969500e-01 2.147778e-01 2.352022e-01 2.576768e-01 2.816692e-01 3.065458e-01 3.319409e-01 3.576692e-01 3.840079e-01 4.115712e-01 4.270927e-01 4.063894e-01 3.691498e-01 3.362495e-01 3.075258e-01 2.815963e-01 2.576147e-01 2.350312e-01 2.138834e-01 1.943300e-01 1.768077e-01 1.616685e-01 1.493485e-01 1.401463e-01 1.343493e-01 
1.346381e-01 1.361431e-01 1.413801e-01 1.501321e-01 1.621306e-01 1.770018e-01 1.943864e-01 2.138525e-01 2.350552e-01 2.576701e-01 2.816478e-01 3.070789e-01 3.346220e-01 3.649932e-01 4.005034e-01 4.286524e-01 4.229716e-01 3.960972e-01 3.706176e-01 3.450527e-01 3.195593e-01 2.938444e-01 2.687075e-01 2.445528e-01 2.222529e-01 2.022884e-01 1.852000e-01 1.711249e-01 1.600957e-01 1.518888e-01 1.462497e-01 1.428873e-01 1.416034e-01 1.423046e-01 1.450389e-01 1.499672e-01 1.573307e-01 1.674168e-01 1.804275e-01 1.964738e-01 2.153766e-01 2.368512e-01 2.602236e-01 2.849968e-01 3.102856e-01 3.359382e-01 3.612117e-01 3.870758e-01 4.129338e-01 4.316076e-01 4.155725e-01 3.794625e-01 3.459981e-01 3.170111e-01 2.902808e-01 2.655134e-01 2.419485e-01 2.199087e-01 1.994772e-01 1.812035e-01 1.654052e-01 1.525639e-01 1.429723e-01 1.369426e-01 
1.361771e-01 1.377471e-01 1.431523e-01 1.521700e-01 1.645249e-01 1.798373e-01 1.977369e-01 2.177981e-01 2.396435e-01 2.629842e-01 2.876327e-01 3.138492e-01 3.417998e-01 3.728484e-01 4.073431e-01 4.327279e-01 4.241878e-01 3.980988e-01 3.728202e-01 3.476182e-01 3.220703e-01 2.961950e-01 2.706755e-01 2.460102e-01 2.230947e-01 2.024588e-01 1.846877e-01 1.699534e-01 1.583254e-01 1.496083e-01 1.435753e-01 1.399561e-01 1.385673e-01 1.393242e-01 1.422703e-01 1.475544e-01 1.553965e-01 1.660626e-01 1.797222e-01 1.964651e-01 2.160622e-01 2.382178e-01 2.621634e-01 2.874255e-01 3.129361e-01 3.386719e-01 3.635820e-01 3.890144e-01 4.140394e-01 4.342716e-01 4.213047e-01 3.862748e-01 3.525805e-01 3.233637e-01 2.960103e-01 2.706426e-01 2.463644e-01 2.237076e-01 2.026869e-01 1.839253e-01 1.677055e-01 1.545351e-01 1.446992e-01 1.385248e-01 
1.366965e-01 1.382878e-01 1.437500e-01 1.528586e-01 1.653353e-01 1.807996e-01 1.988768e-01 2.191467e-01 2.412204e-01 2.648288e-01 2.897235e-01 3.162544e-01 3.443618e-01 3.757655e-01 4.098610e-01 4.341098e-01 4.245408e-01 3.987795e-01 3.735553e-01 3.484952e-01 3.229409e-01 2.970262e-01 2.713830e-01 2.465457e-01 2.234190e-01 2.025515e-01 1.845458e-01 1.695858e-01 1.577541e-01 1.488642e-01 1.426983e-01 1.389925e-01 1.375681e-01 1.383429e-01 1.413592e-01 1.467619e-01 1.547644e-01 1.656257e-01 1.795048e-01 1.964851e-01 2.163198e-01 2.387096e-01 2.628513e-01 2.882790e-01 3.138597e-01 3.396158e-01 3.644050e-01 3.897097e-01 4.144995e-01 4.351984e-01 4.232547e-01 3.886886e-01 3.549696e-01 3.256526e-01 2.980563e-01 2.724514e-01 2.479046e-01 2.250203e-01 2.037892e-01 1.848558e-01 1.684896e-01 1.552050e-01 1.452846e-01 1.390598e-01 
1.361771e-01 1.377471e-01 1.431523e-01 1.521700e-01 1.645249e-01 1.798373e-01 1.977369e-01 2.177981e-01 2.396435e-01 2.629842e-01 2.876327e-01 3.138492e-01 3.417998e-01 3.728484e-01 4.073431e-01 4.327279e-01 4.241878e-01 3.980988e-01 3.728202e-01 3.476182e-01 3.220703e-01 2.961950e-01 2.706755e-01 2.460102e-01 2.230947e-01 2.024588e-01 1.846877e-01 1.699534e-01 1.583254e-01 1.496083e-01 1.435753e-01 1.399561e-01 1.385673e-01 1.393242e-01 1.422703e-01 1.475544e-01 1.553965e-01 1.660626e-01 1.797222e-01 1.964651e-01 2.160622e-01 2.382178e-01 2.621634e-01 2.874255e-01 3.129361e-01 3.386719e-01 3.635820e-01 3.890144e-01 4.140394e-01 4.342716e-01 4.213047e-01 3.862748e-01 3.525805e-01 3.233637e-01 2.960103e-01 2.706426e-01 2.463644e-01 2.237076e-01 2.026869e-01 1.839253e-01 1.677055e-01 1.545351e-01 1.446992e-01 1.385248e-01 
1.346381e-01 1.361431e-01 1.413801e-01 1.501321e-01 1.621306e-01 1.770018e-01 1.943864e-01 2.138525e-01 2.350552e-01 2.576701e-01 2.816478e-01 3.070789e-01 3.346220e-01 3.649932e-01 4.005034e-01 4.286524e-01 4.229716e-01 3.960972e-01 3.706176e-01 3.450527e-01 3.195593e-01 2.938444e-01 2.687075e-01 2.445528e-01 2.222529e-01 2.022884e-01 1.852000e-01 1.711249e-01 1.600957e-01 1.518888e-01 1.462497e-01 1.428873e-01 1.416034e-01 1.423046e-01 1.450389e-01 1.499672e-01 1.573307e-01 1.674168e-01 1.804275e-01 1.964738e-01 2.153766e-01 2.368512e-01 2.602236e-01 2.849968e-01 3.102856e-01 3.359382e-01 3.612117e-01 3.870758e-01 4.129338e-01 4.316076e-01 4.155725e-01 3.794625e-01 3.459981e-01 3.170111e-01 2.902808e-01 2.655134e-01 2.419485e-01 2.199087e-01 1.994772e-01 1.812035e-01 1.654052e-01 1.525639e-01 1.429723e-01 1.369426e-01 