# vtk DataFile Version 2.0
Comment goes here
ASCII

DATASET STRUCTURED_POINTS
FIELD FieldData 1
TIME 1 1 double
1.46000000
DIMENSIONS    64   64   1

ORIGIN    0.000   0.000   0.000
SPACING   0.015625 0.015625   1.000

POINT_DATA   4096
SCALARS Concentration double
LOOKUP_TABLE default

7.572377e-03 7.639890e-03 7.880113e-03 8.302522e-03 8.923105e-03 9.765091e-03 1.085850e-02 1.224114e-02 1.395696e-02 1.605657e-02 1.859304e-02 2.162115e-02 2.518870e-02 2.933573e-02 3.408445e-02 3.943772e-02 4.537073e-02 5.183256e-02 5.874385e-02 6.600220e-02 7.348690e-02 8.106491e-02 8.859975e-02 9.595261e-02 1.029919e-01 1.095859e-01 1.156159e-01 1.209670e-01 1.255399e-01 1.292402e-01 1.319899e-01 1.337205e-01 1.343827e-01 1.339461e-01 1.324254e-01 1.298621e-01 1.263159e-01 1.218652e-01 1.166004e-01 1.106266e-01 1.040584e-01 9.702228e-02 8.965297e-02 8.208857e-02 7.447144e-02 6.694049e-02 5.963139e-02 5.266456e-02 4.614493e-02 4.015086e-02 3.473624e-02 2.992510e-02 2.571759e-02 2.209081e-02 1.900694e-02 1.641723e-02 1.426837e-02 1.250623e-02 1.108061e-02 9.946496e-03 9.066063e-03 8.408410e-03 7.950134e-03 7.674682e-03 
7.707313e-03 7.774762e-03 8.015477e-03 8.438966e-03 9.061260e-03 9.905676e-03 1.100238e-02 1.238938e-02 1.411083e-02 1.621774e-02 1.876374e-02 2.180435e-02 2.538854e-02 2.955740e-02 3.433460e-02 3.972446e-02 4.570388e-02 5.222341e-02 5.920521e-02 6.654792e-02 7.413164e-02 8.182351e-02 8.948675e-02 9.698174e-02 1.041760e-01 1.109335e-01 1.171302e-01 1.226444e-01 1.273700e-01 1.312037e-01 1.340592e-01 1.358606e-01 1.365523e-01 1.361017e-01 1.345240e-01 1.318659e-01 1.281934e-01 1.235940e-01 1.181662e-01 1.120236e-01 1.052879e-01 9.809176e-02 9.057517e-02 8.287755e-02 7.514233e-02 6.750880e-02 6.011234e-02 5.307255e-02 4.649311e-02 4.045090e-02 3.499812e-02 3.015718e-02 2.592664e-02 2.228217e-02 1.918478e-02 1.658470e-02 1.442777e-02 1.265928e-02 1.122860e-02 1.009051e-02 9.206966e-03 8.546920e-03 8.086875e-03 7.810239e-03 
8.114862e-03 8.182155e-03 8.424417e-03 8.851234e-03 9.478757e-03 1.033055e-02 1.143717e-02 1.283717e-02 1.457544e-02 1.670420e-02 1.927874e-02 2.235691e-02 2.599094e-02 3.022546e-02 3.508822e-02 4.058830e-02 4.670738e-02 5.340081e-02 6.059487e-02 6.819148e-02 7.607268e-02 8.410581e-02 9.215273e-02 1.000699e-01 1.077197e-01 1.149533e-01 1.216324e-01 1.276161e-01 1.327787e-01 1.369932e-01 1.401509e-01 1.421540e-01 1.429307e-01 1.424406e-01 1.407015e-01 1.377741e-01 1.337423e-01 1.287179e-01 1.228222e-01 1.161922e-01 1.089691e-01 1.013036e-01 9.334958e-02 8.525386e-02 7.716439e-02 6.922211e-02 6.156230e-02 5.430217e-02 4.754210e-02 4.135439e-02 3.578647e-02 3.085565e-02 2.655578e-02 2.285822e-02 1.972041e-02 1.708935e-02 1.490835e-02 1.312097e-02 1.167532e-02 1.052537e-02 9.632488e-03 8.965239e-03 8.499863e-03 8.219663e-03 
8.804017e-03 8.870993e-03 9.115795e-03 9.548132e-03 1.018432e-02 1.104830e-02 1.217119e-02 1.359246e-02 1.535821e-02 1.752254e-02 2.014348e-02 2.328246e-02 2.699707e-02 3.133801e-02 3.633981e-02 4.201910e-02 4.836570e-02 5.534257e-02 6.288297e-02 7.089376e-02 7.926009e-02 8.784902e-02 9.651948e-02 1.051205e-01 1.135046e-01 1.215037e-01 1.289570e-01 1.356941e-01 1.415582e-01 1.463848e-01 1.500284e-01 1.523564e-01 1.532700e-01 1.527165e-01 1.507179e-01 1.473570e-01 1.427475e-01 1.370402e-01 1.303929e-01 1.229804e-01 1.149740e-01 1.065530e-01 9.789209e-02 8.915102e-02 8.048600e-02 7.204143e-02 6.395269e-02 5.633356e-02 4.927907e-02 4.285429e-02 3.709874e-02 3.202157e-02 2.760880e-02 2.382489e-02 2.062129e-02 1.793951e-02 1.571901e-02 1.390053e-02 1.243013e-02 1.126048e-02 1.035200e-02 9.672642e-03 9.198260e-03 8.912012e-03 
9.789805e-03 9.856300e-03 1.010469e-02 1.054483e-02 1.119323e-02 1.207431e-02 1.321988e-02 1.467070e-02 1.647446e-02 1.868787e-02 2.137260e-02 2.459520e-02 2.841981e-02 3.290633e-02 3.809885e-02 4.402468e-02 5.068463e-02 5.805246e-02 6.607048e-02 7.465209e-02 8.368526e-02 9.303529e-02 1.025548e-01 1.120806e-01 1.214490e-01 1.304646e-01 1.389386e-01 1.466621e-01 1.534421e-01 1.590664e-01 1.633443e-01 1.660974e-01 1.671913e-01 1.665561e-01 1.642202e-01 1.602957e-01 1.549346e-01 1.483374e-01 1.407075e-01 1.322655e-01 1.232210e-01 1.137895e-01 1.041749e-01 9.455668e-02 8.510491e-02 7.597035e-02 6.729061e-02 5.917562e-02 5.171420e-02 4.496161e-02 3.894687e-02 3.366768e-02 2.909945e-02 2.519704e-02 2.190257e-02 1.915065e-02 1.687541e-02 1.501368e-02 1.350872e-02 1.231150e-02 1.138102e-02 1.068450e-02 1.019729e-02 9.902402e-03 
1.109311e-02 1.115888e-02 1.141191e-02 1.186224e-02 1.252653e-02 1.342975e-02 1.460449e-02 1.609307e-02 1.794510e-02 2.022043e-02 2.298526e-02 2.631242e-02 3.027438e-02 3.494129e-02 4.037108e-02 4.660465e-02 5.365684e-02 6.151447e-02 7.013124e-02 7.942734e-02 8.929314e-02 9.958916e-02 1.101579e-01 1.208184e-01 1.313857e-01 1.416332e-01 1.513396e-01 1.602541e-01 1.681423e-01 1.747360e-01 1.797881e-01 1.830626e-01 1.843779e-01 1.836450e-01 1.808977e-01 1.762861e-01 1.700107e-01 1.623347e-01 1.535165e-01 1.438307e-01 1.335294e-01 1.228711e-01 1.120909e-01 1.013937e-01 9.096796e-02 8.097475e-02 7.155635e-02 6.281992e-02 5.484749e-02 4.768307e-02 4.134273e-02 3.581022e-02 3.104756e-02 2.699597e-02 2.358673e-02 2.074590e-02 1.840088e-02 1.648368e-02 1.493411e-02 1.370104e-02 1.274172e-02 1.202255e-02 1.151832e-02 1.121189e-02 
1.274029e-02 1.280509e-02 1.306406e-02 1.352738e-02 1.421183e-02 1.514291e-02 1.635401e-02 1.788913e-02 1.980028e-02 2.215074e-02 2.501204e-02 2.846451e-02 3.259055e-02 3.747300e-02 4.318489e-02 4.978546e-02 5.730772e-02 6.575437e-02 7.509178e-02 8.524762e-02 9.611185e-02 1.075363e-01 1.193457e-01 1.313337e-01 1.432855e-01 1.549337e-01 1.660230e-01 1.762565e-01 1.853669e-01 1.930299e-01 1.989422e-01 2.028012e-01 2.043674e-01 2.035292e-01 2.003255e-01 1.949547e-01 1.876725e-01 1.788097e-01 1.686787e-01 1.576039e-01 1.458791e-01 1.338102e-01 1.216729e-01 1.097045e-01 9.812126e-02 8.709953e-02 7.679224e-02 6.730531e-02 5.871523e-02 5.105317e-02 4.432052e-02 3.848366e-02 3.348634e-02 2.925450e-02 2.570627e-02 2.275732e-02 2.032691e-02 1.834129e-02 1.673633e-02 1.545829e-02 1.446248e-02 1.371445e-02 1.318838e-02 1.286708e-02 
1.476248e-02 1.482603e-02 1.509252e-02 1.557226e-02 1.628199e-02 1.724768e-02 1.850344e-02 2.009496e-02 2.207697e-02 2.451649e-02 2.749088e-02 3.108904e-02 3.540492e-02 4.053609e-02 4.657364e-02 5.359668e-02 6.166041e-02 7.078797e-02 8.096027e-02 9.211029e-02 1.041249e-01 1.168395e-01 1.300533e-01 1.435256e-01 1.570050e-01 1.701833e-01 1.827729e-01 1.944392e-01 2.048864e-01 2.137322e-01 2.206063e-01 2.251257e-01 2.269793e-01 2.260292e-01 2.223166e-01 2.160986e-01 2.076991e-01 1.975297e-01 1.859656e-01 1.733814e-01 1.601052e-01 1.464910e-01 1.328497e-01 1.194547e-01 1.065571e-01 9.435606e-02 8.302160e-02 7.266327e-02 6.335418e-02 5.511337e-02 4.792383e-02 4.173103e-02 3.645910e-02 3.201581e-02 2.830388e-02 2.522668e-02 2.269402e-02 2.062562e-02 1.895300e-02 1.761933e-02 1.657792e-02 1.579350e-02 1.523972e-02 1.489949e-02 
1.719443e-02 1.725657e-02 1.753286e-02 1.803364e-02 1.877543e-02 1.978451e-02 2.109550e-02 2.275555e-02 2.482258e-02 2.736739e-02 3.047366e-02 3.423982e-02 3.877298e-02 4.418782e-02 5.059646e-02 5.810191e-02 6.678447e-02 7.669007e-02 8.781795e-02 1.001087e-01 1.134393e-01 1.276218e-01 1.424140e-01 1.575303e-01 1.726681e-01 1.874647e-01 2.015995e-01 2.146917e-01 2.264567e-01 2.364741e-01 2.443258e-01 2.495388e-01 2.517101e-01 2.506529e-01 2.464131e-01 2.393349e-01 2.298234e-01 2.183681e-01 2.053843e-01 1.912633e-01 1.763568e-01 1.610788e-01 1.457875e-01 1.307998e-01 1.164169e-01 1.028686e-01 9.035419e-02 7.899114e-02 6.885205e-02 5.994087e-02 5.222170e-02 4.561663e-02 4.002643e-02 3.533759e-02 3.143449e-02 2.820631e-02 2.555189e-02 2.338376e-02 2.162869e-02 2.022626e-02 1.912782e-02 1.829753e-02 1.770863e-02 1.734437e-02 
2.007298e-02 2.013366e-02 2.042293e-02 2.095108e-02 2.173403e-02 2.279816e-02 2.417817e-02 2.592261e-02 2.809208e-02 3.076202e-02 3.402236e-02 3.798196e-02 4.276256e-02 4.849824e-02 5.532532e-02 6.337397e-02 7.275374e-02 8.353554e-02 9.573821e-02 1.093051e-01 1.241016e-01 1.399014e-01 1.564068e-01 1.732698e-01 1.901264e-01 2.065670e-01 2.222521e-01 2.367894e-01 2.499143e-01 2.611675e-01 2.700710e-01 2.760498e-01 2.785884e-01 2.774319e-01 2.726309e-01 2.646293e-01 2.539301e-01 2.411157e-01 2.266652e-01 2.109880e-01 1.944316e-01 1.774579e-01 1.604494e-01 1.437629e-01 1.277628e-01 1.127245e-01 9.888753e-02 8.638754e-02 7.530244e-02 6.562479e-02 5.729884e-02 5.022062e-02 4.426434e-02 3.929167e-02 3.516594e-02 3.175990e-02 2.896011e-02 2.667142e-02 2.481493e-02 2.332680e-02 2.215647e-02 2.126790e-02 2.063417e-02 2.023925e-02 
2.343442e-02 2.349395e-02 2.380092e-02 2.436535e-02 2.520217e-02 2.633740e-02 2.780532e-02 2.965545e-02 3.195047e-02 3.477121e-02 3.821390e-02 4.239835e-02 4.746262e-02 5.356238e-02 6.086155e-02 6.952139e-02 7.968469e-02 9.145186e-02 1.048630e-01 1.198665e-01 1.363078e-01 1.539145e-01 1.723062e-01 1.910674e-01 2.097374e-01 2.278740e-01 2.450933e-01 2.609146e-01 2.751887e-01 2.874926e-01 2.973553e-01 3.041081e-01 3.070461e-01 3.057940e-01 3.004087e-01 2.915472e-01 2.798247e-01 2.658769e-01 2.501607e-01 2.330005e-01 2.147542e-01 1.960090e-01 1.771709e-01 1.586310e-01 1.408440e-01 1.241355e-01 1.088047e-01 9.501098e-02 8.284531e-02 7.228971e-02 6.326743e-02 5.564542e-02 4.926679e-02 4.396491e-02 3.957829e-02 3.596126e-02 3.298637e-02 3.055061e-02 2.856799e-02 2.697188e-02 2.571003e-02 2.474680e-02 2.405549e-02 2.362129e-02 
2.731206e-02 2.737119e-02 2.770249e-02 2.831557e-02 2.922361e-02 3.045186e-02 3.203328e-02 3.401786e-02 3.646947e-02 3.947481e-02 4.313666e-02 4.758644e-02 5.297970e-02 5.949623e-02 6.733052e-02 7.667811e-02 8.771902e-02 1.005842e-01 1.153388e-01 1.319311e-01 1.501867e-01 1.697620e-01 1.901720e-01 2.108955e-01 2.313738e-01 2.511281e-01 2.698026e-01 2.869597e-01 3.025012e-01 3.159480e-01 3.267691e-01 3.342393e-01 3.375475e-01 3.362189e-01 3.303243e-01 3.206530e-01 3.078476e-01 2.926007e-01 2.754949e-01 2.568869e-01 2.370628e-01 2.166462e-01 1.960034e-01 1.755345e-01 1.558268e-01 1.372882e-01 1.202912e-01 1.050394e-01 9.164557e-02 8.008654e-02 7.026523e-02 6.201616e-02 5.514797e-02 4.946106e-02 4.476592e-02 4.089565e-02 3.770751e-02 3.508983e-02 3.294849e-02 3.121481e-02 2.983531e-02 2.877561e-02 2.800977e-02 2.752497e-02 
3.173163e-02 3.179185e-02 3.215691e-02 3.283559e-02 3.383857e-02 3.518950e-02 3.691903e-02 3.907678e-02 4.172721e-02 4.496143e-02 4.889108e-02 5.365887e-02 5.943961e-02 6.643889e-02 7.488532e-02 8.501130e-02 9.703742e-02 1.111285e-01 1.273787e-01 1.457456e-01 1.660411e-01 1.878526e-01 2.105570e-01 2.334970e-01 2.559813e-01 2.776518e-01 2.980174e-01 3.162603e-01 3.325865e-01 3.467058e-01 3.581795e-01 3.662944e-01 3.699709e-01 3.685200e-01 3.621158e-01 3.518459e-01 3.384031e-01 3.224491e-01 3.043857e-01 2.842948e-01 2.625922e-01 2.403227e-01 2.176708e-01 1.949959e-01 1.731206e-01 1.525095e-01 1.336228e-01 1.167076e-01 1.019071e-01 8.919501e-02 7.845104e-02 6.947501e-02 6.203471e-02 5.589400e-02 5.083028e-02 4.665340e-02 4.320359e-02 4.035823e-02 3.801561e-02 3.610562e-02 3.457427e-02 3.338957e-02 3.252723e-02 3.197727e-02 
3.670887e-02 3.677252e-02 3.718397e-02 3.795076e-02 3.907997e-02 4.059281e-02 4.251609e-02 4.489835e-02 4.780325e-02 5.132573e-02 5.558743e-02 6.074415e-02 6.699084e-02 7.456234e-02 8.372404e-02 9.474834e-02 1.078987e-01 1.233735e-01 1.413027e-01 1.616562e-01 1.842632e-01 2.086225e-01 2.339337e-01 2.593449e-01 2.839696e-01 3.072852e-01 3.290484e-01 3.489441e-01 3.671379e-01 3.827342e-01 3.947683e-01 4.027401e-01 4.061550e-01 4.047844e-01 3.987161e-01 3.883382e-01 3.738364e-01 3.559981e-01 3.360018e-01 3.145269e-01 2.914634e-01 2.675696e-01 2.427790e-01 2.176233e-01 1.932489e-01 1.702596e-01 1.491849e-01 1.303402e-01 1.139053e-01 9.984916e-02 8.802738e-02 7.819654e-02 7.007924e-02 6.339587e-02 5.788640e-02 5.333387e-02 4.955952e-02 4.642707e-02 4.382770e-02 4.169099e-02 3.996329e-02 3.861663e-02 3.762935e-02 3.699558e-02 
4.224306e-02 4.231376e-02 4.278830e-02 4.367241e-02 4.496825e-02 4.669341e-02 4.886926e-02 5.154197e-02 5.477336e-02 5.866188e-02 6.333826e-02 6.897572e-02 7.579196e-02 8.405306e-02 9.406681e-02 1.061470e-01 1.206034e-01 1.376678e-01 1.575109e-01 1.801373e-01 2.054480e-01 2.328774e-01 2.613275e-01 2.896874e-01 3.170203e-01 3.437214e-01 3.685310e-01 3.894497e-01 4.066787e-01 4.200761e-01 4.295025e-01 4.352861e-01 4.374892e-01 4.364376e-01 4.321153e-01 4.241561e-01 4.122320e-01 3.962520e-01 3.764072e-01 3.529798e-01 3.266281e-01 3.001424e-01 2.725497e-01 2.442945e-01 2.169187e-01 1.910906e-01 1.674185e-01 1.462930e-01 1.279302e-01 1.122941e-01 9.920004e-02 8.835733e-02 7.943134e-02 7.209484e-02 6.604281e-02 6.102932e-02 5.685028e-02 5.335605e-02 5.043026e-02 4.800347e-02 4.602368e-02 4.446880e-02 4.332128e-02 4.258074e-02 
4.831692e-02 4.839947e-02 4.895806e-02 4.999589e-02 5.150861e-02 5.350894e-02 5.601059e-02 5.905658e-02 6.270512e-02 6.705927e-02 7.225759e-02 7.849753e-02 8.602339e-02 9.514041e-02 1.062049e-01 1.195817e-01 1.356324e-01 1.546245e-01 1.767677e-01 2.021040e-01 2.306576e-01 2.615993e-01 2.937103e-01 3.259400e-01 3.567291e-01 3.838780e-01 4.046586e-01 4.182975e-01 4.271885e-01 4.325306e-01 4.356385e-01 4.373696e-01 4.378778e-01 4.373629e-01 4.359116e-01 4.332105e-01 4.287471e-01 4.215340e-01 4.101976e-01 3.927675e-01 3.683545e-01 3.396889e-01 3.079492e-01 2.761147e-01 2.451673e-01 2.159062e-01 1.890243e-01 1.650958e-01 1.444010e-01 1.268602e-01 1.122392e-01 1.001755e-01 9.026956e-02 8.213602e-02 7.541757e-02 6.983466e-02 6.514949e-02 6.119985e-02 5.786063e-02 5.506507e-02 5.276410e-02 5.094391e-02 4.959271e-02 4.871737e-02 
5.488953e-02 5.499050e-02 5.565887e-02 5.689451e-02 5.868470e-02 6.103569e-02 6.395120e-02 6.746993e-02 7.164527e-02 7.658574e-02 8.244067e-02 8.943242e-02 9.784583e-02 1.080306e-01 1.204071e-01 1.353996e-01 1.534393e-01 1.748323e-01 1.998101e-01 2.284421e-01 2.608544e-01 2.957933e-01 3.317289e-01 3.649560e-01 3.906107e-01 4.050039e-01 4.109582e-01 4.115716e-01 4.107740e-01 4.103898e-01 4.107919e-01 4.114922e-01 4.117517e-01 4.111850e-01 4.100995e-01 4.090577e-01 4.089524e-01 4.099513e-01 4.104716e-01 4.075349e-01 3.974365e-01 3.776453e-01 3.473251e-01 3.129141e-01 2.782016e-01 2.451200e-01 2.144269e-01 1.871310e-01 1.636337e-01 1.438210e-01 1.273658e-01 1.138312e-01 1.027351e-01 9.362991e-02 8.609580e-02 7.981113e-02 7.449906e-02 6.998271e-02 6.612729e-02 6.286999e-02 6.016658e-02 5.801402e-02 5.640847e-02 5.536590e-02 
6.190114e-02 6.202838e-02 6.283656e-02 6.432110e-02 6.645886e-02 6.924784e-02 7.267895e-02 7.678589e-02 8.161559e-02 8.728542e-02 9.395737e-02 1.018875e-01 1.114088e-01 1.229361e-01 1.369673e-01 1.540164e-01 1.746125e-01 1.991356e-01 2.278042e-01 2.606560e-01 2.974222e-01 3.357852e-01 3.700151e-01 3.908121e-01 3.969929e-01 3.927634e-01 3.852789e-01 3.812586e-01 3.815122e-01 3.834443e-01 3.853032e-01 3.866735e-01 3.871336e-01 3.864673e-01 3.848905e-01 3.826904e-01 3.805678e-01 3.796081e-01 3.818452e-01 3.882920e-01 3.954162e-01 3.949338e-01 3.811843e-01 3.527057e-01 3.162914e-01 2.791305e-01 2.441436e-01 2.128158e-01 1.860204e-01 1.635017e-01 1.448522e-01 1.295362e-01 1.169886e-01 1.066950e-01 9.816153e-02 9.101437e-02 8.493037e-02 7.971596e-02 7.522354e-02 7.139615e-02 6.819584e-02 6.563335e-02 6.371508e-02 6.246815e-02 
6.926697e-02 6.943031e-02 7.041249e-02 7.220340e-02 7.476699e-02 7.809101e-02 8.215028e-02 8.697277e-02 9.259742e-02 9.915419e-02 1.068218e-01 1.158990e-01 1.267746e-01 1.399366e-01 1.559832e-01 1.755149e-01 1.992082e-01 2.275065e-01 2.604122e-01 2.977771e-01 3.375214e-01 3.715241e-01 3.882476e-01 3.869851e-01 3.755828e-01 3.641927e-01 3.568368e-01 3.538268e-01 3.545998e-01 3.572285e-01 3.599842e-01 3.620068e-01 3.627530e-01 3.619713e-01 3.598617e-01 3.568339e-01 3.538376e-01 3.521803e-01 3.535822e-01 3.592495e-01 3.691891e-01 3.819541e-01 3.895252e-01 3.818081e-01 3.549107e-01 3.167347e-01 2.776520e-01 2.420725e-01 2.116079e-01 1.860212e-01 1.648014e-01 1.473690e-01 1.330788e-01 1.213553e-01 1.116152e-01 1.034275e-01 9.641345e-02 9.035731e-02 8.509681e-02 8.058121e-02 7.678143e-02 7.372472e-02 7.143066e-02 6.993966e-02 
7.688785e-02 7.709810e-02 7.829129e-02 8.045005e-02 8.352304e-02 8.748490e-02 9.229090e-02 9.796220e-02 1.045279e-01 1.121360e-01 1.209839e-01 1.314274e-01 1.439108e-01 1.590018e-01 1.773873e-01 1.997531e-01 2.269317e-01 2.593593e-01 2.967386e-01 3.369970e-01 3.715645e-01 3.859952e-01 3.793392e-01 3.635633e-01 3.485643e-01 3.369702e-01 3.300125e-01 3.277556e-01 3.292103e-01 3.324141e-01 3.357241e-01 3.381332e-01 3.390534e-01 3.382348e-01 3.358458e-01 3.323334e-01 3.286638e-01 3.262283e-01 3.267953e-01 3.318592e-01 3.417093e-01 3.558684e-01 3.726611e-01 3.854234e-01 3.814424e-01 3.543610e-01 3.143862e-01 2.745792e-01 2.403592e-01 2.114244e-01 1.872796e-01 1.673852e-01 1.510343e-01 1.376176e-01 1.264399e-01 1.170176e-01 1.088999e-01 1.018468e-01 9.567650e-02 9.034591e-02 8.583671e-02 8.219574e-02 7.945884e-02 7.768174e-02 
8.464547e-02 8.491509e-02 8.635824e-02 8.894881e-02 9.261691e-02 9.732127e-02 1.029929e-01 1.096454e-01 1.172946e-01 1.261129e-01 1.363170e-01 1.483315e-01 1.626513e-01 1.799043e-01 2.008348e-01 2.260767e-01 2.566826e-01 2.929843e-01 3.338519e-01 3.703124e-01 3.857605e-01 3.762480e-01 3.568534e-01 3.382429e-01 3.231439e-01 3.122088e-01 3.059548e-01 3.039320e-01 3.051773e-01 3.081053e-01 3.113083e-01 3.137093e-01 3.146725e-01 3.138918e-01 3.115505e-01 3.081566e-01 3.047021e-01 3.024964e-01 3.030335e-01 3.076088e-01 3.167341e-01 3.304859e-01 3.482328e-01 3.685047e-01 3.844541e-01 3.809537e-01 3.510301e-01 3.097726e-01 2.718399e-01 2.393219e-01 2.119459e-01 1.892995e-01 1.706294e-01 1.552873e-01 1.424700e-01 1.316332e-01 1.222507e-01 1.140517e-01 1.068352e-01 1.005654e-01 9.523891e-02 9.092481e-02 8.767907e-02 8.557493e-02 
9.241677e-02 9.275844e-02 9.449063e-02 9.757575e-02 1.019226e-01 1.074693e-01 1.141185e-01 1.218725e-01 1.307309e-01 1.408944e-01 1.525968e-01 1.663452e-01 1.826634e-01 2.022407e-01 2.257790e-01 2.538245e-01 2.875348e-01 3.274406e-01 3.667715e-01 3.869739e-01 3.782587e-01 3.562786e-01 3.340476e-01 3.152902e-01 3.005622e-01 2.900116e-01 2.838244e-01 2.815455e-01 2.822876e-01 2.846853e-01 2.874945e-01 2.896686e-01 2.905692e-01 2.898794e-01 2.877806e-01 2.847926e-01 2.818629e-01 2.802034e-01 2.811343e-01 2.857881e-01 2.947124e-01 3.080807e-01 3.256392e-01 3.470631e-01 3.702451e-01 3.871361e-01 3.793299e-01 3.452274e-01 3.050729e-01 2.689364e-01 2.382217e-01 2.127466e-01 1.915854e-01 1.741559e-01 1.595220e-01 1.471104e-01 1.363117e-01 1.268259e-01 1.184327e-01 1.111045e-01 1.048570e-01 9.978409e-02 9.596607e-02 9.349566e-02 
1.000695e-01 1.004969e-01 1.025562e-01 1.061958e-01 1.112992e-01 1.177796e-01 1.255053e-01 1.344648e-01 1.446340e-01 1.562494e-01 1.695491e-01 1.851531e-01 2.035691e-01 2.255960e-01 2.518193e-01 2.825121e-01 3.193038e-01 3.599141e-01 3.879868e-01 3.849185e-01 3.616546e-01 3.367968e-01 3.144422e-01 2.958326e-01 2.811741e-01 2.705905e-01 2.640259e-01 2.610125e-01 2.607911e-01 2.622221e-01 2.642562e-01 2.659315e-01 2.666563e-01 2.661130e-01 2.644845e-01 2.622605e-01 2.603090e-01 2.596791e-01 2.614912e-01 2.666849e-01 2.758029e-01 2.890988e-01 3.065145e-01 3.277832e-01 3.520738e-01 3.769413e-01 3.913724e-01 3.755773e-01 3.380722e-01 2.983412e-01 2.648111e-01 2.368133e-01 2.132811e-01 1.937550e-01 1.772373e-01 1.631530e-01 1.508346e-01 1.399524e-01 1.302778e-01 1.217909e-01 1.145339e-01 1.086276e-01 1.041815e-01 1.013093e-01 
1.074756e-01 1.080030e-01 1.104258e-01 1.146737e-01 1.206017e-01 1.280916e-01 1.369739e-01 1.472144e-01 1.587611e-01 1.718783e-01 1.868014e-01 2.042554e-01 2.246999e-01 2.490528e-01 2.776879e-01 3.108827e-01 3.504189e-01 3.859963e-01 3.946164e-01 3.731267e-01 3.458085e-01 3.205843e-01 2.985160e-01 2.799734e-01 2.651563e-01 2.540749e-01 2.466806e-01 2.425658e-01 2.411260e-01 2.414020e-01 2.425014e-01 2.435638e-01 2.440538e-01 2.436799e-01 2.426076e-01 2.412843e-01 2.404840e-01 2.411136e-01 2.441251e-01 2.502730e-01 2.600201e-01 2.735735e-01 2.908889e-01 3.117993e-01 3.358418e-01 3.621839e-01 3.883029e-01 3.944008e-01 3.677914e-01 3.274197e-01 2.912280e-01 2.611577e-01 2.353117e-01 2.137122e-01 1.952867e-01 1.794712e-01 1.655665e-01 1.532068e-01 1.421711e-01 1.324456e-01 1.241075e-01 1.173063e-01 1.121858e-01 1.088835e-01 
1.145071e-01 1.151494e-01 1.179663e-01 1.228638e-01 1.296676e-01 1.382211e-01 1.483142e-01 1.598784e-01 1.728273e-01 1.874384e-01 2.039249e-01 2.231287e-01 2.453674e-01 2.718777e-01 3.022137e-01 3.381926e-01 3.778531e-01 4.012874e-01 3.895636e-01 3.607829e-01 3.332279e-01 3.083711e-01 2.865831e-01 2.679552e-01 2.526174e-01 2.406726e-01 2.320962e-01 2.265900e-01 2.236877e-01 2.226071e-01 2.226049e-01 2.229357e-01 2.231373e-01 2.229512e-01 2.225237e-01 2.222411e-01 2.227744e-01 2.248829e-01 2.293560e-01 2.367761e-01 2.475020e-01 2.616624e-01 2.791370e-01 2.998048e-01 3.232869e-01 3.497890e-01 3.784941e-01 4.018747e-01 3.924554e-01 3.559180e-01 3.167840e-01 2.848800e-01 2.569147e-01 2.333949e-01 2.131673e-01 1.956554e-01 1.801680e-01 1.663025e-01 1.538669e-01 1.428569e-01 1.333936e-01 1.256586e-01 1.198344e-01 1.160851e-01 
1.210449e-01 1.218152e-01 1.250462e-01 1.306179e-01 1.383274e-01 1.479720e-01 1.593023e-01 1.721976e-01 1.865375e-01 2.025751e-01 2.205074e-01 2.412438e-01 2.650042e-01 2.933768e-01 3.250563e-01 3.639077e-01 4.001786e-01 4.078468e-01 3.816521e-01 3.521403e-01 3.247894e-01 3.006032e-01 2.788491e-01 2.598311e-01 2.436233e-01 2.304777e-01 2.204559e-01 2.133739e-01 2.088882e-01 2.063816e-01 2.052348e-01 2.048080e-01 2.047048e-01 2.047045e-01 2.049289e-01 2.057092e-01 2.076198e-01 2.112951e-01 2.173766e-01 2.262947e-01 2.383017e-01 2.534055e-01 2.714068e-01 2.921004e-01 3.152266e-01 3.412171e-01 3.696636e-01 4.001555e-01 4.085040e-01 3.805260e-01 3.405235e-01 3.067663e-01 2.773460e-01 2.521321e-01 2.303734e-01 2.112796e-01 1.942882e-01 1.789401e-01 1.651103e-01 1.528072e-01 1.422068e-01 1.335259e-01 1.269889e-01 1.227890e-01 
1.269755e-01 1.278810e-01 1.315323e-01 1.377816e-01 1.463993e-01 1.571322e-01 1.696939e-01 1.838955e-01 1.995839e-01 2.169385e-01 2.361557e-01 2.580934e-01 2.830510e-01 3.126167e-01 3.456315e-01 3.856126e-01 4.153772e-01 4.078622e-01 3.762163e-01 3.478746e-01 3.211610e-01 2.972620e-01 2.751872e-01 2.553659e-01 2.379696e-01 2.233672e-01 2.117249e-01 2.029649e-01 1.968399e-01 1.928784e-01 1.905700e-01 1.893756e-01 1.889605e-01 1.891403e-01 1.900135e-01 1.918580e-01 1.951570e-01 2.004379e-01 2.081963e-01 2.187565e-01 2.322671e-01 2.486199e-01 2.675401e-01 2.886599e-01 3.118056e-01 3.370984e-01 3.651419e-01 3.961073e-01 4.178339e-01 4.016702e-01 3.632106e-01 3.269517e-01 2.963702e-01 2.695930e-01 2.465331e-01 2.259974e-01 2.076029e-01 1.908342e-01 1.756499e-01 1.620826e-01 1.503654e-01 1.407552e-01 1.335179e-01 1.288776e-01 
1.321963e-01 1.332394e-01 1.373011e-01 1.442067e-01 1.537040e-01 1.654877e-01 1.792429e-01 1.946999e-01 2.116844e-01 2.302536e-01 2.506380e-01 2.735090e-01 2.994775e-01 3.297061e-01 3.645274e-01 4.040050e-01 4.250270e-01 4.067073e-01 3.752371e-01 3.477370e-01 3.217843e-01 2.977371e-01 2.750005e-01 2.540538e-01 2.352503e-01 2.190415e-01 2.057086e-01 1.952603e-01 1.875407e-01 1.821794e-01 1.787657e-01 1.768455e-01 1.761339e-01 1.764780e-01 1.779557e-01 1.808025e-01 1.854227e-01 1.922516e-01 2.016742e-01 2.139257e-01 2.290636e-01 2.468705e-01 2.669947e-01 2.888918e-01 3.123807e-01 3.371881e-01 3.644651e-01 3.933883e-01 4.220560e-01 4.182208e-01 3.829790e-01 3.445460e-01 3.131240e-01 2.852212e-01 2.611498e-01 2.394020e-01 2.197467e-01 2.016718e-01 1.852161e-01 1.704581e-01 1.576837e-01 1.471952e-01 1.392961e-01 1.342423e-01 
1.366148e-01 1.377881e-01 1.422297e-01 1.497399e-01 1.600492e-01 1.728044e-01 1.876706e-01 2.042989e-01 2.225026e-01 2.422028e-01 2.636678e-01 2.873408e-01 3.141567e-01 3.448094e-01 3.811408e-01 4.189203e-01 4.307384e-01 4.068259e-01 3.777968e-01 3.509040e-01 3.253923e-01 3.008170e-01 2.772198e-01 2.549881e-01 2.347263e-01 2.169076e-01 2.019418e-01 1.898990e-01 1.807078e-01 1.740659e-01 1.696468e-01 1.670688e-01 1.660872e-01 1.665761e-01 1.685959e-01 1.723479e-01 1.781713e-01 1.864190e-01 1.974012e-01 2.112799e-01 2.280347e-01 2.473527e-01 2.688061e-01 2.916908e-01 3.157444e-01 3.403368e-01 3.666497e-01 3.937224e-01 4.244364e-01 4.300339e-01 3.987841e-01 3.593857e-01 3.273777e-01 2.988598e-01 2.739573e-01 2.512121e-01 2.304224e-01 2.111801e-01 1.935655e-01 1.777293e-01 1.639938e-01 1.527105e-01 1.442128e-01 1.387872e-01 
1.401496e-01 1.414389e-01 1.462094e-01 1.542406e-01 1.652518e-01 1.788502e-01 1.946904e-01 2.123560e-01 2.316563e-01 2.523923e-01 2.748522e-01 2.992828e-01 3.267891e-01 3.578231e-01 3.948440e-01 4.301964e-01 4.347777e-01 4.084167e-01 3.814659e-01 3.552210e-01 3.300362e-01 3.049485e-01 2.805703e-01 2.571605e-01 2.355847e-01 2.163157e-01 1.999045e-01 1.864643e-01 1.760034e-01 1.682727e-01 1.630021e-01 1.598693e-01 1.586603e-01 1.592685e-01 1.617425e-01 1.662582e-01 1.731023e-01 1.825711e-01 1.949190e-01 2.102483e-01 2.284719e-01 2.492048e-01 2.719274e-01 2.958549e-01 3.205532e-01 3.453094e-01 3.708507e-01 3.967733e-01 4.264267e-01 4.380014e-01 4.112569e-01 3.720404e-01 3.393770e-01 3.104393e-01 2.847072e-01 2.611028e-01 2.392978e-01 2.190525e-01 2.004348e-01 1.836790e-01 1.691234e-01 1.571670e-01 1.481631e-01 1.424255e-01 
1.427331e-01 1.441127e-01 1.491378e-01 1.575725e-01 1.691291e-01 1.833865e-01 1.999954e-01 2.184913e-01 2.386839e-01 2.602877e-01 2.835897e-01 3.087039e-01 3.367461e-01 3.681285e-01 4.051781e-01 4.380668e-01 4.376331e-01 4.105007e-01 3.847752e-01 3.591688e-01 3.342135e-01 3.087877e-01 2.838282e-01 2.595176e-01 2.369292e-01 2.165240e-01 1.989806e-01 1.844476e-01 1.730053e-01 1.644407e-01 1.585209e-01 1.549662e-01 1.535837e-01 1.542813e-01 1.570992e-01 1.621961e-01 1.698196e-01 1.802319e-01 1.936468e-01 2.101246e-01 2.295150e-01 2.513779e-01 2.751139e-01 2.999268e-01 3.251661e-01 3.502576e-01 3.752738e-01 4.007118e-01 4.282754e-01 4.432705e-01 4.209017e-01 3.826248e-01 3.490756e-01 3.196731e-01 2.930647e-01 2.687134e-01 2.460473e-01 2.250025e-01 2.055896e-01 1.881198e-01 1.729289e-01 1.604553e-01 1.510629e-01 1.450871e-01 
1.443105e-01 1.457491e-01 1.509369e-01 1.596285e-01 1.715331e-01 1.862128e-01 2.033177e-01 2.223564e-01 2.431394e-01 2.653359e-01 2.892182e-01 3.148471e-01 3.432490e-01 3.749316e-01 4.116516e-01 4.426479e-01 4.393481e-01 4.122300e-01 3.870511e-01 3.618637e-01 3.370392e-01 3.114453e-01 2.861457e-01 2.612866e-01 2.380669e-01 2.169476e-01 1.986874e-01 1.834498e-01 1.713793e-01 1.622839e-01 1.559550e-01 1.521346e-01 1.506428e-01 1.513964e-01 1.544309e-01 1.598947e-01 1.680139e-01 1.790333e-01 1.931411e-01 2.103575e-01 2.304929e-01 2.530871e-01 2.774713e-01 3.028660e-01 3.284462e-01 3.538038e-01 3.785028e-01 4.037304e-01 4.296323e-01 4.464523e-01 4.272522e-01 3.899706e-01 3.555868e-01 3.257604e-01 2.984419e-01 2.735544e-01 2.502932e-01 2.287236e-01 2.087939e-01 1.908685e-01 1.752736e-01 1.624739e-01 1.528371e-01 1.467124e-01 
1.448441e-01 1.463024e-01 1.515457e-01 1.603256e-01 1.723501e-01 1.871759e-01 2.044528e-01 2.236813e-01 2.446722e-01 2.670816e-01 2.911762e-01 3.170051e-01 3.455514e-01 3.773797e-01 4.139191e-01 4.441578e-01 4.399193e-01 4.128542e-01 3.878140e-01 3.627833e-01 3.380043e-01 3.123693e-01 2.869612e-01 2.619204e-01 2.384862e-01 2.171229e-01 1.986188e-01 1.831435e-01 1.708599e-01 1.615851e-01 1.551186e-01 1.512084e-01 1.496795e-01 1.504518e-01 1.535591e-01 1.591460e-01 1.674318e-01 1.786564e-01 1.929978e-01 2.104649e-01 2.308561e-01 2.537030e-01 2.783119e-01 3.039094e-01 3.296090e-01 3.550723e-01 3.796769e-01 4.048556e-01 4.301605e-01 4.475556e-01 4.294878e-01 3.926073e-01 3.578887e-01 3.278922e-01 3.003074e-01 2.752234e-01 2.517515e-01 2.299986e-01 2.098898e-01 1.918070e-01 1.760728e-01 1.631604e-01 1.534392e-01 1.472629e-01 
1.443105e-01 1.457491e-01 1.509369e-01 1.596285e-01 1.715331e-01 1.862128e-01 2.033177e-01 2.223564e-01 2.431394e-01 2.653359e-01 2.892182e-01 3.148471e-01 3.432490e-01 3.749316e-01 4.116516e-01 4.426479e-01 4.393481e-01 4.122300e-01 3.870511e-01 3.618637e-01 3.370392e-01 3.114453e-01 2.861457e-01 2.612866e-01 2.380669e-01 2.169476e-01 1.986874e-01 1.834498e-01 1.713793e-01 1.622839e-01 1.559550e-01 1.521346e-01 1.506428e-01 1.513964e-01 1.544309e-01 1.598947e-01 1.680139e-01 1.790333e-01 1.931411e-01 2.103575e-01 2.304929e-01 2.530871e-01 2.774713e-01 3.028660e-01 3.284462e-01 3.538038e-01 3.785028e-01 4.037304e-01 4.296323e-01 4.464523e-01 4.272522e-01 3.899706e-01 3.555868e-01 3.257604e-01 2.984419e-01 2.735544e-01 2.502932e-01 2.287236e-01 2.087939e-01 1.908685e-01 1.752736e-01 1.624739e-01 1.528371e-01 1.467124e-01 
1.427331e-01 1.441127e-01 1.491378e-01 1.575725e-01 1.691291e-01 1.833865e-01 1.999954e-01 2.184913e-01 2.386839e-01 2.602877e-01 2.835897e-01 3.087039e-01 3.367461e-01 3.681285e-01 4.051781e-01 4.380668e-01 4.376331e-01 4.105007e-01 3.847752e-01 3.591688e-01 3.342135e-01 3.087877e-01 2.838282e-01 2.595176e-01 2.369292e-01 2.165240e-01 1.989806e-01 1.844476e-01 1.730053e-01 1.644407e-01 1.585209e-01 1.549662e-01 1.535837e-01 1.542813e-01 1.570992e-01 1.621961e-01 1.698196e-01 1.802319e-01 1.936468e-01 2.101246e-01 2.295150e-01 2.513779e-01 2.751139e-01 2.999268e-01 3.251661e-01 3.502576e-01 3.752738e-01 4.007118e-01 4.282754e-01 4.432705e-01 4.209017e-01 3.826248e-01 3.490756e-01 3.196731e-01 2.930647e-01 2.687134e-01 2.460473e-01 2.250025e-01 2.055896e-01 1.881198e-01 1.729289e-01 1.604553e-01 1.510629e-01 1.450871e-01 