# vtk DataFile Version 2.0
Comment goes here
ASCII

DATASET STRUCTURED_POINTS
FIELD FieldData 1
TIME 1 1 double
1.53000000
DIMENSIONS    64   64   1

ORIGIN    0.000   0.000   0.000
SPACING   0.015625 0.015625   1.000

POINT_DATA   4096
SCALARS Concentration double
LOOKUP_TABLE default

8.901935e-03 8.975478e-03 9.238871e-03 9.702196e-03 1.038262e-02 1.130496e-02 1.250105e-02 1.401043e-02 1.587858e-02 1.815668e-02 2.089801e-02 2.415634e-02 2.798006e-02 3.240890e-02 3.746657e-02 4.315260e-02 4.944004e-02 5.627376e-02 6.357253e-02 7.122931e-02 7.912069e-02 8.710697e-02 9.504696e-02 1.027934e-01 1.102096e-01 1.171576e-01 1.235127e-01 1.291519e-01 1.339696e-01 1.378659e-01 1.407591e-01 1.425796e-01 1.432784e-01 1.428275e-01 1.412403e-01 1.385564e-01 1.348354e-01 1.301570e-01 1.246171e-01 1.183263e-01 1.114087e-01 1.039974e-01 9.623371e-02 8.826216e-02 8.023239e-02 7.229052e-02 6.457719e-02 5.721787e-02 5.032010e-02 4.396579e-02 3.821131e-02 3.308394e-02 2.858633e-02 2.469570e-02 2.137387e-02 1.857194e-02 1.623736e-02 1.431587e-02 1.275684e-02 1.151367e-02 1.054690e-02 9.823706e-03 9.319134e-03 9.015327e-03 
9.052394e-03 9.125740e-03 9.389273e-03 9.853093e-03 1.053442e-02 1.145814e-02 1.265624e-02 1.416848e-02 1.604076e-02 1.832458e-02 2.107377e-02 2.434281e-02 2.818102e-02 3.262921e-02 3.771264e-02 4.343266e-02 4.976409e-02 5.665330e-02 6.402051e-02 7.175948e-02 7.974749e-02 8.784442e-02 9.590862e-02 1.037910e-01 1.113536e-01 1.184555e-01 1.249671e-01 1.307588e-01 1.357181e-01 1.397379e-01 1.427284e-01 1.446136e-01 1.453389e-01 1.448742e-01 1.432339e-01 1.404620e-01 1.366240e-01 1.318074e-01 1.261160e-01 1.196679e-01 1.125939e-01 1.050331e-01 9.713002e-02 8.903093e-02 8.088724e-02 7.284583e-02 6.504754e-02 5.761732e-02 5.066173e-02 4.426135e-02 3.847091e-02 3.331605e-02 2.879761e-02 2.489118e-02 2.155748e-02 1.874669e-02 1.640547e-02 1.447903e-02 1.291637e-02 1.167046e-02 1.070159e-02 9.976777e-03 9.470990e-03 9.166319e-03 
9.506640e-03 9.579382e-03 9.843354e-03 1.030870e-02 1.099279e-02 1.192072e-02 1.312490e-02 1.464570e-02 1.653007e-02 1.883064e-02 2.160285e-02 2.490331e-02 2.878413e-02 3.328937e-02 3.844852e-02 4.426879e-02 5.073007e-02 5.778358e-02 6.535357e-02 7.333679e-02 8.161192e-02 9.003841e-02 9.847223e-02 1.067595e-01 1.147561e-01 1.223117e-01 1.292820e-01 1.355193e-01 1.408916e-01 1.452700e-01 1.485431e-01 1.506157e-01 1.514178e-01 1.509137e-01 1.491198e-01 1.460928e-01 1.419147e-01 1.366959e-01 1.305617e-01 1.236523e-01 1.161180e-01 1.081146e-01 9.979697e-02 9.131869e-02 8.283624e-02 7.449915e-02 6.644870e-02 5.880833e-02 5.168158e-02 4.514495e-02 3.924838e-02 3.401238e-02 2.943247e-02 2.547940e-02 2.211072e-02 1.927379e-02 1.691303e-02 1.497197e-02 1.339839e-02 1.214415e-02 1.116885e-02 1.043907e-02 9.929535e-03 9.622197e-03 
1.027471e-02 1.034644e-02 1.061120e-02 1.107921e-02 1.176804e-02 1.270313e-02 1.391751e-02 1.545252e-02 1.735672e-02 1.968469e-02 2.249449e-02 2.584624e-02 2.979669e-02 3.439547e-02 3.967836e-02 4.566199e-02 5.233506e-02 5.965672e-02 6.755809e-02 7.594030e-02 8.468446e-02 9.364827e-02 1.026839e-01 1.116282e-01 1.203266e-01 1.286121e-01 1.363191e-01 1.432714e-01 1.493075e-01 1.542638e-01 1.579936e-01 1.603703e-01 1.612980e-01 1.607309e-01 1.586892e-01 1.552502e-01 1.505240e-01 1.446575e-01 1.378118e-01 1.301613e-01 1.218866e-01 1.131684e-01 1.041791e-01 9.508477e-02 8.605095e-02 7.723176e-02 6.876962e-02 6.078591e-02 5.337934e-02 4.661998e-02 4.054976e-02 3.518095e-02 3.049951e-02 2.646977e-02 2.304361e-02 2.016371e-02 1.777077e-02 1.580556e-02 1.421374e-02 1.294546e-02 1.195923e-02 1.122096e-02 1.070499e-02 1.039307e-02 
1.137355e-02 1.144381e-02 1.170975e-02 1.218165e-02 1.287734e-02 1.382265e-02 1.505143e-02 1.660622e-02 1.853762e-02 2.090303e-02 2.376405e-02 2.718557e-02 3.123073e-02 3.595697e-02 4.140916e-02 4.761423e-02 5.457477e-02 6.226097e-02 7.061327e-02 7.953888e-02 8.892123e-02 9.861529e-02 1.084664e-01 1.182982e-01 1.279404e-01 1.372026e-01 1.458914e-01 1.537942e-01 1.607112e-01 1.664350e-01 1.707721e-01 1.735539e-01 1.746497e-01 1.740012e-01 1.716316e-01 1.676460e-01 1.621911e-01 1.554636e-01 1.476708e-01 1.390324e-01 1.297679e-01 1.200905e-01 1.101969e-01 1.002706e-01 9.049011e-02 8.101656e-02 7.199471e-02 6.354362e-02 5.575599e-02 4.869311e-02 4.238617e-02 3.683473e-02 3.201370e-02 2.787865e-02 2.437350e-02 2.143443e-02 1.899701e-02 1.699828e-02 1.538080e-02 1.409256e-02 1.309060e-02 1.234002e-02 1.181465e-02 1.149601e-02 
1.282672e-02 1.289504e-02 1.316271e-02 1.364003e-02 1.434510e-02 1.530414e-02 1.655190e-02 1.813230e-02 2.009833e-02 2.251100e-02 2.543626e-02 2.894499e-02 3.310826e-02 3.799342e-02 4.365711e-02 5.013922e-02 5.745629e-02 6.559493e-02 7.450707e-02 8.410700e-02 9.428009e-02 1.048756e-01 1.157289e-01 1.266444e-01 1.374323e-01 1.478721e-01 1.577414e-01 1.667871e-01 1.747691e-01 1.814283e-01 1.865135e-01 1.897996e-01 1.911075e-01 1.903625e-01 1.875896e-01 1.829314e-01 1.765846e-01 1.688104e-01 1.598738e-01 1.500453e-01 1.395883e-01 1.287509e-01 1.177580e-01 1.068146e-01 9.611680e-02 8.583563e-02 7.612025e-02 6.708859e-02 5.882623e-02 5.138468e-02 4.477980e-02 3.899766e-02 3.400050e-02 2.973250e-02 2.612732e-02 2.311305e-02 2.061879e-02 1.857692e-02 1.692593e-02 1.561120e-02 1.458812e-02 1.382081e-02 1.328260e-02 1.295476e-02 
1.466354e-02 1.472945e-02 1.499967e-02 1.548447e-02 1.620213e-02 1.717921e-02 1.845136e-02 2.006392e-02 2.207244e-02 2.454221e-02 2.754439e-02 3.115676e-02 3.545980e-02 4.053252e-02 4.644579e-02 5.325516e-02 6.099376e-02 6.966354e-02 7.923189e-02 8.962236e-02 1.007203e-01 1.123670e-01 1.243824e-01 1.365474e-01 1.486470e-01 1.604250e-01 1.716281e-01 1.819606e-01 1.911402e-01 1.988543e-01 2.047865e-01 2.086481e-01 2.102033e-01 2.093558e-01 2.061298e-01 2.007115e-01 1.933546e-01 1.843964e-01 1.741665e-01 1.629917e-01 1.511831e-01 1.390247e-01 1.267740e-01 1.146600e-01 1.028999e-01 9.167816e-02 8.115129e-02 7.143756e-02 6.261519e-02 5.472262e-02 4.776165e-02 4.170357e-02 3.649538e-02 3.206755e-02 2.834161e-02 2.523597e-02 2.267204e-02 2.057663e-02 1.888327e-02 1.753447e-02 1.648379e-02 1.569437e-02 1.513904e-02 1.479894e-02 
1.691838e-02 1.698148e-02 1.725562e-02 1.775090e-02 1.848570e-02 1.948672e-02 2.079039e-02 2.244338e-02 2.450379e-02 2.704164e-02 3.013415e-02 3.386690e-02 3.833087e-02 4.361845e-02 4.981661e-02 5.699920e-02 6.521833e-02 7.449406e-02 8.480784e-02 9.609137e-02 1.082301e-01 1.210527e-01 1.343578e-01 1.478938e-01 1.614165e-01 1.746270e-01 1.872480e-01 1.989476e-01 2.094177e-01 2.182940e-01 2.251846e-01 2.297129e-01 2.315679e-01 2.306128e-01 2.268701e-01 2.205884e-01 2.121024e-01 2.018486e-01 1.902307e-01 1.776218e-01 1.643739e-01 1.507964e-01 1.371814e-01 1.237828e-01 1.108443e-01 9.856990e-02 8.712654e-02 7.663542e-02 6.716886e-02 5.875574e-02 5.138229e-02 4.500366e-02 3.954925e-02 3.493402e-02 3.106544e-02 2.785090e-02 2.520294e-02 2.304179e-02 2.129524e-02 1.990280e-02 1.881619e-02 1.799763e-02 1.741965e-02 1.706335e-02 
1.962867e-02 1.968868e-02 1.996894e-02 2.047921e-02 2.123773e-02 2.227105e-02 2.361610e-02 2.532065e-02 2.744534e-02 3.006442e-02 3.326267e-02 3.713393e-02 4.178071e-02 4.730986e-02 5.382639e-02 6.142414e-02 7.017679e-02 8.012419e-02 9.126359e-02 1.035340e-01 1.168161e-01 1.309212e-01 1.456187e-01 1.606217e-01 1.756503e-01 1.903559e-01 2.044419e-01 2.175429e-01 2.293305e-01 2.393998e-01 2.472791e-01 2.525030e-01 2.546791e-01 2.536241e-01 2.493551e-01 2.421853e-01 2.325314e-01 2.209388e-01 2.078902e-01 1.938029e-01 1.790665e-01 1.640127e-01 1.489629e-01 1.341950e-01 1.199838e-01 1.065570e-01 9.410003e-02 8.274146e-02 7.255171e-02 6.355071e-02 5.570909e-02 4.896463e-02 4.322741e-02 3.839526e-02 3.435986e-02 3.101638e-02 2.826742e-02 2.602505e-02 2.421128e-02 2.276259e-02 2.162890e-02 2.077178e-02 2.016370e-02 1.978598e-02 
2.283321e-02 2.289013e-02 2.318003e-02 2.371204e-02 2.450398e-02 2.558177e-02 2.698245e-02 2.875441e-02 3.096054e-02 3.367884e-02 3.700263e-02 4.103465e-02 4.588966e-02 5.169010e-02 5.856007e-02 6.661554e-02 7.595328e-02 8.663599e-02 9.867751e-02 1.120253e-01 1.265504e-01 1.420390e-01 1.582202e-01 1.747595e-01 1.913359e-01 2.075283e-01 2.230296e-01 2.374644e-01 2.505420e-01 2.618513e-01 2.708225e-01 2.768513e-01 2.794145e-01 2.782517e-01 2.733716e-01 2.651954e-01 2.542830e-01 2.413433e-01 2.269259e-01 2.114323e-01 1.952572e-01 1.787314e-01 1.622139e-01 1.460098e-01 1.304352e-01 1.157577e-01 1.021868e-01 8.986774e-02 7.887061e-02 6.920960e-02 6.083874e-02 5.367802e-02 4.761625e-02 4.253257e-02 3.830122e-02 3.480380e-02 3.193192e-02 2.958775e-02 2.768782e-02 2.616558e-02 2.496952e-02 2.406089e-02 2.341256e-02 2.300641e-02 
2.656849e-02 2.662274e-02 2.692758e-02 2.749121e-02 2.833054e-02 2.947028e-02 3.094695e-02 3.280899e-02 3.512101e-02 3.796418e-02 4.144033e-02 4.566234e-02 5.075791e-02 5.686546e-02 6.412943e-02 7.268852e-02 8.266527e-02 9.414666e-02 1.071673e-01 1.216834e-01 1.375541e-01 1.545324e-01 1.722918e-01 1.904558e-01 2.086476e-01 2.263569e-01 2.432804e-01 2.590170e-01 2.733007e-01 2.857469e-01 2.956916e-01 3.024162e-01 3.053124e-01 3.040608e-01 2.986600e-01 2.896025e-01 2.775455e-01 2.633546e-01 2.476337e-01 2.307700e-01 2.131733e-01 1.951729e-01 1.771451e-01 1.594240e-01 1.423846e-01 1.263434e-01 1.115484e-01 9.816426e-02 8.626606e-02 7.586317e-02 6.689303e-02 5.925704e-02 5.282066e-02 4.744308e-02 4.297904e-02 3.929549e-02 3.627094e-02 3.379711e-02 3.178507e-02 3.016561e-02 2.888623e-02 2.790839e-02 2.720605e-02 2.676212e-02 
3.086592e-02 3.091852e-02 3.124607e-02 3.185531e-02 3.276178e-02 3.398811e-02 3.556962e-02 3.755395e-02 4.000689e-02 4.301250e-02 4.667897e-02 5.113227e-02 5.651340e-02 6.297740e-02 7.068940e-02 7.981245e-02 9.049613e-02 1.028574e-01 1.169554e-01 1.327643e-01 1.501262e-01 1.687521e-01 1.882385e-01 2.081565e-01 2.280717e-01 2.472861e-01 2.654655e-01 2.822175e-01 2.974761e-01 3.110365e-01 3.221048e-01 3.297093e-01 3.330360e-01 3.316517e-01 3.255503e-01 3.154327e-01 3.021862e-01 2.869380e-01 2.702519e-01 2.522899e-01 2.334023e-01 2.139088e-01 1.942768e-01 1.748918e-01 1.562115e-01 1.386393e-01 1.224604e-01 1.078702e-01 9.494600e-02 8.369502e-02 7.403523e-02 6.584773e-02 5.897180e-02 5.324446e-02 4.849898e-02 4.458618e-02 4.136755e-02 3.872560e-02 3.656589e-02 3.481683e-02 3.342561e-02 3.235465e-02 3.157985e-02 3.108573e-02 
3.574651e-02 3.579930e-02 3.616032e-02 3.683436e-02 3.783483e-02 3.918142e-02 4.090729e-02 4.305845e-02 4.570118e-02 4.892203e-02 5.283458e-02 5.757837e-02 6.330982e-02 7.020125e-02 7.843944e-02 8.821179e-02 9.969859e-02 1.130495e-01 1.283611e-01 1.456300e-01 1.646869e-01 1.851730e-01 2.065675e-01 2.284257e-01 2.502111e-01 2.710591e-01 2.907189e-01 3.086546e-01 3.247303e-01 3.389889e-01 3.506381e-01 3.586135e-01 3.621030e-01 3.606596e-01 3.542853e-01 3.436857e-01 3.297604e-01 3.137682e-01 2.961378e-01 2.769478e-01 2.566803e-01 2.356259e-01 2.142286e-01 1.929494e-01 1.723910e-01 1.530513e-01 1.352768e-01 1.192887e-01 1.051720e-01 9.293211e-02 8.246312e-02 7.362388e-02 6.622200e-02 6.007062e-02 5.497775e-02 5.077608e-02 4.730720e-02 4.444518e-02 4.208997e-02 4.016803e-02 3.862712e-02 3.743148e-02 3.656003e-02 3.599968e-02 
4.121778e-02 4.127359e-02 4.168252e-02 4.244670e-02 4.357668e-02 4.508808e-02 4.701097e-02 4.938882e-02 5.228800e-02 5.579741e-02 6.003683e-02 6.515556e-02 7.133161e-02 7.875570e-02 8.763773e-02 9.819084e-02 1.106286e-01 1.251434e-01 1.418801e-01 1.608894e-01 1.819817e-01 2.047102e-01 2.283445e-01 2.524065e-01 2.764574e-01 2.991440e-01 3.200269e-01 3.385463e-01 3.548901e-01 3.696810e-01 3.822307e-01 3.910820e-01 3.949866e-01 3.933026e-01 3.861963e-01 3.746858e-01 3.601032e-01 3.439922e-01 3.261727e-01 3.061934e-01 2.845524e-01 2.615913e-01 2.380382e-01 2.144800e-01 1.916395e-01 1.701902e-01 1.505037e-01 1.328409e-01 1.172935e-01 1.038668e-01 9.242464e-02 8.279609e-02 7.475126e-02 6.807452e-02 6.254530e-02 5.797173e-02 5.417674e-02 5.102519e-02 4.841132e-02 4.625983e-02 4.452008e-02 4.315903e-02 4.216001e-02 4.151313e-02 
4.726822e-02 4.733109e-02 4.780645e-02 4.869303e-02 4.999762e-02 5.173064e-02 5.391805e-02 5.660017e-02 5.984320e-02 6.373920e-02 6.841526e-02 7.403115e-02 8.078621e-02 8.889620e-02 9.859724e-02 1.101303e-01 1.237470e-01 1.396864e-01 1.581678e-01 1.793073e-01 2.029307e-01 2.283791e-01 2.545469e-01 2.809412e-01 3.070906e-01 3.315667e-01 3.549463e-01 3.761382e-01 3.934568e-01 4.076145e-01 4.189058e-01 4.265639e-01 4.298120e-01 4.283054e-01 4.221960e-01 4.120346e-01 3.985945e-01 3.824469e-01 3.626558e-01 3.402555e-01 3.168361e-01 2.921866e-01 2.663747e-01 2.401730e-01 2.146802e-01 1.907119e-01 1.687220e-01 1.490166e-01 1.317151e-01 1.168375e-01 1.042013e-01 9.360115e-02 8.475588e-02 7.741823e-02 7.133135e-02 6.627513e-02 6.205450e-02 5.852352e-02 5.557020e-02 5.311730e-02 5.111693e-02 4.953960e-02 4.837466e-02 4.761629e-02 
5.386572e-02 5.394103e-02 5.450578e-02 5.555441e-02 5.708901e-02 5.911355e-02 6.164902e-02 6.473212e-02 6.842942e-02 7.283768e-02 7.809407e-02 8.437315e-02 9.189283e-02 1.009016e-01 1.116696e-01 1.244674e-01 1.395920e-01 1.573305e-01 1.779910e-01 2.018121e-01 2.286117e-01 2.575332e-01 2.866527e-01 3.155032e-01 3.450249e-01 3.720001e-01 3.951513e-01 4.138899e-01 4.275745e-01 4.373900e-01 4.442252e-01 4.483794e-01 4.499412e-01 4.490775e-01 4.458294e-01 4.398906e-01 4.310035e-01 4.189216e-01 4.023921e-01 3.814248e-01 3.566576e-01 3.288556e-01 2.999630e-01 2.709491e-01 2.423118e-01 2.153759e-01 1.906017e-01 1.683675e-01 1.488916e-01 1.322168e-01 1.181047e-01 1.062953e-01 9.644537e-02 8.826897e-02 8.146173e-02 7.577956e-02 7.100649e-02 6.698298e-02 6.358982e-02 6.074711e-02 5.841072e-02 5.655547e-02 5.517840e-02 5.427877e-02 
6.095433e-02 6.104887e-02 6.173028e-02 6.298784e-02 6.481788e-02 6.721663e-02 7.019926e-02 7.379898e-02 7.808365e-02 8.315783e-02 8.917245e-02 9.632354e-02 1.048544e-01 1.150418e-01 1.272045e-01 1.416527e-01 1.587308e-01 1.787718e-01 2.021657e-01 2.292537e-01 2.598831e-01 2.925755e-01 3.255925e-01 3.569908e-01 3.850488e-01 4.053630e-01 4.181044e-01 4.256222e-01 4.298576e-01 4.324897e-01 4.342525e-01 4.352566e-01 4.355391e-01 4.351497e-01 4.341777e-01 4.325113e-01 4.300603e-01 4.266937e-01 4.208750e-01 4.107158e-01 3.942422e-01 3.697749e-01 3.396238e-01 3.072777e-01 2.752169e-01 2.448839e-01 2.167564e-01 1.914236e-01 1.692471e-01 1.503671e-01 1.344346e-01 1.211274e-01 1.100154e-01 1.007703e-01 9.303906e-02 8.655373e-02 8.107344e-02 7.642073e-02 7.246803e-02 6.913073e-02 6.636970e-02 6.416434e-02 6.252144e-02 6.144616e-02 
6.845616e-02 6.857815e-02 6.940768e-02 7.092777e-02 7.312784e-02 7.599492e-02 7.953775e-02 8.378619e-02 8.881119e-02 9.472890e-02 1.017085e-01 1.099746e-01 1.198025e-01 1.315077e-01 1.454555e-01 1.620009e-01 1.815681e-01 2.044757e-01 2.311810e-01 2.620182e-01 2.965928e-01 3.328622e-01 3.663907e-01 3.909567e-01 4.042462e-01 4.080806e-01 4.062620e-01 4.032366e-01 4.028776e-01 4.049548e-01 4.078293e-01 4.100668e-01 4.109018e-01 4.101971e-01 4.080824e-01 4.049697e-01 4.022356e-01 4.016625e-01 4.039825e-01 4.072120e-01 4.066324e-01 3.978721e-01 3.783205e-01 3.480477e-01 3.134417e-01 2.793847e-01 2.475368e-01 2.184814e-01 1.930640e-01 1.715411e-01 1.534229e-01 1.382908e-01 1.256135e-01 1.150242e-01 1.061292e-01 9.863239e-02 9.226425e-02 8.682429e-02 8.217455e-02 7.822322e-02 7.493699e-02 7.230008e-02 7.033100e-02 6.904177e-02 
7.627229e-02 7.643127e-02 7.744370e-02 7.928522e-02 8.193691e-02 8.537505e-02 8.960104e-02 9.464191e-02 1.005735e-01 1.075281e-01 1.156967e-01 1.253392e-01 1.367645e-01 1.503351e-01 1.664732e-01 1.855988e-01 2.082305e-01 2.347047e-01 2.653842e-01 3.005740e-01 3.380514e-01 3.717021e-01 3.918948e-01 3.968981e-01 3.911578e-01 3.824554e-01 3.768473e-01 3.751980e-01 3.767057e-01 3.797756e-01 3.829891e-01 3.853166e-01 3.861798e-01 3.854493e-01 3.832250e-01 3.798567e-01 3.764158e-01 3.741681e-01 3.744593e-01 3.788742e-01 3.872135e-01 3.959386e-01 3.964092e-01 3.828853e-01 3.545505e-01 3.186269e-01 2.826897e-01 2.495266e-01 2.203802e-01 1.958327e-01 1.751640e-01 1.578629e-01 1.432877e-01 1.310552e-01 1.207345e-01 1.119966e-01 1.045432e-01 9.814242e-02 9.264591e-02 8.795014e-02 8.402946e-02 8.087245e-02 7.851187e-02 7.696745e-02 
8.428830e-02 8.449509e-02 8.572791e-02 8.795348e-02 9.114304e-02 9.525975e-02 1.002970e-01 1.062785e-01 1.132873e-01 1.214752e-01 1.310568e-01 1.423316e-01 1.556314e-01 1.713691e-01 1.900160e-01 2.120884e-01 2.382921e-01 2.687896e-01 3.039014e-01 3.422425e-01 3.753268e-01 3.911409e-01 3.889592e-01 3.767813e-01 3.642882e-01 3.550752e-01 3.498218e-01 3.486280e-01 3.507848e-01 3.545047e-01 3.582547e-01 3.609413e-01 3.619562e-01 3.611331e-01 3.585798e-01 3.547172e-01 3.505842e-01 3.475775e-01 3.473550e-01 3.513171e-01 3.593816e-01 3.715110e-01 3.855753e-01 3.934354e-01 3.853138e-01 3.582661e-01 3.212393e-01 2.840638e-01 2.508836e-01 2.230440e-01 1.995265e-01 1.797381e-01 1.629509e-01 1.487846e-01 1.367765e-01 1.265651e-01 1.178237e-01 1.102833e-01 1.037847e-01 9.820911e-02 9.354019e-02 8.977101e-02 8.695099e-02 8.510884e-02 
9.237889e-02 9.264518e-02 9.413702e-02 9.681060e-02 1.006250e-01 1.055275e-01 1.115018e-01 1.185677e-01 1.268162e-01 1.364208e-01 1.476193e-01 1.607489e-01 1.761459e-01 1.942557e-01 2.155739e-01 2.407264e-01 2.706811e-01 3.053893e-01 3.438722e-01 3.778028e-01 3.917257e-01 3.842994e-01 3.676409e-01 3.515150e-01 3.384730e-01 3.293759e-01 3.247651e-01 3.241152e-01 3.263904e-01 3.299724e-01 3.335236e-01 3.360592e-01 3.370312e-01 3.362404e-01 3.338028e-01 3.301444e-01 3.261638e-01 3.231156e-01 3.224695e-01 3.256934e-01 3.333841e-01 3.456669e-01 3.615858e-01 3.792440e-01 3.920418e-01 3.869577e-01 3.593405e-01 3.210357e-01 2.841647e-01 2.527803e-01 2.261473e-01 2.035967e-01 1.843424e-01 1.679952e-01 1.540764e-01 1.421798e-01 1.319639e-01 1.231121e-01 1.154614e-01 1.088727e-01 1.033430e-01 9.886986e-02 9.552254e-02 9.334024e-02 
1.004141e-01 1.007526e-01 1.025426e-01 1.057273e-01 1.102511e-01 1.160410e-01 1.230698e-01 1.313494e-01 1.409805e-01 1.521562e-01 1.651355e-01 1.802917e-01 1.979287e-01 2.185348e-01 2.425047e-01 2.707207e-01 3.044024e-01 3.425719e-01 3.782405e-01 3.943718e-01 3.847399e-01 3.647739e-01 3.447726e-01 3.280547e-01 3.151787e-01 3.064348e-01 3.018359e-01 3.008751e-01 3.025892e-01 3.056301e-01 3.087872e-01 3.111078e-01 3.120136e-01 3.112758e-01 3.090232e-01 3.057334e-01 3.022668e-01 2.997951e-01 2.995968e-01 3.028885e-01 3.102929e-01 3.220437e-01 3.378413e-01 3.568631e-01 3.778456e-01 3.937129e-01 3.886230e-01 3.582294e-01 3.193008e-01 2.841465e-01 2.543077e-01 2.288831e-01 2.070285e-01 1.883493e-01 1.723606e-01 1.586123e-01 1.467656e-01 1.364527e-01 1.275147e-01 1.197907e-01 1.132954e-01 1.080320e-01 1.040931e-01 1.015306e-01 
1.082644e-01 1.086884e-01 1.108148e-01 1.145700e-01 1.198803e-01 1.266474e-01 1.348309e-01 1.444288e-01 1.555517e-01 1.684057e-01 1.832699e-01 2.005474e-01 2.204892e-01 2.436287e-01 2.701837e-01 3.011549e-01 3.384079e-01 3.763208e-01 3.978476e-01 3.899575e-01 3.676006e-01 3.446956e-01 3.243345e-01 3.076477e-01 2.947614e-01 2.858799e-01 2.808860e-01 2.792366e-01 2.800526e-01 2.821926e-01 2.846161e-01 2.864636e-01 2.871953e-01 2.865784e-01 2.847438e-01 2.821541e-01 2.795740e-01 2.780334e-01 2.786136e-01 2.823672e-01 2.899029e-01 3.014772e-01 3.169490e-01 3.359016e-01 3.583357e-01 3.824036e-01 3.989280e-01 3.886726e-01 3.541456e-01 3.160405e-01 2.829402e-01 2.548111e-01 2.304188e-01 2.093773e-01 1.912695e-01 1.755667e-01 1.619869e-01 1.500962e-01 1.397627e-01 1.307993e-01 1.232476e-01 1.171172e-01 1.125288e-01 1.095491e-01 
1.158031e-01 1.163279e-01 1.188263e-01 1.232038e-01 1.293652e-01 1.371817e-01 1.465960e-01 1.575837e-01 1.702652e-01 1.848418e-01 2.016223e-01 2.210092e-01 2.432116e-01 2.688325e-01 2.976782e-01 3.316965e-01 3.705062e-01 4.001808e-01 3.995039e-01 3.761385e-01 3.505098e-01 3.274137e-01 3.071827e-01 2.905038e-01 2.774533e-01 2.680800e-01 2.622299e-01 2.594691e-01 2.590528e-01 2.600544e-01 2.615747e-01 2.628493e-01 2.633636e-01 2.628987e-01 2.615742e-01 2.598369e-01 2.583712e-01 2.580790e-01 2.598590e-01 2.645768e-01 2.727248e-01 2.845418e-01 3.000341e-01 3.190278e-01 3.415410e-01 3.669171e-01 3.925416e-01 4.046785e-01 3.850701e-01 3.476358e-01 3.111617e-01 2.807419e-01 2.539148e-01 2.305747e-01 2.103665e-01 1.926819e-01 1.773197e-01 1.637848e-01 1.519819e-01 1.417064e-01 1.330286e-01 1.259728e-01 1.206886e-01 1.172638e-01 
1.229107e-01 1.235495e-01 1.264463e-01 1.314835e-01 1.385401e-01 1.474513e-01 1.581377e-01 1.705411e-01 1.847866e-01 2.010492e-01 2.196695e-01 2.410199e-01 2.652805e-01 2.931727e-01 3.238451e-01 3.613316e-01 3.978910e-01 4.107095e-01 3.907075e-01 3.630057e-01 3.369631e-01 3.140542e-01 2.939943e-01 2.771785e-01 2.635919e-01 2.533235e-01 2.462678e-01 2.421065e-01 2.402496e-01 2.399316e-01 2.403962e-01 2.409797e-01 2.412264e-01 2.409420e-01 2.402295e-01 2.394894e-01 2.393122e-01 2.404715e-01 2.437108e-01 2.497294e-01 2.588925e-01 2.713706e-01 2.871545e-01 3.061220e-01 3.283330e-01 3.533999e-01 3.805816e-01 4.064616e-01 4.074758e-01 3.771858e-01 3.386278e-01 3.056564e-01 2.767937e-01 2.512865e-01 2.291427e-01 2.095378e-01 1.924208e-01 1.772339e-01 1.639331e-01 1.523091e-01 1.424644e-01 1.344473e-01 1.284378e-01 1.245509e-01 
1.294756e-01 1.302386e-01 1.335496e-01 1.392663e-01 1.472384e-01 1.572604e-01 1.692245e-01 1.830266e-01 1.987914e-01 2.166316e-01 2.369533e-01 2.599823e-01 2.861345e-01 3.157367e-01 3.485930e-01 3.874286e-01 4.163222e-01 4.101636e-01 3.811828e-01 3.533900e-01 3.278741e-01 3.052079e-01 2.851358e-01 2.678239e-01 2.533511e-01 2.418404e-01 2.332955e-01 2.275076e-01 2.240528e-01 2.223099e-01 2.216440e-01 2.214903e-01 2.214473e-01 2.213520e-01 2.212864e-01 2.216037e-01 2.228075e-01 2.255546e-01 2.304552e-01 2.380334e-01 2.485349e-01 2.620190e-01 2.784055e-01 2.974827e-01 3.193178e-01 3.436252e-01 3.707225e-01 3.999984e-01 4.188935e-01 4.023051e-01 3.646440e-01 3.284341e-01 2.982726e-01 2.708407e-01 2.470453e-01 2.256745e-01 2.069046e-01 1.901250e-01 1.753506e-01 1.623882e-01 1.513722e-01 1.423878e-01 1.356453e-01 1.312931e-01 
1.353972e-01 1.362901e-01 1.400175e-01 1.464119e-01 1.552908e-01 1.664067e-01 1.796156e-01 1.947613e-01 2.119549e-01 2.312250e-01 2.530539e-01 2.774325e-01 3.052469e-01 3.359686e-01 3.717364e-01 4.093527e-01 4.261716e-01 4.056877e-01 3.755858e-01 3.481762e-01 3.234465e-01 3.008835e-01 2.804977e-01 2.623356e-01 2.466439e-01 2.336326e-01 2.234154e-01 2.158882e-01 2.107691e-01 2.075628e-01 2.057431e-01 2.048331e-01 2.044918e-01 2.045843e-01 2.051755e-01 2.065653e-01 2.091765e-01 2.135605e-01 2.202088e-01 2.294956e-01 2.415584e-01 2.563467e-01 2.736775e-01 2.931976e-01 3.149448e-01 3.385633e-01 3.649943e-01 3.932759e-01 4.222210e-01 4.212872e-01 3.879836e-01 3.493686e-01 3.181176e-01 2.890474e-01 2.637327e-01 2.407756e-01 2.204559e-01 2.021832e-01 1.859921e-01 1.717396e-01 1.595808e-01 1.496524e-01 1.421913e-01 1.373850e-01 
1.405846e-01 1.416071e-01 1.457367e-01 1.527822e-01 1.625270e-01 1.746856e-01 1.890689e-01 2.054758e-01 2.239772e-01 2.445365e-01 2.676452e-01 2.931286e-01 3.221837e-01 3.537022e-01 3.919686e-01 4.263091e-01 4.300591e-01 4.021298e-01 3.740224e-01 3.474190e-01 3.233091e-01 3.005669e-01 2.795112e-01 2.601956e-01 2.430624e-01 2.284039e-01 2.164477e-01 2.071768e-01 2.004096e-01 1.957753e-01 1.928379e-01 1.911978e-01 1.905666e-01 1.908344e-01 1.920520e-01 1.944709e-01 1.984445e-01 2.044344e-01 2.128175e-01 2.238610e-01 2.376062e-01 2.539120e-01 2.724717e-01 2.928227e-01 3.148439e-01 3.381333e-01 3.636346e-01 3.905666e-01 4.216611e-01 4.334785e-01 4.072377e-01 3.684611e-01 3.356894e-01 3.054549e-01 2.787237e-01 2.544432e-01 2.327134e-01 2.131009e-01 1.955958e-01 1.801478e-01 1.669157e-01 1.561013e-01 1.479624e-01 1.427298e-01 
1.449578e-01 1.461033e-01 1.506024e-01 1.582442e-01 1.687782e-01 1.818885e-01 1.973357e-01 2.148911e-01 2.345583e-01 2.562884e-01 2.804790e-01 3.069662e-01 3.368347e-01 3.690663e-01 4.081805e-01 4.379110e-01 4.316642e-01 4.019612e-01 3.758575e-01 3.501921e-01 3.263578e-01 3.031635e-01 2.811929e-01 2.605759e-01 2.419232e-01 2.256174e-01 2.119786e-01 2.010662e-01 1.927726e-01 1.868243e-01 1.828644e-01 1.805573e-01 1.796612e-01 1.800849e-01 1.818705e-01 1.852265e-01 1.904487e-01 1.979214e-01 2.079259e-01 2.206584e-01 2.360753e-01 2.539740e-01 2.739094e-01 2.953644e-01 3.179466e-01 3.413134e-01 3.659073e-01 3.918651e-01 4.210442e-01 4.407432e-01 4.231648e-01 3.855869e-01 3.508622e-01 3.197921e-01 2.917604e-01 2.663874e-01 2.433979e-01 2.226131e-01 2.039280e-01 1.874137e-01 1.732149e-01 1.616056e-01 1.528563e-01 1.472419e-01 
1.484469e-01 1.496996e-01 1.545152e-01 1.626675e-01 1.738751e-01 1.878026e-01 2.041593e-01 2.227143e-01 2.433852e-01 2.661850e-01 2.913263e-01 3.188936e-01 3.494102e-01 3.827614e-01 4.212406e-01 4.456245e-01 4.328082e-01 4.043754e-01 3.793705e-01 3.546500e-01 3.308391e-01 3.071748e-01 2.842532e-01 2.624100e-01 2.423459e-01 2.245532e-01 2.094252e-01 1.970852e-01 1.874848e-01 1.804125e-01 1.755818e-01 1.727078e-01 1.715860e-01 1.721390e-01 1.744032e-01 1.785531e-01 1.848392e-01 1.935803e-01 2.049911e-01 2.192217e-01 2.361549e-01 2.555559e-01 2.768282e-01 2.994606e-01 3.227290e-01 3.464463e-01 3.703877e-01 3.954919e-01 4.218834e-01 4.450733e-01 4.352838e-01 3.994788e-01 3.633099e-01 3.316189e-01 3.025443e-01 2.762700e-01 2.522133e-01 2.304421e-01 2.107556e-01 1.933426e-01 1.783261e-01 1.660467e-01 1.567822e-01 1.508467e-01 
1.509922e-01 1.523299e-01 1.573905e-01 1.659372e-01 1.776644e-01 1.922262e-01 2.092882e-01 2.286338e-01 2.500976e-01 2.737930e-01 2.997249e-01 3.283241e-01 3.594048e-01 3.939805e-01 4.311580e-01 4.504200e-01 4.338296e-01 4.076390e-01 3.831037e-01 3.591507e-01 3.352050e-01 3.111832e-01 2.874704e-01 2.646513e-01 2.434455e-01 2.244691e-01 2.081681e-01 1.947191e-01 1.841132e-01 1.761804e-01 1.706839e-01 1.673768e-01 1.660830e-01 1.667335e-01 1.693628e-01 1.741197e-01 1.812217e-01 1.909399e-01 2.034478e-01 2.188694e-01 2.370295e-01 2.576765e-01 2.800581e-01 3.036993e-01 3.275951e-01 3.517023e-01 3.752601e-01 3.995836e-01 4.239661e-01 4.481800e-01 4.436847e-01 4.096909e-01 3.728957e-01 3.406492e-01 3.107710e-01 2.837530e-01 2.588529e-01 2.363101e-01 2.158481e-01 1.977461e-01 1.821035e-01 1.693139e-01 1.596570e-01 1.534783e-01 
1.525461e-01 1.539373e-01 1.591526e-01 1.679491e-01 1.800052e-01 1.949707e-01 2.124819e-01 2.323383e-01 2.543164e-01 2.786129e-01 3.050821e-01 3.344081e-01 3.659036e-01 4.012759e-01 4.373378e-01 4.531106e-01 4.348590e-01 4.103407e-01 3.860029e-01 3.624615e-01 3.383480e-01 3.140904e-01 2.898544e-01 2.664158e-01 2.444729e-01 2.247266e-01 2.076661e-01 1.935102e-01 1.822690e-01 1.737952e-01 1.678799e-01 1.643002e-01 1.628977e-01 1.636089e-01 1.664667e-01 1.716045e-01 1.792182e-01 1.895526e-01 2.027589e-01 2.189561e-01 2.379083e-01 2.593585e-01 2.824546e-01 3.067481e-01 3.310473e-01 3.553937e-01 3.787100e-01 4.024383e-01 4.257440e-01 4.501085e-01 4.487568e-01 4.162638e-01 3.793253e-01 3.465364e-01 3.160834e-01 2.885108e-01 2.630412e-01 2.399845e-01 2.190209e-01 2.004772e-01 1.844367e-01 1.713240e-01 1.614191e-01 1.550867e-01 
1.530715e-01 1.544822e-01 1.597516e-01 1.686347e-01 1.808050e-01 1.959109e-01 2.135789e-01 2.336151e-01 2.557767e-01 2.802910e-01 3.069618e-01 3.365568e-01 3.682295e-01 4.038836e-01 4.394774e-01 4.539425e-01 4.351904e-01 4.112284e-01 3.869840e-01 3.635961e-01 3.394318e-01 3.151077e-01 2.907048e-01 2.670627e-01 2.448714e-01 2.248640e-01 2.075407e-01 1.931425e-01 1.816844e-01 1.730264e-01 1.669678e-01 1.632947e-01 1.618553e-01 1.625873e-01 1.655241e-01 1.707932e-01 1.785828e-01 1.891302e-01 2.025808e-01 2.190533e-01 2.382864e-01 2.600220e-01 2.833742e-01 3.079008e-01 3.323489e-01 3.567866e-01 3.800398e-01 4.035732e-01 4.265443e-01 4.508816e-01 4.504866e-01 4.185183e-01 3.815612e-01 3.485459e-01 3.178932e-01 2.901245e-01 2.644604e-01 2.412282e-01 2.200941e-01 2.014007e-01 1.852252e-01 1.720029e-01 1.620141e-01 1.556299e-01 
1.525461e-01 1.539373e-01 1.591526e-01 1.679491e-01 1.800052e-01 1.949707e-01 2.124819e-01 2.323383e-01 2.543164e-01 2.786129e-01 3.050821e-01 3.344081e-01 3.659036e-01 4.012759e-01 4.373378e-01 4.531106e-01 4.348590e-01 4.103407e-01 3.860029e-01 3.624615e-01 3.383480e-01 3.140904e-01 2.898544e-01 2.664158e-01 2.444729e-01 2.247266e-01 2.076661e-01 1.935102e-01 1.822690e-01 1.737952e-01 1.678799e-01 1.643002e-01 1.628977e-01 1.636089e-01 1.664667e-01 1.716045e-01 1.792182e-01 1.895526e-01 2.027589e-01 2.189561e-01 2.379083e-01 2.593585e-01 2.824546e-01 3.067481e-01 3.310473e-01 3.553937e-01 3.787100e-01 4.024383e-01 4.257440e-01 4.501085e-01 4.487568e-01 4.162638e-01 3.793253e-01 3.465364e-01 3.160834e-01 2.885108e-01 2.630412e-01 2.399845e-01 2.190209e-01 2.004772e-01 1.844367e-01 1.713240e-01 1.614191e-01 1.550867e-01 
1.509922e-01 1.523299e-01 1.573905e-01 1.659372e-01 1.776644e-01 1.922262e-01 2.092882e-01 2.286338e-01 2.500976e-01 2.737930e-01 2.997249e-01 3.283241e-01 3.594048e-01 3.939805e-01 4.311580e-01 4.504200e-01 4.338296e-01 4.076390e-01 3.831037e-01 3.591507e-01 3.352050e-01 3.111832e-01 2.874704e-01 2.646513e-01 2.434455e-01 2.244691e-01 2.081681e-01 1.947191e-01 1.841132e-01 1.761804e-01 1.706839e-01 1.673768e-01 1.660830e-01 1.667335e-01 1.693628e-01 1.741197e-01 1.812217e-01 1.909399e-01 2.034478e-01 2.188694e-01 2.370295e-01 2.576765e-01 2.800581e-01 3.036993e-01 3.275951e-01 3.517023e-01 3.752601e-01 3.995836e-01 4.239661e-01 4.481800e-01 4.436847e-01 4.096909e-01 3.728957e-01 3.406492e-01 3.107710e-01 2.837530e-01 2.588529e-01 2.363101e-01 2.158481e-01 1.977461e-01 1.821035e-01 1.693139e-01 1.596570e-01 1.534783e-01 