# vtk DataFile Version 2.0
Comment goes here
ASCII

DATASET STRUCTURED_POINTS
FIELD FieldData 1
TIME 1 1 double
0.24000000
DIMENSIONS    64   64   1

ORIGIN    0.000   0.000   0.000
SPACING   0.015625 0.015625   1.000

POINT_DATA   4096
SCALARS Concentration double
LOOKUP_TABLE default

8.095904e-09 1.160191e-08 2.419849e-08 5.299341e-08 1.122158e-07 2.267323e-07 4.366782e-07 8.026081e-07 1.410085e-06 2.372570e-06 3.831414e-06 5.953066e-06 8.924424e-06 1.294970e-05 1.825219e-05 2.508515e-05 3.375340e-05 4.464479e-05 5.826675e-05 7.527887e-05 9.650754e-05 1.229149e-04 1.555386e-04 1.953609e-04 2.430481e-04 2.986092e-04 3.610114e-04 4.278444e-04 4.951564e-04 5.576052e-04 6.090125e-04 6.432973e-04 6.556085e-04 6.432860e-04 6.089865e-04 5.575671e-04 4.951080e-04 4.277918e-04 3.609570e-04 2.985581e-04 2.430019e-04 1.953221e-04 1.555076e-04 1.228919e-04 9.649179e-05 7.526910e-05 5.826171e-05 4.464312e-05 3.375406e-05 2.508708e-05 1.825474e-05 1.295230e-05 8.926807e-06 5.955037e-06 3.832960e-06 2.373696e-06 1.410871e-06 8.031225e-07 4.370006e-07 2.269222e-07 1.123224e-07 5.304947e-08 2.422601e-08 1.161307e-08 
1.079520e-08 1.543102e-08 3.205100e-08 6.991103e-08 1.474606e-07 2.967667e-07 5.692637e-07 1.042017e-06 1.823055e-06 3.054295e-06 4.910494e-06 7.594354e-06 1.132899e-05 1.635176e-05 2.291396e-05 3.129089e-05 4.180529e-05 5.486145e-05 7.098772e-05 9.087441e-05 1.153978e-04 1.455762e-04 1.824212e-04 2.269198e-04 2.797259e-04 3.407928e-04 4.089654e-04 4.816309e-04 5.545462e-04 6.220067e-04 6.774331e-04 7.143564e-04 7.276134e-04 7.143462e-04 6.774087e-04 6.219699e-04 5.544981e-04 4.815776e-04 4.089093e-04 3.407394e-04 2.796771e-04 2.268791e-04 1.823888e-04 1.455532e-04 1.153827e-04 9.086568e-05 7.098412e-05 5.486149e-05 4.180775e-05 3.129456e-05 2.291810e-05 1.635570e-05 1.133246e-05 7.597153e-06 4.912647e-06 3.055845e-06 1.824127e-06 1.042714e-06 5.696993e-07 2.970228e-07 1.476044e-07 6.998668e-08 3.208817e-08 1.544611e-08 
2.031084e-08 2.890368e-08 5.959211e-08 1.290655e-07 2.703316e-07 5.401933e-07 1.028729e-06 1.869191e-06 3.245654e-06 5.395763e-06 8.605862e-06 1.319871e-05 1.951592e-05 2.790160e-05 3.869475e-05 5.223722e-05 6.890197e-05 8.913725e-05 1.135235e-04 1.428264e-04 1.780275e-04 2.202830e-04 2.705179e-04 3.297120e-04 3.984552e-04 4.765156e-04 5.623558e-04 6.527464e-04 7.425807e-04 8.250871e-04 8.925280e-04 9.373146e-04 9.533896e-04 9.373092e-04 8.925106e-04 8.250573e-04 7.425368e-04 6.526938e-04 5.622959e-04 4.764561e-04 3.983989e-04 3.296656e-04 2.704820e-04 2.202602e-04 1.780152e-04 1.428223e-04 1.135258e-04 8.914410e-05 6.891143e-05 5.224753e-05 3.870482e-05 2.791051e-05 1.952338e-05 1.320453e-05 8.610219e-06 5.398842e-06 3.247752e-06 1.870543e-06 1.029567e-06 5.406848e-07 2.706072e-07 1.292107e-07 5.966354e-08 2.893273e-08 
4.167471e-08 5.905447e-08 1.208986e-07 2.600716e-07 5.410849e-07 1.073901e-06 2.030976e-06 3.664284e-06 6.316933e-06 1.042440e-05 1.650021e-05 2.510692e-05 3.681646e-05 5.217198e-05 7.166547e-05 9.574126e-05 1.248365e-04 1.594450e-04 2.002082e-04 2.479941e-04 3.039547e-04 3.695262e-04 4.454286e-04 5.325469e-04 6.313130e-04 7.410949e-04 8.596045e-04 9.824595e-04 1.102995e-03 1.212583e-03 1.301507e-03 1.360304e-03 1.381405e-03 1.360315e-03 1.301516e-03 1.212582e-03 1.102974e-03 9.824209e-04 8.595466e-04 7.410293e-04 6.312457e-04 5.324924e-04 4.453882e-04 3.695069e-04 3.039503e-04 2.480019e-04 2.002251e-04 1.594680e-04 1.248624e-04 9.576703e-05 7.168929e-05 5.219235e-05 3.683307e-05 2.511965e-05 1.650960e-05 1.043096e-05 6.321367e-06 3.667128e-06 2.032735e-06 1.074932e-06 5.416638e-07 2.603773e-07 1.210495e-07 5.911600e-08 
8.552720e-08 1.206978e-07 2.454136e-07 5.244699e-07 1.084153e-06 2.137761e-06 4.016288e-06 7.197594e-06 1.232342e-05 2.019489e-05 3.173722e-05 4.793599e-05 6.975442e-05 9.805368e-05 1.335456e-04 1.767908e-04 2.282690e-04 2.884849e-04 3.581278e-04 4.382077e-04 5.301732e-04 6.360795e-04 7.564968e-04 8.920644e-04 1.042940e-03 1.207834e-03 1.383112e-03 1.562329e-03 1.736046e-03 1.892383e-03 2.018277e-03 2.101120e-03 2.130880e-03 2.101183e-03 2.018377e-03 1.892486e-03 1.736118e-03 1.562357e-03 1.383089e-03 1.207776e-03 1.042864e-03 8.920037e-04 7.564547e-04 6.360727e-04 5.301868e-04 4.382416e-04 3.581759e-04 2.885421e-04 2.283293e-04 1.768489e-04 1.335981e-04 9.809801e-05 6.979018e-05 4.796316e-05 3.175713e-05 2.020873e-05 1.233273e-05 7.203551e-06 4.019969e-06 2.139920e-06 1.085368e-06 5.251133e-07 2.457321e-07 1.208282e-07 
1.721416e-07 2.419035e-07 4.884149e-07 1.036808e-06 2.129226e-06 4.170920e-06 7.784026e-06 1.385595e-05 2.356152e-05 3.834277e-05 5.982912e-05 8.970717e-05 1.295577e-04 1.807065e-04 2.441399e-04 3.205111e-04 4.102792e-04 5.139134e-04 6.321982e-04 7.664897e-04 9.190231e-04 1.093274e-03 1.290739e-03 1.511613e-03 1.755870e-03 2.021053e-03 2.300954e-03 2.585074e-03 2.858505e-03 3.102979e-03 3.298814e-03 3.427302e-03 3.473584e-03 3.427524e-03 3.299198e-03 3.103412e-03 2.858881e-03 2.585336e-03 2.301069e-03 2.021050e-03 1.755800e-03 1.511556e-03 1.290703e-03 1.093298e-03 9.190747e-04 7.665752e-04 6.323065e-04 5.140361e-04 4.104059e-04 3.206317e-04 2.442485e-04 1.807977e-04 1.296311e-04 8.976283e-05 5.986982e-05 3.837105e-05 2.358053e-05 1.386813e-05 7.791567e-06 4.175360e-06 2.131734e-06 1.038144e-06 4.890794e-07 2.421765e-07 
3.384443e-07 4.734556e-07 9.488003e-07 1.999900e-06 4.078995e-06 7.935841e-06 1.470871e-05 2.600071e-05 4.390244e-05 7.093329e-05 1.098741e-04 1.635126e-04 2.343460e-04 3.243204e-04 4.347200e-04 5.662179e-04 7.192042e-04 8.941932e-04 1.092455e-03 1.316521e-03 1.570811e-03 1.862035e-03 2.197347e-03 2.576734e-03 3.000385e-03 3.464204e-03 3.956577e-03 4.457753e-03 4.940001e-03 5.370171e-03 5.713769e-03 5.938736e-03 6.020160e-03 5.939389e-03 5.714965e-03 5.371555e-03 4.941273e-03 4.458708e-03 3.957124e-03 3.464374e-03 3.000350e-03 2.576701e-03 2.197331e-03 1.862123e-03 1.570932e-03 1.316700e-03 1.092672e-03 8.944340e-04 7.194514e-04 5.664531e-04 4.349326e-04 3.244998e-04 2.344909e-04 1.636229e-04 1.099549e-04 7.098951e-05 4.394029e-05 2.602502e-05 1.472380e-05 7.944755e-06 4.084051e-06 2.002606e-06 9.501527e-07 4.740134e-07 
6.495569e-07 9.041965e-07 1.797320e-06 3.759702e-06 7.612616e-06 1.470439e-05 2.705810e-05 4.748512e-05 7.959169e-05 1.276384e-04 1.962043e-04 2.897221e-04 4.119598e-04 5.656324e-04 7.523082e-04 9.726672e-04 1.227243e-03 1.517327e-03 1.846231e-03 2.220293e-03 2.650077e-03 3.151029e-03 3.745365e-03 4.437712e-03 5.227835e-03 6.105888e-03 7.045822e-03 8.005979e-03 8.930073e-03 9.753038e-03 1.040866e-02 1.083739e-02 1.099317e-02 1.083906e-02 1.041191e-02 9.756847e-03 8.933651e-03 8.008761e-03 7.047495e-03 6.106428e-03 5.227833e-03 4.437703e-03 3.745368e-03 3.151187e-03 2.650318e-03 2.220633e-03 1.846634e-03 1.517768e-03 1.227696e-03 9.731000e-04 7.527025e-04 5.659679e-04 4.122331e-04 2.899315e-04 1.963586e-04 1.277464e-04 7.966468e-05 4.753223e-05 2.708749e-05 1.472186e-05 7.622589e-06 3.765079e-06 1.800024e-06 9.053177e-07 
1.216921e-06 1.684728e-06 3.318919e-06 6.885427e-06 1.383319e-05 2.651698e-05 4.842697e-05 8.434392e-05 1.402926e-04 2.232336e-04 3.404311e-04 4.986386e-04 7.032877e-04 9.579824e-04 1.264673e-03 1.624425e-03 2.039202e-03 2.513671e-03 3.057808e-03 3.688551e-03 4.431931e-03 5.324200e-03 6.413572e-03 7.732760e-03 9.268714e-03 1.099536e-02 1.285098e-02 1.474038e-02 1.654291e-02 1.812910e-02 1.937792e-02 2.018738e-02 2.048188e-02 2.019104e-02 1.938556e-02 1.813828e-02 1.655177e-02 1.474739e-02 1.285524e-02 1.099642e-02 9.268439e-03 7.732638e-03 6.413485e-03 5.324422e-03 4.432353e-03 3.689162e-03 3.058525e-03 2.514442e-03 2.039993e-03 1.625184e-03 1.265373e-03 9.585858e-04 7.037857e-04 4.990244e-04 3.407179e-04 2.234357e-04 1.404300e-04 8.443309e-05 4.848283e-05 2.655038e-05 1.385235e-05 6.895823e-06 3.324177e-06 1.686919e-06 
2.225779e-06 3.062570e-06 5.973357e-06 1.228049e-05 2.446563e-05 4.652029e-05 8.428451e-05 1.456380e-04 2.403179e-04 3.793056e-04 5.736805e-04 8.333176e-04 1.165713e-03 1.575645e-03 2.066089e-03 2.640418e-03 3.306097e-03 4.078446e-03 4.985123e-03 6.068656e-03 7.389038e-03 9.022930e-03 1.106055e-02 1.359905e-02 1.657833e-02 1.989841e-02 2.339733e-02 2.688242e-02 3.014128e-02 3.296111e-02 3.514927e-02 3.655312e-02 3.706165e-02 3.655972e-02 3.516466e-02 3.298014e-02 3.016003e-02 2.689797e-02 2.340654e-02 1.989919e-02 1.657630e-02 1.359809e-02 1.105987e-02 9.023135e-03 7.389764e-03 6.069751e-03 4.986392e-03 4.079765e-03 3.307431e-03 2.641692e-03 2.067275e-03 1.576681e-03 1.166580e-03 8.339990e-04 5.741930e-04 3.796704e-04 2.405680e-04 1.458016e-04 8.438776e-05 4.658253e-05 2.450162e-05 1.230018e-05 5.983392e-06 3.066778e-06 
3.974861e-06 5.431587e-06 1.047605e-05 2.132325e-05 4.209693e-05 7.936006e-05 1.425888e-04 2.443660e-04 3.999200e-04 6.259698e-04 9.387936e-04 1.352270e-03 1.876554e-03 2.518485e-03 3.284609e-03 4.186052e-03 5.246153e-03 6.506544e-03 8.034573e-03 9.924010e-03 1.229564e-02 1.528619e-02 1.903628e-02 2.368076e-02 2.906681e-02 3.493257e-02 4.095966e-02 4.677636e-02 5.202355e-02 5.640257e-02 5.969396e-02 6.175436e-02 6.249160e-02 6.176377e-02 5.971962e-02 5.643613e-02 5.205794e-02 4.680567e-02 4.097630e-02 3.492923e-02 2.905816e-02 2.367702e-02 1.903367e-02 1.528601e-02 1.229686e-02 9.925986e-03 8.036843e-03 6.508787e-03 5.248358e-03 4.188126e-03 3.286553e-03 2.520209e-03 1.878024e-03 1.353444e-03 9.396889e-04 6.266145e-04 4.003654e-04 2.446595e-04 1.427750e-04 7.947301e-05 4.216263e-05 2.135946e-05 1.049462e-05 5.439415e-06 
6.932136e-06 9.399005e-06 1.790116e-05 3.603550e-05 7.044546e-05 1.315939e-04 2.343841e-04 3.982842e-04 6.463300e-04 1.003118e-03 1.491698e-03 2.131065e-03 2.935168e-03 3.915775e-03 5.089421e-03 6.487694e-03 8.169745e-03 1.023139e-02 1.281204e-02 1.608847e-02 2.026321e-02 2.553296e-02 3.205898e-02 3.993594e-02 4.884795e-02 5.808407e-02 6.699268e-02 7.514616e-02 8.224009e-02 8.801498e-02 9.227008e-02 9.488678e-02 9.580066e-02 9.489793e-02 9.230623e-02 8.806461e-02 8.229196e-02 7.519191e-02 6.701445e-02 5.806413e-02 4.882193e-02 3.992669e-02 3.205298e-02 2.553212e-02 2.026568e-02 1.609234e-02 1.281633e-02 1.023534e-02 8.173417e-03 6.491023e-03 5.092510e-03 3.918531e-03 2.937552e-03 2.133003e-03 1.493199e-03 1.004214e-03 6.470950e-04 3.987934e-04 2.347101e-04 1.317934e-04 7.056255e-05 3.610066e-05 1.793487e-05 9.413314e-06 
1.180814e-05 1.586951e-05 2.979721e-05 5.924828e-05 1.145910e-04 2.119893e-04 3.741613e-04 6.302924e-04 1.014130e-03 1.560677e-03 2.301598e-03 3.262527e-03 4.463984e-03 5.929015e-03 7.697587e-03 9.843436e-03 1.249275e-02 1.582999e-02 2.010004e-02 2.557763e-02 3.253655e-02 4.116731e-02 5.152780e-02 6.343602e-02 7.605808e-02 8.854324e-02 1.002512e-01 1.104773e-01 1.187256e-01 1.248900e-01 1.290635e-01 1.314339e-01 1.322121e-01 1.314455e-01 1.291056e-01 1.249559e-01 1.187916e-01 1.105207e-01 1.002598e-01 8.848793e-02 7.600268e-02 6.342688e-02 5.152241e-02 4.116792e-02 3.254277e-02 2.558553e-02 2.010823e-02 1.583695e-02 1.249883e-02 9.848708e-03 7.702409e-03 5.933344e-03 4.467787e-03 3.265675e-03 2.304071e-03 1.562506e-03 1.015419e-03 6.311565e-04 3.747175e-04 2.123319e-04 1.147932e-04 5.936167e-05 2.985628e-05 1.589473e-05 
1.965262e-05 2.615008e-05 4.831546e-05 9.475696e-05 1.811374e-04 3.316418e-04 5.798211e-04 9.680787e-04 1.544296e-03 2.356764e-03 3.447821e-03 4.852303e-03 6.602437e-03 8.744473e-03 1.136196e-02 1.460035e-02 1.868408e-02 2.391218e-02 3.063696e-02 3.919748e-02 4.984868e-02 6.263304e-02 7.733292e-02 9.367876e-02 1.105432e-01 1.256255e-01 1.370649e-01 1.445525e-01 1.488656e-01 1.511126e-01 1.521029e-01 1.524701e-01 1.525624e-01 1.524778e-01 1.521385e-01 1.511847e-01 1.489367e-01 1.445547e-01 1.370236e-01 1.255515e-01 1.104939e-01 9.371618e-02 7.734819e-02 6.264207e-02 4.986517e-02 3.921409e-02 3.065257e-02 2.392452e-02 1.869414e-02 1.460865e-02 1.136932e-02 8.751052e-03 6.608263e-03 4.857198e-03 3.451724e-03 2.359692e-03 1.546382e-03 9.694933e-04 5.807403e-04 3.322137e-04 1.814782e-04 9.495000e-05 4.841698e-05 2.619377e-05 
3.196995e-05 4.206479e-05 7.631105e-05 1.473647e-04 2.780999e-04 5.035347e-04 8.716619e-04 1.442204e-03 2.281045e-03 3.452896e-03 5.013225e-03 7.009781e-03 9.494877e-03 1.255364e-02 1.633696e-02 2.108572e-02 2.713895e-02 3.489991e-02 4.479386e-02 5.716450e-02 7.222805e-02 8.993454e-02 1.100865e-01 1.302571e-01 1.458530e-01 1.543827e-01 1.568144e-01 1.554453e-01 1.525515e-01 1.495431e-01 1.471014e-01 1.456000e-01 1.450931e-01 1.455978e-01 1.471147e-01 1.495950e-01 1.526157e-01 1.554171e-01 1.567309e-01 1.543766e-01 1.458716e-01 1.303314e-01 1.101050e-01 8.994019e-02 7.225462e-02 5.719181e-02 4.481905e-02 3.491916e-02 2.715422e-02 2.109819e-02 1.634798e-02 1.256358e-02 9.503772e-03 7.017359e-03 5.019330e-03 3.457520e-03 2.284363e-03 1.444466e-03 8.731390e-04 5.044589e-04 2.786542e-04 1.476811e-04 7.647868e-05 4.213738e-05 
5.087423e-05 6.610125e-05 1.174564e-04 2.228895e-04 4.146542e-04 7.417611e-04 1.270660e-03 2.082856e-03 3.266252e-03 4.905082e-03 7.070375e-03 9.827529e-03 1.325823e-02 1.750268e-02 2.279456e-02 2.947983e-02 3.799872e-02 4.883772e-02 6.247382e-02 7.929232e-02 9.960876e-02 1.231118e-01 1.453802e-01 1.587575e-01 1.613664e-01 1.565057e-01 1.487254e-01 1.410572e-01 1.349647e-01 1.307245e-01 1.280572e-01 1.266151e-01 1.261375e-01 1.266052e-01 1.280475e-01 1.307391e-01 1.349996e-01 1.410442e-01 1.486771e-01 1.565345e-01 1.613748e-01 1.587595e-01 1.453667e-01 1.231099e-01 9.964935e-02 7.933420e-02 6.250923e-02 4.886520e-02 3.802040e-02 2.949776e-02 2.281044e-02 1.751711e-02 1.327122e-02 9.838707e-03 7.079473e-03 4.912053e-03 3.271305e-03 2.086339e-03 1.272956e-03 7.432123e-04 4.155332e-04 2.233965e-04 1.177276e-04 6.621961e-05 
7.927120e-05 1.015656e-04 1.762782e-04 3.279117e-04 6.002750e-04 1.059570e-03 1.794755e-03 2.913634e-03 4.529972e-03 6.750378e-03 9.663487e-03 1.335666e-02 1.794874e-02 2.364399e-02 3.076318e-02 3.974631e-02 5.112322e-02 6.545730e-02 8.332988e-02 1.052800e-01 1.312255e-01 1.550144e-01 1.656120e-01 1.618949e-01 1.504599e-01 1.380294e-01 1.278941e-01 1.204769e-01 1.152862e-01 1.118278e-01 1.096997e-01 1.085594e-01 1.081840e-01 1.085456e-01 1.096826e-01 1.118285e-01 1.153061e-01 1.204961e-01 1.279098e-01 1.380577e-01 1.504527e-01 1.618865e-01 1.656310e-01 1.550582e-01 1.313000e-01 1.053503e-01 8.337654e-02 6.549177e-02 5.115079e-02 3.977083e-02 3.078587e-02 2.366520e-02 1.796797e-02 1.337327e-02 9.677017e-03 6.760768e-03 4.537518e-03 2.918852e-03 1.798207e-03 1.061763e-03 6.016113e-04 3.286881e-04 1.766965e-04 1.017490e-04 
1.211753e-04 1.528900e-04 2.584181e-04 4.698568e-04 8.443884e-04 1.468102e-03 2.456021e-03 3.946162e-03 6.081384e-03 8.992412e-03 1.278622e-02 1.757383e-02 2.351349e-02 3.087388e-02 4.005317e-02 5.157854e-02 6.606046e-02 8.421572e-02 1.068341e-01 1.343079e-01 1.598529e-01 1.692943e-01 1.608754e-01 1.446721e-01 1.291422e-01 1.168105e-01 1.075358e-01 1.008777e-01 9.639299e-02 9.356919e-02 9.194735e-02 9.113088e-02 9.087161e-02 9.111719e-02 9.193116e-02 9.356846e-02 9.641342e-02 1.009112e-01 1.075654e-01 1.168234e-01 1.291161e-01 1.446309e-01 1.608743e-01 1.693155e-01 1.599000e-01 1.343739e-01 1.068777e-01 8.425914e-02 6.609794e-02 5.161255e-02 4.008490e-02 3.090349e-02 2.354033e-02 1.759704e-02 1.280521e-02 9.007101e-03 6.092151e-03 3.953681e-03 2.461042e-03 1.471320e-03 8.463645e-04 4.710135e-04 2.590441e-04 1.531649e-04 
1.821518e-04 2.261172e-04 3.710785e-04 6.571641e-04 1.155766e-03 1.974205e-03 3.255695e-03 5.171539e-03 7.895880e-03 1.158489e-02 1.636252e-02 2.236288e-02 2.977876e-02 3.893572e-02 5.029655e-02 6.446104e-02 8.216146e-02 1.043190e-01 1.321160e-01 1.602609e-01 1.716837e-01 1.614420e-01 1.415948e-01 1.229112e-01 1.078688e-01 9.635179e-02 8.806980e-02 8.241236e-02 7.879120e-02 7.663725e-02 7.548313e-02 7.494164e-02 7.477951e-02 7.493047e-02 7.547077e-02 7.663813e-02 7.880995e-02 8.244192e-02 8.809236e-02 9.635195e-02 1.078399e-01 1.228878e-01 1.416063e-01 1.614414e-01 1.716917e-01 1.602983e-01 1.321499e-01 1.043612e-01 8.220267e-02 6.450505e-02 5.034095e-02 3.897825e-02 2.981715e-02 2.239569e-02 1.638909e-02 1.160534e-02 7.910834e-03 5.181984e-03 3.262676e-03 1.978673e-03 1.158511e-03 6.587630e-04 3.719329e-04 2.264839e-04 
2.701878e-04 3.299528e-04 5.246796e-04 9.021330e-04 1.546799e-03 2.585572e-03 4.188991e-03 6.564196e-03 9.917996e-03 1.443212e-02 2.024558e-02 2.750909e-02 3.644178e-02 4.740902e-02 6.092858e-02 7.767948e-02 9.852279e-02 1.250829e-01 1.555369e-01 1.723606e-01 1.645550e-01 1.423813e-01 1.201915e-01 1.020269e-01 8.803290e-02 7.773978e-02 7.052979e-02 6.575877e-02 6.283001e-02 6.118850e-02 6.037925e-02 6.003694e-02 5.994324e-02 6.002842e-02 6.036996e-02 6.118873e-02 6.284291e-02 6.577863e-02 7.054311e-02 7.773729e-02 8.801509e-02 1.020102e-01 1.201804e-01 1.423450e-01 1.645396e-01 1.723868e-01 1.555948e-01 1.251703e-01 9.859691e-02 7.774310e-02 6.098903e-02 4.746508e-02 3.649188e-02 2.755183e-02 2.028034e-02 1.445908e-02 9.937871e-03 6.578142e-03 4.198299e-03 2.591443e-03 1.550395e-03 9.042389e-04 5.258127e-04 3.304359e-04 
3.963072e-04 4.760314e-04 7.322602e-04 1.218942e-03 2.031233e-03 3.311977e-03 5.253249e-03 8.088727e-03 1.206256e-02 1.739028e-02 2.422158e-02 3.272191e-02 4.311997e-02 5.582377e-02 7.140554e-02 9.067961e-02 1.149453e-01 1.451193e-01 1.692105e-01 1.689806e-01 1.471272e-01 1.218952e-01 1.003501e-01 8.338298e-02 7.058449e-02 6.140151e-02 5.515428e-02 5.115777e-02 4.880663e-02 4.756344e-02 4.700428e-02 4.679726e-02 4.674896e-02 4.679104e-02 4.699725e-02 4.756255e-02 4.881402e-02 5.116957e-02 5.516186e-02 6.139865e-02 7.057037e-02 8.336416e-02 1.003265e-01 1.218584e-01 1.471030e-01 1.689746e-01 1.692806e-01 1.452333e-01 1.150359e-01 9.077331e-02 7.149523e-02 5.590328e-02 4.318799e-02 3.277817e-02 2.426656e-02 1.742473e-02 1.208775e-02 8.106015e-03 5.264791e-03 3.319398e-03 2.035828e-03 1.221653e-03 7.337261e-04 4.766564e-04 
5.757485e-04 6.803770e-04 1.011634e-03 1.626758e-03 2.626893e-03 4.164447e-03 6.446163e-03 9.727049e-03 1.427619e-02 2.033597e-02 2.809004e-02 3.771900e-02 4.945829e-02 6.375206e-02 8.135569e-02 1.029959e-01 1.304336e-01 1.596740e-01 1.711514e-01 1.554200e-01 1.282814e-01 1.034950e-01 8.321240e-02 6.745109e-02 5.583759e-02 4.767141e-02 4.223617e-02 3.883994e-02 3.689938e-02 3.591513e-02 3.550248e-02 3.536829e-02 3.534262e-02 3.536383e-02 3.549707e-02 3.591321e-02 3.690248e-02 3.884578e-02 4.223933e-02 4.766745e-02 5.582448e-02 6.743007e-02 8.318190e-02 1.034542e-01 1.282310e-01 1.553707e-01 1.711778e-01 1.597558e-01 1.305316e-01 1.030944e-01 8.144831e-02 6.384006e-02 4.953698e-02 3.778625e-02 2.814471e-02 2.037766e-02 1.430666e-02 9.748329e-03 6.460486e-03 4.173759e-03 2.632709e-03 1.630210e-03 1.013506e-03 6.811750e-04 
8.284535e-04 9.639573e-04 1.386101e-03 2.150931e-03 3.358483e-03 5.161519e-03 7.771585e-03 1.145682e-02 1.650782e-02 2.319772e-02 3.173705e-02 4.234153e-02 5.527524e-02 7.106711e-02 9.040435e-02 1.142009e-01 1.434817e-01 1.665012e-01 1.641517e-01 1.388155e-01 1.115998e-01 8.802533e-02 6.905837e-02 5.452615e-02 4.395450e-02 3.662760e-02 3.181818e-02 2.885863e-02 2.719528e-02 2.637009e-02 2.603640e-02 2.593571e-02 2.591946e-02 2.593258e-02 2.603230e-02 2.636775e-02 2.719573e-02 2.886053e-02 3.181809e-02 3.662187e-02 4.394001e-02 5.450082e-02 6.901956e-02 8.797115e-02 1.115383e-01 1.387610e-01 1.641300e-01 1.665488e-01 1.435948e-01 1.143296e-01 9.052672e-02 7.117492e-02 5.536920e-02 4.242042e-02 3.180083e-02 2.324672e-02 1.654371e-02 1.148204e-02 7.788658e-03 5.172673e-03 3.365473e-03 2.155086e-03 1.388355e-03 9.649185e-04 
1.179999e-03 1.353967e-03 1.887032e-03 2.828098e-03 4.266931e-03 6.344950e-03 9.266420e-03 1.330256e-02 1.876209e-02 2.595133e-02 3.512012e-02 4.653821e-02 6.048934e-02 7.761565e-02 9.832857e-02 1.240434e-01 1.526554e-01 1.667539e-01 1.522934e-01 1.239867e-01 9.775134e-02 7.564411e-02 5.793587e-02 4.451022e-02 3.481049e-02 2.813458e-02 2.377513e-02 2.110299e-02 1.960251e-02 1.885485e-02 1.854690e-02 1.845000e-02 1.843298e-02 1.844784e-02 1.854386e-02 1.885250e-02 1.960144e-02 2.110230e-02 2.377235e-02 2.812655e-02 3.479343e-02 4.448058e-02 5.788973e-02 7.558067e-02 9.767483e-02 1.239034e-01 1.522261e-01 1.667774e-01 1.527468e-01 1.241521e-01 9.844291e-02 7.773221e-02 6.059847e-02 4.663219e-02 3.519644e-02 2.600993e-02 1.880488e-02 1.333251e-02 9.286572e-03 6.358004e-03 4.275020e-03 2.832846e-03 1.889575e-03 1.355042e-03 
1.659358e-03 1.881779e-03 2.552322e-03 3.705568e-03 5.410028e-03 7.781756e-03 1.100326e-02 1.533632e-02 2.110266e-02 2.864167e-02 3.825984e-02 5.027751e-02 6.503268e-02 8.315998e-02 1.049898e-01 1.318685e-01 1.577081e-01 1.623789e-01 1.398827e-01 1.120962e-01 8.712571e-02 6.632785e-02 4.972331e-02 3.719240e-02 2.814920e-02 2.192500e-02 1.785062e-02 1.534097e-02 1.391613e-02 1.319005e-02 1.287533e-02 1.276560e-02 1.274265e-02 1.276411e-02 1.287307e-02 1.318789e-02 1.391433e-02 1.533885e-02 1.784632e-02 2.191584e-02 2.813151e-02 3.716221e-02 4.967642e-02 6.626369e-02 8.704942e-02 1.120279e-01 1.398459e-01 1.624193e-01 1.578169e-01 1.319870e-01 1.051126e-01 8.329314e-02 6.515925e-02 5.038695e-02 3.834755e-02 2.870810e-02 2.115041e-02 1.536916e-02 1.102488e-02 7.795378e-03 5.418193e-03 3.710192e-03 2.554716e-03 1.882769e-03 
2.295947e-03 2.580426e-03 3.425541e-03 4.843844e-03 6.870497e-03 9.580496e-03 1.311800e-02 1.772094e-02 2.371690e-02 3.147828e-02 4.138494e-02 5.380954e-02 6.919677e-02 8.804491e-02 1.108799e-01 1.381576e-01 1.599468e-01 1.558534e-01 1.295050e-01 1.028574e-01 7.927313e-02 5.964301e-02 4.398413e-02 3.213884e-02 2.355590e-02 1.761040e-02 1.368598e-02 1.124058e-02 9.826737e-03 9.083182e-03 8.740650e-03 8.608150e-03 8.576255e-03 8.607136e-03 8.739004e-03 9.081331e-03 9.824701e-03 1.123772e-02 1.368076e-02 1.760038e-02 2.353740e-02 3.210684e-02 4.393199e-02 5.956383e-02 7.916441e-02 1.027247e-01 1.293622e-01 1.557518e-01 1.600174e-01 1.383937e-01 1.111543e-01 8.828840e-02 6.939415e-02 5.395970e-02 4.149472e-02 3.155563e-02 2.376926e-02 1.775490e-02 1.313893e-02 9.592657e-03 6.877077e-03 4.847135e-03 3.427027e-03 2.580974e-03 
3.108059e-03 3.472571e-03 4.542796e-03 6.302128e-03 8.740375e-03 1.187448e-02 1.579114e-02 2.068608e-02 2.688064e-02 3.477475e-02 4.482615e-02 5.746269e-02 7.323745e-02 9.249539e-02 1.159654e-01 1.432284e-01 1.602139e-01 1.489868e-01 1.218928e-01 9.638528e-02 7.401659e-02 5.528678e-02 4.033048e-02 2.893772e-02 2.062098e-02 1.480060e-02 1.091404e-02 8.457224e-03 7.008115e-03 6.222309e-03 5.840910e-03 5.681678e-03 5.639940e-03 5.680964e-03 5.839669e-03 6.220710e-03 7.006054e-03 8.454148e-03 1.090877e-02 1.479129e-02 2.060466e-02 2.890996e-02 4.028397e-02 5.521119e-02 7.389855e-02 9.621737e-02 1.216863e-01 1.488249e-01 1.601844e-01 1.433368e-01 1.162300e-01 9.277334e-02 7.346195e-02 5.762504e-02 4.493699e-02 3.484718e-02 2.692549e-02 2.071189e-02 1.580435e-02 1.187999e-02 8.741707e-03 6.301673e-03 4.541956e-03 3.472042e-03 
4.090702e-03 4.557301e-03 5.916904e-03 8.119386e-03 1.109968e-02 1.480053e-02 1.922939e-02 2.451671e-02 3.095630e-02 3.896316e-02 4.905905e-02 6.173706e-02 7.760640e-02 9.696833e-02 1.205061e-01 1.472014e-01 1.593756e-01 1.430616e-01 1.165073e-01 9.208590e-02 7.071325e-02 5.268989e-02 3.822804e-02 2.710778e-02 1.890869e-02 1.310150e-02 9.174300e-03 6.655672e-03 5.142932e-03 4.301615e-03 3.877191e-03 3.690825e-03 3.639489e-03 3.690323e-03 3.876258e-03 4.300276e-03 5.141015e-03 6.652720e-03 9.169491e-03 1.309368e-02 1.889616e-02 2.708813e-02 3.819711e-02 5.264100e-02 7.063614e-02 9.197394e-02 1.163773e-01 1.430173e-01 1.595311e-01 1.474747e-01 1.208059e-01 9.723433e-02 7.780041e-02 6.186775e-02 4.913984e-02 3.900914e-02 3.097823e-02 2.452311e-02 1.922649e-02 1.479319e-02 1.109133e-02 8.112222e-03 5.911979e-03 4.554910e-03 
5.194274e-03 5.785395e-03 7.502776e-03 1.026400e-02 1.394642e-02 1.840775e-02 2.355537e-02 2.942574e-02 3.625256e-02 4.443688e-02 5.453468e-02 6.710074e-02 8.277286e-02 1.019434e-01 1.252963e-01 1.509542e-01 1.585403e-01 1.389669e-01 1.131007e-01 8.954514e-02 6.891323e-02 5.139844e-02 3.724570e-02 2.624976e-02 1.805610e-02 1.218332e-02 8.164577e-03 5.554367e-03 3.963683e-03 3.062440e-03 2.595874e-03 2.384538e-03 2.324637e-03 2.384158e-03 2.595126e-03 3.061273e-03 3.961921e-03 5.551704e-03 8.160631e-03 1.217788e-02 1.804940e-02 2.624310e-02 3.724207e-02 5.140310e-02 6.893537e-02 8.959419e-02 1.131884e-01 1.390568e-01 1.586666e-01 1.511781e-01 1.254587e-01 1.020336e-01 8.282450e-02 6.712669e-02 5.454024e-02 4.442729e-02 3.623207e-02 2.939893e-02 2.352638e-02 1.838041e-02 1.392348e-02 1.024698e-02 7.491969e-03 5.780357e-03 
6.317476e-03 7.047928e-03 9.172235e-03 1.258446e-02 1.711295e-02 2.253248e-02 2.863843e-02 3.534578e-02 4.278321e-02 5.128757e-02 6.139239e-02 7.368306e-02 8.881659e-02 1.073588e-01 1.301942e-01 1.544177e-01 1.581578e-01 1.366447e-01 1.112954e-01 8.833361e-02 6.816492e-02 5.096163e-02 3.696436e-02 2.599176e-02 1.773765e-02 1.176150e-02 7.631775e-03 4.922638e-03 3.254048e-03 2.296697e-03 1.792998e-03 1.560610e-03 1.493674e-03 1.560315e-03 1.792387e-03 2.295687e-03 3.252484e-03 4.920348e-03 7.628713e-03 1.175811e-02 1.773527e-02 2.599348e-02 3.697557e-02 5.099042e-02 6.821997e-02 8.841636e-02 1.113829e-01 1.366593e-01 1.580941e-01 1.543658e-01 1.301184e-01 1.072632e-01 8.873164e-02 7.360860e-02 6.132360e-02 5.122067e-02 4.271693e-02 3.528156e-02 2.857910e-02 2.248138e-02 1.707246e-02 1.255554e-02 9.154325e-03 7.039718e-03 
7.308554e-03 8.173760e-03 1.069838e-02 1.476709e-02 2.017889e-02 2.664578e-02 3.386121e-02 4.161008e-02 4.987925e-02 5.888638e-02 6.907215e-02 8.100906e-02 9.537729e-02 1.129759e-01 1.349894e-01 1.575388e-01 1.582492e-01 1.355474e-01 1.104865e-01 8.790904e-02 6.800785e-02 5.097972e-02 3.704307e-02 2.604254e-02 1.770533e-02 1.162239e-02 7.388188e-03 4.590646e-03 2.855316e-03 1.851800e-03 1.318823e-03 1.070403e-03 9.982187e-04 1.070149e-03 1.318274e-03 1.850851e-03 2.853817e-03 4.588486e-03 7.385456e-03 1.161974e-02 1.770422e-02 2.604576e-02 3.705428e-02 5.100257e-02 6.804163e-02 8.794321e-02 1.104899e-01 1.354809e-01 1.581525e-01 1.575057e-01 1.349474e-01 1.128889e-01 9.527299e-02 8.090130e-02 6.896513e-02 5.878108e-02 4.977673e-02 4.151331e-02 3.377417e-02 2.657256e-02 2.012202e-02 1.472707e-02 1.067389e-02 8.162614e-03 
7.999302e-03 8.965386e-03 1.179385e-02 1.637159e-02 2.248983e-02 2.983001e-02 3.802002e-02 4.674467e-02 5.585579e-02 6.543308e-02 7.577833e-02 8.740665e-02 1.010070e-01 1.176032e-01 1.386702e-01 1.597851e-01 1.585358e-01 1.351910e-01 1.102629e-01 8.787630e-02 6.809583e-02 5.114176e-02 3.721352e-02 2.617332e-02 1.776686e-02 1.160450e-02 7.296002e-03 4.437401e-03 2.657048e-03 1.623137e-03 1.071390e-03 8.129255e-04 7.375058e-04 8.127002e-04 1.070894e-03 1.622273e-03 2.655703e-03 4.435566e-03 7.293969e-03 1.160322e-02 1.776824e-02 2.618050e-02 3.723032e-02 5.117169e-02 6.813904e-02 8.792756e-02 1.103087e-01 1.352143e-01 1.585575e-01 1.598487e-01 1.386991e-01 1.175520e-01 1.009134e-01 8.729187e-02 7.565367e-02 6.530438e-02 5.572817e-02 4.662367e-02 3.791166e-02 2.973946e-02 2.242002e-02 1.632278e-02 1.176413e-02 8.951942e-03 
8.249958e-03 9.254328e-03 1.219940e-02 1.697575e-02 2.337644e-02 3.107785e-02 3.968941e-02 4.886077e-02 5.838561e-02 6.827389e-02 7.874288e-02 9.026045e-02 1.035061e-01 1.196175e-01 1.402075e-01 1.606991e-01 1.587009e-01 1.350853e-01 1.101830e-01 8.786592e-02 6.813349e-02 5.121074e-02 3.728756e-02 2.623386e-02 1.780218e-02 1.161056e-02 7.274647e-03 4.393555e-03 2.596748e-03 1.551853e-03 9.934334e-04 7.314517e-04 6.549098e-04 7.312262e-04 9.929295e-04 1.550955e-03 2.595314e-03 4.391527e-03 7.272216e-03 1.160851e-02 1.780200e-02 2.623806e-02 3.729871e-02 5.123098e-02 6.816135e-02 8.789762e-02 1.102099e-01 1.351104e-01 1.587829e-01 1.608560e-01 1.403037e-01 1.196101e-01 1.034381e-01 9.015857e-02 7.862220e-02 6.814401e-02 5.825405e-02 4.873486e-02 3.957620e-02 3.098315e-02 2.330342e-02 1.692469e-02 1.216831e-02 9.240254e-03 
7.999302e-03 8.965386e-03 1.179385e-02 1.637159e-02 2.248983e-02 2.983001e-02 3.802002e-02 4.674467e-02 5.585579e-02 6.543308e-02 7.577833e-02 8.740665e-02 1.010070e-01 1.176032e-01 1.386702e-01 1.597851e-01 1.585358e-01 1.351910e-01 1.102629e-01 8.787630e-02 6.809583e-02 5.114176e-02 3.721352e-02 2.617332e-02 1.776686e-02 1.160450e-02 7.296002e-03 4.437401e-03 2.657048e-03 1.623137e-03 1.071390e-03 8.129255e-04 7.375058e-04 8.127002e-04 1.070894e-03 1.622273e-03 2.655703e-03 4.435566e-03 7.293969e-03 1.160322e-02 1.776824e-02 2.618050e-02 3.723032e-02 5.117169e-02 6.813904e-02 8.792756e-02 1.103087e-01 1.352143e-01 1.585575e-01 1.598487e-01 1.386991e-01 1.175520e-01 1.009134e-01 8.729187e-02 7.565367e-02 6.530438e-02 5.572817e-02 4.662367e-02 3.791166e-02 2.973946e-02 2.242002e-02 1.632278e-02 1.176413e-02 8.951942e-03 
7.308554e-03 8.173760e-03 1.069838e-02 1.476709e-02 2.017889e-02 2.664578e-02 3.386121e-02 4.161008e-02 4.987925e-02 5.888638e-02 6.907215e-02 8.100906e-02 9.537729e-02 1.129759e-01 1.349894e-01 1.575388e-01 1.582492e-01 1.355474e-01 1.104865e-01 8.790904e-02 6.800785e-02 5.097972e-02 3.704307e-02 2.604254e-02 1.770533e-02 1.162239e-02 7.388188e-03 4.590646e-03 2.855316e-03 1.851800e-03 1.318823e-03 1.070403e-03 9.982187e-04 1.070149e-03 1.318274e-03 1.850851e-03 2.853817e-03 4.588486e-03 7.385456e-03 1.161974e-02 1.770422e-02 2.604576e-02 3.705428e-02 5.100257e-02 6.804163e-02 8.794321e-02 1.104899e-01 1.354809e-01 1.581525e-01 1.575057e-01 1.349474e-01 1.128889e-01 9.527299e-02 8.090130e-02 6.896513e-02 5.878108e-02 4.977673e-02 4.151331e-02 3.377417e-02 2.657256e-02 2.012202e-02 1.472707e-02 1.067389e-02 8.162614e-03 