# vtk DataFile Version 2.0
Comment goes here
ASCII

DATASET STRUCTURED_POINTS
FIELD FieldData 1
TIME 1 1 double
0.72000000
DIMENSIONS    64   64   1

ORIGIN    0.000   0.000   0.000
SPACING   0.015625 0.015625   1.000

POINT_DATA   4096
SCALARS Concentration double
LOOKUP_TABLE default

3.342021e-04 3.445052e-04 3.764450e-04 4.307007e-04 5.085303e-04 6.117630e-04 7.427765e-04 9.045380e-04 1.100637e-03 1.335484e-03 1.614463e-03 1.944438e-03 2.334098e-03 2.794941e-03 3.341546e-03 3.992707e-03 4.770853e-03 5.703022e-03 6.818232e-03 8.147939e-03 9.719337e-03 1.155542e-02 1.366233e-02 1.603033e-02 1.861666e-02 2.135522e-02 2.414138e-02 2.685382e-02 2.934881e-02 3.148594e-02 3.312956e-02 3.417006e-02 3.453269e-02 3.418582e-02 3.315917e-02 3.152634e-02 2.939682e-02 2.690547e-02 2.419362e-02 2.140508e-02 1.866239e-02 1.607104e-02 1.369795e-02 1.158662e-02 9.746779e-03 8.172561e-03 6.840564e-03 5.723653e-03 4.789986e-03 4.010581e-03 3.358159e-03 2.810337e-03 2.348211e-03 1.957251e-03 1.625928e-03 1.345603e-03 1.109417e-03 9.120177e-04 7.490066e-04 6.168071e-04 5.124565e-04 4.335732e-04 3.783215e-04 3.454291e-04 
3.571910e-04 3.681204e-04 4.020143e-04 4.595673e-04 5.420666e-04 6.513823e-04 7.899332e-04 9.607258e-04 1.167375e-03 1.414308e-03 1.706912e-03 2.052074e-03 2.458571e-03 2.938111e-03 3.505506e-03 4.179956e-03 4.984407e-03 5.946676e-03 7.096709e-03 8.467282e-03 1.008708e-02 1.198111e-02 1.415755e-02 1.660909e-02 1.929446e-02 2.214847e-02 2.506479e-02 2.791849e-02 3.055992e-02 3.283620e-02 3.459689e-02 3.571603e-02 3.610796e-02 3.573476e-02 3.463193e-02 3.288358e-02 3.061558e-02 2.797754e-02 2.512371e-02 2.220402e-02 1.934484e-02 1.665347e-02 1.419608e-02 1.201465e-02 1.011649e-02 8.493634e-03 7.120621e-03 5.968793e-03 5.004953e-03 4.199180e-03 3.523404e-03 2.954723e-03 2.473820e-03 2.065939e-03 1.719330e-03 1.425277e-03 1.176896e-03 9.688410e-04 7.966935e-04 6.568565e-04 5.463273e-04 4.626844e-04 4.040504e-04 3.691227e-04 
4.272321e-04 4.400646e-04 4.798981e-04 5.474754e-04 6.441791e-04 7.720090e-04 9.335184e-04 1.131844e-03 1.370688e-03 1.654548e-03 1.988820e-03 2.380460e-03 2.838402e-03 3.374865e-03 4.005313e-03 4.750113e-03 5.633675e-03 6.686066e-03 7.939862e-03 9.431702e-03 1.119457e-02 1.325944e-02 1.564054e-02 1.833795e-02 2.131547e-02 2.451138e-02 2.781526e-02 3.109109e-02 3.416820e-02 3.685802e-02 3.896638e-02 4.031928e-02 4.079821e-02 4.034697e-02 3.901780e-02 3.692649e-02 3.424709e-02 3.117269e-02 2.789466e-02 2.458425e-02 2.137992e-02 1.839336e-02 1.568775e-02 1.329998e-02 1.122988e-02 9.463288e-03 7.968585e-03 6.712734e-03 5.658556e-03 4.773495e-03 4.027166e-03 3.395223e-03 2.857145e-03 2.397551e-03 2.004154e-03 1.668116e-03 1.382476e-03 1.141899e-03 9.418961e-04 7.787938e-04 6.494586e-04 5.513374e-04 4.824199e-04 4.413061e-04 
5.481745e-04 5.642665e-04 6.142846e-04 6.990590e-04 8.201446e-04 9.797755e-04 1.180752e-03 1.426451e-03 1.720743e-03 2.068259e-03 2.474422e-03 2.946277e-03 3.492938e-03 4.127306e-03 4.865748e-03 5.730365e-03 6.747717e-03 7.951300e-03 9.377640e-03 1.106937e-02 1.306609e-02 1.540832e-02 1.811998e-02 2.121380e-02 2.466258e-02 2.841210e-02 3.234697e-02 3.631455e-02 4.010807e-02 4.348050e-02 4.616465e-02 4.790589e-02 4.852957e-02 4.794880e-02 4.624389e-02 4.358475e-02 4.022626e-02 3.643419e-02 3.246063e-02 2.851355e-02 2.474993e-02 2.128694e-02 1.818110e-02 1.546011e-02 1.311103e-02 1.110965e-02 9.414493e-03 7.985769e-03 6.780107e-03 5.760999e-03 4.894526e-03 4.154238e-03 3.517817e-03 2.969034e-03 2.494880e-03 2.086393e-03 1.736512e-03 1.439911e-03 1.191969e-03 9.888602e-04 8.272114e-04 7.042271e-04 6.176579e-04 5.659268e-04 
7.264699e-04 7.473123e-04 8.121914e-04 9.220739e-04 1.078784e-03 1.284921e-03 1.543678e-03 1.858815e-03 2.234490e-03 2.675553e-03 3.187479e-03 3.777408e-03 4.454570e-03 5.232601e-03 6.128790e-03 7.167206e-03 8.376821e-03 9.795209e-03 1.146350e-02 1.343170e-02 1.574743e-02 1.846350e-02 2.161617e-02 2.523571e-02 2.930820e-02 3.379273e-02 3.857104e-02 4.347215e-02 4.824142e-02 5.255244e-02 5.603477e-02 5.831762e-02 5.914394e-02 5.838254e-02 5.615412e-02 5.270810e-02 4.841574e-02 4.364558e-02 3.873257e-02 3.393337e-02 2.942638e-02 2.533238e-02 2.169568e-02 1.853037e-02 1.580559e-02 1.348427e-02 1.151214e-02 9.841202e-03 8.420424e-03 7.208749e-03 6.168018e-03 5.269470e-03 4.488725e-03 3.808725e-03 3.215669e-03 2.700567e-03 2.256250e-03 1.877393e-03 1.559157e-03 1.297454e-03 1.088528e-03 9.291964e-04 8.168381e-04 7.495988e-04 
9.708403e-04 9.980949e-04 1.083069e-03 1.226929e-03 1.431897e-03 1.701107e-03 2.038347e-03 2.447958e-03 2.934569e-03 3.503383e-03 4.159996e-03 4.911623e-03 5.767487e-03 6.741798e-03 7.852484e-03 9.125357e-03 1.059147e-02 1.229235e-02 1.427348e-02 1.659257e-02 1.930543e-02 2.247882e-02 2.616241e-02 3.040813e-02 3.521933e-02 4.057554e-02 4.635993e-02 5.238644e-02 5.834410e-02 6.381100e-02 6.828583e-02 7.124741e-02 7.232862e-02 7.134084e-02 6.845708e-02 6.403297e-02 5.859034e-02 5.262797e-02 4.658106e-02 4.076377e-02 3.537401e-02 3.053209e-02 2.626329e-02 2.256369e-02 1.938005e-02 1.666112e-02 1.433793e-02 1.235416e-02 1.065066e-02 9.182194e-03 7.906421e-03 6.792681e-03 5.814727e-03 4.955009e-03 4.199077e-03 3.538081e-03 2.964752e-03 2.473726e-03 2.059805e-03 1.718473e-03 1.445389e-03 1.236785e-03 1.089495e-03 1.001255e-03 
1.291921e-03 1.327450e-03 1.438402e-03 1.626228e-03 1.893721e-03 2.244781e-03 2.684073e-03 3.216813e-03 3.848391e-03 4.584605e-03 5.431320e-03 6.395850e-03 7.487187e-03 8.719787e-03 1.011155e-02 1.168922e-02 1.348480e-02 1.554268e-02 1.791121e-02 2.065483e-02 2.383602e-02 2.753536e-02 3.181529e-02 3.675083e-02 4.236452e-02 4.866419e-02 5.554186e-02 6.280688e-02 7.009377e-02 7.687717e-02 8.250113e-02 8.625808e-02 8.763990e-02 8.638614e-02 8.273538e-02 7.717923e-02 7.042589e-02 6.312818e-02 5.583130e-02 4.890526e-02 4.255855e-02 3.690362e-02 3.193914e-02 2.764059e-02 2.393045e-02 2.074368e-02 1.799644e-02 1.562573e-02 1.356516e-02 1.176695e-02 1.018562e-02 8.789850e-03 7.552308e-03 6.455694e-03 5.485216e-03 4.632435e-03 3.889968e-03 3.252277e-03 2.713576e-03 2.268633e-03 1.912233e-03 1.639738e-03 1.447203e-03 1.331776e-03 
1.701784e-03 1.747653e-03 1.891136e-03 2.134082e-03 2.480089e-03 2.934131e-03 3.502153e-03 4.190679e-03 5.006321e-03 5.955879e-03 7.045817e-03 8.283663e-03 9.677991e-03 1.124290e-02 1.299520e-02 1.496102e-02 1.717133e-02 1.967112e-02 2.250899e-02 2.575368e-02 2.947134e-02 3.375458e-02 3.867561e-02 4.433322e-02 5.076681e-02 5.801795e-02 6.599392e-02 7.451251e-02 8.316172e-02 9.131701e-02 9.815836e-02 1.027708e-01 1.044788e-01 1.029371e-01 9.846273e-02 9.170795e-02 8.358834e-02 7.491993e-02 6.635540e-02 5.831264e-02 5.099930e-02 4.451357e-02 3.882230e-02 3.388192e-02 2.958912e-02 2.586791e-02 2.262102e-02 1.978207e-02 1.727970e-02 1.506651e-02 1.309603e-02 1.133847e-02 9.766854e-03 8.365309e-03 7.119290e-03 6.021021e-03 5.062875e-03 4.238857e-03 3.542178e-03 2.966445e-03 2.505136e-03 2.152338e-03 1.903016e-03 1.753488e-03 
2.213618e-03 2.272095e-03 2.455325e-03 2.765701e-03 3.207930e-03 3.788479e-03 4.515133e-03 5.396347e-03 6.440679e-03 7.656613e-03 9.051835e-03 1.063443e-02 1.241245e-02 1.439894e-02 1.660823e-02 1.906353e-02 2.179191e-02 2.483556e-02 2.823957e-02 3.207332e-02 3.640213e-02 4.132695e-02 4.692313e-02 5.331034e-02 6.053647e-02 6.868055e-02 7.766701e-02 8.734039e-02 9.726675e-02 1.067451e-01 1.147971e-01 1.202842e-01 1.223324e-01 1.204896e-01 1.151758e-01 1.072301e-01 9.779163e-02 8.783483e-02 7.809953e-02 6.902598e-02 6.080393e-02 5.351533e-02 4.709215e-02 4.147890e-02 3.654829e-02 3.222002e-02 2.838655e-02 2.498328e-02 2.193731e-02 1.920578e-02 1.674446e-02 1.452818e-02 1.253255e-02 1.074463e-02 9.150820e-03 7.744192e-03 6.516552e-03 5.460836e-03 4.568596e-03 3.831550e-03 3.241254e-03 2.789948e-03 2.471083e-03 2.279826e-03 
2.841247e-03 2.914772e-03 3.145548e-03 3.536689e-03 4.094409e-03 4.827198e-03 5.745448e-03 6.860428e-03 8.183704e-03 9.726515e-03 1.149882e-02 1.350999e-02 1.576773e-02 1.828320e-02 2.106662e-02 2.413526e-02 2.750882e-02 3.122218e-02 3.531292e-02 3.984652e-02 4.488267e-02 5.052623e-02 5.684705e-02 6.398056e-02 7.197006e-02 8.093138e-02 9.079828e-02 1.014501e-01 1.124454e-01 1.230357e-01 1.321239e-01 1.383770e-01 1.407357e-01 1.386234e-01 1.325771e-01 1.236133e-01 1.130656e-01 1.020274e-01 9.129860e-02 8.132348e-02 7.226811e-02 6.420638e-02 5.703799e-02 5.070655e-02 4.506393e-02 4.003473e-02 3.550488e-02 3.141741e-02 2.770205e-02 2.432502e-02 2.124858e-02 1.845587e-02 1.592800e-02 1.365678e-02 1.163037e-02 9.842609e-03 8.284007e-03 6.945440e-03 5.815738e-03 4.883675e-03 4.138003e-03 3.568341e-03 3.166083e-03 2.924833e-03 
3.599021e-03 3.690202e-03 3.976852e-03 4.463018e-03 5.156906e-03 6.069701e-03 7.215405e-03 8.609302e-03 1.026749e-02 1.220555e-02 1.443737e-02 1.697485e-02 1.982597e-02 2.299930e-02 2.649933e-02 3.033399e-02 3.451191e-02 3.905590e-02 4.399254e-02 4.937875e-02 5.526434e-02 6.175152e-02 6.889235e-02 7.682799e-02 8.556177e-02 9.524340e-02 1.058020e-01 1.171708e-01 1.289358e-01 1.403413e-01 1.502282e-01 1.570956e-01 1.597206e-01 1.573840e-01 1.507552e-01 1.410093e-01 1.296447e-01 1.178237e-01 1.063671e-01 9.567968e-02 8.588761e-02 7.707185e-02 6.910664e-02 6.196671e-02 5.549043e-02 4.962083e-02 4.424267e-02 3.931270e-02 3.476702e-02 3.058530e-02 2.674048e-02 2.322808e-02 2.003795e-02 1.716844e-02 1.461028e-02 1.235755e-02 1.039831e-02 8.719721e-03 7.306366e-03 6.142521e-03 5.212942e-03 4.503588e-03 4.003115e-03 3.703048e-03 
4.501401e-03 4.612980e-03 4.964282e-03 5.560521e-03 6.412468e-03 7.534811e-03 8.946448e-03 1.066826e-02 1.272296e-02 1.513272e-02 1.791763e-02 2.109408e-02 2.467142e-02 2.865487e-02 3.304160e-02 3.782642e-02 4.300382e-02 4.857984e-02 5.456899e-02 6.101518e-02 6.795558e-02 7.548240e-02 8.361427e-02 9.248976e-02 1.020382e-01 1.124424e-01 1.235836e-01 1.354301e-01 1.476008e-01 1.593515e-01 1.695519e-01 1.766575e-01 1.794027e-01 1.769790e-01 1.701377e-01 1.600945e-01 1.483872e-01 1.361527e-01 1.242186e-01 1.129288e-01 1.023934e-01 9.274841e-02 8.385348e-02 7.574172e-02 6.823862e-02 6.132576e-02 5.489222e-02 4.891368e-02 4.333645e-02 3.815501e-02 3.335732e-02 2.895443e-02 2.494859e-02 2.134647e-02 1.814224e-02 1.532928e-02 1.289135e-02 1.080969e-02 9.062419e-03 7.627236e-03 6.483313e-03 5.611632e-03 4.997279e-03 4.629084e-03 
5.563086e-03 5.697989e-03 6.123249e-03 6.845482e-03 7.878678e-03 9.241969e-03 1.096074e-02 1.306350e-02 1.558230e-02 1.854887e-02 2.199267e-02 2.593705e-02 3.039423e-02 3.536530e-02 4.083866e-02 4.679290e-02 5.320693e-02 6.006796e-02 6.738161e-02 7.517528e-02 8.347453e-02 9.234310e-02 1.017561e-01 1.118261e-01 1.222915e-01 1.333805e-01 1.448985e-01 1.568997e-01 1.691120e-01 1.808164e-01 1.909786e-01 1.980596e-01 2.008335e-01 1.984112e-01 1.916155e-01 1.816257e-01 1.699580e-01 1.576752e-01 1.456077e-01 1.339252e-01 1.226792e-01 1.120967e-01 1.020249e-01 9.266041e-02 8.383044e-02 7.557338e-02 6.779662e-02 6.049874e-02 5.363721e-02 4.721942e-02 4.124928e-02 3.575503e-02 3.075425e-02 2.626367e-02 2.228202e-02 1.880056e-02 1.579659e-02 1.324230e-02 1.110647e-02 9.357425e-03 7.966736e-03 6.908723e-03 6.163939e-03 5.717796e-03 
6.798446e-03 6.959823e-03 7.469023e-03 8.334266e-03 9.573495e-03 1.121133e-02 1.328160e-02 1.582298e-02 1.888035e-02 2.249888e-02 2.672110e-02 3.158038e-02 3.709273e-02 4.325457e-02 5.004262e-02 5.741711e-02 6.534334e-02 7.378983e-02 8.276353e-02 9.226729e-02 1.023145e-01 1.129046e-01 1.239331e-01 1.354948e-01 1.471195e-01 1.591387e-01 1.711488e-01 1.831661e-01 1.950548e-01 2.061529e-01 2.156240e-01 2.221092e-01 2.246639e-01 2.224617e-01 2.162659e-01 2.069878e-01 1.959251e-01 1.839735e-01 1.719479e-01 1.597640e-01 1.475484e-01 1.357688e-01 1.242367e-01 1.133058e-01 1.027666e-01 9.277587e-02 8.329101e-02 7.433738e-02 6.589165e-02 5.796266e-02 5.056988e-02 4.375605e-02 3.755587e-02 3.199945e-02 2.709065e-02 2.281825e-02 1.915031e-02 1.604647e-02 1.346239e-02 1.135352e-02 9.681258e-03 8.411225e-03 7.518325e-03 6.983742e-03 
8.221597e-03 8.413023e-03 9.017290e-03 1.004439e-02 1.151697e-02 1.346631e-02 1.593701e-02 1.898097e-02 2.266027e-02 2.703808e-02 3.217432e-02 3.811518e-02 4.488039e-02 5.246026e-02 6.081642e-02 6.989252e-02 7.964713e-02 9.003958e-02 1.010912e-01 1.127722e-01 1.250769e-01 1.378552e-01 1.510160e-01 1.645848e-01 1.775013e-01 1.902670e-01 2.024159e-01 2.141115e-01 2.255779e-01 2.361438e-01 2.451186e-01 2.511415e-01 2.535372e-01 2.514924e-01 2.457605e-01 2.369859e-01 2.264010e-01 2.148796e-01 2.032830e-01 1.909628e-01 1.779749e-01 1.648851e-01 1.513992e-01 1.383857e-01 1.256561e-01 1.134234e-01 1.017590e-01 9.073171e-02 8.034129e-02 7.058584e-02 6.148982e-02 5.310236e-02 4.547362e-02 3.865025e-02 3.264369e-02 2.744043e-02 2.299738e-02 1.925725e-02 1.615841e-02 1.363883e-02 1.164669e-02 1.013637e-02 9.075907e-03 8.441348e-03 
9.845146e-03 1.007080e-02 1.078302e-02 1.199361e-02 1.373076e-02 1.603358e-02 1.896031e-02 2.257974e-02 2.697640e-02 3.223684e-02 3.844245e-02 4.565472e-02 5.389383e-02 6.314213e-02 7.334258e-02 8.443010e-02 9.637114e-02 1.091261e-01 1.227495e-01 1.371357e-01 1.522593e-01 1.676446e-01 1.830011e-01 1.984267e-01 2.129792e-01 2.275291e-01 2.412531e-01 2.533321e-01 2.641777e-01 2.735109e-01 2.812023e-01 2.862015e-01 2.882024e-01 2.865092e-01 2.817512e-01 2.741859e-01 2.648441e-01 2.540776e-01 2.422342e-01 2.283190e-01 2.135294e-01 1.987961e-01 1.835332e-01 1.683967e-01 1.530265e-01 1.379691e-01 1.235915e-01 1.099876e-01 9.723537e-02 8.529564e-02 7.418922e-02 6.395397e-02 5.464634e-02 4.633300e-02 3.903480e-02 3.274056e-02 2.739423e-02 2.291825e-02 1.922849e-02 1.624019e-02 1.388459e-02 1.210175e-02 1.085147e-02 1.010371e-02 
1.167976e-02 1.194485e-02 1.278072e-02 1.420090e-02 1.623993e-02 1.894602e-02 2.239436e-02 2.667478e-02 3.190033e-02 3.818615e-02 4.563833e-02 5.433317e-02 6.428531e-02 7.546575e-02 8.780304e-02 1.012432e-01 1.157809e-01 1.313963e-01 1.481604e-01 1.658595e-01 1.842817e-01 2.025178e-01 2.209794e-01 2.396236e-01 2.558443e-01 2.696687e-01 2.808352e-01 2.893738e-01 2.959589e-01 3.007030e-01 3.041517e-01 3.062093e-01 3.070096e-01 3.063499e-01 3.043736e-01 3.008738e-01 2.961401e-01 2.897634e-01 2.815768e-01 2.703310e-01 2.564829e-01 2.403686e-01 2.219411e-01 2.035286e-01 1.852652e-01 1.669262e-01 1.492308e-01 1.324733e-01 1.168558e-01 1.023184e-01 8.886111e-02 7.648517e-02 6.523399e-02 5.518761e-02 4.638133e-02 3.881225e-02 3.241384e-02 2.708511e-02 2.271504e-02 1.918970e-02 1.641918e-02 1.432557e-02 1.285900e-02 1.198226e-02 
1.373176e-02 1.404281e-02 1.502185e-02 1.668383e-02 1.907045e-02 2.224016e-02 2.628907e-02 3.133243e-02 3.751852e-02 4.499560e-02 5.389505e-02 6.430549e-02 7.622417e-02 8.961670e-02 1.044100e-01 1.206026e-01 1.382382e-01 1.573170e-01 1.778477e-01 1.993818e-01 2.219212e-01 2.440218e-01 2.635007e-01 2.787336e-01 2.877820e-01 2.919517e-01 2.926577e-01 2.916897e-01 2.901994e-01 2.886979e-01 2.874542e-01 2.867734e-01 2.864527e-01 2.867153e-01 2.873035e-01 2.884020e-01 2.898056e-01 2.914019e-01 2.925893e-01 2.919246e-01 2.879779e-01 2.794748e-01 2.646680e-01 2.453425e-01 2.233254e-01 2.007259e-01 1.792016e-01 1.586435e-01 1.395496e-01 1.219094e-01 1.057035e-01 9.087402e-02 7.740260e-02 6.537064e-02 5.481922e-02 4.576823e-02 3.814475e-02 3.182526e-02 2.666816e-02 2.252355e-02 1.927591e-02 1.682487e-02 1.510954e-02 1.408441e-02 
1.600214e-02 1.636761e-02 1.751458e-02 1.945887e-02 2.225007e-02 2.595783e-02 3.070351e-02 3.663198e-02 4.393316e-02 5.278978e-02 6.335501e-02 7.572061e-02 8.985520e-02 1.057369e-01 1.233324e-01 1.427539e-01 1.641155e-01 1.873320e-01 2.123354e-01 2.385206e-01 2.633284e-01 2.814170e-01 2.898229e-01 2.900149e-01 2.842838e-01 2.755177e-01 2.667426e-01 2.603498e-01 2.567590e-01 2.551404e-01 2.544598e-01 2.543279e-01 2.541266e-01 2.542225e-01 2.541972e-01 2.547191e-01 2.562537e-01 2.598886e-01 2.660439e-01 2.747739e-01 2.836950e-01 2.898599e-01 2.901030e-01 2.822706e-01 2.648156e-01 2.402223e-01 2.141002e-01 1.889909e-01 1.657264e-01 1.443414e-01 1.249035e-01 1.072680e-01 9.129884e-02 7.702959e-02 6.448969e-02 5.373089e-02 4.468679e-02 3.721518e-02 3.114417e-02 2.628104e-02 2.248039e-02 1.961454e-02 1.761022e-02 1.641259e-02 
1.848322e-02 1.891369e-02 2.025948e-02 2.253616e-02 2.580184e-02 3.013763e-02 3.569504e-02 4.265108e-02 5.124320e-02 6.168478e-02 7.414245e-02 8.870165e-02 1.052934e-01 1.239751e-01 1.448005e-01 1.681065e-01 1.939287e-01 2.220387e-01 2.514281e-01 2.768701e-01 2.907205e-01 2.910032e-01 2.809604e-01 2.656314e-01 2.516465e-01 2.413293e-01 2.343204e-01 2.296246e-01 2.269162e-01 2.256461e-01 2.250416e-01 2.248697e-01 2.246711e-01 2.247234e-01 2.247311e-01 2.252225e-01 2.264755e-01 2.292849e-01 2.337424e-01 2.408027e-01 2.511436e-01 2.648766e-01 2.801548e-01 2.906553e-01 2.911778e-01 2.782391e-01 2.534072e-01 2.240298e-01 1.958385e-01 1.699871e-01 1.466545e-01 1.257951e-01 1.070222e-01 9.028267e-02 7.551570e-02 6.281653e-02 5.213870e-02 4.333152e-02 3.619899e-02 3.049913e-02 2.605421e-02 2.270353e-02 2.036083e-02 1.896085e-02 
2.115803e-02 2.166673e-02 2.324923e-02 2.591935e-02 2.974377e-02 3.481472e-02 4.131835e-02 4.946418e-02 5.954035e-02 7.177906e-02 8.634690e-02 1.033100e-01 1.225776e-01 1.443838e-01 1.689706e-01 1.968061e-01 2.276358e-01 2.596745e-01 2.853526e-01 2.944619e-01 2.863461e-01 2.681858e-01 2.494946e-01 2.333899e-01 2.204412e-01 2.108376e-01 2.044720e-01 2.006011e-01 1.986467e-01 1.979205e-01 1.977134e-01 1.977615e-01 1.976662e-01 1.976283e-01 1.974475e-01 1.975852e-01 1.983027e-01 2.003296e-01 2.040609e-01 2.105346e-01 2.201799e-01 2.327892e-01 2.485405e-01 2.670177e-01 2.854273e-01 2.943894e-01 2.865796e-01 2.617363e-01 2.298521e-01 1.990418e-01 1.711494e-01 1.465058e-01 1.245970e-01 1.051697e-01 8.796882e-02 7.310784e-02 6.057971e-02 5.023883e-02 4.187967e-02 3.520733e-02 3.001131e-02 2.609281e-02 2.335246e-02 2.171417e-02 
2.399699e-02 2.459957e-02 2.646333e-02 2.959770e-02 3.407751e-02 4.000395e-02 4.760226e-02 5.710873e-02 6.886457e-02 8.309468e-02 9.995674e-02 1.194918e-01 1.416424e-01 1.669982e-01 1.958720e-01 2.286236e-01 2.629695e-01 2.898485e-01 2.958008e-01 2.814149e-01 2.587673e-01 2.372205e-01 2.189413e-01 2.035810e-01 1.916803e-01 1.831720e-01 1.776229e-01 1.742854e-01 1.725670e-01 1.718947e-01 1.716926e-01 1.717246e-01 1.716569e-01 1.716162e-01 1.714841e-01 1.716440e-01 1.723067e-01 1.740822e-01 1.773646e-01 1.829767e-01 1.914617e-01 2.030549e-01 2.181247e-01 2.361116e-01 2.573689e-01 2.800441e-01 2.953671e-01 2.910393e-01 2.653231e-01 2.311933e-01 1.983036e-01 1.693948e-01 1.439479e-01 1.216384e-01 1.018400e-01 8.462536e-02 7.004651e-02 5.796986e-02 4.821081e-02 4.041690e-02 3.435079e-02 2.976988e-02 2.656368e-02 2.464507e-02 
2.695890e-02 2.767357e-02 2.986911e-02 3.354673e-02 3.878822e-02 4.570019e-02 5.455010e-02 6.558990e-02 7.921332e-02 9.559977e-02 1.148951e-01 1.371154e-01 1.623122e-01 1.914762e-01 2.250675e-01 2.616493e-01 2.912483e-01 2.970494e-01 2.793293e-01 2.542501e-01 2.303397e-01 2.092648e-01 1.917944e-01 1.775197e-01 1.664363e-01 1.583888e-01 1.530238e-01 1.497704e-01 1.480644e-01 1.473769e-01 1.471831e-01 1.472239e-01 1.471876e-01 1.471484e-01 1.470391e-01 1.472059e-01 1.478792e-01 1.496142e-01 1.528346e-01 1.582111e-01 1.661951e-01 1.770426e-01 1.910548e-01 2.082043e-01 2.289684e-01 2.526396e-01 2.778237e-01 2.964965e-01 2.926276e-01 2.641439e-01 2.277236e-01 1.941017e-01 1.648609e-01 1.395078e-01 1.170087e-01 9.730154e-02 8.050866e-02 6.651001e-02 5.518147e-02 4.611338e-02 3.905167e-02 3.370653e-02 2.996003e-02 2.771439e-02 
2.998830e-02 3.083565e-02 3.341714e-02 3.771973e-02 4.383113e-02 5.185539e-02 6.210690e-02 7.482588e-02 9.046932e-02 1.090932e-01 1.308838e-01 1.557473e-01 1.839104e-01 2.171889e-01 2.550280e-01 2.889931e-01 2.991168e-01 2.814428e-01 2.543329e-01 2.284063e-01 2.054694e-01 1.854851e-01 1.687556e-01 1.550621e-01 1.444184e-01 1.365948e-01 1.312384e-01 1.278519e-01 1.259243e-01 1.249976e-01 1.246136e-01 1.245277e-01 1.244696e-01 1.244774e-01 1.245168e-01 1.248812e-01 1.257894e-01 1.277227e-01 1.310726e-01 1.363957e-01 1.441190e-01 1.545610e-01 1.680159e-01 1.844774e-01 2.041846e-01 2.268874e-01 2.526248e-01 2.797164e-01 2.987279e-01 2.907530e-01 2.578204e-01 2.202121e-01 1.868396e-01 1.584279e-01 1.332410e-01 1.109446e-01 9.184791e-02 7.577130e-02 6.273060e-02 5.224352e-02 4.406429e-02 3.785268e-02 3.348847e-02 3.086710e-02 
3.301916e-02 3.401979e-02 3.703626e-02 4.203874e-02 4.911422e-02 5.836309e-02 7.013723e-02 8.465393e-02 1.024147e-01 1.233010e-01 1.475719e-01 1.749877e-01 2.060317e-01 2.437692e-01 2.818331e-01 3.010972e-01 2.876476e-01 2.596346e-01 2.320781e-01 2.072440e-01 1.852618e-01 1.660715e-01 1.498987e-01 1.365851e-01 1.260618e-01 1.181293e-01 1.124773e-01 1.087103e-01 1.063795e-01 1.050891e-01 1.044310e-01 1.041708e-01 1.040680e-01 1.041377e-01 1.043654e-01 1.050047e-01 1.062699e-01 1.085836e-01 1.122991e-01 1.178858e-01 1.256955e-01 1.360330e-01 1.491198e-01 1.650392e-01 1.839618e-01 2.057147e-01 2.303147e-01 2.576730e-01 2.859145e-01 3.012054e-01 2.841450e-01 2.469704e-01 2.091439e-01 1.777701e-01 1.500373e-01 1.251945e-01 1.037809e-01 8.555083e-02 7.069508e-02 5.868441e-02 4.928694e-02 4.212411e-02 3.707475e-02 3.403492e-02 
3.597580e-02 3.714641e-02 4.063641e-02 4.639594e-02 5.450243e-02 6.504951e-02 7.841219e-02 9.476886e-02 1.146483e-01 1.376704e-01 1.642958e-01 1.937493e-01 2.280142e-01 2.685977e-01 2.995359e-01 2.972819e-01 2.697595e-01 2.410232e-01 2.146232e-01 1.908784e-01 1.697361e-01 1.512017e-01 1.353429e-01 1.221055e-01 1.114262e-01 1.031494e-01 9.701547e-02 9.270292e-02 8.982461e-02 8.804280e-02 8.700506e-02 8.649901e-02 8.632183e-02 8.647453e-02 8.695421e-02 8.797081e-02 8.972113e-02 9.256563e-02 9.681398e-02 1.028619e-01 1.110051e-01 1.215067e-01 1.345279e-01 1.501470e-01 1.684277e-01 1.893228e-01 2.128507e-01 2.390318e-01 2.677481e-01 2.958411e-01 3.005755e-01 2.715453e-01 2.312538e-01 1.965615e-01 1.667898e-01 1.394938e-01 1.158919e-01 9.553132e-02 7.884038e-02 6.526037e-02 5.458475e-02 4.641412e-02 4.062992e-02 3.713928e-02 
3.877891e-02 4.013009e-02 4.411564e-02 5.066284e-02 5.982790e-02 7.169775e-02 8.664610e-02 1.048126e-01 1.267131e-01 1.516581e-01 1.803946e-01 2.111579e-01 2.492814e-01 2.887210e-01 3.045454e-01 2.845455e-01 2.550354e-01 2.272412e-01 2.022081e-01 1.793494e-01 1.588687e-01 1.406694e-01 1.248710e-01 1.114511e-01 1.003843e-01 9.156641e-02 8.479099e-02 7.980985e-02 7.629268e-02 7.395375e-02 7.248991e-02 7.171112e-02 7.144663e-02 7.168969e-02 7.244387e-02 7.388284e-02 7.618525e-02 7.965800e-02 8.456794e-02 9.124991e-02 9.993480e-02 1.108351e-01 1.240513e-01 1.396220e-01 1.575694e-01 1.777977e-01 2.004127e-01 2.252095e-01 2.528673e-01 2.821985e-01 3.042965e-01 2.911043e-01 2.527359e-01 2.142497e-01 1.828522e-01 1.533133e-01 1.277177e-01 1.053607e-01 8.688707e-02 7.176103e-02 5.979514e-02 5.059819e-02 4.405476e-02 4.009626e-02 
4.134606e-02 4.288082e-02 4.736180e-02 5.469315e-02 6.489638e-02 7.806029e-02 9.452149e-02 1.144308e-01 1.381863e-01 1.650088e-01 1.955225e-01 2.276496e-01 2.681720e-01 3.021832e-01 3.016991e-01 2.723951e-01 2.446888e-01 2.181306e-01 1.942562e-01 1.721079e-01 1.520353e-01 1.339377e-01 1.179669e-01 1.041709e-01 9.256135e-02 8.309061e-02 7.559951e-02 6.989724e-02 6.570796e-02 6.278843e-02 6.088125e-02 5.981893e-02 5.946158e-02 5.979809e-02 6.083613e-02 6.271632e-02 6.559816e-02 6.974049e-02 7.537394e-02 8.277747e-02 9.212967e-02 1.035955e-01 1.172144e-01 1.329863e-01 1.508498e-01 1.706773e-01 1.925342e-01 2.161560e-01 2.423588e-01 2.699774e-01 3.001461e-01 3.034252e-01 2.711938e-01 2.305448e-01 1.973866e-01 1.661906e-01 1.387657e-01 1.146688e-01 9.451958e-02 7.794395e-02 6.472880e-02 5.453350e-02 4.723932e-02 4.281677e-02 
4.359676e-02 4.530687e-02 5.025504e-02 5.832347e-02 6.948691e-02 8.384776e-02 1.016652e-01 1.231731e-01 1.485059e-01 1.771604e-01 2.089273e-01 2.430497e-01 2.830583e-01 3.082300e-01 2.947920e-01 2.643199e-01 2.379171e-01 2.129300e-01 1.898902e-01 1.683149e-01 1.484031e-01 1.302155e-01 1.139136e-01 9.962832e-02 8.740472e-02 7.724722e-02 6.903710e-02 6.262774e-02 5.779113e-02 5.431896e-02 5.199212e-02 5.066323e-02 5.021778e-02 5.064264e-02 5.194787e-02 5.424794e-02 5.768506e-02 6.247906e-02 6.883031e-02 7.696981e-02 8.703538e-02 9.915183e-02 1.133047e-01 1.294602e-01 1.474673e-01 1.671887e-01 1.885159e-01 2.113518e-01 2.360038e-01 2.624575e-01 2.927485e-01 3.084353e-01 2.853856e-01 2.452244e-01 2.099481e-01 1.777197e-01 1.486274e-01 1.230842e-01 1.014187e-01 8.354912e-02 6.918393e-02 5.806800e-02 5.007073e-02 4.521242e-02 
4.545393e-02 4.731965e-02 5.267707e-02 6.138924e-02 7.337853e-02 8.876709e-02 1.077154e-01 1.305673e-01 1.571430e-01 1.873244e-01 2.199676e-01 2.561441e-01 2.942190e-01 3.098402e-01 2.877343e-01 2.595408e-01 2.339912e-01 2.104383e-01 1.880271e-01 1.668774e-01 1.469729e-01 1.285993e-01 1.119015e-01 9.711168e-02 8.429189e-02 7.349718e-02 6.463673e-02 5.759966e-02 5.219364e-02 4.823895e-02 4.554715e-02 4.398739e-02 4.346575e-02 4.396794e-02 4.550600e-02 4.817387e-02 5.209962e-02 5.747259e-02 6.446824e-02 7.328246e-02 8.402025e-02 9.677980e-02 1.114960e-01 1.281198e-01 1.463970e-01 1.662086e-01 1.872243e-01 2.095336e-01 2.328985e-01 2.583577e-01 2.859314e-01 3.090325e-01 2.958286e-01 2.577268e-01 2.205439e-01 1.874958e-01 1.569746e-01 1.302316e-01 1.072711e-01 8.830836e-02 7.295330e-02 6.104495e-02 5.243504e-02 4.719649e-02 
4.684774e-02 4.883609e-02 5.451419e-02 6.372927e-02 7.635676e-02 9.253544e-02 1.123379e-01 1.361937e-01 1.636805e-01 1.949220e-01 2.282566e-01 2.656490e-01 3.015049e-01 3.089378e-01 2.828155e-01 2.569184e-01 2.322607e-01 2.097334e-01 1.877087e-01 1.668104e-01 1.468067e-01 1.282177e-01 1.111441e-01 9.591674e-02 8.259983e-02 7.128930e-02 6.191182e-02 5.438213e-02 4.853183e-02 4.420262e-02 4.122837e-02 3.949065e-02 3.891041e-02 3.947290e-02 4.119143e-02 4.414563e-02 4.845286e-02 5.428093e-02 6.178621e-02 7.114190e-02 8.242918e-02 9.573046e-02 1.109393e-01 1.280055e-01 1.465734e-01 1.665627e-01 1.874051e-01 2.093616e-01 2.317269e-01 2.560906e-01 2.813608e-01 3.077431e-01 3.025453e-01 2.669602e-01 2.288177e-01 1.949964e-01 1.634156e-01 1.357228e-01 1.117671e-01 9.196067e-02 7.583920e-02 6.331566e-02 5.422677e-02 4.869018e-02 
4.771796e-02 4.978588e-02 5.567052e-02 6.520876e-02 7.824325e-02 9.492470e-02 1.152661e-01 1.397512e-01 1.678166e-01 1.996881e-01 2.335279e-01 2.713457e-01 3.054586e-01 3.079114e-01 2.803170e-01 2.556881e-01 2.317074e-01 2.097798e-01 1.879590e-01 1.671806e-01 1.470768e-01 1.283244e-01 1.109863e-01 9.546331e-02 8.181636e-02 7.017053e-02 6.045958e-02 5.261482e-02 4.648107e-02 4.191349e-02 3.875976e-02 3.690926e-02 3.629207e-02 3.689317e-02 3.872680e-02 4.186394e-02 4.641530e-02 5.253553e-02 6.036907e-02 7.007689e-02 8.172489e-02 9.538939e-02 1.109354e-01 1.283157e-01 1.471015e-01 1.672418e-01 1.880078e-01 2.097564e-01 2.314990e-01 2.550392e-01 2.790863e-01 3.066860e-01 3.063472e-01 2.726368e-01 2.341929e-01 1.997595e-01 1.675304e-01 1.392106e-01 1.146219e-01 9.427595e-02 7.766513e-02 6.474851e-02 5.535226e-02 4.962433e-02 
4.801746e-02 5.011290e-02 5.606951e-02 6.571993e-02 7.889621e-02 9.575132e-02 1.162813e-01 1.409815e-01 1.692544e-01 2.013349e-01 2.353954e-01 2.732881e-01 3.067065e-01 3.073504e-01 2.794362e-01 2.552597e-01 2.315745e-01 2.098674e-01 1.881170e-01 1.673779e-01 1.472328e-01 1.284194e-01 1.109850e-01 9.535694e-02 8.159359e-02 6.983129e-02 6.000541e-02 5.205245e-02 4.582130e-02 4.117154e-02 3.795593e-02 3.606647e-02 3.543654e-02 3.605098e-02 3.792440e-02 4.112465e-02 4.576022e-02 5.198091e-02 5.992717e-02 6.975633e-02 8.152940e-02 9.532158e-02 1.109865e-01 1.284797e-01 1.473442e-01 1.675418e-01 1.882827e-01 2.099604e-01 2.314798e-01 2.546927e-01 2.783027e-01 3.061148e-01 3.075974e-01 2.746141e-01 2.361107e-01 2.014132e-01 1.689672e-01 1.404223e-01 1.156153e-01 9.507956e-02 7.829887e-02 6.524477e-02 5.574143e-02 4.994641e-02 
4.771796e-02 4.978588e-02 5.567052e-02 6.520876e-02 7.824325e-02 9.492470e-02 1.152661e-01 1.397512e-01 1.678166e-01 1.996881e-01 2.335279e-01 2.713457e-01 3.054586e-01 3.079114e-01 2.803170e-01 2.556881e-01 2.317074e-01 2.097798e-01 1.879590e-01 1.671806e-01 1.470768e-01 1.283244e-01 1.109863e-01 9.546331e-02 8.181636e-02 7.017053e-02 6.045958e-02 5.261482e-02 4.648107e-02 4.191349e-02 3.875976e-02 3.690926e-02 3.629207e-02 3.689317e-02 3.872680e-02 4.186394e-02 4.641530e-02 5.253553e-02 6.036907e-02 7.007689e-02 8.172489e-02 9.538939e-02 1.109354e-01 1.283157e-01 1.471015e-01 1.672418e-01 1.880078e-01 2.097564e-01 2.314990e-01 2.550392e-01 2.790863e-01 3.066860e-01 3.063472e-01 2.726368e-01 2.341929e-01 1.997595e-01 1.675304e-01 1.392106e-01 1.146219e-01 9.427595e-02 7.766513e-02 6.474851e-02 5.535226e-02 4.962433e-02 
4.684774e-02 4.883609e-02 5.451419e-02 6.372927e-02 7.635676e-02 9.253544e-02 1.123379e-01 1.361937e-01 1.636805e-01 1.949220e-01 2.282566e-01 2.656490e-01 3.015049e-01 3.089378e-01 2.828155e-01 2.569184e-01 2.322607e-01 2.097334e-01 1.877087e-01 1.668104e-01 1.468067e-01 1.282177e-01 1.111441e-01 9.591674e-02 8.259983e-02 7.128930e-02 6.191182e-02 5.438213e-02 4.853183e-02 4.420262e-02 4.122837e-02 3.949065e-02 3.891041e-02 3.947290e-02 4.119143e-02 4.414563e-02 4.845286e-02 5.428093e-02 6.178621e-02 7.114190e-02 8.242918e-02 9.573046e-02 1.109393e-01 1.280055e-01 1.465734e-01 1.665627e-01 1.874051e-01 2.093616e-01 2.317269e-01 2.560906e-01 2.813608e-01 3.077431e-01 3.025453e-01 2.669602e-01 2.288177e-01 1.949964e-01 1.634156e-01 1.357228e-01 1.117671e-01 9.196067e-02 7.583920e-02 6.331566e-02 5.422677e-02 4.869018e-02 