# vtk DataFile Version 2.0
Comment goes here
ASCII

DATASET STRUCTURED_POINTS
FIELD FieldData 1
TIME 1 1 double
1.58000000
DIMENSIONS    64   64   1

ORIGIN    0.000   0.000   0.000
SPACING   0.015625 0.015625   1.000

POINT_DATA   4096
SCALARS Concentration double
LOOKUP_TABLE default

9.935807e-03 1.001333e-02 1.029419e-02 1.078906e-02 1.151624e-02 1.250166e-02 1.377893e-02 1.538889e-02 1.737928e-02 1.980246e-02 2.271388e-02 2.616723e-02 3.021151e-02 3.488279e-02 4.020142e-02 4.616241e-02 5.273653e-02 5.986242e-02 6.745473e-02 7.539919e-02 8.356754e-02 9.181400e-02 9.999331e-02 1.079555e-01 1.155613e-01 1.226713e-01 1.291598e-01 1.349067e-01 1.398069e-01 1.437642e-01 1.466987e-01 1.485440e-01 1.492518e-01 1.487928e-01 1.471813e-01 1.444567e-01 1.406775e-01 1.359206e-01 1.302804e-01 1.238642e-01 1.167959e-01 1.092062e-01 1.012400e-01 9.304114e-02 8.476355e-02 7.655444e-02 6.856131e-02 6.091316e-02 5.372494e-02 4.708296e-02 4.104960e-02 3.565583e-02 3.090824e-02 2.678838e-02 2.326165e-02 2.028016e-02 1.779093e-02 1.573858e-02 1.407075e-02 1.273923e-02 1.170268e-02 1.092672e-02 1.038488e-02 1.005831e-02 
1.009620e-02 1.017344e-02 1.045418e-02 1.094914e-02 1.167669e-02 1.266291e-02 1.394153e-02 1.555358e-02 1.754708e-02 1.997482e-02 2.289280e-02 2.635553e-02 3.041299e-02 3.510254e-02 4.044603e-02 4.644010e-02 5.305726e-02 6.023766e-02 6.789738e-02 7.592290e-02 8.418652e-02 9.254200e-02 1.008436e-01 1.089401e-01 1.166913e-01 1.239532e-01 1.305954e-01 1.364918e-01 1.415306e-01 1.456085e-01 1.486380e-01 1.505462e-01 1.512797e-01 1.508069e-01 1.491432e-01 1.463323e-01 1.424387e-01 1.375467e-01 1.317584e-01 1.251883e-01 1.179667e-01 1.102294e-01 1.021261e-01 9.380244e-02 8.541329e-02 7.710642e-02 6.902969e-02 6.131162e-02 5.406635e-02 4.737890e-02 4.131011e-02 3.588934e-02 3.112154e-02 2.698680e-02 2.344923e-02 2.045992e-02 1.796506e-02 1.590866e-02 1.423790e-02 1.290425e-02 1.186616e-02 1.108906e-02 1.054637e-02 1.021916e-02 
1.058087e-02 1.065719e-02 1.093758e-02 1.143280e-02 1.216142e-02 1.314982e-02 1.443219e-02 1.605010e-02 1.805232e-02 2.049295e-02 2.342969e-02 2.691929e-02 3.101475e-02 3.575714e-02 4.117277e-02 4.726318e-02 5.400601e-02 6.134615e-02 6.920379e-02 7.746823e-02 8.601307e-02 9.469157e-02 1.033556e-01 1.118501e-01 1.200296e-01 1.277384e-01 1.348319e-01 1.411670e-01 1.466124e-01 1.510437e-01 1.543516e-01 1.564443e-01 1.572530e-01 1.567399e-01 1.549232e-01 1.518593e-01 1.476295e-01 1.423411e-01 1.361174e-01 1.290949e-01 1.214224e-01 1.132509e-01 1.047426e-01 9.604961e-02 8.733078e-02 7.873586e-02 7.041337e-02 6.249035e-02 5.507824e-02 4.825807e-02 4.208611e-02 3.658681e-02 3.176036e-02 2.758248e-02 2.401354e-02 2.100158e-02 1.849041e-02 1.642226e-02 1.474298e-02 1.340310e-02 1.236038e-02 1.157982e-02 1.103449e-02 1.070527e-02 
1.140065e-02 1.147547e-02 1.175539e-02 1.225121e-02 1.298178e-02 1.397397e-02 1.526266e-02 1.689037e-02 1.890712e-02 2.136900e-02 2.433650e-02 2.787006e-02 3.202761e-02 3.685628e-02 4.238970e-02 4.863740e-02 5.558548e-02 6.318659e-02 7.136773e-02 8.002242e-02 8.902657e-02 9.823161e-02 1.074856e-01 1.166251e-01 1.254947e-01 1.339201e-01 1.417353e-01 1.487708e-01 1.548655e-01 1.598620e-01 1.636165e-01 1.660060e-01 1.669369e-01 1.663600e-01 1.642986e-01 1.608297e-01 1.560623e-01 1.501400e-01 1.432209e-01 1.354752e-01 1.270801e-01 1.182103e-01 1.090476e-01 9.975489e-02 9.049944e-02 8.143453e-02 7.271043e-02 6.445197e-02 5.676647e-02 4.972862e-02 4.338727e-02 3.775894e-02 3.283599e-02 2.858708e-02 2.496641e-02 2.191706e-02 1.937891e-02 1.729125e-02 1.559775e-02 1.424735e-02 1.319674e-02 1.241020e-02 1.186027e-02 1.152752e-02 
1.257357e-02 1.264624e-02 1.292560e-02 1.342248e-02 1.415604e-02 1.515368e-02 1.645124e-02 1.809248e-02 2.012929e-02 2.261994e-02 2.562885e-02 2.922150e-02 3.346242e-02 3.840691e-02 4.409855e-02 5.055777e-02 5.778226e-02 6.573529e-02 7.435309e-02 8.353498e-02 9.315929e-02 1.030749e-01 1.131233e-01 1.231295e-01 1.329227e-01 1.423050e-01 1.510825e-01 1.590521e-01 1.660140e-01 1.717677e-01 1.761227e-01 1.789130e-01 1.800098e-01 1.793488e-01 1.769589e-01 1.729456e-01 1.674561e-01 1.606848e-01 1.528360e-01 1.441251e-01 1.347663e-01 1.249644e-01 1.149261e-01 1.048290e-01 9.485232e-02 8.515466e-02 7.588910e-02 6.717782e-02 5.912293e-02 5.179070e-02 4.522007e-02 3.941688e-02 3.436297e-02 3.001745e-02 2.632623e-02 2.322567e-02 2.065034e-02 1.853556e-02 1.682193e-02 1.545642e-02 1.439434e-02 1.359896e-02 1.304214e-02 1.270411e-02 
1.412463e-02 1.419456e-02 1.447354e-02 1.497239e-02 1.571055e-02 1.671590e-02 1.802550e-02 1.968451e-02 2.174718e-02 2.427484e-02 2.733592e-02 3.100218e-02 3.534642e-02 4.043406e-02 4.632095e-02 5.304116e-02 6.060684e-02 6.899451e-02 7.815183e-02 8.798467e-02 9.837386e-02 1.091631e-01 1.201847e-01 1.312465e-01 1.421572e-01 1.526897e-01 1.626189e-01 1.717047e-01 1.797063e-01 1.863738e-01 1.914607e-01 1.947438e-01 1.960472e-01 1.952867e-01 1.924972e-01 1.878215e-01 1.814578e-01 1.736647e-01 1.647022e-01 1.548364e-01 1.443229e-01 1.333988e-01 1.223003e-01 1.112232e-01 1.003634e-01 8.988722e-02 7.995294e-02 7.068067e-02 6.216686e-02 5.446810e-02 4.761127e-02 4.158933e-02 3.637106e-02 3.190387e-02 2.812333e-02 2.495752e-02 2.233434e-02 2.018396e-02 1.844362e-02 1.705777e-02 1.597999e-02 1.517223e-02 1.460567e-02 1.426023e-02 
1.608457e-02 1.615116e-02 1.643025e-02 1.693257e-02 1.767777e-02 1.869398e-02 2.001961e-02 2.170134e-02 2.379604e-02 2.636860e-02 2.949261e-02 3.324599e-02 3.771081e-02 4.296480e-02 4.907804e-02 5.610047e-02 6.406134e-02 7.295269e-02 8.273549e-02 9.332283e-02 1.045971e-01 1.163948e-01 1.285350e-01 1.408044e-01 1.529868e-01 1.648222e-01 1.760523e-01 1.864002e-01 1.955819e-01 2.032955e-01 2.092281e-01 2.130867e-01 2.146344e-01 2.137635e-01 2.105123e-01 2.050711e-01 1.977008e-01 1.887408e-01 1.785141e-01 1.673440e-01 1.555285e-01 1.433366e-01 1.310359e-01 1.188411e-01 1.069685e-01 9.559455e-02 8.488561e-02 7.496071e-02 6.591121e-02 5.778312e-02 5.058996e-02 4.430993e-02 3.889686e-02 3.428456e-02 3.039672e-02 2.715134e-02 2.446862e-02 2.227346e-02 2.049889e-02 1.908635e-02 1.798745e-02 1.716263e-02 1.658256e-02 1.622693e-02 
1.848943e-02 1.855221e-02 1.883262e-02 1.934110e-02 2.009740e-02 2.112954e-02 2.247721e-02 2.418866e-02 2.632348e-02 2.895048e-02 3.214898e-02 3.600446e-02 4.060865e-02 4.605140e-02 5.241982e-02 5.978198e-02 6.818649e-02 7.764347e-02 8.812886e-02 9.956328e-02 1.118295e-01 1.247526e-01 1.381341e-01 1.517319e-01 1.652974e-01 1.785304e-01 1.911396e-01 2.028171e-01 2.132506e-01 2.220930e-01 2.289615e-01 2.334711e-01 2.353037e-01 2.343147e-01 2.305474e-01 2.242572e-01 2.157900e-01 2.055819e-01 1.940204e-01 1.814758e-01 1.682799e-01 1.547273e-01 1.411205e-01 1.276966e-01 1.146991e-01 1.023196e-01 9.073709e-02 8.007255e-02 7.041293e-02 6.179409e-02 5.421461e-02 4.763678e-02 4.199740e-02 3.721516e-02 3.319932e-02 2.985769e-02 2.710212e-02 2.485099e-02 2.303252e-02 2.158479e-02 2.045734e-02 1.960897e-02 1.901021e-02 1.864067e-02 
2.137750e-02 2.143618e-02 2.172005e-02 2.223905e-02 2.301276e-02 2.406877e-02 2.544742e-02 2.719860e-02 2.938461e-02 3.207815e-02 3.536471e-02 3.933788e-02 4.410042e-02 4.975543e-02 5.640587e-02 6.413969e-02 7.302875e-02 8.310274e-02 9.435483e-02 1.067131e-01 1.200588e-01 1.342016e-01 1.489194e-01 1.639367e-01 1.789643e-01 1.936576e-01 2.076938e-01 2.207415e-01 2.324669e-01 2.424922e-01 2.503600e-01 2.555779e-01 2.577316e-01 2.566224e-01 2.522994e-01 2.450994e-01 2.354693e-01 2.239614e-01 2.110238e-01 1.970713e-01 1.824584e-01 1.674941e-01 1.525151e-01 1.377814e-01 1.235712e-01 1.100960e-01 9.755456e-02 8.607255e-02 7.573513e-02 6.656803e-02 5.855439e-02 5.163968e-02 4.574105e-02 4.076075e-02 3.659415e-02 3.313748e-02 3.029280e-02 2.797131e-02 2.609593e-02 2.460128e-02 2.343463e-02 2.255359e-02 2.192890e-02 2.154033e-02 
2.478840e-02 2.484308e-02 2.513409e-02 2.567054e-02 2.647159e-02 2.756384e-02 2.898741e-02 3.079371e-02 3.304755e-02 3.582544e-02 3.921914e-02 4.333073e-02 4.827458e-02 5.416846e-02 6.113319e-02 6.927734e-02 7.869488e-02 8.944079e-02 1.015287e-01 1.148957e-01 1.294194e-01 1.448881e-01 1.610508e-01 1.775854e-01 1.941466e-01 2.103226e-01 2.257483e-01 2.400820e-01 2.530209e-01 2.642041e-01 2.731142e-01 2.791128e-01 2.816413e-01 2.804037e-01 2.754696e-01 2.673063e-01 2.565078e-01 2.437635e-01 2.295497e-01 2.142719e-01 1.982755e-01 1.818732e-01 1.654540e-01 1.493141e-01 1.337822e-01 1.191005e-01 1.054952e-01 9.310282e-02 8.200661e-02 7.222382e-02 6.371895e-02 5.641826e-02 5.021946e-02 4.500783e-02 4.066230e-02 3.706606e-02 3.411032e-02 3.169845e-02 2.974778e-02 2.818954e-02 2.696841e-02 2.604173e-02 2.538095e-02 2.496632e-02 
2.875770e-02 2.880894e-02 2.911271e-02 2.967695e-02 3.051990e-02 3.166654e-02 3.315603e-02 3.504018e-02 3.738639e-02 4.027464e-02 4.380293e-02 4.808186e-02 5.323791e-02 5.940395e-02 6.672042e-02 7.531834e-02 8.531831e-02 9.680020e-02 1.098012e-01 1.242691e-01 1.400776e-01 1.569849e-01 1.747004e-01 1.928501e-01 2.110084e-01 2.286881e-01 2.454936e-01 2.610746e-01 2.751492e-01 2.874200e-01 2.973330e-01 3.041010e-01 3.070062e-01 3.056431e-01 3.001083e-01 2.910156e-01 2.791104e-01 2.652196e-01 2.498077e-01 2.332713e-01 2.159338e-01 1.980815e-01 1.801587e-01 1.625113e-01 1.455389e-01 1.295247e-01 1.147379e-01 1.013283e-01 8.938036e-02 7.890018e-02 6.983407e-02 6.208981e-02 5.554235e-02 5.005801e-02 4.549695e-02 4.172837e-02 3.863141e-02 3.610128e-02 3.404945e-02 3.240370e-02 3.110669e-02 3.011633e-02 2.940542e-02 2.895524e-02 
3.331544e-02 3.336454e-02 3.368944e-02 3.429634e-02 3.520218e-02 3.642938e-02 3.801564e-02 4.001099e-02 4.248599e-02 4.552350e-02 4.922762e-02 5.371760e-02 5.913213e-02 6.562010e-02 7.334239e-02 8.245593e-02 9.311154e-02 1.054227e-01 1.194553e-01 1.351725e-01 1.524367e-01 1.709678e-01 1.904295e-01 2.103780e-01 2.302896e-01 2.495450e-01 2.676392e-01 2.842086e-01 2.991083e-01 3.122465e-01 3.231095e-01 3.307038e-01 3.340443e-01 3.325305e-01 3.263185e-01 3.162937e-01 3.034500e-01 2.887487e-01 2.724912e-01 2.549201e-01 2.362858e-01 2.168844e-01 1.972932e-01 1.779361e-01 1.593109e-01 1.417626e-01 1.256100e-01 1.110240e-01 9.808710e-02 8.679729e-02 7.707700e-02 6.881226e-02 6.185060e-02 5.603668e-02 5.120942e-02 4.722248e-02 4.394190e-02 4.125416e-02 3.906503e-02 3.729803e-02 3.589558e-02 3.481680e-02 3.403679e-02 3.353836e-02 
3.847881e-02 3.852789e-02 3.888541e-02 3.955533e-02 4.055258e-02 4.189624e-02 4.362162e-02 4.577584e-02 4.843133e-02 5.167408e-02 5.561416e-02 6.037958e-02 6.612164e-02 7.300573e-02 8.121505e-02 9.093461e-02 1.023527e-01 1.156229e-01 1.308530e-01 1.480209e-01 1.669733e-01 1.873597e-01 2.087760e-01 2.306981e-01 2.524367e-01 2.732845e-01 2.927869e-01 3.105087e-01 3.261763e-01 3.399199e-01 3.513760e-01 3.594594e-01 3.630604e-01 3.614425e-01 3.548324e-01 3.442729e-01 3.308497e-01 3.155195e-01 2.983441e-01 2.796625e-01 2.597480e-01 2.387640e-01 2.173607e-01 1.960746e-01 1.755541e-01 1.562175e-01 1.384686e-01 1.225006e-01 1.083992e-01 9.615351e-02 8.565633e-02 7.676894e-02 6.930455e-02 6.308391e-02 5.792068e-02 5.365198e-02 5.012910e-02 4.722960e-02 4.485318e-02 4.291926e-02 4.137176e-02 4.017171e-02 3.929755e-02 3.873435e-02 
4.425089e-02 4.430323e-02 4.470885e-02 4.546871e-02 4.659527e-02 4.810308e-02 5.002455e-02 5.240309e-02 5.531033e-02 5.883686e-02 6.309863e-02 6.823284e-02 7.440382e-02 8.179485e-02 9.061274e-02 1.010754e-01 1.134147e-01 1.278401e-01 1.445120e-01 1.634389e-01 1.844208e-01 2.070132e-01 2.307220e-01 2.548898e-01 2.788311e-01 3.015879e-01 3.224047e-01 3.408552e-01 3.568098e-01 3.708117e-01 3.827705e-01 3.914290e-01 3.953729e-01 3.935788e-01 3.864295e-01 3.753718e-01 3.616638e-01 3.462650e-01 3.287438e-01 3.092186e-01 2.878296e-01 2.648564e-01 2.413202e-01 2.177520e-01 1.949624e-01 1.734882e-01 1.538156e-01 1.361837e-01 1.206733e-01 1.072702e-01 9.582848e-02 8.617863e-02 7.809123e-02 7.135800e-02 6.576347e-02 6.112613e-02 5.728130e-02 5.409703e-02 5.146608e-02 4.930513e-02 4.756093e-02 4.619712e-02 4.519680e-02 4.454793e-02 
5.061332e-02 5.067332e-02 5.114656e-02 5.203037e-02 5.333401e-02 5.506661e-02 5.725691e-02 5.994434e-02 6.319849e-02 6.711419e-02 7.181434e-02 7.744662e-02 8.418924e-02 9.224542e-02 1.018478e-01 1.132513e-01 1.267409e-01 1.425935e-01 1.610482e-01 1.821362e-01 2.055940e-01 2.307607e-01 2.570499e-01 2.836137e-01 3.093947e-01 3.334831e-01 3.560808e-01 3.769930e-01 3.945449e-01 4.088121e-01 4.201391e-01 4.278619e-01 4.312162e-01 4.296226e-01 4.233753e-01 4.132268e-01 3.998255e-01 3.834994e-01 3.637418e-01 3.423962e-01 3.198313e-01 2.953057e-01 2.695989e-01 2.434962e-01 2.181317e-01 1.941349e-01 1.721723e-01 1.525306e-01 1.352994e-01 1.204790e-01 1.078726e-01 9.727836e-02 8.840860e-02 8.102308e-02 7.487037e-02 6.974940e-02 6.547753e-02 6.191310e-02 5.894042e-02 5.647595e-02 5.446993e-02 5.288919e-02 5.172288e-02 5.096258e-02 
5.752703e-02 5.760054e-02 5.816562e-02 5.921505e-02 6.075448e-02 6.278634e-02 6.533562e-02 6.843720e-02 7.215983e-02 7.659928e-02 8.188929e-02 8.818914e-02 9.569265e-02 1.046257e-01 1.152497e-01 1.278612e-01 1.428061e-01 1.604451e-01 1.811137e-01 2.048907e-01 2.313221e-01 2.595048e-01 2.885136e-01 3.173862e-01 3.463308e-01 3.733502e-01 3.963413e-01 4.161474e-01 4.314475e-01 4.425620e-01 4.504389e-01 4.552816e-01 4.571586e-01 4.561235e-01 4.522871e-01 4.454765e-01 4.354482e-01 4.219626e-01 4.041488e-01 3.831526e-01 3.584478e-01 3.307393e-01 3.026158e-01 2.739692e-01 2.456603e-01 2.187663e-01 1.940889e-01 1.720237e-01 1.526842e-01 1.361178e-01 1.220735e-01 1.103053e-01 1.004534e-01 9.223741e-02 8.536502e-02 7.961359e-02 7.478165e-02 7.071604e-02 6.729408e-02 6.443217e-02 6.208509e-02 6.022319e-02 5.884318e-02 5.794088e-02 
6.492774e-02 6.502184e-02 6.570706e-02 6.697093e-02 6.881475e-02 7.123343e-02 7.424782e-02 7.788856e-02 8.222471e-02 8.735338e-02 9.341919e-02 1.005973e-01 1.090988e-01 1.191789e-01 1.311301e-01 1.452993e-01 1.620954e-01 1.819732e-01 2.053914e-01 2.324659e-01 2.624854e-01 2.940041e-01 3.264945e-01 3.581255e-01 3.865176e-01 4.093173e-01 4.240282e-01 4.335480e-01 4.393263e-01 4.429205e-01 4.453845e-01 4.469205e-01 4.473514e-01 4.468549e-01 4.454737e-01 4.431603e-01 4.399027e-01 4.354407e-01 4.278168e-01 4.159267e-01 3.972913e-01 3.714130e-01 3.414992e-01 3.095363e-01 2.780466e-01 2.479172e-01 2.200971e-01 1.951471e-01 1.732178e-01 1.545124e-01 1.386952e-01 1.254795e-01 1.144021e-01 1.051389e-01 9.734874e-02 9.078699e-02 8.523331e-02 8.051933e-02 7.651980e-02 7.314908e-02 7.036769e-02 6.814936e-02 6.650006e-02 6.542034e-02 
7.273017e-02 7.285351e-02 7.369156e-02 7.522549e-02 7.745191e-02 8.035673e-02 8.395711e-02 8.827895e-02 9.339405e-02 9.940247e-02 1.064574e-01 1.147549e-01 1.245258e-01 1.360624e-01 1.496972e-01 1.658339e-01 1.849523e-01 2.075754e-01 2.343326e-01 2.653395e-01 2.994254e-01 3.347532e-01 3.680257e-01 3.944870e-01 4.096758e-01 4.159592e-01 4.156944e-01 4.139038e-01 4.138014e-01 4.154741e-01 4.178817e-01 4.201098e-01 4.210032e-01 4.202184e-01 4.180310e-01 4.152496e-01 4.130333e-01 4.124909e-01 4.141246e-01 4.161369e-01 4.134798e-01 4.026288e-01 3.809777e-01 3.500816e-01 3.155970e-01 2.819484e-01 2.505861e-01 2.222057e-01 1.971520e-01 1.758542e-01 1.579026e-01 1.429353e-01 1.303631e-01 1.198066e-01 1.108724e-01 1.032934e-01 9.683115e-02 9.130137e-02 8.657865e-02 8.257325e-02 7.925258e-02 7.659352e-02 7.461296e-02 7.331668e-02 
8.082840e-02 8.099061e-02 8.201700e-02 8.388150e-02 8.657510e-02 9.007352e-02 9.438998e-02 9.954574e-02 1.056167e-01 1.127083e-01 1.209815e-01 1.306557e-01 1.419833e-01 1.553111e-01 1.710244e-01 1.896149e-01 2.116106e-01 2.375690e-01 2.682023e-01 3.036341e-01 3.409334e-01 3.747708e-01 3.965788e-01 4.036632e-01 3.992295e-01 3.911998e-01 3.858040e-01 3.846047e-01 3.865194e-01 3.897065e-01 3.929235e-01 3.954415e-01 3.964322e-01 3.956272e-01 3.932302e-01 3.897911e-01 3.862680e-01 3.835459e-01 3.834360e-01 3.876909e-01 3.959668e-01 4.038841e-01 4.023522e-01 3.867838e-01 3.571305e-01 3.212230e-01 2.857883e-01 2.534460e-01 2.246200e-01 2.002477e-01 1.797645e-01 1.627267e-01 1.483715e-01 1.362564e-01 1.259336e-01 1.171106e-01 1.095355e-01 1.030069e-01 9.740269e-02 9.262513e-02 8.865099e-02 8.545939e-02 8.308029e-02 8.152510e-02 
8.910276e-02 8.931498e-02 9.056803e-02 9.282729e-02 9.607733e-02 1.002814e-01 1.054493e-01 1.115954e-01 1.188023e-01 1.271788e-01 1.368955e-01 1.481889e-01 1.613337e-01 1.767504e-01 1.948986e-01 2.164126e-01 2.418659e-01 2.716546e-01 3.065442e-01 3.451855e-01 3.788753e-01 3.965022e-01 3.957960e-01 3.845188e-01 3.727803e-01 3.639798e-01 3.591023e-01 3.581804e-01 3.605230e-01 3.643624e-01 3.682117e-01 3.711222e-01 3.722776e-01 3.713943e-01 3.686568e-01 3.646387e-01 3.603722e-01 3.570327e-01 3.565471e-01 3.601062e-01 3.681132e-01 3.800776e-01 3.931172e-01 3.998778e-01 3.899343e-01 3.616344e-01 3.246715e-01 2.882364e-01 2.552922e-01 2.274505e-01 2.041071e-01 1.847082e-01 1.683017e-01 1.543758e-01 1.424257e-01 1.321346e-01 1.232419e-01 1.155303e-01 1.088834e-01 1.031931e-01 9.844814e-02 9.462966e-02 9.178286e-02 8.992562e-02 
9.742428e-02 9.769811e-02 9.921659e-02 1.019352e-01 1.058302e-01 1.108501e-01 1.170000e-01 1.242854e-01 1.327954e-01 1.426385e-01 1.539934e-01 1.671063e-01 1.822666e-01 1.999931e-01 2.208587e-01 2.457511e-01 2.752670e-01 3.093183e-01 3.474239e-01 3.817959e-01 3.973405e-01 3.910312e-01 3.746569e-01 3.590184e-01 3.468029e-01 3.381463e-01 3.338698e-01 3.335471e-01 3.361781e-01 3.401137e-01 3.439693e-01 3.468025e-01 3.479243e-01 3.470775e-01 3.444101e-01 3.404186e-01 3.360552e-01 3.324964e-01 3.314926e-01 3.344010e-01 3.420937e-01 3.540826e-01 3.692890e-01 3.864041e-01 3.982985e-01 3.917921e-01 3.634291e-01 3.254038e-01 2.886656e-01 2.571280e-01 2.306298e-01 2.086069e-01 1.899201e-01 1.739576e-01 1.601730e-01 1.482044e-01 1.378059e-01 1.287341e-01 1.208885e-01 1.141469e-01 1.085149e-01 1.039753e-01 1.005916e-01 9.838911e-02 
1.056610e-01 1.060092e-01 1.078321e-01 1.110731e-01 1.156985e-01 1.216380e-01 1.288915e-01 1.374495e-01 1.474100e-01 1.588697e-01 1.720165e-01 1.870852e-01 2.043624e-01 2.244731e-01 2.480781e-01 2.764492e-01 3.100009e-01 3.476516e-01 3.831152e-01 3.995002e-01 3.912128e-01 3.716298e-01 3.518540e-01 3.355253e-01 3.233264e-01 3.151556e-01 3.110250e-01 3.104660e-01 3.125649e-01 3.159678e-01 3.194239e-01 3.219960e-01 3.230188e-01 3.222304e-01 3.197726e-01 3.161598e-01 3.123062e-01 3.093474e-01 3.087324e-01 3.116174e-01 3.187343e-01 3.301519e-01 3.454539e-01 3.641515e-01 3.847387e-01 3.995964e-01 3.930999e-01 3.626832e-01 3.238863e-01 2.886200e-01 2.587672e-01 2.339152e-01 2.127787e-01 1.946300e-01 1.788635e-01 1.650597e-01 1.530042e-01 1.424232e-01 1.332428e-01 1.253264e-01 1.187012e-01 1.133540e-01 1.093691e-01 1.067816e-01 
1.136832e-01 1.141185e-01 1.162823e-01 1.201035e-01 1.255348e-01 1.324830e-01 1.409399e-01 1.508746e-01 1.623923e-01 1.755655e-01 1.905897e-01 2.076640e-01 2.270579e-01 2.494847e-01 2.755999e-01 3.071573e-01 3.447786e-01 3.821668e-01 4.027298e-01 3.958158e-01 3.741142e-01 3.515533e-01 3.316112e-01 3.153226e-01 3.029994e-01 2.946239e-01 2.900852e-01 2.888551e-01 2.900894e-01 2.926401e-01 2.953958e-01 2.974902e-01 2.983217e-01 2.976427e-01 2.955888e-01 2.926439e-01 2.896298e-01 2.875974e-01 2.877492e-01 2.910853e-01 2.982534e-01 3.094070e-01 3.243423e-01 3.429029e-01 3.649335e-01 3.887606e-01 4.039059e-01 3.933389e-01 3.591187e-01 3.210403e-01 2.876707e-01 2.599765e-01 2.363676e-01 2.159546e-01 1.981506e-01 1.824080e-01 1.685926e-01 1.563861e-01 1.457606e-01 1.365647e-01 1.288549e-01 1.226235e-01 1.179804e-01 1.149722e-01 
1.213653e-01 1.219016e-01 1.244401e-01 1.288913e-01 1.351916e-01 1.432186e-01 1.529547e-01 1.643363e-01 1.774815e-01 1.924147e-01 2.093680e-01 2.284568e-01 2.499962e-01 2.747321e-01 3.031947e-01 3.380511e-01 3.772432e-01 4.054631e-01 4.046712e-01 3.817478e-01 3.568205e-01 3.342667e-01 3.145824e-01 2.983182e-01 2.857396e-01 2.768322e-01 2.714189e-01 2.690539e-01 2.690156e-01 2.703886e-01 2.722003e-01 2.736750e-01 2.742589e-01 2.737283e-01 2.722059e-01 2.701514e-01 2.682950e-01 2.675787e-01 2.689595e-01 2.732540e-01 2.809772e-01 2.923341e-01 3.073087e-01 3.257948e-01 3.477936e-01 3.729167e-01 3.981083e-01 4.094498e-01 3.908865e-01 3.533964e-01 3.161691e-01 2.858817e-01 2.599490e-01 2.373615e-01 2.175673e-01 1.998665e-01 1.842532e-01 1.703575e-01 1.582173e-01 1.476700e-01 1.388077e-01 1.316348e-01 1.262877e-01 1.228310e-01 
1.285901e-01 1.292402e-01 1.321781e-01 1.372948e-01 1.445044e-01 1.536537e-01 1.647067e-01 1.775623e-01 1.923420e-01 2.090088e-01 2.278352e-01 2.488230e-01 2.723923e-01 2.993084e-01 3.299729e-01 3.684305e-01 4.045313e-01 4.153606e-01 3.955119e-01 3.683086e-01 3.430349e-01 3.208486e-01 3.013725e-01 2.849865e-01 2.718300e-01 2.619879e-01 2.553445e-01 2.515580e-01 2.500467e-01 2.500763e-01 2.508158e-01 2.515816e-01 2.518836e-01 2.515283e-01 2.506204e-01 2.495770e-01 2.490326e-01 2.498163e-01 2.526863e-01 2.583000e-01 2.670545e-01 2.791069e-01 2.944429e-01 3.129537e-01 3.346770e-01 3.593360e-01 3.863240e-01 4.116856e-01 4.125754e-01 3.832585e-01 3.440251e-01 3.108762e-01 2.830093e-01 2.583280e-01 2.366716e-01 2.170583e-01 1.996583e-01 1.840616e-01 1.703743e-01 1.584405e-01 1.483855e-01 1.402368e-01 1.341574e-01 1.302360e-01 
1.352480e-01 1.360210e-01 1.393712e-01 1.451697e-01 1.533032e-01 1.635858e-01 1.759541e-01 1.902649e-01 2.066324e-01 2.249391e-01 2.455225e-01 2.681740e-01 2.937010e-01 3.222930e-01 3.558145e-01 3.952628e-01 4.217365e-01 4.143656e-01 3.862513e-01 3.588006e-01 3.339532e-01 3.119119e-01 2.923695e-01 2.754651e-01 2.614049e-01 2.503079e-01 2.421633e-01 2.367417e-01 2.335971e-01 2.321481e-01 2.317194e-01 2.317198e-01 2.317188e-01 2.315563e-01 2.313166e-01 2.313714e-01 2.322693e-01 2.346979e-01 2.392575e-01 2.464624e-01 2.565934e-01 2.697156e-01 2.857649e-01 3.045107e-01 3.259883e-01 3.499115e-01 3.767552e-01 4.052447e-01 4.240289e-01 4.093154e-01 3.710729e-01 3.342639e-01 3.049645e-01 2.782942e-01 2.549572e-01 2.335406e-01 2.144258e-01 1.971781e-01 1.819642e-01 1.686554e-01 1.574058e-01 1.482779e-01 1.414605e-01 1.370721e-01 
1.412417e-01 1.421426e-01 1.459051e-01 1.523804e-01 1.614236e-01 1.728180e-01 1.864624e-01 2.021756e-01 2.200452e-01 2.398772e-01 2.620614e-01 2.861479e-01 3.134929e-01 3.433329e-01 3.804823e-01 4.183006e-01 4.311462e-01 4.093172e-01 3.806870e-01 3.535738e-01 3.294550e-01 3.073906e-01 2.874818e-01 2.697196e-01 2.544385e-01 2.418404e-01 2.320217e-01 2.248646e-01 2.200424e-01 2.170979e-01 2.154920e-01 2.147225e-01 2.144190e-01 2.144500e-01 2.148830e-01 2.160414e-01 2.183924e-01 2.224932e-01 2.288212e-01 2.377676e-01 2.495029e-01 2.639895e-01 2.810584e-01 3.003480e-01 3.218478e-01 3.451486e-01 3.712659e-01 3.990535e-01 4.277077e-01 4.278455e-01 3.949660e-01 3.560031e-01 3.253425e-01 2.969908e-01 2.720310e-01 2.489716e-01 2.282230e-01 2.094216e-01 1.927380e-01 1.781076e-01 1.656964e-01 1.556169e-01 1.480787e-01 1.432362e-01 
1.464831e-01 1.475104e-01 1.516677e-01 1.587894e-01 1.686946e-01 1.811432e-01 1.959830e-01 2.130143e-01 2.322587e-01 2.535016e-01 2.770586e-01 3.024199e-01 3.310528e-01 3.619261e-01 4.012185e-01 4.347492e-01 4.350007e-01 4.059539e-01 3.787784e-01 3.525794e-01 3.290074e-01 3.067281e-01 2.861318e-01 2.672434e-01 2.505351e-01 2.363037e-01 2.247498e-01 2.158527e-01 2.093859e-01 2.049945e-01 2.022424e-01 2.007279e-01 2.001329e-01 2.003494e-01 2.014319e-01 2.036597e-01 2.074128e-01 2.131413e-01 2.212251e-01 2.319558e-01 2.454054e-01 2.614442e-01 2.797770e-01 2.999517e-01 3.217962e-01 3.449130e-01 3.701670e-01 3.969660e-01 4.273208e-01 4.396695e-01 4.152870e-01 3.763830e-01 3.436867e-01 3.140033e-01 2.874296e-01 2.629474e-01 2.406906e-01 2.204854e-01 2.024388e-01 1.865860e-01 1.730881e-01 1.621185e-01 1.539030e-01 1.486353e-01 
1.508957e-01 1.520424e-01 1.565612e-01 1.642723e-01 1.749595e-01 1.883676e-01 2.042884e-01 2.225283e-01 2.430153e-01 2.655888e-01 2.903735e-01 3.170319e-01 3.466121e-01 3.786824e-01 4.181343e-01 4.456365e-01 4.361702e-01 4.063118e-01 3.803861e-01 3.551769e-01 3.317462e-01 3.090216e-01 2.874973e-01 2.673429e-01 2.491212e-01 2.332468e-01 2.200070e-01 2.094679e-01 2.014802e-01 1.957707e-01 1.919832e-01 1.897927e-01 1.889345e-01 1.893168e-01 1.909871e-01 1.941797e-01 1.992031e-01 2.064281e-01 2.161568e-01 2.286042e-01 2.437540e-01 2.614003e-01 2.810958e-01 3.023462e-01 3.247245e-01 3.479687e-01 3.723437e-01 3.982390e-01 4.264566e-01 4.472643e-01 4.320566e-01 3.946656e-01 3.595344e-01 3.288114e-01 3.007682e-01 2.750998e-01 2.515105e-01 2.300833e-01 2.108242e-01 1.938880e-01 1.794182e-01 1.676544e-01 1.588322e-01 1.531857e-01 
1.544115e-01 1.556615e-01 1.604878e-01 1.687011e-01 1.800517e-01 1.942805e-01 2.111222e-01 2.304152e-01 2.519787e-01 2.757756e-01 3.016634e-01 3.296744e-01 3.601000e-01 3.937261e-01 4.319209e-01 4.529049e-01 4.367012e-01 4.090206e-01 3.838885e-01 3.595690e-01 3.359914e-01 3.127925e-01 2.902986e-01 2.689552e-01 2.493306e-01 2.319750e-01 2.172271e-01 2.052481e-01 1.959510e-01 1.891204e-01 1.844595e-01 1.816949e-01 1.806133e-01 1.811345e-01 1.833027e-01 1.873063e-01 1.934062e-01 2.019156e-01 2.130804e-01 2.270596e-01 2.437361e-01 2.628620e-01 2.838381e-01 3.061724e-01 3.291516e-01 3.526623e-01 3.763736e-01 4.013462e-01 4.271295e-01 4.519144e-01 4.443373e-01 4.091147e-01 3.723386e-01 3.408609e-01 3.117066e-01 2.850770e-01 2.603912e-01 2.379471e-01 2.176731e-01 1.998298e-01 1.845436e-01 1.721131e-01 1.627809e-01 1.568166e-01 
1.569740e-01 1.583057e-01 1.633693e-01 1.719694e-01 1.838300e-01 1.986935e-01 2.162475e-01 2.363698e-01 2.587819e-01 2.835792e-01 3.103607e-01 3.395293e-01 3.706168e-01 4.055666e-01 4.420244e-01 4.574696e-01 4.374979e-01 4.121280e-01 3.876275e-01 3.640278e-01 3.402639e-01 3.166770e-01 2.933683e-01 2.710675e-01 2.503116e-01 2.317813e-01 2.158441e-01 2.027365e-01 1.924134e-01 1.847166e-01 1.793888e-01 1.761905e-01 1.749397e-01 1.755655e-01 1.781092e-01 1.827311e-01 1.896622e-01 1.991780e-01 2.114698e-01 2.266572e-01 2.445478e-01 2.648662e-01 2.868832e-01 3.101129e-01 3.336116e-01 3.573473e-01 3.806264e-01 4.047163e-01 4.289784e-01 4.547292e-01 4.524270e-01 4.193993e-01 3.821672e-01 3.499930e-01 3.200286e-01 2.925894e-01 2.670487e-01 2.438118e-01 2.227613e-01 2.042272e-01 1.883207e-01 1.753853e-01 1.656670e-01 1.594634e-01 
1.585358e-01 1.599188e-01 1.651316e-01 1.739758e-01 1.861581e-01 2.014245e-01 2.194316e-01 2.400882e-01 2.630500e-01 2.885057e-01 3.158852e-01 3.458200e-01 3.773598e-01 4.129553e-01 4.480635e-01 4.599296e-01 4.384152e-01 4.144708e-01 3.904553e-01 3.672747e-01 3.433625e-01 3.195128e-01 2.956594e-01 2.727364e-01 2.512441e-01 2.319587e-01 2.152604e-01 2.014362e-01 1.904664e-01 1.822246e-01 1.764778e-01 1.730087e-01 1.716523e-01 1.723428e-01 1.751198e-01 1.801293e-01 1.875815e-01 1.977297e-01 2.107339e-01 2.266913e-01 2.453585e-01 2.664451e-01 2.891304e-01 3.129302e-01 3.367497e-01 3.605853e-01 3.835804e-01 4.070140e-01 4.305574e-01 4.563014e-01 4.572215e-01 4.259802e-01 3.888915e-01 3.559954e-01 3.254362e-01 2.973651e-01 2.712442e-01 2.474764e-01 2.259260e-01 2.069499e-01 1.906507e-01 1.773961e-01 1.674342e-01 1.610793e-01 
1.590633e-01 1.604649e-01 1.657299e-01 1.746584e-01 1.869521e-01 2.023577e-01 2.205219e-01 2.413640e-01 2.645185e-01 2.902048e-01 3.178014e-01 3.480174e-01 3.797423e-01 4.155123e-01 4.500747e-01 4.606800e-01 4.387580e-01 4.152468e-01 3.914294e-01 3.684083e-01 3.444638e-01 3.205374e-01 2.965070e-01 2.733749e-01 2.516305e-01 2.320845e-01 2.151219e-01 2.010490e-01 1.898546e-01 1.814242e-01 1.755325e-01 1.719703e-01 1.705777e-01 1.712910e-01 1.741491e-01 1.792933e-01 1.869272e-01 1.972967e-01 2.105514e-01 2.267804e-01 2.457231e-01 2.670823e-01 2.900063e-01 3.140072e-01 3.379437e-01 3.618160e-01 3.847347e-01 4.079579e-01 4.312984e-01 4.568897e-01 4.587638e-01 4.282450e-01 3.912942e-01 3.580734e-01 3.272918e-01 2.989819e-01 2.726603e-01 2.487102e-01 2.269911e-01 2.078659e-01 1.914344e-01 1.780724e-01 1.680287e-01 1.616235e-01 
1.585358e-01 1.599188e-01 1.651316e-01 1.739758e-01 1.861581e-01 2.014245e-01 2.194316e-01 2.400882e-01 2.630500e-01 2.885057e-01 3.158852e-01 3.458200e-01 3.773598e-01 4.129553e-01 4.480635e-01 4.599296e-01 4.384152e-01 4.144708e-01 3.904553e-01 3.672747e-01 3.433625e-01 3.195128e-01 2.956594e-01 2.727364e-01 2.512441e-01 2.319587e-01 2.152604e-01 2.014362e-01 1.904664e-01 1.822246e-01 1.764778e-01 1.730087e-01 1.716523e-01 1.723428e-01 1.751198e-01 1.801293e-01 1.875815e-01 1.977297e-01 2.107339e-01 2.266913e-01 2.453585e-01 2.664451e-01 2.891304e-01 3.129302e-01 3.367497e-01 3.605853e-01 3.835804e-01 4.070140e-01 4.305574e-01 4.563014e-01 4.572215e-01 4.259802e-01 3.888915e-01 3.559954e-01 3.254362e-01 2.973651e-01 2.712442e-01 2.474764e-01 2.259260e-01 2.069499e-01 1.906507e-01 1.773961e-01 1.674342e-01 1.610793e-01 
1.569740e-01 1.583057e-01 1.633693e-01 1.719694e-01 1.838300e-01 1.986935e-01 2.162475e-01 2.363698e-01 2.587819e-01 2.835792e-01 3.103607e-01 3.395293e-01 3.706168e-01 4.055666e-01 4.420244e-01 4.574696e-01 4.374979e-01 4.121280e-01 3.876275e-01 3.640278e-01 3.402639e-01 3.166770e-01 2.933683e-01 2.710675e-01 2.503116e-01 2.317813e-01 2.158441e-01 2.027365e-01 1.924134e-01 1.847166e-01 1.793888e-01 1.761905e-01 1.749397e-01 1.755655e-01 1.781092e-01 1.827311e-01 1.896622e-01 1.991780e-01 2.114698e-01 2.266572e-01 2.445478e-01 2.648662e-01 2.868832e-01 3.101129e-01 3.336116e-01 3.573473e-01 3.806264e-01 4.047163e-01 4.289784e-01 4.547292e-01 4.524270e-01 4.193993e-01 3.821672e-01 3.499930e-01 3.200286e-01 2.925894e-01 2.670487e-01 2.438118e-01 2.227613e-01 2.042272e-01 1.883207e-01 1.753853e-01 1.656670e-01 1.594634e-01 