# vtk DataFile Version 2.0
Comment goes here
ASCII

DATASET STRUCTURED_POINTS
FIELD FieldData 1
TIME 1 1 double
1.27000000
DIMENSIONS    64   64   1

ORIGIN    0.000   0.000   0.000
SPACING   0.015625 0.015625   1.000

POINT_DATA   4096
SCALARS Concentration double
LOOKUP_TABLE default

4.577808e-03 4.627707e-03 4.796429e-03 5.089204e-03 5.515452e-03 6.088873e-03 6.828303e-03 7.757562e-03 8.906595e-03 1.031054e-02 1.201045e-02 1.405053e-02 1.647805e-02 1.933813e-02 2.267267e-02 2.651244e-02 3.087689e-02 3.576140e-02 4.114129e-02 4.696006e-02 5.314145e-02 5.957826e-02 6.615328e-02 7.272710e-02 7.916280e-02 8.531234e-02 9.103820e-02 9.619776e-02 1.006609e-01 1.043048e-01 1.070251e-01 1.087374e-01 1.093824e-01 1.089298e-01 1.073963e-01 1.048324e-01 1.013167e-01 9.694787e-02 9.184883e-02 8.614953e-02 7.999803e-02 7.353595e-02 6.691804e-02 6.028640e-02 5.378665e-02 4.754028e-02 4.165848e-02 3.621955e-02 3.128156e-02 2.686939e-02 2.298768e-02 1.961647e-02 1.672411e-02 1.426809e-02 1.220235e-02 1.047924e-02 9.053721e-03 7.884559e-03 6.935968e-03 6.177978e-03 5.586325e-03 5.142208e-03 4.831667e-03 4.645305e-03 
4.684842e-03 4.735040e-03 4.905168e-03 5.200448e-03 5.630311e-03 6.208473e-03 6.953823e-03 7.890282e-03 9.047973e-03 1.046240e-02 1.217500e-02 1.423047e-02 1.667670e-02 1.955969e-02 2.292239e-02 2.679682e-02 3.120387e-02 3.614058e-02 4.158396e-02 4.747896e-02 5.375066e-02 6.029230e-02 6.698693e-02 7.369394e-02 8.027523e-02 8.658054e-02 9.246998e-02 9.779422e-02 1.024149e-01 1.062000e-01 1.090342e-01 1.108243e-01 1.115023e-01 1.110352e-01 1.094400e-01 1.067740e-01 1.031240e-01 9.859946e-02 9.333350e-02 8.746522e-02 8.115089e-02 7.453625e-02 6.777862e-02 6.102171e-02 5.441251e-02 4.807231e-02 4.211165e-02 3.660737e-02 3.161586e-02 2.716018e-02 2.324313e-02 1.984327e-02 1.692760e-02 1.445253e-02 1.237109e-02 1.063498e-02 9.198651e-03 8.020479e-03 7.064313e-03 6.299988e-03 5.703154e-03 5.254953e-03 4.941419e-03 4.753147e-03 
5.007768e-03 5.058858e-03 5.233214e-03 5.536033e-03 5.976775e-03 6.569206e-03 7.332376e-03 8.290479e-03 9.474165e-03 1.091983e-02 1.267008e-02 1.477107e-02 1.727266e-02 2.022330e-02 2.366909e-02 2.764562e-02 3.217794e-02 3.726827e-02 4.289858e-02 4.901819e-02 5.555608e-02 6.240723e-02 6.945517e-02 7.655655e-02 8.356896e-02 9.033498e-02 9.670500e-02 1.025123e-01 1.075946e-01 1.117934e-01 1.149616e-01 1.169792e-01 1.177542e-01 1.172447e-01 1.154695e-01 1.125045e-01 1.084610e-01 1.034800e-01 9.772406e-02 9.135911e-02 8.456363e-02 7.749683e-02 7.032537e-02 6.319845e-02 5.626641e-02 4.964987e-02 4.345722e-02 3.776070e-02 3.261187e-02 2.802819e-02 2.400723e-02 2.052279e-02 1.753832e-02 1.500687e-02 1.287897e-02 1.110426e-02 9.635707e-03 8.430464e-03 7.451496e-03 6.668084e-03 6.055631e-03 5.595115e-03 5.272550e-03 5.078516e-03 
5.553747e-03 5.606302e-03 5.787720e-03 6.103156e-03 6.562113e-03 7.178437e-03 7.971439e-03 8.965770e-03 1.019290e-02 1.169061e-02 1.350343e-02 1.568000e-02 1.827334e-02 2.133605e-02 2.491931e-02 2.906476e-02 3.380390e-02 3.914704e-02 4.508410e-02 5.157117e-02 5.854329e-02 6.589745e-02 7.351797e-02 8.125599e-02 8.896254e-02 9.646702e-02 1.036048e-01 1.101832e-01 1.160045e-01 1.208683e-01 1.245759e-01 1.269630e-01 1.278968e-01 1.273200e-01 1.252542e-01 1.218069e-01 1.171307e-01 1.114168e-01 1.048760e-01 9.771474e-02 9.014621e-02 8.235012e-02 7.451035e-02 6.678459e-02 5.932908e-02 5.226323e-02 4.569226e-02 3.968131e-02 3.427422e-02 2.947981e-02 2.528703e-02 2.166281e-02 1.856439e-02 1.593946e-02 1.373440e-02 1.189546e-02 1.037317e-02 9.122618e-03 8.105417e-03 7.289981e-03 6.651305e-03 6.170103e-03 5.832358e-03 5.628625e-03 
6.335184e-03 6.389739e-03 6.581056e-03 6.914224e-03 7.398792e-03 8.048709e-03 8.883626e-03 9.928803e-03 1.121681e-02 1.278721e-02 1.468723e-02 1.696886e-02 1.968951e-02 2.290738e-02 2.668050e-02 3.105865e-02 3.608228e-02 4.177095e-02 4.812586e-02 5.511150e-02 6.267035e-02 7.070120e-02 7.908856e-02 8.767572e-02 9.630474e-02 1.047883e-01 1.129419e-01 1.205426e-01 1.273479e-01 1.331027e-01 1.375381e-01 1.404269e-01 1.415780e-01 1.409123e-01 1.384547e-01 1.343574e-01 1.288309e-01 1.221368e-01 1.145495e-01 1.063288e-01 9.773146e-02 8.896424e-02 8.023356e-02 7.170808e-02 6.355151e-02 5.588168e-02 4.880008e-02 4.236269e-02 3.660391e-02 3.152037e-02 2.709127e-02 2.327408e-02 2.001792e-02 1.726321e-02 1.495076e-02 1.302219e-02 1.142469e-02 1.011049e-02 9.039465e-03 8.178872e-03 7.503165e-03 6.992712e-03 6.633469e-03 6.415968e-03 
7.369747e-03 7.426795e-03 7.630913e-03 7.987080e-03 8.504893e-03 9.198393e-03 1.008765e-02 1.119866e-02 1.256533e-02 1.422939e-02 1.624148e-02 1.865788e-02 2.154145e-02 2.495742e-02 2.897218e-02 3.364555e-02 3.902893e-02 4.515308e-02 5.203033e-02 5.963564e-02 6.791882e-02 7.677856e-02 8.609781e-02 9.570715e-02 1.054381e-01 1.150822e-01 1.244362e-01 1.332478e-01 1.412299e-01 1.480640e-01 1.533935e-01 1.569063e-01 1.583316e-01 1.575584e-01 1.546172e-01 1.497210e-01 1.431592e-01 1.352830e-01 1.264442e-01 1.169607e-01 1.071369e-01 9.720762e-02 8.740683e-02 7.791519e-02 6.890624e-02 6.049689e-02 5.278526e-02 4.581811e-02 3.961819e-02 3.417000e-02 2.944156e-02 2.537893e-02 2.192127e-02 1.900030e-02 1.654986e-02 1.450583e-02 1.281117e-02 1.141444e-02 1.027346e-02 9.354050e-03 8.630030e-03 8.081340e-03 7.693944e-03 7.458356e-03 
8.679890e-03 8.739887e-03 8.959834e-03 9.344542e-03 9.903619e-03 1.065117e-02 1.160772e-02 1.280010e-02 1.426377e-02 1.604291e-02 1.819223e-02 2.077315e-02 2.385499e-02 2.751112e-02 3.181754e-02 3.684541e-02 4.265850e-02 4.930013e-02 5.679445e-02 6.512462e-02 7.424831e-02 8.406134e-02 9.444208e-02 1.052031e-01 1.161635e-01 1.270928e-01 1.377717e-01 1.479256e-01 1.572248e-01 1.652849e-01 1.716437e-01 1.758843e-01 1.776328e-01 1.767375e-01 1.732348e-01 1.674161e-01 1.596692e-01 1.504543e-01 1.402113e-01 1.293185e-01 1.181288e-01 1.069039e-01 9.590472e-02 8.532361e-02 7.534553e-02 6.608745e-02 5.764560e-02 5.005683e-02 4.333500e-02 3.745227e-02 3.236469e-02 2.800560e-02 2.430334e-02 2.117961e-02 1.856029e-02 1.637444e-02 1.455993e-02 1.306100e-02 1.183313e-02 1.084046e-02 1.005611e-02 9.459555e-03 9.036822e-03 8.778452e-03 
1.029279e-02 1.035619e-02 1.059530e-02 1.101465e-02 1.162383e-02 1.243692e-02 1.347488e-02 1.476548e-02 1.634589e-02 1.826300e-02 2.057611e-02 2.335277e-02 2.666953e-02 3.060912e-02 3.525783e-02 4.069953e-02 4.701068e-02 5.424851e-02 6.244902e-02 7.160363e-02 8.167362e-02 9.254680e-02 1.040919e-01 1.160936e-01 1.283546e-01 1.406161e-01 1.526504e-01 1.641784e-01 1.748522e-01 1.842260e-01 1.917202e-01 1.967825e-01 1.989030e-01 1.978701e-01 1.937335e-01 1.868888e-01 1.778537e-01 1.672166e-01 1.555094e-01 1.431543e-01 1.305423e-01 1.179539e-01 1.056788e-01 9.392170e-02 8.288228e-02 7.268147e-02 6.341731e-02 5.512174e-02 4.780061e-02 4.141459e-02 3.590742e-02 3.119965e-02 2.720791e-02 2.384307e-02 2.102209e-02 1.866624e-02 1.670740e-02 1.508482e-02 1.375147e-02 1.266958e-02 1.181155e-02 1.115636e-02 1.069022e-02 1.040375e-02 
1.223910e-02 1.230640e-02 1.256848e-02 1.302949e-02 1.369884e-02 1.459048e-02 1.572575e-02 1.713337e-02 1.885234e-02 2.093263e-02 2.343816e-02 2.644380e-02 3.003393e-02 3.430148e-02 3.934356e-02 4.525714e-02 5.213164e-02 6.003806e-02 6.902448e-02 7.908898e-02 9.019566e-02 1.022168e-01 1.150058e-01 1.283067e-01 1.419008e-01 1.554983e-01 1.688690e-01 1.817492e-01 1.937880e-01 2.044932e-01 2.131585e-01 2.190844e-01 2.216011e-01 2.204211e-01 2.156150e-01 2.077000e-01 1.973395e-01 1.852613e-01 1.720870e-01 1.582713e-01 1.442356e-01 1.302690e-01 1.166841e-01 1.036978e-01 9.153022e-02 8.031062e-02 7.014625e-02 6.106636e-02 5.307286e-02 4.611581e-02 4.012824e-02 3.501782e-02 3.068952e-02 2.704272e-02 2.398466e-02 2.142802e-02 1.929754e-02 1.752734e-02 1.606752e-02 1.487827e-02 1.393124e-02 1.320499e-02 1.268608e-02 1.236532e-02 
1.455242e-02 1.462422e-02 1.491393e-02 1.542506e-02 1.616672e-02 1.715246e-02 1.840392e-02 1.995070e-02 2.183383e-02 2.410664e-02 2.683759e-02 3.011012e-02 3.401698e-02 3.866227e-02 4.415386e-02 5.060283e-02 5.811056e-02 6.676362e-02 7.662087e-02 8.768947e-02 9.993335e-02 1.132046e-01 1.273321e-01 1.419978e-01 1.569509e-01 1.718408e-01 1.864293e-01 2.005035e-01 2.137767e-01 2.257448e-01 2.355774e-01 2.424021e-01 2.453475e-01 2.440067e-01 2.384896e-01 2.294832e-01 2.178299e-01 2.044100e-01 1.899073e-01 1.747469e-01 1.593530e-01 1.440183e-01 1.290943e-01 1.148188e-01 1.014432e-01 8.911665e-02 7.796056e-02 6.800839e-02 5.925898e-02 5.165468e-02 4.511767e-02 3.954343e-02 3.482477e-02 3.084902e-02 2.751291e-02 2.471950e-02 2.238527e-02 2.043904e-02 1.882786e-02 1.750955e-02 1.645515e-02 1.564286e-02 1.505987e-02 1.469733e-02 
1.726667e-02 1.734385e-02 1.766703e-02 1.823882e-02 1.906779e-02 2.016674e-02 2.155742e-02 2.327030e-02 2.534846e-02 2.784907e-02 3.084522e-02 3.442965e-02 3.870414e-02 4.378490e-02 4.979034e-02 5.684606e-02 6.506493e-02 7.454956e-02 8.537114e-02 9.754612e-02 1.110409e-01 1.256777e-01 1.412563e-01 1.573705e-01 1.737274e-01 1.898987e-01 2.056310e-01 2.207841e-01 2.351369e-01 2.482022e-01 2.590335e-01 2.666227e-01 2.699310e-01 2.684563e-01 2.623290e-01 2.523787e-01 2.395895e-01 2.249812e-01 2.092729e-01 1.928538e-01 1.761593e-01 1.594702e-01 1.431690e-01 1.275274e-01 1.128445e-01 9.929800e-02 8.703855e-02 7.610590e-02 6.650136e-02 5.815907e-02 5.099143e-02 4.488114e-02 3.970840e-02 3.534776e-02 3.168438e-02 2.861045e-02 2.603354e-02 2.387685e-02 2.208392e-02 2.061005e-02 1.942574e-02 1.850900e-02 1.784799e-02 1.743447e-02 
2.041463e-02 2.049845e-02 2.086270e-02 2.150866e-02 2.244404e-02 2.368041e-02 2.523947e-02 2.715235e-02 2.946458e-02 3.223761e-02 3.554987e-02 3.950317e-02 4.421014e-02 4.980019e-02 5.640196e-02 6.415741e-02 7.318954e-02 8.362250e-02 9.553936e-02 1.089777e-01 1.239036e-01 1.401117e-01 1.573602e-01 1.751167e-01 1.930439e-01 2.105289e-01 2.272028e-01 2.430700e-01 2.581395e-01 2.720382e-01 2.837377e-01 2.920664e-01 2.957465e-01 2.941177e-01 2.873686e-01 2.765550e-01 2.628573e-01 2.474377e-01 2.309359e-01 2.135149e-01 1.955759e-01 1.774406e-01 1.596080e-01 1.424109e-01 1.262137e-01 1.112492e-01 9.770161e-02 8.562725e-02 7.502532e-02 6.582214e-02 5.791635e-02 5.117616e-02 4.546733e-02 4.064992e-02 3.659666e-02 3.318584e-02 3.031682e-02 2.790600e-02 2.589299e-02 2.423008e-02 2.288744e-02 2.184302e-02 2.108647e-02 2.061044e-02 
2.402372e-02 2.411608e-02 2.453128e-02 2.526880e-02 2.633504e-02 2.773973e-02 2.950426e-02 3.166039e-02 3.425653e-02 3.735947e-02 4.105410e-02 4.545172e-02 5.067684e-02 5.687460e-02 6.418336e-02 7.276421e-02 8.274980e-02 9.429110e-02 1.074875e-01 1.224026e-01 1.390084e-01 1.570481e-01 1.762380e-01 1.958531e-01 2.155052e-01 2.344225e-01 2.521462e-01 2.687599e-01 2.843464e-01 2.986850e-01 3.107232e-01 3.192844e-01 3.230673e-01 3.213963e-01 3.144469e-01 3.033169e-01 2.891951e-01 2.732807e-01 2.560467e-01 2.375624e-01 2.183626e-01 1.987119e-01 1.791587e-01 1.601462e-01 1.421510e-01 1.254737e-01 1.103732e-01 9.692331e-02 8.512590e-02 7.489301e-02 6.610443e-02 5.860971e-02 5.225613e-02 4.688755e-02 4.236142e-02 3.854071e-02 3.531592e-02 3.259530e-02 3.031344e-02 2.841914e-02 2.688222e-02 2.568084e-02 2.480672e-02 2.425381e-02 
2.811350e-02 2.821711e-02 2.869617e-02 2.954759e-02 3.077602e-02 3.238848e-02 3.440600e-02 3.686084e-02 3.980542e-02 4.331311e-02 4.747769e-02 5.242194e-02 5.828163e-02 6.522233e-02 7.339242e-02 8.297649e-02 9.411658e-02 1.070034e-01 1.217513e-01 1.384757e-01 1.571297e-01 1.774170e-01 1.989721e-01 2.208513e-01 2.427446e-01 2.634159e-01 2.819924e-01 2.987797e-01 3.142560e-01 3.285873e-01 3.408103e-01 3.497341e-01 3.537661e-01 3.519232e-01 3.445751e-01 3.331848e-01 3.190630e-01 3.034116e-01 2.862042e-01 2.670157e-01 2.463829e-01 2.247203e-01 2.030009e-01 1.817587e-01 1.615064e-01 1.426812e-01 1.256299e-01 1.104707e-01 9.719687e-02 8.570081e-02 7.583203e-02 6.741300e-02 6.026824e-02 5.422128e-02 4.911055e-02 4.478337e-02 4.111988e-02 3.801734e-02 3.540417e-02 3.322447e-02 3.144774e-02 3.005245e-02 2.903311e-02 2.838542e-02 
3.269066e-02 3.280939e-02 3.336883e-02 3.436249e-02 3.579265e-02 3.766267e-02 3.999317e-02 4.281714e-02 4.619261e-02 5.020188e-02 5.495070e-02 6.057829e-02 6.723023e-02 7.509869e-02 8.434108e-02 9.517483e-02 1.077490e-01 1.223123e-01 1.389933e-01 1.579691e-01 1.791430e-01 2.020961e-01 2.263964e-01 2.505883e-01 2.743074e-01 2.965763e-01 3.171544e-01 3.359228e-01 3.520780e-01 3.658613e-01 3.768760e-01 3.845437e-01 3.878774e-01 3.862948e-01 3.800184e-01 3.699824e-01 3.568379e-01 3.410709e-01 3.222090e-01 3.010879e-01 2.791527e-01 2.559323e-01 2.319718e-01 2.081286e-01 1.851626e-01 1.636417e-01 1.441326e-01 1.268207e-01 1.116983e-01 9.863080e-02 8.741987e-02 7.785331e-02 6.972239e-02 6.282801e-02 5.698512e-02 5.202658e-02 4.781745e-02 4.424124e-02 4.121777e-02 3.868495e-02 3.661158e-02 3.497649e-02 3.377775e-02 3.301338e-02 
3.774635e-02 3.788547e-02 3.854608e-02 3.971724e-02 4.139817e-02 4.358732e-02 4.630527e-02 4.958587e-02 5.349573e-02 5.812859e-02 6.360760e-02 7.009235e-02 7.774457e-02 8.677892e-02 9.736784e-02 1.097688e-01 1.241407e-01 1.408123e-01 1.599185e-01 1.817280e-01 2.059557e-01 2.320896e-01 2.593473e-01 2.862532e-01 3.131464e-01 3.376794e-01 3.584694e-01 3.756552e-01 3.888994e-01 3.988534e-01 4.059961e-01 4.104937e-01 4.122285e-01 4.113036e-01 4.076950e-01 4.013942e-01 3.920710e-01 3.797105e-01 3.634896e-01 3.432709e-01 3.198419e-01 2.933532e-01 2.665813e-01 2.400565e-01 2.138784e-01 1.890758e-01 1.665169e-01 1.465296e-01 1.291088e-01 1.140897e-01 1.012149e-01 9.021898e-02 8.085667e-02 7.289503e-02 6.613359e-02 6.038430e-02 5.549465e-02 5.132949e-02 4.779755e-02 4.482795e-02 4.238819e-02 4.045730e-02 3.903769e-02 3.813033e-02 
4.325273e-02 4.341918e-02 4.420647e-02 4.559795e-02 4.758898e-02 5.017160e-02 5.336696e-02 5.721016e-02 6.178035e-02 6.718622e-02 7.357448e-02 8.113026e-02 9.003556e-02 1.005343e-01 1.128010e-01 1.271605e-01 1.437728e-01 1.630975e-01 1.852425e-01 2.106000e-01 2.384871e-01 2.682417e-01 2.991696e-01 3.283631e-01 3.539030e-01 3.725820e-01 3.844998e-01 3.919079e-01 3.960391e-01 3.985516e-01 4.003069e-01 4.012984e-01 4.015818e-01 4.012748e-01 4.003983e-01 3.987581e-01 3.962347e-01 3.925932e-01 3.863989e-01 3.760644e-01 3.599433e-01 3.363699e-01 3.083431e-01 2.782244e-01 2.483030e-01 2.196514e-01 1.933943e-01 1.701337e-01 1.498738e-01 1.324573e-01 1.175346e-01 1.047808e-01 9.388689e-02 8.459741e-02 7.669082e-02 6.995733e-02 6.422271e-02 5.932903e-02 5.517018e-02 5.166344e-02 4.877399e-02 4.648063e-02 4.479104e-02 4.370979e-02 
4.916171e-02 4.936434e-02 5.030876e-02 5.197119e-02 5.434203e-02 5.740513e-02 6.118295e-02 6.571219e-02 7.108977e-02 7.744219e-02 8.494811e-02 9.381880e-02 1.042623e-01 1.165490e-01 1.308617e-01 1.475935e-01 1.669326e-01 1.894855e-01 2.153127e-01 2.448408e-01 2.768514e-01 3.100213e-01 3.406977e-01 3.623511e-01 3.737271e-01 3.767535e-01 3.746572e-01 3.715498e-01 3.701201e-01 3.704033e-01 3.719157e-01 3.733037e-01 3.739170e-01 3.733839e-01 3.719649e-01 3.700578e-01 3.689449e-01 3.697821e-01 3.728152e-01 3.757063e-01 3.748825e-01 3.667900e-01 3.490190e-01 3.209871e-01 2.882185e-01 2.554035e-01 2.250238e-01 1.979409e-01 1.742915e-01 1.539848e-01 1.366085e-01 1.217332e-01 1.089838e-01 9.807283e-02 8.876307e-02 8.082034e-02 7.404929e-02 6.826398e-02 6.334027e-02 5.917983e-02 5.574411e-02 5.301133e-02 5.099521e-02 4.970491e-02 
5.540578e-02 5.565541e-02 5.679234e-02 5.878385e-02 6.161408e-02 6.525621e-02 6.973500e-02 7.508848e-02 8.143769e-02 8.892886e-02 9.778120e-02 1.082293e-01 1.205086e-01 1.349108e-01 1.516303e-01 1.711587e-01 1.937191e-01 2.201423e-01 2.502610e-01 2.843642e-01 3.194762e-01 3.487768e-01 3.648737e-01 3.669019e-01 3.594436e-01 3.495989e-01 3.432403e-01 3.413127e-01 3.419124e-01 3.433501e-01 3.453532e-01 3.468197e-01 3.474402e-01 3.468851e-01 3.453983e-01 3.431685e-01 3.412660e-01 3.403421e-01 3.415473e-01 3.468284e-01 3.560808e-01 3.652341e-01 3.668604e-01 3.559315e-01 3.305808e-01 2.964049e-01 2.616387e-01 2.301594e-01 2.024761e-01 1.787527e-01 1.584911e-01 1.411426e-01 1.262148e-01 1.133852e-01 1.023997e-01 9.300469e-02 8.498670e-02 7.812868e-02 7.228633e-02 6.734174e-02 6.325172e-02 5.999331e-02 5.758752e-02 5.604906e-02 
6.189903e-02 6.220859e-02 6.357785e-02 6.596325e-02 6.934040e-02 7.366902e-02 7.897630e-02 8.530089e-02 9.279397e-02 1.016212e-01 1.120506e-01 1.243287e-01 1.387192e-01 1.555120e-01 1.749365e-01 1.975950e-01 2.238257e-01 2.546357e-01 2.893487e-01 3.256402e-01 3.541722e-01 3.643103e-01 3.581876e-01 3.438948e-01 3.303170e-01 3.202697e-01 3.144594e-01 3.128270e-01 3.140476e-01 3.163108e-01 3.188709e-01 3.206874e-01 3.214280e-01 3.207874e-01 3.190079e-01 3.163542e-01 3.138304e-01 3.123441e-01 3.133379e-01 3.181824e-01 3.270265e-01 3.395228e-01 3.540729e-01 3.637899e-01 3.597655e-01 3.368914e-01 3.021729e-01 2.664451e-01 2.342495e-01 2.065698e-01 1.830403e-01 1.628980e-01 1.455129e-01 1.304907e-01 1.175684e-01 1.064779e-01 9.699657e-02 8.887656e-02 8.195269e-02 7.608518e-02 7.122504e-02 6.734853e-02 6.448512e-02 6.265685e-02 
6.854296e-02 6.892715e-02 7.057239e-02 7.342155e-02 7.743887e-02 8.256642e-02 8.883357e-02 9.627667e-02 1.050832e-01 1.154332e-01 1.276527e-01 1.419775e-01 1.587034e-01 1.780818e-01 2.004052e-01 2.264082e-01 2.565798e-01 2.919947e-01 3.291717e-01 3.574814e-01 3.641983e-01 3.522221e-01 3.335283e-01 3.161670e-01 3.022782e-01 2.926036e-01 2.874554e-01 2.863500e-01 2.877816e-01 2.902087e-01 2.927696e-01 2.945465e-01 2.952604e-01 2.946325e-01 2.929129e-01 2.903554e-01 2.878212e-01 2.862074e-01 2.867986e-01 2.910143e-01 2.994790e-01 3.120743e-01 3.280382e-01 3.462867e-01 3.616219e-01 3.624174e-01 3.405766e-01 3.049037e-01 2.686890e-01 2.368260e-01 2.097664e-01 1.866512e-01 1.666271e-01 1.492120e-01 1.341406e-01 1.211364e-01 1.099890e-01 1.004217e-01 9.225394e-02 8.532239e-02 7.957331e-02 7.498291e-02 7.159135e-02 6.943004e-02 
7.522772e-02 7.570330e-02 7.767086e-02 8.105658e-02 8.580886e-02 9.184746e-02 9.920131e-02 1.079004e-01 1.181713e-01 1.301999e-01 1.443764e-01 1.608980e-01 1.800983e-01 2.021492e-01 2.274540e-01 2.568431e-01 2.909787e-01 3.292259e-01 3.598968e-01 3.661014e-01 3.504928e-01 3.286834e-01 3.081522e-01 2.906874e-01 2.771549e-01 2.679338e-01 2.628599e-01 2.613755e-01 2.623162e-01 2.643917e-01 2.666848e-01 2.683440e-01 2.690183e-01 2.684466e-01 2.668680e-01 2.646072e-01 2.624670e-01 2.613328e-01 2.623484e-01 2.665967e-01 2.746930e-01 2.868304e-01 3.027087e-01 3.218504e-01 3.433193e-01 3.623875e-01 3.651972e-01 3.415991e-01 3.046961e-01 2.687000e-01 2.380424e-01 2.118769e-01 1.891401e-01 1.692271e-01 1.518650e-01 1.367819e-01 1.237986e-01 1.126221e-01 1.030615e-01 9.493398e-02 8.818179e-02 8.278461e-02 7.879553e-02 7.625867e-02 
8.184003e-02 8.242585e-02 8.476375e-02 8.875876e-02 9.433822e-02 1.013930e-01 1.099484e-01 1.200191e-01 1.318733e-01 1.456830e-01 1.619193e-01 1.806912e-01 2.024248e-01 2.271238e-01 2.553898e-01 2.881346e-01 3.255636e-01 3.598940e-01 3.706657e-01 3.540131e-01 3.291790e-01 3.055818e-01 2.851539e-01 2.680673e-01 2.548312e-01 2.456303e-01 2.402728e-01 2.381907e-01 2.383806e-01 2.397836e-01 2.415297e-01 2.428617e-01 2.434197e-01 2.429656e-01 2.417145e-01 2.399996e-01 2.385291e-01 2.381205e-01 2.397351e-01 2.443083e-01 2.524368e-01 2.643593e-01 2.799260e-01 2.989261e-01 3.211879e-01 3.457789e-01 3.671250e-01 3.675171e-01 3.393986e-01 3.013000e-01 2.669504e-01 2.379162e-01 2.125407e-01 1.901080e-01 1.704108e-01 1.531466e-01 1.382107e-01 1.252981e-01 1.142211e-01 1.047826e-01 9.692441e-02 9.063399e-02 8.598071e-02 8.302671e-02 
8.826266e-02 8.897987e-02 9.173623e-02 9.640919e-02 1.028971e-01 1.110589e-01 1.209051e-01 1.324327e-01 1.459351e-01 1.615653e-01 1.798576e-01 2.008218e-01 2.249745e-01 2.521332e-01 2.830442e-01 3.194324e-01 3.562650e-01 3.755415e-01 3.626891e-01 3.357909e-01 3.094420e-01 2.859511e-01 2.657418e-01 2.489266e-01 2.357415e-01 2.262400e-01 2.201928e-01 2.171332e-01 2.162538e-01 2.167045e-01 2.177021e-01 2.185852e-01 2.189796e-01 2.186813e-01 2.178657e-01 2.168697e-01 2.163179e-01 2.169334e-01 2.195182e-01 2.248230e-01 2.333496e-01 2.453637e-01 2.608366e-01 2.797604e-01 3.018717e-01 3.271650e-01 3.542728e-01 3.750493e-01 3.671872e-01 3.332203e-01 2.956157e-01 2.639046e-01 2.360642e-01 2.112343e-01 1.892553e-01 1.698146e-01 1.528840e-01 1.381743e-01 1.255038e-01 1.146760e-01 1.056349e-01 9.838431e-02 9.301455e-02 8.961184e-02 
9.438343e-02 9.525367e-02 9.846691e-02 1.038718e-01 1.113294e-01 1.206631e-01 1.318541e-01 1.448749e-01 1.600225e-01 1.774179e-01 1.976432e-01 2.205900e-01 2.469444e-01 2.761496e-01 3.095604e-01 3.485231e-01 3.780019e-01 3.755407e-01 3.482753e-01 3.196990e-01 2.934790e-01 2.704174e-01 2.504556e-01 2.336826e-01 2.201819e-01 2.099956e-01 2.029510e-01 1.987011e-01 1.965894e-01 1.959348e-01 1.960544e-01 1.963847e-01 1.965722e-01 1.964482e-01 1.961484e-01 1.959841e-01 1.964877e-01 1.982865e-01 2.020406e-01 2.083666e-01 2.176665e-01 2.301383e-01 2.457942e-01 2.646065e-01 2.865238e-01 3.114779e-01 3.390533e-01 3.676275e-01 3.817493e-01 3.613456e-01 3.240051e-01 2.888532e-01 2.590381e-01 2.319341e-01 2.078451e-01 1.863191e-01 1.674382e-01 1.509429e-01 1.366593e-01 1.244083e-01 1.141413e-01 1.058890e-01 9.976839e-02 9.589663e-02 
1.000914e-01 1.011320e-01 1.048285e-01 1.110002e-01 1.194624e-01 1.300009e-01 1.425499e-01 1.570552e-01 1.737833e-01 1.928228e-01 2.147705e-01 2.394054e-01 2.677351e-01 2.985941e-01 3.352031e-01 3.726494e-01 3.874668e-01 3.664234e-01 3.360165e-01 3.077159e-01 2.822538e-01 2.595210e-01 2.396344e-01 2.225247e-01 2.083388e-01 1.971332e-01 1.888268e-01 1.831821e-01 1.796962e-01 1.778229e-01 1.769809e-01 1.766990e-01 1.766536e-01 1.767111e-01 1.769697e-01 1.777074e-01 1.793706e-01 1.824905e-01 1.876062e-01 1.952103e-01 2.055866e-01 2.188536e-01 2.349835e-01 2.538690e-01 2.755268e-01 2.997251e-01 3.269481e-01 3.561062e-01 3.843815e-01 3.827469e-01 3.501984e-01 3.118729e-01 2.805002e-01 2.514789e-01 2.255174e-01 2.021215e-01 1.814276e-01 1.632461e-01 1.473992e-01 1.337474e-01 1.222554e-01 1.129930e-01 1.061112e-01 1.017648e-01 
1.052861e-01 1.065084e-01 1.106990e-01 1.176482e-01 1.271188e-01 1.388595e-01 1.527411e-01 1.686852e-01 1.868891e-01 2.074261e-01 2.308145e-01 2.568170e-01 2.865600e-01 3.188328e-01 3.580854e-01 3.900664e-01 3.879007e-01 3.571776e-01 3.279388e-01 3.004735e-01 2.758057e-01 2.532770e-01 2.331326e-01 2.153341e-01 2.001240e-01 1.876433e-01 1.779014e-01 1.707583e-01 1.658463e-01 1.627256e-01 1.609056e-01 1.599940e-01 1.597066e-01 1.599379e-01 1.607581e-01 1.624057e-01 1.652510e-01 1.697403e-01 1.763169e-01 1.853531e-01 1.970351e-01 2.113908e-01 2.283061e-01 2.475912e-01 2.691612e-01 2.929125e-01 3.192544e-01 3.476761e-01 3.795471e-01 3.946803e-01 3.718913e-01 3.335907e-01 3.000123e-01 2.695791e-01 2.418024e-01 2.168141e-01 1.944730e-01 1.747634e-01 1.574539e-01 1.424713e-01 1.297966e-01 1.195495e-01 1.119216e-01 1.071105e-01 
1.098722e-01 1.112790e-01 1.159539e-01 1.236600e-01 1.341039e-01 1.470014e-01 1.621470e-01 1.794523e-01 1.990050e-01 2.209214e-01 2.454963e-01 2.727145e-01 3.031912e-01 3.370220e-01 3.764039e-01 4.001428e-01 3.849262e-01 3.527618e-01 3.246396e-01 2.982198e-01 2.739134e-01 2.512336e-01 2.304191e-01 2.116077e-01 1.951243e-01 1.812123e-01 1.699566e-01 1.612971e-01 1.549716e-01 1.506302e-01 1.478608e-01 1.463365e-01 1.458124e-01 1.462057e-01 1.475659e-01 1.500935e-01 1.540952e-01 1.599434e-01 1.680014e-01 1.785382e-01 1.916607e-01 2.073189e-01 2.252992e-01 2.453306e-01 2.671536e-01 2.907322e-01 3.160998e-01 3.438467e-01 3.740703e-01 3.996661e-01 3.894399e-01 3.535065e-01 3.170973e-01 2.855637e-01 2.562106e-01 2.299402e-01 2.062029e-01 1.851672e-01 1.665510e-01 1.503525e-01 1.365819e-01 1.254123e-01 1.170820e-01 1.118336e-01 
1.137663e-01 1.153500e-01 1.204756e-01 1.288826e-01 1.402224e-01 1.541848e-01 1.704861e-01 1.890422e-01 2.098265e-01 2.330392e-01 2.587313e-01 2.872114e-01 3.183707e-01 3.538331e-01 3.913178e-01 4.051213e-01 3.824956e-01 3.527219e-01 3.253989e-01 2.998046e-01 2.754583e-01 2.523243e-01 2.305638e-01 2.105717e-01 1.927106e-01 1.773480e-01 1.646150e-01 1.545260e-01 1.468842e-01 1.414193e-01 1.377828e-01 1.356988e-01 1.349586e-01 1.354941e-01 1.373427e-01 1.406714e-01 1.457371e-01 1.528527e-01 1.623108e-01 1.743077e-01 1.888870e-01 2.059369e-01 2.251501e-01 2.461806e-01 2.685734e-01 2.922569e-01 3.169202e-01 3.436018e-01 3.712879e-01 4.008880e-01 4.018805e-01 3.695102e-01 3.312317e-01 2.988075e-01 2.684394e-01 2.411649e-01 2.163374e-01 1.941808e-01 1.744490e-01 1.571818e-01 1.424414e-01 1.304461e-01 1.214862e-01 1.158458e-01 
1.168920e-01 1.186323e-01 1.241484e-01 1.331601e-01 1.452700e-01 1.601478e-01 1.774401e-01 1.970717e-01 2.189208e-01 2.432597e-01 2.699656e-01 2.995316e-01 3.314388e-01 3.679163e-01 4.025794e-01 4.077375e-01 3.816602e-01 3.544813e-01 3.281493e-01 3.032738e-01 2.787502e-01 2.550866e-01 2.323299e-01 2.111873e-01 1.920242e-01 1.753426e-01 1.612974e-01 1.499665e-01 1.411943e-01 1.347696e-01 1.303963e-01 1.278371e-01 1.269138e-01 1.275680e-01 1.298305e-01 1.338411e-01 1.398188e-01 1.480298e-01 1.587100e-01 1.720101e-01 1.879266e-01 2.063032e-01 2.267575e-01 2.488691e-01 2.720301e-01 2.960483e-01 3.203996e-01 3.459773e-01 3.719059e-01 4.013947e-01 4.099306e-01 3.817120e-01 3.428798e-01 3.095519e-01 2.785349e-01 2.503741e-01 2.246846e-01 2.015822e-01 1.809327e-01 1.627689e-01 1.472184e-01 1.345277e-01 1.250380e-01 1.190679e-01 
1.191847e-01 1.210492e-01 1.268689e-01 1.363497e-01 1.490554e-01 1.646418e-01 1.827013e-01 2.031668e-01 2.258489e-01 2.510620e-01 2.785861e-01 3.089460e-01 3.415296e-01 3.784035e-01 4.103403e-01 4.094393e-01 3.822590e-01 3.568322e-01 3.314664e-01 3.070844e-01 2.823687e-01 2.582222e-01 2.346157e-01 2.125171e-01 1.922811e-01 1.745421e-01 1.594588e-01 1.471607e-01 1.375164e-01 1.303535e-01 1.254154e-01 1.224926e-01 1.214293e-01 1.221732e-01 1.247517e-01 1.292849e-01 1.359655e-01 1.450238e-01 1.566596e-01 1.709934e-01 1.879904e-01 2.074650e-01 2.289748e-01 2.520163e-01 2.758897e-01 3.002107e-01 3.244581e-01 3.490558e-01 3.740235e-01 4.016306e-01 4.148036e-01 3.908334e-01 3.525332e-01 3.180354e-01 2.864562e-01 2.574072e-01 2.310181e-01 2.071409e-01 1.857872e-01 1.669315e-01 1.507655e-01 1.375440e-01 1.276519e-01 1.214313e-01 
1.205904e-01 1.225347e-01 1.285485e-01 1.383283e-01 1.514140e-01 1.674518e-01 1.860029e-01 2.070020e-01 2.302284e-01 2.560055e-01 2.840987e-01 3.149551e-01 3.481036e-01 3.848921e-01 4.146914e-01 4.102298e-01 3.831407e-01 3.586577e-01 3.339588e-01 3.098499e-01 2.850062e-01 2.605427e-01 2.363869e-01 2.136709e-01 1.927360e-01 1.743136e-01 1.585678e-01 1.456592e-01 1.354677e-01 1.278423e-01 1.225503e-01 1.193997e-01 1.182491e-01 1.190491e-01 1.218263e-01 1.266884e-01 1.338119e-01 1.434049e-01 1.556481e-01 1.706462e-01 1.883522e-01 2.085517e-01 2.307626e-01 2.544140e-01 2.787708e-01 3.032684e-01 3.274955e-01 3.514002e-01 3.759343e-01 4.018035e-01 4.175230e-01 3.968118e-01 3.593513e-01 3.237596e-01 2.917037e-01 2.619310e-01 2.350448e-01 2.106323e-01 1.888214e-01 1.695196e-01 1.529635e-01 1.394056e-01 1.292595e-01 1.228809e-01 
1.210676e-01 1.230399e-01 1.291207e-01 1.390034e-01 1.522196e-01 1.684124e-01 1.871316e-01 2.083130e-01 2.317251e-01 2.576924e-01 2.859812e-01 3.169997e-01 3.503837e-01 3.870719e-01 4.161096e-01 4.105800e-01 3.835827e-01 3.593658e-01 3.349087e-01 3.108805e-01 2.859976e-01 2.614215e-01 2.370781e-01 2.141447e-01 1.929651e-01 1.743013e-01 1.583210e-01 1.452000e-01 1.348187e-01 1.270330e-01 1.216179e-01 1.183880e-01 1.172069e-01 1.180263e-01 1.208722e-01 1.258482e-01 1.331251e-01 1.429026e-01 1.553563e-01 1.705871e-01 1.885434e-01 2.089981e-01 2.314566e-01 2.553230e-01 2.798527e-01 3.044172e-01 3.286659e-01 3.523552e-01 3.768028e-01 4.019789e-01 4.184494e-01 3.989266e-01 3.618043e-01 3.257746e-01 2.935254e-01 2.634880e-01 2.364226e-01 2.118224e-01 1.898539e-01 1.703992e-01 1.537101e-01 1.400375e-01 1.298049e-01 1.233726e-01 
1.205904e-01 1.225347e-01 1.285485e-01 1.383283e-01 1.514140e-01 1.674518e-01 1.860029e-01 2.070020e-01 2.302284e-01 2.560055e-01 2.840987e-01 3.149551e-01 3.481036e-01 3.848921e-01 4.146914e-01 4.102298e-01 3.831407e-01 3.586577e-01 3.339588e-01 3.098499e-01 2.850062e-01 2.605427e-01 2.363869e-01 2.136709e-01 1.927360e-01 1.743136e-01 1.585678e-01 1.456592e-01 1.354677e-01 1.278423e-01 1.225503e-01 1.193997e-01 1.182491e-01 1.190491e-01 1.218263e-01 1.266884e-01 1.338119e-01 1.434049e-01 1.556481e-01 1.706462e-01 1.883522e-01 2.085517e-01 2.307626e-01 2.544140e-01 2.787708e-01 3.032684e-01 3.274955e-01 3.514002e-01 3.759343e-01 4.018035e-01 4.175230e-01 3.968118e-01 3.593513e-01 3.237596e-01 2.917037e-01 2.619310e-01 2.350448e-01 2.106323e-01 1.888214e-01 1.695196e-01 1.529635e-01 1.394056e-01 1.292595e-01 1.228809e-01 
1.191847e-01 1.210492e-01 1.268689e-01 1.363497e-01 1.490554e-01 1.646418e-01 1.827013e-01 2.031668e-01 2.258489e-01 2.510620e-01 2.785861e-01 3.089460e-01 3.415296e-01 3.784035e-01 4.103403e-01 4.094393e-01 3.822590e-01 3.568322e-01 3.314664e-01 3.070844e-01 2.823687e-01 2.582222e-01 2.346157e-01 2.125171e-01 1.922811e-01 1.745421e-01 1.594588e-01 1.471607e-01 1.375164e-01 1.303535e-01 1.254154e-01 1.224926e-01 1.214293e-01 1.221732e-01 1.247517e-01 1.292849e-01 1.359655e-01 1.450238e-01 1.566596e-01 1.709934e-01 1.879904e-01 2.074650e-01 2.289748e-01 2.520163e-01 2.758897e-01 3.002107e-01 3.244581e-01 3.490558e-01 3.740235e-01 4.016306e-01 4.148036e-01 3.908334e-01 3.525332e-01 3.180354e-01 2.864562e-01 2.574072e-01 2.310181e-01 2.071409e-01 1.857872e-01 1.669315e-01 1.507655e-01 1.375440e-01 1.276519e-01 1.214313e-01 