# vtk DataFile Version 2.0
Comment goes here
ASCII

DATASET STRUCTURED_POINTS
FIELD FieldData 1
TIME 1 1 double
0.13000000
DIMENSIONS    64   64   1

ORIGIN    0.000   0.000   0.000
SPACING   0.015625 0.015625   1.000

POINT_DATA   4096
SCALARS Concentration double
LOOKUP_TABLE default

1.191601e-13 2.423637e-13 8.330531e-13 2.898199e-12 9.667392e-12 3.075842e-11 9.320691e-11 2.687060e-10 7.363467e-10 1.916762e-09 4.738008e-09 1.112072e-08 2.479503e-08 5.255958e-08 1.060953e-07 2.044392e-07 3.775333e-07 6.718978e-07 1.161310e-06 1.966901e-06 3.292092e-06 5.472946e-06 9.069505e-06 1.501760e-05 2.484549e-05 4.090686e-05 6.645895e-05 1.051854e-04 1.595916e-04 2.279379e-04 3.006636e-04 3.594415e-04 3.829548e-04 3.594463e-04 3.006707e-04 2.279436e-04 1.595957e-04 1.051873e-04 6.645963e-05 4.090665e-05 2.484494e-05 1.501696e-05 9.068947e-06 5.472525e-06 3.291802e-06 1.966721e-06 1.161206e-06 6.718452e-07 3.775083e-07 2.044291e-07 1.060914e-07 5.255840e-08 2.479468e-08 1.112066e-08 4.738002e-09 1.916769e-09 7.363495e-10 2.687074e-10 9.320725e-11 3.075851e-11 9.667396e-12 2.898194e-12 8.330495e-13 2.423624e-13 
2.425720e-13 4.907514e-13 1.674250e-12 5.779097e-12 1.910847e-11 6.019859e-11 1.804078e-10 5.136948e-10 1.388473e-09 3.559776e-09 8.653770e-09 1.994479e-08 4.359853e-08 9.046293e-08 1.784458e-07 3.354320e-07 6.031403e-07 1.043184e-06 1.749253e-06 2.871339e-06 4.658894e-06 7.509583e-06 1.206308e-05 1.936854e-05 3.111659e-05 4.988714e-05 7.922703e-05 1.231231e-04 1.842455e-04 2.605920e-04 3.415615e-04 4.068974e-04 4.330252e-04 4.069032e-04 3.415700e-04 2.605989e-04 1.842504e-04 1.231252e-04 7.922755e-05 4.988649e-05 3.111554e-05 1.936744e-05 1.206216e-05 7.508917e-06 4.658452e-06 2.871073e-06 1.749108e-06 1.043115e-06 6.031111e-07 3.354227e-07 1.784435e-07 9.046311e-08 4.359894e-08 1.994515e-08 8.653937e-09 3.559857e-09 1.388501e-09 5.137055e-10 1.804109e-10 6.019956e-11 1.910871e-11 5.779157e-12 1.674261e-12 4.907538e-13 
8.206144e-13 1.649229e-12 5.574415e-12 1.905453e-11 6.232001e-11 1.939324e-10 5.732187e-10 1.607115e-09 4.269563e-09 1.073851e-08 2.555852e-08 5.755082e-08 1.226403e-07 2.474894e-07 4.736242e-07 8.613328e-07 1.493723e-06 2.482958e-06 3.986594e-06 6.244989e-06 9.650125e-06 1.478797e-05 2.252950e-05 3.424725e-05 5.209207e-05 7.928605e-05 1.202014e-04 1.796955e-04 2.609144e-04 3.610920e-04 4.665745e-04 5.514116e-04 5.853211e-04 5.514198e-04 4.665866e-04 3.611017e-04 2.609210e-04 1.796975e-04 1.202007e-04 7.928336e-05 5.208893e-05 3.424428e-05 2.252722e-05 1.478639e-05 9.649145e-06 6.244433e-06 3.986324e-06 2.482856e-06 1.493697e-06 8.613387e-07 4.736344e-07 2.474984e-07 1.226452e-07 5.755351e-08 2.555964e-08 1.073899e-08 4.269733e-09 1.607176e-09 5.732376e-10 1.939384e-10 6.232163e-11 1.905497e-11 5.574523e-12 1.649255e-12 
2.767072e-12 5.527954e-12 1.852849e-11 6.278251e-11 2.033496e-10 6.259273e-10 1.827611e-09 5.054559e-09 1.322638e-08 3.271382e-08 7.644362e-08 1.687078e-07 3.517554e-07 6.932662e-07 1.293251e-06 2.287734e-06 3.849742e-06 6.191618e-06 9.586563e-06 1.443260e-05 2.137688e-05 3.134111e-05 4.555893e-05 6.589970e-05 9.522180e-05 1.377488e-04 1.991654e-04 2.857489e-04 4.014606e-04 5.423233e-04 6.896176e-04 8.077704e-04 8.550127e-04 8.077845e-04 6.896386e-04 5.423401e-04 4.014714e-04 2.857506e-04 1.991615e-04 1.377409e-04 9.521350e-05 6.589230e-05 4.555354e-05 3.133757e-05 2.137485e-05 1.443157e-05 9.586185e-06 6.191578e-06 3.849819e-06 2.287836e-06 1.293323e-06 6.933129e-07 3.517786e-07 1.687193e-07 7.644822e-08 3.271570e-08 1.322702e-08 5.054787e-09 1.827680e-09 6.259489e-10 2.033554e-10 6.278414e-11 1.852889e-11 5.528052e-12 
8.867883e-12 1.761420e-11 5.856314e-11 1.967732e-10 6.314089e-10 1.923277e-09 5.550284e-09 1.515132e-08 3.907861e-08 9.513254e-08 2.184746e-07 4.731602e-07 9.666882e-07 1.864095e-06 3.397130e-06 5.861073e-06 9.601117e-06 1.499697e-05 2.248732e-05 3.268233e-05 4.659913e-05 6.568544e-05 9.160795e-05 1.268224e-04 1.750434e-04 2.417604e-04 3.343888e-04 4.611684e-04 6.272827e-04 8.272030e-04 1.035139e-03 1.201717e-03 1.268408e-03 1.201742e-03 1.035175e-03 8.272323e-04 6.272996e-04 4.611670e-04 3.343757e-04 2.417396e-04 1.750230e-04 1.268052e-04 9.159617e-05 6.567824e-05 4.659551e-05 3.268089e-05 2.248721e-05 1.499744e-05 9.601669e-06 5.861538e-06 3.397420e-06 1.864265e-06 9.667689e-07 4.731984e-07 2.184895e-07 9.513851e-08 3.908062e-08 1.515202e-08 5.550495e-09 1.923343e-09 6.314274e-10 1.967785e-10 5.856449e-11 1.761454e-11 
2.699490e-11 5.332175e-11 1.758925e-10 5.861709e-10 1.863822e-09 5.619346e-09 1.603172e-08 4.320854e-08 1.098817e-07 2.633765e-07 5.947182e-07 1.264691e-06 2.533720e-06 4.784954e-06 8.529319e-06 1.437466e-05 2.296718e-05 3.492508e-05 5.085726e-05 7.156546e-05 9.849724e-05 1.338932e-04 1.797849e-04 2.391391e-04 3.165064e-04 4.187647e-04 5.553917e-04 7.371444e-04 9.709579e-04 1.249600e-03 1.538300e-03 1.769534e-03 1.862295e-03 1.769580e-03 1.538368e-03 1.249653e-03 9.709844e-04 7.371328e-04 5.553564e-04 4.187157e-04 3.164612e-04 2.391032e-04 1.797622e-04 1.338809e-04 9.849264e-05 7.156524e-05 5.085934e-05 3.492781e-05 2.296947e-05 1.437633e-05 8.530288e-06 4.785494e-06 2.533965e-06 1.264802e-06 5.947599e-07 2.633928e-07 1.098870e-07 4.321035e-08 1.603225e-08 5.619513e-09 1.863868e-09 5.861842e-10 1.758960e-10 5.332265e-11 
7.822907e-11 1.537009e-10 5.031765e-10 1.663548e-09 5.242556e-09 1.564806e-08 4.414218e-08 1.174827e-07 2.946281e-07 6.954658e-07 1.544477e-06 3.226017e-06 6.340711e-06 1.173465e-05 2.047742e-05 3.375023e-05 5.267577e-05 7.813144e-05 1.107504e-04 1.512866e-04 2.014758e-04 2.647976e-04 3.433104e-04 4.401323e-04 5.603784e-04 7.122657e-04 9.075877e-04 1.160227e-03 1.479574e-03 1.856805e-03 2.246488e-03 2.558699e-03 2.684202e-03 2.558780e-03 2.246607e-03 1.856894e-03 1.479606e-03 1.160184e-03 9.074996e-04 7.121564e-04 5.602841e-04 4.400625e-04 3.432710e-04 2.647804e-04 2.014741e-04 1.512928e-04 1.107600e-04 7.814095e-05 5.268293e-05 3.375511e-05 2.048011e-05 1.173609e-05 6.341335e-06 3.226292e-06 1.544575e-06 6.955031e-07 2.946397e-07 1.174867e-07 4.414334e-08 1.564844e-08 5.242666e-09 1.663582e-09 5.031861e-10 1.537035e-10 
2.162179e-10 4.226866e-10 1.373763e-09 4.506903e-09 1.408005e-08 4.161276e-08 1.160826e-07 3.051028e-07 7.545803e-07 1.754133e-06 3.831342e-06 7.860983e-06 1.516051e-05 2.750353e-05 4.700860e-05 7.582798e-05 1.157359e-04 1.677039e-04 2.318796e-04 3.082750e-04 3.984196e-04 5.075598e-04 6.372320e-04 7.898990e-04 9.706607e-04 1.188881e-03 1.458916e-03 1.798519e-03 2.220462e-03 2.714726e-03 3.223883e-03 3.631841e-03 3.796074e-03 3.631986e-03 3.224087e-03 2.714869e-03 2.220490e-03 1.798402e-03 1.458719e-03 1.188656e-03 9.704804e-04 7.897767e-04 6.371746e-04 5.075464e-04 3.984353e-04 3.083042e-04 2.319117e-04 1.677324e-04 1.157560e-04 7.584108e-05 4.701551e-05 2.750709e-05 1.516197e-05 7.861603e-06 3.831548e-06 1.754209e-06 7.546018e-07 3.051102e-07 1.160847e-07 4.161350e-08 1.408028e-08 4.506979e-09 1.373786e-09 4.226936e-10 
5.710175e-10 1.111136e-09 3.586732e-09 1.168037e-08 3.618286e-08 1.059011e-07 2.921607e-07 7.583352e-07 1.849473e-06 4.233573e-06 9.093055e-06 1.832371e-05 3.467183e-05 6.165985e-05 1.032428e-04 1.630601e-04 2.435678e-04 3.451980e-04 4.663970e-04 6.049510e-04 7.611660e-04 9.423387e-04 1.149046e-03 1.381632e-03 1.644288e-03 1.947349e-03 2.308170e-03 2.749404e-03 3.288351e-03 3.914391e-03 4.557152e-03 5.071643e-03 5.278754e-03 5.071888e-03 4.557484e-03 3.914604e-03 3.288337e-03 2.749127e-03 2.307759e-03 1.946914e-03 1.643964e-03 1.381434e-03 1.148977e-03 9.423520e-04 7.612316e-04 6.050377e-04 4.664830e-04 3.452703e-04 2.436165e-04 1.630907e-04 1.032581e-04 6.166738e-05 3.467469e-05 1.832485e-05 9.093388e-06 4.233690e-06 1.849502e-06 7.583462e-07 2.921641e-07 1.059026e-07 3.618342e-08 1.168058e-08 3.586806e-09 1.111158e-09 
1.443261e-09 2.796818e-09 8.971566e-09 2.901214e-08 8.913713e-08 2.584012e-07 7.050340e-07 1.807051e-06 4.345070e-06 9.790892e-06 2.067155e-05 4.089481e-05 7.588922e-05 1.322535e-04 2.168899e-04 3.353931e-04 4.904165e-04 6.802559e-04 8.992204e-04 1.140312e-03 1.400984e-03 1.691191e-03 2.009413e-03 2.352062e-03 2.721422e-03 3.128909e-03 3.595691e-03 4.150706e-03 4.816981e-03 5.583792e-03 6.367230e-03 6.992351e-03 7.243375e-03 6.992757e-03 6.367757e-03 5.584098e-03 4.816870e-03 4.150131e-03 3.594907e-03 3.128122e-03 2.720883e-03 2.351771e-03 2.009366e-03 1.691288e-03 1.401174e-03 1.140536e-03 8.994303e-04 6.804283e-04 4.905284e-04 3.354610e-04 2.169220e-04 1.322685e-04 7.589431e-05 4.089666e-05 2.067197e-05 9.791018e-06 4.345089e-06 1.807062e-06 7.050387e-07 2.584041e-07 8.913849e-08 2.901272e-08 8.971780e-09 2.796887e-09 
3.497660e-09 6.753972e-09 2.154387e-08 6.921328e-08 2.109767e-07 6.058754e-07 1.634933e-06 4.137364e-06 9.805300e-06 2.174022e-05 4.509403e-05 8.752496e-05 1.591878e-04 2.716920e-04 4.361849e-04 6.601861e-04 9.448889e-04 1.283100e-03 1.660854e-03 2.062627e-03 2.481211e-03 2.930320e-03 3.403945e-03 3.892340e-03 4.395296e-03 4.926396e-03 5.512222e-03 6.189785e-03 6.988675e-03 7.897965e-03 8.819884e-03 9.550863e-03 9.842711e-03 9.551508e-03 8.820683e-03 7.898393e-03 6.988381e-03 6.188714e-03 5.510829e-03 4.925048e-03 4.394439e-03 3.891934e-03 3.403969e-03 2.930587e-03 2.481643e-03 2.063122e-03 1.661310e-03 1.283469e-03 9.451183e-04 6.603189e-04 4.362420e-04 2.717160e-04 1.591940e-04 8.752662e-05 4.509396e-05 2.174015e-05 9.805245e-06 4.137369e-06 1.634944e-06 6.058845e-07 2.109814e-07 6.921528e-08 2.154460e-08 6.754203e-09 
8.141673e-09 1.567725e-08 4.976712e-08 1.589274e-07 4.808010e-07 1.368063e-06 3.651084e-06 9.120536e-06 2.129581e-05 4.643148e-05 9.454601e-05 1.798834e-04 3.203614e-04 5.350097e-04 8.401800e-04 1.243838e-03 1.741678e-03 2.314952e-03 2.935060e-03 3.573869e-03 4.219344e-03 4.892892e-03 5.576349e-03 6.253068e-03 6.920747e-03 7.597148e-03 8.316023e-03 9.123876e-03 1.005660e-02 1.110195e-02 1.214880e-02 1.296988e-02 1.329453e-02 1.297087e-02 1.214997e-02 1.110259e-02 1.005608e-02 9.122090e-03 8.313732e-03 7.594955e-03 6.919461e-03 6.252527e-03 5.576527e-03 4.893465e-03 4.220221e-03 3.574900e-03 2.936002e-03 2.315713e-03 1.742130e-03 1.244086e-03 8.402747e-04 5.350435e-04 3.203656e-04 1.798826e-04 9.454419e-05 4.643074e-05 2.129556e-05 9.120528e-06 3.651117e-06 1.368090e-06 4.808153e-07 1.589334e-07 4.976934e-08 1.567794e-08 
1.824017e-08 3.505345e-08 1.108474e-07 3.520897e-07 1.057606e-06 2.982302e-06 7.871581e-06 1.940585e-05 4.462006e-05 9.559896e-05 1.909229e-04 3.557059e-04 6.196463e-04 1.011542e-03 1.552506e-03 2.246527e-03 3.076122e-03 4.001241e-03 4.971103e-03 5.943032e-03 6.905577e-03 7.885777e-03 8.844101e-03 9.757686e-03 1.062440e-02 1.147080e-02 1.233992e-02 1.328821e-02 1.435518e-02 1.552459e-02 1.667379e-02 1.756070e-02 1.790674e-02 1.756218e-02 1.667542e-02 1.552562e-02 1.435449e-02 1.328556e-02 1.233644e-02 1.146740e-02 1.062251e-02 9.756930e-03 8.844467e-03 7.886762e-03 6.907140e-03 5.944977e-03 4.972895e-03 4.002678e-03 3.076920e-03 2.246925e-03 1.552622e-03 1.011564e-03 6.196313e-04 3.556936e-04 1.909155e-04 9.559643e-05 4.461948e-05 1.940593e-05 7.871736e-06 2.982402e-06 1.057654e-06 3.521091e-07 1.108543e-07 3.505553e-08 
3.940502e-08 7.565382e-08 2.385771e-07 7.543092e-07 2.250758e-06 6.291351e-06 1.642232e-05 3.994314e-05 9.038663e-05 1.901285e-04 3.720087e-04 6.778567e-04 1.153669e-03 1.838975e-03 2.756153e-03 3.895954e-03 5.214802e-03 6.638314e-03 8.085294e-03 9.502457e-03 1.090147e-02 1.228473e-02 1.359875e-02 1.481676e-02 1.593788e-02 1.699961e-02 1.805188e-02 1.915906e-02 2.036047e-02 2.163372e-02 2.285098e-02 2.376967e-02 2.412237e-02 2.377177e-02 2.285305e-02 2.163560e-02 2.036009e-02 1.915567e-02 1.804704e-02 1.699453e-02 1.593527e-02 1.481567e-02 1.359932e-02 1.228622e-02 1.090405e-02 9.505982e-03 8.088551e-03 6.640939e-03 5.216161e-03 3.896553e-03 2.756263e-03 1.838947e-03 1.153606e-03 6.778174e-04 3.719896e-04 1.901224e-04 9.038569e-05 3.994359e-05 1.642284e-05 6.291650e-06 2.250898e-06 7.543633e-07 2.385961e-07 7.565946e-08 
8.225519e-08 1.579479e-07 4.973485e-07 1.566507e-06 4.645596e-06 1.287493e-05 3.323395e-05 7.971820e-05 1.774047e-04 3.659983e-04 7.006987e-04 1.247082e-03 2.071075e-03 3.220703e-03 4.711066e-03 6.504203e-03 8.513240e-03 1.061411e-02 1.269601e-02 1.471492e-02 1.671974e-02 1.863894e-02 2.041056e-02 2.201173e-02 2.344898e-02 2.478206e-02 2.606497e-02 2.736587e-02 2.871563e-02 3.008076e-02 3.133725e-02 3.225901e-02 3.260820e-02 3.226215e-02 3.133992e-02 3.008450e-02 2.871630e-02 2.736204e-02 2.605903e-02 2.477505e-02 2.344563e-02 2.201019e-02 2.041118e-02 1.864070e-02 1.672362e-02 1.472078e-02 1.270143e-02 1.061851e-02 8.515287e-03 6.504910e-03 4.711008e-03 3.220497e-03 2.070887e-03 1.246977e-03 7.006549e-04 3.659865e-04 1.774049e-04 7.972056e-05 3.323579e-05 1.287587e-05 4.646010e-06 1.566661e-06 4.974009e-07 1.579631e-07 
1.662047e-07 3.196103e-07 1.006285e-06 3.160281e-06 9.319336e-06 2.561283e-05 6.536808e-05 1.545528e-04 3.379335e-04 6.829131e-04 1.277429e-03 2.217448e-03 3.589559e-03 5.442280e-03 7.769828e-03 1.048420e-02 1.343627e-02 1.644595e-02 1.938327e-02 2.225766e-02 2.504995e-02 2.764841e-02 3.002077e-02 3.215662e-02 3.405419e-02 3.578542e-02 3.738975e-02 3.893668e-02 4.045168e-02 4.189309e-02 4.315701e-02 4.405354e-02 4.439169e-02 4.405876e-02 4.316033e-02 4.190033e-02 4.045402e-02 3.893199e-02 3.738315e-02 3.577683e-02 3.405162e-02 3.215516e-02 3.002142e-02 2.764993e-02 2.505484e-02 2.226656e-02 1.939169e-02 1.645310e-02 1.343934e-02 1.048495e-02 7.769459e-03 5.441751e-03 3.589155e-03 2.217223e-03 1.277344e-03 6.828934e-04 3.379386e-04 1.545602e-04 6.537320e-05 2.561533e-05 9.320402e-06 3.160671e-06 1.006416e-06 3.196477e-07 
3.256428e-07 6.279982e-07 1.979984e-06 6.205649e-06 1.820517e-05 4.962172e-05 1.251720e-04 2.914953e-04 6.254955e-04 1.236293e-03 2.255759e-03 3.813807e-03 6.012285e-03 8.886880e-03 1.239246e-02 1.636903e-02 2.059392e-02 2.482495e-02 2.898264e-02 3.311439e-02 3.701387e-02 4.053707e-02 4.369154e-02 4.650082e-02 4.898252e-02 5.126415e-02 5.336291e-02 5.532256e-02 5.713974e-02 5.874789e-02 6.006789e-02 6.096282e-02 6.130245e-02 6.097225e-02 6.007325e-02 5.876156e-02 5.714047e-02 5.531169e-02 5.335734e-02 5.125833e-02 4.898457e-02 4.650202e-02 4.369218e-02 4.053621e-02 3.701934e-02 3.312714e-02 2.899409e-02 2.483550e-02 2.059802e-02 1.636931e-02 1.239129e-02 8.885666e-03 6.011461e-03 3.813359e-03 2.255615e-03 1.236278e-03 6.255240e-04 2.915204e-04 1.251871e-04 4.962866e-05 1.820799e-05 6.206651e-06 1.980311e-06 6.280898e-07 
6.195051e-07 1.199974e-06 3.794571e-06 1.187916e-05 3.468096e-05 9.374227e-05 2.335858e-04 5.352296e-04 1.125432e-03 2.171635e-03 3.858234e-03 6.345083e-03 9.737935e-03 1.404112e-02 1.916022e-02 2.484210e-02 3.081008e-02 3.684621e-02 4.285961e-02 4.853006e-02 5.367077e-02 5.830591e-02 6.262646e-02 6.662762e-02 7.020889e-02 7.350478e-02 7.647974e-02 7.913529e-02 8.146944e-02 8.341693e-02 8.491924e-02 8.588760e-02 8.625821e-02 8.589960e-02 8.492272e-02 8.344260e-02 8.146989e-02 7.910870e-02 7.646646e-02 7.350251e-02 7.022969e-02 6.664235e-02 6.263002e-02 5.829901e-02 5.367281e-02 4.854711e-02 4.287320e-02 3.686042e-02 3.081628e-02 2.484177e-02 1.915829e-02 1.403914e-02 9.736595e-03 6.344315e-03 3.858022e-03 2.171649e-03 1.125516e-03 5.352946e-04 2.336227e-04 9.375894e-05 3.468762e-05 1.188151e-05 3.795332e-06 1.200186e-06 
1.145601e-06 2.232549e-06 7.092285e-06 2.219465e-05 6.449484e-05 1.728155e-04 4.249881e-04 9.568220e-04 1.967848e-03 3.699247e-03 6.388273e-03 1.021122e-02 1.526177e-02 2.150695e-02 2.879621e-02 3.680816e-02 4.525701e-02 5.371023e-02 6.176503e-02 6.953470e-02 7.689313e-02 8.353816e-02 8.955482e-02 9.497821e-02 9.952764e-02 1.031682e-01 1.058856e-01 1.078808e-01 1.093562e-01 1.104412e-01 1.112297e-01 1.117140e-01 1.118998e-01 1.117156e-01 1.112328e-01 1.104752e-01 1.093458e-01 1.078353e-01 1.058728e-01 1.031769e-01 9.956407e-02 9.501681e-02 8.957086e-02 8.351381e-02 7.689204e-02 6.956011e-02 6.177618e-02 5.372380e-02 4.526542e-02 3.680653e-02 2.879266e-02 2.150384e-02 1.525975e-02 1.021004e-02 6.388112e-03 3.699451e-03 1.968115e-03 9.570017e-04 4.250831e-04 1.728569e-04 6.451082e-05 2.220016e-05 7.094032e-06 2.233029e-06 
2.060502e-06 4.047584e-06 1.293945e-05 4.050584e-05 1.171475e-04 3.109645e-04 7.537117e-04 1.664383e-03 3.340505e-03 6.104108e-03 1.023188e-02 1.589780e-02 2.318102e-02 3.201878e-02 4.226036e-02 5.341030e-02 6.504620e-02 7.672803e-02 8.780306e-02 9.780617e-02 1.060374e-01 1.116115e-01 1.147134e-01 1.158587e-01 1.154209e-01 1.140633e-01 1.123243e-01 1.105877e-01 1.090776e-01 1.078765e-01 1.070308e-01 1.065509e-01 1.063947e-01 1.065608e-01 1.070386e-01 1.078747e-01 1.090612e-01 1.105665e-01 1.123241e-01 1.140743e-01 1.154143e-01 1.158553e-01 1.147504e-01 1.115997e-01 1.060208e-01 9.783114e-02 8.781755e-02 7.674052e-02 6.506132e-02 5.341093e-02 4.225748e-02 3.201621e-02 2.317886e-02 1.589619e-02 1.023191e-02 6.104711e-03 3.341122e-03 1.664780e-03 7.539174e-04 3.110537e-04 1.171818e-04 4.051770e-05 1.294320e-05 4.048613e-06 
3.605453e-06 7.154549e-06 2.305823e-05 7.224567e-05 2.078699e-04 5.460103e-04 1.301986e-03 2.813798e-03 5.497697e-03 9.744606e-03 1.585137e-02 2.398621e-02 3.425982e-02 4.663406e-02 6.082646e-02 7.616660e-02 9.172117e-02 1.053535e-01 1.147562e-01 1.191919e-01 1.188752e-01 1.149278e-01 1.089869e-01 1.021910e-01 9.545544e-02 8.964970e-02 8.513196e-02 8.167695e-02 7.923281e-02 7.755370e-02 7.645435e-02 7.585087e-02 7.564652e-02 7.585069e-02 7.644617e-02 7.753909e-02 7.922888e-02 8.165239e-02 8.509158e-02 8.965094e-02 9.551066e-02 1.022083e-01 1.089760e-01 1.149330e-01 1.188634e-01 1.192078e-01 1.147721e-01 1.053620e-01 9.174256e-02 7.616643e-02 6.082180e-02 4.663145e-02 3.425884e-02 2.398433e-02 1.585234e-02 9.746467e-03 5.499206e-03 2.814711e-03 1.302437e-03 5.462019e-04 2.079421e-04 7.227024e-05 2.306591e-05 7.156635e-06 
6.135113e-06 1.233154e-05 4.014892e-05 1.259583e-04 3.602658e-04 9.349184e-04 2.188117e-03 4.617102e-03 8.759129e-03 1.504435e-02 2.379287e-02 3.526140e-02 4.960539e-02 6.681636e-02 8.586977e-02 1.039700e-01 1.167374e-01 1.213640e-01 1.181445e-01 1.094788e-01 9.799951e-02 8.657073e-02 7.698110e-02 6.958873e-02 6.383701e-02 5.940862e-02 5.609146e-02 5.361378e-02 5.193381e-02 5.082057e-02 5.012906e-02 4.976417e-02 4.963941e-02 4.976216e-02 5.012245e-02 5.080722e-02 5.192272e-02 5.359584e-02 5.607419e-02 5.942566e-02 6.388775e-02 6.961607e-02 7.694115e-02 8.655039e-02 9.800463e-02 1.094486e-01 1.181372e-01 1.213801e-01 1.167599e-01 1.039723e-01 8.587586e-02 6.681927e-02 4.960763e-02 3.525851e-02 2.379441e-02 1.504794e-02 8.761881e-03 4.618746e-03 2.188933e-03 9.352700e-04 3.604003e-04 1.260046e-04 4.016351e-05 1.233551e-05 
1.014031e-05 2.072056e-05 6.831436e-05 2.146608e-04 6.095571e-04 1.559510e-03 3.572459e-03 7.341827e-03 1.349604e-02 2.248153e-02 3.479811e-02 5.075937e-02 7.056357e-02 9.260688e-02 1.116233e-01 1.208177e-01 1.184616e-01 1.074480e-01 9.276362e-02 7.905785e-02 6.787360e-02 5.849201e-02 5.081209e-02 4.491903e-02 4.050813e-02 3.729779e-02 3.504732e-02 3.348650e-02 3.248890e-02 3.186668e-02 3.150763e-02 3.132748e-02 3.126747e-02 3.132480e-02 3.150253e-02 3.185744e-02 3.247963e-02 3.347616e-02 3.504279e-02 3.730949e-02 4.052874e-02 4.492491e-02 5.078553e-02 5.847836e-02 6.787860e-02 7.902423e-02 9.276395e-02 1.074690e-01 1.184507e-01 1.208137e-01 1.116281e-01 9.260976e-02 7.057756e-02 5.075881e-02 3.480131e-02 2.248936e-02 1.350134e-02 7.344790e-03 3.573885e-03 1.560122e-03 6.097932e-04 2.147423e-04 6.834016e-05 2.072757e-05 
1.623356e-05 3.390531e-05 1.135478e-04 3.574280e-04 1.006146e-03 2.530924e-03 5.658132e-03 1.130111e-02 2.010973e-02 3.266029e-02 4.966218e-02 7.139583e-02 9.566455e-02 1.148738e-01 1.200554e-01 1.113973e-01 9.575483e-02 8.011613e-02 6.662682e-02 5.497294e-02 4.539171e-02 3.771261e-02 3.183432e-02 2.751477e-02 2.441378e-02 2.223651e-02 2.076109e-02 1.978049e-02 1.917577e-02 1.881481e-02 1.861942e-02 1.852545e-02 1.849569e-02 1.852361e-02 1.861601e-02 1.880904e-02 1.916966e-02 1.977477e-02 2.075882e-02 2.224052e-02 2.442052e-02 2.751704e-02 3.182702e-02 3.770848e-02 4.539384e-02 5.495448e-02 6.662592e-02 8.011340e-02 9.571167e-02 1.113889e-01 1.200522e-01 1.148719e-01 9.568762e-02 7.139054e-02 4.966053e-02 3.266970e-02 2.011667e-02 1.130493e-02 5.660072e-03 2.531823e-03 1.006523e-03 3.575654e-04 1.135932e-04 3.391797e-05 
2.500948e-05 5.351460e-05 1.823758e-04 5.759833e-04 1.610343e-03 3.984274e-03 8.681080e-03 1.682172e-02 2.895718e-02 4.593217e-02 6.877911e-02 9.497038e-02 1.152184e-01 1.180805e-01 1.055345e-01 8.841440e-02 7.266365e-02 5.905349e-02 4.743420e-02 3.773780e-02 2.993645e-02 2.385756e-02 1.934044e-02 1.611829e-02 1.389425e-02 1.240089e-02 1.143566e-02 1.082887e-02 1.047407e-02 1.027629e-02 1.017836e-02 1.013480e-02 1.012221e-02 1.013359e-02 1.017622e-02 1.027295e-02 1.047053e-02 1.082557e-02 1.143415e-02 1.240193e-02 1.389646e-02 1.611935e-02 1.933851e-02 2.385596e-02 2.993635e-02 3.772891e-02 4.743236e-02 5.904674e-02 7.265048e-02 8.842188e-02 1.055282e-01 1.180668e-01 1.151970e-01 9.491137e-02 6.876361e-02 4.594816e-02 2.896711e-02 1.682600e-02 8.683295e-03 3.985330e-03 1.610825e-03 5.761671e-04 1.824394e-04 5.353258e-05 
3.695333e-05 8.103466e-05 2.808313e-04 8.886584e-04 2.465612e-03 5.991201e-03 1.273178e-02 2.392376e-02 3.989713e-02 6.220582e-02 9.006691e-02 1.132706e-01 1.173547e-01 1.033914e-01 8.551272e-02 6.954984e-02 5.596299e-02 4.441071e-02 3.457157e-02 2.639904e-02 1.994994e-02 1.509441e-02 1.161618e-02 9.212411e-03 7.605428e-03 6.558755e-03 5.902210e-03 5.503086e-03 5.276317e-03 5.154111e-03 5.095855e-03 5.070708e-03 5.063949e-03 5.070061e-03 5.094702e-03 5.152400e-03 5.274505e-03 5.501457e-03 5.901404e-03 6.558979e-03 7.606266e-03 9.213074e-03 1.161623e-02 1.509415e-02 1.995012e-02 2.639599e-02 3.457134e-02 4.441008e-02 5.596159e-02 6.955320e-02 8.551590e-02 1.033942e-01 1.173594e-01 1.132627e-01 9.009082e-02 6.222141e-02 3.990501e-02 2.392707e-02 1.273405e-02 5.992550e-03 2.466319e-03 8.889496e-04 2.809356e-04 8.106512e-05 
5.224980e-05 1.173664e-04 4.129493e-04 1.307096e-03 3.594095e-03 8.564728e-03 1.775495e-02 3.235417e-02 5.245629e-02 8.031677e-02 1.079028e-01 1.181038e-01 1.052761e-01 8.683471e-02 7.036037e-02 5.657017e-02 4.488515e-02 3.488437e-02 2.641398e-02 1.949163e-02 1.412610e-02 1.016143e-02 7.363490e-03 5.456701e-03 4.201054e-03 3.398442e-03 2.904822e-03 2.612038e-03 2.448534e-03 2.362163e-03 2.321168e-03 2.303570e-03 2.298923e-03 2.303255e-03 2.320611e-03 2.361363e-03 2.447700e-03 2.611284e-03 2.904406e-03 3.398396e-03 4.201235e-03 5.456838e-03 7.363406e-03 1.016106e-02 1.412570e-02 1.948990e-02 2.641331e-02 3.488312e-02 4.488293e-02 5.656783e-02 7.035200e-02 8.682567e-02 1.052754e-01 1.181123e-01 1.079004e-01 8.030044e-02 5.245676e-02 3.235364e-02 1.775547e-02 8.565512e-03 3.594736e-03 1.307411e-03 4.130752e-04 1.174053e-04 
7.054819e-05 1.620986e-04 5.778331e-04 1.826316e-03 4.972477e-03 1.160385e-02 2.351599e-02 4.146348e-02 6.600392e-02 9.667517e-02 1.169032e-01 1.109571e-01 9.181782e-02 7.478059e-02 6.027681e-02 4.816222e-02 3.787661e-02 2.909336e-02 2.169357e-02 1.569251e-02 1.106810e-02 7.661561e-03 5.257421e-03 3.619939e-03 2.545530e-03 1.864469e-03 1.449840e-03 1.206925e-03 1.071769e-03 1.000204e-03 9.652808e-04 9.498282e-04 9.456008e-04 9.496972e-04 9.650486e-04 9.998807e-04 1.071435e-03 1.206628e-03 1.449662e-03 1.864411e-03 2.545540e-03 3.619918e-03 5.257297e-03 7.661256e-03 1.106767e-02 1.569153e-02 2.169290e-02 2.909221e-02 3.787482e-02 4.815981e-02 6.027333e-02 7.478190e-02 9.182829e-02 1.109788e-01 1.168898e-01 9.669172e-02 6.603402e-02 4.147234e-02 2.351936e-02 1.160595e-02 4.973681e-03 1.826857e-03 5.780341e-04 1.621598e-04 
9.075658e-05 2.128133e-04 7.665552e-04 2.416545e-03 6.509133e-03 1.488746e-02 2.953012e-02 5.048758e-02 7.917752e-02 1.081311e-01 1.167134e-01 1.005707e-01 8.226623e-02 6.688442e-02 5.393507e-02 4.298470e-02 3.371760e-02 2.581695e-02 1.920377e-02 1.383791e-02 9.671946e-03 6.565371e-03 4.346080e-03 2.823660e-03 1.823474e-03 1.192604e-03 8.115383e-04 5.906381e-04 4.683968e-04 4.038028e-04 3.718039e-04 3.574537e-04 3.534230e-04 3.574042e-04 3.717156e-04 4.036811e-04 4.682685e-04 5.905167e-04 8.114416e-04 1.192524e-03 1.823368e-03 2.823482e-03 4.345745e-03 6.564827e-03 9.671108e-03 1.383650e-02 1.920201e-02 2.581404e-02 3.371326e-02 4.297839e-02 5.392734e-02 6.687745e-02 8.226398e-02 1.005576e-01 1.166911e-01 1.081617e-01 7.919564e-02 5.048561e-02 2.952917e-02 1.488896e-02 6.510331e-03 2.417173e-03 7.668013e-04 2.128918e-04 
1.109874e-04 2.647606e-04 9.607224e-04 3.021424e-03 8.043134e-03 1.811076e-02 3.511927e-02 5.883430e-02 8.992208e-02 1.140101e-01 1.115167e-01 9.219982e-02 7.606469e-02 6.200933e-02 5.012135e-02 3.993699e-02 3.136729e-02 2.410910e-02 1.804522e-02 1.307971e-02 9.158551e-03 6.180227e-03 4.020880e-03 2.527633e-03 1.545526e-03 9.288677e-04 5.593375e-04 3.473887e-04 2.311928e-04 1.702825e-04 1.401154e-04 1.265883e-04 1.227579e-04 1.265717e-04 1.400851e-04 1.702405e-04 2.311446e-04 3.473372e-04 5.592779e-04 9.287926e-04 1.545396e-03 2.527421e-03 4.020510e-03 6.179674e-03 9.157729e-03 1.307849e-02 1.804362e-02 2.410665e-02 3.136390e-02 3.993246e-02 5.011602e-02 6.200423e-02 7.606125e-02 9.220102e-02 1.115301e-01 1.140278e-01 8.991499e-02 5.882712e-02 3.511921e-02 1.811351e-02 8.044808e-03 3.022225e-03 9.610239e-04 2.648563e-04 
1.287133e-04 3.110790e-04 1.134038e-03 3.559447e-03 9.371888e-03 2.086954e-02 3.963787e-02 6.566082e-02 9.715425e-02 1.157192e-01 1.057355e-01 8.688512e-02 7.221995e-02 5.919865e-02 4.793422e-02 3.823284e-02 3.012292e-02 2.330260e-02 1.759783e-02 1.286222e-02 9.051260e-03 6.104531e-03 3.943823e-03 2.441827e-03 1.453929e-03 8.363150e-04 4.688794e-04 2.601039e-04 1.467825e-04 8.798850e-05 5.909532e-05 4.623596e-05 4.259984e-05 4.623040e-05 5.908429e-05 8.797201e-05 1.467586e-04 2.600710e-04 4.688241e-04 8.362275e-04 1.453766e-03 2.441564e-03 3.943383e-03 6.103878e-03 9.050328e-03 1.286091e-02 1.759618e-02 2.330036e-02 3.012027e-02 3.822977e-02 4.793121e-02 5.919518e-02 7.221461e-02 8.686834e-02 1.056652e-01 1.156190e-01 9.710384e-02 6.565914e-02 3.964578e-02 2.087522e-02 9.374450e-03 3.560478e-03 1.134411e-03 3.111979e-04 
1.411433e-04 3.439418e-04 1.256861e-03 3.939100e-03 1.029029e-02 2.274680e-02 4.259587e-02 7.008499e-02 1.010795e-01 1.154803e-01 1.016652e-01 8.401713e-02 7.015835e-02 5.776220e-02 4.682087e-02 3.738091e-02 2.953694e-02 2.297665e-02 1.747450e-02 1.285279e-02 9.079824e-03 6.128067e-03 3.948807e-03 2.429820e-03 1.431196e-03 8.087155e-04 4.401627e-04 2.320676e-04 1.199223e-04 6.219495e-05 3.403736e-05 2.159394e-05 1.808894e-05 2.159176e-05 3.403227e-05 6.218633e-05 1.199062e-04 2.320414e-04 4.401114e-04 8.086303e-04 1.431036e-03 2.429570e-03 3.948403e-03 6.127498e-03 9.079069e-03 1.285185e-02 1.747351e-02 2.297560e-02 2.953632e-02 3.738101e-02 4.682273e-02 5.776545e-02 7.016381e-02 8.402075e-02 1.016661e-01 1.154883e-01 1.010964e-01 7.009992e-02 4.260523e-02 2.275044e-02 1.029173e-02 3.939691e-03 1.257128e-03 3.440384e-04 
1.458180e-04 3.563463e-04 1.303264e-03 4.082065e-03 1.063301e-02 2.343555e-02 4.365894e-02 7.162200e-02 1.023004e-01 1.151293e-01 1.001899e-01 8.304939e-02 6.948354e-02 5.731104e-02 4.647209e-02 3.711933e-02 2.936330e-02 2.289115e-02 1.745558e-02 1.286791e-02 9.103055e-03 6.145485e-03 3.957209e-03 2.430717e-03 1.427555e-03 8.029281e-04 4.337481e-04 2.257514e-04 1.139441e-04 5.655262e-05 2.863867e-05 1.633640e-05 1.287686e-05 1.633485e-05 2.863464e-05 5.654518e-05 1.139286e-04 2.257244e-04 4.336932e-04 8.028345e-04 1.427380e-03 2.430438e-03 3.956760e-03 6.144844e-03 9.102208e-03 1.286687e-02 1.745451e-02 2.289015e-02 2.936294e-02 3.712018e-02 4.647548e-02 5.731809e-02 6.949705e-02 8.307514e-02 1.002544e-01 1.152488e-01 1.023987e-01 7.165843e-02 4.367129e-02 2.343937e-02 1.063441e-02 4.082684e-03 1.303556e-03 3.564566e-04 
1.411433e-04 3.439418e-04 1.256861e-03 3.939100e-03 1.029029e-02 2.274680e-02 4.259587e-02 7.008499e-02 1.010795e-01 1.154803e-01 1.016652e-01 8.401713e-02 7.015835e-02 5.776220e-02 4.682087e-02 3.738091e-02 2.953694e-02 2.297665e-02 1.747450e-02 1.285279e-02 9.079824e-03 6.128067e-03 3.948807e-03 2.429820e-03 1.431196e-03 8.087155e-04 4.401627e-04 2.320676e-04 1.199223e-04 6.219495e-05 3.403736e-05 2.159394e-05 1.808894e-05 2.159176e-05 3.403227e-05 6.218633e-05 1.199062e-04 2.320414e-04 4.401114e-04 8.086303e-04 1.431036e-03 2.429570e-03 3.948403e-03 6.127498e-03 9.079069e-03 1.285185e-02 1.747351e-02 2.297560e-02 2.953632e-02 3.738101e-02 4.682273e-02 5.776545e-02 7.016381e-02 8.402075e-02 1.016661e-01 1.154883e-01 1.010964e-01 7.009992e-02 4.260523e-02 2.275044e-02 1.029173e-02 3.939691e-03 1.257128e-03 3.440384e-04 
1.287133e-04 3.110790e-04 1.134038e-03 3.559447e-03 9.371888e-03 2.086954e-02 3.963787e-02 6.566082e-02 9.715425e-02 1.157192e-01 1.057355e-01 8.688512e-02 7.221995e-02 5.919865e-02 4.793422e-02 3.823284e-02 3.012292e-02 2.330260e-02 1.759783e-02 1.286222e-02 9.051260e-03 6.104531e-03 3.943823e-03 2.441827e-03 1.453929e-03 8.363150e-04 4.688794e-04 2.601039e-04 1.467825e-04 8.798850e-05 5.909532e-05 4.623596e-05 4.259984e-05 4.623040e-05 5.908429e-05 8.797201e-05 1.467586e-04 2.600710e-04 4.688241e-04 8.362275e-04 1.453766e-03 2.441564e-03 3.943383e-03 6.103878e-03 9.050328e-03 1.286091e-02 1.759618e-02 2.330036e-02 3.012027e-02 3.822977e-02 4.793121e-02 5.919518e-02 7.221461e-02 8.686834e-02 1.056652e-01 1.156190e-01 9.710384e-02 6.565914e-02 3.964578e-02 2.087522e-02 9.374450e-03 3.560478e-03 1.134411e-03 3.111979e-04 