# vtk DataFile Version 2.0
Comment goes here
ASCII

DATASET STRUCTURED_POINTS
FIELD FieldData 1
TIME 1 1 double
1.98000000
DIMENSIONS    64   64   1

ORIGIN    0.000   0.000   0.000
SPACING   0.015625 0.015625   1.000

POINT_DATA   4096
SCALARS Concentration double
LOOKUP_TABLE default

2.066283e-02 2.077706e-02 2.123735e-02 2.205876e-02 2.326677e-02 2.489728e-02 2.699433e-02 2.960983e-02 3.279802e-02 3.661594e-02 4.111394e-02 4.633578e-02 5.230659e-02 5.903363e-02 6.649500e-02 7.464235e-02 8.339523e-02 9.264593e-02 1.022629e-01 1.120956e-01 1.219862e-01 1.317705e-01 1.412937e-01 1.504041e-01 1.589677e-01 1.668561e-01 1.739598e-01 1.801782e-01 1.854267e-01 1.896300e-01 1.927257e-01 1.946630e-01 1.954045e-01 1.949284e-01 1.932542e-01 1.904186e-01 1.864718e-01 1.814756e-01 1.755032e-01 1.686382e-01 1.609758e-01 1.526221e-01 1.436970e-01 1.343303e-01 1.246639e-01 1.148475e-01 1.050385e-01 9.539411e-02 8.606536e-02 7.718930e-02 6.888090e-02 6.122987e-02 5.429490e-02 4.810692e-02 4.266787e-02 3.795850e-02 3.394070e-02 3.056610e-02 2.777956e-02 2.552575e-02 2.375201e-02 2.241205e-02 2.146778e-02 2.089069e-02 
2.088685e-02 2.100044e-02 2.145916e-02 2.227815e-02 2.348293e-02 2.510953e-02 2.720220e-02 2.981323e-02 3.299734e-02 3.681219e-02 4.130899e-02 4.653252e-02 5.250922e-02 5.924777e-02 6.672794e-02 7.490298e-02 8.369419e-02 9.299520e-02 1.026759e-01 1.125863e-01 1.225691e-01 1.324598e-01 1.421028e-01 1.513453e-01 1.600514e-01 1.680884e-01 1.753415e-01 1.817047e-01 1.870866e-01 1.914051e-01 1.945908e-01 1.965868e-01 1.973513e-01 1.968608e-01 1.951367e-01 1.922204e-01 1.881678e-01 1.830478e-01 1.769402e-01 1.699347e-01 1.621316e-01 1.536412e-01 1.445869e-01 1.351016e-01 1.253276e-01 1.154154e-01 1.055229e-01 9.580763e-02 8.642041e-02 7.749760e-02 6.915334e-02 6.147597e-02 5.452286e-02 4.832334e-02 4.287797e-02 3.816607e-02 3.414842e-02 3.077563e-02 2.799183e-02 2.574107e-02 2.397026e-02 2.263282e-02 2.169042e-02 2.111445e-02 
2.156339e-02 2.167500e-02 2.212899e-02 2.294067e-02 2.413572e-02 2.575055e-02 2.782994e-02 3.042727e-02 3.359878e-02 3.740398e-02 4.189646e-02 4.712420e-02 5.311730e-02 5.988893e-02 6.742352e-02 7.567951e-02 8.458302e-02 9.403233e-02 1.039010e-01 1.140417e-01 1.242984e-01 1.345054e-01 1.445053e-01 1.541402e-01 1.632676e-01 1.717419e-01 1.794342e-01 1.862212e-01 1.919927e-01 1.966469e-01 2.000943e-01 2.022609e-01 2.030922e-01 2.025599e-01 2.006910e-01 1.975395e-01 1.931789e-01 1.876978e-01 1.811949e-01 1.737774e-01 1.655606e-01 1.566672e-01 1.472312e-01 1.373930e-01 1.272989e-01 1.171018e-01 1.069618e-01 9.703665e-02 8.747670e-02 7.841646e-02 6.996694e-02 6.221284e-02 5.520699e-02 4.897438e-02 4.351101e-02 3.879238e-02 3.477564e-02 3.140868e-02 2.863323e-02 2.639170e-02 2.462969e-02 2.329975e-02 2.236293e-02 2.179027e-02 
2.270562e-02 2.281411e-02 2.326048e-02 2.406034e-02 2.523970e-02 2.683557e-02 2.889357e-02 3.146852e-02 3.461918e-02 3.840818e-02 4.289301e-02 4.812678e-02 5.414564e-02 6.096995e-02 6.859200e-02 7.697848e-02 8.606382e-02 9.575353e-02 1.059279e-01 1.164430e-01 1.271456e-01 1.378676e-01 1.484479e-01 1.587192e-01 1.685276e-01 1.777076e-01 1.861070e-01 1.935768e-01 1.999766e-01 2.051736e-01 2.090454e-01 2.114895e-01 2.124296e-01 2.118294e-01 2.097250e-01 2.061929e-01 2.013355e-01 1.952739e-01 1.881371e-01 1.800596e-01 1.711792e-01 1.616378e-01 1.515850e-01 1.411734e-01 1.305570e-01 1.198939e-01 1.093481e-01 9.907876e-02 8.923560e-02 7.995008e-02 7.132853e-02 6.344921e-02 5.635781e-02 5.007175e-02 4.457977e-02 3.985076e-02 3.583611e-02 3.247905e-02 2.971757e-02 2.749132e-02 2.574378e-02 2.442615e-02 2.349845e-02 2.293127e-02 
2.433517e-02 2.443946e-02 2.487564e-02 2.565968e-02 2.681807e-02 2.838865e-02 3.041807e-02 3.296304e-02 3.608495e-02 3.985085e-02 4.432381e-02 4.956378e-02 5.561505e-02 6.250790e-02 7.024520e-02 7.880528e-02 8.813374e-02 9.814663e-02 1.087329e-01 1.197545e-01 1.310609e-01 1.424812e-01 1.538483e-01 1.649813e-01 1.757091e-01 1.858391e-01 1.951885e-01 2.035732e-01 2.108139e-01 2.167375e-01 2.211782e-01 2.239947e-01 2.250808e-01 2.243890e-01 2.219688e-01 2.179269e-01 2.124060e-01 2.055709e-01 1.975897e-01 1.886320e-01 1.788650e-01 1.684541e-01 1.575704e-01 1.463825e-01 1.350561e-01 1.237581e-01 1.126587e-01 1.019198e-01 9.169075e-02 8.209937e-02 7.324508e-02 6.519752e-02 5.799193e-02 5.163549e-02 4.610651e-02 4.136499e-02 3.735429e-02 3.401145e-02 3.126929e-02 2.906389e-02 2.733586e-02 2.603468e-02 2.511913e-02 2.455921e-02 
2.648102e-02 2.658037e-02 2.700447e-02 2.776975e-02 2.890313e-02 3.044369e-02 3.243913e-02 3.494843e-02 3.803598e-02 4.177341e-02 4.623039e-02 5.147608e-02 5.756479e-02 6.453904e-02 7.241516e-02 8.118585e-02 9.081123e-02 1.012202e-01 1.123134e-01 1.239589e-01 1.360107e-01 1.482924e-01 1.606294e-01 1.728205e-01 1.846736e-01 1.959619e-01 2.064657e-01 2.159628e-01 2.242292e-01 2.310461e-01 2.361922e-01 2.394742e-01 2.407423e-01 2.399347e-01 2.371179e-01 2.324427e-01 2.261078e-01 2.183342e-01 2.093355e-01 1.993200e-01 1.884846e-01 1.770206e-01 1.651227e-01 1.529791e-01 1.407731e-01 1.286838e-01 1.168925e-01 1.055658e-01 9.485455e-02 8.488178e-02 7.573888e-02 6.748391e-02 6.013891e-02 5.369749e-02 4.812486e-02 4.336951e-02 3.936487e-02 3.604025e-02 3.332206e-02 3.114187e-02 2.943712e-02 2.815555e-02 2.725456e-02 2.670319e-02 
2.917813e-02 2.927208e-02 2.968306e-02 3.042798e-02 3.153398e-02 3.304179e-02 3.500020e-02 3.747051e-02 4.052042e-02 4.422669e-02 4.866587e-02 5.391632e-02 6.004542e-02 6.711059e-02 7.514385e-02 8.415537e-02 9.412227e-02 1.049895e-01 1.166713e-01 1.290438e-01 1.419657e-01 1.552540e-01 1.687238e-01 1.821491e-01 1.953101e-01 2.079380e-01 2.197700e-01 2.305401e-01 2.399775e-01 2.478146e-01 2.537701e-01 2.575878e-01 2.590660e-01 2.581219e-01 2.548455e-01 2.494418e-01 2.421785e-01 2.333405e-01 2.231899e-01 2.119745e-01 1.999219e-01 1.872486e-01 1.741762e-01 1.609169e-01 1.476766e-01 1.346525e-01 1.220415e-01 1.100190e-01 9.873781e-02 8.831694e-02 7.883705e-02 7.034230e-02 6.283779e-02 5.630071e-02 5.068007e-02 4.591076e-02 4.191423e-02 3.861019e-02 3.591820e-02 3.376545e-02 3.208596e-02 3.082579e-02 2.994058e-02 2.939844e-02 
3.246518e-02 3.255383e-02 3.295199e-02 3.367704e-02 3.475612e-02 3.623148e-02 3.815334e-02 4.058530e-02 4.359826e-02 4.727461e-02 5.169814e-02 5.695763e-02 6.313307e-02 7.029825e-02 7.850534e-02 8.778469e-02 9.813356e-02 1.095150e-01 1.218599e-01 1.350522e-01 1.489570e-01 1.633805e-01 1.781264e-01 1.929335e-01 2.075472e-01 2.216482e-01 2.349253e-01 2.470773e-01 2.577939e-01 2.667692e-01 2.736493e-01 2.780919e-01 2.798140e-01 2.787030e-01 2.748811e-01 2.686361e-01 2.603347e-01 2.503406e-01 2.389571e-01 2.264619e-01 2.130996e-01 1.991066e-01 1.847313e-01 1.702158e-01 1.557980e-01 1.417004e-01 1.281450e-01 1.153198e-01 1.033841e-01 9.245132e-02 8.259000e-02 7.382642e-02 6.614537e-02 5.950374e-02 5.383169e-02 4.904675e-02 4.505694e-02 4.177277e-02 3.910646e-02 3.698068e-02 3.532600e-02 3.408707e-02 3.321713e-02 3.268388e-02 
3.638178e-02 3.646584e-02 3.685317e-02 3.756157e-02 3.861778e-02 4.006508e-02 4.195550e-02 4.435483e-02 4.733697e-02 5.098998e-02 5.540527e-02 6.068267e-02 6.691593e-02 7.419643e-02 8.259606e-02 9.216868e-02 1.029364e-01 1.148839e-01 1.279593e-01 1.420566e-01 1.570462e-01 1.727225e-01 1.888752e-01 2.052011e-01 2.214026e-01 2.370979e-01 2.519192e-01 2.655254e-01 2.775732e-01 2.877306e-01 2.955810e-01 3.006846e-01 3.026661e-01 3.013694e-01 2.969599e-01 2.898224e-01 2.804381e-01 2.692492e-01 2.565886e-01 2.427560e-01 2.280116e-01 2.126016e-01 1.968043e-01 1.808995e-01 1.651652e-01 1.498598e-01 1.352384e-01 1.215097e-01 1.088406e-01 9.733974e-02 8.705929e-02 7.800405e-02 7.013391e-02 6.338015e-02 5.764983e-02 5.284372e-02 4.885581e-02 4.558686e-02 4.294159e-02 4.083833e-02 3.920453e-02 3.798341e-02 3.712585e-02 3.659958e-02 
4.096481e-02 4.104584e-02 4.142666e-02 4.212536e-02 4.316770e-02 4.459772e-02 4.646804e-02 4.884780e-02 5.181310e-02 5.545778e-02 5.988079e-02 6.519386e-02 7.150522e-02 7.892560e-02 8.754862e-02 9.745337e-02 1.086870e-01 1.212583e-01 1.351382e-01 1.502293e-01 1.664099e-01 1.834539e-01 2.011406e-01 2.191048e-01 2.369938e-01 2.543389e-01 2.707023e-01 2.857373e-01 2.991079e-01 3.105098e-01 3.194502e-01 3.253338e-01 3.276192e-01 3.260850e-01 3.209591e-01 3.127912e-01 3.022525e-01 2.898787e-01 2.759853e-01 2.608576e-01 2.447327e-01 2.278554e-01 2.105366e-01 1.931095e-01 1.759120e-01 1.592496e-01 1.434298e-01 1.286869e-01 1.152024e-01 1.030759e-01 9.234054e-02 8.297125e-02 7.489481e-02 6.801513e-02 6.221511e-02 5.737723e-02 5.338057e-02 5.011623e-02 4.748139e-02 4.539078e-02 4.376917e-02 4.255786e-02 4.170637e-02 4.118312e-02 
4.624466e-02 4.632510e-02 4.670643e-02 4.740689e-02 4.845047e-02 4.988141e-02 5.175152e-02 5.413390e-02 5.710646e-02 6.076849e-02 6.522655e-02 7.060469e-02 7.702680e-02 8.462437e-02 9.351497e-02 1.038052e-01 1.155696e-01 1.288424e-01 1.436139e-01 1.597943e-01 1.772670e-01 1.957859e-01 2.151197e-01 2.348382e-01 2.545207e-01 2.736005e-01 2.915566e-01 3.080069e-01 3.226213e-01 3.351581e-01 3.451062e-01 3.517208e-01 3.542930e-01 3.525197e-01 3.467041e-01 3.375626e-01 3.259511e-01 3.124650e-01 2.973623e-01 2.809251e-01 2.633940e-01 2.449812e-01 2.260303e-01 2.069440e-01 1.881316e-01 1.699633e-01 1.528104e-01 1.369484e-01 1.225717e-01 1.097706e-01 9.854494e-02 8.883449e-02 8.053055e-02 7.350637e-02 6.761870e-02 6.273073e-02 5.870653e-02 5.542777e-02 5.278473e-02 5.068955e-02 4.906424e-02 4.784899e-02 4.699283e-02 4.646585e-02 
5.223988e-02 5.232326e-02 5.271553e-02 5.343481e-02 5.450241e-02 5.596202e-02 5.786352e-02 6.028232e-02 6.329930e-02 6.701898e-02 7.155490e-02 7.704471e-02 8.362846e-02 9.146133e-02 1.006866e-01 1.114423e-01 1.238324e-01 1.379178e-01 1.537072e-01 1.711104e-01 1.900130e-01 2.101319e-01 2.312511e-01 2.528437e-01 2.744166e-01 2.952248e-01 3.146026e-01 3.322161e-01 3.478535e-01 3.615096e-01 3.726434e-01 3.802075e-01 3.831458e-01 3.810262e-01 3.742832e-01 3.639479e-01 3.512501e-01 3.368324e-01 3.207337e-01 3.031601e-01 2.842882e-01 2.643002e-01 2.435993e-01 2.226823e-01 2.020740e-01 1.822138e-01 1.635724e-01 1.464694e-01 1.311153e-01 1.175752e-01 1.058131e-01 9.572605e-02 8.716381e-02 7.996612e-02 7.396129e-02 6.899328e-02 6.491077e-02 6.158722e-02 5.890663e-02 5.678020e-02 5.512593e-02 5.388554e-02 5.300845e-02 5.246756e-02 
5.895399e-02 5.904492e-02 5.946219e-02 6.022360e-02 6.134659e-02 6.287354e-02 6.485079e-02 6.735438e-02 7.046844e-02 7.430296e-02 7.897839e-02 8.464661e-02 9.146574e-02 9.961679e-02 1.092727e-01 1.206066e-01 1.337551e-01 1.488080e-01 1.657856e-01 1.845868e-01 2.050745e-01 2.269111e-01 2.499102e-01 2.734632e-01 2.969791e-01 3.196367e-01 3.406773e-01 3.596058e-01 3.761156e-01 3.904267e-01 4.021935e-01 4.102565e-01 4.133873e-01 4.110606e-01 4.037937e-01 3.927688e-01 3.793728e-01 3.641199e-01 3.468309e-01 3.278814e-01 3.075736e-01 2.859232e-01 2.633493e-01 2.404571e-01 2.178835e-01 1.961618e-01 1.758786e-01 1.574176e-01 1.409970e-01 1.266543e-01 1.143049e-01 1.037963e-01 9.493266e-02 8.751752e-02 8.135058e-02 7.625652e-02 7.206961e-02 6.865621e-02 6.589540e-02 6.369799e-02 6.197883e-02 6.068328e-02 5.976238e-02 5.919328e-02 
6.636904e-02 6.647338e-02 6.693397e-02 6.776785e-02 6.898745e-02 7.063281e-02 7.274500e-02 7.539997e-02 7.868122e-02 8.270818e-02 8.760699e-02 9.354612e-02 1.007025e-01 1.092888e-01 1.195097e-01 1.315823e-01 1.456776e-01 1.619209e-01 1.803377e-01 2.008008e-01 2.231223e-01 2.468631e-01 2.719513e-01 2.976768e-01 3.234091e-01 3.479744e-01 3.703026e-01 3.899779e-01 4.068837e-01 4.217934e-01 4.345126e-01 4.434525e-01 4.469528e-01 4.442069e-01 4.359730e-01 4.238716e-01 4.098342e-01 3.941019e-01 3.760039e-01 3.559481e-01 3.341352e-01 3.105621e-01 2.858754e-01 2.607510e-01 2.359750e-01 2.121428e-01 1.900223e-01 1.700533e-01 1.524593e-01 1.372308e-01 1.242217e-01 1.132243e-01 1.039915e-01 9.629182e-02 8.989470e-02 8.460762e-02 8.025034e-02 7.668434e-02 7.378480e-02 7.146112e-02 6.962847e-02 6.823768e-02 6.724280e-02 6.662667e-02 
7.444575e-02 7.457062e-02 7.509697e-02 7.604086e-02 7.740823e-02 7.923586e-02 8.155743e-02 8.444767e-02 8.798675e-02 9.230474e-02 9.753474e-02 1.038635e-01 1.114905e-01 1.206640e-01 1.316285e-01 1.446506e-01 1.599452e-01 1.776817e-01 1.978890e-01 2.204100e-01 2.449310e-01 2.708097e-01 2.981192e-01 3.260062e-01 3.535694e-01 3.800322e-01 4.049942e-01 4.272972e-01 4.454753e-01 4.599688e-01 4.712549e-01 4.786631e-01 4.815037e-01 4.792665e-01 4.723353e-01 4.615675e-01 4.477709e-01 4.305327e-01 4.098168e-01 3.873811e-01 3.638124e-01 3.382927e-01 3.114099e-01 2.838839e-01 2.566542e-01 2.304670e-01 2.062939e-01 1.846696e-01 1.657839e-01 1.495660e-01 1.357968e-01 1.242089e-01 1.145067e-01 1.064229e-01 9.969924e-02 9.412587e-02 8.950933e-02 8.570749e-02 8.259099e-02 8.006970e-02 7.806124e-02 7.652431e-02 7.541729e-02 7.473043e-02 
8.311720e-02 8.327100e-02 8.389007e-02 8.498874e-02 8.656529e-02 8.865182e-02 9.127265e-02 9.449994e-02 9.840899e-02 1.031377e-01 1.088304e-01 1.156960e-01 1.239591e-01 1.339141e-01 1.458484e-01 1.600945e-01 1.769088e-01 1.965288e-01 2.189777e-01 2.441057e-01 2.713889e-01 2.998636e-01 3.298095e-01 3.604769e-01 3.912621e-01 4.195445e-01 4.443037e-01 4.644760e-01 4.788452e-01 4.890609e-01 4.959264e-01 4.998630e-01 5.013205e-01 5.002198e-01 4.965098e-01 4.901307e-01 4.805957e-01 4.669775e-01 4.481677e-01 4.255267e-01 3.994966e-01 3.706880e-01 3.411338e-01 3.107723e-01 2.806872e-01 2.517308e-01 2.252198e-01 2.017290e-01 1.813726e-01 1.639983e-01 1.493005e-01 1.369630e-01 1.266381e-01 1.180295e-01 1.108468e-01 1.048651e-01 9.987523e-02 9.573317e-02 9.230104e-02 8.949429e-02 8.723433e-02 8.548978e-02 8.422503e-02 8.343906e-02 
9.229555e-02 9.248791e-02 9.323040e-02 9.453530e-02 9.639144e-02 9.882520e-02 1.018488e-01 1.055307e-01 1.099388e-01 1.152181e-01 1.215254e-01 1.290977e-01 1.381910e-01 1.491536e-01 1.623300e-01 1.781214e-01 1.968371e-01 2.187851e-01 2.439985e-01 2.724589e-01 3.033623e-01 3.352496e-01 3.685204e-01 4.013503e-01 4.312267e-01 4.534538e-01 4.673297e-01 4.758631e-01 4.806909e-01 4.837253e-01 4.857094e-01 4.868120e-01 4.872509e-01 4.869405e-01 4.860165e-01 4.844940e-01 4.819707e-01 4.776999e-01 4.700134e-01 4.572223e-01 4.365296e-01 4.081395e-01 3.760494e-01 3.422350e-01 3.088045e-01 2.766767e-01 2.474551e-01 2.218193e-01 1.997216e-01 1.809146e-01 1.650281e-01 1.516971e-01 1.405350e-01 1.312102e-01 1.233990e-01 1.168562e-01 1.113544e-01 1.067446e-01 1.028799e-01 9.968417e-02 9.708386e-02 9.506007e-02 9.358446e-02 9.266658e-02 
1.018659e-01 1.021077e-01 1.030081e-01 1.045763e-01 1.067904e-01 1.096691e-01 1.132100e-01 1.174762e-01 1.225254e-01 1.285105e-01 1.355976e-01 1.440622e-01 1.541980e-01 1.664241e-01 1.811502e-01 1.988674e-01 2.199116e-01 2.446467e-01 2.729978e-01 3.051843e-01 3.400995e-01 3.757426e-01 4.099173e-01 4.368058e-01 4.520307e-01 4.574964e-01 4.565579e-01 4.547512e-01 4.552747e-01 4.579542e-01 4.613724e-01 4.638323e-01 4.646952e-01 4.637334e-01 4.613420e-01 4.583009e-01 4.559594e-01 4.557634e-01 4.577463e-01 4.591647e-01 4.544037e-01 4.399180e-01 4.131378e-01 3.786533e-01 3.419452e-01 3.062430e-01 2.739191e-01 2.457159e-01 2.213905e-01 2.007014e-01 1.832131e-01 1.685501e-01 1.562652e-01 1.459901e-01 1.373492e-01 1.300707e-01 1.239002e-01 1.186777e-01 1.142500e-01 1.105502e-01 1.075114e-01 1.051291e-01 1.033845e-01 1.022987e-01 
1.117012e-01 1.120043e-01 1.130996e-01 1.149925e-01 1.176484e-01 1.210765e-01 1.252568e-01 1.302449e-01 1.360843e-01 1.429367e-01 1.509741e-01 1.605185e-01 1.719100e-01 1.856497e-01 2.022385e-01 2.222487e-01 2.460650e-01 2.739655e-01 3.056332e-01 3.414854e-01 3.799090e-01 4.148770e-01 4.383055e-01 4.459991e-01 4.420796e-01 4.352487e-01 4.307285e-01 4.296100e-01 4.317267e-01 4.352450e-01 4.389300e-01 4.414654e-01 4.423252e-01 4.412988e-01 4.387605e-01 4.353116e-01 4.318617e-01 4.297003e-01 4.304325e-01 4.346854e-01 4.419224e-01 4.465106e-01 4.393214e-01 4.159660e-01 3.803937e-01 3.414136e-01 3.055564e-01 2.740609e-01 2.468163e-01 2.235853e-01 2.039783e-01 1.875624e-01 1.738296e-01 1.623413e-01 1.526521e-01 1.444494e-01 1.374390e-01 1.314485e-01 1.263166e-01 1.219884e-01 1.184047e-01 1.155786e-01 1.135018e-01 1.122094e-01 
1.216551e-01 1.220321e-01 1.233614e-01 1.256425e-01 1.288270e-01 1.329118e-01 1.378558e-01 1.437038e-01 1.504815e-01 1.583569e-01 1.675068e-01 1.783019e-01 1.911351e-01 2.066047e-01 2.253234e-01 2.479896e-01 2.750870e-01 3.067802e-01 3.420561e-01 3.804002e-01 4.168534e-01 4.379415e-01 4.396806e-01 4.301744e-01 4.194510e-01 4.114564e-01 4.071773e-01 4.063620e-01 4.088254e-01 4.128317e-01 4.169207e-01 4.197333e-01 4.206836e-01 4.195244e-01 4.166142e-01 4.125742e-01 4.084521e-01 4.056612e-01 4.057818e-01 4.094245e-01 4.173187e-01 4.288378e-01 4.391355e-01 4.377850e-01 4.170044e-01 3.807533e-01 3.422535e-01 3.068732e-01 2.757818e-01 2.493143e-01 2.270487e-01 2.084954e-01 1.930161e-01 1.800785e-01 1.691414e-01 1.598376e-01 1.518225e-01 1.449116e-01 1.389361e-01 1.338544e-01 1.296188e-01 1.262619e-01 1.237895e-01 1.222515e-01 
1.315825e-01 1.320470e-01 1.336493e-01 1.363825e-01 1.401822e-01 1.450302e-01 1.508605e-01 1.577041e-01 1.655622e-01 1.746095e-01 1.850189e-01 1.972158e-01 2.116361e-01 2.289756e-01 2.499506e-01 2.753349e-01 3.058668e-01 3.413636e-01 3.801069e-01 4.165930e-01 4.379234e-01 4.365175e-01 4.229833e-01 4.085989e-01 3.972665e-01 3.894012e-01 3.854355e-01 3.850353e-01 3.875390e-01 3.913112e-01 3.950969e-01 3.976879e-01 3.985744e-01 3.974765e-01 3.947022e-01 3.907761e-01 3.866817e-01 3.836540e-01 3.833030e-01 3.865935e-01 3.943746e-01 4.064747e-01 4.213796e-01 4.352037e-01 4.372482e-01 4.166900e-01 3.804131e-01 3.419196e-01 3.069024e-01 2.770073e-01 2.519014e-01 2.309972e-01 2.135687e-01 1.990003e-01 1.866421e-01 1.760779e-01 1.669012e-01 1.589228e-01 1.519650e-01 1.460054e-01 1.410099e-01 1.370349e-01 1.341026e-01 1.322800e-01 
1.413302e-01 1.418964e-01 1.438100e-01 1.470566e-01 1.515541e-01 1.572655e-01 1.640966e-01 1.720587e-01 1.811243e-01 1.914686e-01 2.032568e-01 2.169630e-01 2.330555e-01 2.523023e-01 2.754599e-01 3.032754e-01 3.367678e-01 3.758403e-01 4.148083e-01 4.383239e-01 4.372001e-01 4.214824e-01 4.042328e-01 3.891962e-01 3.775909e-01 3.697419e-01 3.656695e-01 3.649117e-01 3.668014e-01 3.699669e-01 3.732693e-01 3.755750e-01 3.763639e-01 3.753271e-01 3.727611e-01 3.691813e-01 3.655807e-01 3.630954e-01 3.631131e-01 3.665538e-01 3.742058e-01 3.861626e-01 4.015368e-01 4.191526e-01 4.354297e-01 4.376862e-01 4.153602e-01 3.771904e-01 3.382068e-01 3.053183e-01 2.776124e-01 2.544160e-01 2.350089e-01 2.187270e-01 2.048481e-01 1.929066e-01 1.824464e-01 1.732749e-01 1.652132e-01 1.582622e-01 1.524079e-01 1.477337e-01 1.442824e-01 1.421392e-01 
1.507581e-01 1.514401e-01 1.537015e-01 1.575177e-01 1.627879e-01 1.694532e-01 1.773872e-01 1.865775e-01 1.969602e-01 2.087135e-01 2.219806e-01 2.373100e-01 2.551738e-01 2.764882e-01 3.019552e-01 3.322338e-01 3.686466e-01 4.089945e-01 4.388159e-01 4.417537e-01 4.245709e-01 4.049492e-01 3.872725e-01 3.722381e-01 3.604864e-01 3.523114e-01 3.477080e-01 3.462065e-01 3.471498e-01 3.493687e-01 3.518796e-01 3.536727e-01 3.542753e-01 3.533732e-01 3.512493e-01 3.483625e-01 3.456366e-01 3.440738e-01 3.448843e-01 3.488969e-01 3.567829e-01 3.686066e-01 3.838816e-01 4.019416e-01 4.222054e-01 4.401671e-01 4.388337e-01 4.104080e-01 3.704587e-01 3.344980e-01 3.042193e-01 2.786270e-01 2.571142e-01 2.390387e-01 2.235371e-01 2.101210e-01 1.982657e-01 1.877883e-01 1.785106e-01 1.704636e-01 1.636588e-01 1.582102e-01 1.541848e-01 1.516881e-01 
1.597261e-01 1.605366e-01 1.631788e-01 1.676141e-01 1.737221e-01 1.814160e-01 1.905367e-01 2.010400e-01 2.128237e-01 2.260577e-01 2.408609e-01 2.578561e-01 2.775061e-01 3.009086e-01 3.286886e-01 3.614837e-01 4.004204e-01 4.365156e-01 4.485304e-01 4.334879e-01 4.110665e-01 3.907417e-01 3.730621e-01 3.579866e-01 3.459791e-01 3.372072e-01 3.317029e-01 3.290571e-01 3.287333e-01 3.297785e-01 3.313482e-01 3.325421e-01 3.329201e-01 3.321827e-01 3.305972e-01 3.285882e-01 3.270106e-01 3.267416e-01 3.287753e-01 3.337805e-01 3.422963e-01 3.543438e-01 3.697346e-01 3.879099e-01 4.090468e-01 4.316678e-01 4.478248e-01 4.374447e-01 4.024335e-01 3.636512e-01 3.309829e-01 3.029366e-01 2.793475e-01 2.594816e-01 2.423446e-01 2.274071e-01 2.140908e-01 2.022253e-01 1.916465e-01 1.824198e-01 1.745905e-01 1.683055e-01 1.636609e-01 1.607836e-01 
1.681126e-01 1.690612e-01 1.721084e-01 1.771988e-01 1.841923e-01 1.929691e-01 2.033373e-01 2.152106e-01 2.284460e-01 2.431892e-01 2.595181e-01 2.781261e-01 2.993828e-01 3.247191e-01 3.542299e-01 3.900947e-01 4.294731e-01 4.534933e-01 4.467055e-01 4.235712e-01 4.006269e-01 3.800880e-01 3.622966e-01 3.469564e-01 3.343719e-01 3.246820e-01 3.179707e-01 3.139368e-01 3.121550e-01 3.118656e-01 3.123588e-01 3.128570e-01 3.129731e-01 3.124415e-01 3.115020e-01 3.105326e-01 3.102920e-01 3.115294e-01 3.150439e-01 3.213644e-01 3.308691e-01 3.435324e-01 3.591815e-01 3.774723e-01 3.985424e-01 4.217382e-01 4.453123e-01 4.537140e-01 4.312394e-01 3.927213e-01 3.566275e-01 3.267651e-01 3.012026e-01 2.797170e-01 2.609765e-01 2.445137e-01 2.296951e-01 2.163806e-01 2.044356e-01 1.939636e-01 1.850524e-01 1.778826e-01 1.725830e-01 1.693032e-01 
1.758006e-01 1.768928e-01 1.803584e-01 1.861231e-01 1.940278e-01 2.039157e-01 2.155646e-01 2.288343e-01 2.435460e-01 2.597910e-01 2.776173e-01 2.977369e-01 3.204395e-01 3.474466e-01 3.781241e-01 4.167872e-01 4.529038e-01 4.617703e-01 4.409059e-01 4.164553e-01 3.936516e-01 3.733503e-01 3.552198e-01 3.393003e-01 3.257873e-01 3.148843e-01 3.067247e-01 3.011199e-01 2.977571e-01 2.960404e-01 2.953977e-01 2.951664e-01 2.950101e-01 2.947039e-01 2.944576e-01 2.946080e-01 2.958199e-01 2.986981e-01 3.038836e-01 3.117674e-01 3.225853e-01 3.362354e-01 3.524653e-01 3.710425e-01 3.917070e-01 4.149512e-01 4.392993e-01 4.611675e-01 4.539676e-01 4.194340e-01 3.803900e-01 3.494200e-01 3.222023e-01 2.993090e-01 2.790686e-01 2.611108e-01 2.447867e-01 2.299931e-01 2.166489e-01 2.048961e-01 1.948735e-01 1.867939e-01 1.808218e-01 1.771272e-01 
1.826913e-01 1.839276e-01 1.878115e-01 1.942482e-01 2.030620e-01 2.140565e-01 2.269838e-01 2.416400e-01 2.578192e-01 2.755222e-01 2.947992e-01 3.162760e-01 3.403504e-01 3.686560e-01 4.006719e-01 4.400405e-01 4.686258e-01 4.635805e-01 4.372147e-01 4.133803e-01 3.907759e-01 3.704396e-01 3.517414e-01 3.349159e-01 3.201939e-01 3.078468e-01 2.980875e-01 2.908252e-01 2.858501e-01 2.826929e-01 2.809066e-01 2.799429e-01 2.795175e-01 2.794485e-01 2.799134e-01 2.812081e-01 2.838928e-01 2.884504e-01 2.953905e-01 3.049823e-01 3.173366e-01 3.322438e-01 3.493815e-01 3.684325e-01 3.890872e-01 4.118196e-01 4.356479e-01 4.622120e-01 4.691477e-01 4.424439e-01 4.030411e-01 3.704646e-01 3.421518e-01 3.178867e-01 2.963114e-01 2.768783e-01 2.590772e-01 2.427991e-01 2.280565e-01 2.150200e-01 2.038880e-01 1.949008e-01 1.882596e-01 1.841530e-01 
1.886915e-01 1.900669e-01 1.943531e-01 2.014354e-01 2.111246e-01 2.231856e-01 2.373519e-01 2.533511e-01 2.709612e-01 2.900603e-01 3.107319e-01 3.333864e-01 3.587683e-01 3.879628e-01 4.221381e-01 4.601890e-01 4.791603e-01 4.632517e-01 4.369699e-01 4.134957e-01 3.913639e-01 3.706912e-01 3.512625e-01 3.333083e-01 3.172191e-01 3.033172e-01 2.919115e-01 2.829948e-01 2.764506e-01 2.719137e-01 2.690312e-01 2.673707e-01 2.666934e-01 2.668557e-01 2.680064e-01 2.704074e-01 2.745059e-01 2.806982e-01 2.893825e-01 3.007200e-01 3.147133e-01 3.310382e-01 3.492989e-01 3.690180e-01 3.899295e-01 4.121267e-01 4.358722e-01 4.619955e-01 4.793111e-01 4.621495e-01 4.242701e-01 3.897082e-01 3.606393e-01 3.350846e-01 3.123114e-01 2.914561e-01 2.722283e-01 2.545038e-01 2.384047e-01 2.241260e-01 2.119252e-01 2.020660e-01 1.947834e-01 1.902825e-01 
1.937241e-01 1.952278e-01 1.998827e-01 2.075562e-01 2.180492e-01 2.310928e-01 2.464083e-01 2.636603e-01 2.826156e-01 3.030238e-01 3.249868e-01 3.486405e-01 3.750386e-01 4.046321e-01 4.405550e-01 4.761143e-01 4.860198e-01 4.639347e-01 4.395132e-01 4.163039e-01 3.944336e-01 3.732331e-01 3.529684e-01 3.338079e-01 3.163299e-01 3.008869e-01 2.879006e-01 2.774269e-01 2.694351e-01 2.636452e-01 2.597750e-01 2.574886e-01 2.565880e-01 2.569632e-01 2.587373e-01 2.621391e-01 2.675268e-01 2.752284e-01 2.855500e-01 2.985564e-01 3.141648e-01 3.319293e-01 3.514023e-01 3.719354e-01 3.933095e-01 4.152539e-01 4.385413e-01 4.629241e-01 4.858035e-01 4.776830e-01 4.426029e-01 4.067180e-01 3.770557e-01 3.504709e-01 3.266087e-01 3.044348e-01 2.838617e-01 2.647838e-01 2.474221e-01 2.319962e-01 2.188137e-01 2.081572e-01 2.002903e-01 1.954311e-01 
1.977195e-01 1.993330e-01 2.043031e-01 2.124830e-01 2.236670e-01 2.375613e-01 2.538804e-01 2.722442e-01 2.924073e-01 3.140314e-01 3.371835e-01 3.618171e-01 3.889625e-01 4.188765e-01 4.550516e-01 4.877039e-01 4.904194e-01 4.661353e-01 4.429710e-01 4.202452e-01 3.984641e-01 3.767713e-01 3.557267e-01 3.354761e-01 3.167614e-01 2.999568e-01 2.855827e-01 2.737482e-01 2.645109e-01 2.576546e-01 2.529546e-01 2.501417e-01 2.490527e-01 2.496071e-01 2.519077e-01 2.561505e-01 2.626354e-01 2.716340e-01 2.833798e-01 2.978527e-01 3.148924e-01 3.339404e-01 3.545176e-01 3.758279e-01 3.976598e-01 4.194765e-01 4.421600e-01 4.653010e-01 4.900648e-01 4.891161e-01 4.572671e-01 4.210419e-01 3.909283e-01 3.635979e-01 3.387273e-01 3.153791e-01 2.935868e-01 2.733142e-01 2.548442e-01 2.384247e-01 2.243964e-01 2.130569e-01 2.046907e-01 1.995259e-01 
2.006223e-01 2.023217e-01 2.075354e-01 2.161066e-01 2.278268e-01 2.423858e-01 2.594965e-01 2.787537e-01 2.999035e-01 3.225661e-01 3.467499e-01 3.723445e-01 4.001317e-01 4.305387e-01 4.661257e-01 4.957937e-01 4.934775e-01 4.688993e-01 4.463545e-01 4.240708e-01 4.022878e-01 3.802202e-01 3.585516e-01 3.374453e-01 3.177591e-01 2.998901e-01 2.844381e-01 2.715513e-01 2.613511e-01 2.536709e-01 2.483388e-01 2.451249e-01 2.438912e-01 2.445816e-01 2.472806e-01 2.521669e-01 2.595014e-01 2.695142e-01 2.823814e-01 2.980003e-01 3.161666e-01 3.362440e-01 3.577232e-01 3.797186e-01 4.019728e-01 4.238658e-01 4.461014e-01 4.685373e-01 4.930834e-01 4.968863e-01 4.681671e-01 4.324433e-01 4.018540e-01 3.739303e-01 3.481102e-01 3.237738e-01 3.009642e-01 2.797364e-01 2.603894e-01 2.431964e-01 2.285137e-01 2.166495e-01 2.079009e-01 2.025030e-01 
2.023870e-01 2.041400e-01 2.095073e-01 2.183264e-01 2.303872e-01 2.453717e-01 2.629923e-01 2.828354e-01 3.046393e-01 3.280202e-01 3.529272e-01 3.792777e-01 4.075399e-01 4.384485e-01 4.732450e-01 5.005155e-01 4.953103e-01 4.711756e-01 4.488626e-01 4.268415e-01 4.049906e-01 3.826833e-01 3.606053e-01 3.389537e-01 3.186463e-01 3.000999e-01 2.839648e-01 2.704135e-01 2.596075e-01 2.514101e-01 2.456810e-01 2.422159e-01 2.408913e-01 2.416646e-01 2.446113e-01 2.499010e-01 2.577735e-01 2.684233e-01 2.819905e-01 2.983291e-01 3.172042e-01 3.379341e-01 3.599829e-01 3.824241e-01 4.049401e-01 4.269431e-01 4.488838e-01 4.711109e-01 4.949725e-01 5.015968e-01 4.753084e-01 4.404337e-01 4.092294e-01 3.807980e-01 3.541863e-01 3.291437e-01 3.056268e-01 2.837659e-01 2.638448e-01 2.461540e-01 2.310523e-01 2.188540e-01 2.098621e-01 2.043160e-01 
2.029818e-01 2.047541e-01 2.101750e-01 2.190800e-01 2.312589e-01 2.463915e-01 2.641904e-01 2.842401e-01 3.062771e-01 3.299197e-01 3.550963e-01 3.817531e-01 4.102133e-01 4.413814e-01 4.757890e-01 5.020774e-01 4.958848e-01 4.720091e-01 4.497454e-01 4.278266e-01 4.059475e-01 3.835691e-01 3.613560e-01 3.395212e-01 3.190010e-01 3.002209e-01 2.838499e-01 2.700689e-01 2.590542e-01 2.506792e-01 2.448141e-01 2.412633e-01 2.399081e-01 2.407100e-01 2.437424e-01 2.491724e-01 2.572350e-01 2.681082e-01 2.819229e-01 2.985174e-01 3.176470e-01 3.386125e-01 3.608672e-01 3.834699e-01 4.060795e-01 4.281291e-01 4.499643e-01 4.721251e-01 4.956273e-01 5.031629e-01 4.778688e-01 4.434056e-01 4.118577e-01 3.832149e-01 3.562828e-01 3.309819e-01 3.072123e-01 2.851316e-01 2.650126e-01 2.471519e-01 2.319074e-01 2.195958e-01 2.105216e-01 2.049259e-01 
2.023870e-01 2.041400e-01 2.095073e-01 2.183264e-01 2.303872e-01 2.453717e-01 2.629923e-01 2.828354e-01 3.046393e-01 3.280202e-01 3.529272e-01 3.792777e-01 4.075399e-01 4.384485e-01 4.732450e-01 5.005155e-01 4.953103e-01 4.711756e-01 4.488626e-01 4.268415e-01 4.049906e-01 3.826833e-01 3.606053e-01 3.389537e-01 3.186463e-01 3.000999e-01 2.839648e-01 2.704135e-01 2.596075e-01 2.514101e-01 2.456810e-01 2.422159e-01 2.408913e-01 2.416646e-01 2.446113e-01 2.499010e-01 2.577735e-01 2.684233e-01 2.819905e-01 2.983291e-01 3.172042e-01 3.379341e-01 3.599829e-01 3.824241e-01 4.049401e-01 4.269431e-01 4.488838e-01 4.711109e-01 4.949725e-01 5.015968e-01 4.753084e-01 4.404337e-01 4.092294e-01 3.807980e-01 3.541863e-01 3.291437e-01 3.056268e-01 2.837659e-01 2.638448e-01 2.461540e-01 2.310523e-01 2.188540e-01 2.098621e-01 2.043160e-01 
2.006223e-01 2.023217e-01 2.075354e-01 2.161066e-01 2.278268e-01 2.423858e-01 2.594965e-01 2.787537e-01 2.999035e-01 3.225661e-01 3.467499e-01 3.723445e-01 4.001317e-01 4.305387e-01 4.661257e-01 4.957937e-01 4.934775e-01 4.688993e-01 4.463545e-01 4.240708e-01 4.022878e-01 3.802202e-01 3.585516e-01 3.374453e-01 3.177591e-01 2.998901e-01 2.844381e-01 2.715513e-01 2.613511e-01 2.536709e-01 2.483388e-01 2.451249e-01 2.438912e-01 2.445816e-01 2.472806e-01 2.521669e-01 2.595014e-01 2.695142e-01 2.823814e-01 2.980003e-01 3.161666e-01 3.362440e-01 3.577232e-01 3.797186e-01 4.019728e-01 4.238658e-01 4.461014e-01 4.685373e-01 4.930834e-01 4.968863e-01 4.681671e-01 4.324433e-01 4.018540e-01 3.739303e-01 3.481102e-01 3.237738e-01 3.009642e-01 2.797364e-01 2.603894e-01 2.431964e-01 2.285137e-01 2.166495e-01 2.079009e-01 2.025030e-01 