# vtk DataFile Version 2.0
Comment goes here
ASCII

DATASET STRUCTURED_POINTS
FIELD FieldData 1
TIME 1 1 double
1.61000000
DIMENSIONS    64   64   1

ORIGIN    0.000   0.000   0.000
SPACING   0.015625 0.015625   1.000

POINT_DATA   4096
SCALARS Concentration double
LOOKUP_TABLE default

1.058779e-02 1.066808e-02 1.096152e-02 1.147946e-02 1.224112e-02 1.327376e-02 1.461248e-02 1.629993e-02 1.838527e-02 2.092231e-02 2.396717e-02 2.757353e-02 3.178902e-02 3.664728e-02 4.216489e-02 4.833216e-02 5.511435e-02 6.244402e-02 7.022985e-02 7.835192e-02 8.667754e-02 9.505796e-02 1.033467e-01 1.113943e-01 1.190617e-01 1.262118e-01 1.327222e-01 1.384773e-01 1.433766e-01 1.473284e-01 1.502566e-01 1.520973e-01 1.528032e-01 1.523437e-01 1.507352e-01 1.480161e-01 1.442429e-01 1.394890e-01 1.338444e-01 1.274123e-01 1.203115e-01 1.126691e-01 1.046269e-01 9.632832e-02 8.792609e-02 7.956813e-02 7.140414e-02 6.356729e-02 5.617781e-02 4.932810e-02 4.308670e-02 3.749046e-02 3.255106e-02 2.825418e-02 2.456809e-02 2.144655e-02 1.883696e-02 1.668338e-02 1.493222e-02 1.353367e-02 1.244482e-02 1.162966e-02 1.106045e-02 1.071714e-02 
1.075283e-02 1.083280e-02 1.112603e-02 1.164390e-02 1.240569e-02 1.343876e-02 1.477836e-02 1.646733e-02 1.855518e-02 2.109615e-02 2.414699e-02 2.776219e-02 3.199046e-02 3.686672e-02 4.240910e-02 4.860949e-02 5.543488e-02 6.281928e-02 7.067278e-02 7.887612e-02 8.729720e-02 9.578686e-02 1.041983e-01 1.123815e-01 1.201951e-01 1.274978e-01 1.341624e-01 1.400673e-01 1.451054e-01 1.491779e-01 1.522011e-01 1.541047e-01 1.548361e-01 1.543624e-01 1.527012e-01 1.498956e-01 1.460075e-01 1.411185e-01 1.353258e-01 1.287397e-01 1.214855e-01 1.136953e-01 1.055153e-01 9.709188e-02 8.857828e-02 8.012262e-02 7.187496e-02 6.396797e-02 5.652114e-02 4.962564e-02 4.334856e-02 3.772518e-02 3.276558e-02 2.845399e-02 2.475737e-02 2.162842e-02 1.901366e-02 1.685650e-02 1.510286e-02 1.370257e-02 1.261246e-02 1.179639e-02 1.122647e-02 1.088262e-02 
1.125163e-02 1.133057e-02 1.162308e-02 1.214060e-02 1.290263e-02 1.393675e-02 1.527868e-02 1.697185e-02 1.906670e-02 2.161876e-02 2.468662e-02 2.832718e-02 3.259229e-02 3.752070e-02 4.313504e-02 4.943205e-02 5.638378e-02 6.392885e-02 7.198130e-02 8.042458e-02 8.912780e-02 9.794135e-02 1.067165e-01 1.153001e-01 1.235434e-01 1.312937e-01 1.384096e-01 1.447528e-01 1.501965e-01 1.546212e-01 1.579218e-01 1.600088e-01 1.608148e-01 1.602999e-01 1.584853e-01 1.554268e-01 1.512034e-01 1.459192e-01 1.396924e-01 1.326555e-01 1.249512e-01 1.167271e-01 1.081415e-01 9.934881e-02 9.050565e-02 8.176169e-02 7.326754e-02 6.515449e-02 5.753954e-02 5.051009e-02 4.412886e-02 3.842638e-02 3.340804e-02 2.905375e-02 2.532663e-02 2.217623e-02 1.954654e-02 1.737903e-02 1.561820e-02 1.421284e-02 1.311909e-02 1.230029e-02 1.172827e-02 1.138275e-02 
1.209534e-02 1.217254e-02 1.246394e-02 1.298104e-02 1.374359e-02 1.477961e-02 1.612548e-02 1.782562e-02 1.993198e-02 2.250217e-02 2.559776e-02 2.927958e-02 3.360462e-02 3.861784e-02 4.434931e-02 5.080369e-02 5.796140e-02 6.576850e-02 7.414574e-02 8.298045e-02 9.214400e-02 1.014850e-01 1.108511e-01 1.200816e-01 1.290159e-01 1.374830e-01 1.453197e-01 1.523617e-01 1.584528e-01 1.634406e-01 1.671862e-01 1.695685e-01 1.704954e-01 1.699151e-01 1.678551e-01 1.643917e-01 1.596321e-01 1.537166e-01 1.467976e-01 1.390407e-01 1.306168e-01 1.216966e-01 1.124573e-01 1.030662e-01 9.368722e-02 8.447329e-02 7.557674e-02 6.712681e-02 5.923674e-02 5.198795e-02 4.543603e-02 3.960388e-02 3.448919e-02 3.006480e-02 2.628758e-02 2.310188e-02 2.044757e-02 1.826293e-02 1.649011e-02 1.507624e-02 1.397627e-02 1.315278e-02 1.257713e-02 1.222872e-02 
1.330235e-02 1.337709e-02 1.366701e-02 1.418373e-02 1.494730e-02 1.598615e-02 1.733762e-02 1.904736e-02 2.116932e-02 2.376387e-02 2.689657e-02 3.063350e-02 3.503862e-02 4.016530e-02 4.605372e-02 5.271938e-02 6.015415e-02 6.831438e-02 7.712974e-02 8.649303e-02 9.627791e-02 1.063304e-01 1.164917e-01 1.265904e-01 1.364484e-01 1.458711e-01 1.546668e-01 1.626383e-01 1.695912e-01 1.753307e-01 1.796724e-01 1.824516e-01 1.835418e-01 1.828756e-01 1.804873e-01 1.764822e-01 1.710056e-01 1.642480e-01 1.564068e-01 1.476922e-01 1.383106e-01 1.284628e-01 1.183504e-01 1.081570e-01 9.805781e-02 8.821092e-02 7.877159e-02 6.986673e-02 6.160485e-02 5.405941e-02 4.727659e-02 4.126891e-02 3.602370e-02 3.150423e-02 2.765888e-02 2.442502e-02 2.173687e-02 1.952846e-02 1.773876e-02 1.631265e-02 1.520356e-02 1.437305e-02 1.379188e-02 1.343910e-02 
1.489807e-02 1.496964e-02 1.525797e-02 1.577477e-02 1.654048e-02 1.758398e-02 1.894347e-02 2.066610e-02 2.280823e-02 2.543352e-02 2.861240e-02 3.241737e-02 3.692096e-02 4.218697e-02 4.826812e-02 5.519350e-02 6.296936e-02 7.156484e-02 8.092081e-02 9.093605e-02 1.014867e-01 1.124134e-01 1.235485e-01 1.347034e-01 1.456782e-01 1.562487e-01 1.661914e-01 1.752728e-01 1.832582e-01 1.899045e-01 1.949727e-01 1.982406e-01 1.995340e-01 1.987656e-01 1.959771e-01 1.913123e-01 1.849682e-01 1.771990e-01 1.682555e-01 1.583974e-01 1.478705e-01 1.369074e-01 1.257392e-01 1.145686e-01 1.035876e-01 9.296179e-02 8.285213e-02 7.338380e-02 6.466036e-02 5.674614e-02 4.967574e-02 4.344917e-02 3.804082e-02 3.340218e-02 2.947102e-02 2.617606e-02 2.344451e-02 2.120511e-02 1.939292e-02 1.795008e-02 1.682818e-02 1.598761e-02 1.539848e-02 1.503946e-02 
1.691372e-02 1.698143e-02 1.726839e-02 1.778634e-02 1.855608e-02 1.960691e-02 2.097804e-02 2.271788e-02 2.488526e-02 2.754779e-02 3.078136e-02 3.466579e-02 3.928351e-02 4.471038e-02 5.101391e-02 5.823911e-02 6.640941e-02 7.550904e-02 8.549196e-02 9.626357e-02 1.077016e-01 1.196394e-01 1.318962e-01 1.442627e-01 1.565105e-01 1.683830e-01 1.796209e-01 1.899544e-01 1.991064e-01 2.067839e-01 2.126857e-01 2.165194e-01 2.180514e-01 2.171690e-01 2.139214e-01 2.085007e-01 2.011663e-01 1.922501e-01 1.820617e-01 1.709162e-01 1.590986e-01 1.468743e-01 1.345054e-01 1.222169e-01 1.102210e-01 9.869396e-02 8.780543e-02 7.768008e-02 6.841711e-02 6.007079e-02 5.266276e-02 4.617853e-02 4.057746e-02 3.579732e-02 3.176345e-02 2.839450e-02 2.560944e-02 2.333091e-02 2.148945e-02 2.002414e-02 1.888446e-02 1.802964e-02 1.742915e-02 1.706135e-02 
1.938572e-02 1.944903e-02 1.973551e-02 2.025685e-02 2.103410e-02 2.209681e-02 2.348514e-02 2.524889e-02 2.744947e-02 3.015784e-02 3.345600e-02 3.743211e-02 4.217936e-02 4.778725e-02 5.433996e-02 6.190091e-02 7.051334e-02 8.017914e-02 9.086743e-02 1.024904e-01 1.149266e-01 1.279974e-01 1.415049e-01 1.552102e-01 1.688486e-01 1.821227e-01 1.947363e-01 2.063900e-01 2.167781e-01 2.255672e-01 2.323911e-01 2.368658e-01 2.386753e-01 2.376694e-01 2.339072e-01 2.276484e-01 2.192373e-01 2.090992e-01 1.976002e-01 1.851000e-01 1.719127e-01 1.583302e-01 1.446506e-01 1.311252e-01 1.179955e-01 1.054531e-01 9.368201e-02 8.280932e-02 7.293059e-02 6.409017e-02 5.629489e-02 4.951428e-02 4.369031e-02 3.874529e-02 3.459030e-02 3.113257e-02 2.828177e-02 2.595371e-02 2.407369e-02 2.257764e-02 2.141309e-02 2.053808e-02 1.992156e-02 1.954157e-02 
2.235260e-02 2.241125e-02 2.269924e-02 2.322786e-02 2.401838e-02 2.510025e-02 2.651434e-02 2.831165e-02 3.055620e-02 3.332271e-02 3.669885e-02 4.078046e-02 4.567323e-02 5.148135e-02 5.830751e-02 6.623551e-02 7.533150e-02 8.561740e-02 9.707997e-02 1.096382e-01 1.231699e-01 1.374807e-01 1.523491e-01 1.675019e-01 1.826263e-01 1.973795e-01 2.114255e-01 2.244403e-01 2.360957e-01 2.460331e-01 2.538240e-01 2.589817e-01 2.610965e-01 2.599655e-01 2.556605e-01 2.485220e-01 2.389907e-01 2.275968e-01 2.147547e-01 2.008658e-01 1.862623e-01 1.712551e-01 1.561796e-01 1.413186e-01 1.269511e-01 1.132895e-01 1.005399e-01 8.883455e-02 7.826776e-02 6.887349e-02 6.064261e-02 5.352698e-02 4.744908e-02 4.231410e-02 3.801710e-02 3.445298e-02 3.152049e-02 2.912834e-02 2.719687e-02 2.565868e-02 2.445924e-02 2.355557e-02 2.291631e-02 2.251936e-02 
2.585381e-02 2.590793e-02 2.620115e-02 2.674370e-02 2.755680e-02 2.866948e-02 3.012290e-02 3.196883e-02 3.427369e-02 3.711592e-02 4.058932e-02 4.479796e-02 4.985848e-02 5.589051e-02 6.301822e-02 7.134830e-02 8.097317e-02 9.193908e-02 1.042537e-01 1.178442e-01 1.325864e-01 1.482631e-01 1.646240e-01 1.813454e-01 1.980473e-01 2.143187e-01 2.297712e-01 2.440721e-01 2.569202e-01 2.679813e-01 2.767809e-01 2.826867e-01 2.851583e-01 2.838941e-01 2.789910e-01 2.709218e-01 2.602683e-01 2.476853e-01 2.335972e-01 2.183965e-01 2.023975e-01 1.859197e-01 1.693568e-01 1.530387e-01 1.373019e-01 1.223907e-01 1.085425e-01 9.590070e-02 8.455830e-02 7.453936e-02 6.581534e-02 5.831866e-02 5.194903e-02 4.659290e-02 4.212647e-02 3.843081e-02 3.539435e-02 3.291827e-02 3.091730e-02 2.932062e-02 2.807187e-02 2.712730e-02 2.645572e-02 2.603490e-02 
2.992459e-02 2.997483e-02 3.027894e-02 3.084591e-02 3.169565e-02 3.285664e-02 3.436980e-02 3.628698e-02 3.867658e-02 4.162040e-02 4.521845e-02 4.958327e-02 5.484384e-02 6.113507e-02 6.860108e-02 7.737550e-02 8.758331e-02 9.929874e-02 1.125563e-01 1.272907e-01 1.433741e-01 1.605568e-01 1.785496e-01 1.969701e-01 2.153439e-01 2.331901e-01 2.500688e-01 2.656303e-01 2.795849e-01 2.916706e-01 3.014033e-01 3.080189e-01 3.108385e-01 3.094521e-01 3.039918e-01 2.950643e-01 2.833817e-01 2.697114e-01 2.544440e-01 2.379733e-01 2.205857e-01 2.025908e-01 1.844429e-01 1.665336e-01 1.492794e-01 1.329663e-01 1.178807e-01 1.041802e-01 9.195982e-02 8.123213e-02 7.194633e-02 6.401250e-02 5.730384e-02 5.168405e-02 4.701039e-02 4.315019e-02 3.997971e-02 3.739208e-02 3.529606e-02 3.361765e-02 3.229903e-02 3.129634e-02 3.057847e-02 3.012440e-02 
3.459425e-02 3.464200e-02 3.496547e-02 3.557189e-02 3.647938e-02 3.771409e-02 3.931689e-02 4.133880e-02 4.384957e-02 4.693391e-02 5.069771e-02 5.526219e-02 6.076911e-02 6.737045e-02 7.523312e-02 8.451863e-02 9.538655e-02 1.079522e-01 1.222835e-01 1.383276e-01 1.559470e-01 1.748486e-01 1.946997e-01 2.150252e-01 2.352347e-01 2.547218e-01 2.729274e-01 2.895090e-01 3.042982e-01 3.172340e-01 3.278941e-01 3.353112e-01 3.385553e-01 3.370198e-01 3.309079e-01 3.210849e-01 3.084824e-01 2.940042e-01 2.778744e-01 2.603526e-01 2.416222e-01 2.219993e-01 2.020849e-01 1.823538e-01 1.633459e-01 1.454049e-01 1.288776e-01 1.139471e-01 1.007058e-01 8.915516e-02 7.921496e-02 7.076632e-02 6.365071e-02 5.770982e-02 5.277846e-02 4.870813e-02 4.536156e-02 4.262334e-02 4.039627e-02 3.860349e-02 3.718643e-02 3.610132e-02 3.531826e-02 3.481842e-02 
3.987890e-02 3.992645e-02 4.028092e-02 4.094737e-02 4.194160e-02 4.328576e-02 4.501993e-02 4.719373e-02 4.987757e-02 5.315849e-02 5.714799e-02 6.197589e-02 6.779729e-02 7.478235e-02 8.312412e-02 9.301694e-02 1.046641e-01 1.182233e-01 1.338089e-01 1.513800e-01 1.707807e-01 1.916403e-01 2.135658e-01 2.359704e-01 2.580826e-01 2.792528e-01 2.989514e-01 3.167704e-01 3.323812e-01 3.459105e-01 3.571185e-01 3.649665e-01 3.684422e-01 3.668109e-01 3.603445e-01 3.500403e-01 3.368761e-01 3.217440e-01 3.046353e-01 2.859363e-01 2.658302e-01 2.445282e-01 2.227031e-01 2.009343e-01 1.799278e-01 1.600944e-01 1.418842e-01 1.255096e-01 1.110673e-01 9.854578e-02 8.782442e-02 7.875644e-02 7.114567e-02 6.480772e-02 5.955007e-02 5.520710e-02 5.162632e-02 4.868376e-02 4.627623e-02 4.432459e-02 4.277039e-02 4.156977e-02 4.069657e-02 4.013457e-02 
4.578031e-02 4.583108e-02 4.623221e-02 4.698594e-02 4.810528e-02 4.960744e-02 5.152912e-02 5.391904e-02 5.684746e-02 6.040329e-02 6.470325e-02 6.988600e-02 7.612016e-02 8.359586e-02 9.253484e-02 1.031711e-01 1.157613e-01 1.305220e-01 1.476204e-01 1.670284e-01 1.885440e-01 2.116943e-01 2.360215e-01 2.607700e-01 2.851214e-01 3.082081e-01 3.292217e-01 3.478369e-01 3.638571e-01 3.777680e-01 3.895990e-01 3.981152e-01 4.019851e-01 4.001631e-01 3.930694e-01 3.821132e-01 3.684995e-01 3.531735e-01 3.356345e-01 3.160809e-01 2.944870e-01 2.711457e-01 2.471093e-01 2.229769e-01 1.996294e-01 1.775672e-01 1.573514e-01 1.392567e-01 1.233746e-01 1.096810e-01 9.801258e-02 8.818924e-02 7.996724e-02 7.313042e-02 6.745427e-02 6.275393e-02 5.886057e-02 5.564134e-02 5.298749e-02 5.081814e-02 4.907525e-02 4.771658e-02 4.672121e-02 4.607623e-02 
5.227844e-02 5.233702e-02 5.280460e-02 5.368003e-02 5.497287e-02 5.669469e-02 5.887699e-02 6.156664e-02 6.483362e-02 6.876860e-02 7.349332e-02 7.915583e-02 8.593892e-02 9.405469e-02 1.037571e-01 1.153262e-01 1.290849e-01 1.453235e-01 1.642836e-01 1.859314e-01 2.099761e-01 2.357199e-01 2.626611e-01 2.898096e-01 3.159834e-01 3.405279e-01 3.634908e-01 3.846487e-01 4.023015e-01 4.164289e-01 4.275305e-01 4.350580e-01 4.383121e-01 4.366928e-01 4.305246e-01 4.205397e-01 4.073052e-01 3.910207e-01 3.711509e-01 3.495902e-01 3.266184e-01 3.016934e-01 2.755274e-01 2.488680e-01 2.229392e-01 1.983044e-01 1.757430e-01 1.556029e-01 1.379804e-01 1.228651e-01 1.100380e-01 9.928604e-02 9.030190e-02 8.283404e-02 7.661838e-02 7.144980e-02 6.714133e-02 6.355145e-02 6.056628e-02 5.810385e-02 5.610645e-02 5.453632e-02 5.337892e-02 5.262524e-02 
5.933270e-02 5.940510e-02 5.996362e-02 6.100288e-02 6.252860e-02 6.454570e-02 6.708032e-02 7.017384e-02 7.389792e-02 7.834453e-02 8.364053e-02 8.994449e-02 9.745400e-02 1.064065e-01 1.170912e-01 1.298412e-01 1.450570e-01 1.631218e-01 1.843712e-01 2.087679e-01 2.358072e-01 2.645223e-01 2.941824e-01 3.237791e-01 3.531337e-01 3.803697e-01 4.034315e-01 4.229594e-01 4.377768e-01 4.483444e-01 4.555870e-01 4.599356e-01 4.615246e-01 4.605907e-01 4.571276e-01 4.508635e-01 4.414404e-01 4.284142e-01 4.109263e-01 3.899680e-01 3.650631e-01 3.370161e-01 3.083458e-01 2.791558e-01 2.503571e-01 2.228246e-01 1.975267e-01 1.749679e-01 1.552437e-01 1.383985e-01 1.241552e-01 1.122601e-01 1.023286e-01 9.406472e-02 8.715846e-02 8.138216e-02 7.653012e-02 7.245212e-02 6.903017e-02 6.618077e-02 6.384911e-02 6.200299e-02 6.063568e-02 5.974269e-02 
6.687697e-02 6.697042e-02 6.764847e-02 6.890090e-02 7.072889e-02 7.312995e-02 7.612452e-02 7.974715e-02 8.407026e-02 8.918833e-02 9.523343e-02 1.023771e-01 1.108334e-01 1.208713e-01 1.328196e-01 1.470732e-01 1.641178e-01 1.844474e-01 2.085224e-01 2.363054e-01 2.669792e-01 2.990707e-01 3.321343e-01 3.642733e-01 3.927515e-01 4.152225e-01 4.293061e-01 4.377045e-01 4.421813e-01 4.452141e-01 4.473006e-01 4.485815e-01 4.488573e-01 4.484122e-01 4.472144e-01 4.452264e-01 4.424518e-01 4.387902e-01 4.325533e-01 4.214273e-01 4.029759e-01 3.771248e-01 3.469165e-01 3.145310e-01 2.824775e-01 2.516800e-01 2.232348e-01 1.978217e-01 1.755359e-01 1.565840e-01 1.406025e-01 1.273070e-01 1.162037e-01 1.069457e-01 9.916630e-02 9.261365e-02 8.706317e-02 8.235561e-02 7.837112e-02 7.502247e-02 7.226276e-02 7.006504e-02 6.843204e-02 6.736427e-02 
7.482471e-02 7.494797e-02 7.577848e-02 7.730021e-02 7.950941e-02 8.239491e-02 8.597161e-02 9.026671e-02 9.535054e-02 1.013220e-01 1.083187e-01 1.165277e-01 1.261823e-01 1.375946e-01 1.511395e-01 1.672831e-01 1.865960e-01 2.096635e-01 2.371213e-01 2.688773e-01 3.036622e-01 3.395715e-01 3.732128e-01 3.997313e-01 4.142662e-01 4.193423e-01 4.178941e-01 4.156736e-01 4.154429e-01 4.172541e-01 4.198198e-01 4.221326e-01 4.230245e-01 4.221941e-01 4.199002e-01 4.170067e-01 4.146931e-01 4.141881e-01 4.161795e-01 4.187822e-01 4.175758e-01 4.073874e-01 3.857698e-01 3.546324e-01 3.196513e-01 2.853336e-01 2.532776e-01 2.244797e-01 1.991020e-01 1.775954e-01 1.595231e-01 1.445390e-01 1.320173e-01 1.215431e-01 1.126852e-01 1.051645e-01 9.873904e-02 9.324048e-02 8.854916e-02 8.457486e-02 8.128152e-02 7.864738e-02 7.668641e-02 7.540455e-02 
8.306828e-02 8.323110e-02 8.424979e-02 8.610174e-02 8.877741e-02 9.225576e-02 9.654559e-02 1.016667e-01 1.076852e-01 1.147043e-01 1.228662e-01 1.323787e-01 1.434994e-01 1.566047e-01 1.721335e-01 1.906443e-01 2.127661e-01 2.391234e-01 2.704588e-01 3.066594e-01 3.446718e-01 3.789122e-01 4.008579e-01 4.072706e-01 4.017006e-01 3.933700e-01 3.879227e-01 3.866771e-01 3.885769e-01 3.918337e-01 3.950864e-01 3.975896e-01 3.985302e-01 3.977175e-01 3.953082e-01 3.918455e-01 3.882821e-01 3.855808e-01 3.856406e-01 3.899888e-01 3.985378e-01 4.069167e-01 4.063771e-01 3.908178e-01 3.606053e-01 3.240260e-01 2.879799e-01 2.552612e-01 2.261098e-01 2.015508e-01 1.809825e-01 1.639975e-01 1.497901e-01 1.378604e-01 1.277036e-01 1.190066e-01 1.115150e-01 1.050490e-01 9.949339e-02 9.475590e-02 9.081436e-02 8.765171e-02 8.529529e-02 8.375692e-02 
9.148716e-02 9.170065e-02 9.294590e-02 9.519246e-02 9.842428e-02 1.026083e-01 1.077470e-01 1.138504e-01 1.209810e-01 1.292402e-01 1.387752e-01 1.498157e-01 1.626488e-01 1.777496e-01 1.956455e-01 2.170470e-01 2.425880e-01 2.727606e-01 3.083158e-01 3.476923e-01 3.821517e-01 4.002467e-01 3.987850e-01 3.871994e-01 3.752742e-01 3.663457e-01 3.614162e-01 3.604762e-01 3.628201e-01 3.667177e-01 3.706295e-01 3.735628e-01 3.746996e-01 3.738033e-01 3.710298e-01 3.669432e-01 3.626117e-01 3.592698e-01 3.589222e-01 3.626487e-01 3.709546e-01 3.830705e-01 3.963137e-01 4.035204e-01 3.931712e-01 3.639596e-01 3.262622e-01 2.893747e-01 2.562128e-01 2.282156e-01 2.048282e-01 1.855530e-01 1.694057e-01 1.557902e-01 1.441185e-01 1.340390e-01 1.252887e-01 1.176760e-01 1.110952e-01 1.054537e-01 1.007461e-01 9.696008e-02 9.413882e-02 9.230063e-02 
9.995060e-02 1.002263e-01 1.017368e-01 1.044424e-01 1.083191e-01 1.133191e-01 1.194374e-01 1.266708e-01 1.350775e-01 1.447492e-01 1.558336e-01 1.685811e-01 1.833117e-01 2.006388e-01 2.212286e-01 2.460419e-01 2.756331e-01 3.099408e-01 3.486455e-01 3.839109e-01 4.004201e-01 3.944120e-01 3.779622e-01 3.620339e-01 3.496541e-01 3.409455e-01 3.365983e-01 3.362097e-01 3.388016e-01 3.427729e-01 3.466708e-01 3.495224e-01 3.506368e-01 3.497847e-01 3.470936e-01 3.430487e-01 3.386357e-01 3.350979e-01 3.342392e-01 3.373391e-01 3.452650e-01 3.573988e-01 3.727457e-01 3.899368e-01 4.014234e-01 3.939082e-01 3.646256e-01 3.259098e-01 2.888607e-01 2.572872e-01 2.308057e-01 2.089592e-01 1.906422e-01 1.751266e-01 1.617508e-01 1.500972e-01 1.399102e-01 1.309777e-01 1.232174e-01 1.165338e-01 1.109441e-01 1.064407e-01 1.030855e-01 1.009046e-01 
1.083257e-01 1.086762e-01 1.104903e-01 1.137176e-01 1.183240e-01 1.242436e-01 1.314624e-01 1.399580e-01 1.497842e-01 1.610105e-01 1.737816e-01 1.883529e-01 2.050712e-01 2.247112e-01 2.480474e-01 2.763757e-01 3.099832e-01 3.479707e-01 3.843776e-01 4.020531e-01 3.949332e-01 3.756013e-01 3.557471e-01 3.391062e-01 3.266759e-01 3.183502e-01 3.141174e-01 3.134840e-01 3.155508e-01 3.189857e-01 3.225033e-01 3.251223e-01 3.261599e-01 3.253643e-01 3.228648e-01 3.191783e-01 3.152657e-01 3.123160e-01 3.118064e-01 3.148670e-01 3.222390e-01 3.338528e-01 3.492553e-01 3.680819e-01 3.885911e-01 4.025930e-01 3.944220e-01 3.626642e-01 3.233501e-01 2.882299e-01 2.584595e-01 2.338052e-01 2.131090e-01 1.955340e-01 1.803085e-01 1.669313e-01 1.551611e-01 1.447608e-01 1.356851e-01 1.278356e-01 1.212575e-01 1.159501e-01 1.119971e-01 1.094339e-01 
1.164809e-01 1.169184e-01 1.190715e-01 1.228768e-01 1.282876e-01 1.352152e-01 1.436340e-01 1.534952e-01 1.648456e-01 1.777198e-01 1.922529e-01 2.086871e-01 2.273781e-01 2.492477e-01 2.750753e-01 3.065843e-01 3.443192e-01 3.825765e-01 4.049268e-01 3.998445e-01 3.786016e-01 3.560516e-01 3.359656e-01 3.194040e-01 3.068522e-01 2.983047e-01 2.936403e-01 2.923173e-01 2.935000e-01 2.960537e-01 2.988557e-01 3.009919e-01 3.018412e-01 3.011543e-01 2.990628e-01 2.960585e-01 2.930114e-01 2.910067e-01 2.912528e-01 2.947387e-01 3.021091e-01 3.134588e-01 3.285954e-01 3.474091e-01 3.696930e-01 3.933310e-01 4.066228e-01 3.937428e-01 3.581850e-01 3.200291e-01 2.869100e-01 2.593878e-01 2.362844e-01 2.165699e-01 1.994381e-01 1.842413e-01 1.707887e-01 1.588063e-01 1.483060e-01 1.391868e-01 1.315294e-01 1.253426e-01 1.207353e-01 1.177551e-01 
1.242898e-01 1.248268e-01 1.273505e-01 1.317815e-01 1.380577e-01 1.460622e-01 1.557561e-01 1.670544e-01 1.799999e-01 1.945724e-01 2.109181e-01 2.292322e-01 2.499368e-01 2.740308e-01 3.022262e-01 3.367788e-01 3.764757e-01 4.066458e-01 4.085733e-01 3.869527e-01 3.620473e-01 3.393486e-01 3.194903e-01 3.029555e-01 2.901335e-01 2.810162e-01 2.754503e-01 2.729708e-01 2.728654e-01 2.742062e-01 2.760496e-01 2.775615e-01 2.781632e-01 2.776206e-01 2.760602e-01 2.739581e-01 2.721003e-01 2.714261e-01 2.729013e-01 2.773408e-01 2.852590e-01 2.968296e-01 3.120439e-01 3.307877e-01 3.531243e-01 3.782602e-01 4.030987e-01 4.114428e-01 3.901840e-01 3.518860e-01 3.149608e-01 2.848680e-01 2.594820e-01 2.377070e-01 2.187048e-01 2.016597e-01 1.864830e-01 1.728509e-01 1.608558e-01 1.503942e-01 1.415911e-01 1.344680e-01 1.291629e-01 1.257387e-01 
1.316337e-01 1.322824e-01 1.352015e-01 1.402930e-01 1.474752e-01 1.566004e-01 1.676107e-01 1.803768e-01 1.949364e-01 2.111940e-01 2.293231e-01 2.494362e-01 2.720595e-01 2.983069e-01 3.287131e-01 3.669219e-01 4.042823e-01 4.181639e-01 4.009816e-01 3.740189e-01 3.487592e-01 3.264097e-01 3.067562e-01 2.901098e-01 2.767049e-01 2.666385e-01 2.598223e-01 2.559041e-01 2.543056e-01 2.542693e-01 2.550066e-01 2.557896e-01 2.561006e-01 2.557319e-01 2.547968e-01 2.537325e-01 2.532253e-01 2.540703e-01 2.570464e-01 2.628158e-01 2.717766e-01 2.840719e-01 2.996799e-01 3.184913e-01 3.404985e-01 3.653235e-01 3.923300e-01 4.159249e-01 4.131488e-01 3.815147e-01 3.421194e-01 3.095274e-01 2.821967e-01 2.584676e-01 2.376951e-01 2.188303e-01 2.019303e-01 1.866287e-01 1.731020e-01 1.612605e-01 1.512702e-01 1.431766e-01 1.371452e-01 1.332607e-01 
1.384018e-01 1.391711e-01 1.424977e-01 1.482652e-01 1.563678e-01 1.666257e-01 1.789547e-01 1.931783e-01 2.093203e-01 2.271930e-01 2.470176e-01 2.687307e-01 2.931591e-01 3.210691e-01 3.539242e-01 3.938163e-01 4.227919e-01 4.195613e-01 3.922488e-01 3.649188e-01 3.400033e-01 3.178705e-01 2.981397e-01 2.809920e-01 2.666779e-01 2.553488e-01 2.470195e-01 2.414559e-01 2.382136e-01 2.366876e-01 2.362207e-01 2.362183e-01 2.362181e-01 2.360425e-01 2.357881e-01 2.358553e-01 2.368067e-01 2.393110e-01 2.439914e-01 2.513703e-01 2.617324e-01 2.751302e-01 2.914852e-01 3.105536e-01 3.322958e-01 3.564729e-01 3.832538e-01 4.115678e-01 4.263250e-01 4.078370e-01 3.687348e-01 3.327387e-01 3.039880e-01 2.783440e-01 2.559542e-01 2.353322e-01 2.167608e-01 1.998231e-01 1.847779e-01 1.715634e-01 1.603826e-01 1.513148e-01 1.445514e-01 1.402049e-01 
1.444945e-01 1.453890e-01 1.491223e-01 1.555600e-01 1.645690e-01 1.759395e-01 1.895536e-01 2.051918e-01 2.228526e-01 2.422557e-01 2.636796e-01 2.868089e-01 3.129788e-01 3.421025e-01 3.781973e-01 4.169953e-01 4.336973e-01 4.157986e-01 3.870551e-01 3.600857e-01 3.358449e-01 3.136650e-01 2.935495e-01 2.755447e-01 2.600119e-01 2.471790e-01 2.371703e-01 2.298653e-01 2.249392e-01 2.219145e-01 2.202493e-01 2.194533e-01 2.191413e-01 2.191624e-01 2.195985e-01 2.207933e-01 2.232061e-01 2.273961e-01 2.338619e-01 2.430044e-01 2.549977e-01 2.697892e-01 2.871943e-01 3.068157e-01 3.285983e-01 3.520705e-01 3.782277e-01 4.059549e-01 4.321611e-01 4.276850e-01 3.928155e-01 3.542446e-01 3.243566e-01 2.970108e-01 2.730753e-01 2.508134e-01 2.306353e-01 2.121436e-01 1.956302e-01 1.810928e-01 1.687534e-01 1.587390e-01 1.512612e-01 1.464659e-01 
1.498225e-01 1.508403e-01 1.549627e-01 1.620396e-01 1.719078e-01 1.843342e-01 1.991581e-01 2.161350e-01 2.352086e-01 2.560513e-01 2.789087e-01 3.033082e-01 3.308339e-01 3.608560e-01 3.993685e-01 4.345570e-01 4.392571e-01 4.127172e-01 3.855281e-01 3.593027e-01 3.356339e-01 3.132084e-01 2.924140e-01 2.732900e-01 2.563360e-01 2.418643e-01 2.301147e-01 2.210635e-01 2.144894e-01 2.100195e-01 2.072099e-01 2.056545e-01 2.050428e-01 2.052553e-01 2.063574e-01 2.086258e-01 2.124429e-01 2.182728e-01 2.265140e-01 2.374652e-01 2.512011e-01 2.675670e-01 2.862505e-01 3.067550e-01 3.289038e-01 3.521959e-01 3.776231e-01 4.040987e-01 4.336243e-01 4.410417e-01 4.133216e-01 3.742224e-01 3.427869e-01 3.140682e-01 2.885816e-01 2.648673e-01 2.431844e-01 2.232777e-01 2.053968e-01 1.896344e-01 1.762106e-01 1.653119e-01 1.571636e-01 1.519490e-01 
1.543073e-01 1.554413e-01 1.599189e-01 1.675781e-01 1.782253e-01 1.916138e-01 2.075346e-01 2.257447e-01 2.461065e-01 2.683195e-01 2.924816e-01 3.181618e-01 3.467028e-01 3.775729e-01 4.166210e-01 4.466874e-01 4.418482e-01 4.130833e-01 3.873774e-01 3.620513e-01 3.384928e-01 3.155945e-01 2.938917e-01 2.735287e-01 2.550916e-01 2.389889e-01 2.255424e-01 2.148313e-01 2.067247e-01 2.009341e-01 1.970919e-01 1.948603e-01 1.939843e-01 1.943654e-01 1.960586e-01 1.992921e-01 2.043867e-01 2.117302e-01 2.216440e-01 2.343392e-01 2.497764e-01 2.677264e-01 2.877305e-01 3.092655e-01 3.319222e-01 3.553578e-01 3.799471e-01 4.056600e-01 4.339019e-01 4.500927e-01 4.303246e-01 3.924824e-01 3.588590e-01 3.290688e-01 3.020819e-01 2.771342e-01 2.540882e-01 2.329404e-01 2.138350e-01 1.969862e-01 1.825920e-01 1.709050e-01 1.621569e-01 1.565692e-01 
1.578795e-01 1.591141e-01 1.638939e-01 1.720487e-01 1.833568e-01 1.975686e-01 2.144261e-01 2.337149e-01 2.551977e-01 2.786841e-01 3.040219e-01 3.310858e-01 3.604970e-01 3.926492e-01 4.305894e-01 4.550705e-01 4.434117e-01 4.159222e-01 3.909579e-01 3.664437e-01 3.427376e-01 3.193578e-01 2.967197e-01 2.751952e-01 2.553889e-01 2.378262e-01 2.228861e-01 2.107327e-01 2.013023e-01 1.943786e-01 1.896599e-01 1.868595e-01 1.857622e-01 1.862832e-01 1.884717e-01 1.925211e-01 1.987077e-01 2.073597e-01 2.187216e-01 2.329430e-01 2.498861e-01 2.692755e-01 2.904978e-01 3.130469e-01 3.362376e-01 3.599316e-01 3.838643e-01 4.088826e-01 4.347578e-01 4.559498e-01 4.433241e-01 4.072655e-01 3.718781e-01 3.413464e-01 3.131576e-01 2.872214e-01 2.630303e-01 2.408513e-01 2.207169e-01 2.029609e-01 1.877520e-01 1.754052e-01 1.661536e-01 1.602540e-01 
1.604816e-01 1.617955e-01 1.668081e-01 1.753440e-01 1.871595e-01 2.020080e-01 2.195890e-01 2.397278e-01 2.620900e-01 2.866224e-01 3.128960e-01 3.411900e-01 3.712592e-01 4.048400e-01 4.412101e-01 4.606037e-01 4.446059e-01 4.191537e-01 3.946493e-01 3.708347e-01 3.469484e-01 3.231978e-01 2.997756e-01 2.773180e-01 2.564077e-01 2.376883e-01 2.215716e-01 2.082930e-01 1.978359e-01 1.900392e-01 1.846469e-01 1.814105e-01 1.801431e-01 1.807702e-01 1.833382e-01 1.880161e-01 1.950442e-01 2.047077e-01 2.171955e-01 2.326126e-01 2.507398e-01 2.712729e-01 2.934628e-01 3.168239e-01 3.404387e-01 3.643129e-01 3.877787e-01 4.120728e-01 4.364354e-01 4.595899e-01 4.520995e-01 4.178164e-01 3.818137e-01 3.506709e-01 3.215892e-01 2.948329e-01 2.697355e-01 2.467504e-01 2.258254e-01 2.073790e-01 1.915513e-01 1.787055e-01 1.690732e-01 1.629389e-01 
1.620665e-01 1.634302e-01 1.685891e-01 1.773653e-01 1.895005e-01 2.047526e-01 2.227927e-01 2.434779e-01 2.664061e-01 2.916279e-01 3.185153e-01 3.476337e-01 3.781254e-01 4.125375e-01 4.476992e-01 4.636897e-01 4.455652e-01 4.215162e-01 3.973726e-01 3.739905e-01 3.499746e-01 3.259865e-01 3.020451e-01 2.789828e-01 2.573544e-01 2.378915e-01 2.210221e-01 2.070291e-01 1.959242e-01 1.875788e-01 1.817647e-01 1.782557e-01 1.768821e-01 1.775756e-01 1.803805e-01 1.854512e-01 1.930066e-01 2.033071e-01 2.165065e-01 2.326847e-01 2.515665e-01 2.728322e-01 2.956347e-01 3.195021e-01 3.433580e-01 3.672866e-01 3.904258e-01 4.141736e-01 4.378795e-01 4.617645e-01 4.573588e-01 4.245357e-01 3.885093e-01 3.567867e-01 3.270585e-01 2.996747e-01 2.739544e-01 2.504310e-01 2.289961e-01 2.101096e-01 1.938905e-01 1.807303e-01 1.708584e-01 1.645763e-01 
1.626009e-01 1.639827e-01 1.691924e-01 1.780516e-01 1.902971e-01 2.056885e-01 2.238873e-01 2.447620e-01 2.678880e-01 2.933547e-01 3.204640e-01 3.498920e-01 3.805537e-01 4.152293e-01 4.499180e-01 4.646726e-01 4.459122e-01 4.222787e-01 3.982941e-01 3.750821e-01 3.510460e-01 3.269941e-01 3.028845e-01 2.796195e-01 2.577443e-01 2.380241e-01 2.208929e-01 2.066518e-01 1.953218e-01 1.867867e-01 1.808269e-01 1.772240e-01 1.758138e-01 1.765307e-01 1.794174e-01 1.846238e-01 1.923622e-01 2.028844e-01 2.163324e-01 2.327772e-01 2.519243e-01 2.734471e-01 2.964652e-01 3.205073e-01 3.444475e-01 3.683917e-01 3.914324e-01 4.150042e-01 4.385188e-01 4.625053e-01 4.590505e-01 4.268424e-01 3.908845e-01 3.589076e-01 3.289388e-01 3.013191e-01 2.753785e-01 2.516695e-01 2.300626e-01 2.110277e-01 1.946771e-01 1.814110e-01 1.714586e-01 1.651273e-01 
1.620665e-01 1.634302e-01 1.685891e-01 1.773653e-01 1.895005e-01 2.047526e-01 2.227927e-01 2.434779e-01 2.664061e-01 2.916279e-01 3.185153e-01 3.476337e-01 3.781254e-01 4.125375e-01 4.476992e-01 4.636897e-01 4.455652e-01 4.215162e-01 3.973726e-01 3.739905e-01 3.499746e-01 3.259865e-01 3.020451e-01 2.789828e-01 2.573544e-01 2.378915e-01 2.210221e-01 2.070291e-01 1.959242e-01 1.875788e-01 1.817647e-01 1.782557e-01 1.768821e-01 1.775756e-01 1.803805e-01 1.854512e-01 1.930066e-01 2.033071e-01 2.165065e-01 2.326847e-01 2.515665e-01 2.728322e-01 2.956347e-01 3.195021e-01 3.433580e-01 3.672866e-01 3.904258e-01 4.141736e-01 4.378795e-01 4.617645e-01 4.573588e-01 4.245357e-01 3.885093e-01 3.567867e-01 3.270585e-01 2.996747e-01 2.739544e-01 2.504310e-01 2.289961e-01 2.101096e-01 1.938905e-01 1.807303e-01 1.708584e-01 1.645763e-01 
1.604816e-01 1.617955e-01 1.668081e-01 1.753440e-01 1.871595e-01 2.020080e-01 2.195890e-01 2.397278e-01 2.620900e-01 2.866224e-01 3.128960e-01 3.411900e-01 3.712592e-01 4.048400e-01 4.412101e-01 4.606037e-01 4.446059e-01 4.191537e-01 3.946493e-01 3.708347e-01 3.469484e-01 3.231978e-01 2.997756e-01 2.773180e-01 2.564077e-01 2.376883e-01 2.215716e-01 2.082930e-01 1.978359e-01 1.900392e-01 1.846469e-01 1.814105e-01 1.801431e-01 1.807702e-01 1.833382e-01 1.880161e-01 1.950442e-01 2.047077e-01 2.171955e-01 2.326126e-01 2.507398e-01 2.712729e-01 2.934628e-01 3.168239e-01 3.404387e-01 3.643129e-01 3.877787e-01 4.120728e-01 4.364354e-01 4.595899e-01 4.520995e-01 4.178164e-01 3.818137e-01 3.506709e-01 3.215892e-01 2.948329e-01 2.697355e-01 2.467504e-01 2.258254e-01 2.073790e-01 1.915513e-01 1.787055e-01 1.690732e-01 1.629389e-01 