# vtk DataFile Version 2.0
Comment goes here
ASCII

DATASET STRUCTURED_POINTS
FIELD FieldData 1
TIME 1 1 double
0.95000000
DIMENSIONS    64   64   1

ORIGIN    0.000   0.000   0.000
SPACING   0.015625 0.015625   1.000

POINT_DATA   4096
SCALARS Concentration double
LOOKUP_TABLE default

1.384547e-03 1.410831e-03 1.494871e-03 1.638279e-03 1.844135e-03 2.117167e-03 2.463930e-03 2.893260e-03 3.416600e-03 4.048673e-03 4.807819e-03 5.716670e-03 6.802059e-03 8.095205e-03 9.630226e-03 1.144287e-02 1.356726e-02 1.603363e-02 1.886236e-02 2.206122e-02 2.561822e-02 2.950086e-02 3.365016e-02 3.798451e-02 4.239712e-02 4.676484e-02 5.094946e-02 5.481029e-02 5.821037e-02 6.102300e-02 6.313627e-02 6.445722e-02 6.492452e-02 6.451288e-02 6.324241e-02 6.117230e-02 5.839226e-02 5.501641e-02 5.116900e-02 4.698939e-02 4.261695e-02 3.819354e-02 3.384334e-02 2.967616e-02 2.577518e-02 2.220068e-02 1.898626e-02 1.614374e-02 1.366584e-02 1.153137e-02 9.710274e-03 8.167609e-03 6.867747e-03 5.775972e-03 4.861198e-03 4.096217e-03 3.458552e-03 2.929646e-03 2.494915e-03 2.142784e-03 1.864514e-03 1.653465e-03 1.504956e-03 1.415856e-03 
1.437329e-03 1.464325e-03 1.550721e-03 1.698120e-03 1.909594e-03 2.189874e-03 2.545522e-03 2.985400e-03 3.521003e-03 4.167156e-03 4.942356e-03 5.869508e-03 6.975854e-03 8.293318e-03 9.856954e-03 1.170338e-02 1.386787e-02 1.638219e-02 1.926844e-02 2.253635e-02 2.617586e-02 3.015632e-02 3.442004e-02 3.888596e-02 4.344656e-02 4.797633e-02 5.233281e-02 5.636793e-02 5.993600e-02 6.290084e-02 6.513926e-02 6.654366e-02 6.704345e-02 6.660892e-02 6.526310e-02 6.307365e-02 6.014382e-02 5.660100e-02 5.257837e-02 4.822467e-02 4.368697e-02 3.911217e-02 3.462711e-02 3.034268e-02 2.634156e-02 2.268278e-02 1.939797e-02 1.649698e-02 1.397045e-02 1.179538e-02 9.940149e-03 8.368593e-03 7.044189e-03 5.931260e-03 4.997995e-03 4.216760e-03 3.564809e-03 3.023421e-03 2.577918e-03 2.216670e-03 1.930918e-03 1.714013e-03 1.561277e-03 1.469584e-03 
1.596437e-03 1.625574e-03 1.719059e-03 1.878464e-03 2.106855e-03 2.408968e-03 2.791410e-03 3.263134e-03 3.835813e-03 4.524582e-03 5.348448e-03 6.331132e-03 7.501094e-03 8.892140e-03 1.054198e-02 1.248997e-02 1.477494e-02 1.743306e-02 2.049155e-02 2.396586e-02 2.785157e-02 3.212335e-02 3.672722e-02 4.158377e-02 4.658322e-02 5.159332e-02 5.645877e-02 6.101116e-02 6.507820e-02 6.849136e-02 7.109579e-02 7.274398e-02 7.333894e-02 7.283790e-02 7.127263e-02 6.873497e-02 6.536576e-02 6.132730e-02 5.678429e-02 5.191447e-02 4.688618e-02 4.186191e-02 3.697598e-02 3.234277e-02 2.804332e-02 2.413299e-02 2.063784e-02 1.756176e-02 1.488942e-02 1.259245e-02 1.063462e-02 8.976047e-03 7.577408e-03 6.400266e-03 5.410892e-03 4.580387e-03 3.885195e-03 3.306072e-03 2.828045e-03 2.439304e-03 2.131014e-03 1.896481e-03 1.731030e-03 1.631539e-03 
1.866018e-03 1.898738e-03 2.004121e-03 2.183692e-03 2.440516e-03 2.779354e-03 3.206904e-03 3.732286e-03 4.367490e-03 5.128188e-03 6.034238e-03 7.110708e-03 8.388019e-03 9.902935e-03 1.169734e-02 1.381514e-02 1.630080e-02 1.919758e-02 2.254060e-02 2.635427e-02 3.064287e-02 3.538935e-02 4.054554e-02 4.603489e-02 5.174473e-02 5.753317e-02 6.322612e-02 6.862458e-02 7.351234e-02 7.766612e-02 8.087450e-02 8.292599e-02 8.367877e-02 8.306882e-02 8.114183e-02 7.803047e-02 7.393666e-02 6.908284e-02 6.368721e-02 5.797618e-02 5.215091e-02 4.639762e-02 4.086149e-02 3.566178e-02 3.087632e-02 2.655475e-02 2.271411e-02 1.934916e-02 1.643511e-02 1.393525e-02 1.180601e-02 1.000161e-02 8.478045e-03 7.192559e-03 6.108417e-03 5.194689e-03 4.426490e-03 3.783701e-03 3.250844e-03 2.815787e-03 2.469555e-03 2.205361e-03 2.018522e-03 1.905915e-03 
2.253364e-03 2.291146e-03 2.413387e-03 2.621554e-03 2.918734e-03 3.309745e-03 3.801444e-03 4.403231e-03 5.127578e-03 5.990954e-03 7.014445e-03 8.225013e-03 9.655773e-03 1.134738e-02 1.334738e-02 1.570602e-02 1.847523e-02 2.170739e-02 2.544781e-02 2.973206e-02 3.457513e-02 3.996991e-02 4.587487e-02 5.221676e-02 5.887886e-02 6.570829e-02 7.250765e-02 7.904054e-02 8.503624e-02 9.019244e-02 9.422195e-02 9.682499e-02 9.779546e-02 9.703765e-02 9.461837e-02 9.072896e-02 8.565737e-02 7.970321e-02 7.316191e-02 6.632259e-02 5.942753e-02 5.269425e-02 4.628076e-02 4.031279e-02 3.486411e-02 2.997728e-02 2.565838e-02 2.189061e-02 1.863740e-02 1.585125e-02 1.347914e-02 1.146746e-02 9.765792e-03 8.325451e-03 7.105793e-03 6.073105e-03 5.200643e-03 4.467033e-03 3.856049e-03 3.355071e-03 2.954884e-03 2.648541e-03 2.431325e-03 2.300086e-03 
2.768660e-03 2.813017e-03 2.957264e-03 3.202805e-03 3.552780e-03 4.012121e-03 4.587944e-03 5.290065e-03 6.131654e-03 7.130268e-03 8.308634e-03 9.696157e-03 1.132936e-02 1.325372e-02 1.552331e-02 1.819662e-02 2.133413e-02 2.499865e-02 2.924650e-02 3.412540e-02 3.966103e-02 4.585637e-02 5.267568e-02 6.004890e-02 6.785544e-02 7.593300e-02 8.406340e-02 9.197350e-02 9.933422e-02 1.057480e-01 1.108179e-01 1.141265e-01 1.153768e-01 1.144309e-01 1.113849e-01 1.065133e-01 1.002158e-01 9.290312e-02 8.496476e-02 7.676010e-02 6.857539e-02 6.066043e-02 5.318460e-02 4.627966e-02 4.001411e-02 3.442351e-02 2.950222e-02 2.522161e-02 2.153226e-02 1.837495e-02 1.568599e-02 1.340277e-02 1.146660e-02 9.821976e-03 8.423454e-03 7.233817e-03 6.223944e-03 5.370784e-03 4.657101e-03 4.069565e-03 3.598610e-03 3.237022e-03 2.980004e-03 2.824348e-03 
3.424801e-03 3.477301e-03 3.648952e-03 3.941090e-03 4.356970e-03 4.901714e-03 5.582851e-03 6.410807e-03 7.399738e-03 8.568684e-03 9.942503e-03 1.155370e-02 1.344292e-02 1.566127e-02 1.826990e-02 2.133744e-02 2.493356e-02 2.913168e-02 3.399901e-02 3.959426e-02 4.595232e-02 5.308336e-02 6.095436e-02 6.949576e-02 7.858064e-02 8.804073e-02 9.763977e-02 1.070781e-01 1.159729e-01 1.238217e-01 1.300952e-01 1.342381e-01 1.358250e-01 1.346549e-01 1.308729e-01 1.248682e-01 1.171721e-01 1.083295e-01 9.883194e-02 8.910929e-02 7.948614e-02 7.024674e-02 6.156806e-02 5.358867e-02 4.637276e-02 3.995037e-02 3.430670e-02 2.940233e-02 2.517636e-02 2.155789e-02 1.847255e-02 1.584818e-02 1.361589e-02 1.171290e-02 1.008819e-02 8.700344e-03 7.517243e-03 6.513673e-03 5.671020e-03 4.974964e-03 4.415402e-03 3.984705e-03 3.677928e-03 3.491734e-03 
4.237139e-03 4.299404e-03 4.504125e-03 4.852575e-03 5.348200e-03 5.996420e-03 6.805379e-03 7.786369e-03 8.954931e-03 1.033205e-02 1.194536e-02 1.383115e-02 1.603491e-02 1.861405e-02 2.163707e-02 2.518368e-02 2.933260e-02 3.416698e-02 3.976250e-02 4.618616e-02 5.347692e-02 6.164760e-02 7.066076e-02 8.044301e-02 9.085893e-02 1.017390e-01 1.128455e-01 1.238763e-01 1.344155e-01 1.438500e-01 1.514944e-01 1.566064e-01 1.585928e-01 1.571590e-01 1.525234e-01 1.452285e-01 1.359807e-01 1.254861e-01 1.143446e-01 1.030429e-01 9.192859e-02 8.130825e-02 7.135795e-02 6.222127e-02 5.395888e-02 4.660068e-02 4.012718e-02 3.449326e-02 2.962979e-02 2.545681e-02 2.189057e-02 1.884954e-02 1.625393e-02 1.403337e-02 1.213081e-02 1.049986e-02 9.104797e-03 7.917597e-03 6.917841e-03 6.089818e-03 5.422660e-03 4.908119e-03 4.541000e-03 4.317761e-03 
5.223363e-03 5.297089e-03 5.540883e-03 5.955948e-03 6.546025e-03 7.316963e-03 8.277789e-03 9.441023e-03 1.082411e-02 1.245067e-02 1.435189e-02 1.656883e-02 1.915266e-02 2.216778e-02 2.568968e-02 2.980924e-02 3.461431e-02 4.019575e-02 4.663475e-02 5.400159e-02 6.233467e-02 7.164070e-02 8.187044e-02 9.293633e-02 1.046847e-01 1.169482e-01 1.294837e-01 1.420197e-01 1.541414e-01 1.651404e-01 1.741900e-01 1.803260e-01 1.827475e-01 1.810264e-01 1.754890e-01 1.668670e-01 1.560780e-01 1.439846e-01 1.312690e-01 1.184462e-01 1.058659e-01 9.386689e-02 8.261525e-02 7.226139e-02 6.286981e-02 5.447531e-02 4.706350e-02 4.058840e-02 3.497883e-02 3.014889e-02 2.600806e-02 2.246551e-02 1.943061e-02 1.682598e-02 1.458791e-02 1.266427e-02 1.101480e-02 9.607897e-03 8.420672e-03 7.435509e-03 6.640430e-03 6.026298e-03 5.587542e-03 5.320299e-03 
6.403223e-03 6.490187e-03 6.779430e-03 7.272075e-03 7.972257e-03 8.886398e-03 1.002475e-02 1.140148e-02 1.303667e-02 1.495739e-02 1.719956e-02 1.981003e-02 2.284683e-02 2.638194e-02 3.049817e-02 3.529350e-02 4.086627e-02 4.731212e-02 5.471293e-02 6.313781e-02 7.261624e-02 8.314270e-02 9.464144e-02 1.069989e-01 1.200278e-01 1.335522e-01 1.473451e-01 1.612144e-01 1.748057e-01 1.873164e-01 1.977587e-01 2.049462e-01 2.078267e-01 2.058011e-01 1.993353e-01 1.893857e-01 1.770925e-01 1.634895e-01 1.493388e-01 1.351398e-01 1.212147e-01 1.079127e-01 9.538224e-02 8.378590e-02 7.319953e-02 6.367745e-02 5.521950e-02 4.778835e-02 4.131705e-02 3.571891e-02 3.090029e-02 2.675958e-02 2.320002e-02 2.013688e-02 1.749936e-02 1.522844e-02 1.327833e-02 1.161266e-02 1.020529e-02 9.035955e-03 8.091172e-03 7.360562e-03 6.838043e-03 6.519313e-03 
7.798307e-03 7.900417e-03 8.241997e-03 8.824020e-03 9.651124e-03 1.073043e-02 1.207379e-02 1.369762e-02 1.562551e-02 1.788924e-02 2.053084e-02 2.360478e-02 2.717719e-02 3.132910e-02 3.615017e-02 4.174352e-02 4.821441e-02 5.566351e-02 6.417084e-02 7.379994e-02 8.457149e-02 9.645763e-02 1.093535e-01 1.230935e-01 1.374341e-01 1.521811e-01 1.670429e-01 1.819309e-01 1.966128e-01 2.102414e-01 2.217838e-01 2.298666e-01 2.331648e-01 2.308562e-01 2.235904e-01 2.125676e-01 1.991380e-01 1.844162e-01 1.691476e-01 1.537536e-01 1.385316e-01 1.239302e-01 1.100691e-01 9.712860e-02 8.522459e-02 7.443391e-02 6.478630e-02 5.625445e-02 4.878182e-02 4.228338e-02 3.666256e-02 3.181053e-02 2.762687e-02 2.402002e-02 2.091074e-02 1.823183e-02 1.593016e-02 1.396320e-02 1.230030e-02 1.091765e-02 9.799674e-03 8.934354e-03 8.314964e-03 7.936633e-03 
9.431610e-03 9.550955e-03 9.952406e-03 1.063669e-02 1.160898e-02 1.287718e-02 1.445520e-02 1.636232e-02 1.862691e-02 2.128696e-02 2.439281e-02 2.800864e-02 3.221122e-02 3.709196e-02 4.274873e-02 4.928933e-02 5.681714e-02 6.543963e-02 7.523322e-02 8.625782e-02 9.852179e-02 1.119794e-01 1.264735e-01 1.417699e-01 1.575119e-01 1.734167e-01 1.891421e-01 2.047619e-01 2.202739e-01 2.347319e-01 2.470082e-01 2.556809e-01 2.592583e-01 2.567626e-01 2.489738e-01 2.372264e-01 2.229614e-01 2.073787e-01 1.912414e-01 1.748390e-01 1.584258e-01 1.425105e-01 1.271985e-01 1.127399e-01 9.931517e-02 8.705303e-02 7.601858e-02 6.619920e-02 5.754930e-02 4.998593e-02 4.340813e-02 3.770896e-02 3.278475e-02 2.853573e-02 2.487284e-02 2.171808e-02 1.900886e-02 1.669417e-02 1.473735e-02 1.310972e-02 1.179301e-02 1.077306e-02 1.004242e-02 9.595562e-03 
1.132676e-02 1.146571e-02 1.193553e-02 1.273643e-02 1.387412e-02 1.535723e-02 1.720222e-02 1.943198e-02 2.208124e-02 2.519643e-02 2.883902e-02 3.308656e-02 3.802949e-02 4.377361e-02 5.042615e-02 5.810295e-02 6.690505e-02 7.693500e-02 8.827030e-02 1.009765e-01 1.150612e-01 1.304520e-01 1.469596e-01 1.641967e-01 1.817150e-01 1.991881e-01 2.158750e-01 2.318824e-01 2.475089e-01 2.618135e-01 2.739940e-01 2.827912e-01 2.865071e-01 2.839123e-01 2.759927e-01 2.642634e-01 2.501452e-01 2.345563e-01 2.179892e-01 2.005126e-01 1.825284e-01 1.649694e-01 1.478519e-01 1.314536e-01 1.161315e-01 1.020494e-01 8.932394e-02 7.794678e-02 6.787364e-02 5.901701e-02 5.128392e-02 4.456926e-02 3.876281e-02 3.375539e-02 2.944394e-02 2.573651e-02 2.255723e-02 1.984366e-02 1.755082e-02 1.564351e-02 1.409994e-02 1.290330e-02 1.204542e-02 1.152008e-02 
1.350706e-02 1.366845e-02 1.421643e-02 1.515040e-02 1.647639e-02 1.820362e-02 2.035150e-02 2.294751e-02 2.603486e-02 2.967130e-02 3.393383e-02 3.891808e-02 4.473397e-02 5.150606e-02 5.935612e-02 6.840957e-02 7.877025e-02 9.053817e-02 1.037866e-01 1.185756e-01 1.349273e-01 1.527595e-01 1.717965e-01 1.915091e-01 2.111341e-01 2.300779e-01 2.475664e-01 2.639345e-01 2.800205e-01 2.943389e-01 3.056547e-01 3.134323e-01 3.166627e-01 3.144197e-01 3.074384e-01 2.966078e-01 2.827254e-01 2.667601e-01 2.495952e-01 2.312283e-01 2.119565e-01 1.925700e-01 1.731309e-01 1.542481e-01 1.364880e-01 1.201001e-01 1.052536e-01 9.191954e-02 8.007211e-02 6.962164e-02 6.047902e-02 5.253552e-02 4.567228e-02 3.976557e-02 3.469371e-02 3.034470e-02 2.662453e-02 2.345466e-02 2.077882e-02 1.855300e-02 1.675092e-02 1.535258e-02 1.434921e-02 1.373400e-02 
1.599352e-02 1.618080e-02 1.681865e-02 1.790498e-02 1.944589e-02 2.145060e-02 2.394205e-02 2.695327e-02 3.053876e-02 3.477162e-02 3.975016e-02 4.559544e-02 5.244361e-02 6.044673e-02 6.974406e-02 8.047933e-02 9.275648e-02 1.066864e-01 1.223352e-01 1.397721e-01 1.589953e-01 1.798859e-01 2.021276e-01 2.245981e-01 2.468098e-01 2.686665e-01 2.882203e-01 3.044656e-01 3.188139e-01 3.305782e-01 3.391198e-01 3.444648e-01 3.465205e-01 3.451052e-01 3.403003e-01 3.321814e-01 3.209531e-01 3.069597e-01 2.902545e-01 2.702593e-01 2.482553e-01 2.263400e-01 2.042203e-01 1.821233e-01 1.612636e-01 1.419416e-01 1.243776e-01 1.085741e-01 9.450922e-02 8.209041e-02 7.121747e-02 6.178071e-02 5.364424e-02 4.666759e-02 4.070141e-02 3.560701e-02 3.126442e-02 2.757308e-02 2.446112e-02 2.187274e-02 1.977604e-02 1.814716e-02 1.697718e-02 1.625889e-02 
1.880313e-02 1.902069e-02 1.976259e-02 2.102456e-02 2.281199e-02 2.513345e-02 2.801571e-02 3.149870e-02 3.565185e-02 4.056901e-02 4.637802e-02 5.323447e-02 6.131117e-02 7.079516e-02 8.185061e-02 9.463935e-02 1.092743e-01 1.258724e-01 1.445144e-01 1.652518e-01 1.880517e-01 2.126061e-01 2.385782e-01 2.649431e-01 2.893692e-01 3.100248e-01 3.254477e-01 3.356849e-01 3.424322e-01 3.468338e-01 3.495032e-01 3.509048e-01 3.513867e-01 3.510152e-01 3.496735e-01 3.470926e-01 3.429972e-01 3.366056e-01 3.266289e-01 3.118977e-01 2.918498e-01 2.680334e-01 2.418662e-01 2.159103e-01 1.912954e-01 1.682873e-01 1.473166e-01 1.284126e-01 1.115996e-01 9.675723e-02 8.376803e-02 7.251398e-02 6.284073e-02 5.458528e-02 4.756352e-02 4.159971e-02 3.653906e-02 3.225032e-02 2.864064e-02 2.563842e-02 2.320473e-02 2.131127e-02 1.994956e-02 1.911251e-02 
2.194536e-02 2.219881e-02 2.306236e-02 2.452824e-02 2.660030e-02 2.928498e-02 3.261341e-02 3.663350e-02 4.143450e-02 4.713745e-02 5.391006e-02 6.195365e-02 7.148731e-02 8.274193e-02 9.590277e-02 1.111575e-01 1.286144e-01 1.484312e-01 1.706812e-01 1.954452e-01 2.224247e-01 2.512038e-01 2.804171e-01 3.057685e-01 3.224418e-01 3.312996e-01 3.341170e-01 3.332361e-01 3.308062e-01 3.286357e-01 3.274388e-01 3.269013e-01 3.266559e-01 3.266780e-01 3.269342e-01 3.278186e-01 3.298430e-01 3.323038e-01 3.335312e-01 3.316067e-01 3.239539e-01 3.088010e-01 2.845127e-01 2.556944e-01 2.266970e-01 1.994773e-01 1.743767e-01 1.517364e-01 1.316201e-01 1.138890e-01 9.836630e-02 8.493771e-02 7.342379e-02 6.364662e-02 5.537924e-02 4.840082e-02 4.251061e-02 3.753641e-02 3.335766e-02 2.988173e-02 2.706131e-02 2.486289e-02 2.327960e-02 2.230515e-02 
2.542018e-02 2.571673e-02 2.672361e-02 2.842814e-02 3.083099e-02 3.393474e-02 3.777480e-02 4.240865e-02 4.795079e-02 5.455783e-02 6.244930e-02 7.188445e-02 8.313762e-02 9.648472e-02 1.121265e-01 1.302655e-01 1.510225e-01 1.746012e-01 2.011272e-01 2.305914e-01 2.621761e-01 2.929324e-01 3.159401e-01 3.263745e-01 3.259244e-01 3.189052e-01 3.106783e-01 3.055980e-01 3.025282e-01 3.008555e-01 3.000234e-01 2.994808e-01 2.992009e-01 2.991490e-01 2.993565e-01 2.999523e-01 3.015326e-01 3.042536e-01 3.093139e-01 3.176317e-01 3.251668e-01 3.269046e-01 3.184022e-01 2.973793e-01 2.672758e-01 2.356480e-01 2.057683e-01 1.787067e-01 1.547390e-01 1.336715e-01 1.152125e-01 9.924141e-02 8.556093e-02 7.398867e-02 6.425797e-02 5.609582e-02 4.924604e-02 4.348333e-02 3.865166e-02 3.463128e-02 3.136479e-02 2.881298e-02 2.697211e-02 2.583789e-02 
2.921399e-02 2.956280e-02 3.073981e-02 3.272523e-02 3.551463e-02 3.910367e-02 4.353206e-02 4.886723e-02 5.525601e-02 6.289780e-02 7.207809e-02 8.312192e-02 9.636282e-02 1.121118e-01 1.305590e-01 1.519237e-01 1.763315e-01 2.041003e-01 2.353209e-01 2.694136e-01 3.014741e-01 3.214087e-01 3.248286e-01 3.158405e-01 3.019480e-01 2.898407e-01 2.815469e-01 2.771641e-01 2.744734e-01 2.730238e-01 2.724913e-01 2.721992e-01 2.720126e-01 2.718544e-01 2.718328e-01 2.721492e-01 2.734984e-01 2.760662e-01 2.808612e-01 2.890961e-01 3.004027e-01 3.139718e-01 3.241044e-01 3.231120e-01 3.058064e-01 2.751053e-01 2.408063e-01 2.089486e-01 1.807714e-01 1.560565e-01 1.343435e-01 1.155170e-01 9.935766e-02 8.571211e-02 7.428524e-02 6.475323e-02 5.679891e-02 5.013092e-02 4.455077e-02 3.990395e-02 3.612211e-02 3.315971e-02 3.101866e-02 2.969818e-02 
3.329900e-02 3.371147e-02 3.509102e-02 3.740828e-02 4.065055e-02 4.480293e-02 4.990817e-02 5.604410e-02 6.339590e-02 7.221420e-02 8.286143e-02 9.573514e-02 1.112194e-01 1.296405e-01 1.511408e-01 1.759526e-01 2.042658e-01 2.365059e-01 2.721538e-01 3.057163e-01 3.243866e-01 3.222068e-01 3.069358e-01 2.889908e-01 2.733870e-01 2.611840e-01 2.531023e-01 2.489729e-01 2.469221e-01 2.461494e-01 2.460430e-01 2.460401e-01 2.459720e-01 2.457494e-01 2.455163e-01 2.454789e-01 2.462606e-01 2.483272e-01 2.527453e-01 2.606774e-01 2.721060e-01 2.868731e-01 3.043333e-01 3.204430e-01 3.254025e-01 3.102275e-01 2.780328e-01 2.420118e-01 2.093693e-01 1.808052e-01 1.556510e-01 1.337534e-01 1.148646e-01 9.888803e-02 8.553224e-02 7.443349e-02 6.521629e-02 5.751268e-02 5.107528e-02 4.570763e-02 4.132955e-02 3.788940e-02 3.539772e-02 3.385971e-02 
3.763054e-02 3.812062e-02 3.974163e-02 4.245096e-02 4.622382e-02 5.102924e-02 5.691147e-02 6.395627e-02 7.239445e-02 8.252944e-02 9.481384e-02 1.097061e-01 1.276316e-01 1.488828e-01 1.735125e-01 2.017966e-01 2.340330e-01 2.706663e-01 3.061636e-01 3.262057e-01 3.213616e-01 3.021617e-01 2.807329e-01 2.616991e-01 2.460357e-01 2.344006e-01 2.267687e-01 2.226753e-01 2.207045e-01 2.200654e-01 2.200812e-01 2.202143e-01 2.202221e-01 2.200022e-01 2.197084e-01 2.196038e-01 2.202776e-01 2.223036e-01 2.265720e-01 2.340337e-01 2.449982e-01 2.598052e-01 2.780703e-01 2.989131e-01 3.188297e-01 3.269980e-01 3.109357e-01 2.768820e-01 2.401201e-01 2.075147e-01 1.788053e-01 1.537619e-01 1.319927e-01 1.134887e-01 9.800302e-02 8.514841e-02 7.451062e-02 6.563422e-02 5.822306e-02 5.203012e-02 4.696530e-02 4.297093e-02 4.007089e-02 3.827926e-02 
4.214890e-02 4.273326e-02 4.464124e-02 4.781218e-02 5.220386e-02 5.776274e-02 6.453125e-02 7.259939e-02 8.224729e-02 9.383040e-02 1.078951e-01 1.249474e-01 1.454243e-01 1.695561e-01 1.972368e-01 2.288830e-01 2.652049e-01 3.028573e-01 3.270575e-01 3.233422e-01 3.018005e-01 2.775977e-01 2.553936e-01 2.364780e-01 2.212561e-01 2.099584e-01 2.024497e-01 1.982152e-01 1.961609e-01 1.955045e-01 1.955159e-01 1.956910e-01 1.957399e-01 1.955615e-01 1.952984e-01 1.952422e-01 1.959386e-01 1.980163e-01 2.022778e-01 2.095461e-01 2.202667e-01 2.347252e-01 2.528546e-01 2.742425e-01 2.980668e-01 3.205771e-01 3.284770e-01 3.083956e-01 2.719697e-01 2.353381e-01 2.032418e-01 1.751905e-01 1.505559e-01 1.294238e-01 1.116605e-01 9.688329e-02 8.467277e-02 7.448410e-02 6.597578e-02 5.884462e-02 5.299332e-02 4.835949e-02 4.498590e-02 4.289955e-02 
4.677821e-02 4.747733e-02 4.972513e-02 5.343577e-02 5.854380e-02 6.496468e-02 7.273582e-02 8.194284e-02 9.292004e-02 1.060571e-01 1.220066e-01 1.412655e-01 1.643052e-01 1.911929e-01 2.216746e-01 2.563683e-01 2.951344e-01 3.256860e-01 3.282326e-01 3.062818e-01 2.797979e-01 2.548760e-01 2.329629e-01 2.143359e-01 1.994519e-01 1.883539e-01 1.807574e-01 1.761606e-01 1.736956e-01 1.726719e-01 1.724101e-01 1.724416e-01 1.724602e-01 1.723708e-01 1.722931e-01 1.725272e-01 1.735614e-01 1.759990e-01 1.805191e-01 1.878321e-01 1.984051e-01 2.125914e-01 2.304696e-01 2.516465e-01 2.759786e-01 3.021910e-01 3.258185e-01 3.285286e-01 3.016132e-01 2.634412e-01 2.281803e-01 1.974816e-01 1.701709e-01 1.464305e-01 1.263509e-01 1.095342e-01 9.563329e-02 8.400380e-02 7.427897e-02 6.609551e-02 5.935311e-02 5.398926e-02 5.007084e-02 4.764452e-02 
5.142995e-02 5.226826e-02 5.490991e-02 5.923963e-02 6.516050e-02 7.255008e-02 8.143117e-02 9.187790e-02 1.042694e-01 1.190163e-01 1.368623e-01 1.582646e-01 1.837041e-01 2.131206e-01 2.458324e-01 2.836128e-01 3.196475e-01 3.336949e-01 3.155567e-01 2.871993e-01 2.600843e-01 2.354454e-01 2.138445e-01 1.956274e-01 1.809425e-01 1.697780e-01 1.618339e-01 1.566797e-01 1.536232e-01 1.520677e-01 1.513969e-01 1.511861e-01 1.511313e-01 1.511496e-01 1.513342e-01 1.519750e-01 1.535024e-01 1.564729e-01 1.614651e-01 1.690829e-01 1.797447e-01 1.937837e-01 2.112907e-01 2.321727e-01 2.561880e-01 2.828525e-01 3.111069e-01 3.325597e-01 3.244051e-01 2.908503e-01 2.529536e-01 2.200256e-01 1.903205e-01 1.641033e-01 1.417447e-01 1.228572e-01 1.071984e-01 9.404396e-02 8.300689e-02 7.367332e-02 6.594373e-02 5.976449e-02 5.523291e-02 5.242374e-02 
5.600466e-02 5.700536e-02 6.009218e-02 6.511568e-02 7.193869e-02 8.039331e-02 9.047534e-02 1.022363e-01 1.160838e-01 1.324237e-01 1.520784e-01 1.753953e-01 2.029818e-01 2.343949e-01 2.693008e-01 3.080977e-01 3.347568e-01 3.282177e-01 2.994024e-01 2.705798e-01 2.436409e-01 2.196078e-01 1.984798e-01 1.805377e-01 1.658424e-01 1.543671e-01 1.458544e-01 1.399582e-01 1.361290e-01 1.338692e-01 1.326472e-01 1.320898e-01 1.319172e-01 1.320613e-01 1.325894e-01 1.337650e-01 1.359554e-01 1.396505e-01 1.453288e-01 1.534910e-01 1.644828e-01 1.785767e-01 1.958736e-01 2.163220e-01 2.398178e-01 2.661766e-01 2.947871e-01 3.243543e-01 3.365318e-01 3.145340e-01 2.767487e-01 2.415081e-01 2.101483e-01 1.817032e-01 1.573143e-01 1.364575e-01 1.190806e-01 1.043850e-01 9.198487e-02 8.143210e-02 7.263781e-02 6.557047e-02 6.036561e-02 5.713580e-02 
6.039707e-02 6.158072e-02 6.515564e-02 7.093427e-02 7.873040e-02 8.832384e-02 9.966804e-02 1.127793e-01 1.280691e-01 1.459055e-01 1.671705e-01 1.919938e-01 2.212864e-01 2.537473e-01 2.911009e-01 3.271457e-01 3.395936e-01 3.172526e-01 2.863028e-01 2.576075e-01 2.314503e-01 2.078857e-01 1.870940e-01 1.691644e-01 1.541829e-01 1.421407e-01 1.328625e-01 1.260877e-01 1.213858e-01 1.183460e-01 1.165152e-01 1.155702e-01 1.152611e-01 1.155339e-01 1.164348e-01 1.181968e-01 1.211309e-01 1.256614e-01 1.321806e-01 1.410957e-01 1.526648e-01 1.670817e-01 1.843989e-01 2.045500e-01 2.275778e-01 2.531537e-01 2.816673e-01 3.120696e-01 3.381184e-01 3.321263e-01 2.987659e-01 2.614886e-01 2.289826e-01 1.986256e-01 1.725019e-01 1.498983e-01 1.309291e-01 1.147531e-01 1.009897e-01 8.918858e-02 7.928006e-02 7.127393e-02 6.535088e-02 6.167215e-02 
6.450040e-02 6.588197e-02 6.997320e-02 7.654645e-02 8.535815e-02 9.613316e-02 1.087643e-01 1.232298e-01 1.399057e-01 1.591306e-01 1.817654e-01 2.078031e-01 2.382416e-01 2.713365e-01 3.100958e-01 3.400643e-01 3.372302e-01 3.069725e-01 2.772401e-01 2.489514e-01 2.235111e-01 2.002539e-01 1.795131e-01 1.612980e-01 1.457597e-01 1.329415e-01 1.227493e-01 1.150022e-01 1.093645e-01 1.055000e-01 1.030279e-01 1.016714e-01 1.012150e-01 1.016178e-01 1.029099e-01 1.052907e-01 1.090222e-01 1.144661e-01 1.219414e-01 1.317739e-01 1.441395e-01 1.591503e-01 1.767796e-01 1.969104e-01 2.195641e-01 2.444294e-01 2.721896e-01 3.014187e-01 3.332627e-01 3.427955e-01 3.175806e-01 2.798680e-01 2.460140e-01 2.143109e-01 1.867372e-01 1.627381e-01 1.423662e-01 1.248420e-01 1.097648e-01 9.673074e-02 8.569406e-02 7.672817e-02 7.006405e-02 6.592186e-02 
6.820858e-02 6.979476e-02 7.440853e-02 8.178241e-02 9.160996e-02 1.035619e-01 1.174539e-01 1.332308e-01 1.511920e-01 1.716867e-01 1.954498e-01 2.225611e-01 2.536579e-01 2.875008e-01 3.255022e-01 3.472701e-01 3.327366e-01 3.007431e-01 2.721132e-01 2.446017e-01 2.195475e-01 1.963377e-01 1.753117e-01 1.565389e-01 1.402237e-01 1.264842e-01 1.152952e-01 1.065443e-01 9.996975e-02 9.529479e-02 9.219875e-02 9.044297e-02 8.984427e-02 9.037097e-02 9.204348e-02 9.503115e-02 9.955716e-02 1.059312e-01 1.144139e-01 1.252670e-01 1.385935e-01 1.544385e-01 1.726771e-01 1.931430e-01 2.157253e-01 2.401996e-01 2.669672e-01 2.954378e-01 3.276114e-01 3.478623e-01 3.320014e-01 2.955522e-01 2.603205e-01 2.280312e-01 1.994326e-01 1.744813e-01 1.529682e-01 1.342904e-01 1.180058e-01 1.038067e-01 9.167544e-02 8.176946e-02 7.437292e-02 6.977252e-02 
7.142116e-02 7.320593e-02 7.831928e-02 8.645653e-02 9.724670e-02 1.103113e-01 1.253778e-01 1.423666e-01 1.614694e-01 1.830843e-01 2.077584e-01 2.358156e-01 2.673493e-01 3.020831e-01 3.377976e-01 3.508376e-01 3.289614e-01 2.982102e-01 2.702273e-01 2.435343e-01 2.186010e-01 1.952303e-01 1.736827e-01 1.541892e-01 1.369886e-01 1.222853e-01 1.101031e-01 1.003876e-01 9.293106e-02 8.750310e-02 8.383160e-02 8.170872e-02 8.098014e-02 8.162098e-02 8.364630e-02 8.719948e-02 9.247444e-02 9.973869e-02 1.092096e-01 1.211019e-01 1.354606e-01 1.522843e-01 1.713487e-01 1.924533e-01 2.152876e-01 2.397244e-01 2.657163e-01 2.935611e-01 3.236601e-01 3.494101e-01 3.428343e-01 3.089400e-01 2.725291e-01 2.398706e-01 2.105107e-01 1.848643e-01 1.624245e-01 1.427735e-01 1.254160e-01 1.101596e-01 9.701495e-02 8.623245e-02 7.814818e-02 7.311743e-02 
7.404425e-02 7.600802e-02 8.156473e-02 9.037761e-02 1.020157e-01 1.160581e-01 1.321449e-01 1.501777e-01 1.702339e-01 1.927706e-01 2.181535e-01 2.469567e-01 2.788476e-01 3.142584e-01 3.470569e-01 3.523066e-01 3.265354e-01 2.977218e-01 2.703422e-01 2.444020e-01 2.194727e-01 1.958626e-01 1.737167e-01 1.534862e-01 1.354222e-01 1.198225e-01 1.067417e-01 9.617370e-02 8.794891e-02 8.187235e-02 7.770877e-02 7.527377e-02 7.443613e-02 7.517527e-02 7.750436e-02 8.154686e-02 8.747579e-02 9.552768e-02 1.058884e-01 1.187416e-01 1.340869e-01 1.518965e-01 1.718525e-01 1.937380e-01 2.170277e-01 2.416665e-01 2.671672e-01 2.943048e-01 3.222048e-01 3.498512e-01 3.503777e-01 3.196018e-01 2.826905e-01 2.496682e-01 2.197424e-01 1.935382e-01 1.703658e-01 1.499208e-01 1.316652e-01 1.155083e-01 1.014887e-01 8.994503e-02 8.126067e-02 7.585445e-02 
7.599558e-02 7.810207e-02 8.400985e-02 9.335704e-02 1.056632e-01 1.204747e-01 1.373566e-01 1.561960e-01 1.769711e-01 2.001854e-01 2.260665e-01 2.553469e-01 2.874525e-01 3.230703e-01 3.533018e-01 3.531667e-01 3.258918e-01 2.985933e-01 2.716659e-01 2.461645e-01 2.211036e-01 1.972127e-01 1.745046e-01 1.536384e-01 1.348526e-01 1.185282e-01 1.047326e-01 9.349726e-02 8.467625e-02 7.809989e-02 7.355877e-02 7.088510e-02 6.996493e-02 7.078042e-02 7.334450e-02 7.776625e-02 8.420481e-02 9.287557e-02 1.039428e-01 1.175724e-01 1.337291e-01 1.523757e-01 1.731102e-01 1.957179e-01 2.194708e-01 2.443702e-01 2.695744e-01 2.960308e-01 3.224525e-01 3.504034e-01 3.555547e-01 3.275264e-01 2.905681e-01 2.571672e-01 2.268269e-01 2.001641e-01 1.764390e-01 1.553871e-01 1.364432e-01 1.195897e-01 1.048887e-01 9.275011e-02 8.359520e-02 7.789454e-02 
7.720548e-02 7.940557e-02 8.554118e-02 9.523436e-02 1.079722e-01 1.232797e-01 1.406721e-01 1.600263e-01 1.812573e-01 2.048940e-01 2.310934e-01 2.606470e-01 2.929109e-01 3.284604e-01 3.568915e-01 3.536209e-01 3.259347e-01 2.994726e-01 2.728917e-01 2.476404e-01 2.224727e-01 1.983863e-01 1.752981e-01 1.540139e-01 1.347554e-01 1.179621e-01 1.037059e-01 9.204292e-02 8.284109e-02 7.594641e-02 7.116541e-02 6.834052e-02 6.736859e-02 6.823302e-02 7.094737e-02 7.561201e-02 8.237784e-02 9.144754e-02 1.029723e-01 1.171079e-01 1.337969e-01 1.529982e-01 1.742521e-01 1.973476e-01 2.214169e-01 2.464858e-01 2.714982e-01 2.974069e-01 3.229914e-01 3.506578e-01 3.585894e-01 3.325686e-01 2.957627e-01 2.620022e-01 2.313814e-01 2.043788e-01 1.802947e-01 1.588480e-01 1.394653e-01 1.221656e-01 1.070282e-01 9.450757e-02 8.505044e-02 7.916073e-02 
7.762073e-02 7.985318e-02 8.606826e-02 9.588210e-02 1.087704e-01 1.242504e-01 1.418200e-01 1.613519e-01 1.827403e-01 2.065216e-01 2.328340e-01 2.624789e-01 2.948096e-01 3.302969e-01 3.580336e-01 3.536581e-01 3.259297e-01 2.997849e-01 2.733679e-01 2.482137e-01 2.230039e-01 1.988448e-01 1.756169e-01 1.541842e-01 1.347589e-01 1.178027e-01 1.033873e-01 9.157759e-02 8.224533e-02 7.524179e-02 7.037883e-02 6.750221e-02 6.651263e-02 6.739393e-02 7.015991e-02 7.490784e-02 8.178599e-02 9.099282e-02 1.026751e-01 1.169862e-01 1.338604e-01 1.532578e-01 1.746969e-01 1.979717e-01 2.221621e-01 2.473079e-01 2.722746e-01 2.980097e-01 3.233561e-01 3.508733e-01 3.596397e-01 3.342711e-01 2.975308e-01 2.636492e-01 2.329443e-01 2.058272e-01 1.816228e-01 1.600417e-01 1.405089e-01 1.230555e-01 1.077670e-01 9.511376e-02 8.555139e-02 7.959569e-02 
7.720548e-02 7.940557e-02 8.554118e-02 9.523436e-02 1.079722e-01 1.232797e-01 1.406721e-01 1.600263e-01 1.812573e-01 2.048940e-01 2.310934e-01 2.606470e-01 2.929109e-01 3.284604e-01 3.568915e-01 3.536209e-01 3.259347e-01 2.994726e-01 2.728917e-01 2.476404e-01 2.224727e-01 1.983863e-01 1.752981e-01 1.540139e-01 1.347554e-01 1.179621e-01 1.037059e-01 9.204292e-02 8.284109e-02 7.594641e-02 7.116541e-02 6.834052e-02 6.736859e-02 6.823302e-02 7.094737e-02 7.561201e-02 8.237784e-02 9.144754e-02 1.029723e-01 1.171079e-01 1.337969e-01 1.529982e-01 1.742521e-01 1.973476e-01 2.214169e-01 2.464858e-01 2.714982e-01 2.974069e-01 3.229914e-01 3.506578e-01 3.585894e-01 3.325686e-01 2.957627e-01 2.620022e-01 2.313814e-01 2.043788e-01 1.802947e-01 1.588480e-01 1.394653e-01 1.221656e-01 1.070282e-01 9.450757e-02 8.505044e-02 7.916073e-02 
7.599558e-02 7.810207e-02 8.400985e-02 9.335704e-02 1.056632e-01 1.204747e-01 1.373566e-01 1.561960e-01 1.769711e-01 2.001854e-01 2.260665e-01 2.553469e-01 2.874525e-01 3.230703e-01 3.533018e-01 3.531667e-01 3.258918e-01 2.985933e-01 2.716659e-01 2.461645e-01 2.211036e-01 1.972127e-01 1.745046e-01 1.536384e-01 1.348526e-01 1.185282e-01 1.047326e-01 9.349726e-02 8.467625e-02 7.809989e-02 7.355877e-02 7.088510e-02 6.996493e-02 7.078042e-02 7.334450e-02 7.776625e-02 8.420481e-02 9.287557e-02 1.039428e-01 1.175724e-01 1.337291e-01 1.523757e-01 1.731102e-01 1.957179e-01 2.194708e-01 2.443702e-01 2.695744e-01 2.960308e-01 3.224525e-01 3.504034e-01 3.555547e-01 3.275264e-01 2.905681e-01 2.571672e-01 2.268269e-01 2.001641e-01 1.764390e-01 1.553871e-01 1.364432e-01 1.195897e-01 1.048887e-01 9.275011e-02 8.359520e-02 7.789454e-02 