# vtk DataFile Version 2.0
Comment goes here
ASCII

DATASET STRUCTURED_POINTS
FIELD FieldData 1
TIME 1 1 double
1.70000000
DIMENSIONS    64   64   1

ORIGIN    0.000   0.000   0.000
SPACING   0.015625 0.015625   1.000

POINT_DATA   4096
SCALARS Concentration double
LOOKUP_TABLE default

1.268571e-02 1.277563e-02 1.311310e-02 1.371136e-02 1.459255e-02 1.578826e-02 1.733779e-02 1.928931e-02 2.169574e-02 2.461521e-02 2.810374e-02 3.221460e-02 3.698791e-02 4.244936e-02 4.859947e-02 5.541342e-02 6.283483e-02 7.077854e-02 7.913278e-02 8.776407e-02 9.652757e-02 1.052699e-01 1.138432e-01 1.221011e-01 1.299105e-01 1.371437e-01 1.436902e-01 1.494474e-01 1.543277e-01 1.582518e-01 1.611522e-01 1.629726e-01 1.636689e-01 1.632127e-01 1.616214e-01 1.589300e-01 1.551891e-01 1.504628e-01 1.448297e-01 1.383805e-01 1.312188e-01 1.234619e-01 1.152371e-01 1.066849e-01 9.794838e-02 8.918012e-02 8.052852e-02 7.214096e-02 6.414760e-02 5.666246e-02 4.977104e-02 4.353262e-02 3.797543e-02 3.310179e-02 2.889026e-02 2.530238e-02 2.228807e-02 1.979138e-02 1.775572e-02 1.612711e-02 1.485765e-02 1.390645e-02 1.324149e-02 1.283928e-02 
1.286297e-02 1.295241e-02 1.328923e-02 1.388673e-02 1.476708e-02 1.596199e-02 1.751095e-02 1.946240e-02 2.186961e-02 2.479127e-02 2.828416e-02 3.240245e-02 3.718753e-02 4.266639e-02 4.884124e-02 5.568879e-02 6.315445e-02 7.115436e-02 7.957815e-02 8.829294e-02 9.715445e-02 1.060090e-01 1.147081e-01 1.231049e-01 1.310638e-01 1.384524e-01 1.451553e-01 1.510642e-01 1.560845e-01 1.601300e-01 1.631255e-01 1.650083e-01 1.657291e-01 1.652575e-01 1.636123e-01 1.608329e-01 1.569763e-01 1.521139e-01 1.463321e-01 1.397283e-01 1.324123e-01 1.245065e-01 1.161425e-01 1.074639e-01 9.861413e-02 8.974642e-02 8.100922e-02 7.254970e-02 6.449723e-02 5.696479e-02 5.003654e-02 4.377027e-02 3.819266e-02 3.330455e-02 2.908317e-02 2.548885e-02 2.247055e-02 1.997154e-02 1.793463e-02 1.630542e-02 1.503570e-02 1.408438e-02 1.341929e-02 1.301687e-02 
1.339845e-02 1.348648e-02 1.382145e-02 1.441671e-02 1.529460e-02 1.648715e-02 1.803441e-02 1.998559e-02 2.239508e-02 2.532321e-02 2.882888e-02 3.296921e-02 3.778902e-02 4.331962e-02 4.956778e-02 5.651535e-02 6.411254e-02 7.228011e-02 8.091127e-02 8.987563e-02 9.902996e-02 1.082197e-01 1.172944e-01 1.261027e-01 1.345011e-01 1.423440e-01 1.495020e-01 1.558495e-01 1.612732e-01 1.656670e-01 1.689349e-01 1.709966e-01 1.717878e-01 1.712726e-01 1.694740e-01 1.664435e-01 1.622559e-01 1.570026e-01 1.507917e-01 1.437393e-01 1.359736e-01 1.276308e-01 1.188552e-01 1.097996e-01 1.006110e-01 9.144534e-02 8.245147e-02 7.377617e-02 6.554652e-02 5.787245e-02 5.083399e-02 4.448449e-02 3.884598e-02 3.391485e-02 2.966420e-02 2.605087e-02 2.302083e-02 2.051507e-02 1.847460e-02 1.684374e-02 1.557334e-02 1.462173e-02 1.395631e-02 1.355332e-02 
1.430357e-02 1.438924e-02 1.472113e-02 1.531275e-02 1.618662e-02 1.737522e-02 1.891946e-02 2.086988e-02 2.328264e-02 2.622065e-02 2.974635e-02 3.392149e-02 3.879669e-02 4.441009e-02 5.077631e-02 5.788529e-02 6.569562e-02 7.413518e-02 8.310362e-02 9.247399e-02 1.021050e-01 1.118399e-01 1.215242e-01 1.309976e-01 1.401038e-01 1.486772e-01 1.565661e-01 1.636189e-01 1.696925e-01 1.746499e-01 1.783599e-01 1.807129e-01 1.816189e-01 1.810339e-01 1.789863e-01 1.755483e-01 1.708249e-01 1.649409e-01 1.580398e-01 1.502673e-01 1.417794e-01 1.327346e-01 1.232961e-01 1.136305e-01 1.038921e-01 9.424202e-02 8.483061e-02 7.580414e-02 6.728621e-02 5.938181e-02 5.216429e-02 4.567974e-02 3.994253e-02 3.494177e-02 3.064383e-02 2.699980e-02 2.395083e-02 2.143415e-02 1.938785e-02 1.775420e-02 1.648255e-02 1.553030e-02 1.486418e-02 1.446013e-02 
1.559718e-02 1.567959e-02 1.600737e-02 1.659429e-02 1.746306e-02 1.864674e-02 2.018715e-02 2.213640e-02 2.455331e-02 2.750422e-02 3.105626e-02 3.527751e-02 4.022639e-02 4.595062e-02 5.247541e-02 5.980230e-02 6.790113e-02 7.671023e-02 8.613754e-02 9.606122e-02 1.063418e-01 1.168188e-01 1.273307e-01 1.377035e-01 1.477614e-01 1.573110e-01 1.661715e-01 1.741570e-01 1.810877e-01 1.867873e-01 1.910802e-01 1.938183e-01 1.948769e-01 1.942009e-01 1.918262e-01 1.878523e-01 1.824240e-01 1.757095e-01 1.678983e-01 1.591726e-01 1.497248e-01 1.397412e-01 1.294103e-01 1.189191e-01 1.084330e-01 9.812236e-02 8.814014e-02 7.863319e-02 6.972072e-02 6.150130e-02 5.403919e-02 4.737048e-02 4.149891e-02 3.640353e-02 3.204139e-02 2.835569e-02 2.528092e-02 2.274921e-02 2.069468e-02 1.905686e-02 1.778306e-02 1.682947e-02 1.616197e-02 1.575619e-02 
1.730505e-02 1.738333e-02 1.770618e-02 1.828773e-02 1.915093e-02 2.032939e-02 2.186589e-02 2.381424e-02 2.623600e-02 2.920204e-02 3.278533e-02 3.706163e-02 4.209917e-02 4.795749e-02 5.467549e-02 6.226910e-02 7.072303e-02 7.998823e-02 8.998370e-02 1.005927e-01 1.116778e-01 1.230717e-01 1.346028e-01 1.460766e-01 1.572946e-01 1.680286e-01 1.780654e-01 1.871818e-01 1.951571e-01 2.017702e-01 2.067872e-01 2.100086e-01 2.112595e-01 2.104721e-01 2.076893e-01 2.030490e-01 1.967510e-01 1.890216e-01 1.801078e-01 1.702320e-01 1.596263e-01 1.485067e-01 1.370907e-01 1.255885e-01 1.141813e-01 1.030531e-01 9.236214e-02 8.225741e-02 7.285373e-02 6.424223e-02 5.647603e-02 4.957867e-02 4.354054e-02 3.832795e-02 3.388624e-02 3.014865e-02 2.704142e-02 2.449035e-02 2.242469e-02 2.078060e-02 1.950286e-02 1.854641e-02 1.787618e-02 1.746753e-02 
1.945908e-02 1.953249e-02 1.985013e-02 2.042641e-02 2.128467e-02 2.245902e-02 2.399310e-02 2.594253e-02 2.837169e-02 3.135575e-02 3.497467e-02 3.931375e-02 4.445253e-02 5.046485e-02 5.740584e-02 6.530939e-02 7.417794e-02 8.397863e-02 9.464301e-02 1.060610e-01 1.180957e-01 1.305709e-01 1.433002e-01 1.560632e-01 1.686283e-01 1.807242e-01 1.920998e-01 2.024895e-01 2.116338e-01 2.192684e-01 2.250978e-01 2.288652e-01 2.303361e-01 2.294252e-01 2.261846e-01 2.207965e-01 2.135254e-01 2.046613e-01 1.945144e-01 1.833434e-01 1.714229e-01 1.590002e-01 1.463252e-01 1.336412e-01 1.211489e-01 1.090528e-01 9.751935e-02 8.670301e-02 7.671450e-02 6.763665e-02 5.950943e-02 5.234114e-02 4.610599e-02 4.075477e-02 3.621866e-02 3.241904e-02 2.927230e-02 2.669677e-02 2.461569e-02 2.296158e-02 2.167669e-02 2.071466e-02 2.003957e-02 1.962633e-02 
2.209577e-02 2.216368e-02 2.247647e-02 2.304880e-02 2.390419e-02 2.507747e-02 2.661278e-02 2.856749e-02 3.100870e-02 3.401625e-02 3.767682e-02 4.208535e-02 4.733578e-02 5.351855e-02 6.070802e-02 6.895896e-02 7.829563e-02 8.870362e-02 1.001301e-01 1.124703e-01 1.255874e-01 1.392899e-01 1.533720e-01 1.675765e-01 1.816354e-01 1.952235e-01 2.080554e-01 2.198325e-01 2.302662e-01 2.390532e-01 2.458178e-01 2.502262e-01 2.519587e-01 2.509078e-01 2.471319e-01 2.408774e-01 2.324984e-01 2.223737e-01 2.108873e-01 1.983215e-01 1.849820e-01 1.711376e-01 1.570725e-01 1.430660e-01 1.293455e-01 1.161447e-01 1.036444e-01 9.200880e-02 8.134635e-02 7.173139e-02 6.318901e-02 5.570962e-02 4.924836e-02 4.373772e-02 3.909237e-02 3.521990e-02 3.202469e-02 2.941669e-02 2.731316e-02 2.564289e-02 2.434546e-02 2.337342e-02 2.268995e-02 2.226948e-02 
2.525439e-02 2.531654e-02 2.562602e-02 2.619763e-02 2.705464e-02 2.823291e-02 2.977668e-02 3.174471e-02 3.420666e-02 3.724695e-02 4.095924e-02 4.544871e-02 5.082314e-02 5.719182e-02 6.465339e-02 7.328737e-02 8.314336e-02 9.422982e-02 1.065109e-01 1.198887e-01 1.342226e-01 1.493034e-01 1.648984e-01 1.807104e-01 1.964166e-01 2.116240e-01 2.260043e-01 2.392146e-01 2.509548e-01 2.609037e-01 2.686158e-01 2.736834e-01 2.756937e-01 2.745033e-01 2.701794e-01 2.630388e-01 2.535336e-01 2.421307e-01 2.292847e-01 2.152736e-01 2.004350e-01 1.850593e-01 1.694654e-01 1.539887e-01 1.388862e-01 1.244335e-01 1.108318e-01 9.826105e-02 8.682965e-02 7.660273e-02 6.758859e-02 5.975627e-02 5.303858e-02 4.734676e-02 4.257508e-02 3.861464e-02 3.535768e-02 3.270546e-02 3.056884e-02 2.887284e-02 2.755448e-02 2.656570e-02 2.586830e-02 2.543672e-02 
2.897389e-02 2.903044e-02 2.933967e-02 2.991640e-02 3.078319e-02 3.197643e-02 3.354067e-02 3.553547e-02 3.803242e-02 4.112045e-02 4.490005e-02 4.948713e-02 5.500434e-02 6.158100e-02 6.934067e-02 7.839347e-02 8.882270e-02 1.006621e-01 1.138971e-01 1.284324e-01 1.441214e-01 1.607238e-01 1.779738e-01 1.955169e-01 2.129683e-01 2.298415e-01 2.457812e-01 2.604354e-01 2.735322e-01 2.847542e-01 2.935421e-01 2.993792e-01 3.017286e-01 3.003845e-01 2.954195e-01 2.872524e-01 2.764811e-01 2.637253e-01 2.495245e-01 2.340949e-01 2.177629e-01 2.008107e-01 1.835983e-01 1.665291e-01 1.499008e-01 1.340488e-01 1.192057e-01 1.055767e-01 9.327440e-02 8.235497e-02 7.280809e-02 6.457791e-02 5.757021e-02 5.166882e-02 4.674648e-02 4.267707e-02 3.933944e-02 3.662563e-02 3.443989e-02 3.270366e-02 3.135181e-02 3.033586e-02 2.961617e-02 2.916774e-02 
3.328983e-02 3.334169e-02 3.365604e-02 3.424749e-02 3.513731e-02 3.636149e-02 3.796510e-02 4.000787e-02 4.256259e-02 4.572216e-02 4.959380e-02 5.430428e-02 5.999217e-02 6.680844e-02 7.490492e-02 8.442502e-02 9.548807e-02 1.081635e-01 1.224614e-01 1.382880e-01 1.554802e-01 1.737591e-01 1.928176e-01 2.122582e-01 2.316084e-01 2.502741e-01 2.678486e-01 2.838978e-01 2.982114e-01 3.105446e-01 3.202735e-01 3.268074e-01 3.294746e-01 3.279969e-01 3.224537e-01 3.133688e-01 3.014730e-01 2.875096e-01 2.720724e-01 2.552346e-01 2.373572e-01 2.187396e-01 1.997672e-01 1.809531e-01 1.626251e-01 1.451994e-01 1.289513e-01 1.141202e-01 1.008296e-01 8.912548e-02 7.897696e-02 7.029412e-02 6.295095e-02 5.680243e-02 5.169702e-02 4.748956e-02 4.404442e-02 4.124405e-02 3.898595e-02 3.718853e-02 3.578518e-02 3.472648e-02 3.397236e-02 3.349898e-02 
3.822979e-02 3.827863e-02 3.860622e-02 3.922672e-02 4.015918e-02 4.143869e-02 4.310896e-02 4.523097e-02 4.787713e-02 5.114389e-02 5.514446e-02 6.001706e-02 6.591669e-02 7.301840e-02 8.150557e-02 9.155983e-02 1.033442e-01 1.169658e-01 1.324646e-01 1.497447e-01 1.686182e-01 1.887359e-01 2.097383e-01 2.311709e-01 2.524620e-01 2.728319e-01 2.918777e-01 3.091978e-01 3.247340e-01 3.383498e-01 3.492218e-01 3.566054e-01 3.596615e-01 3.580307e-01 3.517824e-01 3.415679e-01 3.283318e-01 3.131205e-01 2.966150e-01 2.785819e-01 2.593011e-01 2.390287e-01 2.182189e-01 1.975308e-01 1.773286e-01 1.581396e-01 1.403017e-01 1.241042e-01 1.096902e-01 9.709264e-02 8.625303e-02 7.704511e-02 6.930755e-02 6.286181e-02 5.752914e-02 5.314326e-02 4.955291e-02 4.663063e-02 4.426730e-02 4.237918e-02 4.089828e-02 3.977474e-02 3.896899e-02 3.845929e-02 
4.380949e-02 4.385812e-02 4.421074e-02 4.488062e-02 4.588364e-02 4.725297e-02 4.902913e-02 5.127455e-02 5.406045e-02 5.748569e-02 6.166912e-02 6.676018e-02 7.293177e-02 8.038464e-02 8.933811e-02 1.000173e-01 1.126358e-01 1.273468e-01 1.442213e-01 1.631547e-01 1.839072e-01 2.060237e-01 2.290762e-01 2.526186e-01 2.760002e-01 2.983686e-01 3.192743e-01 3.379211e-01 3.543273e-01 3.686777e-01 3.801543e-01 3.880132e-01 3.912895e-01 3.895298e-01 3.828585e-01 3.720256e-01 3.580542e-01 3.420846e-01 3.246693e-01 3.051758e-01 2.842209e-01 2.621630e-01 2.393631e-01 2.166367e-01 1.943499e-01 1.731707e-01 1.535308e-01 1.357758e-01 1.200770e-01 1.064491e-01 9.480847e-02 8.498489e-02 7.677741e-02 6.996904e-02 6.435035e-02 5.973176e-02 5.594502e-02 5.285271e-02 5.033945e-02 4.832073e-02 4.672609e-02 4.550752e-02 4.462689e-02 4.406576e-02 
5.002807e-02 5.008034e-02 5.047361e-02 5.121990e-02 5.233063e-02 5.383611e-02 5.577200e-02 5.819990e-02 6.119066e-02 6.484476e-02 6.928512e-02 7.467358e-02 8.120101e-02 8.909771e-02 9.862225e-02 1.100509e-01 1.236572e-01 1.396505e-01 1.581481e-01 1.790312e-01 2.019958e-01 2.264022e-01 2.517240e-01 2.775171e-01 3.030939e-01 3.271254e-01 3.493234e-01 3.690156e-01 3.865258e-01 4.022795e-01 4.149042e-01 4.233501e-01 4.267584e-01 4.248372e-01 4.176892e-01 4.058440e-01 3.905626e-01 3.736135e-01 3.555378e-01 3.350561e-01 3.127324e-01 2.887736e-01 2.637905e-01 2.388150e-01 2.141710e-01 1.907141e-01 1.689999e-01 1.494438e-01 1.322557e-01 1.174263e-01 1.048450e-01 9.428933e-02 8.551389e-02 7.825690e-02 7.227449e-02 6.735093e-02 6.329963e-02 5.997324e-02 5.725069e-02 5.504766e-02 5.329131e-02 5.193775e-02 5.095168e-02 5.031933e-02 
5.686473e-02 5.692597e-02 5.738011e-02 5.823750e-02 5.950379e-02 6.120524e-02 6.337073e-02 6.605871e-02 6.933954e-02 7.331495e-02 7.811153e-02 8.390337e-02 9.090202e-02 9.936898e-02 1.096086e-01 1.219532e-01 1.367469e-01 1.542693e-01 1.746975e-01 1.979161e-01 2.235302e-01 2.505944e-01 2.783476e-01 3.063503e-01 3.341498e-01 3.608847e-01 3.865735e-01 4.084393e-01 4.261253e-01 4.407222e-01 4.515389e-01 4.583823e-01 4.609301e-01 4.593880e-01 4.536344e-01 4.437587e-01 4.302154e-01 4.137292e-01 3.940741e-01 3.703059e-01 3.452766e-01 3.192438e-01 2.920532e-01 2.646223e-01 2.372750e-01 2.111692e-01 1.870657e-01 1.654155e-01 1.464961e-01 1.302577e-01 1.165642e-01 1.051322e-01 9.566540e-02 8.785137e-02 8.140628e-02 7.608575e-02 7.168279e-02 6.804068e-02 6.503369e-02 6.257671e-02 6.059766e-02 5.905870e-02 5.792893e-02 5.720091e-02 
6.427603e-02 6.435263e-02 6.489215e-02 6.590271e-02 6.738286e-02 6.935359e-02 7.183465e-02 7.488054e-02 7.855619e-02 8.296879e-02 8.824625e-02 9.457831e-02 1.021973e-01 1.114036e-01 1.225490e-01 1.360316e-01 1.522706e-01 1.716302e-01 1.943797e-01 2.204548e-01 2.494604e-01 2.800181e-01 3.110132e-01 3.421978e-01 3.733540e-01 4.010509e-01 4.251767e-01 4.428805e-01 4.545360e-01 4.624689e-01 4.673658e-01 4.699474e-01 4.708114e-01 4.701225e-01 4.678544e-01 4.636634e-01 4.568118e-01 4.465859e-01 4.315559e-01 4.100412e-01 3.846564e-01 3.555200e-01 3.251892e-01 2.947738e-01 2.643076e-01 2.351075e-01 2.081974e-01 1.840805e-01 1.631222e-01 1.452118e-01 1.301903e-01 1.176989e-01 1.073850e-01 9.887685e-02 9.184457e-02 8.601166e-02 8.114818e-02 7.708877e-02 7.370310e-02 7.090596e-02 6.862887e-02 6.684264e-02 6.552253e-02 6.466907e-02 
7.219480e-02 7.229479e-02 7.294874e-02 7.416219e-02 7.592502e-02 7.825181e-02 8.115072e-02 8.467078e-02 8.886809e-02 9.385661e-02 9.976728e-02 1.068077e-01 1.152379e-01 1.254012e-01 1.377093e-01 1.526255e-01 1.706515e-01 1.922330e-01 2.177264e-01 2.471987e-01 2.802346e-01 3.148510e-01 3.498080e-01 3.827661e-01 4.111303e-01 4.296105e-01 4.400425e-01 4.447188e-01 4.462605e-01 4.470989e-01 4.481860e-01 4.490683e-01 4.493703e-01 4.488649e-01 4.477801e-01 4.466658e-01 4.457680e-01 4.447751e-01 4.419647e-01 4.340231e-01 4.190286e-01 3.942279e-01 3.633255e-01 3.296076e-01 2.956920e-01 2.629062e-01 2.327748e-01 2.057674e-01 1.824137e-01 1.625239e-01 1.459119e-01 1.321407e-01 1.207898e-01 1.114227e-01 1.036537e-01 9.717094e-02 9.171777e-02 8.712130e-02 8.324383e-02 8.000484e-02 7.734136e-02 7.523570e-02 7.367118e-02 7.265812e-02 
8.053151e-02 8.066373e-02 8.146476e-02 8.293672e-02 8.505952e-02 8.783973e-02 9.127137e-02 9.539655e-02 1.002600e-01 1.059808e-01 1.126963e-01 1.206402e-01 1.301041e-01 1.414930e-01 1.552818e-01 1.720181e-01 1.922631e-01 2.165179e-01 2.451264e-01 2.782177e-01 3.153687e-01 3.536456e-01 3.885667e-01 4.131991e-01 4.244716e-01 4.246457e-01 4.203591e-01 4.171864e-01 4.175270e-01 4.202037e-01 4.233842e-01 4.255873e-01 4.263501e-01 4.254946e-01 4.232210e-01 4.200853e-01 4.169931e-01 4.160071e-01 4.185360e-01 4.234768e-01 4.263779e-01 4.193512e-01 3.997785e-01 3.680619e-01 3.315131e-01 2.951460e-01 2.612302e-01 2.308080e-01 2.046550e-01 1.824208e-01 1.639103e-01 1.485935e-01 1.359780e-01 1.255558e-01 1.168736e-01 1.095811e-01 1.033884e-01 9.811609e-02 9.361663e-02 8.981914e-02 8.666850e-02 8.416141e-02 8.229138e-02 8.108013e-02 
8.917632e-02 8.935111e-02 9.033506e-02 9.212641e-02 9.469318e-02 9.803269e-02 1.021215e-01 1.069936e-01 1.126789e-01 1.193013e-01 1.270072e-01 1.360649e-01 1.468119e-01 1.597272e-01 1.753826e-01 1.944088e-01 2.174682e-01 2.450546e-01 2.773771e-01 3.144674e-01 3.548180e-01 3.908595e-01 4.119384e-01 4.154201e-01 4.072352e-01 3.984696e-01 3.931622e-01 3.911423e-01 3.925468e-01 3.957932e-01 3.994159e-01 4.020339e-01 4.029801e-01 4.020128e-01 3.993444e-01 3.956674e-01 3.919808e-01 3.898886e-01 3.908583e-01 3.956039e-01 4.042654e-01 4.140429e-01 4.160058e-01 4.013072e-01 3.694967e-01 3.313004e-01 2.934618e-01 2.592922e-01 2.299630e-01 2.050267e-01 1.842600e-01 1.670966e-01 1.529562e-01 1.412610e-01 1.314724e-01 1.231967e-01 1.161027e-01 1.100033e-01 1.047416e-01 1.002599e-01 9.651360e-02 9.351706e-02 9.127615e-02 8.982580e-02 
9.800469e-02 9.823275e-02 9.943713e-02 1.016108e-01 1.047085e-01 1.087159e-01 1.135891e-01 1.193513e-01 1.260138e-01 1.337066e-01 1.425817e-01 1.529567e-01 1.652197e-01 1.799541e-01 1.978333e-01 2.196259e-01 2.460886e-01 2.777309e-01 3.142650e-01 3.542565e-01 3.909756e-01 4.100825e-01 4.079517e-01 3.950471e-01 3.818854e-01 3.724198e-01 3.672711e-01 3.659816e-01 3.681527e-01 3.721044e-01 3.762797e-01 3.792756e-01 3.803973e-01 3.793541e-01 3.763650e-01 3.721073e-01 3.676867e-01 3.647274e-01 3.649413e-01 3.691931e-01 3.777557e-01 3.903538e-01 4.047866e-01 4.125237e-01 4.006400e-01 3.689195e-01 3.289628e-01 2.908306e-01 2.582776e-01 2.303255e-01 2.069446e-01 1.876172e-01 1.716716e-01 1.584744e-01 1.473746e-01 1.379347e-01 1.297701e-01 1.226846e-01 1.165137e-01 1.112159e-01 1.067607e-01 1.031827e-01 1.005029e-01 9.877087e-02 
1.068815e-01 1.071745e-01 1.086374e-01 1.112568e-01 1.149722e-01 1.197551e-01 1.255372e-01 1.323290e-01 1.401167e-01 1.490384e-01 1.592444e-01 1.711136e-01 1.850852e-01 2.018480e-01 2.221836e-01 2.469099e-01 2.769619e-01 3.126589e-01 3.525246e-01 3.896865e-01 4.091570e-01 4.045733e-01 3.885303e-01 3.719241e-01 3.582968e-01 3.490230e-01 3.442699e-01 3.433263e-01 3.454859e-01 3.491516e-01 3.530289e-01 3.558403e-01 3.569243e-01 3.559463e-01 3.531171e-01 3.490676e-01 3.448599e-01 3.418714e-01 3.416543e-01 3.452239e-01 3.532762e-01 3.657975e-01 3.821414e-01 4.004376e-01 4.110615e-01 3.992257e-01 3.657758e-01 3.254056e-01 2.894061e-01 2.580829e-01 2.316769e-01 2.098786e-01 1.918796e-01 1.769783e-01 1.643875e-01 1.536194e-01 1.442271e-01 1.360051e-01 1.287844e-01 1.225430e-01 1.172685e-01 1.130190e-01 1.098340e-01 1.077791e-01 
1.156682e-01 1.160378e-01 1.177961e-01 1.209215e-01 1.253366e-01 1.309950e-01 1.378007e-01 1.457461e-01 1.547882e-01 1.650693e-01 1.767333e-01 1.902229e-01 2.060170e-01 2.249077e-01 2.477096e-01 2.752529e-01 3.085039e-01 3.480129e-01 3.874954e-01 4.098441e-01 4.057653e-01 3.871530e-01 3.677120e-01 3.508062e-01 3.373751e-01 3.281302e-01 3.231764e-01 3.218855e-01 3.234898e-01 3.266056e-01 3.300246e-01 3.325519e-01 3.335430e-01 3.326440e-01 3.300704e-01 3.264157e-01 3.227121e-01 3.202294e-01 3.203271e-01 3.239750e-01 3.317828e-01 3.439366e-01 3.601500e-01 3.803832e-01 4.012557e-01 4.119873e-01 3.972463e-01 3.611639e-01 3.222193e-01 2.875318e-01 2.578426e-01 2.334644e-01 2.132495e-01 1.965066e-01 1.822786e-01 1.700431e-01 1.592830e-01 1.497873e-01 1.413866e-01 1.340820e-01 1.278849e-01 1.228792e-01 1.191266e-01 1.167103e-01 
1.242268e-01 1.246852e-01 1.267732e-01 1.304594e-01 1.356472e-01 1.422691e-01 1.501972e-01 1.594020e-01 1.698028e-01 1.815487e-01 1.947610e-01 2.099694e-01 2.276586e-01 2.487720e-01 2.740895e-01 3.042829e-01 3.407471e-01 3.814200e-01 4.107864e-01 4.117022e-01 3.914914e-01 3.691107e-01 3.492348e-01 3.323949e-01 3.190516e-01 3.096526e-01 3.042030e-01 3.021399e-01 3.027529e-01 3.048562e-01 3.074177e-01 3.093738e-01 3.101466e-01 3.093862e-01 3.073102e-01 3.044423e-01 3.017199e-01 3.002314e-01 3.011380e-01 3.053037e-01 3.133499e-01 3.255184e-01 3.417310e-01 3.619797e-01 3.849690e-01 4.073651e-01 4.146716e-01 3.935105e-01 3.551053e-01 3.166030e-01 2.842241e-01 2.575235e-01 2.351910e-01 2.166050e-01 2.006886e-01 1.869049e-01 1.746811e-01 1.638052e-01 1.541195e-01 1.456514e-01 1.384433e-01 1.326085e-01 1.282344e-01 1.254236e-01 
1.324253e-01 1.329852e-01 1.354339e-01 1.397271e-01 1.457485e-01 1.534042e-01 1.625326e-01 1.730745e-01 1.849089e-01 1.981818e-01 2.129884e-01 2.299453e-01 2.495238e-01 2.728265e-01 3.005704e-01 3.332683e-01 3.725728e-01 4.087168e-01 4.197531e-01 4.021924e-01 3.772229e-01 3.541548e-01 3.341989e-01 3.172591e-01 3.037236e-01 2.937520e-01 2.873849e-01 2.841527e-01 2.834667e-01 2.843580e-01 2.859299e-01 2.872381e-01 2.877550e-01 2.871558e-01 2.856466e-01 2.837011e-01 2.821677e-01 2.819981e-01 2.841498e-01 2.893588e-01 2.981517e-01 3.107289e-01 3.271148e-01 3.471185e-01 3.702992e-01 3.951121e-01 4.175820e-01 4.159818e-01 3.856709e-01 3.451185e-01 3.106124e-01 2.817863e-01 2.573732e-01 2.369315e-01 2.192974e-01 2.039102e-01 1.901580e-01 1.778221e-01 1.667726e-01 1.570626e-01 1.487753e-01 1.420533e-01 1.370151e-01 1.337837e-01 
1.401383e-01 1.408100e-01 1.436431e-01 1.485774e-01 1.554762e-01 1.642138e-01 1.745946e-01 1.865198e-01 1.998256e-01 2.146411e-01 2.310188e-01 2.496702e-01 2.709541e-01 2.963275e-01 3.258316e-01 3.616432e-01 4.013676e-01 4.254622e-01 4.172259e-01 3.914029e-01 3.659352e-01 3.428956e-01 3.228786e-01 3.056834e-01 2.915746e-01 2.806897e-01 2.730802e-01 2.684083e-01 2.662005e-01 2.656740e-01 2.660878e-01 2.666278e-01 2.668382e-01 2.664319e-01 2.655968e-01 2.647437e-01 2.646189e-01 2.660087e-01 2.697067e-01 2.763168e-01 2.862466e-01 2.996270e-01 3.163594e-01 3.362665e-01 3.589099e-01 3.839450e-01 4.107961e-01 4.274606e-01 4.122116e-01 3.740424e-01 3.364234e-01 3.056809e-01 2.792070e-01 2.570069e-01 2.377093e-01 2.207214e-01 2.054217e-01 1.915822e-01 1.791219e-01 1.681205e-01 1.587094e-01 1.510624e-01 1.453317e-01 1.416624e-01 
1.472493e-01 1.480407e-01 1.512721e-01 1.568646e-01 1.646624e-01 1.745028e-01 1.861598e-01 1.994810e-01 2.142662e-01 2.305957e-01 2.484913e-01 2.687124e-01 2.915228e-01 3.187255e-01 3.494480e-01 3.881818e-01 4.245881e-01 4.334702e-01 4.106050e-01 3.836480e-01 3.582769e-01 3.357409e-01 3.155064e-01 2.977851e-01 2.827437e-01 2.706085e-01 2.614956e-01 2.551904e-01 2.513434e-01 2.493231e-01 2.485356e-01 2.482875e-01 2.481841e-01 2.479828e-01 2.478462e-01 2.481342e-01 2.494935e-01 2.525636e-01 2.579990e-01 2.662687e-01 2.776516e-01 2.921433e-01 3.095221e-01 3.295382e-01 3.517017e-01 3.765483e-01 4.031788e-01 4.302535e-01 4.310200e-01 4.000633e-01 3.602908e-01 3.280112e-01 2.999469e-01 2.762316e-01 2.554571e-01 2.369380e-01 2.201287e-01 2.047871e-01 1.909107e-01 1.786060e-01 1.680601e-01 1.594777e-01 1.530474e-01 1.489369e-01 
1.536515e-01 1.545659e-01 1.581956e-01 1.644420e-01 1.731321e-01 1.840635e-01 1.969841e-01 2.116778e-01 2.279155e-01 2.456891e-01 2.650198e-01 2.865983e-01 3.108016e-01 3.393693e-01 3.715544e-01 4.110523e-01 4.403223e-01 4.351222e-01 4.062258e-01 3.799878e-01 3.550641e-01 3.326484e-01 3.119744e-01 2.933825e-01 2.771183e-01 2.634883e-01 2.527040e-01 2.446646e-01 2.391318e-01 2.356018e-01 2.335966e-01 2.325521e-01 2.321340e-01 2.321438e-01 2.327189e-01 2.341696e-01 2.370275e-01 2.418184e-01 2.490755e-01 2.591477e-01 2.721861e-01 2.880536e-01 3.064221e-01 3.268788e-01 3.490400e-01 3.731651e-01 3.992364e-01 4.282382e-01 4.429719e-01 4.224121e-01 3.832910e-01 3.486714e-01 3.195281e-01 2.943386e-01 2.722567e-01 2.522514e-01 2.339803e-01 2.171627e-01 2.018960e-01 1.883115e-01 1.766517e-01 1.671526e-01 1.600371e-01 1.554961e-01 
1.592496e-01 1.602860e-01 1.642996e-01 1.711723e-01 1.807181e-01 1.926945e-01 2.068320e-01 2.228433e-01 2.404845e-01 2.596179e-01 2.802969e-01 3.029893e-01 3.284267e-01 3.578178e-01 3.922151e-01 4.308354e-01 4.509065e-01 4.345294e-01 4.057284e-01 3.799619e-01 3.556882e-01 3.330490e-01 3.117080e-01 2.919941e-01 2.743209e-01 2.590640e-01 2.465483e-01 2.367684e-01 2.295904e-01 2.246182e-01 2.214598e-01 2.196663e-01 2.189546e-01 2.191666e-01 2.204152e-01 2.229683e-01 2.272545e-01 2.337166e-01 2.427810e-01 2.546867e-01 2.694714e-01 2.868656e-01 3.064562e-01 3.276550e-01 3.501627e-01 3.737574e-01 3.993274e-01 4.264468e-01 4.501712e-01 4.404134e-01 4.041084e-01 3.670852e-01 3.373229e-01 3.108621e-01 2.876461e-01 2.662549e-01 2.466049e-01 2.283908e-01 2.118070e-01 1.970144e-01 1.843037e-01 1.739417e-01 1.661817e-01 1.612377e-01 
1.639594e-01 1.651098e-01 1.694748e-01 1.769188e-01 1.872466e-01 2.001804e-01 2.154406e-01 2.326751e-01 2.516321e-01 2.720401e-01 2.939692e-01 3.176068e-01 3.439697e-01 3.736957e-01 4.097127e-01 4.464600e-01 4.578671e-01 4.351125e-01 4.083940e-01 3.830597e-01 3.591365e-01 3.359804e-01 3.138102e-01 2.928503e-01 2.737292e-01 2.568449e-01 2.426582e-01 2.312315e-01 2.225270e-01 2.162359e-01 2.120387e-01 2.095684e-01 2.085934e-01 2.089891e-01 2.108477e-01 2.143920e-01 2.199788e-01 2.279818e-01 2.387347e-01 2.523844e-01 2.688682e-01 2.877900e-01 3.086629e-01 3.307537e-01 3.537580e-01 3.771055e-01 4.018447e-01 4.271171e-01 4.545480e-01 4.538849e-01 4.211743e-01 3.832346e-01 3.529424e-01 3.255735e-01 3.012679e-01 2.786227e-01 2.576746e-01 2.381873e-01 2.203977e-01 2.045140e-01 1.908538e-01 1.797166e-01 1.713779e-01 1.660738e-01 
1.677087e-01 1.689589e-01 1.736250e-01 1.815571e-01 1.925552e-01 2.063144e-01 2.225525e-01 2.408699e-01 2.610139e-01 2.826161e-01 3.057292e-01 3.303326e-01 3.574560e-01 3.875124e-01 4.238757e-01 4.580375e-01 4.625223e-01 4.372055e-01 4.120326e-01 3.873189e-01 3.636121e-01 3.399810e-01 3.170354e-01 2.949396e-01 2.745196e-01 2.561904e-01 2.405287e-01 2.276538e-01 2.176286e-01 2.102079e-01 2.051345e-01 2.020989e-01 2.009037e-01 2.014539e-01 2.038218e-01 2.082032e-01 2.149022e-01 2.242369e-01 2.364633e-01 2.516354e-01 2.696054e-01 2.898950e-01 3.119457e-01 3.349495e-01 3.585037e-01 3.819431e-01 4.059894e-01 4.301764e-01 4.576600e-01 4.635940e-01 4.347727e-01 3.970657e-01 3.661136e-01 3.380609e-01 3.126709e-01 2.889300e-01 2.668174e-01 2.462384e-01 2.274125e-01 2.106065e-01 1.961437e-01 1.843554e-01 1.755311e-01 1.699263e-01 
1.704372e-01 1.717653e-01 1.766632e-01 1.849711e-01 1.964869e-01 2.108882e-01 2.278945e-01 2.470794e-01 2.681935e-01 2.908180e-01 3.149712e-01 3.405251e-01 3.683270e-01 3.988450e-01 4.348372e-01 4.662443e-01 4.657421e-01 4.398070e-01 4.154948e-01 3.913819e-01 3.678009e-01 3.438277e-01 3.202642e-01 2.972706e-01 2.758267e-01 2.563629e-01 2.395551e-01 2.255596e-01 2.145112e-01 2.062140e-01 2.004681e-01 1.970015e-01 1.956403e-01 1.963064e-01 1.990614e-01 2.040853e-01 2.116424e-01 2.220009e-01 2.353575e-01 2.517042e-01 2.708295e-01 2.921995e-01 3.151876e-01 3.389669e-01 3.629919e-01 3.866999e-01 4.103091e-01 4.340769e-01 4.599560e-01 4.701508e-01 4.450246e-01 4.082763e-01 3.764529e-01 3.478161e-01 3.213920e-01 2.967608e-01 2.736890e-01 2.522600e-01 2.326266e-01 2.151157e-01 2.000393e-01 1.877569e-01 1.785638e-01 1.727319e-01 
1.720978e-01 1.734760e-01 1.785206e-01 1.870664e-01 1.989106e-01 2.137214e-01 2.312213e-01 2.509728e-01 2.727298e-01 2.960610e-01 3.209501e-01 3.472482e-01 3.755502e-01 4.065077e-01 4.418231e-01 4.710447e-01 4.676782e-01 4.420192e-01 4.180924e-01 3.943347e-01 3.707746e-01 3.465829e-01 3.226155e-01 2.990469e-01 2.769449e-01 2.567543e-01 2.392152e-01 2.245075e-01 2.128115e-01 2.039612e-01 1.977897e-01 1.940496e-01 1.925847e-01 1.933252e-01 1.963265e-01 2.017574e-01 2.098566e-01 2.208625e-01 2.349347e-01 2.520275e-01 2.718864e-01 2.939479e-01 3.175280e-01 3.418129e-01 3.661237e-01 3.900518e-01 4.133762e-01 4.370122e-01 4.614066e-01 4.740748e-01 4.517946e-01 4.160351e-01 3.832619e-01 3.541617e-01 3.269317e-01 3.016982e-01 2.779782e-01 2.560011e-01 2.358492e-01 2.178930e-01 2.024297e-01 1.898376e-01 1.804136e-01 1.744401e-01 
1.726575e-01 1.740529e-01 1.791481e-01 1.877758e-01 1.997333e-01 2.146861e-01 2.323581e-01 2.523092e-01 2.742954e-01 2.978853e-01 3.230530e-01 3.496562e-01 3.781753e-01 4.093691e-01 4.443575e-01 4.726590e-01 4.682841e-01 4.428000e-01 4.189767e-01 3.953592e-01 3.718048e-01 3.475554e-01 3.234565e-01 2.996964e-01 2.773699e-01 2.569300e-01 2.391401e-01 2.241883e-01 2.122714e-01 2.032328e-01 1.969169e-01 1.930838e-01 1.915831e-01 1.923481e-01 1.954320e-01 2.009999e-01 2.092822e-01 2.205080e-01 2.348246e-01 2.521738e-01 2.722865e-01 2.945876e-01 3.183734e-01 3.428323e-01 3.672405e-01 3.912474e-01 4.144782e-01 4.380837e-01 4.619171e-01 4.753868e-01 4.541684e-01 4.188158e-01 3.856245e-01 3.563525e-01 3.288205e-01 3.033777e-01 2.794322e-01 2.572681e-01 2.369397e-01 2.188324e-01 2.032375e-01 1.905402e-01 1.810376e-01 1.750159e-01 
1.720978e-01 1.734760e-01 1.785206e-01 1.870664e-01 1.989106e-01 2.137214e-01 2.312213e-01 2.509728e-01 2.727298e-01 2.960610e-01 3.209501e-01 3.472482e-01 3.755502e-01 4.065077e-01 4.418231e-01 4.710447e-01 4.676782e-01 4.420192e-01 4.180924e-01 3.943347e-01 3.707746e-01 3.465829e-01 3.226155e-01 2.990469e-01 2.769449e-01 2.567543e-01 2.392152e-01 2.245075e-01 2.128115e-01 2.039612e-01 1.977897e-01 1.940496e-01 1.925847e-01 1.933252e-01 1.963265e-01 2.017574e-01 2.098566e-01 2.208625e-01 2.349347e-01 2.520275e-01 2.718864e-01 2.939479e-01 3.175280e-01 3.418129e-01 3.661237e-01 3.900518e-01 4.133762e-01 4.370122e-01 4.614066e-01 4.740748e-01 4.517946e-01 4.160351e-01 3.832619e-01 3.541617e-01 3.269317e-01 3.016982e-01 2.779782e-01 2.560011e-01 2.358492e-01 2.178930e-01 2.024297e-01 1.898376e-01 1.804136e-01 1.744401e-01 
1.704372e-01 1.717653e-01 1.766632e-01 1.849711e-01 1.964869e-01 2.108882e-01 2.278945e-01 2.470794e-01 2.681935e-01 2.908180e-01 3.149712e-01 3.405251e-01 3.683270e-01 3.988450e-01 4.348372e-01 4.662443e-01 4.657421e-01 4.398070e-01 4.154948e-01 3.913819e-01 3.678009e-01 3.438277e-01 3.202642e-01 2.972706e-01 2.758267e-01 2.563629e-01 2.395551e-01 2.255596e-01 2.145112e-01 2.062140e-01 2.004681e-01 1.970015e-01 1.956403e-01 1.963064e-01 1.990614e-01 2.040853e-01 2.116424e-01 2.220009e-01 2.353575e-01 2.517042e-01 2.708295e-01 2.921995e-01 3.151876e-01 3.389669e-01 3.629919e-01 3.866999e-01 4.103091e-01 4.340769e-01 4.599560e-01 4.701508e-01 4.450246e-01 4.082763e-01 3.764529e-01 3.478161e-01 3.213920e-01 2.967608e-01 2.736890e-01 2.522600e-01 2.326266e-01 2.151157e-01 2.000393e-01 1.877569e-01 1.785638e-01 1.727319e-01 