# vtk DataFile Version 2.0
Comment goes here
ASCII

DATASET STRUCTURED_POINTS
FIELD FieldData 1
TIME 1 1 double
1.50000000
DIMENSIONS    64   64   1

ORIGIN    0.000   0.000   0.000
SPACING   0.015625 0.015625   1.000

POINT_DATA   4096
SCALARS Concentration double
LOOKUP_TABLE default

8.315071e-03 8.386221e-03 8.640037e-03 9.086379e-03 9.741927e-03 1.063101e-02 1.178468e-02 1.324202e-02 1.504773e-02 1.725303e-02 1.991080e-02 2.307554e-02 2.679528e-02 3.111023e-02 3.604291e-02 4.159411e-02 4.773626e-02 5.441641e-02 6.155368e-02 6.904346e-02 7.676352e-02 8.457732e-02 9.234618e-02 9.992642e-02 1.071842e-01 1.139841e-01 1.202046e-01 1.257250e-01 1.304429e-01 1.342596e-01 1.370951e-01 1.388797e-01 1.395642e-01 1.391201e-01 1.375616e-01 1.349285e-01 1.312799e-01 1.266958e-01 1.212691e-01 1.151093e-01 1.083361e-01 1.010812e-01 9.348159e-02 8.568008e-02 7.782218e-02 7.005161e-02 6.250608e-02 5.530927e-02 4.856713e-02 4.236024e-02 3.674388e-02 3.174470e-02 2.736522e-02 2.358208e-02 2.035764e-02 1.764272e-02 1.538452e-02 1.352870e-02 1.202493e-02 1.082709e-02 9.896411e-03 9.200691e-03 8.715623e-03 8.423781e-03 
8.458672e-03 8.529680e-03 8.783784e-03 9.230867e-03 9.887653e-03 1.077855e-02 1.193475e-02 1.339555e-02 1.520602e-02 1.741774e-02 2.008411e-02 2.326034e-02 2.699545e-02 3.133077e-02 3.629020e-02 4.187659e-02 4.806395e-02 5.480073e-02 6.200755e-02 6.958067e-02 7.739864e-02 8.532470e-02 9.321977e-02 1.009386e-01 1.083458e-01 1.153035e-01 1.216845e-01 1.273615e-01 1.322254e-01 1.361693e-01 1.391055e-01 1.409570e-01 1.416691e-01 1.412111e-01 1.395980e-01 1.368743e-01 1.331051e-01 1.283787e-01 1.227958e-01 1.164742e-01 1.095401e-01 1.021320e-01 9.438964e-02 8.645797e-02 7.848413e-02 7.061247e-02 6.298077e-02 5.571202e-02 4.891108e-02 4.265712e-02 3.700384e-02 3.197639e-02 2.757517e-02 2.377549e-02 2.053850e-02 1.781406e-02 1.554859e-02 1.368723e-02 1.217927e-02 1.097818e-02 1.004498e-02 9.347319e-03 8.860799e-03 8.567954e-03 
8.892174e-03 8.962774e-03 9.217796e-03 9.667187e-03 1.032780e-02 1.122427e-02 1.238818e-02 1.385946e-02 1.568412e-02 1.791492e-02 2.060683e-02 2.381727e-02 2.759813e-02 3.199430e-02 3.703367e-02 4.272512e-02 4.904743e-02 5.595371e-02 6.336856e-02 7.119137e-02 7.930230e-02 8.756434e-02 9.583635e-02 1.039683e-01 1.118187e-01 1.192393e-01 1.260885e-01 1.322200e-01 1.375053e-01 1.418152e-01 1.450402e-01 1.470835e-01 1.478751e-01 1.473777e-01 1.456089e-01 1.426259e-01 1.385106e-01 1.333743e-01 1.273395e-01 1.205466e-01 1.131411e-01 1.052795e-01 9.711216e-02 8.879197e-02 8.047114e-02 7.229663e-02 6.440645e-02 5.692186e-02 4.994453e-02 4.354943e-02 3.778560e-02 3.267340e-02 2.820713e-02 2.435806e-02 2.108368e-02 1.833091e-02 1.604384e-02 1.416600e-02 1.264538e-02 1.143448e-02 1.049361e-02 9.790036e-03 9.299089e-03 9.003196e-03 
9.625125e-03 9.695010e-03 9.951569e-03 1.040485e-02 1.107188e-02 1.197768e-02 1.315440e-02 1.464294e-02 1.649078e-02 1.875269e-02 2.148617e-02 2.475225e-02 2.860755e-02 3.310277e-02 3.827271e-02 4.413430e-02 5.067627e-02 5.785889e-02 6.561348e-02 7.384391e-02 8.243309e-02 9.124259e-02 1.001279e-01 1.089299e-01 1.174965e-01 1.256627e-01 1.332650e-01 1.401277e-01 1.460924e-01 1.509942e-01 1.546877e-01 1.570431e-01 1.579643e-01 1.574038e-01 1.553826e-01 1.519793e-01 1.473039e-01 1.415056e-01 1.347424e-01 1.271905e-01 1.190255e-01 1.104316e-01 1.015759e-01 9.262493e-02 8.373995e-02 7.507231e-02 6.676086e-02 5.892430e-02 5.165933e-02 4.503433e-02 3.909088e-02 3.383999e-02 2.926736e-02 2.533750e-02 2.200191e-02 1.920270e-02 1.688016e-02 1.497514e-02 1.343348e-02 1.220614e-02 1.125234e-02 1.053872e-02 1.004023e-02 9.739126e-03 
1.067365e-02 1.074249e-02 1.100127e-02 1.146013e-02 1.213634e-02 1.305533e-02 1.425005e-02 1.576261e-02 1.764242e-02 1.994705e-02 2.273751e-02 2.607973e-02 3.003684e-02 3.466765e-02 4.001654e-02 4.611115e-02 5.295286e-02 6.051393e-02 6.873439e-02 7.752406e-02 8.676824e-02 9.632592e-02 1.060458e-01 1.157553e-01 1.252865e-01 1.344489e-01 1.430511e-01 1.508795e-01 1.577384e-01 1.634176e-01 1.677269e-01 1.704931e-01 1.715857e-01 1.709440e-01 1.685929e-01 1.646385e-01 1.592278e-01 1.525585e-01 1.448339e-01 1.362757e-01 1.270981e-01 1.175205e-01 1.077351e-01 9.792816e-02 8.827422e-02 7.893212e-02 7.004306e-02 6.172320e-02 5.406332e-02 4.712313e-02 4.093262e-02 3.549023e-02 3.077096e-02 2.672974e-02 2.330973e-02 2.044637e-02 1.807473e-02 1.613195e-02 1.456082e-02 1.331023e-02 1.233799e-02 1.160999e-02 1.110062e-02 1.079197e-02 
1.206011e-02 1.212754e-02 1.238928e-02 1.285560e-02 1.354397e-02 1.448032e-02 1.569841e-02 1.724180e-02 1.916215e-02 2.152064e-02 2.438257e-02 2.781997e-02 3.190411e-02 3.670404e-02 4.227638e-02 4.866233e-02 5.587762e-02 6.390920e-02 7.271049e-02 8.219717e-02 9.225637e-02 1.027409e-01 1.134895e-01 1.243097e-01 1.350136e-01 1.453803e-01 1.551892e-01 1.641843e-01 1.721300e-01 1.787621e-01 1.838330e-01 1.871123e-01 1.884209e-01 1.876822e-01 1.849229e-01 1.802878e-01 1.739728e-01 1.662402e-01 1.573489e-01 1.475736e-01 1.371721e-01 1.264008e-01 1.154819e-01 1.046250e-01 9.402304e-02 8.384532e-02 7.423806e-02 6.531598e-02 5.716387e-02 4.982930e-02 4.332780e-02 3.764431e-02 3.274028e-02 2.855860e-02 2.503184e-02 2.208708e-02 1.965279e-02 1.766158e-02 1.605219e-02 1.477110e-02 1.377443e-02 1.302716e-02 1.250315e-02 1.218430e-02 
1.381261e-02 1.387823e-02 1.414395e-02 1.462011e-02 1.532430e-02 1.628290e-02 1.753054e-02 1.911228e-02 2.108228e-02 2.350596e-02 2.645379e-02 3.000491e-02 3.424029e-02 3.924123e-02 4.507913e-02 5.181173e-02 5.947213e-02 6.806372e-02 7.755345e-02 8.786691e-02 9.889118e-02 1.104695e-01 1.224234e-01 1.345356e-01 1.465908e-01 1.583298e-01 1.694992e-01 1.797974e-01 1.889502e-01 1.966393e-01 2.025587e-01 2.064140e-01 2.079713e-01 2.071298e-01 2.039189e-01 1.985276e-01 1.912077e-01 1.822909e-01 1.720952e-01 1.609497e-01 1.491572e-01 1.370187e-01 1.247902e-01 1.127106e-01 1.009962e-01 8.983190e-02 7.937348e-02 6.973537e-02 6.099422e-02 5.318572e-02 4.631032e-02 4.033677e-02 3.521025e-02 3.085911e-02 2.720312e-02 2.415933e-02 2.164834e-02 1.959729e-02 1.793997e-02 1.662015e-02 1.559207e-02 1.481982e-02 1.427668e-02 1.394446e-02 
1.596406e-02 1.602752e-02 1.629865e-02 1.678778e-02 1.751252e-02 1.849957e-02 1.978429e-02 2.141328e-02 2.344333e-02 2.594416e-02 2.899270e-02 3.267597e-02 3.708593e-02 4.231802e-02 4.846079e-02 5.559121e-02 6.376258e-02 7.299697e-02 8.327631e-02 9.453306e-02 1.066527e-01 1.194638e-01 1.327642e-01 1.463008e-01 1.598277e-01 1.730421e-01 1.856681e-01 1.973655e-01 2.078349e-01 2.167036e-01 2.235925e-01 2.281222e-01 2.299840e-01 2.290350e-01 2.253053e-01 2.190490e-01 2.105937e-01 2.003654e-01 1.887515e-01 1.761306e-01 1.628442e-01 1.492253e-01 1.355667e-01 1.221359e-01 1.091794e-01 9.690306e-02 8.547550e-02 7.501509e-02 6.559367e-02 5.723594e-02 4.992587e-02 4.361437e-02 3.822786e-02 3.367793e-02 2.986947e-02 2.670796e-02 2.410510e-02 2.198106e-02 2.026439e-02 1.889587e-02 1.782776e-02 1.702332e-02 1.645536e-02 1.610578e-02 
1.855089e-02 1.861195e-02 1.889069e-02 1.939733e-02 2.014924e-02 2.117323e-02 2.250514e-02 2.419293e-02 2.629597e-02 2.888825e-02 3.205444e-02 3.589003e-02 4.049919e-02 4.599316e-02 5.247998e-02 6.005835e-02 6.880469e-02 7.876212e-02 8.992890e-02 1.022445e-01 1.155880e-01 1.297672e-01 1.445444e-01 1.596268e-01 1.747279e-01 1.894949e-01 2.036257e-01 2.167394e-01 2.285226e-01 2.385640e-01 2.464266e-01 2.516483e-01 2.538356e-01 2.527883e-01 2.485383e-01 2.414144e-01 2.318229e-01 2.202755e-01 2.072247e-01 1.930870e-01 1.782379e-01 1.630592e-01 1.478721e-01 1.329758e-01 1.186537e-01 1.051390e-01 9.262302e-02 8.123182e-02 7.103658e-02 6.205132e-02 5.424313e-02 4.754312e-02 4.185656e-02 3.707600e-02 3.308925e-02 2.978878e-02 2.707620e-02 2.486324e-02 2.307289e-02 2.164289e-02 2.052352e-02 1.967749e-02 1.907732e-02 1.870523e-02 
2.161105e-02 2.166967e-02 2.195934e-02 2.248999e-02 2.327842e-02 2.435118e-02 2.574415e-02 2.750635e-02 2.969942e-02 3.240153e-02 3.570585e-02 3.971732e-02 4.455318e-02 5.034196e-02 5.721305e-02 6.528934e-02 7.467267e-02 8.542966e-02 9.757612e-02 1.110576e-01 1.257417e-01 1.414042e-01 1.577579e-01 1.744528e-01 1.911585e-01 2.074585e-01 2.230519e-01 2.375505e-01 2.506693e-01 2.619727e-01 2.709292e-01 2.769606e-01 2.795446e-01 2.783978e-01 2.735400e-01 2.654252e-01 2.545744e-01 2.416439e-01 2.271617e-01 2.115483e-01 1.951748e-01 1.784380e-01 1.616933e-01 1.452632e-01 1.294815e-01 1.146220e-01 1.009071e-01 8.848107e-02 7.741788e-02 6.772471e-02 5.935129e-02 5.220819e-02 4.617719e-02 4.112976e-02 3.693453e-02 3.346951e-02 3.062489e-02 2.830254e-02 2.641972e-02 2.491122e-02 2.372558e-02 2.282528e-02 2.218296e-02 2.178153e-02 
2.518123e-02 2.523777e-02 2.554341e-02 2.610750e-02 2.694579e-02 2.808408e-02 2.955770e-02 3.141616e-02 3.372302e-02 3.656056e-02 4.002941e-02 4.424669e-02 4.934325e-02 5.546573e-02 6.276674e-02 7.139488e-02 8.148018e-02 9.311462e-02 1.063348e-01 1.210933e-01 1.372435e-01 1.545222e-01 1.725726e-01 1.909930e-01 2.093938e-01 2.272872e-01 2.443619e-01 2.601781e-01 2.744842e-01 2.868604e-01 2.967344e-01 3.034542e-01 3.063927e-01 3.051645e-01 2.997944e-01 2.908526e-01 2.789336e-01 2.647780e-01 2.489672e-01 2.318993e-01 2.139700e-01 1.956550e-01 1.772945e-01 1.592322e-01 1.418720e-01 1.255366e-01 1.104953e-01 9.691376e-02 8.487576e-02 7.438262e-02 6.536691e-02 5.771723e-02 5.128922e-02 4.593125e-02 4.149038e-02 3.782924e-02 3.482293e-02 3.236403e-02 3.036357e-02 2.875368e-02 2.748147e-02 2.650986e-02 2.581207e-02 2.537227e-02 
2.929379e-02 2.934911e-02 2.967793e-02 3.028865e-02 3.119538e-02 3.242248e-02 3.400387e-02 3.598893e-02 3.844240e-02 4.145042e-02 4.512032e-02 4.958343e-02 5.498512e-02 6.149116e-02 6.927832e-02 7.852254e-02 8.938370e-02 1.019826e-01 1.163805e-01 1.325434e-01 1.503096e-01 1.693658e-01 1.892574e-01 2.095036e-01 2.296402e-01 2.490260e-01 2.673865e-01 2.843420e-01 2.998088e-01 3.134103e-01 3.243709e-01 3.318919e-01 3.352296e-01 3.338962e-01 3.279203e-01 3.180053e-01 3.048324e-01 2.894133e-01 2.724330e-01 2.541496e-01 2.348426e-01 2.149930e-01 1.949847e-01 1.751809e-01 1.560945e-01 1.381329e-01 1.216123e-01 1.067344e-01 9.359385e-02 8.219097e-02 7.243981e-02 6.420563e-02 5.731519e-02 5.159120e-02 4.685697e-02 4.295781e-02 3.975048e-02 3.711845e-02 3.496640e-02 3.322417e-02 3.183805e-02 3.077218e-02 3.000115e-02 2.951104e-02 
3.397220e-02 3.402799e-02 3.439013e-02 3.506567e-02 3.606625e-02 3.741394e-02 3.914023e-02 4.129350e-02 4.393897e-02 4.716618e-02 5.108940e-02 5.585256e-02 6.162055e-02 6.857817e-02 7.692761e-02 8.687211e-02 9.860396e-02 1.122741e-01 1.279783e-01 1.457031e-01 1.652853e-01 1.863484e-01 2.083015e-01 2.306101e-01 2.527080e-01 2.738876e-01 2.938533e-01 3.119989e-01 3.282881e-01 3.425575e-01 3.540244e-01 3.618896e-01 3.654060e-01 3.640086e-01 3.577689e-01 3.474384e-01 3.336344e-01 3.174156e-01 2.994371e-01 2.797733e-01 2.588313e-01 2.373601e-01 2.155253e-01 1.937083e-01 1.726390e-01 1.528041e-01 1.345882e-01 1.182188e-01 1.038083e-01 9.135449e-02 8.074906e-02 7.183161e-02 6.439475e-02 5.823359e-02 5.314431e-02 4.895093e-02 4.549030e-02 4.263656e-02 4.028783e-02 3.837228e-02 3.683616e-02 3.564589e-02 3.477844e-02 3.422264e-02 
3.922772e-02 3.928654e-02 3.969558e-02 4.045996e-02 4.158786e-02 4.309809e-02 4.501840e-02 4.739541e-02 5.029384e-02 5.380675e-02 5.805531e-02 6.319529e-02 6.941530e-02 7.692175e-02 8.594336e-02 9.671172e-02 1.094528e-01 1.243524e-01 1.415510e-01 1.610826e-01 1.828001e-01 2.062633e-01 2.306388e-01 2.553130e-01 2.796819e-01 3.025291e-01 3.235969e-01 3.425384e-01 3.597218e-01 3.752449e-01 3.877645e-01 3.961158e-01 3.997055e-01 3.981951e-01 3.916726e-01 3.805410e-01 3.654907e-01 3.484090e-01 3.298795e-01 3.094583e-01 2.872114e-01 2.639036e-01 2.398599e-01 2.156153e-01 1.921525e-01 1.701124e-01 1.498893e-01 1.317558e-01 1.158420e-01 1.021439e-01 9.052477e-02 8.079103e-02 7.269601e-02 6.600259e-02 6.047613e-02 5.591213e-02 5.212839e-02 4.898857e-02 4.638391e-02 4.424146e-02 4.250846e-02 4.115480e-02 4.016110e-02 3.952001e-02 
4.505394e-02 4.511965e-02 4.559328e-02 4.647737e-02 4.777551e-02 4.950207e-02 5.167969e-02 5.435237e-02 5.758369e-02 6.147059e-02 6.614224e-02 7.176861e-02 7.855932e-02 8.675291e-02 9.660791e-02 1.083850e-01 1.223472e-01 1.387146e-01 1.576887e-01 1.793613e-01 2.036550e-01 2.299703e-01 2.570723e-01 2.842693e-01 3.110651e-01 3.366829e-01 3.609573e-01 3.819764e-01 3.991300e-01 4.133193e-01 4.241971e-01 4.311427e-01 4.339562e-01 4.326431e-01 4.272682e-01 4.177541e-01 4.044195e-01 3.883253e-01 3.687898e-01 3.456355e-01 3.205877e-01 2.954101e-01 2.689419e-01 2.417151e-01 2.153904e-01 1.906968e-01 1.680560e-01 1.477866e-01 1.300541e-01 1.148587e-01 1.020158e-01 9.129381e-02 8.239442e-02 7.504640e-02 6.897158e-02 6.393793e-02 5.974098e-02 5.623275e-02 5.329696e-02 5.086004e-02 4.887134e-02 4.730565e-02 4.614877e-02 4.539833e-02 
5.142536e-02 5.150301e-02 5.206320e-02 5.310507e-02 5.462629e-02 5.663557e-02 5.914882e-02 6.220694e-02 6.587178e-02 7.024593e-02 7.546826e-02 8.172753e-02 8.925777e-02 9.833108e-02 1.092514e-01 1.223122e-01 1.378193e-01 1.560249e-01 1.771971e-01 2.015252e-01 2.290447e-01 2.589235e-01 2.893568e-01 3.197799e-01 3.500472e-01 3.772916e-01 3.999726e-01 4.167909e-01 4.284202e-01 4.364687e-01 4.417109e-01 4.447589e-01 4.458667e-01 4.451802e-01 4.427868e-01 4.382875e-01 4.311583e-01 4.209805e-01 4.064721e-01 3.864311e-01 3.614708e-01 3.333625e-01 3.029508e-01 2.726234e-01 2.430966e-01 2.153550e-01 1.897975e-01 1.668840e-01 1.469098e-01 1.298731e-01 1.155299e-01 1.035898e-01 9.369364e-02 8.552557e-02 7.875544e-02 7.312317e-02 6.839777e-02 6.441723e-02 6.105652e-02 5.824151e-02 5.592488e-02 5.408769e-02 5.272273e-02 5.183395e-02 
5.829270e-02 5.838898e-02 5.906224e-02 6.030742e-02 6.211473e-02 6.448586e-02 6.742835e-02 7.097971e-02 7.520014e-02 8.020050e-02 8.613300e-02 9.321171e-02 1.017033e-01 1.119194e-01 1.242171e-01 1.389413e-01 1.564524e-01 1.770321e-01 2.009977e-01 2.286133e-01 2.600231e-01 2.938432e-01 3.282022e-01 3.606002e-01 3.878581e-01 4.056519e-01 4.157265e-01 4.203822e-01 4.223639e-01 4.234197e-01 4.242428e-01 4.249679e-01 4.252056e-01 4.248064e-01 4.239198e-01 4.228356e-01 4.217427e-01 4.202623e-01 4.171260e-01 4.097614e-01 3.958675e-01 3.731379e-01 3.423443e-01 3.089352e-01 2.758613e-01 2.446958e-01 2.156397e-01 1.895056e-01 1.667840e-01 1.475170e-01 1.313412e-01 1.179072e-01 1.067716e-01 9.757042e-02 8.992175e-02 8.353221e-02 7.813866e-02 7.356108e-02 6.966409e-02 6.637224e-02 6.364288e-02 6.146466e-02 5.983948e-02 5.877895e-02 
6.558588e-02 6.570876e-02 6.652576e-02 6.802645e-02 7.019199e-02 7.301545e-02 7.649422e-02 8.066259e-02 8.557928e-02 9.136804e-02 9.819815e-02 1.063190e-01 1.160373e-01 1.277189e-01 1.417868e-01 1.586445e-01 1.787338e-01 2.023311e-01 2.297557e-01 2.612137e-01 2.966485e-01 3.338903e-01 3.679491e-01 3.909698e-01 4.015316e-01 4.019328e-01 3.972295e-01 3.934744e-01 3.937050e-01 3.961985e-01 3.986531e-01 4.003015e-01 4.008313e-01 4.002484e-01 3.986242e-01 3.960066e-01 3.931503e-01 3.918510e-01 3.942702e-01 3.996066e-01 4.022984e-01 3.968130e-01 3.794875e-01 3.497336e-01 3.144129e-01 2.792960e-01 2.461998e-01 2.161084e-01 1.900773e-01 1.681327e-01 1.497446e-01 1.344751e-01 1.217947e-01 1.112995e-01 1.025489e-01 9.521118e-02 8.898338e-02 8.366250e-02 7.909981e-02 7.521723e-02 7.197791e-02 6.937927e-02 6.743464e-02 6.616466e-02 
7.321175e-02 7.337085e-02 7.436591e-02 7.618009e-02 7.878347e-02 8.215878e-02 8.629128e-02 9.121226e-02 9.697958e-02 1.037350e-01 1.116694e-01 1.210762e-01 1.323077e-01 1.457898e-01 1.620204e-01 1.814764e-01 2.047045e-01 2.320198e-01 2.635734e-01 2.994686e-01 3.377652e-01 3.715087e-01 3.902607e-01 3.926675e-01 3.844719e-01 3.747982e-01 3.685569e-01 3.662497e-01 3.675553e-01 3.705193e-01 3.733785e-01 3.753517e-01 3.760159e-01 3.753297e-01 3.733651e-01 3.703383e-01 3.670551e-01 3.649064e-01 3.657674e-01 3.707818e-01 3.797479e-01 3.902132e-01 3.934881e-01 3.823058e-01 3.546918e-01 3.179808e-01 2.807416e-01 2.464618e-01 2.167563e-01 1.918034e-01 1.708335e-01 1.533680e-01 1.388124e-01 1.267352e-01 1.166370e-01 1.081401e-01 1.008965e-01 9.467218e-02 8.930317e-02 8.470594e-02 8.085123e-02 7.774617e-02 7.541816e-02 7.389840e-02 
8.106221e-02 8.126819e-02 8.247834e-02 8.466772e-02 8.779336e-02 9.182513e-02 9.673400e-02 1.025483e-01 1.093252e-01 1.172306e-01 1.264787e-01 1.374173e-01 1.504358e-01 1.660227e-01 1.847298e-01 2.071081e-01 2.338743e-01 2.652879e-01 3.013212e-01 3.402044e-01 3.737134e-01 3.887475e-01 3.846947e-01 3.710547e-01 3.574970e-01 3.473319e-01 3.413409e-01 3.397084e-01 3.417037e-01 3.452704e-01 3.487198e-01 3.511082e-01 3.519660e-01 3.511883e-01 3.488746e-01 3.453314e-01 3.414209e-01 3.385742e-01 3.387102e-01 3.433028e-01 3.521871e-01 3.650105e-01 3.800167e-01 3.898538e-01 3.834777e-01 3.566813e-01 3.184881e-01 2.801891e-01 2.466099e-01 2.184298e-01 1.945585e-01 1.745554e-01 1.577924e-01 1.438412e-01 1.321385e-01 1.222613e-01 1.138098e-01 1.065129e-01 1.001889e-01 9.474617e-02 9.016483e-02 8.646266e-02 8.368411e-02 8.187238e-02 
8.901416e-02 8.927890e-02 9.074265e-02 9.337076e-02 9.710444e-02 1.018979e-01 1.077049e-01 1.145504e-01 1.224903e-01 1.317203e-01 1.424775e-01 1.551695e-01 1.702070e-01 1.881150e-01 2.094572e-01 2.347754e-01 2.650267e-01 3.004879e-01 3.399829e-01 3.746603e-01 3.890067e-01 3.807713e-01 3.631809e-01 3.459915e-01 3.319681e-01 3.221225e-01 3.168366e-01 3.155741e-01 3.174197e-01 3.206635e-01 3.239304e-01 3.262609e-01 3.271381e-01 3.263780e-01 3.241042e-01 3.207208e-01 3.170855e-01 3.144497e-01 3.143676e-01 3.181770e-01 3.264411e-01 3.392939e-01 3.558792e-01 3.744722e-01 3.885045e-01 3.842728e-01 3.559704e-01 3.165509e-01 2.793008e-01 2.476161e-01 2.205469e-01 1.977045e-01 1.784716e-01 1.624008e-01 1.488753e-01 1.374169e-01 1.275804e-01 1.190493e-01 1.116270e-01 1.052105e-01 9.979299e-02 9.540387e-02 9.210814e-02 8.996284e-02 
9.694050e-02 9.727649e-02 9.903286e-02 1.021625e-01 1.065880e-01 1.122436e-01 1.190629e-01 1.270648e-01 1.363031e-01 1.470065e-01 1.594309e-01 1.740529e-01 1.912683e-01 2.116484e-01 2.356460e-01 2.638192e-01 2.973869e-01 3.364283e-01 3.736743e-01 3.912895e-01 3.817885e-01 3.610933e-01 3.402986e-01 3.227128e-01 3.089923e-01 2.994473e-01 2.941604e-01 2.926116e-01 2.938977e-01 2.966138e-01 2.995358e-01 3.017009e-01 3.025502e-01 3.018484e-01 2.997381e-01 2.966799e-01 2.935282e-01 2.914514e-01 2.917659e-01 2.956339e-01 3.036583e-01 3.160273e-01 3.325282e-01 3.525138e-01 3.743635e-01 3.906868e-01 3.848485e-01 3.530616e-01 3.136894e-01 2.783640e-01 2.480647e-01 2.223066e-01 2.004721e-01 1.821324e-01 1.666178e-01 1.534113e-01 1.420339e-01 1.321212e-01 1.234678e-01 1.159569e-01 1.095993e-01 1.044374e-01 1.005608e-01 9.804202e-02 
1.047097e-01 1.051304e-01 1.072176e-01 1.109086e-01 1.161034e-01 1.227113e-01 1.306422e-01 1.399050e-01 1.505484e-01 1.628355e-01 1.770330e-01 1.936995e-01 2.131814e-01 2.361291e-01 2.628275e-01 2.936279e-01 3.303783e-01 3.695320e-01 3.940181e-01 3.878716e-01 3.649633e-01 3.412343e-01 3.200576e-01 3.025403e-01 2.888974e-01 2.793020e-01 2.736622e-01 2.714114e-01 2.717556e-01 2.735295e-01 2.757142e-01 2.774193e-01 2.781122e-01 2.775368e-01 2.758434e-01 2.734870e-01 2.712539e-01 2.701553e-01 2.712891e-01 2.756312e-01 2.838090e-01 2.960833e-01 3.124083e-01 3.323610e-01 3.556128e-01 3.799577e-01 3.958840e-01 3.834675e-01 3.477920e-01 3.092154e-01 2.759169e-01 2.474922e-01 2.231710e-01 2.025604e-01 1.850040e-01 1.699493e-01 1.569264e-01 1.455179e-01 1.355262e-01 1.268186e-01 1.194312e-01 1.134207e-01 1.089055e-01 1.059766e-01 
1.121947e-01 1.127153e-01 1.151705e-01 1.194757e-01 1.255063e-01 1.331400e-01 1.422607e-01 1.528572e-01 1.649730e-01 1.788910e-01 1.948898e-01 2.135915e-01 2.352717e-01 2.607040e-01 2.898311e-01 3.234115e-01 3.621688e-01 3.945219e-01 3.977289e-01 3.749325e-01 3.484537e-01 3.243929e-01 3.033615e-01 2.858706e-01 2.720846e-01 2.619942e-01 2.555086e-01 2.521617e-01 2.512884e-01 2.519376e-01 2.532355e-01 2.543794e-01 2.548656e-01 2.544464e-01 2.532619e-01 2.517470e-01 2.506134e-01 2.507488e-01 2.530671e-01 2.583760e-01 2.671941e-01 2.797325e-01 2.960237e-01 3.158940e-01 3.391112e-01 3.648237e-01 3.906940e-01 4.008562e-01 3.781620e-01 3.397282e-01 3.034150e-01 2.728259e-01 2.460869e-01 2.232504e-01 2.036486e-01 1.867005e-01 1.719741e-01 1.589956e-01 1.475892e-01 1.376086e-01 1.291208e-01 1.222016e-01 1.170017e-01 1.136346e-01 
1.192717e-01 1.199061e-01 1.227568e-01 1.277151e-01 1.346287e-01 1.433370e-01 1.536941e-01 1.656561e-01 1.792565e-01 1.947776e-01 2.125020e-01 2.331026e-01 2.567290e-01 2.844134e-01 3.152425e-01 3.520892e-01 3.897308e-01 4.073922e-01 3.903094e-01 3.620941e-01 3.352938e-01 3.114724e-01 2.906382e-01 2.730629e-01 2.587617e-01 2.477952e-01 2.401073e-01 2.353697e-01 2.330511e-01 2.323706e-01 2.326035e-01 2.330491e-01 2.332661e-01 2.330297e-01 2.324648e-01 2.319559e-01 2.321216e-01 2.337142e-01 2.374865e-01 2.440929e-01 2.539115e-01 2.670835e-01 2.835813e-01 3.032999e-01 3.260509e-01 3.516708e-01 3.793505e-01 4.046812e-01 4.015940e-01 3.688129e-01 3.299701e-01 2.972962e-01 2.684398e-01 2.435353e-01 2.220289e-01 2.032423e-01 1.868323e-01 1.722685e-01 1.594149e-01 1.481209e-01 1.384900e-01 1.306246e-01 1.247101e-01 1.208875e-01 
1.258263e-01 1.265857e-01 1.298501e-01 1.354836e-01 1.433058e-01 1.531102e-01 1.647197e-01 1.780408e-01 1.930960e-01 2.101288e-01 2.294493e-01 2.516993e-01 2.770491e-01 3.065410e-01 3.388904e-01 3.779394e-01 4.100221e-01 4.096266e-01 3.810316e-01 3.527068e-01 3.263972e-01 3.030678e-01 2.822642e-01 2.642544e-01 2.490754e-01 2.368784e-01 2.277066e-01 2.213622e-01 2.174584e-01 2.153621e-01 2.144689e-01 2.141782e-01 2.141043e-01 2.140545e-01 2.141317e-01 2.146720e-01 2.162048e-01 2.193663e-01 2.247698e-01 2.329211e-01 2.440544e-01 2.581935e-01 2.752239e-01 2.949382e-01 3.172997e-01 3.422542e-01 3.698136e-01 4.000130e-01 4.152116e-01 3.935732e-01 3.548842e-01 3.196558e-01 2.894714e-01 2.627122e-01 2.396002e-01 2.191168e-01 2.011261e-01 1.850250e-01 1.707430e-01 1.581378e-01 1.473557e-01 1.385349e-01 1.318970e-01 1.276153e-01 
1.317518e-01 1.326424e-01 1.363244e-01 1.426338e-01 1.513610e-01 1.622507e-01 1.750914e-01 1.897265e-01 2.061642e-01 2.245667e-01 2.453028e-01 2.688586e-01 2.957106e-01 3.263706e-01 3.607441e-01 3.994919e-01 4.222867e-01 4.069594e-01 3.755788e-01 3.478770e-01 3.223164e-01 2.991693e-01 2.780867e-01 2.592497e-01 2.428622e-01 2.291769e-01 2.183462e-01 2.102756e-01 2.047179e-01 2.011632e-01 1.991150e-01 1.980652e-01 1.976880e-01 1.978222e-01 1.985511e-01 2.001577e-01 2.030863e-01 2.078675e-01 2.149960e-01 2.248320e-01 2.375016e-01 2.529187e-01 2.708763e-01 2.910060e-01 3.133343e-01 3.375892e-01 3.647341e-01 3.941214e-01 4.207694e-01 4.135388e-01 3.781079e-01 3.401873e-01 3.089737e-01 2.805334e-01 2.560059e-01 2.339946e-01 2.145366e-01 1.969869e-01 1.813279e-01 1.674518e-01 1.555425e-01 1.457862e-01 1.384374e-01 1.337069e-01 
1.369531e-01 1.379758e-01 1.420635e-01 1.490250e-01 1.586231e-01 1.705533e-01 1.845707e-01 2.004488e-01 2.181770e-01 2.378127e-01 2.597862e-01 2.843683e-01 3.124598e-01 3.438782e-01 3.806546e-01 4.172640e-01 4.285657e-01 4.042944e-01 3.746139e-01 3.475162e-01 3.226227e-01 2.992857e-01 2.775400e-01 2.575442e-01 2.397188e-01 2.243923e-01 2.118357e-01 2.020341e-01 1.948452e-01 1.898751e-01 1.867153e-01 1.849388e-01 1.842683e-01 1.845723e-01 1.859156e-01 1.885370e-01 1.928069e-01 1.991675e-01 2.080105e-01 2.195793e-01 2.339110e-01 2.508255e-01 2.700089e-01 2.909491e-01 3.135745e-01 3.374414e-01 3.637770e-01 3.912055e-01 4.219638e-01 4.276287e-01 3.974190e-01 3.582838e-01 3.260353e-01 2.964540e-01 2.707263e-01 2.474653e-01 2.266949e-01 2.078428e-01 1.909032e-01 1.758430e-01 1.628711e-01 1.522337e-01 1.442134e-01 1.390611e-01 
1.413449e-01 1.424926e-01 1.469544e-01 1.545148e-01 1.649113e-01 1.777964e-01 1.928910e-01 2.099077e-01 2.288032e-01 2.495486e-01 2.725780e-01 2.980203e-01 3.269586e-01 3.588690e-01 3.969769e-01 4.304175e-01 4.318929e-01 4.041282e-01 3.769085e-01 3.505589e-01 3.260130e-01 3.021900e-01 2.795484e-01 2.582387e-01 2.389077e-01 2.219392e-01 2.077158e-01 1.962871e-01 1.875852e-01 1.813138e-01 1.771374e-01 1.746972e-01 1.737584e-01 1.742130e-01 1.761122e-01 1.796564e-01 1.851542e-01 1.929762e-01 2.034177e-01 2.166522e-01 2.326366e-01 2.511234e-01 2.716778e-01 2.936970e-01 3.168871e-01 3.407299e-01 3.660859e-01 3.922548e-01 4.225014e-01 4.368593e-01 4.130357e-01 3.742012e-01 3.406506e-01 3.103746e-01 2.835578e-01 2.592795e-01 2.373289e-01 2.173311e-01 1.992333e-01 1.831107e-01 1.691770e-01 1.577459e-01 1.491189e-01 1.435879e-01 
1.448529e-01 1.461106e-01 1.508946e-01 1.589693e-01 1.700517e-01 1.837600e-01 1.997851e-01 2.177958e-01 2.377069e-01 2.594487e-01 2.833963e-01 3.096893e-01 3.392678e-01 3.718243e-01 4.100705e-01 4.398508e-01 4.344476e-01 4.061280e-01 3.805144e-01 3.550482e-01 3.306835e-01 3.063680e-01 2.828375e-01 2.602968e-01 2.395823e-01 2.211309e-01 2.054320e-01 1.925843e-01 1.825850e-01 1.752018e-01 1.701612e-01 1.671586e-01 1.659918e-01 1.665709e-01 1.689374e-01 1.732624e-01 1.798057e-01 1.888813e-01 2.007124e-01 2.154278e-01 2.329119e-01 2.528789e-01 2.747529e-01 2.979223e-01 3.217761e-01 3.459279e-01 3.705454e-01 3.960020e-01 4.236921e-01 4.426138e-01 4.254571e-01 3.878150e-01 3.529636e-01 3.221294e-01 2.942867e-01 2.691366e-01 2.461406e-01 2.251668e-01 2.060729e-01 1.890504e-01 1.742988e-01 1.621973e-01 1.530572e-01 1.472078e-01 
1.474142e-01 1.487585e-01 1.537920e-01 1.622649e-01 1.738782e-01 1.882279e-01 2.049790e-01 2.237776e-01 2.444934e-01 2.670609e-01 2.917539e-01 3.188520e-01 3.489312e-01 3.823003e-01 4.200137e-01 4.461432e-01 4.362322e-01 4.088297e-01 3.840054e-01 3.593348e-01 3.350287e-01 3.103735e-01 2.861381e-01 2.626341e-01 2.408223e-01 2.211999e-01 2.043449e-01 1.903964e-01 1.794016e-01 1.711669e-01 1.654666e-01 1.620350e-01 1.606945e-01 1.613673e-01 1.640891e-01 1.690095e-01 1.763534e-01 1.863927e-01 1.993059e-01 2.151945e-01 2.338827e-01 2.550691e-01 2.780314e-01 3.021928e-01 3.266388e-01 3.511953e-01 3.753434e-01 4.002467e-01 4.256667e-01 4.465492e-01 4.345353e-01 3.983163e-01 3.626117e-01 3.312715e-01 3.025495e-01 2.766634e-01 2.528101e-01 2.310644e-01 2.111893e-01 1.934728e-01 1.780914e-01 1.654771e-01 1.559448e-01 1.498532e-01 
1.489783e-01 1.503779e-01 1.555698e-01 1.642952e-01 1.762457e-01 1.910042e-01 2.082193e-01 2.275275e-01 2.487641e-01 2.718854e-01 2.970723e-01 3.247606e-01 3.551690e-01 3.892298e-01 4.262732e-01 4.497074e-01 4.373983e-01 4.111785e-01 3.866056e-01 3.624201e-01 3.380808e-01 3.132342e-01 2.885524e-01 2.644524e-01 2.419383e-01 2.215511e-01 2.039508e-01 1.892974e-01 1.776712e-01 1.688985e-01 1.627818e-01 1.590797e-01 1.576297e-01 1.583609e-01 1.613062e-01 1.666020e-01 1.744515e-01 1.851017e-01 1.987072e-01 2.153576e-01 2.348328e-01 2.568109e-01 2.804690e-01 3.052754e-01 3.301027e-01 3.549387e-01 3.788013e-01 4.032634e-01 4.273348e-01 4.490391e-01 4.402257e-01 4.052093e-01 3.690354e-01 3.372504e-01 3.078794e-01 2.814563e-01 2.570143e-01 2.347571e-01 2.143740e-01 1.962139e-01 1.804319e-01 1.674936e-01 1.577137e-01 1.514699e-01 
1.495076e-01 1.509267e-01 1.561735e-01 1.649866e-01 1.770541e-01 1.919552e-01 2.093325e-01 2.288209e-01 2.502433e-01 2.735676e-01 2.989417e-01 3.268648e-01 3.574244e-01 3.917916e-01 4.285131e-01 4.508198e-01 4.377004e-01 4.119758e-01 3.874553e-01 3.634523e-01 3.391030e-01 3.142100e-01 2.893891e-01 2.650974e-01 2.423495e-01 2.217048e-01 2.038511e-01 1.889590e-01 1.771193e-01 1.681651e-01 1.619072e-01 1.581132e-01 1.566258e-01 1.573770e-01 1.603983e-01 1.658218e-01 1.738432e-01 1.847014e-01 1.985455e-01 2.154632e-01 2.352127e-01 2.574682e-01 2.813730e-01 3.064078e-01 3.313746e-01 3.563202e-01 3.800994e-01 4.044221e-01 4.280359e-01 4.499410e-01 4.421968e-01 4.076549e-01 3.713082e-01 3.393324e-01 3.097251e-01 2.831030e-01 2.584535e-01 2.360170e-01 2.154589e-01 1.971461e-01 1.812268e-01 1.681775e-01 1.583128e-01 1.520169e-01 
1.489783e-01 1.503779e-01 1.555698e-01 1.642952e-01 1.762457e-01 1.910042e-01 2.082193e-01 2.275275e-01 2.487641e-01 2.718854e-01 2.970723e-01 3.247606e-01 3.551690e-01 3.892298e-01 4.262732e-01 4.497074e-01 4.373983e-01 4.111785e-01 3.866056e-01 3.624201e-01 3.380808e-01 3.132342e-01 2.885524e-01 2.644524e-01 2.419383e-01 2.215511e-01 2.039508e-01 1.892974e-01 1.776712e-01 1.688985e-01 1.627818e-01 1.590797e-01 1.576297e-01 1.583609e-01 1.613062e-01 1.666020e-01 1.744515e-01 1.851017e-01 1.987072e-01 2.153576e-01 2.348328e-01 2.568109e-01 2.804690e-01 3.052754e-01 3.301027e-01 3.549387e-01 3.788013e-01 4.032634e-01 4.273348e-01 4.490391e-01 4.402257e-01 4.052093e-01 3.690354e-01 3.372504e-01 3.078794e-01 2.814563e-01 2.570143e-01 2.347571e-01 2.143740e-01 1.962139e-01 1.804319e-01 1.674936e-01 1.577137e-01 1.514699e-01 
1.474142e-01 1.487585e-01 1.537920e-01 1.622649e-01 1.738782e-01 1.882279e-01 2.049790e-01 2.237776e-01 2.444934e-01 2.670609e-01 2.917539e-01 3.188520e-01 3.489312e-01 3.823003e-01 4.200137e-01 4.461432e-01 4.362322e-01 4.088297e-01 3.840054e-01 3.593348e-01 3.350287e-01 3.103735e-01 2.861381e-01 2.626341e-01 2.408223e-01 2.211999e-01 2.043449e-01 1.903964e-01 1.794016e-01 1.711669e-01 1.654666e-01 1.620350e-01 1.606945e-01 1.613673e-01 1.640891e-01 1.690095e-01 1.763534e-01 1.863927e-01 1.993059e-01 2.151945e-01 2.338827e-01 2.550691e-01 2.780314e-01 3.021928e-01 3.266388e-01 3.511953e-01 3.753434e-01 4.002467e-01 4.256667e-01 4.465492e-01 4.345353e-01 3.983163e-01 3.626117e-01 3.312715e-01 3.025495e-01 2.766634e-01 2.528101e-01 2.310644e-01 2.111893e-01 1.934728e-01 1.780914e-01 1.654771e-01 1.559448e-01 1.498532e-01 