# vtk DataFile Version 2.0
Comment goes here
ASCII

DATASET STRUCTURED_POINTS
FIELD FieldData 1
TIME 1 1 double
0.18000000
DIMENSIONS    64   64   1

ORIGIN    0.000   0.000   0.000
SPACING   0.015625 0.015625   1.000

POINT_DATA   4096
SCALARS Concentration double
LOOKUP_TABLE default

7.443812e-11 1.180805e-10 2.903088e-10 7.451906e-10 1.850952e-09 4.402855e-09 1.001618e-08 2.178356e-08 4.530535e-08 9.012427e-08 1.716247e-07 3.131029e-07 5.480811e-07 9.220520e-07 1.494783e-06 2.342294e-06 3.563748e-06 5.292463e-06 7.721328e-06 1.113912e-05 1.599154e-05 2.295780e-05 3.306218e-05 4.779189e-05 6.919265e-05 9.978661e-05 1.421289e-04 1.977515e-04 2.654894e-04 3.396645e-04 4.093228e-04 4.600364e-04 4.787747e-04 4.600422e-04 4.093323e-04 3.396740e-04 2.654968e-04 1.977551e-04 1.421293e-04 9.978467e-05 6.918957e-05 4.778860e-05 3.305927e-05 2.295557e-05 1.598998e-05 1.113818e-05 7.720815e-06 5.292250e-06 3.563689e-06 2.342316e-06 1.494825e-06 9.220933e-07 5.481110e-07 3.131227e-07 1.716363e-07 9.013070e-08 4.530871e-08 2.178524e-08 1.001699e-08 4.403231e-09 1.851121e-09 7.452620e-10 2.903379e-10 1.180907e-10 
1.195906e-10 1.889572e-10 4.617131e-10 1.177973e-09 2.907320e-09 6.868532e-09 1.551130e-08 3.347098e-08 6.903255e-08 1.361047e-07 2.567371e-07 4.636637e-07 8.029117e-07 1.335190e-06 2.137678e-06 3.303757e-06 4.949246e-06 7.223179e-06 1.033527e-05 1.459563e-05 2.048004e-05 2.871042e-05 4.036754e-05 5.701386e-05 8.079058e-05 1.143363e-04 1.603177e-04 2.203200e-04 2.930716e-04 3.725216e-04 4.470182e-04 5.012131e-04 5.212328e-04 5.012192e-04 4.470281e-04 3.725311e-04 2.930785e-04 2.203225e-04 1.603167e-04 1.143326e-04 8.078580e-05 5.700908e-05 4.036350e-05 2.870742e-05 2.047804e-05 1.459449e-05 1.033471e-05 7.223014e-06 4.949265e-06 3.303860e-06 2.137784e-06 1.335277e-06 8.029701e-07 4.637004e-07 2.567580e-07 1.361162e-07 6.903848e-08 3.347395e-08 1.551274e-08 6.869202e-09 2.907623e-09 1.178102e-09 4.617664e-10 1.889761e-10 
3.003819e-10 4.719909e-10 1.143246e-09 2.891347e-09 7.070385e-09 1.653778e-08 3.694722e-08 7.880579e-08 1.605215e-07 3.122849e-07 5.807104e-07 1.032800e-06 1.759231e-06 2.873723e-06 4.512150e-06 6.823264e-06 9.972223e-06 1.414946e-05 1.960520e-05 2.670106e-05 3.598970e-05 4.830881e-05 6.489580e-05 8.752629e-05 1.186144e-04 1.611386e-04 2.180945e-04 2.912298e-04 3.789631e-04 4.741430e-04 5.630497e-04 6.276047e-04 6.514367e-04 6.276127e-04 5.630626e-04 4.741548e-04 3.789706e-04 2.912303e-04 2.180898e-04 1.611298e-04 1.186047e-04 8.751707e-05 6.488844e-05 4.830360e-05 3.598650e-05 2.669951e-05 1.960472e-05 1.414964e-05 9.972640e-06 6.823739e-06 4.512533e-06 2.873998e-06 1.759400e-06 1.032901e-06 5.807650e-07 3.123136e-07 1.605359e-07 7.881285e-08 3.695060e-08 1.653934e-08 7.071090e-09 2.891649e-09 1.143371e-09 4.720350e-10 
7.904695e-10 1.236143e-09 2.971371e-09 7.457003e-09 1.808582e-08 4.192757e-08 9.277069e-08 1.958236e-07 3.944492e-07 7.582730e-07 1.392235e-06 2.442787e-06 4.101237e-06 6.596302e-06 1.018492e-05 1.511876e-05 2.163887e-05 2.997981e-05 4.041797e-05 5.335094e-05 6.940655e-05 8.956930e-05 1.152903e-04 1.486590e-04 1.925033e-04 2.503468e-04 3.257358e-04 4.207241e-04 5.332754e-04 6.544765e-04 7.672264e-04 8.489362e-04 8.790855e-04 8.489467e-04 7.672429e-04 6.544897e-04 5.332808e-04 4.207177e-04 3.257208e-04 2.503258e-04 1.924819e-04 1.486398e-04 1.152757e-04 8.955950e-05 6.940114e-05 5.334894e-05 4.041808e-05 2.998113e-05 2.164046e-05 1.512026e-05 1.018605e-05 6.597079e-06 4.101702e-06 2.443056e-06 1.392380e-06 7.583489e-07 3.944876e-07 1.958428e-07 9.278007e-08 4.193201e-08 1.808788e-08 7.457905e-09 2.971750e-09 1.236279e-09 
2.025472e-09 3.153709e-09 7.527208e-09 1.875385e-08 4.513163e-08 1.037410e-07 2.274325e-07 4.753127e-07 9.472717e-07 1.800430e-06 3.266211e-06 5.658507e-06 9.373857e-06 1.486456e-05 2.260884e-05 3.301707e-05 4.640792e-05 6.300087e-05 8.299376e-05 1.067013e-04 1.347217e-04 1.681356e-04 2.085901e-04 2.585376e-04 3.213127e-04 4.011817e-04 5.024842e-04 6.277979e-04 7.745827e-04 9.316191e-04 1.077215e-03 1.182574e-03 1.221437e-03 1.182590e-03 1.077239e-03 9.316356e-04 7.745844e-04 6.277785e-04 5.024503e-04 4.011379e-04 3.212702e-04 2.585006e-04 2.085635e-04 1.681189e-04 1.347140e-04 1.067005e-04 8.299689e-05 6.300600e-05 4.641296e-05 3.302143e-05 2.261194e-05 1.486660e-05 9.375034e-06 5.659167e-06 3.266556e-06 1.800608e-06 9.473608e-07 4.753570e-07 2.274544e-07 1.037515e-07 4.513658e-08 1.875605e-08 7.528144e-09 3.154047e-09 
5.012062e-09 7.771614e-09 1.842278e-08 4.557531e-08 1.088374e-07 2.480736e-07 5.388695e-07 1.115041e-06 2.198683e-06 4.131945e-06 7.407107e-06 1.267290e-05 2.072128e-05 3.241218e-05 4.859631e-05 6.989355e-05 9.662400e-05 1.287923e-04 1.662238e-04 2.088340e-04 2.568983e-04 3.114142e-04 3.741007e-04 4.477760e-04 5.363468e-04 6.450600e-04 7.793744e-04 9.427461e-04 1.132241e-03 1.333947e-03 1.520527e-03 1.655423e-03 1.705174e-03 1.655445e-03 1.520559e-03 1.333962e-03 1.132229e-03 9.426972e-04 7.793011e-04 6.449714e-04 5.362638e-04 4.477058e-04 3.740524e-04 3.113861e-04 2.568885e-04 2.088376e-04 1.662347e-04 1.288065e-04 9.663692e-05 6.990426e-05 4.860369e-05 3.241694e-05 2.072398e-05 1.267439e-05 7.407885e-06 4.132350e-06 2.198892e-06 1.115149e-06 5.389258e-07 2.481018e-07 1.088512e-07 4.558165e-08 1.842555e-08 7.772634e-09 
1.197939e-08 1.850222e-08 4.357032e-08 1.070350e-07 2.536529e-07 5.732653e-07 1.233728e-06 2.527259e-06 4.929874e-06 9.159125e-06 1.622276e-05 2.740888e-05 4.423495e-05 6.826120e-05 1.009203e-04 1.430306e-04 1.946553e-04 2.550944e-04 3.231605e-04 3.977124e-04 4.781096e-04 5.649072e-04 6.596399e-04 7.654864e-04 8.870130e-04 1.030822e-03 1.203980e-03 1.411389e-03 1.650026e-03 1.903111e-03 2.136869e-03 2.305764e-03 2.368046e-03 2.305797e-03 2.136914e-03 1.903127e-03 1.649992e-03 1.411290e-03 1.203839e-03 1.030657e-03 8.868626e-04 7.653619e-04 6.595591e-04 5.648655e-04 4.781035e-04 3.977321e-04 3.231931e-04 2.551317e-04 1.946877e-04 1.430565e-04 1.009376e-04 6.827199e-05 4.424086e-05 2.741206e-05 1.622437e-05 9.159961e-06 4.930311e-06 2.527491e-06 1.233852e-06 5.733296e-07 2.536854e-07 1.070502e-07 4.357703e-08 1.850471e-08 
2.768464e-08 4.259657e-08 9.965875e-08 2.431170e-07 5.716888e-07 1.280932e-06 2.730609e-06 5.536136e-06 1.068036e-05 1.961140e-05 3.431116e-05 5.723148e-05 9.114913e-05 1.387437e-04 2.022474e-04 2.825088e-04 3.786678e-04 4.883025e-04 6.079976e-04 7.344154e-04 8.650137e-04 9.993938e-04 1.138538e-03 1.286076e-03 1.447452e-03 1.631272e-03 1.846979e-03 2.101755e-03 2.392998e-03 2.701094e-03 2.985387e-03 3.190664e-03 3.266372e-03 3.190713e-03 2.985448e-03 2.701104e-03 2.392921e-03 2.101564e-03 1.846718e-03 1.630970e-03 1.447182e-03 1.285856e-03 1.138400e-03 9.993287e-04 8.650157e-04 7.344672e-04 6.080729e-04 4.883854e-04 3.787376e-04 2.825636e-04 2.022831e-04 1.387655e-04 9.116079e-05 5.723764e-05 3.431430e-05 1.961307e-05 1.068129e-05 5.536669e-06 2.730916e-06 1.281100e-06 5.717769e-07 2.431593e-07 9.967789e-08 4.260376e-08 
6.194981e-08 9.497013e-08 2.207718e-07 5.348072e-07 1.247723e-06 2.771070e-06 5.849705e-06 1.173434e-05 2.238088e-05 4.060138e-05 7.013946e-05 1.154605e-04 1.814040e-04 2.722843e-04 3.912415e-04 5.385814e-04 7.111050e-04 9.027567e-04 1.105872e-03 1.313174e-03 1.518827e-03 1.720902e-03 1.919396e-03 2.118740e-03 2.325752e-03 2.552174e-03 2.810950e-03 3.112637e-03 3.455674e-03 3.817822e-03 4.151636e-03 4.392446e-03 4.481330e-03 4.392528e-03 4.151738e-03 3.817840e-03 3.455543e-03 3.112316e-03 2.810508e-03 2.551656e-03 2.325295e-03 2.118364e-03 1.919170e-03 1.720805e-03 1.518855e-03 1.313298e-03 1.106041e-03 9.029388e-04 7.112564e-04 5.386983e-04 3.913164e-04 2.723282e-04 1.814266e-04 1.154720e-04 7.014520e-05 4.060448e-05 2.238269e-05 1.173543e-05 5.850372e-06 2.771449e-06 1.247927e-06 5.349072e-07 2.208175e-07 9.498731e-08 
1.343914e-07 2.052782e-07 4.741410e-07 1.140402e-06 2.639083e-06 5.807809e-06 1.213628e-05 2.407717e-05 4.538002e-05 8.129619e-05 1.386064e-04 2.250745e-04 3.486814e-04 5.158244e-04 7.301732e-04 9.901577e-04 1.287547e-03 1.609402e-03 1.940806e-03 2.268418e-03 2.581606e-03 2.876754e-03 3.152592e-03 3.415211e-03 3.673685e-03 3.944444e-03 4.245245e-03 4.591038e-03 4.981785e-03 5.392908e-03 5.771024e-03 6.043312e-03 6.144032e-03 6.043460e-03 5.771210e-03 5.392970e-03 4.981603e-03 4.590538e-03 4.244532e-03 3.943584e-03 3.672919e-03 3.414563e-03 3.152196e-03 2.876573e-03 2.581647e-03 2.268646e-03 1.941124e-03 1.609751e-03 1.287836e-03 9.903792e-04 7.303098e-04 5.159029e-04 3.487204e-04 2.250937e-04 1.386161e-04 8.130180e-05 4.538372e-05 2.407965e-05 1.213790e-05 5.808774e-06 2.639620e-06 1.140670e-06 4.742651e-07 2.053254e-07 
2.830453e-07 4.307858e-07 9.885349e-07 2.360201e-06 5.416069e-06 1.180612e-05 2.441035e-05 4.787171e-05 8.911714e-05 1.575753e-04 2.650192e-04 4.242978e-04 6.477935e-04 9.439648e-04 1.315640e-03 1.756253e-03 2.248556e-03 2.767583e-03 3.287565e-03 3.787060e-03 4.249417e-03 4.669876e-03 5.045751e-03 5.386453e-03 5.704750e-03 6.023790e-03 6.367251e-03 6.754937e-03 7.188256e-03 7.640562e-03 8.054317e-03 8.351224e-03 8.461497e-03 8.351525e-03 8.054727e-03 7.640822e-03 7.188123e-03 6.754284e-03 6.366216e-03 6.022452e-03 5.703534e-03 5.385367e-03 5.045060e-03 4.669523e-03 4.249442e-03 3.787446e-03 3.288147e-03 2.768245e-03 2.249113e-03 1.756683e-03 1.315900e-03 9.441099e-04 6.478626e-04 4.243301e-04 2.650353e-04 1.575850e-04 8.912423e-05 4.787682e-05 2.441388e-05 1.180829e-05 5.417294e-06 2.360820e-06 9.888222e-07 4.308950e-07 
5.794069e-07 8.785422e-07 2.002369e-06 4.744067e-06 1.079011e-05 2.328561e-05 4.760989e-05 9.224414e-05 1.695110e-04 2.956818e-04 4.903220e-04 7.736217e-04 1.163444e-03 1.669048e-03 2.288907e-03 3.004990e-03 3.786534e-03 4.589440e-03 5.373475e-03 6.108567e-03 6.772446e-03 7.362058e-03 7.873653e-03 8.322586e-03 8.726460e-03 9.115819e-03 9.519506e-03 9.960780e-03 1.044146e-02 1.093302e-02 1.137684e-02 1.169268e-02 1.181070e-02 1.169334e-02 1.137779e-02 1.093385e-02 1.044165e-02 9.960142e-03 9.518178e-03 9.113875e-03 8.724629e-03 8.320811e-03 7.872431e-03 7.361275e-03 6.772234e-03 6.109022e-03 5.374344e-03 4.590529e-03 3.787480e-03 3.005732e-03 2.289348e-03 1.669287e-03 1.163552e-03 7.736689e-04 4.903462e-04 2.956988e-04 1.695256e-04 9.225573e-05 4.761835e-05 2.329095e-05 1.079318e-05 4.745640e-06 2.003105e-06 8.788239e-07 
1.154236e-06 1.743242e-06 3.944586e-06 9.269141e-06 2.088346e-05 4.458983e-05 9.009757e-05 1.723578e-04 3.124893e-04 5.374854e-04 8.784772e-04 1.365462e-03 2.022026e-03 2.854413e-03 3.849869e-03 4.968529e-03 6.158580e-03 7.354457e-03 8.499712e-03 9.557664e-03 1.050168e-02 1.133403e-02 1.204877e-02 1.267081e-02 1.322355e-02 1.374426e-02 1.426348e-02 1.480392e-02 1.536517e-02 1.591623e-02 1.640074e-02 1.673957e-02 1.686708e-02 1.674109e-02 1.640302e-02 1.591856e-02 1.536642e-02 1.480385e-02 1.426215e-02 1.374171e-02 1.322105e-02 1.266809e-02 1.204674e-02 1.133243e-02 1.050082e-02 9.557991e-03 8.500911e-03 7.356197e-03 6.160191e-03 4.969818e-03 3.850662e-03 2.854842e-03 2.022217e-03 1.365541e-03 8.785176e-04 5.375158e-04 3.125183e-04 1.723820e-04 9.011577e-05 4.460153e-05 2.089025e-05 9.272631e-06 3.946219e-06 1.743866e-06 
2.239585e-06 3.367708e-06 7.560521e-06 1.760802e-05 3.926634e-05 8.288617e-05 1.653825e-04 3.121772e-04 5.581224e-04 9.463176e-04 1.524198e-03 2.333841e-03 3.402872e-03 4.726670e-03 6.269834e-03 7.956873e-03 9.703942e-03 1.142326e-02 1.305449e-02 1.455730e-02 1.590722e-02 1.712204e-02 1.819012e-02 1.914823e-02 2.002067e-02 2.084014e-02 2.162783e-02 2.239742e-02 2.314188e-02 2.382649e-02 2.440196e-02 2.479145e-02 2.493881e-02 2.479488e-02 2.440713e-02 2.383216e-02 2.314554e-02 2.239903e-02 2.162714e-02 2.083712e-02 2.001766e-02 1.914441e-02 1.818713e-02 1.711901e-02 1.590469e-02 1.455668e-02 1.305554e-02 1.142549e-02 9.706220e-03 7.958843e-03 6.271111e-03 4.727372e-03 3.403180e-03 2.333958e-03 1.524262e-03 9.463735e-04 5.581834e-04 3.122314e-04 1.654244e-04 8.291358e-05 3.928241e-05 1.761632e-05 7.564428e-06 3.369208e-06 
4.236324e-06 6.339034e-06 1.410619e-05 3.253048e-05 7.173684e-05 1.495722e-04 2.944771e-04 5.481658e-04 9.661220e-04 1.614733e-03 2.563401e-03 3.867463e-03 5.553446e-03 7.592010e-03 9.909427e-03 1.237955e-02 1.488513e-02 1.731619e-02 1.962141e-02 2.179057e-02 2.380934e-02 2.570291e-02 2.742638e-02 2.902978e-02 3.053748e-02 3.196536e-02 3.330991e-02 3.456181e-02 3.570026e-02 3.668137e-02 3.746571e-02 3.797545e-02 3.816798e-02 3.798281e-02 3.747665e-02 3.669346e-02 3.570827e-02 3.456690e-02 3.331066e-02 3.196168e-02 3.053411e-02 2.902465e-02 2.742261e-02 2.569786e-02 2.380365e-02 2.178788e-02 1.962170e-02 1.731873e-02 1.488825e-02 1.238259e-02 9.911598e-03 7.593299e-03 5.554059e-03 3.867702e-03 2.563530e-03 1.614844e-03 9.662442e-04 5.482765e-04 2.945638e-04 1.496294e-04 7.177048e-05 3.254795e-05 1.411440e-05 6.342180e-06 
7.816522e-06 1.163015e-05 2.562308e-05 5.844264e-05 1.272961e-04 2.618811e-04 5.082801e-04 9.325497e-04 1.619967e-03 2.669571e-03 4.178976e-03 6.215956e-03 8.795527e-03 1.184367e-02 1.523222e-02 1.877612e-02 2.233589e-02 2.579329e-02 2.910927e-02 3.228292e-02 3.536810e-02 3.845883e-02 4.139019e-02 4.421445e-02 4.693689e-02 4.949564e-02 5.183326e-02 5.391451e-02 5.571201e-02 5.717977e-02 5.830423e-02 5.900764e-02 5.927068e-02 5.902085e-02 5.832308e-02 5.719986e-02 5.572485e-02 5.392495e-02 5.183567e-02 4.948917e-02 4.693136e-02 4.420687e-02 4.138735e-02 3.845164e-02 3.535627e-02 3.227565e-02 2.910721e-02 2.579517e-02 2.233923e-02 1.878014e-02 1.523550e-02 1.184580e-02 8.796627e-03 6.216382e-03 4.179213e-03 2.669786e-03 1.620219e-03 9.327860e-04 5.084680e-04 2.620064e-04 1.273702e-04 5.848122e-05 2.564125e-05 1.163714e-05 
1.407554e-05 2.080541e-05 4.531453e-05 1.020840e-04 2.193373e-04 4.447385e-04 8.502625e-04 1.537039e-03 2.632043e-03 4.278693e-03 6.608630e-03 9.696044e-03 1.352592e-02 1.795488e-02 2.279070e-02 2.779693e-02 3.283906e-02 3.780999e-02 4.274630e-02 4.767784e-02 5.266783e-02 5.776589e-02 6.250876e-02 6.700779e-02 7.134265e-02 7.536635e-02 7.895495e-02 8.204935e-02 8.464112e-02 8.668667e-02 8.820586e-02 8.913304e-02 8.947284e-02 8.915220e-02 8.823223e-02 8.671175e-02 8.465532e-02 8.206484e-02 7.895660e-02 7.535097e-02 7.132774e-02 6.699252e-02 6.250976e-02 5.775800e-02 5.264589e-02 4.766449e-02 4.274267e-02 3.781153e-02 3.284250e-02 2.780226e-02 2.279586e-02 1.795871e-02 1.352818e-02 9.697012e-03 6.609151e-03 4.279121e-03 2.632525e-03 1.537495e-03 8.506268e-04 4.449838e-04 2.194823e-04 1.021598e-04 4.535018e-05 2.081911e-05 
2.474839e-05 3.630438e-05 7.804477e-05 1.733835e-04 3.669172e-04 7.322831e-04 1.377622e-03 2.452528e-03 4.139792e-03 6.640578e-03 1.012222e-02 1.465172e-02 2.015903e-02 2.641445e-02 3.317970e-02 4.019963e-02 4.740194e-02 5.470424e-02 6.210075e-02 6.948556e-02 7.696727e-02 8.465078e-02 9.164320e-02 9.820524e-02 1.044294e-01 1.098628e-01 1.143649e-01 1.180421e-01 1.210028e-01 1.232609e-01 1.248993e-01 1.258833e-01 1.262270e-01 1.258989e-01 1.249192e-01 1.232786e-01 1.210133e-01 1.180578e-01 1.143632e-01 1.098364e-01 1.043961e-01 9.818194e-02 9.166726e-02 8.464877e-02 7.692528e-02 6.946484e-02 6.209987e-02 5.470775e-02 4.740487e-02 4.020557e-02 3.318685e-02 2.642040e-02 2.016289e-02 1.465339e-02 1.012311e-02 6.641367e-03 4.140725e-03 2.453442e-03 1.378359e-03 7.327817e-04 3.672117e-04 1.735372e-04 7.811707e-05 3.633220e-05 
4.249713e-05 6.180138e-05 1.308937e-04 2.862775e-04 5.957260e-04 1.168658e-03 2.161296e-03 3.787518e-03 6.301333e-03 9.973320e-03 1.499925e-02 2.141458e-02 2.907299e-02 3.766806e-02 4.695736e-02 5.670378e-02 6.682978e-02 7.717752e-02 8.800310e-02 9.922583e-02 1.103945e-01 1.206571e-01 1.287709e-01 1.350486e-01 1.396580e-01 1.428567e-01 1.449151e-01 1.462326e-01 1.470680e-01 1.475816e-01 1.479235e-01 1.481100e-01 1.481648e-01 1.481081e-01 1.479161e-01 1.475770e-01 1.470719e-01 1.462447e-01 1.449210e-01 1.428575e-01 1.396484e-01 1.350309e-01 1.287928e-01 1.206485e-01 1.103330e-01 9.922109e-02 8.803207e-02 7.719234e-02 6.683105e-02 5.671030e-02 4.696814e-02 3.767805e-02 2.908005e-02 2.141778e-02 1.500091e-02 9.974748e-03 6.302987e-03 3.789169e-03 2.162630e-03 1.169565e-03 5.962595e-04 2.865556e-04 1.310240e-04 6.185128e-05 
7.131215e-05 1.027257e-04 2.140365e-04 4.600599e-04 9.396439e-04 1.808558e-03 3.282652e-03 5.655558e-03 9.263756e-03 1.445285e-02 2.142672e-02 3.017248e-02 4.046588e-02 5.196723e-02 6.449570e-02 7.784943e-02 9.220353e-02 1.074340e-01 1.227533e-01 1.354611e-01 1.444884e-01 1.493299e-01 1.507954e-01 1.496615e-01 1.469600e-01 1.440670e-01 1.410778e-01 1.385013e-01 1.363747e-01 1.347257e-01 1.336202e-01 1.329469e-01 1.327070e-01 1.329353e-01 1.335942e-01 1.346974e-01 1.363628e-01 1.385203e-01 1.410938e-01 1.440823e-01 1.469769e-01 1.496630e-01 1.507792e-01 1.493160e-01 1.444890e-01 1.354999e-01 1.228144e-01 1.074436e-01 9.218251e-02 7.784818e-02 6.451062e-02 5.198214e-02 4.047650e-02 3.017681e-02 2.142885e-02 1.445530e-02 9.266855e-03 5.658730e-03 3.285202e-03 1.810273e-03 9.406387e-04 4.605713e-04 2.142738e-04 1.028160e-04 
1.169217e-04 1.667532e-04 3.413540e-04 7.198619e-04 1.440125e-03 2.714060e-03 4.825652e-03 8.161884e-03 1.314722e-02 2.020157e-02 2.951912e-02 4.103528e-02 5.449012e-02 6.959312e-02 8.640365e-02 1.049737e-01 1.246010e-01 1.411240e-01 1.510523e-01 1.534243e-01 1.501276e-01 1.432113e-01 1.353354e-01 1.271193e-01 1.195643e-01 1.136474e-01 1.088728e-01 1.053028e-01 1.027016e-01 1.008641e-01 9.970723e-02 9.904393e-02 9.880708e-02 9.903150e-02 9.968248e-02 1.008423e-01 1.026884e-01 1.053081e-01 1.088701e-01 1.136546e-01 1.195859e-01 1.271610e-01 1.353493e-01 1.431734e-01 1.501667e-01 1.534880e-01 1.510493e-01 1.411138e-01 1.245690e-01 1.049847e-01 8.644636e-02 6.962312e-02 5.450838e-02 4.104218e-02 2.952236e-02 2.020587e-02 1.315258e-02 8.167370e-03 4.829998e-03 2.716948e-03 1.441765e-03 7.206905e-04 3.417339e-04 1.668956e-04 
1.873929e-04 2.648778e-04 5.328458e-04 1.100878e-03 2.152295e-03 3.960223e-03 6.876965e-03 1.138982e-02 1.800849e-02 2.723621e-02 3.926502e-02 5.406251e-02 7.138737e-02 9.118429e-02 1.136333e-01 1.360702e-01 1.505957e-01 1.536533e-01 1.472078e-01 1.356480e-01 1.227978e-01 1.106313e-01 1.005989e-01 9.244809e-02 8.595550e-02 8.113731e-02 7.748658e-02 7.488580e-02 7.305949e-02 7.180059e-02 7.100797e-02 7.055600e-02 7.039423e-02 7.054279e-02 7.098521e-02 7.178370e-02 7.304644e-02 7.488139e-02 7.747572e-02 8.113959e-02 8.597133e-02 9.249003e-02 1.006241e-01 1.106042e-01 1.228493e-01 1.357238e-01 1.471486e-01 1.536372e-01 1.506459e-01 1.361284e-01 1.137316e-01 9.123258e-02 7.140808e-02 5.406744e-02 3.926765e-02 2.724429e-02 1.801902e-02 1.140020e-02 6.884874e-03 3.965238e-03 2.155023e-03 1.102171e-03 5.334184e-04 2.650833e-04 
2.928272e-04 4.106269e-04 8.125045e-04 1.646003e-03 3.143692e-03 5.628771e-03 9.511341e-03 1.539565e-02 2.388774e-02 3.562977e-02 5.089474e-02 6.976193e-02 9.207195e-02 1.174559e-01 1.411807e-01 1.521237e-01 1.478416e-01 1.342047e-01 1.177430e-01 1.026220e-01 9.011589e-02 7.962395e-02 7.118961e-02 6.431844e-02 5.892133e-02 5.501473e-02 5.227463e-02 5.048595e-02 4.935145e-02 4.864456e-02 4.823224e-02 4.801082e-02 4.793288e-02 4.800109e-02 4.821593e-02 4.863203e-02 4.934071e-02 5.048075e-02 5.226562e-02 5.501246e-02 5.892820e-02 6.434574e-02 7.122064e-02 7.962890e-02 9.014558e-02 1.026329e-01 1.176519e-01 1.341675e-01 1.478881e-01 1.521458e-01 1.412255e-01 1.174610e-01 9.207031e-02 6.975756e-02 5.089781e-02 3.564500e-02 2.390595e-02 1.541267e-02 9.523704e-03 5.636210e-03 3.147678e-03 1.647941e-03 8.133648e-04 4.109355e-04 
4.453051e-04 6.200400e-04 1.208328e-03 2.402622e-03 4.486902e-03 7.827137e-03 1.285787e-02 2.027010e-02 3.085329e-02 4.549427e-02 6.467099e-02 8.862868e-02 1.167828e-01 1.417378e-01 1.499621e-01 1.404692e-01 1.224151e-01 1.042090e-01 8.840306e-02 7.468922e-02 6.338921e-02 5.428000e-02 4.740717e-02 4.220839e-02 3.834886e-02 3.562373e-02 3.378578e-02 3.263791e-02 3.195973e-02 3.157772e-02 3.137872e-02 3.128321e-02 3.125115e-02 3.127674e-02 3.136778e-02 3.156857e-02 3.195151e-02 3.263333e-02 3.378000e-02 3.562244e-02 3.835435e-02 4.222744e-02 4.743232e-02 5.428716e-02 6.339588e-02 7.468640e-02 8.836272e-02 1.042137e-01 1.224535e-01 1.404577e-01 1.499371e-01 1.416958e-01 1.167382e-01 8.860452e-02 6.468256e-02 4.553003e-02 3.089032e-02 2.030029e-02 1.287761e-02 7.838596e-03 4.492898e-03 2.405472e-03 1.209575e-03 6.204833e-04 
6.563435e-04 9.083161e-04 1.746123e-03 3.412408e-03 6.239268e-03 1.061947e-02 1.698527e-02 2.611376e-02 3.900068e-02 5.713163e-02 8.137613e-02 1.107735e-01 1.385197e-01 1.476015e-01 1.360928e-01 1.159956e-01 9.613910e-02 7.880915e-02 6.442912e-02 5.273081e-02 4.349582e-02 3.625982e-02 3.086501e-02 2.689734e-02 2.406456e-02 2.212831e-02 2.087732e-02 2.013145e-02 1.972499e-02 1.952576e-02 1.944338e-02 1.941505e-02 1.940724e-02 1.941133e-02 1.943697e-02 1.951992e-02 1.971962e-02 2.012826e-02 2.087423e-02 2.212787e-02 2.406817e-02 2.690816e-02 3.087954e-02 3.626599e-02 4.349787e-02 5.272839e-02 6.440945e-02 7.879857e-02 9.613984e-02 1.159550e-01 1.360673e-01 1.476159e-01 1.385529e-01 1.108486e-01 8.147035e-02 5.721117e-02 3.905935e-02 2.615606e-02 1.701224e-02 1.063461e-02 6.247016e-03 3.416020e-03 1.747699e-03 9.088763e-04 
9.358943e-04 1.289371e-03 2.452051e-03 4.721997e-03 8.475135e-03 1.410571e-02 2.202770e-02 3.314265e-02 4.878185e-02 7.129071e-02 1.017013e-01 1.323745e-01 1.463226e-01 1.360761e-01 1.144883e-01 9.304432e-02 7.464244e-02 5.959137e-02 4.749054e-02 3.777432e-02 3.017991e-02 2.432813e-02 2.001523e-02 1.691047e-02 1.475637e-02 1.332218e-02 1.242324e-02 1.190238e-02 1.163213e-02 1.151186e-02 1.147231e-02 1.146545e-02 1.146520e-02 1.146342e-02 1.146874e-02 1.150837e-02 1.162884e-02 1.190032e-02 1.242167e-02 1.332223e-02 1.475853e-02 1.691573e-02 2.002165e-02 2.433006e-02 3.017757e-02 3.776774e-02 4.747384e-02 5.957111e-02 7.461811e-02 9.299300e-02 1.144493e-01 1.360728e-01 1.463524e-01 1.324446e-01 1.017933e-01 7.139673e-02 4.887134e-02 3.320257e-02 2.206350e-02 1.412414e-02 8.483903e-03 4.725823e-03 2.453659e-03 1.289936e-03 
1.285035e-03 1.765154e-03 3.330968e-03 6.338708e-03 1.120130e-02 1.827657e-02 2.792453e-02 4.118984e-02 5.964716e-02 8.749681e-02 1.217784e-01 1.437800e-01 1.398979e-01 1.184718e-01 9.531069e-02 7.564890e-02 5.965734e-02 4.683727e-02 3.662287e-02 2.845847e-02 2.206217e-02 1.713898e-02 1.349777e-02 1.088883e-02 9.096638e-03 7.917785e-03 7.186830e-03 6.764971e-03 6.545657e-03 6.447191e-03 6.413726e-03 6.407247e-03 6.407030e-03 6.406225e-03 6.411907e-03 6.445304e-03 6.543853e-03 6.763793e-03 7.186070e-03 7.917905e-03 9.097691e-03 1.089101e-02 1.349993e-02 1.713898e-02 2.205974e-02 2.845354e-02 3.661348e-02 4.682527e-02 5.964446e-02 7.562912e-02 9.529848e-02 1.184718e-01 1.398820e-01 1.437769e-01 1.218103e-01 8.758171e-02 5.972617e-02 4.124370e-02 2.795660e-02 1.829164e-02 1.120792e-02 6.341309e-03 3.332031e-03 1.765525e-03 
1.696188e-03 2.327495e-03 4.374594e-03 8.258989e-03 1.443434e-02 2.318768e-02 3.481790e-02 5.035672e-02 7.170387e-02 1.042888e-01 1.361186e-01 1.444668e-01 1.271267e-01 1.031098e-01 8.157988e-02 6.418518e-02 5.032406e-02 3.927835e-02 3.039141e-02 2.321810e-02 1.753705e-02 1.313697e-02 9.857748e-03 7.499996e-03 5.878318e-03 4.811542e-03 4.147348e-03 3.758456e-03 3.548830e-03 3.447041e-03 3.405000e-03 3.391052e-03 3.388115e-03 3.390555e-03 3.404106e-03 3.446066e-03 3.547876e-03 3.757784e-03 4.146902e-03 4.811478e-03 5.878512e-03 7.500351e-03 9.857522e-03 1.313524e-02 1.753330e-02 2.321177e-02 3.038082e-02 3.926216e-02 5.029899e-02 6.414023e-02 8.151295e-02 1.030166e-01 1.270541e-01 1.445297e-01 1.362340e-01 1.043954e-01 7.177908e-02 5.040057e-02 3.483567e-02 2.319113e-02 1.443333e-02 8.257583e-03 4.373838e-03 2.327240e-03 
2.141824e-03 2.940177e-03 5.521499e-03 1.037516e-02 1.801029e-02 2.858704e-02 4.244776e-02 6.005496e-02 8.470013e-02 1.190878e-01 1.433311e-01 1.387426e-01 1.151913e-01 9.207097e-02 7.277500e-02 5.740686e-02 4.516612e-02 3.526384e-02 2.719292e-02 2.059485e-02 1.530340e-02 1.115588e-02 8.027597e-03 5.757805e-03 4.186082e-03 3.146754e-03 2.494101e-03 2.105499e-03 1.888315e-03 1.775375e-03 1.722053e-03 1.700043e-03 1.694227e-03 1.699815e-03 1.721639e-03 1.774902e-03 1.887839e-03 2.105129e-03 2.493806e-03 3.146567e-03 4.185839e-03 5.757384e-03 8.026522e-03 1.115382e-02 1.530005e-02 2.059001e-02 2.718597e-02 3.525437e-02 4.515327e-02 5.738738e-02 7.275294e-02 9.205312e-02 1.152169e-01 1.388130e-01 1.434672e-01 1.192620e-01 8.481048e-02 6.009626e-02 4.245220e-02 2.857793e-02 1.800101e-02 1.036922e-02 5.518589e-03 2.939116e-03 
2.581378e-03 3.547926e-03 6.669004e-03 1.250531e-02 2.161406e-02 3.405652e-02 5.013582e-02 6.962801e-02 9.680774e-02 1.297318e-01 1.456061e-01 1.309447e-01 1.066961e-01 8.518994e-02 6.789288e-02 5.394841e-02 4.271390e-02 3.346574e-02 2.583364e-02 1.952255e-02 1.440174e-02 1.033915e-02 7.238129e-03 4.965684e-03 3.380357e-03 2.326156e-03 1.659891e-03 1.258926e-03 1.029988e-03 9.063222e-04 8.440572e-04 8.161216e-04 8.082239e-04 8.160174e-04 8.438661e-04 9.060907e-04 1.029735e-03 1.258685e-03 1.659623e-03 2.325835e-03 3.379813e-03 4.964793e-03 7.236539e-03 1.033671e-02 1.439821e-02 1.951796e-02 2.582794e-02 3.345959e-02 4.270892e-02 5.394788e-02 6.790671e-02 8.522667e-02 1.067393e-01 1.309116e-01 1.455224e-01 1.296919e-01 9.680119e-02 6.959746e-02 5.009565e-02 3.402239e-02 2.159143e-02 1.249279e-02 6.663061e-03 3.545765e-03 
2.958806e-03 4.074087e-03 7.674709e-03 1.439647e-02 2.481932e-02 3.902855e-02 5.698479e-02 7.851746e-02 1.064169e-01 1.364367e-01 1.449215e-01 1.246315e-01 1.011604e-01 8.121081e-02 6.534622e-02 5.236478e-02 4.172978e-02 3.283271e-02 2.541962e-02 1.923454e-02 1.417000e-02 1.010917e-02 6.978242e-03 4.664397e-03 3.041071e-03 1.957762e-03 1.271248e-03 8.563677e-04 6.173658e-04 4.861247e-04 4.182398e-04 3.867831e-04 3.776695e-04 3.867355e-04 4.181500e-04 4.860068e-04 6.172192e-04 8.561942e-04 1.270998e-03 1.957395e-03 3.040430e-03 4.663390e-03 6.976615e-03 1.010690e-02 1.416700e-02 1.923104e-02 2.541588e-02 3.282953e-02 4.172831e-02 5.236617e-02 6.535170e-02 8.121625e-02 1.011516e-01 1.246070e-01 1.448973e-01 1.364138e-01 1.063910e-01 7.847324e-02 5.693422e-02 3.898717e-02 2.479112e-02 1.438024e-02 7.666582e-03 4.070986e-03 
3.216580e-03 4.434758e-03 8.366654e-03 1.570766e-02 2.703584e-02 4.254210e-02 6.170836e-02 8.504172e-02 1.125041e-01 1.399137e-01 1.433672e-01 1.209114e-01 9.810104e-02 7.924608e-02 6.424524e-02 5.180333e-02 4.147153e-02 3.273043e-02 2.540340e-02 1.925664e-02 1.419528e-02 1.010967e-02 6.939302e-03 4.583523e-03 2.924850e-03 1.815734e-03 1.112214e-03 6.866191e-04 4.408122e-04 3.050961e-04 2.342329e-04 2.010220e-04 1.913172e-04 2.009965e-04 2.341824e-04 3.050211e-04 4.407019e-04 6.864591e-04 1.111946e-03 1.815304e-03 2.924101e-03 4.582366e-03 6.937518e-03 1.010727e-02 1.419226e-02 1.925335e-02 2.540033e-02 3.272861e-02 4.147235e-02 5.180808e-02 6.425491e-02 7.925886e-02 9.811182e-02 1.209261e-01 1.434224e-01 1.400076e-01 1.125380e-01 8.502750e-02 6.167370e-02 4.250668e-02 2.700847e-02 1.569037e-02 8.357433e-03 4.431080e-03 
3.309136e-03 4.565294e-03 8.620143e-03 1.619487e-02 2.786515e-02 4.389041e-02 6.351169e-02 8.768027e-02 1.148733e-01 1.412034e-01 1.425804e-01 1.193607e-01 9.683108e-02 7.848542e-02 6.384144e-02 5.162154e-02 4.140356e-02 3.272005e-02 2.542215e-02 1.928733e-02 1.422517e-02 1.012860e-02 6.942251e-03 4.569912e-03 2.897671e-03 1.778910e-03 1.069312e-03 6.400919e-04 3.921450e-04 2.551118e-04 1.834159e-04 1.497259e-04 1.398623e-04 1.497068e-04 1.833768e-04 2.550508e-04 3.920491e-04 6.399452e-04 1.069057e-03 1.778496e-03 2.896950e-03 4.568812e-03 6.940580e-03 1.012640e-02 1.422247e-02 1.928449e-02 2.541966e-02 3.271886e-02 4.140483e-02 5.162664e-02 6.385219e-02 7.850530e-02 9.686518e-02 1.194185e-01 1.426497e-01 1.412521e-01 1.148765e-01 8.765717e-02 6.347285e-02 4.385355e-02 2.783614e-02 1.617652e-02 8.610227e-03 4.561304e-03 
3.216580e-03 4.434758e-03 8.366654e-03 1.570766e-02 2.703584e-02 4.254210e-02 6.170836e-02 8.504172e-02 1.125041e-01 1.399137e-01 1.433672e-01 1.209114e-01 9.810104e-02 7.924608e-02 6.424524e-02 5.180333e-02 4.147153e-02 3.273043e-02 2.540340e-02 1.925664e-02 1.419528e-02 1.010967e-02 6.939302e-03 4.583523e-03 2.924850e-03 1.815734e-03 1.112214e-03 6.866191e-04 4.408122e-04 3.050961e-04 2.342329e-04 2.010220e-04 1.913172e-04 2.009965e-04 2.341824e-04 3.050211e-04 4.407019e-04 6.864591e-04 1.111946e-03 1.815304e-03 2.924101e-03 4.582366e-03 6.937518e-03 1.010727e-02 1.419226e-02 1.925335e-02 2.540033e-02 3.272861e-02 4.147235e-02 5.180808e-02 6.425491e-02 7.925886e-02 9.811182e-02 1.209261e-01 1.434224e-01 1.400076e-01 1.125380e-01 8.502750e-02 6.167370e-02 4.250668e-02 2.700847e-02 1.569037e-02 8.357433e-03 4.431080e-03 
2.958806e-03 4.074087e-03 7.674709e-03 1.439647e-02 2.481932e-02 3.902855e-02 5.698479e-02 7.851746e-02 1.064169e-01 1.364367e-01 1.449215e-01 1.246315e-01 1.011604e-01 8.121081e-02 6.534622e-02 5.236478e-02 4.172978e-02 3.283271e-02 2.541962e-02 1.923454e-02 1.417000e-02 1.010917e-02 6.978242e-03 4.664397e-03 3.041071e-03 1.957762e-03 1.271248e-03 8.563677e-04 6.173658e-04 4.861247e-04 4.182398e-04 3.867831e-04 3.776695e-04 3.867355e-04 4.181500e-04 4.860068e-04 6.172192e-04 8.561942e-04 1.270998e-03 1.957395e-03 3.040430e-03 4.663390e-03 6.976615e-03 1.010690e-02 1.416700e-02 1.923104e-02 2.541588e-02 3.282953e-02 4.172831e-02 5.236617e-02 6.535170e-02 8.121625e-02 1.011516e-01 1.246070e-01 1.448973e-01 1.364138e-01 1.063910e-01 7.847324e-02 5.693422e-02 3.898717e-02 2.479112e-02 1.438024e-02 7.666582e-03 4.070986e-03 