# vtk DataFile Version 2.0
Comment goes here
ASCII

DATASET STRUCTURED_POINTS
FIELD FieldData 1
TIME 1 1 double
1.20000000
DIMENSIONS    64   64   1

ORIGIN    0.000   0.000   0.000
SPACING   0.015625 0.015625   1.000

POINT_DATA   4096
SCALARS Concentration double
LOOKUP_TABLE default

3.689851e-03 3.735364e-03 3.888509e-03 4.154006e-03 4.540135e-03 5.059340e-03 5.728393e-03 6.569462e-03 7.609918e-03 8.883346e-03 1.042823e-02 1.228801e-02 1.450787e-02 1.713298e-02 2.020284e-02 2.374756e-02 2.778167e-02 3.229981e-02 3.727385e-02 4.264900e-02 4.834990e-02 5.427931e-02 6.032745e-02 6.636992e-02 7.227995e-02 7.792369e-02 8.317243e-02 8.789530e-02 9.197425e-02 9.529824e-02 9.777472e-02 9.932590e-02 9.989806e-02 9.946332e-02 9.803949e-02 9.567617e-02 9.244494e-02 8.843908e-02 8.376517e-02 7.854421e-02 7.290662e-02 6.698565e-02 6.091837e-02 5.483540e-02 4.886557e-02 4.312082e-02 3.770211e-02 3.268518e-02 2.812730e-02 2.405602e-02 2.047788e-02 1.737740e-02 1.472501e-02 1.248017e-02 1.059794e-02 9.032247e-03 7.739706e-03 6.681142e-03 5.822996e-03 5.137398e-03 4.602202e-03 4.200313e-03 3.919304e-03 3.750732e-03 
3.780551e-03 3.826485e-03 3.981327e-03 4.249804e-03 4.640201e-03 5.164989e-03 5.840993e-03 6.690485e-03 7.741012e-03 9.026437e-03 1.058571e-02 1.246270e-02 1.470330e-02 1.735353e-02 2.045408e-02 2.403639e-02 2.811657e-02 3.269097e-02 3.773328e-02 4.319062e-02 4.898887e-02 5.503166e-02 6.120947e-02 6.739728e-02 7.346659e-02 7.928076e-02 8.470763e-02 8.960854e-02 9.385613e-02 9.732905e-02 9.992460e-02 1.015554e-01 1.021608e-01 1.017096e-01 1.002207e-01 9.774991e-02 9.437681e-02 9.020565e-02 8.535275e-02 7.994979e-02 7.413618e-02 6.804964e-02 6.183068e-02 5.561220e-02 4.952398e-02 4.367781e-02 3.817373e-02 3.308617e-02 2.847029e-02 2.435171e-02 2.073508e-02 1.760327e-02 1.492523e-02 1.265925e-02 1.075943e-02 9.178991e-03 7.874106e-03 6.805116e-03 5.938174e-03 5.245232e-03 4.704040e-03 4.297454e-03 4.013023e-03 3.842303e-03 
4.054149e-03 4.101348e-03 4.261312e-03 4.538778e-03 4.942046e-03 5.483679e-03 6.180653e-03 7.055565e-03 8.136461e-03 9.458029e-03 1.106042e-02 1.298900e-02 1.529168e-02 1.801722e-02 2.120970e-02 2.490464e-02 2.912287e-02 3.386578e-02 3.911240e-02 4.481509e-02 5.090354e-02 5.728349e-02 6.384624e-02 7.046416e-02 7.700377e-02 8.331880e-02 8.926473e-02 9.468198e-02 9.941827e-02 1.033226e-01 1.062636e-01 1.081257e-01 1.088282e-01 1.083301e-01 1.066537e-01 1.038724e-01 1.000893e-01 9.543966e-02 9.006766e-02 8.413446e-02 7.780279e-02 7.122656e-02 6.455790e-02 5.793654e-02 5.149595e-02 4.534720e-02 3.958836e-02 3.428944e-02 2.950004e-02 2.523979e-02 2.150797e-02 1.828234e-02 1.552756e-02 1.319833e-02 1.124588e-02 9.621342e-03 8.279323e-03 7.178934e-03 6.285481e-03 5.570414e-03 5.011158e-03 4.590430e-03 4.295697e-03 4.118519e-03 
4.516568e-03 4.565851e-03 4.734330e-03 5.026768e-03 5.451481e-03 6.021181e-03 6.753091e-03 7.670323e-03 8.801739e-03 1.018333e-02 1.185720e-02 1.387122e-02 1.627666e-02 1.912675e-02 2.247123e-02 2.635222e-02 3.079828e-02 3.581887e-02 4.140154e-02 4.750655e-02 5.407043e-02 6.100140e-02 6.819120e-02 7.550735e-02 8.280742e-02 8.992943e-02 9.670777e-02 1.029512e-01 1.084689e-01 1.130631e-01 1.165566e-01 1.187892e-01 1.196480e-01 1.190767e-01 1.171024e-01 1.138265e-01 1.093888e-01 1.039744e-01 9.777101e-02 9.098636e-02 8.381851e-02 7.644917e-02 6.904976e-02 6.177211e-02 5.475600e-02 4.811222e-02 4.193615e-02 3.629022e-02 3.121516e-02 2.672134e-02 2.279931e-02 1.941859e-02 1.653684e-02 1.410283e-02 1.206313e-02 1.036538e-02 8.961582e-03 7.808858e-03 6.871170e-03 6.119145e-03 5.529700e-03 5.085322e-03 4.773348e-03 4.585346e-03 
5.178080e-03 5.230240e-03 5.410645e-03 5.724084e-03 6.178892e-03 6.787982e-03 7.568912e-03 8.545505e-03 9.747736e-03 1.121341e-02 1.298725e-02 1.512079e-02 1.766997e-02 2.069424e-02 2.425113e-02 2.839195e-02 3.315574e-02 3.856285e-02 4.461193e-02 5.127256e-02 5.848943e-02 6.617321e-02 7.421383e-02 8.246982e-02 9.078524e-02 9.897664e-02 1.068510e-01 1.141817e-01 1.207317e-01 1.262427e-01 1.304762e-01 1.332086e-01 1.342815e-01 1.336157e-01 1.312458e-01 1.273123e-01 1.220068e-01 1.155817e-01 1.082807e-01 1.003700e-01 9.208895e-02 8.365654e-02 7.527143e-02 6.710247e-02 5.930077e-02 5.197801e-02 4.522710e-02 3.910036e-02 3.362844e-02 2.880929e-02 2.462187e-02 2.102452e-02 1.796525e-02 1.538467e-02 1.322287e-02 1.142265e-02 9.932239e-03 8.706067e-03 7.706226e-03 6.902244e-03 6.270321e-03 5.792646e-03 5.456379e-03 5.253107e-03 
6.053064e-03 6.108853e-03 6.304586e-03 6.645093e-03 7.138705e-03 7.798598e-03 8.642723e-03 9.695812e-03 1.098923e-02 1.256310e-02 1.446547e-02 1.675264e-02 1.948656e-02 2.273457e-02 2.656420e-02 3.103819e-02 3.620877e-02 4.210930e-02 4.875168e-02 5.611537e-02 6.415254e-02 7.277450e-02 8.186711e-02 9.127444e-02 1.008220e-01 1.103011e-01 1.194891e-01 1.281234e-01 1.359161e-01 1.425365e-01 1.476697e-01 1.510129e-01 1.523503e-01 1.515755e-01 1.487301e-01 1.440036e-01 1.376503e-01 1.300071e-01 1.213833e-01 1.121144e-01 1.024846e-01 9.275707e-02 8.316324e-02 7.389399e-02 6.511644e-02 5.694443e-02 4.946896e-02 4.273280e-02 3.675549e-02 3.152056e-02 2.699307e-02 2.311758e-02 1.983010e-02 1.706092e-02 1.474190e-02 1.280970e-02 1.120757e-02 9.886540e-03 8.806337e-03 7.935100e-03 7.248134e-03 6.727269e-03 6.359443e-03 6.136293e-03 
7.160210e-03 7.220357e-03 7.434930e-03 7.808786e-03 8.350236e-03 9.072747e-03 9.994739e-03 1.114203e-02 1.254769e-02 1.425463e-02 1.631494e-02 1.879109e-02 2.175229e-02 2.527567e-02 2.944084e-02 3.432450e-02 3.999435e-02 4.649885e-02 5.386425e-02 6.207957e-02 7.110237e-02 8.083911e-02 9.116430e-02 1.018993e-01 1.128434e-01 1.237593e-01 1.343959e-01 1.444695e-01 1.536568e-01 1.615475e-01 1.677350e-01 1.718066e-01 1.734668e-01 1.725684e-01 1.691662e-01 1.635173e-01 1.559633e-01 1.469473e-01 1.368475e-01 1.260637e-01 1.149142e-01 1.037104e-01 9.272319e-02 8.216917e-02 7.223925e-02 6.305276e-02 5.470468e-02 4.722898e-02 4.063500e-02 3.489064e-02 2.994529e-02 2.572757e-02 2.215898e-02 1.915750e-02 1.664478e-02 1.455009e-02 1.281022e-02 1.137212e-02 1.019262e-02 9.238196e-03 8.483058e-03 7.908639e-03 7.501621e-03 7.253727e-03 
8.521902e-03 8.587118e-03 8.824179e-03 9.237985e-03 9.836740e-03 1.063425e-02 1.164942e-02 1.290935e-02 1.444906e-02 1.631487e-02 1.856366e-02 2.126526e-02 2.449790e-02 2.835017e-02 3.291607e-02 3.828833e-02 4.455241e-02 5.177294e-02 5.999115e-02 6.920351e-02 7.936967e-02 9.038360e-02 1.021000e-01 1.143048e-01 1.267636e-01 1.392090e-01 1.513719e-01 1.629688e-01 1.736537e-01 1.829304e-01 1.902804e-01 1.951607e-01 1.971837e-01 1.961555e-01 1.921451e-01 1.854876e-01 1.766217e-01 1.661200e-01 1.544337e-01 1.420256e-01 1.292409e-01 1.164335e-01 1.039132e-01 9.192449e-02 8.068957e-02 7.033882e-02 6.097754e-02 5.263477e-02 4.531219e-02 3.896244e-02 3.351870e-02 2.889177e-02 2.498680e-02 2.170718e-02 1.896274e-02 1.667351e-02 1.476861e-02 1.319009e-02 1.189130e-02 1.083678e-02 9.999468e-03 9.360392e-03 8.905947e-03 8.628032e-03 
1.016450e-02 1.023553e-02 1.049911e-02 1.096013e-02 1.162660e-02 1.251264e-02 1.363764e-02 1.503016e-02 1.672749e-02 1.877992e-02 2.125006e-02 2.421624e-02 2.776798e-02 3.200724e-02 3.704453e-02 4.299109e-02 4.995182e-02 5.800877e-02 6.721757e-02 7.757976e-02 8.905207e-02 1.015061e-01 1.147636e-01 1.285551e-01 1.425926e-01 1.565706e-01 1.702009e-01 1.832496e-01 1.954202e-01 2.061541e-01 2.148087e-01 2.206412e-01 2.231081e-01 2.219201e-01 2.171898e-01 2.093885e-01 1.991157e-01 1.871104e-01 1.738721e-01 1.598630e-01 1.454198e-01 1.309435e-01 1.167924e-01 1.032406e-01 9.056002e-02 7.889649e-02 6.837799e-02 5.903360e-02 5.086211e-02 4.380293e-02 3.777262e-02 3.266338e-02 2.836150e-02 2.475403e-02 2.173680e-02 1.921839e-02 1.711889e-02 1.537464e-02 1.393476e-02 1.276165e-02 1.182674e-02 1.111071e-02 1.059969e-02 1.028585e-02 
1.211686e-02 1.219452e-02 1.248915e-02 1.300559e-02 1.375144e-02 1.474113e-02 1.599438e-02 1.754143e-02 1.942204e-02 2.169119e-02 2.441817e-02 2.769108e-02 3.161325e-02 3.630187e-02 4.188623e-02 4.849754e-02 5.626166e-02 6.527717e-02 7.561305e-02 8.727147e-02 1.002015e-01 1.142425e-01 1.291717e-01 1.446417e-01 1.602985e-01 1.757852e-01 1.908088e-01 2.052391e-01 2.188440e-01 2.310032e-01 2.409391e-01 2.477109e-01 2.506200e-01 2.492795e-01 2.438435e-01 2.349149e-01 2.232482e-01 2.097590e-01 1.949854e-01 1.794030e-01 1.633214e-01 1.471675e-01 1.313419e-01 1.161446e-01 1.019077e-01 8.880226e-02 7.699053e-02 6.651092e-02 5.736670e-02 4.948783e-02 4.277633e-02 3.710513e-02 3.234043e-02 2.835071e-02 2.501592e-02 2.223036e-02 1.990381e-02 1.796582e-02 1.636061e-02 1.504812e-02 1.399815e-02 1.319116e-02 1.261304e-02 1.225649e-02 
1.441044e-02 1.449573e-02 1.482686e-02 1.540848e-02 1.624752e-02 1.735853e-02 1.876139e-02 2.048809e-02 2.258115e-02 2.510095e-02 2.812456e-02 3.175136e-02 3.610080e-02 4.130829e-02 4.752340e-02 5.489925e-02 6.358256e-02 7.368844e-02 8.529678e-02 9.840879e-02 1.129639e-01 1.287639e-01 1.455350e-01 1.628193e-01 1.801667e-01 1.971325e-01 2.133219e-01 2.287786e-01 2.435179e-01 2.569591e-01 2.682509e-01 2.761589e-01 2.796438e-01 2.780758e-01 2.717335e-01 2.615248e-01 2.485110e-01 2.337976e-01 2.178154e-01 2.008768e-01 1.832082e-01 1.653557e-01 1.477975e-01 1.308423e-01 1.149194e-01 1.002222e-01 8.696336e-02 7.519890e-02 6.494236e-02 5.612039e-02 4.862053e-02 4.229787e-02 3.699585e-02 3.256338e-02 2.886038e-02 2.576502e-02 2.317468e-02 2.101112e-02 1.921271e-02 1.773678e-02 1.655136e-02 1.563690e-02 1.497927e-02 1.457192e-02 
1.707635e-02 1.717055e-02 1.754483e-02 1.820348e-02 1.915226e-02 2.040562e-02 2.198318e-02 2.391877e-02 2.625773e-02 2.906684e-02 3.243204e-02 3.646623e-02 4.130613e-02 4.710963e-02 5.404823e-02 6.229689e-02 7.202338e-02 8.335551e-02 9.638240e-02 1.111007e-01 1.274410e-01 1.451713e-01 1.639638e-01 1.832181e-01 2.023829e-01 2.209011e-01 2.383080e-01 2.548270e-01 2.705868e-01 2.849793e-01 2.971358e-01 3.057033e-01 3.095199e-01 3.078282e-01 3.009656e-01 2.899650e-01 2.759725e-01 2.601644e-01 2.428873e-01 2.245171e-01 2.052732e-01 1.857222e-01 1.663753e-01 1.475491e-01 1.297938e-01 1.133407e-01 9.846405e-02 8.524822e-02 7.372481e-02 6.382070e-02 5.541236e-02 4.833641e-02 4.241300e-02 3.746918e-02 3.333997e-02 2.988587e-02 2.698949e-02 2.456341e-02 2.253914e-02 2.087128e-02 1.952597e-02 1.848419e-02 1.773195e-02 1.726403e-02 
2.014512e-02 2.025001e-02 2.067592e-02 2.142645e-02 2.250557e-02 2.392712e-02 2.570989e-02 2.788941e-02 3.051406e-02 3.365786e-02 3.741725e-02 4.192089e-02 4.732501e-02 5.381320e-02 6.158224e-02 7.083002e-02 8.174348e-02 9.446416e-02 1.090876e-01 1.256126e-01 1.439709e-01 1.639164e-01 1.850988e-01 2.067089e-01 2.281105e-01 2.486174e-01 2.672167e-01 2.842801e-01 3.004162e-01 3.152005e-01 3.280601e-01 3.375481e-01 3.419564e-01 3.399436e-01 3.321964e-01 3.203403e-01 3.058234e-01 2.897047e-01 2.718050e-01 2.521615e-01 2.309969e-01 2.093886e-01 1.879634e-01 1.669183e-01 1.470295e-01 1.285361e-01 1.117817e-01 9.688995e-02 8.390059e-02 7.274645e-02 6.328527e-02 5.533722e-02 4.869480e-02 4.315905e-02 3.853596e-02 3.466606e-02 3.141402e-02 2.868171e-02 2.639259e-02 2.449837e-02 2.296349e-02 2.177000e-02 2.090469e-02 2.036420e-02 
2.364177e-02 2.375978e-02 2.424804e-02 2.510909e-02 2.634409e-02 2.796568e-02 2.999076e-02 3.245655e-02 3.541426e-02 3.894681e-02 4.316263e-02 4.820988e-02 5.426782e-02 6.154735e-02 7.027773e-02 8.068120e-02 9.296745e-02 1.072890e-01 1.237542e-01 1.423628e-01 1.630518e-01 1.855907e-01 2.095693e-01 2.338622e-01 2.576460e-01 2.802441e-01 3.010450e-01 3.202919e-01 3.379040e-01 3.527103e-01 3.644538e-01 3.725285e-01 3.761439e-01 3.744560e-01 3.679220e-01 3.574120e-01 3.433976e-01 3.261439e-01 3.058049e-01 2.839690e-01 2.610654e-01 2.374437e-01 2.135745e-01 1.898253e-01 1.673318e-01 1.463597e-01 1.273415e-01 1.104499e-01 9.572972e-02 8.310591e-02 7.241249e-02 6.344587e-02 5.596538e-02 4.973877e-02 4.454030e-02 4.018614e-02 3.651893e-02 3.342784e-02 3.082653e-02 2.866398e-02 2.690298e-02 2.552774e-02 2.452642e-02 2.389858e-02 
2.758534e-02 2.771987e-02 2.828433e-02 2.927950e-02 3.070253e-02 3.256374e-02 3.487700e-02 3.768075e-02 4.102925e-02 4.501577e-02 4.976379e-02 5.544503e-02 6.226762e-02 7.047587e-02 8.033413e-02 9.209942e-02 1.060119e-01 1.222486e-01 1.409339e-01 1.620826e-01 1.856121e-01 2.113097e-01 2.387173e-01 2.663104e-01 2.935873e-01 3.199368e-01 3.430197e-01 3.617042e-01 3.767241e-01 3.875029e-01 3.950218e-01 3.995466e-01 4.013003e-01 4.003642e-01 3.967475e-01 3.902449e-01 3.803850e-01 3.665423e-01 3.479722e-01 3.251839e-01 2.989899e-01 2.716987e-01 2.446406e-01 2.174836e-01 1.917161e-01 1.676256e-01 1.457388e-01 1.263781e-01 1.095489e-01 9.516605e-02 8.300738e-02 7.283675e-02 6.436572e-02 5.732678e-02 5.145367e-02 4.653246e-02 4.237847e-02 3.886504e-02 3.589424e-02 3.341205e-02 3.138016e-02 2.978611e-02 2.862065e-02 2.788733e-02 
3.198210e-02 3.213773e-02 3.279579e-02 3.395445e-02 3.560512e-02 3.775457e-02 4.041169e-02 4.361615e-02 4.742485e-02 5.194474e-02 5.731728e-02 6.374577e-02 7.147412e-02 8.079182e-02 9.201008e-02 1.054316e-01 1.213488e-01 1.399694e-01 1.614568e-01 1.857899e-01 2.128193e-01 2.423077e-01 2.736515e-01 3.052261e-01 3.346247e-01 3.585372e-01 3.742111e-01 3.836580e-01 3.887079e-01 3.910670e-01 3.922529e-01 3.926362e-01 3.925404e-01 3.923663e-01 3.919877e-01 3.909475e-01 3.888561e-01 3.847892e-01 3.766640e-01 3.630656e-01 3.414213e-01 3.131251e-01 2.821797e-01 2.509268e-01 2.211828e-01 1.932063e-01 1.677168e-01 1.452655e-01 1.258333e-01 1.092921e-01 9.535200e-02 8.372520e-02 7.406551e-02 6.605836e-02 5.938535e-02 5.379470e-02 4.906594e-02 4.505294e-02 4.164276e-02 3.877853e-02 3.642100e-02 3.456291e-02 3.319889e-02 3.233812e-02 
3.682589e-02 3.700884e-02 3.778235e-02 3.914081e-02 4.106782e-02 4.356470e-02 4.663336e-02 5.031401e-02 5.466679e-02 5.981545e-02 6.592545e-02 7.323968e-02 8.204989e-02 9.270133e-02 1.055676e-01 1.210086e-01 1.393830e-01 1.609537e-01 1.859151e-01 2.142248e-01 2.454632e-01 2.791454e-01 3.138156e-01 3.442290e-01 3.635269e-01 3.721311e-01 3.726220e-01 3.694855e-01 3.663261e-01 3.648334e-01 3.649920e-01 3.656225e-01 3.657686e-01 3.653093e-01 3.643925e-01 3.635770e-01 3.643608e-01 3.672502e-01 3.709520e-01 3.721705e-01 3.665511e-01 3.509902e-01 3.238294e-01 2.901580e-01 2.560693e-01 2.236361e-01 1.937196e-01 1.675339e-01 1.449509e-01 1.258056e-01 1.097112e-01 9.632503e-02 8.523401e-02 7.606679e-02 6.844149e-02 6.205705e-02 5.664833e-02 5.204311e-02 4.811030e-02 4.478915e-02 4.204048e-02 3.986400e-02 3.826030e-02 3.724596e-02 
4.209066e-02 4.230889e-02 4.322430e-02 4.482608e-02 4.708735e-02 5.000181e-02 5.356138e-02 5.780687e-02 6.280131e-02 6.869157e-02 7.567200e-02 8.403986e-02 9.414316e-02 1.064015e-01 1.212562e-01 1.391367e-01 1.604796e-01 1.855943e-01 2.147615e-01 2.477102e-01 2.837458e-01 3.198551e-01 3.489731e-01 3.626424e-01 3.619814e-01 3.529026e-01 3.437703e-01 3.393889e-01 3.378650e-01 3.377233e-01 3.385488e-01 3.393973e-01 3.396284e-01 3.390527e-01 3.378866e-01 3.365520e-01 3.363816e-01 3.376498e-01 3.415922e-01 3.496392e-01 3.593509e-01 3.633028e-01 3.548735e-01 3.305550e-01 2.956380e-01 2.587387e-01 2.240023e-01 1.935107e-01 1.672664e-01 1.450367e-01 1.263680e-01 1.108636e-01 9.804580e-02 8.748502e-02 7.872048e-02 7.139309e-02 6.517815e-02 5.987155e-02 5.531764e-02 5.145163e-02 4.823461e-02 4.567591e-02 4.378430e-02 4.258605e-02 
4.773361e-02 4.799725e-02 4.908624e-02 5.098270e-02 5.364622e-02 5.705989e-02 6.120242e-02 6.611448e-02 7.186278e-02 7.862297e-02 8.662696e-02 9.623741e-02 1.078716e-01 1.220231e-01 1.392046e-01 1.598814e-01 1.845626e-01 2.135818e-01 2.472098e-01 2.848204e-01 3.231446e-01 3.508816e-01 3.592762e-01 3.511650e-01 3.364550e-01 3.232875e-01 3.144805e-01 3.105259e-01 3.097606e-01 3.106911e-01 3.123798e-01 3.137987e-01 3.142781e-01 3.135627e-01 3.119206e-01 3.098615e-01 3.087222e-01 3.092342e-01 3.129697e-01 3.205600e-01 3.321687e-01 3.465744e-01 3.577852e-01 3.556240e-01 3.339135e-01 2.970625e-01 2.579431e-01 2.228998e-01 1.927084e-01 1.670308e-01 1.454284e-01 1.274577e-01 1.126092e-01 1.003988e-01 9.028810e-02 8.184817e-02 7.468492e-02 6.855234e-02 6.326577e-02 5.875433e-02 5.498098e-02 5.196706e-02 4.973272e-02 4.831634e-02 
5.368886e-02 5.401004e-02 5.530893e-02 5.755830e-02 6.070057e-02 6.470451e-02 6.953142e-02 7.522118e-02 8.184347e-02 8.961143e-02 9.879877e-02 1.098520e-01 1.232530e-01 1.395802e-01 1.593728e-01 1.831281e-01 2.113797e-01 2.445412e-01 2.826383e-01 3.222894e-01 3.514111e-01 3.571467e-01 3.437674e-01 3.247317e-01 3.079747e-01 2.950056e-01 2.868897e-01 2.836923e-01 2.835602e-01 2.850542e-01 2.870577e-01 2.886213e-01 2.891816e-01 2.884690e-01 2.867764e-01 2.845592e-01 2.829724e-01 2.828713e-01 2.857173e-01 2.925491e-01 3.039928e-01 3.193713e-01 3.376866e-01 3.539495e-01 3.557874e-01 3.335067e-01 2.950847e-01 2.556544e-01 2.211615e-01 1.917228e-01 1.668774e-01 1.461355e-01 1.289574e-01 1.148410e-01 1.031620e-01 9.342878e-02 8.516126e-02 7.806713e-02 7.192489e-02 6.665745e-02 6.223052e-02 5.868084e-02 5.604344e-02 5.437156e-02 
5.987529e-02 6.026831e-02 6.181794e-02 6.448495e-02 6.819033e-02 7.288402e-02 7.850487e-02 8.509039e-02 9.271240e-02 1.016288e-01 1.121608e-01 1.248496e-01 1.402397e-01 1.589667e-01 1.815719e-01 2.084622e-01 2.402699e-01 2.775229e-01 3.182889e-01 3.504660e-01 3.573463e-01 3.415028e-01 3.192778e-01 2.984376e-01 2.815721e-01 2.694281e-01 2.619554e-01 2.587916e-01 2.585991e-01 2.600513e-01 2.620396e-01 2.636152e-01 2.642207e-01 2.635676e-01 2.619522e-01 2.598459e-01 2.583052e-01 2.582359e-01 2.609480e-01 2.673497e-01 2.780855e-01 2.933723e-01 3.127322e-01 3.345967e-01 3.537216e-01 3.558864e-01 3.305101e-01 2.904532e-01 2.517511e-01 2.185237e-01 1.903600e-01 1.666946e-01 1.469839e-01 1.307437e-01 1.172945e-01 1.060889e-01 9.656073e-02 8.836388e-02 8.123771e-02 7.509697e-02 6.991335e-02 6.574210e-02 6.263758e-02 6.067081e-02 
6.619224e-02 6.667299e-02 6.851752e-02 7.167082e-02 7.602800e-02 8.151406e-02 8.803975e-02 9.563666e-02 1.043760e-01 1.145667e-01 1.265753e-01 1.410520e-01 1.585711e-01 1.798298e-01 2.052515e-01 2.351461e-01 2.702344e-01 3.109054e-01 3.475570e-01 3.598478e-01 3.439565e-01 3.192618e-01 2.954764e-01 2.748412e-01 2.584415e-01 2.466179e-01 2.392797e-01 2.358680e-01 2.352651e-01 2.362981e-01 2.379281e-01 2.392722e-01 2.398212e-01 2.392942e-01 2.379675e-01 2.362764e-01 2.351483e-01 2.354556e-01 2.383448e-01 2.447009e-01 2.552432e-01 2.702235e-01 2.894137e-01 3.121348e-01 3.367269e-01 3.572038e-01 3.551646e-01 3.241423e-01 2.836392e-01 2.465742e-01 2.152805e-01 1.887560e-01 1.664236e-01 1.479308e-01 1.325460e-01 1.197138e-01 1.087784e-01 9.934344e-02 9.110694e-02 8.397593e-02 7.793183e-02 7.305209e-02 6.941573e-02 6.711400e-02 
7.253062e-02 7.311726e-02 7.530364e-02 7.901481e-02 8.411472e-02 9.049692e-02 9.803695e-02 1.067565e-01 1.167203e-01 1.282938e-01 1.418790e-01 1.582528e-01 1.779759e-01 2.018182e-01 2.300416e-01 2.625819e-01 3.009366e-01 3.406647e-01 3.626309e-01 3.513296e-01 3.246457e-01 2.983651e-01 2.747819e-01 2.545932e-01 2.385250e-01 2.267769e-01 2.191326e-01 2.150418e-01 2.136340e-01 2.138876e-01 2.149002e-01 2.158532e-01 2.162804e-01 2.159134e-01 2.149978e-01 2.139374e-01 2.135485e-01 2.146244e-01 2.181475e-01 2.248881e-01 2.354755e-01 2.502322e-01 2.691199e-01 2.916301e-01 3.169785e-01 3.436878e-01 3.626651e-01 3.515990e-01 3.152335e-01 2.750970e-01 2.410165e-01 2.118491e-01 1.869462e-01 1.661486e-01 1.487244e-01 1.341393e-01 1.216721e-01 1.108746e-01 1.014108e-01 9.317815e-02 8.617418e-02 8.050090e-02 7.626752e-02 7.359016e-02 
7.876966e-02 7.948262e-02 8.206029e-02 8.640035e-02 9.233047e-02 9.970409e-02 1.083576e-01 1.182903e-01 1.295583e-01 1.425684e-01 1.577545e-01 1.760015e-01 1.978266e-01 2.240971e-01 2.547189e-01 2.897710e-01 3.299476e-01 3.620032e-01 3.623316e-01 3.360968e-01 3.071572e-01 2.807909e-01 2.576325e-01 2.378896e-01 2.219678e-01 2.099200e-01 2.016212e-01 1.965849e-01 1.941370e-01 1.934098e-01 1.936307e-01 1.940704e-01 1.943169e-01 1.941281e-01 1.937114e-01 1.934232e-01 1.939665e-01 1.960406e-01 2.004766e-01 2.079217e-01 2.189042e-01 2.336745e-01 2.522095e-01 2.743039e-01 2.993513e-01 3.270749e-01 3.555214e-01 3.668568e-01 3.431151e-01 3.033011e-01 2.663295e-01 2.352030e-01 2.078890e-01 1.848980e-01 1.654385e-01 1.490554e-01 1.349893e-01 1.227432e-01 1.119629e-01 1.025368e-01 9.448817e-02 8.794758e-02 8.306141e-02 7.997449e-02 
8.478948e-02 8.565117e-02 8.866355e-02 9.369319e-02 1.005287e-01 1.089746e-01 1.188219e-01 1.300337e-01 1.426462e-01 1.570879e-01 1.738008e-01 1.937794e-01 2.174187e-01 2.459051e-01 2.782089e-01 3.161952e-01 3.545040e-01 3.719471e-01 3.526188e-01 3.219236e-01 2.930752e-01 2.672465e-01 2.445109e-01 2.249738e-01 2.088375e-01 1.961741e-01 1.869162e-01 1.807055e-01 1.770302e-01 1.751707e-01 1.744844e-01 1.743339e-01 1.743622e-01 1.743567e-01 1.744868e-01 1.750611e-01 1.766763e-01 1.799317e-01 1.855149e-01 1.939457e-01 2.056233e-01 2.207056e-01 2.391506e-01 2.608583e-01 2.853847e-01 3.131431e-01 3.431571e-01 3.697379e-01 3.647485e-01 3.300575e-01 2.907326e-01 2.580057e-01 2.286066e-01 2.035965e-01 1.822277e-01 1.640875e-01 1.484255e-01 1.346948e-01 1.225455e-01 1.118633e-01 1.027081e-01 9.524488e-02 8.966358e-02 8.614248e-02 
9.046620e-02 9.149621e-02 9.497787e-02 1.007432e-01 1.085406e-01 1.181169e-01 1.292149e-01 1.417402e-01 1.557026e-01 1.715062e-01 1.896002e-01 2.110034e-01 2.360840e-01 2.661891e-01 2.998529e-01 3.399497e-01 3.725937e-01 3.723342e-01 3.417166e-01 3.113442e-01 2.830646e-01 2.580023e-01 2.354983e-01 2.158520e-01 1.991476e-01 1.855578e-01 1.751180e-01 1.675871e-01 1.625923e-01 1.595421e-01 1.579055e-01 1.571357e-01 1.569270e-01 1.570990e-01 1.577858e-01 1.592490e-01 1.619903e-01 1.665152e-01 1.733881e-01 1.830095e-01 1.956634e-01 2.113849e-01 2.300743e-01 2.515927e-01 2.757115e-01 3.028088e-01 3.325371e-01 3.649728e-01 3.778133e-01 3.528619e-01 3.136753e-01 2.791681e-01 2.483375e-01 2.214993e-01 1.985204e-01 1.787623e-01 1.616031e-01 1.464155e-01 1.328968e-01 1.209359e-01 1.106455e-01 1.022309e-01 9.593207e-02 9.196483e-02 
9.568298e-02 9.689525e-02 1.008659e-01 1.073909e-01 1.161790e-01 1.269136e-01 1.392878e-01 1.531309e-01 1.684195e-01 1.854786e-01 2.047732e-01 2.272063e-01 2.533127e-01 2.841320e-01 3.190726e-01 3.592338e-01 3.834544e-01 3.685699e-01 3.348033e-01 3.053492e-01 2.779030e-01 2.531643e-01 2.305424e-01 2.103334e-01 1.927126e-01 1.779398e-01 1.661519e-01 1.572151e-01 1.508621e-01 1.466102e-01 1.440220e-01 1.426334e-01 1.421836e-01 1.425233e-01 1.437554e-01 1.461012e-01 1.499781e-01 1.558105e-01 1.640567e-01 1.750188e-01 1.888807e-01 2.055590e-01 2.248837e-01 2.465887e-01 2.705981e-01 2.969161e-01 3.262312e-01 3.586110e-01 3.835582e-01 3.715242e-01 3.349748e-01 2.983505e-01 2.664026e-01 2.380264e-01 2.137766e-01 1.926394e-01 1.741411e-01 1.575866e-01 1.427440e-01 1.295264e-01 1.181086e-01 1.087457e-01 1.017304e-01 9.732008e-02 
1.003267e-01 1.017275e-01 1.061873e-01 1.134665e-01 1.232379e-01 1.351198e-01 1.487595e-01 1.638974e-01 1.804786e-01 1.987127e-01 2.190999e-01 2.423551e-01 2.693196e-01 3.005185e-01 3.368350e-01 3.750563e-01 3.889057e-01 3.653059e-01 3.329441e-01 3.039378e-01 2.771385e-01 2.522103e-01 2.290531e-01 2.078914e-01 1.891016e-01 1.729927e-01 1.597913e-01 1.494415e-01 1.417625e-01 1.363583e-01 1.328661e-01 1.308925e-01 1.302127e-01 1.307049e-01 1.324469e-01 1.356272e-01 1.405940e-01 1.477052e-01 1.573330e-01 1.697029e-01 1.849059e-01 2.027688e-01 2.230468e-01 2.452968e-01 2.694675e-01 2.952007e-01 3.236901e-01 3.539829e-01 3.849620e-01 3.854595e-01 3.531296e-01 3.147606e-01 2.819682e-01 2.526129e-01 2.274830e-01 2.052906e-01 1.856534e-01 1.678735e-01 1.517971e-01 1.373913e-01 1.248963e-01 1.146250e-01 1.069226e-01 1.020898e-01 
1.042954e-01 1.058793e-01 1.108019e-01 1.187915e-01 1.294899e-01 1.424551e-01 1.572933e-01 1.736573e-01 1.914584e-01 2.107873e-01 2.321677e-01 2.561561e-01 2.838409e-01 3.154047e-01 3.525751e-01 3.875246e-01 3.918625e-01 3.641116e-01 3.342197e-01 3.058177e-01 2.793385e-01 2.539282e-01 2.299772e-01 2.076780e-01 1.876358e-01 1.701724e-01 1.556082e-01 1.439266e-01 1.350228e-01 1.285685e-01 1.242585e-01 1.217580e-01 1.208706e-01 1.214973e-01 1.236962e-01 1.276311e-01 1.335943e-01 1.418920e-01 1.528286e-01 1.665676e-01 1.831335e-01 2.022859e-01 2.237155e-01 2.468273e-01 2.714627e-01 2.970202e-01 3.246070e-01 3.531089e-01 3.854943e-01 3.949657e-01 3.671648e-01 3.279595e-01 2.946960e-01 2.650029e-01 2.393209e-01 2.163836e-01 1.957952e-01 1.769568e-01 1.597711e-01 1.442914e-01 1.308134e-01 1.197141e-01 1.113842e-01 1.061682e-01 
1.074968e-01 1.092454e-01 1.145755e-01 1.231885e-01 1.347019e-01 1.486226e-01 1.645231e-01 1.819793e-01 2.008665e-01 2.211715e-01 2.434074e-01 2.680348e-01 2.962192e-01 3.281139e-01 3.654708e-01 3.968902e-01 3.941289e-01 3.647002e-01 3.365881e-01 3.089593e-01 2.827099e-01 2.568235e-01 2.321133e-01 2.087490e-01 1.875601e-01 1.688739e-01 1.531078e-01 1.402691e-01 1.303147e-01 1.229673e-01 1.179668e-01 1.150233e-01 1.139615e-01 1.147001e-01 1.172832e-01 1.218570e-01 1.286716e-01 1.379946e-01 1.500795e-01 1.650404e-01 1.828560e-01 2.032378e-01 2.257992e-01 2.498622e-01 2.750741e-01 3.007759e-01 3.276280e-01 3.551142e-01 3.861253e-01 4.010707e-01 3.780430e-01 3.391161e-01 3.052922e-01 2.754428e-01 2.492325e-01 2.256907e-01 2.042714e-01 1.845342e-01 1.663917e-01 1.499936e-01 1.356722e-01 1.238655e-01 1.149999e-01 1.094589e-01 
1.098527e-01 1.117327e-01 1.173832e-01 1.264858e-01 1.386404e-01 1.533165e-01 1.700603e-01 1.883905e-01 2.081464e-01 2.292423e-01 2.521466e-01 2.772956e-01 3.057766e-01 3.379591e-01 3.750241e-01 4.032379e-01 3.957105e-01 3.661413e-01 3.390455e-01 3.120720e-01 2.859563e-01 2.597216e-01 2.344177e-01 2.102154e-01 1.881209e-01 1.684686e-01 1.517627e-01 1.380290e-01 1.272677e-01 1.192380e-01 1.137121e-01 1.104324e-01 1.092385e-01 1.100617e-01 1.129370e-01 1.179984e-01 1.254669e-01 1.355828e-01 1.485638e-01 1.644931e-01 1.833143e-01 2.047056e-01 2.281992e-01 2.530860e-01 2.787807e-01 3.047368e-01 3.310199e-01 3.580781e-01 3.871064e-01 4.050938e-01 3.863683e-01 3.484352e-01 3.138683e-01 2.837576e-01 2.569423e-01 2.328619e-01 2.107365e-01 1.902851e-01 1.713863e-01 1.542757e-01 1.393003e-01 1.269488e-01 1.176708e-01 1.118810e-01 
1.112996e-01 1.132654e-01 1.191225e-01 1.285402e-01 1.411080e-01 1.562723e-01 1.735628e-01 1.924636e-01 2.127875e-01 2.344084e-01 2.577496e-01 2.832631e-01 3.119120e-01 3.443321e-01 3.809437e-01 4.068765e-01 3.967175e-01 3.674768e-01 3.407626e-01 3.142218e-01 2.881703e-01 2.617632e-01 2.361078e-01 2.113895e-01 1.887247e-01 1.684574e-01 1.511534e-01 1.368514e-01 1.255807e-01 1.171208e-01 1.112643e-01 1.077734e-01 1.064967e-01 1.073732e-01 1.104326e-01 1.158021e-01 1.236849e-01 1.343052e-01 1.478583e-01 1.644122e-01 1.838843e-01 2.059338e-01 2.300269e-01 2.554500e-01 2.814332e-01 3.075889e-01 3.335067e-01 3.603861e-01 3.879981e-01 4.075533e-01 3.917735e-01 3.548312e-01 3.196646e-01 2.892653e-01 2.619375e-01 2.374499e-01 2.148292e-01 1.939045e-01 1.745127e-01 1.569453e-01 1.415524e-01 1.288549e-01 1.193154e-01 1.133687e-01 
1.117915e-01 1.137870e-01 1.197155e-01 1.292424e-01 1.419533e-01 1.572871e-01 1.747673e-01 1.938671e-01 2.143885e-01 2.361948e-01 2.596892e-01 2.853388e-01 3.140506e-01 3.465820e-01 3.829866e-01 4.080663e-01 3.970252e-01 3.679584e-01 3.413408e-01 3.149641e-01 2.889402e-01 2.624881e-01 2.367202e-01 2.118288e-01 1.889688e-01 1.684897e-01 1.509802e-01 1.364841e-01 1.250400e-01 1.164336e-01 1.104642e-01 1.069013e-01 1.055962e-01 1.064909e-01 1.096131e-01 1.150877e-01 1.231120e-01 1.339047e-01 1.476540e-01 1.644236e-01 1.841223e-01 2.064022e-01 2.307039e-01 2.563126e-01 2.823892e-01 3.086250e-01 3.344163e-01 3.612502e-01 3.883420e-01 4.083871e-01 3.936752e-01 3.571360e-01 3.217469e-01 2.912156e-01 2.636851e-01 2.390405e-01 2.162393e-01 1.951472e-01 1.755834e-01 1.578582e-01 1.423212e-01 1.295046e-01 1.198752e-01 1.138745e-01 
1.112996e-01 1.132654e-01 1.191225e-01 1.285402e-01 1.411080e-01 1.562723e-01 1.735628e-01 1.924636e-01 2.127875e-01 2.344084e-01 2.577496e-01 2.832631e-01 3.119120e-01 3.443321e-01 3.809437e-01 4.068765e-01 3.967175e-01 3.674768e-01 3.407626e-01 3.142218e-01 2.881703e-01 2.617632e-01 2.361078e-01 2.113895e-01 1.887247e-01 1.684574e-01 1.511534e-01 1.368514e-01 1.255807e-01 1.171208e-01 1.112643e-01 1.077734e-01 1.064967e-01 1.073732e-01 1.104326e-01 1.158021e-01 1.236849e-01 1.343052e-01 1.478583e-01 1.644122e-01 1.838843e-01 2.059338e-01 2.300269e-01 2.554500e-01 2.814332e-01 3.075889e-01 3.335067e-01 3.603861e-01 3.879981e-01 4.075533e-01 3.917735e-01 3.548312e-01 3.196646e-01 2.892653e-01 2.619375e-01 2.374499e-01 2.148292e-01 1.939045e-01 1.745127e-01 1.569453e-01 1.415524e-01 1.288549e-01 1.193154e-01 1.133687e-01 
1.098527e-01 1.117327e-01 1.173832e-01 1.264858e-01 1.386404e-01 1.533165e-01 1.700603e-01 1.883905e-01 2.081464e-01 2.292423e-01 2.521466e-01 2.772956e-01 3.057766e-01 3.379591e-01 3.750241e-01 4.032379e-01 3.957105e-01 3.661413e-01 3.390455e-01 3.120720e-01 2.859563e-01 2.597216e-01 2.344177e-01 2.102154e-01 1.881209e-01 1.684686e-01 1.517627e-01 1.380290e-01 1.272677e-01 1.192380e-01 1.137121e-01 1.104324e-01 1.092385e-01 1.100617e-01 1.129370e-01 1.179984e-01 1.254669e-01 1.355828e-01 1.485638e-01 1.644931e-01 1.833143e-01 2.047056e-01 2.281992e-01 2.530860e-01 2.787807e-01 3.047368e-01 3.310199e-01 3.580781e-01 3.871064e-01 4.050938e-01 3.863683e-01 3.484352e-01 3.138683e-01 2.837576e-01 2.569423e-01 2.328619e-01 2.107365e-01 1.902851e-01 1.713863e-01 1.542757e-01 1.393003e-01 1.269488e-01 1.176708e-01 1.118810e-01 