# vtk DataFile Version 2.0
Comment goes here
ASCII

DATASET STRUCTURED_POINTS
FIELD FieldData 1
TIME 1 1 double
0.62000000
DIMENSIONS    64   64   1

ORIGIN    0.000   0.000   0.000
SPACING   0.015625 0.015625   1.000

POINT_DATA   4096
SCALARS Concentration double
LOOKUP_TABLE default

1.322565e-04 1.386600e-04 1.584511e-04 1.924110e-04 2.418724e-04 3.086745e-04 3.951376e-04 5.040280e-04 6.385878e-04 8.025699e-04 1.000424e-03 1.237513e-03 1.520549e-03 1.858036e-03 2.260849e-03 2.742665e-03 3.320082e-03 4.012204e-03 4.839502e-03 5.821957e-03 6.975573e-03 8.309148e-03 9.819449e-03 1.148865e-02 1.328097e-02 1.514361e-02 1.700787e-02 1.879407e-02 2.041714e-02 2.179236e-02 2.284240e-02 2.350311e-02 2.373015e-02 2.350716e-02 2.284987e-02 2.180204e-02 2.042822e-02 1.880575e-02 1.701957e-02 1.515517e-02 1.329198e-02 1.149933e-02 9.829652e-03 8.319183e-03 6.985423e-03 5.831772e-03 4.849238e-03 4.021826e-03 3.329493e-03 2.751745e-03 2.269490e-03 1.866110e-03 1.527973e-03 1.244206e-03 1.006353e-03 8.077148e-04 6.429705e-04 5.076779e-04 3.981109e-04 3.110265e-04 2.436660e-04 1.936993e-04 1.592809e-04 1.390642e-04 
1.422124e-04 1.490617e-04 1.702355e-04 2.065592e-04 2.594412e-04 3.308182e-04 4.231271e-04 5.392559e-04 6.825708e-04 8.569405e-04 1.066928e-03 1.318015e-03 1.617063e-03 1.972813e-03 2.396510e-03 2.902454e-03 3.508264e-03 4.234130e-03 5.101940e-03 6.133508e-03 7.346881e-03 8.752984e-03 1.035042e-02 1.212262e-02 1.403385e-02 1.602976e-02 1.803798e-02 1.997273e-02 2.174067e-02 2.324668e-02 2.440219e-02 2.513240e-02 2.538436e-02 2.513849e-02 2.441345e-02 2.326122e-02 2.175719e-02 1.998985e-02 1.805481e-02 1.604591e-02 1.404878e-02 1.213657e-02 1.036329e-02 8.765218e-03 7.358552e-03 6.144871e-03 5.113015e-03 4.244938e-03 3.518741e-03 2.912506e-03 2.406040e-03 1.981697e-03 1.625217e-03 1.325355e-03 1.073424e-03 8.625724e-04 6.873642e-04 5.432446e-04 4.263738e-04 3.333844e-04 2.613967e-04 2.079630e-04 1.711392e-04 1.495017e-04 
1.726961e-04 1.809058e-04 2.063007e-04 2.498425e-04 3.131729e-04 3.985316e-04 5.087157e-04 6.469923e-04 8.171147e-04 1.023315e-03 1.270513e-03 1.564568e-03 1.912820e-03 2.324737e-03 2.812703e-03 3.392870e-03 4.085654e-03 4.914768e-03 5.906496e-03 7.088266e-03 8.484299e-03 1.011199e-02 1.197548e-02 1.406194e-02 1.633582e-02 1.873794e-02 2.118491e-02 2.357207e-02 2.578121e-02 2.768514e-02 2.916125e-02 3.010243e-02 3.042988e-02 3.011506e-02 2.918467e-02 2.771514e-02 2.581514e-02 2.360654e-02 2.121816e-02 1.876876e-02 1.636321e-02 1.408628e-02 1.199676e-02 1.013116e-02 8.501679e-03 7.104488e-03 5.921762e-03 4.929289e-03 4.099459e-03 3.405951e-03 2.824992e-03 2.336125e-03 1.923229e-03 1.573909e-03 1.278761e-03 1.030450e-03 8.231757e-04 6.520262e-04 5.128056e-04 4.017583e-04 3.156276e-04 2.516019e-04 2.074321e-04 1.814563e-04 
2.259012e-04 2.364686e-04 2.691839e-04 3.252477e-04 4.067110e-04 5.163445e-04 6.575774e-04 8.343401e-04 1.051064e-03 1.312612e-03 1.624526e-03 1.993311e-03 2.427134e-03 2.936718e-03 3.536406e-03 4.245522e-03 5.089228e-03 6.097322e-03 7.303621e-03 8.745059e-03 1.045621e-02 1.246531e-02 1.478566e-02 1.741083e-02 2.030580e-02 2.340379e-02 2.660361e-02 2.976924e-02 3.274055e-02 3.533412e-02 3.736696e-02 3.867568e-02 3.913477e-02 3.870048e-02 3.741315e-02 3.539295e-02 3.280693e-02 2.983588e-02 2.666724e-02 2.346160e-02 2.035594e-02 1.745395e-02 1.482204e-02 1.249685e-02 1.048377e-02 8.769936e-03 7.326354e-03 6.118455e-03 5.108955e-03 4.263984e-03 3.553591e-03 2.952545e-03 2.441535e-03 2.006194e-03 1.635872e-03 1.322407e-03 1.059368e-03 8.412238e-04 6.631592e-04 5.207396e-04 4.100485e-04 3.276358e-04 2.707177e-04 2.372143e-04 
3.054845e-04 3.195416e-04 3.631020e-04 4.377256e-04 5.460807e-04 6.917372e-04 8.790790e-04 1.113037e-03 1.399065e-03 1.742979e-03 2.151255e-03 2.631377e-03 3.192765e-03 3.848035e-03 4.614481e-03 5.516134e-03 6.585013e-03 7.860368e-03 9.386798e-03 1.121482e-02 1.339346e-02 1.596595e-02 1.895773e-02 2.237083e-02 2.616987e-02 3.027709e-02 3.456571e-02 3.885481e-02 4.292665e-02 4.651670e-02 4.935660e-02 5.119988e-02 5.185087e-02 5.124370e-02 4.943854e-02 4.662040e-02 4.304356e-02 3.897161e-02 3.467704e-02 3.037748e-02 2.625560e-02 2.244317e-02 1.901734e-02 1.601652e-02 1.343664e-02 1.125302e-02 9.421032e-03 7.891682e-03 6.613852e-03 5.542861e-03 4.639171e-03 3.870650e-03 3.213265e-03 2.649666e-03 2.167332e-03 1.756832e-03 1.410792e-03 1.122741e-03 8.869351e-04 6.979123e-04 5.507621e-04 4.410704e-04 3.652477e-04 3.205839e-04 
4.164704e-04 4.353270e-04 4.938211e-04 5.940156e-04 7.394469e-04 9.348063e-04 1.185824e-03 1.498835e-03 1.880742e-03 2.338698e-03 2.880511e-03 3.515044e-03 4.253512e-03 5.111220e-03 6.109611e-03 7.279270e-03 8.661564e-03 1.030865e-02 1.227908e-02 1.464061e-02 1.745984e-02 2.079774e-02 2.469326e-02 2.915746e-02 3.415381e-02 3.959178e-02 4.531563e-02 5.109195e-02 5.663480e-02 6.156614e-02 6.549611e-02 6.806548e-02 6.897644e-02 6.813630e-02 6.562984e-02 6.173449e-02 5.682493e-02 5.128117e-02 4.549607e-02 3.975366e-02 3.429000e-02 2.927056e-02 2.478493e-02 2.087466e-02 1.752487e-02 1.469765e-02 1.232972e-02 1.035454e-02 8.703464e-03 7.317831e-03 6.145031e-03 5.143522e-03 4.282708e-03 3.541034e-03 2.903323e-03 2.358331e-03 1.897342e-03 1.512554e-03 1.196916e-03 9.435131e-04 7.460386e-04 5.987192e-04 4.968352e-04 4.367901e-04 
5.651044e-04 5.902781e-04 6.684543e-04 8.023745e-04 9.967504e-04 1.257792e-03 1.593065e-03 2.010824e-03 2.519971e-03 3.129517e-03 3.849151e-03 4.689714e-03 5.665001e-03 6.794112e-03 8.104235e-03 9.634660e-03 1.143843e-02 1.358526e-02 1.615034e-02 1.922115e-02 2.288302e-02 2.721496e-02 3.226677e-02 3.805649e-02 4.454011e-02 5.161153e-02 5.907794e-02 6.664336e-02 7.395452e-02 8.050582e-02 8.577461e-02 8.925251e-02 9.049287e-02 8.935768e-02 8.597508e-02 8.075564e-02 7.423754e-02 6.692615e-02 5.935010e-02 5.185587e-02 4.474221e-02 3.822201e-02 3.239912e-02 2.732595e-02 2.297691e-02 1.930364e-02 1.622349e-02 1.365127e-02 1.149844e-02 9.689578e-03 8.154460e-03 6.839728e-03 5.706132e-03 4.726255e-03 3.881190e-03 3.157059e-03 2.543240e-03 2.030036e-03 1.608581e-03 1.269957e-03 1.005949e-03 8.089308e-04 6.726514e-04 5.923139e-04 
7.587365e-04 7.919679e-04 8.952878e-04 1.072326e-03 1.329340e-03 1.674539e-03 2.117928e-03 2.670318e-03 3.343316e-03 4.148466e-03 5.098101e-03 6.205839e-03 7.489147e-03 8.972363e-03 1.069035e-02 1.269359e-02 1.504952e-02 1.784776e-02 2.118251e-02 2.516027e-02 2.988144e-02 3.543744e-02 4.188000e-02 4.922462e-02 5.741274e-02 6.632195e-02 7.572835e-02 8.529701e-02 9.463940e-02 1.030803e-01 1.099137e-01 1.144634e-01 1.160935e-01 1.146100e-01 1.101956e-01 1.034289e-01 9.503778e-02 8.569645e-02 7.611470e-02 6.666646e-02 5.768988e-02 4.944732e-02 4.205660e-02 3.558755e-02 3.001058e-02 2.527536e-02 2.128535e-02 1.794067e-02 1.513394e-02 1.277049e-02 1.076041e-02 9.035749e-03 7.546168e-03 6.256402e-03 5.142389e-03 4.186505e-03 3.375431e-03 2.696811e-03 2.139306e-03 1.691284e-03 1.341988e-03 1.081331e-03 9.010472e-04 7.947595e-04 
1.005573e-03 1.048818e-03 1.183432e-03 1.414181e-03 1.749315e-03 2.199626e-03 2.778303e-03 3.499533e-03 4.378565e-03 5.430421e-03 6.671177e-03 8.118454e-03 9.794994e-03 1.173238e-02 1.397570e-02 1.658927e-02 1.965724e-02 2.328853e-02 2.760015e-02 3.271232e-02 3.873269e-02 4.575431e-02 5.381566e-02 6.291850e-02 7.297051e-02 8.383755e-02 9.523990e-02 1.067694e-01 1.180355e-01 1.282820e-01 1.367335e-01 1.425075e-01 1.446198e-01 1.427013e-01 1.371050e-01 1.287293e-01 1.185498e-01 1.072940e-01 9.575470e-02 8.429153e-02 7.331943e-02 6.319274e-02 5.403285e-02 4.594586e-02 3.890357e-02 3.286848e-02 2.774175e-02 2.341693e-02 1.977403e-02 1.669514e-02 1.407181e-02 1.181898e-02 9.872717e-03 8.187232e-03 6.731361e-03 5.482065e-03 4.422137e-03 3.535449e-03 2.807259e-03 2.222283e-03 1.766410e-03 1.426339e-03 1.191199e-03 1.052579e-03 
1.314623e-03 1.370028e-03 1.542709e-03 1.838847e-03 2.269200e-03 2.847816e-03 3.591972e-03 4.520218e-03 5.652641e-03 7.008955e-03 8.610476e-03 1.048043e-02 1.264901e-02 1.515750e-02 1.806413e-02 2.144983e-02 2.541673e-02 3.009146e-02 3.560895e-02 4.209949e-02 4.966287e-02 5.837774e-02 6.824718e-02 7.923262e-02 9.119196e-02 1.039672e-01 1.172231e-01 1.305783e-01 1.437581e-01 1.557898e-01 1.656941e-01 1.725294e-01 1.750623e-01 1.727668e-01 1.661496e-01 1.563363e-01 1.444044e-01 1.312386e-01 1.178592e-01 1.045062e-01 9.157653e-02 7.952745e-02 6.848816e-02 5.860877e-02 4.988285e-02 4.230777e-02 3.580121e-02 3.026668e-02 2.557585e-02 2.159328e-02 1.819379e-02 1.527378e-02 1.275309e-02 1.057233e-02 8.690795e-03 7.077808e-03 5.710690e-03 4.568028e-03 3.630481e-03 2.877916e-03 2.291883e-03 1.854962e-03 1.552992e-03 1.375004e-03 
1.695351e-03 1.765200e-03 1.983153e-03 2.357117e-03 2.900932e-03 3.632675e-03 4.574772e-03 5.751361e-03 7.188891e-03 8.913418e-03 1.095354e-02 1.334040e-02 1.611454e-02 1.933035e-02 2.306289e-02 2.741287e-02 3.250216e-02 3.847355e-02 4.546685e-02 5.362051e-02 6.302398e-02 7.372638e-02 8.568744e-02 9.881862e-02 1.128977e-01 1.278223e-01 1.431219e-01 1.580791e-01 1.723617e-01 1.851738e-01 1.959260e-01 2.037701e-01 2.068469e-01 2.040582e-01 1.964510e-01 1.857620e-01 1.730750e-01 1.588287e-01 1.438440e-01 1.283986e-01 1.132629e-01 9.909931e-02 8.593996e-02 7.400591e-02 6.331244e-02 5.390073e-02 4.572850e-02 3.871056e-02 3.271631e-02 2.760428e-02 2.323501e-02 1.948389e-02 1.625157e-02 1.346109e-02 1.105887e-02 9.003608e-03 7.264850e-03 5.813857e-03 4.625047e-03 3.671920e-03 2.930463e-03 2.378069e-03 1.996504e-03 1.771652e-03 
2.157941e-03 2.244596e-03 2.515291e-03 2.979966e-03 3.656143e-03 4.566757e-03 5.740580e-03 7.208735e-03 9.005903e-03 1.116647e-02 1.372897e-02 1.673523e-02 2.023996e-02 2.431449e-02 2.905543e-02 3.458704e-02 4.105369e-02 4.861568e-02 5.741748e-02 6.759421e-02 7.921420e-02 9.231573e-02 1.068147e-01 1.225320e-01 1.391238e-01 1.563537e-01 1.735404e-01 1.901620e-01 2.063317e-01 2.204434e-01 2.308697e-01 2.377344e-01 2.403179e-01 2.380055e-01 2.313443e-01 2.210086e-01 2.071442e-01 1.909684e-01 1.742374e-01 1.568628e-01 1.394131e-01 1.227803e-01 1.070966e-01 9.268597e-02 7.961821e-02 6.798492e-02 5.777660e-02 4.893483e-02 4.133856e-02 3.483885e-02 2.928030e-02 2.451391e-02 2.041729e-02 1.689100e-02 1.386468e-02 1.128251e-02 9.103496e-03 7.288923e-03 5.804984e-03 4.616952e-03 3.693846e-03 3.006668e-03 2.532278e-03 2.252794e-03 
2.712845e-03 2.818656e-03 3.149499e-03 3.717615e-03 4.544793e-03 5.659644e-03 7.098569e-03 8.901282e-03 1.111289e-02 1.377867e-02 1.695037e-02 2.068432e-02 2.505405e-02 3.015334e-02 3.610629e-02 4.306679e-02 5.120677e-02 6.070747e-02 7.172440e-02 8.439647e-02 9.880021e-02 1.149613e-01 1.327764e-01 1.519254e-01 1.718657e-01 1.928561e-01 2.141458e-01 2.328050e-01 2.477287e-01 2.590246e-01 2.663359e-01 2.706171e-01 2.720977e-01 2.708343e-01 2.666338e-01 2.593364e-01 2.483978e-01 2.335259e-01 2.148284e-01 1.933660e-01 1.721782e-01 1.522452e-01 1.331837e-01 1.155194e-01 9.940099e-02 8.494658e-02 7.221381e-02 6.113034e-02 5.157926e-02 4.339234e-02 3.639520e-02 3.040818e-02 2.527987e-02 2.088213e-02 1.712234e-02 1.392544e-02 1.123608e-02 9.002313e-03 7.179534e-03 5.722609e-03 4.591975e-03 3.750958e-03 3.170665e-03 2.828854e-03 
3.371730e-03 3.498993e-03 3.897185e-03 4.581032e-03 5.577064e-03 6.920292e-03 8.656024e-03 1.083422e-02 1.351294e-02 1.675121e-02 2.061806e-02 2.518850e-02 3.056101e-02 3.685755e-02 4.423787e-02 5.289164e-02 6.302552e-02 7.484521e-02 8.852321e-02 1.042251e-01 1.220521e-01 1.421065e-01 1.642325e-01 1.882104e-01 2.130830e-01 2.370592e-01 2.562392e-01 2.680110e-01 2.741675e-01 2.771744e-01 2.779694e-01 2.778851e-01 2.777895e-01 2.779672e-01 2.779817e-01 2.771112e-01 2.743914e-01 2.683255e-01 2.566679e-01 2.376914e-01 2.137442e-01 1.888510e-01 1.649329e-01 1.429769e-01 1.229341e-01 1.049789e-01 8.916846e-02 7.539048e-02 6.350143e-02 5.330472e-02 4.460268e-02 3.717798e-02 3.084393e-02 2.543563e-02 2.083231e-02 1.693363e-02 1.366567e-02 1.095916e-02 8.755868e-03 6.997725e-03 5.634917e-03 4.621804e-03 3.922999e-03 3.511405e-03 
4.146709e-03 4.297587e-03 4.769809e-03 5.580595e-03 6.761469e-03 8.354306e-03 1.041442e-02 1.300365e-02 1.619571e-02 2.006673e-02 2.470777e-02 3.021802e-02 3.672775e-02 4.439545e-02 5.342456e-02 6.404957e-02 7.651485e-02 9.105371e-02 1.078595e-01 1.271374e-01 1.490361e-01 1.736439e-01 2.007756e-01 2.292132e-01 2.534020e-01 2.683070e-01 2.735779e-01 2.718361e-01 2.665473e-01 2.608511e-01 2.568295e-01 2.546836e-01 2.539428e-01 2.546287e-01 2.565936e-01 2.605121e-01 2.662782e-01 2.715877e-01 2.734801e-01 2.685789e-01 2.540989e-01 2.302065e-01 2.018400e-01 1.748451e-01 1.502147e-01 1.280820e-01 1.086529e-01 9.172337e-02 7.710334e-02 6.456213e-02 5.387723e-02 4.479242e-02 3.707713e-02 3.052232e-02 2.497064e-02 2.028985e-02 1.638182e-02 1.315539e-02 1.053522e-02 8.447653e-03 6.830948e-03 5.629395e-03 4.800607e-03 4.312359e-03 
5.052175e-03 5.228764e-03 5.781345e-03 6.729412e-03 8.109383e-03 9.970070e-03 1.237758e-02 1.540702e-02 1.915059e-02 2.370508e-02 2.918923e-02 3.573215e-02 4.350470e-02 5.270886e-02 6.360165e-02 7.646386e-02 9.158134e-02 1.092046e-01 1.295713e-01 1.529370e-01 1.794993e-01 2.091791e-01 2.398269e-01 2.639880e-01 2.729405e-01 2.694475e-01 2.590772e-01 2.484711e-01 2.403553e-01 2.346544e-01 2.311180e-01 2.291953e-01 2.285291e-01 2.290846e-01 2.308227e-01 2.343393e-01 2.399792e-01 2.479263e-01 2.585876e-01 2.690942e-01 2.729984e-01 2.646863e-01 2.409931e-01 2.106352e-01 1.808935e-01 1.540217e-01 1.304888e-01 1.099984e-01 9.229152e-02 7.708872e-02 6.415464e-02 5.319356e-02 4.392989e-02 3.610123e-02 2.950667e-02 2.397344e-02 1.937342e-02 1.558793e-02 1.252093e-02 1.008036e-02 8.191105e-03 6.786574e-03 5.817283e-03 5.245950e-03 
6.102942e-03 6.307283e-03 6.946163e-03 8.040746e-03 9.631730e-03 1.177428e-02 1.454545e-02 1.803457e-02 2.235492e-02 2.762784e-02 3.400588e-02 4.165543e-02 5.079706e-02 6.168591e-02 7.463762e-02 8.998475e-02 1.080420e-01 1.290907e-01 1.534372e-01 1.814475e-01 2.130820e-01 2.458086e-01 2.692268e-01 2.737433e-01 2.627804e-01 2.464140e-01 2.320732e-01 2.217702e-01 2.141405e-01 2.090821e-01 2.062928e-01 2.049309e-01 2.044797e-01 2.048233e-01 2.060387e-01 2.088039e-01 2.137447e-01 2.212995e-01 2.317170e-01 2.459412e-01 2.622682e-01 2.736485e-01 2.698220e-01 2.472122e-01 2.145276e-01 1.826261e-01 1.544679e-01 1.300219e-01 1.088903e-01 9.074006e-02 7.530698e-02 6.227240e-02 5.130910e-02 4.209787e-02 3.438410e-02 2.794583e-02 2.261737e-02 1.824645e-02 1.471237e-02 1.190199e-02 9.725829e-03 8.106233e-03 6.987145e-03 6.326812e-03 
7.316801e-03 7.551167e-03 8.282703e-03 9.533242e-03 1.134649e-02 1.378263e-02 1.692911e-02 2.088984e-02 2.580170e-02 3.181454e-02 3.912211e-02 4.793548e-02 5.853647e-02 7.123891e-02 8.642248e-02 1.044589e-01 1.256805e-01 1.503878e-01 1.790528e-01 2.119249e-01 2.471594e-01 2.721554e-01 2.740284e-01 2.578054e-01 2.370812e-01 2.189399e-01 2.049053e-01 1.954868e-01 1.892469e-01 1.855109e-01 1.836008e-01 1.827624e-01 1.824960e-01 1.826783e-01 1.834161e-01 1.853034e-01 1.889662e-01 1.951769e-01 2.046253e-01 2.185315e-01 2.364873e-01 2.570903e-01 2.737192e-01 2.727631e-01 2.485285e-01 2.132807e-01 1.802789e-01 1.515044e-01 1.266951e-01 1.053652e-01 8.722471e-02 7.194070e-02 5.914590e-02 4.845906e-02 3.956651e-02 3.218566e-02 2.610578e-02 2.113364e-02 1.711979e-02 1.392753e-02 1.145251e-02 9.606564e-03 8.328327e-03 7.572815e-03 
8.710198e-03 8.977296e-03 9.808768e-03 1.122553e-02 1.327220e-02 1.601151e-02 1.953970e-02 2.397456e-02 2.947860e-02 3.623388e-02 4.448328e-02 5.449074e-02 6.661126e-02 8.122348e-02 9.876793e-02 1.196477e-01 1.441584e-01 1.726755e-01 2.059961e-01 2.430284e-01 2.722104e-01 2.759056e-01 2.571618e-01 2.323785e-01 2.102231e-01 1.927053e-01 1.799114e-01 1.715446e-01 1.662866e-01 1.633958e-01 1.620518e-01 1.615622e-01 1.614184e-01 1.615038e-01 1.619282e-01 1.632490e-01 1.660908e-01 1.713185e-01 1.796758e-01 1.923365e-01 2.096549e-01 2.315445e-01 2.563329e-01 2.755277e-01 2.729575e-01 2.444645e-01 2.074918e-01 1.740101e-01 1.453597e-01 1.207261e-01 9.972343e-02 8.205903e-02 6.733210e-02 5.510542e-02 4.499997e-02 3.666148e-02 2.982557e-02 2.425025e-02 1.975329e-02 1.617238e-02 1.338884e-02 1.130554e-02 9.858190e-03 9.000619e-03 
1.030123e-02 1.060478e-02 1.154607e-02 1.314299e-02 1.543797e-02 1.849284e-02 2.240974e-02 2.731901e-02 3.341030e-02 4.090204e-02 5.009504e-02 6.131457e-02 7.500271e-02 9.160284e-02 1.116168e-01 1.354504e-01 1.632877e-01 1.957557e-01 2.336752e-01 2.682844e-01 2.785515e-01 2.601946e-01 2.326256e-01 2.068320e-01 1.854129e-01 1.689696e-01 1.572272e-01 1.496990e-01 1.452072e-01 1.429157e-01 1.419474e-01 1.416707e-01 1.416008e-01 1.416345e-01 1.418729e-01 1.428228e-01 1.450816e-01 1.495363e-01 1.570155e-01 1.686243e-01 1.848870e-01 2.060642e-01 2.316904e-01 2.591952e-01 2.782939e-01 2.693121e-01 2.353332e-01 1.972753e-01 1.646428e-01 1.366960e-01 1.127347e-01 9.258567e-02 7.584810e-02 6.202993e-02 5.068996e-02 4.138880e-02 3.380049e-02 2.762535e-02 2.264415e-02 1.866727e-02 1.556292e-02 1.322776e-02 1.159793e-02 1.062908e-02 
1.210144e-02 1.244658e-02 1.351134e-02 1.530774e-02 1.787186e-02 2.125957e-02 2.557463e-02 3.095685e-02 3.762366e-02 4.583247e-02 5.595102e-02 6.837011e-02 8.363549e-02 1.022437e-01 1.247729e-01 1.516064e-01 1.826510e-01 2.193531e-01 2.581265e-01 2.796809e-01 2.676205e-01 2.382389e-01 2.091075e-01 1.838955e-01 1.634430e-01 1.480055e-01 1.371156e-01 1.301166e-01 1.259758e-01 1.238839e-01 1.230044e-01 1.227622e-01 1.227040e-01 1.227397e-01 1.229580e-01 1.238199e-01 1.258827e-01 1.299769e-01 1.369081e-01 1.476654e-01 1.629245e-01 1.831501e-01 2.081291e-01 2.370740e-01 2.666199e-01 2.798536e-01 2.595515e-01 2.210209e-01 1.841519e-01 1.530346e-01 1.260770e-01 1.034007e-01 8.462727e-02 6.920128e-02 5.663232e-02 4.638141e-02 3.805639e-02 3.129102e-02 2.582596e-02 2.144348e-02 1.800140e-02 1.539431e-02 1.356363e-02 1.247090e-02 
1.411934e-02 1.451354e-02 1.572177e-02 1.774674e-02 2.061286e-02 2.436391e-02 2.909930e-02 3.496446e-02 4.220413e-02 5.111743e-02 6.214650e-02 7.574985e-02 9.259072e-02 1.131886e-01 1.382586e-01 1.679962e-01 2.023358e-01 2.423916e-01 2.747994e-01 2.759777e-01 2.483313e-01 2.168807e-01 1.882164e-01 1.640004e-01 1.445713e-01 1.299362e-01 1.195483e-01 1.127673e-01 1.086861e-01 1.065516e-01 1.055892e-01 1.052754e-01 1.051922e-01 1.052605e-01 1.055577e-01 1.065011e-01 1.086045e-01 1.126307e-01 1.193295e-01 1.295829e-01 1.440466e-01 1.632610e-01 1.872566e-01 2.157347e-01 2.471185e-01 2.753102e-01 2.756001e-01 2.440104e-01 2.040131e-01 1.695969e-01 1.397722e-01 1.145474e-01 9.375585e-02 7.671577e-02 6.292459e-02 5.173226e-02 4.267818e-02 3.532253e-02 2.936227e-02 2.455191e-02 2.074223e-02 1.783149e-02 1.577221e-02 1.453693e-02 
1.634787e-02 1.680195e-02 1.818198e-02 2.047680e-02 2.369262e-02 2.785347e-02 3.304580e-02 3.941450e-02 4.722684e-02 5.682555e-02 6.872981e-02 8.346948e-02 1.018344e-01 1.242955e-01 1.518179e-01 1.838405e-01 2.217339e-01 2.610446e-01 2.803285e-01 2.626069e-01 2.291815e-01 1.978787e-01 1.703588e-01 1.472459e-01 1.287268e-01 1.146274e-01 1.044616e-01 9.762854e-02 9.335598e-02 9.096471e-02 8.976340e-02 8.927959e-02 8.913694e-02 8.926640e-02 8.973449e-02 9.091287e-02 9.326762e-02 9.747690e-02 1.042175e-01 1.142450e-01 1.281705e-01 1.464789e-01 1.693755e-01 1.966862e-01 2.278552e-01 2.613100e-01 2.803439e-01 2.624743e-01 2.236038e-01 1.856340e-01 1.535775e-01 1.258899e-01 1.031918e-01 8.457507e-02 6.959948e-02 5.749502e-02 4.772836e-02 3.978215e-02 3.330710e-02 2.803408e-02 2.381255e-02 2.055285e-02 1.822607e-02 1.682226e-02 
1.876921e-02 1.929753e-02 2.088612e-02 2.350580e-02 2.713698e-02 3.177524e-02 3.748309e-02 4.439688e-02 5.279780e-02 6.307244e-02 7.581058e-02 9.162354e-02 1.113985e-01 1.355783e-01 1.652527e-01 1.991557e-01 2.396182e-01 2.737399e-01 2.763228e-01 2.464460e-01 2.130722e-01 1.823960e-01 1.560879e-01 1.338677e-01 1.159741e-01 1.021116e-01 9.189049e-02 8.478916e-02 8.014983e-02 7.737358e-02 7.584522e-02 7.514011e-02 7.492023e-02 7.512552e-02 7.581258e-02 7.731299e-02 8.004632e-02 8.461534e-02 9.161617e-02 1.016949e-01 1.153813e-01 1.330673e-01 1.550748e-01 1.811825e-01 2.117400e-01 2.450673e-01 2.756815e-01 2.747105e-01 2.414380e-01 2.010964e-01 1.672534e-01 1.374331e-01 1.129560e-01 9.286561e-02 7.675747e-02 6.377738e-02 5.330561e-02 4.475364e-02 3.772423e-02 3.193277e-02 2.723494e-02 2.356382e-02 2.091764e-02 1.931150e-02 
2.134002e-02 2.195967e-02 2.380139e-02 2.681349e-02 3.094264e-02 3.614656e-02 4.245069e-02 4.997233e-02 5.899196e-02 6.993736e-02 8.344691e-02 1.002350e-01 1.211962e-01 1.468976e-01 1.780882e-01 2.138259e-01 2.545826e-01 2.798172e-01 2.670519e-01 2.320334e-01 1.997585e-01 1.702535e-01 1.450132e-01 1.235550e-01 1.060204e-01 9.216977e-02 8.169238e-02 7.416741e-02 6.903917e-02 6.578702e-02 6.386931e-02 6.290532e-02 6.259572e-02 6.288771e-02 6.383004e-02 6.571522e-02 6.891935e-02 7.397318e-02 8.139378e-02 9.172870e-02 1.054036e-01 1.227370e-01 1.439910e-01 1.690554e-01 1.984410e-01 2.306278e-01 2.657751e-01 2.800447e-01 2.562217e-01 2.160299e-01 1.803860e-01 1.490051e-01 1.229122e-01 1.015626e-01 8.442108e-02 7.063250e-02 5.946676e-02 5.028490e-02 4.264437e-02 3.625927e-02 3.100210e-02 2.684157e-02 2.381267e-02 2.196348e-02 
2.400070e-02 2.473068e-02 2.687550e-02 3.035694e-02 3.508061e-02 4.095716e-02 4.796087e-02 5.617685e-02 6.586561e-02 7.748603e-02 9.169925e-02 1.093327e-01 1.312301e-01 1.581844e-01 1.903287e-01 2.275590e-01 2.662158e-01 2.804942e-01 2.567471e-01 2.212557e-01 1.897845e-01 1.616082e-01 1.371600e-01 1.162024e-01 9.875332e-02 8.469605e-02 7.379532e-02 6.573071e-02 6.003483e-02 5.625806e-02 5.392248e-02 5.268576e-02 5.228221e-02 5.266507e-02 5.387681e-02 5.617671e-02 5.990271e-02 6.552336e-02 7.348383e-02 8.424384e-02 9.812412e-02 1.153644e-01 1.360931e-01 1.603241e-01 1.882979e-01 2.196507e-01 2.550670e-01 2.802392e-01 2.678476e-01 2.302291e-01 1.929261e-01 1.604514e-01 1.329913e-01 1.106444e-01 9.261709e-02 7.810436e-02 6.625402e-02 5.640287e-02 4.807391e-02 4.099959e-02 3.508270e-02 3.034183e-02 2.685808e-02 2.472019e-02 
2.666343e-02 2.752237e-02 3.001928e-02 3.404644e-02 3.946288e-02 4.612434e-02 5.394115e-02 6.295118e-02 7.337396e-02 8.568043e-02 1.005322e-01 1.188627e-01 1.414752e-01 1.694139e-01 2.023020e-01 2.405878e-01 2.748740e-01 2.777248e-01 2.472934e-01 2.134255e-01 1.827801e-01 1.557984e-01 1.319505e-01 1.112888e-01 9.374119e-02 7.933991e-02 6.791858e-02 5.925351e-02 5.295483e-02 4.863571e-02 4.587514e-02 4.436362e-02 4.386639e-02 4.434097e-02 4.582581e-02 4.855024e-02 5.281978e-02 5.904798e-02 6.761686e-02 7.890888e-02 9.314417e-02 1.104875e-01 1.309092e-01 1.545030e-01 1.812222e-01 2.117064e-01 2.454719e-01 2.771099e-01 2.762434e-01 2.430846e-01 2.046071e-01 1.713756e-01 1.429688e-01 1.199438e-01 1.012495e-01 8.612047e-02 7.360377e-02 6.303766e-02 5.393477e-02 4.606808e-02 3.938740e-02 3.397427e-02 2.996453e-02 2.749337e-02 
2.922645e-02 3.022905e-02 3.311662e-02 3.775081e-02 4.394143e-02 5.148434e-02 6.021629e-02 7.011204e-02 8.132832e-02 9.431623e-02 1.097131e-01 1.285134e-01 1.515166e-01 1.799257e-01 2.131652e-01 2.517131e-01 2.808313e-01 2.742214e-01 2.404344e-01 2.083380e-01 1.786593e-01 1.525577e-01 1.290782e-01 1.084822e-01 9.067609e-02 7.582190e-02 6.381968e-02 5.452812e-02 4.762370e-02 4.277220e-02 3.960043e-02 3.782602e-02 3.724002e-02 3.780290e-02 3.955087e-02 4.268887e-02 4.749627e-02 5.434108e-02 6.355401e-02 7.545243e-02 9.017437e-02 1.078142e-01 1.282116e-01 1.514692e-01 1.773427e-01 2.068523e-01 2.388171e-01 2.732322e-01 2.816248e-01 2.535730e-01 2.148052e-01 1.812819e-01 1.525221e-01 1.291966e-01 1.101088e-01 9.448905e-02 8.133528e-02 7.001195e-02 6.005654e-02 5.130493e-02 4.377127e-02 3.761002e-02 3.301742e-02 3.017806e-02 
3.156947e-02 3.272202e-02 3.601673e-02 4.128534e-02 4.828991e-02 5.676548e-02 6.647240e-02 7.730950e-02 8.935645e-02 1.030080e-01 1.188632e-01 1.379120e-01 1.610149e-01 1.893839e-01 2.226485e-01 2.607562e-01 2.847824e-01 2.710383e-01 2.362986e-01 2.054347e-01 1.767148e-01 1.511646e-01 1.278674e-01 1.071735e-01 8.902960e-02 7.369050e-02 6.111394e-02 5.122566e-02 4.375598e-02 3.841442e-02 3.486726e-02 3.285445e-02 3.218869e-02 3.283253e-02 3.482119e-02 3.833966e-02 4.364645e-02 5.107286e-02 6.090838e-02 7.341883e-02 8.867835e-02 1.067202e-01 1.272935e-01 1.504390e-01 1.758292e-01 2.043662e-01 2.350685e-01 2.698400e-01 2.849790e-01 2.620999e-01 2.237798e-01 1.901751e-01 1.615004e-01 1.381338e-01 1.188726e-01 1.028581e-01 8.909798e-02 7.699143e-02 6.613714e-02 5.644758e-02 4.801484e-02 4.106930e-02 3.586913e-02 3.264717e-02 
3.357060e-02 3.486625e-02 3.854933e-02 4.442494e-02 5.221294e-02 6.159221e-02 7.225139e-02 8.400879e-02 9.686250e-02 1.111238e-01 1.273490e-01 1.464756e-01 1.694847e-01 1.975171e-01 2.306796e-01 2.679254e-01 2.872177e-01 2.685537e-01 2.342520e-01 2.041038e-01 1.762219e-01 1.510005e-01 1.277729e-01 1.068932e-01 8.839291e-02 7.258721e-02 5.948668e-02 4.906815e-02 4.110471e-02 3.534022e-02 3.147153e-02 2.925601e-02 2.852300e-02 2.923624e-02 3.143098e-02 3.527732e-02 4.101802e-02 4.895644e-02 5.935084e-02 7.242669e-02 8.821103e-02 1.066811e-01 1.275267e-01 1.506811e-01 1.758083e-01 2.035035e-01 2.334730e-01 2.674887e-01 2.871280e-01 2.689394e-01 2.314619e-01 1.978392e-01 1.694909e-01 1.462469e-01 1.269690e-01 1.106440e-01 9.633245e-02 8.346876e-02 7.173895e-02 6.113561e-02 5.183361e-02 4.413454e-02 3.835408e-02 3.476790e-02 
3.511017e-02 3.652637e-02 4.053652e-02 4.692449e-02 5.537717e-02 6.552738e-02 7.700538e-02 8.955649e-02 1.031076e-01 1.178804e-01 1.343963e-01 1.535199e-01 1.763742e-01 2.040083e-01 2.370364e-01 2.732459e-01 2.887003e-01 2.670542e-01 2.335560e-01 2.037139e-01 1.764116e-01 1.513479e-01 1.281354e-01 1.070668e-01 8.826955e-02 7.208816e-02 5.857676e-02 4.774738e-02 3.940408e-02 3.331596e-02 2.920190e-02 2.683221e-02 2.604830e-02 2.681493e-02 2.916751e-02 3.326550e-02 3.934032e-02 4.767547e-02 5.850679e-02 7.203065e-02 8.824263e-02 1.070732e-01 1.281846e-01 1.513953e-01 1.764270e-01 2.035620e-01 2.331955e-01 2.662442e-01 2.885457e-01 2.741047e-01 2.376155e-01 2.040151e-01 1.760207e-01 1.529346e-01 1.336941e-01 1.171214e-01 1.023447e-01 8.882549e-02 7.634049e-02 6.495175e-02 5.490866e-02 4.657069e-02 4.030076e-02 3.640808e-02 
3.608672e-02 3.758405e-02 4.181417e-02 4.854728e-02 5.744918e-02 6.812235e-02 8.015833e-02 9.325128e-02 1.072786e-01 1.223941e-01 1.390953e-01 1.581890e-01 1.809058e-01 2.082357e-01 2.411428e-01 2.765476e-01 2.895980e-01 2.663688e-01 2.334390e-01 2.037236e-01 1.767665e-01 1.517773e-01 1.285668e-01 1.073622e-01 8.836617e-02 7.193574e-02 5.815617e-02 4.706057e-02 3.847278e-02 3.217737e-02 2.790669e-02 2.543897e-02 2.462288e-02 2.542353e-02 2.787677e-02 3.213576e-02 3.842506e-02 4.701604e-02 5.813094e-02 7.194726e-02 8.844191e-02 1.075116e-01 1.288070e-01 1.520590e-01 1.770536e-01 2.038525e-01 2.333289e-01 2.657249e-01 2.894394e-01 2.773364e-01 2.416247e-01 2.080671e-01 1.803317e-01 1.573731e-01 1.381780e-01 1.214453e-01 1.063558e-01 9.238836e-02 7.938799e-02 6.746437e-02 5.691907e-02 4.814974e-02 4.155047e-02 3.745199e-02 
3.642568e-02 3.795226e-02 4.226169e-02 4.911922e-02 5.818318e-02 6.904498e-02 8.128244e-02 9.457109e-02 1.087710e-01 1.240118e-01 1.407834e-01 1.598737e-01 1.825517e-01 2.097886e-01 2.426478e-01 2.777057e-01 2.898731e-01 2.661212e-01 2.333916e-01 2.037287e-01 1.768912e-01 1.519273e-01 1.287188e-01 1.074681e-01 8.840606e-02 7.189281e-02 5.802419e-02 4.684003e-02 3.817062e-02 3.180577e-02 2.748246e-02 2.498169e-02 2.415474e-02 2.496701e-02 2.745436e-02 3.176772e-02 3.812923e-02 4.680618e-02 5.801620e-02 7.193074e-02 8.852083e-02 1.076717e-01 1.290315e-01 1.522987e-01 1.772837e-01 2.039700e-01 2.333865e-01 2.655571e-01 2.897331e-01 2.784899e-01 2.431300e-01 2.095869e-01 1.819181e-01 1.589870e-01 1.397958e-01 1.229990e-01 1.077931e-01 9.366227e-02 8.047514e-02 6.835809e-02 5.763141e-02 4.870633e-02 4.198820e-02 3.781539e-02 
3.608672e-02 3.758405e-02 4.181417e-02 4.854728e-02 5.744918e-02 6.812235e-02 8.015833e-02 9.325128e-02 1.072786e-01 1.223941e-01 1.390953e-01 1.581890e-01 1.809058e-01 2.082357e-01 2.411428e-01 2.765476e-01 2.895980e-01 2.663688e-01 2.334390e-01 2.037236e-01 1.767665e-01 1.517773e-01 1.285668e-01 1.073622e-01 8.836617e-02 7.193574e-02 5.815617e-02 4.706057e-02 3.847278e-02 3.217737e-02 2.790669e-02 2.543897e-02 2.462288e-02 2.542353e-02 2.787677e-02 3.213576e-02 3.842506e-02 4.701604e-02 5.813094e-02 7.194726e-02 8.844191e-02 1.075116e-01 1.288070e-01 1.520590e-01 1.770536e-01 2.038525e-01 2.333289e-01 2.657249e-01 2.894394e-01 2.773364e-01 2.416247e-01 2.080671e-01 1.803317e-01 1.573731e-01 1.381780e-01 1.214453e-01 1.063558e-01 9.238836e-02 7.938799e-02 6.746437e-02 5.691907e-02 4.814974e-02 4.155047e-02 3.745199e-02 
3.511017e-02 3.652637e-02 4.053652e-02 4.692449e-02 5.537717e-02 6.552738e-02 7.700538e-02 8.955649e-02 1.031076e-01 1.178804e-01 1.343963e-01 1.535199e-01 1.763742e-01 2.040083e-01 2.370364e-01 2.732459e-01 2.887003e-01 2.670542e-01 2.335560e-01 2.037139e-01 1.764116e-01 1.513479e-01 1.281354e-01 1.070668e-01 8.826955e-02 7.208816e-02 5.857676e-02 4.774738e-02 3.940408e-02 3.331596e-02 2.920190e-02 2.683221e-02 2.604830e-02 2.681493e-02 2.916751e-02 3.326550e-02 3.934032e-02 4.767547e-02 5.850679e-02 7.203065e-02 8.824263e-02 1.070732e-01 1.281846e-01 1.513953e-01 1.764270e-01 2.035620e-01 2.331955e-01 2.662442e-01 2.885457e-01 2.741047e-01 2.376155e-01 2.040151e-01 1.760207e-01 1.529346e-01 1.336941e-01 1.171214e-01 1.023447e-01 8.882549e-02 7.634049e-02 6.495175e-02 5.490866e-02 4.657069e-02 4.030076e-02 3.640808e-02 