# vtk DataFile Version 2.0
Comment goes here
ASCII

DATASET STRUCTURED_POINTS
FIELD FieldData 1
TIME 1 1 double
0.94000000
DIMENSIONS    64   64   1

ORIGIN    0.000   0.000   0.000
SPACING   0.015625 0.015625   1.000

POINT_DATA   4096
SCALARS Omega double
LOOKUP_TABLE default

-7.323806e-14 -7.051336e-14 -5.933515e-14 -3.585776e-14 -3.263326e-14 -2.884413e-14 2.210367e-15 3.099409e-14 1.736267e-14 2.096251e-14 6.112921e-14 8.248407e-14 1.157902e-13 2.448523e-13 4.303840e-13 5.547391e-13 7.618394e-13 1.037283e-12 1.293466e-12 1.639312e-12 2.042707e-12 2.372219e-12 2.708662e-12 3.014140e-12 3.178161e-12 3.193671e-12 3.094011e-12 2.836302e-12 2.360401e-12 1.722734e-12 9.281601e-13 2.074586e-14 -9.413568e-13 -1.875704e-12 -2.705672e-12 -3.398482e-12 -3.848972e-12 -4.086628e-12 -4.094193e-12 -3.919622e-12 -3.572181e-12 -3.166003e-12 -2.691696e-12 -2.238221e-12 -1.833453e-12 -1.451436e-12 -1.176695e-12 -9.167650e-13 -7.315154e-13 -5.970104e-13 -4.416881e-13 -3.361917e-13 -2.913718e-13 -2.256879e-13 -1.932479e-13 -1.632879e-13 -1.426217e-13 -1.143169e-13 -1.046068e-13 -1.120335e-13 -1.026584e-13 -9.620700e-14 -9.327784e-14 -8.740125e-14 
-2.154152e-04 5.945517e-03 1.199457e-02 1.781250e-02 2.326746e-02 2.821086e-02 3.246806e-02 3.583549e-02 3.806958e-02 3.888835e-02 3.796030e-02 3.491833e-02 2.935338e-02 2.085390e-02 9.011628e-03 -6.500257e-03 -2.590367e-02 -4.920035e-02 -7.613782e-02 -1.060890e-01 -1.380364e-01 -1.705061e-01 -2.016134e-01 -2.291029e-01 -2.504861e-01 -2.631960e-01 -2.648219e-01 -2.533832e-01 -2.276480e-01 -1.875260e-01 -1.343519e-01 -7.108741e-02 -2.137918e-03 6.716314e-02 1.313921e-01 1.859368e-01 2.275601e-01 2.546935e-01 2.672514e-01 2.663751e-01 2.540356e-01 2.326892e-01 2.049799e-01 1.734953e-01 1.405528e-01 1.081281e-01 7.770843e-02 5.037365e-02 2.672704e-02 7.055628e-03 -8.680630e-03 -2.068573e-02 -2.932121e-02 -3.498434e-02 -3.811068e-02 -3.910128e-02 -3.833740e-02 -3.614492e-02 -3.281351e-02 -2.858347e-02 -2.366232e-02 -1.822322e-02 -1.241671e-02 -6.374067e-03 
-4.324179e-04 1.190213e-02 2.400779e-02 3.564145e-02 4.653597e-02 5.639289e-02 6.486350e-02 7.154423e-02 7.595301e-02 7.753326e-02 7.562876e-02 6.951169e-02 5.836544e-02 4.136327e-02 1.767428e-02 -1.337980e-02 -5.228445e-02 -9.909714e-02 -1.533860e-01 -2.139755e-01 -2.789161e-01 -3.453287e-01 -4.094827e-01 -4.668465e-01 -5.123327e-01 -5.405793e-01 -5.463969e-01 -5.253136e-01 -4.742793e-01 -3.925677e-01 -2.825549e-01 -1.503279e-01 -5.424255e-03 1.403428e-01 2.749255e-01 3.882607e-01 4.735774e-01 5.279444e-01 5.516719e-01 5.476070e-01 5.202050e-01 4.747829e-01 4.168965e-01 3.518747e-01 2.843941e-01 2.183880e-01 1.567654e-01 1.016065e-01 5.403620e-02 1.455493e-02 -1.697518e-02 -4.100682e-02 -5.829054e-02 -6.963816e-02 -7.592599e-02 -7.795646e-02 -7.648619e-02 -7.216111e-02 -6.555295e-02 -5.713761e-02 -4.732616e-02 -3.646445e-02 -2.485446e-02 -1.276224e-02 
-6.523778e-04 1.788160e-02 3.605998e-02 5.350692e-02 6.981411e-02 8.453044e-02 9.713580e-02 1.070323e-01 1.135109e-01 1.157514e-01 1.127866e-01 1.035331e-01 8.676713e-02 6.122768e-02 2.562637e-02 -2.113148e-02 -7.988499e-02 -1.508723e-01 -2.336298e-01 -3.266015e-01 -4.270674e-01 -5.308755e-01 -6.325119e-01 -7.251111e-01 -8.007661e-01 -8.508443e-01 -8.666233e-01 -8.400206e-01 -7.647977e-01 -6.382301e-01 -4.629469e-01 -2.484733e-01 -1.118955e-02 2.278355e-01 4.470330e-01 6.289012e-01 7.625285e-01 8.442029e-01 8.758510e-01 8.633473e-01 8.147610e-01 7.391321e-01 6.454892e-01 5.422293e-01 4.364820e-01 3.341184e-01 2.393390e-01 1.550734e-01 8.279493e-02 2.306633e-02 -2.447907e-02 -6.064081e-02 -8.662832e-02 -1.037101e-01 -1.132249e-01 -1.163808e-01 -1.143054e-01 -1.079531e-01 -9.816655e-02 -8.564612e-02 -7.100037e-02 -5.474488e-02 -3.733556e-02 -1.917874e-02 
-8.761228e-04 2.389626e-02 4.817310e-02 7.143437e-02 9.312261e-02 1.126326e-01 1.292764e-01 1.422729e-01 1.506997e-01 1.534897e-01 1.493742e-01 1.369164e-01 1.144642e-01 8.027818e-02 3.252667e-02 -3.042349e-02 -1.099432e-01 -2.066617e-01 -3.203439e-01 -4.493056e-01 -5.903029e-01 -7.380703e-01 -8.853520e-01 -1.022807e+00 -1.139287e+00 -1.222125e+00 -1.257815e+00 -1.232789e+00 -1.135256e+00 -9.579703e-01 -7.021742e-01 -3.811284e-01 -2.113480e-02 3.421620e-01 6.720833e-01 9.400681e-01 1.130212e+00 1.239357e+00 1.273309e+00 1.243219e+00 1.162674e+00 1.045919e+00 9.064303e-01 7.562795e-01 6.052405e-01 4.611255e-01 3.292535e-01 2.131651e-01 1.144182e-01 3.337497e-02 -3.077970e-02 -7.937929e-02 -1.142218e-01 -1.371278e-01 -1.499480e-01 -1.543241e-01 -1.517548e-01 -1.434971e-01 -1.306477e-01 -1.141197e-01 -9.470684e-02 -7.309135e-02 -4.988339e-02 -2.563766e-02 
-1.104013e-03 2.996575e-02 6.038490e-02 8.947630e-02 1.165261e-01 1.407736e-01 1.613706e-01 1.773641e-01 1.876349e-01 1.908771e-01 1.855228e-01 1.697531e-01 1.414341e-01 9.823857e-02 3.763983e-02 -4.275731e-02 -1.451213e-01 -2.707960e-01 -4.200984e-01 -5.915229e-01 -7.815131e-01 -9.837605e-01 -1.189166e+00 -1.385587e+00 -1.558099e+00 -1.689126e+00 -1.759036e+00 -1.746432e+00 -1.630274e+00 -1.394207e+00 -1.034716e+00 -5.687100e-01 -3.730661e-02 5.000930e-01 9.820588e-01 1.363095e+00 1.621534e+00 1.757665e+00 1.785295e+00 1.724276e+00 1.596173e+00 1.422337e+00 1.221979e+00 1.011675e+00 8.041670e-01 6.093219e-01 4.334527e-01 2.804959e-01 1.517748e-01 4.712216e-02 -3.505282e-02 -9.689602e-02 -1.410239e-01 -1.699747e-01 -1.862270e-01 -1.919192e-01 -1.889543e-01 -1.788945e-01 -1.630843e-01 -1.426339e-01 -1.185111e-01 -9.155679e-02 -6.253629e-02 -3.215907e-02 
-1.335502e-03 3.612016e-02 7.275522e-02 1.077236e-01 1.401486e-01 1.691169e-01 1.936276e-01 2.125689e-01 2.246322e-01 2.282706e-01 2.215836e-01 2.023019e-01 1.676802e-01 1.146162e-01 3.961979e-02 -6.078503e-02 -1.899519e-01 -3.503073e-01 -5.430822e-01 -7.671394e-01 -1.018648e+00 -1.290019e+00 -1.569878e+00 -1.842818e+00 -2.089517e+00 -2.287018e+00 -2.408618e+00 -2.422495e+00 -2.293442e+00 -1.989113e+00 -1.495803e+00 -8.326832e-01 -6.201282e-02 7.191304e-01 1.409834e+00 1.939620e+00 2.281203e+00 2.443357e+00 2.453816e+00 2.345210e+00 2.149992e+00 1.898981e+00 1.618525e+00 1.330673e+00 1.051380e+00 7.928334e-01 5.624164e-01 3.643955e-01 1.996606e-01 6.716770e-02 -3.580650e-02 -1.126086e-01 -1.669922e-01 -2.024947e-01 -2.224162e-01 -2.295360e-01 -2.262345e-01 -2.144224e-01 -1.956958e-01 -1.713594e-01 -1.425410e-01 -1.102339e-01 -7.535409e-02 -3.877258e-02 
-1.569853e-03 4.241604e-02 8.539889e-02 1.263550e-01 1.642426e-01 1.979985e-01 2.264776e-01 2.484123e-01 2.622974e-01 2.663012e-01 2.581097e-01 2.348446e-01 1.929301e-01 1.281682e-01 3.574207e-02 -8.933906e-02 -2.519920e-01 -4.560568e-01 -7.037619e-01 -9.941559e-01 -1.322512e+00 -1.678963e+00 -2.048773e+00 -2.412302e+00 -2.745599e+00 -3.020951e+00 -3.206603e+00 -3.261643e+00 -3.130870e+00 -2.754392e+00 -2.099403e+00 -1.183740e+00 -9.738385e-02 1.006385e+00 1.967652e+00 2.681755e+00 3.117883e+00 3.302069e+00 3.285261e+00 3.116268e+00 2.838306e+00 2.493266e+00 2.115846e+00 1.733862e+00 1.366605e+00 1.029070e+00 7.303972e-01 4.757380e-01 2.657612e-01 9.850270e-02 -3.017127e-02 -1.251658e-01 -1.917855e-01 -2.349347e-01 -2.590584e-01 -2.678090e-01 -2.642118e-01 -2.506173e-01 -2.289226e-01 -2.006390e-01 -1.670531e-01 -1.293028e-01 -8.845151e-02 -4.553318e-02 
-1.805051e-03 4.894319e-02 9.849872e-02 1.456566e-01 1.892104e-01 2.279516e-01 2.605908e-01 2.856914e-01 3.015040e-01 3.058175e-01 2.957305e-01 2.675036e-01 2.163777e-01 1.366554e-01 2.174887e-02 -1.351908e-01 -3.408576e-01 -6.003408e-01 -9.163482e-01 -1.286908e+00 -1.704690e+00 -2.155337e+00 -2.618702e+00 -3.070358e+00 -3.482079e+00 -3.826011e+00 -4.075152e+00 -4.185127e+00 -4.069725e+00 -3.624818e+00 -2.794796e+00 -1.594844e+00 -1.443040e-01 1.333332e+00 2.604776e+00 3.525761e+00 4.062474e+00 4.263365e+00 4.213324e+00 3.980776e+00 3.617539e+00 3.177019e+00 2.700973e+00 2.221144e+00 1.758167e+00 1.330469e+00 9.506675e-01 6.264747e-01 3.596772e-01 1.480273e-01 -1.372834e-02 -1.321945e-01 -2.145112e-01 -2.673779e-01 -2.967785e-01 -3.076047e-01 -3.037864e-01 -2.883043e-01 -2.634578e-01 -2.310228e-01 -1.924592e-01 -1.490535e-01 -1.020107e-01 -5.252799e-02 
-2.039825e-03 5.584657e-02 1.123505e-01 1.660898e-01 2.156967e-01 2.598176e-01 2.970024e-01 3.255967e-01 3.435045e-01 3.479486e-01 3.351664e-01 3.001697e-01 2.365843e-01 1.367523e-01 -7.961796e-03 -2.063141e-01 -4.662247e-01 -7.929720e-01 -1.187755e+00 -1.645063e+00 -2.151618e+00 -2.685104e+00 -3.217522e+00 -3.717983e+00 -4.155743e+00 -4.505816e+00 -4.768617e+00 -4.942572e+00 -4.891700e+00 -4.418543e+00 -3.446124e+00 -1.993460e+00 -2.038945e-01 1.623838e+00 3.183049e+00 4.289366e+00 4.897214e+00 5.086755e+00 5.011265e+00 4.754602e+00 4.341014e+00 3.838603e+00 3.298595e+00 2.748138e+00 2.205428e+00 1.692106e+00 1.227319e+00 8.248338e-01 4.903342e-01 2.234682e-01 1.913722e-02 -1.302584e-01 -2.336117e-01 -2.996269e-01 -3.362494e-01 -3.500376e-01 -3.462180e-01 -3.286905e-01 -3.003559e-01 -2.633676e-01 -2.194147e-01 -1.699523e-01 -1.163285e-01 -5.989975e-02 
-2.270472e-03 6.333191e-02 1.273717e-01 1.882996e-01 2.445913e-01 2.947353e-01 3.370758e-01 3.696382e-01 3.897935e-01 3.939123e-01 3.769715e-01 3.322787e-01 2.513975e-01 1.244992e-01 -5.889831e-02 -3.084174e-01 -6.312523e-01 -1.029647e+00 -1.499395e+00 -2.026868e+00 -2.588790e+00 -3.151414e+00 -3.676280e+00 -4.125580e+00 -4.460697e+00 -4.667944e+00 -4.846929e+00 -5.150099e+00 -5.291377e+00 -4.853763e+00 -3.805713e+00 -2.231344e+00 -2.762834e-01 1.720488e+00 3.446095e+00 4.680198e+00 5.295152e+00 5.382436e+00 5.264224e+00 5.065649e+00 4.690367e+00 4.223850e+00 3.718814e+00 3.183640e+00 2.624766e+00 2.066112e+00 1.537630e+00 1.063829e+00 6.593480e-01 3.297755e-01 7.364521e-02 -1.154522e-01 -2.469040e-01 -3.310802e-01 -3.780091e-01 -3.963358e-01 -3.930284e-01 -3.733211e-01 -3.410120e-01 -2.988375e-01 -2.488243e-01 -1.926508e-01 -1.318211e-01 -6.784904e-02 
-2.495179e-03 7.168100e-02 1.441338e-01 2.131669e-01 2.770978e-01 3.342284e-01 3.826040e-01 4.197604e-01 4.422514e-01 4.452025e-01 4.218611e-01 3.633910e-01 2.591256e-01 9.745100e-02 -1.324527e-01 -4.382242e-01 -8.215052e-01 -1.275628e+00 -1.784131e+00 -2.320881e+00 -2.850604e+00 -3.331555e+00 -3.717921e+00 -3.956461e+00 -4.010776e+00 -3.835867e+00 -3.615112e+00 -4.146663e+00 -4.859906e+00 -4.760969e+00 -3.971031e+00 -2.485226e+00 -3.828816e-01 1.727342e+00 3.473293e+00 4.563369e+00 4.766452e+00 4.388522e+00 4.294000e+00 4.476100e+00 4.256816e+00 3.952792e+00 3.654446e+00 3.284714e+00 2.836943e+00 2.330784e+00 1.806413e+00 1.302985e+00 8.486830e-01 4.617299e-01 1.503223e-01 -8.560022e-02 -2.526942e-01 -3.612102e-01 -4.226905e-01 -4.479444e-01 -4.460852e-01 -4.241502e-01 -3.872407e-01 -3.389769e-01 -2.819084e-01 -2.180382e-01 -1.490624e-01 -7.665481e-02 
-2.706614e-03 8.124677e-02 1.633478e-01 2.417752e-01 3.146830e-01 3.801198e-01 4.356878e-01 4.781717e-01 5.029306e-01 5.033762e-01 4.705793e-01 3.933908e-01 2.593930e-01 5.699353e-02 -2.213053e-01 -5.748042e-01 -9.910282e-01 -1.444064e+00 -1.897300e+00 -2.310125e+00 -2.647053e+00 -2.880649e+00 -2.968355e+00 -2.810729e+00 -2.354042e+00 -1.555588e+00 -3.704218e-01 -1.390586e+00 -2.868528e+00 -3.156392e+00 -3.753033e+00 -3.095418e+00 -4.935989e-01 1.821710e+00 3.072529e+00 3.248949e+00 2.368390e+00 1.131591e+00 1.447146e+00 2.702372e+00 2.535630e+00 2.565248e+00 2.713151e+00 2.693308e+00 2.543301e+00 2.259763e+00 1.879251e+00 1.446954e+00 1.006227e+00 5.945364e-01 2.396852e-01 -4.315079e-02 -2.510562e-01 -3.900537e-01 -4.710702e-01 -5.064265e-01 -5.074483e-01 -4.834047e-01 -4.411633e-01 -3.856278e-01 -3.201435e-01 -2.471999e-01 -1.687561e-01 -8.665804e-02 
-2.899220e-03 9.244292e-02 1.858454e-01 2.753940e-01 3.590523e-01 4.345212e-01 4.987366e-01 5.474036e-01 5.742249e-01 5.704662e-01 5.247924e-01 4.242280e-01 2.564513e-01 1.400797e-02 -2.998592e-01 -6.652849e-01 -1.041584e+00 -1.370718e+00 -1.588847e+00 -1.655441e+00 -1.577378e+00 -1.425214e+00 -1.151300e+00 -5.055659e-01 4.105026e-01 1.383162e+00 4.548632e+00 5.967756e+00 8.574606e+00 1.275936e+01 1.152771e+01 6.382779e+00 4.098699e-01 -6.337207e+00 -1.165199e+01 -1.363223e+01 -1.078150e+01 -6.261141e+00 -1.319434e+00 1.545622e+00 -3.583659e-01 -2.307055e-01 6.270595e-01 1.017198e+00 1.327337e+00 1.498041e+00 1.489598e+00 1.317470e+00 1.023728e+00 6.691088e-01 3.127304e-01 -6.477416e-04 -2.469186e-01 -4.197584e-01 -5.248191e-01 -5.737674e-01 -5.794762e-01 -5.536009e-01 -5.051932e-01 -4.409105e-01 -3.652439e-01 -2.814067e-01 -1.917298e-01 -9.826226e-02 
-3.056518e-03 1.057186e-01 2.125234e-01 3.153788e-01 4.120227e-01 4.996548e-01 5.742708e-01 6.300782e-01 6.586738e-01 6.488770e-01 5.872519e-01 4.606373e-01 2.608092e-01 -7.791079e-03 -3.189275e-01 -6.164456e-01 -8.133010e-01 -8.053453e-01 -5.093253e-01 6.647641e-02 7.396863e-01 1.120345e+00 1.483937e+00 2.528989e+00 6.513227e+00 1.953864e+01 3.142880e+01 3.080890e+01 2.519452e+01 1.827522e+01 1.150620e+01 5.912722e+00 5.815336e-01 -5.123329e+00 -1.070921e+01 -1.776202e+01 -2.577145e+01 -3.195894e+01 -3.171087e+01 -1.876931e+01 -6.733589e+00 -3.292436e+00 -2.005228e+00 -1.820572e+00 -1.199179e+00 -3.909453e-01 2.703238e-01 6.457601e-01 7.260633e-01 5.817572e-01 3.138103e-01 1.462596e-02 -2.525680e-01 -4.558295e-01 -5.869437e-01 -6.524148e-01 -6.646745e-01 -6.373214e-01 -5.818164e-01 -5.070229e-01 -4.190028e-01 -3.219897e-01 -2.188512e-01 -1.118855e-01 
-3.159843e-03 1.215075e-01 2.442419e-01 3.630372e-01 4.753379e-01 5.776625e-01 6.647088e-01 7.287740e-01 7.589451e-01 7.417191e-01 6.627287e-01 5.121798e-01 2.931770e-01 3.467842e-02 -1.953244e-01 -2.820241e-01 -7.183683e-02 5.866571e-01 1.752668e+00 3.233710e+00 4.385290e+00 3.975938e+00 5.814698e+00 1.988546e+01 3.405492e+01 3.273606e+01 1.755281e+01 5.677133e+00 -1.408653e-01 -5.027359e+00 -4.945234e+00 -3.127140e+00 -2.861112e-01 2.833600e+00 4.651028e+00 4.934932e+00 5.835790e-01 -6.055597e+00 -2.032214e+01 -3.381860e+01 -3.481769e+01 -2.270287e+01 -7.473605e+00 -5.049650e+00 -5.090012e+00 -3.773456e+00 -2.192202e+00 -9.157326e-01 -1.358253e-01 1.746789e-01 1.523604e-01 -4.474242e-02 -2.909666e-01 -5.088645e-01 -6.625929e-01 -7.455443e-01 -7.656687e-01 -7.370728e-01 -6.733920e-01 -5.860569e-01 -4.831250e-01 -3.702195e-01 -2.509445e-01 -1.279240e-01 
-3.174088e-03 1.401750e-01 2.817170e-01 4.194519e-01 5.504572e-01 6.703275e-01 7.720959e-01 8.457146e-01 8.776115e-01 8.526181e-01 7.580018e-01 5.933354e-01 3.844671e-01 2.033700e-01 1.846445e-01 5.277443e-01 1.464637e+00 3.164477e+00 5.531036e+00 7.906220e+00 8.738213e+00 1.331066e+01 2.648563e+01 3.472861e+01 2.045485e+01 -1.974585e+00 -1.169319e+01 -1.289603e+01 -1.071140e+01 -5.107712e+00 -9.164423e-01 2.468673e-02 -2.078318e-01 -2.159634e-01 1.300680e-01 4.215181e+00 9.703631e+00 1.282257e+01 1.113602e+01 1.521412e+00 -1.789687e+01 -3.401645e+01 -2.843953e+01 -1.478117e+01 -9.465580e+00 -8.531967e+00 -6.144035e+00 -3.706293e+00 -1.853839e+00 -7.559516e-01 -2.961276e-01 -2.473832e-01 -3.966979e-01 -5.951037e-01 -7.591916e-01 -8.568951e-01 -8.849111e-01 -8.549054e-01 -7.817961e-01 -6.796582e-01 -5.589578e-01 -4.270876e-01 -2.886472e-01 -1.466709e-01 
-3.052344e-03 1.619293e-01 3.253379e-01 4.852228e-01 6.381895e-01 7.786555e-01 8.975657e-01 9.822212e-01 1.016486e+00 9.851153e-01 8.811794e-01 7.229008e-01 5.750555e-01 5.770371e-01 9.594078e-01 2.026565e+00 4.077362e+00 7.198000e+00 1.081395e+01 1.262572e+01 1.785343e+01 2.807991e+01 2.600003e+01 6.388105e+00 -1.116383e+01 -1.044234e+01 6.070446e+00 1.264140e+01 9.049549e+00 7.892620e+00 4.668061e+00 2.167202e+00 2.430409e-02 -2.036926e+00 -4.522106e+00 -6.798086e+00 -8.912907e+00 -1.202505e+01 -4.535356e+00 9.231553e+00 1.166732e+01 -3.846281e+00 -2.447729e+01 -2.797924e+01 -1.896579e+01 -1.324782e+01 -1.119698e+01 -7.863760e+00 -4.688102e+00 -2.430641e+00 -1.178995e+00 -6.788852e-01 -6.143687e-01 -7.355962e-01 -8.858060e-01 -9.902081e-01 -1.024088e+00 -9.918877e-01 -9.079130e-01 -7.886146e-01 -6.471375e-01 -4.930563e-01 -3.322354e-01 -1.682365e-01 
-2.732410e-03 1.867384e-01 3.750073e-01 5.602153e-01 7.383920e-01 9.024746e-01 1.040942e+00 1.138195e+00 1.176128e+00 1.141846e+00 1.040481e+00 9.212788e-01 9.088180e-01 1.238206e+00 2.262184e+00 4.392298e+00 7.938359e+00 1.269755e+01 1.565979e+01 1.697068e+01 2.255111e+01 1.819092e+01 8.499404e-01 -7.334769e+00 2.401086e-01 8.533957e+00 1.164092e+01 1.101773e+01 7.369267e+00 5.878225e+00 3.865190e+00 1.907094e+00 8.807267e-02 -1.682970e+00 -3.517929e+00 -5.207453e+00 -6.779765e+00 -9.095853e+00 -8.748272e+00 -8.399314e+00 -2.823473e+00 6.040323e+00 2.238279e-01 -1.686931e+01 -2.301323e+01 -1.733094e+01 -1.497723e+01 -1.311967e+01 -8.771160e+00 -5.030426e+00 -2.638151e+00 -1.428555e+00 -9.922720e-01 -9.530870e-01 -1.051499e+00 -1.148143e+00 -1.183378e+00 -1.147445e+00 -1.051116e+00 -9.123872e-01 -7.472376e-01 -5.677771e-01 -3.814489e-01 -1.924538e-01 
-2.131331e-03 2.142330e-01 4.299339e-01 6.432554e-01 8.495241e-01 1.039901e+00 1.199995e+00 1.311251e+00 1.354486e+00 1.322658e+00 1.240685e+00 1.204159e+00 1.420716e+00 2.247757e+00 4.169983e+00 7.659190e+00 1.292263e+01 1.799416e+01 1.608168e+01 1.511042e+01 1.384528e+01 2.857216e+00 -3.238616e-01 4.457816e+00 5.661483e+00 5.958104e+00 6.699974e+00 6.655003e+00 5.457039e+00 4.346770e+00 2.988989e+00 1.546852e+00 1.126816e-01 -1.289754e+00 -2.642305e+00 -3.847961e+00 -4.856769e+00 -5.651304e+00 -5.595174e+00 -5.521732e+00 -5.986278e+00 -4.765537e+00 1.913516e-01 -1.836859e+00 -1.405538e+01 -1.599128e+01 -1.481201e+01 -1.780042e+01 -1.413330e+01 -8.625628e+00 -4.761169e+00 -2.564471e+00 -1.570409e+00 -1.265776e+00 -1.261840e+00 -1.330221e+00 -1.359993e+00 -1.318355e+00 -1.208440e+00 -1.048508e+00 -8.572830e-01 -6.497625e-01 -4.352651e-01 -2.187736e-01 
-1.170795e-03 2.435985e-01 4.884399e-01 7.318299e-01 9.682717e-01 1.186821e+00 1.369884e+00 1.495923e+00 1.546022e+00 1.522852e+00 1.480234e+00 1.575951e+00 2.123728e+00 3.620970e+00 6.653865e+00 1.163360e+01 1.813901e+01 1.672776e+01 8.849506e+00 1.124805e+01 1.056252e+01 3.438627e+00 2.766854e+00 2.641512e+00 2.776391e+00 3.495910e+00 4.178544e+00 4.361208e+00 3.942365e+00 3.246089e+00 2.308151e+00 1.235765e+00 1.156903e-01 -9.861226e-01 -2.008186e+00 -2.871232e+00 -3.503072e+00 -3.827315e+00 -3.698059e+00 -3.344521e+00 -2.953585e+00 -2.568923e+00 -2.440028e+00 -2.253267e+00 -9.054143e+00 -1.279058e+01 -8.944114e+00 -1.579388e+01 -1.997282e+01 -1.304532e+01 -7.506803e+00 -4.098745e+00 -2.363479e+00 -1.679454e+00 -1.515242e+00 -1.530939e+00 -1.547225e+00 -1.498025e+00 -1.374093e+00 -1.192141e+00 -9.734410e-01 -7.361428e-01 -4.917631e-01 -2.462018e-01 
2.319117e-04 2.735240e-01 5.478469e-01 8.219216e-01 1.089305e+00 1.336664e+00 1.542869e+00 1.683539e+00 1.741299e+00 1.732624e+00 1.748237e+00 2.022688e+00 2.992694e+00 5.295822e+00 9.533803e+00 1.581237e+01 1.890695e+01 6.105254e+00 6.941708e+00 1.562000e+01 6.849326e+00 4.261874e-01 -1.000061e+00 8.719971e-02 1.132056e+00 2.064980e+00 2.730104e+00 2.999258e+00 2.858187e+00 2.423250e+00 1.765177e+00 9.671578e-01 1.046863e-01 -7.492181e-01 -1.524803e+00 -2.152344e+00 -2.565698e+00 -2.703182e+00 -2.506748e+00 -2.025952e+00 -1.310003e+00 -3.809124e-01 4.690226e-01 -7.055261e-02 -4.232632e+00 -1.502915e+01 -8.239822e+00 -4.380531e+00 -1.809397e+01 -1.752115e+01 -1.064655e+01 -5.958748e+00 -3.345367e+00 -2.178033e+00 -1.797764e+00 -1.737092e+00 -1.732807e+00 -1.675592e+00 -1.538768e+00 -1.335643e+00 -1.089672e+00 -8.224505e-01 -5.479765e-01 -2.732355e-01 
2.107253e-03 3.021137e-01 6.043328e-01 9.077748e-01 1.204956e+00 1.479907e+00 1.707756e+00 1.861326e+00 1.926097e+00 1.934853e+00 2.021752e+00 2.504857e+00 3.956860e+00 7.150453e+00 1.253288e+01 1.962058e+01 7.840985e+00 -3.212183e-01 1.597908e+01 1.255419e+01 -1.904668e+00 -2.909123e+00 -1.984238e+00 -7.928071e-01 3.253690e-01 1.213315e+00 1.809128e+00 2.085678e+00 2.059024e+00 1.787186e+00 1.325646e+00 7.379788e-01 8.722002e-02 -5.608329e-01 -1.142416e+00 -1.598065e+00 -1.872783e+00 -1.922013e+00 -1.707120e+00 -1.225564e+00 -4.815038e-01 5.065565e-01 1.593820e+00 2.593745e+00 2.669323e+00 -9.564316e+00 -1.754848e+01 -1.244323e+00 -5.260601e+00 -2.012779e+01 -1.406350e+01 -8.020736e+00 -4.442190e+00 -2.720118e+00 -2.082270e+00 -1.927737e+00 -1.899399e+00 -1.836133e+00 -1.689819e+00 -1.468571e+00 -1.197743e+00 -9.026077e-01 -5.999127e-01 -2.978902e-01 
4.419734e-03 3.269418e-01 6.530537e-01 9.821083e-01 1.305535e+00 1.604690e+00 1.850900e+00 2.014560e+00 2.084631e+00 2.111562e+00 2.272136e+00 2.965536e+00 4.892751e+00 9.028382e+00 1.623628e+01 1.664766e+01 -4.112028e+00 9.295807e+00 2.201388e+01 1.922121e-01 -4.223384e+00 -3.518800e+00 -2.402483e+00 -1.207729e+00 -1.691289e-01 6.252892e-01 1.152111e+00 1.418344e+00 1.449253e+00 1.284410e+00 9.663844e-01 5.441879e-01 6.824926e-02 -4.078288e-01 -8.315675e-01 -1.154630e+00 -1.332405e+00 -1.328728e+00 -1.111157e+00 -6.608851e-01 3.571183e-02 9.712332e-01 2.083485e+00 3.226182e+00 4.341823e+00 1.779805e+00 -1.943212e+01 -1.197462e+01 4.252754e+00 -1.370125e+01 -1.779375e+01 -1.005597e+01 -5.518994e+00 -3.231224e+00 -2.324565e+00 -2.073983e+00 -2.024878e+00 -1.961511e+00 -1.811823e+00 -1.578181e+00 -1.287545e+00 -9.691725e-01 -6.427057e-01 -3.177901e-01 
7.030161e-03 3.451082e-01 6.882653e-01 1.036239e+00 1.379430e+00 1.696729e+00 1.955977e+00 2.125673e+00 2.198776e+00 2.241452e+00 2.467582e+00 3.321275e+00 5.573475e+00 1.009089e+01 1.900570e+01 2.729469e+00 -2.522019e+00 2.096138e+01 1.114235e+01 -6.214624e+00 -5.163056e+00 -3.980104e+00 -2.702091e+00 -1.515086e+00 -5.485303e-01 1.673269e-01 6.412468e-01 8.974210e-01 9.662397e-01 8.803695e-01 6.737670e-01 3.841109e-01 5.106728e-02 -2.832735e-01 -5.771816e-01 -7.923685e-01 -8.929494e-01 -8.488349e-01 -6.302192e-01 -2.113464e-01 4.327884e-01 1.315407e+00 2.416558e+00 3.647352e+00 4.935604e+00 6.231090e+00 -6.464471e+00 -2.222548e+01 -5.759554e-01 1.533662e+00 -1.848720e+01 -1.165132e+01 -6.405541e+00 -3.610794e+00 -2.471917e+00 -2.142799e+00 -2.085904e+00 -2.032307e+00 -1.888018e+00 -1.650269e+00 -1.347711e+00 -1.013745e+00 -6.708973e-01 -3.303148e-01 
9.645498e-03 3.534432e-01 7.037696e-01 1.060802e+00 1.414096e+00 1.740737e+00 2.005856e+00 2.177377e+00 2.252486e+00 2.311187e+00 2.593466e+00 3.553150e+00 5.929313e+00 1.021173e+01 1.389725e+01 -7.828016e+00 9.299682e+00 2.270046e+01 -5.519089e+00 -7.475149e+00 -5.835065e+00 -4.323358e+00 -2.931701e+00 -1.767013e+00 -8.588937e-01 -2.011159e-01 2.375759e-01 4.901466e-01 5.892305e-01 5.641048e-01 4.434630e-01 2.572328e-01 3.680062e-02 -1.851540e-01 -3.758609e-01 -5.049570e-01 -5.431256e-01 -4.641611e-01 -2.401192e-01 1.574701e-01 7.606845e-01 1.598359e+00 2.681150e+00 3.989235e+00 5.454125e+00 7.183601e+00 6.161143e+00 -2.210400e+01 -1.313672e+01 7.217641e+00 -1.307088e+01 -1.371456e+01 -7.029624e+00 -3.757323e+00 -2.465308e+00 -2.106299e+00 -2.063434e+00 -2.032363e+00 -1.903110e+00 -1.671214e+00 -1.366983e+00 -1.027923e+00 -6.790378e-01 -3.329158e-01 
1.189389e-02 3.488801e-01 6.935937e-01 1.046686e+00 1.397198e+00 1.721538e+00 1.983311e+00 2.151995e+00 2.228204e+00 2.306264e+00 2.638746e+00 3.705423e+00 6.234645e+00 1.101384e+01 4.184110e+00 -3.029205e+00 1.929598e+01 1.261124e+01 -1.209120e+01 -8.314045e+00 -6.201039e+00 -4.493920e+00 -3.060931e+00 -1.935562e+00 -1.084157e+00 -4.755060e-01 -6.587506e-02 1.827856e-01 3.036122e-01 3.236909e-01 2.678250e-01 1.601786e-01 2.574658e-02 -1.100559e-01 -2.214090e-01 -2.841802e-01 -2.741240e-01 -1.682239e-01 6.002297e-02 4.402409e-01 1.009445e+00 1.806435e+00 2.866141e+00 4.212221e+00 5.814999e+00 7.778457e+00 9.879118e+00 -8.267708e+00 -2.103932e+01 5.305719e-01 -4.254644e-01 -1.345828e+01 -6.568040e+00 -3.482883e+00 -2.256944e+00 -1.952815e+00 -1.948541e+00 -1.951083e+00 -1.844994e+00 -1.629227e+00 -1.335296e+00 -1.004100e+00 -6.622163e-01 -3.233420e-01 
1.328822e-02 3.287958e-01 6.527235e-01 9.861608e-01 1.318147e+00 1.625798e+00 1.872939e+00 2.032390e+00 2.107274e+00 2.203769e+00 2.580197e+00 3.771699e+00 6.609227e+00 1.277514e+01 -3.730402e+00 1.720449e+00 1.881720e+01 -1.258227e+00 -1.183537e+01 -8.524105e+00 -6.185312e+00 -4.427810e+00 -3.038553e+00 -1.981539e+00 -1.199461e+00 -6.436303e-01 -2.661518e-01 -2.734060e-02 1.044860e-01 1.540670e-01 1.428753e-01 9.068749e-02 1.755553e-02 -5.665391e-02 -1.115117e-01 -1.276852e-01 -8.494436e-02 3.702428e-02 2.630118e-01 6.224545e-01 1.154952e+00 1.905121e+00 2.927595e+00 4.271329e+00 5.980879e+00 8.131089e+00 1.052184e+01 7.801815e+00 -1.936735e+01 -7.828225e+00 7.160292e+00 -1.069363e+01 -5.548890e+00 -2.996315e+00 -1.947167e+00 -1.720461e+00 -1.754976e+00 -1.788285e+00 -1.708033e+00 -1.516672e+00 -1.245576e+00 -9.367504e-01 -6.168921e-01 -3.000607e-01 
1.342765e-02 2.916869e-01 5.783158e-01 8.747158e-01 1.170605e+00 1.445320e+00 1.665093e+00 1.807255e+00 1.875775e+00 1.979445e+00 2.365427e+00 3.591618e+00 6.530830e+00 1.201512e+01 -6.903447e+00 5.532037e+00 1.682614e+01 -7.885066e+00 -9.113493e+00 -7.492111e+00 -5.635482e+00 -4.058345e+00 -2.813253e+00 -1.872845e+00 -1.185695e+00 -6.986293e-01 -3.653340e-01 -1.482964e-01 -1.886641e-02 4.463049e-02 6.028335e-02 4.401220e-02 1.163725e-02 -2.150618e-02 -3.948413e-02 -2.702220e-02 3.244903e-02 1.564701e-01 3.672830e-01 6.929590e-01 1.172168e+00 1.851912e+00 2.794059e+00 4.057122e+00 5.713943e+00 7.774532e+00 1.023054e+01 1.406794e+01 -1.376467e+01 -1.376708e+01 3.798223e+00 -7.849645e+00 -5.105511e+00 -2.688227e+00 -1.678745e+00 -1.460792e+00 -1.502061e+00 -1.549204e+00 -1.491671e+00 -1.330677e+00 -1.094720e+00 -8.233633e-01 -5.415122e-01 -2.624828e-01 
1.202996e-02 2.374803e-01 4.703621e-01 7.121254e-01 9.540084e-01 1.178946e+00 1.358233e+00 1.474190e+00 1.530573e+00 1.625056e+00 1.968139e+00 3.039489e+00 5.485752e+00 7.941247e+00 -5.173741e+00 9.050592e+00 1.297644e+01 -9.767977e+00 -7.383430e+00 -6.042362e+00 -4.656121e+00 -3.381862e+00 -2.365691e+00 -1.596884e+00 -1.037775e+00 -6.420889e-01 -3.695773e-01 -1.887717e-01 -7.578724e-02 -1.312407e-02 1.355772e-02 1.643799e-02 7.453298e-03 -2.032312e-03 -1.062748e-04 2.479081e-02 8.554450e-02 1.964102e-01 3.758041e-01 6.482581e-01 1.047247e+00 1.616369e+00 2.410391e+00 3.481158e+00 4.881500e+00 6.577954e+00 8.729942e+00 1.219544e+01 -7.766882e+00 -1.126909e+01 1.758870e+00 -4.920369e+00 -5.007673e+00 -2.506601e+00 -1.445388e+00 -1.183667e+00 -1.198848e+00 -1.240353e+00 -1.199945e+00 -1.073810e+00 -8.844633e-01 -6.652051e-01 -4.369997e-01 -2.112069e-01 
9.089816e-03 1.680561e-01 3.326053e-01 5.039480e-01 6.756584e-01 8.355464e-01 9.626455e-01 1.044864e+00 1.085818e+00 1.161141e+00 1.433361e+00 2.263336e+00 4.086252e+00 4.121066e+00 -3.334725e+00 5.829723e+00 6.575238e+00 -7.298865e+00 -5.314780e+00 -4.249602e+00 -3.312618e+00 -2.426380e+00 -1.709860e+00 -1.165262e+00 -7.690099e-01 -4.887912e-01 -2.948330e-01 -1.646747e-01 -8.104225e-02 -3.162272e-02 -6.399254e-03 2.920767e-03 4.383143e-03 5.558245e-03 1.442401e-02 3.881272e-02 8.759867e-02 1.709708e-01 3.021155e-01 4.994409e-01 7.872557e-01 1.199031e+00 1.772558e+00 2.542725e+00 3.529736e+00 4.681138e+00 6.070447e+00 7.524939e+00 -4.439126e+00 -7.654362e+00 1.366104e+00 -2.023135e+00 -4.156407e+00 -2.051523e+00 -1.120646e+00 -8.575696e-01 -8.443196e-01 -8.696679e-01 -8.425809e-01 -7.551873e-01 -6.224250e-01 -4.680472e-01 -3.072056e-01 -1.481420e-01 
4.897611e-03 8.712147e-02 1.723478e-01 2.612595e-01 3.504597e-01 4.335844e-01 4.995820e-01 5.423494e-01 5.644586e-01 6.081598e-01 7.659907e-01 1.238304e+00 2.259125e+00 1.469612e+00 -1.452010e+00 3.725331e+00 3.612840e+00 -3.187026e+00 -2.667755e+00 -2.172805e+00 -1.714303e+00 -1.265367e+00 -8.966696e-01 -6.146435e-01 -4.089280e-01 -2.634496e-01 -1.624191e-01 -9.421741e-02 -4.974896e-02 -2.266232e-02 -7.785965e-03 -9.091170e-04 2.038632e-03 4.857631e-03 1.156930e-02 2.614684e-02 5.313671e-02 9.786688e-02 1.672309e-01 2.710957e-01 4.221801e-01 6.384146e-01 9.384003e-01 1.337906e+00 1.839921e+00 2.402806e+00 3.029443e+00 3.368413e+00 -2.400456e+00 -4.661665e+00 3.812184e-01 -5.498524e-01 -2.388370e+00 -1.165059e+00 -6.228094e-01 -4.563402e-01 -4.385639e-01 -4.490378e-01 -4.349532e-01 -3.900739e-01 -3.215779e-01 -2.417821e-01 -1.586019e-01 -7.637477e-02 
1.290242e-13 8.523868e-14 9.711603e-14 2.174455e-13 4.760659e-13 1.007932e-12 1.883028e-12 3.517358e-12 6.236409e-12 1.115717e-11 1.975660e-11 3.649396e-11 7.040930e-11 6.723666e-11 -3.879342e-11 -1.200017e-11 4.127123e-11 -1.573320e-11 -1.734913e-11 -1.995577e-11 -1.973030e-11 -1.693833e-11 -1.367981e-11 -1.051641e-11 -7.790807e-12 -5.513133e-12 -3.761027e-12 -2.474975e-12 -1.591277e-12 -1.039083e-12 -7.025048e-13 -5.169250e-13 -4.341885e-13 -3.512070e-13 -2.090734e-13 2.951431e-14 4.637292e-13 1.152531e-12 2.190893e-12 3.699942e-12 5.865609e-12 8.830906e-12 1.285240e-11 1.811830e-11 2.460242e-11 3.095223e-11 3.084693e-11 -1.824329e-11 -7.480396e-11 1.436521e-11 4.626676e-12 -2.048068e-10 -1.940924e-10 -5.110735e-11 -1.334924e-11 -2.667098e-12 9.847192e-14 6.729840e-13 6.666735e-13 5.428984e-13 4.779038e-13 4.059417e-13 3.139566e-13 2.051391e-13 
-4.897611e-03 -8.712147e-02 -1.723478e-01 -2.612595e-01 -3.504597e-01 -4.335844e-01 -4.995820e-01 -5.423494e-01 -5.644586e-01 -6.081598e-01 -7.659907e-01 -1.238304e+00 -2.259125e+00 -1.469612e+00 1.452010e+00 -3.725331e+00 -3.612840e+00 3.187026e+00 2.667755e+00 2.172805e+00 1.714303e+00 1.265367e+00 8.966696e-01 6.146435e-01 4.089280e-01 2.634496e-01 1.624191e-01 9.421741e-02 4.974896e-02 2.266232e-02 7.785965e-03 9.091170e-04 -2.038632e-03 -4.857631e-03 -1.156930e-02 -2.614684e-02 -5.313671e-02 -9.786688e-02 -1.672309e-01 -2.710957e-01 -4.221801e-01 -6.384146e-01 -9.384003e-01 -1.337906e+00 -1.839921e+00 -2.402806e+00 -3.029443e+00 -3.368413e+00 2.400456e+00 4.661665e+00 -3.812184e-01 5.498524e-01 2.388370e+00 1.165059e+00 6.228094e-01 4.563402e-01 4.385639e-01 4.490378e-01 4.349532e-01 3.900739e-01 3.215779e-01 2.417821e-01 1.586019e-01 7.637477e-02 