# vtk DataFile Version 2.0
Comment goes here
ASCII

DATASET STRUCTURED_POINTS
FIELD FieldData 1
TIME 1 1 double
1.47000000
DIMENSIONS    64   64   1

ORIGIN    0.000   0.000   0.000
SPACING   0.015625 0.015625   1.000

POINT_DATA   4096
SCALARS Omega double
LOOKUP_TABLE default

-5.499443e-14 -4.061188e-14 -1.401771e-14 3.866249e-14 1.092006e-13 2.067034e-13 3.709533e-13 5.771324e-13 8.440828e-13 1.203455e-12 1.709287e-12 2.298295e-12 3.034447e-12 3.946331e-12 4.993367e-12 6.149678e-12 7.439064e-12 8.806861e-12 1.018094e-11 1.147797e-11 1.265265e-11 1.353056e-11 1.405555e-11 1.418505e-11 1.379639e-11 1.287546e-11 1.143429e-11 9.508446e-12 7.061159e-12 4.176232e-12 9.577558e-13 -2.528805e-12 -6.129791e-12 -9.666187e-12 -1.294158e-11 -1.584343e-11 -1.818611e-11 -1.984633e-11 -2.077150e-11 -2.095787e-11 -2.043161e-11 -1.931111e-11 -1.775014e-11 -1.585339e-11 -1.377408e-11 -1.169920e-11 -9.713445e-12 -7.856538e-12 -6.249331e-12 -4.865891e-12 -3.725523e-12 -2.803371e-12 -2.107757e-12 -1.545396e-12 -1.136107e-12 -8.078634e-13 -5.888424e-13 -4.051335e-13 -2.897544e-13 -2.125266e-13 -1.588622e-13 -1.082242e-13 -8.878431e-14 -7.526139e-14 
-4.188603e-04 2.659548e-03 5.515983e-03 7.916138e-03 9.621770e-03 1.039459e-02 9.991319e-03 8.172879e-03 4.696462e-03 -6.615184e-04 -8.118655e-03 -1.784264e-02 -2.996882e-02 -4.453395e-02 -6.149533e-02 -8.065242e-02 -1.016684e-01 -1.240043e-01 -1.469505e-01 -1.696059e-01 -1.909254e-01 -2.097648e-01 -2.249296e-01 -2.352756e-01 -2.397214e-01 -2.373676e-01 -2.274734e-01 -2.095785e-01 -1.835481e-01 -1.496998e-01 -1.089584e-01 -6.284330e-02 -1.351390e-02 3.653056e-02 8.464950e-02 1.284538e-01 1.660265e-01 1.960525e-01 2.178632e-01 2.312995e-01 2.366830e-01 2.346408e-01 2.261099e-01 2.121976e-01 1.941509e-01 1.732464e-01 1.507148e-01 1.276792e-01 1.050927e-01 8.372422e-02 6.414222e-02 4.672903e-02 3.170139e-02 1.913568e-02 8.999281e-03 1.178563e-03 -4.500364e-03 -8.243426e-03 -1.028585e-02 -1.086504e-02 -1.023204e-02 -8.627522e-03 -6.299072e-03 -3.482749e-03 
-8.536895e-04 5.405426e-03 1.122061e-02 1.612323e-02 1.963723e-02 2.128573e-02 2.058237e-02 1.704808e-02 1.019664e-02 -4.212932e-04 -1.524333e-02 -3.460924e-02 -5.879473e-02 -8.788028e-02 -1.217873e-01 -1.601224e-01 -2.022168e-01 -2.469965e-01 -2.930410e-01 -3.385447e-01 -3.814118e-01 -4.193513e-01 -4.499783e-01 -4.710195e-01 -4.803291e-01 -4.761254e-01 -4.568987e-01 -4.216681e-01 -3.700322e-01 -3.024854e-01 -2.207759e-01 -1.279243e-01 -2.837289e-02 7.268534e-02 1.697376e-01 2.578461e-01 3.331305e-01 3.930161e-01 4.362914e-01 4.627566e-01 4.731408e-01 4.687268e-01 4.513955e-01 4.233524e-01 3.870816e-01 3.451364e-01 2.999762e-01 2.538494e-01 2.086605e-01 1.659431e-01 1.268296e-01 9.207633e-02 6.211142e-02 3.708063e-02 1.691495e-02 1.383252e-03 -9.864069e-03 -1.724024e-02 -2.121626e-02 -2.226715e-02 -2.089497e-02 -1.758093e-02 -1.282001e-02 -7.084165e-03 
-1.332380e-03 8.316599e-03 1.729937e-02 2.491346e-02 3.044515e-02 3.317929e-02 3.238605e-02 2.734589e-02 1.732702e-02 1.651574e-03 -2.034415e-02 -4.917931e-02 -8.528245e-02 -1.287908e-01 -1.796085e-01 -2.371650e-01 -3.004780e-01 -3.679477e-01 -4.374499e-01 -5.062695e-01 -5.712526e-01 -6.289505e-01 -6.757906e-01 -7.083845e-01 -7.235578e-01 -7.186514e-01 -6.913624e-01 -6.400090e-01 -5.636611e-01 -4.626385e-01 -3.392586e-01 -1.980315e-01 -4.594107e-02 1.085930e-01 2.566348e-01 3.902998e-01 5.036379e-01 5.929936e-01 6.569075e-01 6.954531e-01 7.099308e-01 7.023622e-01 6.755641e-01 6.328271e-01 5.778630e-01 5.145001e-01 4.464344e-01 3.770418e-01 3.091747e-01 2.451209e-01 1.865604e-01 1.346072e-01 8.988342e-02 5.259081e-02 2.261260e-02 -4.068827e-04 -1.699812e-02 -2.778383e-02 -3.347232e-02 -3.477618e-02 -3.244869e-02 -2.721105e-02 -1.980544e-02 -1.093921e-02 
-1.860927e-03 1.150142e-02 2.397515e-02 3.462387e-02 4.249794e-02 4.664353e-02 4.608912e-02 3.987326e-02 2.701856e-02 6.613479e-03 -2.223785e-02 -6.024801e-02 -1.080161e-01 -1.657644e-01 -2.334116e-01 -3.102515e-01 -3.950268e-01 -4.856525e-01 -5.793248e-01 -6.724309e-01 -7.607495e-01 -8.396504e-01 -9.043540e-01 -9.503485e-01 -9.734332e-01 -9.700698e-01 -9.370265e-01 -8.716660e-01 -7.719822e-01 -6.374978e-01 -4.706451e-01 -2.773431e-01 -6.771613e-02 1.455891e-01 3.490456e-01 5.310421e-01 6.833672e-01 8.015987e-01 8.846410e-01 9.333934e-01 9.500824e-01 9.375980e-01 8.997517e-01 8.409378e-01 7.660985e-01 6.803735e-01 5.887010e-01 4.955904e-01 4.048235e-01 3.194051e-01 2.415259e-01 1.726087e-01 1.134361e-01 6.423108e-02 2.480946e-02 -5.325226e-03 -2.689164e-02 -4.072602e-02 -4.777472e-02 -4.898707e-02 -4.536623e-02 -3.787193e-02 -2.749224e-02 -1.516902e-02 
-2.480065e-03 1.504658e-02 3.146124e-02 4.559506e-02 5.626355e-02 6.227641e-02 6.242169e-02 5.549785e-02 4.028044e-02 1.562109e-02 -1.962043e-02 -6.636792e-02 -1.254265e-01 -1.971477e-01 -2.815340e-01 -3.778190e-01 -4.845675e-01 -5.992956e-01 -7.186028e-01 -8.380165e-01 -9.522414e-01 -1.055395e+00 -1.141378e+00 -1.204424e+00 -1.239192e+00 -1.241104e+00 -1.205870e+00 -1.129421e+00 -1.008022e+00 -8.393395e-01 -6.250501e-01 -3.723426e-01 -9.537721e-02 1.869455e-01 4.543267e-01 6.900071e-01 8.832526e-01 1.029663e+00 1.129571e+00 1.185640e+00 1.201392e+00 1.180826e+00 1.128832e+00 1.051032e+00 9.537257e-01 8.434628e-01 7.265026e-01 6.085037e-01 4.941409e-01 3.870686e-01 2.898942e-01 2.042639e-01 1.310386e-01 7.040268e-02 2.205772e-02 -1.466080e-02 -4.067726e-02 -5.704771e-02 -6.495910e-02 -6.559542e-02 -6.020776e-02 -4.999123e-02 -3.617787e-02 -1.994207e-02 
-3.187160e-03 1.909284e-02 4.003730e-02 5.824563e-02 7.230322e-02 8.078504e-02 8.224543e-02 7.524405e-02 5.831363e-02 3.006145e-02 -1.090886e-02 -6.576724e-02 -1.355762e-01 -2.209056e-01 -3.219572e-01 -4.380664e-01 -5.677988e-01 -7.084757e-01 -8.562637e-01 -1.005934e+00 -1.151083e+00 -1.284383e+00 -1.398111e+00 -1.484829e+00 -1.537681e+00 -1.550689e+00 -1.518227e+00 -1.434538e+00 -1.293137e+00 -1.088185e+00 -8.190302e-01 -4.934025e-01 -1.311190e-01 2.391210e-01 5.860037e-01 8.851483e-01 1.123116e+00 1.296970e+00 1.410525e+00 1.469552e+00 1.479300e+00 1.445044e+00 1.373093e+00 1.270679e+00 1.145715e+00 1.006487e+00 8.607298e-01 7.153136e-01 5.757531e-01 4.462006e-01 3.295205e-01 2.273930e-01 1.406145e-01 6.920265e-02 1.266402e-02 -2.989179e-02 -5.962443e-02 -7.782381e-02 -8.592026e-02 -8.532932e-02 -7.754464e-02 -6.399130e-02 -4.614023e-02 -2.539536e-02 
-4.033309e-03 2.374595e-02 4.996516e-02 7.299677e-02 9.120084e-02 1.029255e-01 1.064984e-01 1.002488e-01 8.246770e-02 5.151274e-02 5.702384e-03 -5.643065e-02 -1.363087e-01 -2.348642e-01 -3.527235e-01 -4.895981e-01 -6.444104e-01 -8.146413e-01 -9.963579e-01 -1.183729e+00 -1.369134e+00 -1.543313e+00 -1.696104e+00 -1.817402e+00 -1.897785e+00 -1.928896e+00 -1.903613e+00 -1.814628e+00 -1.653109e+00 -1.407760e+00 -1.072531e+00 -6.533352e-01 -1.769756e-01 3.115466e-01 7.621147e-01 1.139000e+00 1.426827e+00 1.627785e+00 1.752643e+00 1.811109e+00 1.809070e+00 1.753307e+00 1.652282e+00 1.515673e+00 1.353808e+00 1.177351e+00 9.960008e-01 8.180516e-01 6.498004e-01 4.957044e-01 3.585729e-01 2.398261e-01 1.399114e-01 5.846791e-02 -5.357241e-03 -5.278181e-02 -8.526523e-02 -1.043599e-01 -1.117512e-01 -1.090837e-01 -9.808737e-02 -8.040844e-02 -5.774947e-02 -3.173762e-02 
-5.006482e-03 2.917986e-02 6.158349e-02 9.035521e-02 1.136420e-01 1.295738e-01 1.362684e-01 1.318312e-01 1.143202e-01 8.182342e-02 3.233614e-02 -3.600625e-02 -1.251386e-01 -2.366151e-01 -3.718337e-01 -5.313643e-01 -7.150410e-01 -9.211218e-01 -1.146056e+00 -1.383599e+00 -1.624471e+00 -1.856272e+00 -2.064662e+00 -2.234853e+00 -2.353237e+00 -2.407471e+00 -2.389511e+00 -2.294122e+00 -2.111628e+00 -1.822497e+00 -1.409068e+00 -8.681065e-01 -2.344433e-01 4.192702e-01 1.008621e+00 1.481058e+00 1.822644e+00 2.047588e+00 2.181373e+00 2.237848e+00 2.219135e+00 2.132583e+00 1.990699e+00 1.806838e+00 1.594454e+00 1.367945e+00 1.139959e+00 9.207910e-01 7.176661e-01 5.350822e-01 3.754135e-01 2.393236e-01 1.264925e-01 3.580906e-02 -3.419977e-02 -8.526314e-02 -1.192500e-01 -1.380332e-01 -1.435760e-01 -1.377538e-01 -1.225235e-01 -9.974082e-02 -7.132634e-02 -3.912133e-02 
-6.158943e-03 3.552043e-02 7.519733e-02 1.108152e-01 1.403231e-01 1.616527e-01 1.727301e-01 1.714538e-01 1.556471e-01 1.231026e-01 7.140943e-02 -1.842828e-03 -9.937146e-02 -2.237367e-01 -3.776814e-01 -5.633396e-01 -7.823406e-01 -1.034589e+00 -1.317629e+00 -1.624838e+00 -1.944149e+00 -2.257303e+00 -2.542166e+00 -2.776256e+00 -2.939374e+00 -3.013233e+00 -2.988266e+00 -2.867650e+00 -2.653126e+00 -2.319325e+00 -1.827195e+00 -1.141693e+00 -2.993647e-01 5.791042e-01 1.343113e+00 1.918683e+00 2.306544e+00 2.547994e+00 2.699250e+00 2.767283e+00 2.733508e+00 2.608574e+00 2.415200e+00 2.169947e+00 1.890173e+00 1.596049e+00 1.305239e+00 1.031468e+00 7.833712e-01 5.654817e-01 3.792265e-01 2.239225e-01 9.782706e-02 -1.449608e-03 -7.643254e-02 -1.296537e-01 -1.635856e-01 -1.805275e-01 -1.827717e-01 -1.724376e-01 -1.517016e-01 -1.226131e-01 -8.729245e-02 -4.777878e-02 
-7.464770e-03 4.295799e-02 9.116863e-02 1.349221e-01 1.719975e-01 2.001520e-01 2.171520e-01 2.206988e-01 2.083827e-01 1.776374e-01 1.255308e-01 4.885464e-02 -5.625607e-02 -1.939503e-01 -3.690590e-01 -5.862747e-01 -8.501205e-01 -1.163315e+00 -1.525234e+00 -1.928573e+00 -2.355667e+00 -2.776317e+00 -3.153097e+00 -3.451650e+00 -3.645480e+00 -3.708743e+00 -3.634788e+00 -3.458172e+00 -3.201026e+00 -2.838547e+00 -2.302318e+00 -1.468371e+00 -3.610047e-01 8.186917e-01 1.783803e+00 2.444545e+00 2.848140e+00 3.070271e+00 3.244792e+00 3.357449e+00 3.323910e+00 3.161474e+00 2.921504e+00 2.613351e+00 2.254862e+00 1.876241e+00 1.504252e+00 1.158993e+00 8.522798e-01 5.891846e-01 3.700484e-01 1.921782e-01 5.167810e-02 -5.584959e-02 -1.345650e-01 -1.882377e-01 -2.202384e-01 -2.334661e-01 -2.306331e-01 -2.141340e-01 -1.863620e-01 -1.495422e-01 -1.059675e-01 -5.785229e-02 
-8.958408e-03 5.162005e-02 1.097924e-01 1.631603e-01 2.093692e-01 2.460425e-01 2.708203e-01 2.812273e-01 2.745978e-01 2.479226e-01 1.975511e-01 1.191489e-01 7.175631e-03 -1.448126e-01 -3.446851e-01 -6.007869e-01 -9.218128e-01 -1.314521e+00 -1.780999e+00 -2.312447e+00 -2.880419e+00 -3.429639e+00 -3.891401e+00 -4.218261e+00 -4.385479e+00 -4.381922e+00 -4.191593e+00 -3.875128e+00 -3.498522e+00 -3.119973e+00 -2.689666e+00 -1.791173e+00 -3.979147e-01 1.166703e+00 2.284503e+00 2.916840e+00 3.281069e+00 3.416943e+00 3.667091e+00 3.911585e+00 3.890545e+00 3.689309e+00 3.451452e+00 3.110817e+00 2.680784e+00 2.210979e+00 1.743630e+00 1.310373e+00 9.295327e-01 6.089296e-01 3.483374e-01 1.428825e-01 -1.421543e-02 -1.301357e-01 -2.114149e-01 -2.636371e-01 -2.914882e-01 -2.987358e-01 -2.886579e-01 -2.639913e-01 -2.273518e-01 -1.811231e-01 -1.277347e-01 -6.954176e-02 
-1.059111e-02 6.166906e-02 1.313587e-01 1.959728e-01 2.530785e-01 3.002136e-01 3.349402e-01 3.546114e-01 3.562770e-01 3.363347e-01 2.901753e-01 2.118831e-01 9.367914e-02 -7.397607e-02 -3.027730e-01 -6.056222e-01 -9.961285e-01 -1.486071e+00 -2.081212e+00 -2.771244e+00 -3.509476e+00 -4.189194e+00 -4.670851e+00 -4.909593e+00 -4.888902e+00 -4.645465e+00 -4.232625e+00 -3.765467e+00 -3.147793e+00 -2.723423e+00 -2.789928e+00 -2.000966e+00 -4.116315e-01 1.670281e+00 2.708020e+00 3.065320e+00 3.529669e+00 3.380212e+00 3.634182e+00 4.112234e+00 4.129389e+00 3.888335e+00 3.832418e+00 3.561635e+00 3.107188e+00 2.568444e+00 2.010392e+00 1.482380e+00 1.015825e+00 6.259732e-01 3.146102e-01 7.543970e-02 -1.013548e-01 -2.263579e-01 -3.092193e-01 -3.579931e-01 -3.792118e-01 -3.778668e-01 -3.580236e-01 -3.228662e-01 -2.752595e-01 -2.177298e-01 -1.527988e-01 -8.291664e-02 
-1.235180e-02 7.318601e-02 1.560309e-01 2.336410e-01 3.035744e-01 3.633520e-01 4.105055e-01 4.422271e-01 4.552153e-01 4.451017e-01 4.060016e-01 3.299689e-01 2.064369e-01 2.228838e-02 -2.382106e-01 -5.922448e-01 -1.057535e+00 -1.650553e+00 -2.382701e+00 -3.247657e+00 -4.177433e+00 -4.961720e+00 -5.278071e+00 -5.195029e+00 -4.616584e+00 -3.853740e+00 -3.245993e+00 -1.335380e+00 4.261476e-01 2.730063e+00 4.587329e+00 3.903125e+00 1.084284e+00 -1.813754e+00 -3.978868e+00 -3.137551e+00 -1.781016e-01 1.666313e+00 2.820988e+00 3.500791e+00 3.492025e+00 3.068748e+00 3.779122e+00 3.767565e+00 3.382369e+00 2.850894e+00 2.249959e+00 1.647662e+00 1.098452e+00 6.348465e-01 2.662484e-01 -1.196930e-02 -2.116326e-01 -3.466467e-01 -4.302049e-01 -4.734347e-01 -4.852629e-01 -4.723589e-01 -4.398540e-01 -3.915481e-01 -3.305994e-01 -2.596721e-01 -1.813242e-01 -9.804051e-02 
-1.415848e-02 8.622703e-02 1.838591e-01 2.762477e-01 3.610323e-01 4.357930e-01 4.980884e-01 5.449355e-01 5.726019e-01 5.757182e-01 5.468320e-01 4.755436e-01 3.483373e-01 1.486745e-01 -1.417721e-01 -5.417041e-01 -1.068067e+00 -1.738229e+00 -2.572879e+00 -3.593780e+00 -4.743344e+00 -5.623370e+00 -5.343281e+00 -4.870576e+00 -3.500317e+00 1.870883e+00 1.489545e+01 2.462995e+01 2.158083e+01 1.530927e+01 1.005195e+01 5.744381e+00 1.814528e+00 -2.150053e+00 -6.191552e+00 -1.104286e+01 -1.718699e+01 -2.209097e+01 -1.879529e+01 -6.367583e+00 -6.952169e-01 -2.381066e-01 3.135714e+00 3.487474e+00 3.255414e+00 2.883277e+00 2.355917e+00 1.744864e+00 1.144244e+00 6.188904e-01 1.957093e-01 -1.225664e-01 -3.465744e-01 -4.920519e-01 -5.753820e-01 -6.109408e-01 -6.105114e-01 -5.828741e-01 -5.345782e-01 -4.702467e-01 -3.934164e-01 -3.068910e-01 -2.132073e-01 -1.148087e-01 
-1.592933e-02 1.007438e-01 2.146833e-01 3.235626e-01 4.252060e-01 5.173424e-01 5.976023e-01 6.628035e-01 7.086621e-01 7.285852e-01 7.133058e-01 6.498856e-01 5.223450e-01 3.124842e-01 3.517330e-03 -4.169834e-01 -9.528248e-01 -1.609743e+00 -2.422202e+00 -3.509021e+00 -4.984136e+00 -6.185523e+00 -4.569955e+00 1.711871e+00 1.688883e+01 2.637987e+01 2.055513e+01 6.719491e+00 -3.492834e+00 -4.800004e+00 -4.464300e+00 -2.756726e+00 2.186352e-01 3.113521e+00 5.787692e+00 7.059060e+00 6.842073e+00 1.286811e+00 -1.129254e+01 -2.058603e+01 -2.083802e+01 -8.245999e+00 2.330670e+00 2.491820e+00 2.332143e+00 2.385819e+00 2.149595e+00 1.660441e+00 1.083722e+00 5.394676e-01 8.367208e-02 -2.648308e-01 -5.094039e-01 -6.636706e-01 -7.451137e-01 -7.707021e-01 -7.550472e-01 -7.093999e-01 -6.420408e-01 -5.586882e-01 -4.633601e-01 -3.590278e-01 -2.481403e-01 -1.330131e-01 
-1.754644e-02 1.165806e-01 2.480937e-01 3.749589e-01 4.952988e-01 6.070764e-01 7.080232e-01 7.946939e-01 8.621132e-01 9.022436e-01 9.039749e-01 8.521938e-01 7.301836e-01 5.218071e-01 2.199375e-01 -1.674480e-01 -6.067585e-01 -1.060920e+00 -1.569521e+00 -2.481865e+00 -4.663064e+00 -2.071387e+00 1.020579e+01 2.417000e+01 2.383933e+01 5.476331e+00 -1.230419e+01 -1.708159e+01 -1.454381e+01 -1.047233e+01 -5.683873e+00 -2.368351e+00 -2.351548e-01 1.735850e+00 4.308141e+00 8.488806e+00 1.376074e+01 1.749815e+01 1.745954e+01 7.069193e+00 -1.109926e+01 -2.036610e+01 -1.272322e+01 -2.217571e+00 1.526748e-01 1.067280e+00 1.423587e+00 1.232768e+00 8.037317e-01 3.284525e-01 -1.046527e-01 -4.535314e-01 -7.046350e-01 -8.615100e-01 -9.379154e-01 -9.509365e-01 -9.172306e-01 -8.504685e-01 -7.609299e-01 -6.556848e-01 -5.393862e-01 -4.152134e-01 -2.854757e-01 -1.522605e-01 
-1.885825e-02 1.334539e-01 2.833889e-01 4.293404e-01 5.698410e-01 7.031520e-01 8.270937e-01 9.378414e-01 1.029548e+00 1.092589e+00 1.114271e+00 1.078545e+00 9.711581e-01 7.846391e-01 5.332750e-01 2.667630e-01 9.410487e-02 1.609433e-01 4.808174e-01 3.928994e-01 2.094820e+00 1.414816e+01 2.316743e+01 1.247827e+01 -8.567497e+00 -1.928317e+01 -1.077107e+01 6.941182e+00 1.533778e+01 1.075733e+01 5.958688e+00 2.660208e+00 1.912978e-01 -1.885393e+00 -5.007394e+00 -9.624675e+00 -1.437131e+01 -1.285260e+01 1.769043e+00 1.616238e+01 1.620651e+01 -1.034363e+00 -1.733701e+01 -1.472781e+01 -6.401767e+00 -1.624193e+00 -1.774978e-04 2.584310e-01 1.331761e-01 -1.220679e-01 -4.251438e-01 -7.122116e-01 -9.389250e-01 -1.084781e+00 -1.150289e+00 -1.147713e+00 -1.093437e+00 -1.002979e+00 -8.886168e-01 -7.590327e-01 -6.196787e-01 -4.740239e-01 -3.241967e-01 -1.719623e-01 
-1.972958e-02 1.508973e-01 3.195080e-01 4.850589e-01 6.465784e-01 8.026524e-01 9.511066e-01 1.087544e+00 1.205029e+00 1.292315e+00 1.335900e+00 1.321116e+00 1.241555e+00 1.107429e+00 9.685178e-01 9.378839e-01 1.243641e+00 2.254519e+00 4.166173e+00 6.069350e+00 1.231345e+01 1.606448e+01 3.611288e+00 -1.189227e+01 -1.143811e+01 1.727804e+00 1.034936e+01 1.182815e+01 1.156221e+01 8.627329e+00 5.433301e+00 2.618718e+00 1.492577e-01 -2.217376e+00 -4.947176e+00 -8.023664e+00 -1.067343e+01 -1.249229e+01 -1.243767e+01 -8.078566e+00 4.561966e+00 1.428923e+01 4.081423e+00 -1.043756e+01 -1.128082e+01 -5.833439e+00 -2.482605e+00 -1.498653e+00 -1.177061e+00 -9.647044e-01 -9.505477e-01 -1.068657e+00 -1.218207e+00 -1.329894e+00 -1.375592e+00 -1.354070e+00 -1.277522e+00 -1.161796e+00 -1.020928e+00 -8.653728e-01 -7.015953e-01 -5.334681e-01 -3.629411e-01 -1.913711e-01 
-1.999386e-02 1.683021e-01 3.550713e-01 5.399387e-01 7.224812e-01 9.015604e-01 1.074836e+00 1.237033e+00 1.379876e+00 1.490629e+00 1.556415e+00 1.567857e+00 1.534245e+00 1.495696e+00 1.548879e+00 1.874321e+00 2.830212e+00 5.152354e+00 8.244794e+00 7.562128e+00 7.680645e+00 1.754225e+00 -7.094141e+00 -2.217175e+00 4.714899e+00 7.071771e+00 8.172663e+00 8.396711e+00 7.973688e+00 6.471392e+00 4.415293e+00 2.240802e+00 9.625564e-02 -2.032059e+00 -4.210053e+00 -6.302564e+00 -7.914529e+00 -8.762060e+00 -8.695441e+00 -8.093898e+00 -7.160782e+00 -7.680557e-01 6.411908e+00 1.758233e+00 -6.532488e+00 -6.902641e+00 -4.951350e+00 -4.520570e+00 -3.509967e+00 -2.375199e+00 -1.745327e+00 -1.540862e+00 -1.540814e+00 -1.587478e+00 -1.602270e+00 -1.559073e+00 -1.460127e+00 -1.319323e+00 -1.151833e+00 -9.699922e-01 -7.815290e-01 -5.908998e-01 -3.999334e-01 -2.095316e-01 
-1.954855e-02 1.848606e-01 3.883471e-01 5.912765e-01 7.937614e-01 9.948068e-01 1.191611e+00 1.377588e+00 1.542810e+00 1.673330e+00 1.759072e+00 1.801577e+00 1.837439e+00 1.953330e+00 2.304975e+00 3.098327e+00 4.657632e+00 7.258860e+00 3.340162e+00 1.006275e+00 3.995949e+00 4.404082e-01 3.320308e-01 3.791880e+00 4.274534e+00 5.142785e+00 5.791524e+00 5.996364e+00 5.712558e+00 4.810905e+00 3.435428e+00 1.801567e+00 6.784274e-02 -1.674944e+00 -3.347896e+00 -4.797827e+00 -5.801423e+00 -6.213576e+00 -6.030521e+00 -5.473437e+00 -4.881478e+00 -4.329337e+00 -1.797724e+00 7.729877e-01 -3.748541e+00 -3.556903e+00 -1.146625e+00 -6.761705e+00 -7.651069e+00 -4.442759e+00 -2.795188e+00 -2.112121e+00 -1.891487e+00 -1.841329e+00 -1.814617e+00 -1.748615e+00 -1.629450e+00 -1.466064e+00 -1.273890e+00 -1.067166e+00 -8.551840e-01 -6.432346e-01 -4.331605e-01 -2.254094e-01 
-1.832538e-02 1.996258e-01 4.173568e-01 6.359857e-01 8.560906e-01 1.076590e+00 1.293821e+00 1.499323e+00 1.681123e+00 1.824378e+00 1.924414e+00 2.000443e+00 2.130946e+00 2.476493e+00 3.290524e+00 4.756535e+00 7.350432e+00 3.093765e+00 -3.487110e+00 5.068096e+00 7.848521e+00 -8.859453e-02 -3.593768e-02 1.939007e+00 2.788796e+00 3.508108e+00 4.031211e+00 4.244486e+00 4.094279e+00 3.523802e+00 2.581752e+00 1.384417e+00 5.917509e-02 -1.280982e+00 -2.523289e+00 -3.535428e+00 -4.183603e+00 -4.394987e+00 -4.189045e+00 -3.664618e+00 -2.925163e+00 -1.909582e+00 -2.246341e-01 1.599528e+00 -3.630585e+00 -8.794517e+00 2.189958e+00 1.362581e+00 -9.108659e+00 -6.539034e+00 -3.848766e+00 -2.703515e+00 -2.235973e+00 -2.067480e+00 -1.992344e+00 -1.905495e+00 -1.771393e+00 -1.590793e+00 -1.378378e+00 -1.150261e+00 -9.176549e-01 -6.870114e-01 -4.604027e-01 -2.378986e-01 
-1.632717e-02 2.115423e-01 4.399624e-01 6.707617e-01 9.048543e-01 1.140774e+00 1.373521e+00 1.592057e+00 1.781800e+00 1.926806e+00 2.029613e+00 2.131297e+00 2.362362e+00 2.984513e+00 4.506399e+00 8.159638e+00 7.558199e+00 -6.639226e+00 5.641829e-01 1.347529e+01 2.030482e+00 -3.241621e+00 -1.155131e+00 4.086620e-01 1.447733e+00 2.189139e+00 2.691939e+00 2.932365e+00 2.883823e+00 2.525423e+00 1.884430e+00 1.030591e+00 6.001868e-02 -9.252502e-01 -1.820074e+00 -2.521566e+00 -2.944475e+00 -3.046873e+00 -2.836293e+00 -2.347076e+00 -1.597546e+00 -5.193679e-01 1.047273e+00 3.232043e+00 1.705617e+00 -1.195585e+01 -9.043775e+00 7.188343e+00 6.632738e-01 -6.853457e+00 -4.511050e+00 -3.280590e+00 -2.560079e+00 -2.247747e+00 -2.117158e+00 -2.013432e+00 -1.872165e+00 -1.682266e+00 -1.456394e+00 -1.212449e+00 -9.638885e-01 -7.186878e-01 -4.794239e-01 -2.459230e-01 
-1.370034e-02 2.194452e-01 4.539467e-01 6.922496e-01 9.354544e-01 1.181417e+00 1.423345e+00 1.646939e+00 1.834212e+00 1.967237e+00 2.055458e+00 2.160541e+00 2.452599e+00 3.208921e+00 4.686240e+00 9.474810e+00 -3.320375e+00 -8.111272e+00 1.420729e+01 9.520952e+00 -4.945746e+00 -3.283399e+00 -1.903422e+00 -5.944858e-01 4.170279e-01 1.154927e+00 1.657974e+00 1.929389e+00 1.964570e+00 1.760354e+00 1.338446e+00 7.484688e-01 6.287345e-02 -6.355537e-01 -1.261159e+00 -1.735719e+00 -1.999340e+00 -2.021819e+00 -1.800156e+00 -1.340705e+00 -6.362132e-01 3.553972e-01 1.684124e+00 3.314397e+00 4.735906e+00 -8.478308e-01 -1.813002e+01 -3.077892e+00 1.035694e+01 -5.807388e+00 -6.865953e+00 -4.098971e+00 -2.860917e+00 -2.356789e+00 -2.169807e+00 -2.058017e+00 -1.920035e+00 -1.730739e+00 -1.499958e+00 -1.247483e+00 -9.892211e-01 -7.350235e-01 -4.882235e-01 -2.485973e-01 
-1.059928e-02 2.222531e-01 4.572640e-01 6.973794e-01 9.437661e-01 1.193435e+00 1.437549e+00 1.658147e+00 1.832970e+00 1.940394e+00 1.994809e+00 2.077105e+00 2.420503e+00 3.417581e+00 5.556707e+00 5.239655e+00 -1.192996e+01 5.149935e+00 2.059521e+01 -2.045935e+00 -6.682721e+00 -4.277026e+00 -2.655223e+00 -1.370531e+00 -3.777367e-01 3.558098e-01 8.648100e-01 1.164613e+00 1.264393e+00 1.173646e+00 9.143029e-01 5.254446e-01 6.210356e-02 -4.120205e-01 -8.308314e-01 -1.135668e+00 -1.281288e+00 -1.241194e+00 -1.003613e+00 -5.600207e-01 1.046333e-01 1.022218e+00 2.215835e+00 3.621934e+00 4.884599e+00 6.934101e+00 -1.048487e+01 -1.733892e+01 7.080341e+00 5.552250e+00 -6.946314e+00 -4.173338e+00 -2.909267e+00 -2.329979e+00 -2.127939e+00 -2.027755e+00 -1.906459e+00 -1.728647e+00 -1.502502e+00 -1.249952e+00 -9.895160e-01 -7.331029e-01 -4.850059e-01 -2.451348e-01 
-7.386825e-03 2.188545e-01 4.480025e-01 6.833801e-01 9.261887e-01 1.172668e+00 1.412135e+00 1.623209e+00 1.778833e+00 1.851191e+00 1.851859e+00 1.862013e+00 2.155135e+00 3.215293e+00 6.076778e+00 -5.854357e+00 -6.486279e+00 1.838179e+01 8.998280e+00 -1.048334e+01 -7.149001e+00 -4.969786e+00 -3.293334e+00 -1.986361e+00 -9.891827e-01 -2.538833e-01 2.640847e-01 5.892036e-01 7.409210e-01 7.357656e-01 5.963726e-01 3.556548e-01 5.673040e-02 -2.512080e-01 -5.172394e-01 -6.961572e-01 -7.514268e-01 -6.583437e-01 -3.997847e-01 4.090284e-02 6.863926e-01 1.575163e+00 2.747922e+00 4.252676e+00 6.108471e+00 8.618033e+00 5.586365e+00 -2.132264e+01 -5.875747e+00 1.451053e+01 -4.693618e+00 -4.340786e+00 -2.820244e+00 -2.188783e+00 -1.996858e+00 -1.925590e+00 -1.830838e+00 -1.673449e+00 -1.460538e+00 -1.216482e+00 -9.619913e-01 -7.109611e-01 -4.686212e-01 -2.351625e-01 
-4.311929e-03 2.084495e-01 4.247447e-01 6.481623e-01 8.799985e-01 1.116162e+00 1.344927e+00 1.543131e+00 1.679805e+00 1.721776e+00 1.668519e+00 1.581341e+00 1.693099e+00 2.425162e+00 5.082526e+00 -1.385485e+01 3.804843e+00 2.082589e+01 -6.559650e+00 -1.150029e+01 -8.057773e+00 -5.582501e+00 -3.773449e+00 -2.427620e+00 -1.421789e+00 -6.871622e-01 -1.669011e-01 1.732224e-01 3.595206e-01 4.142029e-01 3.603438e-01 2.267163e-01 4.766818e-02 -1.388710e-01 -2.936120e-01 -3.813564e-01 -3.714361e-01 -2.401724e-01 3.371473e-02 4.728078e-01 1.108201e+00 1.987658e+00 3.177139e+00 4.791844e+00 6.953697e+00 9.995292e+00 1.490971e+01 -1.415889e+01 -1.668803e+01 9.028478e+00 -8.237064e-03 -4.182014e+00 -2.515060e+00 -1.930674e+00 -1.788998e+00 -1.759991e+00 -1.696933e+00 -1.565224e+00 -1.372433e+00 -1.144911e+00 -9.047033e-01 -6.671669e-01 -4.382231e-01 -2.183933e-01 
-1.771944e-03 1.903829e-01 3.864800e-01 5.902403e-01 8.031694e-01 1.021504e+00 1.233893e+00 1.418157e+00 1.543019e+00 1.575784e+00 1.506343e+00 1.380084e+00 1.331815e+00 1.452704e+00 1.536708e+00 -9.708060e+00 1.322786e+01 1.478133e+01 -1.594432e+01 -1.197069e+01 -8.381190e+00 -5.836121e+00 -3.988985e+00 -2.646952e+00 -1.661311e+00 -9.470781e-01 -4.411934e-01 -1.016206e-01 1.013084e-01 1.928213e-01 1.953144e-01 1.340997e-01 3.697815e-02 -6.630532e-02 -1.449977e-01 -1.711052e-01 -1.185209e-01 3.501572e-02 3.126651e-01 7.404788e-01 1.355623e+00 2.211999e+00 3.389403e+00 5.013561e+00 7.222848e+00 1.028249e+01 1.416987e+01 -3.027763e+00 -1.837125e+01 1.992012e+00 7.760432e+00 -3.258093e+00 -2.023788e+00 -1.625771e+00 -1.552425e+00 -1.555062e+00 -1.516050e+00 -1.408184e+00 -1.239300e+00 -1.035068e+00 -8.172238e-01 -6.014116e-01 -3.937493e-01 -1.949965e-01 
6.865430e-05 1.645405e-01 3.330253e-01 5.091787e-01 6.947471e-01 8.869244e-01 1.076212e+00 1.244345e+00 1.364655e+00 1.412692e+00 1.384170e+00 1.345938e+00 1.477065e+00 2.103346e+00 -1.953205e+00 -4.892145e+00 1.349324e+01 6.994804e+00 -1.496938e+01 -1.100637e+01 -7.836592e+00 -5.527457e+00 -3.829605e+00 -2.590802e+00 -1.686895e+00 -1.032230e+00 -5.690306e-01 -2.526894e-01 -5.435890e-02 5.176980e-02 8.606334e-02 7.029331e-02 2.660574e-02 -2.201299e-02 -5.178727e-02 -4.077372e-02 3.287450e-02 1.892456e-01 4.512876e-01 8.459655e-01 1.411932e+00 2.203630e+00 3.299611e+00 4.808833e+00 6.840558e+00 9.512669e+00 1.270437e+01 7.567014e+00 -1.713754e+01 -4.652951e+00 1.126358e+01 -3.103927e+00 -1.895403e+00 -1.483868e+00 -1.367986e+00 -1.341434e+00 -1.300512e+00 -1.207364e+00 -1.063204e+00 -8.878492e-01 -7.000431e-01 -5.140724e-01 -3.355251e-01 -1.652219e-01 
1.037546e-03 1.312381e-01 2.650832e-01 4.058559e-01 5.554023e-01 7.121189e-01 8.693069e-01 1.014247e+00 1.128238e+00 1.198082e+00 1.231815e+00 1.316840e+00 1.689902e+00 2.911944e+00 -3.472698e+00 -2.302574e+00 1.070983e+01 2.884963e+00 -9.692602e+00 -8.324559e+00 -6.323170e+00 -4.609829e+00 -3.261334e+00 -2.245157e+00 -1.496112e+00 -9.497118e-01 -5.624592e-01 -2.947130e-01 -1.221325e-01 -2.166800e-02 2.352375e-02 3.100006e-02 1.760352e-02 4.863501e-04 -2.661819e-03 2.473026e-02 9.987963e-02 2.395760e-01 4.638281e-01 7.974126e-01 1.274644e+00 1.945014e+00 2.872889e+00 4.143760e+00 5.828202e+00 7.960667e+00 1.057342e+01 1.158375e+01 -1.333535e+01 -7.129632e+00 9.165578e+00 -4.017643e+00 -2.363683e+00 -1.557415e+00 -1.239566e+00 -1.119199e+00 -1.050871e+00 -9.645655e-01 -8.462650e-01 -7.053176e-01 -5.550469e-01 -4.067007e-01 -2.647125e-01 -1.297441e-01 
1.223393e-03 9.151884e-02 1.846055e-01 2.830035e-01 3.883130e-01 4.999255e-01 6.139740e-01 7.232231e-01 8.172897e-01 8.924259e-01 9.653295e-01 1.123564e+00 1.602985e+00 2.953655e+00 -3.540194e+00 -6.114875e-01 8.074926e+00 3.308841e-01 -5.821834e+00 -5.368478e+00 -4.311308e+00 -3.253671e+00 -2.352955e+00 -1.645969e+00 -1.114633e+00 -7.227552e-01 -4.438548e-01 -2.492999e-01 -1.218473e-01 -4.423250e-02 -4.422611e-03 9.997162e-03 1.044970e-02 8.396606e-03 1.565753e-02 4.340549e-02 1.036450e-01 2.085392e-01 3.729339e-01 6.158743e-01 9.627969e-01 1.451338e+00 2.125234e+00 3.041310e+00 4.230527e+00 5.656808e+00 7.246801e+00 8.557951e+00 -9.552435e+00 -5.274848e+00 6.178614e+00 -4.048029e+00 -2.598563e+00 -1.499733e+00 -1.030238e+00 -8.409862e-01 -7.531030e-01 -6.786130e-01 -5.913073e-01 -4.912706e-01 -3.857229e-01 -2.820510e-01 -1.831529e-01 -8.944551e-02 
7.766249e-04 4.702784e-02 9.479813e-02 1.454663e-01 1.999746e-01 2.582175e-01 3.185576e-01 3.779942e-01 4.324524e-01 4.827258e-01 5.436829e-01 6.776172e-01 1.059312e+00 2.130849e+00 -2.063236e+00 -4.160503e-01 4.130993e+00 -9.155286e-02 -2.425328e+00 -2.526345e+00 -2.143839e+00 -1.665777e+00 -1.226048e+00 -8.677902e-01 -5.935665e-01 -3.892916e-01 -2.432918e-01 -1.408654e-01 -7.318969e-02 -3.105585e-02 -8.206928e-03 1.809179e-03 4.784305e-03 6.499835e-03 1.290099e-02 2.965520e-02 6.293537e-02 1.191664e-01 2.062103e-01 3.344821e-01 5.173555e-01 7.752926e-01 1.129742e+00 1.608770e+00 2.221378e+00 2.928371e+00 3.670894e+00 3.936299e+00 -5.417412e+00 -2.646659e+00 3.306004e+00 -2.335811e+00 -1.707711e+00 -9.473409e-01 -6.037103e-01 -4.608406e-01 -3.970971e-01 -3.520922e-01 -3.048245e-01 -2.525304e-01 -1.979126e-01 -1.445049e-01 -9.369324e-02 -4.565549e-02 
1.909956e-12 3.674766e-12 5.837609e-12 8.552478e-12 1.186040e-11 1.573039e-11 1.998357e-11 2.430778e-11 2.820419e-11 3.160711e-11 3.515723e-11 4.205775e-11 6.615221e-11 1.792287e-10 -1.619123e-10 -2.354688e-10 1.096784e-10 5.403792e-11 -1.172343e-11 -3.231189e-11 -2.705865e-11 -2.098944e-11 -1.658642e-11 -1.278272e-11 -9.266340e-12 -6.146280e-12 -3.698384e-12 -1.971281e-12 -1.057294e-12 -7.313178e-13 -9.180710e-13 -1.435389e-12 -2.088946e-12 -2.611683e-12 -2.770059e-12 -2.366173e-12 -1.029989e-12 1.518539e-12 5.696605e-12 1.207767e-11 2.123594e-11 3.361045e-11 4.931862e-11 6.796570e-11 8.726235e-11 9.886018e-11 5.982586e-11 -2.576654e-10 -4.808784e-10 3.314775e-10 2.619656e-10 -6.003636e-10 -4.242048e-10 -1.249731e-10 -3.844240e-11 -1.417612e-11 -9.012961e-12 -7.954508e-12 -7.183623e-12 -5.906876e-12 -4.274862e-12 -2.639982e-12 -1.101916e-12 3.671715e-13 
-7.766249e-04 -4.702784e-02 -9.479813e-02 -1.454663e-01 -1.999746e-01 -2.582175e-01 -3.185576e-01 -3.779942e-01 -4.324524e-01 -4.827258e-01 -5.436829e-01 -6.776172e-01 -1.059312e+00 -2.130849e+00 2.063236e+00 4.160503e-01 -4.130993e+00 9.155286e-02 2.425328e+00 2.526345e+00 2.143839e+00 1.665777e+00 1.226048e+00 8.677902e-01 5.935665e-01 3.892916e-01 2.432918e-01 1.408654e-01 7.318969e-02 3.105585e-02 8.206928e-03 -1.809179e-03 -4.784305e-03 -6.499835e-03 -1.290099e-02 -2.965520e-02 -6.293537e-02 -1.191664e-01 -2.062103e-01 -3.344821e-01 -5.173555e-01 -7.752926e-01 -1.129742e+00 -1.608770e+00 -2.221378e+00 -2.928371e+00 -3.670894e+00 -3.936299e+00 5.417412e+00 2.646659e+00 -3.306004e+00 2.335811e+00 1.707711e+00 9.473409e-01 6.037103e-01 4.608406e-01 3.970971e-01 3.520922e-01 3.048245e-01 2.525304e-01 1.979126e-01 1.445049e-01 9.369324e-02 4.565549e-02 