# vtk DataFile Version 2.0
Comment goes here
ASCII

DATASET STRUCTURED_POINTS
FIELD FieldData 1
TIME 1 1 double
1.51000000
DIMENSIONS    64   64   1

ORIGIN    0.000   0.000   0.000
SPACING   0.015625 0.015625   1.000

POINT_DATA   4096
SCALARS Omega double
LOOKUP_TABLE default

-4.922677e-14 -3.075236e-14 -5.734123e-15 6.367961e-14 1.543834e-13 2.667127e-13 4.529113e-13 6.935975e-13 9.979146e-13 1.396116e-12 1.948687e-12 2.593005e-12 3.392630e-12 4.374099e-12 5.484746e-12 6.737483e-12 8.087549e-12 9.560310e-12 1.100717e-11 1.237257e-11 1.357950e-11 1.451977e-11 1.510476e-11 1.525438e-11 1.490238e-11 1.396991e-11 1.247137e-11 1.044100e-11 7.871962e-12 4.834269e-12 1.426716e-12 -2.279376e-12 -6.123511e-12 -9.912751e-12 -1.345134e-11 -1.658562e-11 -1.913215e-11 -2.095705e-11 -2.200552e-11 -2.226484e-11 -2.176265e-11 -2.064000e-11 -1.902333e-11 -1.705536e-11 -1.486765e-11 -1.269105e-11 -1.056158e-11 -8.622555e-12 -6.890334e-12 -5.420530e-12 -4.169744e-12 -3.151195e-12 -2.378422e-12 -1.745040e-12 -1.277824e-12 -9.247490e-13 -6.513262e-13 -4.349507e-13 -3.080691e-13 -2.293599e-13 -1.592863e-13 -1.195216e-13 -1.059710e-13 -7.985855e-14 
-4.339933e-04 2.437315e-03 5.087209e-03 7.283232e-03 8.787356e-03 9.366619e-03 8.780660e-03 6.800737e-03 3.192366e-03 -2.251655e-03 -9.733484e-03 -1.939880e-02 -3.136209e-02 -4.563663e-02 -6.216170e-02 -8.072249e-02 -1.009827e-01 -1.224144e-01 -1.443436e-01 -1.659176e-01 -1.861640e-01 -2.040170e-01 -2.183688e-01 -2.281477e-01 -2.323334e-01 -2.300527e-01 -2.205849e-01 -2.034517e-01 -1.785109e-01 -1.460354e-01 -1.069029e-01 -6.256779e-02 -1.511487e-02 3.302441e-02 7.929565e-02 1.213904e-01 1.574915e-01 1.863691e-01 2.074268e-01 2.205497e-01 2.260600e-01 2.245680e-01 2.169397e-01 2.042025e-01 1.874952e-01 1.679918e-01 1.468336e-01 1.250683e-01 1.036020e-01 8.317337e-02 6.433955e-02 4.749023e-02 3.285138e-02 2.052775e-02 1.050399e-02 2.699289e-03 -3.043053e-03 -6.902601e-03 -9.101268e-03 -9.860410e-03 -9.422428e-03 -8.020873e-03 -5.898747e-03 -3.290224e-03 
-8.882477e-04 4.964598e-03 1.037474e-02 1.487755e-02 1.799760e-02 1.926919e-02 1.821212e-02 1.436860e-02 7.269292e-03 -3.502132e-03 -1.835278e-02 -3.757933e-02 -6.141791e-02 -8.990534e-02 -1.229326e-01 -1.600850e-01 -2.007055e-01 -2.437536e-01 -2.878936e-01 -3.314286e-01 -3.724158e-01 -4.087196e-01 -4.381130e-01 -4.584354e-01 -4.676145e-01 -4.638596e-01 -4.456517e-01 -4.119322e-01 -3.622816e-01 -2.971149e-01 -2.181093e-01 -1.281972e-01 -3.171149e-02 6.622560e-02 1.602182e-01 2.454344e-01 3.181561e-01 3.759576e-01 4.177640e-01 4.434791e-01 4.538608e-01 4.502141e-01 4.343218e-01 4.082762e-01 3.743717e-01 3.349703e-01 2.923572e-01 2.486262e-01 2.055817e-01 1.646874e-01 1.270437e-01 9.341340e-02 6.423502e-02 3.970572e-02 1.978598e-02 4.307687e-03 -7.046458e-03 -1.463779e-02 -1.891088e-02 -2.030859e-02 -1.931512e-02 -1.639719e-02 -1.203997e-02 -6.711428e-03 
-1.386251e-03 7.672886e-03 1.606804e-02 2.310340e-02 2.806714e-02 3.026182e-02 2.896808e-02 2.349914e-02 1.314954e-02 -2.709672e-03 -2.469736e-02 -5.327245e-02 -8.880970e-02 -1.313927e-01 -1.808941e-01 -2.367343e-01 -2.979744e-01 -3.630974e-01 -4.301384e-01 -4.965709e-01 -5.594853e-01 -6.156514e-01 -6.616864e-01 -6.942768e-01 -7.102220e-01 -7.066998e-01 -6.812538e-01 -6.320255e-01 -5.580586e-01 -4.596095e-01 -3.389531e-01 -2.005386e-01 -5.130126e-02 1.003147e-01 2.453907e-01 3.760829e-01 4.865954e-01 5.734481e-01 6.353618e-01 6.725592e-01 6.864530e-01 6.792045e-01 6.536247e-01 6.129479e-01 5.606842e-01 5.004192e-01 4.356040e-01 3.693798e-01 3.044342e-01 2.429305e-01 1.864761e-01 1.361731e-01 9.263763e-02 5.613275e-02 2.657194e-02 3.685708e-03 -1.301441e-02 -2.407618e-02 -3.016960e-02 -3.195904e-02 -3.017000e-02 -2.550099e-02 -1.867817e-02 -1.040204e-02 
-1.946995e-03 1.066483e-02 2.239183e-02 3.230816e-02 3.946805e-02 4.294348e-02 4.177821e-02 3.505600e-02 2.183431e-02 1.264862e-03 -2.749367e-02 -6.508335e-02 -1.120471e-01 -1.685588e-01 -2.345276e-01 -3.092766e-01 -3.916581e-01 -4.797518e-01 -5.710205e-01 -6.621395e-01 -7.492194e-01 -8.278767e-01 -8.934657e-01 -9.413777e-01 -9.671085e-01 -9.666136e-01 -9.362541e-01 -8.730777e-01 -7.751673e-01 -6.421336e-01 -4.764818e-01 -2.841843e-01 -7.540908e-02 1.369736e-01 3.392730e-01 5.197445e-01 6.702496e-01 7.864869e-01 8.674993e-01 9.143286e-01 9.293990e-01 9.159985e-01 8.781509e-01 8.204008e-01 7.475788e-01 6.645891e-01 5.760960e-01 4.863026e-01 3.987617e-01 3.162849e-01 2.409289e-01 1.740649e-01 1.164270e-01 6.829040e-02 2.948202e-02 -3.980551e-04 -2.202728e-02 -3.615041e-02 -4.366684e-02 -4.546383e-02 -4.250624e-02 -3.572302e-02 -2.607824e-02 -1.450354e-02 
-2.597970e-03 1.404634e-02 2.958520e-02 4.286558e-02 5.271081e-02 5.796544e-02 5.743898e-02 4.998646e-02 3.442554e-02 9.679066e-03 -2.533599e-02 -7.147840e-02 -1.295110e-01 -1.997716e-01 -2.823030e-01 -3.764489e-01 -4.809854e-01 -5.937142e-01 -7.116296e-01 -8.306376e-01 -9.458225e-01 -1.051472e+00 -1.141426e+00 -1.209447e+00 -1.249391e+00 -1.255659e+00 -1.223187e+00 -1.147607e+00 -1.025651e+00 -8.556009e-01 -6.394795e-01 -3.846344e-01 -1.053147e-01 1.792828e-01 4.485726e-01 6.855316e-01 8.793633e-01 1.025642e+00 1.124568e+00 1.178674e+00 1.191741e+00 1.168470e+00 1.114384e+00 1.035595e+00 9.385040e-01 8.295191e-01 7.146583e-01 5.992493e-01 4.876997e-01 3.834103e-01 2.887842e-01 2.053570e-01 1.338711e-01 7.452694e-02 2.699110e-02 -9.315184e-03 -3.529379e-02 -5.190446e-02 -6.028636e-02 -6.155178e-02 -5.690425e-02 -4.750011e-02 -3.453804e-02 -1.917746e-02 
-3.358090e-03 1.794294e-02 3.791929e-02 5.519434e-02 6.836650e-02 7.605676e-02 7.684582e-02 6.935968e-02 5.217304e-02 2.396289e-02 -1.662501e-02 -7.072180e-02 -1.393920e-01 -2.232574e-01 -3.226497e-01 -4.371263e-01 -5.655961e-01 -7.057879e-01 -8.543623e-01 -1.006477e+00 -1.156006e+00 -1.295530e+00 -1.416826e+00 -1.511402e+00 -1.570949e+00 -1.587943e+00 -1.555796e+00 -1.468792e+00 -1.322023e+00 -1.111458e+00 -8.372986e-01 -5.075360e-01 -1.416464e-01 2.320031e-01 5.824720e-01 8.852915e-01 1.126849e+00 1.303735e+00 1.418956e+00 1.477469e+00 1.484628e+00 1.446739e+00 1.371079e+00 1.265695e+00 1.138864e+00 9.988617e-01 8.533371e-01 7.089094e-01 5.708948e-01 4.432108e-01 3.284880e-01 2.282568e-01 1.431124e-01 7.303406e-02 1.741616e-02 -2.458438e-02 -5.414863e-02 -7.248666e-02 -8.099322e-02 -8.101361e-02 -7.398797e-02 -6.129797e-02 -4.437033e-02 -2.458864e-02 
-4.256178e-03 2.248518e-02 4.768449e-02 6.974876e-02 8.705936e-02 9.802110e-02 1.009921e-01 9.436989e-02 7.647827e-02 4.572272e-02 4.291690e-04 -6.089071e-02 -1.397308e-01 -2.371794e-01 -3.540957e-01 -4.905423e-01 -6.458812e-01 -8.180598e-01 -1.003588e+00 -1.196790e+00 -1.389918e+00 -1.572993e+00 -1.734688e+00 -1.863204e+00 -1.947250e+00 -1.977066e+00 -1.944849e+00 -1.844195e+00 -1.669404e+00 -1.413580e+00 -1.072857e+00 -6.540648e-01 -1.824691e-01 3.004296e-01 7.484139e-01 1.127080e+00 1.420242e+00 1.628228e+00 1.758944e+00 1.820209e+00 1.818410e+00 1.761402e+00 1.658530e+00 1.520005e+00 1.356438e+00 1.178508e+00 9.960668e-01 8.174267e-01 6.489903e-01 4.952052e-01 3.587799e-01 2.410459e-01 1.422145e-01 6.184306e-02 -1.126538e-03 -4.792855e-02 -8.011805e-02 -9.921107e-02 -1.068909e-01 -1.047494e-01 -9.446571e-02 -7.764331e-02 -5.593004e-02 -3.092654e-02 
-5.309227e-03 2.782301e-02 5.920074e-02 8.702460e-02 1.094721e-01 1.247413e-01 1.309773e-01 1.263464e-01 1.089092e-01 7.675744e-02 2.782490e-02 -3.986040e-02 -1.284047e-01 -2.396219e-01 -3.752306e-01 -5.362013e-01 -7.227743e-01 -9.334974e-01 -1.164869e+00 -1.410104e+00 -1.658812e+00 -1.896817e+00 -2.107749e+00 -2.274840e+00 -2.383121e+00 -2.420867e+00 -2.381189e+00 -2.260579e+00 -2.054963e+00 -1.752384e+00 -1.340165e+00 -8.197715e-01 -2.225804e-01 3.916268e-01 9.536705e-01 1.415706e+00 1.759838e+00 1.993673e+00 2.136382e+00 2.199852e+00 2.189140e+00 2.112145e+00 1.979757e+00 1.803817e+00 1.597214e+00 1.373945e+00 1.147093e+00 9.275078e-01 7.232113e-01 5.393482e-01 3.786808e-01 2.421224e-01 1.292476e-01 3.891113e-02 -3.062929e-02 -8.119249e-02 -1.148398e-01 -1.334870e-01 -1.391549e-01 -1.337111e-01 -1.190780e-01 -9.708091e-02 -6.957755e-02 -3.837746e-02 
-6.538568e-03 3.411060e-02 7.280044e-02 1.075423e-01 1.363276e-01 1.571619e-01 1.679881e-01 1.667368e-01 1.511825e-01 1.190417e-01 6.775250e-02 -5.313058e-03 -1.031145e-01 -2.285251e-01 -3.845343e-01 -5.735149e-01 -7.970987e-01 -1.054860e+00 -1.343370e+00 -1.654008e+00 -1.971863e+00 -2.275394e+00 -2.540250e+00 -2.743010e+00 -2.864165e+00 -2.892585e+00 -2.825840e+00 -2.668393e+00 -2.424576e+00 -2.076392e+00 -1.596035e+00 -9.747548e-01 -2.470648e-01 5.058029e-01 1.183836e+00 1.725220e+00 2.109498e+00 2.356991e+00 2.508170e+00 2.577816e+00 2.564435e+00 2.475201e+00 2.321078e+00 2.111564e+00 1.860751e+00 1.587152e+00 1.309024e+00 1.041328e+00 7.947445e-01 5.757506e-01 3.873301e-01 2.299253e-01 1.022113e-01 2.055048e-03 -7.327302e-02 -1.264173e-01 -1.601383e-01 -1.768816e-01 -1.790874e-01 -1.689437e-01 -1.486309e-01 -1.201974e-01 -8.569898e-02 -4.714045e-02 
-7.951817e-03 4.150723e-02 8.881629e-02 1.318212e-01 1.683536e-01 1.962448e-01 2.132490e-01 2.170500e-01 2.051026e-01 1.746623e-01 1.225366e-01 4.522813e-02 -6.135807e-02 -2.015175e-01 -3.799433e-01 -6.008993e-01 -8.679211e-01 -1.182040e+00 -1.539860e+00 -1.929779e+00 -2.328860e+00 -2.702866e+00 -3.014868e+00 -3.233722e+00 -3.333767e+00 -3.306536e+00 -3.166875e+00 -2.952175e+00 -2.691975e+00 -2.328090e+00 -1.798177e+00 -1.088697e+00 -2.385693e-01 6.511279e-01 1.435354e+00 2.042146e+00 2.432237e+00 2.630681e+00 2.757653e+00 2.840406e+00 2.847647e+00 2.775443e+00 2.631915e+00 2.412878e+00 2.129808e+00 1.809173e+00 1.477800e+00 1.157320e+00 8.629571e-01 6.037430e-01 3.836658e-01 2.029038e-01 5.919779e-02 -5.083306e-02 -1.311840e-01 -1.856190e-01 -2.178216e-01 -2.309501e-01 -2.279714e-01 -2.114674e-01 -1.838997e-01 -1.475484e-01 -1.046517e-01 -5.739324e-02 
-9.546178e-03 5.016853e-02 1.075637e-01 1.603551e-01 2.062487e-01 2.429270e-01 2.679691e-01 2.787958e-01 2.724951e-01 2.457537e-01 1.945952e-01 1.144250e-01 -2.390333e-04 -1.554121e-01 -3.577487e-01 -6.136964e-01 -9.289767e-01 -1.306464e+00 -1.742889e+00 -2.222115e+00 -2.707912e+00 -3.143329e+00 -3.475636e+00 -3.673855e+00 -3.691653e+00 -3.532710e+00 -3.246053e+00 -2.941645e+00 -2.730276e+00 -2.410434e+00 -1.845033e+00 -1.080919e+00 -1.687994e-01 8.129906e-01 1.653168e+00 2.311692e+00 2.648368e+00 2.649386e+00 2.688617e+00 2.804645e+00 2.868903e+00 2.869471e+00 2.812368e+00 2.641068e+00 2.359715e+00 2.010627e+00 1.635268e+00 1.264993e+00 9.218491e-01 6.197027e-01 3.650470e-01 1.587513e-01 -2.070579e-03 -1.220306e-01 -2.065868e-01 -2.608718e-01 -2.897377e-01 -2.972644e-01 -2.870880e-01 -2.622816e-01 -2.256277e-01 -1.796524e-01 -1.267600e-01 -6.928904e-02 
-1.130576e-02 6.022122e-02 1.292910e-01 1.935367e-01 2.505840e-01 2.979970e-01 3.331953e-01 3.533130e-01 3.550143e-01 3.342989e-01 2.862627e-01 2.050415e-01 8.365413e-02 -8.563417e-02 -3.112521e-01 -6.014798e-01 -9.640373e-01 -1.404057e+00 -1.919668e+00 -2.490320e+00 -3.059038e+00 -3.528579e+00 -3.830394e+00 -3.986548e+00 -3.855394e+00 -3.404977e+00 -2.750528e+00 -2.297216e+00 -2.573183e+00 -2.588594e+00 -1.922359e+00 -1.032029e+00 -7.394053e-02 1.071390e+00 1.978105e+00 2.822167e+00 3.002486e+00 2.181162e+00 1.931542e+00 2.228705e+00 2.459824e+00 2.595904e+00 2.744206e+00 2.706793e+00 2.477209e+00 2.135309e+00 1.742514e+00 1.339470e+00 9.564174e-01 6.146983e-01 3.261160e-01 9.395321e-02 -8.418337e-02 -2.137180e-01 -3.014271e-01 -3.539363e-01 -3.774313e-01 -3.771275e-01 -3.574818e-01 -3.221833e-01 -2.743885e-01 -2.168937e-01 -1.522516e-01 -8.292607e-02 
-1.318252e-02 7.176702e-02 1.541655e-01 2.316253e-01 3.017472e-01 3.620147e-01 4.097015e-01 4.416271e-01 4.539714e-01 4.419427e-01 3.996352e-01 3.198978e-01 1.945082e-01 1.459193e-02 -2.288212e-01 -5.443229e-01 -9.401941e-01 -1.424669e+00 -2.001802e+00 -2.652040e+00 -3.288107e+00 -3.723682e+00 -3.883255e+00 -4.094069e+00 -3.762551e+00 -2.764268e+00 -1.215868e+00 -1.654646e-01 -2.367894e+00 -4.038626e+00 -2.591507e+00 -4.653243e-01 2.578954e-01 8.888631e-01 2.002341e+00 4.710711e+00 4.513880e+00 5.433186e-01 -9.740488e-02 1.103326e+00 1.681814e+00 1.864784e+00 2.369333e+00 2.528098e+00 2.384100e+00 2.092098e+00 1.729946e+00 1.333211e+00 9.358758e-01 5.697963e-01 2.555714e-01 1.919146e-03 -1.911090e-01 -3.284788e-01 -4.175882e-01 -4.663058e-01 -4.821181e-01 -4.715105e-01 -4.398887e-01 -3.916935e-01 -3.305181e-01 -2.594636e-01 -1.812109e-01 -9.831337e-02 
-1.512041e-02 8.482435e-02 1.821809e-01 2.746171e-01 3.597740e-01 4.350948e-01 4.977200e-01 5.441229e-01 5.699522e-01 5.695730e-01 5.361584e-01 4.615836e-01 3.372596e-01 1.548456e-01 -9.233808e-02 -4.093520e-01 -8.018594e-01 -1.282731e+00 -1.875517e+00 -2.585419e+00 -3.288052e+00 -3.563701e+00 -3.242219e+00 -4.169494e+00 -3.756577e+00 -6.723812e-01 5.099695e+00 1.489232e+01 1.935850e+01 1.673856e+01 1.227242e+01 7.080504e+00 1.711945e+00 -3.257753e+00 -8.907535e+00 -1.361902e+01 -1.712312e+01 -1.608505e+01 -8.813993e+00 -1.285982e+00 1.349867e+00 8.987322e-01 1.877873e+00 2.111447e+00 1.983293e+00 1.760963e+00 1.498244e+00 1.173446e+00 8.102629e-01 4.525697e-01 1.340131e-01 -1.281536e-01 -3.284233e-01 -4.690823e-01 -5.564437e-01 -5.987179e-01 -6.042334e-01 -5.806756e-01 -5.344416e-01 -4.708374e-01 -3.939631e-01 -3.072620e-01 -2.135280e-01 -1.153587e-01 
-1.701288e-02 9.934699e-02 2.131516e-01 3.222116e-01 4.242771e-01 5.167930e-01 5.967694e-01 6.603077e-01 7.025045e-01 7.169488e-01 6.962372e-01 6.321115e-01 5.174614e-01 3.476163e-01 1.235321e-01 -1.495337e-01 -4.677724e-01 -8.524302e-01 -1.377099e+00 -2.142527e+00 -3.029278e+00 -2.958561e+00 -8.248150e-01 5.942406e-01 1.008728e+01 2.357637e+01 2.292199e+01 1.377529e+01 5.527806e+00 8.203719e-01 -5.890251e-01 -6.021690e-01 6.801291e-01 1.861246e+00 2.957489e+00 2.582183e+00 -1.013568e+00 -6.560369e+00 -1.584887e+01 -2.183419e+01 -1.551522e+01 -3.179305e+00 2.291297e+00 1.484981e+00 1.172827e+00 9.916051e-01 9.199791e-01 7.614475e-01 5.051116e-01 2.117910e-01 -7.035412e-02 -3.137859e-01 -5.046461e-01 -6.390111e-01 -7.189572e-01 -7.510438e-01 -7.432317e-01 -7.039631e-01 -6.404670e-01 -5.589728e-01 -4.641339e-01 -3.597828e-01 -2.488078e-01 -1.338047e-01 
-1.875636e-02 1.151431e-01 2.465986e-01 3.736580e-01 4.942462e-01 6.058417e-01 7.053166e-01 7.883773e-01 8.496138e-01 8.820858e-01 8.785831e-01 8.323080e-01 7.407334e-01 6.079272e-01 4.504819e-01 2.952999e-01 1.668336e-01 3.285818e-02 -2.922089e-01 -1.185142e+00 -2.854309e+00 -2.282943e+00 8.044926e+00 2.116702e+01 2.316749e+01 1.143573e+01 -5.036589e+00 -1.379360e+01 -1.503253e+01 -1.387698e+01 -1.051048e+01 -5.648722e+00 -5.020076e-01 4.273845e+00 9.409366e+00 1.414430e+01 1.628840e+01 1.664480e+01 1.320342e+01 -6.430690e-02 -1.563278e+01 -1.981800e+01 -9.548314e+00 -1.962463e-01 -1.469431e-01 -3.713889e-01 -1.188294e-01 -8.379424e-03 -7.470834e-02 -2.248121e-01 -4.034468e-01 -5.799592e-01 -7.311147e-01 -8.419569e-01 -9.050861e-01 -9.217038e-01 -8.971110e-01 -8.394112e-01 -7.562195e-01 -6.546036e-01 -5.397977e-01 -4.160562e-01 -2.863597e-01 -1.532489e-01 
-2.020026e-02 1.319033e-01 2.817593e-01 4.277408e-01 5.679994e-01 7.000603e-01 8.206227e-01 9.249956e-01 1.007386e+00 1.060875e+00 1.079763e+00 1.061361e+00 1.012291e+00 9.522845e-01 9.240533e-01 9.907207e-01 1.217790e+00 1.568043e+00 1.663868e+00 5.505070e-01 -1.580452e+00 8.473789e+00 2.201364e+01 1.458676e+01 -4.394605e+00 -1.663712e+01 -1.673301e+01 -4.940262e+00 7.401172e+00 1.005817e+01 7.591510e+00 3.880639e+00 4.565866e-01 -2.580671e+00 -6.794244e+00 -1.062053e+01 -9.714311e+00 -1.505777e+00 1.184173e+01 1.881630e+01 1.391796e+01 -4.363581e+00 -1.792955e+01 -1.166237e+01 -4.230143e+00 -2.359783e+00 -1.596314e+00 -1.196804e+00 -1.036110e+00 -9.502344e-01 -9.255814e-01 -9.586215e-01 -1.021391e+00 -1.081310e+00 -1.113274e+00 -1.107235e+00 -1.061997e+00 -9.834199e-01 -8.785907e-01 -7.551630e-01 -6.189022e-01 -4.745242e-01 -3.250999e-01 -1.730776e-01 
-2.121134e-02 1.491345e-01 3.175094e-01 4.826867e-01 6.430663e-01 7.961979e-01 9.385440e-01 1.065021e+00 1.169720e+00 1.246644e+00 1.293725e+00 1.316228e+00 1.336152e+00 1.397001e+00 1.577282e+00 1.991291e+00 2.773163e+00 3.933082e+00 4.852731e+00 3.436117e+00 8.615362e+00 1.829103e+01 7.610646e+00 -1.107664e+01 -1.235974e+01 -1.348295e-01 1.085924e+01 1.413198e+01 1.303713e+01 9.623005e+00 6.467643e+00 3.316582e+00 3.239642e-01 -2.601306e+00 -5.956407e+00 -9.493041e+00 -1.243372e+01 -1.518763e+01 -1.453584e+01 -6.317857e+00 7.778720e+00 1.481978e+01 2.228995e+00 -1.112310e+01 -1.073140e+01 -5.774563e+00 -2.976525e+00 -2.743612e+00 -2.493721e+00 -2.077011e+00 -1.704726e+00 -1.482415e+00 -1.387451e+00 -1.358061e+00 -1.339471e+00 -1.301743e+00 -1.231887e+00 -1.130593e+00 -1.003054e+00 -8.569887e-01 -6.985986e-01 -5.330725e-01 -3.636047e-01 -1.925195e-01 
-2.165203e-02 1.661812e-01 3.523932e-01 5.361977e-01 7.162261e-01 8.899801e-01 1.053575e+00 1.201557e+00 1.328293e+00 1.430082e+00 1.511406e+00 1.590913e+00 1.713611e+00 1.955014e+00 2.431504e+00 3.303312e+00 4.800348e+00 7.157148e+00 6.984821e+00 5.120294e+00 1.057643e+01 5.270347e+00 -8.611710e+00 -4.676861e+00 4.983380e+00 8.192632e+00 8.940265e+00 9.572268e+00 9.026875e+00 7.228729e+00 4.994529e+00 2.587903e+00 1.880438e-01 -2.205908e+00 -4.696132e+00 -7.079406e+00 -8.920227e+00 -9.944173e+00 -9.393249e+00 -8.842715e+00 -8.225185e+00 7.608854e-01 8.592372e+00 2.875235e+00 -5.193622e+00 -6.506326e+00 -4.648917e+00 -4.546361e+00 -4.656417e+00 -3.737638e+00 -2.794097e+00 -2.168915e+00 -1.831855e+00 -1.667620e+00 -1.575753e+00 -1.496365e+00 -1.398340e+00 -1.273589e+00 -1.123543e+00 -9.552642e-01 -7.751897e-01 -5.890098e-01 -4.000872e-01 -2.106329e-01 
-2.141199e-02 1.822326e-01 3.846611e-01 5.855299e-01 7.836337e-01 9.762932e-01 1.159114e+00 1.326268e+00 1.472918e+00 1.599324e+00 1.720344e+00 1.874646e+00 2.140283e+00 2.632772e+00 3.493736e+00 4.857667e+00 6.962679e+00 7.853191e+00 1.565877e+00 2.457743e+00 5.318087e+00 -2.492366e+00 -7.750037e-01 4.082042e+00 4.124926e+00 5.459282e+00 6.203074e+00 6.603130e+00 6.314882e+00 5.271567e+00 3.750704e+00 1.970856e+00 1.026131e-01 -1.772987e+00 -3.601727e+00 -5.218306e+00 -6.376638e+00 -6.901224e+00 -6.669534e+00 -6.088898e+00 -5.022481e+00 -4.179821e+00 -2.210401e+00 5.802683e-01 -1.239403e+00 -2.437290e+00 -3.346259e-01 -4.670975e+00 -8.352991e+00 -6.027969e+00 -4.162433e+00 -2.987771e+00 -2.336359e+00 -1.996374e+00 -1.809880e+00 -1.679569e+00 -1.551021e+00 -1.403571e+00 -1.232839e+00 -1.044282e+00 -8.443399e-01 -6.392060e-01 -4.325029e-01 -2.263654e-01 
-2.045494e-02 1.963144e-01 4.123091e-01 6.275812e-01 8.409772e-01 1.049440e+00 1.247847e+00 1.429926e+00 1.592102e+00 1.740314e+00 1.903631e+00 2.148217e+00 2.596943e+00 3.421138e+00 4.777727e+00 6.549037e+00 8.590547e+00 1.328654e+00 -4.095835e+00 5.508568e+00 5.786325e+00 -5.137488e-02 1.223779e+00 2.111676e+00 2.888860e+00 3.742038e+00 4.347668e+00 4.627726e+00 4.453955e+00 3.794329e+00 2.751137e+00 1.460831e+00 5.757411e-02 -1.355755e+00 -2.683335e+00 -3.794685e+00 -4.546693e+00 -4.852843e+00 -4.699619e+00 -4.215066e+00 -3.475870e+00 -2.758412e+00 -2.303994e+00 -2.518863e+00 -4.243067e+00 -7.843203e+00 8.268864e-01 3.963545e+00 -7.233395e+00 -8.541817e+00 -5.526653e+00 -3.821717e+00 -2.852487e+00 -2.319018e+00 -2.024514e+00 -1.837385e+00 -1.678174e+00 -1.510798e+00 -1.323039e+00 -1.117849e+00 -9.013591e-01 -6.803141e-01 -4.586953e-01 -2.386531e-01 
-1.876722e-02 2.074081e-01 4.332727e-01 6.591911e-01 8.839208e-01 1.103800e+00 1.312709e+00 1.503718e+00 1.674718e+00 1.838197e+00 2.040055e+00 2.377721e+00 3.029781e+00 4.252986e+00 6.367890e+00 9.683720e+00 3.742485e+00 -8.390614e+00 2.396061e+00 1.229728e+01 2.418154e+00 -1.822876e+00 -3.872017e-01 8.118677e-01 1.700348e+00 2.431760e+00 2.943236e+00 3.184289e+00 3.102250e+00 2.682891e+00 1.974075e+00 1.059464e+00 3.901269e-02 -9.915437e-01 -1.936445e+00 -2.696241e+00 -3.180730e+00 -3.340612e+00 -3.173985e+00 -2.729341e+00 -2.045900e+00 -1.175289e+00 -1.122895e-01 1.462400e+00 2.280850e+00 -8.509839e+00 -1.033001e+01 7.287609e+00 2.612187e+00 -9.144267e+00 -6.294917e+00 -4.550588e+00 -3.332849e+00 -2.607925e+00 -2.200477e+00 -1.955103e+00 -1.767924e+00 -1.585488e+00 -1.386213e+00 -1.169679e+00 -9.414706e-01 -7.089138e-01 -4.764710e-01 -2.464263e-01 
-1.647781e-02 2.144039e-01 4.454446e-01 6.772212e-01 9.082741e-01 1.134129e+00 1.347412e+00 1.540183e+00 1.711478e+00 1.879816e+00 2.107054e+00 2.517428e+00 3.329744e+00 4.833915e+00 7.337624e+00 9.956584e+00 -8.187028e+00 -5.585949e+00 1.575494e+01 6.420670e+00 -2.954356e+00 -2.526898e+00 -1.347465e+00 -2.291710e-01 6.724876e-01 1.369121e+00 1.851310e+00 2.101348e+00 2.102817e+00 1.855442e+00 1.388020e+00 7.564929e-01 3.534215e-02 -6.951475e-01 -1.353202e+00 -1.862171e+00 -2.159628e+00 -2.212497e+00 -2.014046e+00 -1.577868e+00 -9.110378e-01 -9.387555e-03 1.180670e+00 2.885622e+00 5.794194e+00 1.062987e+00 -1.717677e+01 -3.589132e+00 1.146704e+01 -4.978140e+00 -8.727069e+00 -5.429360e+00 -3.758011e+00 -2.828569e+00 -2.315224e+00 -2.018525e+00 -1.809971e+00 -1.619582e+00 -1.415709e+00 -1.194404e+00 -9.605072e-01 -7.220069e-01 -4.839297e-01 -2.488216e-01 
-1.372056e-02 2.162977e-01 4.469532e-01 6.789506e-01 9.105510e-01 1.136397e+00 1.347728e+00 1.535284e+00 1.698388e+00 1.859619e+00 2.092699e+00 2.538905e+00 3.448038e+00 5.126980e+00 8.137249e+00 8.446728e-01 -1.208511e+01 9.658480e+00 1.732424e+01 -3.868828e+00 -6.045314e+00 -3.766765e+00 -2.269164e+00 -1.092937e+00 -1.725816e-01 5.216416e-01 1.005472e+00 1.282153e+00 1.355082e+00 1.233669e+00 9.429987e-01 5.249063e-01 3.584267e-02 -4.615610e-01 -9.025632e-01 -1.229060e+00 -1.394209e+00 -1.369892e+00 -1.142767e+00 -7.093808e-01 -6.190977e-02 8.121289e-01 1.936712e+00 3.329898e+00 4.876725e+00 5.447706e+00 -9.019201e+00 -1.724559e+01 7.882016e+00 7.707481e+00 -9.143771e+00 -5.302707e+00 -3.875730e+00 -2.914230e+00 -2.345207e+00 -2.015450e+00 -1.796489e+00 -1.606826e+00 -1.406222e+00 -1.187536e+00 -9.548843e-01 -7.169706e-01 -4.793999e-01 -2.450903e-01 
-1.075429e-02 2.121484e-01 4.361560e-01 6.620660e-01 8.879039e-01 1.107591e+00 1.311148e+00 1.487959e+00 1.636636e+00 1.780569e+00 1.997441e+00 2.426373e+00 3.311613e+00 4.856615e+00 8.622752e+00 -1.112061e+01 -4.110326e+00 1.937011e+01 2.984911e+00 -7.795000e+00 -6.342066e+00 -4.503305e+00 -2.977663e+00 -1.767522e+00 -8.284480e-01 -1.278891e-01 3.658552e-01 6.702065e-01 8.008500e-01 7.740026e-01 6.132931e-01 3.525021e-01 3.548931e-02 -2.889389e-01 -5.701946e-01 -7.632443e-01 -8.309538e-01 -7.479714e-01 -4.965301e-01 -6.273530e-02 5.719165e-01 1.428633e+00 2.532304e+00 3.905772e+00 5.578176e+00 7.797484e+00 5.250298e+00 -2.106061e+01 -6.733359e+00 1.423439e+01 -4.228127e+00 -5.377155e+00 -3.974361e+00 -2.937082e+00 -2.303408e+00 -1.949501e+00 -1.728054e+00 -1.546329e+00 -1.355863e+00 -1.146803e+00 -9.224722e-01 -6.921259e-01 -4.618134e-01 -2.348175e-01 
-7.835717e-03 2.012308e-01 4.118410e-01 6.249006e-01 8.383670e-01 1.045921e+00 1.236950e+00 1.400276e+00 1.533304e+00 1.658766e+00 1.849180e+00 2.233354e+00 3.014291e+00 4.337478e+00 5.468125e+00 -1.426910e+01 7.555099e+00 1.955460e+01 -1.012172e+01 -9.368253e+00 -7.038831e+00 -5.082915e+00 -3.485777e+00 -2.245611e+00 -1.295306e+00 -5.920266e-01 -9.299678e-02 2.300377e-01 4.005320e-01 4.397028e-01 3.712406e-01 2.238910e-01 3.252981e-02 -1.653404e-01 -3.305514e-01 -4.280388e-01 -4.270383e-01 -3.033389e-01 -3.570184e-02 3.969069e-01 1.022059e+00 1.871347e+00 2.987344e+00 4.419272e+00 6.237039e+00 8.685994e+00 1.218037e+01 -9.343478e+00 -1.831689e+01 7.745497e+00 5.753346e+00 -6.735383e+00 -4.203929e+00 -2.910869e+00 -2.197807e+00 -1.827913e+00 -1.609371e+00 -1.440155e+00 -1.264709e+00 -1.071345e+00 -8.621299e-01 -6.465026e-01 -4.305494e-01 -2.178114e-01 
-5.200037e-03 1.831250e-01 3.733394e-01 5.664996e-01 7.607274e-01 9.501718e-01 1.124587e+00 1.273864e+00 1.395541e+00 1.513598e+00 1.695487e+00 2.062446e+00 2.746981e+00 3.711506e+00 -2.143124e+00 -7.789942e+00 1.566281e+01 1.066045e+01 -1.484961e+01 -1.030630e+01 -7.442270e+00 -5.359805e+00 -3.731670e+00 -2.494767e+00 -1.561658e+00 -8.759562e-01 -3.884818e-01 -6.298269e-02 1.280985e-01 2.087543e-01 2.017343e-01 1.318528e-01 2.715594e-02 -8.313262e-02 -1.684524e-01 -2.009999e-01 -1.549917e-01 -7.608539e-03 2.637148e-01 6.849229e-01 1.289354e+00 2.118392e+00 3.227696e+00 4.678685e+00 6.562840e+00 9.048167e+00 1.224890e+01 5.900654e+00 -1.982948e+01 -6.487129e-01 1.401184e+01 -7.085546e+00 -3.943752e+00 -2.724490e+00 -2.032143e+00 -1.664977e+00 -1.451504e+00 -1.293963e+00 -1.135447e+00 -9.620772e-01 -7.740874e-01 -5.800729e-01 -3.856004e-01 -1.941562e-01 
-3.097672e-03 1.577081e-01 3.205700e-01 4.866910e-01 6.545818e-01 8.195392e-01 9.728781e-01 1.107426e+00 1.224079e+00 1.353988e+00 1.580584e+00 2.076022e+00 3.142555e+00 5.294949e+00 -8.291259e+00 -2.807298e+00 1.504298e+01 -4.893155e-01 -1.265095e+01 -9.540030e+00 -7.044092e+00 -5.127848e+00 -3.620272e+00 -2.472509e+00 -1.612094e+00 -9.813482e-01 -5.324630e-01 -2.270360e-01 -3.704681e-02 6.164478e-02 8.994079e-02 6.887569e-02 2.078889e-02 -3.191572e-02 -6.571156e-02 -5.882044e-02 1.009207e-02 1.618715e-01 4.184420e-01 8.077368e-01 1.364051e+00 2.133942e+00 3.174476e+00 4.549073e+00 6.340262e+00 8.608790e+00 1.142617e+01 1.433117e+01 -1.639845e+01 -9.037774e+00 1.250299e+01 -4.668609e+00 -3.214027e+00 -2.437456e+00 -1.838326e+00 -1.476196e+00 -1.262366e+00 -1.112240e+00 -9.708091e-01 -8.207871e-01 -6.595861e-01 -4.937209e-01 -3.276054e-01 -1.642774e-01 
-1.558731e-03 1.254702e-01 2.544635e-01 3.866577e-01 5.210641e-01 6.544975e-01 7.806484e-01 8.962743e-01 1.007156e+00 1.153913e+00 1.442629e+00 2.113358e+00 3.684316e+00 7.122998e+00 -9.747550e+00 9.871704e-01 1.391498e+01 -5.782315e+00 -8.454658e+00 -7.347640e+00 -5.782973e+00 -4.328921e+00 -3.112921e+00 -2.162495e+00 -1.444159e+00 -9.160122e-01 -5.389446e-01 -2.792465e-01 -1.121807e-01 -1.649418e-02 2.529317e-02 2.994410e-02 1.443933e-02 -4.625381e-03 -9.824482e-03 1.527336e-02 8.734806e-02 2.239991e-01 4.441735e-01 7.741843e-01 1.244362e+00 1.900053e+00 2.789744e+00 3.974152e+00 5.520770e+00 7.483977e+00 1.009888e+01 1.344248e+01 -1.026271e+01 -9.790643e+00 7.947665e+00 -1.374105e+00 -2.769643e+00 -2.162379e+00 -1.608413e+00 -1.247532e+00 -1.034322e+00 -8.931677e-01 -7.716729e-01 -6.493568e-01 -5.205720e-01 -3.890643e-01 -2.576967e-01 -1.287602e-01 
-6.584047e-04 8.729487e-02 1.767998e-01 2.689127e-01 3.630947e-01 4.576077e-01 5.486247e-01 6.360738e-01 7.282456e-01 8.672245e-01 1.157272e+00 1.841433e+00 3.401139e+00 6.424105e+00 -8.021785e+00 2.203185e+00 1.089443e+01 -6.780977e+00 -5.890169e+00 -4.989803e+00 -4.050615e+00 -3.100555e+00 -2.267577e+00 -1.597365e+00 -1.083323e+00 -7.030741e-01 -4.302397e-01 -2.408490e-01 -1.165885e-01 -4.176960e-02 -3.720871e-03 9.306732e-03 8.862319e-03 5.988156e-03 1.229448e-02 3.888773e-02 9.732369e-02 2.005024e-01 3.623551e-01 6.035076e-01 9.462678e-01 1.426836e+00 2.078482e+00 2.947363e+00 4.064898e+00 5.419877e+00 6.964989e+00 7.800163e+00 -6.023655e+00 -6.845847e+00 4.668643e+00 2.868130e-01 -2.651448e+00 -1.811665e+00 -1.268521e+00 -9.378680e-01 -7.498639e-01 -6.321696e-01 -5.393782e-01 -4.511143e-01 -3.605787e-01 -2.690249e-01 -1.779154e-01 -8.866296e-02 
-1.898565e-04 4.481386e-02 9.068145e-02 1.380252e-01 1.866380e-01 2.358181e-01 2.838855e-01 3.317063e-01 3.855196e-01 4.727393e-01 6.600112e-01 1.100350e+00 2.067154e+00 3.640916e+00 -4.208089e+00 1.324032e+00 5.978639e+00 -3.558837e+00 -2.963544e+00 -2.500733e+00 -2.067361e+00 -1.607497e+00 -1.189649e+00 -8.461040e-01 -5.790283e-01 -3.803694e-01 -2.371746e-01 -1.373028e-01 -7.107881e-02 -3.021755e-02 -8.069318e-03 1.434708e-03 4.158659e-03 5.652466e-03 1.174806e-02 2.807918e-02 6.058095e-02 1.160959e-01 2.020170e-01 3.296777e-01 5.108944e-01 7.655614e-01 1.110271e+00 1.567788e+00 2.145381e+00 2.802872e+00 3.421118e+00 3.294729e+00 -3.111011e+00 -3.656683e+00 2.295326e+00 2.790590e-01 -1.909319e+00 -1.123398e+00 -7.292857e-01 -5.147155e-01 -3.986911e-01 -3.295564e-01 -2.782229e-01 -2.315229e-01 -1.845958e-01 -1.375426e-01 -9.085825e-02 -4.519717e-02 
2.088171e-12 4.051590e-12 6.366585e-12 9.143124e-12 1.236402e-11 1.590923e-11 1.962457e-11 2.323939e-11 2.657614e-11 3.009645e-11 3.672226e-11 5.648325e-11 1.268093e-10 2.300358e-10 -3.512800e-10 -1.592155e-10 2.655228e-10 -8.978337e-11 -3.483324e-11 -1.159455e-11 -6.775653e-12 -7.517809e-12 -8.405287e-12 -8.295099e-12 -6.980678e-12 -5.157353e-12 -3.225046e-12 -1.720873e-12 -7.900402e-13 -5.086541e-13 -7.328638e-13 -1.336261e-12 -2.092387e-12 -2.684728e-12 -2.840747e-12 -2.311676e-12 -7.253725e-13 2.228073e-12 6.850782e-12 1.346928e-11 2.227424e-11 3.332213e-11 4.614184e-11 6.011477e-11 7.265735e-11 7.412452e-11 2.212329e-11 -2.698427e-10 -5.658195e-10 1.101451e-10 5.539898e-10 -2.526754e-10 -5.014555e-10 -1.436189e-10 -4.634327e-11 -1.816425e-11 -1.026684e-11 -7.770985e-12 -6.685176e-12 -5.638729e-12 -4.333577e-12 -2.852606e-12 -1.296228e-12 3.260647e-13 
1.898565e-04 -4.481386e-02 -9.068145e-02 -1.380252e-01 -1.866380e-01 -2.358181e-01 -2.838855e-01 -3.317063e-01 -3.855196e-01 -4.727393e-01 -6.600112e-01 -1.100350e+00 -2.067154e+00 -3.640916e+00 4.208089e+00 -1.324032e+00 -5.978639e+00 3.558837e+00 2.963544e+00 2.500733e+00 2.067361e+00 1.607497e+00 1.189649e+00 8.461040e-01 5.790283e-01 3.803694e-01 2.371746e-01 1.373028e-01 7.107881e-02 3.021755e-02 8.069318e-03 -1.434708e-03 -4.158659e-03 -5.652466e-03 -1.174806e-02 -2.807918e-02 -6.058095e-02 -1.160959e-01 -2.020170e-01 -3.296777e-01 -5.108944e-01 -7.655614e-01 -1.110271e+00 -1.567788e+00 -2.145381e+00 -2.802872e+00 -3.421118e+00 -3.294729e+00 3.111011e+00 3.656683e+00 -2.295326e+00 -2.790590e-01 1.909319e+00 1.123398e+00 7.292857e-01 5.147155e-01 3.986911e-01 3.295564e-01 2.782229e-01 2.315229e-01 1.845958e-01 1.375426e-01 9.085825e-02 4.519717e-02 