# vtk DataFile Version 2.0
Comment goes here
ASCII

DATASET STRUCTURED_POINTS
FIELD FieldData 1
TIME 1 1 double
1.20000000
DIMENSIONS    64   64   1

ORIGIN    0.000   0.000   0.000
SPACING   0.015625 0.015625   1.000

POINT_DATA   4096
SCALARS Omega double
LOOKUP_TABLE default

-6.322995e-14 -5.930875e-14 -5.397337e-14 -4.296791e-14 -3.355474e-14 -2.181706e-14 1.458705e-14 9.133727e-14 1.761947e-13 3.010330e-13 4.904545e-13 7.265699e-13 1.020184e-12 1.433034e-12 1.943756e-12 2.508596e-12 3.193843e-12 3.980077e-12 4.793905e-12 5.613304e-12 6.428024e-12 7.079280e-12 7.575894e-12 7.846732e-12 7.826372e-12 7.455890e-12 6.775373e-12 5.768140e-12 4.451385e-12 2.832315e-12 9.881393e-13 -1.034284e-12 -3.135711e-12 -5.175756e-12 -7.042489e-12 -8.640856e-12 -9.869686e-12 -1.060377e-11 -1.088714e-11 -1.069771e-11 -1.009918e-11 -9.214010e-12 -8.166554e-12 -7.026734e-12 -5.843860e-12 -4.764450e-12 -3.809496e-12 -2.960127e-12 -2.302476e-12 -1.748409e-12 -1.316707e-12 -9.753477e-13 -7.590271e-13 -5.690309e-13 -4.112673e-13 -3.175786e-13 -2.496718e-13 -1.678168e-13 -1.539171e-13 -1.360703e-13 -9.699215e-14 -6.952906e-14 -7.286213e-14 -7.380076e-14 
-3.056037e-04 4.367278e-03 8.845365e-03 1.292200e-02 1.638429e-02 1.900567e-02 2.054620e-02 2.074894e-02 1.933685e-02 1.602467e-02 1.050873e-02 2.506885e-03 -8.258088e-03 -2.198292e-02 -3.880256e-02 -5.868567e-02 -8.145254e-02 -1.066700e-01 -1.336731e-01 -1.615038e-01 -1.889483e-01 -2.145553e-01 -2.366998e-01 -2.536788e-01 -2.638030e-01 -2.655308e-01 -2.575817e-01 -2.390859e-01 -2.097224e-01 -1.698876e-01 -1.208439e-01 -6.473977e-02 -4.575013e-03 5.618475e-02 1.139223e-01 1.654203e-01 2.081548e-01 2.404610e-01 2.616257e-01 2.716619e-01 2.713365e-01 2.618760e-01 2.449222e-01 2.223061e-01 1.958987e-01 1.674951e-01 1.386652e-01 1.107195e-01 8.465808e-02 6.116879e-02 4.067986e-02 2.336191e-02 9.226594e-03 -1.872078e-03 -1.015013e-02 -1.588925e-02 -1.938707e-02 -2.094710e-02 -2.086626e-02 -1.942008e-02 -1.687356e-02 -1.346547e-02 -9.427190e-03 -4.970890e-03 
-6.153873e-04 8.767387e-03 1.775962e-02 2.594697e-02 3.290346e-02 3.817581e-02 4.128526e-02 4.171920e-02 3.892623e-02 3.233843e-02 2.135184e-02 5.404784e-03 -1.605523e-02 -4.342154e-02 -7.696655e-02 -1.166329e-01 -1.620712e-01 -2.124286e-01 -2.663949e-01 -3.220784e-01 -3.770810e-01 -4.285349e-01 -4.732259e-01 -5.077805e-01 -5.288379e-01 -5.332957e-01 -5.185175e-01 -4.826035e-01 -4.246698e-01 -3.452443e-01 -2.466549e-01 -1.331784e-01 -1.102259e-02 1.124987e-01 2.297232e-01 3.339136e-01 4.199155e-01 4.844852e-01 5.263766e-01 5.457970e-01 5.444259e-01 5.248089e-01 4.902890e-01 4.445624e-01 3.913794e-01 3.343288e-01 2.765357e-01 2.205977e-01 1.684949e-01 1.215762e-01 8.068171e-02 4.613465e-02 1.794968e-02 -4.172386e-03 -2.066521e-02 -3.209207e-02 -3.904595e-02 -4.213096e-02 -4.193798e-02 -3.901547e-02 -3.389163e-02 -2.704294e-02 -1.893185e-02 -9.983093e-03 
-9.392295e-04 1.323347e-02 2.681772e-02 3.918999e-02 4.971051e-02 5.769974e-02 6.244219e-02 6.317308e-02 5.907182e-02 4.929372e-02 3.294061e-02 9.176124e-03 -2.282595e-02 -6.365796e-02 -1.137400e-01 -1.730056e-01 -2.409642e-01 -3.163800e-01 -3.973466e-01 -4.810940e-01 -5.641043e-01 -6.421573e-01 -7.105141e-01 -7.641830e-01 -7.981624e-01 -8.077512e-01 -7.887981e-01 -7.379889e-01 -6.532786e-01 -5.346254e-01 -3.849261e-01 -2.105675e-01 -2.152052e-02 1.700604e-01 3.513838e-01 5.114039e-01 6.420749e-01 7.387995e-01 8.002768e-01 8.274141e-01 8.231370e-01 7.915634e-01 7.378592e-01 6.676776e-01 5.866773e-01 5.002432e-01 4.130266e-01 3.288665e-01 2.506675e-01 1.803849e-01 1.192214e-01 6.761421e-02 2.555234e-02 -7.432873e-03 -3.200232e-02 -4.900095e-02 -5.931561e-02 -6.384436e-02 -6.346737e-02 -5.899976e-02 -5.122973e-02 -4.086853e-02 -2.860932e-02 -1.508954e-02 
-1.277340e-03 1.782176e-02 3.613178e-02 5.281736e-02 6.702521e-02 7.785006e-02 8.434469e-02 8.549742e-02 8.022809e-02 6.742329e-02 4.589974e-02 1.454952e-02 -2.773001e-02 -8.174523e-02 -1.480942e-01 -2.267490e-01 -3.171487e-01 -4.177615e-01 -5.261917e-01 -6.388988e-01 -7.513475e-01 -8.580465e-01 -9.527793e-01 -1.028960e+00 -1.079940e+00 -1.099334e+00 -1.081213e+00 -1.020155e+00 -9.117612e-01 -7.539721e-01 -5.492068e-01 -3.058740e-01 -3.890345e-02 2.325445e-01 4.881567e-01 7.109075e-01 8.893216e-01 1.018049e+00 1.096790e+00 1.128164e+00 1.117038e+00 1.069559e+00 9.930015e-01 8.951992e-01 7.838156e-01 6.660753e-01 5.481239e-01 4.349494e-01 3.302854e-01 2.365642e-01 1.552568e-01 8.681851e-02 3.115348e-02 -1.242271e-02 -4.482044e-02 -6.717646e-02 -8.067073e-02 -8.648877e-02 -8.579146e-02 -7.965177e-02 -6.911107e-02 -5.511079e-02 -3.857270e-02 -2.034729e-02 
-1.646205e-03 2.259048e-02 4.583355e-02 6.703397e-02 8.512501e-02 9.897897e-02 1.074235e-01 1.092098e-01 1.030098e-01 8.745226e-02 6.107525e-02 2.249594e-02 -2.968511e-02 -9.653122e-02 -1.788935e-01 -2.768916e-01 -3.900424e-01 -5.166951e-01 -6.541572e-01 -7.982910e-01 -9.436602e-01 -1.083515e+00 -1.210070e+00 -1.314985e+00 -1.389839e+00 -1.426558e+00 -1.417309e+00 -1.353664e+00 -1.226712e+00 -1.029321e+00 -7.612680e-01 -4.329249e-01 -6.656051e-02 3.075312e-01 6.570127e-01 9.556335e-01 1.187502e+00 1.347819e+00 1.439523e+00 1.469021e+00 1.444055e+00 1.373540e+00 1.267248e+00 1.135613e+00 9.885756e-01 8.353512e-01 6.835938e-01 5.393453e-01 4.069960e-01 2.892623e-01 1.876847e-01 1.025742e-01 3.361409e-02 -2.018407e-02 -6.004264e-02 -8.741702e-02 -1.037940e-01 -1.106414e-01 -1.093939e-01 -1.013697e-01 -8.785440e-02 -7.001173e-02 -4.898868e-02 -2.584771e-02 
-2.044127e-03 2.764229e-02 5.612717e-02 8.214545e-02 1.044203e-01 1.216056e-01 1.323161e-01 1.350765e-01 1.283273e-01 1.104457e-01 7.969160e-02 3.438086e-02 -2.723597e-02 -1.065816e-01 -2.049161e-01 -3.227260e-01 -4.598912e-01 -6.149604e-01 -7.852759e-01 -9.663376e-01 -1.151877e+00 -1.333672e+00 -1.501845e+00 -1.645689e+00 -1.754614e+00 -1.819124e+00 -1.830159e+00 -1.775499e+00 -1.637953e+00 -1.399543e+00 -1.053540e+00 -6.119570e-01 -1.085104e-01 4.081175e-01 8.856033e-01 1.282787e+00 1.577558e+00 1.768517e+00 1.866097e+00 1.883952e+00 1.834087e+00 1.728910e+00 1.581219e+00 1.404832e+00 1.212478e+00 1.015776e+00 8.240531e-01 6.443079e-01 4.814028e-01 3.380001e-01 2.154123e-01 1.134953e-01 3.147970e-02 -3.211108e-02 -7.893136e-02 -1.108274e-01 -1.296288e-01 -1.370947e-01 -1.349293e-01 -1.246836e-01 -1.078749e-01 -8.587852e-02 -6.005984e-02 -3.169101e-02 
-2.493411e-03 3.308558e-02 6.725150e-02 9.852448e-02 1.254217e-01 1.463885e-01 1.598398e-01 1.640895e-01 1.573573e-01 1.377686e-01 1.032787e-01 5.183730e-02 -1.877942e-02 -1.105535e-01 -2.254461e-01 -3.647026e-01 -5.290404e-01 -7.177296e-01 -9.286046e-01 -1.157060e+00 -1.395814e+00 -1.634341e+00 -1.859138e+00 -2.055214e+00 -2.208564e+00 -2.309516e+00 -2.351620e+00 -2.321578e+00 -2.188251e+00 -1.910124e+00 -1.465513e+00 -8.677394e-01 -1.691678e-01 5.514550e-01 1.209145e+00 1.738003e+00 2.106656e+00 2.323518e+00 2.416125e+00 2.411187e+00 2.323832e+00 2.169650e+00 1.964805e+00 1.727661e+00 1.474933e+00 1.221549e+00 9.790700e-01 7.556366e-01 5.564007e-01 3.836418e-01 2.379673e-01 1.183479e-01 2.314804e-02 -4.989917e-02 -1.031164e-01 -1.388831e-01 -1.594618e-01 -1.669398e-01 -1.633025e-01 -1.503262e-01 -1.297470e-01 -1.031384e-01 -7.207422e-02 -3.803083e-02 
-2.991878e-03 3.908858e-02 7.954400e-02 1.166823e-01 1.488257e-01 1.742211e-01 1.911030e-01 1.975834e-01 1.916680e-01 1.711988e-01 1.337649e-01 7.680512e-02 -2.599276e-03 -1.073399e-01 -2.405463e-01 -4.048232e-01 -6.024171e-01 -8.339941e-01 -1.098421e+00 -1.391039e+00 -1.702846e+00 -2.019028e+00 -2.318942e+00 -2.579231e+00 -2.779757e+00 -2.913959e+00 -2.991194e+00 -3.007901e+00 -2.907216e+00 -2.599111e+00 -2.033686e+00 -1.224716e+00 -2.535074e-01 7.537697e-01 1.661271e+00 2.363187e+00 2.812645e+00 3.041078e+00 3.111950e+00 3.073883e+00 2.940302e+00 2.725100e+00 2.447259e+00 2.131350e+00 1.799425e+00 1.471442e+00 1.162542e+00 8.826571e-01 6.375250e-01 4.287687e-01 2.558655e-01 1.163117e-01 7.056735e-03 -7.543666e-02 -1.345322e-01 -1.734007e-01 -1.949069e-01 -2.015555e-01 -1.956555e-01 -1.792146e-01 -1.541801e-01 -1.223088e-01 -8.536909e-02 -4.503274e-02 
-3.563245e-03 4.582833e-02 9.338507e-02 1.372138e-01 1.754542e-01 2.061737e-01 2.274401e-01 2.371702e-01 2.331328e-01 2.128214e-01 1.733151e-01 1.113015e-01 2.279262e-02 -9.653483e-02 -2.516453e-01 -4.472975e-01 -6.880591e-01 -9.767115e-01 -1.313437e+00 -1.693208e+00 -2.103671e+00 -2.522144e+00 -2.914405e+00 -3.239842e+00 -3.465506e+00 -3.590871e+00 -3.669493e+00 -3.757003e+00 -3.760065e+00 -3.478828e+00 -2.796745e+00 -1.718386e+00 -3.716144e-01 1.034069e+00 2.276066e+00 3.179317e+00 3.674103e+00 3.858147e+00 3.885379e+00 3.830182e+00 3.666372e+00 3.394315e+00 3.039598e+00 2.633553e+00 2.206111e+00 1.784909e+00 1.390932e+00 1.037936e+00 7.331974e-01 4.782078e-01 2.710597e-01 1.073305e-01 -1.812502e-02 -1.107247e-01 -1.754245e-01 -2.165925e-01 -2.379818e-01 -2.426911e-01 -2.334441e-01 -2.125202e-01 -1.820788e-01 -1.440510e-01 -1.003810e-01 -5.292281e-02 
-4.203446e-03 5.354290e-02 1.092548e-01 1.608540e-01 2.063213e-01 2.435597e-01 2.704860e-01 2.848003e-01 2.839835e-01 2.650330e-01 2.242928e-01 1.573057e-01 5.850735e-02 -7.854889e-02 -2.614012e-01 -4.977159e-01 -7.949039e-01 -1.157950e+00 -1.587830e+00 -2.077690e+00 -2.609228e+00 -3.146546e+00 -3.630596e+00 -3.988599e+00 -4.165133e+00 -4.161730e+00 -4.143500e+00 -4.350815e+00 -4.604632e+00 -4.483626e+00 -3.755367e+00 -2.377271e+00 -5.335053e-01 1.404324e+00 3.057689e+00 4.143789e+00 4.557147e+00 4.558421e+00 4.504934e+00 4.490009e+00 4.362171e+00 4.078041e+00 3.680763e+00 3.203542e+00 2.684894e+00 2.164422e+00 1.672911e+00 1.231474e+00 8.520943e-01 5.380075e-01 2.868579e-01 9.236699e-02 -5.312261e-02 -1.575339e-01 -2.280735e-01 -2.708575e-01 -2.909588e-01 -2.923522e-01 -2.783524e-01 -2.515939e-01 -2.144790e-01 -1.691099e-01 -1.175894e-01 -6.193350e-02 
-4.926694e-03 6.247401e-02 1.276587e-01 1.883948e-01 2.425298e-01 2.878253e-01 3.220415e-01 3.426211e-01 3.466346e-01 3.303670e-01 2.890626e-01 2.166215e-01 1.052661e-01 -5.424863e-02 -2.725757e-01 -5.604828e-01 -9.275922e-01 -1.379689e+00 -1.915944e+00 -2.525380e+00 -3.181492e+00 -3.831916e+00 -4.376829e+00 -4.682903e+00 -4.692143e+00 -4.353095e+00 -3.919855e+00 -4.213495e+00 -4.996474e+00 -5.439932e+00 -5.047641e+00 -3.434020e+00 -7.783522e-01 2.046268e+00 4.183739e+00 5.201637e+00 5.036383e+00 4.498129e+00 4.443528e+00 4.726999e+00 4.756369e+00 4.530848e+00 4.198860e+00 3.725143e+00 3.163421e+00 2.571834e+00 1.992565e+00 1.460320e+00 9.968002e-01 6.120541e-01 3.061376e-01 7.257644e-02 -9.843279e-02 -2.175708e-01 -2.948692e-01 -3.388341e-01 -3.563970e-01 -3.528348e-01 -3.323139e-01 -2.979892e-01 -2.525649e-01 -1.983358e-01 -1.375418e-01 -7.233794e-02 
-5.719601e-03 7.289931e-02 1.491535e-01 2.206974e-01 2.852836e-01 3.405442e-01 3.840677e-01 4.129376e-01 4.236373e-01 4.113923e-01 3.699079e-01 2.908247e-01 1.636194e-01 -2.415791e-02 -2.859424e-01 -6.342510e-01 -1.077754e+00 -1.618043e+00 -2.246644e+00 -2.944676e+00 -3.681300e+00 -4.396033e+00 -4.918165e+00 -4.972347e+00 -4.669652e+00 -3.728026e+00 -2.166515e+00 -2.459647e+00 -3.971443e+00 -5.380453e+00 -6.209845e+00 -4.895251e+00 -1.070190e+00 3.038890e+00 5.305869e+00 5.652614e+00 4.077538e+00 2.592941e+00 3.001023e+00 4.063748e+00 4.294207e+00 4.236478e+00 4.252505e+00 3.943266e+00 3.460411e+00 2.891175e+00 2.284119e+00 1.691692e+00 1.154140e+00 6.967966e-01 3.290176e-01 4.851917e-02 -1.543280e-01 -2.921581e-01 -3.779309e-01 -4.230305e-01 -4.368505e-01 -4.264818e-01 -3.973318e-01 -3.533120e-01 -2.975547e-01 -2.325875e-01 -1.607790e-01 -8.438995e-02 
-6.567766e-03 8.507610e-02 1.742548e-01 2.585712e-01 3.357225e-01 4.032265e-01 4.584414e-01 4.979543e-01 5.173773e-01 5.104762e-01 4.688829e-01 3.815012e-01 2.348467e-01 1.385586e-02 -2.955857e-01 -7.033392e-01 -1.209340e+00 -1.800789e+00 -2.450475e+00 -3.130642e+00 -3.830877e+00 -4.543571e+00 -4.960605e+00 -4.288838e+00 -3.928189e+00 -2.582191e+00 1.986276e+00 5.447656e+00 9.585373e+00 1.339340e+01 1.276148e+01 8.137280e+00 1.232291e+00 -5.973932e+00 -1.193940e+01 -1.419184e+01 -1.192404e+01 -5.626641e+00 5.828236e-01 3.242162e+00 2.530565e+00 2.377970e+00 3.453181e+00 3.470940e+00 3.250546e+00 2.892220e+00 2.398208e+00 1.837788e+00 1.277303e+00 7.701217e-01 3.462621e-01 1.658412e-02 -2.226362e-01 -3.830527e-01 -4.793790e-01 -5.258806e-01 -5.347913e-01 -5.155911e-01 -4.753644e-01 -4.191310e-01 -3.506187e-01 -2.726802e-01 -1.878031e-01 -9.832205e-02 
-7.433330e-03 9.923542e-02 2.034088e-01 3.027156e-01 3.948505e-01 4.772100e-01 5.468437e-01 5.996196e-01 6.299531e-01 6.296540e-01 5.878760e-01 4.905486e-01 3.219775e-01 6.664014e-02 -2.850298e-01 -7.313292e-01 -1.249600e+00 -1.794929e+00 -2.306481e+00 -2.749915e+00 -3.213223e+00 -3.972423e+00 -4.424261e+00 -1.677597e+00 3.311479e+00 1.587055e+01 2.895949e+01 2.726577e+01 2.044670e+01 1.443884e+01 8.891008e+00 4.965926e+00 8.889225e-01 -2.744351e+00 -7.118885e+00 -1.219729e+01 -1.916574e+01 -2.641685e+01 -2.930725e+01 -1.803051e+01 -4.331321e+00 3.240659e-02 2.051655e+00 1.905327e+00 2.089188e+00 2.229398e+00 2.090657e+00 1.740110e+00 1.273866e+00 7.830973e-01 3.346068e-01 -3.331675e-02 -3.076484e-01 -4.925235e-01 -6.011158e-01 -6.493550e-01 -6.522593e-01 -6.220769e-01 -5.680700e-01 -4.967567e-01 -4.127224e-01 -3.192595e-01 -2.189951e-01 -1.142913e-01 
-8.250531e-03 1.155365e-01 2.368913e-01 3.535687e-01 4.633103e-01 5.633815e-01 6.503844e-01 7.192146e-01 7.626785e-01 7.702252e-01 7.283029e-01 6.204532e-01 4.308935e-01 1.487159e-01 -2.216477e-01 -6.518780e-01 -1.075504e+00 -1.392679e+00 -1.490863e+00 -1.341100e+00 -1.279078e+00 -2.585559e+00 -2.943978e-01 1.360763e+01 2.873630e+01 2.907365e+01 1.279550e+01 -1.802502e+00 -6.601409e+00 -8.909794e+00 -8.662387e+00 -5.832216e+00 -1.051320e+00 4.765117e+00 8.023325e+00 9.538860e+00 7.436926e+00 2.957085e+00 -1.122974e+01 -2.623448e+01 -2.823090e+01 -1.740538e+01 -3.660613e+00 -1.075982e+00 -5.577648e-01 4.907896e-01 1.020857e+00 1.152338e+00 9.869429e-01 6.464244e-01 2.480193e-01 -1.227280e-01 -4.185726e-01 -6.244336e-01 -7.450260e-01 -7.948479e-01 -7.905329e-01 -7.471518e-01 -6.764768e-01 -5.869870e-01 -4.844057e-01 -3.726501e-01 -2.545068e-01 -1.323285e-01 
-8.939212e-03 1.340132e-01 2.747165e-01 4.111681e-01 5.412138e-01 6.619467e-01 7.693586e-01 8.570445e-01 9.158318e-01 9.324926e-01 8.911446e-01 7.745247e-01 5.713167e-01 2.836136e-01 -5.516767e-02 -3.692002e-01 -5.226330e-01 -3.376190e-01 3.512629e-01 1.569803e+00 2.501676e+00 5.172458e+00 1.904497e+01 3.034574e+01 1.759591e+01 -5.662739e+00 -1.664314e+01 -1.423684e+01 -8.956416e+00 -2.933421e+00 1.376709e+00 1.645079e+00 -4.208600e-02 -1.479327e+00 -2.339918e+00 7.513002e-01 7.089615e+00 1.386086e+01 1.634880e+01 8.342194e+00 -1.102347e+01 -2.680562e+01 -2.214281e+01 -9.988968e+00 -4.401360e+00 -2.538407e+00 -1.159323e+00 -2.348881e-01 2.027936e-01 2.317844e-01 1.737070e-02 -2.851768e-01 -5.699468e-01 -7.841725e-01 -9.127967e-01 -9.627668e-01 -9.497706e-01 -8.909335e-01 -8.006916e-01 -6.898438e-01 -5.656088e-01 -4.327203e-01 -2.941895e-01 -1.523041e-01 
-9.372213e-03 1.545494e-01 3.165521e-01 4.750063e-01 6.279088e-01 7.721218e-01 9.028013e-01 1.011908e+00 1.087927e+00 1.114992e+00 1.075919e+00 9.560277e-01 7.556380e-01 5.030881e-01 2.807737e-01 2.378758e-01 6.037610e-01 1.633355e+00 3.478995e+00 5.604090e+00 1.147014e+01 2.141918e+01 2.361237e+01 5.732325e+00 -1.374352e+01 -1.319502e+01 4.026338e+00 1.530676e+01 1.227000e+01 8.652081e+00 5.775080e+00 3.091191e+00 2.159492e-01 -2.538946e+00 -5.361280e+00 -7.692741e+00 -1.039598e+01 -1.418612e+01 -6.146334e+00 8.874978e+00 1.453477e+01 8.414000e-01 -1.794480e+01 -2.109928e+01 -1.226048e+01 -5.277838e+00 -4.658978e+00 -2.748043e+00 -1.333271e+00 -6.213670e-01 -4.468718e-01 -5.649670e-01 -7.806295e-01 -9.779026e-01 -1.104995e+00 -1.151782e+00 -1.128230e+00 -1.051843e+00 -9.393532e-01 -8.041789e-01 -6.553475e-01 -4.986660e-01 -3.374361e-01 -1.738447e-01 
-9.422977e-03 1.767908e-01 3.615856e-01 5.438389e-01 7.217341e-01 8.917982e-01 1.048092e+00 1.180560e+00 1.275132e+00 1.313678e+00 1.279884e+00 1.166873e+00 9.975939e-01 8.439854e-01 8.626565e-01 1.301894e+00 2.497595e+00 4.750244e+00 7.396458e+00 1.151016e+01 1.652395e+01 1.413698e+01 6.191819e-01 -1.000972e+01 -3.925981e+00 6.987735e+00 1.129371e+01 1.150301e+01 9.403019e+00 7.192916e+00 5.018178e+00 2.711913e+00 2.423811e-01 -2.197996e+00 -4.480520e+00 -6.361739e+00 -8.022856e+00 -9.353298e+00 -8.721230e+00 -8.584666e+00 -5.039825e-01 7.199913e+00 2.951215e+00 -1.137851e+01 -1.681850e+01 -9.080384e+00 -7.771601e+00 -6.733639e+00 -3.877548e+00 -2.077360e+00 -1.239440e+00 -1.009810e+00 -1.070456e+00 -1.210619e+00 -1.320091e+00 -1.358013e+00 -1.321761e+00 -1.226121e+00 -1.089316e+00 -9.273992e-01 -7.515516e-01 -5.688938e-01 -3.831397e-01 -1.963290e-01 
-8.932752e-03 2.001442e-01 4.084917e-01 6.156177e-01 8.198985e-01 1.017378e+00 1.200695e+00 1.357397e+00 1.470734e+00 1.521225e+00 1.496588e+00 1.405378e+00 1.306964e+00 1.339118e+00 1.757447e+00 2.929314e+00 5.293025e+00 9.074147e+00 1.202773e+01 1.123272e+01 7.204773e+00 1.600751e+00 -2.742472e+00 1.958691e+00 6.195466e+00 5.562494e+00 7.172391e+00 7.550112e+00 6.844881e+00 5.583034e+00 4.013985e+00 2.200572e+00 2.272895e-01 -1.733117e+00 -3.513364e+00 -4.950222e+00 -6.011397e+00 -6.558944e+00 -6.307980e+00 -5.652034e+00 -5.276281e+00 -3.878218e+00 1.588547e+00 -2.163618e-01 -9.094195e+00 -1.009589e+01 -1.042210e+01 -1.119171e+01 -7.556948e+00 -4.234825e+00 -2.427012e+00 -1.655967e+00 -1.452706e+00 -1.482471e+00 -1.552154e+00 -1.573780e+00 -1.522842e+00 -1.407232e+00 -1.245150e+00 -1.055147e+00 -8.508105e-01 -6.408677e-01 -4.295802e-01 -2.188293e-01 
-7.765323e-03 2.237037e-01 4.553294e-01 6.873442e-01 9.182836e-01 1.143486e+00 1.353785e+00 1.533867e+00 1.664296e+00 1.725386e+00 1.713060e+00 1.660128e+00 1.678961e+00 1.995609e+00 2.987968e+00 5.137485e+00 8.961646e+00 1.244371e+01 6.705725e+00 2.678836e+00 6.238083e+00 5.645501e+00 2.076820e+00 1.571803e+00 3.366557e+00 4.062315e+00 4.935217e+00 5.279746e+00 4.999611e+00 4.226063e+00 3.100985e+00 1.724147e+00 2.058044e-01 -1.307154e+00 -2.669620e+00 -3.750656e+00 -4.475425e+00 -4.764196e+00 -4.539924e+00 -3.908135e+00 -2.927840e+00 -1.132611e+00 -1.136449e+00 -2.798214e+00 -6.207095e+00 -5.564901e+00 -4.030134e+00 -1.052869e+01 -1.201248e+01 -7.023001e+00 -4.003750e+00 -2.509390e+00 -1.925049e+00 -1.783640e+00 -1.788366e+00 -1.786042e+00 -1.719831e+00 -1.585320e+00 -1.398863e+00 -1.181089e+00 -9.482826e-01 -7.110571e-01 -4.744307e-01 -2.401368e-01 
-5.824879e-03 2.462575e-01 4.995775e-01 7.551405e-01 1.011561e+00 1.263193e+00 1.498605e+00 1.699105e+00 1.842509e+00 1.910160e+00 1.910265e+00 1.908868e+00 2.085556e+00 2.777191e+00 4.501480e+00 7.773516e+00 1.269553e+01 5.648291e+00 -1.373415e+00 8.874781e+00 1.078477e+01 1.255835e+00 -1.845392e+00 -4.800204e-02 1.556368e+00 2.625803e+00 3.379602e+00 3.718727e+00 3.617904e+00 3.127887e+00 2.331486e+00 1.316043e+00 1.809461e-01 -9.544194e-01 -1.972626e+00 -2.771130e+00 -3.276288e+00 -3.433605e+00 -3.202118e+00 -2.585822e+00 -1.551914e+00 -2.430024e-02 1.607442e+00 3.639413e-01 -6.731578e+00 -1.149495e+01 -4.025660e-02 -8.463187e-01 -1.284137e+01 -1.010436e+01 -5.837008e+00 -3.525720e+00 -2.461539e+00 -2.091659e+00 -2.008190e+00 -1.976785e+00 -1.897300e+00 -1.747629e+00 -1.540142e+00 -1.297138e+00 -1.037827e+00 -7.750540e-01 -5.148302e-01 -2.588145e-01 
-3.069210e-03 2.663136e-01 5.381898e-01 8.143278e-01 1.093306e+00 1.368161e+00 1.624714e+00 1.840225e+00 1.989511e+00 2.055235e+00 2.060641e+00 2.109081e+00 2.455830e+00 3.561102e+00 6.192736e+00 1.165028e+01 1.006251e+01 -4.780787e+00 5.061985e+00 1.642227e+01 2.119972e+00 -3.564939e+00 -2.234079e+00 -7.502640e-01 5.921465e-01 1.585767e+00 2.249961e+00 2.573748e+00 2.567657e+00 2.262058e+00 1.710953e+00 9.811059e-01 1.536438e-01 -6.776484e-01 -1.420530e+00 -1.994976e+00 -2.339764e+00 -2.414775e+00 -2.186135e+00 -1.632825e+00 -7.169077e-01 5.871740e-01 2.155870e+00 3.794680e+00 3.580704e-01 -1.380172e+01 -1.244897e+01 5.080777e+00 -2.299933e+00 -1.286530e+01 -7.569898e+00 -4.594762e+00 -2.996587e+00 -2.361252e+00 -2.179237e+00 -2.121072e+00 -2.035635e+00 -1.878396e+00 -1.656485e+00 -1.393560e+00 -1.112145e+00 -8.276774e-01 -5.474723e-01 -2.732437e-01 
3.818098e-04 2.820770e-01 5.676555e-01 8.595860e-01 1.156287e+00 1.449202e+00 1.720970e+00 1.944184e+00 2.089963e+00 2.141445e+00 2.136006e+00 2.211925e+00 2.687797e+00 4.100124e+00 7.166487e+00 1.322375e+01 -2.879410e+00 -3.636540e+00 1.902455e+01 8.361621e+00 -5.559141e+00 -4.070928e+00 -2.602359e+00 -1.226865e+00 -6.190004e-02 8.095130e-01 1.396164e+00 1.706887e+00 1.761447e+00 1.585125e+00 1.217234e+00 7.096190e-01 1.251898e-01 -4.644993e-01 -9.888165e-01 -1.386427e+00 -1.607841e+00 -1.619811e+00 -1.393122e+00 -9.014247e-01 -1.095418e-01 1.005480e+00 2.392077e+00 3.808969e+00 4.536708e+00 -9.653291e-01 -2.002127e+01 -5.284674e+00 7.919422e+00 -9.867790e+00 -9.671462e+00 -5.615170e+00 -3.429069e+00 -2.530767e+00 -2.262873e+00 -2.192728e+00 -2.114776e+00 -1.961596e+00 -1.734920e+00 -1.460167e+00 -1.163543e+00 -8.635023e-01 -5.689444e-01 -2.818401e-01 
4.324509e-03 2.916571e-01 5.843301e-01 8.854093e-01 1.193092e+00 1.497133e+00 1.776872e+00 1.999919e+00 2.132894e+00 2.156844e+00 2.118410e+00 2.178788e+00 2.717434e+00 4.382599e+00 8.281538e+00 7.374488e+00 -8.500583e+00 9.945514e+00 2.174979e+01 -2.552093e+00 -6.901783e+00 -4.690007e+00 -3.004232e+00 -1.648210e+00 -5.803539e-01 2.053004e-01 7.381490e-01 1.041438e+00 1.140623e+00 1.060153e+00 8.315204e-01 4.947609e-01 9.825370e-02 -3.038083e-01 -6.573901e-01 -9.154829e-01 -1.038515e+00 -9.984445e-01 -7.681361e-01 -3.192845e-01 3.845822e-01 1.379209e+00 2.663641e+00 4.108786e+00 5.373728e+00 6.580835e+00 -1.084205e+01 -1.929622e+01 4.674182e+00 2.718812e+00 -1.111278e+01 -6.140577e+00 -3.612420e+00 -2.524364e+00 -2.219698e+00 -2.166821e+00 -2.116661e+00 -1.982476e+00 -1.763224e+00 -1.487109e+00 -1.184511e+00 -8.772145e-01 -5.759330e-01 -2.831055e-01 
8.306035e-03 2.930058e-01 5.844545e-01 8.861906e-01 1.196243e+00 1.502921e+00 1.782729e+00 1.998860e+00 2.113233e+00 2.102074e+00 2.011591e+00 1.993480e+00 2.412225e+00 3.688035e+00 7.624699e+00 -6.084428e+00 -1.568780e+00 2.176491e+01 7.572752e+00 -9.336294e+00 -7.353158e+00 -5.124894e+00 -3.373498e+00 -2.022369e+00 -1.003251e+00 -2.684174e-01 2.342514e-01 5.379218e-01 6.729119e-01 6.641324e-01 5.389290e-01 3.297677e-01 7.424845e-02 -1.863735e-01 -4.106621e-01 -5.620742e-01 -6.082720e-01 -5.240681e-01 -2.836331e-01 1.429978e-01 7.945215e-01 1.720967e+00 2.958901e+00 4.513758e+00 6.295056e+00 8.160165e+00 5.082942e+00 -2.154058e+01 -6.823712e+00 1.106720e+01 -9.101312e+00 -6.532620e+00 -3.488325e+00 -2.296859e+00 -2.027965e+00 -2.032674e+00 -2.032120e+00 -1.931974e+00 -1.732495e+00 -1.466575e+00 -1.168796e+00 -8.643458e-01 -5.656945e-01 -2.759303e-01 
1.182510e-02 2.843386e-01 5.647868e-01 8.570542e-01 1.159176e+00 1.458747e+00 1.730669e+00 1.935981e+00 2.033477e+00 1.997331e+00 1.867914e+00 1.784585e+00 2.053857e+00 2.859220e+00 5.031667e+00 -1.130833e+01 1.064417e+01 2.047153e+01 -1.046628e+01 -1.089328e+01 -7.956201e+00 -5.510456e+00 -3.658187e+00 -2.304051e+00 -1.313990e+00 -6.128368e-01 -1.317084e-01 1.719408e-01 3.317604e-01 3.740229e-01 3.233820e-01 2.068612e-01 5.417004e-02 -1.029479e-01 -2.322780e-01 -3.050881e-01 -2.943358e-01 -1.772295e-01 7.198098e-02 4.843748e-01 1.102344e+00 1.984449e+00 3.192008e+00 4.807792e+00 6.851672e+00 9.334001e+00 1.285085e+01 -1.526607e+01 -1.720294e+01 6.575254e+00 -2.880222e+00 -5.842122e+00 -2.805610e+00 -1.817793e+00 -1.697247e+00 -1.802010e+00 -1.865605e+00 -1.809072e+00 -1.638780e+00 -1.393866e+00 -1.112203e+00 -8.217629e-01 -5.363132e-01 -2.596071e-01 
1.422457e-02 2.641074e-01 5.226578e-01 7.939369e-01 1.076238e+00 1.357471e+00 1.612853e+00 1.804507e+00 1.891962e+00 1.853483e+00 1.731679e+00 1.682431e+00 2.034622e+00 3.143339e+00 2.156959e+00 -5.312027e+00 1.738013e+01 1.225332e+01 -1.778321e+01 -1.170189e+01 -8.170726e+00 -5.610047e+00 -3.746161e+00 -2.425081e+00 -1.481602e+00 -8.201077e-01 -3.658971e-01 -7.032139e-02 1.009514e-01 1.747705e-01 1.734215e-01 1.199284e-01 3.806176e-02 -4.744081e-02 -1.113331e-01 -1.306824e-01 -8.261903e-02 5.370186e-02 3.035331e-01 6.982402e-01 1.282533e+00 2.118118e+00 3.281075e+00 4.879709e+00 7.001256e+00 9.841029e+00 1.325654e+01 -3.613783e+00 -1.876281e+01 -6.873005e-01 5.021523e+00 -3.754875e+00 -1.767168e+00 -1.245591e+00 -1.319714e+00 -1.520141e+00 -1.637960e+00 -1.621135e+00 -1.483392e+00 -1.267785e+00 -1.013010e+00 -7.480385e-01 -4.869803e-01 -2.340291e-01 
1.499382e-02 2.315746e-01 4.568403e-01 6.947841e-01 9.441515e-01 1.194249e+00 1.422674e+00 1.595834e+00 1.677684e+00 1.653621e+00 1.571818e+00 1.611798e+00 2.180314e+00 4.055922e+00 -1.174200e+00 -1.777700e+00 1.454489e+01 5.367762e+00 -1.366948e+01 -1.049637e+01 -7.498531e+00 -5.206355e+00 -3.522595e+00 -2.325785e+00 -1.477915e+00 -8.836483e-01 -4.753220e-01 -2.038479e-01 -3.760698e-02 4.918375e-02 7.587419e-02 6.178823e-02 2.572108e-02 -1.321016e-02 -3.537335e-02 -2.269924e-02 4.390359e-02 1.828185e-01 4.177871e-01 7.787114e-01 1.309396e+00 2.069128e+00 3.135319e+00 4.609273e+00 6.592200e+00 9.236650e+00 1.247663e+01 7.777650e+00 -1.676474e+01 -7.103752e+00 8.582387e+00 -3.096843e+00 -1.370394e+00 -9.619250e-01 -1.051463e+00 -1.251558e+00 -1.377593e+00 -1.380489e+00 -1.271777e+00 -1.090654e+00 -8.722950e-01 -6.437628e-01 -4.181511e-01 -1.996236e-01 
1.376075e-02 1.868638e-01 3.677539e-01 5.600039e-01 7.628724e-01 9.679010e-01 1.156876e+00 1.302922e+00 1.376990e+00 1.370341e+00 1.328610e+00 1.423479e+00 2.058082e+00 4.122279e+00 -3.461226e+00 4.678749e-01 1.233507e+01 1.112719e+00 -9.230000e+00 -8.024251e+00 -6.027316e+00 -4.297839e+00 -2.963276e+00 -1.991138e+00 -1.297466e+00 -8.080281e-01 -4.705975e-01 -2.428303e-01 -9.874848e-02 -1.616042e-02 2.053394e-02 2.667548e-02 1.647926e-02 4.176325e-03 4.412972e-03 3.087211e-02 9.860891e-02 2.228247e-01 4.237637e-01 7.274922e-01 1.171667e+00 1.806990e+00 2.695890e+00 3.910914e+00 5.510489e+00 7.520273e+00 9.942991e+00 1.126484e+01 -1.300767e+01 -8.672598e+00 6.519275e+00 -4.810205e+00 -2.080258e+00 -1.114830e+00 -9.411951e-01 -1.017560e+00 -1.095895e+00 -1.095062e+00 -1.009836e+00 -8.669489e-01 -6.934435e-01 -5.113994e-01 -3.315164e-01 -1.573760e-01 
1.055082e-02 1.314214e-01 2.581992e-01 3.936125e-01 5.373335e-01 6.836177e-01 8.197483e-01 9.272287e-01 9.860969e-01 9.927432e-01 9.862269e-01 1.113102e+00 1.734634e+00 3.703830e+00 -3.439852e+00 1.377576e+00 8.882728e+00 -1.330910e+00 -5.700831e+00 -5.241278e+00 -4.119535e+00 -3.020968e+00 -2.123626e+00 -1.449024e+00 -9.604934e-01 -6.123497e-01 -3.711372e-01 -2.065293e-01 -1.003952e-01 -3.645738e-02 -3.775554e-03 8.396826e-03 9.663182e-03 9.544280e-03 1.786257e-02 4.387495e-02 9.809495e-02 1.914497e-01 3.387629e-01 5.593928e-01 8.804681e-01 1.338275e+00 1.972053e+00 2.820810e+00 3.895589e+00 5.145098e+00 6.564160e+00 8.160581e+00 -8.955976e+00 -5.937816e+00 4.235123e+00 -4.748767e+00 -2.505353e+00 -1.214454e+00 -8.150615e-01 -7.611101e-01 -7.780903e-01 -7.659370e-01 -7.035811e-01 -6.034445e-01 -4.823720e-01 -3.554443e-01 -2.300429e-01 -1.087278e-01 
5.722880e-03 6.788090e-02 1.332335e-01 2.032674e-01 2.778874e-01 3.542231e-01 4.257790e-01 4.832416e-01 5.166764e-01 5.258250e-01 5.357621e-01 6.406246e-01 1.087158e+00 2.516011e+00 -2.020388e+00 6.760397e-01 4.756427e+00 -9.064344e-01 -2.448729e+00 -2.491387e+00 -2.054096e+00 -1.544070e+00 -1.102761e+00 -7.609837e-01 -5.097539e-01 -3.291206e-01 -2.033577e-01 -1.169617e-01 -6.067693e-02 -2.593647e-02 -7.090602e-03 1.409720e-03 4.427708e-03 6.760635e-03 1.335837e-02 2.892173e-02 5.886775e-02 1.089440e-01 1.869648e-01 3.032661e-01 4.718532e-01 7.113883e-01 1.039535e+00 1.471038e+00 2.001481e+00 2.589063e+00 3.260626e+00 3.833035e+00 -5.007140e+00 -3.163593e+00 2.339273e+00 -2.499120e+00 -1.669018e+00 -8.143149e-01 -4.960316e-01 -4.191279e-01 -4.087255e-01 -3.960000e-01 -3.619289e-01 -3.099187e-01 -2.475370e-01 -1.822775e-01 -1.178418e-01 -5.554453e-02 
5.252649e-13 1.185118e-12 2.059158e-12 3.269657e-12 4.832994e-12 6.810345e-12 9.321430e-12 1.255976e-11 1.687023e-11 2.323586e-11 3.313817e-11 5.002781e-11 8.324970e-11 1.633188e-10 -2.250454e-11 -2.114612e-11 1.547329e-10 4.814052e-11 -3.697960e-12 -2.602383e-11 -3.152133e-11 -3.094342e-11 -2.719665e-11 -2.201982e-11 -1.664051e-11 -1.176608e-11 -7.865442e-12 -5.032625e-12 -3.119988e-12 -2.006361e-12 -1.383195e-12 -1.170471e-12 -1.120432e-12 -1.078782e-12 -9.107747e-13 -4.568814e-13 3.921408e-13 1.956081e-12 4.299910e-12 7.830323e-12 1.297682e-11 2.010928e-11 2.960246e-11 4.143848e-11 5.419340e-11 6.378310e-11 4.932822e-11 -1.199329e-10 -2.365048e-10 7.929649e-11 -1.041578e-10 -5.015696e-10 -2.811365e-10 -6.499544e-11 -1.151289e-11 -9.084840e-14 7.681123e-13 -1.643168e-13 -8.845941e-13 -1.159685e-12 -1.076249e-12 -8.050258e-13 -4.289896e-13 1.074768e-15 
-5.722880e-03 -6.788090e-02 -1.332335e-01 -2.032674e-01 -2.778874e-01 -3.542231e-01 -4.257790e-01 -4.832416e-01 -5.166764e-01 -5.258250e-01 -5.357621e-01 -6.406246e-01 -1.087158e+00 -2.516011e+00 2.020388e+00 -6.760397e-01 -4.756427e+00 9.064344e-01 2.448729e+00 2.491387e+00 2.054096e+00 1.544070e+00 1.102761e+00 7.609837e-01 5.097539e-01 3.291206e-01 2.033577e-01 1.169617e-01 6.067693e-02 2.593647e-02 7.090602e-03 -1.409720e-03 -4.427708e-03 -6.760635e-03 -1.335837e-02 -2.892173e-02 -5.886775e-02 -1.089440e-01 -1.869648e-01 -3.032661e-01 -4.718532e-01 -7.113883e-01 -1.039535e+00 -1.471038e+00 -2.001481e+00 -2.589063e+00 -3.260626e+00 -3.833035e+00 5.007140e+00 3.163593e+00 -2.339273e+00 2.499120e+00 1.669018e+00 8.143149e-01 4.960316e-01 4.191279e-01 4.087255e-01 3.960000e-01 3.619289e-01 3.099187e-01 2.475370e-01 1.822775e-01 1.178418e-01 5.554453e-02 