# vtk DataFile Version 2.0
Comment goes here
ASCII

DATASET STRUCTURED_POINTS
FIELD FieldData 1
TIME 1 1 double
1.83000000
DIMENSIONS    64   64   1

ORIGIN    0.000   0.000   0.000
SPACING   0.015625 0.015625   1.000

POINT_DATA   4096
SCALARS Omega double
LOOKUP_TABLE default

1.035335e-13 2.153721e-13 3.541464e-13 5.571294e-13 7.965451e-13 1.085977e-12 1.482745e-12 1.965206e-12 2.550246e-12 3.290248e-12 4.176771e-12 5.235900e-12 6.470021e-12 7.913098e-12 9.494498e-12 1.120986e-11 1.304053e-11 1.493959e-11 1.679212e-11 1.852554e-11 2.003551e-11 2.119770e-11 2.192645e-11 2.217050e-11 2.178951e-11 2.073700e-11 1.898234e-11 1.654309e-11 1.347269e-11 9.827235e-12 5.753159e-12 1.382532e-12 -3.144493e-12 -7.634540e-12 -1.191932e-11 -1.584478e-11 -1.923260e-11 -2.197210e-11 -2.402599e-11 -2.534387e-11 -2.587143e-11 -2.570913e-11 -2.488955e-11 -2.351546e-11 -2.171613e-11 -1.962173e-11 -1.734455e-11 -1.502249e-11 -1.275949e-11 -1.064376e-11 -8.702998e-12 -7.008828e-12 -5.549775e-12 -4.334676e-12 -3.314042e-12 -2.489916e-12 -1.838401e-12 -1.320365e-12 -9.323779e-13 -6.544591e-13 -4.334971e-13 -2.702530e-13 -1.520573e-13 -2.752652e-14 
-6.475692e-04 9.304154e-04 2.299359e-03 3.236162e-03 3.515971e-03 2.922672e-03 1.240384e-03 -1.729599e-03 -6.180991e-03 -1.227495e-02 -2.015641e-02 -2.991259e-02 -4.159298e-02 -5.515492e-02 -7.048574e-02 -8.734551e-02 -1.053897e-01 -1.241296e-01 -1.429547e-01 -1.611333e-01 -1.778348e-01 -1.921758e-01 -2.032459e-01 -2.101697e-01 -2.121503e-01 -2.085002e-01 -1.987236e-01 -1.825114e-01 -1.598774e-01 -1.311769e-01 -9.724099e-02 -5.939215e-02 -1.939506e-02 2.069788e-02 5.883130e-02 9.321176e-02 1.225211e-01 1.460010e-01 1.633932e-01 1.748247e-01 1.806653e-01 1.814224e-01 1.776877e-01 1.700987e-01 1.593455e-01 1.461383e-01 1.312057e-01 1.152536e-01 9.894214e-02 8.286051e-02 6.750136e-02 5.326142e-02 4.042640e-02 2.918998e-02 1.964878e-02 1.182862e-02 5.684028e-03 1.123964e-03 -1.988545e-03 -3.815348e-03 -4.544916e-03 -4.376952e-03 -3.525315e-03 -2.207366e-03 
-1.327694e-03 1.975127e-03 4.860662e-03 6.883251e-03 7.593585e-03 6.559321e-03 3.348108e-03 -2.439135e-03 -1.119254e-02 -2.323890e-02 -3.887445e-02 -5.828220e-02 -8.157243e-02 -1.086729e-01 -1.393742e-01 -1.732121e-01 -2.095138e-01 -2.473150e-01 -2.854024e-01 -3.223146e-01 -3.563796e-01 -3.858105e-01 -4.087494e-01 -4.233976e-01 -4.280993e-01 -4.214093e-01 -4.022532e-01 -3.699239e-01 -3.243530e-01 -2.661798e-01 -1.970444e-01 -1.196732e-01 -3.778498e-02 4.423930e-02 1.220073e-01 1.917294e-01 2.506988e-01 2.974637e-01 3.316552e-01 3.536982e-01 3.644742e-01 3.650953e-01 3.567960e-01 3.408771e-01 3.187275e-01 2.917733e-01 2.614714e-01 2.292339e-01 1.963752e-01 1.640655e-01 1.332779e-01 1.047927e-01 7.916786e-02 5.677809e-02 3.780602e-02 2.229429e-02 1.014543e-02 1.172179e-03 -4.902733e-03 -8.405391e-03 -9.713988e-03 -9.228645e-03 -7.377149e-03 -4.594030e-03 
-2.058749e-03 3.264221e-03 7.963366e-03 1.137165e-02 1.281647e-02 1.164906e-02 7.219831e-03 -1.074167e-03 -1.382459e-02 -3.153342e-02 -5.466091e-02 -8.350457e-02 -1.182587e-01 -1.588505e-01 -2.050070e-01 -2.560741e-01 -3.110864e-01 -3.686300e-01 -4.269096e-01 -4.837318e-01 -5.365646e-01 -5.826675e-01 -6.191553e-01 -6.431976e-01 -6.521489e-01 -6.436602e-01 -6.159310e-01 -5.676738e-01 -4.985570e-01 -4.093193e-01 -3.023403e-01 -1.818864e-01 -5.403827e-02 7.388006e-02 1.945013e-01 3.015951e-01 3.909295e-01 4.605314e-01 5.102629e-01 5.412133e-01 5.550688e-01 5.537303e-01 5.391703e-01 5.133909e-01 4.785009e-01 4.366499e-01 3.900367e-01 3.407808e-01 2.908481e-01 2.419746e-01 1.955911e-01 1.528332e-01 1.145016e-01 8.112430e-02 5.294592e-02 3.000648e-02 1.214127e-02 -9.439807e-04 -9.674572e-03 -1.454550e-02 -1.612755e-02 -1.502237e-02 -1.187181e-02 -7.326902e-03 
-2.883705e-03 4.902430e-03 1.186121e-02 1.710653e-02 1.974435e-02 1.890990e-02 1.373520e-02 3.408925e-03 -1.287013e-02 -3.579317e-02 -6.600501e-02 -1.039463e-01 -1.499337e-01 -2.039393e-01 -2.656818e-01 -3.343730e-01 -4.088108e-01 -4.871773e-01 -5.671209e-01 -6.457202e-01 -7.195414e-01 -7.848144e-01 -8.374857e-01 -8.735144e-01 -8.890502e-01 -8.806361e-01 -8.455288e-01 -7.816421e-01 -6.880749e-01 -5.653613e-01 -4.163996e-01 -2.471554e-01 -6.672190e-02 1.135589e-01 2.822145e-01 4.298054e-01 5.504070e-01 6.419151e-01 7.050760e-01 7.422732e-01 7.564300e-01 7.504591e-01 7.271432e-01 6.892115e-01 6.395069e-01 5.809380e-01 5.164770e-01 4.489845e-01 3.810822e-01 3.150599e-01 2.527702e-01 1.956594e-01 1.447220e-01 1.005930e-01 6.353969e-02 3.356646e-02 1.041745e-02 -6.326888e-03 -1.725156e-02 -2.302842e-02 -2.442483e-02 -2.224600e-02 -1.734767e-02 -1.059633e-02 
-3.802184e-03 7.040519e-03 1.685714e-02 2.454613e-02 2.899591e-02 2.912660e-02 2.385178e-02 1.214542e-02 -7.012905e-03 -3.452437e-02 -7.124614e-02 -1.178056e-01 -1.746961e-01 -2.420043e-01 -3.195201e-01 -4.064038e-01 -5.012993e-01 -6.020409e-01 -7.057614e-01 -8.087945e-01 -9.067510e-01 -9.946970e-01 -1.067196e+00 -1.118712e+00 -1.143879e+00 -1.137889e+00 -1.096912e+00 -1.017859e+00 -8.989116e-01 -7.397781e-01 -5.432735e-01 -3.170268e-01 -7.409994e-02 1.682931e-01 3.925774e-01 5.848581e-01 7.374282e-01 8.489445e-01 9.222359e-01 9.619549e-01 9.728033e-01 9.588584e-01 9.236694e-01 8.706212e-01 8.033009e-01 7.254258e-01 6.408493e-01 5.532542e-01 4.659728e-01 3.818484e-01 3.031175e-01 2.314720e-01 1.680267e-01 1.134512e-01 6.797238e-02 3.150860e-02 3.673844e-03 -1.610383e-02 -2.858794e-02 -3.463815e-02 -3.522456e-02 -3.135793e-02 -2.410737e-02 -1.455255e-02 
-4.863147e-03 9.777759e-03 2.320105e-02 3.409610e-02 4.113916e-02 4.303854e-02 3.848936e-02 2.624497e-02 5.052146e-03 -2.622551e-02 -6.869693e-02 -1.232331e-01 -1.905804e-01 -2.710340e-01 -3.645642e-01 -4.703899e-01 -5.870996e-01 -7.122516e-01 -8.424777e-01 -9.733443e-01 -1.099390e+00 -1.214347e+00 -1.311067e+00 -1.382093e+00 -1.420103e+00 -1.418757e+00 -1.373219e+00 -1.279638e+00 -1.134945e+00 -9.369775e-01 -6.868317e-01 -3.930700e-01 -7.398947e-02 2.441345e-01 5.340760e-01 7.754569e-01 9.591209e-01 1.086578e+00 1.165008e+00 1.202732e+00 1.206614e+00 1.181613e+00 1.131586e+00 1.060310e+00 9.720856e-01 8.716037e-01 7.638265e-01 6.534896e-01 5.447678e-01 4.411064e-01 3.450860e-01 2.585593e-01 1.826573e-01 1.179798e-01 6.462475e-02 2.235014e-02 -9.413936e-03 -3.143175e-02 -4.467060e-02 -5.019432e-02 -4.918342e-02 -4.285733e-02 -3.249712e-02 -1.939230e-02 
-6.041502e-03 1.328484e-02 3.121287e-02 4.623191e-02 5.681583e-02 6.146577e-02 5.866185e-02 4.692865e-02 2.476673e-02 -9.230614e-03 -5.647057e-02 -1.181463e-01 -1.953521e-01 -2.887178e-01 -3.985284e-01 -5.241951e-01 -6.643605e-01 -8.163430e-01 -9.762638e-01 -1.138803e+00 -1.297296e+00 -1.443902e+00 -1.569341e+00 -1.663600e+00 -1.716760e+00 -1.721002e+00 -1.671449e+00 -1.564601e+00 -1.396297e+00 -1.160367e+00 -8.520918e-01 -4.782113e-01 -6.380664e-02 3.496024e-01 7.181574e-01 1.011628e+00 1.221081e+00 1.355709e+00 1.431282e+00 1.461698e+00 1.455895e+00 1.418441e+00 1.352118e+00 1.260354e+00 1.148097e+00 1.021260e+00 8.864221e-01 7.498278e-01 6.168243e-01 4.915915e-01 3.770423e-01 2.750832e-01 1.867208e-01 1.123405e-01 5.178454e-02 4.549607e-03 -3.019584e-02 -5.346160e-02 -6.645531e-02 -7.046550e-02 -6.689388e-02 -5.717110e-02 -4.278750e-02 -2.523658e-02 
-7.385677e-03 1.765319e-02 4.112788e-02 6.134236e-02 7.658069e-02 8.514710e-02 8.531030e-02 7.536136e-02 5.353530e-02 1.811794e-02 -3.265890e-02 -1.004004e-01 -1.866711e-01 -2.925820e-01 -4.188925e-01 -5.653490e-01 -7.307257e-01 -9.120920e-01 -1.104892e+00 -1.302744e+00 -1.497525e+00 -1.679698e+00 -1.837352e+00 -1.956881e+00 -2.024578e+00 -2.031273e+00 -1.974491e+00 -1.855420e+00 -1.671078e+00 -1.407777e+00 -1.044464e+00 -5.775776e-01 -4.071213e-02 4.966800e-01 9.596095e-01 1.301912e+00 1.520288e+00 1.643639e+00 1.704590e+00 1.723913e+00 1.710178e+00 1.663938e+00 1.583883e+00 1.471882e+00 1.333510e+00 1.176507e+00 1.010014e+00 8.427022e-01 6.816947e-01 5.321847e-01 3.974266e-01 2.792462e-01 1.783412e-01 9.469081e-02 2.772135e-02 -2.346553e-02 -6.005985e-02 -8.338835e-02 -9.494438e-02 -9.626992e-02 -8.900060e-02 -7.478234e-02 -5.531019e-02 -3.227331e-02 
-8.839697e-03 2.306060e-02 5.325225e-02 7.987298e-02 1.010377e-01 1.148661e-01 1.194265e-01 1.127687e-01 9.284815e-02 5.759413e-02 4.817178e-03 -6.761241e-02 -1.618510e-01 -2.796626e-01 -4.224309e-01 -5.903674e-01 -7.823888e-01 -9.951333e-01 -1.223027e+00 -1.458149e+00 -1.690775e+00 -1.909810e+00 -2.100503e+00 -2.243992e+00 -2.319954e+00 -2.318261e+00 -2.244691e+00 -2.114089e+00 -1.932629e+00 -1.673793e+00 -1.276339e+00 -7.049219e-01 -2.012212e-03 7.070815e-01 1.284782e+00 1.658524e+00 1.845316e+00 1.920834e+00 1.948896e+00 1.955621e+00 1.943614e+00 1.901906e+00 1.818399e+00 1.691636e+00 1.528023e+00 1.337976e+00 1.134939e+00 9.316623e-01 7.381635e-01 5.611233e-01 4.041805e-01 2.688959e-01 1.554133e-01 6.306714e-02 -9.334625e-03 -6.324002e-02 -1.003184e-01 -1.222946e-01 -1.310053e-01 -1.282777e-01 -1.159973e-01 -9.602753e-02 -7.026081e-02 -4.056933e-02 
-1.044221e-02 2.957591e-02 6.776796e-02 1.021347e-01 1.306465e-01 1.512615e-01 1.618583e-01 1.602479e-01 1.440853e-01 1.109057e-01 5.802548e-02 -1.730258e-02 -1.179588e-01 -2.464977e-01 -4.050670e-01 -5.944138e-01 -8.134973e-01 -1.058178e+00 -1.321111e+00 -1.592219e+00 -1.860005e+00 -2.113428e+00 -2.335821e+00 -2.500234e+00 -2.573069e+00 -2.539204e+00 -2.418663e+00 -2.262432e+00 -2.117450e+00 -1.943338e+00 -1.576833e+00 -8.951167e-01 5.238930e-02 1.020566e+00 1.741195e+00 2.095129e+00 2.154928e+00 2.115372e+00 2.095787e+00 2.103572e+00 2.119331e+00 2.111020e+00 2.044495e+00 1.915060e+00 1.730703e+00 1.505606e+00 1.260460e+00 1.014974e+00 7.837848e-01 5.756610e-01 3.945597e-01 2.414486e-01 1.155848e-01 1.536574e-02 -6.123169e-02 -1.163729e-01 -1.523254e-01 -1.713034e-01 -1.755453e-01 -1.672024e-01 -1.484257e-01 -1.212993e-01 -8.790170e-02 -5.027089e-02 
-1.210332e-02 3.735133e-02 8.489968e-02 1.284405e-01 1.658367e-01 1.949102e-01 2.133739e-01 2.187993e-01 2.085400e-01 1.796952e-01 1.290566e-01 5.317567e-02 -5.159558e-02 -1.887039e-01 -3.610743e-01 -5.700105e-01 -8.142929e-01 -1.088447e+00 -1.382285e+00 -1.682310e+00 -1.975770e+00 -2.255840e+00 -2.508751e+00 -2.694497e+00 -2.749013e+00 -2.643161e+00 -2.415793e+00 -2.182671e+00 -2.118596e+00 -2.194426e+00 -2.005490e+00 -1.222921e+00 1.162245e-01 1.506067e+00 2.412115e+00 2.637023e+00 2.375466e+00 2.112948e+00 2.052332e+00 2.092727e+00 2.182006e+00 2.262193e+00 2.244527e+00 2.132959e+00 1.937536e+00 1.676174e+00 1.381993e+00 1.086831e+00 8.124864e-01 5.702606e-01 3.639334e-01 1.932136e-01 5.596563e-02 -5.066422e-02 -1.297320e-01 -1.842354e-01 -2.171397e-01 -2.312104e-01 -2.291429e-01 -2.134421e-01 -1.865384e-01 -1.507349e-01 -1.082795e-01 -6.135206e-02 
-1.384060e-02 4.640071e-02 1.046991e-01 1.589013e-01 2.068038e-01 2.461340e-01 2.744618e-01 2.891428e-01 2.872261e-01 2.653859e-01 2.198809e-01 1.466036e-01 4.117768e-02 -1.006105e-01 -2.823711e-01 -5.058334e-01 -7.694738e-01 -1.066072e+00 -1.381292e+00 -1.696613e+00 -1.998514e+00 -2.296353e+00 -2.594326e+00 -2.831414e+00 -2.883704e+00 -2.679502e+00 -2.213913e+00 -1.689922e+00 -1.711468e+00 -2.427879e+00 -2.753674e+00 -1.896263e+00 1.660115e-01 2.313499e+00 3.491529e+00 3.372386e+00 2.327166e+00 1.696473e+00 1.759800e+00 1.909894e+00 2.110805e+00 2.366704e+00 2.422248e+00 2.350327e+00 2.154224e+00 1.849371e+00 1.492261e+00 1.136120e+00 8.127651e-01 5.350596e-01 3.047306e-01 1.187162e-01 -2.729861e-02 -1.377479e-01 -2.167885e-01 -2.682600e-01 -2.958156e-01 -3.027918e-01 -2.923540e-01 -2.673834e-01 -2.305915e-01 -1.844956e-01 -1.314892e-01 -7.386254e-02 
-1.553487e-02 5.679387e-02 1.271996e-01 1.935318e-01 2.535774e-01 3.050111e-01 3.453040e-01 3.716183e-01 3.807469e-01 3.689758e-01 3.321657e-01 2.657114e-01 1.648805e-01 2.506736e-02 -1.574962e-01 -3.848596e-01 -6.554369e-01 -9.610572e-01 -1.282949e+00 -1.594722e+00 -1.881655e+00 -2.193378e+00 -2.597780e+00 -2.976874e+00 -3.090349e+00 -2.845093e+00 -1.951991e+00 -5.208887e-01 -4.517136e-01 -2.721534e+00 -4.185663e+00 -3.316953e+00 1.585698e-01 3.644708e+00 5.301303e+00 4.632801e+00 1.684265e+00 5.263871e-01 1.362836e+00 1.647990e+00 1.890115e+00 2.541147e+00 2.620193e+00 2.603447e+00 2.410380e+00 2.032820e+00 1.579094e+00 1.141659e+00 7.631806e-01 4.527050e-01 2.046251e-01 9.954711e-03 -1.391044e-01 -2.487302e-01 -3.239949e-01 -3.692780e-01 -3.887371e-01 -3.861533e-01 -3.651177e-01 -3.288649e-01 -2.803739e-01 -2.223587e-01 -1.573255e-01 -8.763551e-02 
-1.717111e-02 6.844042e-02 1.522107e-01 2.320634e-01 3.058335e-01 3.712059e-01 4.255936e-01 4.660333e-01 4.891251e-01 4.909368e-01 4.671741e-01 4.132514e-01 3.247798e-01 1.978522e-01 2.949320e-02 -1.822279e-01 -4.373903e-01 -7.310157e-01 -1.043928e+00 -1.336870e+00 -1.580180e+00 -1.913848e+00 -2.622656e+00 -3.338845e+00 -3.673292e+00 -4.235221e+00 -3.345599e+00 2.087112e+00 8.170232e+00 9.053476e+00 7.781430e+00 4.624069e+00 4.753333e-01 -3.852076e+00 -6.785961e+00 -7.648896e+00 -6.395802e+00 -1.133860e+00 3.395878e+00 2.135500e+00 1.392885e+00 3.251270e+00 2.951556e+00 3.017081e+00 2.813850e+00 2.265441e+00 1.629153e+00 1.068749e+00 6.281718e-01 2.952607e-01 4.463614e-02 -1.448078e-01 -2.861807e-01 -3.872339e-01 -4.531335e-01 -4.880568e-01 -4.961050e-01 -4.812046e-01 -4.471892e-01 -3.975802e-01 -3.355717e-01 -2.640463e-01 -1.855782e-01 -1.025511e-01 
-1.861632e-02 8.125415e-02 1.794395e-01 2.740097e-01 3.629196e-01 4.439224e-01 5.144424e-01 5.714654e-01 6.115598e-01 6.308261e-01 6.253611e-01 5.914177e-01 5.264151e-01 4.289800e-01 2.992131e-01 1.359915e-01 -6.607631e-02 -3.183122e-01 -6.191429e-01 -9.099192e-01 -1.071446e+00 -1.389319e+00 -3.074592e+00 -6.067651e+00 -3.017022e+00 1.002017e+01 1.829115e+01 1.458553e+01 7.808623e+00 3.788102e+00 2.534005e+00 1.482556e+00 4.438273e-01 -8.968166e-01 -1.999854e+00 -3.958274e+00 -6.394496e+00 -1.249714e+01 -1.688798e+01 -1.107402e+01 1.075319e+00 5.807197e+00 3.421388e+00 3.868973e+00 3.633358e+00 2.634927e+00 1.618931e+00 8.580771e-01 3.511149e-01 2.148107e-02 -2.012764e-01 -3.602719e-01 -4.759873e-01 -5.563985e-01 -6.049921e-01 -6.241597e-01 -6.169381e-01 -5.867644e-01 -5.373842e-01 -4.724355e-01 -3.952380e-01 -3.087906e-01 -2.156804e-01 -1.182571e-01 
-1.981546e-02 9.498730e-02 2.083372e-01 3.185340e-01 4.237179e-01 5.217892e-01 6.102480e-01 6.861733e-01 7.463096e-01 7.872677e-01 8.062920e-01 8.018783e-01 7.753108e-01 7.310133e-01 6.759924e-01 6.130138e-01 5.253519e-01 3.559783e-01 2.766292e-02 -3.970241e-01 -4.009626e-01 -1.186974e+00 -1.599861e+00 7.685706e+00 1.591129e+01 1.315232e+01 1.180626e+00 -9.897540e+00 -1.199348e+01 -1.039757e+01 -8.378641e+00 -5.196756e+00 9.479957e-02 5.159110e+00 8.947640e+00 1.059708e+01 1.254641e+01 1.139741e+01 2.460861e+00 -9.384175e+00 -1.612530e+01 -8.846397e+00 3.021786e+00 6.162667e+00 5.501820e+00 3.288089e+00 1.490706e+00 4.095859e-01 -1.512985e-01 -4.238089e-01 -5.653908e-01 -6.537370e-01 -7.168145e-01 -7.594583e-01 -7.800203e-01 -7.766736e-01 -7.497118e-01 -7.011531e-01 -6.340803e-01 -5.519886e-01 -4.581644e-01 -3.556496e-01 -2.469755e-01 -1.343938e-01 
-2.064840e-02 1.093314e-01 2.381742e-01 3.644850e-01 4.866620e-01 6.028207e-01 7.106360e-01 8.074476e-01 8.905287e-01 9.576179e-01 1.008256e+00 1.044880e+00 1.075501e+00 1.114417e+00 1.182445e+00 1.294914e+00 1.424893e+00 1.419482e+00 9.383051e-01 -1.892310e-01 -2.187475e+00 2.772285e+00 1.079886e+01 1.273576e+01 1.290012e+00 -1.350345e+01 -1.800568e+01 -1.316325e+01 -4.134984e+00 1.091696e+00 2.222017e+00 1.308050e+00 6.267912e-02 -1.195784e+00 -1.438640e+00 1.853652e-01 4.490835e+00 1.382933e+01 1.886873e+01 1.752860e+01 2.424026e+00 -1.414072e+01 -1.377253e+01 -2.175074e+00 7.346993e+00 4.265598e+00 1.056587e+00 -4.487515e-01 -9.889666e-01 -1.099503e+00 -1.076741e+00 -1.038463e+00 -1.013869e+00 -9.971890e-01 -9.766809e-01 -9.429023e-01 -8.913595e-01 -8.213560e-01 -7.345572e-01 -6.339162e-01 -5.224662e-01 -4.031859e-01 -2.784710e-01 -1.504084e-01 
-2.102758e-02 1.238467e-01 2.679802e-01 4.103562e-01 5.496895e-01 6.843903e-01 8.124085e-01 9.315973e-01 1.040199e+00 1.137962e+00 1.228062e+00 1.318848e+00 1.427593e+00 1.582296e+00 1.825641e+00 2.207503e+00 2.732600e+00 3.154363e+00 2.463725e+00 -3.738997e+00 -9.641712e-01 7.878355e+00 3.822404e+00 -9.273833e+00 -1.651830e+01 -8.341789e+00 6.227783e+00 1.493641e+01 1.341513e+01 9.035766e+00 5.451481e+00 2.501927e+00 1.348469e-02 -2.426702e+00 -4.980892e+00 -8.228938e+00 -1.355646e+01 -1.548649e+01 -9.341456e+00 7.332773e+00 1.960530e+01 1.253157e+01 -5.312829e+00 -1.299099e+01 -2.335205e+00 3.294768e+00 -1.690400e-01 -1.990704e+00 -2.276572e+00 -2.041657e+00 -1.743889e+00 -1.515910e+00 -1.366566e+00 -1.267737e+00 -1.191947e+00 -1.119122e+00 -1.037924e+00 -9.435958e-01 -8.354469e-01 -7.153745e-01 -5.858625e-01 -4.496822e-01 -3.090044e-01 -1.656799e-01 
-2.088156e-02 1.379786e-01 2.965709e-01 4.543135e-01 6.102902e-01 7.632721e-01 9.116159e-01 1.053985e+00 1.190194e+00 1.323054e+00 1.460974e+00 1.619849e+00 1.827268e+00 2.123197e+00 2.571645e+00 3.284783e+00 4.442650e+00 6.169115e+00 7.707637e-01 -5.775180e+00 5.257284e+00 2.658980e+00 -7.766813e+00 -4.710032e+00 1.936068e+00 8.559410e+00 8.718541e+00 9.680005e+00 9.320264e+00 7.277317e+00 4.843043e+00 2.363390e+00 -7.570764e-02 -2.497250e+00 -4.914430e+00 -7.454247e+00 -1.005124e+01 -1.108940e+01 -1.130536e+01 -1.193706e+01 -3.112787e+00 9.376560e+00 1.235533e+01 -6.637197e-01 -7.142304e+00 3.045321e-01 -1.468392e+00 -4.635224e+00 -4.053480e+00 -3.195199e+00 -2.520368e+00 -2.061803e+00 -1.764163e+00 -1.565026e+00 -1.420793e+00 -1.300207e+00 -1.184316e+00 -1.063128e+00 -9.325835e-01 -7.928943e-01 -6.456056e-01 -4.930997e-01 -3.372175e-01 -1.795029e-01 
-2.012995e-02 1.510984e-01 3.226000e-01 4.942639e-01 6.655757e-01 8.357260e-01 1.003607e+00 1.169048e+00 1.334111e+00 1.505919e+00 1.699839e+00 1.940541e+00 2.263993e+00 2.707084e+00 3.310721e+00 4.183804e+00 5.756938e+00 3.418938e+00 -5.818055e+00 -1.092691e+00 5.203944e+00 -3.626804e+00 -1.012121e+00 5.526855e+00 4.851804e+00 5.353657e+00 6.287506e+00 6.802317e+00 6.587441e+00 5.468345e+00 3.823495e+00 1.897046e+00 -1.557199e-01 -2.217742e+00 -4.186098e+00 -5.989910e+00 -7.461063e+00 -8.143678e+00 -8.212149e+00 -7.835588e+00 -6.666109e+00 -6.770229e+00 9.311636e-01 6.174322e+00 -1.800371e+00 1.817360e+00 5.150884e+00 -3.413258e+00 -5.984410e+00 -4.249786e+00 -3.251767e+00 -2.614450e+00 -2.183434e+00 -1.878552e+00 -1.656051e+00 -1.479696e+00 -1.324442e+00 -1.174399e+00 -1.021159e+00 -8.624908e-01 -6.985591e-01 -5.311185e-01 -3.615698e-01 -1.910798e-01 
-1.878523e-02 1.624542e-01 3.445561e-01 5.278962e-01 7.123734e-01 8.976311e-01 1.083221e+00 1.270469e+00 1.464392e+00 1.677730e+00 1.934808e+00 2.271228e+00 2.731109e+00 3.327714e+00 3.976295e+00 4.374134e+00 3.458348e+00 -5.211256e+00 -7.431301e+00 3.596072e+00 2.262687e+00 -2.886493e+00 -1.113775e+00 3.838174e-01 2.615797e+00 3.709748e+00 4.455958e+00 4.822135e+00 4.682287e+00 3.980743e+00 2.837515e+00 1.397562e+00 -1.951404e-01 -1.803477e+00 -3.297871e+00 -4.563127e+00 -5.470098e+00 -5.861214e+00 -5.767880e+00 -5.278175e+00 -4.409722e+00 -3.382885e+00 -2.321482e+00 8.475755e-01 -3.316265e+00 -4.138083e+00 7.664756e+00 5.764597e+00 -3.467678e+00 -4.410017e+00 -3.716300e+00 -3.116889e+00 -2.608124e+00 -2.200109e+00 -1.890884e+00 -1.651031e+00 -1.452067e+00 -1.271809e+00 -1.096331e+00 -9.201737e-01 -7.415886e-01 -5.614394e-01 -3.805637e-01 -1.996776e-01 
-1.685200e-02 1.712753e-01 3.608886e-01 5.528334e-01 7.474133e-01 9.447238e-01 1.145044e+00 1.351433e+00 1.572324e+00 1.827062e+00 2.150614e+00 2.593226e+00 3.219663e+00 4.046625e+00 4.925214e+00 5.069064e+00 -2.892731e+00 -1.088938e+01 -1.048342e+00 8.280598e+00 3.319958e+00 -2.052180e+00 -1.941621e+00 2.594219e-02 1.491835e+00 2.441392e+00 3.048246e+00 3.337493e+00 3.264856e+00 2.808203e+00 2.014925e+00 9.756747e-01 -1.971750e-01 -1.382393e+00 -2.461156e+00 -3.327471e+00 -3.889131e+00 -4.076510e+00 -3.894226e+00 -3.379024e+00 -2.544990e+00 -1.418740e+00 1.825837e-01 2.724525e+00 9.411524e-01 -9.733084e+00 -2.282744e+00 1.227606e+01 4.114481e+00 -3.921426e+00 -4.004996e+00 -3.611287e+00 -3.038051e+00 -2.518580e+00 -2.113924e+00 -1.804702e+00 -1.559459e+00 -1.348948e+00 -1.152842e+00 -9.616905e-01 -7.713934e-01 -5.816575e-01 -3.926342e-01 -2.045331e-01 
-1.443486e-02 1.767473e-01 3.700355e-01 5.667152e-01 7.674590e-01 9.727791e-01 1.183679e+00 1.404962e+00 1.648499e+00 1.940090e+00 2.324892e+00 2.867240e+00 3.665099e+00 4.805771e+00 6.516976e+00 4.609518e+00 -1.313937e+01 -7.620880e+00 1.195019e+01 6.467335e+00 -8.521574e-01 -2.693159e+00 -1.601343e+00 -3.451080e-01 6.922988e-01 1.452897e+00 1.961093e+00 2.218597e+00 2.205512e+00 1.917321e+00 1.379956e+00 6.542531e-01 -1.757033e-01 -1.013230e+00 -1.761374e+00 -2.334606e+00 -2.666045e+00 -2.714518e+00 -2.469960e+00 -1.942601e+00 -1.130968e+00 -1.461003e-02 1.513256e+00 3.630322e+00 5.027580e+00 -4.951422e+00 -1.512768e+01 4.180648e+00 1.382265e+01 -1.266732e+00 -5.447513e+00 -4.252304e+00 -3.460799e+00 -2.809388e+00 -2.308182e+00 -1.930135e+00 -1.639267e+00 -1.400332e+00 -1.186287e+00 -9.834815e-01 -7.851902e-01 -5.897309e-01 -3.964736e-01 -2.050452e-01 
-1.170724e-02 1.780514e-01 3.705074e-01 5.673354e-01 7.695316e-01 9.779815e-01 1.194342e+00 1.425011e+00 1.684784e+00 2.004781e+00 2.435945e+00 3.044670e+00 3.921254e+00 5.057856e+00 6.481816e+00 -5.858729e+00 -1.460202e+01 8.061010e+00 1.378212e+01 -2.919359e+00 -5.996706e+00 -3.557884e+00 -2.072233e+00 -9.190863e-01 -2.204664e-02 6.482105e-01 1.110432e+00 1.367728e+00 1.414654e+00 1.254424e+00 9.081328e-01 4.210013e-01 -1.438568e-01 -7.125843e-01 -1.210175e+00 -1.570511e+00 -1.741785e+00 -1.691833e+00 -1.405060e+00 -8.769056e-01 -9.851672e-02 9.453416e-01 2.272022e+00 3.806313e+00 4.993547e+00 4.888870e+00 -1.157840e+01 -1.274560e+01 1.266497e+01 8.764229e+00 -5.056214e+00 -4.239598e+00 -3.683409e+00 -3.015025e+00 -2.450936e+00 -2.015260e+00 -1.684055e+00 -1.420585e+00 -1.192514e+00 -9.822826e-01 -7.804611e-01 -5.838728e-01 -3.909644e-01 -2.007561e-01 
-8.810621e-03 1.745251e-01 3.610688e-01 5.528339e-01 7.510935e-01 9.570910e-01 1.173077e+00 1.406844e+00 1.675552e+00 2.014568e+00 2.477154e+00 3.129705e+00 4.033738e+00 5.112122e+00 6.322688e+00 -1.637021e+01 -5.930562e+00 1.784698e+01 -4.207234e-01 -8.262931e+00 -6.185375e+00 -4.121972e+00 -2.620634e+00 -1.490280e+00 -6.298383e-01 1.127474e-02 4.614238e-01 7.329735e-01 8.320852e-01 7.695755e-01 5.656669e-01 2.561733e-01 -1.109163e-01 -4.796878e-01 -7.928727e-01 -9.997017e-01 -1.058734e+00 -9.417995e-01 -6.284438e-01 -1.048280e-01 6.453560e-01 1.640401e+00 2.901966e+00 4.460788e+00 6.509026e+00 1.054156e+01 3.953547e+00 -2.060672e+01 3.667888e-01 1.843053e+01 -2.452972e+00 -4.361916e+00 -3.867522e+00 -3.174550e+00 -2.544902e+00 -2.057317e+00 -1.690347e+00 -1.406507e+00 -1.168811e+00 -9.557672e-01 -7.553777e-01 -5.627283e-01 -3.752592e-01 -1.913045e-01 
-6.102581e-03 1.654663e-01 3.406205e-01 5.216615e-01 7.100978e-01 9.076089e-01 1.117057e+00 1.347613e+00 1.618462e+00 1.968460e+00 2.450814e+00 3.133603e+00 4.036446e+00 5.098515e+00 1.590366e+00 -1.692571e+01 5.536967e+00 1.707697e+01 -9.126756e+00 -9.098630e+00 -6.486662e+00 -4.536233e+00 -3.057202e+00 -1.939155e+00 -1.091099e+00 -4.602552e-01 -1.142767e-02 2.760057e-01 4.166709e-01 4.261497e-01 3.251020e-01 1.432886e-01 -8.171552e-02 -3.073622e-01 -4.897645e-01 -5.893485e-01 -5.718098e-01 -4.109205e-01 -8.406922e-02 4.284244e-01 1.149101e+00 2.102848e+00 3.320906e+00 4.849329e+00 6.754081e+00 9.069378e+00 1.257839e+01 -1.420995e+01 -1.301358e+01 1.427122e+01 3.084423e+00 -4.744428e+00 -4.118227e+00 -3.318459e+00 -2.596037e+00 -2.054062e+00 -1.654793e+00 -1.355308e+00 -1.112909e+00 -9.023605e-01 -7.088231e-01 -5.256462e-01 -3.490600e-01 -1.767307e-01 
-3.634126e-03 1.506434e-01 3.086904e-01 4.730149e-01 6.453371e-01 8.279271e-01 1.024446e+00 1.245870e+00 1.514019e+00 1.871482e+00 2.373625e+00 3.081165e+00 3.958979e+00 4.844558e+00 -6.819186e+00 -1.146110e+01 1.372368e+01 8.836419e+00 -1.228969e+01 -9.051223e+00 -6.540155e+00 -4.686441e+00 -3.264132e+00 -2.185112e+00 -1.366861e+00 -7.576524e-01 -3.204868e-01 -2.932960e-02 1.353042e-01 1.920919e-01 1.612775e-01 6.801527e-02 -5.804678e-02 -1.843657e-01 -2.772189e-01 -3.056014e-01 -2.409319e-01 -5.896850e-02 2.638077e-01 7.507553e-01 1.428641e+00 2.328289e+00 3.488669e+00 4.970894e+00 6.871164e+00 9.519511e+00 1.374733e+01 -9.584311e-01 -1.742769e+01 7.539639e+00 1.277396e+01 -6.009186e+00 -4.525024e+00 -3.431641e+00 -2.592870e+00 -1.995073e+00 -1.571182e+00 -1.262677e+00 -1.022187e+00 -8.204009e-01 -6.398367e-01 -4.720708e-01 -3.120848e-01 -1.569308e-01 
-1.826480e-03 1.297657e-01 2.650281e-01 4.065586e-01 5.562258e-01 7.170161e-01 8.936643e-01 1.099596e+00 1.361128e+00 1.727771e+00 2.271983e+00 3.063165e+00 4.120834e+00 5.516095e+00 -1.305350e+01 -4.791705e+00 1.476647e+01 -3.074574e+00 -1.160873e+01 -8.389946e+00 -6.116639e+00 -4.447840e+00 -3.164105e+00 -2.182869e+00 -1.436455e+00 -8.795396e-01 -4.767161e-01 -2.016208e-01 -3.319712e-02 4.730176e-02 5.868985e-02 2.181566e-02 -3.997828e-02 -1.019384e-01 -1.383170e-01 -1.248967e-01 -3.830479e-02 1.432161e-01 4.416378e-01 8.815295e-01 1.489410e+00 2.299174e+00 3.347297e+00 4.684672e+00 6.361269e+00 8.423828e+00 1.056476e+01 9.332534e+00 -1.713781e+01 -3.603280e-01 1.664327e+01 -6.788525e+00 -4.696529e+00 -3.359425e+00 -2.469676e+00 -1.852201e+00 -1.425496e+00 -1.122249e+00 -8.940010e-01 -7.092645e-01 -5.487312e-01 -4.026480e-01 -2.650230e-01 -1.324724e-01 
-5.153488e-04 1.033500e-01 2.104643e-01 3.232602e-01 4.436160e-01 5.750228e-01 7.230828e-01 9.033751e-01 1.146256e+00 1.510225e+00 2.091902e+00 3.002116e+00 4.433014e+00 7.012019e+00 -1.405531e+01 2.443714e-01 1.451052e+01 -8.746514e+00 -8.517846e+00 -6.691299e+00 -5.078704e+00 -3.768639e+00 -2.728410e+00 -1.920174e+00 -1.299613e+00 -8.348683e-01 -4.962019e-01 -2.611953e-01 -1.106153e-01 -2.798637e-02 2.535453e-03 -2.718900e-03 -2.622821e-02 -4.989999e-02 -5.486936e-02 -2.304898e-02 6.368563e-02 2.233944e-01 4.748023e-01 8.405477e-01 1.343851e+00 2.017032e+00 2.890579e+00 4.007823e+00 5.414042e+00 7.134650e+00 9.340882e+00 1.174194e+01 -1.372210e+01 -5.121726e+00 1.331246e+01 -3.703432e+00 -3.612578e+00 -2.840197e+00 -2.130705e+00 -1.584200e+00 -1.196920e+00 -9.243191e-01 -7.242471e-01 -5.678301e-01 -4.356382e-01 -3.179278e-01 -2.083491e-01 -1.035631e-01 
3.585728e-05 7.193100e-02 1.462656e-01 2.249896e-01 3.096720e-01 4.036073e-01 5.120839e-01 6.499445e-01 8.453711e-01 1.154718e+00 1.668950e+00 2.492922e+00 3.762672e+00 5.297896e+00 -1.052743e+01 2.202242e+00 1.112131e+01 -8.296265e+00 -6.276206e+00 -4.788463e+00 -3.657885e+00 -2.737078e+00 -2.001842e+00 -1.426346e+00 -9.807086e-01 -6.461107e-01 -4.006329e-01 -2.286917e-01 -1.155562e-01 -4.921026e-02 -1.809778e-02 -1.094057e-02 -1.589983e-02 -2.100572e-02 -1.376804e-02 1.800623e-02 8.673522e-02 2.055442e-01 3.878647e-01 6.514361e-01 1.012791e+00 1.498621e+00 2.128759e+00 2.939217e+00 3.951915e+00 5.165553e+00 6.600766e+00 7.712866e+00 -8.389121e+00 -4.402340e+00 8.210115e+00 -9.712656e-01 -2.556187e+00 -2.100295e+00 -1.595684e+00 -1.175821e+00 -8.756678e-01 -6.648628e-01 -5.135857e-01 -3.983617e-01 -3.033917e-01 -2.203517e-01 -1.439079e-01 -7.125069e-02 
1.864434e-04 3.696212e-02 7.505994e-02 1.155662e-01 1.594023e-01 2.085909e-01 2.664464e-01 3.421595e-01 4.530652e-01 6.337541e-01 9.388627e-01 1.427554e+00 2.171240e+00 2.377372e+00 -5.332477e+00 1.319036e+00 5.848768e+00 -3.814445e+00 -3.250743e+00 -2.501676e+00 -1.916562e+00 -1.439432e+00 -1.057990e+00 -7.590425e-01 -5.263032e-01 -3.512431e-01 -2.222336e-01 -1.313770e-01 -7.075066e-02 -3.402121e-02 -1.511037e-02 -8.236552e-03 -7.422614e-03 -6.695267e-03 1.879587e-04 1.937356e-02 5.722221e-02 1.206287e-01 2.167092e-01 3.550891e-01 5.445989e-01 7.997460e-01 1.130762e+00 1.554814e+00 2.078021e+00 2.667584e+00 3.250677e+00 3.235240e+00 -4.744654e+00 -2.240339e+00 4.232790e+00 -6.899635e-01 -1.785364e+00 -1.228714e+00 -8.846563e-01 -6.364926e-01 -4.664206e-01 -3.495641e-01 -2.671319e-01 -2.056641e-01 -1.557970e-01 -1.127858e-01 -7.346808e-02 -3.626705e-02 
4.612253e-12 8.835199e-12 1.334438e-11 1.798420e-11 2.237686e-11 2.598440e-11 2.808613e-11 2.778159e-11 2.429442e-11 1.769063e-11 1.004958e-11 6.040571e-12 1.472978e-11 -1.770340e-11 -4.637522e-10 -2.500517e-10 1.005312e-10 -9.077391e-11 6.511098e-13 3.227564e-11 3.694610e-11 3.330441e-11 2.776645e-11 2.248970e-11 1.826218e-11 1.483179e-11 1.223374e-11 9.941473e-12 7.928154e-12 5.958619e-12 4.097663e-12 2.309541e-12 7.758536e-13 -3.094356e-13 -7.472143e-13 -3.116000e-13 1.186236e-12 3.755739e-12 7.158960e-12 1.073344e-11 1.366029e-11 1.485458e-11 1.396717e-11 1.214719e-11 9.617619e-12 1.842795e-12 -6.072008e-11 -3.770798e-10 -5.195137e-10 2.486758e-10 3.354692e-10 -4.376665e-10 -3.990287e-10 -7.665114e-11 -7.590534e-12 2.925079e-12 -4.793763e-13 -4.698124e-12 -7.496008e-12 -8.331456e-12 -7.534905e-12 -5.522524e-12 -2.697108e-12 7.331838e-13 
-1.864433e-04 -3.696212e-02 -7.505994e-02 -1.155662e-01 -1.594023e-01 -2.085909e-01 -2.664464e-01 -3.421595e-01 -4.530652e-01 -6.337541e-01 -9.388627e-01 -1.427554e+00 -2.171240e+00 -2.377372e+00 5.332477e+00 -1.319036e+00 -5.848768e+00 3.814445e+00 3.250743e+00 2.501676e+00 1.916562e+00 1.439432e+00 1.057990e+00 7.590425e-01 5.263032e-01 3.512431e-01 2.222336e-01 1.313770e-01 7.075066e-02 3.402121e-02 1.511037e-02 8.236552e-03 7.422614e-03 6.695267e-03 -1.879587e-04 -1.937356e-02 -5.722221e-02 -1.206287e-01 -2.167092e-01 -3.550891e-01 -5.445989e-01 -7.997460e-01 -1.130762e+00 -1.554814e+00 -2.078021e+00 -2.667584e+00 -3.250677e+00 -3.235240e+00 4.744654e+00 2.240339e+00 -4.232790e+00 6.899635e-01 1.785364e+00 1.228714e+00 8.846563e-01 6.364926e-01 4.664206e-01 3.495641e-01 2.671319e-01 2.056641e-01 1.557970e-01 1.127858e-01 7.346808e-02 3.626705e-02 