# vtk DataFile Version 2.0
Comment goes here
ASCII

DATASET STRUCTURED_POINTS
FIELD FieldData 1
TIME 1 1 double
0.68000000
DIMENSIONS    64   64   1

ORIGIN    0.000   0.000   0.000
SPACING   0.015625 0.015625   1.000

POINT_DATA   4096
SCALARS Omega double
LOOKUP_TABLE default

3.936850e-14 7.687739e-14 1.104891e-13 1.423569e-13 1.756073e-13 2.262927e-13 2.309188e-13 2.202034e-13 2.371475e-13 2.320587e-13 2.804370e-13 2.988255e-13 2.513612e-13 2.346038e-13 1.896758e-13 2.918409e-13 2.407531e-13 2.618678e-13 3.277078e-13 3.598742e-13 4.129275e-13 4.416345e-13 5.022756e-13 6.325428e-13 7.265401e-13 8.267334e-13 8.075913e-13 7.954659e-13 7.101756e-13 5.608762e-13 3.399690e-13 7.990342e-14 -1.914000e-13 -4.710916e-13 -6.822718e-13 -8.271833e-13 -9.405558e-13 -1.010690e-12 -9.548045e-13 -9.058032e-13 -8.250930e-13 -7.386990e-13 -6.885150e-13 -6.175446e-13 -5.452240e-13 -4.510752e-13 -4.624624e-13 -5.286364e-13 -4.843146e-13 -4.217433e-13 -4.240430e-13 -4.032544e-13 -3.890443e-13 -3.421167e-13 -3.115921e-13 -2.800516e-13 -2.506919e-13 -1.994189e-13 -1.589893e-13 -1.232913e-13 -7.892265e-14 -6.209494e-14 -2.530089e-14 1.122043e-14 
-8.985390e-05 5.420133e-03 1.099780e-02 1.670662e-02 2.258833e-02 2.866501e-02 3.492082e-02 4.130628e-02 4.772011e-02 5.400760e-02 5.994872e-02 6.523393e-02 6.948018e-02 7.216222e-02 7.270392e-02 7.034646e-02 6.438093e-02 5.395161e-02 3.846610e-02 1.736723e-02 -9.353273e-03 -4.132681e-02 -7.740492e-02 -1.156612e-01 -1.533278e-01 -1.866684e-01 -2.113233e-01 -2.225529e-01 -2.159794e-01 -1.888766e-01 -1.410425e-01 -7.620980e-02 -1.543923e-03 7.332238e-02 1.387296e-01 1.872922e-01 2.151779e-01 2.223500e-01 2.115527e-01 1.871134e-01 1.538112e-01 1.161065e-01 7.771729e-02 4.152710e-02 9.423583e-03 -1.739635e-02 -3.857080e-02 -5.412394e-02 -6.458361e-02 -7.058726e-02 -7.294969e-02 -7.242436e-02 -6.973657e-02 -6.549319e-02 -6.019898e-02 -5.425321e-02 -4.795599e-02 -4.153356e-02 -3.513838e-02 -2.887263e-02 -2.278738e-02 -1.689707e-02 -1.118279e-02 -5.600409e-03 
-1.828278e-04 1.102914e-02 2.236567e-02 3.394422e-02 4.583973e-02 5.809200e-02 7.066616e-02 8.346585e-02 9.629001e-02 1.088355e-01 1.206612e-01 1.311476e-01 1.395115e-01 1.446803e-01 1.454567e-01 1.402682e-01 1.276232e-01 1.057213e-01 7.328656e-02 2.908983e-02 -2.697688e-02 -9.428673e-02 -1.705891e-01 -2.520225e-01 -3.328934e-01 -4.053204e-01 -4.598872e-01 -4.859989e-01 -4.735529e-01 -4.157864e-01 -3.115660e-01 -1.687878e-01 -3.543056e-03 1.621869e-01 3.063263e-01 4.122777e-01 4.718733e-01 4.857195e-01 4.605904e-01 4.065113e-01 3.341445e-01 2.531661e-01 1.714125e-01 9.484222e-02 2.723504e-02 -2.906196e-02 -7.343092e-02 -1.060218e-01 -1.279975e-01 -1.407310e-01 -1.459369e-01 -1.451985e-01 -1.400214e-01 -1.316643e-01 -1.211610e-01 -1.093259e-01 -9.676168e-02 -8.392067e-02 -7.110266e-02 -5.850953e-02 -4.624140e-02 -3.432967e-02 -2.274114e-02 -1.139569e-02 
-2.858023e-04 1.699188e-02 3.443076e-02 5.218234e-02 7.034133e-02 8.895394e-02 1.079649e-01 1.272310e-01 1.464586e-01 1.651990e-01 1.827885e-01 1.982807e-01 2.104546e-01 2.176264e-01 2.178837e-01 2.087171e-01 1.877109e-01 1.519458e-01 9.930561e-02 2.767984e-02 -6.328038e-02 -1.728911e-01 -2.978655e-01 -4.323926e-01 -5.675706e-01 -6.905847e-01 -7.856526e-01 -8.340798e-01 -8.173352e-01 -7.217329e-01 -5.435608e-01 -2.955607e-01 -6.459723e-03 2.835915e-01 5.341911e-01 7.156804e-01 8.146930e-01 8.340599e-01 7.873827e-01 6.931698e-01 5.701736e-01 4.347312e-01 2.995755e-01 1.740886e-01 6.394808e-02 -2.742494e-02 -9.935238e-02 -1.522738e-01 -1.881816e-01 -2.093535e-01 -2.185687e-01 -2.183861e-01 -2.112136e-01 -1.990567e-01 -1.835436e-01 -1.659420e-01 -1.471755e-01 -1.279240e-01 -1.086326e-01 -8.959536e-02 -7.096133e-02 -5.278033e-02 -3.501550e-02 -1.756455e-02 
-3.962605e-04 2.344767e-02 4.745999e-02 7.180079e-02 9.656243e-02 1.217872e-01 1.473917e-01 1.731912e-01 1.987966e-01 2.236167e-01 2.467359e-01 2.668450e-01 2.821902e-01 2.903697e-01 2.885837e-01 2.732142e-01 2.407151e-01 1.868521e-01 1.084937e-01 2.438197e-03 -1.320349e-01 -2.944259e-01 -4.804915e-01 -6.825488e-01 -8.881887e-01 -1.078716e+00 -1.230182e+00 -1.312434e+00 -1.294187e+00 -1.150155e+00 -8.711308e-01 -4.756268e-01 -1.078688e-02 4.557770e-01 8.558581e-01 1.140744e+00 1.290657e+00 1.313433e+00 1.234035e+00 1.083901e+00 8.931583e-01 6.868866e-01 4.836488e-01 2.966701e-01 1.334260e-01 -1.707768e-03 -1.082268e-01 -1.870376e-01 -2.411456e-01 -2.739258e-01 -2.894050e-01 -2.913257e-01 -2.831710e-01 -2.678620e-01 -2.477359e-01 -2.246039e-01 -1.997542e-01 -1.741194e-01 -1.482909e-01 -1.226556e-01 -9.740763e-02 -7.262112e-02 -4.826664e-02 -2.424070e-02 
-5.227747e-04 3.047488e-02 6.161343e-02 9.302756e-02 1.247862e-01 1.569089e-01 1.892818e-01 2.216705e-01 2.535858e-01 2.842622e-01 3.124772e-01 3.364537e-01 3.537541e-01 3.610633e-01 3.544697e-01 3.290256e-01 2.798742e-01 2.013188e-01 8.918236e-02 -6.092446e-02 -2.500412e-01 -4.780593e-01 -7.398227e-01 -1.025990e+00 -1.320582e+00 -1.598180e+00 -1.824962e+00 -1.955333e+00 -1.940006e+00 -1.735320e+00 -1.322121e+00 -7.249512e-01 -1.699540e-02 6.939119e-01 1.298727e+00 1.721763e+00 1.936034e+00 1.958799e+00 1.832773e+00 1.607828e+00 1.329319e+00 1.033260e+00 7.449476e-01 4.816687e-01 2.524256e-01 6.239308e-02 -8.831736e-02 -2.010999e-01 -2.800315e-01 -3.296311e-01 -3.552957e-01 -3.621294e-01 -3.549076e-01 -3.376880e-01 -3.137164e-01 -2.854982e-01 -2.547951e-01 -2.228488e-01 -1.904307e-01 -1.580255e-01 -1.258807e-01 -9.409770e-02 -6.267177e-02 -3.152008e-02 
-6.559323e-04 3.812175e-02 7.697333e-02 1.159743e-01 1.551409e-01 1.944550e-01 2.337532e-01 2.727387e-01 3.107756e-01 3.468609e-01 3.793236e-01 4.057505e-01 4.227560e-01 4.258748e-01 4.098069e-01 3.681597e-01 2.947178e-01 1.825196e-01 2.664259e-02 -1.781469e-01 -4.328312e-01 -7.377578e-01 -1.086870e+00 -1.469951e+00 -1.868011e+00 -2.249331e+00 -2.569653e+00 -2.764235e+00 -2.759429e+00 -2.484633e+00 -1.904314e+00 -1.048766e+00 -2.557226e-02 1.002453e+00 1.870197e+00 2.466271e+00 2.756162e+00 2.772721e+00 2.584499e+00 2.266330e+00 1.882353e+00 1.481014e+00 1.094118e+00 7.426347e-01 4.361910e-01 1.804612e-01 -2.492226e-02 -1.815868e-01 -2.942826e-01 -3.683744e-01 -4.104088e-01 -4.268749e-01 -4.239603e-01 -4.071160e-01 -3.807470e-01 -3.483067e-01 -3.122116e-01 -2.741485e-01 -2.351406e-01 -1.958138e-01 -1.564850e-01 -1.172992e-01 -7.829285e-02 -3.943124e-02 
-8.039856e-04 4.636953e-02 9.351084e-02 1.405963e-01 1.875637e-01 2.343250e-01 2.806439e-01 3.261021e-01 3.698357e-01 4.104440e-01 4.455942e-01 4.719414e-01 4.848395e-01 4.783981e-01 4.458004e-01 3.793446e-01 2.719291e-01 1.161181e-01 -9.269093e-02 -3.596677e-01 -6.848677e-01 -1.069111e+00 -1.505696e+00 -1.984925e+00 -2.486922e+00 -2.975740e+00 -3.398166e+00 -3.668574e+00 -3.684770e+00 -3.340249e+00 -2.576137e+00 -1.425555e+00 -3.685412e-02 1.359318e+00 2.528562e+00 3.316917e+00 3.684215e+00 3.686085e+00 3.424659e+00 3.004042e+00 2.508811e+00 1.999803e+00 1.514043e+00 1.074109e+00 6.884935e-01 3.625770e-01 9.541167e-02 -1.141284e-01 -2.704740e-01 -3.787515e-01 -4.458240e-01 -4.790562e-01 -4.859034e-01 -4.733144e-01 -4.471329e-01 -4.120661e-01 -3.714880e-01 -3.277467e-01 -2.822809e-01 -2.359425e-01 -1.891776e-01 -1.422003e-01 -9.511851e-02 -4.797282e-02 
-9.508291e-04 5.519924e-02 1.111711e-01 1.668052e-01 2.219211e-01 2.763205e-01 3.296250e-01 3.811942e-01 4.297535e-01 4.732593e-01 5.083625e-01 5.304336e-01 5.332124e-01 5.093117e-01 4.506028e-01 3.489835e-01 1.977873e-01 -8.823980e-03 -2.731990e-01 -5.985833e-01 -9.831910e-01 -1.428544e+00 -1.927980e+00 -2.475251e+00 -3.052723e+00 -3.626690e+00 -4.141898e+00 -4.496006e+00 -4.554350e+00 -4.164965e+00 -3.236769e+00 -1.802008e+00 -5.135783e-02 1.710362e+00 3.172596e+00 4.136548e+00 4.559540e+00 4.528189e+00 4.186982e+00 3.671958e+00 3.084063e+00 2.492352e+00 1.934355e+00 1.430694e+00 9.851082e-01 6.010027e-01 2.765626e-01 1.195968e-02 -1.949793e-01 -3.471244e-01 -4.495910e-01 -5.092073e-01 -5.338022e-01 -5.315563e-01 -5.098364e-01 -4.749307e-01 -4.315377e-01 -3.830142e-01 -3.314711e-01 -2.781676e-01 -2.237852e-01 -1.686755e-01 -1.130599e-01 -5.709252e-02 
-1.102595e-03 6.455891e-02 1.298586e-01 1.944537e-01 2.580006e-01 3.201068e-01 3.801439e-01 4.370447e-01 4.888575e-01 5.325001e-01 5.631979e-01 5.746421e-01 5.588527e-01 5.073067e-01 4.117450e-01 2.657893e-01 6.625360e-02 -1.876099e-01 -4.927185e-01 -8.485864e-01 -1.251514e+00 -1.705610e+00 -2.207129e+00 -2.756151e+00 -3.344604e+00 -3.950977e+00 -4.523612e+00 -4.951997e+00 -5.073510e+00 -4.689751e+00 -3.678651e+00 -2.064597e+00 -6.908445e-02 1.941538e+00 3.594692e+00 4.656725e+00 5.087453e+00 5.005890e+00 4.597589e+00 4.022042e+00 3.388239e+00 2.771763e+00 2.205868e+00 1.700030e+00 1.248462e+00 8.485911e-01 4.957665e-01 1.915859e-01 -6.197958e-02 -2.622788e-01 -4.092111e-01 -5.059440e-01 -5.585476e-01 -5.751902e-01 -5.643835e-01 -5.340797e-01 -4.906922e-01 -4.389983e-01 -3.821795e-01 -3.221776e-01 -2.601155e-01 -1.965957e-01 -1.320360e-01 -6.675201e-02 
-1.239060e-03 7.445628e-02 1.495648e-01 2.235096e-01 2.957042e-01 3.654404e-01 4.316369e-01 4.925059e-01 5.450067e-01 5.845480e-01 6.044868e-01 5.966753e-01 5.518166e-01 4.617199e-01 3.207107e-01 1.285015e-01 -1.096029e-01 -3.837528e-01 -6.826045e-01 -1.000954e+00 -1.337604e+00 -1.704367e+00 -2.106417e+00 -2.553658e+00 -3.046843e+00 -3.594070e+00 -4.156373e+00 -4.649250e+00 -4.882235e+00 -4.604788e+00 -3.669990e+00 -2.089503e+00 -9.126703e-02 1.925982e+00 3.560949e+00 4.567001e+00 4.907647e+00 4.731415e+00 4.275447e+00 3.708408e+00 3.110965e+00 2.563504e+00 2.090442e+00 1.684668e+00 1.324725e+00 9.949503e-01 6.826843e-01 3.868811e-01 1.144126e-01 -1.235503e-01 -3.164398e-01 -4.586190e-01 -5.500826e-01 -5.961488e-01 -6.049822e-01 -5.857336e-01 -5.466797e-01 -4.944466e-01 -4.337616e-01 -3.676630e-01 -2.980164e-01 -2.258810e-01 -1.519952e-01 -7.691725e-02 
-1.362146e-03 8.493053e-02 1.703637e-01 2.540506e-01 3.350524e-01 4.121415e-01 4.835023e-01 5.461912e-01 5.955995e-01 6.251069e-01 6.260088e-01 5.886719e-01 5.041293e-01 3.677613e-01 1.819761e-01 -4.033445e-02 -2.775627e-01 -5.035954e-01 -6.976307e-01 -8.551951e-01 -9.893721e-01 -1.132838e+00 -1.310895e+00 -1.535223e+00 -1.814318e+00 -2.235858e+00 -2.716719e+00 -3.242348e+00 -3.581560e+00 -3.463972e+00 -2.829046e+00 -1.659934e+00 -1.163354e-01 1.443705e+00 2.686361e+00 3.425787e+00 3.611832e+00 3.351025e+00 2.908717e+00 2.433876e+00 1.928272e+00 1.539417e+00 1.275707e+00 1.094234e+00 9.614578e-01 8.381836e-01 6.900744e-01 5.022137e-01 2.803608e-01 4.535627e-02 -1.764460e-01 -3.628124e-01 -5.005717e-01 -5.866065e-01 -6.253956e-01 -6.255792e-01 -5.968876e-01 -5.479763e-01 -4.856258e-01 -4.144594e-01 -3.375216e-01 -2.566198e-01 -1.730188e-01 -8.763280e-02 
-1.452400e-03 9.614300e-02 1.925427e-01 2.864527e-01 3.764112e-01 4.603997e-01 5.354664e-01 5.970018e-01 6.383042e-01 6.503963e-01 6.228301e-01 5.460072e-01 4.148969e-01 2.346753e-01 2.490469e-02 -1.776898e-01 -3.264258e-01 -3.752931e-01 -3.026457e-01 -1.203561e-01 1.141487e-01 3.271302e-01 4.547126e-01 4.943364e-01 5.355361e-01 2.773934e-01 1.649673e-02 -6.754588e-01 -1.211355e+00 -1.181624e+00 -1.002323e+00 -6.471459e-01 -1.422236e-01 3.534310e-01 7.901982e-01 1.173421e+00 1.240836e+00 7.546154e-01 2.743890e-01 9.117256e-02 -2.854580e-01 -4.836090e-01 -5.042357e-01 -3.859919e-01 -1.636163e-01 8.379676e-02 2.782646e-01 3.616120e-01 3.211792e-01 1.789365e-01 -2.015628e-02 -2.285661e-01 -4.094055e-01 -5.419224e-01 -6.205358e-01 -6.496427e-01 -6.388043e-01 -5.983406e-01 -5.373853e-01 -4.626706e-01 -3.789327e-01 -2.891366e-01 -1.953502e-01 -9.901944e-02 
-1.503381e-03 1.083535e-01 2.165946e-01 3.213790e-01 4.205010e-01 5.107810e-01 5.876643e-01 6.443033e-01 6.715383e-01 6.581150e-01 5.932600e-01 4.707800e-01 2.963704e-01 9.527276e-02 -8.197927e-02 -1.618670e-01 -6.574729e-02 2.634680e-01 8.217810e-01 1.536952e+00 2.259696e+00 2.841766e+00 3.173477e+00 3.289975e+00 3.736965e+00 3.505797e+00 4.113133e+00 2.495522e+00 1.137689e+00 8.773710e-01 1.414233e-01 -8.918312e-02 -1.776890e-01 -3.563681e-01 -6.430406e-01 -6.048151e-01 -9.458828e-01 -2.820280e+00 -3.895659e+00 -2.855747e+00 -3.098443e+00 -3.251272e+00 -3.216277e+00 -2.911729e+00 -2.334307e+00 -1.603585e+00 -8.762193e-01 -3.018073e-01 4.221144e-02 1.519604e-01 8.139701e-02 -9.035522e-02 -2.897686e-01 -4.646848e-01 -5.889141e-01 -6.556924e-01 -6.708523e-01 -6.448946e-01 -5.891613e-01 -5.128528e-01 -4.229606e-01 -3.240853e-01 -2.194714e-01 -1.113250e-01 
-1.501706e-03 1.219637e-01 2.432841e-01 3.599008e-01 4.685741e-01 5.645414e-01 6.411191e-01 6.887505e-01 6.957678e-01 6.495910e-01 5.421964e-01 3.770535e-01 1.816815e-01 1.698192e-02 -1.726869e-02 2.015438e-01 7.777511e-01 1.743310e+00 2.996508e+00 4.322007e+00 5.401112e+00 6.019995e+00 5.887464e+00 5.372631e+00 6.744088e+00 4.049557e+00 9.005763e+00 1.516386e+01 1.691175e+01 1.594988e+01 1.077758e+01 5.739340e+00 -1.511227e-01 -5.531256e+00 -1.124096e+01 -1.557168e+01 -1.724311e+01 -1.586351e+01 -9.091399e+00 -3.253699e+00 -4.811059e+00 -5.328989e+00 -5.920647e+00 -6.057684e+00 -5.480432e+00 -4.420547e+00 -3.094500e+00 -1.822415e+00 -8.351820e-01 -2.350003e-01 2.940264e-03 -1.806540e-02 -1.760957e-01 -3.694889e-01 -5.355220e-01 -6.449510e-01 -6.933294e-01 -6.881311e-01 -6.418464e-01 -5.661656e-01 -4.707903e-01 -3.624893e-01 -2.461118e-01 -1.249221e-01 
-1.424234e-03 1.374992e-01 2.736193e-01 4.034499e-01 5.223905e-01 6.236217e-01 6.978585e-01 7.325515e-01 7.141242e-01 6.308721e-01 4.830652e-01 2.939782e-01 1.295856e-01 1.080960e-01 3.989031e-01 1.176463e+00 2.531471e+00 4.372585e+00 6.352226e+00 7.945603e+00 8.605853e+00 8.489502e+00 6.277921e+00 6.771684e+00 1.858426e+01 2.785141e+01 3.074593e+01 2.383377e+01 1.534460e+01 1.020979e+01 5.129085e+00 2.908298e+00 -3.301014e-01 -2.233516e+00 -5.604291e+00 -9.892293e+00 -1.620552e+01 -2.422545e+01 -3.065683e+01 -2.887901e+01 -1.762865e+01 -7.079473e+00 -6.392558e+00 -8.322999e+00 -8.590978e+00 -8.031939e+00 -6.492187e+00 -4.505826e+00 -2.641451e+00 -1.251270e+00 -4.405485e-01 -1.239319e-01 -1.296526e-01 -2.869181e-01 -4.744780e-01 -6.237426e-01 -7.094251e-01 -7.302242e-01 -6.974027e-01 -6.244818e-01 -5.241191e-01 -4.057252e-01 -2.762295e-01 -1.402891e-01 
-1.266220e-03 1.555430e-01 3.087512e-01 4.537228e-01 5.841373e-01 6.906749e-01 7.610737e-01 7.799344e-01 7.332340e-01 6.141894e-01 4.400367e-01 2.689638e-01 2.284090e-01 5.204926e-01 1.400531e+00 3.068712e+00 5.494053e+00 8.253021e+00 1.047430e+01 1.104759e+01 9.310389e+00 1.033848e+01 1.942660e+01 3.014927e+01 2.868858e+01 1.886902e+01 5.757162e+00 -3.884748e+00 -5.224899e+00 -5.174342e+00 -3.772686e+00 -1.675171e+00 -3.215673e-01 1.911062e+00 3.149194e+00 5.029047e+00 4.845176e+00 3.543608e+00 -5.619750e+00 -2.068475e+01 -2.922480e+01 -3.047285e+01 -2.102794e+01 -1.089248e+01 -8.998282e+00 -1.094775e+01 -1.061966e+01 -8.436441e+00 -5.671468e+00 -3.206275e+00 -1.488831e+00 -5.644100e-01 -2.416587e-01 -2.658267e-01 -4.305223e-01 -6.044068e-01 -7.256855e-01 -7.752693e-01 -7.588986e-01 -6.903610e-01 -5.850720e-01 -4.554515e-01 -3.109536e-01 -1.579967e-01 
-9.773898e-04 1.767188e-01 3.498886e-01 5.125266e-01 6.562478e-01 7.688366e-01 8.349113e-01 8.368632e-01 7.629054e-01 6.173500e-01 4.469469e-01 3.655050e-01 5.907032e-01 1.436767e+00 3.240128e+00 6.140937e+00 9.753020e+00 1.294458e+01 1.385746e+01 1.297738e+01 1.613257e+01 2.735992e+01 2.944040e+01 1.704508e+01 -5.340997e-01 -9.693647e+00 -1.211484e+01 -8.294576e+00 1.963556e-01 3.295999e+00 3.951186e+00 2.235694e+00 -6.465544e-02 -2.190350e+00 -4.247325e+00 -3.408725e+00 5.312983e-01 7.401638e+00 1.217154e+01 9.958955e+00 -2.723586e-01 -1.650511e+01 -2.958217e+01 -2.818740e+01 -1.641501e+01 -1.279559e+01 -1.402249e+01 -1.315418e+01 -9.998803e+00 -6.361959e+00 -3.400067e+00 -1.528236e+00 -6.291651e-01 -3.722735e-01 -4.386799e-01 -6.051188e-01 -7.518939e-01 -8.290494e-01 -8.302647e-01 -7.667382e-01 -6.559114e-01 -5.133335e-01 -3.513745e-01 -1.785628e-01 
-5.603481e-04 2.014525e-01 3.979188e-01 5.812738e-01 7.407565e-01 8.609901e-01 9.235760e-01 9.100721e-01 8.148874e-01 6.622866e-01 5.450978e-01 6.589677e-01 1.343777e+00 3.043066e+00 6.123908e+00 1.045928e+01 1.488676e+01 1.702674e+01 1.545920e+01 2.067196e+01 2.613028e+01 1.987477e+01 3.399816e+00 -9.002654e+00 -6.746560e+00 4.417188e+00 1.167988e+01 1.007601e+01 8.544141e+00 6.504728e+00 4.106654e+00 1.924283e+00 -1.675157e-02 -1.903838e+00 -4.150369e+00 -6.137457e+00 -7.550221e+00 -1.070517e+01 -1.105084e+01 -3.087789e+00 6.173696e+00 8.771383e+00 -2.790111e+00 -1.964794e+01 -2.649658e+01 -2.112487e+01 -1.612527e+01 -1.722024e+01 -1.517729e+01 -1.077413e+01 -6.381455e+00 -3.205773e+00 -1.423173e+00 -6.836812e-01 -5.411450e-01 -6.480391e-01 -7.997616e-01 -8.981789e-01 -9.155909e-01 -8.564095e-01 -7.386175e-01 -5.807558e-01 -3.983697e-01 -2.024158e-01 
5.961282e-05 2.299495e-01 4.532407e-01 6.606777e-01 8.388853e-01 9.691960e-01 1.030653e+00 1.006017e+00 9.014003e-01 7.721972e-01 7.779971e-01 1.225703e+00 2.605656e+00 5.481362e+00 1.011275e+01 1.572013e+01 1.971877e+01 1.870776e+01 1.826294e+01 2.149964e+01 1.348143e+01 -7.699145e-01 -4.166411e+00 4.101151e+00 1.102728e+01 1.033220e+01 9.021233e+00 7.356633e+00 6.032299e+00 4.632881e+00 3.060955e+00 1.513003e+00 1.055408e-02 -1.465970e+00 -2.987024e+00 -4.387045e+00 -5.672494e+00 -7.341811e+00 -8.391233e+00 -9.511771e+00 -1.055530e+01 -5.016401e+00 3.550868e+00 1.375770e+00 -1.308439e+01 -2.166245e+01 -1.878576e+01 -1.871206e+01 -2.003378e+01 -1.612932e+01 -1.049318e+01 -5.743774e+00 -2.746281e+00 -1.278777e+00 -7.820204e-01 -7.559689e-01 -8.808047e-01 -9.884179e-01 -1.017885e+00 -9.609920e-01 -8.340802e-01 -6.581822e-01 -4.521461e-01 -2.295994e-01 
8.725364e-04 2.618026e-01 5.151252e-01 7.498305e-01 9.497792e-01 1.093062e+00 1.156903e+00 1.128144e+00 1.031214e+00 9.665248e-01 1.183150e+00 2.129265e+00 4.460901e+00 8.807814e+00 1.509460e+01 2.124041e+01 2.177785e+01 1.591384e+01 1.612210e+01 1.147122e+01 2.013454e+00 4.939288e+00 7.238209e+00 6.542229e+00 6.658026e+00 5.963266e+00 5.559031e+00 4.895487e+00 4.148669e+00 3.298251e+00 2.283886e+00 1.174632e+00 2.363986e-02 -1.113146e+00 -2.200496e+00 -3.153391e+00 -3.967706e+00 -4.738133e+00 -5.219076e+00 -5.646628e+00 -6.413992e+00 -6.858477e+00 -7.056716e+00 -4.627887e+00 -2.042433e+00 -1.107677e+01 -1.583637e+01 -1.566090e+01 -2.187289e+01 -2.164972e+01 -1.559572e+01 -9.193384e+00 -4.683236e+00 -2.221967e+00 -1.199105e+00 -9.482854e-01 -1.003629e+00 -1.103064e+00 -1.137815e+00 -1.080038e+00 -9.414207e-01 -7.447014e-01 -5.119840e-01 -2.597254e-01 
1.930849e-03 2.959705e-01 5.815328e-01 8.458863e-01 1.070098e+00 1.229245e+00 1.299843e+00 1.276215e+00 1.208930e+00 1.257864e+00 1.785335e+00 3.402876e+00 6.928545e+00 1.297016e+01 2.087726e+01 2.507949e+01 1.544664e+01 9.257590e+00 1.304182e+01 8.745561e+00 5.227851e+00 5.605645e+00 3.895395e+00 3.160163e+00 3.227019e+00 3.300333e+00 3.377765e+00 3.240056e+00 2.908295e+00 2.396297e+00 1.709960e+00 9.003890e-01 2.754844e-02 -8.385307e-01 -1.638521e+00 -2.302891e+00 -2.800564e+00 -3.123964e+00 -3.217905e+00 -3.174043e+00 -3.138585e+00 -3.164026e+00 -3.819226e+00 -5.703514e+00 -5.340956e+00 -8.266757e+00 -1.295112e+01 -9.085748e+00 -1.454119e+01 -2.487710e+01 -2.145038e+01 -1.349424e+01 -7.250834e+00 -3.543975e+00 -1.814029e+00 -1.234598e+00 -1.170539e+00 -1.240330e+00 -1.271904e+00 -1.209585e+00 -1.056913e+00 -8.372193e-01 -5.756818e-01 -2.916314e-01 
3.209412e-03 3.304569e-01 6.485812e-01 9.432356e-01 1.192811e+00 1.369761e+00 1.451193e+00 1.442789e+00 1.428614e+00 1.643131e+00 2.578505e+00 5.025369e+00 9.926295e+00 1.772138e+01 2.628359e+01 1.686963e+01 3.107400e+00 1.164238e+01 1.384421e+01 5.432515e+00 2.793483e+00 1.045211e+00 6.491823e-01 8.599060e-01 1.336879e+00 1.782743e+00 2.098719e+00 2.192151e+00 2.070201e+00 1.754841e+00 1.276490e+00 6.815808e-01 2.582871e-02 -6.269474e-01 -1.219347e+00 -1.691951e+00 -2.003819e+00 -2.124607e+00 -2.027738e+00 -1.738319e+00 -1.320699e+00 -8.694431e-01 -6.471155e-01 -1.081390e+00 -2.651760e+00 -5.114175e+00 -1.373722e+01 -1.243388e+01 -3.385824e+00 -1.625647e+01 -2.656221e+01 -1.837950e+01 -1.035443e+01 -5.219793e+00 -2.619001e+00 -1.611093e+00 -1.375500e+00 -1.392909e+00 -1.412074e+00 -1.341818e+00 -1.173653e+00 -9.302201e-01 -6.394232e-01 -3.233786e-01 
4.632784e-03 3.623028e-01 7.105036e-01 1.033483e+00 1.307265e+00 1.502247e+00 1.597701e+00 1.614300e+00 1.676265e+00 2.102783e+00 3.525602e+00 6.901645e+00 1.324595e+01 2.282700e+01 2.331286e+01 1.226932e+00 5.686313e+00 2.091236e+01 6.966454e+00 -1.164803e+00 -1.607468e+00 -1.656364e+00 -1.145980e+00 -4.234613e-01 3.018755e-01 8.937904e-01 1.297865e+00 1.484636e+00 1.469775e+00 1.277201e+00 9.431448e-01 5.085695e-01 2.177282e-02 -4.640020e-01 -8.992924e-01 -1.233831e+00 -1.428529e+00 -1.448681e+00 -1.269731e+00 -8.861499e-01 -3.181117e-01 3.854818e-01 1.097719e+00 1.594665e+00 1.549217e+00 1.061825e+00 -6.057003e+00 -2.039934e+01 -6.484511e+00 -6.978547e-01 -2.289925e+01 -2.362519e+01 -1.375706e+01 -7.138492e+00 -3.564756e+00 -2.050951e+00 -1.600923e+00 -1.545781e+00 -1.544621e+00 -1.464305e+00 -1.281080e+00 -1.015437e+00 -6.975911e-01 -3.521550e-01 
6.156301e-03 3.877939e-01 7.599761e-01 1.105828e+00 1.399597e+00 1.610246e+00 1.720919e+00 1.769706e+00 1.924347e+00 2.593083e+00 4.532136e+00 8.840521e+00 1.638276e+01 2.741574e+01 8.089052e+00 -3.768577e+00 1.946851e+01 1.450423e+01 -2.595002e+00 -4.125563e+00 -3.672341e+00 -2.949515e+00 -2.019605e+00 -1.097063e+00 -2.926537e-01 3.275912e-01 7.459292e-01 9.636081e-01 1.004550e+00 8.954793e-01 6.704302e-01 3.645018e-01 1.684175e-02 -3.306070e-01 -6.382424e-01 -8.657495e-01 -9.788624e-01 -9.449263e-01 -7.369282e-01 -3.347223e-01 2.658431e-01 1.049641e+00 1.955903e+00 2.873958e+00 3.595065e+00 4.039043e+00 3.208229e+00 -1.326972e+01 -2.065873e+01 2.965543e+00 -6.499329e+00 -2.724657e+01 -1.703187e+01 -9.113785e+00 -4.550012e+00 -2.507621e+00 -1.819771e+00 -1.679181e+00 -1.652158e+00 -1.561331e+00 -1.365774e+00 -1.082349e+00 -7.430221e-01 -3.743585e-01 
7.480728e-03 4.024267e-01 7.882938e-01 1.147474e+00 1.453288e+00 1.674023e+00 1.798176e+00 1.881798e+00 2.134505e+00 3.048225e+00 5.468785e+00 1.056273e+01 1.882773e+01 2.114432e+01 -6.414739e+00 6.196730e+00 2.382989e+01 -8.267519e-01 -6.247474e+00 -5.514708e+00 -4.553989e+00 -3.486400e+00 -2.412605e+00 -1.449934e+00 -6.614493e-01 -6.971203e-02 3.301438e-01 5.553550e-01 6.324556e-01 5.872305e-01 4.492219e-01 2.471685e-01 1.237080e-02 -2.225094e-01 -4.262510e-01 -5.668039e-01 -6.159105e-01 -5.449251e-01 -3.278703e-01 6.010227e-02 6.369195e-01 1.408405e+00 2.354649e+00 3.414516e+00 4.473937e+00 5.412007e+00 6.193512e+00 6.357995e-01 -2.477739e+01 -7.736678e+00 6.477617e+00 -2.151968e+01 -2.041870e+01 -1.086075e+01 -5.410942e+00 -2.905019e+00 -1.994650e+00 -1.768613e+00 -1.714630e+00 -1.615041e+00 -1.412579e+00 -1.119138e+00 -7.677685e-01 -3.861207e-01 
8.572587e-03 4.020337e-01 7.871795e-01 1.146170e+00 1.452700e+00 1.674995e+00 1.808720e+00 1.923139e+00 2.266579e+00 3.379963e+00 6.198499e+00 1.192299e+01 2.151374e+01 7.207143e+00 -6.050747e+00 1.888127e+01 1.430313e+01 -8.393369e+00 -7.191803e+00 -5.997864e+00 -4.803345e+00 -3.619244e+00 -2.541811e+00 -1.624749e+00 -8.956657e-01 -3.541485e-01 1.668110e-02 2.394801e-01 3.405075e-01 3.435472e-01 2.734517e-01 1.536527e-01 8.636191e-03 -1.364872e-01 -2.575614e-01 -3.295357e-01 -3.293169e-01 -2.324552e-01 -1.507489e-02 3.483948e-01 8.806389e-01 1.599175e+00 2.505266e+00 3.573228e+00 4.749645e+00 5.924932e+00 7.111783e+00 8.001977e+00 -1.278891e+01 -1.990162e+01 4.658706e+00 -5.726688e+00 -2.142217e+01 -1.151386e+01 -5.909203e+00 -3.151600e+00 -2.090564e+00 -1.790359e+00 -1.713165e+00 -1.607934e+00 -1.406429e+00 -1.113884e+00 -7.637257e-01 -3.833683e-01 
8.976828e-03 3.826313e-01 7.490245e-01 1.090805e+00 1.383374e+00 1.595915e+00 1.731510e+00 1.865204e+00 2.271479e+00 3.493674e+00 6.541329e+00 1.272511e+01 2.193281e+01 -4.046249e+00 -1.124251e+00 2.086957e+01 2.389201e-01 -8.960351e+00 -7.334137e+00 -5.902607e+00 -4.645681e+00 -3.491996e+00 -2.490807e+00 -1.663704e+00 -1.015715e+00 -5.351088e-01 -2.003161e-01 1.233390e-02 1.266492e-01 1.634187e-01 1.430017e-01 8.412425e-02 5.882569e-03 -7.240817e-02 -1.320671e-01 -1.535363e-01 -1.182854e-01 -5.994161e-03 2.042835e-01 5.363272e-01 1.013969e+00 1.659858e+00 2.486597e+00 3.493254e+00 4.661539e+00 5.956296e+00 7.471427e+00 9.246550e+00 2.747611e+00 -2.120462e+01 -2.177727e+00 5.442947e+00 -1.966499e+01 -1.171135e+01 -6.106658e+00 -3.231968e+00 -2.085851e+00 -1.728465e+00 -1.632934e+00 -1.526495e+00 -1.335190e+00 -1.057093e+00 -7.244704e-01 -3.630990e-01 
8.748849e-03 3.421745e-01 6.696360e-01 9.752317e-01 1.237446e+00 1.428071e+00 1.555962e+00 1.694116e+00 2.115523e+00 3.314058e+00 6.232867e+00 1.198764e+01 1.637606e+01 -7.670233e+00 5.843498e+00 1.854730e+01 -7.084550e+00 -7.548953e+00 -6.580538e+00 -5.336565e+00 -4.173474e+00 -3.147749e+00 -2.276163e+00 -1.569179e+00 -1.018390e+00 -6.087221e-01 -3.183546e-01 -1.258949e-01 -1.091976e-02 4.391306e-02 5.488290e-02 3.668058e-02 3.892619e-03 -2.886760e-02 -4.743075e-02 -3.679414e-02 1.764576e-02 1.324053e-01 3.251276e-01 6.167297e-01 1.029237e+00 1.586192e+00 2.304672e+00 3.198918e+00 4.267173e+00 5.520787e+00 6.972321e+00 8.551765e+00 1.005070e+01 -1.660550e+01 -9.234527e+00 5.616305e+00 -1.492016e+01 -1.157102e+01 -5.989206e+00 -3.121489e+00 -1.955776e+00 -1.569206e+00 -1.463058e+00 -1.361800e+00 -1.190996e+00 -9.425851e-01 -6.457583e-01 -3.231606e-01 
7.553594e-03 2.801909e-01 5.482813e-01 7.985442e-01 1.013627e+00 1.170158e+00 1.279348e+00 1.405658e+00 1.788028e+00 2.835762e+00 5.304434e+00 9.957000e+00 8.728049e+00 -5.389626e+00 1.012089e+01 1.286314e+01 -8.645699e+00 -6.535762e+00 -5.441560e+00 -4.404652e+00 -3.429301e+00 -2.597133e+00 -1.898240e+00 -1.337085e+00 -9.009214e-01 -5.749941e-01 -3.408226e-01 -1.806816e-01 -7.856199e-02 -2.088988e-02 4.585367e-03 8.826264e-03 2.506674e-03 -3.739404e-03 4.273727e-04 2.603167e-02 8.404738e-02 1.870847e-01 3.491525e-01 5.870124e-01 9.194364e-01 1.366884e+00 1.946975e+00 2.677834e+00 3.564520e+00 4.632502e+00 5.840233e+00 7.232257e+00 9.458053e+00 -1.080563e+01 -1.071524e+01 4.081919e+00 -7.910131e+00 -1.026230e+01 -5.302947e+00 -2.736689e+00 -1.671196e+00 -1.304970e+00 -1.201374e+00 -1.113736e+00 -9.736990e-01 -7.704058e-01 -5.276524e-01 -2.637835e-01 
5.622902e-03 1.990862e-01 3.894976e-01 5.672597e-01 7.202160e-01 8.316564e-01 9.117071e-01 1.009393e+00 1.302839e+00 2.096389e+00 3.939120e+00 7.351500e+00 3.243522e+00 -4.303063e+00 6.367404e+00 5.883725e+00 -6.235010e+00 -4.785113e+00 -3.894650e+00 -3.142182e+00 -2.442920e+00 -1.856132e+00 -1.367143e+00 -9.762628e-01 -6.727050e-01 -4.448420e-01 -2.795316e-01 -1.641581e-01 -8.767451e-02 -4.072793e-02 -1.505651e-02 -3.327132e-03 1.499982e-03 6.409511e-03 1.819945e-02 4.417709e-02 9.172316e-02 1.694562e-01 2.871467e-01 4.565986e-01 6.914595e-01 1.006667e+00 1.416372e+00 1.935364e+00 2.569158e+00 3.337039e+00 4.183786e+00 5.152236e+00 6.245752e+00 -5.192432e+00 -7.116132e+00 3.654049e+00 -2.573201e+00 -7.741462e+00 -4.020095e+00 -2.056408e+00 -1.228551e+00 -9.394447e-01 -8.555982e-01 -7.904982e-01 -6.908143e-01 -5.464491e-01 -3.741794e-01 -1.868867e-01 
2.976448e-03 1.034397e-01 2.023713e-01 2.947536e-01 3.742957e-01 4.323867e-01 4.749469e-01 5.292503e-01 6.922899e-01 1.138900e+00 2.192147e+00 4.159466e+00 1.222833e+00 -1.205276e+00 4.190609e+00 2.479701e+00 -2.958358e+00 -2.471777e+00 -2.018958e+00 -1.632652e+00 -1.270795e+00 -9.681174e-01 -7.164252e-01 -5.155315e-01 -3.595123e-01 -2.420244e-01 -1.563139e-01 -9.578909e-02 -5.483879e-02 -2.866495e-02 -1.311325e-02 -4.493233e-03 7.022348e-04 5.949209e-03 1.463607e-02 3.041219e-02 5.701093e-02 9.879786e-02 1.608359e-01 2.491856e-01 3.711007e-01 5.343367e-01 7.467848e-01 1.016256e+00 1.345849e+00 1.744153e+00 2.175808e+00 2.668634e+00 3.102620e+00 -2.156321e+00 -5.111257e+00 5.578072e-01 -7.066651e-01 -4.207383e+00 -2.218842e+00 -1.120952e+00 -6.555095e-01 -4.932579e-01 -4.455779e-01 -4.106920e-01 -3.587332e-01 -2.837283e-01 -1.942522e-01 -9.698205e-02 
-9.789736e-16 -7.881324e-14 -1.625228e-13 -3.005442e-13 -4.073805e-13 -5.089641e-13 -4.494967e-13 -3.838307e-14 1.483744e-12 5.040158e-12 1.245461e-11 2.377758e-11 1.887160e-11 1.982911e-11 3.505013e-11 1.440207e-11 -1.178424e-11 -1.420837e-11 -1.427234e-11 -1.250083e-11 -9.713932e-12 -7.145311e-12 -5.063742e-12 -3.519685e-12 -2.393864e-12 -1.627095e-12 -1.061819e-12 -6.690285e-13 -4.182278e-13 -2.783630e-13 -1.800568e-13 -1.372056e-13 -1.240477e-13 -1.121889e-13 -9.993157e-14 -7.454793e-14 5.683388e-15 1.953067e-13 4.601074e-13 8.692819e-13 1.471865e-12 2.356251e-12 3.576210e-12 5.160427e-12 7.324005e-12 1.026307e-11 1.388589e-11 1.753974e-11 1.368080e-11 -2.210130e-12 1.021283e-11 7.565278e-12 -5.441391e-11 -5.939485e-11 -1.683496e-11 -3.577112e-12 4.638281e-13 1.344789e-12 1.193935e-12 8.964505e-13 5.484803e-13 3.702737e-13 1.986702e-13 9.031741e-14 
-2.976448e-03 -1.034397e-01 -2.023713e-01 -2.947536e-01 -3.742957e-01 -4.323867e-01 -4.749469e-01 -5.292503e-01 -6.922899e-01 -1.138900e+00 -2.192147e+00 -4.159466e+00 -1.222833e+00 1.205276e+00 -4.190609e+00 -2.479701e+00 2.958358e+00 2.471777e+00 2.018958e+00 1.632652e+00 1.270795e+00 9.681174e-01 7.164252e-01 5.155315e-01 3.595123e-01 2.420244e-01 1.563139e-01 9.578909e-02 5.483879e-02 2.866495e-02 1.311325e-02 4.493233e-03 -7.022348e-04 -5.949209e-03 -1.463607e-02 -3.041219e-02 -5.701093e-02 -9.879786e-02 -1.608359e-01 -2.491856e-01 -3.711007e-01 -5.343367e-01 -7.467848e-01 -1.016256e+00 -1.345849e+00 -1.744153e+00 -2.175808e+00 -2.668634e+00 -3.102620e+00 2.156321e+00 5.111257e+00 -5.578072e-01 7.066651e-01 4.207383e+00 2.218842e+00 1.120952e+00 6.555095e-01 4.932579e-01 4.455779e-01 4.106920e-01 3.587332e-01 2.837283e-01 1.942522e-01 9.698205e-02 