# vtk DataFile Version 2.0
Comment goes here
ASCII

DATASET STRUCTURED_POINTS
FIELD FieldData 1
TIME 1 1 double
1.79000000
DIMENSIONS    64   64   1

ORIGIN    0.000   0.000   0.000
SPACING   0.015625 0.015625   1.000

POINT_DATA   4096
SCALARS Omega double
LOOKUP_TABLE default

6.880248e-14 1.713286e-13 3.021459e-13 4.904977e-13 7.059142e-13 9.665081e-13 1.339229e-12 1.800154e-12 2.351566e-12 3.056939e-12 3.937776e-12 4.978696e-12 6.185454e-12 7.619956e-12 9.195577e-12 1.091146e-11 1.277201e-11 1.468575e-11 1.653101e-11 1.826826e-11 1.979920e-11 2.097437e-11 2.168926e-11 2.188528e-11 2.148530e-11 2.039944e-11 1.862308e-11 1.619191e-11 1.311457e-11 9.451200e-12 5.344598e-12 8.842142e-13 -3.726278e-12 -8.293132e-12 -1.263082e-11 -1.657434e-11 -1.993806e-11 -2.263009e-11 -2.459172e-11 -2.577322e-11 -2.616289e-11 -2.584764e-11 -2.490972e-11 -2.342244e-11 -2.150613e-11 -1.932434e-11 -1.697576e-11 -1.459735e-11 -1.230442e-11 -1.020165e-11 -8.270658e-12 -6.599607e-12 -5.194465e-12 -4.017473e-12 -3.047618e-12 -2.272153e-12 -1.660690e-12 -1.183635e-12 -8.353191e-13 -5.811873e-13 -3.734420e-13 -2.282967e-13 -1.342116e-13 -3.819892e-14 
-6.209052e-04 1.088693e-03 2.585785e-03 3.643718e-03 4.034738e-03 3.537835e-03 1.933526e-03 -9.834535e-04 -5.412278e-03 -1.152214e-02 -1.946577e-02 -2.933859e-02 -4.119880e-02 -5.500823e-02 -7.065902e-02 -8.790483e-02 -1.063936e-01 -1.256113e-01 -1.449201e-01 -1.635446e-01 -1.806121e-01 -1.951984e-01 -2.063631e-01 -2.132317e-01 -2.150219e-01 -2.111020e-01 -2.010271e-01 -1.845439e-01 -1.616934e-01 -1.328196e-01 -9.872843e-02 -6.069022e-02 -2.043627e-02 2.000790e-02 5.860089e-02 9.354224e-02 1.235125e-01 1.477244e-01 1.658821e-01 1.780515e-01 1.845243e-01 1.857458e-01 1.822533e-01 1.746727e-01 1.637038e-01 1.500958e-01 1.346281e-01 1.180625e-01 1.011125e-01 8.441238e-02 6.848845e-02 5.376143e-02 4.052753e-02 2.898498e-02 1.922467e-02 1.126557e-02 5.049430e-03 4.751189e-04 -2.607635e-03 -4.369149e-03 -5.008652e-03 -4.731457e-03 -3.759049e-03 -2.312360e-03 
-1.274606e-03 2.288880e-03 5.427942e-03 7.689612e-03 8.618712e-03 7.772866e-03 4.712491e-03 -9.748323e-04 -9.689975e-03 -2.177579e-02 -3.754337e-02 -5.719150e-02 -8.084612e-02 -1.084424e-01 -1.397772e-01 -1.743707e-01 -2.115306e-01 -2.502381e-01 -2.892216e-01 -3.269288e-01 -3.616038e-01 -3.913806e-01 -4.143513e-01 -4.287350e-01 -4.329269e-01 -4.256179e-01 -4.058566e-01 -3.730569e-01 -3.272042e-01 -2.688947e-01 -1.996977e-01 -1.222083e-01 -4.006243e-02 4.242533e-02 1.208957e-01 1.915467e-01 2.516751e-01 2.997810e-01 3.354345e-01 3.589456e-01 3.710383e-01 3.726889e-01 3.650094e-01 3.492598e-01 3.268352e-01 2.992272e-01 2.679875e-01 2.346341e-01 2.005862e-01 1.671051e-01 1.352332e-01 1.058025e-01 7.939571e-02 5.640041e-02 3.699100e-02 2.119888e-02 8.902806e-03 -1.035268e-04 -6.123323e-03 -9.499335e-03 -1.063121e-02 -9.930354e-03 -7.839949e-03 -4.801823e-03 
-1.981869e-03 3.725292e-03 8.797269e-03 1.255576e-02 1.431888e-02 1.342254e-02 9.205913e-03 1.046078e-03 -1.166465e-02 -2.945138e-02 -5.279535e-02 -8.201493e-02 -1.173245e-01 -1.586568e-01 -2.057423e-01 -2.578957e-01 -3.141144e-01 -3.728942e-01 -4.323462e-01 -4.901354e-01 -5.436061e-01 -5.899078e-01 -6.261047e-01 -6.494312e-01 -6.573674e-01 -6.478230e-01 -6.192184e-01 -5.704655e-01 -5.012901e-01 -4.123186e-01 -3.057588e-01 -1.856301e-01 -5.786089e-02 7.032373e-02 1.915920e-01 2.996775e-01 3.903687e-01 4.616551e-01 5.133584e-01 5.464271e-01 5.623131e-01 5.626958e-01 5.493292e-01 5.241217e-01 4.891596e-01 4.466638e-01 3.989549e-01 3.482960e-01 2.968015e-01 2.463416e-01 1.984535e-01 1.543575e-01 1.148995e-01 8.063599e-02 5.180723e-02 2.844266e-02 1.034699e-02 -2.799628e-03 -1.145919e-02 -1.615091e-02 -1.747727e-02 -1.605705e-02 -1.255543e-02 -7.634740e-03 
-2.784432e-03 5.502505e-03 1.294580e-02 1.864343e-02 2.168851e-02 2.119505e-02 1.628004e-02 6.105411e-03 -1.015005e-02 -3.320688e-02 -6.373367e-02 -1.021947e-01 -1.489250e-01 -2.038971e-01 -2.668223e-01 -3.368624e-01 -4.127553e-01 -4.925566e-01 -5.737860e-01 -6.533331e-01 -7.276102e-01 -7.927180e-01 -8.445787e-01 -8.792945e-01 -8.932526e-01 -8.834006e-01 -8.473176e-01 -7.831647e-01 -6.900700e-01 -5.683226e-01 -4.205374e-01 -2.522938e-01 -7.246183e-02 1.077618e-01 2.769240e-01 4.254613e-01 5.474214e-01 6.406589e-01 7.059600e-01 7.456167e-01 7.623065e-01 7.586597e-01 7.371546e-01 7.003494e-01 6.510114e-01 5.920915e-01 5.266803e-01 4.577905e-01 3.882132e-01 3.204035e-01 2.563523e-01 1.976265e-01 1.452933e-01 1.000404e-01 6.214367e-02 3.160521e-02 8.138217e-03 -8.704713e-03 -1.955291e-02 -2.510838e-02 -2.617959e-02 -2.359448e-02 -1.824023e-02 -1.099908e-02 
-3.687176e-03 7.763823e-03 1.816626e-02 2.639758e-02 3.132888e-02 3.185331e-02 2.686537e-02 1.530702e-02 -3.865089e-03 -3.158388e-02 -6.873019e-02 -1.159517e-01 -1.737545e-01 -2.422145e-01 -3.211032e-01 -4.095122e-01 -5.060120e-01 -6.082872e-01 -7.133279e-01 -8.172494e-01 -9.155001e-01 -1.003014e+00 -1.074381e+00 -1.124302e+00 -1.147750e+00 -1.140421e+00 -1.098792e+00 -1.019966e+00 -9.020314e-01 -7.443386e-01 -5.493650e-01 -3.243319e-01 -8.203880e-02 1.605190e-01 3.857549e-01 5.794174e-01 7.335542e-01 8.466862e-01 9.218318e-01 9.637210e-01 9.769377e-01 9.653329e-01 9.321352e-01 8.805196e-01 8.139409e-01 7.361021e-01 6.509310e-01 5.622183e-01 4.734390e-01 3.875957e-01 3.070712e-01 2.337064e-01 1.687167e-01 1.128558e-01 6.638244e-02 2.923011e-02 9.908763e-04 -1.893109e-02 -3.134585e-02 -3.714631e-02 -3.735106e-02 -3.299862e-02 -2.519754e-02 -1.504804e-02 
-4.736709e-03 1.061083e-02 2.471074e-02 3.622505e-02 4.380823e-02 4.613533e-02 4.188002e-02 2.975949e-02 8.499066e-03 -2.306864e-02 -6.606916e-02 -1.213872e-01 -1.897707e-01 -2.714967e-01 -3.665112e-01 -4.739706e-01 -5.924071e-01 -7.192562e-01 -8.510440e-01 -9.831349e-01 -1.109932e+00 -1.225043e+00 -1.321410e+00 -1.391870e+00 -1.429446e+00 -1.428172e+00 -1.383178e+00 -1.290404e+00 -1.146427e+00 -9.486949e-01 -6.984409e-01 -4.043217e-01 -8.445021e-02 2.356045e-01 5.289214e-01 7.742497e-01 9.612404e-01 1.090658e+00 1.170073e+00 1.208377e+00 1.212852e+00 1.188578e+00 1.139330e+00 1.068717e+00 9.808941e-01 8.804580e-01 7.723467e-01 6.612798e-01 5.514603e-01 4.464147e-01 3.488260e-01 2.606948e-01 1.832695e-01 1.172648e-01 6.284081e-02 1.979684e-02 -1.243976e-02 -3.464519e-02 -4.782837e-02 -5.308477e-02 -5.164754e-02 -4.476727e-02 -3.377182e-02 -1.997638e-02 
-5.916464e-03 1.420549e-02 3.288948e-02 4.859069e-02 5.975573e-02 6.484771e-02 6.232384e-02 5.067328e-02 2.837997e-02 -5.985131e-03 -5.383570e-02 -1.163668e-01 -1.946699e-01 -2.893622e-01 -4.007355e-01 -5.281987e-01 -6.704415e-01 -8.247870e-01 -9.873903e-01 -1.152817e+00 -1.314324e+00 -1.463936e+00 -1.592520e+00 -1.690309e+00 -1.747425e+00 -1.755762e+00 -1.709213e+00 -1.602939e+00 -1.431864e+00 -1.190131e+00 -8.750728e-01 -4.956953e-01 -7.711278e-02 3.419344e-01 7.196917e-01 1.024251e+00 1.242882e+00 1.382057e+00 1.457898e+00 1.485726e+00 1.476112e+00 1.434756e+00 1.365088e+00 1.270724e+00 1.156588e+00 1.028444e+00 8.927266e-01 7.554270e-01 6.216712e-01 4.955146e-01 3.798251e-01 2.765933e-01 1.869217e-01 1.113244e-01 4.973422e-02 1.717636e-03 -3.353100e-02 -5.701364e-02 -6.996561e-02 -7.369927e-02 -6.966807e-02 -5.933435e-02 -4.424139e-02 -2.591317e-02 
-7.271257e-03 1.864368e-02 4.294336e-02 6.388929e-02 7.973392e-02 8.873931e-02 8.915458e-02 7.923999e-02 5.722704e-02 2.139166e-02 -3.002542e-02 -9.862852e-02 -1.859911e-01 -2.932654e-01 -4.213173e-01 -5.700731e-01 -7.386005e-01 -9.242752e-01 -1.122848e+00 -1.327954e+00 -1.531392e+00 -1.723378e+00 -1.892197e+00 -2.024285e+00 -2.105173e+00 -2.123954e+00 -2.074636e+00 -1.954721e+00 -1.758791e+00 -1.474266e+00 -1.087303e+00 -6.035515e-01 -5.777502e-02 4.902217e-01 9.742477e-01 1.344739e+00 1.586631e+00 1.720826e+00 1.781025e+00 1.791904e+00 1.766093e+00 1.706852e+00 1.614945e+00 1.493103e+00 1.347213e+00 1.184943e+00 1.015210e+00 8.461126e-01 6.841304e-01 5.339489e-01 3.984857e-01 2.794808e-01 1.776400e-01 9.304040e-02 2.520576e-02 -2.667478e-02 -6.373601e-02 -8.727273e-02 -9.878420e-02 -9.982115e-02 -9.206354e-02 -7.718525e-02 -5.693753e-02 -3.304435e-02 
-8.756639e-03 2.409434e-02 5.517154e-02 8.256252e-02 1.043461e-01 1.186003e-01 1.233806e-01 1.167201e-01 9.658775e-02 6.092244e-02 7.548389e-03 -6.567735e-02 -1.609892e-01 -2.803274e-01 -4.254300e-01 -5.970550e-01 -7.949012e-01 -1.016436e+00 -1.256776e+00 -1.508032e+00 -1.760041e+00 -2.001093e+00 -2.216930e+00 -2.388591e+00 -2.492976e+00 -2.516169e+00 -2.457113e+00 -2.322534e+00 -2.111729e+00 -1.799839e+00 -1.343581e+00 -7.357424e-01 -2.390304e-02 6.957319e-01 1.313618e+00 1.749764e+00 1.989231e+00 2.088464e+00 2.115235e+00 2.105008e+00 2.068440e+00 1.999532e+00 1.889897e+00 1.740545e+00 1.558832e+00 1.355327e+00 1.143489e+00 9.351369e-01 7.390375e-01 5.607644e-01 4.031352e-01 2.673199e-01 1.532807e-01 6.033989e-02 -1.264034e-02 -6.704038e-02 -1.044600e-01 -1.265747e-01 -1.352021e-01 -1.321571e-01 -1.193550e-01 -9.867755e-02 -7.207306e-02 -4.145057e-02 
-1.040594e-02 3.063243e-02 6.976423e-02 1.049318e-01 1.340689e-01 1.550960e-01 1.658952e-01 1.642800e-01 1.479439e-01 1.144434e-01 6.109549e-02 -1.493376e-02 -1.167608e-01 -2.474157e-01 -4.098546e-01 -6.060312e-01 -8.364591e-01 -1.098585e+00 -1.386039e+00 -1.688128e+00 -1.991359e+00 -2.282959e+00 -2.548263e+00 -2.761011e+00 -2.879052e+00 -2.881568e+00 -2.784073e+00 -2.628834e+00 -2.444559e+00 -2.174377e+00 -1.683437e+00 -9.264951e-01 2.337133e-02 9.954647e-01 1.795986e+00 2.281840e+00 2.437306e+00 2.422809e+00 2.388638e+00 2.366925e+00 2.346525e+00 2.296047e+00 2.185007e+00 2.015522e+00 1.797241e+00 1.545284e+00 1.281421e+00 1.024271e+00 7.864791e-01 5.748941e-01 3.920215e-01 2.380108e-01 1.116451e-01 1.108875e-02 -6.576327e-02 -1.211039e-01 -1.571660e-01 -1.761232e-01 -1.801792e-01 -1.714511e-01 -1.520990e-01 -1.242093e-01 -8.990988e-02 -5.127493e-02 
-1.214282e-02 3.840246e-02 8.694364e-02 1.313166e-01 1.693502e-01 1.988420e-01 2.175308e-01 2.230210e-01 2.127240e-01 1.837589e-01 1.328465e-01 5.629074e-02 -5.012572e-02 -1.908400e-01 -3.703618e-01 -5.921788e-01 -8.577284e-01 -1.163936e+00 -1.501312e+00 -1.853167e+00 -2.199880e+00 -2.530086e+00 -2.838554e+00 -3.092390e+00 -3.196503e+00 -3.117649e+00 -2.919538e+00 -2.720174e+00 -2.650493e+00 -2.599248e+00 -2.177426e+00 -1.244678e+00 7.974713e-02 1.458839e+00 2.527191e+00 3.009390e+00 2.879797e+00 2.591410e+00 2.469603e+00 2.465499e+00 2.521412e+00 2.558029e+00 2.477728e+00 2.309131e+00 2.062339e+00 1.756470e+00 1.429334e+00 1.112210e+00 8.241408e-01 5.736334e-01 3.624031e-01 1.889525e-01 5.034942e-02 -5.682862e-02 -1.359872e-01 -1.903809e-01 -2.230695e-01 -2.368509e-01 -2.344012e-01 -2.181794e-01 -1.906038e-01 -1.539563e-01 -1.105220e-01 -6.251052e-02 
-1.397777e-02 4.742530e-02 1.067714e-01 1.618427e-01 2.104138e-01 2.502082e-01 2.788572e-01 2.937783e-01 2.920910e-01 2.704376e-01 2.248510e-01 1.506453e-01 4.231999e-02 -1.061732e-01 -3.011274e-01 -5.477805e-01 -8.485052e-01 -1.199113e+00 -1.584280e+00 -1.975632e+00 -2.339673e+00 -2.672687e+00 -3.010036e+00 -3.332462e+00 -3.395084e+00 -3.114782e+00 -2.632557e+00 -2.239656e+00 -2.502263e+00 -3.245253e+00 -3.197670e+00 -1.989822e+00 1.205455e-01 2.328253e+00 3.897761e+00 4.255213e+00 3.214487e+00 2.244811e+00 2.117532e+00 2.243538e+00 2.490136e+00 2.754875e+00 2.733989e+00 2.607318e+00 2.353060e+00 1.987376e+00 1.582027e+00 1.191759e+00 8.449527e-01 5.510379e-01 3.096242e-01 1.165363e-01 -3.345031e-02 -1.457049e-01 -2.251735e-01 -2.763704e-01 -3.033439e-01 -3.096457e-01 -2.985071e-01 -2.727802e-01 -2.351510e-01 -1.880889e-01 -1.340033e-01 -7.520201e-02 
-1.580595e-02 5.776498e-02 1.292836e-01 1.965434e-01 2.573294e-01 3.093474e-01 3.501696e-01 3.770487e-01 3.868215e-01 3.756192e-01 3.387640e-01 2.705293e-01 1.641739e-01 1.210351e-02 -1.935467e-01 -4.596686e-01 -7.895932e-01 -1.177972e+00 -1.601390e+00 -2.009842e+00 -2.337578e+00 -2.592010e+00 -2.933924e+00 -3.454550e+00 -3.440172e+00 -2.760241e+00 -1.686689e+00 -5.524222e-01 -1.386985e+00 -4.405812e+00 -5.302452e+00 -3.560584e+00 1.414711e-01 3.922343e+00 6.522340e+00 6.689334e+00 3.026568e+00 5.979903e-01 1.093743e+00 1.497109e+00 2.031131e+00 2.888033e+00 2.858293e+00 2.872759e+00 2.663948e+00 2.227130e+00 1.719740e+00 1.241508e+00 8.309577e-01 4.941736e-01 2.251557e-01 1.540449e-02 -1.431051e-01 -2.576632e-01 -3.347073e-01 -3.799688e-01 -3.985461e-01 -3.948031e-01 -3.725989e-01 -3.352151e-01 -2.856158e-01 -2.264409e-01 -1.601851e-01 -8.920539e-02 
-1.760482e-02 6.933785e-02 1.543003e-01 2.351684e-01 3.098110e-01 3.759881e-01 4.312603e-01 4.727561e-01 4.970393e-01 4.997582e-01 4.755738e-01 4.179157e-01 3.191891e-01 1.710319e-01 -3.495295e-02 -3.062647e-01 -6.474240e-01 -1.054536e+00 -1.498805e+00 -1.898202e+00 -2.108601e+00 -2.125863e+00 -2.425718e+00 -3.650433e+00 -3.577720e+00 -3.129672e+00 -1.149322e+00 6.238598e+00 1.328529e+01 1.388762e+01 1.145572e+01 6.853654e+00 1.016671e+00 -5.037770e+00 -9.646324e+00 -1.200331e+01 -1.146779e+01 -5.752260e+00 7.898499e-01 5.946087e-01 7.764054e-01 3.320919e+00 2.622352e+00 3.100653e+00 3.036570e+00 2.467602e+00 1.802225e+00 1.216419e+00 7.459221e-01 3.784572e-01 9.401657e-02 -1.229288e-01 -2.832102e-01 -3.951309e-01 -4.658416e-01 -5.017938e-01 -5.089152e-01 -4.923302e-01 -4.565266e-01 -4.052446e-01 -3.417201e-01 -2.687479e-01 -1.888568e-01 -1.043951e-01 
-1.925527e-02 8.205362e-02 1.815354e-01 2.772578e-01 3.672590e-01 4.494230e-01 5.213565e-01 5.800951e-01 6.219776e-01 6.422375e-01 6.351265e-01 5.937225e-01 5.107016e-01 3.787737e-01 1.919641e-01 -5.481230e-02 -3.668250e-01 -7.504017e-01 -1.192562e+00 -1.584328e+00 -1.607875e+00 -1.090703e+00 -1.182380e+00 -4.324918e+00 3.128727e-01 1.485230e+01 2.092500e+01 1.573173e+01 8.143341e+00 3.684675e+00 1.633398e+00 9.907509e-01 9.063441e-01 4.054789e-01 -9.926888e-02 -2.866797e+00 -5.479754e+00 -1.215127e+01 -1.826414e+01 -1.597763e+01 -4.164286e+00 2.446512e+00 1.158782e+00 3.487709e+00 3.666324e+00 2.707908e+00 1.748399e+00 1.029773e+00 5.243393e-01 1.625178e-01 -1.070013e-01 -3.100914e-01 -4.588904e-01 -5.598229e-01 -6.186650e-01 -6.411954e-01 -6.335142e-01 -6.011968e-01 -5.492714e-01 -4.819142e-01 -4.026188e-01 -3.143087e-01 -2.194926e-01 -1.204429e-01 
-2.069596e-02 9.567005e-02 2.104492e-01 3.219926e-01 4.285905e-01 5.283287e-01 6.189015e-01 6.973022e-01 7.597002e-01 8.011103e-01 8.158178e-01 7.975732e-01 7.412635e-01 6.442560e-01 5.086807e-01 3.396589e-01 1.352522e-01 -1.375042e-01 -5.481965e-01 -1.045883e+00 -9.522664e-01 -1.277428e-01 2.464334e+00 1.191478e+01 1.902621e+01 1.484257e+01 1.026141e+00 -1.008281e+01 -1.279970e+01 -1.194403e+01 -1.026876e+01 -6.427074e+00 1.999468e-01 6.651400e+00 1.155671e+01 1.326734e+01 1.434425e+01 1.315960e+01 5.088953e+00 -8.286284e+00 -1.751539e+01 -1.389385e+01 -2.092391e+00 4.813938e+00 5.204755e+00 2.939015e+00 1.398141e+00 5.288524e-01 5.998506e-02 -2.161369e-01 -4.106297e-01 -5.613483e-01 -6.760833e-01 -7.530820e-01 -7.924154e-01 -7.966059e-01 -7.705436e-01 -7.196514e-01 -6.492256e-01 -5.638160e-01 -4.671285e-01 -3.621922e-01 -2.514354e-01 -1.369840e-01 
-2.181693e-02 1.098761e-01 2.403194e-01 3.682440e-01 4.922772e-01 6.107654e-01 7.215307e-01 8.215581e-01 9.069629e-01 9.728312e-01 1.014262e+00 1.027161e+00 1.011612e+00 9.747288e-01 9.362217e-01 9.270552e-01 9.681512e-01 9.882456e-01 6.788168e-01 -3.477584e-01 -8.660249e-01 5.772301e+00 1.409850e+01 1.467194e+01 1.827479e+00 -1.322601e+01 -1.785015e+01 -1.124535e+01 -1.045847e-01 5.904227e+00 6.465370e+00 3.568790e+00 2.860503e-01 -2.956793e+00 -5.322031e+00 -4.545428e+00 -1.063397e-01 1.113232e+01 1.836783e+01 1.850584e+01 5.123155e+00 -1.341372e+01 -1.704730e+01 -5.400298e+00 5.603515e+00 2.809914e+00 4.093927e-01 -5.361952e-01 -7.968355e-01 -8.343741e-01 -8.524092e-01 -8.909063e-01 -9.386327e-01 -9.738922e-01 -9.840929e-01 -9.644249e-01 -9.164897e-01 -8.445279e-01 -7.536666e-01 -6.486787e-01 -5.334225e-01 -4.110057e-01 -2.837225e-01 -1.534835e-01 
-2.252315e-02 1.242389e-01 2.701840e-01 4.145177e-01 5.562680e-01 6.940909e-01 8.259468e-01 9.488638e-01 1.059057e+00 1.152176e+00 1.225225e+00 1.278328e+00 1.320248e+00 1.373539e+00 1.486036e+00 1.740000e+00 2.236514e+00 2.940011e+00 3.083134e+00 -8.025802e-01 3.600452e+00 1.127297e+01 5.692747e+00 -8.084902e+00 -1.528703e+01 -6.115878e+00 7.264734e+00 1.394767e+01 1.276349e+01 9.376211e+00 6.498411e+00 3.335728e+00 1.037318e-01 -3.112632e+00 -6.095078e+00 -8.919358e+00 -1.317835e+01 -1.542978e+01 -1.179531e+01 3.338685e+00 1.705736e+01 1.333164e+01 -5.490397e+00 -1.584303e+01 -5.688183e+00 1.057706e-01 -1.803077e+00 -2.509437e+00 -2.210389e+00 -1.756787e+00 -1.455035e+00 -1.305471e+00 -1.246254e+00 -1.218686e+00 -1.188687e+00 -1.139390e+00 -1.066422e+00 -9.715161e-01 -8.589656e-01 -7.335438e-01 -5.991710e-01 -4.590092e-01 -3.151779e-01 -1.693105e-01 
-2.274120e-02 1.382047e-01 2.988617e-01 4.589816e-01 6.180427e-01 7.750249e-01 9.280268e-01 1.074170e+00 1.210027e+00 1.332527e+00 1.442150e+00 1.545787e+00 1.664457e+00 1.839108e+00 2.147858e+00 2.740991e+00 3.910840e+00 6.092324e+00 3.763239e+00 -1.546960e-01 7.692390e+00 3.657736e+00 -6.428348e+00 -4.298394e+00 2.023648e+00 8.296180e+00 8.638831e+00 9.365992e+00 9.066763e+00 7.348579e+00 5.173419e+00 2.638599e+00 -5.734457e-02 -2.759874e+00 -5.319731e+00 -7.703395e+00 -1.001620e+01 -1.120515e+01 -1.133827e+01 -1.230207e+01 -4.845785e+00 8.150169e+00 1.161690e+01 -2.005337e+00 -9.185300e+00 -2.830944e+00 -4.097863e+00 -5.800417e+00 -4.250087e+00 -2.957267e+00 -2.193418e+00 -1.792727e+00 -1.592083e+00 -1.481011e+00 -1.399344e+00 -1.314611e+00 -1.214007e+00 -1.095128e+00 -9.605654e-01 -8.147529e-01 -6.615433e-01 -5.041299e-01 -3.444298e-01 -1.837550e-01 
-2.237334e-02 1.511602e-01 3.250189e-01 4.995499e-01 6.746961e-01 8.497486e-01 1.022910e+00 1.191461e+00 1.352679e+00 1.505758e+00 1.656766e+00 1.822614e+00 2.040149e+00 2.366526e+00 2.882643e+00 3.731552e+00 5.356896e+00 5.605618e+00 -1.311185e+00 6.335502e-01 4.904989e+00 -3.004765e+00 -9.568880e-01 4.444407e+00 4.352741e+00 5.563130e+00 6.320659e+00 6.695940e+00 6.454641e+00 5.434285e+00 3.885784e+00 1.961773e+00 -1.542614e-01 -2.289395e+00 -4.279806e+00 -6.000864e+00 -7.351413e+00 -8.027826e+00 -8.088284e+00 -7.842392e+00 -6.305661e+00 -6.537217e+00 1.565013e-01 4.846249e+00 -3.671371e+00 -2.694080e-01 2.366608e+00 -5.785425e+00 -6.576519e+00 -4.143857e+00 -2.944860e+00 -2.314684e+00 -1.963819e+00 -1.752989e+00 -1.607979e+00 -1.481914e+00 -1.351678e+00 -1.208807e+00 -1.053046e+00 -8.879770e-01 -7.172177e-01 -5.439509e-01 -3.698883e-01 -1.959913e-01 
-2.140842e-02 1.623607e-01 3.471388e-01 5.338815e-01 7.229853e-01 9.139937e-01 1.105163e+00 1.293982e+00 1.478844e+00 1.662404e+00 1.858906e+00 2.099866e+00 2.444838e+00 2.970422e+00 3.722996e+00 4.532349e+00 4.817479e+00 -1.280245e+00 -4.883825e+00 3.464750e+00 3.774278e+00 -1.271662e+00 -4.080047e-01 9.097848e-01 2.687289e+00 3.770383e+00 4.434806e+00 4.729160e+00 4.568489e+00 3.901873e+00 2.807358e+00 1.394863e+00 -1.883976e-01 -1.789350e+00 -3.258623e+00 -4.465722e+00 -5.306140e+00 -5.669768e+00 -5.573334e+00 -5.109802e+00 -4.223188e+00 -3.487410e+00 -2.253301e+00 1.246611e+00 -4.813324e+00 -6.341393e+00 5.510943e+00 2.554244e+00 -5.276066e+00 -4.510467e+00 -3.538591e+00 -2.853959e+00 -2.364383e+00 -2.032763e+00 -1.808509e+00 -1.633709e+00 -1.471966e+00 -1.305954e+00 -1.130874e+00 -9.487841e-01 -7.627939e-01 -5.760218e-01 -3.899708e-01 -2.052422e-01 
-1.981734e-02 1.710630e-01 3.636889e-01 5.596050e-01 7.596156e-01 9.634338e-01 1.169271e+00 1.374822e+00 1.579873e+00 1.791465e+00 2.034226e+00 2.357899e+00 2.856034e+00 3.658215e+00 4.927898e+00 6.759003e+00 1.778192e+00 -8.346859e+00 -7.640580e-01 9.112194e+00 4.019750e+00 -3.182193e-01 -5.231953e-01 6.474486e-01 1.687197e+00 2.475000e+00 3.000577e+00 3.246955e+00 3.164709e+00 2.727686e+00 1.967123e+00 9.602953e-01 -1.828833e-01 -1.338674e+00 -2.383371e+00 -3.208581e+00 -3.732497e+00 -3.901597e+00 -3.717719e+00 -3.208737e+00 -2.369810e+00 -1.236523e+00 6.249777e-01 4.028276e+00 1.522678e+00 -1.147406e+01 -4.352891e+00 9.496658e+00 1.723750e+00 -4.441429e+00 -4.195880e+00 -3.515219e+00 -2.818527e+00 -2.317670e+00 -1.991665e+00 -1.760388e+00 -1.566410e+00 -1.379390e+00 -1.188164e+00 -9.924750e-01 -7.946851e-01 -5.977664e-01 -4.030183e-01 -2.106895e-01 
-1.766283e-02 1.764619e-01 3.730875e-01 5.742930e-01 7.812309e-01 9.936639e-01 1.209647e+00 1.426916e+00 1.646657e+00 1.880352e+00 2.163261e+00 2.561324e+00 3.194665e+00 4.224912e+00 5.942371e+00 7.593601e+00 -8.363557e+00 -8.112774e+00 1.202618e+01 6.901514e+00 -1.849243e+00 -1.623486e+00 -8.542899e-01 3.018698e-02 8.200116e-01 1.455559e+00 1.905569e+00 2.139914e+00 2.126690e+00 1.854858e+00 1.342760e+00 6.452057e-01 -1.564172e-01 -9.660828e-01 -1.686594e+00 -2.233347e+00 -2.544255e+00 -2.583878e+00 -2.341286e+00 -1.817421e+00 -9.954545e-01 1.654708e-01 1.825963e+00 4.109353e+00 5.550668e+00 -4.990282e+00 -1.624152e+01 2.080179e+00 1.136088e+01 -3.079360e+00 -6.314281e+00 -4.465844e+00 -3.312966e+00 -2.582425e+00 -2.140883e+00 -1.851669e+00 -1.627563e+00 -1.423188e+00 -1.219963e+00 -1.015010e+00 -8.097471e-01 -6.069095e-01 -4.075794e-01 -2.116536e-01 
-1.507833e-02 1.777632e-01 3.738482e-01 5.757179e-01 7.848040e-01 1.000844e+00 1.221599e+00 1.444673e+00 1.672159e+00 1.919479e+00 2.230841e+00 2.684079e+00 3.409506e+00 4.498126e+00 6.056032e+00 -3.132159e-01 -1.306832e+01 5.687757e+00 1.687346e+01 -2.112378e+00 -6.364419e+00 -3.296758e+00 -1.796588e+00 -7.717150e-01 1.533055e-02 6.220360e-01 1.056078e+00 1.305629e+00 1.357527e+00 1.211188e+00 8.840338e-01 4.188700e-01 -1.234529e-01 -6.706013e-01 -1.148669e+00 -1.493329e+00 -1.654898e+00 -1.602971e+00 -1.320098e+00 -7.944647e-01 -6.869920e-03 1.072823e+00 2.469663e+00 4.056842e+00 5.066531e+00 4.848829e+00 -1.255248e+01 -1.370131e+01 1.061604e+01 5.608908e+00 -6.709124e+00 -4.801898e+00 -3.597108e+00 -2.747978e+00 -2.228877e+00 -1.895644e+00 -1.648588e+00 -1.432140e+00 -1.221943e+00 -1.012834e+00 -8.052108e-01 -6.014811e-01 -4.024264e-01 -2.076081e-01 
-1.217352e-02 1.742994e-01 3.646850e-01 5.619000e-01 7.676028e-01 9.814807e-01 1.200963e+00 1.423263e+00 1.650657e+00 1.900849e+00 2.224668e+00 2.712293e+00 3.521020e+00 4.754861e+00 7.160179e+00 -1.140990e+01 -6.828201e+00 1.695925e+01 3.804275e+00 -8.047324e+00 -6.159810e+00 -4.079852e+00 -2.575942e+00 -1.480915e+00 -6.554369e-01 -3.503052e-02 4.094184e-01 6.843086e-01 7.924506e-01 7.427003e-01 5.535002e-01 2.596950e-01 -9.198419e-02 -4.466081e-01 -7.476940e-01 -9.457081e-01 -1.000083e+00 -8.832522e-01 -5.732322e-01 -5.120328e-02 7.064884e-01 1.728611e+00 3.035192e+00 4.622218e+00 6.556953e+00 1.014512e+01 3.391854e+00 -2.062330e+01 -6.905944e-01 1.625586e+01 -3.852411e+00 -4.780331e+00 -3.691843e+00 -2.819837e+00 -2.255685e+00 -1.892253e+00 -1.628056e+00 -1.403893e+00 -1.191458e+00 -9.834260e-01 -7.790016e-01 -5.799430e-01 -3.865890e-01 -1.981239e-01 
-9.286315e-03 1.653588e-01 3.444427e-01 5.311615e-01 7.273661e-01 9.328169e-01 1.144723e+00 1.359994e+00 1.580093e+00 1.822749e+00 2.136948e+00 2.616452e+00 3.415992e+00 4.700565e+00 5.178074e+00 -1.584748e+01 3.451578e+00 1.837491e+01 -8.312901e+00 -9.213301e+00 -6.637557e+00 -4.643946e+00 -3.131676e+00 -2.002206e+00 -1.149879e+00 -5.152382e-01 -5.910924e-02 2.375603e-01 3.884758e-01 4.090141e-01 3.191207e-01 1.485398e-01 -6.587017e-02 -2.822198e-01 -4.571112e-01 -5.519203e-01 -5.324117e-01 -3.725815e-01 -4.801926e-02 4.643411e-01 1.192979e+00 2.171126e+00 3.431781e+00 5.015707e+00 6.957001e+00 9.375816e+00 1.309925e+01 -1.524856e+01 -1.310417e+01 1.312520e+01 3.726021e-01 -4.953430e+00 -3.775787e+00 -2.856259e+00 -2.240697e+00 -1.847761e+00 -1.567046e+00 -1.337659e+00 -1.127026e+00 -9.253993e-01 -7.300007e-01 -5.415780e-01 -3.597117e-01 -1.831999e-01 
-6.485971e-03 1.506773e-01 3.125635e-01 4.825267e-01 6.625735e-01 8.527947e-01 1.050566e+00 1.253263e+00 1.461806e+00 1.693338e+00 1.989038e+00 2.425973e+00 3.074029e+00 3.897248e+00 -1.645518e+00 -1.111587e+01 1.278515e+01 1.229341e+01 -1.333638e+01 -9.402774e+00 -6.811166e+00 -4.881568e+00 -3.398426e+00 -2.282076e+00 -1.439726e+00 -8.140251e-01 -3.631723e-01 -5.998874e-02 1.151196e-01 1.815168e-01 1.591726e-01 7.363051e-02 -4.569247e-02 -1.664656e-01 -2.550238e-01 -2.809103e-01 -2.152490e-01 -3.402496e-02 2.880201e-01 7.764305e-01 1.463365e+00 2.386044e+00 3.587154e+00 5.127984e+00 7.080351e+00 9.779857e+00 1.394789e+01 -3.901871e+00 -1.672322e+01 6.718181e+00 8.321161e+00 -5.715011e+00 -3.980577e+00 -2.892724e+00 -2.200023e+00 -1.765417e+00 -1.465546e+00 -1.231986e+00 -1.027285e+00 -8.376513e-01 -6.574759e-01 -4.859236e-01 -3.215506e-01 -1.627483e-01 
-4.205850e-03 1.299191e-01 2.686930e-01 4.154439e-01 5.722697e-01 7.398433e-01 9.163797e-01 1.101095e+00 1.297300e+00 1.526615e+00 1.839321e+00 2.328073e+00 3.103579e+00 4.183225e+00 -8.597676e+00 -5.280634e+00 1.345963e+01 1.222060e+00 -1.192830e+01 -8.736562e+00 -6.400743e+00 -4.662129e+00 -3.313432e+00 -2.286447e+00 -1.509491e+00 -9.314007e-01 -5.133720e-01 -2.261151e-01 -4.835770e-02 4.003389e-02 5.775887e-02 2.630848e-02 -3.102047e-02 -8.951530e-02 -1.233033e-01 -1.085824e-01 -2.143835e-02 1.595731e-01 4.583349e-01 9.005535e-01 1.517884e+00 2.347521e+00 3.429910e+00 4.812000e+00 6.524681e+00 8.613320e+00 1.073598e+01 5.957784e+00 -1.653934e+01 7.578346e-01 1.360385e+01 -6.619846e+00 -4.109347e+00 -2.872821e+00 -2.112980e+00 -1.634849e+00 -1.317784e+00 -1.084304e+00 -8.914984e-01 -7.204692e-01 -5.621483e-01 -4.137924e-01 -2.728454e-01 -1.373539e-01 
-2.348900e-03 1.035687e-01 2.136203e-01 3.308199e-01 4.571926e-01 5.940122e-01 7.407556e-01 8.994752e-01 1.078281e+00 1.309224e+00 1.670482e+00 2.323182e+00 3.613669e+00 6.289196e+00 -1.071700e+01 -9.917905e-01 1.290149e+01 -4.951729e+00 -7.991735e+00 -6.719112e+00 -5.236513e+00 -3.930373e+00 -2.854114e+00 -2.009471e+00 -1.362128e+00 -8.775285e-01 -5.252471e-01 -2.795989e-01 -1.214167e-01 -3.268611e-02 2.335122e-03 6.496642e-04 -2.015661e-02 -4.189540e-02 -4.547420e-02 -1.305995e-02 7.401580e-02 2.335017e-01 4.857683e-01 8.540034e-01 1.365417e+00 2.053459e+00 2.949799e+00 4.089718e+00 5.498489e+00 7.194855e+00 9.372314e+00 1.043857e+01 -1.430212e+01 -4.219995e+00 1.202551e+01 -5.395833e+00 -3.745711e+00 -2.671617e+00 -1.915712e+00 -1.424174e+00 -1.107508e+00 -8.879333e-01 -7.176363e-01 -5.740167e-01 -4.449283e-01 -3.261563e-01 -2.143086e-01 -1.073412e-01 
-1.192088e-03 7.213640e-02 1.485833e-01 2.304878e-01 3.194959e-01 4.170989e-01 5.237302e-01 6.434010e-01 7.868754e-01 9.914650e-01 1.345260e+00 2.038867e+00 3.457899e+00 6.268969e+00 -8.979620e+00 7.691093e-01 1.054491e+01 -6.417280e+00 -5.639811e+00 -4.601805e+00 -3.678978e+00 -2.819605e+00 -2.082757e+00 -1.488424e+00 -1.025428e+00 -6.763764e-01 -4.210141e-01 -2.412924e-01 -1.228368e-01 -5.231428e-02 -1.827510e-02 -8.878060e-03 -1.221633e-02 -1.622325e-02 -8.202953e-03 2.384949e-02 9.282629e-02 2.115540e-01 3.947950e-01 6.603458e-01 1.027640e+00 1.522866e+00 2.166116e+00 2.985122e+00 3.993227e+00 5.197922e+00 6.719269e+00 8.230805e+00 -9.554295e+00 -3.964033e+00 8.405988e+00 -3.274519e+00 -3.137280e+00 -2.194569e+00 -1.523057e+00 -1.087238e+00 -8.162184e-01 -6.374819e-01 -5.065393e-01 -4.010522e-01 -3.089491e-01 -2.256376e-01 -1.478508e-01 -7.379324e-02 
-4.321076e-04 3.708610e-02 7.629302e-02 1.184726e-01 1.645723e-01 2.155946e-01 2.721585e-01 3.374146e-01 4.193643e-01 5.436207e-01 7.703525e-01 1.227626e+00 2.159533e+00 3.690905e+00 -4.881720e+00 7.486890e-01 6.075108e+00 -3.513419e+00 -2.859306e+00 -2.329812e+00 -1.887154e+00 -1.465446e+00 -1.094404e+00 -7.896538e-01 -5.491400e-01 -3.667394e-01 -2.326215e-01 -1.376842e-01 -7.432587e-02 -3.548139e-02 -1.514624e-02 -7.223805e-03 -5.693107e-03 -4.511986e-03 2.681530e-03 2.194905e-02 5.990216e-02 1.232811e-01 2.198813e-01 3.593338e-01 5.518449e-01 8.115361e-01 1.148425e+00 1.576162e+00 2.099867e+00 2.702097e+00 3.383544e+00 3.630431e+00 -5.534671e+00 -2.099914e+00 4.330948e+00 -1.984655e+00 -2.054738e+00 -1.310942e+00 -8.689638e-01 -5.993615e-01 -4.375858e-01 -3.351276e-01 -2.628267e-01 -2.065419e-01 -1.583731e-01 -1.153644e-01 -7.543675e-02 -3.754956e-02 
4.146300e-12 8.133583e-12 1.249168e-11 1.717501e-11 2.195735e-11 2.637185e-11 2.970116e-11 3.093943e-11 2.905367e-11 2.295961e-11 1.243205e-11 -2.855208e-13 -6.668590e-13 3.202754e-11 -3.915219e-10 -1.338763e-10 2.333912e-10 -5.762042e-11 -1.208643e-12 2.079518e-11 2.579086e-11 2.420249e-11 2.068492e-11 1.726851e-11 1.468666e-11 1.257322e-11 1.088471e-11 9.189628e-12 7.457327e-12 5.592408e-12 3.694272e-12 1.835014e-12 1.918972e-13 -1.017746e-12 -1.560694e-12 -1.174128e-12 5.033504e-13 3.670659e-12 8.389818e-12 1.442737e-11 2.114441e-11 2.736608e-11 3.184624e-11 3.422700e-11 3.425837e-11 2.894643e-11 -2.176003e-11 -3.193898e-10 -4.483243e-10 3.162269e-10 2.723355e-10 -5.123323e-10 -3.940214e-10 -9.919810e-11 -2.391231e-11 -6.528804e-12 -6.031133e-12 -8.266545e-12 -9.802001e-12 -9.691991e-12 -8.230400e-12 -5.818395e-12 -2.868657e-12 4.749124e-13 
4.321077e-04 -3.708610e-02 -7.629302e-02 -1.184726e-01 -1.645723e-01 -2.155946e-01 -2.721585e-01 -3.374146e-01 -4.193643e-01 -5.436207e-01 -7.703525e-01 -1.227626e+00 -2.159533e+00 -3.690905e+00 4.881720e+00 -7.486890e-01 -6.075108e+00 3.513419e+00 2.859306e+00 2.329812e+00 1.887154e+00 1.465446e+00 1.094404e+00 7.896538e-01 5.491400e-01 3.667394e-01 2.326215e-01 1.376842e-01 7.432587e-02 3.548139e-02 1.514624e-02 7.223805e-03 5.693107e-03 4.511986e-03 -2.681530e-03 -2.194905e-02 -5.990216e-02 -1.232811e-01 -2.198813e-01 -3.593338e-01 -5.518449e-01 -8.115361e-01 -1.148425e+00 -1.576162e+00 -2.099867e+00 -2.702097e+00 -3.383544e+00 -3.630431e+00 5.534671e+00 2.099914e+00 -4.330948e+00 1.984655e+00 2.054738e+00 1.310942e+00 8.689638e-01 5.993615e-01 4.375858e-01 3.351276e-01 2.628267e-01 2.065419e-01 1.583731e-01 1.153644e-01 7.543675e-02 3.754956e-02 