# vtk DataFile Version 2.0
Comment goes here
ASCII

DATASET STRUCTURED_POINTS
FIELD FieldData 1
TIME 1 1 double
1.01000000
DIMENSIONS    64   64   1

ORIGIN    0.000   0.000   0.000
SPACING   0.015625 0.015625   1.000

POINT_DATA   4096
SCALARS Omega double
LOOKUP_TABLE default

-9.245442e-14 -7.370565e-14 -6.464894e-14 -7.109285e-14 -5.956866e-14 -4.803217e-14 -5.307299e-14 -5.353648e-14 -3.508667e-14 -2.022657e-14 8.823814e-15 8.502577e-14 1.816123e-13 2.987820e-13 4.761359e-13 7.095985e-13 9.843530e-13 1.315509e-12 1.730220e-12 2.197994e-12 2.680269e-12 3.178370e-12 3.677119e-12 4.063951e-12 4.344150e-12 4.471912e-12 4.389469e-12 4.030335e-12 3.440171e-12 2.589291e-12 1.479162e-12 2.035773e-13 -1.160730e-12 -2.530551e-12 -3.766969e-12 -4.712054e-12 -5.350962e-12 -5.632558e-12 -5.575665e-12 -5.282699e-12 -4.792106e-12 -4.202913e-12 -3.566275e-12 -2.968062e-12 -2.419595e-12 -1.907540e-12 -1.481428e-12 -1.151962e-12 -8.769765e-13 -6.586756e-13 -5.072699e-13 -4.031226e-13 -2.977986e-13 -2.256821e-13 -1.791957e-13 -1.283795e-13 -1.000831e-13 -8.770246e-14 -7.112476e-14 -4.976132e-14 -4.726124e-14 -6.257100e-14 -5.635208e-14 -6.808236e-14 
-2.271482e-04 5.604559e-03 1.130361e-02 1.672996e-02 2.173784e-02 2.616574e-02 2.983923e-02 3.255556e-02 3.409004e-02 3.417735e-02 3.252558e-02 2.879687e-02 2.264010e-02 1.367410e-02 1.554010e-03 -1.403896e-02 -3.329025e-02 -5.625034e-02 -8.270582e-02 -1.121608e-01 -1.437406e-01 -1.761571e-01 -2.077076e-01 -2.362491e-01 -2.593068e-01 -2.741509e-01 -2.779766e-01 -2.682947e-01 -2.431770e-01 -2.020796e-01 -1.460190e-01 -7.821349e-02 -3.643126e-03 7.147066e-02 1.407632e-01 1.989513e-01 2.424154e-01 2.697163e-01 2.811569e-01 2.784744e-01 2.642014e-01 2.412017e-01 2.123674e-01 1.803033e-01 1.472670e-01 1.150514e-01 8.498817e-02 5.799168e-02 3.456602e-02 1.492876e-02 -9.724175e-04 -1.333880e-02 -2.249079e-02 -2.879519e-02 -3.263202e-02 -3.437143e-02 -3.434831e-02 -3.286742e-02 -3.019112e-02 -2.655109e-02 -2.214827e-02 -1.715995e-02 -1.174711e-02 -6.056052e-03 
-4.560661e-04 1.121590e-02 2.262058e-02 3.347632e-02 4.349048e-02 5.234004e-02 5.967637e-02 6.509509e-02 6.814671e-02 6.830031e-02 6.496772e-02 5.746710e-02 4.508281e-02 2.703569e-02 2.609524e-03 -2.886384e-02 -6.779520e-02 -1.143284e-01 -1.680831e-01 -2.281122e-01 -2.927012e-01 -3.592964e-01 -4.244838e-01 -4.839314e-01 -5.325779e-01 -5.647574e-01 -5.745390e-01 -5.564750e-01 -5.061787e-01 -4.220593e-01 -3.059285e-01 -1.644176e-01 -8.187013e-03 1.492805e-01 2.941762e-01 4.151243e-01 5.045570e-01 5.597050e-01 5.816001e-01 5.742428e-01 5.431918e-01 4.945622e-01 4.343934e-01 3.680485e-01 3.001038e-01 2.341578e-01 1.728473e-01 1.179604e-01 7.045710e-02 3.072254e-02 -1.391408e-03 -2.632905e-02 -4.476190e-02 -5.745130e-02 -6.517462e-02 -6.868651e-02 -6.866364e-02 -6.572040e-02 -6.038242e-02 -5.311334e-02 -4.431424e-02 -3.433940e-02 -2.351092e-02 -1.212235e-02 
-6.885960e-04 1.684609e-02 3.397540e-02 5.027263e-02 6.529694e-02 7.856258e-02 8.954767e-02 9.764623e-02 1.021835e-01 1.023590e-01 9.727930e-02 8.590193e-02 6.712142e-02 3.972284e-02 2.572169e-03 -4.541139e-02 -1.049301e-01 -1.763041e-01 -2.590599e-01 -3.518782e-01 -4.522597e-01 -5.564126e-01 -6.592015e-01 -7.540058e-01 -8.329995e-01 -8.871980e-01 -9.069594e-01 -8.830031e-01 -8.074215e-01 -6.766281e-01 -4.927151e-01 -2.661171e-01 -1.450842e-02 2.393421e-01 4.720467e-01 6.646076e-01 8.048406e-01 8.889200e-01 9.194109e-01 9.036001e-01 8.510184e-01 7.717502e-01 6.754859e-01 5.706172e-01 4.641628e-01 3.615449e-01 2.666565e-01 1.820931e-01 1.091790e-01 4.838660e-02 -6.123456e-04 -3.857467e-02 -6.658469e-02 -8.584760e-02 -9.757529e-02 -1.029347e-01 -1.029613e-01 -9.858985e-02 -9.061393e-02 -7.973039e-02 -6.654079e-02 -5.157576e-02 -3.531964e-02 -1.821474e-02 
-9.264649e-04 2.251893e-02 4.541588e-02 6.718869e-02 8.724499e-02 1.049350e-01 1.195617e-01 1.303162e-01 1.362919e-01 1.364102e-01 1.294509e-01 1.139857e-01 8.847428e-02 5.121798e-02 5.947292e-04 -6.495800e-02 -1.465205e-01 -2.446679e-01 -3.589128e-01 -4.876253e-01 -6.275533e-01 -7.736734e-01 -9.190784e-01 -1.054773e+00 -1.169987e+00 -1.252078e+00 -1.287075e+00 -1.260748e+00 -1.160222e+00 -9.783045e-01 -7.165025e-01 -3.893564e-01 -2.345063e-02 3.461931e-01 6.835112e-01 9.596224e-01 1.156961e+00 1.271131e+00 1.307547e+00 1.278236e+00 1.197937e+00 1.081615e+00 9.431579e-01 7.943076e-01 6.446335e-01 5.014043e-01 3.697211e-01 2.529163e-01 1.526001e-01 6.924013e-02 2.250088e-03 -4.952748e-02 -8.765595e-02 -1.138547e-01 -1.298180e-01 -1.371707e-01 -1.373343e-01 -1.315861e-01 -1.209982e-01 -1.065080e-01 -8.891975e-02 -6.894251e-02 -4.722472e-02 -2.436039e-02 
-1.171597e-03 2.827680e-02 5.702833e-02 8.435248e-02 1.095022e-01 1.316585e-01 1.499451e-01 1.633414e-01 1.706959e-01 1.706295e-01 1.615643e-01 1.416429e-01 1.088387e-01 6.090762e-02 -4.319899e-03 -8.895587e-02 -1.945053e-01 -3.218523e-01 -4.705073e-01 -6.385365e-01 -8.218940e-01 -1.014257e+00 -1.206892e+00 -1.388355e+00 -1.544972e+00 -1.660342e+00 -1.715854e+00 -1.691301e+00 -1.567045e+00 -1.330301e+00 -9.805050e-01 -5.364962e-01 -3.582118e-02 4.707758e-01 9.308279e-01 1.303100e+00 1.563818e+00 1.708908e+00 1.748236e+00 1.700233e+00 1.586132e+00 1.426557e+00 1.240097e+00 1.042016e+00 8.444962e-01 6.566374e-01 4.847018e-01 3.327393e-01 2.025980e-01 9.471545e-02 8.197050e-03 -5.856160e-02 -1.076595e-01 -1.413889e-01 -1.619816e-01 -1.715730e-01 -1.720126e-01 -1.649536e-01 -1.517704e-01 -1.336552e-01 -1.116256e-01 -8.657353e-02 -5.931718e-02 -3.060593e-02 
-1.426114e-03 3.419112e-02 6.895673e-02 1.019797e-01 1.323514e-01 1.590758e-01 1.810839e-01 1.971269e-01 2.057783e-01 2.053260e-01 1.937815e-01 1.688140e-01 1.278494e-01 6.806631e-02 -1.328954e-02 -1.188645e-01 -2.505703e-01 -4.095205e-01 -5.951339e-01 -8.050230e-01 -1.034171e+00 -1.274755e+00 -1.516059e+00 -1.744230e+00 -1.943042e+00 -2.093072e+00 -2.171793e+00 -2.152851e+00 -2.008387e+00 -1.717230e+00 -1.274630e+00 -7.029506e-01 -5.241229e-02 6.071028e-01 1.203120e+00 1.679694e+00 2.006767e+00 2.181959e+00 2.221592e+00 2.151875e+00 2.001075e+00 1.795652e+00 1.558821e+00 1.309266e+00 1.061657e+00 8.268598e-01 6.123145e-01 4.228391e-01 2.606213e-01 1.261406e-01 1.828223e-02 -6.497480e-02 -1.262353e-01 -1.683881e-01 -1.942268e-01 -2.064516e-01 -2.073844e-01 -1.991047e-01 -1.833252e-01 -1.615230e-01 -1.349486e-01 -1.046906e-01 -7.174625e-02 -3.702711e-02 
-1.692137e-03 4.037004e-02 8.141938e-02 1.203958e-01 1.562210e-01 1.877043e-01 2.135636e-01 2.322866e-01 2.421303e-01 2.409956e-01 2.264311e-01 1.955866e-01 1.453233e-01 7.226385e-02 -2.684308e-02 -1.550399e-01 -3.144264e-01 -5.061084e-01 -7.291130e-01 -9.802947e-01 -1.253321e+00 -1.538491e+00 -1.822934e+00 -2.090508e+00 -2.323662e+00 -2.502082e+00 -2.602238e+00 -2.592981e+00 -2.436638e+00 -2.100497e+00 -1.572014e+00 -8.754564e-01 -7.428879e-02 7.399680e-01 1.471960e+00 2.049941e+00 2.438286e+00 2.638826e+00 2.676559e+00 2.586231e+00 2.402401e+00 2.155956e+00 1.873863e+00 1.577365e+00 1.283206e+00 1.003796e+00 7.477629e-01 5.208665e-01 3.258583e-01 1.635438e-01 3.284556e-02 -6.843893e-02 -1.432491e-01 -1.949647e-01 -2.268967e-01 -2.423163e-01 -2.440551e-01 -2.346694e-01 -2.162637e-01 -1.906432e-01 -1.593289e-01 -1.236284e-01 -8.473671e-02 -4.373712e-02 
-1.972924e-03 4.697219e-02 9.473499e-02 1.400770e-01 1.817338e-01 2.182958e-01 2.482286e-01 2.697089e-01 2.806128e-01 2.784011e-01 2.601075e-01 2.223745e-01 1.615549e-01 7.390698e-02 -4.405580e-02 -1.953535e-01 -3.818490e-01 -6.041407e-01 -8.604715e-01 -1.146504e+00 -1.454228e+00 -1.771541e+00 -2.083077e+00 -2.370429e+00 -2.616400e+00 -2.803863e+00 -2.914301e+00 -2.917014e+00 -2.764574e+00 -2.407982e+00 -1.822224e+00 -1.028794e+00 -1.027341e-01 8.416562e-01 1.685023e+00 2.340663e+00 2.771014e+00 2.986242e+00 3.022762e+00 2.921991e+00 2.720083e+00 2.449141e+00 2.138105e+00 1.809421e+00 1.481348e+00 1.167373e+00 8.773382e-01 6.180453e-01 3.931496e-01 2.041621e-01 5.055342e-02 -6.960129e-02 -1.591302e-01 -2.215992e-01 -2.606203e-01 -2.799480e-01 -2.829010e-01 -2.725495e-01 -2.514448e-01 -2.217810e-01 -1.854017e-01 -1.438730e-01 -9.861568e-02 -5.090138e-02 
-2.270162e-03 5.420946e-02 1.093274e-01 1.616513e-01 2.097103e-01 2.518340e-01 2.861861e-01 3.105618e-01 3.223936e-01 3.186533e-01 2.958752e-01 2.503046e-01 1.780529e-01 7.545108e-02 -6.059228e-02 -2.323496e-01 -4.406949e-01 -6.851440e-01 -9.627969e-01 -1.267942e+00 -1.590755e+00 -1.916140e+00 -2.225598e+00 -2.497673e+00 -2.717865e+00 -2.879586e+00 -2.982061e+00 -3.004560e+00 -2.886547e+00 -2.556700e+00 -1.969715e+00 -1.136786e+00 -1.403278e-01 8.809396e-01 1.781842e+00 2.464475e+00 2.895694e+00 3.102279e+00 3.137253e+00 3.045027e+00 2.853287e+00 2.588272e+00 2.278063e+00 1.944459e+00 1.606809e+00 1.279142e+00 9.723305e-01 6.940550e-01 4.489270e-01 2.394926e-01 6.635022e-02 -7.138539e-02 -1.756688e-01 -2.495820e-01 -2.965533e-01 -3.205126e-01 -3.251258e-01 -3.139418e-01 -2.899991e-01 -2.559401e-01 -2.140027e-01 -1.660638e-01 -1.138139e-01 -5.873639e-02 
-2.588014e-03 6.235739e-02 1.257477e-01 1.859379e-01 2.412170e-01 2.896022e-01 3.288849e-01 3.564078e-01 3.691021e-01 3.634709e-01 3.356750e-01 2.819140e-01 1.986246e-01 8.310543e-02 -6.630994e-02 -2.500022e-01 -4.670846e-01 -7.156509e-01 -9.921440e-01 -1.290227e+00 -1.599161e+00 -1.900555e+00 -2.171508e+00 -2.384265e+00 -2.528462e+00 -2.616419e+00 -2.678978e+00 -2.728013e+00 -2.685317e+00 -2.449412e+00 -1.951930e+00 -1.172918e+00 -1.898145e-01 8.254067e-01 1.694275e+00 2.318681e+00 2.686172e+00 2.854109e+00 2.900328e+00 2.855549e+00 2.712079e+00 2.489118e+00 2.214952e+00 1.909263e+00 1.593725e+00 1.282308e+00 9.863233e-01 7.131160e-01 4.672991e-01 2.518986e-01 6.889039e-02 -8.081868e-02 -1.971931e-01 -2.817495e-01 -3.368007e-01 -3.658102e-01 -3.724027e-01 -3.604331e-01 -3.333944e-01 -2.944189e-01 -2.462127e-01 -1.910318e-01 -1.308930e-01 -6.752633e-02 
-2.924060e-03 7.174390e-02 1.446454e-01 2.138945e-01 2.775003e-01 3.330973e-01 3.780348e-01 4.091337e-01 4.228346e-01 4.153033e-01 3.827146e-01 3.219147e-01 2.307761e-01 1.089745e-01 -4.215379e-02 -2.198965e-01 -4.212538e-01 -6.439912e-01 -8.863741e-01 -1.144498e+00 -1.409515e+00 -1.660038e+00 -1.864907e+00 -1.980091e+00 -1.993167e+00 -1.953806e+00 -1.945280e+00 -2.053327e+00 -2.127043e+00 -2.048012e+00 -1.751902e+00 -1.140529e+00 -2.543423e-01 6.701821e-01 1.393980e+00 1.855051e+00 2.084132e+00 2.178519e+00 2.258488e+00 2.321085e+00 2.262747e+00 2.112827e+00 1.899260e+00 1.643028e+00 1.374120e+00 1.108178e+00 8.559660e-01 6.215982e-01 4.063134e-01 2.109024e-01 3.741133e-02 -1.112898e-01 -2.320807e-01 -3.233637e-01 -3.848883e-01 -4.184665e-01 -4.269196e-01 -4.139595e-01 -3.833669e-01 -3.387304e-01 -2.832861e-01 -2.197379e-01 -1.505010e-01 -7.759548e-02 
-3.279279e-03 8.274349e-02 1.667651e-01 2.466258e-01 3.200016e-01 3.840721e-01 4.356757e-01 4.710962e-01 4.864020e-01 4.778021e-01 4.422399e-01 3.784914e-01 2.876037e-01 1.737306e-01 4.292919e-02 -9.831301e-02 -2.466747e-01 -4.040292e-01 -5.774366e-01 -7.724740e-01 -9.883596e-01 -1.202997e+00 -1.366716e+00 -1.389754e+00 -1.241265e+00 -1.055627e+00 -9.260328e-01 -1.172320e+00 -1.334366e+00 -1.349573e+00 -1.370991e+00 -1.068971e+00 -3.278734e-01 4.476126e-01 8.722472e-01 1.076735e+00 1.159041e+00 1.194635e+00 1.393835e+00 1.685555e+00 1.681122e+00 1.585383e+00 1.409596e+00 1.169938e+00 9.267593e-01 7.057149e-01 5.158940e-01 3.531627e-01 2.076931e-01 7.047112e-02 -6.140305e-02 -1.853116e-01 -2.947548e-01 -3.834513e-01 -4.465505e-01 -4.823807e-01 -4.916014e-01 -4.769197e-01 -4.419695e-01 -3.906290e-01 -3.266650e-01 -2.532877e-01 -1.733843e-01 -8.932021e-02 
-3.637120e-03 9.574447e-02 1.928630e-01 2.852444e-01 3.701763e-01 4.443090e-01 5.039432e-01 5.448957e-01 5.632065e-01 5.558573e-01 5.219276e-01 4.641075e-01 3.892069e-01 3.082845e-01 2.333806e-01 1.728596e-01 1.237582e-01 6.824169e-02 -2.398805e-02 -1.809720e-01 -4.215037e-01 -7.343858e-01 -1.024123e+00 -1.079515e+00 -7.334542e-01 -4.448388e-01 -9.301930e-02 -9.642017e-01 -9.387960e-01 -5.207289e-01 -9.443509e-01 -1.107909e+00 -3.804285e-01 3.330355e-01 2.099283e-01 2.384814e-01 4.786668e-01 5.356433e-01 8.668786e-01 1.643537e+00 1.464366e+00 1.378072e+00 1.119653e+00 7.308272e-01 3.722577e-01 1.054897e-01 -6.269280e-02 -1.511323e-01 -1.949179e-01 -2.290558e-01 -2.744066e-01 -3.362010e-01 -4.072268e-01 -4.758050e-01 -5.302710e-01 -5.628825e-01 -5.700518e-01 -5.519862e-01 -5.113435e-01 -4.518760e-01 -3.777730e-01 -2.927602e-01 -2.002654e-01 -1.030554e-01 
-3.983737e-03 1.111118e-01 2.236544e-01 3.308121e-01 4.294287e-01 5.155735e-01 5.850486e-01 6.334441e-01 6.574324e-01 6.560531e-01 6.326398e-01 5.967218e-01 5.640368e-01 5.547748e-01 5.855186e-01 6.587807e-01 7.479455e-01 7.943418e-01 7.187853e-01 4.543077e-01 -5.532793e-02 -8.608613e-01 -1.758851e+00 -2.172261e+00 -1.339611e+00 -1.219173e+00 2.017359e-01 -2.153870e+00 -1.837116e+00 1.567246e+00 2.429644e+00 1.465462e+00 1.626129e-02 -1.556129e+00 -3.086689e+00 -2.553785e+00 -1.496161e-02 1.145843e+00 1.909624e+00 3.768721e+00 2.410042e+00 2.515930e+00 1.972376e+00 9.943688e-01 1.335179e-01 -4.606947e-01 -7.938452e-01 -8.980192e-01 -8.537665e-01 -7.522773e-01 -6.598954e-01 -6.088018e-01 -6.003907e-01 -6.201428e-01 -6.480021e-01 -6.671215e-01 -6.666924e-01 -6.421236e-01 -5.936710e-01 -5.241812e-01 -4.379588e-01 -3.391714e-01 -2.318231e-01 -1.191368e-01 
-4.270903e-03 1.291344e-01 2.596703e-01 3.841061e-01 4.987945e-01 5.992155e-01 6.808274e-01 7.394773e-01 7.736032e-01 7.862835e-01 7.882077e-01 7.994828e-01 8.481244e-01 9.635182e-01 1.159313e+00 1.411910e+00 1.634689e+00 1.681323e+00 1.387394e+00 6.497351e-01 -6.252291e-01 -2.762401e+00 -5.314819e+00 -7.143056e+00 -3.256130e+00 5.706000e+00 1.400965e+01 1.273066e+01 9.430168e+00 6.384319e+00 3.536861e+00 2.134233e+00 3.452116e-01 -1.252681e+00 -3.075036e+00 -5.933381e+00 -9.637491e+00 -1.412968e+01 -1.507915e+01 -5.821253e+00 3.895144e+00 7.796624e+00 5.792990e+00 3.218155e+00 1.101729e+00 -4.031921e-01 -1.359835e+00 -1.767239e+00 -1.764595e+00 -1.547146e+00 -1.278243e+00 -1.056078e+00 -9.132469e-01 -8.420239e-01 -8.151379e-01 -8.038376e-01 -7.863862e-01 -7.501204e-01 -6.906989e-01 -6.087572e-01 -5.081174e-01 -3.931702e-01 -2.684767e-01 -1.377515e-01 
-4.450818e-03 1.499480e-01 3.011448e-01 4.454714e-01 5.787684e-01 6.959799e-01 7.925485e-01 8.653955e-01 9.164582e-01 9.557095e-01 1.005265e+00 1.100124e+00 1.282529e+00 1.586030e+00 2.001116e+00 2.435982e+00 2.675722e+00 2.407441e+00 1.347704e+00 -5.347817e-01 -3.149306e+00 -7.656157e+00 -5.988292e+00 6.879709e+00 1.421962e+01 8.485086e+00 -1.211850e+00 -6.628566e+00 -8.217521e+00 -7.766965e+00 -5.456854e+00 -2.721175e+00 -1.696560e-01 2.616619e+00 5.211570e+00 7.414428e+00 8.095109e+00 6.690454e+00 -8.128558e-01 -1.055120e+01 -1.526946e+01 -8.779726e+00 4.440066e+00 7.766031e+00 4.643876e+00 1.391605e+00 -1.060538e+00 -2.403848e+00 -2.800863e+00 -2.608559e+00 -2.173633e+00 -1.731095e+00 -1.389756e+00 -1.171842e+00 -1.050145e+00 -9.831599e-01 -9.342234e-01 -8.783686e-01 -8.035266e-01 -7.061413e-01 -5.885495e-01 -4.549456e-01 -3.103352e-01 -1.589339e-01 
-4.427987e-03 1.734784e-01 3.478452e-01 5.145468e-01 6.689123e-01 8.055105e-01 9.202996e-01 1.012528e+00 1.090063e+00 1.173566e+00 1.301475e+00 1.527632e+00 1.906797e+00 2.461331e+00 3.117377e+00 3.639075e+00 3.570693e+00 2.310109e+00 -5.736156e-01 -4.410135e+00 -6.067498e+00 9.490837e-01 1.013269e+01 9.089011e+00 -4.585617e+00 -1.638974e+01 -1.867849e+01 -1.607242e+01 -1.224757e+01 -7.442309e+00 -3.844019e+00 -2.048561e+00 -3.792377e-01 1.271602e+00 2.707304e+00 6.145469e+00 1.057608e+01 1.535025e+01 1.742309e+01 1.468715e+01 3.470998e+00 -9.655555e+00 -1.188614e+01 -3.815791e+00 6.550168e+00 6.039365e+00 1.289582e+00 -2.125860e+00 -3.645046e+00 -3.832150e+00 -3.345838e+00 -2.671589e+00 -2.071311e+00 -1.641263e+00 -1.372761e+00 -1.215443e+00 -1.114599e+00 -1.028057e+00 -9.318965e-01 -8.155872e-01 -6.784662e-01 -5.238411e-01 -3.569276e-01 -1.824037e-01 
-4.108325e-03 1.993374e-01 3.989267e-01 5.900627e-01 7.676212e-01 9.260570e-01 1.062656e+00 1.180699e+00 1.297180e+00 1.448043e+00 1.693212e+00 2.107443e+00 2.748963e+00 3.597335e+00 4.443982e+00 4.792178e+00 3.792634e+00 3.939689e-01 -4.566706e+00 -5.563263e+00 9.379340e-01 7.286117e+00 -1.051835e+00 -1.536111e+01 -1.987811e+01 -1.078053e+01 4.595121e+00 1.214599e+01 1.241179e+01 9.326034e+00 4.805725e+00 1.796823e+00 -6.233720e-02 -1.860842e+00 -4.903861e+00 -8.659635e+00 -1.239019e+01 -1.314610e+01 -4.925148e+00 1.041300e+01 1.860812e+01 1.484156e+01 2.143027e+00 -8.129940e+00 -3.819475e+00 4.359023e+00 5.176597e+00 6.699537e-02 -3.772675e+00 -4.981515e+00 -4.719368e+00 -3.878792e+00 -2.984760e+00 -2.277261e+00 -1.801150e+00 -1.509875e+00 -1.330469e+00 -1.198712e+00 -1.073884e+00 -9.348450e-01 -7.758326e-01 -5.982573e-01 -4.071541e-01 -2.075705e-01 
-3.365546e-03 2.267912e-01 4.528178e-01 6.696676e-01 8.718539e-01 1.054141e+00 1.216187e+00 1.367508e+00 1.537987e+00 1.783905e+00 2.191015e+00 2.853234e+00 3.812138e+00 4.953385e+00 5.834261e+00 5.557247e+00 2.758502e+00 -2.888270e+00 -6.068914e+00 -1.063893e+00 1.691002e+00 -6.898053e+00 -1.494244e+01 -7.841796e+00 5.849968e+00 1.244829e+01 1.392414e+01 1.228841e+01 9.423778e+00 7.039301e+00 4.300808e+00 1.977474e+00 7.840613e-02 -1.785440e+00 -4.029343e+00 -6.507882e+00 -8.893879e+00 -1.130462e+01 -1.162796e+01 -1.079129e+01 -6.578874e+00 5.424698e+00 1.420352e+01 8.500998e+00 -1.113351e+00 -7.244664e-01 5.335492e+00 3.852948e+00 -2.635702e+00 -5.718445e+00 -6.122111e+00 -5.292234e+00 -4.125150e+00 -3.092354e+00 -2.346638e+00 -1.871667e+00 -1.581744e+00 -1.387213e+00 -1.225230e+00 -1.059676e+00 -8.770059e-01 -6.753804e-01 -4.591000e-01 -2.334207e-01 
-2.089604e-03 2.546778e-01 5.071230e-01 7.497831e-01 9.769812e-01 1.184317e+00 1.375139e+00 1.567670e+00 1.808732e+00 2.179513e+00 2.793645e+00 3.756224e+00 5.059368e+00 6.428286e+00 7.085699e+00 5.616931e+00 1.451043e-01 -7.004530e+00 -6.499933e+00 -2.736680e+00 -6.220444e+00 -7.438599e+00 5.991448e-01 7.484461e+00 8.286774e+00 8.228420e+00 8.672022e+00 8.041385e+00 6.641302e+00 5.080555e+00 3.351389e+00 1.685104e+00 1.319451e-01 -1.398773e+00 -3.004311e+00 -4.616128e+00 -6.100434e+00 -7.297259e+00 -7.688293e+00 -7.615803e+00 -7.653890e+00 -7.435857e+00 -2.374861e+00 5.769267e+00 7.709861e+00 3.426969e+00 5.810890e+00 8.589649e+00 8.594548e-01 -5.753570e+00 -7.293220e+00 -6.774439e+00 -5.440787e+00 -4.074342e+00 -3.007937e+00 -2.299095e+00 -1.863969e+00 -1.587240e+00 -1.379128e+00 -1.183775e+00 -9.767060e-01 -7.511774e-01 -5.100454e-01 -2.585490e-01 
-2.111172e-04 2.814292e-01 5.586690e-01 8.257110e-01 1.076902e+00 1.309351e+00 1.531480e+00 1.772742e+00 2.100361e+00 2.623214e+00 3.480332e+00 4.772241e+00 6.393557e+00 7.841830e+00 7.960862e+00 4.793755e+00 -7.447649e+00 -1.366187e+01 -5.981638e+00 -2.531663e+00 -1.512518e+00 2.229027e+00 4.399282e+00 5.029450e+00 5.194463e+00 5.303597e+00 5.454177e+00 5.200836e+00 4.517311e+00 3.582845e+00 2.476660e+00 1.308318e+00 1.381318e-01 -1.018590e+00 -2.152776e+00 -3.203691e+00 -4.092998e+00 -4.721732e+00 -4.965567e+00 -4.974255e+00 -4.968503e+00 -4.945552e+00 -4.557703e+00 -3.780550e+00 -3.623940e-01 2.515115e+00 4.701098e+00 1.298564e+01 1.000177e+01 -3.111049e+00 -7.820611e+00 -8.101016e+00 -6.822673e+00 -5.174672e+00 -3.762275e+00 -2.778555e+00 -2.166094e+00 -1.788537e+00 -1.526192e+00 -1.298955e+00 -1.068234e+00 -8.205689e-01 -5.565832e-01 -2.812232e-01 
2.289135e-03 3.050894e-01 6.035663e-01 8.916951e-01 1.164145e+00 1.420218e+00 1.674767e+00 1.970420e+00 2.396805e+00 3.089591e+00 4.204294e+00 5.811601e+00 7.644181e+00 8.862256e+00 7.835298e+00 -5.118570e+00 -1.994170e+01 -9.680213e+00 3.465293e+00 3.960504e+00 3.689819e+00 2.905392e+00 2.588985e+00 2.749270e+00 2.989324e+00 3.223629e+00 3.393289e+00 3.337864e+00 3.013165e+00 2.468590e+00 1.761164e+00 9.597278e-01 1.215220e-01 -7.098169e-01 -1.494671e+00 -2.179475e+00 -2.710415e+00 -3.034867e+00 -3.127927e+00 -3.053237e+00 -2.906339e+00 -2.739085e+00 -2.629007e+00 -2.889822e+00 -3.784007e+00 -3.322425e+00 -3.820558e+00 6.808832e+00 2.054249e+01 7.644096e+00 -7.742825e+00 -9.085109e+00 -8.141330e+00 -6.308993e+00 -4.560892e+00 -3.281052e+00 -2.468732e+00 -1.976354e+00 -1.654373e+00 -1.395282e+00 -1.143629e+00 -8.775581e-01 -5.947090e-01 -2.994316e-01 
5.277482e-03 3.234045e-01 6.374701e-01 9.413777e-01 1.230463e+00 1.506918e+00 1.793020e+00 2.145556e+00 2.675945e+00 3.540557e+00 4.896843e+00 6.758449e+00 8.645747e+00 9.402958e+00 3.247977e+00 -2.174669e+01 -1.619293e+01 8.253739e+00 6.047044e+00 2.769011e+00 1.659634e+00 9.216573e-01 8.370484e-01 1.090864e+00 1.447282e+00 1.784285e+00 2.027816e+00 2.098579e+00 1.971389e+00 1.664919e+00 1.218468e+00 6.798424e-01 9.780995e-02 -4.815058e-01 -1.014935e+00 -1.456909e+00 -1.767386e+00 -1.914329e+00 -1.886566e+00 -1.709683e+00 -1.437186e+00 -1.124163e+00 -8.733080e-01 -8.532885e-01 -1.199446e+00 -2.076929e+00 -5.448993e+00 -9.681769e+00 1.328794e+01 2.345086e+01 -9.394130e-01 -1.013594e+01 -9.250323e+00 -7.340529e+00 -5.318175e+00 -3.757293e+00 -2.743266e+00 -2.132244e+00 -1.750530e+00 -1.462568e+00 -1.194875e+00 -9.161117e-01 -6.203893e-01 -3.112075e-01 
8.536686e-03 3.340085e-01 6.558849e-01 9.681842e-01 1.267315e+00 1.558874e+00 1.873116e+00 2.280484e+00 2.910850e+00 3.929492e+00 5.474913e+00 7.481505e+00 9.300913e+00 1.038391e+01 -1.258046e+01 -2.626222e+01 5.032974e+00 1.208810e+01 -1.476742e+00 -1.475285e+00 -1.117717e+00 -9.347552e-01 -5.668370e-01 -8.790073e-02 4.007342e-01 8.186025e-01 1.119623e+00 1.268415e+00 1.257206e+00 1.099590e+00 8.247927e-01 4.696883e-01 7.442867e-02 -3.205325e-01 -6.763541e-01 -9.552770e-01 -1.124786e+00 -1.160100e+00 -1.050177e+00 -8.008201e-01 -4.362010e-01 9.933866e-03 4.657400e-01 8.387917e-01 1.028567e+00 1.102551e+00 9.767148e-01 -1.066773e+01 -8.885911e+00 2.442292e+01 1.789346e+01 -8.827339e+00 -9.463161e+00 -8.037207e+00 -5.924245e+00 -4.144654e+00 -2.953233e+00 -2.234540e+00 -1.800516e+00 -1.490501e+00 -1.214082e+00 -9.302989e-01 -6.296787e-01 -3.146468e-01 
1.166304e-02 3.345877e-01 6.545719e-01 9.659602e-01 1.266634e+00 1.565913e+00 1.901947e+00 2.357503e+00 3.075505e+00 4.215139e+00 5.864672e+00 7.744401e+00 8.846325e+00 4.900136e+00 -2.799486e+01 -1.086328e+01 1.956156e+01 -9.302610e-02 -4.473364e+00 -3.580006e+00 -2.853593e+00 -2.185765e+00 -1.507117e+00 -8.570201e-01 -2.810620e-01 1.820135e-01 5.137412e-01 7.048533e-01 7.605622e-01 6.967333e-01 5.377610e-01 3.128917e-01 5.413108e-02 -2.054119e-01 -4.336286e-01 -5.999039e-01 -6.771473e-01 -6.438305e-01 -4.847825e-01 -1.938289e-01 2.244947e-01 7.583085e-01 1.370668e+00 2.017197e+00 2.651125e+00 3.370263e+00 4.677893e+00 1.927564e+00 -2.003614e+01 4.115924e+00 2.876420e+01 -3.607014e-01 -9.950761e+00 -8.512135e+00 -6.330222e+00 -4.381923e+00 -3.062578e+00 -2.264133e+00 -1.793367e+00 -1.471666e+00 -1.195428e+00 -9.156418e-01 -6.195124e-01 -3.083526e-01 
1.417889e-02 3.231945e-01 6.300749e-01 9.296810e-01 1.221759e+00 1.519230e+00 1.867723e+00 2.360696e+00 3.151439e+00 4.392149e+00 6.123334e+00 7.817379e+00 8.150768e+00 -1.019828e+01 -2.454534e+01 9.439697e+00 1.346246e+01 -9.243747e+00 -6.296985e+00 -4.930841e+00 -3.857815e+00 -2.905157e+00 -2.052873e+00 -1.314338e+00 -7.022871e-01 -2.272598e-01 1.125487e-01 3.236822e-01 4.188025e-01 4.153774e-01 3.344844e-01 2.002235e-01 3.821769e-02 -1.249336e-01 -2.631385e-01 -3.515588e-01 -3.671526e-01 -2.904122e-01 -1.041062e-01 2.045828e-01 6.440722e-01 1.218983e+00 1.918107e+00 2.728711e+00 3.627122e+00 4.662095e+00 6.041296e+00 7.752345e+00 -9.282218e+00 -1.389748e+01 2.266639e+01 1.569445e+01 -1.165587e+01 -8.580763e+00 -6.376285e+00 -4.396090e+00 -3.039380e+00 -2.206474e+00 -1.721927e+00 -1.401207e+00 -1.135156e+00 -8.690969e-01 -5.878235e-01 -2.914350e-01 
1.561564e-02 2.985169e-01 5.801283e-01 8.560247e-01 1.127938e+00 1.411801e+00 1.759462e+00 2.273272e+00 3.118682e+00 4.468907e+00 6.391284e+00 8.551207e+00 1.026265e+01 -2.208097e+01 -1.465275e+01 1.668176e+01 -3.002367e+00 -1.120047e+01 -7.525007e+00 -5.604434e+00 -4.279708e+00 -3.194912e+00 -2.281669e+00 -1.527473e+00 -9.247565e-01 -4.660367e-01 -1.383707e-01 7.395963e-02 1.873189e-01 2.201264e-01 1.908541e-01 1.194667e-01 2.614683e-02 -6.822728e-02 -1.431005e-01 -1.786512e-01 -1.553583e-01 -5.570206e-02 1.388213e-01 4.443794e-01 8.777193e-01 1.453244e+00 2.177767e+00 3.058074e+00 4.086200e+00 5.296173e+00 6.775604e+00 8.724350e+00 7.168234e+00 -2.011228e+01 7.502679e+00 2.673763e+01 -7.332218e+00 -6.940678e+00 -5.766109e+00 -4.134587e+00 -2.869435e+00 -2.059518e+00 -1.585204e+00 -1.278626e+00 -1.032313e+00 -7.897060e-01 -5.338357e-01 -2.636507e-01 
1.550298e-02 2.600918e-01 5.041573e-01 7.440921e-01 9.833190e-01 1.239229e+00 1.566322e+00 2.068579e+00 2.914715e+00 4.287296e+00 6.258361e+00 8.641005e+00 8.862275e+00 -2.498591e+01 -4.921443e+00 1.988753e+01 -8.899494e+00 -9.272755e+00 -7.041238e+00 -5.418160e+00 -4.155662e+00 -3.106675e+00 -2.236890e+00 -1.532305e+00 -9.809277e-01 -5.654967e-01 -2.689707e-01 -7.144166e-02 4.383824e-02 9.453072e-02 9.626099e-02 6.534267e-02 1.747660e-02 -3.121536e-02 -6.478211e-02 -6.766527e-02 -2.367858e-02 8.233399e-02 2.683215e-01 5.509833e-01 9.513537e-01 1.488172e+00 2.180553e+00 3.045775e+00 4.094882e+00 5.375251e+00 6.974934e+00 9.267706e+00 1.336936e+01 -1.643529e+01 -6.527335e+00 2.168868e+01 8.997093e-01 -5.164345e+00 -4.929295e+00 -3.702307e+00 -2.576602e+00 -1.829018e+00 -1.385522e+00 -1.105902e+00 -8.884869e-01 -6.786630e-01 -4.583625e-01 -2.255859e-01 
1.372142e-02 2.086496e-01 4.035788e-01 5.958342e-01 7.895892e-01 1.001378e+00 1.281555e+00 1.722786e+00 2.471597e+00 3.671813e+00 5.303508e+00 6.981855e+00 2.293259e+00 -2.006893e+01 2.930453e+00 1.691795e+01 -8.396436e+00 -7.412176e+00 -5.892231e+00 -4.641097e+00 -3.578814e+00 -2.684386e+00 -1.944702e+00 -1.349935e+00 -8.902453e-01 -5.455990e-01 -2.998954e-01 -1.333606e-01 -3.121963e-02 2.190213e-02 3.842338e-02 3.098477e-02 1.117698e-02 -9.181080e-03 -1.838310e-02 -4.852445e-03 4.408420e-02 1.406517e-01 3.006739e-01 5.391497e-01 8.772581e-01 1.333459e+00 1.931820e+00 2.691587e+00 3.635035e+00 4.803414e+00 6.255342e+00 8.195195e+00 1.063473e+01 -7.669295e+00 -8.278549e+00 1.407345e+01 6.110461e+00 -5.278937e+00 -4.443198e+00 -3.214159e+00 -2.182123e+00 -1.514543e+00 -1.123538e+00 -8.850645e-01 -7.065195e-01 -5.384412e-01 -3.632224e-01 -1.781862e-01 
1.023165e-02 1.459935e-01 2.819982e-01 4.164909e-01 5.532184e-01 7.052335e-01 9.112110e-01 1.240632e+00 1.798101e+00 2.676501e+00 3.803547e+00 4.736806e+00 -2.699615e+00 -1.251151e+01 4.053808e+00 8.348264e+00 -6.058396e+00 -5.362475e+00 -4.294705e+00 -3.402206e+00 -2.627650e+00 -1.973948e+00 -1.435795e+00 -1.004104e+00 -6.731341e-01 -4.254218e-01 -2.490522e-01 -1.281598e-01 -5.190726e-02 -8.871454e-03 9.585686e-03 1.218162e-02 6.627103e-03 7.488446e-04 2.316607e-03 1.907221e-02 5.981876e-02 1.331763e-01 2.510019e-01 4.245260e-01 6.709213e-01 1.004480e+00 1.446558e+00 2.011185e+00 2.716666e+00 3.571913e+00 4.539208e+00 5.425633e+00 5.183638e+00 -3.786548e+00 -7.731647e+00 8.522424e+00 7.043056e+00 -5.644416e+00 -3.809252e+00 -2.517624e+00 -1.636101e+00 -1.101978e+00 -7.988884e-01 -6.207256e-01 -4.920735e-01 -3.740729e-01 -2.520077e-01 -1.233385e-01 
5.486573e-03 7.517390e-02 1.450611e-01 2.143022e-01 2.850956e-01 3.646962e-01 4.741430e-01 6.508299e-01 9.491425e-01 1.416766e+00 2.021498e+00 2.626814e+00 -2.875893e+00 -5.902883e+00 3.134591e+00 3.929573e+00 -2.298011e+00 -2.620539e+00 -2.229090e+00 -1.792403e+00 -1.389744e+00 -1.045748e+00 -7.625576e-01 -5.354862e-01 -3.620567e-01 -2.323392e-01 -1.400424e-01 -7.640052e-02 -3.567041e-02 -1.175511e-02 -2.014844e-04 3.452460e-03 3.062355e-03 2.529106e-03 5.725835e-03 1.653873e-02 3.949417e-02 7.907183e-02 1.416427e-01 2.332511e-01 3.634500e-01 5.400674e-01 7.751895e-01 1.076012e+00 1.450237e+00 1.893137e+00 2.350343e+00 2.639336e+00 2.203233e+00 -1.151483e+00 -4.765757e+00 4.009469e+00 4.479878e+00 -3.807865e+00 -2.283457e+00 -1.414887e+00 -8.888451e-01 -5.849458e-01 -4.167858e-01 -3.204466e-01 -2.527018e-01 -1.917114e-01 -1.290277e-01 -6.303903e-02 
1.615703e-13 7.322109e-14 1.129302e-13 4.173515e-13 1.243330e-12 3.002019e-12 6.382188e-12 1.238670e-11 2.228105e-11 3.688788e-11 5.588827e-11 8.299395e-11 -1.448219e-11 -8.697280e-12 2.003506e-10 1.737685e-10 1.919121e-11 -2.300337e-11 -2.724689e-11 -2.396750e-11 -2.024560e-11 -1.666923e-11 -1.341009e-11 -1.035114e-11 -7.733519e-12 -5.494550e-12 -3.777970e-12 -2.508880e-12 -1.615337e-12 -1.061112e-12 -7.646770e-13 -6.308596e-13 -5.682237e-13 -5.417958e-13 -4.554185e-13 -1.882990e-13 2.472078e-13 9.678710e-13 2.038239e-12 3.532978e-12 5.567609e-12 8.239229e-12 1.178042e-11 1.629706e-11 2.219536e-11 2.933201e-11 3.524705e-11 2.575032e-11 -6.001531e-11 -2.519948e-10 -1.323302e-10 2.300549e-10 -6.478160e-11 -3.156597e-10 -1.049576e-10 -4.163091e-11 -1.718594e-11 -6.664124e-12 -2.089299e-12 -2.258046e-13 4.022543e-13 5.221823e-13 4.626800e-13 3.210335e-13 
-5.486573e-03 -7.517390e-02 -1.450611e-01 -2.143022e-01 -2.850956e-01 -3.646962e-01 -4.741430e-01 -6.508299e-01 -9.491425e-01 -1.416766e+00 -2.021498e+00 -2.626814e+00 2.875893e+00 5.902883e+00 -3.134591e+00 -3.929573e+00 2.298011e+00 2.620539e+00 2.229090e+00 1.792403e+00 1.389744e+00 1.045748e+00 7.625576e-01 5.354862e-01 3.620567e-01 2.323392e-01 1.400424e-01 7.640052e-02 3.567041e-02 1.175511e-02 2.014844e-04 -3.452460e-03 -3.062355e-03 -2.529106e-03 -5.725835e-03 -1.653873e-02 -3.949417e-02 -7.907183e-02 -1.416427e-01 -2.332511e-01 -3.634500e-01 -5.400674e-01 -7.751895e-01 -1.076012e+00 -1.450237e+00 -1.893137e+00 -2.350343e+00 -2.639336e+00 -2.203233e+00 1.151483e+00 4.765757e+00 -4.009469e+00 -4.479878e+00 3.807865e+00 2.283457e+00 1.414887e+00 8.888451e-01 5.849458e-01 4.167858e-01 3.204466e-01 2.527018e-01 1.917114e-01 1.290277e-01 6.303903e-02 