# vtk DataFile Version 2.0
Comment goes here
ASCII

DATASET STRUCTURED_POINTS
FIELD FieldData 1
TIME 1 1 double
0.90000000
DIMENSIONS    64   64   1

ORIGIN    0.000   0.000   0.000
SPACING   0.015625 0.015625   1.000

POINT_DATA   4096
SCALARS Omega double
LOOKUP_TABLE default

-7.060194e-14 -5.564372e-14 -4.866090e-14 -3.825042e-14 -1.142213e-14 -2.102951e-14 6.246054e-15 5.835632e-14 7.837676e-14 9.168764e-14 1.241770e-13 1.713538e-13 2.012805e-13 2.820532e-13 3.609909e-13 4.825646e-13 6.592075e-13 8.942747e-13 1.187936e-12 1.474812e-12 1.831523e-12 2.157603e-12 2.433725e-12 2.692173e-12 2.814984e-12 2.831521e-12 2.723026e-12 2.446745e-12 2.039407e-12 1.473417e-12 7.949658e-13 3.866771e-14 -7.658923e-13 -1.543292e-12 -2.244922e-12 -2.817276e-12 -3.224010e-12 -3.438413e-12 -3.479546e-12 -3.325358e-12 -3.056828e-12 -2.729274e-12 -2.344808e-12 -1.973692e-12 -1.626156e-12 -1.328099e-12 -1.082862e-12 -8.499653e-13 -6.867724e-13 -5.251908e-13 -4.496082e-13 -3.703894e-13 -3.101976e-13 -2.617866e-13 -2.383202e-13 -2.019512e-13 -1.860792e-13 -1.574337e-13 -1.689171e-13 -1.550987e-13 -1.359685e-13 -1.221779e-13 -1.011483e-13 -8.981391e-14 
-2.050778e-04 6.092422e-03 1.229782e-02 1.830951e-02 2.401275e-02 2.926745e-02 3.390559e-02 3.771651e-02 4.044491e-02 4.178046e-02 4.135580e-02 3.875203e-02 3.350077e-02 2.512056e-02 1.313383e-02 -2.853478e-03 -2.310760e-02 -4.765112e-02 -7.619268e-02 -1.080220e-01 -1.419479e-01 -1.762864e-01 -2.088731e-01 -2.372013e-01 -2.585722e-01 -2.703397e-01 -2.702067e-01 -2.564811e-01 -2.284344e-01 -1.864849e-01 -1.323966e-01 -6.920549e-02 -1.023849e-03 6.735601e-02 1.311382e-01 1.860721e-01 2.289382e-01 2.578875e-01 2.723119e-01 2.729503e-01 2.614199e-01 2.400602e-01 2.115626e-01 1.786707e-01 1.439640e-01 1.096504e-01 7.744956e-02 4.858644e-02 2.376396e-02 3.292143e-03 -1.287669e-02 -2.500098e-02 -3.349595e-02 -3.883651e-02 -4.151512e-02 -4.199991e-02 -4.071373e-02 -3.802506e-02 -3.424535e-02 -2.963147e-02 -2.439480e-02 -1.870445e-02 -1.270146e-02 -6.500814e-03 
-4.136994e-04 1.220786e-02 2.463818e-02 3.666739e-02 4.806033e-02 5.853303e-02 6.774771e-02 7.528445e-02 8.063656e-02 8.319100e-02 8.222233e-02 7.690440e-02 6.631094e-02 4.948866e-02 2.548616e-02 -6.485568e-03 -4.697174e-02 -9.603660e-02 -1.531357e-01 -2.168896e-01 -2.849812e-01 -3.540970e-01 -4.199757e-01 -4.776330e-01 -5.216638e-01 -5.466884e-01 -5.479138e-01 -5.216549e-01 -4.660826e-01 -3.817033e-01 -2.718843e-01 -1.427720e-01 -2.967694e-03 1.373479e-01 2.679549e-01 3.798943e-01 4.665591e-01 5.243391e-01 5.523164e-01 5.523080e-01 5.278660e-01 4.838766e-01 4.258402e-01 3.592782e-01 2.893366e-01 2.203858e-01 1.558135e-01 9.801382e-02 4.834838e-02 7.398990e-03 -2.495264e-02 -4.923959e-02 -6.629547e-02 -7.706940e-02 -8.253742e-02 -8.362689e-02 -8.117181e-02 -7.590030e-02 -6.842743e-02 -5.926293e-02 -4.882791e-02 -3.746222e-02 -2.545157e-02 -1.303147e-02 
-6.223955e-04 1.837239e-02 3.706330e-02 5.511898e-02 7.217370e-02 8.779227e-02 1.014659e-01 1.125683e-01 1.203526e-01 1.239178e-01 1.222018e-01 1.139923e-01 9.792603e-02 7.259030e-02 3.656162e-02 -1.136171e-02 -7.204303e-02 -1.456594e-01 -2.315088e-01 -3.276826e-01 -4.308801e-01 -5.363382e-01 -6.378107e-01 -7.279187e-01 -7.984515e-01 -8.410033e-01 -8.477149e-01 -8.120559e-01 -7.301239e-01 -6.016962e-01 -4.313150e-01 -2.284230e-01 -7.118387e-03 2.152986e-01 4.213806e-01 5.962139e-01 7.293729e-01 8.158059e-01 8.549783e-01 8.507295e-01 8.093570e-01 7.389058e-01 6.480742e-01 5.453207e-01 4.383444e-01 3.335991e-01 2.359782e-01 1.489135e-01 7.427869e-02 1.282849e-02 -3.570802e-02 -7.218518e-02 -9.787959e-02 -1.142189e-01 -1.226527e-01 -1.245499e-01 -1.211344e-01 -1.134736e-01 -1.024704e-01 -8.887646e-02 -7.331882e-02 -5.630901e-02 -3.828435e-02 -1.961079e-02 
-8.402826e-04 2.459619e-02 4.959650e-02 7.368959e-02 9.636484e-02 1.170279e-01 1.349984e-01 1.494531e-01 1.594220e-01 1.637428e-01 1.610460e-01 1.497634e-01 1.281146e-01 9.423262e-02 4.619597e-02 -1.766730e-02 -9.865198e-02 -1.972017e-01 -3.126901e-01 -4.429295e-01 -5.839615e-01 -7.298251e-01 -8.725292e-01 -1.002311e+00 -1.107933e+00 -1.177353e+00 -1.198450e+00 -1.160135e+00 -1.054234e+00 -8.778446e-01 -6.356767e-01 -3.408975e-01 -1.539899e-02 3.124052e-01 6.136557e-01 8.646687e-01 1.050344e+00 1.164868e+00 1.210015e+00 1.193547e+00 1.126307e+00 1.020751e+00 8.895765e-01 7.445653e-01 5.960294e-01 4.523528e-01 3.196882e-01 2.022054e-01 1.020260e-01 1.983811e-02 -4.495041e-02 -9.364433e-02 -1.280305e-01 -1.500532e-01 -1.616349e-01 -1.645724e-01 -1.604503e-01 -1.506483e-01 -1.363302e-01 -1.184719e-01 -9.789665e-02 -7.528756e-02 -5.124094e-02 -2.626706e-02 
-1.056113e-03 3.090293e-02 6.226955e-02 9.241064e-02 1.206555e-01 1.462431e-01 1.683271e-01 1.859028e-01 1.978071e-01 2.026504e-01 1.987950e-01 1.843417e-01 1.570998e-01 1.147115e-01 5.466910e-02 -2.533604e-02 -1.272789e-01 -2.522264e-01 -4.000626e-01 -5.688562e-01 -7.544868e-01 -9.502880e-01 -1.146693e+00 -1.331517e+00 -1.489806e+00 -1.604631e+00 -1.657422e+00 -1.629109e+00 -1.502980e+00 -1.269749e+00 -9.323327e-01 -5.080228e-01 -3.078918e-02 4.510732e-01 8.881784e-01 1.242477e+00 1.493093e+00 1.635194e+00 1.676465e+00 1.632302e+00 1.521268e+00 1.362653e+00 1.174961e+00 9.742892e-01 7.737816e-01 5.836639e-01 4.108593e-01 2.597961e-01 1.322811e-01 2.848457e-02 -5.289068e-02 -1.138736e-01 -1.569455e-01 -1.846750e-01 -1.995019e-01 -2.036547e-01 -1.990556e-01 -1.873607e-01 -1.699601e-01 -1.480246e-01 -1.225566e-01 -9.440417e-02 -6.432936e-02 -3.300111e-02 
-1.282867e-03 3.729573e-02 7.509871e-02 1.113075e-01 1.450766e-01 1.754760e-01 2.015055e-01 2.220060e-01 2.356586e-01 2.408879e-01 2.358174e-01 2.182202e-01 1.854434e-01 1.345119e-01 6.209617e-02 -3.510765e-02 -1.602721e-01 -3.157289e-01 -5.026705e-01 -7.201899e-01 -9.647660e-01 -1.229340e+00 -1.502763e+00 -1.769616e+00 -2.009857e+00 -2.199819e+00 -2.311508e+00 -2.313836e+00 -2.174204e+00 -1.869103e+00 -1.395152e+00 -7.734703e-01 -5.734491e-02 6.677029e-01 1.313762e+00 1.818520e+00 2.154577e+00 2.322437e+00 2.344340e+00 2.248207e+00 2.064264e+00 1.822274e+00 1.549451e+00 1.268265e+00 9.955555e-01 7.434993e-01 5.194302e-01 3.272905e-01 1.677784e-01 3.972325e-02 -5.954648e-02 -1.333394e-01 -1.852139e-01 -2.186282e-01 -2.366818e-01 -2.421022e-01 -2.371535e-01 -2.237451e-01 -2.034533e-01 -1.776071e-01 -1.473601e-01 -1.137124e-01 -7.759270e-02 -3.984224e-02 
-1.502004e-03 4.381271e-02 8.814216e-02 1.304603e-01 1.697371e-01 2.048777e-01 2.347516e-01 2.580800e-01 2.734324e-01 2.790783e-01 2.729040e-01 2.522878e-01 2.139533e-01 1.539996e-01 6.780071e-02 -4.963019e-02 -2.035405e-01 -3.985974e-01 -6.384000e-01 -9.240984e-01 -1.253266e+00 -1.618372e+00 -2.005442e+00 -2.394254e+00 -2.757287e+00 -3.062375e+00 -3.271591e+00 -3.337643e+00 -3.198133e+00 -2.800382e+00 -2.127926e+00 -1.201124e+00 -1.009025e-01 1.016019e+00 1.988530e+00 2.714514e+00 3.163577e+00 3.350767e+00 3.329368e+00 3.148260e+00 2.850979e+00 2.481426e+00 2.080318e+00 1.679678e+00 1.301247e+00 9.602346e-01 6.642674e-01 4.163339e-01 2.149756e-01 5.657433e-02 -6.400260e-02 -1.522640e-01 -2.135591e-01 -2.527519e-01 -2.739307e-01 -2.805090e-01 -2.751706e-01 -2.600867e-01 -2.369926e-01 -2.073332e-01 -1.723781e-01 -1.332542e-01 -9.105141e-02 -4.679124e-02 
-1.728426e-03 5.048566e-02 1.014818e-01 1.500101e-01 1.948541e-01 2.347686e-01 2.685245e-01 2.947638e-01 3.119768e-01 3.182750e-01 3.112324e-01 2.876345e-01 2.432113e-01 1.725416e-01 6.884985e-02 -7.564750e-02 -2.696086e-01 -5.214270e-01 -8.383708e-01 -1.224208e+00 -1.677206e+00 -2.187014e+00 -2.733506e+00 -3.287616e+00 -3.811194e+00 -4.262234e+00 -4.596872e+00 -4.765354e+00 -4.659069e+00 -4.164075e+00 -3.235659e+00 -1.866376e+00 -1.695376e-01 1.557313e+00 3.012028e+00 4.031075e+00 4.602685e+00 4.784464e+00 4.699834e+00 4.414649e+00 3.966709e+00 3.423375e+00 2.845451e+00 2.277489e+00 1.748201e+00 1.278151e+00 8.773751e-01 5.483685e-01 2.870804e-01 8.625610e-02 -6.305033e-02 -1.698941e-01 -2.425539e-01 -2.881924e-01 -3.125164e-01 -3.200270e-01 -3.140490e-01 -2.971061e-01 -2.711055e-01 -2.375789e-01 -1.978731e-01 -1.532089e-01 -1.048207e-01 -5.391063e-02 
-1.938455e-03 5.741391e-02 1.153012e-01 1.702431e-01 2.208451e-01 2.657365e-01 3.036260e-01 3.331069e-01 3.525887e-01 3.599442e-01 3.522211e-01 3.251965e-01 2.729323e-01 1.874992e-01 5.869130e-02 -1.255963e-01 -3.789472e-01 -7.147263e-01 -1.144138e+00 -1.672412e+00 -2.294481e+00 -2.990541e+00 -3.725138e+00 -4.456240e+00 -5.134516e+00 -5.703493e+00 -6.150575e+00 -6.490252e+00 -6.502113e+00 -5.940042e+00 -4.751850e+00 -2.825675e+00 -2.735950e-01 2.328367e+00 4.419938e+00 5.759455e+00 6.415936e+00 6.517585e+00 6.340716e+00 5.979592e+00 5.376900e+00 4.642745e+00 3.869620e+00 3.107733e+00 2.389285e+00 1.747069e+00 1.199910e+00 7.542988e-01 4.052435e-01 1.418700e-01 -4.959688e-02 -1.832092e-01 -2.716649e-01 -3.257377e-01 -3.537721e-01 -3.620724e-01 -3.550513e-01 -3.358219e-01 -3.065603e-01 -2.688941e-01 -2.242210e-01 -1.738176e-01 -1.190377e-01 -6.125249e-02 
-2.146116e-03 6.472122e-02 1.298747e-01 1.916108e-01 2.483790e-01 2.987137e-01 3.412933e-01 3.746608e-01 3.970718e-01 4.059432e-01 3.973721e-01 3.654043e-01 3.013788e-01 1.934556e-01 2.640052e-02 -2.177537e-01 -5.584555e-01 -1.013685e+00 -1.596126e+00 -2.306807e+00 -3.127853e+00 -4.014416e+00 -4.899795e+00 -5.728715e+00 -6.463833e+00 -7.004972e+00 -7.360249e+00 -7.869374e+00 -8.109279e+00 -7.602243e+00 -6.501802e+00 -4.129637e+00 -4.149897e-01 3.356127e+00 6.078105e+00 7.457029e+00 7.973923e+00 7.883768e+00 7.753033e+00 7.555283e+00 6.816717e+00 5.934015e+00 5.040635e+00 4.133738e+00 3.234592e+00 2.398280e+00 1.669152e+00 1.068254e+00 5.962987e-01 2.420264e-01 -1.236324e-02 -1.865360e-01 -2.990430e-01 -3.658187e-01 -3.992784e-01 -4.086175e-01 -4.001053e-01 -3.779006e-01 -3.446917e-01 -3.022887e-01 -2.521500e-01 -1.955775e-01 -1.340124e-01 -6.897062e-02 
-2.326086e-03 7.262922e-02 1.456385e-01 2.148008e-01 2.784419e-01 3.350336e-01 3.832293e-01 4.214599e-01 4.476282e-01 4.582865e-01 4.478658e-01 4.076114e-01 3.247129e-01 1.818043e-01 -4.279194e-02 -3.734260e-01 -8.339217e-01 -1.442378e+00 -2.204105e+00 -3.103451e+00 -4.090871e+00 -5.071110e+00 -5.906964e+00 -6.547131e+00 -7.054342e+00 -7.117171e+00 -6.821924e+00 -7.770652e+00 -8.239734e+00 -7.278405e+00 -7.060724e+00 -5.115635e+00 -4.771807e-01 3.965446e+00 6.652612e+00 7.469806e+00 7.924490e+00 7.569963e+00 7.651088e+00 8.305761e+00 7.474312e+00 6.659939e+00 5.948138e+00 5.132431e+00 4.176861e+00 3.195357e+00 2.288016e+00 1.511092e+00 8.850603e-01 4.081489e-01 6.395566e-02 -1.706902e-01 -3.203823e-01 -4.074648e-01 -4.500174e-01 -4.615655e-01 -4.513550e-01 -4.253418e-01 -3.871753e-01 -3.390659e-01 -2.826103e-01 -2.191337e-01 -1.501340e-01 -7.723676e-02 
-2.486400e-03 8.141349e-02 1.631747e-01 2.407438e-01 3.123665e-01 3.764697e-01 4.316441e-01 4.760411e-01 5.068507e-01 5.190949e-01 5.045294e-01 4.502172e-01 3.376681e-01 1.427154e-01 -1.627795e-01 -6.069928e-01 -1.211031e+00 -1.980074e+00 -2.893137e+00 -3.895925e+00 -4.887518e+00 -5.685498e+00 -6.015044e+00 -5.836989e+00 -5.725799e+00 -4.855565e+00 -3.023171e+00 -2.226196e+00 2.304259e+00 1.077474e+01 1.299001e+01 8.160587e+00 5.958609e-01 -7.842174e+00 -1.287589e+01 -1.213147e+01 -4.226314e+00 2.176035e+00 5.587876e+00 7.678700e+00 5.886961e+00 5.593666e+00 5.774723e+00 5.581851e+00 4.891785e+00 3.951511e+00 2.967384e+00 2.053896e+00 1.272972e+00 6.528991e-01 1.927169e-01 -1.258532e-01 -3.303195e-01 -4.490095e-01 -5.068293e-01 -5.231126e-01 -5.115022e-01 -4.807988e-01 -4.363252e-01 -3.810829e-01 -3.169957e-01 -2.454589e-01 -1.680121e-01 -8.634561e-02 
-2.603243e-03 9.144665e-02 1.832316e-01 2.706137e-01 3.518030e-01 4.251763e-01 4.891434e-01 5.412810e-01 5.774889e-01 5.903483e-01 5.676635e-01 4.908809e-01 3.346704e-01 6.825130e-02 -3.398055e-01 -9.128348e-01 -1.652452e+00 -2.524645e+00 -3.448948e+00 -4.306004e+00 -4.938534e+00 -5.074072e+00 -4.179765e+00 -2.237463e+00 -1.274309e+00 9.164500e+00 2.618927e+01 3.493341e+01 3.313695e+01 2.466234e+01 1.592359e+01 7.722592e+00 5.790989e-01 -7.189716e+00 -1.472421e+01 -2.433822e+01 -3.317459e+01 -3.617458e+01 -2.705626e+01 -8.653951e+00 -1.284267e-02 1.131062e+00 3.373889e+00 4.677507e+00 4.788589e+00 4.266157e+00 3.472336e+00 2.580608e+00 1.715264e+00 9.673692e-01 3.791492e-01 -4.405402e-02 -3.229055e-01 -4.877040e-01 -5.697080e-01 -5.950406e-01 -5.831896e-01 -5.470930e-01 -4.947190e-01 -4.304706e-01 -3.569300e-01 -2.756925e-01 -1.883537e-01 -9.662364e-02 
-2.669844e-03 1.031524e-01 2.066803e-01 3.057799e-01 3.986702e-01 4.836240e-01 5.586635e-01 6.203234e-01 6.624422e-01 6.740262e-01 6.376262e-01 5.279834e-01 3.131464e-01 -4.106429e-02 -5.601497e-01 -1.243974e+00 -2.042978e+00 -2.839392e+00 -3.442905e+00 -3.641855e+00 -3.280466e+00 -2.066651e+00 4.553061e-01 1.001985e+01 2.686061e+01 3.812829e+01 3.048045e+01 1.665965e+01 5.232355e+00 -3.602177e+00 -5.511101e+00 -4.735218e+00 -5.365288e-01 3.589899e+00 5.168827e+00 3.430827e+00 -4.335573e+00 -1.642644e+01 -3.228226e+01 -3.937037e+01 -2.889472e+01 -1.266060e+01 -2.020970e+00 1.260822e+00 2.925989e+00 3.422079e+00 3.338737e+00 2.829261e+00 2.081388e+00 1.296471e+00 6.055985e-01 7.255881e-02 -2.961035e-01 -5.220305e-01 -6.389931e-01 -6.793227e-01 -6.693430e-01 -6.274226e-01 -5.653503e-01 -4.897486e-01 -4.043625e-01 -3.112174e-01 -2.120286e-01 -1.084841e-01 
-2.663950e-03 1.169854e-01 2.344416e-01 3.476859e-01 4.549770e-01 5.543815e-01 6.432054e-01 7.163248e-01 7.645583e-01 7.721615e-01 7.153680e-01 5.621999e-01 2.767433e-01 -1.702700e-01 -7.805363e-01 -1.497928e+00 -2.172503e+00 -2.538271e+00 -2.231665e+00 -9.213174e-01 1.381598e+00 4.812709e+00 1.666555e+01 3.403558e+01 3.464012e+01 1.219695e+01 -7.623284e+00 -1.533510e+01 -1.707715e+01 -1.018163e+01 -3.325717e+00 -1.103444e+00 -3.737656e-01 2.476795e-01 2.067941e+00 8.860250e+00 1.573219e+01 1.551587e+01 7.014424e+00 -1.208134e+01 -3.306619e+01 -3.523484e+01 -1.878662e+01 -6.086579e+00 -1.791474e+00 4.156110e-01 1.870503e+00 2.375244e+00 2.139448e+00 1.526159e+00 8.233315e-01 2.068176e-01 -2.542154e-01 -5.526449e-01 -7.154337e-01 -7.777823e-01 -7.726676e-01 -7.248556e-01 -6.511724e-01 -5.614532e-01 -4.612735e-01 -3.534438e-01 -2.399189e-01 -1.223389e-01 
-2.552760e-03 1.333851e-01 2.673987e-01 3.977156e-01 5.226550e-01 6.399057e-01 7.456279e-01 8.322681e-01 8.866073e-01 8.870858e-01 8.032996e-01 5.982845e-01 2.387130e-01 -2.845558e-01 -9.198327e-01 -1.506397e+00 -1.726643e+00 -1.095973e+00 9.820646e-01 5.017218e+00 9.537111e+00 1.938491e+01 3.178579e+01 2.314986e+01 -1.351121e+00 -1.511400e+01 -4.211456e+00 7.822146e+00 7.447353e+00 6.721158e+00 3.869742e+00 1.771255e+00 -6.566073e-02 -1.939145e+00 -3.826844e+00 -5.636188e+00 -7.587732e+00 -7.470913e+00 4.246387e+00 1.423208e+01 2.794436e+00 -2.068816e+01 -3.185532e+01 -2.102077e+01 -9.994169e+00 -5.970881e+00 -1.805517e+00 6.483573e-01 1.547584e+00 1.471336e+00 9.418537e-01 3.191447e-01 -2.125123e-01 -5.849858e-01 -8.015227e-01 -8.926571e-01 -8.958066e-01 -8.422791e-01 -7.549708e-01 -6.479840e-01 -5.295398e-01 -4.036986e-01 -2.728466e-01 -1.385624e-01 
-2.310095e-03 1.526749e-01 3.062130e-01 4.569326e-01 6.032167e-01 7.421524e-01 8.682193e-01 9.705899e-01 1.031010e+00 1.021454e+00 9.056457e-01 6.459019e-01 2.227633e-01 -3.291692e-01 -8.626570e-01 -1.047706e+00 -3.265819e-01 2.046368e+00 6.842930e+00 1.267977e+01 1.832123e+01 2.496815e+01 1.762072e+01 -2.429064e+00 -7.405972e+00 1.508074e+00 1.018799e+01 1.062687e+01 6.925589e+00 5.519853e+00 3.696114e+00 1.879634e+00 4.604295e-02 -1.768063e+00 -3.408533e+00 -4.851860e+00 -6.207757e+00 -8.277502e+00 -7.745482e+00 -1.816521e+00 6.218609e+00 4.234409e+00 -1.527916e+01 -2.495360e+01 -1.938736e+01 -1.469089e+01 -8.454823e+00 -2.940860e+00 -9.089970e-02 8.967363e-01 8.366371e-01 3.495404e-01 -1.973368e-01 -6.297537e-01 -9.017713e-01 -1.026557e+00 -1.041051e+00 -9.819916e-01 -8.789220e-01 -7.512083e-01 -6.106024e-01 -4.629847e-01 -3.114172e-01 -1.574259e-01 
-1.871133e-03 1.750193e-01 3.511929e-01 5.258585e-01 6.974563e-01 8.621954e-01 1.012280e+00 1.132723e+00 1.199423e+00 1.177781e+00 1.027889e+00 7.183456e-01 2.599970e-01 -2.373005e-01 -4.778189e-01 1.100773e-01 2.376587e+00 7.258590e+00 1.390823e+01 1.612705e+01 1.739763e+01 1.504824e+01 1.702519e+00 -2.677684e+00 2.243912e+00 3.890905e+00 5.992982e+00 6.594098e+00 5.542759e+00 4.484290e+00 3.165629e+00 1.680887e+00 9.580085e-02 -1.468399e+00 -2.856905e+00 -3.994946e+00 -4.859337e+00 -5.405366e+00 -4.924884e+00 -3.648859e+00 -3.030982e+00 1.922824e+00 -3.064717e-02 -1.311819e+01 -1.692895e+01 -1.650870e+01 -1.546639e+01 -8.704344e+00 -3.113844e+00 -4.333716e-01 3.694955e-01 2.256611e-01 -2.425655e-01 -7.012899e-01 -1.021714e+00 -1.181685e+00 -1.209631e+00 -1.145030e+00 -1.023989e+00 -8.719276e-01 -7.050383e-01 -5.316452e-01 -3.557895e-01 -1.789573e-01 
-1.196381e-03 2.002608e-01 4.020324e-01 6.041102e-01 8.049812e-01 9.996736e-01 1.177482e+00 1.318417e+00 1.391936e+00 1.357440e+00 1.174969e+00 8.289359e-01 3.807852e-01 5.185148e-02 3.429825e-01 2.128028e+00 6.543550e+00 1.405811e+01 1.538119e+01 1.077404e+01 1.244150e+01 8.344584e+00 -7.383584e-01 -1.664980e+00 3.478230e-01 2.483237e+00 3.980621e+00 4.571322e+00 4.305470e+00 3.632204e+00 2.637649e+00 1.430496e+00 1.118106e-01 -1.195097e+00 -2.357766e+00 -3.274696e+00 -3.855773e+00 -3.992719e+00 -3.500473e+00 -2.422755e+00 -9.636177e-01 3.197248e-01 4.841918e-01 -7.035559e+00 -1.223689e+01 -1.010568e+01 -1.471987e+01 -1.534643e+01 -7.635439e+00 -2.661890e+00 -5.700497e-01 -1.189476e-01 -3.830344e-01 -8.151724e-01 -1.167149e+00 -1.359477e+00 -1.401374e+00 -1.330780e+00 -1.189501e+00 -1.009500e+00 -8.122398e-01 -6.091431e-01 -4.055443e-01 -2.029135e-01 
-2.060292e-04 2.278738e-01 4.576452e-01 6.901103e-01 9.237952e-01 1.152236e+00 1.361187e+00 1.524865e+00 1.605941e+00 1.558855e+00 1.348105e+00 9.844589e-01 6.010767e-01 5.645935e-01 1.623375e+00 4.983740e+00 1.210716e+01 1.587380e+01 7.132179e+00 7.931897e+00 1.405178e+01 4.237927e+00 -2.850587e+00 -1.626363e+00 2.704943e-01 1.849632e+00 2.934058e+00 3.420957e+00 3.355687e+00 2.892584e+00 2.131017e+00 1.170190e+00 1.072372e-01 -9.508528e-01 -1.895644e+00 -2.632384e+00 -3.072573e+00 -3.128895e+00 -2.722669e+00 -1.850684e+00 -6.093691e-01 8.714624e-01 2.168026e+00 -2.681891e+00 -1.361060e+01 -8.972746e+00 -5.732793e+00 -1.546320e+01 -1.334843e+01 -5.697013e+00 -1.989165e+00 -7.090025e-01 -6.349494e-01 -9.782172e-01 -1.338544e+00 -1.557286e+00 -1.612534e+00 -1.535410e+00 -1.371983e+00 -1.160933e+00 -9.297504e-01 -6.935728e-01 -4.593644e-01 -2.285890e-01 
1.149796e-03 2.568136e-01 5.159283e-01 7.807428e-01 1.049831e+00 1.314946e+00 1.557707e+00 1.745817e+00 1.834920e+00 1.775582e+00 1.540833e+00 1.177079e+00 9.053732e-01 1.259557e+00 3.244430e+00 8.250800e+00 1.623389e+01 6.902434e+00 2.408440e+00 1.556353e+01 9.674097e+00 -2.246547e+00 -3.152656e+00 -1.493468e+00 1.224281e-01 1.381808e+00 2.203656e+00 2.582307e+00 2.568144e+00 2.237469e+00 1.662322e+00 9.203818e-01 9.210680e-02 -7.354434e-01 -1.475626e+00 -2.050134e+00 -2.388394e+00 -2.426353e+00 -2.110109e+00 -1.403204e+00 -3.021200e-01 1.164526e+00 2.859486e+00 3.111201e+00 -7.751469e+00 -1.709046e+01 -3.304858e+00 -5.094333e+00 -1.651019e+01 -9.109607e+00 -3.766743e+00 -1.505123e+00 -9.870587e-01 -1.184464e+00 -1.529406e+00 -1.767593e+00 -1.835231e+00 -1.751416e+00 -1.564733e+00 -1.320553e+00 -1.052998e+00 -7.815011e-01 -5.149524e-01 -2.548185e-01 
2.895870e-03 2.854404e-01 5.735833e-01 8.710493e-01 1.176492e+00 1.479650e+00 1.757509e+00 1.970631e+00 2.067374e+00 1.994957e+00 1.737301e+00 1.380604e+00 1.241067e+00 2.025210e+00 4.998321e+00 1.166768e+01 1.324973e+01 -1.426713e+00 9.583996e+00 1.847879e+01 -1.166712e+00 -5.755442e+00 -3.514385e+00 -1.627318e+00 -1.429843e-01 9.125693e-01 1.573073e+00 1.883645e+00 1.897820e+00 1.668306e+00 1.247950e+00 6.954484e-01 7.385085e-02 -5.487886e-01 -1.105109e+00 -1.533764e+00 -1.780295e+00 -1.795995e+00 -1.535946e+00 -9.519955e-01 6.280816e-04 1.363842e+00 3.111354e+00 5.077152e+00 2.243188e+00 -1.689134e+01 -1.230793e+01 1.559189e+00 -1.123987e+01 -1.323174e+01 -5.663395e+00 -2.376078e+00 -1.380058e+00 -1.404282e+00 -1.720396e+00 -1.974394e+00 -2.055209e+00 -1.966001e+00 -1.756689e+00 -1.479172e+00 -1.174753e+00 -8.676080e-01 -5.688310e-01 -2.798797e-01 
5.038410e-03 3.115226e-01 6.260977e-01 9.541504e-01 1.294486e+00 1.634726e+00 1.946937e+00 2.184136e+00 2.287133e+00 2.199333e+00 1.914682e+00 1.555720e+00 1.518710e+00 2.685931e+00 6.555998e+00 1.499929e+01 2.544703e+00 -4.669320e-01 1.933324e+01 9.544395e+00 -6.496495e+00 -5.712733e+00 -3.569355e+00 -1.781322e+00 -4.535002e-01 4.515621e-01 1.009032e+00 1.283622e+00 1.328098e+00 1.185222e+00 8.953810e-01 5.028893e-01 5.619528e-02 -3.921311e-01 -7.901001e-01 -1.090257e+00 -1.250741e+00 -1.233472e+00 -9.995661e-01 -5.006833e-01 3.221533e-01 1.534702e+00 3.162909e+00 5.111837e+00 6.838479e+00 -5.098038e+00 -2.108722e+01 -1.705437e+00 6.823913e-01 -1.515643e+01 -6.799329e+00 -3.100923e+00 -1.720121e+00 -1.590414e+00 -1.879633e+00 -2.153130e+00 -2.251494e+00 -2.160918e+00 -1.932259e+00 -1.624011e+00 -1.285065e+00 -9.446808e-01 -6.163437e-01 -3.014991e-01 
7.409438e-03 3.321306e-01 6.676524e-01 1.021107e+00 1.391582e+00 1.764664e+00 2.107632e+00 2.366055e+00 2.473247e+00 2.367987e+00 2.051085e+00 1.668608e+00 1.651523e+00 2.950740e+00 6.972914e+00 1.271319e+01 -5.116035e+00 8.194217e+00 2.152065e+01 -3.259089e+00 -7.523146e+00 -5.626558e+00 -3.593227e+00 -1.953052e+00 -7.724141e-01 2.376038e-02 5.197162e-01 7.830305e-01 8.625102e-01 7.943842e-01 6.111371e-01 3.474424e-01 4.118020e-02 -2.666998e-01 -5.356619e-01 -7.283909e-01 -8.116634e-01 -7.543889e-01 -5.232728e-01 -7.350043e-02 6.539697e-01 1.731516e+00 3.220670e+00 5.069460e+00 7.086175e+00 5.844432e+00 -2.045760e+01 -1.200366e+01 4.640980e+00 -1.144525e+01 -8.250847e+00 -3.740002e+00 -1.951307e+00 -1.688385e+00 -1.969608e+00 -2.273794e+00 -2.398452e+00 -2.313443e+00 -2.071917e+00 -1.739072e+00 -1.371613e+00 -1.003917e+00 -6.519301e-01 -3.170686e-01 
9.859540e-03 3.439967e-01 6.916182e-01 1.061538e+00 1.453296e+00 1.850852e+00 2.217469e+00 2.492371e+00 2.602537e+00 2.482515e+00 2.139384e+00 1.730982e+00 1.709196e+00 3.003349e+00 7.032436e+00 3.847512e+00 -2.469011e+00 1.844899e+01 1.431049e+01 -1.045679e+01 -7.979008e+00 -5.626793e+00 -3.644934e+00 -2.125404e+00 -1.056345e+00 -3.359920e-01 1.227840e-01 3.853427e-01 4.967959e-01 4.891352e-01 3.896251e-01 2.263074e-01 2.926160e-02 -1.691654e-01 -3.369306e-01 -4.441802e-01 -4.637103e-01 -3.691985e-01 -1.309732e-01 2.923936e-01 9.573030e-01 1.939609e+00 3.320322e+00 5.112634e+00 7.330027e+00 1.001894e+01 -1.076971e+01 -2.003616e+01 9.464157e-01 -2.224247e+00 -1.026702e+01 -4.047002e+00 -1.919910e+00 -1.614734e+00 -1.943997e+00 -2.302815e+00 -2.467341e+00 -2.397827e+00 -2.153204e+00 -1.805921e+00 -1.420236e+00 -1.035282e+00 -6.692884e-01 -3.236274e-01 
1.192582e-02 3.434967e-01 6.908372e-01 1.064128e+00 1.463560e+00 1.872163e+00 2.250785e+00 2.534617e+00 2.646880e+00 2.520688e+00 2.171078e+00 1.769398e+00 1.800819e+00 3.172368e+00 7.343381e+00 -4.321044e+00 4.060586e+00 1.986053e+01 5.751907e-01 -1.125647e+01 -8.104687e+00 -5.556499e+00 -3.641567e+00 -2.237644e+00 -1.260078e+00 -6.000818e-01 -1.692942e-01 9.285663e-02 2.281386e-01 2.649280e-01 2.268124e-01 1.370675e-01 2.019358e-02 -9.776292e-02 -1.909509e-01 -2.348888e-01 -2.066735e-01 -8.321869e-02 1.623547e-01 5.690742e-01 1.190084e+00 2.104919e+00 3.397308e+00 5.139440e+00 7.351583e+00 9.774319e+00 3.485559e+00 -2.088590e+01 -7.033340e+00 6.158731e+00 -8.597957e+00 -2.935915e+00 -1.398929e+00 -1.324221e+00 -1.785603e+00 -2.223374e+00 -2.436489e+00 -2.390930e+00 -2.154275e+00 -1.806197e+00 -1.416838e+00 -1.028942e+00 -6.624121e-01 -3.185392e-01 
1.329184e-02 3.275091e-01 6.588891e-01 1.018406e+00 1.406988e+00 1.807798e+00 2.181577e+00 2.463230e+00 2.575971e+00 2.456085e+00 2.126198e+00 1.774610e+00 1.918797e+00 3.536003e+00 7.252942e+00 -7.006456e+00 9.637317e+00 1.747026e+01 -9.544370e+00 -1.033384e+01 -7.544029e+00 -5.226911e+00 -3.481218e+00 -2.222863e+00 -1.345617e+00 -7.495119e-01 -3.525937e-01 -9.982603e-02 4.598356e-02 1.102361e-01 1.131855e-01 7.436419e-02 1.371936e-02 -4.771229e-02 -8.902751e-02 -9.012719e-02 -3.147390e-02 1.071519e-01 3.508293e-01 7.356679e-01 1.313434e+00 2.163797e+00 3.376532e+00 5.077872e+00 7.349351e+00 1.056464e+01 1.422574e+01 -1.654356e+01 -1.545106e+01 5.158023e+00 -5.078197e+00 -1.464058e+00 -7.119793e-01 -9.388434e-01 -1.534603e+00 -2.041829e+00 -2.294339e+00 -2.274509e+00 -2.056107e+00 -1.723435e+00 -1.348720e+00 -9.760808e-01 -6.259339e-01 -2.994075e-01 
1.339060e-02 2.936354e-01 5.910384e-01 9.164737e-01 1.271524e+00 1.640682e+00 1.987440e+00 2.250842e+00 2.358889e+00 2.253884e+00 1.961758e+00 1.669981e+00 1.882458e+00 3.495093e+00 5.907254e+00 -4.819732e+00 1.166159e+01 1.371088e+01 -1.158258e+01 -8.976423e+00 -6.569750e+00 -4.617999e+00 -3.122568e+00 -2.048262e+00 -1.295664e+00 -7.794475e-01 -4.304924e-01 -2.009165e-01 -5.955475e-02 1.558575e-02 4.134345e-02 3.380549e-02 8.981268e-03 -1.638523e-02 -2.559234e-02 -2.414218e-03 6.958268e-02 2.075780e-01 4.344966e-01 7.820849e-01 1.299985e+00 2.061314e+00 3.161947e+00 4.742768e+00 6.939087e+00 1.019786e+01 1.537926e+01 -8.557617e+00 -1.587330e+01 1.635865e-01 -1.997315e+00 -7.665813e-01 -2.754626e-01 -6.230284e-01 -1.256807e+00 -1.777121e+00 -2.038652e+00 -2.037625e+00 -1.846112e+00 -1.546614e+00 -1.207609e+00 -8.712386e-01 -5.567710e-01 -2.650949e-01 
1.205016e-02 2.413027e-01 4.858993e-01 7.555154e-01 1.052048e+00 1.362560e+00 1.656246e+00 1.881213e+00 1.975386e+00 1.888868e+00 1.638919e+00 1.370042e+00 1.434208e+00 2.230282e+00 2.131894e+00 -2.536290e+00 1.028865e+01 8.058986e+00 -1.015381e+01 -7.498998e+00 -5.343407e+00 -3.759546e+00 -2.564199e+00 -1.710490e+00 -1.111846e+00 -6.974715e-01 -4.145729e-01 -2.241550e-01 -1.023318e-01 -3.122048e-02 2.201224e-03 1.049342e-02 5.785749e-03 7.422693e-04 8.013603e-03 3.999593e-02 1.097351e-01 2.308750e-01 4.228685e-01 7.113340e-01 1.139413e+00 1.766231e+00 2.677341e+00 3.987137e+00 5.802118e+00 8.328084e+00 1.129372e+01 -3.603928e+00 -1.215776e+01 -1.620882e+00 1.790954e-01 -8.036592e-01 -1.740797e-01 -4.429022e-01 -9.873840e-01 -1.440830e+00 -1.670509e+00 -1.676696e+00 -1.520102e+00 -1.272214e+00 -9.911942e-01 -7.131354e-01 -4.543729e-01 -2.154692e-01 
9.109303e-03 1.719586e-01 3.464330e-01 5.398346e-01 7.538766e-01 9.792758e-01 1.193674e+00 1.359130e+00 1.429370e+00 1.366723e+00 1.177912e+00 9.609017e-01 9.512038e-01 1.460139e+00 2.529560e-01 -8.235028e-01 7.356314e+00 4.246564e+00 -6.413854e+00 -5.160349e+00 -3.740635e+00 -2.648645e+00 -1.821070e+00 -1.228364e+00 -8.121407e-01 -5.215405e-01 -3.218294e-01 -1.853203e-01 -9.604601e-02 -4.129477e-02 -1.218954e-02 -4.582242e-05 3.349293e-03 6.550776e-03 1.814217e-02 4.654140e-02 1.009203e-01 1.907339e-01 3.302872e-01 5.372701e-01 8.434520e-01 1.288177e+00 1.931311e+00 2.837840e+00 4.042759e+00 5.515606e+00 6.532686e+00 -1.649288e+00 -8.296045e+00 -2.057468e+00 2.100619e-01 -1.300359e+00 -2.987168e-01 -3.523314e-01 -7.096304e-01 -1.029822e+00 -1.194068e+00 -1.198924e+00 -1.086182e+00 -9.079039e-01 -7.060157e-01 -5.068590e-01 -3.222089e-01 -1.523483e-01 
4.926695e-03 8.955173e-02 1.804546e-01 2.815738e-01 3.939268e-01 5.126635e-01 6.260314e-01 7.139402e-01 7.516581e-01 7.187789e-01 6.177097e-01 5.019515e-01 5.127397e-01 9.161228e-01 -1.933111e-02 -2.607990e-01 3.632868e+00 1.967199e+00 -2.760381e+00 -2.518476e+00 -1.894229e+00 -1.360088e+00 -9.429186e-01 -6.411389e-01 -4.280867e-01 -2.783586e-01 -1.749880e-01 -1.036990e-01 -5.653154e-02 -2.686821e-02 -1.021452e-02 -2.113780e-03 1.578634e-03 5.188422e-03 1.305507e-02 2.945017e-02 5.911070e-02 1.068977e-01 1.803613e-01 2.885192e-01 4.479152e-01 6.776696e-01 1.006490e+00 1.459647e+00 2.034411e+00 2.657618e+00 2.866549e+00 -6.523609e-01 -4.002027e+00 -9.271494e-01 2.016178e-01 -1.027210e+00 -2.682019e-01 -2.183048e-01 -3.809590e-01 -5.411941e-01 -6.246869e-01 -6.263335e-01 -5.668308e-01 -4.732717e-01 -3.675443e-01 -2.634824e-01 -1.672458e-01 -7.892212e-02 
1.390857e-13 1.380534e-13 2.076771e-13 3.946726e-13 7.037589e-13 1.222344e-12 1.982967e-12 3.113587e-12 4.772137e-12 7.237883e-12 1.082624e-11 1.645053e-11 2.653387e-11 5.122889e-11 6.587242e-11 3.244225e-11 8.542481e-12 -1.160172e-12 -1.856483e-11 -1.879708e-11 -1.801681e-11 -1.601964e-11 -1.325263e-11 -1.041679e-11 -7.722452e-12 -5.441399e-12 -3.666067e-12 -2.344930e-12 -1.470812e-12 -9.100093e-13 -5.878545e-13 -4.427922e-13 -3.701883e-13 -2.885852e-13 -1.621589e-13 5.449832e-14 4.776202e-13 1.126769e-12 2.087220e-12 3.539568e-12 5.705379e-12 8.809000e-12 1.321671e-11 1.925684e-11 2.650650e-11 3.081015e-11 5.280217e-12 -1.734870e-11 3.741679e-11 1.510774e-11 -1.450425e-10 -1.419090e-10 -3.131453e-11 -5.156086e-12 2.891606e-13 8.001171e-13 5.378022e-13 3.423133e-13 2.688013e-13 2.411397e-13 2.578773e-13 2.333322e-13 1.969352e-13 1.652736e-13 
-4.926695e-03 -8.955173e-02 -1.804546e-01 -2.815738e-01 -3.939268e-01 -5.126635e-01 -6.260314e-01 -7.139402e-01 -7.516581e-01 -7.187789e-01 -6.177097e-01 -5.019515e-01 -5.127397e-01 -9.161228e-01 1.933111e-02 2.607990e-01 -3.632868e+00 -1.967199e+00 2.760381e+00 2.518476e+00 1.894229e+00 1.360088e+00 9.429186e-01 6.411389e-01 4.280867e-01 2.783586e-01 1.749880e-01 1.036990e-01 5.653154e-02 2.686821e-02 1.021452e-02 2.113780e-03 -1.578634e-03 -5.188422e-03 -1.305507e-02 -2.945017e-02 -5.911070e-02 -1.068977e-01 -1.803613e-01 -2.885192e-01 -4.479152e-01 -6.776696e-01 -1.006490e+00 -1.459647e+00 -2.034411e+00 -2.657618e+00 -2.866549e+00 6.523609e-01 4.002027e+00 9.271494e-01 -2.016178e-01 1.027210e+00 2.682019e-01 2.183048e-01 3.809590e-01 5.411941e-01 6.246869e-01 6.263335e-01 5.668308e-01 4.732717e-01 3.675443e-01 2.634824e-01 1.672458e-01 7.892212e-02 