# vtk DataFile Version 2.0
Comment goes here
ASCII

DATASET STRUCTURED_POINTS
FIELD FieldData 1
TIME 1 1 double
0.53000000
DIMENSIONS    64   64   1

ORIGIN    0.000   0.000   0.000
SPACING   0.015625 0.015625   1.000

POINT_DATA   4096
SCALARS Omega double
LOOKUP_TABLE default

8.248203e-14 9.743734e-14 1.183027e-13 1.664619e-13 2.075235e-13 2.297776e-13 2.337966e-13 2.182055e-13 2.480640e-13 2.433791e-13 2.991376e-13 2.813885e-13 2.175829e-13 3.104918e-13 3.989487e-13 3.198425e-13 3.690082e-13 3.212794e-13 3.866478e-13 2.231402e-13 2.700530e-13 3.252036e-13 2.973351e-13 3.495114e-13 3.530774e-13 3.225696e-13 2.957817e-13 2.720237e-13 1.914400e-13 7.298997e-14 -9.570048e-15 -1.320690e-13 -2.429126e-13 -3.276048e-13 -3.998688e-13 -3.951452e-13 -3.934683e-13 -3.785966e-13 -3.448197e-13 -3.313987e-13 -2.725399e-13 -2.545468e-13 -2.300100e-13 -2.842330e-13 -2.341789e-13 -2.035633e-13 -2.820819e-13 -2.580075e-13 -3.638216e-13 -2.727067e-13 -3.522117e-13 -3.190050e-13 -3.481473e-13 -3.432193e-13 -3.292918e-13 -2.438962e-13 -2.271835e-13 -1.611579e-13 -1.684139e-13 -1.429866e-13 -9.632305e-14 -3.888528e-14 -5.934210e-15 4.110906e-14 
-2.572285e-05 2.903011e-03 6.055605e-03 9.648192e-03 1.387810e-02 1.890870e-02 2.485629e-02 3.177036e-02 3.961879e-02 4.827080e-02 5.748681e-02 6.691231e-02 7.607232e-02 8.437392e-02 9.109564e-02 9.539139e-02 9.628273e-02 9.268707e-02 8.348331e-02 6.763600e-02 4.444332e-02 1.378925e-02 -2.344838e-02 -6.520000e-02 -1.079700e-01 -1.470901e-01 -1.771263e-01 -1.927850e-01 -1.899386e-01 -1.666611e-01 -1.240043e-01 -6.614995e-02 4.934886e-05 6.624429e-02 1.240713e-01 1.666917e-01 1.899367e-01 1.927301e-01 1.770545e-01 1.469600e-01 1.078334e-01 6.501961e-02 2.326240e-02 -1.399334e-02 -4.464867e-02 -6.783871e-02 -8.368168e-02 -9.287631e-02 -9.646775e-02 -9.557167e-02 -9.127511e-02 -8.455320e-02 -7.625062e-02 -6.708847e-02 -5.765640e-02 -4.843147e-02 -3.976588e-02 -3.190248e-02 -2.497114e-02 -1.900713e-02 -1.396075e-02 -9.717975e-03 -6.115279e-03 -2.956704e-03 
-5.501882e-05 6.123469e-03 1.275410e-02 2.027069e-02 2.906407e-02 3.944923e-02 5.163890e-02 6.570392e-02 8.154699e-02 9.887245e-02 1.171729e-01 1.357225e-01 1.535724e-01 1.695561e-01 1.822679e-01 1.900601e-01 1.910223e-01 1.830195e-01 1.638279e-01 1.313694e-01 8.423321e-02 2.217452e-02 -5.303381e-02 -1.372179e-01 -2.233152e-01 -3.019039e-01 -3.620402e-01 -3.930408e-01 -3.866059e-01 -3.388533e-01 -2.519589e-01 -1.343852e-01 2.634812e-05 1.344325e-01 2.519677e-01 3.388115e-01 3.865266e-01 3.928811e-01 3.618682e-01 3.016220e-01 2.230284e-01 1.368399e-01 5.264418e-02 -2.260262e-02 -8.466398e-02 -1.317922e-01 -1.642385e-01 -1.834065e-01 -1.913961e-01 -1.904203e-01 -1.826240e-01 -1.699111e-01 -1.539263e-01 -1.360743e-01 -1.175140e-01 -9.919839e-02 -8.184793e-02 -6.597640e-02 -5.187763e-02 -3.965523e-02 -2.923819e-02 -2.041854e-02 -1.288116e-02 -6.238154e-03 
-9.114177e-05 9.974066e-03 2.072487e-02 3.281237e-02 4.680933e-02 6.315637e-02 8.212087e-02 1.037395e-01 1.277875e-01 1.537445e-01 1.807924e-01 2.078195e-01 2.334265e-01 2.559375e-01 2.733547e-01 2.833384e-01 2.831361e-01 2.696303e-01 2.395052e-01 1.896301e-01 1.178419e-01 2.374841e-02 -8.996069e-02 -2.169358e-01 -3.464119e-01 -4.641071e-01 -5.534655e-01 -5.985322e-01 -5.870460e-01 -5.134764e-01 -3.812905e-01 -2.032929e-01 -1.744183e-04 2.029513e-01 3.809292e-01 5.131073e-01 5.867054e-01 5.981510e-01 5.531391e-01 4.636310e-01 3.459491e-01 2.163192e-01 8.931727e-02 -2.445825e-02 -1.185599e-01 -1.903283e-01 -2.401750e-01 -2.702481e-01 -2.837180e-01 -2.838856e-01 -2.738848e-01 -2.564607e-01 -2.339463e-01 -2.083389e-01 -1.813004e-01 -1.542358e-01 -1.282468e-01 -1.041608e-01 -8.249478e-02 -6.348304e-02 -4.708884e-02 -3.305235e-02 -2.093326e-02 -1.016345e-02 
-1.377949e-04 1.475275e-02 3.056041e-02 4.814323e-02 6.823050e-02 9.134236e-02 1.177357e-01 1.473327e-01 1.797002e-01 2.140268e-01 2.491555e-01 2.836139e-01 3.156442e-01 3.432096e-01 3.639095e-01 3.748968e-01 3.727312e-01 3.533815e-01 3.124507e-01 2.456723e-01 1.500658e-01 2.499314e-02 -1.259286e-01 -2.941999e-01 -4.653515e-01 -6.203647e-01 -7.374311e-01 -7.955805e-01 -7.789022e-01 -6.803133e-01 -5.047389e-01 -2.691944e-01 -8.150779e-04 2.676075e-01 5.032544e-01 6.790225e-01 7.779058e-01 7.947693e-01 7.368737e-01 6.196452e-01 4.646916e-01 2.932940e-01 1.249675e-01 -2.606460e-02 -1.511587e-01 -2.467279e-01 -3.134523e-01 -3.542832e-01 -3.735547e-01 -3.756449e-01 -3.646118e-01 -3.438898e-01 -3.163150e-01 -2.842885e-01 -2.498236e-01 -2.146845e-01 -1.803265e-01 -1.479180e-01 -1.182644e-01 -9.181178e-02 -6.863836e-02 -4.849805e-02 -3.087213e-02 -1.503817e-02 
-1.981382e-04 2.072930e-02 4.278588e-02 6.700682e-02 9.422924e-02 1.249824e-01 1.594239e-01 1.972655e-01 2.377864e-01 2.798447e-01 3.219789e-01 3.624781e-01 3.994445e-01 4.307679e-01 4.539531e-01 4.659189e-01 4.626902e-01 4.393611e-01 3.903118e-01 3.099572e-01 1.942287e-01 4.207683e-02 -1.420984e-01 -3.477048e-01 -5.566136e-01 -7.453154e-01 -8.869169e-01 -9.564229e-01 -9.354277e-01 -8.162534e-01 -6.053444e-01 -3.233048e-01 -2.325519e-03 3.187921e-01 6.012386e-01 8.129077e-01 9.331244e-01 9.549765e-01 8.862214e-01 7.444579e-01 5.558587e-01 3.465051e-01 1.407387e-01 -4.363978e-02 -1.958595e-01 -3.115314e-01 -3.917966e-01 -4.406711e-01 -4.638451e-01 -4.669222e-01 -4.548467e-01 -4.315991e-01 -4.002420e-01 -3.632773e-01 -3.227771e-01 -2.806463e-01 -2.385670e-01 -1.980131e-01 -1.601152e-01 -1.256101e-01 -9.478639e-02 -6.750077e-02 -4.322717e-02 -2.113781e-02 
-2.743547e-04 2.812255e-02 5.780951e-02 8.993634e-02 1.253686e-01 1.645456e-01 2.074213e-01 2.534046e-01 3.014442e-01 3.501078e-01 3.977901e-01 4.428322e-01 4.836009e-01 5.183708e-01 5.449739e-01 5.603705e-01 5.601135e-01 5.382036e-01 4.874112e-01 4.002426e-01 2.710849e-01 9.791695e-02 -1.142374e-01 -3.531066e-01 -5.970727e-01 -8.186102e-01 -9.870343e-01 -1.073421e+00 -1.056157e+00 -9.253764e-01 -6.885011e-01 -3.695810e-01 -5.607879e-03 3.586816e-01 6.787702e-01 9.178933e-01 1.051722e+00 1.071586e+00 9.869069e-01 8.182143e-01 5.967138e-01 3.518437e-01 1.125403e-01 -1.000258e-01 -2.733934e-01 -4.025042e-01 -4.895658e-01 -5.400921e-01 -5.617393e-01 -5.617257e-01 -5.461092e-01 -5.193642e-01 -4.845070e-01 -4.437227e-01 -3.986817e-01 -3.510229e-01 -3.023607e-01 -2.543094e-01 -2.082829e-01 -1.653491e-01 -1.260994e-01 -9.059792e-02 -5.841099e-02 -2.868569e-02 
-3.695983e-04 3.707167e-02 7.586770e-02 1.171777e-01 1.617778e-01 2.098966e-01 2.611790e-01 3.146778e-01 3.690590e-01 4.227865e-01 4.744785e-01 5.230468e-01 5.677547e-01 6.078552e-01 6.419373e-01 6.670895e-01 6.780424e-01 6.669481e-01 6.237988e-01 5.379869e-01 4.009418e-01 2.086984e-01 -3.418339e-02 -3.139840e-01 -6.053858e-01 -8.755050e-01 -1.085481e+00 -1.200833e+00 -1.196316e+00 -1.058487e+00 -7.939188e-01 -4.306063e-01 -1.212664e-02 4.068950e-01 7.727872e-01 1.043135e+00 1.189122e+00 1.200400e+00 1.088388e+00 8.775330e-01 6.068575e-01 3.134751e-01 3.249990e-02 -2.112590e-01 -4.040216e-01 -5.411189e-01 -6.268692e-01 -6.696821e-01 -6.803854e-01 -6.690007e-01 -6.434485e-01 -6.090790e-01 -5.687743e-01 -5.239913e-01 -4.754014e-01 -4.237479e-01 -3.700521e-01 -3.156971e-01 -2.621877e-01 -2.108715e-01 -1.626941e-01 -1.180306e-01 -7.666132e-02 -3.782588e-02 
-4.803549e-04 4.761342e-02 9.697233e-02 1.486066e-01 2.030503e-01 2.601887e-01 3.192881e-01 3.790805e-01 4.381565e-01 4.952888e-01 5.499510e-01 6.024065e-01 6.536016e-01 7.043469e-01 7.540939e-01 7.995071e-01 8.331576e-01 8.432796e-01 8.145453e-01 7.302793e-01 5.764013e-01 3.442063e-01 3.701810e-02 -3.305175e-01 -7.252881e-01 -1.102596e+00 -1.411658e+00 -1.602388e+00 -1.631228e+00 -1.466129e+00 -1.111152e+00 -6.097321e-01 -2.444249e-02 5.611374e-01 1.067464e+00 1.436480e+00 1.622790e+00 1.609517e+00 1.422766e+00 1.110566e+00 7.314127e-01 3.327560e-01 -3.742960e-02 -3.463967e-01 -5.798430e-01 -7.341199e-01 -8.185897e-01 -8.470513e-01 -8.364748e-01 -8.022352e-01 -7.561930e-01 -7.059410e-01 -6.547966e-01 -6.034019e-01 -5.508592e-01 -4.962298e-01 -4.391594e-01 -3.801592e-01 -3.204080e-01 -2.613186e-01 -2.041532e-01 -1.496656e-01 -9.798215e-02 -4.858810e-02 
-6.103040e-04 5.964731e-02 1.208625e-01 1.836880e-01 2.482349e-01 3.139358e-01 3.796855e-01 4.440891e-01 5.061009e-01 5.654979e-01 6.235309e-01 6.827589e-01 7.465682e-01 8.174390e-01 8.949221e-01 9.731880e-01 1.039366e+00 1.073252e+00 1.048759e+00 9.374636e-01 7.135185e-01 3.591735e-01 -1.277131e-01 -7.278833e-01 -1.393552e+00 -2.046830e+00 -2.578786e+00 -2.898620e+00 -2.942192e+00 -2.645173e+00 -2.005965e+00 -1.106541e+00 -4.563813e-02 1.012390e+00 1.918178e+00 2.589320e+00 2.940226e+00 2.928474e+00 2.604114e+00 2.064060e+00 1.408193e+00 7.365403e-01 1.313155e-01 -3.588736e-01 -7.158434e-01 -9.410828e-01 -1.053333e+00 -1.078019e+00 -1.043857e+00 -9.770707e-01 -8.979478e-01 -8.196803e-01 -7.481057e-01 -6.838649e-01 -6.243959e-01 -5.663350e-01 -5.070086e-01 -4.451262e-01 -3.808372e-01 -3.151698e-01 -2.495033e-01 -1.849569e-01 -1.221116e-01 -6.087682e-02 
-7.429913e-04 7.295347e-02 1.470215e-01 2.215037e-01 2.959109e-01 3.691700e-01 4.399562e-01 5.071589e-01 5.708237e-01 6.327120e-01 6.969464e-01 7.692463e-01 8.556068e-01 9.591320e-01 1.076625e+00 1.194928e+00 1.288569e+00 1.319883e+00 1.241188e+00 1.000460e+00 5.489387e-01 -1.504262e-01 -1.105010e+00 -2.283526e+00 -3.581677e+00 -4.836508e+00 -5.844106e+00 -6.404268e+00 -6.392119e+00 -5.665387e+00 -4.255519e+00 -2.356025e+00 -7.678675e-02 2.185276e+00 4.085510e+00 5.563515e+00 6.427321e+00 6.489819e+00 5.865990e+00 4.847229e+00 3.608872e+00 2.307206e+00 1.119742e+00 1.591921e-01 -5.456338e-01 -1.000713e+00 -1.244326e+00 -1.324627e+00 -1.293864e+00 -1.200024e+00 -1.080843e+00 -9.623353e-01 -8.577494e-01 -7.706206e-01 -6.978216e-01 -6.334124e-01 -5.715534e-01 -5.080516e-01 -4.410428e-01 -3.704302e-01 -2.972920e-01 -2.229535e-01 -1.484995e-01 -7.443942e-02 
-8.859493e-04 8.716792e-02 1.746873e-01 2.608406e-01 3.443932e-01 4.238331e-01 4.979566e-01 5.666198e-01 6.319533e-01 6.988491e-01 7.752813e-01 8.703129e-01 9.913411e-01 1.138475e+00 1.299441e+00 1.443674e+00 1.519925e+00 1.455821e+00 1.162719e+00 5.443233e-01 -4.896869e-01 -2.003120e+00 -4.006510e+00 -6.412231e+00 -9.030406e+00 -1.153596e+01 -1.337058e+01 -1.408605e+01 -1.372229e+01 -1.198757e+01 -9.011046e+00 -5.112063e+00 -1.071443e-01 4.830929e+00 8.700871e+00 1.180514e+01 1.388851e+01 1.428886e+01 1.324219e+01 1.146961e+01 9.100842e+00 6.477235e+00 4.049121e+00 2.033769e+00 5.094855e-01 -5.334280e-01 -1.159310e+00 -1.457635e+00 -1.524584e+00 -1.449561e+00 -1.304979e+00 -1.143010e+00 -9.944772e-01 -8.722403e-01 -7.763113e-01 -6.994250e-01 -6.324294e-01 -5.672469e-01 -4.988531e-01 -4.250149e-01 -3.458166e-01 -2.624362e-01 -1.763889e-01 -8.892401e-02 
-9.999791e-04 1.018966e-01 2.030253e-01 3.004377e-01 3.920997e-01 4.762819e-01 5.524810e-01 6.224325e-01 6.915027e-01 7.687020e-01 8.661358e-01 9.948426e-01 1.159591e+00 1.349799e+00 1.531624e+00 1.639684e+00 1.573232e+00 1.197343e+00 3.500324e-01 -1.136527e+00 -3.410009e+00 -6.552501e+00 -1.053784e+01 -1.515670e+01 -1.988504e+01 -2.443374e+01 -2.761349e+01 -2.660268e+01 -2.119187e+01 -1.387470e+01 -7.767278e+00 -3.988885e+00 -6.229336e-02 3.802449e+00 7.529396e+00 1.354039e+01 2.128849e+01 2.676232e+01 2.683715e+01 2.408403e+01 2.023151e+01 1.534292e+01 1.063888e+01 6.629805e+00 3.468121e+00 1.174505e+00 -3.293621e-01 -1.189552e+00 -1.573311e+00 -1.644308e+00 -1.537676e+00 -1.355576e+00 -1.163983e+00 -9.976510e-01 -8.675829e-01 -7.692818e-01 -6.917322e-01 -6.227104e-01 -5.530584e-01 -4.772456e-01 -3.934387e-01 -3.020755e-01 -2.048703e-01 -1.038592e-01 
-1.106125e-03 1.166876e-01 2.311973e-01 3.391977e-01 4.379267e-01 5.258633e-01 6.039722e-01 6.769204e-01 7.542827e-01 8.494969e-01 9.774916e-01 1.147047e+00 1.351949e+00 1.556708e+00 1.685530e+00 1.609434e+00 1.143774e+00 4.978073e-02 -1.939812e+00 -5.074927e+00 -9.515502e+00 -1.527327e+01 -2.218409e+01 -3.007633e+01 -3.617679e+01 -3.280997e+01 -1.915429e+01 -6.096946e+00 -2.265592e+00 -2.512708e+00 -1.202642e+00 -8.042368e-01 -1.396612e-02 9.092806e-01 1.239199e+00 2.281893e+00 2.170840e+00 6.078330e+00 1.761356e+01 3.250631e+01 3.744549e+01 3.026626e+01 2.231403e+01 1.541932e+01 9.646370e+00 5.166866e+00 1.995721e+00 -2.123810e-02 -1.132545e+00 -1.609087e+00 -1.690361e+00 -1.563180e+00 -1.357693e+00 -1.151054e+00 -9.796788e-01 -8.502839e-01 -7.543378e-01 -6.768115e-01 -6.041334e-01 -5.264932e-01 -4.390792e-01 -3.408031e-01 -2.331409e-01 -1.188332e-01 
-1.131856e-03 1.312766e-01 2.587084e-01 3.766297e-01 4.817998e-01 5.734941e-01 6.550338e-01 7.348979e-01 8.272407e-01 9.487173e-01 1.113138e+00 1.318551e+00 1.533366e+00 1.675483e+00 1.597022e+00 1.068941e+00 -2.190052e-01 -2.635534e+00 -6.542019e+00 -1.215194e+01 -1.940740e+01 -2.805950e+01 -3.674464e+01 -3.655076e+01 -2.163387e+01 -8.140795e+00 -5.865963e+00 -7.256953e+00 -1.164247e+01 -1.314365e+01 -8.316515e+00 -3.523866e+00 -6.349278e-02 3.534677e+00 8.203539e+00 1.302669e+01 1.117786e+01 7.429904e+00 5.513411e+00 8.015494e+00 2.183281e+01 3.589067e+01 3.688062e+01 2.825211e+01 1.966006e+01 1.233107e+01 6.654020e+00 2.699065e+00 2.516234e-01 -1.056705e+00 -1.596446e+00 -1.680462e+00 -1.539673e+00 -1.323704e+00 -1.116328e+00 -9.499865e-01 -8.272877e-01 -7.344243e-01 -6.546849e-01 -5.736258e-01 -4.825729e-01 -3.780106e-01 -2.605711e-01 -1.334392e-01 
-1.128964e-03 1.454709e-01 2.853960e-01 4.129623e-01 5.248634e-01 6.218880e-01 7.104660e-01 8.032818e-01 9.181042e-01 1.071334e+00 1.267923e+00 1.481618e+00 1.634692e+00 1.570101e+00 1.034814e+00 -3.325197e-01 -2.974806e+00 -7.338653e+00 -1.367814e+01 -2.175270e+01 -3.055302e+01 -3.722216e+01 -3.044506e+01 -1.606742e+01 -1.060353e+01 -1.543824e+01 -2.249989e+01 -2.258850e+01 -1.853703e+01 -1.254351e+01 -6.100558e+00 -1.874661e+00 -6.879035e-02 1.684037e+00 5.754949e+00 1.255483e+01 1.851208e+01 2.270770e+01 2.287417e+01 1.525750e+01 9.555539e+00 1.525381e+01 3.008155e+01 3.690564e+01 3.086245e+01 2.201892e+01 1.385195e+01 7.444825e+00 3.037515e+00 3.641545e-01 -1.023471e+00 -1.570317e+00 -1.639948e+00 -1.487334e+00 -1.272113e+00 -1.073288e+00 -9.183582e-01 -8.025734e-01 -7.096424e-01 -6.214859e-01 -5.251862e-01 -4.140399e-01 -2.871064e-01 -1.475890e-01 
-9.838735e-04 1.595113e-01 3.118586e-01 4.495881e-01 5.698999e-01 6.757602e-01 7.771087e-01 8.901688e-01 1.033560e+00 1.216809e+00 1.424388e+00 1.587220e+00 1.557307e+00 1.075563e+00 -2.347677e-01 -2.850560e+00 -7.252322e+00 -1.369642e+01 -2.179748e+01 -2.996214e+01 -3.422649e+01 -2.843398e+01 -1.706274e+01 -1.707558e+01 -2.541585e+01 -2.473054e+01 -1.335227e+01 -3.277565e-01 6.881379e+00 7.701925e+00 5.467709e+00 2.725603e+00 -2.423906e-02 -2.817762e+00 -5.582328e+00 -7.410754e+00 -6.301436e+00 2.361117e-02 1.280639e+01 2.441590e+01 2.550526e+01 1.708078e+01 1.651980e+01 2.808077e+01 3.425197e+01 3.020931e+01 2.199584e+01 1.383540e+01 7.348934e+00 2.909653e+00 2.646092e-01 -1.065390e+00 -1.558160e+00 -1.591883e+00 -1.429040e+00 -1.219426e+00 -1.034141e+00 -8.892958e-01 -7.757600e-01 -6.746645e-01 -5.695361e-01 -4.500897e-01 -3.131316e-01 -1.612997e-01 
-7.967976e-04 1.737250e-01 3.391158e-01 4.887140e-01 6.208684e-01 7.412230e-01 8.628866e-01 1.003651e+00 1.177801e+00 1.378611e+00 1.554941e+00 1.575465e+00 1.200957e+00 6.198458e-02 -2.313179e+00 -6.399856e+00 -1.243576e+01 -1.997715e+01 -2.710248e+01 -3.172987e+01 -2.881408e+01 -2.025696e+01 -2.146953e+01 -2.452721e+01 -1.278261e+01 2.742746e+00 9.448843e+00 9.478186e+00 8.191960e+00 6.515769e+00 4.458500e+00 2.229469e+00 -8.737210e-03 -2.228617e+00 -4.367521e+00 -6.233120e+00 -7.862603e+00 -9.648022e+00 -9.822500e+00 -2.885445e+00 1.345220e+01 2.419258e+01 2.129282e+01 2.036400e+01 2.811026e+01 3.183637e+01 2.721784e+01 2.007453e+01 1.255414e+01 6.490815e+00 2.369485e+00 -3.453188e-02 -1.192535e+00 -1.576202e+00 -1.558697e+00 -1.381488e+00 -1.178787e+00 -1.002846e+00 -8.612229e-01 -7.395583e-01 -6.198557e-01 -4.886146e-01 -3.398896e-01 -1.751045e-01 
-4.161027e-04 1.889546e-01 3.689938e-01 5.336338e-01 6.830399e-01 8.256357e-01 9.765089e-01 1.151371e+00 1.353119e+00 1.547128e+00 1.632084e+00 1.398579e+00 5.126796e-01 -1.479153e+00 -5.037812e+00 -1.039142e+01 -1.709640e+01 -2.347399e+01 -2.826447e+01 -3.054953e+01 -2.460293e+01 -2.076039e+01 -1.829592e+01 -5.516559e+00 5.221345e+00 8.155451e+00 8.451832e+00 7.966209e+00 6.859105e+00 5.377650e+00 3.665007e+00 1.844535e+00 4.040440e-03 -1.813678e+00 -3.562513e+00 -5.184383e+00 -6.663016e+00 -7.898650e+00 -8.409845e+00 -8.012284e+00 -4.987970e+00 4.948507e+00 1.808121e+01 2.067622e+01 2.410781e+01 3.072936e+01 2.808395e+01 2.326414e+01 1.717419e+01 1.049657e+01 5.119102e+00 1.527763e+00 -4.902314e-01 -1.391808e+00 -1.632720e+00 -1.549145e+00 -1.353999e+00 -1.150401e+00 -9.743403e-01 -8.231746e-01 -6.810856e-01 -5.325936e-01 -3.688982e-01 -1.895421e-01 
1.069549e-05 2.058850e-01 4.032792e-01 5.876917e-01 7.617055e-01 9.362316e-01 1.126144e+00 1.340273e+00 1.561601e+00 1.716898e+00 1.643351e+00 1.051903e+00 -4.675610e-01 -3.374836e+00 -7.944571e+00 -1.378405e+01 -1.903771e+01 -2.247428e+01 -3.176729e+01 -3.017637e+01 -1.711192e+01 -1.225989e+01 -5.304484e+00 2.837179e+00 5.945548e+00 7.039868e+00 6.999022e+00 6.427176e+00 5.520589e+00 4.357875e+00 3.002026e+00 1.528694e+00 1.030052e-02 -1.491653e+00 -2.920875e+00 -4.231055e+00 -5.391034e+00 -6.347972e+00 -6.956257e+00 -7.013743e+00 -6.018277e+00 -2.939120e+00 5.131509e+00 1.208564e+01 1.699789e+01 2.995470e+01 3.174173e+01 2.262352e+01 1.909395e+01 1.387933e+01 8.038829e+00 3.445379e+00 5.092003e-01 -1.032874e+00 -1.637886e+00 -1.716719e+00 -1.562072e+00 -1.339327e+00 -1.123789e+00 -9.332425e-01 -7.589689e-01 -5.857617e-01 -4.022853e-01 -2.056037e-01 
6.458071e-04 2.254879e-01 4.440257e-01 6.544271e-01 8.622607e-01 1.080186e+00 1.320050e+00 1.578129e+00 1.809456e+00 1.893761e+00 1.605190e+00 5.872342e-01 -1.595049e+00 -5.307287e+00 -1.043448e+01 -1.567759e+01 -1.790091e+01 -2.714524e+01 -3.357597e+01 -1.748247e+01 -7.055168e+00 -5.995464e+00 -3.307008e-01 3.486408e+00 5.194925e+00 5.685315e+00 5.538281e+00 5.051582e+00 4.341330e+00 3.444466e+00 2.391145e+00 1.227443e+00 1.210505e-02 -1.193349e+00 -2.331833e+00 -3.361608e+00 -4.257312e+00 -4.990912e+00 -5.499699e+00 -5.661072e+00 -5.200164e+00 -3.526693e+00 2.167325e-01 5.912369e+00 7.181485e+00 1.687591e+01 3.392506e+01 2.845273e+01 1.809057e+01 1.568589e+01 1.050553e+01 5.390805e+00 1.656705e+00 -5.527076e-01 -1.590370e+00 -1.888999e+00 -1.807893e+00 -1.576180e+00 -1.316810e+00 -1.076153e+00 -8.582976e-01 -6.511909e-01 -4.417203e-01 -2.239229e-01 
1.336089e-03 2.481060e-01 4.922666e-01 7.358905e-01 9.880920e-01 1.262386e+00 1.564519e+00 1.872904e+00 2.107814e+00 2.098827e+00 1.562947e+00 1.071885e-01 -2.667791e+00 -6.905926e+00 -1.194164e+01 -1.529900e+01 -2.199949e+01 -3.794956e+01 -2.226838e+01 -1.855508e+00 -6.878119e+00 -4.734068e+00 5.074488e-01 3.063561e+00 4.056163e+00 4.278294e+00 4.134388e+00 3.792083e+00 3.294214e+00 2.645291e+00 1.856571e+00 9.614646e-01 1.160492e-02 -9.328583e-01 -1.814752e+00 -2.592198e+00 -3.241238e+00 -3.751678e+00 -4.107632e+00 -4.262413e+00 -4.058847e+00 -3.104621e+00 -6.150925e-01 4.600358e+00 7.123356e+00 1.497336e+00 2.161814e+01 3.792771e+01 2.192821e+01 1.530063e+01 1.201491e+01 7.012797e+00 2.753941e+00 -5.500826e-02 -1.537822e+00 -2.089190e+00 -2.104277e+00 -1.870160e+00 -1.560639e+00 -1.257500e+00 -9.830153e-01 -7.313727e-01 -4.886033e-01 -2.451631e-01 
2.189256e-03 2.738155e-01 5.482254e-01 8.327333e-01 1.140702e+00 1.485691e+00 1.864713e+00 2.233886e+00 2.474038e+00 2.365247e+00 1.579665e+00 -2.778090e-01 -3.492748e+00 -7.909182e+00 -1.222304e+01 -1.348376e+01 -3.142068e+01 -3.194286e+01 -3.696472e+00 -2.916133e+00 -8.126367e+00 -2.661874e+00 6.692114e-01 2.199634e+00 2.779827e+00 2.929762e+00 2.876461e+00 2.693879e+00 2.387569e+00 1.949864e+00 1.386416e+00 7.244988e-01 1.003824e-02 -7.017320e-01 -1.357160e+00 -1.915665e+00 -2.354388e+00 -2.668051e+00 -2.859043e+00 -2.919779e+00 -2.780894e+00 -2.221801e+00 -7.326896e-01 2.525634e+00 8.009453e+00 3.288365e+00 3.259125e+00 3.107656e+01 3.120076e+01 1.315633e+01 1.215692e+01 7.984486e+00 3.579517e+00 3.382955e-01 -1.545855e+00 -2.349053e+00 -2.465948e+00 -2.228072e+00 -1.858483e+00 -1.478788e+00 -1.133735e+00 -8.264013e-01 -5.428020e-01 -2.691525e-01 
3.117663e-03 3.015544e-01 6.098744e-01 9.420119e-01 1.316501e+00 1.746540e+00 2.218941e+00 2.664666e+00 2.923392e+00 2.728532e+00 1.720783e+00 -4.720366e-01 -3.960675e+00 -8.102852e+00 -1.036013e+01 -1.748321e+01 -3.766059e+01 -1.462635e+01 5.363151e+00 -8.405666e+00 -6.079254e+00 -2.051983e+00 1.185996e-01 1.123747e+00 1.557903e+00 1.741181e+00 1.804614e+00 1.771228e+00 1.629667e+00 1.367875e+00 9.910156e-01 5.239066e-01 8.047098e-03 -5.066059e-01 -9.708807e-01 -1.346033e+00 -1.609121e+00 -1.755126e+00 -1.793526e+00 -1.734740e+00 -1.558367e+00 -1.137940e+00 -1.576413e-01 1.981049e+00 5.960659e+00 8.706856e+00 -5.406436e+00 1.394413e+01 3.805669e+01 1.844504e+01 1.073665e+01 8.192705e+00 4.030132e+00 5.260649e-01 -1.684236e+00 -2.707310e+00 -2.910569e+00 -2.654992e+00 -2.209589e+00 -1.737012e+00 -1.307242e+00 -9.336013e-01 -6.025029e-01 -2.950139e-01 
4.078940e-03 3.292094e-01 6.728916e-01 1.057022e+00 1.506461e+00 2.034433e+00 2.617639e+00 3.161533e+00 3.464350e+00 3.220069e+00 2.036314e+00 -4.053022e-01 -4.141288e+00 -8.294978e+00 -1.018445e+01 -2.972170e+01 -3.200885e+01 3.913238e-01 4.893439e-01 -9.912577e+00 -5.306129e+00 -2.267154e+00 -6.805632e-01 1.021428e-01 5.163068e-01 7.760812e-01 9.493646e-01 1.037371e+00 1.023845e+00 8.991939e-01 6.700975e-01 3.600070e-01 6.139915e-03 -3.472852e-01 -6.563765e-01 -8.852562e-01 -1.011202e+00 -1.027440e+00 -9.423042e-01 -7.714992e-01 -5.156462e-01 -1.103272e-01 6.531304e-01 2.204989e+00 5.172289e+00 9.661778e+00 -1.604832e-01 -1.130462e+00 3.098009e+01 2.940365e+01 9.368309e+00 8.051776e+00 4.127386e+00 4.458731e-01 -1.990267e+00 -3.185630e+00 -3.439558e+00 -3.142546e+00 -2.601466e+00 -2.020022e+00 -1.493665e+00 -1.045915e+00 -6.632995e-01 -3.206788e-01 
5.066110e-03 3.532174e-01 7.296365e-01 1.165138e+00 1.692115e+00 2.324753e+00 3.032044e+00 3.695157e+00 4.076256e+00 3.832036e+00 2.544045e+00 -3.453372e-02 -3.796214e+00 -7.628153e+00 -1.057283e+01 -3.454167e+01 -1.720212e+01 8.851993e+00 -7.683223e+00 -9.308336e+00 -5.065860e+00 -2.668137e+00 -1.408877e+00 -7.176812e-01 -2.775814e-01 5.409193e-02 3.111851e-01 4.857944e-01 5.637766e-01 5.392930e-01 4.213660e-01 2.320727e-01 4.476837e-03 -2.230234e-01 -4.121498e-01 -5.304221e-01 -5.559521e-01 -4.794924e-01 -3.061668e-01 -4.963175e-02 2.810933e-01 7.173178e-01 1.395350e+00 2.621409e+00 4.947442e+00 9.050449e+00 7.849551e+00 -9.209129e+00 1.663307e+01 3.468488e+01 1.003973e+01 7.077812e+00 3.716561e+00 8.555907e-02 -2.474057e+00 -3.772789e+00 -4.031120e+00 -3.660909e+00 -3.005203e+00 -2.303194e+00 -1.674570e+00 -1.150756e+00 -7.175766e-01 -3.426026e-01 
5.825789e-03 3.683713e-01 7.689444e-01 1.247515e+00 1.844707e+00 2.577419e+00 3.411225e+00 4.207724e+00 4.704067e+00 4.515341e+00 3.210282e+00 5.335265e-01 -3.277168e+00 -7.302654e+00 -1.634148e+01 -3.055621e+01 -3.939562e+00 6.530847e+00 -1.240440e+01 -8.277583e+00 -4.878492e+00 -2.976103e+00 -1.924832e+00 -1.278537e+00 -8.115286e-01 -4.321685e-01 -1.251506e-01 1.005008e-01 2.351094e-01 2.773059e-01 2.377158e-01 1.367786e-01 3.186908e-03 -1.304390e-01 -2.315162e-01 -2.715389e-01 -2.300627e-01 -9.610634e-02 1.293779e-01 4.374640e-01 8.186516e-01 1.287827e+00 1.932288e+00 2.967992e+00 4.806827e+00 8.011370e+00 1.169908e+01 -6.910495e+00 2.537037e+00 3.037081e+01 1.803179e+01 7.749267e+00 3.545989e+00 -3.269671e-01 -3.052673e+00 -4.398773e+00 -4.620855e+00 -4.148622e+00 -3.368892e+00 -2.546535e+00 -1.821665e+00 -1.229814e+00 -7.547039e-01 -3.560903e-01 
6.324855e-03 3.684558e-01 7.767824e-01 1.279188e+00 1.923893e+00 2.732121e+00 3.671261e+00 4.592501e+00 5.224822e+00 5.146790e+00 3.933676e+00 1.254898e+00 -2.581196e+00 -6.079579e+00 -2.335691e+01 -2.359125e+01 4.039517e+00 1.274595e+00 -1.084050e+01 -7.088499e+00 -4.551047e+00 -3.062895e+00 -2.170023e+00 -1.567229e+00 -1.097219e+00 -7.054886e-01 -3.838370e-01 -1.404724e-01 2.032503e-02 1.001742e-01 1.106682e-01 6.990356e-02 2.174134e-03 -6.561371e-02 -1.065635e-01 -9.637752e-02 -1.687469e-02 1.439504e-01 3.880652e-01 7.121869e-01 1.108516e+00 1.587433e+00 2.205649e+00 3.129934e+00 4.688522e+00 7.438219e+00 1.201147e+01 1.115114e+00 -5.689129e+00 2.058761e+01 2.461070e+01 7.618270e+00 3.449986e+00 -7.496899e-01 -3.617368e+00 -4.941311e+00 -5.089531e+00 -4.503055e+00 -3.611488e+00 -2.691541e+00 -1.895576e+00 -1.258613e+00 -7.608702e-01 -3.550281e-01 
6.253744e-03 3.466518e-01 7.375782e-01 1.231403e+00 1.880953e+00 2.712248e+00 3.698748e+00 4.695229e+00 5.440765e+00 5.502693e+00 4.468353e+00 1.951270e+00 -1.755322e+00 -4.177906e+00 -2.257769e+01 -1.419980e+01 5.778167e+00 -4.484198e+00 -7.934686e+00 -5.666427e+00 -3.964712e+00 -2.867395e+00 -2.134291e+00 -1.600365e+00 -1.162739e+00 -7.954002e-01 -4.923367e-01 -2.603243e-01 -9.934822e-02 -6.003225e-03 3.099566e-02 2.692742e-02 1.479006e-03 -2.401084e-02 -2.821460e-02 8.649570e-03 1.019487e-01 2.634075e-01 4.967272e-01 8.030785e-01 1.176684e+00 1.627491e+00 2.188688e+00 2.984721e+00 4.229828e+00 6.294893e+00 9.417426e+00 6.576385e+00 -6.441151e+00 1.232898e+01 2.431180e+01 6.925657e+00 3.129143e+00 -1.194413e+00 -4.021626e+00 -5.227687e+00 -5.267924e+00 -4.585722e+00 -3.628539e+00 -2.666534e+00 -1.850341e+00 -1.209966e+00 -7.214725e-01 -3.332955e-01 
5.530132e-03 2.976666e-01 6.384698e-01 1.078746e+00 1.670032e+00 2.440833e+00 3.372776e+00 4.339770e+00 5.111136e+00 5.284456e+00 4.457348e+00 2.192583e+00 -1.559521e+00 -5.645438e+00 -2.114907e+01 -8.331759e+00 6.432742e+00 -6.156557e+00 -6.672091e+00 -4.621959e+00 -3.289975e+00 -2.443122e+00 -1.855686e+00 -1.413787e+00 -1.044142e+00 -7.345056e-01 -4.790022e-01 -2.825554e-01 -1.425373e-01 -5.517723e-02 -1.058957e-02 3.117467e-03 9.266372e-04 -1.284556e-03 1.235154e-02 5.692798e-02 1.444148e-01 2.850778e-01 4.829282e-01 7.415942e-01 1.057065e+00 1.438422e+00 1.902884e+00 2.535488e+00 3.465619e+00 4.929231e+00 7.066532e+00 6.606250e+00 -7.375264e+00 5.914834e+00 2.042583e+01 6.772284e+00 2.497264e+00 -1.537208e+00 -4.033962e+00 -5.017033e+00 -4.942760e+00 -4.233772e+00 -3.305545e+00 -2.397617e+00 -1.641589e+00 -1.059176e+00 -6.240141e-01 -2.858044e-01 
4.168147e-03 2.198416e-01 4.745254e-01 8.092892e-01 1.266094e+00 1.870287e+00 2.611442e+00 3.396426e+00 4.049578e+00 4.253473e+00 3.667939e+00 1.919688e+00 -1.102984e+00 -4.855373e+00 -1.428157e+01 -3.353537e+00 5.349697e+00 -4.554106e+00 -4.373499e+00 -3.194831e+00 -2.344311e+00 -1.775612e+00 -1.364090e+00 -1.047676e+00 -7.799106e-01 -5.564823e-01 -3.721909e-01 -2.303200e-01 -1.276508e-01 -6.107036e-02 -2.326691e-02 -6.083085e-03 5.695014e-04 7.219590e-03 2.438397e-02 6.224839e-02 1.290254e-01 2.323188e-01 3.754129e-01 5.622517e-01 7.901401e-01 1.066159e+00 1.396786e+00 1.832494e+00 2.438029e+00 3.333540e+00 4.560080e+00 5.068939e+00 -5.117510e+00 2.669414e+00 1.357734e+01 4.832549e+00 1.407759e+00 -1.568566e+00 -3.396688e+00 -4.069698e+00 -3.929107e+00 -3.318914e+00 -2.561390e+00 -1.837730e+00 -1.244523e+00 -7.944348e-01 -4.635807e-01 -2.108892e-01 
2.214645e-03 1.171410e-01 2.539065e-01 4.356765e-01 6.862197e-01 1.020753e+00 1.434871e+00 1.879301e+00 2.257973e+00 2.395227e+00 2.091385e+00 1.138840e+00 -5.251260e-01 -2.793989e+00 -7.639072e+00 -1.733868e+00 2.792597e+00 -2.290125e+00 -2.128594e+00 -1.617651e+00 -1.216256e+00 -9.333205e-01 -7.219320e-01 -5.565957e-01 -4.158976e-01 -2.987603e-01 -2.022436e-01 -1.279290e-01 -7.372934e-02 -3.790312e-02 -1.654912e-02 -5.526345e-03 2.520132e-04 6.031225e-03 1.705043e-02 3.844847e-02 7.439418e-02 1.289394e-01 2.039064e-01 3.017455e-01 4.211149e-01 5.657872e-01 7.374320e-01 9.587879e-01 1.254755e+00 1.670690e+00 2.193754e+00 2.362694e+00 -3.046552e+00 1.020887e+00 7.329792e+00 2.925817e+00 6.046503e-01 -1.008806e+00 -1.974899e+00 -2.310590e+00 -2.199809e+00 -1.840671e+00 -1.409301e+00 -1.003788e+00 -6.748491e-01 -4.277921e-01 -2.480901e-01 -1.123808e-01 
5.563283e-14 5.864892e-14 9.046109e-14 1.833660e-13 2.781052e-13 3.596492e-13 3.587444e-13 3.047784e-13 1.385590e-13 -1.188132e-13 -1.074119e-13 6.982076e-13 3.472846e-12 7.385511e-12 1.815520e-12 1.062084e-11 3.769724e-12 -1.597138e-11 -1.006358e-11 -6.117279e-12 -4.235276e-12 -3.082228e-12 -2.267163e-12 -1.734410e-12 -1.102691e-12 -8.024332e-13 -5.158862e-13 -2.548853e-13 -1.216241e-13 -4.281414e-14 1.375521e-14 2.708612e-14 3.946924e-14 6.505816e-14 6.007007e-14 3.072974e-14 2.102418e-14 6.556146e-15 -1.183136e-14 -1.104634e-14 -5.320538e-14 9.761735e-14 3.871293e-13 1.115201e-12 2.890767e-12 6.399604e-12 1.376260e-11 2.856246e-11 2.501391e-11 -1.850139e-11 -4.353683e-11 -1.770582e-11 2.924130e-12 2.763676e-12 1.498927e-12 8.805592e-13 6.807541e-13 5.995749e-13 5.125647e-13 3.512603e-13 2.613369e-13 1.914409e-13 1.300627e-13 7.241790e-14 
-2.214645e-03 -1.171410e-01 -2.539065e-01 -4.356765e-01 -6.862197e-01 -1.020753e+00 -1.434871e+00 -1.879301e+00 -2.257973e+00 -2.395227e+00 -2.091385e+00 -1.138840e+00 5.251260e-01 2.793989e+00 7.639072e+00 1.733868e+00 -2.792597e+00 2.290125e+00 2.128594e+00 1.617651e+00 1.216256e+00 9.333205e-01 7.219320e-01 5.565957e-01 4.158976e-01 2.987603e-01 2.022436e-01 1.279290e-01 7.372934e-02 3.790312e-02 1.654912e-02 5.526345e-03 -2.520132e-04 -6.031225e-03 -1.705043e-02 -3.844847e-02 -7.439418e-02 -1.289394e-01 -2.039064e-01 -3.017455e-01 -4.211149e-01 -5.657872e-01 -7.374320e-01 -9.587879e-01 -1.254755e+00 -1.670690e+00 -2.193754e+00 -2.362694e+00 3.046552e+00 -1.020887e+00 -7.329792e+00 -2.925817e+00 -6.046503e-01 1.008806e+00 1.974899e+00 2.310590e+00 2.199809e+00 1.840671e+00 1.409301e+00 1.003788e+00 6.748491e-01 4.277921e-01 2.480901e-01 1.123808e-01 