# vtk DataFile Version 2.0
Comment goes here
ASCII

DATASET STRUCTURED_POINTS
FIELD FieldData 1
TIME 1 1 double
0.67000000
DIMENSIONS    64   64   1

ORIGIN    0.000   0.000   0.000
SPACING   0.015625 0.015625   1.000

POINT_DATA   4096
SCALARS Omega double
LOOKUP_TABLE default

4.227310e-14 7.462142e-14 1.080853e-13 1.414524e-13 1.794602e-13 2.088759e-13 2.207271e-13 2.190029e-13 2.331392e-13 2.342068e-13 2.660277e-13 2.725270e-13 2.293165e-13 2.367165e-13 2.688926e-13 2.405201e-13 2.428569e-13 2.131213e-13 3.113233e-13 3.410642e-13 3.789534e-13 4.529608e-13 4.421767e-13 5.284833e-13 6.261695e-13 6.753033e-13 7.168822e-13 6.923067e-13 6.471708e-13 4.743488e-13 2.855809e-13 5.770762e-14 -1.945401e-13 -4.305603e-13 -6.391301e-13 -7.989452e-13 -8.832987e-13 -9.136026e-13 -9.238804e-13 -8.601844e-13 -7.738266e-13 -6.584106e-13 -6.216102e-13 -5.602294e-13 -4.946439e-13 -4.564061e-13 -4.880137e-13 -4.711698e-13 -4.413333e-13 -4.034070e-13 -3.747107e-13 -3.600462e-13 -3.528737e-13 -2.908954e-13 -2.560117e-13 -2.788330e-13 -2.260806e-13 -1.594843e-13 -1.428391e-13 -1.189625e-13 -7.854813e-14 -3.849172e-14 -2.091981e-14 4.905440e-15 
-8.557690e-05 5.311769e-03 1.078716e-02 1.641600e-02 2.224568e-02 2.830713e-02 3.458390e-02 4.102973e-02 4.753816e-02 5.395207e-02 6.004570e-02 6.550333e-02 6.993871e-02 7.281824e-02 7.356438e-02 7.140943e-02 6.564337e-02 5.540805e-02 4.011659e-02 1.923151e-02 -7.229546e-03 -3.884740e-02 -7.443430e-02 -1.120177e-01 -1.488443e-01 -1.812312e-01 -2.049835e-01 -2.155743e-01 -2.088971e-01 -1.824349e-01 -1.360838e-01 -7.347169e-02 -1.463834e-03 7.073033e-02 1.338908e-01 1.809269e-01 2.081252e-01 2.153580e-01 2.051640e-01 1.816118e-01 1.492514e-01 1.123958e-01 7.468042e-02 3.899648e-02 7.253316e-03 -1.929549e-02 -4.025020e-02 -5.560105e-02 -6.586084e-02 -7.165928e-02 -7.381498e-02 -7.308165e-02 -7.019426e-02 -6.575991e-02 -6.029259e-02 -5.419340e-02 -4.776953e-02 -4.125178e-02 -3.479588e-02 -2.850835e-02 -2.243783e-02 -1.659875e-02 -1.096407e-02 -5.483468e-03 
-1.746772e-04 1.081998e-02 2.195938e-02 3.338432e-02 4.518044e-02 5.740490e-02 7.002134e-02 8.294038e-02 9.595174e-02 1.087498e-01 1.208855e-01 1.317306e-01 1.405008e-01 1.461090e-01 1.473582e-01 1.426541e-01 1.304984e-01 1.090725e-01 7.709654e-02 3.336097e-02 -2.221059e-02 -8.890409e-02 -1.644010e-01 -2.447391e-01 -3.242349e-01 -3.950762e-01 -4.481243e-01 -4.731644e-01 -4.605873e-01 -4.040276e-01 -3.025356e-01 -1.638173e-01 -3.422497e-03 1.574360e-01 2.974712e-01 4.006199e-01 4.589268e-01 4.728264e-01 4.487119e-01 3.961302e-01 3.253341e-01 2.457562e-01 1.650988e-01 8.936467e-02 2.237853e-02 -3.340205e-02 -7.730095e-02 -1.094179e-01 -1.309064e-01 -1.431390e-01 -1.478515e-01 -1.466325e-01 -1.410110e-01 -1.322434e-01 -1.213795e-01 -1.092325e-01 -9.641512e-02 -8.338546e-02 -7.044742e-02 -5.781042e-02 -4.556911e-02 -3.375520e-02 -2.231950e-02 -1.117020e-02 
-2.731068e-04 1.669969e-02 3.386242e-02 5.140033e-02 6.942243e-02 8.800052e-02 1.070765e-01 1.265197e-01 1.460256e-01 1.651487e-01 1.832210e-01 1.992939e-01 2.121526e-01 2.200989e-01 2.212183e-01 2.129597e-01 1.928727e-01 1.579785e-01 1.061090e-01 3.513805e-02 -5.528055e-02 -1.643614e-01 -2.887266e-01 -4.223947e-01 -5.564452e-01 -6.780724e-01 -7.718425e-01 -8.194406e-01 -8.029117e-01 -7.089121e-01 -5.338846e-01 -2.903170e-01 -6.387427e-03 2.784727e-01 5.246108e-01 7.028875e-01 8.002025e-01 8.192733e-01 7.733515e-01 6.804431e-01 5.588228e-01 4.245697e-01 2.902774e-01 1.654451e-01 5.583479e-02 -3.497681e-02 -1.062441e-01 -1.583806e-01 -1.934039e-01 -2.136405e-01 -2.219329e-01 -2.208742e-01 -2.129175e-01 -2.000668e-01 -1.839686e-01 -1.658796e-01 -1.467290e-01 -1.271966e-01 -1.077270e-01 -8.862252e-02 -7.002168e-02 -5.197533e-02 -3.442312e-02 -1.724690e-02 
-3.802902e-04 2.309274e-02 4.676935e-02 7.085222e-02 9.544990e-02 1.206388e-01 1.463320e-01 1.723676e-01 1.983499e-01 2.237062e-01 2.475319e-01 2.685312e-01 2.849726e-01 2.944335e-01 2.940980e-01 2.802467e-01 2.492242e-01 1.966194e-01 1.191280e-01 1.341638e-02 -1.213248e-01 -2.845149e-01 -4.718028e-01 -6.752029e-01 -8.821490e-01 -1.073688e+00 -1.225999e+00 -1.308956e+00 -1.291552e+00 -1.148440e+00 -8.703163e-01 -4.754284e-01 -1.093572e-02 4.553003e-01 8.547997e-01 1.138794e+00 1.287730e+00 1.309628e+00 1.229504e+00 1.078616e+00 8.868866e-01 6.794330e-01 4.748449e-01 2.866994e-01 1.226289e-01 -1.276958e-02 -1.189599e-01 -1.969028e-01 -2.497448e-01 -2.810330e-01 -2.949753e-01 -2.954252e-01 -2.859731e-01 -2.695526e-01 -2.485277e-01 -2.246812e-01 -1.992919e-01 -1.732761e-01 -1.472099e-01 -1.214828e-01 -9.626902e-02 -7.164366e-02 -4.754579e-02 -2.385375e-02 
-5.023087e-04 3.008746e-02 6.085676e-02 9.198967e-02 1.235715e-01 1.556661e-01 1.881583e-01 2.208549e-01 2.532743e-01 2.846997e-01 3.139458e-01 3.392745e-01 3.582792e-01 3.675969e-01 3.632315e-01 3.400014e-01 2.927548e-01 2.153966e-01 1.033348e-01 -4.813250e-02 -2.402700e-01 -4.728744e-01 -7.405861e-01 -1.033498e+00 -1.335179e+00 -1.619422e+00 -1.852198e+00 -1.987048e+00 -1.974101e+00 -1.768070e+00 -1.348720e+00 -7.402794e-01 -1.763290e-02 7.080684e-01 1.324379e+00 1.753781e+00 1.969456e+00 1.989981e+00 1.859533e+00 1.628894e+00 1.343804e+00 1.040876e+00 7.457912e-01 4.766084e-01 2.427068e-01 4.960334e-02 -1.025290e-01 -2.152780e-01 -2.930291e-01 -3.407207e-01 -3.641545e-01 -3.687329e-01 -3.594786e-01 -3.405286e-01 -3.151885e-01 -2.859237e-01 -2.544643e-01 -2.220067e-01 -1.892780e-01 -1.567497e-01 -1.246312e-01 -9.302196e-02 -6.187597e-02 -3.109151e-02 
-6.331725e-04 3.772551e-02 7.619649e-02 1.149094e-01 1.538963e-01 1.931979e-01 2.326586e-01 2.720560e-01 3.107908e-01 3.479574e-01 3.819585e-01 4.104419e-01 4.300329e-01 4.361227e-01 4.231547e-01 3.842162e-01 3.124536e-01 2.001133e-01 4.151795e-02 -1.691162e-01 -4.330711e-01 -7.505019e-01 -1.114905e+00 -1.515124e+00 -1.931282e+00 -2.330108e+00 -2.666280e+00 -2.872319e+00 -2.871974e+00 -2.590154e+00 -1.988417e+00 -1.096499e+00 -2.711275e-02 1.047411e+00 1.952098e+00 2.570244e+00 2.867490e+00 2.880093e+00 2.680805e+00 2.347426e+00 1.946004e+00 1.526831e+00 1.122627e+00 7.558600e-01 4.367677e-01 1.716477e-01 -3.971173e-02 -1.992104e-01 -3.121191e-01 -3.845672e-01 -4.238965e-01 -4.372395e-01 -4.313265e-01 -4.118595e-01 -3.834078e-01 -3.494033e-01 -3.122127e-01 -2.734395e-01 -2.340144e-01 -1.945197e-01 -1.552011e-01 -1.161918e-01 -7.747228e-02 -3.898919e-02 
-7.773066e-04 4.599317e-02 9.276593e-02 1.395752e-01 1.863752e-01 2.331598e-01 2.797218e-01 3.257697e-01 3.705240e-01 4.127455e-01 4.502064e-01 4.796114e-01 4.962203e-01 4.937657e-01 4.648014e-01 4.005994e-01 2.928487e-01 1.328195e-01 -8.521474e-02 -3.669828e-01 -7.126606e-01 -1.122339e+00 -1.588309e+00 -2.099290e+00 -2.633954e+00 -3.153905e+00 -3.604521e+00 -3.895766e+00 -3.920308e+00 -3.561182e+00 -2.752428e+00 -1.525685e+00 -3.981951e-02 1.454162e+00 2.700853e+00 3.535288e+00 3.918012e+00 3.912867e+00 3.631418e+00 3.183806e+00 2.657200e+00 2.115579e+00 1.597629e+00 1.128233e+00 7.170251e-01 3.704516e-01 8.829609e-02 -1.306862e-01 -2.914122e-01 -4.001293e-01 -4.650005e-01 -4.945939e-01 -4.974316e-01 -4.810833e-01 -4.518046e-01 -4.143859e-01 -3.721689e-01 -3.273862e-01 -2.813207e-01 -2.347315e-01 -1.879406e-01 -1.411275e-01 -9.432142e-02 -4.754246e-02 
-9.231973e-04 5.485151e-02 1.104761e-01 1.658534e-01 2.208246e-01 2.753108e-01 3.290003e-01 3.814583e-01 4.315562e-01 4.774826e-01 5.159840e-01 5.423850e-01 5.500551e-01 5.307635e-01 4.750864e-01 3.731165e-01 2.162578e-01 -3.063177e-03 -2.882810e-01 -6.426166e-01 -1.063383e+00 -1.550320e+00 -2.094669e+00 -2.688397e+00 -3.312473e+00 -3.931903e+00 -4.490764e+00 -4.879010e+00 -4.950654e+00 -4.534940e+00 -3.530806e+00 -1.968622e+00 -5.633578e-02 1.868168e+00 3.460134e+00 4.502740e+00 4.953720e+00 4.911868e+00 4.538749e+00 3.981672e+00 3.346821e+00 2.707509e+00 2.101943e+00 1.553372e+00 1.066338e+00 6.460451e-01 2.925012e-01 6.745792e-03 -2.131967e-01 -3.712366e-01 -4.742166e-01 -5.308590e-01 -5.508585e-01 -5.436764e-01 -5.175789e-01 -4.792164e-01 -4.333610e-01 -3.832645e-01 -3.308134e-01 -2.771120e-01 -2.226379e-01 -1.676693e-01 -1.123102e-01 -5.668865e-02 
-1.072128e-03 6.424453e-02 1.292214e-01 1.935878e-01 2.570364e-01 3.193508e-01 3.800284e-01 4.383098e-01 4.924537e-01 5.396515e-01 5.751183e-01 5.922229e-01 5.820555e-01 5.344273e-01 4.387569e-01 2.858726e-01 7.003319e-02 -2.110596e-01 -5.543579e-01 -9.573131e-01 -1.413302e+00 -1.922695e+00 -2.478803e+00 -3.079912e+00 -3.718101e+00 -4.371488e+00 -4.989107e+00 -5.460145e+00 -5.606587e+00 -5.194544e+00 -4.085148e+00 -2.297817e+00 -7.682968e-02 2.161103e+00 3.991862e+00 5.156633e+00 5.618098e+00 5.517304e+00 5.070634e+00 4.452222e+00 3.766834e+00 3.096466e+00 2.476630e+00 1.916750e+00 1.411001e+00 9.586283e-01 5.588441e-01 2.161864e-01 -6.503035e-02 -2.820163e-01 -4.362098e-01 -5.332239e-01 -5.820027e-01 -5.930075e-01 -5.764954e-01 -5.413487e-01 -4.943444e-01 -4.402670e-01 -3.820353e-01 -3.213722e-01 -2.590936e-01 -1.956678e-01 -1.313373e-01 -6.637518e-02 
-1.208991e-03 7.414679e-02 1.489367e-01 2.226749e-01 2.948404e-01 3.649815e-01 4.322216e-01 4.951975e-01 5.511116e-01 5.956117e-01 6.217347e-01 6.204541e-01 5.805375e-01 4.908975e-01 3.421547e-01 1.303716e-01 -1.415708e-01 -4.635516e-01 -8.209070e-01 -1.202231e+00 -1.599755e+00 -2.019868e+00 -2.464333e+00 -2.943415e+00 -3.458576e+00 -4.032195e+00 -4.633895e+00 -5.193759e+00 -5.473049e+00 -5.155743e+00 -4.101724e+00 -2.333092e+00 -1.016003e-01 2.149860e+00 3.979731e+00 5.112460e+00 5.493935e+00 5.280842e+00 4.770005e+00 4.166053e+00 3.530002e+00 2.948250e+00 2.441486e+00 1.996195e+00 1.586550e+00 1.197822e+00 8.233496e-01 4.689005e-01 1.480351e-01 -1.243647e-01 -3.374461e-01 -4.877535e-01 -5.790248e-01 -6.202222e-01 -6.225162e-01 -5.970064e-01 -5.529124e-01 -4.971894e-01 -4.343445e-01 -3.671677e-01 -2.970996e-01 -2.249853e-01 -1.513061e-01 -7.654584e-02 
-1.330772e-03 8.458419e-02 1.696706e-01 2.531682e-01 3.342520e-01 4.120561e-01 4.850597e-01 5.508498e-01 6.050138e-01 6.409669e-01 6.490594e-01 6.177792e-01 5.346720e-01 3.905471e-01 1.826850e-01 -7.971073e-02 -3.751833e-01 -6.721938e-01 -9.394746e-01 -1.159555e+00 -1.335419e+00 -1.495448e+00 -1.667380e+00 -1.865040e+00 -2.107315e+00 -2.518541e+00 -2.959234e+00 -3.528809e+00 -3.971399e+00 -3.891703e+00 -3.224883e+00 -1.909251e+00 -1.299177e-01 1.659328e+00 3.064279e+00 3.858335e+00 3.994339e+00 3.639150e+00 3.179767e+00 2.755819e+00 2.237920e+00 1.849256e+00 1.614429e+00 1.446607e+00 1.304695e+00 1.143856e+00 9.349888e-01 6.742393e-01 3.808827e-01 8.691299e-02 -1.759077e-01 -3.850634e-01 -5.311182e-01 -6.159715e-01 -6.487886e-01 -6.417358e-01 -6.065090e-01 -5.527437e-01 -4.872148e-01 -4.143526e-01 -3.366723e-01 -2.556749e-01 -1.722619e-01 -8.722132e-02 
-1.422685e-03 9.567926e-02 1.916446e-01 2.853603e-01 3.755503e-01 4.606790e-01 5.381724e-01 6.040043e-01 6.514596e-01 6.711249e-01 6.504850e-01 5.765222e-01 4.384635e-01 2.350803e-01 -2.015785e-02 -2.918324e-01 -5.268787e-01 -6.627205e-01 -6.546989e-01 -4.934225e-01 -2.264518e-01 6.459016e-02 2.934469e-01 4.547655e-01 6.983455e-01 3.983629e-01 2.422378e-01 -3.345324e-01 -7.520116e-01 -7.025668e-01 -8.587297e-01 -7.285973e-01 -1.434228e-01 3.596725e-01 5.875143e-01 7.363474e-01 7.551641e-01 4.000700e-01 1.209473e-01 5.420674e-02 -3.992143e-01 -4.998087e-01 -3.715896e-01 -1.410614e-01 1.708138e-01 4.575202e-01 6.339603e-01 6.538983e-01 5.262381e-01 2.969827e-01 2.752832e-02 -2.275121e-01 -4.324860e-01 -5.725252e-01 -6.485513e-01 -6.707711e-01 -6.522839e-01 -6.055507e-01 -5.401914e-01 -4.629703e-01 -3.780451e-01 -2.879927e-01 -1.943939e-01 -9.849412e-02 
-1.475142e-03 1.076736e-01 2.153175e-01 3.198780e-01 4.194251e-01 5.113915e-01 5.916406e-01 6.538522e-01 6.883847e-01 6.826693e-01 6.221000e-01 4.948267e-01 2.979359e-01 4.862735e-02 -2.076876e-01 -3.917010e-01 -4.034555e-01 -1.491470e-01 4.093123e-01 1.226275e+00 2.146846e+00 2.966414e+00 3.549822e+00 3.849123e+00 4.884566e+00 3.930747e+00 4.358602e+00 2.440520e+00 2.623573e+00 6.496052e+00 6.923202e+00 4.463478e+00 -1.885563e-03 -4.742484e+00 -7.329867e+00 -6.277192e+00 -3.100269e+00 -2.796382e+00 -3.671679e+00 -3.056903e+00 -4.064498e+00 -3.949119e+00 -3.605427e+00 -3.064371e+00 -2.237640e+00 -1.297905e+00 -4.626425e-01 1.157003e-01 3.860426e-01 3.878911e-01 2.118696e-01 -4.063495e-02 -2.898252e-01 -4.883240e-01 -6.179563e-01 -6.806788e-01 -6.881245e-01 -6.547589e-01 -5.933220e-01 -5.135384e-01 -4.218896e-01 -3.225480e-01 -2.181437e-01 -1.105868e-01 
-1.477707e-03 1.209402e-01 2.414055e-01 3.577241e-01 4.670416e-01 5.653121e-01 6.462345e-01 7.005273e-01 7.151981e-01 6.749212e-01 5.652149e-01 3.809450e-01 1.375370e-01 -1.124287e-01 -2.694937e-01 -1.885754e-01 2.843249e-01 1.251014e+00 2.674217e+00 4.356392e+00 5.910359e+00 6.929922e+00 7.468322e+00 6.690346e+00 8.507840e+00 1.072195e+01 2.068857e+01 2.693767e+01 2.685411e+01 2.409840e+01 1.615975e+01 8.700392e+00 -1.470148e-03 -8.128273e+00 -1.638283e+01 -2.363484e+01 -2.777374e+01 -2.742458e+01 -2.097898e+01 -1.056358e+01 -6.750745e+00 -7.157485e+00 -7.437926e+00 -7.040370e+00 -6.039543e+00 -4.482123e+00 -2.782022e+00 -1.329206e+00 -3.355602e-01 1.634845e-01 2.628375e-01 1.168702e-01 -1.287613e-01 -3.720716e-01 -5.583813e-01 -6.706789e-01 -7.132937e-01 -7.003684e-01 -6.472731e-01 -5.671028e-01 -4.693206e-01 -3.603094e-01 -2.442009e-01 -1.238507e-01 
-1.408451e-03 1.359929e-01 2.708948e-01 4.003034e-01 5.201131e-01 6.242855e-01 7.037429e-01 7.456942e-01 7.338822e-01 6.517185e-01 4.893584e-01 2.577103e-01 7.085795e-03 -1.502522e-01 -3.190444e-02 5.913442e-01 1.910365e+00 3.947807e+00 6.433244e+00 8.807125e+00 1.027577e+01 1.014726e+01 9.364185e+00 1.748875e+01 3.291024e+01 3.550259e+01 2.982137e+01 2.089370e+01 1.156216e+01 5.204057e+00 8.314063e-01 2.712696e-01 -3.078327e-01 3.539894e-01 -1.214890e+00 -4.935865e+00 -1.272230e+01 -2.058060e+01 -2.980569e+01 -3.717290e+01 -3.284154e+01 -1.800475e+01 -8.900315e+00 -1.024438e+01 -1.036966e+01 -8.981895e+00 -6.609596e+00 -4.092472e+00 -2.017754e+00 -6.561085e-01 1.925133e-03 1.437536e-01 -1.105903e-03 -2.476702e-01 -4.798117e-01 -6.447492e-01 -7.297614e-01 -7.439740e-01 -7.037551e-01 -6.254349e-01 -5.219903e-01 -4.026276e-01 -2.735044e-01 -1.387543e-01 
-1.262317e-03 1.534252e-01 3.049591e-01 4.493358e-01 5.808392e-01 6.909008e-01 7.671203e-01 7.929419e-01 7.496729e-01 6.225632e-01 4.137899e-01 1.646374e-01 -1.626220e-02 7.581130e-02 7.375167e-01 2.284937e+00 4.866919e+00 8.219398e+00 1.151070e+01 1.340031e+01 1.368499e+01 1.706622e+01 2.760333e+01 3.859432e+01 3.034838e+01 1.161564e+01 -9.137347e-01 -6.815986e+00 -8.856162e+00 -9.376401e+00 -6.794945e+00 -3.408754e+00 -3.049611e-01 3.413498e+00 6.203857e+00 9.532570e+00 9.050232e+00 6.107927e+00 7.591453e-01 -1.248791e+01 -3.115914e+01 -3.866136e+01 -2.853934e+01 -1.786053e+01 -1.364709e+01 -1.349321e+01 -1.172205e+01 -8.437964e+00 -5.054870e+00 -2.414583e+00 -8.102205e-01 -1.052580e-01 1.326254e-02 -1.559181e-01 -4.020018e-01 -6.124842e-01 -7.426933e-01 -7.890543e-01 -7.656188e-01 -6.910478e-01 -5.820458e-01 -4.511914e-01 -3.072083e-01 -1.558793e-01 
-9.961819e-04 1.738818e-01 3.448536e-01 5.066971e-01 6.517162e-01 7.683109e-01 8.403602e-01 8.477232e-01 7.711035e-01 6.026216e-01 3.674052e-01 1.570509e-01 1.695902e-01 7.412658e-01 2.308045e+00 5.232880e+00 9.432134e+00 1.394457e+01 1.682891e+01 1.847900e+01 2.370720e+01 3.385955e+01 3.090871e+01 1.407124e+01 -5.016136e+00 -1.118832e+01 -4.186464e+00 3.341542e+00 8.076060e+00 6.584998e+00 4.033245e+00 1.695678e+00 -8.792006e-02 -1.684674e+00 -4.241777e+00 -6.175461e+00 -6.790681e+00 -4.914878e+00 4.100720e+00 1.196108e+01 4.634894e+00 -1.346345e+01 -3.075780e+01 -3.450473e+01 -2.487590e+01 -1.847412e+01 -1.694174e+01 -1.419864e+01 -9.711174e+00 -5.455308e+00 -2.449530e+00 -8.114172e-01 -1.915188e-01 -1.541419e-01 -3.547205e-01 -5.892701e-01 -7.605598e-01 -8.408789e-01 -8.366630e-01 -7.669142e-01 -6.518353e-01 -5.077530e-01 -3.464658e-01 -1.757798e-01 
-6.074703e-04 1.978817e-01 3.916486e-01 5.740661e-01 7.351246e-01 8.597631e-01 9.279717e-01 9.167314e-01 8.091158e-01 6.112951e-01 3.859873e-01 3.007563e-01 6.801168e-01 2.030500e+00 4.926481e+00 9.652612e+00 1.552118e+01 2.017308e+01 2.182770e+01 2.633396e+01 2.828215e+01 2.109202e+01 3.816878e+00 -6.681717e+00 -6.481765e-01 8.630152e+00 1.269754e+01 9.639005e+00 7.325203e+00 5.680011e+00 3.663567e+00 1.785694e+00 -1.384178e-02 -1.760789e+00 -3.628649e+00 -5.318933e+00 -6.827835e+00 -1.006274e+01 -1.135116e+01 -7.876508e+00 3.428493e-01 6.411232e+00 -2.877927e+00 -1.998616e+01 -2.872060e+01 -2.622143e+01 -2.228145e+01 -2.039509e+01 -1.585824e+01 -9.987182e+00 -5.166894e+00 -2.163983e+00 -7.344644e-01 -3.099243e-01 -3.744765e-01 -5.946930e-01 -7.942581e-01 -9.060385e-01 -9.212874e-01 -8.561981e-01 -7.336795e-01 -5.739566e-01 -3.923284e-01 -1.989667e-01 
-3.139464e-05 2.257202e-01 4.459325e-01 6.524469e-01 8.326580e-01 9.677455e-01 1.033883e+00 1.006462e+00 8.750291e-01 6.690233e-01 5.068409e-01 6.617997e-01 1.623260e+00 4.090954e+00 8.717405e+00 1.544065e+01 2.232452e+01 2.333807e+01 2.213042e+01 2.323010e+01 1.510764e+01 2.068320e+00 8.120831e-02 6.608188e+00 9.331034e+00 7.973717e+00 7.495745e+00 6.281002e+00 5.098701e+00 4.056529e+00 2.781623e+00 1.414280e+00 1.445541e-02 -1.365435e+00 -2.703949e+00 -3.866782e+00 -4.890962e+00 -6.125945e+00 -6.799432e+00 -7.631256e+00 -8.861315e+00 -7.244595e+00 -4.703872e-01 -1.422940e+00 -1.420183e+01 -2.274153e+01 -2.304562e+01 -2.363177e+01 -2.263747e+01 -1.590086e+01 -9.089663e+00 -4.315640e+00 -1.727287e+00 -6.909032e-01 -4.987860e-01 -6.486714e-01 -8.544569e-01 -9.904047e-01 -1.022923e+00 -9.610014e-01 -8.288842e-01 -6.505892e-01 -4.452169e-01 -2.255963e-01 
7.319527e-04 2.571833e-01 5.073605e-01 7.415261e-01 9.442859e-01 1.092901e+00 1.160059e+00 1.121371e+00 9.779284e-01 7.932831e-01 7.618338e-01 1.293446e+00 3.072778e+00 6.980448e+00 1.360750e+01 2.210601e+01 2.598967e+01 1.968505e+01 1.749993e+01 1.509790e+01 6.906474e+00 5.534948e+00 5.879301e+00 5.266280e+00 4.747443e+00 4.487832e+00 4.440413e+00 4.113360e+00 3.604760e+00 2.957609e+00 2.098534e+00 1.096966e+00 2.518381e-02 -1.036176e+00 -2.022293e+00 -2.843254e+00 -3.473640e+00 -3.953092e+00 -4.150462e+00 -4.339664e+00 -4.610826e+00 -5.174574e+00 -5.586241e+00 -5.782162e+00 -7.068591e+00 -1.488181e+01 -1.774692e+01 -1.974951e+01 -2.629859e+01 -2.271937e+01 -1.413668e+01 -7.322565e+00 -3.244116e+00 -1.350826e+00 -7.594244e-01 -7.684706e-01 -9.499769e-01 -1.098250e+00 -1.143398e+00 -1.081878e+00 -9.373613e-01 -7.373050e-01 -5.047721e-01 -2.554508e-01 
1.733396e-03 2.913811e-01 5.742005e-01 8.389309e-01 1.067290e+00 1.232642e+00 1.304722e+00 1.261621e+00 1.121628e+00 9.939450e-01 1.169506e+00 2.220536e+00 5.040790e+00 1.064132e+01 1.944941e+01 2.821843e+01 2.066958e+01 1.253679e+01 1.665984e+01 1.239822e+01 4.962989e+00 2.939132e+00 2.077624e+00 1.833693e+00 2.075752e+00 2.442401e+00 2.754052e+00 2.813958e+00 2.624986e+00 2.217465e+00 1.607311e+00 8.547287e-01 2.765930e-02 -7.947778e-01 -1.541851e+00 -2.139415e+00 -2.540549e+00 -2.716595e+00 -2.631998e+00 -2.376631e+00 -2.045528e+00 -1.790674e+00 -1.965462e+00 -2.990119e+00 -5.165131e+00 -1.197982e+01 -1.658655e+01 -1.236988e+01 -1.984929e+01 -2.833716e+01 -2.013675e+01 -1.112673e+01 -5.295167e+00 -2.311214e+00 -1.171459e+00 -9.608573e-01 -1.082466e+00 -1.228297e+00 -1.280025e+00 -1.215672e+00 -1.056031e+00 -8.314984e-01 -5.691055e-01 -2.875261e-01 
2.954591e-03 3.265142e-01 6.429607e-01 9.396738e-01 1.195511e+00 1.380141e+00 1.461043e+00 1.421283e+00 1.301862e+00 1.268498e+00 1.725452e+00 3.423722e+00 7.455477e+00 1.487882e+01 2.580010e+01 2.519881e+01 7.957906e+00 1.275285e+01 1.843107e+01 5.034781e+00 3.276503e-01 -9.281070e-01 -6.833743e-01 -6.821214e-02 6.612738e-01 1.313540e+00 1.774290e+00 1.974926e+00 1.927656e+00 1.664580e+00 1.224090e+00 6.576787e-01 2.513355e-02 -6.054529e-01 -1.171578e+00 -1.610525e+00 -1.873824e+00 -1.922876e+00 -1.725589e+00 -1.295749e+00 -6.759096e-01 3.810826e-02 6.490306e-01 8.670030e-01 -2.627856e-01 -4.637730e+00 -1.855725e+01 -1.389655e+01 -7.584689e+00 -2.451037e+01 -2.672524e+01 -1.554646e+01 -7.801039e+00 -3.549078e+00 -1.728238e+00 -1.222430e+00 -1.247291e+00 -1.374585e+00 -1.426037e+00 -1.355625e+00 -1.178794e+00 -9.282288e-01 -6.347661e-01 -3.200591e-01 
4.341452e-03 3.597212e-01 7.080371e-01 1.035584e+00 1.318522e+00 1.523270e+00 1.615820e+00 1.586794e+00 1.504222e+00 1.598482e+00 2.396262e+00 4.821822e+00 1.015053e+01 1.942643e+01 2.851110e+01 1.040663e+01 5.512736e+00 2.219013e+01 1.108266e+01 -2.408957e+00 -3.261958e+00 -2.863133e+00 -1.977794e+00 -9.925347e-01 -8.493953e-02 6.394400e-01 1.129956e+00 1.374140e+00 1.396234e+00 1.229242e+00 9.135997e-01 4.942071e-01 2.072611e-02 -4.522268e-01 -8.732810e-01 -1.191086e+00 -1.362158e+00 -1.347445e+00 -1.113563e+00 -6.448818e-01 5.327065e-02 9.367838e-01 1.905430e+00 2.787802e+00 3.207183e+00 2.288461e+00 -9.815268e+00 -2.222012e+01 -6.152608e+00 -9.633108e+00 -2.885311e+01 -2.011703e+01 -1.056897e+01 -4.967090e+00 -2.385322e+00 -1.528146e+00 -1.426857e+00 -1.522182e+00 -1.567703e+00 -1.489457e+00 -1.295227e+00 -1.019391e+00 -6.962439e-01 -3.502928e-01 
5.833416e-03 3.872436e-01 7.620039e-01 1.115689e+00 1.422163e+00 1.645256e+00 1.750407e+00 1.737801e+00 1.704503e+00 1.948016e+00 3.111793e+00 6.271972e+00 1.284712e+01 2.426746e+01 2.129216e+01 2.010608e-01 1.559751e+01 2.196860e+01 -1.929053e+00 -5.333041e+00 -4.700376e+00 -3.709445e+00 -2.544321e+00 -1.449271e+00 -5.228297e-01 1.787368e-01 6.465502e-01 8.951220e-01 9.558133e-01 8.613428e-01 6.481752e-01 3.530923e-01 1.575156e-02 -3.215827e-01 -6.186947e-01 -8.349643e-01 -9.341458e-01 -8.813560e-01 -6.432443e-01 -1.922165e-01 4.885350e-01 1.391860e+00 2.467095e+00 3.622506e+00 4.631485e+00 5.281505e+00 3.070517e+00 -2.027468e+01 -1.675692e+01 -4.000758e-02 -1.956279e+01 -2.498234e+01 -1.342064e+01 -6.423158e+00 -3.064872e+00 -1.840800e+00 -1.597947e+00 -1.652034e+00 -1.687393e+00 -1.601069e+00 -1.391604e+00 -1.094289e+00 -7.462973e-01 -3.746047e-01 
7.179275e-03 4.044422e-01 7.957917e-01 1.166537e+00 1.488888e+00 1.725080e+00 1.840873e+00 1.847474e+00 1.868189e+00 2.267280e+00 3.772168e+00 7.597101e+00 1.505639e+01 2.547630e+01 4.698959e+00 2.655418e+00 2.342177e+01 6.765183e+00 -7.673410e+00 -6.409961e+00 -5.257300e+00 -4.007082e+00 -2.767440e+00 -1.686443e+00 -8.160174e-01 -1.714095e-01 2.600016e-01 5.048956e-01 5.948234e-01 5.598194e-01 4.307026e-01 2.374614e-01 1.141612e-02 -2.147939e-01 -4.097502e-01 -5.415344e-01 -5.805397e-01 -4.969147e-01 -2.602562e-01 1.590111e-01 7.882731e-01 1.639924e+00 2.702099e+00 3.923502e+00 5.167088e+00 6.290993e+00 7.354330e+00 -6.245372e+00 -2.480738e+01 -3.276327e+00 -3.865289e+00 -2.704110e+01 -1.600084e+01 -7.670473e+00 -3.637931e+00 -2.106270e+00 -1.727774e+00 -1.739876e+00 -1.763279e+00 -1.670949e+00 -1.451469e+00 -1.140267e+00 -7.764835e-01 -3.888851e-01 
8.290681e-03 4.066709e-01 8.001416e-01 1.174240e+00 1.500626e+00 1.741090e+00 1.863211e+00 1.888096e+00 1.960326e+00 2.495558e+00 4.276152e+00 8.624127e+00 1.675607e+01 2.055163e+01 -3.991805e+00 1.158151e+01 2.207609e+01 -7.132790e+00 -8.193271e+00 -6.684929e+00 -5.319357e+00 -3.993821e+00 -2.800483e+00 -1.797834e+00 -1.011999e+00 -4.336047e-01 -4.099810e-02 1.960695e-01 3.070907e-01 3.187492e-01 2.566591e-01 1.448753e-01 7.898152e-03 -1.292136e-01 -2.421910e-01 -3.061034e-01 -2.971046e-01 -1.900974e-01 4.184206e-02 4.272238e-01 9.965157e-01 1.771055e+00 2.761925e+00 3.941651e+00 5.257302e+00 6.582725e+00 7.934088e+00 7.309325e+00 -2.151882e+01 -1.334589e+01 3.133778e+00 -1.908159e+01 -1.628118e+01 -8.229958e+00 -3.982003e+00 -2.271523e+00 -1.788885e+00 -1.762026e+00 -1.773661e+00 -1.678759e+00 -1.457541e+00 -1.143922e+00 -7.778468e-01 -3.886976e-01 
8.768890e-03 3.895517e-01 7.665584e-01 1.126093e+00 1.440764e+00 1.673246e+00 1.794867e+00 1.832197e+00 1.944142e+00 2.558423e+00 4.484311e+00 9.047669e+00 1.772352e+01 9.724851e+00 -2.437417e+00 1.784332e+01 1.298444e+01 -1.026864e+01 -7.943558e+00 -6.403763e+00 -5.036613e+00 -3.772449e+00 -2.689592e+00 -1.798781e+00 -1.109354e+00 -6.008169e-01 -2.488310e-01 -2.428327e-02 9.874237e-02 1.430048e-01 1.293674e-01 7.708919e-02 5.350669e-03 -6.644935e-02 -1.194081e-01 -1.339872e-01 -9.101785e-02 3.027710e-02 2.529458e-01 6.027392e-01 1.109203e+00 1.797241e+00 2.689351e+00 3.778311e+00 5.064010e+00 6.479905e+00 8.192486e+00 1.130132e+01 -1.013834e+01 -2.016505e+01 1.742079e-01 -6.396166e+00 -1.615424e+01 -8.374829e+00 -4.125249e+00 -2.313888e+00 -1.764462e+00 -1.700283e+00 -1.701059e+00 -1.607556e+00 -1.395220e+00 -1.093952e+00 -7.429333e-01 -3.705206e-01 
8.593614e-03 3.503555e-01 6.894720e-01 1.013648e+00 1.298182e+00 1.508533e+00 1.621444e+00 1.663747e+00 1.795882e+00 2.407693e+00 4.260988e+00 8.475931e+00 1.630555e+01 -1.448586e+00 -3.972577e-01 1.813130e+01 2.670868e+00 -8.333957e+00 -7.124811e+00 -5.710306e+00 -4.470315e+00 -3.359635e+00 -2.430525e+00 -1.675787e+00 -1.093930e+00 -6.626618e-01 -3.584905e-01 -1.561879e-01 -3.378088e-02 2.738155e-02 4.400549e-02 3.114035e-02 3.536314e-03 -2.404554e-02 -3.718273e-02 -2.078250e-02 4.021619e-02 1.627518e-01 3.659001e-01 6.721766e-01 1.107695e+00 1.697747e+00 2.467495e+00 3.424535e+00 4.589371e+00 5.944385e+00 7.628066e+00 9.623963e+00 8.922276e-01 -1.865707e+01 -2.839375e+00 1.873976e+00 -1.568765e+01 -8.218050e+00 -4.029505e+00 -2.206270e+00 -1.633241e+00 -1.539299e+00 -1.531433e+00 -1.444814e+00 -1.253765e+00 -9.821757e-01 -6.663154e-01 -3.316954e-01 
7.471580e-03 2.883212e-01 5.675108e-01 8.348727e-01 1.070116e+00 1.243957e+00 1.339407e+00 1.379891e+00 1.510525e+00 2.051152e+00 3.643862e+00 7.118298e+00 1.269854e+01 -4.081445e+00 4.170585e+00 1.542142e+01 -4.265295e+00 -6.951846e+00 -5.866739e+00 -4.668743e+00 -3.643012e+00 -2.751029e+00 -2.012640e+00 -1.417433e+00 -9.583518e-01 -6.162476e-01 -3.711824e-01 -2.032553e-01 -9.518100e-02 -3.263885e-02 -2.981688e-03 5.029671e-03 2.278499e-03 -4.047823e-04 7.595465e-03 3.746575e-02 1.005331e-01 2.098404e-01 3.802457e-01 6.299518e-01 9.801016e-01 1.453036e+00 2.071155e+00 2.848353e+00 3.804673e+00 4.942991e+00 6.310777e+00 7.610834e+00 5.863321e+00 -1.505148e+01 -6.030406e+00 3.256143e+00 -1.256950e+01 -7.220865e+00 -3.548836e+00 -1.911777e+00 -1.381252e+00 -1.275832e+00 -1.262504e+00 -1.188916e+00 -1.031527e+00 -8.074571e-01 -5.473389e-01 -2.720840e-01 
5.578772e-03 2.056081e-01 4.047273e-01 5.956352e-01 7.639061e-01 8.881574e-01 9.576166e-01 9.897944e-01 1.095969e+00 1.504396e+00 2.685326e+00 5.245369e+00 8.293007e+00 -2.637649e+00 5.907735e+00 1.114237e+01 -4.893681e+00 -4.872737e+00 -4.134911e+00 -3.305854e+00 -2.578060e+00 -1.956142e+00 -1.442601e+00 -1.030273e+00 -7.115107e-01 -4.729014e-01 -3.000442e-01 -1.793151e-01 -9.868273e-02 -4.842309e-02 -1.994780e-02 -5.758374e-03 1.366351e-03 8.569770e-03 2.285927e-02 5.169748e-02 1.026834e-01 1.848040e-01 3.082770e-01 4.860596e-01 7.329560e-01 1.065576e+00 1.500056e+00 2.049238e+00 2.725162e+00 3.533787e+00 4.446490e+00 5.230713e+00 5.341975e+00 -1.082501e+01 -6.745418e+00 1.818374e+00 -8.346008e+00 -5.438440e+00 -2.660085e+00 -1.418301e+00 -1.006959e+00 -9.152564e-01 -9.015202e-01 -8.475817e-01 -7.352863e-01 -5.752206e-01 -3.896793e-01 -1.934841e-01 
2.963725e-03 1.070818e-01 2.108180e-01 3.103466e-01 3.981857e-01 4.630301e-01 4.997901e-01 5.179303e-01 5.784329e-01 8.022423e-01 1.455244e+00 2.986766e+00 4.568446e+00 -1.510709e+00 1.984138e+00 4.773034e+00 -2.687416e+00 -2.430400e+00 -2.107163e+00 -1.707367e+00 -1.334883e+00 -1.016844e+00 -7.536830e-01 -5.425336e-01 -3.789490e-01 -2.560861e-01 -1.664888e-01 -1.032269e-01 -6.014907e-02 -3.232149e-02 -1.540264e-02 -5.620362e-03 6.407251e-04 6.950948e-03 1.681802e-02 3.398842e-02 6.230285e-02 1.063436e-01 1.713456e-01 2.640201e-01 3.920243e-01 5.640890e-01 7.886378e-01 1.072745e+00 1.421418e+00 1.836923e+00 2.281128e+00 2.661274e+00 3.157532e+00 -4.176368e+00 -2.221624e+00 1.070621e+00 -4.599582e+00 -3.112236e+00 -1.452710e+00 -7.604259e-01 -5.328106e-01 -4.790051e-01 -4.702105e-01 -4.415208e-01 -3.829668e-01 -2.994812e-01 -2.028107e-01 -1.006378e-01 
3.670353e-14 -2.886526e-14 -9.137670e-14 -2.067983e-13 -2.856296e-13 -4.436693e-13 -4.172394e-13 -3.317010e-13 5.848603e-13 2.633356e-12 7.328255e-12 1.739946e-11 3.778941e-11 2.480212e-11 2.151846e-11 1.707595e-11 -1.134435e-11 -1.213935e-11 -1.386455e-11 -1.246737e-11 -9.716235e-12 -7.197907e-12 -4.967078e-12 -3.454830e-12 -2.295956e-12 -1.563481e-12 -9.841768e-13 -6.731978e-13 -4.293368e-13 -2.640607e-13 -1.587344e-13 -1.324859e-13 -1.299677e-13 -1.258595e-13 -1.050960e-13 -6.371521e-14 2.194219e-15 1.703349e-13 4.048630e-13 8.245801e-13 1.384914e-12 2.331600e-12 3.578366e-12 5.403834e-12 7.716797e-12 1.083860e-11 1.505358e-11 1.919862e-11 9.791964e-12 -1.623780e-11 -1.206179e-11 -3.263344e-11 -6.222376e-11 -3.454085e-11 -8.326820e-12 -4.524942e-13 1.379606e-12 1.538373e-12 1.106893e-12 8.095171e-13 4.729977e-13 3.114598e-13 1.781228e-13 1.063321e-13 
-2.963725e-03 -1.070818e-01 -2.108180e-01 -3.103466e-01 -3.981857e-01 -4.630301e-01 -4.997901e-01 -5.179303e-01 -5.784329e-01 -8.022423e-01 -1.455244e+00 -2.986766e+00 -4.568446e+00 1.510709e+00 -1.984138e+00 -4.773034e+00 2.687416e+00 2.430400e+00 2.107163e+00 1.707367e+00 1.334883e+00 1.016844e+00 7.536830e-01 5.425336e-01 3.789490e-01 2.560861e-01 1.664888e-01 1.032269e-01 6.014907e-02 3.232149e-02 1.540264e-02 5.620362e-03 -6.407251e-04 -6.950948e-03 -1.681802e-02 -3.398842e-02 -6.230285e-02 -1.063436e-01 -1.713456e-01 -2.640201e-01 -3.920243e-01 -5.640890e-01 -7.886378e-01 -1.072745e+00 -1.421418e+00 -1.836923e+00 -2.281128e+00 -2.661274e+00 -3.157532e+00 4.176368e+00 2.221624e+00 -1.070621e+00 4.599582e+00 3.112236e+00 1.452710e+00 7.604259e-01 5.328106e-01 4.790051e-01 4.702105e-01 4.415208e-01 3.829668e-01 2.994812e-01 2.028107e-01 1.006378e-01 