# vtk DataFile Version 2.0
Comment goes here
ASCII

DATASET STRUCTURED_POINTS
FIELD FieldData 1
TIME 1 1 double
0.43000000
DIMENSIONS    64   64   1

ORIGIN    0.000   0.000   0.000
SPACING   0.015625 0.015625   1.000

POINT_DATA   4096
SCALARS P double
LOOKUP_TABLE default

-4.571478e+00 -4.560505e+00 -4.554969e+00 -4.527582e+00 -4.505417e+00 -4.461995e+00 -4.423370e+00 -4.364540e+00 -4.309903e+00 -4.236661e+00 -4.166848e+00 -4.080701e+00 -3.997069e+00 -3.900185e+00 -3.804742e+00 -3.700068e+00 -3.595579e+00 -3.486892e+00 -3.376949e+00 -3.268797e+00 -3.157820e+00 -3.055330e+00 -2.948445e+00 -2.856968e+00 -2.759660e+00 -2.684198e+00 -2.601701e+00 -2.546250e+00 -2.482887e+00 -2.450078e+00 -2.409060e+00 -2.400431e+00 -2.384000e+00 -2.400100e+00 -2.409165e+00 -2.449139e+00 -2.483038e+00 -2.544842e+00 -2.601796e+00 -2.682506e+00 -2.759586e+00 -2.855168e+00 -2.948127e+00 -3.053564e+00 -3.157242e+00 -3.267154e+00 -3.376154e+00 -3.485418e+00 -3.594646e+00 -3.698777e+00 -3.803761e+00 -3.899074e+00 -3.996121e+00 -4.079764e+00 -4.165996e+00 -4.235894e+00 -4.309189e+00 -4.363940e+00 -4.422820e+00 -4.461563e+00 -4.505045e+00 -4.527322e+00 -4.554781e+00 -4.560418e+00 
-4.577765e+00 -4.567242e+00 -4.561189e+00 -4.534127e+00 -4.511357e+00 -4.468084e+00 -4.428766e+00 -4.369843e+00 -4.314411e+00 -4.240754e+00 -4.170025e+00 -4.083058e+00 -3.998362e+00 -3.900186e+00 -3.803497e+00 -3.697028e+00 -3.591076e+00 -3.480122e+00 -3.368481e+00 -3.257707e+00 -3.144831e+00 -3.039576e+00 -2.930720e+00 -2.836623e+00 -2.737512e+00 -2.659883e+00 -2.576014e+00 -2.519044e+00 -2.454867e+00 -2.421176e+00 -2.379847e+00 -2.370802e+00 -2.354445e+00 -2.370454e+00 -2.379961e+00 -2.420181e+00 -2.455022e+00 -2.517536e+00 -2.576084e+00 -2.658044e+00 -2.737372e+00 -2.834642e+00 -2.930289e+00 -3.037608e+00 -3.144098e+00 -3.255849e+00 -3.367495e+00 -3.478419e+00 -3.589925e+00 -3.695492e+00 -3.802280e+00 -3.898819e+00 -3.997174e+00 -4.081863e+00 -4.168940e+00 -4.239741e+00 -4.313487e+00 -4.369029e+00 -4.428044e+00 -4.467486e+00 -4.510864e+00 -4.533761e+00 -4.560939e+00 -4.567119e+00 
-4.588780e+00 -4.577706e+00 -4.572174e+00 -4.544579e+00 -4.522304e+00 -4.478533e+00 -4.439643e+00 -4.380266e+00 -4.325153e+00 -4.251094e+00 -4.180533e+00 -4.093230e+00 -4.008523e+00 -3.910098e+00 -3.813216e+00 -3.706616e+00 -3.600319e+00 -3.489382e+00 -3.377295e+00 -3.266693e+00 -3.153314e+00 -3.048349e+00 -2.938928e+00 -2.845134e+00 -2.745320e+00 -2.667863e+00 -2.583074e+00 -2.526073e+00 -2.460833e+00 -2.427024e+00 -2.384745e+00 -2.375786e+00 -2.358891e+00 -2.375428e+00 -2.384878e+00 -2.426012e+00 -2.461032e+00 -2.524569e+00 -2.583220e+00 -2.666077e+00 -2.745281e+00 -2.843260e+00 -2.938616e+00 -3.046534e+00 -3.152713e+00 -3.265026e+00 -3.376459e+00 -3.487900e+00 -3.599341e+00 -3.705326e+00 -3.812195e+00 -3.908992e+00 -4.007546e+00 -4.092298e+00 -4.179662e+00 -4.250330e+00 -4.324428e+00 -4.379668e+00 -4.439088e+00 -4.478102e+00 -4.521930e+00 -4.544319e+00 -4.571986e+00 -4.577619e+00 
-4.612570e+00 -4.601875e+00 -4.595818e+00 -4.568391e+00 -4.545401e+00 -4.501497e+00 -4.461660e+00 -4.401722e+00 -4.345358e+00 -4.270150e+00 -4.197953e+00 -4.108744e+00 -4.021931e+00 -3.920707e+00 -3.821174e+00 -3.710824e+00 -3.601275e+00 -3.485707e+00 -3.369744e+00 -3.253863e+00 -3.136051e+00 -3.025555e+00 -2.911389e+00 -2.812351e+00 -2.707969e+00 -2.626156e+00 -2.537577e+00 -2.477525e+00 -2.409645e+00 -2.374116e+00 -2.330375e+00 -2.320807e+00 -2.303534e+00 -2.320410e+00 -2.330563e+00 -2.372984e+00 -2.409919e+00 -2.475824e+00 -2.537765e+00 -2.624118e+00 -2.707902e+00 -2.810208e+00 -2.910965e+00 -3.023484e+00 -3.135264e+00 -3.251957e+00 -3.368668e+00 -3.483990e+00 -3.600024e+00 -3.709288e+00 -3.819867e+00 -3.919339e+00 -4.020670e+00 -4.107542e+00 -4.196816e+00 -4.269126e+00 -4.344400e+00 -4.400895e+00 -4.460917e+00 -4.500888e+00 -4.544895e+00 -4.568018e+00 -4.595563e+00 -4.601750e+00 
-4.640905e+00 -4.629534e+00 -4.624032e+00 -4.595850e+00 -4.573283e+00 -4.528523e+00 -4.488892e+00 -4.427944e+00 -4.371463e+00 -4.295022e+00 -4.222269e+00 -4.131545e+00 -4.043646e+00 -3.940602e+00 -3.839408e+00 -3.726973e+00 -3.615218e+00 -3.497410e+00 -3.378813e+00 -3.260695e+00 -3.139990e+00 -3.027415e+00 -2.910238e+00 -2.809346e+00 -2.701845e+00 -2.618289e+00 -2.526426e+00 -2.464664e+00 -2.393564e+00 -2.356613e+00 -2.310348e+00 -2.300294e+00 -2.281948e+00 -2.299846e+00 -2.310575e+00 -2.355359e+00 -2.393926e+00 -2.462844e+00 -2.526748e+00 -2.616204e+00 -2.701923e+00 -2.807244e+00 -2.909941e+00 -3.025460e+00 -3.139308e+00 -3.258963e+00 -3.377842e+00 -3.495914e+00 -3.614096e+00 -3.725693e+00 -3.838266e+00 -3.939513e+00 -4.042582e+00 -4.130628e+00 -4.221344e+00 -4.294267e+00 -4.370710e+00 -4.427351e+00 -4.488325e+00 -4.528094e+00 -4.572906e+00 -4.595590e+00 -4.623844e+00 -4.629446e+00 
-4.682582e+00 -4.671561e+00 -4.665531e+00 -4.637445e+00 -4.614093e+00 -4.569049e+00 -4.528283e+00 -4.466465e+00 -4.408359e+00 -4.330198e+00 -4.255173e+00 -4.161590e+00 -4.070620e+00 -3.963327e+00 -3.858140e+00 -3.739934e+00 -3.623166e+00 -3.498136e+00 -3.373427e+00 -3.246978e+00 -3.119065e+00 -2.997666e+00 -2.872485e+00 -2.763130e+00 -2.647698e+00 -2.557177e+00 -2.458716e+00 -2.392321e+00 -2.316701e+00 -2.277395e+00 -2.228611e+00 -2.217928e+00 -2.198762e+00 -2.217418e+00 -2.228973e+00 -2.275949e+00 -2.317257e+00 -2.390183e+00 -2.459185e+00 -2.554698e+00 -2.647799e+00 -2.760641e+00 -2.872069e+00 -2.995394e+00 -3.118149e+00 -3.244996e+00 -3.372145e+00 -3.496412e+00 -3.621696e+00 -3.738410e+00 -3.856642e+00 -3.961962e+00 -4.069212e+00 -4.160376e+00 -4.253933e+00 -4.329150e+00 -4.407335e+00 -4.465610e+00 -4.527501e+00 -4.568415e+00 -4.613567e+00 -4.637054e+00 -4.665266e+00 -4.671429e+00 
-4.728450e+00 -4.716611e+00 -4.711222e+00 -4.682179e+00 -4.659262e+00 -4.613053e+00 -4.572375e+00 -4.509053e+00 -4.450501e+00 -4.370329e+00 -4.294115e+00 -4.197856e+00 -4.104767e+00 -3.994042e+00 -3.885696e+00 -3.763344e+00 -3.642400e+00 -3.512722e+00 -3.383027e+00 -3.251789e+00 -3.118464e+00 -2.992568e+00 -2.861935e+00 -2.748695e+00 -2.627776e+00 -2.533637e+00 -2.429222e+00 -2.359092e+00 -2.277392e+00 -2.234700e+00 -2.181124e+00 -2.168899e+00 -2.147968e+00 -2.168268e+00 -2.181535e+00 -2.232951e+00 -2.278081e+00 -2.356640e+00 -2.429915e+00 -2.530991e+00 -2.628098e+00 -2.746195e+00 -2.861659e+00 -2.990391e+00 -3.117604e+00 -3.249977e+00 -3.381780e+00 -3.511228e+00 -3.641003e+00 -3.762099e+00 -3.884336e+00 -3.992991e+00 -4.103557e+00 -4.196968e+00 -4.293107e+00 -4.369592e+00 -4.449711e+00 -4.508467e+00 -4.571797e+00 -4.612624e+00 -4.658885e+00 -4.681917e+00 -4.711036e+00 -4.716523e+00 
-4.788488e+00 -4.777014e+00 -4.771124e+00 -4.742230e+00 -4.718551e+00 -4.672103e+00 -4.630236e+00 -4.565991e+00 -4.505589e+00 -4.423406e+00 -4.344423e+00 -4.244600e+00 -4.147597e+00 -4.031311e+00 -3.917737e+00 -3.787533e+00 -3.659909e+00 -3.520098e+00 -3.382072e+00 -3.238866e+00 -3.095282e+00 -2.956431e+00 -2.813672e+00 -2.687589e+00 -2.554063e+00 -2.449416e+00 -2.334724e+00 -2.258300e+00 -2.170184e+00 -2.125083e+00 -2.068348e+00 -2.055965e+00 -2.033889e+00 -2.055256e+00 -2.069049e+00 -2.123060e+00 -2.171293e+00 -2.255353e+00 -2.335743e+00 -2.446155e+00 -2.554475e+00 -2.684521e+00 -2.813245e+00 -2.953880e+00 -3.094098e+00 -3.236835e+00 -3.380407e+00 -3.518424e+00 -3.658061e+00 -3.786061e+00 -3.915931e+00 -4.029961e+00 -4.145968e+00 -4.243362e+00 -4.343039e+00 -4.422311e+00 -4.504477e+00 -4.565083e+00 -4.629406e+00 -4.671424e+00 -4.718001e+00 -4.741810e+00 -4.770850e+00 -4.776872e+00 
-4.852211e+00 -4.839774e+00 -4.834679e+00 -4.804691e+00 -4.781590e+00 -4.733788e+00 -4.692070e+00 -4.625979e+00 -4.564998e+00 -4.480173e+00 -4.399544e+00 -4.295965e+00 -4.195923e+00 -4.074553e+00 -3.956315e+00 -3.819710e+00 -3.685758e+00 -3.538559e+00 -3.392841e+00 -3.241891e+00 -3.090019e+00 -2.943965e+00 -2.793329e+00 -2.661658e+00 -2.520641e+00 -2.410724e+00 -2.286824e+00 -2.203909e+00 -2.105259e+00 -2.053366e+00 -1.988086e+00 -1.972105e+00 -1.947262e+00 -1.971138e+00 -1.988813e+00 -2.050679e+00 -2.106538e+00 -2.200288e+00 -2.288246e+00 -2.407163e+00 -2.521425e+00 -2.658581e+00 -2.793053e+00 -2.941521e+00 -3.088785e+00 -3.240043e+00 -3.391084e+00 -3.537136e+00 -3.683901e+00 -3.818558e+00 -3.954626e+00 -4.073577e+00 -4.194517e+00 -4.295123e+00 -4.398443e+00 -4.479456e+00 -4.564179e+00 -4.625396e+00 -4.691495e+00 -4.733356e+00 -4.781226e+00 -4.804424e+00 -4.834503e+00 -4.839683e+00 
-4.931016e+00 -4.919002e+00 -4.913500e+00 -4.883877e+00 -4.860190e+00 -4.812478e+00 -4.769730e+00 -4.703049e+00 -4.640228e+00 -4.553551e+00 -4.469877e+00 -4.362470e+00 -4.257849e+00 -4.129922e+00 -4.005388e+00 -3.858885e+00 -3.716833e+00 -3.556201e+00 -3.400264e+00 -3.232919e+00 -3.067718e+00 -2.903504e+00 -2.735224e+00 -2.584037e+00 -2.422805e+00 -2.296770e+00 -2.157175e+00 -2.066472e+00 -1.960029e+00 -1.907431e+00 -1.839874e+00 -1.825562e+00 -1.799725e+00 -1.824529e+00 -1.841201e+00 -1.904401e+00 -1.962171e+00 -2.062065e+00 -2.159243e+00 -2.292202e+00 -2.423745e+00 -2.580063e+00 -2.734698e+00 -2.900673e+00 -3.065993e+00 -3.231001e+00 -3.397921e+00 -3.554733e+00 -3.714384e+00 -3.857548e+00 -4.003143e+00 -4.128601e+00 -4.255935e+00 -4.361182e+00 -4.468323e+00 -4.552369e+00 -4.639025e+00 -4.702051e+00 -4.768855e+00 -4.811726e+00 -4.859622e+00 -4.883411e+00 -4.913221e+00 -4.918845e+00 
-5.012865e+00 -4.999752e+00 -4.995296e+00 -4.964558e+00 -4.941786e+00 -4.892745e+00 -4.850478e+00 -4.781893e+00 -4.718683e+00 -4.629031e+00 -4.543576e+00 -4.431562e+00 -4.323240e+00 -4.188606e+00 -4.057995e+00 -3.902564e+00 -3.751792e+00 -3.580457e+00 -3.413387e+00 -3.234476e+00 -3.057093e+00 -2.881867e+00 -2.703275e+00 -2.546068e+00 -2.377412e+00 -2.245903e+00 -2.093306e+00 -1.992237e+00 -1.867374e+00 -1.801276e+00 -1.718084e+00 -1.695754e+00 -1.665519e+00 -1.694213e+00 -1.719293e+00 -1.796803e+00 -1.869617e+00 -1.986394e+00 -2.096208e+00 -2.240985e+00 -2.379063e+00 -2.542258e+00 -2.702887e+00 -2.879194e+00 -3.055052e+00 -3.232761e+00 -3.410704e+00 -3.579265e+00 -3.749217e+00 -3.901604e+00 -4.055865e+00 -4.187751e+00 -4.321622e+00 -4.430780e+00 -4.542410e+00 -4.628330e+00 -4.717875e+00 -4.781302e+00 -4.849943e+00 -4.892294e+00 -4.941462e+00 -4.964276e+00 -4.995143e+00 -4.999656e+00 
-5.110531e+00 -5.097935e+00 -5.093282e+00 -5.063325e+00 -5.040389e+00 -4.992143e+00 -4.949346e+00 -4.881061e+00 -4.816400e+00 -4.725766e+00 -4.637331e+00 -4.522006e+00 -4.408678e+00 -4.267170e+00 -4.129362e+00 -3.962259e+00 -3.802341e+00 -3.613746e+00 -3.435548e+00 -3.234572e+00 -3.041902e+00 -2.842786e+00 -2.639160e+00 -2.450905e+00 -2.247311e+00 -2.089249e+00 -1.912403e+00 -1.803718e+00 -1.672479e+00 -1.612472e+00 -1.532394e+00 -1.516851e+00 -1.487132e+00 -1.515384e+00 -1.534824e+00 -1.607726e+00 -1.676494e+00 -1.796565e+00 -1.916553e+00 -2.082600e+00 -2.249097e+00 -2.445468e+00 -2.638251e+00 -2.839895e+00 -3.039055e+00 -3.233228e+00 -3.432026e+00 -3.612804e+00 -3.798994e+00 -3.961182e+00 -4.126558e+00 -4.265868e+00 -4.406453e+00 -4.520602e+00 -4.635621e+00 -4.724425e+00 -4.815131e+00 -4.879916e+00 -4.948454e+00 -4.991281e+00 -5.039824e+00 -5.062793e+00 -5.093008e+00 -5.097756e+00 
-5.210491e+00 -5.196682e+00 -5.193454e+00 -5.162541e+00 -5.141135e+00 -5.091917e+00 -5.050348e+00 -4.980578e+00 -4.916233e+00 -4.822868e+00 -4.733084e+00 -4.612830e+00 -4.495677e+00 -4.346050e+00 -4.201101e+00 -4.022152e+00 -3.850887e+00 -3.647254e+00 -3.452910e+00 -3.234781e+00 -3.022694e+00 -2.803878e+00 -2.586115e+00 -2.395863e+00 -2.193693e+00 -2.036107e+00 -1.843136e+00 -1.719098e+00 -1.553829e+00 -1.465299e+00 -1.354318e+00 -1.320127e+00 -1.282929e+00 -1.317818e+00 -1.356123e+00 -1.457361e+00 -1.557334e+00 -1.708673e+00 -1.849409e+00 -2.029653e+00 -2.196988e+00 -2.391251e+00 -2.585217e+00 -2.801126e+00 -3.018826e+00 -3.233631e+00 -3.448561e+00 -3.646590e+00 -3.847273e+00 -4.021524e+00 -4.198480e+00 -4.345363e+00 -4.493917e+00 -4.612107e+00 -4.731951e+00 -4.822160e+00 -4.915523e+00 -4.979948e+00 -5.049916e+00 -5.091423e+00 -5.140889e+00 -5.162226e+00 -5.193342e+00 -5.196575e+00 
-5.326483e+00 -5.313297e+00 -5.310266e+00 -5.280783e+00 -5.260007e+00 -5.212775e+00 -5.171709e+00 -5.103908e+00 -5.039128e+00 -4.946741e+00 -4.854609e+00 -4.732887e+00 -4.610565e+00 -4.455062e+00 -4.301808e+00 -4.110134e+00 -3.928505e+00 -3.702576e+00 -3.497829e+00 -3.248176e+00 -3.023722e+00 -2.780104e+00 -2.529845e+00 -2.285669e+00 -2.013648e+00 -1.805537e+00 -1.573581e+00 -1.448697e+00 -1.288227e+00 -1.226056e+00 -1.135564e+00 -1.120681e+00 -1.088815e+00 -1.119058e+00 -1.139802e+00 -1.218581e+00 -1.295481e+00 -1.435971e+00 -1.582393e+00 -1.796090e+00 -2.016626e+00 -2.277377e+00 -2.527835e+00 -2.778103e+00 -3.018459e+00 -3.248537e+00 -3.492259e+00 -3.702706e+00 -3.923904e+00 -4.109424e+00 -4.298428e+00 -4.453678e+00 -4.608113e+00 -4.731215e+00 -4.852826e+00 -4.945114e+00 -5.037858e+00 -5.102533e+00 -5.170849e+00 -5.211756e+00 -5.259479e+00 -5.280163e+00 -5.310016e+00 -5.313089e+00 
-5.443918e+00 -5.429449e+00 -5.428387e+00 -5.398360e+00 -5.380112e+00 -5.332749e+00 -5.294264e+00 -5.226152e+00 -5.163192e+00 -5.069344e+00 -4.977212e+00 -4.851334e+00 -4.725987e+00 -4.561492e+00 -4.400808e+00 -4.193484e+00 -3.997946e+00 -3.750607e+00 -3.522295e+00 -3.249005e+00 -2.988680e+00 -2.695688e+00 -2.415911e+00 -2.188867e+00 -1.961434e+00 -1.781051e+00 -1.532620e+00 -1.385735e+00 -1.155635e+00 -1.026212e+00 -8.681217e-01 -8.073536e-01 -7.615403e-01 -8.052173e-01 -8.704233e-01 -1.011502e+00 -1.159304e+00 -1.364806e+00 -1.548112e+00 -1.775042e+00 -1.967537e+00 -2.183296e+00 -2.413511e+00 -2.693062e+00 -2.980443e+00 -3.249575e+00 -3.514987e+00 -3.750952e+00 -3.993026e+00 -4.193309e+00 -4.397852e+00 -4.560980e+00 -4.724340e+00 -4.850636e+00 -4.976330e+00 -5.068578e+00 -5.162728e+00 -5.225428e+00 -5.294024e+00 -5.332165e+00 -5.379994e+00 -5.397984e+00 -5.428339e+00 -5.429320e+00 
-5.576657e+00 -5.562888e+00 -5.562696e+00 -5.534980e+00 -5.518703e+00 -5.475087e+00 -5.438964e+00 -5.375515e+00 -5.314188e+00 -5.224845e+00 -5.132019e+00 -5.008555e+00 -4.878183e+00 -4.711065e+00 -4.539453e+00 -4.320270e+00 -4.110145e+00 -3.833573e+00 -3.596677e+00 -3.264584e+00 -3.012281e+00 -2.730391e+00 -2.430046e+00 -2.096694e+00 -1.697144e+00 -1.396090e+00 -1.079068e+00 -9.597645e-01 -7.754562e-01 -7.270292e-01 -6.376417e-01 -6.253239e-01 -5.969110e-01 -6.260027e-01 -6.445013e-01 -7.159622e-01 -7.876435e-01 -9.346064e-01 -1.100338e+00 -1.385161e+00 -1.700089e+00 -2.080450e+00 -2.426094e+00 -2.733112e+00 -3.001478e+00 -3.269364e+00 -3.587492e+00 -3.835429e+00 -4.103957e+00 -4.319777e+00 -4.535800e+00 -4.709245e+00 -4.875792e+00 -5.006311e+00 -5.130341e+00 -5.222739e+00 -5.313030e+00 -5.373808e+00 -5.438214e+00 -5.473867e+00 -5.518264e+00 -5.534256e+00 -5.562496e+00 -5.562649e+00 
-5.709890e+00 -5.694837e+00 -5.697355e+00 -5.669823e+00 -5.657578e+00 -5.615288e+00 -5.583956e+00 -5.522426e+00 -5.465594e+00 -5.377725e+00 -5.287544e+00 -5.162816e+00 -5.031395e+00 -4.855726e+00 -4.677650e+00 -4.436946e+00 -4.212551e+00 -3.903379e+00 -3.638539e+00 -3.299720e+00 -2.981798e+00 -2.532392e+00 -2.113682e+00 -1.866840e+00 -1.693264e+00 -1.514956e+00 -1.175157e+00 -1.019483e+00 -6.745256e-01 -4.517572e-01 -2.009250e-01 -6.538225e-02 -3.955913e-03 -7.133260e-02 -2.040278e-01 -4.235189e-01 -6.683093e-01 -9.696407e-01 -1.220869e+00 -1.521550e+00 -1.699718e+00 -1.858060e+00 -2.109284e+00 -2.529849e+00 -2.962231e+00 -3.305880e+00 -3.626240e+00 -3.905170e+00 -4.206579e+00 -4.437042e+00 -4.675000e+00 -4.855262e+00 -5.030435e+00 -5.162065e+00 -5.287286e+00 -5.376807e+00 -5.465581e+00 -5.521515e+00 -5.584012e+00 -5.614543e+00 -5.657637e+00 -5.669345e+00 -5.697389e+00 -5.694673e+00 
-5.856266e+00 -5.841898e+00 -5.846314e+00 -5.822154e+00 -5.813938e+00 -5.777719e+00 -5.751807e+00 -5.698821e+00 -5.647422e+00 -5.569620e+00 -5.482420e+00 -5.366705e+00 -5.231402e+00 -5.059648e+00 -4.864616e+00 -4.620120e+00 -4.367278e+00 -4.034588e+00 -3.756888e+00 -3.231284e+00 -2.983748e+00 -2.776785e+00 -2.484115e+00 -1.962435e+00 -9.930626e-01 8.573265e-02 1.569750e+00 2.595300e+00 3.605481e+00 4.412602e+00 5.042575e+00 5.488496e+00 5.577133e+00 5.484495e+00 5.074656e+00 4.441376e+00 3.605902e+00 2.611423e+00 1.491444e+00 1.381715e-01 -9.668312e-01 -1.917193e+00 -2.480316e+00 -2.800422e+00 -2.958333e+00 -3.246278e+00 -3.741519e+00 -4.037721e+00 -4.359656e+00 -4.618751e+00 -4.861904e+00 -5.056478e+00 -5.229648e+00 -5.363372e+00 -5.481073e+00 -5.566803e+00 -5.646506e+00 -5.696705e+00 -5.751265e+00 -5.776286e+00 -5.813658e+00 -5.821334e+00 -5.846199e+00 -5.841632e+00 
-6.002054e+00 -5.986520e+00 -5.994566e+00 -5.971658e+00 -5.969574e+00 -5.936755e+00 -5.918996e+00 -5.871335e+00 -5.828789e+00 -5.757726e+00 -5.677489e+00 -5.567435e+00 -5.433753e+00 -5.258639e+00 -5.059922e+00 -4.787318e+00 -4.527893e+00 -4.118226e+00 -3.832732e+00 -3.515507e+00 -3.133262e+00 -1.746805e+00 7.402947e-01 3.122523e+00 5.812448e+00 7.597669e+00 9.087769e+00 1.002553e+01 1.046132e+01 1.077590e+01 1.085506e+01 1.101162e+01 1.094573e+01 1.100793e+01 1.088576e+01 1.076286e+01 1.044269e+01 9.985553e+00 9.104190e+00 7.743159e+00 5.827106e+00 3.195947e+00 7.258307e-01 -1.722213e+00 -3.078764e+00 -3.539815e+00 -3.815058e+00 -4.118896e+00 -4.523623e+00 -4.786335e+00 -5.059126e+00 -5.257837e+00 -5.434469e+00 -5.566534e+00 -5.678351e+00 -5.756520e+00 -5.829428e+00 -5.870090e+00 -5.919419e+00 -5.935745e+00 -5.969832e+00 -5.971023e+00 -5.994689e+00 -5.986305e+00 
-6.156870e+00 -6.141857e+00 -6.153185e+00 -6.134711e+00 -6.139500e+00 -6.115387e+00 -6.107606e+00 -6.073471e+00 -6.042716e+00 -5.989751e+00 -5.920038e+00 -5.828620e+00 -5.696918e+00 -5.534703e+00 -5.312675e+00 -5.060438e+00 -4.735200e+00 -4.454505e+00 -3.962132e+00 -1.668271e+00 1.957727e+00 5.567077e+00 8.854437e+00 1.061467e+01 1.166939e+01 1.185039e+01 1.174460e+01 1.166284e+01 1.142542e+01 1.129831e+01 1.111990e+01 1.110994e+01 1.102721e+01 1.110590e+01 1.112714e+01 1.128222e+01 1.141669e+01 1.164017e+01 1.178841e+01 1.190037e+01 1.161513e+01 1.064167e+01 8.828482e+00 5.646355e+00 2.047354e+00 -1.659889e+00 -3.939057e+00 -4.451822e+00 -4.728855e+00 -5.055102e+00 -5.314792e+00 -5.528262e+00 -5.696341e+00 -5.823510e+00 -5.919047e+00 -5.986087e+00 -6.042132e+00 -6.070981e+00 -6.107395e+00 -6.113811e+00 -6.139471e+00 -6.133848e+00 -6.153201e+00 -6.141584e+00 
-6.309841e+00 -6.294005e+00 -6.309907e+00 -6.294044e+00 -6.307594e+00 -6.289281e+00 -6.294471e+00 -6.269712e+00 -6.254745e+00 -6.215908e+00 -6.159793e+00 -6.087481e+00 -5.958778e+00 -5.816502e+00 -5.595615e+00 -5.336510e+00 -4.969863e+00 -3.177848e+00 9.166593e-01 6.186525e+00 1.045004e+01 1.220510e+01 1.268769e+01 1.246440e+01 1.215055e+01 1.182298e+01 1.162627e+01 1.151998e+01 1.142380e+01 1.142193e+01 1.137115e+01 1.142192e+01 1.137308e+01 1.141953e+01 1.137700e+01 1.141482e+01 1.141993e+01 1.151680e+01 1.162678e+01 1.182649e+01 1.211496e+01 1.248850e+01 1.266292e+01 1.224890e+01 1.049979e+01 6.238064e+00 1.041114e+00 -3.121689e+00 -4.970322e+00 -5.332192e+00 -5.598707e+00 -5.815051e+00 -5.962440e+00 -6.086478e+00 -6.162155e+00 -6.214187e+00 -6.256067e+00 -6.267888e+00 -6.295226e+00 -6.287872e+00 -6.308021e+00 -6.293201e+00 -6.310102e+00 -6.293729e+00 
-6.465376e+00 -6.449726e+00 -6.470456e+00 -6.459741e+00 -6.483560e+00 -6.476145e+00 -6.497301e+00 -6.491394e+00 -6.497360e+00 -6.487760e+00 -6.454709e+00 -6.415155e+00 -6.311081e+00 -6.183348e+00 -5.952861e+00 -5.384040e+00 -2.149277e+00 4.300179e+00 1.000374e+01 1.267028e+01 1.332123e+01 1.293947e+01 1.258613e+01 1.231226e+01 1.225761e+01 1.216195e+01 1.206004e+01 1.197519e+01 1.183558e+01 1.176720e+01 1.165356e+01 1.164568e+01 1.158955e+01 1.164375e+01 1.165504e+01 1.176215e+01 1.183478e+01 1.197376e+01 1.206479e+01 1.217802e+01 1.223640e+01 1.232716e+01 1.255637e+01 1.295945e+01 1.330677e+01 1.269673e+01 1.012036e+01 4.349484e+00 -2.081884e+00 -5.351757e+00 -5.970626e+00 -6.170329e+00 -6.309362e+00 -6.407960e+00 -6.453286e+00 -6.483564e+00 -6.497194e+00 -6.488826e+00 -6.497630e+00 -6.474632e+00 -6.483917e+00 -6.458955e+00 -6.470661e+00 -6.449484e+00 
-6.617614e+00 -6.601966e+00 -6.627781e+00 -6.621276e+00 -6.656530e+00 -6.657029e+00 -6.697490e+00 -6.703801e+00 -6.736729e+00 -6.746674e+00 -6.738759e+00 -6.734424e+00 -6.628889e+00 -6.575906e+00 -5.715429e+00 -1.518301e+00 6.328897e+00 1.221500e+01 1.380272e+01 1.355739e+01 1.321616e+01 1.302149e+01 1.289870e+01 1.269606e+01 1.250345e+01 1.230165e+01 1.214167e+01 1.202777e+01 1.192239e+01 1.188406e+01 1.181988e+01 1.183151e+01 1.179306e+01 1.183058e+01 1.182015e+01 1.188203e+01 1.191906e+01 1.202809e+01 1.213535e+01 1.230611e+01 1.248679e+01 1.270835e+01 1.288332e+01 1.303538e+01 1.320370e+01 1.356339e+01 1.382330e+01 1.222277e+01 6.490457e+00 -1.371908e+00 -5.701685e+00 -6.574696e+00 -6.637096e+00 -6.733885e+00 -6.742130e+00 -6.743766e+00 -6.738314e+00 -6.700931e+00 -6.698375e+00 -6.655082e+00 -6.657035e+00 -6.620225e+00 -6.628012e+00 -6.601640e+00 
-6.763640e+00 -6.747845e+00 -6.779649e+00 -6.778197e+00 -6.826949e+00 -6.838421e+00 -6.901660e+00 -6.929374e+00 -6.993384e+00 -7.047228e+00 -7.069514e+00 -7.134338e+00 -7.118558e+00 -6.552522e+00 -1.633393e+00 7.488252e+00 1.332536e+01 1.420103e+01 1.390158e+01 1.362633e+01 1.350092e+01 1.322302e+01 1.302145e+01 1.279920e+01 1.266750e+01 1.252963e+01 1.241294e+01 1.231944e+01 1.221003e+01 1.215414e+01 1.207122e+01 1.206264e+01 1.202227e+01 1.206211e+01 1.207096e+01 1.215337e+01 1.220848e+01 1.232149e+01 1.240998e+01 1.253748e+01 1.265612e+01 1.280857e+01 1.300723e+01 1.323241e+01 1.349311e+01 1.363096e+01 1.390460e+01 1.420444e+01 1.339275e+01 7.602203e+00 -1.567213e+00 -6.528799e+00 -7.097306e+00 -7.127937e+00 -7.066702e+00 -7.043904e+00 -6.994476e+00 -6.927357e+00 -6.903028e+00 -6.837309e+00 -6.827881e+00 -6.777669e+00 -6.780095e+00 -6.747693e+00 
-6.904871e+00 -6.890855e+00 -6.926911e+00 -6.931729e+00 -6.993174e+00 -7.014101e+00 -7.103192e+00 -7.142084e+00 -7.250677e+00 -7.316641e+00 -7.393942e+00 -7.491207e+00 -7.384156e+00 -3.407860e+00 6.671116e+00 1.382535e+01 1.463320e+01 1.429906e+01 1.413092e+01 1.383125e+01 1.360456e+01 1.337343e+01 1.319618e+01 1.299882e+01 1.282945e+01 1.266463e+01 1.252267e+01 1.241386e+01 1.231090e+01 1.225880e+01 1.219356e+01 1.218823e+01 1.215675e+01 1.218799e+01 1.219233e+01 1.225853e+01 1.230731e+01 1.241495e+01 1.251634e+01 1.266797e+01 1.281929e+01 1.300478e+01 1.318586e+01 1.337917e+01 1.359647e+01 1.383278e+01 1.412863e+01 1.429434e+01 1.462538e+01 1.383023e+01 6.819763e+00 -3.252129e+00 -7.360806e+00 -7.493734e+00 -7.393700e+00 -7.309808e+00 -7.251472e+00 -7.137358e+00 -7.103959e+00 -7.011670e+00 -6.993667e+00 -6.930648e+00 -6.927139e+00 -6.890553e+00 
-7.029669e+00 -7.015821e+00 -7.057546e+00 -7.066550e+00 -7.143111e+00 -7.170528e+00 -7.290131e+00 -7.339058e+00 -7.492848e+00 -7.607044e+00 -7.648644e+00 -8.137853e+00 -5.812406e+00 3.979620e+00 1.343313e+01 1.512463e+01 1.476463e+01 1.452390e+01 1.422150e+01 1.397090e+01 1.375687e+01 1.352143e+01 1.333004e+01 1.313468e+01 1.298266e+01 1.284048e+01 1.271636e+01 1.261986e+01 1.252007e+01 1.246569e+01 1.239637e+01 1.238532e+01 1.235373e+01 1.238537e+01 1.239551e+01 1.246627e+01 1.251793e+01 1.262209e+01 1.271241e+01 1.284498e+01 1.297546e+01 1.313989e+01 1.332166e+01 1.352552e+01 1.375047e+01 1.397097e+01 1.421738e+01 1.451633e+01 1.475786e+01 1.510358e+01 1.354149e+01 4.131333e+00 -5.786589e+00 -8.143712e+00 -7.658616e+00 -7.606407e+00 -7.498922e+00 -7.338053e+00 -7.293320e+00 -7.170160e+00 -7.144684e+00 -7.066497e+00 -7.058191e+00 -7.015830e+00 
-7.148623e+00 -7.139779e+00 -7.182367e+00 -7.200974e+00 -7.286940e+00 -7.326650e+00 -7.472886e+00 -7.529710e+00 -7.747459e+00 -7.845172e+00 -8.011007e+00 -8.299097e+00 -1.010168e+00 1.104528e+01 1.559987e+01 1.510144e+01 1.495264e+01 1.458452e+01 1.437596e+01 1.408874e+01 1.387225e+01 1.364009e+01 1.345010e+01 1.325902e+01 1.309359e+01 1.294227e+01 1.280712e+01 1.270237e+01 1.260262e+01 1.254569e+01 1.248249e+01 1.246968e+01 1.244283e+01 1.246968e+01 1.248093e+01 1.254589e+01 1.259919e+01 1.270328e+01 1.280168e+01 1.294413e+01 1.308623e+01 1.326146e+01 1.344223e+01 1.364157e+01 1.386497e+01 1.408732e+01 1.436949e+01 1.457933e+01 1.494401e+01 1.509371e+01 1.560379e+01 1.113304e+01 -8.306781e-01 -8.210798e+00 -8.013889e+00 -7.822785e+00 -7.749134e+00 -7.523105e+00 -7.473894e+00 -7.324719e+00 -7.287423e+00 -7.200448e+00 -7.182552e+00 -7.139678e+00 
-7.241256e+00 -7.234825e+00 -7.279469e+00 -7.303145e+00 -7.400084e+00 -7.440346e+00 -7.625454e+00 -7.641716e+00 -8.010547e+00 -7.850214e+00 -8.674254e+00 -6.527422e+00 5.841962e+00 1.530359e+01 1.582602e+01 1.533804e+01 1.504929e+01 1.474711e+01 1.446178e+01 1.421111e+01 1.397421e+01 1.375540e+01 1.355684e+01 1.337502e+01 1.321380e+01 1.307474e+01 1.294659e+01 1.285020e+01 1.275342e+01 1.269876e+01 1.263535e+01 1.262209e+01 1.259524e+01 1.262232e+01 1.263433e+01 1.269960e+01 1.275122e+01 1.285197e+01 1.294302e+01 1.307742e+01 1.320869e+01 1.337777e+01 1.355107e+01 1.375699e+01 1.396873e+01 1.421011e+01 1.445555e+01 1.474266e+01 1.503642e+01 1.533150e+01 1.578735e+01 1.531267e+01 6.060637e+00 -6.386644e+00 -8.710453e+00 -7.840394e+00 -8.020985e+00 -7.640704e+00 -7.629291e+00 -7.441076e+00 -7.401603e+00 -7.303834e+00 -7.280023e+00 -7.235078e+00 
-7.328480e+00 -7.331245e+00 -7.370568e+00 -7.409255e+00 -7.503693e+00 -7.566215e+00 -7.757987e+00 -7.792133e+00 -8.224750e+00 -7.988995e+00 -9.200557e+00 -3.487926e+00 1.093238e+01 1.653229e+01 1.563341e+01 1.553926e+01 1.509923e+01 1.485320e+01 1.455268e+01 1.430248e+01 1.405946e+01 1.383899e+01 1.363660e+01 1.345249e+01 1.328449e+01 1.313966e+01 1.300592e+01 1.290375e+01 1.280580e+01 1.274734e+01 1.268606e+01 1.266993e+01 1.264590e+01 1.266998e+01 1.268451e+01 1.274756e+01 1.280265e+01 1.290424e+01 1.300124e+01 1.314034e+01 1.327853e+01 1.345285e+01 1.363001e+01 1.383802e+01 1.405261e+01 1.429897e+01 1.454485e+01 1.484634e+01 1.508675e+01 1.552930e+01 1.560504e+01 1.652549e+01 1.116115e+01 -3.269447e+00 -9.223654e+00 -7.997791e+00 -8.229880e+00 -7.795525e+00 -7.759119e+00 -7.568070e+00 -7.503885e+00 -7.410262e+00 -7.370578e+00 -7.331569e+00 
-7.382172e+00 -7.391492e+00 -7.425190e+00 -7.477260e+00 -7.559601e+00 -7.653790e+00 -7.807864e+00 -7.924587e+00 -8.230803e+00 -8.245590e+00 -8.973294e+00 5.087603e-01 1.441136e+01 1.653059e+01 1.567487e+01 1.560370e+01 1.515656e+01 1.492979e+01 1.461024e+01 1.437719e+01 1.412383e+01 1.391501e+01 1.370819e+01 1.353335e+01 1.336636e+01 1.323032e+01 1.309955e+01 1.300400e+01 1.290796e+01 1.285309e+01 1.279217e+01 1.277756e+01 1.275310e+01 1.277781e+01 1.279115e+01 1.285386e+01 1.290590e+01 1.300532e+01 1.309647e+01 1.323198e+01 1.336245e+01 1.353476e+01 1.370404e+01 1.391541e+01 1.412016e+01 1.437593e+01 1.460761e+01 1.492732e+01 1.515669e+01 1.560435e+01 1.568852e+01 1.655330e+01 1.460415e+01 7.659754e-01 -8.965575e+00 -8.263113e+00 -8.230943e+00 -7.931611e+00 -7.807834e+00 -7.657314e+00 -7.559580e+00 -7.479052e+00 -7.425197e+00 -7.392051e+00 
-7.433472e+00 -7.453711e+00 -7.477072e+00 -7.548434e+00 -7.610034e+00 -7.748818e+00 -7.840145e+00 -8.079901e+00 -8.169176e+00 -8.578916e+00 -8.382411e+00 4.072327e+00 1.653059e+01 1.651641e+01 1.594180e+01 1.568328e+01 1.527016e+01 1.500134e+01 1.468389e+01 1.443535e+01 1.417889e+01 1.396207e+01 1.375164e+01 1.357093e+01 1.339976e+01 1.325791e+01 1.312379e+01 1.302302e+01 1.292575e+01 1.286691e+01 1.280675e+01 1.278924e+01 1.276667e+01 1.278927e+01 1.280527e+01 1.286703e+01 1.292283e+01 1.302316e+01 1.311957e+01 1.325785e+01 1.339455e+01 1.357017e+01 1.374591e+01 1.395979e+01 1.417310e+01 1.443058e+01 1.467849e+01 1.499312e+01 1.526620e+01 1.567034e+01 1.594397e+01 1.649365e+01 1.657102e+01 4.291198e+00 -8.332532e+00 -8.599919e+00 -8.162898e+00 -8.089524e+00 -7.837679e+00 -7.753595e+00 -7.608976e+00 -7.550741e+00 -7.476671e+00 -7.454406e+00 
-7.449564e+00 -7.474427e+00 -7.492219e+00 -7.574090e+00 -7.619728e+00 -7.789392e+00 -7.827788e+00 -8.162882e+00 -8.077383e+00 -8.787804e+00 -7.756484e+00 6.201833e+00 1.711658e+01 1.623193e+01 1.604159e+01 1.561633e+01 1.530179e+01 1.500112e+01 1.470517e+01 1.445753e+01 1.420469e+01 1.399496e+01 1.378527e+01 1.361215e+01 1.344255e+01 1.330780e+01 1.317572e+01 1.308070e+01 1.298474e+01 1.292982e+01 1.286981e+01 1.285461e+01 1.283114e+01 1.285485e+01 1.286883e+01 1.293051e+01 1.298280e+01 1.308176e+01 1.317294e+01 1.330898e+01 1.343923e+01 1.361296e+01 1.378197e+01 1.399474e+01 1.420222e+01 1.445563e+01 1.470469e+01 1.499691e+01 1.530556e+01 1.560829e+01 1.605360e+01 1.621132e+01 1.713433e+01 6.458771e+00 -7.657543e+00 -8.799099e+00 -8.065499e+00 -8.170423e+00 -7.823167e+00 -7.793823e+00 -7.617989e+00 -7.576416e+00 -7.491651e+00 -7.475153e+00 
-7.467028e+00 -7.496221e+00 -7.509920e+00 -7.598585e+00 -7.637114e+00 -7.820856e+00 -7.839922e+00 -8.210776e+00 -8.066390e+00 -8.876397e+00 -7.506131e+00 6.960880e+00 1.735864e+01 1.626506e+01 1.616262e+01 1.567133e+01 1.536152e+01 1.503825e+01 1.473765e+01 1.447803e+01 1.422161e+01 1.400331e+01 1.379092e+01 1.361069e+01 1.343838e+01 1.329729e+01 1.316289e+01 1.306255e+01 1.296543e+01 1.290653e+01 1.284673e+01 1.282884e+01 1.280673e+01 1.282886e+01 1.284527e+01 1.290660e+01 1.296259e+01 1.306255e+01 1.315882e+01 1.329698e+01 1.343341e+01 1.360957e+01 1.378552e+01 1.400063e+01 1.421642e+01 1.447296e+01 1.473380e+01 1.503017e+01 1.536218e+01 1.566071e+01 1.617721e+01 1.625664e+01 1.741173e+01 7.254105e+00 -7.399241e+00 -8.888366e+00 -8.058022e+00 -8.219867e+00 -7.836110e+00 -7.826177e+00 -7.635478e+00 -7.601284e+00 -7.509317e+00 -7.497044e+00 