# vtk DataFile Version 2.0
Comment goes here
ASCII

DATASET STRUCTURED_POINTS
FIELD FieldData 1
TIME 1 1 double
0.22000000
DIMENSIONS    64   64   1

ORIGIN    0.000   0.000   0.000
SPACING   0.015625 0.015625   1.000

POINT_DATA   4096
SCALARS P double
LOOKUP_TABLE default

-4.475858e+00 -4.476501e+00 -4.475433e+00 -4.475270e+00 -4.473374e+00 -4.471358e+00 -4.467322e+00 -4.461609e+00 -4.453276e+00 -4.441223e+00 -4.425605e+00 -4.403876e+00 -4.377326e+00 -4.342190e+00 -4.300837e+00 -4.248784e+00 -4.189325e+00 -4.118015e+00 -4.038844e+00 -3.948283e+00 -3.850742e+00 -3.744354e+00 -3.633657e+00 -3.518797e+00 -3.404137e+00 -3.291636e+00 -3.185202e+00 -3.087915e+00 -3.002970e+00 -2.933578e+00 -2.881869e+00 -2.850208e+00 -2.839347e+00 -2.850093e+00 -2.881730e+00 -2.933268e+00 -3.002699e+00 -3.087496e+00 -3.184806e+00 -3.291215e+00 -3.403625e+00 -3.518475e+00 -3.633051e+00 -3.744208e+00 -3.850091e+00 -3.948356e+00 -4.038210e+00 -4.118311e+00 -4.188761e+00 -4.249272e+00 -4.300380e+00 -4.342810e+00 -4.376988e+00 -4.404557e+00 -4.425379e+00 -4.441893e+00 -4.453140e+00 -4.462202e+00 -4.467251e+00 -4.471819e+00 -4.473343e+00 -4.475562e+00 -4.475422e+00 -4.476601e+00 
-4.464869e+00 -4.466198e+00 -4.464751e+00 -4.465329e+00 -4.463123e+00 -4.461896e+00 -4.457637e+00 -4.452746e+00 -4.444302e+00 -4.433072e+00 -4.417491e+00 -4.396525e+00 -4.370189e+00 -4.335673e+00 -4.294731e+00 -4.243072e+00 -4.184228e+00 -4.113051e+00 -4.034711e+00 -3.944117e+00 -3.847677e+00 -3.741373e+00 -3.632207e+00 -3.517997e+00 -3.405561e+00 -3.294686e+00 -3.191320e+00 -3.096588e+00 -3.015067e+00 -2.948260e+00 -2.899154e+00 -2.868779e+00 -2.858612e+00 -2.868521e+00 -2.898721e+00 -2.947517e+00 -3.014206e+00 -3.095445e+00 -3.190034e+00 -3.293253e+00 -3.403860e+00 -3.516386e+00 -3.630129e+00 -3.739682e+00 -3.845296e+00 -3.942417e+00 -4.032131e+00 -4.111393e+00 -4.181568e+00 -4.241490e+00 -4.292114e+00 -4.334202e+00 -4.367730e+00 -4.395197e+00 -4.415293e+00 -4.431923e+00 -4.442449e+00 -4.451809e+00 -4.456193e+00 -4.461203e+00 -4.462136e+00 -4.464903e+00 -4.464251e+00 -4.466054e+00 
-4.480439e+00 -4.481210e+00 -4.480370e+00 -4.480690e+00 -4.479388e+00 -4.478204e+00 -4.475121e+00 -4.470561e+00 -4.463504e+00 -4.452852e+00 -4.438733e+00 -4.418493e+00 -4.393461e+00 -4.359638e+00 -4.319492e+00 -4.268198e+00 -4.209198e+00 -4.137656e+00 -4.057734e+00 -3.965566e+00 -3.865731e+00 -3.756196e+00 -3.641632e+00 -3.522256e+00 -3.402524e+00 -3.284678e+00 -3.172694e+00 -3.070087e+00 -2.980173e+00 -2.906610e+00 -2.851651e+00 -2.817993e+00 -2.806423e+00 -2.817863e+00 -2.851511e+00 -2.906259e+00 -2.979902e+00 -3.069617e+00 -3.172297e+00 -3.284210e+00 -3.402002e+00 -3.521900e+00 -3.641005e+00 -3.756031e+00 -3.865052e+00 -3.965638e+00 -4.057072e+00 -4.137966e+00 -4.208615e+00 -4.268711e+00 -4.319025e+00 -4.360289e+00 -4.393122e+00 -4.419206e+00 -4.438512e+00 -4.453550e+00 -4.463377e+00 -4.471176e+00 -4.475058e+00 -4.478681e+00 -4.479363e+00 -4.480992e+00 -4.480363e+00 -4.481313e+00 
-4.473919e+00 -4.475513e+00 -4.474523e+00 -4.476078e+00 -4.475049e+00 -4.475508e+00 -4.473137e+00 -4.470597e+00 -4.464686e+00 -4.456329e+00 -4.443729e+00 -4.425839e+00 -4.402534e+00 -4.370740e+00 -4.332219e+00 -4.282120e+00 -4.224195e+00 -4.152467e+00 -4.072577e+00 -3.978493e+00 -3.877314e+00 -3.764274e+00 -3.647122e+00 -3.523485e+00 -3.400772e+00 -3.279282e+00 -3.165335e+00 -3.060896e+00 -2.970651e+00 -2.896862e+00 -2.842371e+00 -2.808849e+00 -2.797490e+00 -2.808561e+00 -2.841938e+00 -2.896042e+00 -2.969794e+00 -3.059652e+00 -3.164046e+00 -3.277746e+00 -3.399042e+00 -3.521786e+00 -3.644976e+00 -3.762518e+00 -3.874835e+00 -3.976747e+00 -4.069879e+00 -4.150770e+00 -4.221408e+00 -4.280499e+00 -4.329476e+00 -4.369224e+00 -4.399960e+00 -4.424463e+00 -4.441434e+00 -4.455133e+00 -4.462756e+00 -4.469619e+00 -4.471638e+00 -4.474783e+00 -4.474027e+00 -4.475632e+00 -4.474005e+00 -4.475363e+00 
-4.493520e+00 -4.494682e+00 -4.494538e+00 -4.496334e+00 -4.496843e+00 -4.498215e+00 -4.498067e+00 -4.497087e+00 -4.494012e+00 -4.487770e+00 -4.478409e+00 -4.462963e+00 -4.442875e+00 -4.413428e+00 -4.377405e+00 -4.328885e+00 -4.271786e+00 -4.199984e+00 -4.118200e+00 -4.021433e+00 -3.914798e+00 -3.795695e+00 -3.669215e+00 -3.535806e+00 -3.400189e+00 -3.265535e+00 -3.135938e+00 -3.016363e+00 -2.910528e+00 -2.823548e+00 -2.758127e+00 -2.718034e+00 -2.704184e+00 -2.717850e+00 -2.757976e+00 -2.823061e+00 -2.910256e+00 -3.015728e+00 -3.135544e+00 -3.264916e+00 -3.399643e+00 -3.535339e+00 -3.668517e+00 -3.795472e+00 -3.914021e+00 -4.021500e+00 -4.117446e+00 -4.200341e+00 -4.271138e+00 -4.329480e+00 -4.376906e+00 -4.414178e+00 -4.442534e+00 -4.463774e+00 -4.478206e+00 -4.488553e+00 -4.493912e+00 -4.497770e+00 -4.498032e+00 -4.498740e+00 -4.496840e+00 -4.496664e+00 -4.494543e+00 -4.494795e+00 
-4.490703e+00 -4.492835e+00 -4.492779e+00 -4.496331e+00 -4.497719e+00 -4.501661e+00 -4.503216e+00 -4.505614e+00 -4.505067e+00 -4.502885e+00 -4.496769e+00 -4.485714e+00 -4.469258e+00 -4.443850e+00 -4.411200e+00 -4.365311e+00 -4.310330e+00 -4.238462e+00 -4.156329e+00 -4.055703e+00 -3.945229e+00 -3.818276e+00 -3.684315e+00 -3.540453e+00 -3.395351e+00 -3.250717e+00 -3.113665e+00 -2.988255e+00 -2.879353e+00 -2.790758e+00 -2.724871e+00 -2.684730e+00 -2.670865e+00 -2.684371e+00 -2.724433e+00 -2.789760e+00 -2.878512e+00 -2.986787e+00 -3.112389e+00 -3.248955e+00 -3.393572e+00 -3.538568e+00 -3.682026e+00 -3.816391e+00 -3.942539e+00 -4.053873e+00 -4.153381e+00 -4.236697e+00 -4.307276e+00 -4.363615e+00 -4.408196e+00 -4.442244e+00 -4.466449e+00 -4.484239e+00 -4.494276e+00 -4.501591e+00 -4.502983e+00 -4.504551e+00 -4.501606e+00 -4.500872e+00 -4.496626e+00 -4.495845e+00 -4.492227e+00 -4.492672e+00 
-4.513066e+00 -4.514900e+00 -4.515934e+00 -4.520263e+00 -4.523877e+00 -4.529691e+00 -4.534662e+00 -4.540031e+00 -4.544074e+00 -4.545879e+00 -4.545319e+00 -4.538981e+00 -4.528489e+00 -4.507900e+00 -4.480557e+00 -4.438516e+00 -4.386569e+00 -4.316058e+00 -4.232746e+00 -4.129285e+00 -4.011784e+00 -3.876446e+00 -3.729099e+00 -3.570709e+00 -3.406441e+00 -3.241230e+00 -3.078934e+00 -2.927477e+00 -2.791476e+00 -2.678852e+00 -2.593414e+00 -2.541023e+00 -2.522835e+00 -2.540726e+00 -2.593227e+00 -2.678085e+00 -2.791209e+00 -2.926518e+00 -3.078573e+00 -3.240328e+00 -3.405871e+00 -3.570038e+00 -3.728254e+00 -3.876112e+00 -4.010806e+00 -4.129347e+00 -4.231811e+00 -4.316505e+00 -4.385802e+00 -4.439266e+00 -4.480008e+00 -4.508831e+00 -4.528152e+00 -4.539966e+00 -4.545156e+00 -4.546811e+00 -4.544028e+00 -4.540827e+00 -4.534679e+00 -4.530295e+00 -4.523915e+00 -4.520638e+00 -4.515960e+00 -4.515027e+00 
-4.512477e+00 -4.515425e+00 -4.516802e+00 -4.523429e+00 -4.528563e+00 -4.537964e+00 -4.545730e+00 -4.556076e+00 -4.564278e+00 -4.572411e+00 -4.577320e+00 -4.578289e+00 -4.574195e+00 -4.560946e+00 -4.539984e+00 -4.503583e+00 -4.456318e+00 -4.387280e+00 -4.304599e+00 -4.195865e+00 -4.072505e+00 -3.923895e+00 -3.762848e+00 -3.585065e+00 -3.401125e+00 -3.216318e+00 -3.039138e+00 -2.878226e+00 -2.738667e+00 -2.626121e+00 -2.541784e+00 -2.491065e+00 -2.473218e+00 -2.490567e+00 -2.541313e+00 -2.624792e+00 -2.737882e+00 -2.876371e+00 -3.037943e+00 -3.214162e+00 -3.399302e+00 -3.582865e+00 -3.760306e+00 -3.921825e+00 -4.069459e+00 -4.193933e+00 -4.301240e+00 -4.385433e+00 -4.452831e+00 -4.501779e+00 -4.536560e+00 -4.559196e+00 -4.571013e+00 -4.576650e+00 -4.574522e+00 -4.570956e+00 -4.561962e+00 -4.554876e+00 -4.543958e+00 -4.537072e+00 -4.527369e+00 -4.522880e+00 -4.516201e+00 -4.515240e+00 
-4.535495e+00 -4.538297e+00 -4.540995e+00 -4.548974e+00 -4.557054e+00 -4.569387e+00 -4.581911e+00 -4.596881e+00 -4.611818e+00 -4.626313e+00 -4.639900e+00 -4.648771e+00 -4.654779e+00 -4.650286e+00 -4.639498e+00 -4.611241e+00 -4.571724e+00 -4.507794e+00 -4.426936e+00 -4.317247e+00 -4.186469e+00 -4.028392e+00 -3.849940e+00 -3.653350e+00 -3.444845e+00 -3.232055e+00 -3.016466e+00 -2.811800e+00 -2.624884e+00 -2.468295e+00 -2.348599e+00 -2.275405e+00 -2.249975e+00 -2.274879e+00 -2.348278e+00 -2.466993e+00 -2.624641e+00 -2.810281e+00 -3.016247e+00 -3.230683e+00 -3.444299e+00 -3.652346e+00 -3.848789e+00 -4.027872e+00 -4.185097e+00 -4.317295e+00 -4.425681e+00 -4.508398e+00 -4.570768e+00 -4.612252e+00 -4.638885e+00 -4.651507e+00 -4.654471e+00 -4.650022e+00 -4.639816e+00 -4.627462e+00 -4.611868e+00 -4.597839e+00 -4.582016e+00 -4.570099e+00 -4.557156e+00 -4.549411e+00 -4.541055e+00 -4.538444e+00 
-4.534866e+00 -4.538900e+00 -4.542205e+00 -4.552994e+00 -4.563240e+00 -4.580217e+00 -4.596707e+00 -4.618499e+00 -4.639522e+00 -4.663280e+00 -4.685303e+00 -4.705775e+00 -4.722414e+00 -4.730918e+00 -4.731955e+00 -4.715693e+00 -4.686782e+00 -4.629538e+00 -4.553910e+00 -4.439960e+00 -4.303825e+00 -4.126272e+00 -3.927043e+00 -3.697268e+00 -3.449201e+00 -3.197885e+00 -2.954456e+00 -2.738344e+00 -2.554976e+00 -2.408934e+00 -2.298017e+00 -2.232440e+00 -2.209181e+00 -2.231659e+00 -2.297377e+00 -2.407016e+00 -2.554356e+00 -2.735906e+00 -2.953551e+00 -3.195057e+00 -3.447399e+00 -3.694536e+00 -3.924003e+00 -4.123978e+00 -4.300209e+00 -4.437959e+00 -4.549937e+00 -4.627632e+00 -4.682647e+00 -4.713749e+00 -4.727912e+00 -4.728948e+00 -4.718696e+00 -4.703879e+00 -4.682082e+00 -4.661580e+00 -4.636898e+00 -4.617095e+00 -4.594729e+00 -4.579177e+00 -4.561922e+00 -4.552357e+00 -4.541548e+00 -4.538686e+00 
-4.555472e+00 -4.559534e+00 -4.564328e+00 -4.577053e+00 -4.590907e+00 -4.611930e+00 -4.634572e+00 -4.662868e+00 -4.693140e+00 -4.726248e+00 -4.761103e+00 -4.794006e+00 -4.827066e+00 -4.850771e+00 -4.870611e+00 -4.870747e+00 -4.859561e+00 -4.816190e+00 -4.750809e+00 -4.642410e+00 -4.501337e+00 -4.316103e+00 -4.094537e+00 -3.843069e+00 -3.573091e+00 -3.294357e+00 -2.996022e+00 -2.704458e+00 -2.433695e+00 -2.202651e+00 -2.025649e+00 -1.919438e+00 -1.883033e+00 -1.918446e+00 -2.024846e+00 -2.200345e+00 -2.433545e+00 -2.702061e+00 -2.996275e+00 -3.292243e+00 -3.572776e+00 -3.841507e+00 -4.092614e+00 -4.315252e+00 -4.499188e+00 -4.642410e+00 -4.749019e+00 -4.817066e+00 -4.858336e+00 -4.872191e+00 -4.869944e+00 -4.852436e+00 -4.826841e+00 -4.795638e+00 -4.761167e+00 -4.727688e+00 -4.693350e+00 -4.664029e+00 -4.634815e+00 -4.612772e+00 -4.591105e+00 -4.577560e+00 -4.564437e+00 -4.559703e+00 
-4.551683e+00 -4.557018e+00 -4.562668e+00 -4.578565e+00 -4.595147e+00 -4.621739e+00 -4.649473e+00 -4.686520e+00 -4.725029e+00 -4.771030e+00 -4.818211e+00 -4.868968e+00 -4.919212e+00 -4.965674e+00 -5.007340e+00 -5.032709e+00 -5.045239e+00 -5.022719e+00 -4.975943e+00 -4.871987e+00 -4.734192e+00 -4.524534e+00 -4.280655e+00 -3.976386e+00 -3.618857e+00 -3.252095e+00 -2.895005e+00 -2.596923e+00 -2.364428e+00 -2.180650e+00 -2.033169e+00 -1.948219e+00 -1.919176e+00 -1.946796e+00 -2.031822e+00 -2.177705e+00 -2.364327e+00 -2.593877e+00 -2.894991e+00 -3.248025e+00 -3.617287e+00 -3.972574e+00 -4.276314e+00 -4.522077e+00 -4.729735e+00 -4.870057e+00 -4.971117e+00 -5.020841e+00 -5.040155e+00 -5.030580e+00 -5.002401e+00 -4.963353e+00 -4.914757e+00 -4.866671e+00 -4.814442e+00 -4.768965e+00 -4.722033e+00 -4.684832e+00 -4.647263e+00 -4.620505e+00 -4.593700e+00 -4.577817e+00 -4.561954e+00 -4.556768e+00 
-4.565771e+00 -4.571326e+00 -4.578491e+00 -4.596833e+00 -4.617452e+00 -4.649117e+00 -4.684194e+00 -4.729701e+00 -4.780117e+00 -4.839076e+00 -4.904396e+00 -4.974014e+00 -5.050309e+00 -5.122772e+00 -5.198808e+00 -5.256812e+00 -5.308301e+00 -5.319534e+00 -5.304486e+00 -5.222611e+00 -5.088965e+00 -4.878165e+00 -4.592786e+00 -4.257291e+00 -3.914589e+00 -3.564643e+00 -3.138173e+00 -2.696618e+00 -2.283498e+00 -1.920330e+00 -1.646161e+00 -1.494522e+00 -1.446126e+00 -1.492525e+00 -1.643675e+00 -1.916101e+00 -2.283768e+00 -2.693131e+00 -3.139820e+00 -3.561352e+00 -3.915256e+00 -4.254563e+00 -4.588388e+00 -4.876717e+00 -5.085380e+00 -5.222450e+00 -5.301889e+00 -5.320928e+00 -5.306740e+00 -5.258983e+00 -5.198141e+00 -5.125097e+00 -5.050277e+00 -4.976154e+00 -4.904725e+00 -4.840873e+00 -4.780580e+00 -4.731092e+00 -4.684638e+00 -4.650095e+00 -4.617784e+00 -4.597410e+00 -4.578666e+00 -4.571516e+00 
-4.554912e+00 -4.561639e+00 -4.569832e+00 -4.591365e+00 -4.615009e+00 -4.652707e+00 -4.693667e+00 -4.749525e+00 -4.810258e+00 -4.886161e+00 -4.968673e+00 -5.064893e+00 -5.168449e+00 -5.280194e+00 -5.396267e+00 -5.506059e+00 -5.608640e+00 -5.674238e+00 -5.708403e+00 -5.657446e+00 -5.550047e+00 -5.309722e+00 -5.037327e+00 -4.636309e+00 -4.063681e+00 -3.456853e+00 -2.872428e+00 -2.460607e+00 -2.228853e+00 -2.030879e+00 -1.822123e+00 -1.708563e+00 -1.678753e+00 -1.705399e+00 -1.817954e+00 -2.025943e+00 -2.230504e+00 -2.458126e+00 -2.874868e+00 -3.449995e+00 -4.063032e+00 -4.629513e+00 -5.028520e+00 -5.307859e+00 -5.544999e+00 -5.655954e+00 -5.702538e+00 -5.672611e+00 -5.602095e+00 -5.503620e+00 -5.390002e+00 -5.277259e+00 -5.162997e+00 -5.061951e+00 -4.964237e+00 -4.883568e+00 -4.806859e+00 -4.747463e+00 -4.691239e+00 -4.651239e+00 -4.613458e+00 -4.590493e+00 -4.569079e+00 -4.561351e+00 
-4.557441e+00 -4.564572e+00 -4.574063e+00 -4.598329e+00 -4.625933e+00 -4.669381e+00 -4.718209e+00 -4.784223e+00 -4.859100e+00 -4.951995e+00 -5.058891e+00 -5.182879e+00 -5.326716e+00 -5.482316e+00 -5.659940e+00 -5.833088e+00 -6.016606e+00 -6.156385e+00 -6.268607e+00 -6.268003e+00 -6.185427e+00 -5.949180e+00 -5.505605e+00 -4.971870e+00 -4.581869e+00 -4.241647e+00 -3.596041e+00 -2.839874e+00 -2.102099e+00 -1.265178e+00 -5.019824e-01 -5.959815e-02 7.880542e-02 -5.628024e-02 -4.957675e-01 -1.259347e+00 -2.105866e+00 -2.836376e+00 -3.600932e+00 -4.236462e+00 -4.586740e+00 -4.966096e+00 -5.492229e+00 -5.947311e+00 -6.180411e+00 -6.267302e+00 -6.265080e+00 -6.158987e+00 -6.014696e+00 -5.836522e+00 -5.659404e+00 -5.485570e+00 -5.327070e+00 -5.185637e+00 -5.059662e+00 -4.954175e+00 -4.859944e+00 -4.785833e+00 -4.718928e+00 -4.670470e+00 -4.626438e+00 -4.598955e+00 -4.574319e+00 -4.564775e+00 
-4.535157e+00 -4.543127e+00 -4.553662e+00 -4.580530e+00 -4.610936e+00 -4.659919e+00 -4.714619e+00 -4.791481e+00 -4.878069e+00 -4.991522e+00 -5.121083e+00 -5.282770e+00 -5.468333e+00 -5.688761e+00 -5.936287e+00 -6.207303e+00 -6.489183e+00 -6.743766e+00 -6.948746e+00 -7.022672e+00 -6.952657e+00 -6.617494e+00 -6.410768e+00 -5.913151e+00 -4.542345e+00 -2.268878e+00 6.412669e-01 3.333152e+00 5.632689e+00 7.528311e+00 8.810075e+00 9.514146e+00 9.745680e+00 9.513223e+00 8.806202e+00 7.526535e+00 5.624557e+00 3.311422e+00 6.072352e-01 -2.256147e+00 -4.535986e+00 -5.894024e+00 -6.386379e+00 -6.621703e+00 -6.952283e+00 -7.022138e+00 -6.941632e+00 -6.742971e+00 -6.479954e+00 -6.204081e+00 -5.927947e+00 -5.684610e+00 -5.461575e+00 -5.278775e+00 -5.115912e+00 -4.988193e+00 -4.874315e+00 -4.788972e+00 -4.712059e+00 -4.658210e+00 -4.609359e+00 -4.579547e+00 -4.552913e+00 -4.542807e+00 
-4.520616e+00 -4.529108e+00 -4.540392e+00 -4.569853e+00 -4.603314e+00 -4.657986e+00 -4.719740e+00 -4.807625e+00 -4.909096e+00 -5.043351e+00 -5.203250e+00 -5.403679e+00 -5.647600e+00 -5.936684e+00 -6.283949e+00 -6.662030e+00 -7.082586e+00 -7.462738e+00 -7.794946e+00 -7.896981e+00 -7.911493e+00 -7.505635e+00 -5.545917e+00 -1.612337e+00 3.196253e+00 7.452067e+00 1.053284e+01 1.236788e+01 1.341762e+01 1.395224e+01 1.413752e+01 1.422473e+01 1.425750e+01 1.422258e+01 1.413173e+01 1.394961e+01 1.341759e+01 1.234852e+01 1.051624e+01 7.489962e+00 3.226823e+00 -1.585523e+00 -5.532012e+00 -7.507918e+00 -7.911605e+00 -7.893614e+00 -7.789987e+00 -7.468811e+00 -7.080221e+00 -6.667534e+00 -6.283761e+00 -5.941025e+00 -5.648652e+00 -5.407036e+00 -5.204718e+00 -5.045846e+00 -4.910472e+00 -4.809371e+00 -4.720804e+00 -4.659114e+00 -4.604013e+00 -4.570478e+00 -4.540734e+00 -4.529307e+00 
-4.482916e+00 -4.491609e+00 -4.503712e+00 -4.534327e+00 -4.569566e+00 -4.627744e+00 -4.693945e+00 -4.790942e+00 -4.903739e+00 -5.059756e+00 -5.246638e+00 -5.494846e+00 -5.795605e+00 -6.176987e+00 -6.624185e+00 -7.146644e+00 -7.703585e+00 -8.231677e+00 -8.634302e+00 -8.771827e+00 -7.606489e+00 -3.286210e+00 3.052712e+00 8.543464e+00 1.189890e+01 1.338330e+01 1.379066e+01 1.377912e+01 1.374358e+01 1.370816e+01 1.367844e+01 1.368595e+01 1.369487e+01 1.368410e+01 1.367636e+01 1.370493e+01 1.374418e+01 1.377346e+01 1.379625e+01 1.339187e+01 1.189674e+01 8.541896e+00 3.022329e+00 -3.293285e+00 -7.613679e+00 -8.768913e+00 -8.621501e+00 -8.233696e+00 -7.688304e+00 -7.140712e+00 -6.612600e+00 -6.170239e+00 -5.787308e+00 -5.489180e+00 -5.240843e+00 -5.055517e+00 -4.899849e+00 -4.788009e+00 -4.691466e+00 -4.625872e+00 -4.568119e+00 -4.533297e+00 -4.503048e+00 -4.491282e+00 
-4.446376e+00 -4.455543e+00 -4.467510e+00 -4.499906e+00 -4.536226e+00 -4.598847e+00 -4.669204e+00 -4.776463e+00 -4.901634e+00 -5.080436e+00 -5.299367e+00 -5.594497e+00 -5.964982e+00 -6.428506e+00 -6.992148e+00 -7.623916e+00 -8.308601e+00 -8.929531e+00 -9.187825e+00 -7.059574e+00 -5.889352e-01 6.904348e+00 1.133903e+01 1.291589e+01 1.313274e+01 1.313328e+01 1.322271e+01 1.338065e+01 1.359946e+01 1.379696e+01 1.392563e+01 1.400530e+01 1.403035e+01 1.400454e+01 1.392466e+01 1.379548e+01 1.360095e+01 1.337829e+01 1.322565e+01 1.313217e+01 1.312701e+01 1.292333e+01 1.133242e+01 6.899295e+00 -5.867943e-01 -7.026539e+00 -9.174141e+00 -8.947254e+00 -8.306076e+00 -7.631522e+00 -6.992830e+00 -6.433380e+00 -5.967239e+00 -5.598097e+00 -5.301856e+00 -5.083008e+00 -4.903671e+00 -4.778160e+00 -4.670629e+00 -4.599876e+00 -4.537097e+00 -4.500448e+00 -4.467918e+00 -4.455711e+00 
-4.391084e+00 -4.399477e+00 -4.411770e+00 -4.442915e+00 -4.479043e+00 -4.541239e+00 -4.612654e+00 -4.723880e+00 -4.856593e+00 -5.052333e+00 -5.296419e+00 -5.636456e+00 -6.061051e+00 -6.609069e+00 -7.241809e+00 -7.984078e+00 -8.744183e+00 -9.224747e+00 -6.700244e+00 1.168999e+00 9.008051e+00 1.221154e+01 1.266193e+01 1.270846e+01 1.296688e+01 1.326790e+01 1.347856e+01 1.358978e+01 1.366096e+01 1.369948e+01 1.372110e+01 1.373759e+01 1.374299e+01 1.373692e+01 1.372073e+01 1.369805e+01 1.366120e+01 1.358807e+01 1.347913e+01 1.326901e+01 1.296544e+01 1.270992e+01 1.266616e+01 1.219752e+01 9.017594e+00 1.194647e+00 -6.710852e+00 -9.226223e+00 -8.719263e+00 -7.968059e+00 -7.226847e+00 -6.597148e+00 -6.051555e+00 -5.628559e+00 -5.290524e+00 -5.047308e+00 -4.853085e+00 -4.720795e+00 -4.610659e+00 -4.539440e+00 -4.477984e+00 -4.441985e+00 -4.411315e+00 -4.399191e+00 
-4.329975e+00 -4.338485e+00 -4.349589e+00 -4.380827e+00 -4.415076e+00 -4.478901e+00 -4.549121e+00 -4.667384e+00 -4.804620e+00 -5.020661e+00 -5.286058e+00 -5.666545e+00 -6.138586e+00 -6.727547e+00 -7.414010e+00 -8.148778e+00 -8.899428e+00 -6.991142e+00 1.153886e+00 9.617426e+00 1.225123e+01 1.244432e+01 1.265389e+01 1.292841e+01 1.309928e+01 1.323179e+01 1.335741e+01 1.348439e+01 1.361474e+01 1.372964e+01 1.381351e+01 1.386802e+01 1.388463e+01 1.386772e+01 1.381344e+01 1.372889e+01 1.361514e+01 1.348326e+01 1.335756e+01 1.323119e+01 1.309761e+01 1.292947e+01 1.265243e+01 1.244038e+01 1.225383e+01 9.618251e+00 1.157411e+00 -6.984040e+00 -8.887543e+00 -8.150270e+00 -7.417122e+00 -6.731118e+00 -6.142931e+00 -5.669679e+00 -5.289867e+00 -5.022891e+00 -4.807305e+00 -4.668723e+00 -4.550790e+00 -4.479619e+00 -4.416011e+00 -4.381165e+00 -4.350004e+00 -4.338583e+00 
-4.258732e+00 -4.265202e+00 -4.275994e+00 -4.302862e+00 -4.334242e+00 -4.392142e+00 -4.458061e+00 -4.571599e+00 -4.707747e+00 -4.926418e+00 -5.202476e+00 -5.594704e+00 -6.082484e+00 -6.672872e+00 -7.297849e+00 -8.143526e+00 -7.363879e+00 -8.478795e-02 8.994561e+00 1.209932e+01 1.229834e+01 1.260340e+01 1.277420e+01 1.294192e+01 1.311615e+01 1.329006e+01 1.343110e+01 1.353877e+01 1.361778e+01 1.367387e+01 1.370924e+01 1.373196e+01 1.373778e+01 1.373164e+01 1.370905e+01 1.367304e+01 1.361744e+01 1.353758e+01 1.343028e+01 1.328899e+01 1.311424e+01 1.293974e+01 1.277084e+01 1.259769e+01 1.228625e+01 1.209490e+01 9.006515e+00 -9.516570e-02 -7.333024e+00 -8.106734e+00 -7.283491e+00 -6.654497e+00 -6.072589e+00 -5.585212e+00 -5.197529e+00 -4.921540e+00 -4.705554e+00 -4.569077e+00 -4.457165e+00 -4.390862e+00 -4.333920e+00 -4.302268e+00 -4.275902e+00 -4.265030e+00 
-4.175135e+00 -4.180898e+00 -4.189686e+00 -4.213998e+00 -4.240290e+00 -4.295257e+00 -4.353063e+00 -4.467464e+00 -4.594589e+00 -4.825612e+00 -5.093772e+00 -5.506169e+00 -5.976399e+00 -6.535480e+00 -7.140249e+00 -7.677901e+00 -2.756825e+00 7.306816e+00 1.199234e+01 1.221836e+01 1.253836e+01 1.267027e+01 1.287589e+01 1.304185e+01 1.319309e+01 1.331910e+01 1.343392e+01 1.353719e+01 1.362972e+01 1.370823e+01 1.376504e+01 1.380258e+01 1.381324e+01 1.380240e+01 1.376499e+01 1.370776e+01 1.362969e+01 1.353657e+01 1.343384e+01 1.331889e+01 1.319322e+01 1.304276e+01 1.287798e+01 1.267262e+01 1.254613e+01 1.222873e+01 1.202193e+01 7.342075e+00 -2.740926e+00 -7.703704e+00 -7.156613e+00 -6.541980e+00 -5.984581e+00 -5.508768e+00 -5.098771e+00 -4.826988e+00 -4.597509e+00 -4.468025e+00 -4.354617e+00 -4.295392e+00 -4.241058e+00 -4.213988e+00 -4.190000e+00 -4.180881e+00 
-4.095268e+00 -4.097574e+00 -4.105602e+00 -4.122348e+00 -4.143269e+00 -4.186590e+00 -4.233901e+00 -4.333808e+00 -4.446277e+00 -4.660710e+00 -4.912332e+00 -5.279616e+00 -5.746702e+00 -6.076060e+00 -6.952783e+00 -5.179391e+00 3.665012e+00 1.119076e+01 1.225565e+01 1.237510e+01 1.258715e+01 1.277679e+01 1.294051e+01 1.309259e+01 1.322978e+01 1.335892e+01 1.346597e+01 1.355742e+01 1.362599e+01 1.368049e+01 1.371446e+01 1.373789e+01 1.374261e+01 1.373772e+01 1.371425e+01 1.367995e+01 1.362546e+01 1.355645e+01 1.346481e+01 1.335728e+01 1.322750e+01 1.308902e+01 1.293621e+01 1.276832e+01 1.257902e+01 1.235409e+01 1.224553e+01 1.114468e+01 3.648402e+00 -5.126745e+00 -6.909524e+00 -6.057136e+00 -5.733239e+00 -5.271406e+00 -4.909764e+00 -4.657890e+00 -4.446720e+00 -4.332944e+00 -4.234829e+00 -4.186395e+00 -4.144027e+00 -4.122355e+00 -4.106009e+00 -4.097594e+00 
-3.997657e+00 -3.997908e+00 -4.003889e+00 -4.014615e+00 -4.028399e+00 -4.062392e+00 -4.095863e+00 -4.186388e+00 -4.275077e+00 -4.488832e+00 -4.693135e+00 -5.078269e+00 -5.432677e+00 -5.802849e+00 -6.483214e+00 -1.057841e+00 8.843548e+00 1.243426e+01 1.224146e+01 1.257115e+01 1.269645e+01 1.288091e+01 1.302975e+01 1.317277e+01 1.329836e+01 1.341044e+01 1.350831e+01 1.359490e+01 1.366628e+01 1.372625e+01 1.376712e+01 1.379522e+01 1.380189e+01 1.379507e+01 1.376695e+01 1.372584e+01 1.366597e+01 1.359436e+01 1.350796e+01 1.341010e+01 1.329844e+01 1.317314e+01 1.303155e+01 1.288294e+01 1.270281e+01 1.257784e+01 1.225899e+01 1.245152e+01 8.958281e+00 -1.012882e+00 -6.525804e+00 -5.807328e+00 -5.441511e+00 -5.077390e+00 -4.697201e+00 -4.488196e+00 -4.277069e+00 -4.185601e+00 -4.096651e+00 -4.061647e+00 -4.028662e+00 -4.014118e+00 -4.003961e+00 -3.997737e+00 
-3.922232e+00 -3.917641e+00 -3.923081e+00 -3.923642e+00 -3.931224e+00 -3.948878e+00 -3.967602e+00 -4.036203e+00 -4.092934e+00 -4.287104e+00 -4.408118e+00 -4.810865e+00 -4.892557e+00 -5.521279e+00 -4.766802e+00 3.442693e+00 1.131758e+01 1.232730e+01 1.233991e+01 1.260090e+01 1.275365e+01 1.293070e+01 1.307437e+01 1.321190e+01 1.333008e+01 1.344021e+01 1.352946e+01 1.360931e+01 1.366741e+01 1.371714e+01 1.374618e+01 1.376867e+01 1.377155e+01 1.376861e+01 1.374604e+01 1.371695e+01 1.366705e+01 1.360892e+01 1.352867e+01 1.343942e+01 1.332849e+01 1.321020e+01 1.307126e+01 1.292748e+01 1.274775e+01 1.259740e+01 1.232901e+01 1.233525e+01 1.127766e+01 3.333574e+00 -4.765622e+00 -5.498288e+00 -4.893295e+00 -4.806978e+00 -4.413911e+00 -4.288630e+00 -4.097857e+00 -4.037995e+00 -3.970867e+00 -3.950176e+00 -3.933207e+00 -3.924419e+00 -3.924028e+00 -3.917900e+00 
-3.824460e+00 -3.816234e+00 -3.820585e+00 -3.811442e+00 -3.812295e+00 -3.812584e+00 -3.816851e+00 -3.859063e+00 -3.887910e+00 -4.051559e+00 -4.111372e+00 -4.513976e+00 -4.413871e+00 -5.279196e+00 -2.304312e+00 7.509213e+00 1.237924e+01 1.222030e+01 1.254903e+01 1.265986e+01 1.286529e+01 1.300248e+01 1.315428e+01 1.327884e+01 1.339545e+01 1.349726e+01 1.358371e+01 1.366004e+01 1.371860e+01 1.376882e+01 1.380007e+01 1.382345e+01 1.382727e+01 1.382328e+01 1.379973e+01 1.376834e+01 1.371793e+01 1.365929e+01 1.358271e+01 1.349633e+01 1.339421e+01 1.327775e+01 1.315285e+01 1.300096e+01 1.286333e+01 1.265669e+01 1.254471e+01 1.220964e+01 1.236391e+01 7.583992e+00 -2.161943e+00 -5.229981e+00 -4.397888e+00 -4.502924e+00 -4.109598e+00 -4.047599e+00 -3.887251e+00 -3.856428e+00 -3.816117e+00 -3.810754e+00 -3.811725e+00 -3.810380e+00 -3.820292e+00 -3.815888e+00 
-3.768345e+00 -3.754268e+00 -3.759115e+00 -3.738131e+00 -3.735138e+00 -3.714233e+00 -3.709123e+00 -3.714244e+00 -3.726437e+00 -3.827024e+00 -3.865514e+00 -4.161992e+00 -4.058676e+00 -4.721572e+00 1.552219e-01 9.866402e+00 1.256781e+01 1.218411e+01 1.262777e+01 1.267743e+01 1.290720e+01 1.303257e+01 1.318490e+01 1.330756e+01 1.341908e+01 1.351989e+01 1.359912e+01 1.367226e+01 1.372231e+01 1.376837e+01 1.379258e+01 1.381429e+01 1.381528e+01 1.381438e+01 1.379262e+01 1.376862e+01 1.372237e+01 1.367272e+01 1.359918e+01 1.352062e+01 1.341907e+01 1.330861e+01 1.318467e+01 1.303405e+01 1.290632e+01 1.267943e+01 1.262508e+01 1.218427e+01 1.256005e+01 9.841913e+00 1.865044e-01 -4.725707e+00 -4.086242e+00 -4.174590e+00 -3.881341e+00 -3.834850e+00 -3.735016e+00 -3.718813e+00 -3.714144e+00 -3.716995e+00 -3.738079e+00 -3.739658e+00 -3.760499e+00 -3.754760e+00 
-3.684403e+00 -3.665756e+00 -3.670789e+00 -3.637752e+00 -3.630310e+00 -3.584981e+00 -3.570880e+00 -3.528419e+00 -3.529872e+00 -3.537948e+00 -3.585352e+00 -3.690302e+00 -3.704633e+00 -3.832492e+00 2.868892e+00 1.133533e+01 1.242113e+01 1.230567e+01 1.265541e+01 1.275388e+01 1.296133e+01 1.309636e+01 1.324202e+01 1.336616e+01 1.347452e+01 1.357382e+01 1.365123e+01 1.372285e+01 1.377275e+01 1.381825e+01 1.384331e+01 1.386466e+01 1.386629e+01 1.386447e+01 1.384282e+01 1.381767e+01 1.377172e+01 1.372185e+01 1.364957e+01 1.357235e+01 1.347200e+01 1.336405e+01 1.323804e+01 1.309319e+01 1.295424e+01 1.274893e+01 1.264034e+01 1.229900e+01 1.238414e+01 1.138095e+01 2.982153e+00 -3.841740e+00 -3.711543e+00 -3.690655e+00 -3.584371e+00 -3.534112e+00 -3.527180e+00 -3.524633e+00 -3.568642e+00 -3.582296e+00 -3.628894e+00 -3.636216e+00 -3.670122e+00 -3.665260e+00 
-3.657371e+00 -3.633204e+00 -3.639440e+00 -3.595589e+00 -3.587003e+00 -3.520715e+00 -3.503852e+00 -3.419869e+00 -3.421638e+00 -3.348408e+00 -3.427021e+00 -3.377668e+00 -3.552255e+00 -3.199801e+00 4.830986e+00 1.206386e+01 1.226311e+01 1.243206e+01 1.263386e+01 1.280470e+01 1.296825e+01 1.312522e+01 1.325478e+01 1.338634e+01 1.348595e+01 1.358715e+01 1.365761e+01 1.372853e+01 1.377222e+01 1.381647e+01 1.383680e+01 1.385828e+01 1.385762e+01 1.385848e+01 1.383704e+01 1.381714e+01 1.377275e+01 1.372982e+01 1.365860e+01 1.358937e+01 1.348772e+01 1.339007e+01 1.325794e+01 1.313152e+01 1.297412e+01 1.281587e+01 1.264579e+01 1.245412e+01 1.229264e+01 1.213123e+01 4.854916e+00 -3.270235e+00 -3.588392e+00 -3.409517e+00 -3.446709e+00 -3.363329e+00 -3.432548e+00 -3.427538e+00 -3.510187e+00 -3.524939e+00 -3.590653e+00 -3.597793e+00 -3.641139e+00 -3.633896e+00 
-3.595949e+00 -3.568171e+00 -3.574871e+00 -3.520776e+00 -3.508934e+00 -3.420549e+00 -3.396940e+00 -3.268009e+00 -3.262573e+00 -3.102761e+00 -3.196923e+00 -3.000990e+00 -3.288389e+00 -2.408493e+00 6.311984e+00 1.235297e+01 1.217418e+01 1.255213e+01 1.262523e+01 1.287139e+01 1.299209e+01 1.317484e+01 1.329103e+01 1.343081e+01 1.352629e+01 1.362924e+01 1.369861e+01 1.376935e+01 1.381334e+01 1.385705e+01 1.387827e+01 1.389897e+01 1.389907e+01 1.389875e+01 1.387767e+01 1.385638e+01 1.381207e+01 1.376816e+01 1.369652e+01 1.362742e+01 1.352305e+01 1.342809e+01 1.328609e+01 1.317066e+01 1.298447e+01 1.286467e+01 1.261387e+01 1.254041e+01 1.216051e+01 1.232688e+01 6.322788e+00 -2.399978e+00 -3.284487e+00 -3.000205e+00 -3.194422e+00 -3.099995e+00 -3.259570e+00 -3.264571e+00 -3.394274e+00 -3.417749e+00 -3.507129e+00 -3.519062e+00 -3.573990e+00 -3.567602e+00 
-3.600290e+00 -3.569354e+00 -3.576920e+00 -3.517405e+00 -3.505862e+00 -3.406775e+00 -3.383325e+00 -3.232435e+00 -3.229897e+00 -3.028654e+00 -3.145892e+00 -2.891648e+00 -3.258004e+00 -2.051479e+00 7.109568e+00 1.249158e+01 1.213701e+01 1.262538e+01 1.261028e+01 1.290172e+01 1.298694e+01 1.318648e+01 1.328820e+01 1.343397e+01 1.352202e+01 1.362680e+01 1.369098e+01 1.376193e+01 1.380171e+01 1.384542e+01 1.386349e+01 1.388501e+01 1.388336e+01 1.388529e+01 1.386384e+01 1.384634e+01 1.380254e+01 1.376370e+01 1.369253e+01 1.362987e+01 1.352479e+01 1.343904e+01 1.329301e+01 1.319463e+01 1.299509e+01 1.291439e+01 1.262361e+01 1.264376e+01 1.215692e+01 1.251243e+01 7.146335e+00 -2.063390e+00 -3.286298e+00 -2.918311e+00 -3.166788e+00 -3.045697e+00 -3.242586e+00 -3.241974e+00 -3.390684e+00 -3.411990e+00 -3.510003e+00 -3.520055e+00 -3.578814e+00 -3.570172e+00 
-3.565882e+00 -3.534397e+00 -3.541813e+00 -3.478975e+00 -3.465252e+00 -3.358338e+00 -3.330136e+00 -3.163427e+00 -3.152591e+00 -2.922625e+00 -3.029778e+00 -2.734722e+00 -3.089400e+00 -1.762396e+00 7.377822e+00 1.247769e+01 1.211706e+01 1.263918e+01 1.261019e+01 1.291940e+01 1.299898e+01 1.320603e+01 1.330689e+01 1.345532e+01 1.354440e+01 1.364980e+01 1.371573e+01 1.378661e+01 1.382839e+01 1.387171e+01 1.389156e+01 1.391216e+01 1.391169e+01 1.391193e+01 1.389092e+01 1.387100e+01 1.382704e+01 1.378536e+01 1.371349e+01 1.364786e+01 1.354095e+01 1.345239e+01 1.330173e+01 1.320155e+01 1.299142e+01 1.291241e+01 1.260000e+01 1.262878e+01 1.210622e+01 1.246641e+01 7.407052e+00 -1.749061e+00 -3.088835e+00 -2.735675e+00 -3.028537e+00 -2.921038e+00 -3.150108e+00 -3.160488e+00 -3.327557e+00 -3.355649e+00 -3.463389e+00 -3.477248e+00 -3.540876e+00 -3.533813e+00 