# vtk DataFile Version 2.0
Comment goes here
ASCII

DATASET STRUCTURED_POINTS
FIELD FieldData 1
TIME 1 1 double
0.26000000
DIMENSIONS    64   64   1

ORIGIN    0.000   0.000   0.000
SPACING   0.015625 0.015625   1.000

POINT_DATA   4096
SCALARS P double
LOOKUP_TABLE default

-4.595719e+00 -4.598551e+00 -4.613767e+00 -4.634640e+00 -4.667677e+00 -4.706749e+00 -4.757524e+00 -4.814876e+00 -4.883151e+00 -4.958584e+00 -5.043716e+00 -5.136439e+00 -5.237028e+00 -5.345230e+00 -5.458666e+00 -5.578995e+00 -5.700959e+00 -5.827991e+00 -5.952065e+00 -6.078007e+00 -6.195700e+00 -6.310779e+00 -6.412467e+00 -6.506568e+00 -6.583742e+00 -6.649457e+00 -6.697955e+00 -6.733912e+00 -6.756422e+00 -6.768738e+00 -6.774493e+00 -6.775640e+00 -6.776217e+00 -6.775039e+00 -6.773587e+00 -6.767011e+00 -6.754898e+00 -6.731261e+00 -6.696167e+00 -6.646211e+00 -6.581943e+00 -6.503130e+00 -6.410741e+00 -6.307467e+00 -6.194035e+00 -6.074984e+00 -5.950432e+00 -5.825309e+00 -5.699356e+00 -5.576654e+00 -5.457122e+00 -5.343216e+00 -5.235592e+00 -5.134742e+00 -5.042440e+00 -4.957198e+00 -4.882081e+00 -4.813800e+00 -4.756695e+00 -4.705980e+00 -4.667113e+00 -4.634179e+00 -4.613482e+00 -4.598397e+00 
-4.586290e+00 -4.589592e+00 -4.604097e+00 -4.625389e+00 -4.657651e+00 -4.697104e+00 -4.747040e+00 -4.804744e+00 -4.872119e+00 -4.947867e+00 -5.032046e+00 -5.125011e+00 -5.224590e+00 -5.332882e+00 -5.445215e+00 -5.565331e+00 -5.686004e+00 -5.812277e+00 -5.934676e+00 -6.058956e+00 -6.174312e+00 -6.286379e+00 -6.384841e+00 -6.474232e+00 -6.547482e+00 -6.607118e+00 -6.652105e+00 -6.682628e+00 -6.704115e+00 -6.715137e+00 -6.723205e+00 -6.725283e+00 -6.727394e+00 -6.724903e+00 -6.722757e+00 -6.714090e+00 -6.703567e+00 -6.681126e+00 -6.651798e+00 -6.605393e+00 -6.547515e+00 -6.472546e+00 -6.385097e+00 -6.284937e+00 -6.174654e+00 -6.057866e+00 -5.935034e+00 -5.811555e+00 -5.686356e+00 -5.564931e+00 -5.445556e+00 -5.332726e+00 -5.224914e+00 -5.125019e+00 -5.032342e+00 -4.947964e+00 -4.872376e+00 -4.804872e+00 -4.747244e+00 -4.697223e+00 -4.657792e+00 -4.625470e+00 -4.604170e+00 -4.589620e+00 
-4.579676e+00 -4.582454e+00 -4.597733e+00 -4.618569e+00 -4.651705e+00 -4.690807e+00 -4.741785e+00 -4.799328e+00 -4.868018e+00 -4.943939e+00 -5.029852e+00 -5.123541e+00 -5.225465e+00 -5.335327e+00 -5.450846e+00 -5.573735e+00 -5.698674e+00 -5.829278e+00 -5.957196e+00 -6.087584e+00 -6.209674e+00 -6.329530e+00 -6.435474e+00 -6.533743e+00 -6.614110e+00 -6.682410e+00 -6.732287e+00 -6.768635e+00 -6.790409e+00 -6.800363e+00 -6.803655e+00 -6.802626e+00 -6.802435e+00 -6.801999e+00 -6.802629e+00 -6.798559e+00 -6.788737e+00 -6.765845e+00 -6.730395e+00 -6.678979e+00 -6.612280e+00 -6.530155e+00 -6.433757e+00 -6.326134e+00 -6.208019e+00 -6.084529e+00 -5.955556e+00 -5.826587e+00 -5.697046e+00 -5.571391e+00 -5.449267e+00 -5.333309e+00 -5.223994e+00 -5.121840e+00 -5.028546e+00 -4.942548e+00 -4.866926e+00 -4.798247e+00 -4.740941e+00 -4.690036e+00 -4.651131e+00 -4.618107e+00 -4.597443e+00 -4.582300e+00 
-4.554310e+00 -4.557492e+00 -4.572129e+00 -4.593336e+00 -4.625799e+00 -4.665309e+00 -4.715649e+00 -4.773747e+00 -4.841956e+00 -4.918723e+00 -5.004480e+00 -5.099475e+00 -5.201776e+00 -5.313561e+00 -5.430188e+00 -5.555703e+00 -5.682557e+00 -5.816372e+00 -5.946784e+00 -6.080439e+00 -6.204849e+00 -6.326845e+00 -6.433655e+00 -6.531089e+00 -6.609669e+00 -6.672565e+00 -6.718431e+00 -6.746501e+00 -6.765997e+00 -6.774565e+00 -6.782146e+00 -6.784576e+00 -6.786679e+00 -6.784122e+00 -6.781398e+00 -6.773353e+00 -6.765162e+00 -6.744809e+00 -6.718056e+00 -6.670605e+00 -6.609837e+00 -6.529204e+00 -6.434047e+00 -6.325288e+00 -6.205251e+00 -6.079318e+00 -5.947145e+00 -5.815677e+00 -5.682893e+00 -5.555360e+00 -5.430515e+00 -5.313470e+00 -5.202094e+00 -5.099541e+00 -5.004777e+00 -4.918866e+00 -4.842215e+00 -4.773909e+00 -4.715856e+00 -4.665449e+00 -4.625942e+00 -4.593429e+00 -4.572203e+00 -4.557524e+00 
-4.531465e+00 -4.534072e+00 -4.549516e+00 -4.570198e+00 -4.603573e+00 -4.642688e+00 -4.694181e+00 -4.752180e+00 -4.821995e+00 -4.899233e+00 -4.987349e+00 -5.083783e+00 -5.189590e+00 -5.304321e+00 -5.426066e+00 -5.556674e+00 -5.690729e+00 -5.832392e+00 -5.972398e+00 -6.116937e+00 -6.253217e+00 -6.388700e+00 -6.508756e+00 -6.621013e+00 -6.712313e+00 -6.789692e+00 -6.844811e+00 -6.883761e+00 -6.903827e+00 -6.904586e+00 -6.897742e+00 -6.887885e+00 -6.884394e+00 -6.887177e+00 -6.896280e+00 -6.902572e+00 -6.901649e+00 -6.880542e+00 -6.842571e+00 -6.785627e+00 -6.710425e+00 -6.616934e+00 -6.507102e+00 -6.385065e+00 -6.251607e+00 -6.113808e+00 -5.970733e+00 -5.829689e+00 -5.689014e+00 -5.554325e+00 -5.424375e+00 -5.302291e+00 -5.188008e+00 -5.082065e+00 -4.985952e+00 -4.897827e+00 -4.820835e+00 -4.751089e+00 -4.693292e+00 -4.641910e+00 -4.602973e+00 -4.569732e+00 -4.549214e+00 -4.533918e+00 
-4.490191e+00 -4.493108e+00 -4.507965e+00 -4.528907e+00 -4.561655e+00 -4.601112e+00 -4.652073e+00 -4.710715e+00 -4.780331e+00 -4.858829e+00 -4.947442e+00 -5.046164e+00 -5.153645e+00 -5.272177e+00 -5.397331e+00 -5.533726e+00 -5.673384e+00 -5.823055e+00 -5.970819e+00 -6.125138e+00 -6.270130e+00 -6.415265e+00 -6.542058e+00 -6.659611e+00 -6.751625e+00 -6.823505e+00 -6.871341e+00 -6.890728e+00 -6.903779e+00 -6.906496e+00 -6.915683e+00 -6.923053e+00 -6.926568e+00 -6.922401e+00 -6.914053e+00 -6.904905e+00 -6.902184e+00 -6.888684e+00 -6.870838e+00 -6.820989e+00 -6.752259e+00 -6.657273e+00 -6.542798e+00 -6.413470e+00 -6.270626e+00 -6.123971e+00 -5.971145e+00 -5.822439e+00 -5.673663e+00 -5.533517e+00 -5.397622e+00 -5.272228e+00 -5.153950e+00 -5.046352e+00 -4.947740e+00 -4.859065e+00 -4.780597e+00 -4.710942e+00 -4.652287e+00 -4.601294e+00 -4.561804e+00 -4.529023e+00 -4.508041e+00 -4.493148e+00 
-4.450905e+00 -4.453194e+00 -4.468835e+00 -4.489115e+00 -4.522697e+00 -4.561571e+00 -4.613612e+00 -4.671986e+00 -4.743250e+00 -4.822185e+00 -4.913480e+00 -5.013941e+00 -5.125778e+00 -5.248197e+00 -5.380198e+00 -5.523736e+00 -5.673640e+00 -5.834920e+00 -5.997115e+00 -6.168301e+00 -6.332132e+00 -6.498856e+00 -6.647915e+00 -6.789540e+00 -6.904683e+00 -7.002243e+00 -7.070966e+00 -7.123384e+00 -7.145591e+00 -7.121262e+00 -7.083781e+00 -7.048206e+00 -7.034465e+00 -7.047340e+00 -7.081279e+00 -7.119036e+00 -7.142378e+00 -7.119457e+00 -7.067978e+00 -6.996741e+00 -6.902883e+00 -6.784505e+00 -6.646518e+00 -6.494901e+00 -6.330650e+00 -6.165151e+00 -5.995389e+00 -5.832250e+00 -5.671740e+00 -5.521392e+00 -5.378282e+00 -5.246145e+00 -5.123993e+00 -5.012190e+00 -4.911924e+00 -4.820751e+00 -4.741979e+00 -4.670875e+00 -4.612653e+00 -4.560782e+00 -4.522057e+00 -4.488645e+00 -4.468515e+00 -4.453038e+00 
-4.393741e+00 -4.396203e+00 -4.411277e+00 -4.431594e+00 -4.464482e+00 -4.503441e+00 -4.554855e+00 -4.613696e+00 -4.684756e+00 -4.765047e+00 -4.857136e+00 -4.960556e+00 -5.075037e+00 -5.202975e+00 -5.340632e+00 -5.493405e+00 -5.653314e+00 -5.828693e+00 -6.006157e+00 -6.196811e+00 -6.380192e+00 -6.570098e+00 -6.737818e+00 -6.899506e+00 -7.022209e+00 -7.119908e+00 -7.173058e+00 -7.162388e+00 -7.153003e+00 -7.143547e+00 -7.168994e+00 -7.205952e+00 -7.220117e+00 -7.204789e+00 -7.165059e+00 -7.141248e+00 -7.149774e+00 -7.160096e+00 -7.172323e+00 -7.116180e+00 -7.024358e+00 -6.896309e+00 -6.739255e+00 -6.567939e+00 -6.380682e+00 -6.195642e+00 -6.006288e+00 -5.828270e+00 -5.653446e+00 -5.493452e+00 -5.340858e+00 -5.203266e+00 -5.075332e+00 -4.960936e+00 -4.857446e+00 -4.765423e+00 -4.685038e+00 -4.614016e+00 -4.555082e+00 -4.503679e+00 -4.464638e+00 -4.431739e+00 -4.411357e+00 -4.396252e+00 
-4.337898e+00 -4.339674e+00 -4.355429e+00 -4.374850e+00 -4.408324e+00 -4.446313e+00 -4.498466e+00 -4.556546e+00 -4.628920e+00 -4.709148e+00 -4.803775e+00 -4.908624e+00 -5.027833e+00 -5.159940e+00 -5.305866e+00 -5.467423e+00 -5.640877e+00 -5.832168e+00 -6.030350e+00 -6.246461e+00 -6.459125e+00 -6.683909e+00 -6.888865e+00 -7.088637e+00 -7.252392e+00 -7.386485e+00 -7.485805e+00 -7.601443e+00 -7.658470e+00 -7.562354e+00 -7.425998e+00 -7.314285e+00 -7.269601e+00 -7.312985e+00 -7.421136e+00 -7.560549e+00 -7.653701e+00 -7.596828e+00 -7.480912e+00 -7.377445e+00 -7.251537e+00 -7.081982e+00 -6.888228e+00 -6.679862e+00 -6.457893e+00 -6.243573e+00 -6.028445e+00 -5.829650e+00 -5.638596e+00 -5.465088e+00 -5.303550e+00 -5.157829e+00 -5.025722e+00 -4.906808e+00 -4.801990e+00 -4.707666e+00 -4.627504e+00 -4.555409e+00 -4.497423e+00 -4.445513e+00 -4.407640e+00 -4.374377e+00 -4.355092e+00 -4.339517e+00 
-4.264992e+00 -4.266747e+00 -4.281909e+00 -4.300975e+00 -4.333525e+00 -4.371056e+00 -4.422189e+00 -4.480140e+00 -4.551848e+00 -4.632975e+00 -4.728075e+00 -4.835930e+00 -4.958052e+00 -5.096870e+00 -5.250232e+00 -5.424477e+00 -5.612948e+00 -5.825880e+00 -6.050282e+00 -6.300218e+00 -6.551913e+00 -6.824116e+00 -7.073593e+00 -7.328202e+00 -7.520063e+00 -7.703104e+00 -7.773803e+00 -7.643348e+00 -7.534801e+00 -7.494312e+00 -7.606691e+00 -7.786389e+00 -7.858301e+00 -7.783746e+00 -7.596557e+00 -7.490674e+00 -7.528773e+00 -7.642162e+00 -7.771803e+00 -7.696005e+00 -7.527415e+00 -7.323544e+00 -7.075978e+00 -6.821571e+00 -6.551743e+00 -6.299233e+00 -6.049792e+00 -5.825878e+00 -5.612786e+00 -5.424968e+00 -5.250382e+00 -5.097529e+00 -4.958362e+00 -4.836577e+00 -4.728423e+00 -4.633527e+00 -4.552163e+00 -4.480568e+00 -4.422436e+00 -4.371356e+00 -4.333691e+00 -4.301151e+00 -4.281993e+00 -4.266806e+00 
-4.192745e+00 -4.193749e+00 -4.209389e+00 -4.227216e+00 -4.259889e+00 -4.295831e+00 -4.347017e+00 -4.403329e+00 -4.475520e+00 -4.555509e+00 -4.652359e+00 -4.760539e+00 -4.887051e+00 -5.029343e+00 -5.191888e+00 -5.375695e+00 -5.581261e+00 -5.814697e+00 -6.067979e+00 -6.355694e+00 -6.651249e+00 -6.980220e+00 -7.286099e+00 -7.593740e+00 -7.837119e+00 -7.970918e+00 -8.090561e+00 -8.482378e+00 -8.745937e+00 -8.399805e+00 -7.896565e+00 -7.517751e+00 -7.354424e+00 -7.514054e+00 -7.885115e+00 -8.401257e+00 -8.740813e+00 -8.477647e+00 -8.078338e+00 -7.951253e+00 -7.841230e+00 -7.585295e+00 -7.287066e+00 -6.977486e+00 -6.650240e+00 -6.353789e+00 -6.065499e+00 -5.812461e+00 -5.578190e+00 -5.373287e+00 -5.188895e+00 -5.027076e+00 -4.884466e+00 -4.758599e+00 -4.650284e+00 -4.553958e+00 -4.473946e+00 -4.402165e+00 -4.345896e+00 -4.295028e+00 -4.259172e+00 -4.226747e+00 -4.209040e+00 -4.193595e+00 
-4.104592e+00 -4.105314e+00 -4.120279e+00 -4.137156e+00 -4.168483e+00 -4.203056e+00 -4.252465e+00 -4.307482e+00 -4.377956e+00 -4.457594e+00 -4.553706e+00 -4.663935e+00 -4.792394e+00 -4.941494e+00 -5.111791e+00 -5.310842e+00 -5.535451e+00 -5.797909e+00 -6.089957e+00 -6.426876e+00 -6.788165e+00 -7.189844e+00 -7.573901e+00 -7.960554e+00 -8.258042e+00 -8.736022e+00 -8.770235e+00 -7.236837e+00 -4.189272e+00 -5.044117e-01 2.582160e+00 4.573199e+00 5.286757e+00 4.568866e+00 2.557926e+00 -5.480582e-01 -4.159704e+00 -7.213768e+00 -8.760166e+00 -8.720377e+00 -8.284993e+00 -7.955194e+00 -7.574861e+00 -7.187445e+00 -6.784938e+00 -6.426560e+00 -6.088056e+00 -5.798744e+00 -5.534921e+00 -5.312047e+00 -5.111960e+00 -4.942660e+00 -4.792808e+00 -4.664905e+00 -4.554142e+00 -4.458335e+00 -4.378324e+00 -4.308014e+00 -4.252738e+00 -4.203408e+00 -4.168660e+00 -4.137355e+00 -4.120365e+00 -4.105379e+00 
-4.016576e+00 -4.016483e+00 -4.031608e+00 -4.046798e+00 -4.077554e+00 -4.109688e+00 -4.158078e+00 -4.210193e+00 -4.279731e+00 -4.356564e+00 -4.452811e+00 -4.561365e+00 -4.692833e+00 -4.843290e+00 -5.022564e+00 -5.229576e+00 -5.473717e+00 -5.757413e+00 -6.084005e+00 -6.465195e+00 -6.873256e+00 -7.343494e+00 -7.762191e+00 -8.225793e+00 -8.374262e+00 -6.610582e+00 -1.668567e+00 4.929607e+00 1.048720e+01 1.409975e+01 1.612171e+01 1.707091e+01 1.734410e+01 1.706596e+01 1.609465e+01 1.406652e+01 1.052669e+01 4.978886e+00 -1.642410e+00 -6.610040e+00 -8.399672e+00 -8.221446e+00 -7.763729e+00 -7.346955e+00 -6.871786e+00 -6.465283e+00 -6.079885e+00 -5.755201e+00 -5.469083e+00 -5.226725e+00 -5.018506e+00 -4.840648e+00 -4.689644e+00 -4.559217e+00 -4.450441e+00 -4.354934e+00 -4.278037e+00 -4.209022e+00 -4.156924e+00 -4.108906e+00 -4.076838e+00 -4.046350e+00 -4.031265e+00 -4.016338e+00 
-3.914292e+00 -3.913589e+00 -3.927910e+00 -3.941344e+00 -3.970150e+00 -3.999600e+00 -4.045101e+00 -4.094096e+00 -4.160254e+00 -4.234492e+00 -4.327766e+00 -4.436010e+00 -4.566659e+00 -4.722050e+00 -4.905970e+00 -5.127546e+00 -5.387752e+00 -5.700156e+00 -6.063066e+00 -6.484004e+00 -6.953311e+00 -7.456816e+00 -7.908016e+00 -7.668309e+00 -4.020429e+00 3.547729e+00 1.061880e+01 1.479972e+01 1.649614e+01 1.673474e+01 1.669684e+01 1.661055e+01 1.659043e+01 1.660732e+01 1.668953e+01 1.672980e+01 1.649621e+01 1.480922e+01 1.061669e+01 3.529829e+00 -4.043538e+00 -7.641810e+00 -7.882673e+00 -7.454869e+00 -6.941577e+00 -6.485043e+00 -6.059510e+00 -5.702460e+00 -5.387377e+00 -5.129782e+00 -4.906524e+00 -4.723821e+00 -4.567349e+00 -4.437299e+00 -4.328351e+00 -4.235385e+00 -4.160687e+00 -4.094690e+00 -4.045395e+00 -3.999972e+00 -3.970328e+00 -3.941546e+00 -3.927994e+00 -3.913653e+00 
-3.811873e+00 -3.810298e+00 -3.824354e+00 -3.835572e+00 -3.862899e+00 -3.888881e+00 -3.931923e+00 -3.976450e+00 -4.039656e+00 -4.108966e+00 -4.199793e+00 -4.303609e+00 -4.434284e+00 -4.587085e+00 -4.776829e+00 -4.998732e+00 -5.273828e+00 -5.588558e+00 -5.969420e+00 -6.390840e+00 -6.855128e+00 -7.355819e+00 -6.907525e+00 -2.044279e+00 6.785578e+00 1.323232e+01 1.532072e+01 1.558101e+01 1.559422e+01 1.569747e+01 1.590313e+01 1.608689e+01 1.616133e+01 1.608421e+01 1.589879e+01 1.569173e+01 1.559229e+01 1.556818e+01 1.531157e+01 1.322345e+01 6.792648e+00 -1.966958e+00 -6.885064e+00 -7.372916e+00 -6.853627e+00 -6.391307e+00 -5.961337e+00 -5.584482e+00 -5.266385e+00 -4.994489e+00 -4.771339e+00 -4.583740e+00 -4.430506e+00 -4.301206e+00 -4.197255e+00 -4.107306e+00 -4.037972e+00 -3.975336e+00 -3.930835e+00 -3.888170e+00 -3.862246e+00 -3.835178e+00 -3.824048e+00 -3.810171e+00 
-3.697502e+00 -3.694945e+00 -3.708038e+00 -3.716525e+00 -3.741173e+00 -3.762797e+00 -3.801595e+00 -3.840526e+00 -3.898264e+00 -3.961666e+00 -4.046485e+00 -4.145898e+00 -4.271062e+00 -4.423718e+00 -4.609070e+00 -4.837170e+00 -5.106392e+00 -5.429353e+00 -5.797151e+00 -6.208464e+00 -6.724346e+00 -6.512610e+00 -1.576245e+00 7.609539e+00 1.359432e+01 1.474616e+01 1.480016e+01 1.512609e+01 1.546535e+01 1.565707e+01 1.576993e+01 1.581124e+01 1.582945e+01 1.581051e+01 1.576998e+01 1.565655e+01 1.546994e+01 1.512740e+01 1.481604e+01 1.475152e+01 1.363891e+01 7.672700e+00 -1.608801e+00 -6.518460e+00 -6.711861e+00 -6.212397e+00 -5.796968e+00 -5.434214e+00 -5.108258e+00 -4.840684e+00 -4.610681e+00 -4.426018e+00 -4.272195e+00 -4.147367e+00 -4.047229e+00 -3.962587e+00 -3.898732e+00 -3.841093e+00 -3.801877e+00 -3.763131e+00 -3.741330e+00 -3.716699e+00 -3.708108e+00 -3.694999e+00 
-3.583024e+00 -3.579553e+00 -3.591871e+00 -3.597579e+00 -3.619696e+00 -3.636720e+00 -3.671379e+00 -3.704108e+00 -3.756438e+00 -3.812613e+00 -3.891481e+00 -3.983545e+00 -4.103421e+00 -4.248352e+00 -4.430114e+00 -4.642823e+00 -4.908554e+00 -5.186134e+00 -5.539793e+00 -5.883638e+00 -6.115689e+00 -2.377786e+00 6.957749e+00 1.317856e+01 1.412393e+01 1.441457e+01 1.467872e+01 1.486618e+01 1.499632e+01 1.511748e+01 1.523029e+01 1.531343e+01 1.534395e+01 1.531172e+01 1.522890e+01 1.511260e+01 1.499507e+01 1.485726e+01 1.467757e+01 1.440455e+01 1.413520e+01 1.317109e+01 6.916237e+00 -2.337835e+00 -6.093643e+00 -5.870984e+00 -5.520336e+00 -5.175450e+00 -4.896764e+00 -4.635933e+00 -4.423315e+00 -4.244189e+00 -4.099482e+00 -3.981058e+00 -3.889144e+00 -3.811109e+00 -3.755018e+00 -3.703189e+00 -3.670514e+00 -3.636171e+00 -3.619197e+00 -3.597285e+00 -3.591641e+00 -3.579460e+00 
-3.459827e+00 -3.455011e+00 -3.466192e+00 -3.468134e+00 -3.486806e+00 -3.497594e+00 -3.526600e+00 -3.550781e+00 -3.595527e+00 -3.641542e+00 -3.711355e+00 -3.793060e+00 -3.902053e+00 -4.037271e+00 -4.200818e+00 -4.400424e+00 -4.619870e+00 -4.878174e+00 -5.089998e+00 -5.518102e+00 -3.436943e+00 4.891824e+00 1.233107e+01 1.374886e+01 1.398768e+01 1.425682e+01 1.440047e+01 1.462760e+01 1.480015e+01 1.495081e+01 1.504432e+01 1.510349e+01 1.511930e+01 1.510336e+01 1.504605e+01 1.495071e+01 1.480502e+01 1.462759e+01 1.441006e+01 1.425622e+01 1.400051e+01 1.373874e+01 1.233536e+01 4.964036e+00 -3.428619e+00 -5.529364e+00 -5.103191e+00 -4.887591e+00 -4.626109e+00 -4.404926e+00 -4.203552e+00 -4.039565e+00 -3.903420e+00 -3.794336e+00 -3.712089e+00 -3.642267e+00 -3.595921e+00 -3.551188e+00 -3.526804e+00 -3.497814e+00 -3.486905e+00 -3.468241e+00 -3.466231e+00 -3.455043e+00 
-3.336813e+00 -3.331068e+00 -3.340922e+00 -3.339546e+00 -3.354610e+00 -3.359647e+00 -3.382829e+00 -3.399000e+00 -3.435889e+00 -3.472378e+00 -3.532429e+00 -3.604357e+00 -3.700194e+00 -3.824320e+00 -3.964984e+00 -4.137444e+00 -4.326058e+00 -4.479555e+00 -4.785012e+00 -4.410951e+00 1.964609e+00 1.064288e+01 1.349025e+01 1.357945e+01 1.383698e+01 1.400432e+01 1.419718e+01 1.434547e+01 1.447028e+01 1.457463e+01 1.465256e+01 1.470693e+01 1.472253e+01 1.470561e+01 1.465188e+01 1.457069e+01 1.446940e+01 1.433884e+01 1.419686e+01 1.399590e+01 1.383973e+01 1.356858e+01 1.349496e+01 1.068325e+01 1.967406e+00 -4.372524e+00 -4.754016e+00 -4.461020e+00 -4.312339e+00 -4.128657e+00 -3.958728e+00 -3.820209e+00 -3.697243e+00 -3.602421e+00 -3.530950e+00 -3.471418e+00 -3.435091e+00 -3.398494e+00 -3.382378e+00 -3.359373e+00 -3.354361e+00 -3.339409e+00 -3.340811e+00 -3.331026e+00 
-3.209475e+00 -3.202114e+00 -3.210646e+00 -3.204590e+00 -3.215490e+00 -3.212497e+00 -3.228754e+00 -3.233352e+00 -3.260919e+00 -3.282527e+00 -3.331393e+00 -3.385477e+00 -3.466763e+00 -3.567079e+00 -3.682184e+00 -3.809424e+00 -3.972402e+00 -3.994259e+00 -4.515772e+00 -1.605439e+00 7.454052e+00 1.291546e+01 1.323821e+01 1.348648e+01 1.364554e+01 1.386017e+01 1.399549e+01 1.417072e+01 1.428710e+01 1.440807e+01 1.447512e+01 1.453155e+01 1.453886e+01 1.453151e+01 1.447677e+01 1.440801e+01 1.429080e+01 1.417067e+01 1.400148e+01 1.385999e+01 1.365243e+01 1.348494e+01 1.324007e+01 1.291942e+01 7.448402e+00 -1.600314e+00 -4.548923e+00 -4.007629e+00 -3.979478e+00 -3.812426e+00 -3.683819e+00 -3.567990e+00 -3.467426e+00 -3.385945e+00 -3.331740e+00 -3.282776e+00 -3.261069e+00 -3.233461e+00 -3.228794e+00 -3.212531e+00 -3.215484e+00 -3.204594e+00 -3.210635e+00 -3.202113e+00 
-3.082755e+00 -3.074517e+00 -3.081159e+00 -3.071359e+00 -3.077657e+00 -3.067860e+00 -3.076884e+00 -3.071607e+00 -3.089626e+00 -3.098948e+00 -3.135783e+00 -3.176691e+00 -3.237507e+00 -3.326927e+00 -3.384996e+00 -3.526620e+00 -3.512662e+00 -3.705462e+00 -3.510570e+00 2.556984e+00 1.089665e+01 1.308904e+01 1.300554e+01 1.332999e+01 1.345621e+01 1.365004e+01 1.378627e+01 1.392524e+01 1.402593e+01 1.411952e+01 1.417714e+01 1.422296e+01 1.423022e+01 1.422196e+01 1.417659e+01 1.411651e+01 1.402486e+01 1.392024e+01 1.378456e+01 1.364319e+01 1.345277e+01 1.332091e+01 1.299443e+01 1.307761e+01 1.087753e+01 2.597228e+00 -3.471046e+00 -3.684426e+00 -3.504838e+00 -3.520121e+00 -3.382856e+00 -3.325022e+00 -3.237120e+00 -3.176356e+00 -3.135881e+00 -3.099024e+00 -3.089777e+00 -3.071737e+00 -3.076997e+00 -3.067962e+00 -3.077727e+00 -3.071420e+00 -3.081192e+00 -3.074538e+00 
-2.957458e+00 -2.947522e+00 -2.952640e+00 -2.937613e+00 -2.939134e+00 -2.920049e+00 -2.921101e+00 -2.901824e+00 -2.909222e+00 -2.899242e+00 -2.923485e+00 -2.938447e+00 -2.980347e+00 -3.035007e+00 -3.040817e+00 -3.166828e+00 -2.958094e+00 -3.410309e+00 -1.353915e+00 6.794928e+00 1.244664e+01 1.271212e+01 1.294446e+01 1.313990e+01 1.331890e+01 1.349673e+01 1.362969e+01 1.377594e+01 1.387089e+01 1.397380e+01 1.402428e+01 1.407627e+01 1.407696e+01 1.407624e+01 1.402543e+01 1.397379e+01 1.387335e+01 1.377623e+01 1.363378e+01 1.349820e+01 1.332568e+01 1.314520e+01 1.295955e+01 1.273101e+01 1.249772e+01 6.947680e+00 -1.283934e+00 -3.411792e+00 -2.950019e+00 -3.162922e+00 -3.037555e+00 -3.032825e+00 -2.979354e+00 -2.937649e+00 -2.923197e+00 -2.898892e+00 -2.909039e+00 -2.901582e+00 -2.920926e+00 -2.919863e+00 -2.938993e+00 -2.937493e+00 -2.952563e+00 -2.947481e+00 
-2.833188e+00 -2.822550e+00 -2.825214e+00 -2.806286e+00 -2.802338e+00 -2.775771e+00 -2.768506e+00 -2.737688e+00 -2.734883e+00 -2.708595e+00 -2.722733e+00 -2.713220e+00 -2.745946e+00 -2.756117e+00 -2.751684e+00 -2.801862e+00 -2.579208e+00 -2.978013e+00 1.299450e+00 9.639849e+00 1.261128e+01 1.243484e+01 1.282204e+01 1.295372e+01 1.315408e+01 1.331024e+01 1.344430e+01 1.357202e+01 1.366060e+01 1.374845e+01 1.379421e+01 1.383823e+01 1.383955e+01 1.383755e+01 1.379377e+01 1.374642e+01 1.365963e+01 1.356866e+01 1.344250e+01 1.330551e+01 1.315081e+01 1.294711e+01 1.281655e+01 1.242396e+01 1.260739e+01 9.601871e+00 1.222596e+00 -3.001331e+00 -2.598673e+00 -2.808264e+00 -2.757395e+00 -2.759034e+00 -2.748915e+00 -2.715301e+00 -2.724649e+00 -2.709990e+00 -2.736062e+00 -2.738544e+00 -2.769200e+00 -2.776273e+00 -2.802727e+00 -2.806551e+00 -2.825390e+00 -2.822633e+00 
-2.717426e+00 -2.705268e+00 -2.706216e+00 -2.682136e+00 -2.672981e+00 -2.636958e+00 -2.620885e+00 -2.575151e+00 -2.560579e+00 -2.511632e+00 -2.513386e+00 -2.465730e+00 -2.491033e+00 -2.421280e+00 -2.439503e+00 -2.293281e+00 -2.256134e+00 -1.955479e+00 4.302983e+00 1.125860e+01 1.237539e+01 1.232925e+01 1.267049e+01 1.281727e+01 1.301551e+01 1.317907e+01 1.331053e+01 1.344685e+01 1.353189e+01 1.362761e+01 1.366872e+01 1.371899e+01 1.371507e+01 1.371890e+01 1.366923e+01 1.362739e+01 1.353286e+01 1.344669e+01 1.331175e+01 1.317951e+01 1.301658e+01 1.281979e+01 1.267042e+01 1.233813e+01 1.236931e+01 1.128741e+01 4.388641e+00 -1.896108e+00 -2.241592e+00 -2.274461e+00 -2.433628e+00 -2.415721e+00 -2.489332e+00 -2.464178e+00 -2.512851e+00 -2.510971e+00 -2.560178e+00 -2.574653e+00 -2.620506e+00 -2.636568e+00 -2.672692e+00 -2.681888e+00 -2.706063e+00 -2.705184e+00 
-2.602831e+00 -2.590319e+00 -2.588267e+00 -2.560594e+00 -2.545165e+00 -2.501875e+00 -2.476150e+00 -2.418709e+00 -2.391838e+00 -2.325203e+00 -2.314765e+00 -2.237490e+00 -2.257892e+00 -2.125199e+00 -2.175694e+00 -1.864874e+00 -2.032521e+00 -7.112718e-01 6.873168e+00 1.192959e+01 1.203134e+01 1.229504e+01 1.247879e+01 1.269807e+01 1.285525e+01 1.303355e+01 1.315206e+01 1.328624e+01 1.336499e+01 1.345473e+01 1.349287e+01 1.353887e+01 1.353547e+01 1.353852e+01 1.349267e+01 1.345373e+01 1.336451e+01 1.328472e+01 1.315106e+01 1.303175e+01 1.285318e+01 1.269639e+01 1.247398e+01 1.229326e+01 1.201500e+01 1.192126e+01 6.818220e+00 -7.523446e-01 -2.040862e+00 -1.875745e+00 -2.180370e+00 -2.130680e+00 -2.262096e+00 -2.241337e+00 -2.317881e+00 -2.327643e+00 -2.393777e+00 -2.420135e+00 -2.477281e+00 -2.502685e+00 -2.545795e+00 -2.561015e+00 -2.588553e+00 -2.590451e+00 
-2.504679e+00 -2.491059e+00 -2.487198e+00 -2.455182e+00 -2.434411e+00 -2.383015e+00 -2.347636e+00 -2.277291e+00 -2.235536e+00 -2.149530e+00 -2.118144e+00 -2.010839e+00 -2.003187e+00 -1.818266e+00 -1.838307e+00 -1.426113e+00 -1.590757e+00 8.226467e-01 8.564609e+00 1.191081e+01 1.175747e+01 1.219671e+01 1.231122e+01 1.258494e+01 1.272678e+01 1.292535e+01 1.304086e+01 1.318584e+01 1.326306e+01 1.336009e+01 1.339572e+01 1.344700e+01 1.343980e+01 1.344681e+01 1.339569e+01 1.335950e+01 1.326278e+01 1.318476e+01 1.303974e+01 1.292344e+01 1.272329e+01 1.258067e+01 1.230119e+01 1.218339e+01 1.172722e+01 1.185504e+01 8.539117e+00 8.702987e-01 -1.573850e+00 -1.423786e+00 -1.833924e+00 -1.817541e+00 -2.002628e+00 -2.010801e+00 -2.117961e+00 -2.149143e+00 -2.235047e+00 -2.276662e+00 -2.347058e+00 -2.382435e+00 -2.433958e+00 -2.454803e+00 -2.486960e+00 -2.490930e+00 
-2.407156e+00 -2.393644e+00 -2.386354e+00 -2.351494e+00 -2.323806e+00 -2.266336e+00 -2.219646e+00 -2.139450e+00 -2.080854e+00 -1.980998e+00 -1.926512e+00 -1.802144e+00 -1.765242e+00 -1.563522e+00 -1.550710e+00 -1.139072e+00 -1.263870e+00 2.165459e+00 9.671903e+00 1.173643e+01 1.160084e+01 1.209331e+01 1.217821e+01 1.247867e+01 1.260400e+01 1.281120e+01 1.291934e+01 1.306448e+01 1.313813e+01 1.323251e+01 1.326678e+01 1.331576e+01 1.330924e+01 1.331572e+01 1.326694e+01 1.323245e+01 1.313846e+01 1.306464e+01 1.291985e+01 1.281216e+01 1.260502e+01 1.248204e+01 1.218194e+01 1.210533e+01 1.162012e+01 1.178611e+01 9.816415e+00 2.306203e+00 -1.243761e+00 -1.130995e+00 -1.552815e+00 -1.567642e+00 -1.770545e+00 -1.806725e+00 -1.930469e+00 -1.983957e+00 -2.083216e+00 -2.141142e+00 -2.220997e+00 -2.267289e+00 -2.324560e+00 -2.351993e+00 -2.386699e+00 -2.393801e+00 
-2.333641e+00 -2.319479e+00 -2.310559e+00 -2.272594e+00 -2.240054e+00 -2.176809e+00 -2.120618e+00 -2.031490e+00 -1.956144e+00 -1.844353e+00 -1.761771e+00 -1.625493e+00 -1.541315e+00 -1.338481e+00 -1.237819e+00 -8.699581e-01 -7.900132e-01 3.457258e+00 1.029278e+01 1.149614e+01 1.148654e+01 1.195124e+01 1.206931e+01 1.237270e+01 1.251078e+01 1.272439e+01 1.283862e+01 1.298967e+01 1.306568e+01 1.316488e+01 1.319890e+01 1.325140e+01 1.324267e+01 1.325112e+01 1.319855e+01 1.316402e+01 1.306481e+01 1.298812e+01 1.283685e+01 1.272195e+01 1.250753e+01 1.236914e+01 1.206428e+01 1.194749e+01 1.148281e+01 1.150244e+01 1.031780e+01 3.472178e+00 -8.204506e-01 -8.807236e-01 -1.246459e+00 -1.343204e+00 -1.544033e+00 -1.626791e+00 -1.762012e+00 -1.843964e+00 -1.955424e+00 -2.030583e+00 -2.119760e+00 -2.175985e+00 -2.239409e+00 -2.272068e+00 -2.310229e+00 -2.319303e+00 
-2.259157e+00 -2.245473e+00 -2.233007e+00 -2.193032e+00 -2.153493e+00 -2.085639e+00 -2.017429e+00 -1.920861e+00 -1.825707e+00 -1.704564e+00 -1.590350e+00 -1.448376e+00 -1.313696e+00 -1.125372e+00 -9.333557e-01 -6.416037e-01 -3.492582e-01 4.746243e+00 1.086281e+01 1.136803e+01 1.149652e+01 1.185284e+01 1.201313e+01 1.228683e+01 1.243629e+01 1.264094e+01 1.275764e+01 1.290456e+01 1.298078e+01 1.307712e+01 1.311138e+01 1.316203e+01 1.315444e+01 1.316222e+01 1.311192e+01 1.307778e+01 1.298190e+01 1.290588e+01 1.275942e+01 1.264317e+01 1.243858e+01 1.228983e+01 1.201452e+01 1.185403e+01 1.148869e+01 1.135129e+01 1.079793e+01 4.696572e+00 -3.763386e-01 -6.613568e-01 -9.474690e-01 -1.136145e+00 -1.321970e+00 -1.454341e+00 -1.594910e+00 -1.707732e+00 -1.828168e+00 -1.922568e+00 -2.018810e+00 -2.086603e+00 -2.154276e+00 -2.193548e+00 -2.233372e+00 -2.245639e+00 
-2.214552e+00 -2.200484e+00 -2.186991e+00 -2.145082e+00 -2.102104e+00 -2.030818e+00 -1.955429e+00 -1.854107e+00 -1.745651e+00 -1.620000e+00 -1.482818e+00 -1.342997e+00 -1.169718e+00 -1.006863e+00 -7.431006e-01 -5.354273e-01 -6.644835e-02 5.441816e+00 1.091543e+01 1.116316e+01 1.144599e+01 1.173236e+01 1.195546e+01 1.220658e+01 1.238231e+01 1.258199e+01 1.271015e+01 1.285790e+01 1.293883e+01 1.303743e+01 1.307285e+01 1.312535e+01 1.311676e+01 1.312502e+01 1.307236e+01 1.303640e+01 1.293775e+01 1.285607e+01 1.270828e+01 1.257919e+01 1.237956e+01 1.220278e+01 1.195255e+01 1.172880e+01 1.144754e+01 1.116699e+01 1.094300e+01 5.537378e+00 -2.996116e-02 -5.331196e-01 -7.378285e-01 -1.007427e+00 -1.169030e+00 -1.342668e+00 -1.481875e+00 -1.618783e+00 -1.744352e+00 -1.852732e+00 -1.954248e+00 -2.029730e+00 -2.101282e+00 -2.144423e+00 -2.186583e+00 -2.200266e+00 
-2.166965e+00 -2.153489e+00 -2.136914e+00 -2.093710e+00 -2.044820e+00 -1.970261e+00 -1.884675e+00 -1.778027e+00 -1.652529e+00 -1.520371e+00 -1.355192e+00 -1.211798e+00 -9.919245e-01 -8.380612e-01 -4.884475e-01 -3.164869e-01 3.846145e-01 6.124779e+00 1.093115e+01 1.103967e+01 1.143911e+01 1.165842e+01 1.192797e+01 1.215105e+01 1.234323e+01 1.253154e+01 1.266478e+01 1.280726e+01 1.288959e+01 1.298523e+01 1.302142e+01 1.307225e+01 1.306498e+01 1.307260e+01 1.302226e+01 1.298636e+01 1.289140e+01 1.280940e+01 1.266785e+01 1.253501e+01 1.234801e+01 1.215608e+01 1.193518e+01 1.166485e+01 1.145049e+01 1.104673e+01 1.095525e+01 6.164744e+00 3.722243e-01 -3.250439e-01 -4.992479e-01 -8.459345e-01 -9.991449e-01 -1.216908e+00 -1.359383e+00 -1.523253e+00 -1.654868e+00 -1.779644e+00 -1.886030e+00 -1.971206e+00 -2.045610e+00 -2.094229e+00 -2.137289e+00 -2.153658e+00 
-2.153197e+00 -2.139337e+00 -2.122925e+00 -2.078850e+00 -2.029202e+00 -1.953420e+00 -1.865671e+00 -1.757948e+00 -1.628281e+00 -1.496856e+00 -1.325001e+00 -1.188373e+00 -9.587450e-01 -8.242842e-01 -4.588799e-01 -3.186987e-01 4.548368e-01 6.364807e+00 1.090635e+01 1.094565e+01 1.142119e+01 1.160090e+01 1.190720e+01 1.211418e+01 1.232373e+01 1.250751e+01 1.264901e+01 1.279155e+01 1.287756e+01 1.297456e+01 1.301180e+01 1.306375e+01 1.305579e+01 1.306339e+01 1.301125e+01 1.297344e+01 1.287637e+01 1.278948e+01 1.264697e+01 1.250412e+01 1.232045e+01 1.210860e+01 1.190178e+01 1.159092e+01 1.141059e+01 1.092445e+01 1.087778e+01 6.360093e+00 4.429326e-01 -3.180051e-01 -4.638190e-01 -8.239712e-01 -9.596934e-01 -1.187207e+00 -1.324093e+00 -1.495135e+00 -1.626817e+00 -1.756303e+00 -1.864360e+00 -1.952190e+00 -2.028303e+00 -2.078121e+00 -2.122481e+00 -2.139098e+00 
-2.135479e+00 -2.122124e+00 -2.103905e+00 -2.059492e+00 -2.006839e+00 -1.929732e+00 -1.837152e+00 -1.726828e+00 -1.589379e+00 -1.453685e+00 -1.269161e+00 -1.126102e+00 -8.756885e-01 -7.310097e-01 -3.322480e-01 -1.688928e-01 6.616105e-01 6.468305e+00 1.081354e+01 1.089753e+01 1.139885e+01 1.158172e+01 1.189738e+01 1.210127e+01 1.231289e+01 1.249351e+01 1.263461e+01 1.277451e+01 1.285987e+01 1.295482e+01 1.299209e+01 1.304276e+01 1.303582e+01 1.304317e+01 1.299304e+01 1.295613e+01 1.286196e+01 1.277699e+01 1.263826e+01 1.249763e+01 1.231901e+01 1.210799e+01 1.190825e+01 1.159396e+01 1.142141e+01 1.092678e+01 1.087052e+01 6.555280e+00 6.740700e-01 -1.766330e-01 -3.386498e-01 -7.380764e-01 -8.817614e-01 -1.130898e+00 -1.273070e+00 -1.456472e+00 -1.591661e+00 -1.728425e+00 -1.838506e+00 -1.930679e+00 -2.007638e+00 -2.060017e+00 -2.104286e+00 -2.122295e+00 