# vtk DataFile Version 2.0
Comment goes here
ASCII

DATASET STRUCTURED_POINTS
FIELD FieldData 1
TIME 1 1 double
1.91000000
DIMENSIONS    64   64   1

ORIGIN    0.000   0.000   0.000
SPACING   0.015625 0.015625   1.000

POINT_DATA   4096
SCALARS P double
LOOKUP_TABLE default

-3.836097e+00 -3.835961e+00 -3.836155e+00 -3.836818e+00 -3.836170e+00 -3.837694e+00 -3.836160e+00 -3.838570e+00 -3.836160e+00 -3.839427e+00 -3.836224e+00 -3.840253e+00 -3.836421e+00 -3.841029e+00 -3.836799e+00 -3.841699e+00 -3.837326e+00 -3.842126e+00 -3.837833e+00 -3.842071e+00 -3.837988e+00 -3.841221e+00 -3.837359e+00 -3.839288e+00 -3.835574e+00 -3.836161e+00 -3.832543e+00 -3.832064e+00 -3.828694e+00 -3.827717e+00 -3.825123e+00 -3.824349e+00 -3.823251e+00 -3.823054e+00 -3.823817e+00 -3.823861e+00 -3.826239e+00 -3.825771e+00 -3.829235e+00 -3.827728e+00 -3.831826e+00 -3.829205e+00 -3.833612e+00 -3.830100e+00 -3.834583e+00 -3.830536e+00 -3.834942e+00 -3.830727e+00 -3.834974e+00 -3.830890e+00 -3.834935e+00 -3.831169e+00 -3.834973e+00 -3.831612e+00 -3.835124e+00 -3.832196e+00 -3.835352e+00 -3.832870e+00 -3.835599e+00 -3.833594e+00 -3.835819e+00 -3.834350e+00 -3.835987e+00 -3.835137e+00 
-3.839534e+00 -3.839517e+00 -3.838674e+00 -3.839458e+00 -3.837646e+00 -3.839292e+00 -3.836452e+00 -3.838966e+00 -3.835090e+00 -3.838401e+00 -3.833564e+00 -3.837509e+00 -3.831878e+00 -3.836175e+00 -3.830007e+00 -3.834247e+00 -3.827846e+00 -3.831512e+00 -3.825163e+00 -3.827712e+00 -3.821618e+00 -3.822640e+00 -3.816900e+00 -3.816328e+00 -3.811009e+00 -3.809254e+00 -3.804538e+00 -3.802389e+00 -3.798656e+00 -3.796917e+00 -3.794605e+00 -3.793702e+00 -3.793205e+00 -3.793148e+00 -3.794778e+00 -3.795290e+00 -3.799160e+00 -3.799809e+00 -3.805673e+00 -3.805956e+00 -3.813181e+00 -3.812673e+00 -3.820471e+00 -3.819032e+00 -3.826701e+00 -3.824477e+00 -3.831541e+00 -3.828830e+00 -3.835059e+00 -3.832165e+00 -3.837509e+00 -3.834655e+00 -3.839152e+00 -3.836467e+00 -3.840182e+00 -3.837737e+00 -3.840724e+00 -3.838578e+00 -3.840864e+00 -3.839089e+00 -3.840673e+00 -3.839367e+00 -3.840212e+00 -3.839492e+00 
-3.836126e+00 -3.835946e+00 -3.836180e+00 -3.836814e+00 -3.836193e+00 -3.837712e+00 -3.836184e+00 -3.838623e+00 -3.836191e+00 -3.839531e+00 -3.836274e+00 -3.840426e+00 -3.836508e+00 -3.841286e+00 -3.836944e+00 -3.842048e+00 -3.837556e+00 -3.842565e+00 -3.838171e+00 -3.842586e+00 -3.838450e+00 -3.841793e+00 -3.837946e+00 -3.839902e+00 -3.836255e+00 -3.836789e+00 -3.833215e+00 -3.832603e+00 -3.829135e+00 -3.827973e+00 -3.825159e+00 -3.824291e+00 -3.823044e+00 -3.822977e+00 -3.823769e+00 -3.824049e+00 -3.826533e+00 -3.826170e+00 -3.829717e+00 -3.828129e+00 -3.832305e+00 -3.829523e+00 -3.834028e+00 -3.830349e+00 -3.834936e+00 -3.830746e+00 -3.835236e+00 -3.830911e+00 -3.835209e+00 -3.831046e+00 -3.835113e+00 -3.831293e+00 -3.835102e+00 -3.831701e+00 -3.835215e+00 -3.832252e+00 -3.835418e+00 -3.832899e+00 -3.835649e+00 -3.833601e+00 -3.835858e+00 -3.834342e+00 -3.836020e+00 -3.835122e+00 
-3.839720e+00 -3.839605e+00 -3.838848e+00 -3.839577e+00 -3.837834e+00 -3.839491e+00 -3.836679e+00 -3.839295e+00 -3.835386e+00 -3.838914e+00 -3.833964e+00 -3.838252e+00 -3.832423e+00 -3.837180e+00 -3.830742e+00 -3.835509e+00 -3.828802e+00 -3.832964e+00 -3.826333e+00 -3.829197e+00 -3.822902e+00 -3.823908e+00 -3.818051e+00 -3.817081e+00 -3.811664e+00 -3.809289e+00 -3.804439e+00 -3.801796e+00 -3.797967e+00 -3.796135e+00 -3.793714e+00 -3.792993e+00 -3.792251e+00 -3.792395e+00 -3.793718e+00 -3.794376e+00 -3.798167e+00 -3.798991e+00 -3.805200e+00 -3.805669e+00 -3.813511e+00 -3.813044e+00 -3.821512e+00 -3.819949e+00 -3.828159e+00 -3.825723e+00 -3.833110e+00 -3.830179e+00 -3.836522e+00 -3.833440e+00 -3.838751e+00 -3.835747e+00 -3.840141e+00 -3.837332e+00 -3.840935e+00 -3.838375e+00 -3.841280e+00 -3.839015e+00 -3.841269e+00 -3.839368e+00 -3.840969e+00 -3.839535e+00 -3.840437e+00 -3.839596e+00 
-3.836207e+00 -3.835892e+00 -3.836251e+00 -3.836790e+00 -3.836257e+00 -3.837753e+00 -3.836252e+00 -3.838771e+00 -3.836281e+00 -3.839835e+00 -3.836417e+00 -3.840937e+00 -3.836752e+00 -3.842049e+00 -3.837354e+00 -3.843088e+00 -3.838206e+00 -3.843872e+00 -3.839134e+00 -3.844107e+00 -3.839782e+00 -3.843461e+00 -3.839667e+00 -3.841693e+00 -3.838318e+00 -3.838687e+00 -3.835363e+00 -3.834328e+00 -3.830552e+00 -3.828696e+00 -3.825041e+00 -3.823770e+00 -3.821971e+00 -3.822412e+00 -3.823383e+00 -3.824602e+00 -3.827500e+00 -3.827498e+00 -3.831280e+00 -3.829355e+00 -3.833746e+00 -3.830407e+00 -3.835229e+00 -3.831016e+00 -3.835953e+00 -3.831330e+00 -3.836094e+00 -3.831448e+00 -3.835901e+00 -3.831515e+00 -3.835639e+00 -3.831670e+00 -3.835484e+00 -3.831975e+00 -3.835488e+00 -3.832425e+00 -3.835614e+00 -3.832984e+00 -3.835796e+00 -3.833617e+00 -3.835975e+00 -3.834310e+00 -3.836116e+00 -3.835066e+00 
-3.840062e+00 -3.839732e+00 -3.839170e+00 -3.839765e+00 -3.838186e+00 -3.839841e+00 -3.837113e+00 -3.839911e+00 -3.835957e+00 -3.839905e+00 -3.834738e+00 -3.839720e+00 -3.833481e+00 -3.839200e+00 -3.832174e+00 -3.838087e+00 -3.830695e+00 -3.835978e+00 -3.828709e+00 -3.832332e+00 -3.825603e+00 -3.826607e+00 -3.820562e+00 -3.818620e+00 -3.813046e+00 -3.809080e+00 -3.803891e+00 -3.799987e+00 -3.796024e+00 -3.794155e+00 -3.791662e+00 -3.791581e+00 -3.790286e+00 -3.790899e+00 -3.791301e+00 -3.792149e+00 -3.795574e+00 -3.796767e+00 -3.803822e+00 -3.804825e+00 -3.814131e+00 -3.813774e+00 -3.823773e+00 -3.821899e+00 -3.831293e+00 -3.828374e+00 -3.836418e+00 -3.833021e+00 -3.839543e+00 -3.836093e+00 -3.841271e+00 -3.837990e+00 -3.842119e+00 -3.839081e+00 -3.842420e+00 -3.839639e+00 -3.842363e+00 -3.839860e+00 -3.842045e+00 -3.839886e+00 -3.841527e+00 -3.839825e+00 -3.840855e+00 -3.839757e+00 
-3.836339e+00 -3.835767e+00 -3.836364e+00 -3.836714e+00 -3.836361e+00 -3.837786e+00 -3.836360e+00 -3.838985e+00 -3.836418e+00 -3.840311e+00 -3.836628e+00 -3.841762e+00 -3.837106e+00 -3.843302e+00 -3.837949e+00 -3.844813e+00 -3.839161e+00 -3.846034e+00 -3.840569e+00 -3.846569e+00 -3.841791e+00 -3.846051e+00 -3.842333e+00 -3.844422e+00 -3.841753e+00 -3.841857e+00 -3.839515e+00 -3.837772e+00 -3.833457e+00 -3.829857e+00 -3.823959e+00 -3.821399e+00 -3.818231e+00 -3.820025e+00 -3.821785e+00 -3.825614e+00 -3.829629e+00 -3.830375e+00 -3.834411e+00 -3.831429e+00 -3.836072e+00 -3.831554e+00 -3.836991e+00 -3.831818e+00 -3.837481e+00 -3.832151e+00 -3.837448e+00 -3.832308e+00 -3.837022e+00 -3.832317e+00 -3.836499e+00 -3.832331e+00 -3.836110e+00 -3.832458e+00 -3.835935e+00 -3.832728e+00 -3.835938e+00 -3.833127e+00 -3.836039e+00 -3.833632e+00 -3.836166e+00 -3.834236e+00 -3.836272e+00 -3.834944e+00 
-3.840508e+00 -3.839805e+00 -3.839594e+00 -3.839934e+00 -3.838664e+00 -3.840255e+00 -3.837718e+00 -3.840732e+00 -3.836766e+00 -3.841305e+00 -3.835841e+00 -3.841871e+00 -3.834987e+00 -3.842243e+00 -3.834222e+00 -3.842079e+00 -3.833450e+00 -3.840787e+00 -3.832317e+00 -3.837494e+00 -3.830004e+00 -3.831177e+00 -3.825027e+00 -3.821152e+00 -3.815549e+00 -3.808057e+00 -3.801931e+00 -3.795107e+00 -3.791136e+00 -3.789853e+00 -3.787922e+00 -3.789843e+00 -3.787603e+00 -3.789046e+00 -3.786946e+00 -3.787517e+00 -3.789614e+00 -3.791375e+00 -3.800394e+00 -3.802896e+00 -3.815095e+00 -3.814935e+00 -3.827771e+00 -3.825180e+00 -3.836619e+00 -3.832794e+00 -3.841821e+00 -3.837677e+00 -3.844309e+00 -3.840342e+00 -3.845129e+00 -3.841495e+00 -3.845068e+00 -3.841740e+00 -3.844587e+00 -3.841501e+00 -3.843908e+00 -3.841050e+00 -3.843126e+00 -3.840561e+00 -3.842285e+00 -3.840147e+00 -3.841407e+00 -3.839881e+00 
-3.836523e+00 -3.835533e+00 -3.836525e+00 -3.836543e+00 -3.836510e+00 -3.837766e+00 -3.836513e+00 -3.839218e+00 -3.836600e+00 -3.840914e+00 -3.836883e+00 -3.842862e+00 -3.837509e+00 -3.845024e+00 -3.838616e+00 -3.847231e+00 -3.840242e+00 -3.849080e+00 -3.842213e+00 -3.849918e+00 -3.844100e+00 -3.849196e+00 -3.845411e+00 -3.847336e+00 -3.846122e+00 -3.845963e+00 -3.847115e+00 -3.844933e+00 -3.840007e+00 -3.832126e+00 -3.820091e+00 -3.813273e+00 -3.806693e+00 -3.812030e+00 -3.816920e+00 -3.828064e+00 -3.835086e+00 -3.836949e+00 -3.840458e+00 -3.834069e+00 -3.838678e+00 -3.832044e+00 -3.838673e+00 -3.832115e+00 -3.839220e+00 -3.833006e+00 -3.839228e+00 -3.833515e+00 -3.838570e+00 -3.833534e+00 -3.837689e+00 -3.833352e+00 -3.836972e+00 -3.833203e+00 -3.836553e+00 -3.833190e+00 -3.836391e+00 -3.833335e+00 -3.836383e+00 -3.833637e+00 -3.836436e+00 -3.834096e+00 -3.836492e+00 -3.834723e+00 
-3.840994e+00 -3.839702e+00 -3.840068e+00 -3.839957e+00 -3.839225e+00 -3.840606e+00 -3.838457e+00 -3.841632e+00 -3.837774e+00 -3.842995e+00 -3.837215e+00 -3.844612e+00 -3.836846e+00 -3.846285e+00 -3.836730e+00 -3.847594e+00 -3.836861e+00 -3.847736e+00 -3.837030e+00 -3.845372e+00 -3.836481e+00 -3.838635e+00 -3.832937e+00 -3.825597e+00 -3.821006e+00 -3.805829e+00 -3.796325e+00 -3.782028e+00 -3.778560e+00 -3.780583e+00 -3.781995e+00 -3.789965e+00 -3.786504e+00 -3.789028e+00 -3.780014e+00 -3.777807e+00 -3.775475e+00 -3.777932e+00 -3.792442e+00 -3.799696e+00 -3.817265e+00 -3.817045e+00 -3.834793e+00 -3.830408e+00 -3.845081e+00 -3.839667e+00 -3.849880e+00 -3.844708e+00 -3.851063e+00 -3.846540e+00 -3.850363e+00 -3.846420e+00 -3.848928e+00 -3.845328e+00 -3.847336e+00 -3.843895e+00 -3.845813e+00 -3.842478e+00 -3.844418e+00 -3.841272e+00 -3.843157e+00 -3.840376e+00 -3.842019e+00 -3.839844e+00 
-3.836780e+00 -3.835146e+00 -3.836756e+00 -3.836227e+00 -3.836732e+00 -3.837637e+00 -3.836738e+00 -3.839409e+00 -3.836842e+00 -3.841578e+00 -3.837168e+00 -3.844176e+00 -3.837897e+00 -3.847179e+00 -3.839222e+00 -3.850390e+00 -3.841236e+00 -3.853205e+00 -3.843758e+00 -3.854370e+00 -3.846197e+00 -3.852437e+00 -3.847787e+00 -3.848381e+00 -3.848830e+00 -3.848508e+00 -3.861800e+00 -3.863028e+00 -3.858717e+00 -3.840035e+00 -3.809819e+00 -3.788233e+00 -3.772506e+00 -3.787479e+00 -3.804234e+00 -3.837243e+00 -3.852696e+00 -3.854537e+00 -3.852862e+00 -3.834982e+00 -3.838574e+00 -3.829449e+00 -3.838837e+00 -3.830744e+00 -3.840830e+00 -3.833837e+00 -3.841529e+00 -3.835324e+00 -3.840643e+00 -3.835399e+00 -3.839239e+00 -3.834889e+00 -3.838068e+00 -3.834302e+00 -3.837343e+00 -3.833856e+00 -3.836987e+00 -3.833624e+00 -3.836849e+00 -3.833624e+00 -3.836808e+00 -3.833867e+00 -3.836795e+00 -3.834368e+00 
-3.841452e+00 -3.839274e+00 -3.840538e+00 -3.839685e+00 -3.839830e+00 -3.840732e+00 -3.839302e+00 -3.842430e+00 -3.838951e+00 -3.844784e+00 -3.838811e+00 -3.847759e+00 -3.838953e+00 -3.851195e+00 -3.839471e+00 -3.854662e+00 -3.840480e+00 -3.857212e+00 -3.842198e+00 -3.857036e+00 -3.844970e+00 -3.851090e+00 -3.847516e+00 -3.834874e+00 -3.837129e+00 -3.805628e+00 -3.782062e+00 -3.745290e+00 -3.744030e+00 -3.760052e+00 -3.774957e+00 -3.800851e+00 -3.797101e+00 -3.799731e+00 -3.771039e+00 -3.756235e+00 -3.739026e+00 -3.741661e+00 -3.775237e+00 -3.799492e+00 -3.825352e+00 -3.821741e+00 -3.847703e+00 -3.838583e+00 -3.858113e+00 -3.850192e+00 -3.861324e+00 -3.855038e+00 -3.860023e+00 -3.855181e+00 -3.856909e+00 -3.852918e+00 -3.853532e+00 -3.849797e+00 -3.850492e+00 -3.846674e+00 -3.847922e+00 -3.843966e+00 -3.845792e+00 -3.841840e+00 -3.844038e+00 -3.840348e+00 -3.842606e+00 -3.839495e+00 
-3.837151e+00 -3.834564e+00 -3.837101e+00 -3.835712e+00 -3.837075e+00 -3.837332e+00 -3.837086e+00 -3.839473e+00 -3.837187e+00 -3.842198e+00 -3.837495e+00 -3.845575e+00 -3.838219e+00 -3.849650e+00 -3.839630e+00 -3.854329e+00 -3.841944e+00 -3.858947e+00 -3.845030e+00 -3.861187e+00 -3.847923e+00 -3.856227e+00 -3.848632e+00 -3.843067e+00 -3.837463e+00 -3.834875e+00 -3.891147e+00 -3.917589e+00 -3.922016e+00 -3.874954e+00 -3.786467e+00 -3.711906e+00 -3.669679e+00 -3.711981e+00 -3.772799e+00 -3.876545e+00 -3.917147e+00 -3.907990e+00 -3.878648e+00 -3.820691e+00 -3.822585e+00 -3.818493e+00 -3.835673e+00 -3.826149e+00 -3.842556e+00 -3.835538e+00 -3.845077e+00 -3.838605e+00 -3.843572e+00 -3.838385e+00 -3.841188e+00 -3.837167e+00 -3.839366e+00 -3.835854e+00 -3.838295e+00 -3.834761e+00 -3.837745e+00 -3.833993e+00 -3.837473e+00 -3.833578e+00 -3.837323e+00 -3.833524e+00 -3.837223e+00 -3.833845e+00 
-3.841812e+00 -3.838361e+00 -3.840955e+00 -3.838942e+00 -3.840441e+00 -3.840426e+00 -3.840221e+00 -3.842871e+00 -3.840268e+00 -3.846361e+00 -3.840593e+00 -3.850958e+00 -3.841235e+00 -3.856619e+00 -3.842232e+00 -3.863039e+00 -3.843624e+00 -3.869370e+00 -3.845942e+00 -3.873681e+00 -3.852386e+00 -3.872097e+00 -3.872533e+00 -3.854441e+00 -3.894593e+00 -3.832987e+00 -3.747402e+00 -3.631938e+00 -3.640817e+00 -3.713549e+00 -3.776205e+00 -3.853612e+00 -3.856113e+00 -3.852361e+00 -3.766716e+00 -3.705127e+00 -3.634345e+00 -3.631619e+00 -3.741578e+00 -3.832999e+00 -3.859814e+00 -3.829908e+00 -3.870398e+00 -3.850145e+00 -3.876797e+00 -3.866551e+00 -3.876878e+00 -3.870162e+00 -3.871205e+00 -3.866844e+00 -3.864432e+00 -3.861010e+00 -3.858503e+00 -3.854906e+00 -3.853746e+00 -3.849527e+00 -3.850007e+00 -3.845217e+00 -3.847078e+00 -3.842018e+00 -3.844803e+00 -3.839861e+00 -3.843073e+00 -3.838661e+00 
-3.837681e+00 -3.833735e+00 -3.837610e+00 -3.834928e+00 -3.837597e+00 -3.836750e+00 -3.837623e+00 -3.839276e+00 -3.837691e+00 -3.842590e+00 -3.837880e+00 -3.846795e+00 -3.838403e+00 -3.852062e+00 -3.839648e+00 -3.858725e+00 -3.842123e+00 -3.867021e+00 -3.846100e+00 -3.874267e+00 -3.850228e+00 -3.865910e+00 -3.857497e+00 -3.828518e+00 -3.757388e+00 -3.727882e+00 -3.942494e+00 -4.101283e+00 -4.155757e+00 -4.026280e+00 -3.730784e+00 -3.441928e+00 -3.304092e+00 -3.443173e+00 -3.683955e+00 -4.041015e+00 -4.167732e+00 -4.084363e+00 -3.921883e+00 -3.720869e+00 -3.735886e+00 -3.794770e+00 -3.835318e+00 -3.817041e+00 -3.846244e+00 -3.842187e+00 -3.852064e+00 -3.845259e+00 -3.847854e+00 -3.843083e+00 -3.843379e+00 -3.840351e+00 -3.840686e+00 -3.837881e+00 -3.839338e+00 -3.835871e+00 -3.838677e+00 -3.834392e+00 -3.838298e+00 -3.833449e+00 -3.838028e+00 -3.833024e+00 -3.837822e+00 -3.833113e+00 
-3.841987e+00 -3.836786e+00 -3.841249e+00 -3.837529e+00 -3.841000e+00 -3.839421e+00 -3.841160e+00 -3.842592e+00 -3.841668e+00 -3.847237e+00 -3.842503e+00 -3.853580e+00 -3.843675e+00 -3.861792e+00 -3.845081e+00 -3.871893e+00 -3.846100e+00 -3.883534e+00 -3.845229e+00 -3.895303e+00 -3.844603e+00 -3.906804e+00 -3.891493e+00 -3.874113e+00 -4.118771e+00 -3.964935e+00 -3.132489e+00 -1.416108e+00 4.286268e-01 2.179575e+00 3.776147e+00 4.893235e+00 5.271951e+00 4.891760e+00 3.809716e+00 2.124734e+00 5.832075e-01 -1.412187e+00 -3.263268e+00 -4.033549e+00 -4.006616e+00 -3.812141e+00 -3.892406e+00 -3.861630e+00 -3.898178e+00 -3.893665e+00 -3.897390e+00 -3.892327e+00 -3.884074e+00 -3.881836e+00 -3.871993e+00 -3.870216e+00 -3.863090e+00 -3.859986e+00 -3.856593e+00 -3.851835e+00 -3.851731e+00 -3.845747e+00 -3.848047e+00 -3.841454e+00 -3.845287e+00 -3.838663e+00 -3.843303e+00 -3.837151e+00 
-3.838387e+00 -3.832580e+00 -3.838306e+00 -3.833764e+00 -3.838335e+00 -3.835734e+00 -3.838397e+00 -3.838595e+00 -3.838401e+00 -3.842449e+00 -3.838315e+00 -3.847368e+00 -3.838286e+00 -3.853495e+00 -3.838825e+00 -3.861827e+00 -3.841053e+00 -3.876223e+00 -3.846861e+00 -3.902017e+00 -3.848192e+00 -3.901193e+00 -3.964048e+00 -3.699058e+00 -2.618796e+00 1.003606e+00 5.136067e+00 8.486622e+00 1.098240e+01 1.235334e+01 1.318024e+01 1.354411e+01 1.361728e+01 1.354395e+01 1.312214e+01 1.233901e+01 1.108528e+01 8.397927e+00 4.974178e+00 1.182795e+00 -2.159503e+00 -3.757924e+00 -3.913708e+00 -3.798399e+00 -3.848143e+00 -3.866866e+00 -3.867589e+00 -3.857166e+00 -3.853061e+00 -3.849238e+00 -3.844729e+00 -3.844142e+00 -3.841446e+00 -3.840133e+00 -3.840289e+00 -3.836963e+00 -3.839768e+00 -3.834643e+00 -3.839354e+00 -3.833110e+00 -3.838952e+00 -3.832278e+00 -3.838610e+00 -3.832100e+00 
-3.841847e+00 -3.834366e+00 -3.841308e+00 -3.835217e+00 -3.841398e+00 -3.837386e+00 -3.841994e+00 -3.841088e+00 -3.842986e+00 -3.846671e+00 -3.844326e+00 -3.854581e+00 -3.846104e+00 -3.865292e+00 -3.848506e+00 -3.879411e+00 -3.850676e+00 -3.897795e+00 -3.844604e+00 -3.917420e+00 -3.790371e+00 -3.913634e+00 -3.184761e+00 1.083443e+00 5.422815e+00 9.611917e+00 1.257344e+01 1.328097e+01 1.371287e+01 1.361520e+01 1.350230e+01 1.337509e+01 1.332936e+01 1.338347e+01 1.347683e+01 1.367441e+01 1.369896e+01 1.333498e+01 1.263074e+01 1.001605e+01 5.688770e+00 7.821813e-01 -2.846573e+00 -3.869777e+00 -3.915226e+00 -3.946722e+00 -3.927823e+00 -3.923387e+00 -3.896374e+00 -3.898796e+00 -3.877213e+00 -3.878754e+00 -3.865906e+00 -3.863534e+00 -3.858281e+00 -3.852504e+00 -3.852648e+00 -3.844821e+00 -3.848398e+00 -3.839679e+00 -3.845276e+00 -3.836459e+00 -3.843132e+00 -3.834760e+00 
-3.839213e+00 -3.830978e+00 -3.839140e+00 -3.832050e+00 -3.839259e+00 -3.834030e+00 -3.839409e+00 -3.837083e+00 -3.839335e+00 -3.841355e+00 -3.838751e+00 -3.846750e+00 -3.837545e+00 -3.852636e+00 -3.836181e+00 -3.858813e+00 -3.836520e+00 -3.874598e+00 -3.854006e+00 -3.960392e+00 -3.638886e+00 -1.403348e+00 3.124521e+00 9.290711e+00 1.268019e+01 1.326001e+01 1.337015e+01 1.309100e+01 1.309973e+01 1.313980e+01 1.324755e+01 1.331889e+01 1.334448e+01 1.332383e+01 1.323836e+01 1.316419e+01 1.311112e+01 1.314155e+01 1.339124e+01 1.327912e+01 1.249232e+01 9.170452e+00 3.560570e+00 -1.446107e+00 -3.733264e+00 -3.954135e+00 -3.912435e+00 -3.866664e+00 -3.852556e+00 -3.853170e+00 -3.841605e+00 -3.847317e+00 -3.840478e+00 -3.841908e+00 -3.840919e+00 -3.837504e+00 -3.841022e+00 -3.834370e+00 -3.840649e+00 -3.832322e+00 -3.840069e+00 -3.831136e+00 -3.839538e+00 -3.830694e+00 
-3.841207e+00 -3.830940e+00 -3.840964e+00 -3.831787e+00 -3.841460e+00 -3.833951e+00 -3.842516e+00 -3.837734e+00 -3.843917e+00 -3.843659e+00 -3.845471e+00 -3.852420e+00 -3.847385e+00 -3.864761e+00 -3.851472e+00 -3.882133e+00 -3.863400e+00 -3.911689e+00 -3.895538e+00 -3.778746e+00 -1.115809e+00 5.568939e+00 1.089973e+01 1.285971e+01 1.325886e+01 1.312702e+01 1.315424e+01 1.326449e+01 1.337775e+01 1.338536e+01 1.338892e+01 1.336374e+01 1.335653e+01 1.336825e+01 1.338141e+01 1.339966e+01 1.337448e+01 1.326149e+01 1.316953e+01 1.307736e+01 1.321230e+01 1.298847e+01 1.118699e+01 5.770681e+00 -8.118245e-01 -3.722541e+00 -3.997633e+00 -3.955152e+00 -3.896688e+00 -3.911240e+00 -3.874453e+00 -3.882340e+00 -3.864909e+00 -3.862849e+00 -3.857975e+00 -3.849892e+00 -3.852278e+00 -3.841485e+00 -3.847778e+00 -3.836163e+00 -3.844489e+00 -3.832957e+00 -3.842338e+00 -3.831307e+00 
-3.839996e+00 -3.828787e+00 -3.839960e+00 -3.829572e+00 -3.840253e+00 -3.831289e+00 -3.840612e+00 -3.834227e+00 -3.840533e+00 -3.838753e+00 -3.839231e+00 -3.844870e+00 -3.835961e+00 -3.850362e+00 -3.830707e+00 -3.845352e+00 -3.814935e+00 -3.804186e+00 -3.662523e+00 -8.876045e-01 5.863252e+00 1.164709e+01 1.318964e+01 1.314811e+01 1.312847e+01 1.320430e+01 1.321748e+01 1.316598e+01 1.318084e+01 1.318603e+01 1.322273e+01 1.324381e+01 1.325359e+01 1.324545e+01 1.321994e+01 1.319136e+01 1.318128e+01 1.316855e+01 1.321780e+01 1.317893e+01 1.312460e+01 1.311622e+01 1.322100e+01 1.175544e+01 6.116973e+00 -7.115190e-01 -3.634532e+00 -3.804754e+00 -3.803416e+00 -3.849107e+00 -3.827663e+00 -3.849230e+00 -3.837196e+00 -3.842183e+00 -3.841527e+00 -3.836570e+00 -3.842636e+00 -3.832982e+00 -3.842183e+00 -3.830756e+00 -3.841264e+00 -3.829413e+00 -3.840451e+00 -3.828762e+00 
-3.839841e+00 -3.826447e+00 -3.840004e+00 -3.827111e+00 -3.840976e+00 -3.828823e+00 -3.842521e+00 -3.831922e+00 -3.844206e+00 -3.837098e+00 -3.845252e+00 -3.845377e+00 -3.844840e+00 -3.857423e+00 -3.844871e+00 -3.871632e+00 -3.856528e+00 -3.853623e+00 -1.623683e+00 5.475478e+00 1.178426e+01 1.319628e+01 1.315353e+01 1.318929e+01 1.320989e+01 1.319924e+01 1.322028e+01 1.325584e+01 1.329473e+01 1.331240e+01 1.332372e+01 1.332550e+01 1.332385e+01 1.332534e+01 1.332020e+01 1.331009e+01 1.329121e+01 1.324247e+01 1.321911e+01 1.317087e+01 1.320059e+01 1.316258e+01 1.315915e+01 1.310605e+01 1.192123e+01 6.015319e+00 -1.443550e+00 -3.924734e+00 -3.816512e+00 -3.908757e+00 -3.856967e+00 -3.874832e+00 -3.859729e+00 -3.854514e+00 -3.855597e+00 -3.842170e+00 -3.850344e+00 -3.834842e+00 -3.845839e+00 -3.830505e+00 -3.842609e+00 -3.827993e+00 -3.840657e+00 -3.826723e+00 
-3.840465e+00 -3.825922e+00 -3.840511e+00 -3.826156e+00 -3.841105e+00 -3.827132e+00 -3.841933e+00 -3.829263e+00 -3.842214e+00 -3.833517e+00 -3.840280e+00 -3.841924e+00 -3.834441e+00 -3.857114e+00 -3.835398e+00 -3.870076e+00 -3.947315e+00 -3.036245e+00 3.187324e+00 1.081778e+01 1.318781e+01 1.317654e+01 1.320048e+01 1.318385e+01 1.317868e+01 1.319929e+01 1.319849e+01 1.319681e+01 1.320034e+01 1.320763e+01 1.321657e+01 1.322650e+01 1.322679e+01 1.322536e+01 1.321506e+01 1.320322e+01 1.319868e+01 1.318419e+01 1.319575e+01 1.316818e+01 1.317313e+01 1.312530e+01 1.318985e+01 1.304199e+01 1.316986e+01 1.108408e+01 3.862506e+00 -2.380629e+00 -3.891151e+00 -3.891065e+00 -3.827168e+00 -3.856716e+00 -3.837217e+00 -3.839509e+00 -3.844142e+00 -3.832720e+00 -3.845188e+00 -3.829796e+00 -3.843916e+00 -3.828146e+00 -3.842296e+00 -3.827004e+00 -3.841069e+00 -3.826243e+00 
-3.837552e+00 -3.821049e+00 -3.838237e+00 -3.821311e+00 -3.839764e+00 -3.822000e+00 -3.841930e+00 -3.823324e+00 -3.844158e+00 -3.826076e+00 -3.844721e+00 -3.832549e+00 -3.839708e+00 -3.846740e+00 -3.827171e+00 -3.854904e+00 -3.738588e+00 9.766534e-01 9.254043e+00 1.287704e+01 1.314058e+01 1.318628e+01 1.317149e+01 1.320689e+01 1.320469e+01 1.322714e+01 1.323053e+01 1.325850e+01 1.326701e+01 1.328775e+01 1.328883e+01 1.329977e+01 1.329391e+01 1.329766e+01 1.328726e+01 1.328071e+01 1.326554e+01 1.324482e+01 1.323099e+01 1.320907e+01 1.320809e+01 1.319674e+01 1.318686e+01 1.321129e+01 1.317373e+01 1.317123e+01 9.890771e+00 1.062853e+00 -3.984699e+00 -3.854441e+00 -3.877510e+00 -3.852849e+00 -3.859543e+00 -3.836402e+00 -3.852800e+00 -3.828228e+00 -3.846811e+00 -3.824582e+00 -3.842225e+00 -3.822755e+00 -3.839313e+00 -3.821725e+00 -3.837847e+00 -3.821182e+00 
-3.840299e+00 -3.822495e+00 -3.840476e+00 -3.821866e+00 -3.841500e+00 -3.821418e+00 -3.843230e+00 -3.821289e+00 -3.844918e+00 -3.822435e+00 -3.843060e+00 -3.829616e+00 -3.823101e+00 -3.863812e+00 -3.727044e+00 -4.010092e+00 -2.536533e+00 5.311688e+00 1.254982e+01 1.320809e+01 1.310937e+01 1.319980e+01 1.317147e+01 1.320583e+01 1.318658e+01 1.321365e+01 1.319973e+01 1.321668e+01 1.320729e+01 1.322163e+01 1.321552e+01 1.322706e+01 1.321963e+01 1.322489e+01 1.321535e+01 1.321445e+01 1.320721e+01 1.320209e+01 1.319887e+01 1.318803e+01 1.318202e+01 1.316741e+01 1.315527e+01 1.315198e+01 1.305845e+01 1.320226e+01 1.227094e+01 5.746830e+00 -1.816732e+00 -3.981499e+00 -3.753365e+00 -3.845729e+00 -3.838391e+00 -3.824326e+00 -3.850860e+00 -3.823507e+00 -3.848994e+00 -3.824513e+00 -3.845460e+00 -3.824645e+00 -3.842711e+00 -3.824086e+00 -3.841018e+00 -3.823275e+00 
-3.834290e+00 -3.815239e+00 -3.835578e+00 -3.814933e+00 -3.837661e+00 -3.814087e+00 -3.840635e+00 -3.812282e+00 -3.844432e+00 -3.809376e+00 -3.847314e+00 -3.809135e+00 -3.838453e+00 -3.840064e+00 -3.760426e+00 -4.008595e+00 1.133923e+00 9.682814e+00 1.319592e+01 1.311875e+01 1.316923e+01 1.319051e+01 1.318112e+01 1.322270e+01 1.320626e+01 1.324395e+01 1.323044e+01 1.326334e+01 1.325335e+01 1.327862e+01 1.326811e+01 1.328510e+01 1.327264e+01 1.328222e+01 1.326778e+01 1.326986e+01 1.325369e+01 1.324867e+01 1.323300e+01 1.322480e+01 1.321358e+01 1.320211e+01 1.320094e+01 1.316646e+01 1.322383e+01 1.304965e+01 1.339612e+01 1.084105e+01 1.799146e+00 -4.009507e+00 -3.758268e+00 -3.843611e+00 -3.845336e+00 -3.807394e+00 -3.847176e+00 -3.807976e+00 -3.840668e+00 -3.811562e+00 -3.836331e+00 -3.813778e+00 -3.834319e+00 -3.814822e+00 -3.833806e+00 -3.815214e+00 
-3.839267e+00 -3.818928e+00 -3.839565e+00 -3.817263e+00 -3.840945e+00 -3.814921e+00 -3.843899e+00 -3.810940e+00 -3.849758e+00 -3.803229e+00 -3.861644e+00 -3.788090e+00 -3.885934e+00 -3.763312e+00 -3.925977e+00 -3.318159e+00 4.969795e+00 1.268153e+01 1.338736e+01 1.313810e+01 1.320912e+01 1.320889e+01 1.319051e+01 1.322647e+01 1.319626e+01 1.323171e+01 1.320479e+01 1.323237e+01 1.321098e+01 1.323241e+01 1.321568e+01 1.323231e+01 1.321805e+01 1.323009e+01 1.321715e+01 1.322550e+01 1.321407e+01 1.322005e+01 1.320916e+01 1.321344e+01 1.320035e+01 1.320386e+01 1.319081e+01 1.318963e+01 1.319992e+01 1.314633e+01 1.336694e+01 1.247012e+01 5.209507e+00 -2.898114e+00 -4.014345e+00 -3.724823e+00 -3.910145e+00 -3.786391e+00 -3.869817e+00 -3.810475e+00 -3.853120e+00 -3.819035e+00 -3.845534e+00 -3.821365e+00 -3.841800e+00 -3.821275e+00 -3.839947e+00 -3.820282e+00 
-3.830331e+00 -3.809850e+00 -3.832165e+00 -3.809034e+00 -3.834483e+00 -3.806722e+00 -3.837884e+00 -3.801258e+00 -3.844261e+00 -3.787888e+00 -3.859869e+00 -3.752232e+00 -3.906775e+00 -3.646777e+00 -4.065054e+00 -1.267341e+00 8.485879e+00 1.323807e+01 1.310648e+01 1.324617e+01 1.315090e+01 1.324241e+01 1.318217e+01 1.325111e+01 1.320826e+01 1.326085e+01 1.322906e+01 1.326960e+01 1.324513e+01 1.327577e+01 1.325518e+01 1.327754e+01 1.325855e+01 1.327415e+01 1.325537e+01 1.326558e+01 1.324597e+01 1.325255e+01 1.323104e+01 1.323719e+01 1.321134e+01 1.322185e+01 1.318445e+01 1.321165e+01 1.314070e+01 1.323780e+01 1.302239e+01 1.347646e+01 9.237018e+00 -8.128580e-01 -4.186474e+00 -3.604057e+00 -3.916294e+00 -3.738824e+00 -3.848211e+00 -3.782669e+00 -3.831044e+00 -3.798880e+00 -3.827469e+00 -3.805568e+00 -3.827615e+00 -3.808502e+00 -3.828792e+00 -3.809696e+00 
-3.837477e+00 -3.815881e+00 -3.837731e+00 -3.813392e+00 -3.838733e+00 -3.809761e+00 -3.841099e+00 -3.803315e+00 -3.847221e+00 -3.789322e+00 -3.866230e+00 -3.753283e+00 -3.934003e+00 -3.647773e+00 -4.195579e+00 4.907913e-01 1.112945e+01 1.373178e+01 1.308599e+01 1.337007e+01 1.316746e+01 1.328467e+01 1.319054e+01 1.326138e+01 1.320207e+01 1.325193e+01 1.320911e+01 1.324565e+01 1.321338e+01 1.324113e+01 1.321631e+01 1.323818e+01 1.321831e+01 1.323623e+01 1.321943e+01 1.323527e+01 1.322002e+01 1.323596e+01 1.321988e+01 1.323883e+01 1.321770e+01 1.324625e+01 1.321257e+01 1.327011e+01 1.320060e+01 1.335555e+01 1.314363e+01 1.367717e+01 1.131031e+01 1.244428e+00 -4.122218e+00 -3.688406e+00 -3.920237e+00 -3.782426e+00 -3.863507e+00 -3.810798e+00 -3.846722e+00 -3.818777e+00 -3.841132e+00 -3.820183e+00 -3.838877e+00 -3.819404e+00 -3.837834e+00 -3.817845e+00 
-3.826462e+00 -3.805803e+00 -3.828590e+00 -3.804857e+00 -3.830298e+00 -3.802385e+00 -3.831722e+00 -3.797326e+00 -3.833581e+00 -3.786956e+00 -3.839959e+00 -3.764273e+00 -3.870540e+00 -3.712449e+00 -4.010489e+00 1.971892e+00 1.212387e+01 1.357923e+01 1.310914e+01 1.336107e+01 1.316445e+01 1.329661e+01 1.319295e+01 1.327958e+01 1.321363e+01 1.327591e+01 1.322928e+01 1.327572e+01 1.324069e+01 1.327575e+01 1.324779e+01 1.327433e+01 1.325028e+01 1.327053e+01 1.324810e+01 1.326416e+01 1.324141e+01 1.325572e+01 1.323026e+01 1.324615e+01 1.321386e+01 1.323715e+01 1.318969e+01 1.323530e+01 1.315213e+01 1.326378e+01 1.308207e+01 1.337512e+01 1.268091e+01 3.416885e+00 -3.810111e+00 -3.714425e+00 -3.791197e+00 -3.760222e+00 -3.796634e+00 -3.783380e+00 -3.806489e+00 -3.794957e+00 -3.814408e+00 -3.800979e+00 -3.819918e+00 -3.804131e+00 -3.823712e+00 -3.805580e+00 
-3.835643e+00 -3.813915e+00 -3.835657e+00 -3.811090e+00 -3.835429e+00 -3.807508e+00 -3.834295e+00 -3.802693e+00 -3.830598e+00 -3.796317e+00 -3.820517e+00 -3.789814e+00 -3.795327e+00 -3.795151e+00 -3.727788e+00 3.759470e+00 1.313310e+01 1.344666e+01 1.321530e+01 1.336332e+01 1.320354e+01 1.330991e+01 1.320533e+01 1.328215e+01 1.320962e+01 1.326572e+01 1.321295e+01 1.325458e+01 1.321521e+01 1.324709e+01 1.321714e+01 1.324269e+01 1.321914e+01 1.324099e+01 1.322148e+01 1.324211e+01 1.322460e+01 1.324671e+01 1.322885e+01 1.325568e+01 1.323458e+01 1.327108e+01 1.324423e+01 1.329952e+01 1.326668e+01 1.335607e+01 1.332523e+01 1.345239e+01 1.344017e+01 4.788969e+00 -3.674377e+00 -3.889520e+00 -3.785133e+00 -3.844221e+00 -3.814619e+00 -3.830284e+00 -3.827786e+00 -3.824568e+00 -3.833085e+00 -3.821259e+00 -3.834968e+00 -3.818712e+00 -3.835516e+00 -3.816361e+00 
-3.823975e+00 -3.803681e+00 -3.826148e+00 -3.802849e+00 -3.826898e+00 -3.800976e+00 -3.825133e+00 -3.798460e+00 -3.817362e+00 -3.797431e+00 -3.793385e+00 -3.806688e+00 -3.722490e+00 -3.859533e+00 -3.484341e+00 4.797042e+00 1.350645e+01 1.333863e+01 1.328502e+01 1.333560e+01 1.321990e+01 1.330881e+01 1.321237e+01 1.329246e+01 1.322050e+01 1.328395e+01 1.323063e+01 1.327936e+01 1.323904e+01 1.327638e+01 1.324459e+01 1.327339e+01 1.324662e+01 1.326932e+01 1.324489e+01 1.326388e+01 1.323962e+01 1.325742e+01 1.323115e+01 1.325027e+01 1.321998e+01 1.324237e+01 1.320914e+01 1.323365e+01 1.321290e+01 1.322060e+01 1.327833e+01 1.316596e+01 1.353023e+01 5.871199e+00 -3.216199e+00 -3.859646e+00 -3.635440e+00 -3.804385e+00 -3.738357e+00 -3.794779e+00 -3.782877e+00 -3.796355e+00 -3.803730e+00 -3.799575e+00 -3.814395e+00 -3.802074e+00 -3.820364e+00 -3.803435e+00 
-3.834848e+00 -3.813250e+00 -3.834713e+00 -3.810371e+00 -3.833750e+00 -3.807069e+00 -3.830370e+00 -3.803717e+00 -3.819823e+00 -3.802870e+00 -3.787980e+00 -3.815116e+00 -3.691520e+00 -3.879482e+00 -3.356360e+00 5.184449e+00 1.358748e+01 1.329649e+01 1.331796e+01 1.333362e+01 1.323549e+01 1.331096e+01 1.321611e+01 1.328774e+01 1.321379e+01 1.327028e+01 1.321471e+01 1.325769e+01 1.321598e+01 1.324924e+01 1.321755e+01 1.324440e+01 1.321958e+01 1.324279e+01 1.322234e+01 1.324458e+01 1.322641e+01 1.325046e+01 1.323254e+01 1.326126e+01 1.324221e+01 1.327800e+01 1.326092e+01 1.330197e+01 1.330738e+01 1.332760e+01 1.343458e+01 1.329732e+01 1.376336e+01 6.295420e+00 -3.145315e+00 -3.976905e+00 -3.680069e+00 -3.876096e+00 -3.781123e+00 -3.841164e+00 -3.816281e+00 -3.828014e+00 -3.828725e+00 -3.822101e+00 -3.833064e+00 -3.818611e+00 -3.834478e+00 -3.815880e+00 