# vtk DataFile Version 2.0
Comment goes here
ASCII

DATASET STRUCTURED_POINTS
FIELD FieldData 1
TIME 1 1 double
1.82000000
DIMENSIONS    64   64   1

ORIGIN    0.000   0.000   0.000
SPACING   0.015625 0.015625   1.000

POINT_DATA   4096
SCALARS P double
LOOKUP_TABLE default

-3.871990e+00 -3.874513e+00 -3.872064e+00 -3.874545e+00 -3.870675e+00 -3.873021e+00 -3.867812e+00 -3.869902e+00 -3.863477e+00 -3.865171e+00 -3.857712e+00 -3.858862e+00 -3.850620e+00 -3.851076e+00 -3.842377e+00 -3.841990e+00 -3.833207e+00 -3.831834e+00 -3.823354e+00 -3.820872e+00 -3.813059e+00 -3.809408e+00 -3.802570e+00 -3.797822e+00 -3.792188e+00 -3.786608e+00 -3.782317e+00 -3.776388e+00 -3.773542e+00 -3.767929e+00 -3.766756e+00 -3.762203e+00 -3.763042e+00 -3.760036e+00 -3.763018e+00 -3.761491e+00 -3.766370e+00 -3.765895e+00 -3.772290e+00 -3.772502e+00 -3.780113e+00 -3.780818e+00 -3.789364e+00 -3.790434e+00 -3.799580e+00 -3.800932e+00 -3.810280e+00 -3.811877e+00 -3.821018e+00 -3.822839e+00 -3.831391e+00 -3.833403e+00 -3.841039e+00 -3.843198e+00 -3.849658e+00 -3.851919e+00 -3.857017e+00 -3.859351e+00 -3.862971e+00 -3.865367e+00 -3.867455e+00 -3.869909e+00 -3.870458e+00 -3.872961e+00 
-3.872898e+00 -3.875419e+00 -3.871879e+00 -3.874319e+00 -3.869189e+00 -3.871472e+00 -3.864803e+00 -3.866804e+00 -3.858680e+00 -3.860232e+00 -3.850798e+00 -3.851686e+00 -3.841170e+00 -3.841130e+00 -3.829856e+00 -3.828573e+00 -3.816947e+00 -3.814068e+00 -3.802550e+00 -3.797749e+00 -3.786801e+00 -3.779915e+00 -3.769967e+00 -3.761189e+00 -3.752655e+00 -3.742692e+00 -3.736034e+00 -3.726072e+00 -3.721847e+00 -3.713240e+00 -3.711953e+00 -3.705743e+00 -3.707733e+00 -3.704418e+00 -3.709783e+00 -3.709314e+00 -3.717827e+00 -3.719719e+00 -3.730776e+00 -3.734267e+00 -3.746972e+00 -3.751265e+00 -3.764687e+00 -3.769210e+00 -3.782529e+00 -3.786971e+00 -3.799560e+00 -3.803789e+00 -3.815219e+00 -3.819190e+00 -3.829189e+00 -3.832885e+00 -3.841286e+00 -3.844702e+00 -3.851407e+00 -3.854556e+00 -3.859514e+00 -3.862435e+00 -3.865635e+00 -3.868384e+00 -3.869844e+00 -3.872482e+00 -3.872237e+00 -3.874809e+00 
-3.872726e+00 -3.875279e+00 -3.872799e+00 -3.875326e+00 -3.871412e+00 -3.873819e+00 -3.868551e+00 -3.870718e+00 -3.864214e+00 -3.866000e+00 -3.858435e+00 -3.859687e+00 -3.851312e+00 -3.851870e+00 -3.843006e+00 -3.842707e+00 -3.833733e+00 -3.832413e+00 -3.823729e+00 -3.821244e+00 -3.813238e+00 -3.809516e+00 -3.802534e+00 -3.797644e+00 -3.791954e+00 -3.786179e+00 -3.781909e+00 -3.775748e+00 -3.772901e+00 -3.767032e+00 -3.765788e+00 -3.761058e+00 -3.761852e+00 -3.758851e+00 -3.761882e+00 -3.760467e+00 -3.765425e+00 -3.765023e+00 -3.771477e+00 -3.771718e+00 -3.779425e+00 -3.780177e+00 -3.788895e+00 -3.790025e+00 -3.799400e+00 -3.800804e+00 -3.810389e+00 -3.812020e+00 -3.821365e+00 -3.823203e+00 -3.831910e+00 -3.833927e+00 -3.841670e+00 -3.843826e+00 -3.850354e+00 -3.852608e+00 -3.857746e+00 -3.860073e+00 -3.863712e+00 -3.866105e+00 -3.868197e+00 -3.870657e+00 -3.871196e+00 -3.873717e+00 
-3.874592e+00 -3.877141e+00 -3.873561e+00 -3.876074e+00 -3.870891e+00 -3.873298e+00 -3.866551e+00 -3.868735e+00 -3.860491e+00 -3.862292e+00 -3.852674e+00 -3.853879e+00 -3.843095e+00 -3.843426e+00 -3.831787e+00 -3.830885e+00 -3.818804e+00 -3.816229e+00 -3.804198e+00 -3.799489e+00 -3.788023e+00 -3.780861e+00 -3.770437e+00 -3.760929e+00 -3.751956e+00 -3.740900e+00 -3.733837e+00 -3.722728e+00 -3.718230e+00 -3.708824e+00 -3.707405e+00 -3.700836e+00 -3.702770e+00 -3.699441e+00 -3.704880e+00 -3.704684e+00 -3.713566e+00 -3.715994e+00 -3.727760e+00 -3.731908e+00 -3.745458e+00 -3.750291e+00 -3.764543e+00 -3.769423e+00 -3.783439e+00 -3.788086e+00 -3.801173e+00 -3.805501e+00 -3.817235e+00 -3.821230e+00 -3.831382e+00 -3.835049e+00 -3.843504e+00 -3.846855e+00 -3.853559e+00 -3.856626e+00 -3.861558e+00 -3.864395e+00 -3.867561e+00 -3.870240e+00 -3.871665e+00 -3.874258e+00 -3.873978e+00 -3.876539e+00 
-3.874938e+00 -3.877579e+00 -3.875010e+00 -3.877671e+00 -3.873633e+00 -3.876223e+00 -3.870785e+00 -3.873185e+00 -3.866450e+00 -3.868515e+00 -3.860641e+00 -3.862205e+00 -3.853427e+00 -3.854303e+00 -3.844937e+00 -3.844914e+00 -3.835348e+00 -3.834199e+00 -3.824865e+00 -3.822378e+00 -3.813741e+00 -3.809790e+00 -3.802331e+00 -3.796992e+00 -3.791138e+00 -3.784756e+00 -3.780650e+00 -3.773778e+00 -3.770979e+00 -3.764247e+00 -3.762708e+00 -3.757355e+00 -3.757949e+00 -3.755035e+00 -3.758274e+00 -3.757331e+00 -3.762566e+00 -3.762391e+00 -3.768966e+00 -3.769234e+00 -3.777202e+00 -3.778102e+00 -3.787359e+00 -3.788698e+00 -3.798815e+00 -3.800394e+00 -3.810737e+00 -3.812480e+00 -3.822462e+00 -3.824356e+00 -3.833531e+00 -3.835564e+00 -3.843622e+00 -3.845765e+00 -3.852491e+00 -3.854717e+00 -3.859967e+00 -3.862266e+00 -3.865957e+00 -3.868336e+00 -3.870435e+00 -3.872908e+00 -3.873419e+00 -3.875987e+00 
-3.877957e+00 -3.880558e+00 -3.876905e+00 -3.879560e+00 -3.874285e+00 -3.876936e+00 -3.870052e+00 -3.872599e+00 -3.864137e+00 -3.866437e+00 -3.856472e+00 -3.858322e+00 -3.847013e+00 -3.848120e+00 -3.835739e+00 -3.835672e+00 -3.822633e+00 -3.820783e+00 -3.807646e+00 -3.803251e+00 -3.790677e+00 -3.783029e+00 -3.771628e+00 -3.760549e+00 -3.750688e+00 -3.737129e+00 -3.729152e+00 -3.715352e+00 -3.710315e+00 -3.699233e+00 -3.697640e+00 -3.690472e+00 -3.692255e+00 -3.688953e+00 -3.694359e+00 -3.694709e+00 -3.704271e+00 -3.707912e+00 -3.721299e+00 -3.727008e+00 -3.742416e+00 -3.748402e+00 -3.764449e+00 -3.770025e+00 -3.785513e+00 -3.790546e+00 -3.804646e+00 -3.809160e+00 -3.821474e+00 -3.825512e+00 -3.835926e+00 -3.839527e+00 -3.848052e+00 -3.851259e+00 -3.857936e+00 -3.860819e+00 -3.865684e+00 -3.868335e+00 -3.871423e+00 -3.873948e+00 -3.875297e+00 -3.877792e+00 -3.877439e+00 -3.879973e+00 
-3.878631e+00 -3.881416e+00 -3.878707e+00 -3.881590e+00 -3.877361e+00 -3.880260e+00 -3.874560e+00 -3.877358e+00 -3.870260e+00 -3.872808e+00 -3.864435e+00 -3.866548e+00 -3.857100e+00 -3.858545e+00 -3.848318e+00 -3.848803e+00 -3.838184e+00 -3.837362e+00 -3.826822e+00 -3.824341e+00 -3.814458e+00 -3.810085e+00 -3.801615e+00 -3.795433e+00 -3.789271e+00 -3.781805e+00 -3.778439e+00 -3.770423e+00 -3.767957e+00 -3.759385e+00 -3.756927e+00 -3.750077e+00 -3.750031e+00 -3.747602e+00 -3.751519e+00 -3.752004e+00 -3.757920e+00 -3.758082e+00 -3.764559e+00 -3.764553e+00 -3.772825e+00 -3.774049e+00 -3.784304e+00 -3.786116e+00 -3.797700e+00 -3.799634e+00 -3.811427e+00 -3.813377e+00 -3.824502e+00 -3.826498e+00 -3.836460e+00 -3.838520e+00 -3.847075e+00 -3.849190e+00 -3.856209e+00 -3.858375e+00 -3.863782e+00 -3.866017e+00 -3.869772e+00 -3.872111e+00 -3.874206e+00 -3.876686e+00 -3.877141e+00 -3.879779e+00 
-3.882944e+00 -3.885612e+00 -3.881872e+00 -3.884728e+00 -3.879354e+00 -3.882356e+00 -3.875322e+00 -3.878397e+00 -3.869672e+00 -3.872712e+00 -3.862289e+00 -3.865125e+00 -3.853063e+00 -3.855412e+00 -3.841893e+00 -3.843258e+00 -3.828657e+00 -3.828207e+00 -3.813180e+00 -3.809655e+00 -3.795184e+00 -3.787064e+00 -3.774164e+00 -3.760477e+00 -3.749346e+00 -3.731113e+00 -3.721301e+00 -3.702065e+00 -3.696257e+00 -3.682598e+00 -3.681197e+00 -3.673696e+00 -3.675174e+00 -3.672041e+00 -3.676668e+00 -3.677638e+00 -3.687929e+00 -3.693769e+00 -3.710415e+00 -3.719375e+00 -3.737978e+00 -3.745811e+00 -3.764909e+00 -3.771404e+00 -3.789317e+00 -3.794852e+00 -3.810500e+00 -3.815271e+00 -3.828364e+00 -3.832459e+00 -3.843144e+00 -3.846625e+00 -3.855153e+00 -3.858107e+00 -3.864674e+00 -3.867235e+00 -3.871959e+00 -3.874288e+00 -3.877237e+00 -3.879496e+00 -3.880718e+00 -3.883041e+00 -3.882579e+00 -3.885054e+00 
-3.883816e+00 -3.886793e+00 -3.883902e+00 -3.887095e+00 -3.882635e+00 -3.885969e+00 -3.879954e+00 -3.883323e+00 -3.875773e+00 -3.879030e+00 -3.870002e+00 -3.872943e+00 -3.862572e+00 -3.864903e+00 -3.853435e+00 -3.854743e+00 -3.842533e+00 -3.842277e+00 -3.829790e+00 -3.827359e+00 -3.815254e+00 -3.810176e+00 -3.799610e+00 -3.791957e+00 -3.784949e+00 -3.775735e+00 -3.775120e+00 -3.766147e+00 -3.765142e+00 -3.752733e+00 -3.747291e+00 -3.736530e+00 -3.734433e+00 -3.733906e+00 -3.740199e+00 -3.745026e+00 -3.752791e+00 -3.752941e+00 -3.757968e+00 -3.756223e+00 -3.764582e+00 -3.766777e+00 -3.778748e+00 -3.781602e+00 -3.795918e+00 -3.798478e+00 -3.812761e+00 -3.815037e+00 -3.827908e+00 -3.830063e+00 -3.841091e+00 -3.843190e+00 -3.852351e+00 -3.854407e+00 -3.861754e+00 -3.863797e+00 -3.869363e+00 -3.871463e+00 -3.875263e+00 -3.877507e+00 -3.879566e+00 -3.882027e+00 -3.882386e+00 -3.885105e+00 
-3.889474e+00 -3.892217e+00 -3.888397e+00 -3.891502e+00 -3.886064e+00 -3.889505e+00 -3.882374e+00 -3.886114e+00 -3.877171e+00 -3.881162e+00 -3.870270e+00 -3.874420e+00 -3.861465e+00 -3.865567e+00 -3.850529e+00 -3.854107e+00 -3.837191e+00 -3.839243e+00 -3.821138e+00 -3.819748e+00 -3.802071e+00 -3.794180e+00 -3.779295e+00 -3.761805e+00 -3.749725e+00 -3.723314e+00 -3.709102e+00 -3.678101e+00 -3.671462e+00 -3.654970e+00 -3.655686e+00 -3.649968e+00 -3.651040e+00 -3.648244e+00 -3.649274e+00 -3.649731e+00 -3.659745e+00 -3.669286e+00 -3.693445e+00 -3.709864e+00 -3.733137e+00 -3.743057e+00 -3.766987e+00 -3.774170e+00 -3.795787e+00 -3.801856e+00 -3.819561e+00 -3.824702e+00 -3.838574e+00 -3.842765e+00 -3.853525e+00 -3.856811e+00 -3.865131e+00 -3.867667e+00 -3.873963e+00 -3.875996e+00 -3.880468e+00 -3.882277e+00 -3.885009e+00 -3.886846e+00 -3.887885e+00 -3.889936e+00 -3.889324e+00 -3.891699e+00 
-3.890489e+00 -3.893700e+00 -3.890602e+00 -3.894188e+00 -3.889492e+00 -3.893387e+00 -3.887063e+00 -3.891179e+00 -3.883162e+00 -3.887375e+00 -3.877607e+00 -3.881710e+00 -3.870208e+00 -3.873847e+00 -3.860759e+00 -3.863355e+00 -3.848960e+00 -3.849672e+00 -3.834311e+00 -3.832074e+00 -3.816225e+00 -3.810033e+00 -3.795002e+00 -3.784676e+00 -3.773877e+00 -3.761269e+00 -3.770348e+00 -3.764289e+00 -3.768983e+00 -3.747839e+00 -3.732090e+00 -3.709312e+00 -3.700395e+00 -3.706482e+00 -3.721591e+00 -3.740369e+00 -3.754015e+00 -3.751311e+00 -3.748782e+00 -3.739430e+00 -3.747541e+00 -3.753959e+00 -3.769004e+00 -3.773995e+00 -3.793651e+00 -3.797112e+00 -3.815543e+00 -3.818240e+00 -3.833479e+00 -3.835865e+00 -3.848059e+00 -3.850217e+00 -3.859925e+00 -3.861862e+00 -3.869465e+00 -3.871270e+00 -3.876935e+00 -3.878776e+00 -3.882565e+00 -3.884615e+00 -3.886577e+00 -3.888968e+00 -3.889170e+00 -3.891968e+00 
-3.897421e+00 -3.900243e+00 -3.896373e+00 -3.899766e+00 -3.894351e+00 -3.898289e+00 -3.891207e+00 -3.895694e+00 -3.886716e+00 -3.891793e+00 -3.880596e+00 -3.886312e+00 -3.872517e+00 -3.878847e+00 -3.862061e+00 -3.868748e+00 -3.848666e+00 -3.854868e+00 -3.831744e+00 -3.835128e+00 -3.811434e+00 -3.806445e+00 -3.789071e+00 -3.766819e+00 -3.758496e+00 -3.719704e+00 -3.691544e+00 -3.630238e+00 -3.623689e+00 -3.608313e+00 -3.618488e+00 -3.622735e+00 -3.624019e+00 -3.621086e+00 -3.609098e+00 -3.602913e+00 -3.607322e+00 -3.622412e+00 -3.668863e+00 -3.706204e+00 -3.732644e+00 -3.740733e+00 -3.772533e+00 -3.778944e+00 -3.806131e+00 -3.812930e+00 -3.832986e+00 -3.838858e+00 -3.853038e+00 -3.857456e+00 -3.867713e+00 -3.870691e+00 -3.878384e+00 -3.880226e+00 -3.886011e+00 -3.887187e+00 -3.891280e+00 -3.892274e+00 -3.894710e+00 -3.895911e+00 -3.896704e+00 -3.898361e+00 -3.897550e+00 -3.899778e+00 
-3.898606e+00 -3.902090e+00 -3.898770e+00 -3.902824e+00 -3.897938e+00 -3.902503e+00 -3.895964e+00 -3.900990e+00 -3.892607e+00 -3.898031e+00 -3.887559e+00 -3.893223e+00 -3.880473e+00 -3.885990e+00 -3.870961e+00 -3.875555e+00 -3.858435e+00 -3.860843e+00 -3.841725e+00 -3.840169e+00 -3.818736e+00 -3.811090e+00 -3.787586e+00 -3.772429e+00 -3.742158e+00 -3.718071e+00 -3.761752e+00 -3.780990e+00 -3.807575e+00 -3.763686e+00 -3.710492e+00 -3.645974e+00 -3.613532e+00 -3.641811e+00 -3.690059e+00 -3.756820e+00 -3.791932e+00 -3.771947e+00 -3.734793e+00 -3.695184e+00 -3.706312e+00 -3.733750e+00 -3.754186e+00 -3.761494e+00 -3.792580e+00 -3.796655e+00 -3.821666e+00 -3.824785e+00 -3.842565e+00 -3.845325e+00 -3.858248e+00 -3.860512e+00 -3.870390e+00 -3.872091e+00 -3.879741e+00 -3.881094e+00 -3.886747e+00 -3.888110e+00 -3.891802e+00 -3.893499e+00 -3.895274e+00 -3.897513e+00 -3.897472e+00 -3.900336e+00 
-3.906574e+00 -3.909502e+00 -3.905617e+00 -3.909333e+00 -3.904081e+00 -3.908534e+00 -3.901758e+00 -3.906988e+00 -3.898340e+00 -3.904503e+00 -3.893437e+00 -3.900785e+00 -3.886579e+00 -3.895383e+00 -3.877109e+00 -3.887595e+00 -3.863872e+00 -3.876160e+00 -3.845100e+00 -3.858210e+00 -3.821103e+00 -3.827395e+00 -3.804097e+00 -3.776099e+00 -3.800475e+00 -3.755813e+00 -3.672249e+00 -3.514598e+00 -3.515663e+00 -3.527231e+00 -3.571770e+00 -3.612554e+00 -3.618359e+00 -3.610900e+00 -3.555697e+00 -3.519053e+00 -3.493285e+00 -3.511478e+00 -3.640788e+00 -3.751396e+00 -3.755784e+00 -3.733009e+00 -3.782318e+00 -3.785865e+00 -3.821261e+00 -3.830690e+00 -3.852424e+00 -3.860124e+00 -3.873050e+00 -3.877943e+00 -3.886480e+00 -3.888892e+00 -3.895304e+00 -3.895950e+00 -3.900962e+00 -3.900746e+00 -3.904371e+00 -3.904119e+00 -3.906209e+00 -3.906499e+00 -3.906985e+00 -3.908116e+00 -3.907044e+00 -3.909097e+00 
-3.908021e+00 -3.911833e+00 -3.908273e+00 -3.912864e+00 -3.907885e+00 -3.913191e+00 -3.906654e+00 -3.912688e+00 -3.904227e+00 -3.911066e+00 -3.900131e+00 -3.907790e+00 -3.893833e+00 -3.901998e+00 -3.884788e+00 -3.892479e+00 -3.872291e+00 -3.877730e+00 -3.854678e+00 -3.855242e+00 -3.827512e+00 -3.819247e+00 -3.790963e+00 -3.771571e+00 -3.641702e+00 -3.556394e+00 -3.726658e+00 -3.882181e+00 -3.995348e+00 -3.881789e+00 -3.687391e+00 -3.472346e+00 -3.360386e+00 -3.460269e+00 -3.627620e+00 -3.870052e+00 -3.993612e+00 -3.889203e+00 -3.692734e+00 -3.536949e+00 -3.588348e+00 -3.722421e+00 -3.746715e+00 -3.739217e+00 -3.798310e+00 -3.801464e+00 -3.834935e+00 -3.838614e+00 -3.857042e+00 -3.860617e+00 -3.872616e+00 -3.875105e+00 -3.884330e+00 -3.885540e+00 -3.892951e+00 -3.893440e+00 -3.898992e+00 -3.899508e+00 -3.903024e+00 -3.904133e+00 -3.905603e+00 -3.907592e+00 -3.907172e+00 -3.910104e+00 
-3.916581e+00 -3.919702e+00 -3.915811e+00 -3.919907e+00 -3.914985e+00 -3.919927e+00 -3.913826e+00 -3.919670e+00 -3.911933e+00 -3.918977e+00 -3.908811e+00 -3.917567e+00 -3.903921e+00 -3.914973e+00 -3.896551e+00 -3.910562e+00 -3.884850e+00 -3.903749e+00 -3.863009e+00 -3.892842e+00 -3.822297e+00 -3.866964e+00 -3.803093e+00 -3.751631e+00 -3.968100e+00 -3.984332e+00 -3.362831e+00 -1.878793e+00 -4.079890e-01 1.123343e+00 2.517632e+00 3.482455e+00 3.860430e+00 3.519029e+00 2.625147e+00 1.179026e+00 -2.333058e-01 -1.781947e+00 -3.338564e+00 -4.033593e+00 -3.873687e+00 -3.653229e+00 -3.778077e+00 -3.798860e+00 -3.841397e+00 -3.861894e+00 -3.881268e+00 -3.892718e+00 -3.900516e+00 -3.905856e+00 -3.910558e+00 -3.911709e+00 -3.916091e+00 -3.914587e+00 -3.918752e+00 -3.916259e+00 -3.919515e+00 -3.917400e+00 -3.919183e+00 -3.918243e+00 -3.918362e+00 -3.918880e+00 -3.917435e+00 -3.919357e+00 
-3.918421e+00 -3.922659e+00 -3.918803e+00 -3.923995e+00 -3.919067e+00 -3.925106e+00 -3.918948e+00 -3.925933e+00 -3.917966e+00 -3.926242e+00 -3.915432e+00 -3.925449e+00 -3.910553e+00 -3.922356e+00 -3.902659e+00 -3.915103e+00 -3.891502e+00 -3.902222e+00 -3.876704e+00 -3.882863e+00 -3.845058e+00 -3.838046e+00 -3.905009e+00 -3.811662e+00 -2.612449e+00 5.681533e-01 4.248726e+00 7.792688e+00 1.024369e+01 1.165519e+01 1.262169e+01 1.304541e+01 1.319545e+01 1.305735e+01 1.260987e+01 1.169419e+01 1.039757e+01 7.928248e+00 4.280295e+00 8.753994e-01 -1.994941e+00 -3.789291e+00 -3.846074e+00 -3.669796e+00 -3.815454e+00 -3.828976e+00 -3.861477e+00 -3.867365e+00 -3.878420e+00 -3.884057e+00 -3.891596e+00 -3.894494e+00 -3.902063e+00 -3.902158e+00 -3.909306e+00 -3.908128e+00 -3.913705e+00 -3.912778e+00 -3.916105e+00 -3.916325e+00 -3.917326e+00 -3.918999e+00 -3.917977e+00 -3.921041e+00 
-3.926892e+00 -3.930426e+00 -3.926444e+00 -3.931041e+00 -3.926590e+00 -3.931961e+00 -3.926987e+00 -3.933152e+00 -3.927122e+00 -3.934553e+00 -3.926363e+00 -3.935976e+00 -3.924211e+00 -3.936856e+00 -3.920781e+00 -3.936289e+00 -3.916155e+00 -3.935414e+00 -3.899865e+00 -3.943023e+00 -3.803506e+00 -3.941714e+00 -3.019299e+00 5.383155e-01 4.674709e+00 9.242036e+00 1.202185e+01 1.303824e+01 1.359029e+01 1.349726e+01 1.344781e+01 1.329412e+01 1.328414e+01 1.329601e+01 1.340535e+01 1.352368e+01 1.358325e+01 1.312203e+01 1.208974e+01 9.827790e+00 5.280853e+00 5.912268e-01 -2.562251e+00 -3.860244e+00 -3.880246e+00 -3.922817e+00 -3.929601e+00 -3.942921e+00 -3.937658e+00 -3.941689e+00 -3.939839e+00 -3.938154e+00 -3.940336e+00 -3.934948e+00 -3.938890e+00 -3.932713e+00 -3.936130e+00 -3.931338e+00 -3.933000e+00 -3.930550e+00 -3.930207e+00 -3.930171e+00 -3.928129e+00 -3.930134e+00 
-3.929241e+00 -3.934124e+00 -3.929803e+00 -3.935688e+00 -3.930947e+00 -3.937597e+00 -3.932377e+00 -3.939947e+00 -3.933487e+00 -3.942743e+00 -3.933294e+00 -3.945630e+00 -3.930503e+00 -3.947074e+00 -3.923941e+00 -3.943399e+00 -3.914272e+00 -3.933180e+00 -3.917505e+00 -3.941131e+00 -3.619400e+00 -1.651465e+00 3.119378e+00 9.232472e+00 1.223592e+01 1.318867e+01 1.334324e+01 1.300934e+01 1.301453e+01 1.297353e+01 1.307135e+01 1.307491e+01 1.312608e+01 1.307611e+01 1.305761e+01 1.297762e+01 1.301026e+01 1.300016e+01 1.334967e+01 1.321938e+01 1.217044e+01 9.409042e+00 3.823520e+00 -1.334297e+00 -3.632726e+00 -3.970837e+00 -3.916025e+00 -3.917841e+00 -3.903959e+00 -3.914216e+00 -3.913760e+00 -3.917099e+00 -3.923397e+00 -3.920808e+00 -3.928789e+00 -3.924402e+00 -3.930672e+00 -3.927406e+00 -3.930633e+00 -3.929676e+00 -3.929929e+00 -3.931365e+00 -3.929331e+00 -3.932755e+00 
-3.936725e+00 -3.941136e+00 -3.936775e+00 -3.942140e+00 -3.938181e+00 -3.943914e+00 -3.940556e+00 -3.946517e+00 -3.943246e+00 -3.950105e+00 -3.945242e+00 -3.954816e+00 -3.945565e+00 -3.959863e+00 -3.945672e+00 -3.961494e+00 -3.958147e+00 -3.957734e+00 -4.022099e+00 -3.774339e+00 -8.278935e-01 5.523181e+00 1.059512e+01 1.293002e+01 1.326148e+01 1.300160e+01 1.305407e+01 1.314188e+01 1.329776e+01 1.328704e+01 1.333554e+01 1.328082e+01 1.330972e+01 1.328061e+01 1.332218e+01 1.328753e+01 1.329253e+01 1.312890e+01 1.306796e+01 1.293102e+01 1.323681e+01 1.306187e+01 1.112148e+01 6.208038e+00 -3.710765e-01 -3.594634e+00 -4.020920e+00 -4.014282e+00 -3.980216e+00 -3.979524e+00 -3.970581e+00 -3.964189e+00 -3.966461e+00 -3.954327e+00 -3.960343e+00 -3.948332e+00 -3.953175e+00 -3.944782e+00 -3.946624e+00 -3.942628e+00 -3.941564e+00 -3.941379e+00 -3.938271e+00 -3.940886e+00 
-3.939652e+00 -3.945630e+00 -3.940435e+00 -3.947215e+00 -3.942674e+00 -3.949710e+00 -3.946115e+00 -3.953412e+00 -3.950114e+00 -3.958850e+00 -3.953317e+00 -3.966680e+00 -3.953378e+00 -3.975814e+00 -3.946763e+00 -3.976266e+00 -3.921618e+00 -3.942163e+00 -3.771191e+00 -8.204036e-01 6.162688e+00 1.187266e+01 1.309673e+01 1.310755e+01 1.304136e+01 1.315462e+01 1.316457e+01 1.308897e+01 1.310822e+01 1.306534e+01 1.311276e+01 1.308678e+01 1.312463e+01 1.308412e+01 1.310458e+01 1.305617e+01 1.309750e+01 1.306804e+01 1.315356e+01 1.312399e+01 1.303531e+01 1.307110e+01 1.317604e+01 1.205054e+01 6.809686e+00 -1.466360e-01 -3.608381e+00 -3.919438e+00 -3.905235e+00 -3.936245e+00 -3.934764e+00 -3.938016e+00 -3.948317e+00 -3.939101e+00 -3.951431e+00 -3.940997e+00 -3.949387e+00 -3.942659e+00 -3.945810e+00 -3.943652e+00 -3.942540e+00 -3.944195e+00 -3.940383e+00 -3.944722e+00 
-3.945124e+00 -3.951247e+00 -3.945879e+00 -3.952545e+00 -3.948816e+00 -3.954956e+00 -3.953630e+00 -3.958579e+00 -3.959612e+00 -3.963908e+00 -3.964937e+00 -3.972195e+00 -3.965459e+00 -3.984166e+00 -3.954932e+00 -3.988537e+00 -3.942593e+00 -3.837792e+00 -1.201833e+00 6.040994e+00 1.184566e+01 1.319578e+01 1.311428e+01 1.319613e+01 1.319883e+01 1.315021e+01 1.318494e+01 1.318819e+01 1.325762e+01 1.324521e+01 1.329304e+01 1.326122e+01 1.329483e+01 1.325805e+01 1.328533e+01 1.323475e+01 1.324770e+01 1.316498e+01 1.317369e+01 1.311026e+01 1.317391e+01 1.316637e+01 1.307178e+01 1.310605e+01 1.215603e+01 6.937402e+00 -6.818579e-01 -3.909524e+00 -3.982374e+00 -3.993679e+00 -3.992604e+00 -3.982602e+00 -3.993022e+00 -3.968691e+00 -3.982043e+00 -3.960873e+00 -3.969172e+00 -3.956500e+00 -3.958567e+00 -3.953703e+00 -3.951152e+00 -3.951896e+00 -3.946785e+00 -3.951048e+00 
-3.948633e+00 -3.956538e+00 -3.949652e+00 -3.957810e+00 -3.953098e+00 -3.960388e+00 -3.958949e+00 -3.964597e+00 -3.966818e+00 -3.971565e+00 -3.975137e+00 -3.984620e+00 -3.980233e+00 -4.010081e+00 -3.983868e+00 -4.041932e+00 -4.075090e+00 -2.845907e+00 3.950615e+00 1.159859e+01 1.333594e+01 1.324620e+01 1.323239e+01 1.318992e+01 1.316916e+01 1.317293e+01 1.317515e+01 1.314240e+01 1.315869e+01 1.312557e+01 1.315495e+01 1.312465e+01 1.315494e+01 1.312027e+01 1.314801e+01 1.311160e+01 1.314600e+01 1.311604e+01 1.315597e+01 1.313041e+01 1.313915e+01 1.311844e+01 1.317416e+01 1.309474e+01 1.316339e+01 1.190616e+01 5.182423e+00 -1.874091e+00 -3.941820e+00 -3.970221e+00 -3.968056e+00 -3.956706e+00 -3.981404e+00 -3.954819e+00 -3.978003e+00 -3.956826e+00 -3.968939e+00 -3.958018e+00 -3.960308e+00 -3.957824e+00 -3.953907e+00 -3.956999e+00 -3.950032e+00 -3.956377e+00 
-3.951133e+00 -3.960280e+00 -3.952775e+00 -3.961742e+00 -3.957382e+00 -3.964441e+00 -3.965049e+00 -3.968196e+00 -3.975698e+00 -3.973424e+00 -3.987704e+00 -3.983534e+00 -3.992996e+00 -4.012544e+00 -3.962532e+00 -4.108140e+00 -3.592637e+00 1.842548e+00 9.676838e+00 1.305628e+01 1.324437e+01 1.323361e+01 1.321931e+01 1.323054e+01 1.323232e+01 1.321785e+01 1.323894e+01 1.322904e+01 1.326621e+01 1.324998e+01 1.328538e+01 1.325896e+01 1.328874e+01 1.325455e+01 1.327918e+01 1.323651e+01 1.325537e+01 1.320593e+01 1.322353e+01 1.318802e+01 1.321001e+01 1.320808e+01 1.319383e+01 1.324170e+01 1.323929e+01 1.335152e+01 1.082411e+01 2.567259e+00 -3.672558e+00 -4.123355e+00 -4.021629e+00 -4.000541e+00 -4.027971e+00 -3.974452e+00 -4.003978e+00 -3.968599e+00 -3.981987e+00 -3.965897e+00 -3.966815e+00 -3.963429e+00 -3.957474e+00 -3.961344e+00 -3.952552e+00 -3.960178e+00 
-3.955191e+00 -3.966332e+00 -3.956392e+00 -3.966971e+00 -3.960880e+00 -3.969023e+00 -3.969187e+00 -3.972141e+00 -3.981973e+00 -3.976533e+00 -3.998062e+00 -3.986975e+00 -4.003737e+00 -4.032501e+00 -3.922354e+00 -4.265308e+00 -2.067490e+00 6.869539e+00 1.305951e+01 1.321500e+01 1.331452e+01 1.324902e+01 1.326714e+01 1.322936e+01 1.322794e+01 1.320773e+01 1.321156e+01 1.318529e+01 1.319827e+01 1.316969e+01 1.319121e+01 1.316210e+01 1.318789e+01 1.315741e+01 1.318543e+01 1.315518e+01 1.318645e+01 1.315957e+01 1.319142e+01 1.316861e+01 1.319276e+01 1.317374e+01 1.320102e+01 1.317937e+01 1.318641e+01 1.318340e+01 1.282334e+01 7.485020e+00 -9.149539e-01 -4.042250e+00 -3.983406e+00 -3.961042e+00 -4.027984e+00 -3.963673e+00 -4.008292e+00 -3.971789e+00 -3.986952e+00 -3.973851e+00 -3.971948e+00 -3.972179e+00 -3.962454e+00 -3.969442e+00 -3.957125e+00 -3.967236e+00 
-3.954110e+00 -3.967985e+00 -3.956682e+00 -3.969593e+00 -3.962655e+00 -3.972452e+00 -3.972883e+00 -3.975382e+00 -3.989246e+00 -3.976148e+00 -4.014864e+00 -3.972199e+00 -4.050976e+00 -3.970135e+00 -4.072987e+00 -3.927405e+00 2.003133e+00 1.061830e+01 1.343208e+01 1.326452e+01 1.331205e+01 1.327956e+01 1.327765e+01 1.327251e+01 1.327178e+01 1.326244e+01 1.327336e+01 1.326081e+01 1.328223e+01 1.326427e+01 1.328945e+01 1.326490e+01 1.329010e+01 1.325978e+01 1.328367e+01 1.324892e+01 1.327111e+01 1.323559e+01 1.325677e+01 1.322919e+01 1.324906e+01 1.323560e+01 1.325086e+01 1.324169e+01 1.329143e+01 1.320733e+01 1.343705e+01 1.199933e+01 3.678046e+00 -3.613226e+00 -4.212951e+00 -3.916500e+00 -4.089260e+00 -3.955888e+00 -4.021673e+00 -3.971237e+00 -3.986790e+00 -3.974115e+00 -3.968582e+00 -3.972339e+00 -3.959093e+00 -3.969745e+00 -3.954760e+00 -3.968065e+00 
-3.958734e+00 -3.974713e+00 -3.959909e+00 -3.974708e+00 -3.964691e+00 -3.976253e+00 -3.974404e+00 -3.977491e+00 -3.992673e+00 -3.973422e+00 -4.029174e+00 -3.949931e+00 -4.110359e+00 -3.864333e+00 -4.313918e+00 -2.642583e+00 6.584255e+00 1.336764e+01 1.340105e+01 1.334064e+01 1.333031e+01 1.330403e+01 1.329279e+01 1.327071e+01 1.326371e+01 1.324263e+01 1.324346e+01 1.321910e+01 1.322850e+01 1.320193e+01 1.321917e+01 1.319171e+01 1.321489e+01 1.318722e+01 1.321495e+01 1.318832e+01 1.321975e+01 1.319596e+01 1.322867e+01 1.320957e+01 1.323896e+01 1.322863e+01 1.325058e+01 1.326046e+01 1.325873e+01 1.332264e+01 1.327879e+01 1.325218e+01 7.281908e+00 -1.921559e+00 -4.430305e+00 -3.845057e+00 -4.136428e+00 -3.962603e+00 -4.038049e+00 -3.990688e+00 -3.997356e+00 -3.992456e+00 -3.977419e+00 -3.987213e+00 -3.966594e+00 -3.981302e+00 -3.960841e+00 -3.976907e+00 
-3.954147e+00 -3.974298e+00 -3.957414e+00 -3.976348e+00 -3.963668e+00 -3.980209e+00 -3.974154e+00 -3.983947e+00 -3.992469e+00 -3.981581e+00 -4.029537e+00 -3.953741e+00 -4.120768e+00 -3.834276e+00 -4.395722e+00 -1.876950e-01 9.798014e+00 1.364041e+01 1.324887e+01 1.343159e+01 1.330855e+01 1.335422e+01 1.330955e+01 1.331827e+01 1.330314e+01 1.329702e+01 1.329819e+01 1.328474e+01 1.329669e+01 1.327786e+01 1.329621e+01 1.327253e+01 1.329433e+01 1.326663e+01 1.329037e+01 1.326011e+01 1.328505e+01 1.325498e+01 1.328028e+01 1.325511e+01 1.327751e+01 1.326449e+01 1.327297e+01 1.329139e+01 1.325011e+01 1.337998e+01 1.311691e+01 1.373446e+01 1.091496e+01 1.056024e+00 -4.404224e+00 -3.835205e+00 -4.094826e+00 -3.956974e+00 -4.004758e+00 -3.984475e+00 -3.973731e+00 -3.986227e+00 -3.961095e+00 -3.981859e+00 -3.955464e+00 -3.977353e+00 -3.953464e+00 -3.974635e+00 
-3.959502e+00 -3.981428e+00 -3.960272e+00 -3.981285e+00 -3.963788e+00 -3.983853e+00 -3.970827e+00 -3.987623e+00 -3.984198e+00 -3.988081e+00 -4.013864e+00 -3.970719e+00 -4.095550e+00 -3.888363e+00 -4.362286e+00 2.119657e+00 1.219594e+01 1.385115e+01 1.326762e+01 1.349187e+01 1.332534e+01 1.336683e+01 1.331377e+01 1.330812e+01 1.328959e+01 1.327080e+01 1.326721e+01 1.324347e+01 1.324995e+01 1.322417e+01 1.323902e+01 1.321263e+01 1.323457e+01 1.320843e+01 1.323658e+01 1.321162e+01 1.324536e+01 1.322266e+01 1.326084e+01 1.324191e+01 1.328213e+01 1.327161e+01 1.330813e+01 1.332336e+01 1.333380e+01 1.343585e+01 1.333439e+01 1.373028e+01 1.263929e+01 3.759443e+00 -4.101765e+00 -4.039766e+00 -4.052584e+00 -4.047303e+00 -4.007735e+00 -4.034198e+00 -3.985711e+00 -4.017489e+00 -3.973349e+00 -4.002910e+00 -3.965755e+00 -3.991978e+00 -3.961301e+00 -3.984881e+00 
-3.952390e+00 -3.979028e+00 -3.955895e+00 -3.981970e+00 -3.960941e+00 -3.988445e+00 -3.967590e+00 -3.998408e+00 -3.976095e+00 -4.011333e+00 -3.988333e+00 -4.025110e+00 -4.012522e+00 -4.035328e+00 -4.019439e+00 4.039627e+00 1.310434e+01 1.370636e+01 1.340110e+01 1.349243e+01 1.337939e+01 1.339852e+01 1.335273e+01 1.335008e+01 1.333159e+01 1.332029e+01 1.331689e+01 1.330070e+01 1.330777e+01 1.328778e+01 1.330235e+01 1.327885e+01 1.329879e+01 1.327222e+01 1.329636e+01 1.326758e+01 1.329572e+01 1.326590e+01 1.329837e+01 1.326847e+01 1.330568e+01 1.327613e+01 1.331859e+01 1.329108e+01 1.334036e+01 1.332043e+01 1.338644e+01 1.335393e+01 1.352509e+01 6.407190e+00 -3.352020e+00 -4.110985e+00 -3.875598e+00 -4.050375e+00 -3.925712e+00 -4.022266e+00 -3.941114e+00 -4.004216e+00 -3.946440e+00 -3.991814e+00 -3.948590e+00 -3.983789e+00 -3.950161e+00 -3.979609e+00 
-3.958792e+00 -3.985939e+00 -3.958935e+00 -3.986142e+00 -3.960178e+00 -3.990939e+00 -3.961220e+00 -4.001215e+00 -3.958738e+00 -4.019871e+00 -3.944017e+00 -4.055923e+00 -3.890685e+00 -4.140387e+00 -3.458708e+00 6.102014e+00 1.376203e+01 1.347497e+01 1.351378e+01 1.343240e+01 1.340832e+01 1.337231e+01 1.335090e+01 1.332419e+01 1.331194e+01 1.328656e+01 1.328340e+01 1.325767e+01 1.326328e+01 1.323722e+01 1.325115e+01 1.322513e+01 1.324675e+01 1.322116e+01 1.325016e+01 1.322544e+01 1.326215e+01 1.323842e+01 1.328402e+01 1.326033e+01 1.331798e+01 1.329154e+01 1.336992e+01 1.333399e+01 1.345683e+01 1.338969e+01 1.362680e+01 1.343469e+01 1.401954e+01 7.879978e+00 -2.926966e+00 -4.295962e+00 -3.902920e+00 -4.150173e+00 -3.950136e+00 -4.080369e+00 -3.963307e+00 -4.040459e+00 -3.964636e+00 -4.015558e+00 -3.962468e+00 -3.999732e+00 -3.960087e+00 -3.990289e+00 
-3.950753e+00 -3.981641e+00 -3.954198e+00 -3.985359e+00 -3.957763e+00 -3.994224e+00 -3.959843e+00 -4.010430e+00 -3.955603e+00 -4.039864e+00 -3.931813e+00 -4.098392e+00 -3.851569e+00 -4.229783e+00 -3.105936e+00 7.167745e+00 1.404591e+01 1.344105e+01 1.364151e+01 1.344469e+01 1.347034e+01 1.340194e+01 1.339220e+01 1.336199e+01 1.335152e+01 1.333101e+01 1.332800e+01 1.330850e+01 1.331407e+01 1.329294e+01 1.330604e+01 1.328238e+01 1.330162e+01 1.327530e+01 1.329995e+01 1.327123e+01 1.330181e+01 1.327060e+01 1.330921e+01 1.327348e+01 1.332537e+01 1.327824e+01 1.335728e+01 1.328085e+01 1.342440e+01 1.327169e+01 1.357601e+01 1.321530e+01 1.390368e+01 8.800280e+00 -2.305469e+00 -4.227312e+00 -3.790843e+00 -4.109137e+00 -3.878194e+00 -4.049436e+00 -3.918046e+00 -4.016995e+00 -3.935516e+00 -3.998329e+00 -3.943340e+00 -3.987605e+00 -3.947500e+00 -3.982356e+00 
-3.958294e+00 -3.987548e+00 -3.958129e+00 -3.987974e+00 -3.958233e+00 -3.993886e+00 -3.956224e+00 -4.007340e+00 -3.945778e+00 -4.034375e+00 -3.910604e+00 -4.091170e+00 -3.809438e+00 -4.218316e+00 -2.923240e+00 7.486456e+00 1.398439e+01 1.335252e+01 1.362145e+01 1.339642e+01 1.345222e+01 1.336748e+01 1.336954e+01 1.332757e+01 1.332143e+01 1.329130e+01 1.328941e+01 1.326225e+01 1.326791e+01 1.324153e+01 1.325529e+01 1.322931e+01 1.325093e+01 1.322543e+01 1.325485e+01 1.323002e+01 1.326810e+01 1.324355e+01 1.329264e+01 1.326606e+01 1.333218e+01 1.329663e+01 1.339582e+01 1.333271e+01 1.350710e+01 1.336421e+01 1.371806e+01 1.334574e+01 1.409322e+01 9.218863e+00 -2.136812e+00 -4.309100e+00 -3.851010e+00 -4.176351e+00 -3.925825e+00 -4.096482e+00 -3.952949e+00 -4.049164e+00 -3.960388e+00 -4.020343e+00 -3.960753e+00 -4.002577e+00 -3.959351e+00 -3.992216e+00 