# vtk DataFile Version 2.0
Comment goes here
ASCII

DATASET STRUCTURED_POINTS
FIELD FieldData 1
TIME 1 1 double
1.32000000
DIMENSIONS    64   64   1

ORIGIN    0.000   0.000   0.000
SPACING   0.015625 0.015625   1.000

POINT_DATA   4096
SCALARS P double
LOOKUP_TABLE default

-4.080112e+00 -4.087612e+00 -4.078697e+00 -4.082492e+00 -4.072253e+00 -4.072216e+00 -4.060751e+00 -4.056827e+00 -4.044218e+00 -4.036445e+00 -4.022801e+00 -4.011327e+00 -3.996839e+00 -3.981923e+00 -3.966911e+00 -3.948899e+00 -3.933835e+00 -3.913137e+00 -3.898632e+00 -3.875713e+00 -3.862476e+00 -3.837897e+00 -3.826680e+00 -3.801182e+00 -3.792741e+00 -3.767318e+00 -3.762381e+00 -3.738298e+00 -3.737572e+00 -3.716359e+00 -3.720562e+00 -3.703908e+00 -3.713519e+00 -3.702801e+00 -3.717519e+00 -3.713300e+00 -3.731823e+00 -3.733900e+00 -3.754401e+00 -3.762243e+00 -3.782997e+00 -3.795977e+00 -3.815636e+00 -3.832967e+00 -3.850596e+00 -3.871331e+00 -3.886375e+00 -3.909453e+00 -3.921641e+00 -3.945965e+00 -3.955202e+00 -3.979709e+00 -3.986010e+00 -4.009752e+00 -4.013211e+00 -4.035393e+00 -4.036175e+00 -4.056174e+00 -4.054504e+00 -4.071846e+00 -4.067986e+00 -4.082310e+00 -4.076533e+00 -4.087558e+00 
-4.077454e+00 -4.084627e+00 -4.075535e+00 -4.078948e+00 -4.068403e+00 -4.067942e+00 -4.056015e+00 -4.051622e+00 -4.038354e+00 -4.030050e+00 -4.015496e+00 -4.003388e+00 -3.987668e+00 -3.971938e+00 -3.955294e+00 -3.936163e+00 -3.918995e+00 -3.896691e+00 -3.879573e+00 -3.854340e+00 -3.838015e+00 -3.810227e+00 -3.795604e+00 -3.765991e+00 -3.754149e+00 -3.724034e+00 -3.716221e+00 -3.687564e+00 -3.685092e+00 -3.660205e+00 -3.664129e+00 -3.645162e+00 -3.655924e+00 -3.644424e+00 -3.661558e+00 -3.658201e+00 -3.680247e+00 -3.684824e+00 -3.709582e+00 -3.721190e+00 -3.746244e+00 -3.763571e+00 -3.786930e+00 -3.808571e+00 -3.829016e+00 -3.853603e+00 -3.870624e+00 -3.896876e+00 -3.910402e+00 -3.937153e+00 -3.947302e+00 -3.973534e+00 -3.980478e+00 -4.005342e+00 -4.009269e+00 -4.032099e+00 -4.033221e+00 -4.053514e+00 -4.052078e+00 -4.069461e+00 -4.065738e+00 -4.079928e+00 -4.074189e+00 -4.084965e+00 
-4.082609e+00 -4.090200e+00 -4.081213e+00 -4.085075e+00 -4.074793e+00 -4.074794e+00 -4.063306e+00 -4.059385e+00 -4.046753e+00 -4.038945e+00 -4.025253e+00 -4.013701e+00 -3.999106e+00 -3.984062e+00 -3.968851e+00 -3.950653e+00 -3.935281e+00 -3.914322e+00 -3.899410e+00 -3.876140e+00 -3.862445e+00 -3.837425e+00 -3.825778e+00 -3.799780e+00 -3.791023e+00 -3.765088e+00 -3.759984e+00 -3.735387e+00 -3.734591e+00 -3.712841e+00 -3.717075e+00 -3.699936e+00 -3.709786e+00 -3.698755e+00 -3.713962e+00 -3.709601e+00 -3.728732e+00 -3.730773e+00 -3.751856e+00 -3.759800e+00 -3.781080e+00 -3.794383e+00 -3.814495e+00 -3.832340e+00 -3.850311e+00 -3.871654e+00 -3.886903e+00 -3.910588e+00 -3.922852e+00 -3.947714e+00 -3.956928e+00 -3.981878e+00 -3.988088e+00 -4.012177e+00 -4.015504e+00 -4.037954e+00 -4.038583e+00 -4.058790e+00 -4.056964e+00 -4.074470e+00 -4.070465e+00 -4.084923e+00 -4.079020e+00 -4.090156e+00 
-4.082638e+00 -4.089969e+00 -4.080752e+00 -4.084288e+00 -4.073685e+00 -4.073301e+00 -4.061368e+00 -4.057001e+00 -4.043745e+00 -4.035412e+00 -4.020833e+00 -4.008646e+00 -3.992789e+00 -3.976930e+00 -3.959958e+00 -3.940635e+00 -3.922883e+00 -3.900272e+00 -3.882295e+00 -3.856536e+00 -3.839127e+00 -3.810454e+00 -3.794636e+00 -3.763683e+00 -3.750685e+00 -3.718851e+00 -3.710100e+00 -3.679645e+00 -3.676711e+00 -3.650300e+00 -3.654344e+00 -3.634249e+00 -3.645660e+00 -3.633415e+00 -3.651677e+00 -3.648020e+00 -3.671639e+00 -3.676500e+00 -3.703101e+00 -3.715591e+00 -3.742339e+00 -3.760937e+00 -3.785499e+00 -3.808601e+00 -3.829697e+00 -3.855738e+00 -3.872979e+00 -3.900519e+00 -3.913993e+00 -3.941784e+00 -3.951733e+00 -3.978749e+00 -3.985417e+00 -4.010851e+00 -4.014465e+00 -4.037708e+00 -4.038505e+00 -4.059108e+00 -4.057353e+00 -4.074984e+00 -4.070968e+00 -4.085370e+00 -4.079381e+00 -4.090341e+00 
-4.090092e+00 -4.097957e+00 -4.088759e+00 -4.092827e+00 -4.082425e+00 -4.082547e+00 -4.071007e+00 -4.067104e+00 -4.054434e+00 -4.046527e+00 -4.032723e+00 -4.020943e+00 -4.006055e+00 -3.990639e+00 -3.974844e+00 -3.956099e+00 -3.939781e+00 -3.918047e+00 -3.901851e+00 -3.877515e+00 -3.862350e+00 -3.835960e+00 -3.822931e+00 -3.795372e+00 -3.785625e+00 -3.758137e+00 -3.752574e+00 -3.726449e+00 -3.725430e+00 -3.701994e+00 -3.706220e+00 -3.687520e+00 -3.698053e+00 -3.686080e+00 -3.702880e+00 -3.698147e+00 -3.719244e+00 -3.721145e+00 -3.744015e+00 -3.752188e+00 -3.775066e+00 -3.789378e+00 -3.810897e+00 -3.830397e+00 -3.849427e+00 -3.872709e+00 -3.888579e+00 -3.914159e+00 -3.926637e+00 -3.953151e+00 -3.962270e+00 -3.988555e+00 -3.994466e+00 -4.019584e+00 -4.022494e+00 -4.045725e+00 -4.045883e+00 -4.066690e+00 -4.064385e+00 -4.082370e+00 -4.077915e+00 -4.092769e+00 -4.086476e+00 -4.097946e+00 
-4.092968e+00 -4.100620e+00 -4.091156e+00 -4.094948e+00 -4.084246e+00 -4.084030e+00 -4.072121e+00 -4.067811e+00 -4.054637e+00 -4.046248e+00 -4.031693e+00 -4.019346e+00 -4.003294e+00 -3.987188e+00 -3.969615e+00 -3.949947e+00 -3.931027e+00 -3.907885e+00 -3.888113e+00 -3.861412e+00 -3.841687e+00 -3.811308e+00 -3.792920e+00 -3.759182e+00 -3.743669e+00 -3.708078e+00 -3.697170e+00 -3.662745e+00 -3.658774e+00 -3.629204e+00 -3.633558e+00 -3.611246e+00 -3.624021e+00 -3.610222e+00 -3.630755e+00 -3.626335e+00 -3.653262e+00 -3.658674e+00 -3.689390e+00 -3.703871e+00 -3.734365e+00 -3.755736e+00 -3.782786e+00 -3.809044e+00 -3.831354e+00 -3.860494e+00 -3.878047e+00 -3.908271e+00 -3.921545e+00 -3.951440e+00 -3.960930e+00 -3.989484e+00 -3.995565e+00 -4.022084e+00 -4.025048e+00 -4.049061e+00 -4.049185e+00 -4.070365e+00 -4.067951e+00 -4.086051e+00 -4.081428e+00 -4.096240e+00 -4.089735e+00 -4.101064e+00 
-4.102527e+00 -4.110858e+00 -4.101316e+00 -4.105746e+00 -4.095180e+00 -4.095526e+00 -4.083965e+00 -4.080115e+00 -4.067480e+00 -4.059425e+00 -4.045561e+00 -4.033417e+00 -4.018159e+00 -4.002147e+00 -3.985439e+00 -3.965818e+00 -3.947868e+00 -3.924869e+00 -3.906317e+00 -3.880163e+00 -3.862190e+00 -3.833343e+00 -3.817625e+00 -3.787214e+00 -3.775628e+00 -3.745499e+00 -3.739431e+00 -3.710909e+00 -3.709507e+00 -3.682944e+00 -3.686679e+00 -3.664880e+00 -3.676349e+00 -3.662852e+00 -3.682857e+00 -3.677827e+00 -3.702792e+00 -3.704329e+00 -3.730222e+00 -3.738382e+00 -3.763963e+00 -3.780147e+00 -3.804218e+00 -3.826917e+00 -3.847865e+00 -3.874799e+00 -3.891719e+00 -3.920734e+00 -3.933500e+00 -3.962885e+00 -3.971755e+00 -4.000267e+00 -4.005598e+00 -4.032374e+00 -4.034520e+00 -4.058977e+00 -4.058291e+00 -4.080031e+00 -4.076879e+00 -4.095611e+00 -4.090369e+00 -4.105855e+00 -4.098885e+00 -4.110904e+00 
-4.108349e+00 -4.116508e+00 -4.106673e+00 -4.110884e+00 -4.100073e+00 -4.100136e+00 -4.088355e+00 -4.084147e+00 -4.071245e+00 -4.062766e+00 -4.048450e+00 -4.035845e+00 -4.019724e+00 -4.003249e+00 -3.984948e+00 -3.964843e+00 -3.944197e+00 -3.920472e+00 -3.897800e+00 -3.870022e+00 -3.846398e+00 -3.813724e+00 -3.791003e+00 -3.752874e+00 -3.733110e+00 -3.690910e+00 -3.675797e+00 -3.634157e+00 -3.628314e+00 -3.593816e+00 -3.599016e+00 -3.573727e+00 -3.588775e+00 -3.572470e+00 -3.596250e+00 -3.590027e+00 -3.622201e+00 -3.628314e+00 -3.666628e+00 -3.684931e+00 -3.722161e+00 -3.748283e+00 -3.779190e+00 -3.810818e+00 -3.834607e+00 -3.868933e+00 -3.886574e+00 -3.921110e+00 -3.933830e+00 -3.966923e+00 -3.975593e+00 -4.006345e+00 -4.011479e+00 -4.039463e+00 -4.041403e+00 -4.066419e+00 -4.065483e+00 -4.087414e+00 -4.083957e+00 -4.102691e+00 -4.097104e+00 -4.112502e+00 -4.105177e+00 -4.117061e+00 
-4.119829e+00 -4.128843e+00 -4.118822e+00 -4.123811e+00 -4.113076e+00 -4.113795e+00 -4.102341e+00 -4.098612e+00 -4.086246e+00 -4.078017e+00 -4.064356e+00 -4.051730e+00 -4.036255e+00 -4.019454e+00 -4.001662e+00 -3.980909e+00 -3.960595e+00 -3.935934e+00 -3.913592e+00 -3.884853e+00 -3.862053e+00 -3.829322e+00 -3.808785e+00 -3.773574e+00 -3.758754e+00 -3.724817e+00 -3.719322e+00 -3.688396e+00 -3.686578e+00 -3.654650e+00 -3.655924e+00 -3.628021e+00 -3.639908e+00 -3.624621e+00 -3.650996e+00 -3.646970e+00 -3.679221e+00 -3.679823e+00 -3.709542e+00 -3.716012e+00 -3.745280e+00 -3.764832e+00 -3.793137e+00 -3.821551e+00 -3.845597e+00 -3.878669e+00 -3.897062e+00 -3.931479e+00 -3.944456e+00 -3.978065e+00 -3.986369e+00 -4.017951e+00 -4.022288e+00 -4.051220e+00 -4.052155e+00 -4.078140e+00 -4.076160e+00 -4.099045e+00 -4.094612e+00 -4.114282e+00 -4.107856e+00 -4.124172e+00 -4.116194e+00 -4.128975e+00 
-4.128605e+00 -4.137499e+00 -4.127156e+00 -4.132000e+00 -4.121104e+00 -4.121609e+00 -4.110158e+00 -4.106119e+00 -4.093866e+00 -4.085244e+00 -4.071660e+00 -4.058643e+00 -4.042920e+00 -4.025899e+00 -4.007058e+00 -3.986457e+00 -3.963645e+00 -3.939546e+00 -3.912591e+00 -3.884197e+00 -3.854390e+00 -3.819596e+00 -3.790140e+00 -3.746065e+00 -3.720264e+00 -3.666932e+00 -3.643165e+00 -3.588059e+00 -3.579040e+00 -3.538141e+00 -3.546070e+00 -3.518598e+00 -3.537350e+00 -3.517330e+00 -3.544260e+00 -3.533321e+00 -3.572353e+00 -3.578738e+00 -3.631414e+00 -3.657693e+00 -3.706749e+00 -3.740028e+00 -3.775736e+00 -3.815870e+00 -3.840524e+00 -3.882934e+00 -3.899799e+00 -3.940613e+00 -3.952138e+00 -3.989465e+00 -3.996866e+00 -4.030237e+00 -4.034033e+00 -4.063598e+00 -4.064103e+00 -4.090142e+00 -4.087701e+00 -4.110414e+00 -4.105459e+00 -4.124914e+00 -4.117935e+00 -4.134069e+00 -4.125560e+00 -4.138202e+00 
-4.141822e+00 -4.151780e+00 -4.141131e+00 -4.146945e+00 -4.136075e+00 -4.137386e+00 -4.126289e+00 -4.122805e+00 -4.111177e+00 -4.102769e+00 -4.089936e+00 -4.076703e+00 -4.061605e+00 -4.043847e+00 -4.025182e+00 -4.003175e+00 -3.979841e+00 -3.953408e+00 -3.925332e+00 -3.893477e+00 -3.862639e+00 -3.824110e+00 -3.794956e+00 -3.751113e+00 -3.729446e+00 -3.690158e+00 -3.691004e+00 -3.661816e+00 -3.660355e+00 -3.618420e+00 -3.610347e+00 -3.568395e+00 -3.577238e+00 -3.561374e+00 -3.602235e+00 -3.605174e+00 -3.652638e+00 -3.650772e+00 -3.682001e+00 -3.679446e+00 -3.712703e+00 -3.739860e+00 -3.775761e+00 -3.814402e+00 -3.843289e+00 -3.886262e+00 -3.906306e+00 -3.948644e+00 -3.961364e+00 -4.000594e+00 -4.007720e+00 -4.043006e+00 -4.045746e+00 -4.077053e+00 -4.076202e+00 -4.103768e+00 -4.099937e+00 -4.124001e+00 -4.117759e+00 -4.138447e+00 -4.130359e+00 -4.147659e+00 -4.138269e+00 -4.152030e+00 
-4.153434e+00 -4.163366e+00 -4.152336e+00 -4.158126e+00 -4.147180e+00 -4.148377e+00 -4.137563e+00 -4.133804e+00 -4.122819e+00 -4.113968e+00 -4.102030e+00 -4.088313e+00 -4.074053e+00 -4.056107e+00 -4.037578e+00 -4.016297e+00 -3.991308e+00 -3.967314e+00 -3.934372e+00 -3.906968e+00 -3.867246e+00 -3.832768e+00 -3.792876e+00 -3.742744e+00 -3.712424e+00 -3.640607e+00 -3.595489e+00 -3.511133e+00 -3.497075e+00 -3.450946e+00 -3.468340e+00 -3.445214e+00 -3.470700e+00 -3.445238e+00 -3.471007e+00 -3.446495e+00 -3.490402e+00 -3.493973e+00 -3.577901e+00 -3.625054e+00 -3.695585e+00 -3.736329e+00 -3.774666e+00 -3.828219e+00 -3.850840e+00 -3.905663e+00 -3.919737e+00 -3.969104e+00 -3.978517e+00 -4.020744e+00 -4.026468e+00 -4.062331e+00 -4.064445e+00 -4.095239e+00 -4.093872e+00 -4.120631e+00 -4.116159e+00 -4.139499e+00 -4.132486e+00 -4.152665e+00 -4.143758e+00 -4.160769e+00 -4.150615e+00 -4.164257e+00 
-4.168172e+00 -4.179418e+00 -4.167940e+00 -4.174958e+00 -4.163994e+00 -4.166235e+00 -4.155861e+00 -4.152830e+00 -4.142707e+00 -4.134124e+00 -4.123287e+00 -4.109255e+00 -4.095922e+00 -4.076971e+00 -4.058524e+00 -4.035318e+00 -4.008833e+00 -3.981261e+00 -3.945026e+00 -3.910769e+00 -3.866894e+00 -3.820837e+00 -3.776944e+00 -3.714794e+00 -3.671473e+00 -3.621686e+00 -3.653713e+00 -3.648942e+00 -3.651826e+00 -3.586989e+00 -3.546417e+00 -3.465080e+00 -3.456491e+00 -3.447176e+00 -3.527344e+00 -3.560248e+00 -3.645730e+00 -3.637475e+00 -3.651985e+00 -3.610133e+00 -3.646520e+00 -3.699384e+00 -3.752368e+00 -3.808602e+00 -3.844427e+00 -3.902702e+00 -3.923289e+00 -3.976409e+00 -3.987455e+00 -4.033344e+00 -4.038209e+00 -4.077266e+00 -4.077591e+00 -4.110961e+00 -4.107621e+00 -4.136423e+00 -4.130078e+00 -4.155101e+00 -4.146413e+00 -4.168073e+00 -4.157734e+00 -4.176133e+00 -4.164828e+00 -4.179820e+00 
-4.182338e+00 -4.193743e+00 -4.181752e+00 -4.188958e+00 -4.177952e+00 -4.180249e+00 -4.170437e+00 -4.167173e+00 -4.158327e+00 -4.149131e+00 -4.140318e+00 -4.125370e+00 -4.114604e+00 -4.094885e+00 -4.078853e+00 -4.056159e+00 -4.030306e+00 -4.006787e+00 -3.966305e+00 -3.943117e+00 -3.886423e+00 -3.860606e+00 -3.800305e+00 -3.750373e+00 -3.739973e+00 -3.640743e+00 -3.527761e+00 -3.363700e+00 -3.344593e+00 -3.308253e+00 -3.358629e+00 -3.365564e+00 -3.406093e+00 -3.371919e+00 -3.378491e+00 -3.313020e+00 -3.340183e+00 -3.324687e+00 -3.492552e+00 -3.611388e+00 -3.722446e+00 -3.751460e+00 -3.775916e+00 -3.854520e+00 -3.868028e+00 -3.942267e+00 -3.949892e+00 -4.009776e+00 -4.016327e+00 -4.062844e+00 -4.066910e+00 -4.103992e+00 -4.104265e+00 -4.135177e+00 -4.131468e+00 -4.158227e+00 -4.151062e+00 -4.174683e+00 -4.164889e+00 -4.185740e+00 -4.174219e+00 -4.192273e+00 -4.179878e+00 -4.194848e+00 
-4.198302e+00 -4.211320e+00 -4.198685e+00 -4.207472e+00 -4.196373e+00 -4.200080e+00 -4.190833e+00 -4.188608e+00 -4.181043e+00 -4.172291e+00 -4.165345e+00 -4.150095e+00 -4.141238e+00 -4.120490e+00 -4.105206e+00 -4.080832e+00 -4.052800e+00 -4.026137e+00 -3.979320e+00 -3.947311e+00 -3.882245e+00 -3.832508e+00 -3.772584e+00 -3.664151e+00 -3.525360e+00 -3.433266e+00 -3.600414e+00 -3.725795e+00 -3.746798e+00 -3.613036e+00 -3.463210e+00 -3.256184e+00 -3.176336e+00 -3.202213e+00 -3.402668e+00 -3.548963e+00 -3.751153e+00 -3.729899e+00 -3.633061e+00 -3.424606e+00 -3.469479e+00 -3.638489e+00 -3.742010e+00 -3.817612e+00 -3.858852e+00 -3.939967e+00 -3.955572e+00 -4.021695e+00 -4.027814e+00 -4.080031e+00 -4.081032e+00 -4.122698e+00 -4.119686e+00 -4.153915e+00 -4.147331e+00 -4.176474e+00 -4.166857e+00 -4.192333e+00 -4.180438e+00 -4.202907e+00 -4.189597e+00 -4.209209e+00 -4.195351e+00 -4.211903e+00 
-4.214537e+00 -4.228051e+00 -4.214645e+00 -4.223991e+00 -4.212749e+00 -4.216830e+00 -4.208301e+00 -4.205972e+00 -4.200285e+00 -4.190662e+00 -4.187064e+00 -4.170023e+00 -4.166158e+00 -4.142951e+00 -4.134033e+00 -4.107783e+00 -4.085906e+00 -4.061652e+00 -4.015079e+00 -3.998717e+00 -3.911816e+00 -3.915523e+00 -3.780829e+00 -3.757031e+00 -3.922148e+00 -3.779827e+00 -3.136499e+00 -2.024674e+00 -5.966365e-01 1.059825e+00 2.333109e+00 3.307026e+00 3.727125e+00 3.523227e+00 2.795966e+00 1.634686e+00 4.357709e-02 -1.336381e+00 -2.842564e+00 -3.675683e+00 -3.929748e+00 -3.803763e+00 -3.738590e+00 -3.896610e+00 -3.896413e+00 -4.000570e+00 -3.996912e+00 -4.066261e+00 -4.071210e+00 -4.117987e+00 -4.121615e+00 -4.156583e+00 -4.155121e+00 -4.184046e+00 -4.177374e+00 -4.203017e+00 -4.192239e+00 -4.215692e+00 -4.202159e+00 -4.223659e+00 -4.208637e+00 -4.227997e+00 -4.212592e+00 -4.229366e+00 
-4.231285e+00 -4.246774e+00 -4.232423e+00 -4.243835e+00 -4.232304e+00 -4.238352e+00 -4.230442e+00 -4.229671e+00 -4.225802e+00 -4.216938e+00 -4.216511e+00 -4.199159e+00 -4.199396e+00 -4.175100e+00 -4.169458e+00 -4.142742e+00 -4.119484e+00 -4.096917e+00 -4.038905e+00 -4.020206e+00 -3.909210e+00 -3.892043e+00 -3.895083e+00 -3.545497e+00 -2.440092e+00 5.697911e-01 4.531527e+00 7.663682e+00 9.815446e+00 1.140302e+01 1.233996e+01 1.282327e+01 1.304807e+01 1.290705e+01 1.264501e+01 1.182564e+01 1.051530e+01 8.645817e+00 5.347708e+00 1.956941e+00 -1.341405e+00 -3.335092e+00 -3.874197e+00 -3.878361e+00 -3.892332e+00 -4.018726e+00 -4.014384e+00 -4.092410e+00 -4.088963e+00 -4.143789e+00 -4.139554e+00 -4.180540e+00 -4.173629e+00 -4.206262e+00 -4.195802e+00 -4.223776e+00 -4.210058e+00 -4.235256e+00 -4.219241e+00 -4.242334e+00 -4.225167e+00 -4.246180e+00 -4.228962e+00 -4.247545e+00 
-4.248887e+00 -4.265414e+00 -4.249858e+00 -4.262437e+00 -4.250415e+00 -4.257428e+00 -4.250081e+00 -4.249597e+00 -4.247881e+00 -4.238013e+00 -4.242061e+00 -4.221758e+00 -4.229681e+00 -4.199991e+00 -4.206347e+00 -4.171867e+00 -4.166314e+00 -4.135863e+00 -4.098623e+00 -4.074036e+00 -3.962293e+00 -3.922884e+00 -2.897971e+00 1.353049e+00 5.559205e+00 9.211152e+00 1.206769e+01 1.307414e+01 1.349358e+01 1.338290e+01 1.336494e+01 1.319842e+01 1.322821e+01 1.317290e+01 1.335534e+01 1.334045e+01 1.351875e+01 1.323691e+01 1.243743e+01 1.059350e+01 7.136291e+00 2.947921e+00 -1.688862e+00 -3.705397e+00 -3.974803e+00 -4.094659e+00 -4.071766e+00 -4.139047e+00 -4.152132e+00 -4.187840e+00 -4.194297e+00 -4.221098e+00 -4.217853e+00 -4.241944e+00 -4.231137e+00 -4.254514e+00 -4.238730e+00 -4.261734e+00 -4.243175e+00 -4.265494e+00 -4.245868e+00 -4.266982e+00 -4.247617e+00 -4.266875e+00 
-4.265773e+00 -4.284713e+00 -4.267729e+00 -4.283031e+00 -4.270256e+00 -4.280076e+00 -4.273090e+00 -4.275030e+00 -4.275488e+00 -4.266909e+00 -4.275815e+00 -4.254821e+00 -4.270783e+00 -4.238516e+00 -4.254676e+00 -4.219677e+00 -4.219395e+00 -4.201593e+00 -4.149270e+00 -4.138756e+00 -3.653204e+00 -6.953284e-01 4.203925e+00 9.596844e+00 1.261763e+01 1.322334e+01 1.323246e+01 1.297023e+01 1.295442e+01 1.289816e+01 1.299120e+01 1.298109e+01 1.306124e+01 1.298435e+01 1.301715e+01 1.288499e+01 1.294969e+01 1.289376e+01 1.319361e+01 1.321760e+01 1.291460e+01 1.101717e+01 6.317502e+00 1.117587e+00 -3.066847e+00 -4.135408e+00 -4.119877e+00 -4.187246e+00 -4.176468e+00 -4.223767e+00 -4.215501e+00 -4.249855e+00 -4.239744e+00 -4.267024e+00 -4.252396e+00 -4.277308e+00 -4.258532e+00 -4.282776e+00 -4.261509e+00 -4.285213e+00 -4.263115e+00 -4.285903e+00 -4.264339e+00 -4.285631e+00 
-4.283836e+00 -4.304589e+00 -4.285765e+00 -4.303156e+00 -4.289179e+00 -4.301000e+00 -4.293852e+00 -4.297038e+00 -4.299146e+00 -4.289999e+00 -4.303561e+00 -4.278792e+00 -4.303965e+00 -4.263147e+00 -4.295705e+00 -4.244989e+00 -4.277151e+00 -4.238946e+00 -4.245128e+00 -3.502961e+00 3.705933e-01 7.090594e+00 1.165476e+01 1.301798e+01 1.313138e+01 1.299496e+01 1.301358e+01 1.313129e+01 1.325108e+01 1.323856e+01 1.329478e+01 1.322298e+01 1.327845e+01 1.321304e+01 1.329429e+01 1.321911e+01 1.325988e+01 1.311835e+01 1.302283e+01 1.291630e+01 1.306386e+01 1.314765e+01 1.246429e+01 9.307351e+00 2.596598e+00 -2.518600e+00 -4.100357e+00 -4.209224e+00 -4.273857e+00 -4.274690e+00 -4.286022e+00 -4.297754e+00 -4.290416e+00 -4.307706e+00 -4.290315e+00 -4.311191e+00 -4.288296e+00 -4.311231e+00 -4.285999e+00 -4.309711e+00 -4.284208e+00 -4.307778e+00 -4.283380e+00 -4.306027e+00 
-4.299994e+00 -4.323668e+00 -4.302682e+00 -4.323663e+00 -4.308003e+00 -4.323900e+00 -4.316112e+00 -4.323271e+00 -4.326971e+00 -4.320343e+00 -4.339842e+00 -4.313615e+00 -4.352052e+00 -4.302848e+00 -4.358225e+00 -4.295977e+00 -4.356782e+00 -4.345910e+00 -3.500001e+00 1.074533e+00 8.246913e+00 1.254819e+01 1.326624e+01 1.319932e+01 1.313207e+01 1.318232e+01 1.316568e+01 1.308234e+01 1.309189e+01 1.303360e+01 1.308542e+01 1.304149e+01 1.310039e+01 1.303847e+01 1.309028e+01 1.301791e+01 1.308650e+01 1.304765e+01 1.315240e+01 1.315749e+01 1.313999e+01 1.316711e+01 1.318651e+01 1.304626e+01 1.029916e+01 3.888269e+00 -2.323756e+00 -4.199785e+00 -4.287149e+00 -4.316136e+00 -4.306221e+00 -4.326970e+00 -4.316160e+00 -4.333484e+00 -4.314625e+00 -4.335021e+00 -4.309747e+00 -4.333060e+00 -4.305004e+00 -4.329798e+00 -4.301496e+00 -4.326722e+00 -4.299702e+00 -4.324605e+00 
-4.317505e+00 -4.343947e+00 -4.320321e+00 -4.344662e+00 -4.326650e+00 -4.346217e+00 -4.336720e+00 -4.347067e+00 -4.350648e+00 -4.345103e+00 -4.367748e+00 -4.338083e+00 -4.384524e+00 -4.325382e+00 -4.393096e+00 -4.304538e+00 -4.401568e+00 -3.896944e+00 4.299849e-01 8.314490e+00 1.277066e+01 1.326447e+01 1.321162e+01 1.321362e+01 1.320469e+01 1.316523e+01 1.318436e+01 1.319160e+01 1.325105e+01 1.323054e+01 1.328586e+01 1.323736e+01 1.329069e+01 1.323203e+01 1.328480e+01 1.321707e+01 1.324959e+01 1.317207e+01 1.317649e+01 1.313123e+01 1.317853e+01 1.320304e+01 1.319561e+01 1.323740e+01 1.318292e+01 1.078726e+01 3.378761e+00 -2.809317e+00 -4.447854e+00 -4.407817e+00 -4.385341e+00 -4.385237e+00 -4.364865e+00 -4.377561e+00 -4.349651e+00 -4.370045e+00 -4.337274e+00 -4.361696e+00 -4.327931e+00 -4.354127e+00 -4.321503e+00 -4.348426e+00 -4.317974e+00 -4.345043e+00 
-4.331939e+00 -4.361805e+00 -4.335045e+00 -4.364012e+00 -4.342779e+00 -4.368244e+00 -4.355855e+00 -4.373005e+00 -4.375369e+00 -4.375875e+00 -4.402367e+00 -4.372912e+00 -4.435553e+00 -4.357622e+00 -4.465770e+00 -4.309686e+00 -4.393493e+00 -8.478570e-01 7.408683e+00 1.271464e+01 1.328642e+01 1.333021e+01 1.329746e+01 1.327100e+01 1.324156e+01 1.322220e+01 1.321710e+01 1.316367e+01 1.318103e+01 1.312637e+01 1.316600e+01 1.311485e+01 1.316459e+01 1.311123e+01 1.316409e+01 1.311402e+01 1.317289e+01 1.314243e+01 1.320246e+01 1.319971e+01 1.322227e+01 1.324814e+01 1.325189e+01 1.332552e+01 1.325331e+01 1.323153e+01 9.927713e+00 1.861876e+00 -3.885279e+00 -4.478665e+00 -4.407178e+00 -4.406184e+00 -4.400606e+00 -4.401528e+00 -4.377560e+00 -4.394297e+00 -4.359471e+00 -4.383707e+00 -4.346616e+00 -4.373789e+00 -4.337925e+00 -4.366504e+00 -4.333002e+00 -4.362500e+00 
-4.347937e+00 -4.381536e+00 -4.351315e+00 -4.385182e+00 -4.360051e+00 -4.391626e+00 -4.374970e+00 -4.398818e+00 -4.397525e+00 -4.403018e+00 -4.429505e+00 -4.398694e+00 -4.469317e+00 -4.390156e+00 -4.489455e+00 -4.484242e+00 -2.635595e+00 4.916225e+00 1.211122e+01 1.349611e+01 1.327418e+01 1.337629e+01 1.329442e+01 1.330677e+01 1.328825e+01 1.326480e+01 1.328061e+01 1.325683e+01 1.329706e+01 1.326291e+01 1.331042e+01 1.326430e+01 1.331311e+01 1.326041e+01 1.330712e+01 1.325180e+01 1.329020e+01 1.323873e+01 1.326907e+01 1.323857e+01 1.327427e+01 1.327661e+01 1.329809e+01 1.332183e+01 1.334129e+01 1.337553e+01 1.301391e+01 8.336678e+00 -4.910015e-01 -4.434351e+00 -4.430135e+00 -4.453675e+00 -4.429014e+00 -4.442414e+00 -4.402523e+00 -4.427088e+00 -4.381384e+00 -4.410130e+00 -4.366065e+00 -4.396099e+00 -4.355530e+00 -4.386577e+00 -4.349447e+00 -4.381803e+00 
-4.359712e+00 -4.397036e+00 -4.362664e+00 -4.402118e+00 -4.371770e+00 -4.411430e+00 -4.388213e+00 -4.423319e+00 -4.414505e+00 -4.434578e+00 -4.455653e+00 -4.440298e+00 -4.520151e+00 -4.445627e+00 -4.609981e+00 -4.447787e+00 1.285076e+00 1.049333e+01 1.351529e+01 1.345633e+01 1.342195e+01 1.338932e+01 1.336699e+01 1.332696e+01 1.331947e+01 1.327450e+01 1.328363e+01 1.322812e+01 1.325254e+01 1.319562e+01 1.323366e+01 1.317972e+01 1.322665e+01 1.317654e+01 1.322854e+01 1.318579e+01 1.324101e+01 1.321182e+01 1.326536e+01 1.325290e+01 1.329489e+01 1.329732e+01 1.333480e+01 1.334145e+01 1.339289e+01 1.334153e+01 1.353910e+01 1.243324e+01 4.578117e+00 -3.169579e+00 -4.708752e+00 -4.412607e+00 -4.495706e+00 -4.466343e+00 -4.431126e+00 -4.453717e+00 -4.401688e+00 -4.432158e+00 -4.382974e+00 -4.414437e+00 -4.370114e+00 -4.402745e+00 -4.362318e+00 -4.397068e+00 
-4.373469e+00 -4.415194e+00 -4.376798e+00 -4.422648e+00 -4.386750e+00 -4.435584e+00 -4.404498e+00 -4.452127e+00 -4.433025e+00 -4.466727e+00 -4.480702e+00 -4.460505e+00 -4.575215e+00 -4.362699e+00 -4.819512e+00 -2.650996e+00 5.897141e+00 1.306260e+01 1.355824e+01 1.347769e+01 1.344218e+01 1.342509e+01 1.339987e+01 1.337064e+01 1.337287e+01 1.333121e+01 1.335425e+01 1.330989e+01 1.334731e+01 1.330019e+01 1.334472e+01 1.329482e+01 1.334214e+01 1.329153e+01 1.333889e+01 1.329047e+01 1.333552e+01 1.329379e+01 1.333659e+01 1.330856e+01 1.335112e+01 1.334198e+01 1.337771e+01 1.339025e+01 1.340807e+01 1.346554e+01 1.340463e+01 1.356654e+01 9.481719e+00 3.040334e-01 -4.761826e+00 -4.454677e+00 -4.516933e+00 -4.506174e+00 -4.445988e+00 -4.482479e+00 -4.417243e+00 -4.454023e+00 -4.398243e+00 -4.432800e+00 -4.384599e+00 -4.419700e+00 -4.376208e+00 -4.414033e+00 
-4.381955e+00 -4.427173e+00 -4.384000e+00 -4.435764e+00 -4.392898e+00 -4.451345e+00 -4.409583e+00 -4.472827e+00 -4.436710e+00 -4.496047e+00 -4.482770e+00 -4.503915e+00 -4.581139e+00 -4.423189e+00 -4.833132e+00 1.069377e+00 1.046583e+01 1.382056e+01 1.339952e+01 1.355656e+01 1.345725e+01 1.344298e+01 1.342916e+01 1.337263e+01 1.338505e+01 1.331961e+01 1.334387e+01 1.327704e+01 1.331006e+01 1.324656e+01 1.328766e+01 1.323009e+01 1.327791e+01 1.322749e+01 1.328039e+01 1.323876e+01 1.329511e+01 1.326416e+01 1.332134e+01 1.330145e+01 1.335633e+01 1.334644e+01 1.339902e+01 1.340118e+01 1.344302e+01 1.348748e+01 1.345145e+01 1.374758e+01 1.271053e+01 4.528705e+00 -4.060189e+00 -4.740173e+00 -4.449896e+00 -4.595024e+00 -4.446664e+00 -4.519184e+00 -4.430760e+00 -4.475175e+00 -4.412299e+00 -4.448298e+00 -4.396751e+00 -4.432717e+00 -4.386345e+00 -4.426005e+00 
-4.393055e+00 -4.442669e+00 -4.395607e+00 -4.454478e+00 -4.405170e+00 -4.475293e+00 -4.422090e+00 -4.505992e+00 -4.447252e+00 -4.548811e+00 -4.483056e+00 -4.611750e+00 -4.539189e+00 -4.731202e+00 -4.392263e+00 4.762771e+00 1.297833e+01 1.384035e+01 1.355408e+01 1.358184e+01 1.353924e+01 1.347952e+01 1.349166e+01 1.341915e+01 1.344775e+01 1.337729e+01 1.341382e+01 1.334904e+01 1.339120e+01 1.333145e+01 1.337750e+01 1.332184e+01 1.337044e+01 1.331898e+01 1.336916e+01 1.332293e+01 1.337425e+01 1.333501e+01 1.338811e+01 1.335756e+01 1.341425e+01 1.339183e+01 1.345473e+01 1.343550e+01 1.351490e+01 1.348646e+01 1.361697e+01 1.353188e+01 1.377827e+01 8.273139e+00 -2.204083e+00 -4.925193e+00 -4.383251e+00 -4.648196e+00 -4.445005e+00 -4.540966e+00 -4.441172e+00 -4.489301e+00 -4.424009e+00 -4.460719e+00 -4.408030e+00 -4.445227e+00 -4.397320e+00 -4.439542e+00 
-4.398032e+00 -4.450145e+00 -4.398581e+00 -4.462404e+00 -4.405886e+00 -4.484849e+00 -4.419465e+00 -4.519429e+00 -4.438107e+00 -4.571633e+00 -4.457402e+00 -4.661191e+00 -4.460306e+00 -4.872361e+00 -3.278421e+00 7.900245e+00 1.403788e+01 1.364008e+01 1.372457e+01 1.353573e+01 1.359244e+01 1.345949e+01 1.351030e+01 1.340019e+01 1.344564e+01 1.335100e+01 1.339346e+01 1.331079e+01 1.335372e+01 1.328164e+01 1.332772e+01 1.326564e+01 1.331609e+01 1.326365e+01 1.331872e+01 1.327582e+01 1.333533e+01 1.330164e+01 1.336525e+01 1.333902e+01 1.340754e+01 1.338453e+01 1.346350e+01 1.343439e+01 1.354182e+01 1.347832e+01 1.368093e+01 1.345647e+01 1.404512e+01 1.126766e+01 3.205243e-01 -4.959686e+00 -4.431791e+00 -4.661635e+00 -4.473352e+00 -4.552184e+00 -4.460590e+00 -4.499871e+00 -4.437833e+00 -4.470328e+00 -4.418009e+00 -4.453792e+00 -4.404505e+00 -4.447314e+00 
-4.406288e+00 -4.461903e+00 -4.407693e+00 -4.477460e+00 -4.416055e+00 -4.504759e+00 -4.430538e+00 -4.546699e+00 -4.449093e+00 -4.609980e+00 -4.465252e+00 -4.713658e+00 -4.457094e+00 -4.923751e+00 -1.792852e+00 1.015385e+01 1.431142e+01 1.360487e+01 1.387966e+01 1.355699e+01 1.369070e+01 1.349753e+01 1.358233e+01 1.344696e+01 1.350966e+01 1.340582e+01 1.345863e+01 1.337454e+01 1.342408e+01 1.335331e+01 1.340284e+01 1.334166e+01 1.339261e+01 1.333917e+01 1.339232e+01 1.334603e+01 1.340227e+01 1.336304e+01 1.342398e+01 1.339106e+01 1.345965e+01 1.342994e+01 1.351276e+01 1.347799e+01 1.359399e+01 1.353151e+01 1.373942e+01 1.357263e+01 1.406243e+01 1.304407e+01 2.414864e+00 -4.894144e+00 -4.549276e+00 -4.634762e+00 -4.511942e+00 -4.543940e+00 -4.477339e+00 -4.500462e+00 -4.447959e+00 -4.475171e+00 -4.426148e+00 -4.461098e+00 -4.412324e+00 -4.456677e+00 
-4.407772e+00 -4.464345e+00 -4.406920e+00 -4.479224e+00 -4.412662e+00 -4.506057e+00 -4.423634e+00 -4.547507e+00 -4.437396e+00 -4.608840e+00 -4.448989e+00 -4.702305e+00 -4.450081e+00 -4.864839e+00 -3.755528e-01 1.171482e+01 1.423517e+01 1.353953e+01 1.389352e+01 1.350927e+01 1.369668e+01 1.346226e+01 1.357485e+01 1.341403e+01 1.348978e+01 1.336884e+01 1.342690e+01 1.333042e+01 1.338163e+01 1.330229e+01 1.335279e+01 1.328690e+01 1.333990e+01 1.328541e+01 1.334252e+01 1.329816e+01 1.336040e+01 1.332484e+01 1.339323e+01 1.336422e+01 1.344083e+01 1.341475e+01 1.350456e+01 1.347669e+01 1.359083e+01 1.355614e+01 1.371760e+01 1.367426e+01 1.391494e+01 1.380011e+01 4.119737e+00 -4.561230e+00 -4.667504e+00 -4.558131e+00 -4.560449e+00 -4.528267e+00 -4.499969e+00 -4.500881e+00 -4.460044e+00 -4.479151e+00 -4.433109e+00 -4.465156e+00 -4.416179e+00 -4.459961e+00 
-4.412979e+00 -4.471676e+00 -4.413571e+00 -4.489285e+00 -4.421151e+00 -4.519653e+00 -4.434593e+00 -4.565397e+00 -4.452369e+00 -4.629763e+00 -4.473400e+00 -4.714133e+00 -4.505948e+00 -4.809986e+00 4.610729e-01 1.257424e+01 1.430630e+01 1.361330e+01 1.398688e+01 1.355800e+01 1.377153e+01 1.350667e+01 1.363518e+01 1.346012e+01 1.354488e+01 1.341951e+01 1.348315e+01 1.338713e+01 1.344189e+01 1.336453e+01 1.341669e+01 1.335214e+01 1.340480e+01 1.334990e+01 1.340486e+01 1.335811e+01 1.341699e+01 1.337757e+01 1.344237e+01 1.340918e+01 1.348251e+01 1.345391e+01 1.353913e+01 1.351532e+01 1.361458e+01 1.360798e+01 1.370710e+01 1.377838e+01 1.377019e+01 1.414248e+01 5.434848e+00 -4.145696e+00 -4.730811e+00 -4.460815e+00 -4.582446e+00 -4.498996e+00 -4.508026e+00 -4.492642e+00 -4.464146e+00 -4.478409e+00 -4.436635e+00 -4.467875e+00 -4.420294e+00 -4.465020e+00 
-4.411043e+00 -4.469103e+00 -4.409627e+00 -4.484877e+00 -4.414785e+00 -4.512942e+00 -4.425016e+00 -4.555321e+00 -4.438372e+00 -4.613343e+00 -4.453738e+00 -4.680782e+00 -4.481807e+00 -4.718087e+00 7.869146e-01 1.271205e+01 1.415497e+01 1.354823e+01 1.391919e+01 1.350758e+01 1.372851e+01 1.346388e+01 1.359785e+01 1.341850e+01 1.350576e+01 1.337465e+01 1.343875e+01 1.333686e+01 1.339129e+01 1.330913e+01 1.336137e+01 1.329400e+01 1.334802e+01 1.329271e+01 1.335064e+01 1.330568e+01 1.336895e+01 1.333281e+01 1.340281e+01 1.337341e+01 1.345208e+01 1.342724e+01 1.351720e+01 1.349831e+01 1.359949e+01 1.360546e+01 1.369443e+01 1.380927e+01 1.374383e+01 1.426436e+01 5.840699e+00 -4.044548e+00 -4.783801e+00 -4.453126e+00 -4.604814e+00 -4.500930e+00 -4.518503e+00 -4.495742e+00 -4.469270e+00 -4.480490e+00 -4.438753e+00 -4.468478e+00 -4.420262e+00 -4.464072e+00 