# vtk DataFile Version 2.0
Comment goes here
ASCII

DATASET STRUCTURED_POINTS
FIELD FieldData 1
TIME 1 1 double
1.00000000
DIMENSIONS    64   64   1

ORIGIN    0.000   0.000   0.000
SPACING   0.015625 0.015625   1.000

POINT_DATA   4096
SCALARS P double
LOOKUP_TABLE default

-4.230321e+00 -4.224909e+00 -4.225579e+00 -4.214556e+00 -4.209714e+00 -4.193173e+00 -4.182725e+00 -4.160792e+00 -4.144709e+00 -4.117606e+00 -4.095996e+00 -4.064135e+00 -4.037304e+00 -4.001403e+00 -3.969906e+00 -3.931092e+00 -3.895758e+00 -3.855619e+00 -3.817527e+00 -3.778075e+00 -3.738507e+00 -3.702005e+00 -3.662394e+00 -3.631080e+00 -3.592990e+00 -3.568754e+00 -3.533906e+00 -3.518050e+00 -3.488367e+00 -3.481587e+00 -3.459217e+00 -3.461722e+00 -3.448720e+00 -3.460142e+00 -3.457812e+00 -3.477022e+00 -3.485536e+00 -3.510938e+00 -3.529575e+00 -3.559653e+00 -3.587117e+00 -3.620620e+00 -3.655083e+00 -3.690857e+00 -3.730059e+00 -3.766886e+00 -3.808389e+00 -3.844934e+00 -3.886430e+00 -3.921304e+00 -3.960862e+00 -3.992762e+00 -4.028945e+00 -4.056775e+00 -4.088638e+00 -4.111584e+00 -4.138588e+00 -4.156121e+00 -4.178007e+00 -4.189849e+00 -4.206513e+00 -4.212567e+00 -4.223962e+00 -4.224247e+00 
-4.232189e+00 -4.226096e+00 -4.227356e+00 -4.215582e+00 -4.211217e+00 -4.193860e+00 -4.183732e+00 -4.160914e+00 -4.144930e+00 -4.116861e+00 -4.095038e+00 -4.062104e+00 -4.034637e+00 -3.997504e+00 -3.964818e+00 -3.924523e+00 -3.887307e+00 -3.845296e+00 -3.804498e+00 -3.762590e+00 -3.719385e+00 -3.679643e+00 -3.635419e+00 -3.599981e+00 -3.556414e+00 -3.527342e+00 -3.486608e+00 -3.465822e+00 -3.430794e+00 -3.420045e+00 -3.394051e+00 -3.394663e+00 -3.380617e+00 -3.392880e+00 -3.392250e+00 -3.414938e+00 -3.427319e+00 -3.458000e+00 -3.481599e+00 -3.517542e+00 -3.549974e+00 -3.588914e+00 -3.627689e+00 -3.667985e+00 -3.710638e+00 -3.750965e+00 -3.795141e+00 -3.834236e+00 -3.877812e+00 -3.914425e+00 -3.955646e+00 -3.988626e+00 -4.026187e+00 -4.054580e+00 -4.087625e+00 -4.110741e+00 -4.138784e+00 -4.156196e+00 -4.179011e+00 -4.190520e+00 -4.208023e+00 -4.213592e+00 -4.225746e+00 -4.225435e+00 
-4.236008e+00 -4.230549e+00 -4.231262e+00 -4.220175e+00 -4.215360e+00 -4.198733e+00 -4.188276e+00 -4.166213e+00 -4.150064e+00 -4.122751e+00 -4.100996e+00 -4.068798e+00 -4.041723e+00 -4.005308e+00 -3.973455e+00 -3.933910e+00 -3.898097e+00 -3.857004e+00 -3.818304e+00 -3.777724e+00 -3.737418e+00 -3.699740e+00 -3.659270e+00 -3.626922e+00 -3.587897e+00 -3.562967e+00 -3.527179e+00 -3.511070e+00 -3.480490e+00 -3.473827e+00 -3.450664e+00 -3.453531e+00 -3.439960e+00 -3.451894e+00 -3.449322e+00 -3.469101e+00 -3.477743e+00 -3.503712e+00 -3.522886e+00 -3.553552e+00 -3.581963e+00 -3.616115e+00 -3.651800e+00 -3.688263e+00 -3.728745e+00 -3.766266e+00 -3.808919e+00 -3.846125e+00 -3.888535e+00 -3.924000e+00 -3.964211e+00 -3.996600e+00 -4.033206e+00 -4.061409e+00 -4.093520e+00 -4.116722e+00 -4.143860e+00 -4.161546e+00 -4.183503e+00 -4.195416e+00 -4.212126e+00 -4.218192e+00 -4.229629e+00 -4.229889e+00 
-4.243740e+00 -4.237538e+00 -4.238909e+00 -4.227003e+00 -4.222736e+00 -4.205210e+00 -4.195130e+00 -4.172066e+00 -4.156040e+00 -4.127580e+00 -4.105581e+00 -4.072025e+00 -4.044203e+00 -4.006131e+00 -3.972873e+00 -3.931256e+00 -3.893214e+00 -3.849483e+00 -3.807572e+00 -3.763602e+00 -3.718952e+00 -3.676945e+00 -3.630873e+00 -3.593174e+00 -3.547266e+00 -3.516174e+00 -3.472603e+00 -3.450257e+00 -3.412269e+00 -3.400667e+00 -3.372262e+00 -3.372966e+00 -3.357625e+00 -3.371004e+00 -3.370442e+00 -3.395074e+00 -3.408757e+00 -3.441764e+00 -3.467518e+00 -3.505656e+00 -3.540665e+00 -3.581409e+00 -3.622850e+00 -3.664651e+00 -3.709797e+00 -3.751451e+00 -3.797751e+00 -3.838035e+00 -3.883264e+00 -3.920908e+00 -3.963304e+00 -3.997118e+00 -4.035438e+00 -4.064450e+00 -4.097937e+00 -4.121461e+00 -4.149738e+00 -4.167375e+00 -4.190312e+00 -4.201902e+00 -4.219486e+00 -4.225037e+00 -4.237274e+00 -4.236886e+00 
-4.253107e+00 -4.247500e+00 -4.248355e+00 -4.237088e+00 -4.232373e+00 -4.215512e+00 -4.205051e+00 -4.182637e+00 -4.166313e+00 -4.138419e+00 -4.116248e+00 -4.083090e+00 -4.055300e+00 -4.017377e+00 -3.984465e+00 -3.942725e+00 -3.905475e+00 -3.861459e+00 -3.820924e+00 -3.776825e+00 -3.734271e+00 -3.692859e+00 -3.649753e+00 -3.614085e+00 -3.572168e+00 -3.545039e+00 -3.506377e+00 -3.489570e+00 -3.456233e+00 -3.450063e+00 -3.424427e+00 -3.428495e+00 -3.413119e+00 -3.426682e+00 -3.423321e+00 -3.444844e+00 -3.453821e+00 -3.481455e+00 -3.502239e+00 -3.534639e+00 -3.566048e+00 -3.602185e+00 -3.641772e+00 -3.680358e+00 -3.724884e+00 -3.764544e+00 -3.810765e+00 -3.850005e+00 -3.895193e+00 -3.932465e+00 -3.974615e+00 -4.008489e+00 -4.046310e+00 -4.075630e+00 -4.108425e+00 -4.132381e+00 -4.159866e+00 -4.177989e+00 -4.200120e+00 -4.212219e+00 -4.229044e+00 -4.235123e+00 -4.246680e+00 -4.246847e+00 
-4.266889e+00 -4.260461e+00 -4.262077e+00 -4.249927e+00 -4.245890e+00 -4.228074e+00 -4.218136e+00 -4.194651e+00 -4.178589e+00 -4.149434e+00 -4.127127e+00 -4.092417e+00 -4.063925e+00 -4.024038e+00 -3.989662e+00 -3.945410e+00 -3.905734e+00 -3.858487e+00 -3.814366e+00 -3.766102e+00 -3.718596e+00 -3.671808e+00 -3.622088e+00 -3.579577e+00 -3.528944e+00 -3.493539e+00 -3.443884e+00 -3.418143e+00 -3.373572e+00 -3.360070e+00 -3.326333e+00 -3.327208e+00 -3.309056e+00 -3.324851e+00 -3.324501e+00 -3.353392e+00 -3.370015e+00 -3.408166e+00 -3.438679e+00 -3.481503e+00 -3.522051e+00 -3.566363e+00 -3.613460e+00 -3.658199e+00 -3.708564e+00 -3.752873e+00 -3.803551e+00 -3.846263e+00 -3.894829e+00 -3.934583e+00 -3.979279e+00 -4.014789e+00 -4.054528e+00 -4.084774e+00 -4.119033e+00 -4.143345e+00 -4.171989e+00 -4.190032e+00 -4.213137e+00 -4.224842e+00 -4.242542e+00 -4.248015e+00 -4.260400e+00 -4.259828e+00 
-4.281708e+00 -4.275835e+00 -4.276979e+00 -4.265434e+00 -4.260958e+00 -4.243784e+00 -4.233401e+00 -4.210531e+00 -4.193996e+00 -4.165308e+00 -4.142516e+00 -4.107943e+00 -4.079012e+00 -4.038724e+00 -4.004067e+00 -3.958700e+00 -3.919049e+00 -3.869974e+00 -3.826342e+00 -3.775892e+00 -3.729496e+00 -3.681082e+00 -3.633347e+00 -3.591277e+00 -3.544168e+00 -3.512875e+00 -3.469244e+00 -3.451561e+00 -3.413447e+00 -3.408682e+00 -3.378583e+00 -3.385063e+00 -3.366338e+00 -3.382934e+00 -3.378053e+00 -3.402596e+00 -3.411900e+00 -3.442128e+00 -3.465523e+00 -3.500672e+00 -3.537697e+00 -3.577351e+00 -3.624376e+00 -3.666725e+00 -3.718757e+00 -3.762193e+00 -3.814773e+00 -3.857591e+00 -3.907503e+00 -3.947921e+00 -3.993191e+00 -4.029602e+00 -4.069245e+00 -4.100421e+00 -4.134136e+00 -4.159294e+00 -4.187171e+00 -4.205938e+00 -4.228226e+00 -4.240546e+00 -4.257488e+00 -4.263507e+00 -4.275238e+00 -4.275195e+00 
-4.301693e+00 -4.294899e+00 -4.296952e+00 -4.284473e+00 -4.280883e+00 -4.262745e+00 -4.253138e+00 -4.229207e+00 -4.213216e+00 -4.183258e+00 -4.160612e+00 -4.124416e+00 -4.095022e+00 -4.052600e+00 -4.016619e+00 -3.968453e+00 -3.926356e+00 -3.873647e+00 -3.826222e+00 -3.771058e+00 -3.719321e+00 -3.664661e+00 -3.609650e+00 -3.559092e+00 -3.501490e+00 -3.458884e+00 -3.398918e+00 -3.367267e+00 -3.310731e+00 -3.293822e+00 -3.250728e+00 -3.251871e+00 -3.228960e+00 -3.248826e+00 -3.248948e+00 -3.285185e+00 -3.307162e+00 -3.354574e+00 -3.393572e+00 -3.444352e+00 -3.494251e+00 -3.543584e+00 -3.600040e+00 -3.648950e+00 -3.707793e+00 -3.756141e+00 -3.813734e+00 -3.860271e+00 -3.913899e+00 -3.956980e+00 -4.004967e+00 -4.043091e+00 -4.084684e+00 -4.116763e+00 -4.151878e+00 -4.177288e+00 -4.206217e+00 -4.224748e+00 -4.247911e+00 -4.259658e+00 -4.277419e+00 -4.282659e+00 -4.295228e+00 -4.294300e+00 
-4.321899e+00 -4.315599e+00 -4.317266e+00 -4.305376e+00 -4.301398e+00 -4.283947e+00 -4.273856e+00 -4.250634e+00 -4.233988e+00 -4.204581e+00 -4.181079e+00 -4.144975e+00 -4.114559e+00 -4.071353e+00 -4.034304e+00 -3.984018e+00 -3.940989e+00 -3.884510e+00 -3.836470e+00 -3.776076e+00 -3.724118e+00 -3.664005e+00 -3.609240e+00 -3.555839e+00 -3.500288e+00 -3.461611e+00 -3.410828e+00 -3.392965e+00 -3.347907e+00 -3.346852e+00 -3.309676e+00 -3.320410e+00 -3.296139e+00 -3.317752e+00 -3.310377e+00 -3.339405e+00 -3.348456e+00 -3.381591e+00 -3.407977e+00 -3.446407e+00 -3.493065e+00 -3.538504e+00 -3.598479e+00 -3.646690e+00 -3.711083e+00 -3.760315e+00 -3.822652e+00 -3.870934e+00 -3.927551e+00 -3.972680e+00 -4.021977e+00 -4.062064e+00 -4.103746e+00 -4.137488e+00 -4.171980e+00 -4.198682e+00 -4.226691e+00 -4.246166e+00 -4.268390e+00 -4.280811e+00 -4.297763e+00 -4.303513e+00 -4.315452e+00 -4.314980e+00 
-4.348143e+00 -4.340796e+00 -4.343572e+00 -4.330722e+00 -4.327926e+00 -4.309575e+00 -4.300642e+00 -4.276486e+00 -4.260838e+00 -4.230302e+00 -4.207445e+00 -4.169809e+00 -4.139421e+00 -4.094067e+00 -4.056081e+00 -4.002861e+00 -3.957560e+00 -3.897250e+00 -3.845337e+00 -3.780053e+00 -3.722649e+00 -3.656017e+00 -3.594458e+00 -3.531368e+00 -3.466035e+00 -3.412598e+00 -3.336214e+00 -3.294686e+00 -3.216509e+00 -3.193768e+00 -3.135604e+00 -3.137406e+00 -3.107264e+00 -3.133294e+00 -3.134118e+00 -3.181732e+00 -3.212937e+00 -3.276856e+00 -3.330492e+00 -3.394351e+00 -3.458621e+00 -3.512642e+00 -3.583321e+00 -3.637199e+00 -3.708661e+00 -3.762728e+00 -3.830209e+00 -3.882388e+00 -3.942803e+00 -3.990701e+00 -4.042670e+00 -4.084419e+00 -4.127869e+00 -4.162326e+00 -4.197949e+00 -4.224628e+00 -4.253409e+00 -4.272332e+00 -4.295202e+00 -4.306734e+00 -4.324372e+00 -4.329064e+00 -4.341819e+00 -4.340251e+00 
-4.373663e+00 -4.366690e+00 -4.369260e+00 -4.356984e+00 -4.353949e+00 -4.336412e+00 -4.327037e+00 -4.303871e+00 -4.287423e+00 -4.257834e+00 -4.233719e+00 -4.196550e+00 -4.164442e+00 -4.118377e+00 -4.078341e+00 -4.022288e+00 -3.974869e+00 -3.908603e+00 -3.854797e+00 -3.779902e+00 -3.720736e+00 -3.641873e+00 -3.577374e+00 -3.503926e+00 -3.433917e+00 -3.381270e+00 -3.322255e+00 -3.308063e+00 -3.254168e+00 -3.262717e+00 -3.214436e+00 -3.231484e+00 -3.198059e+00 -3.227864e+00 -3.217410e+00 -3.253021e+00 -3.259967e+00 -3.294306e+00 -3.320743e+00 -3.360867e+00 -3.424689e+00 -3.480817e+00 -3.563424e+00 -3.620054e+00 -3.703906e+00 -3.761485e+00 -3.837598e+00 -3.893814e+00 -3.958845e+00 -4.010609e+00 -4.064192e+00 -4.109185e+00 -4.152403e+00 -4.189327e+00 -4.223826e+00 -4.252215e+00 -4.279635e+00 -4.299635e+00 -4.321285e+00 -4.333439e+00 -4.350163e+00 -4.355216e+00 -4.367383e+00 -4.366103e+00 
-4.406039e+00 -4.397860e+00 -4.401803e+00 -4.388566e+00 -4.387112e+00 -4.368837e+00 -4.361146e+00 -4.337341e+00 -4.322544e+00 -4.292184e+00 -4.269488e+00 -4.231099e+00 -4.199860e+00 -4.151798e+00 -4.111579e+00 -4.052546e+00 -4.003252e+00 -3.933068e+00 -3.875210e+00 -3.795753e+00 -3.730731e+00 -3.646596e+00 -3.577412e+00 -3.495125e+00 -3.428988e+00 -3.361839e+00 -3.259598e+00 -3.200867e+00 -3.079534e+00 -3.046659e+00 -2.966776e+00 -2.971145e+00 -2.931295e+00 -2.965808e+00 -2.966509e+00 -3.029064e+00 -3.075931e+00 -3.171901e+00 -3.251982e+00 -3.338974e+00 -3.422739e+00 -3.472528e+00 -3.563749e+00 -3.623120e+00 -3.712590e+00 -3.775106e+00 -3.855975e+00 -3.916528e+00 -3.985268e+00 -4.039922e+00 -4.095937e+00 -4.142389e+00 -4.186924e+00 -4.224160e+00 -4.259238e+00 -4.287109e+00 -4.314777e+00 -4.333707e+00 -4.355603e+00 -4.366381e+00 -4.383559e+00 -4.387140e+00 -4.400070e+00 -4.397391e+00 
-4.436722e+00 -4.428688e+00 -4.432765e+00 -4.420048e+00 -4.418678e+00 -4.401413e+00 -4.393483e+00 -4.371175e+00 -4.355545e+00 -4.326970e+00 -4.302630e+00 -4.265791e+00 -4.232010e+00 -4.184255e+00 -4.140725e+00 -4.079121e+00 -4.026183e+00 -3.948331e+00 -3.887299e+00 -3.792756e+00 -3.725661e+00 -3.618015e+00 -3.543268e+00 -3.433916e+00 -3.332939e+00 -3.248698e+00 -3.187769e+00 -3.192901e+00 -3.129969e+00 -3.163758e+00 -3.096502e+00 -3.117241e+00 -3.067055e+00 -3.111665e+00 -3.102200e+00 -3.149675e+00 -3.150929e+00 -3.178649e+00 -3.186930e+00 -3.218110e+00 -3.317953e+00 -3.400687e+00 -3.524116e+00 -3.589631e+00 -3.702547e+00 -3.771529e+00 -3.865234e+00 -3.932899e+00 -4.006935e+00 -4.067770e+00 -4.124570e+00 -4.175716e+00 -4.218748e+00 -4.259219e+00 -4.292009e+00 -4.321869e+00 -4.347348e+00 -4.367302e+00 -4.387525e+00 -4.398669e+00 -4.414803e+00 -4.418404e+00 -4.430858e+00 -4.428140e+00 
-4.474817e+00 -4.465362e+00 -4.471153e+00 -4.457505e+00 -4.458219e+00 -4.440506e+00 -4.434925e+00 -4.412511e+00 -4.399391e+00 -4.370729e+00 -4.348913e+00 -4.311503e+00 -4.279941e+00 -4.230546e+00 -4.188213e+00 -4.123511e+00 -4.069534e+00 -3.987333e+00 -3.921690e+00 -3.823000e+00 -3.746818e+00 -3.638245e+00 -3.553927e+00 -3.439280e+00 -3.411954e+00 -3.338136e+00 -3.193311e+00 -3.099222e+00 -2.874471e+00 -2.822859e+00 -2.724495e+00 -2.740212e+00 -2.690647e+00 -2.735672e+00 -2.729251e+00 -2.799128e+00 -2.872136e+00 -3.041152e+00 -3.176693e+00 -3.314891e+00 -3.414740e+00 -3.413709e+00 -3.534709e+00 -3.606509e+00 -3.721196e+00 -3.797844e+00 -3.896061e+00 -3.969359e+00 -4.047296e+00 -4.111173e+00 -4.170041e+00 -4.222167e+00 -4.265694e+00 -4.305750e+00 -4.338146e+00 -4.366698e+00 -4.391560e+00 -4.409673e+00 -4.429522e+00 -4.438588e+00 -4.454841e+00 -4.456385e+00 -4.469530e+00 -4.464993e+00 
-4.510336e+00 -4.500606e+00 -4.507121e+00 -4.493825e+00 -4.495220e+00 -4.478718e+00 -4.473374e+00 -4.453170e+00 -4.439407e+00 -4.413902e+00 -4.390158e+00 -4.356396e+00 -4.321350e+00 -4.274901e+00 -4.227534e+00 -4.162692e+00 -4.102686e+00 -4.013382e+00 -3.942694e+00 -3.824557e+00 -3.750833e+00 -3.602841e+00 -3.536234e+00 -3.364398e+00 -3.166513e+00 -2.986707e+00 -2.965094e+00 -3.050804e+00 -2.982708e+00 -3.085836e+00 -2.981037e+00 -2.970910e+00 -2.881475e+00 -2.961764e+00 -2.981121e+00 -3.059942e+00 -3.055843e+00 -3.051047e+00 -2.956357e+00 -2.931647e+00 -3.135221e+00 -3.313018e+00 -3.511414e+00 -3.565627e+00 -3.716433e+00 -3.801953e+00 -3.914029e+00 -3.999066e+00 -4.079987e+00 -4.152975e+00 -4.209639e+00 -4.267908e+00 -4.307177e+00 -4.351013e+00 -4.379065e+00 -4.409591e+00 -4.431008e+00 -4.449772e+00 -4.467375e+00 -4.476239e+00 -4.491375e+00 -4.492313e+00 -4.505247e+00 -4.500098e+00 
-4.553325e+00 -4.541870e+00 -4.550539e+00 -4.536344e+00 -4.540428e+00 -4.523909e+00 -4.521682e+00 -4.502230e+00 -4.491984e+00 -4.467591e+00 -4.447805e+00 -4.414705e+00 -4.383939e+00 -4.336557e+00 -4.292918e+00 -4.224546e+00 -4.165625e+00 -4.070084e+00 -3.995381e+00 -3.870826e+00 -3.781403e+00 -3.645382e+00 -3.482315e+00 -3.286684e+00 -3.473110e+00 -3.458778e+00 -3.222696e+00 -2.957135e+00 -1.897621e+00 -9.968644e-01 -2.620739e-01 2.464804e-01 4.898075e-01 3.008813e-01 -1.142923e-01 -8.553895e-01 -1.768813e+00 -2.693510e+00 -3.137392e+00 -3.471673e+00 -3.526859e+00 -3.261352e+00 -3.441326e+00 -3.592612e+00 -3.741934e+00 -3.840677e+00 -3.959940e+00 -4.052253e+00 -4.138442e+00 -4.214191e+00 -4.272398e+00 -4.330592e+00 -4.368894e+00 -4.411096e+00 -4.437114e+00 -4.465170e+00 -4.484626e+00 -4.500477e+00 -4.516832e+00 -4.522660e+00 -4.537496e+00 -4.535581e+00 -4.549159e+00 -4.541612e+00 
-4.593055e+00 -4.580616e+00 -4.590949e+00 -4.576700e+00 -4.582456e+00 -4.567204e+00 -4.566118e+00 -4.549641e+00 -4.539353e+00 -4.519941e+00 -4.498218e+00 -4.472042e+00 -4.436798e+00 -4.397286e+00 -4.346200e+00 -4.283842e+00 -4.214518e+00 -4.118008e+00 -4.030455e+00 -3.890185e+00 -3.800707e+00 -3.606767e+00 -3.688097e+00 -3.405898e+00 -2.307386e+00 -5.729553e-01 2.429555e+00 4.814898e+00 6.926894e+00 8.839750e+00 9.756753e+00 1.040124e+01 1.055536e+01 1.046200e+01 9.959464e+00 9.023697e+00 7.413295e+00 5.363508e+00 2.784301e+00 -1.369371e-01 -2.051840e+00 -3.286178e+00 -3.673348e+00 -3.560103e+00 -3.739731e+00 -3.872762e+00 -3.994832e+00 -4.108503e+00 -4.189389e+00 -4.277587e+00 -4.327604e+00 -4.392967e+00 -4.422401e+00 -4.468438e+00 -4.487090e+00 -4.516625e+00 -4.531076e+00 -4.546734e+00 -4.560334e+00 -4.564950e+00 -4.578824e+00 -4.575283e+00 -4.589203e+00 -4.580134e+00 
-4.639575e+00 -4.624953e+00 -4.638021e+00 -4.622840e+00 -4.631983e+00 -4.617249e+00 -4.620061e+00 -4.605595e+00 -4.599780e+00 -4.583488e+00 -4.567245e+00 -4.544052e+00 -4.515890e+00 -4.476931e+00 -4.433902e+00 -4.367497e+00 -4.303992e+00 -4.197528e+00 -4.114150e+00 -3.947147e+00 -3.903829e+00 -3.731174e+00 -2.428369e+00 6.233545e-01 4.877746e+00 8.072724e+00 1.081293e+01 1.239169e+01 1.267693e+01 1.301781e+01 1.296919e+01 1.296910e+01 1.289667e+01 1.296176e+01 1.297834e+01 1.299244e+01 1.282510e+01 1.245349e+01 1.101068e+01 8.651543e+00 5.563895e+00 1.403797e+00 -1.984373e+00 -3.580023e+00 -3.848976e+00 -3.922524e+00 -4.064522e+00 -4.184759e+00 -4.273208e+00 -4.362110e+00 -4.412056e+00 -4.475367e+00 -4.501163e+00 -4.543797e+00 -4.557706e+00 -4.583248e+00 -4.593753e+00 -4.605116e+00 -4.616361e+00 -4.616692e+00 -4.629862e+00 -4.622414e+00 -4.637053e+00 -4.624795e+00 
-4.682474e+00 -4.665761e+00 -4.681872e+00 -4.665828e+00 -4.678159e+00 -4.664340e+00 -4.669829e+00 -4.658791e+00 -4.654226e+00 -4.644776e+00 -4.627166e+00 -4.615022e+00 -4.581538e+00 -4.557773e+00 -4.504442e+00 -4.455283e+00 -4.377206e+00 -4.285275e+00 -4.166996e+00 -4.013696e+00 -3.282280e+00 -1.448227e-01 4.928764e+00 9.213609e+00 1.198444e+01 1.288833e+01 1.297886e+01 1.293263e+01 1.267762e+01 1.258743e+01 1.249677e+01 1.250715e+01 1.246066e+01 1.249872e+01 1.249914e+01 1.255474e+01 1.267033e+01 1.283844e+01 1.297562e+01 1.296009e+01 1.226129e+01 9.904504e+00 5.795567e+00 8.201804e-01 -2.872496e+00 -4.015488e+00 -4.138978e+00 -4.285106e+00 -4.353113e+00 -4.453512e+00 -4.487019e+00 -4.557121e+00 -4.567697e+00 -4.613614e+00 -4.616449e+00 -4.642387e+00 -4.646463e+00 -4.656159e+00 -4.664613e+00 -4.662132e+00 -4.675002e+00 -4.664407e+00 -4.680393e+00 -4.665275e+00 
-4.730554e+00 -4.710945e+00 -4.730587e+00 -4.713362e+00 -4.729893e+00 -4.717062e+00 -4.727129e+00 -4.719729e+00 -4.720109e+00 -4.716980e+00 -4.705600e+00 -4.700764e+00 -4.677224e+00 -4.657009e+00 -4.618722e+00 -4.566830e+00 -4.500436e+00 -4.408278e+00 -4.228971e+00 -2.605320e+00 2.287003e+00 8.120970e+00 1.188789e+01 1.302067e+01 1.300344e+01 1.272325e+01 1.264163e+01 1.275569e+01 1.280040e+01 1.294410e+01 1.293125e+01 1.298997e+01 1.294970e+01 1.298576e+01 1.294603e+01 1.293375e+01 1.284328e+01 1.274623e+01 1.265591e+01 1.267937e+01 1.294954e+01 1.301438e+01 1.222250e+01 9.065314e+00 3.283232e+00 -1.937181e+00 -4.077300e+00 -4.404980e+00 -4.475518e+00 -4.569544e+00 -4.596646e+00 -4.661916e+00 -4.664385e+00 -4.705048e+00 -4.698861e+00 -4.719214e+00 -4.716626e+00 -4.720389e+00 -4.725336e+00 -4.716984e+00 -4.728998e+00 -4.713125e+00 -4.730212e+00 -4.710838e+00 
-4.775092e+00 -4.751818e+00 -4.776355e+00 -4.756878e+00 -4.778737e+00 -4.765701e+00 -4.780859e+00 -4.776408e+00 -4.780437e+00 -4.785113e+00 -4.773974e+00 -4.783875e+00 -4.754303e+00 -4.757798e+00 -4.705216e+00 -4.688074e+00 -4.622255e+00 -4.411833e+00 -2.132124e+00 3.836885e+00 1.027073e+01 1.294976e+01 1.315650e+01 1.295412e+01 1.293418e+01 1.298370e+01 1.294531e+01 1.294189e+01 1.283215e+01 1.281408e+01 1.273845e+01 1.275092e+01 1.270875e+01 1.274355e+01 1.273815e+01 1.279091e+01 1.283023e+01 1.290383e+01 1.294792e+01 1.296791e+01 1.294597e+01 1.291127e+01 1.311622e+01 1.306174e+01 1.100372e+01 5.326308e+00 -1.263443e+00 -4.270259e+00 -4.596842e+00 -4.687397e+00 -4.690823e+00 -4.761743e+00 -4.740645e+00 -4.784553e+00 -4.763689e+00 -4.782931e+00 -4.773627e+00 -4.773421e+00 -4.776713e+00 -4.763176e+00 -4.776429e+00 -4.755292e+00 -4.775333e+00 -4.751285e+00 
-4.822200e+00 -4.794947e+00 -4.824147e+00 -4.802752e+00 -4.829886e+00 -4.817785e+00 -4.838157e+00 -4.838901e+00 -4.847287e+00 -4.863003e+00 -4.855847e+00 -4.881317e+00 -4.861767e+00 -4.873241e+00 -4.851597e+00 -4.828474e+00 -4.645155e+00 -2.475905e+00 4.479777e+00 1.116392e+01 1.330078e+01 1.328678e+01 1.317536e+01 1.316523e+01 1.309283e+01 1.301979e+01 1.295736e+01 1.298761e+01 1.296553e+01 1.303274e+01 1.300568e+01 1.305657e+01 1.301985e+01 1.305350e+01 1.301329e+01 1.302407e+01 1.297881e+01 1.297286e+01 1.295699e+01 1.299119e+01 1.306741e+01 1.313019e+01 1.314428e+01 1.322393e+01 1.331406e+01 1.187446e+01 5.826762e+00 -1.526127e+00 -4.510261e+00 -4.842538e+00 -4.821622e+00 -4.886326e+00 -4.852693e+00 -4.890937e+00 -4.854403e+00 -4.867181e+00 -4.847927e+00 -4.839895e+00 -4.839085e+00 -4.817604e+00 -4.830586e+00 -4.802394e+00 -4.824502e+00 -4.794796e+00 
-4.866404e+00 -4.833483e+00 -4.869799e+00 -4.844082e+00 -4.879323e+00 -4.864745e+00 -4.893771e+00 -4.895220e+00 -4.911427e+00 -4.933572e+00 -4.930350e+00 -4.971188e+00 -4.945277e+00 -4.985894e+00 -4.924454e+00 -4.991566e+00 -3.353953e+00 3.459446e+00 1.116703e+01 1.345456e+01 1.343051e+01 1.337517e+01 1.328480e+01 1.320641e+01 1.313864e+01 1.312751e+01 1.306116e+01 1.305936e+01 1.298083e+01 1.298463e+01 1.292010e+01 1.294023e+01 1.289809e+01 1.293465e+01 1.291809e+01 1.296835e+01 1.297653e+01 1.303513e+01 1.305494e+01 1.310313e+01 1.312659e+01 1.317144e+01 1.325024e+01 1.333289e+01 1.337592e+01 1.343874e+01 1.202553e+01 5.328527e+00 -2.378582e+00 -4.957681e+00 -4.923288e+00 -5.001107e+00 -4.927064e+00 -4.972428e+00 -4.919757e+00 -4.929425e+00 -4.906413e+00 -4.890666e+00 -4.891576e+00 -4.861431e+00 -4.878429e+00 -4.842202e+00 -4.869491e+00 -4.832883e+00 
-4.909680e+00 -4.871284e+00 -4.913848e+00 -4.884637e+00 -4.926885e+00 -4.911720e+00 -4.947335e+00 -4.953877e+00 -4.973092e+00 -5.011971e+00 -5.002839e+00 -5.078365e+00 -5.045567e+00 -5.104452e+00 -5.190986e+00 -4.421053e+00 1.732649e+00 1.017789e+01 1.351963e+01 1.350955e+01 1.351861e+01 1.342241e+01 1.335322e+01 1.331163e+01 1.323759e+01 1.320957e+01 1.314427e+01 1.315774e+01 1.310989e+01 1.314825e+01 1.310651e+01 1.314803e+01 1.310793e+01 1.314531e+01 1.310852e+01 1.314011e+01 1.311139e+01 1.314370e+01 1.313851e+01 1.318838e+01 1.322202e+01 1.328618e+01 1.333619e+01 1.339681e+01 1.351332e+01 1.351873e+01 1.367731e+01 1.140140e+01 3.258055e+00 -3.931079e+00 -5.203964e+00 -5.130011e+00 -5.051914e+00 -5.093846e+00 -5.011191e+00 -5.015525e+00 -4.979651e+00 -4.953245e+00 -4.951591e+00 -4.910455e+00 -4.929327e+00 -4.883765e+00 -4.914947e+00 -4.870989e+00 
-4.951289e+00 -4.905074e+00 -4.956988e+00 -4.920831e+00 -4.974398e+00 -4.953074e+00 -5.002241e+00 -5.004589e+00 -5.038513e+00 -5.078868e+00 -5.082556e+00 -5.168863e+00 -5.153876e+00 -5.192717e+00 -5.390108e+00 -1.785748e+00 7.999926e+00 1.349764e+01 1.364141e+01 1.367034e+01 1.353927e+01 1.350878e+01 1.340444e+01 1.336710e+01 1.327823e+01 1.326494e+01 1.318426e+01 1.318589e+01 1.311027e+01 1.312351e+01 1.306052e+01 1.308750e+01 1.304201e+01 1.308318e+01 1.305694e+01 1.311102e+01 1.310276e+01 1.316685e+01 1.317207e+01 1.324164e+01 1.325914e+01 1.333790e+01 1.337537e+01 1.347488e+01 1.350753e+01 1.363366e+01 1.363196e+01 1.365502e+01 9.555034e+00 -8.714917e-03 -5.077054e+00 -5.227002e+00 -5.101939e+00 -5.159718e+00 -5.072320e+00 -5.067431e+00 -5.038179e+00 -4.996935e+00 -5.003699e+00 -4.948836e+00 -4.975706e+00 -4.918819e+00 -4.957692e+00 -4.904490e+00 
-4.987895e+00 -4.934571e+00 -4.994648e+00 -4.952430e+00 -5.015925e+00 -4.989630e+00 -5.049921e+00 -5.051152e+00 -5.091755e+00 -5.147929e+00 -5.126499e+00 -5.301307e+00 -5.108402e+00 -5.558900e+00 -4.345574e+00 3.462052e+00 1.222828e+01 1.404106e+01 1.375669e+01 1.373755e+01 1.362234e+01 1.357361e+01 1.347765e+01 1.344845e+01 1.336061e+01 1.334987e+01 1.327312e+01 1.328553e+01 1.322222e+01 1.325212e+01 1.319896e+01 1.323765e+01 1.319220e+01 1.323518e+01 1.319779e+01 1.324474e+01 1.321844e+01 1.327327e+01 1.326432e+01 1.333308e+01 1.334656e+01 1.342881e+01 1.346280e+01 1.355255e+01 1.361636e+01 1.371095e+01 1.378316e+01 1.394558e+01 1.326734e+01 5.635001e+00 -3.514101e+00 -5.757653e+00 -5.111862e+00 -5.320600e+00 -5.145779e+00 -5.142347e+00 -5.104887e+00 -5.045468e+00 -5.057302e+00 -4.986367e+00 -5.019765e+00 -4.950899e+00 -4.996289e+00 -4.934133e+00 
-5.024538e+00 -4.961767e+00 -5.032715e+00 -4.980942e+00 -5.058733e+00 -5.021298e+00 -5.101144e+00 -5.089328e+00 -5.154281e+00 -5.203115e+00 -5.194131e+00 -5.419755e+00 -5.123243e+00 -5.982542e+00 -1.714291e+00 8.801346e+00 1.415825e+01 1.382567e+01 1.389685e+01 1.375494e+01 1.367736e+01 1.362071e+01 1.351464e+01 1.348786e+01 1.338507e+01 1.337820e+01 1.328563e+01 1.329310e+01 1.321223e+01 1.323225e+01 1.316563e+01 1.319884e+01 1.314820e+01 1.319529e+01 1.316081e+01 1.322194e+01 1.320220e+01 1.327698e+01 1.326962e+01 1.335747e+01 1.336189e+01 1.346308e+01 1.348374e+01 1.359317e+01 1.364347e+01 1.372550e+01 1.387993e+01 1.378791e+01 1.434011e+01 1.026389e+01 -1.243133e-01 -5.798035e+00 -5.139822e+00 -5.361144e+00 -5.215203e+00 -5.178081e+00 -5.167307e+00 -5.079232e+00 -5.108621e+00 -5.017520e+00 -5.062876e+00 -4.979680e+00 -5.034592e+00 -4.961483e+00 
-5.051939e+00 -4.981203e+00 -5.061665e+00 -5.001169e+00 -5.092412e+00 -5.042729e+00 -5.143965e+00 -5.111418e+00 -5.214135e+00 -5.222490e+00 -5.289987e+00 -5.422318e+00 -5.316518e+00 -5.839983e+00 2.048257e+00 1.242045e+01 1.450732e+01 1.390689e+01 1.398768e+01 1.382669e+01 1.373981e+01 1.368727e+01 1.357507e+01 1.355829e+01 1.345284e+01 1.345410e+01 1.336301e+01 1.337969e+01 1.330394e+01 1.333384e+01 1.327142e+01 1.331159e+01 1.326037e+01 1.330934e+01 1.326848e+01 1.332716e+01 1.329725e+01 1.336888e+01 1.335139e+01 1.343998e+01 1.343568e+01 1.354282e+01 1.355232e+01 1.367454e+01 1.370895e+01 1.382708e+01 1.393278e+01 1.395497e+01 1.435012e+01 1.323211e+01 4.464127e+00 -4.941533e+00 -5.459535e+00 -5.281773e+00 -5.341402e+00 -5.181681e+00 -5.234407e+00 -5.098561e+00 -5.152812e+00 -5.038444e+00 -5.096537e+00 -4.999749e+00 -5.063369e+00 -4.980869e+00 
-5.081231e+00 -5.001032e+00 -5.092040e+00 -5.020822e+00 -5.127525e+00 -5.061899e+00 -5.189285e+00 -5.126681e+00 -5.280641e+00 -5.218654e+00 -5.407739e+00 -5.333158e+00 -5.591388e+00 -4.934470e+00 5.701928e+00 1.422467e+01 1.443577e+01 1.410777e+01 1.401075e+01 1.390982e+01 1.376528e+01 1.373449e+01 1.359281e+01 1.358509e+01 1.346015e+01 1.346470e+01 1.335831e+01 1.337332e+01 1.328451e+01 1.331067e+01 1.323868e+01 1.327745e+01 1.322145e+01 1.327436e+01 1.323300e+01 1.330162e+01 1.327276e+01 1.335895e+01 1.333967e+01 1.344595e+01 1.343322e+01 1.356319e+01 1.355471e+01 1.371201e+01 1.370750e+01 1.389396e+01 1.389841e+01 1.412531e+01 1.411789e+01 1.447182e+01 8.318578e+00 -3.526962e+00 -5.800249e+00 -5.244177e+00 -5.472127e+00 -5.197175e+00 -5.305606e+00 -5.123358e+00 -5.201102e+00 -5.062734e+00 -5.133652e+00 -5.021987e+00 -5.094767e+00 -5.001491e+00 
-5.097356e+00 -5.010549e+00 -5.109963e+00 -5.030135e+00 -5.149815e+00 -5.069530e+00 -5.220211e+00 -5.127928e+00 -5.328889e+00 -5.198687e+00 -5.494715e+00 -5.243391e+00 -5.780861e+00 -3.504311e+00 8.686033e+00 1.469125e+01 1.416047e+01 1.425354e+01 1.396647e+01 1.399069e+01 1.378186e+01 1.379513e+01 1.363085e+01 1.364289e+01 1.351087e+01 1.352654e+01 1.341987e+01 1.344317e+01 1.335704e+01 1.338997e+01 1.332037e+01 1.336349e+01 1.330728e+01 1.336138e+01 1.331643e+01 1.338370e+01 1.334860e+01 1.343302e+01 1.340601e+01 1.351310e+01 1.349049e+01 1.362734e+01 1.360214e+01 1.377988e+01 1.374011e+01 1.398285e+01 1.389939e+01 1.428018e+01 1.404227e+01 1.486536e+01 1.105566e+01 -1.778529e+00 -5.898696e+00 -5.246998e+00 -5.523799e+00 -5.197652e+00 -5.337996e+00 -5.128320e+00 -5.224259e+00 -5.070312e+00 -5.152071e+00 -5.030728e+00 -5.111054e+00 -5.010761e+00 
-5.117028e+00 -5.023370e+00 -5.129941e+00 -5.042244e+00 -5.172735e+00 -5.080656e+00 -5.249654e+00 -5.136380e+00 -5.370274e+00 -5.201251e+00 -5.555197e+00 -5.245392e+00 -5.860063e+00 -2.227637e+00 1.080987e+01 1.496825e+01 1.410987e+01 1.439856e+01 1.396108e+01 1.405987e+01 1.378641e+01 1.382680e+01 1.363145e+01 1.365269e+01 1.350262e+01 1.352038e+01 1.340106e+01 1.342318e+01 1.332731e+01 1.335827e+01 1.328174e+01 1.332456e+01 1.326452e+01 1.332170e+01 1.327557e+01 1.334986e+01 1.331462e+01 1.340965e+01 1.338120e+01 1.350239e+01 1.347465e+01 1.363092e+01 1.359420e+01 1.380173e+01 1.373854e+01 1.403092e+01 1.390377e+01 1.436151e+01 1.407050e+01 1.489823e+01 1.261663e+01 -3.640866e-01 -5.869613e+00 -5.339656e+00 -5.567873e+00 -5.239665e+00 -5.381656e+00 -5.154757e+00 -5.258391e+00 -5.090119e+00 -5.178525e+00 -5.046891e+00 -5.132809e+00 -5.024779e+00 
-5.120818e+00 -5.024394e+00 -5.135206e+00 -5.043164e+00 -5.180341e+00 -5.080356e+00 -5.261034e+00 -5.133200e+00 -5.386797e+00 -5.195082e+00 -5.572371e+00 -5.254853e+00 -5.834934e+00 -1.402405e+00 1.187484e+01 1.498780e+01 1.407702e+01 1.445108e+01 1.394565e+01 1.410113e+01 1.379416e+01 1.386267e+01 1.365503e+01 1.369065e+01 1.353824e+01 1.356458e+01 1.344728e+01 1.347553e+01 1.338313e+01 1.341861e+01 1.334493e+01 1.339019e+01 1.333104e+01 1.338813e+01 1.334053e+01 1.341248e+01 1.337384e+01 1.346545e+01 1.343225e+01 1.355064e+01 1.351634e+01 1.367244e+01 1.362474e+01 1.383743e+01 1.375369e+01 1.405844e+01 1.389605e+01 1.435587e+01 1.403727e+01 1.471911e+01 1.337474e+01 7.691372e-01 -5.650466e+00 -5.352340e+00 -5.514884e+00 -5.232645e+00 -5.369420e+00 -5.148197e+00 -5.256644e+00 -5.086691e+00 -5.179877e+00 -5.045841e+00 -5.135495e+00 -5.025146e+00 
-5.129227e+00 -5.030540e+00 -5.142931e+00 -5.048902e+00 -5.188297e+00 -5.086189e+00 -5.270008e+00 -5.139634e+00 -5.396865e+00 -5.203746e+00 -5.579082e+00 -5.274958e+00 -5.810052e+00 -1.122202e+00 1.213811e+01 1.493466e+01 1.405900e+01 1.446554e+01 1.394296e+01 1.411192e+01 1.378970e+01 1.386108e+01 1.364269e+01 1.367705e+01 1.351614e+01 1.353975e+01 1.341507e+01 1.344015e+01 1.334144e+01 1.337427e+01 1.329596e+01 1.334029e+01 1.327875e+01 1.333751e+01 1.328965e+01 1.336604e+01 1.332848e+01 1.342684e+01 1.339492e+01 1.352185e+01 1.348828e+01 1.365480e+01 1.360730e+01 1.383340e+01 1.375021e+01 1.407319e+01 1.391571e+01 1.439702e+01 1.410571e+01 1.478173e+01 1.377288e+01 1.166893e+00 -5.647634e+00 -5.421265e+00 -5.543679e+00 -5.266954e+00 -5.395127e+00 -5.168221e+00 -5.275360e+00 -5.099792e+00 -5.193342e+00 -5.055186e+00 -5.145691e+00 -5.032387e+00 