# vtk DataFile Version 2.0
Comment goes here
ASCII

DATASET STRUCTURED_POINTS
FIELD FieldData 1
TIME 1 1 double
1.80000000
DIMENSIONS    64   64   1

ORIGIN    0.000   0.000   0.000
SPACING   0.015625 0.015625   1.000

POINT_DATA   4096
SCALARS P double
LOOKUP_TABLE default

-3.880885e+00 -3.882717e+00 -3.881321e+00 -3.883494e+00 -3.880861e+00 -3.883324e+00 -3.879478e+00 -3.882142e+00 -3.877144e+00 -3.879885e+00 -3.873851e+00 -3.876518e+00 -3.869635e+00 -3.872047e+00 -3.864573e+00 -3.866515e+00 -3.858766e+00 -3.859984e+00 -3.852308e+00 -3.852516e+00 -3.845261e+00 -3.844187e+00 -3.837680e+00 -3.835157e+00 -3.829673e+00 -3.825756e+00 -3.821502e+00 -3.816569e+00 -3.813719e+00 -3.808494e+00 -3.807342e+00 -3.802767e+00 -3.803665e+00 -3.800434e+00 -3.803411e+00 -3.801560e+00 -3.806167e+00 -3.805247e+00 -3.810914e+00 -3.810492e+00 -3.816867e+00 -3.816690e+00 -3.823599e+00 -3.823513e+00 -3.830805e+00 -3.830744e+00 -3.838209e+00 -3.838180e+00 -3.845559e+00 -3.845604e+00 -3.852624e+00 -3.852780e+00 -3.859187e+00 -3.859477e+00 -3.865053e+00 -3.865497e+00 -3.870078e+00 -3.870708e+00 -3.874180e+00 -3.875042e+00 -3.877336e+00 -3.878483e+00 -3.879562e+00 -3.881040e+00 
-3.881716e+00 -3.883546e+00 -3.881094e+00 -3.883234e+00 -3.879414e+00 -3.881828e+00 -3.876644e+00 -3.879238e+00 -3.872727e+00 -3.875353e+00 -3.867610e+00 -3.870059e+00 -3.861264e+00 -3.863262e+00 -3.853691e+00 -3.854887e+00 -3.844906e+00 -3.844888e+00 -3.834931e+00 -3.833273e+00 -3.823800e+00 -3.820193e+00 -3.811663e+00 -3.806100e+00 -3.798959e+00 -3.791902e+00 -3.786607e+00 -3.778977e+00 -3.775965e+00 -3.768875e+00 -3.768414e+00 -3.762747e+00 -3.764901e+00 -3.761157e+00 -3.765848e+00 -3.764172e+00 -3.771174e+00 -3.771389e+00 -3.780253e+00 -3.781878e+00 -3.791945e+00 -3.794327e+00 -3.804917e+00 -3.807506e+00 -3.818025e+00 -3.820487e+00 -3.830474e+00 -3.832669e+00 -3.841806e+00 -3.843704e+00 -3.851785e+00 -3.853407e+00 -3.860301e+00 -3.861690e+00 -3.867314e+00 -3.868534e+00 -3.872838e+00 -3.873978e+00 -3.876938e+00 -3.878104e+00 -3.879713e+00 -3.881016e+00 -3.881274e+00 -3.882810e+00 
-3.881340e+00 -3.883178e+00 -3.881777e+00 -3.883974e+00 -3.881325e+00 -3.883832e+00 -3.879955e+00 -3.882686e+00 -3.877638e+00 -3.880470e+00 -3.874363e+00 -3.877145e+00 -3.870160e+00 -3.872706e+00 -3.865097e+00 -3.867183e+00 -3.859267e+00 -3.860621e+00 -3.852750e+00 -3.853065e+00 -3.845610e+00 -3.844584e+00 -3.837909e+00 -3.835347e+00 -3.829770e+00 -3.825703e+00 -3.821425e+00 -3.816219e+00 -3.813324e+00 -3.807736e+00 -3.806498e+00 -3.801636e+00 -3.802536e+00 -3.799259e+00 -3.802391e+00 -3.800667e+00 -3.805455e+00 -3.804656e+00 -3.810418e+00 -3.810064e+00 -3.816494e+00 -3.816382e+00 -3.823376e+00 -3.823346e+00 -3.830773e+00 -3.830740e+00 -3.838364e+00 -3.838335e+00 -3.845861e+00 -3.845886e+00 -3.853023e+00 -3.853148e+00 -3.859639e+00 -3.859894e+00 -3.865529e+00 -3.865937e+00 -3.870559e+00 -3.871155e+00 -3.874656e+00 -3.875489e+00 -3.877804e+00 -3.878930e+00 -3.880021e+00 -3.881491e+00 
-3.882805e+00 -3.884619e+00 -3.882171e+00 -3.884343e+00 -3.880514e+00 -3.883018e+00 -3.877799e+00 -3.880552e+00 -3.873964e+00 -3.876829e+00 -3.868947e+00 -3.871721e+00 -3.862704e+00 -3.865104e+00 -3.855210e+00 -3.856851e+00 -3.846445e+00 -3.846836e+00 -3.836370e+00 -3.834958e+00 -3.824946e+00 -3.821268e+00 -3.812228e+00 -3.806177e+00 -3.798600e+00 -3.790700e+00 -3.785098e+00 -3.776541e+00 -3.773470e+00 -3.765716e+00 -3.765373e+00 -3.759330e+00 -3.761595e+00 -3.757646e+00 -3.762422e+00 -3.760727e+00 -3.767964e+00 -3.768462e+00 -3.777821e+00 -3.779981e+00 -3.790660e+00 -3.793572e+00 -3.804778e+00 -3.807749e+00 -3.818794e+00 -3.821469e+00 -3.831837e+00 -3.834107e+00 -3.843475e+00 -3.845353e+00 -3.853546e+00 -3.855088e+00 -3.862021e+00 -3.863294e+00 -3.868921e+00 -3.870010e+00 -3.874306e+00 -3.875316e+00 -3.878271e+00 -3.879322e+00 -3.880933e+00 -3.882146e+00 -3.882411e+00 -3.883890e+00 
-3.882708e+00 -3.884559e+00 -3.883149e+00 -3.885411e+00 -3.882721e+00 -3.885356e+00 -3.881396e+00 -3.884325e+00 -3.879136e+00 -3.882243e+00 -3.875921e+00 -3.879052e+00 -3.871761e+00 -3.874718e+00 -3.866699e+00 -3.869227e+00 -3.860790e+00 -3.862569e+00 -3.854082e+00 -3.854731e+00 -3.846625e+00 -3.845760e+00 -3.838529e+00 -3.835868e+00 -3.830006e+00 -3.825497e+00 -3.821240e+00 -3.815185e+00 -3.812179e+00 -3.805342e+00 -3.803728e+00 -3.797850e+00 -3.798698e+00 -3.795347e+00 -3.799062e+00 -3.797897e+00 -3.803333e+00 -3.802935e+00 -3.808940e+00 -3.808750e+00 -3.815278e+00 -3.815376e+00 -3.822605e+00 -3.822768e+00 -3.830635e+00 -3.830698e+00 -3.838842e+00 -3.838811e+00 -3.846805e+00 -3.846769e+00 -3.854264e+00 -3.854297e+00 -3.861038e+00 -3.861186e+00 -3.866992e+00 -3.867289e+00 -3.872028e+00 -3.872517e+00 -3.876101e+00 -3.876843e+00 -3.879215e+00 -3.880276e+00 -3.881404e+00 -3.882843e+00 
-3.884962e+00 -3.886735e+00 -3.884306e+00 -3.886534e+00 -3.882702e+00 -3.885377e+00 -3.880108e+00 -3.883172e+00 -3.876452e+00 -3.879791e+00 -3.871653e+00 -3.875083e+00 -3.865634e+00 -3.868867e+00 -3.858322e+00 -3.860916e+00 -3.849621e+00 -3.850935e+00 -3.839382e+00 -3.838588e+00 -3.827409e+00 -3.823666e+00 -3.813536e+00 -3.806431e+00 -3.797904e+00 -3.788044e+00 -3.781708e+00 -3.770955e+00 -3.767849e+00 -3.758754e+00 -3.758859e+00 -3.752201e+00 -3.754723e+00 -3.750347e+00 -3.755098e+00 -3.753234e+00 -3.760820e+00 -3.761925e+00 -3.772420e+00 -3.775918e+00 -3.787944e+00 -3.792068e+00 -3.804611e+00 -3.808381e+00 -3.820556e+00 -3.823641e+00 -3.834797e+00 -3.837194e+00 -3.847007e+00 -3.848827e+00 -3.857212e+00 -3.858578e+00 -3.865554e+00 -3.866582e+00 -3.872189e+00 -3.873002e+00 -3.877269e+00 -3.878005e+00 -3.880943e+00 -3.881750e+00 -3.883363e+00 -3.884384e+00 -3.884667e+00 -3.886023e+00 
-3.884991e+00 -3.886856e+00 -3.885439e+00 -3.887805e+00 -3.885063e+00 -3.887906e+00 -3.883827e+00 -3.887086e+00 -3.881685e+00 -3.885253e+00 -3.878593e+00 -3.882316e+00 -3.874526e+00 -3.878188e+00 -3.869476e+00 -3.872773e+00 -3.863424e+00 -3.865952e+00 -3.856333e+00 -3.857590e+00 -3.848207e+00 -3.847667e+00 -3.839279e+00 -3.836515e+00 -3.830119e+00 -3.824929e+00 -3.821160e+00 -3.813671e+00 -3.810630e+00 -3.801045e+00 -3.798220e+00 -3.789935e+00 -3.790392e+00 -3.787243e+00 -3.792509e+00 -3.793084e+00 -3.800088e+00 -3.800455e+00 -3.806607e+00 -3.806411e+00 -3.812817e+00 -3.813348e+00 -3.820917e+00 -3.821504e+00 -3.830270e+00 -3.830521e+00 -3.839708e+00 -3.839670e+00 -3.848536e+00 -3.848390e+00 -3.856500e+00 -3.856377e+00 -3.863518e+00 -3.863483e+00 -3.869547e+00 -3.869648e+00 -3.874561e+00 -3.874858e+00 -3.878565e+00 -3.879139e+00 -3.881598e+00 -3.882536e+00 -3.883721e+00 -3.885098e+00 
-3.888143e+00 -3.889837e+00 -3.887461e+00 -3.889754e+00 -3.885955e+00 -3.888865e+00 -3.883571e+00 -3.887077e+00 -3.880220e+00 -3.884252e+00 -3.875790e+00 -3.880209e+00 -3.870159e+00 -3.874697e+00 -3.863175e+00 -3.867350e+00 -3.854630e+00 -3.857614e+00 -3.844223e+00 -3.844740e+00 -3.831550e+00 -3.827994e+00 -3.816064e+00 -3.807212e+00 -3.797110e+00 -3.783484e+00 -3.775492e+00 -3.760193e+00 -3.757317e+00 -3.746373e+00 -3.747985e+00 -3.741062e+00 -3.744112e+00 -3.739013e+00 -3.742941e+00 -3.740192e+00 -3.747799e+00 -3.749877e+00 -3.762731e+00 -3.769249e+00 -3.783608e+00 -3.789938e+00 -3.804766e+00 -3.809760e+00 -3.823838e+00 -3.827469e+00 -3.839867e+00 -3.842388e+00 -3.852814e+00 -3.854500e+00 -3.863071e+00 -3.864137e+00 -3.871087e+00 -3.871709e+00 -3.877227e+00 -3.877584e+00 -3.881773e+00 -3.882058e+00 -3.884957e+00 -3.885366e+00 -3.886979e+00 -3.887688e+00 -3.888002e+00 -3.889153e+00 
-3.888195e+00 -3.890060e+00 -3.888654e+00 -3.891151e+00 -3.888369e+00 -3.891494e+00 -3.887296e+00 -3.891010e+00 -3.885365e+00 -3.889584e+00 -3.882498e+00 -3.887074e+00 -3.878615e+00 -3.883308e+00 -3.873624e+00 -3.878066e+00 -3.867372e+00 -3.871037e+00 -3.859623e+00 -3.861829e+00 -3.850197e+00 -3.850209e+00 -3.839477e+00 -3.836704e+00 -3.829075e+00 -3.823129e+00 -3.821833e+00 -3.812875e+00 -3.810522e+00 -3.795063e+00 -3.788295e+00 -3.774047e+00 -3.772723e+00 -3.771099e+00 -3.780727e+00 -3.786657e+00 -3.797556e+00 -3.798880e+00 -3.803975e+00 -3.802441e+00 -3.807804e+00 -3.809458e+00 -3.817410e+00 -3.818919e+00 -3.829504e+00 -3.830054e+00 -3.841186e+00 -3.841096e+00 -3.851376e+00 -3.851060e+00 -3.860027e+00 -3.859686e+00 -3.867315e+00 -3.867019e+00 -3.873373e+00 -3.873178e+00 -3.878285e+00 -3.878280e+00 -3.882128e+00 -3.882433e+00 -3.884996e+00 -3.885732e+00 -3.886991e+00 -3.888257e+00 
-3.892279e+00 -3.893839e+00 -3.891577e+00 -3.893923e+00 -3.890235e+00 -3.893414e+00 -3.888182e+00 -3.892223e+00 -3.885303e+00 -3.890208e+00 -3.881450e+00 -3.887165e+00 -3.876434e+00 -3.882777e+00 -3.869999e+00 -3.876529e+00 -3.861764e+00 -3.867537e+00 -3.851231e+00 -3.854410e+00 -3.837865e+00 -3.835443e+00 -3.820871e+00 -3.809567e+00 -3.797467e+00 -3.777024e+00 -3.764481e+00 -3.738863e+00 -3.737172e+00 -3.725014e+00 -3.731545e+00 -3.726843e+00 -3.731135e+00 -3.724709e+00 -3.724754e+00 -3.718317e+00 -3.724086e+00 -3.727296e+00 -3.746099e+00 -3.760233e+00 -3.777968e+00 -3.787685e+00 -3.806130e+00 -3.812512e+00 -3.829627e+00 -3.833771e+00 -3.847920e+00 -3.850481e+00 -3.861542e+00 -3.862976e+00 -3.871551e+00 -3.872153e+00 -3.878877e+00 -3.878883e+00 -3.884169e+00 -3.883836e+00 -3.887872e+00 -3.887479e+00 -3.890310e+00 -3.890125e+00 -3.891739e+00 -3.891986e+00 -3.892352e+00 -3.893199e+00 
-3.892318e+00 -3.894153e+00 -3.892794e+00 -3.895430e+00 -3.892660e+00 -3.896120e+00 -3.891856e+00 -3.896138e+00 -3.890280e+00 -3.895339e+00 -3.887802e+00 -3.893511e+00 -3.884271e+00 -3.890369e+00 -3.879477e+00 -3.885510e+00 -3.873056e+00 -3.878330e+00 -3.864355e+00 -3.867916e+00 -3.852563e+00 -3.853369e+00 -3.837751e+00 -3.835141e+00 -3.822920e+00 -3.816223e+00 -3.824917e+00 -3.818168e+00 -3.820010e+00 -3.791131e+00 -3.771044e+00 -3.739935e+00 -3.731626e+00 -3.736409e+00 -3.759571e+00 -3.782568e+00 -3.804285e+00 -3.804825e+00 -3.802777e+00 -3.793858e+00 -3.795799e+00 -3.801875e+00 -3.810274e+00 -3.813644e+00 -3.828369e+00 -3.829174e+00 -3.843924e+00 -3.843620e+00 -3.855960e+00 -3.855405e+00 -3.865324e+00 -3.864727e+00 -3.872777e+00 -3.872138e+00 -3.878720e+00 -3.878096e+00 -3.883370e+00 -3.882910e+00 -3.886895e+00 -3.886789e+00 -3.889462e+00 -3.889885e+00 -3.891229e+00 -3.892314e+00 
-3.897266e+00 -3.898621e+00 -3.896563e+00 -3.898923e+00 -3.895476e+00 -3.898914e+00 -3.893912e+00 -3.898517e+00 -3.891726e+00 -3.897601e+00 -3.888727e+00 -3.895960e+00 -3.884659e+00 -3.893246e+00 -3.879119e+00 -3.888842e+00 -3.871431e+00 -3.881554e+00 -3.860702e+00 -3.869118e+00 -3.846569e+00 -3.848112e+00 -3.829912e+00 -3.816074e+00 -3.804657e+00 -3.773597e+00 -3.745397e+00 -3.691497e+00 -3.694358e+00 -3.687164e+00 -3.709383e+00 -3.716363e+00 -3.724122e+00 -3.714548e+00 -3.700425e+00 -3.680392e+00 -3.676901e+00 -3.679589e+00 -3.718068e+00 -3.755221e+00 -3.774564e+00 -3.786389e+00 -3.810607e+00 -3.817410e+00 -3.839480e+00 -3.843867e+00 -3.860258e+00 -3.862742e+00 -3.874080e+00 -3.875140e+00 -3.883174e+00 -3.883115e+00 -3.889200e+00 -3.888308e+00 -3.893138e+00 -3.891793e+00 -3.895585e+00 -3.894210e+00 -3.896954e+00 -3.895929e+00 -3.897557e+00 -3.897164e+00 -3.897615e+00 -3.898040e+00 
-3.897325e+00 -3.899082e+00 -3.897825e+00 -3.900586e+00 -3.897923e+00 -3.901742e+00 -3.897538e+00 -3.902469e+00 -3.896523e+00 -3.902595e+00 -3.894683e+00 -3.901827e+00 -3.891784e+00 -3.899733e+00 -3.887504e+00 -3.895690e+00 -3.881232e+00 -3.888725e+00 -3.871639e+00 -3.877052e+00 -3.856351e+00 -3.858067e+00 -3.833340e+00 -3.831140e+00 -3.796778e+00 -3.786229e+00 -3.833434e+00 -3.851875e+00 -3.872950e+00 -3.809897e+00 -3.742971e+00 -3.657896e+00 -3.623611e+00 -3.651729e+00 -3.719858e+00 -3.800322e+00 -3.856377e+00 -3.843880e+00 -3.806616e+00 -3.765554e+00 -3.761030e+00 -3.788685e+00 -3.797714e+00 -3.802799e+00 -3.828219e+00 -3.828304e+00 -3.849577e+00 -3.848657e+00 -3.863380e+00 -3.862603e+00 -3.873039e+00 -3.872240e+00 -3.880316e+00 -3.879255e+00 -3.885867e+00 -3.884620e+00 -3.889996e+00 -3.888852e+00 -3.892961e+00 -3.892244e+00 -3.895025e+00 -3.894991e+00 -3.896422e+00 -3.897236e+00 
-3.902933e+00 -3.904011e+00 -3.902263e+00 -3.904576e+00 -3.901550e+00 -3.905178e+00 -3.900668e+00 -3.905767e+00 -3.899441e+00 -3.906249e+00 -3.897653e+00 -3.906449e+00 -3.895016e+00 -3.906056e+00 -3.890994e+00 -3.904491e+00 -3.884364e+00 -3.900526e+00 -3.872921e+00 -3.891093e+00 -3.855999e+00 -3.869483e+00 -3.844540e+00 -3.829478e+00 -3.842492e+00 -3.807168e+00 -3.715707e+00 -3.567003e+00 -3.589069e+00 -3.618512e+00 -3.689365e+00 -3.738505e+00 -3.757184e+00 -3.737896e+00 -3.676594e+00 -3.610591e+00 -3.568003e+00 -3.556791e+00 -3.673940e+00 -3.794599e+00 -3.791668e+00 -3.783454e+00 -3.820265e+00 -3.824742e+00 -3.855383e+00 -3.860132e+00 -3.878742e+00 -3.881261e+00 -3.891521e+00 -3.892165e+00 -3.898441e+00 -3.897486e+00 -3.902243e+00 -3.900043e+00 -3.904156e+00 -3.901327e+00 -3.904838e+00 -3.902062e+00 -3.904756e+00 -3.902582e+00 -3.904265e+00 -3.903037e+00 -3.903612e+00 -3.903501e+00 
-3.903105e+00 -3.904727e+00 -3.903634e+00 -3.906476e+00 -3.904065e+00 -3.908208e+00 -3.904291e+00 -3.909876e+00 -3.904106e+00 -3.911307e+00 -3.903238e+00 -3.912135e+00 -3.901381e+00 -3.911746e+00 -3.898177e+00 -3.909283e+00 -3.892959e+00 -3.903585e+00 -3.883849e+00 -3.891993e+00 -3.865958e+00 -3.868277e+00 -3.839193e+00 -3.840566e+00 -3.693611e+00 -3.645004e+00 -3.840156e+00 -4.001090e+00 -4.104620e+00 -3.940508e+00 -3.701553e+00 -3.427576e+00 -3.297192e+00 -3.408791e+00 -3.632300e+00 -3.918190e+00 -4.101256e+00 -4.013429e+00 -3.808552e+00 -3.637990e+00 -3.644213e+00 -3.782699e+00 -3.789552e+00 -3.778243e+00 -3.834575e+00 -3.830719e+00 -3.861671e+00 -3.859780e+00 -3.875115e+00 -3.874598e+00 -3.883784e+00 -3.883071e+00 -3.890275e+00 -3.888679e+00 -3.895040e+00 -3.892830e+00 -3.898289e+00 -3.896098e+00 -3.900360e+00 -3.898753e+00 -3.901645e+00 -3.900977e+00 -3.902481e+00 -3.902925e+00 
-3.908993e+00 -3.909751e+00 -3.908417e+00 -3.910607e+00 -3.908216e+00 -3.911892e+00 -3.908225e+00 -3.913611e+00 -3.908236e+00 -3.915743e+00 -3.908042e+00 -3.918199e+00 -3.907472e+00 -3.920760e+00 -3.906171e+00 -3.923085e+00 -3.902400e+00 -3.924762e+00 -3.889904e+00 -3.923821e+00 -3.858537e+00 -3.907690e+00 -3.847331e+00 -3.822108e+00 -4.006634e+00 -4.009933e+00 -3.204034e+00 -1.478322e+00 1.364642e-01 1.811316e+00 3.342288e+00 4.415412e+00 4.831402e+00 4.469036e+00 3.481251e+00 1.915952e+00 3.373957e-01 -1.328812e+00 -3.128803e+00 -4.038981e+00 -3.905680e+00 -3.727513e+00 -3.822231e+00 -3.836338e+00 -3.880026e+00 -3.888531e+00 -3.906543e+00 -3.909689e+00 -3.915076e+00 -3.915344e+00 -3.917549e+00 -3.915365e+00 -3.917894e+00 -3.913718e+00 -3.917011e+00 -3.911962e+00 -3.915361e+00 -3.910602e+00 -3.913409e+00 -3.909725e+00 -3.911549e+00 -3.909306e+00 -3.910037e+00 -3.909318e+00 
-3.909401e+00 -3.910845e+00 -3.909960e+00 -3.912807e+00 -3.910840e+00 -3.915171e+00 -3.911896e+00 -3.917982e+00 -3.912856e+00 -3.921145e+00 -3.913351e+00 -3.924281e+00 -3.913001e+00 -3.926536e+00 -3.911556e+00 -3.926694e+00 -3.908914e+00 -3.924237e+00 -3.904309e+00 -3.918021e+00 -3.884044e+00 -3.882214e+00 -3.963271e+00 -3.879096e+00 -2.422728e+00 9.700304e-01 4.721088e+00 8.318989e+00 1.072234e+01 1.204648e+01 1.294613e+01 1.330729e+01 1.343436e+01 1.332169e+01 1.294398e+01 1.211792e+01 1.089242e+01 8.564131e+00 4.848453e+00 1.353968e+00 -1.725274e+00 -3.833140e+00 -3.883578e+00 -3.695855e+00 -3.855129e+00 -3.853938e+00 -3.885953e+00 -3.884862e+00 -3.891995e+00 -3.893602e+00 -3.897499e+00 -3.897539e+00 -3.902684e+00 -3.900211e+00 -3.906310e+00 -3.902453e+00 -3.908241e+00 -3.904410e+00 -3.908977e+00 -3.906114e+00 -3.909127e+00 -3.907655e+00 -3.909168e+00 -3.909177e+00 
-3.915001e+00 -3.915483e+00 -3.914606e+00 -3.916613e+00 -3.915070e+00 -3.918568e+00 -3.916170e+00 -3.921436e+00 -3.917636e+00 -3.925336e+00 -3.919261e+00 -3.930342e+00 -3.921212e+00 -3.936295e+00 -3.924432e+00 -3.942872e+00 -3.929537e+00 -3.951682e+00 -3.925741e+00 -3.972250e+00 -3.842781e+00 -3.956917e+00 -2.853320e+00 7.756408e-01 5.091295e+00 9.713844e+00 1.228979e+01 1.316874e+01 1.363903e+01 1.349906e+01 1.342587e+01 1.325963e+01 1.325133e+01 1.325972e+01 1.338577e+01 1.352030e+01 1.362901e+01 1.326785e+01 1.236462e+01 1.034555e+01 5.781406e+00 9.581282e-01 -2.340976e+00 -3.875683e+00 -3.931552e+00 -3.945658e+00 -3.951054e+00 -3.953516e+00 -3.945235e+00 -3.944886e+00 -3.939578e+00 -3.935628e+00 -3.935404e+00 -3.928052e+00 -3.931106e+00 -3.922632e+00 -3.926579e+00 -3.919038e+00 -3.922346e+00 -3.916789e+00 -3.918871e+00 -3.915543e+00 -3.916402e+00 -3.915127e+00 
-3.915752e+00 -3.917051e+00 -3.916341e+00 -3.919093e+00 -3.917777e+00 -3.922007e+00 -3.919890e+00 -3.926011e+00 -3.922328e+00 -3.931265e+00 -3.924566e+00 -3.937600e+00 -3.926044e+00 -3.943792e+00 -3.926523e+00 -3.947062e+00 -3.927041e+00 -3.948758e+00 -3.941876e+00 -3.978248e+00 -3.659327e+00 -1.629754e+00 3.434518e+00 9.543859e+00 1.237990e+01 1.325467e+01 1.335300e+01 1.302547e+01 1.304665e+01 1.302430e+01 1.314756e+01 1.317173e+01 1.323226e+01 1.317437e+01 1.313846e+01 1.302917e+01 1.304613e+01 1.300715e+01 1.334526e+01 1.328696e+01 1.233164e+01 9.804546e+00 4.257227e+00 -1.158096e+00 -3.634981e+00 -3.998813e+00 -3.934029e+00 -3.932203e+00 -3.909992e+00 -3.918057e+00 -3.912182e+00 -3.913832e+00 -3.917100e+00 -3.912551e+00 -3.919580e+00 -3.912639e+00 -3.919647e+00 -3.913240e+00 -3.918464e+00 -3.913941e+00 -3.917045e+00 -3.914697e+00 -3.916030e+00 -3.915660e+00 
-3.920329e+00 -3.920762e+00 -3.920246e+00 -3.922080e+00 -3.921539e+00 -3.924538e+00 -3.923911e+00 -3.928340e+00 -3.926938e+00 -3.933851e+00 -3.930137e+00 -3.941518e+00 -3.933630e+00 -3.951133e+00 -3.940661e+00 -3.960056e+00 -3.965065e+00 -3.965978e+00 -4.044745e+00 -3.787590e+00 -7.176228e-01 5.656162e+00 1.074015e+01 1.300316e+01 1.326544e+01 1.303357e+01 1.310262e+01 1.318295e+01 1.332840e+01 1.329996e+01 1.333750e+01 1.327506e+01 1.330302e+01 1.327457e+01 1.332430e+01 1.330088e+01 1.332237e+01 1.317740e+01 1.311710e+01 1.296464e+01 1.324350e+01 1.314929e+01 1.136903e+01 6.510792e+00 -1.990513e-01 -3.550978e+00 -4.023251e+00 -4.013752e+00 -3.975097e+00 -3.975164e+00 -3.960240e+00 -3.954371e+00 -3.953110e+00 -3.940295e+00 -3.945458e+00 -3.931514e+00 -3.937568e+00 -3.926228e+00 -3.930671e+00 -3.923039e+00 -3.925425e+00 -3.921220e+00 -3.922001e+00 -3.920484e+00 
-3.921485e+00 -3.922848e+00 -3.922100e+00 -3.924693e+00 -3.924178e+00 -3.927821e+00 -3.927554e+00 -3.932694e+00 -3.931814e+00 -3.940034e+00 -3.936158e+00 -3.950610e+00 -3.939465e+00 -3.963210e+00 -3.940390e+00 -3.967571e+00 -3.928895e+00 -3.941491e+00 -3.778905e+00 -8.674856e-01 6.275734e+00 1.199495e+01 1.313170e+01 1.313134e+01 1.307922e+01 1.318335e+01 1.319040e+01 1.311815e+01 1.314301e+01 1.310972e+01 1.316587e+01 1.314885e+01 1.318887e+01 1.314649e+01 1.315888e+01 1.310045e+01 1.313206e+01 1.309572e+01 1.317377e+01 1.315600e+01 1.306602e+01 1.309881e+01 1.318828e+01 1.212812e+01 7.014792e+00 7.810159e-03 -3.598244e+00 -3.926052e+00 -3.899373e+00 -3.931561e+00 -3.923260e+00 -3.926665e+00 -3.933482e+00 -3.923159e+00 -3.934948e+00 -3.922055e+00 -3.932127e+00 -3.921859e+00 -3.928163e+00 -3.921757e+00 -3.924677e+00 -3.921698e+00 -3.922366e+00 -3.921953e+00 
-3.924233e+00 -3.925156e+00 -3.924643e+00 -3.926486e+00 -3.926942e+00 -3.929082e+00 -3.930814e+00 -3.933218e+00 -3.935619e+00 -3.939619e+00 -3.939942e+00 -3.949804e+00 -3.941131e+00 -3.964971e+00 -3.936793e+00 -3.977029e+00 -3.939954e+00 -3.862631e+00 -1.219838e+00 5.960279e+00 1.183328e+01 1.322249e+01 1.314193e+01 1.322605e+01 1.321389e+01 1.317505e+01 1.320756e+01 1.321210e+01 1.327535e+01 1.325923e+01 1.330058e+01 1.326740e+01 1.329831e+01 1.326429e+01 1.329277e+01 1.324929e+01 1.326482e+01 1.319010e+01 1.319440e+01 1.313173e+01 1.318205e+01 1.318243e+01 1.307398e+01 1.310411e+01 1.224446e+01 7.070074e+00 -6.410320e-01 -3.897661e+00 -3.960406e+00 -3.984145e+00 -3.970460e+00 -3.964722e+00 -3.970036e+00 -3.946274e+00 -3.959314e+00 -3.936290e+00 -3.947126e+00 -3.930980e+00 -3.937146e+00 -3.927813e+00 -3.930152e+00 -3.925874e+00 -3.925966e+00 -3.924978e+00 
-3.925802e+00 -3.927768e+00 -3.926439e+00 -3.928986e+00 -3.929179e+00 -3.931658e+00 -3.933979e+00 -3.936367e+00 -3.940500e+00 -3.944613e+00 -3.947535e+00 -3.960023e+00 -3.952895e+00 -3.988067e+00 -3.962667e+00 -4.016155e+00 -4.073050e+00 -2.972320e+00 3.809150e+00 1.151105e+01 1.333458e+01 1.325339e+01 1.324339e+01 1.320610e+01 1.318851e+01 1.319522e+01 1.319695e+01 1.317001e+01 1.318733e+01 1.316192e+01 1.319272e+01 1.316895e+01 1.319751e+01 1.316475e+01 1.318630e+01 1.314829e+01 1.317472e+01 1.314407e+01 1.317640e+01 1.315423e+01 1.315676e+01 1.313589e+01 1.318422e+01 1.310329e+01 1.317359e+01 1.193136e+01 5.196262e+00 -1.880175e+00 -3.927923e+00 -3.952954e+00 -3.944538e+00 -3.935574e+00 -3.956577e+00 -3.929805e+00 -3.953459e+00 -3.929591e+00 -3.945044e+00 -3.929803e+00 -3.936997e+00 -3.929258e+00 -3.930995e+00 -3.928335e+00 -3.927292e+00 -3.927670e+00 
-3.926016e+00 -3.928411e+00 -3.927126e+00 -3.929523e+00 -3.930581e+00 -3.931736e+00 -3.936292e+00 -3.935094e+00 -3.943857e+00 -3.940352e+00 -3.951281e+00 -3.951046e+00 -3.951032e+00 -3.978415e+00 -3.920817e+00 -4.048050e+00 -3.620741e+00 1.609065e+00 9.539689e+00 1.300939e+01 1.322979e+01 1.323371e+01 1.322183e+01 1.324181e+01 1.323816e+01 1.323217e+01 1.324839e+01 1.324390e+01 1.327521e+01 1.326199e+01 1.329151e+01 1.326825e+01 1.329350e+01 1.326391e+01 1.328531e+01 1.324869e+01 1.326408e+01 1.322057e+01 1.323180e+01 1.319990e+01 1.321286e+01 1.321386e+01 1.319267e+01 1.323768e+01 1.323861e+01 1.334648e+01 1.078905e+01 2.521779e+00 -3.666990e+00 -4.101273e+00 -3.988091e+00 -3.970892e+00 -3.994388e+00 -3.941510e+00 -3.973109e+00 -3.935079e+00 -3.953566e+00 -3.932824e+00 -3.940117e+00 -3.930979e+00 -3.931843e+00 -3.929367e+00 -3.927435e+00 -3.928404e+00 
-3.927996e+00 -3.931563e+00 -3.928631e+00 -3.931697e+00 -3.931888e+00 -3.933041e+00 -3.938110e+00 -3.935626e+00 -3.947593e+00 -3.940474e+00 -3.958624e+00 -3.953995e+00 -3.957330e+00 -4.007364e+00 -3.871415e+00 -4.249195e+00 -2.225313e+00 6.559823e+00 1.301854e+01 1.324089e+01 1.329256e+01 1.325731e+01 1.326336e+01 1.324031e+01 1.323462e+01 1.322441e+01 1.322506e+01 1.320792e+01 1.321839e+01 1.319846e+01 1.321727e+01 1.319532e+01 1.321669e+01 1.319084e+01 1.321209e+01 1.318451e+01 1.320749e+01 1.318301e+01 1.320610e+01 1.318614e+01 1.320190e+01 1.318384e+01 1.320416e+01 1.317967e+01 1.318640e+01 1.316992e+01 1.281068e+01 7.360271e+00 -1.025083e+00 -4.023390e+00 -3.940255e+00 -3.929803e+00 -3.991504e+00 -3.928087e+00 -3.975457e+00 -3.935090e+00 -3.956504e+00 -3.937577e+00 -3.943150e+00 -3.936676e+00 -3.934720e+00 -3.934551e+00 -3.929926e+00 -3.932608e+00 
-3.925316e+00 -3.930604e+00 -3.927257e+00 -3.931360e+00 -3.931750e+00 -3.932831e+00 -3.939333e+00 -3.934132e+00 -3.951106e+00 -3.933909e+00 -3.968204e+00 -3.932451e+00 -3.986007e+00 -3.945917e+00 -3.959780e+00 -3.983136e+00 1.569892e+00 1.027378e+01 1.341208e+01 1.323329e+01 1.329726e+01 1.326846e+01 1.326887e+01 1.327305e+01 1.326803e+01 1.326876e+01 1.327359e+01 1.326966e+01 1.328434e+01 1.327338e+01 1.329182e+01 1.327358e+01 1.329243e+01 1.326849e+01 1.328623e+01 1.325808e+01 1.327348e+01 1.324424e+01 1.325713e+01 1.323463e+01 1.324518e+01 1.323489e+01 1.324230e+01 1.323089e+01 1.327836e+01 1.317890e+01 1.341569e+01 1.182933e+01 3.495714e+00 -3.624240e+00 -4.144537e+00 -3.869394e+00 -4.042103e+00 -3.909842e+00 -3.983129e+00 -3.927863e+00 -3.952770e+00 -3.933317e+00 -3.937271e+00 -3.933477e+00 -3.929398e+00 -3.932087e+00 -3.925873e+00 -3.930891e+00 
-3.927781e+00 -3.934335e+00 -3.928303e+00 -3.933212e+00 -3.931524e+00 -3.932869e+00 -3.938480e+00 -3.931741e+00 -3.952079e+00 -3.925828e+00 -3.980067e+00 -3.904468e+00 -4.042583e+00 -3.836746e+00 -4.191762e+00 -2.839276e+00 6.120265e+00 1.316866e+01 1.341246e+01 1.329903e+01 1.331603e+01 1.329327e+01 1.328206e+01 1.327313e+01 1.326126e+01 1.325344e+01 1.324878e+01 1.323638e+01 1.324049e+01 1.322437e+01 1.323609e+01 1.321731e+01 1.323394e+01 1.321306e+01 1.323270e+01 1.321147e+01 1.323335e+01 1.321443e+01 1.323646e+01 1.322214e+01 1.324003e+01 1.323378e+01 1.324393e+01 1.325608e+01 1.324381e+01 1.330510e+01 1.325442e+01 1.320507e+01 7.097085e+00 -2.092763e+00 -4.364414e+00 -3.801332e+00 -4.090595e+00 -3.913162e+00 -3.998308e+00 -3.943116e+00 -3.961175e+00 -3.947804e+00 -3.943754e+00 -3.944947e+00 -3.934602e+00 -3.940560e+00 -3.929748e+00 -3.936791e+00 
-3.922462e+00 -3.932099e+00 -3.925123e+00 -3.932686e+00 -3.929894e+00 -3.933955e+00 -3.937828e+00 -3.933955e+00 -3.952089e+00 -3.926878e+00 -3.982652e+00 -3.894298e+00 -4.062315e+00 -3.772758e+00 -4.309471e+00 -6.243662e-01 9.390893e+00 1.356210e+01 1.322232e+01 1.339944e+01 1.328230e+01 1.333947e+01 1.329028e+01 1.331374e+01 1.329071e+01 1.329847e+01 1.329113e+01 1.328956e+01 1.329313e+01 1.328426e+01 1.329447e+01 1.327949e+01 1.329329e+01 1.327364e+01 1.328910e+01 1.326662e+01 1.328243e+01 1.325994e+01 1.327470e+01 1.325690e+01 1.326724e+01 1.326129e+01 1.325674e+01 1.328127e+01 1.322701e+01 1.336076e+01 1.308770e+01 1.370517e+01 1.066449e+01 7.408295e-01 -4.342691e+00 -3.762825e+00 -4.046010e+00 -3.896322e+00 -3.962818e+00 -3.931502e+00 -3.936053e+00 -3.938395e+00 -3.926324e+00 -3.937359e+00 -3.922574e+00 -3.934783e+00 -3.921579e+00 -3.932804e+00 
-3.925669e+00 -3.936376e+00 -3.925819e+00 -3.934412e+00 -3.927740e+00 -3.933611e+00 -3.932078e+00 -3.932182e+00 -3.941416e+00 -3.925146e+00 -3.965519e+00 -3.897153e+00 -4.040699e+00 -3.798302e+00 -4.308786e+00 1.506256e+00 1.180702e+01 1.382022e+01 1.321395e+01 1.346632e+01 1.328949e+01 1.335480e+01 1.329122e+01 1.330678e+01 1.327843e+01 1.327758e+01 1.326534e+01 1.325657e+01 1.325525e+01 1.324192e+01 1.324914e+01 1.323304e+01 1.324674e+01 1.322912e+01 1.324779e+01 1.323019e+01 1.325290e+01 1.323721e+01 1.326254e+01 1.325101e+01 1.327610e+01 1.327412e+01 1.329228e+01 1.331854e+01 1.330517e+01 1.342448e+01 1.328681e+01 1.371794e+01 1.248794e+01 3.367665e+00 -4.109098e+00 -3.945778e+00 -4.009981e+00 -3.976554e+00 -3.963950e+00 -3.974918e+00 -3.945034e+00 -3.965087e+00 -3.935756e+00 -3.954815e+00 -3.930371e+00 -3.946364e+00 -3.927161e+00 -3.940243e+00 
-3.918732e+00 -3.933214e+00 -3.921733e+00 -3.934109e+00 -3.925490e+00 -3.936797e+00 -3.930121e+00 -3.940725e+00 -3.936142e+00 -3.944343e+00 -3.946734e+00 -3.943239e+00 -3.976087e+00 -3.926270e+00 -4.066558e+00 3.294503e+00 1.283225e+01 1.370344e+01 1.333224e+01 1.347953e+01 1.333512e+01 1.338825e+01 1.332299e+01 1.334486e+01 1.331194e+01 1.331951e+01 1.330435e+01 1.330315e+01 1.329996e+01 1.329221e+01 1.329729e+01 1.328422e+01 1.329483e+01 1.327765e+01 1.329203e+01 1.327221e+01 1.328949e+01 1.326873e+01 1.328854e+01 1.326849e+01 1.329038e+01 1.327267e+01 1.329564e+01 1.328457e+01 1.330609e+01 1.331478e+01 1.333089e+01 1.336442e+01 1.342051e+01 5.914577e+00 -3.446529e+00 -4.017342e+00 -3.836439e+00 -3.979229e+00 -3.883618e+00 -3.962437e+00 -3.901354e+00 -3.951270e+00 -3.909362e+00 -3.943181e+00 -3.913494e+00 -3.937608e+00 -3.916201e+00 -3.934335e+00 
-3.923150e+00 -3.937760e+00 -3.922756e+00 -3.935576e+00 -3.922500e+00 -3.935789e+00 -3.921133e+00 -3.938486e+00 -3.915554e+00 -3.944917e+00 -3.898128e+00 -3.960440e+00 -3.847224e+00 -4.005855e+00 -3.586190e+00 5.298965e+00 1.358353e+01 1.346668e+01 1.342616e+01 1.341838e+01 1.335506e+01 1.336289e+01 1.331850e+01 1.332195e+01 1.329422e+01 1.329129e+01 1.327648e+01 1.326825e+01 1.326416e+01 1.325214e+01 1.325702e+01 1.324249e+01 1.325472e+01 1.323880e+01 1.325732e+01 1.324122e+01 1.326575e+01 1.325051e+01 1.328160e+01 1.326734e+01 1.330717e+01 1.329251e+01 1.334804e+01 1.332858e+01 1.342017e+01 1.337861e+01 1.356896e+01 1.342058e+01 1.392912e+01 7.408507e+00 -3.042878e+00 -4.192502e+00 -3.841472e+00 -4.070375e+00 -3.898764e+00 -4.014241e+00 -3.918414e+00 -3.983025e+00 -3.924142e+00 -3.963597e+00 -3.924802e+00 -3.950892e+00 -3.923980e+00 -3.942657e+00 
-3.916095e+00 -3.933883e+00 -3.919115e+00 -3.935203e+00 -3.921526e+00 -3.939568e+00 -3.921848e+00 -3.948439e+00 -3.915467e+00 -3.966366e+00 -3.889469e+00 -4.007066e+00 -3.806338e+00 -4.111309e+00 -3.292087e+00 6.371632e+00 1.393327e+01 1.344048e+01 1.356336e+01 1.343791e+01 1.341756e+01 1.339446e+01 1.335660e+01 1.335708e+01 1.332779e+01 1.332946e+01 1.331245e+01 1.330988e+01 1.330396e+01 1.329636e+01 1.329913e+01 1.328685e+01 1.329602e+01 1.327984e+01 1.329394e+01 1.327488e+01 1.329366e+01 1.327243e+01 1.329716e+01 1.327272e+01 1.330753e+01 1.327454e+01 1.333165e+01 1.327454e+01 1.338893e+01 1.326345e+01 1.353005e+01 1.320226e+01 1.385686e+01 8.352962e+00 -2.476239e+00 -4.148334e+00 -3.732604e+00 -4.038549e+00 -3.830736e+00 -3.987408e+00 -3.876043e+00 -3.961672e+00 -3.896988e+00 -3.947582e+00 -3.907054e+00 -3.939526e+00 -3.912465e+00 -3.935252e+00 
-3.922035e+00 -3.938267e+00 -3.921370e+00 -3.936095e+00 -3.920011e+00 -3.936984e+00 -3.915635e+00 -3.942089e+00 -3.901964e+00 -3.955879e+00 -3.862416e+00 -3.992574e+00 -3.752285e+00 -4.093569e+00 -3.111571e+00 6.698384e+00 1.386750e+01 1.333230e+01 1.353421e+01 1.338234e+01 1.339478e+01 1.335853e+01 1.333381e+01 1.332511e+01 1.330134e+01 1.329539e+01 1.328069e+01 1.327200e+01 1.326724e+01 1.325550e+01 1.325970e+01 1.324566e+01 1.325747e+01 1.324206e+01 1.326063e+01 1.324487e+01 1.327033e+01 1.325481e+01 1.328878e+01 1.327234e+01 1.331975e+01 1.329699e+01 1.337214e+01 1.332651e+01 1.346924e+01 1.335033e+01 1.366377e+01 1.331795e+01 1.402714e+01 8.756198e+00 -2.313211e+00 -4.218634e+00 -3.777831e+00 -4.097034e+00 -3.870122e+00 -4.028748e+00 -3.906105e+00 -3.990127e+00 -3.918752e+00 -3.967057e+00 -3.922260e+00 -3.952613e+00 -3.922558e+00 -3.943537e+00 