# vtk DataFile Version 2.0
Comment goes here
ASCII

DATASET STRUCTURED_POINTS
FIELD FieldData 1
TIME 1 1 double
1.52000000
DIMENSIONS    64   64   1

ORIGIN    0.000   0.000   0.000
SPACING   0.015625 0.015625   1.000

POINT_DATA   4096
SCALARS P double
LOOKUP_TABLE default

-3.994951e+00 -3.997589e+00 -3.994782e+00 -3.997768e+00 -3.993406e+00 -3.996611e+00 -3.990757e+00 -3.994014e+00 -3.986746e+00 -3.989867e+00 -3.981294e+00 -3.984096e+00 -3.974374e+00 -3.976691e+00 -3.966033e+00 -3.967708e+00 -3.956388e+00 -3.957255e+00 -3.945602e+00 -3.945448e+00 -3.933861e+00 -3.932416e+00 -3.921391e+00 -3.918370e+00 -3.908530e+00 -3.903773e+00 -3.895858e+00 -3.889564e+00 -3.884393e+00 -3.877330e+00 -3.875784e+00 -3.869197e+00 -3.871915e+00 -3.866926e+00 -3.873739e+00 -3.870735e+00 -3.880538e+00 -3.879183e+00 -3.890517e+00 -3.890261e+00 -3.902031e+00 -3.902459e+00 -3.914094e+00 -3.914928e+00 -3.926171e+00 -3.927223e+00 -3.937937e+00 -3.939074e+00 -3.949126e+00 -3.950257e+00 -3.959471e+00 -3.960548e+00 -3.968709e+00 -3.969741e+00 -3.976625e+00 -3.977677e+00 -3.983093e+00 -3.984276e+00 -3.988089e+00 -3.989527e+00 -3.991670e+00 -3.993469e+00 -3.993928e+00 -3.996149e+00 
-3.994151e+00 -3.996795e+00 -3.993586e+00 -3.996594e+00 -3.991745e+00 -3.994993e+00 -3.988563e+00 -3.991878e+00 -3.983942e+00 -3.987125e+00 -3.977793e+00 -3.980635e+00 -3.970074e+00 -3.972365e+00 -3.960819e+00 -3.962340e+00 -3.950145e+00 -3.950656e+00 -3.938256e+00 -3.937489e+00 -3.925456e+00 -3.923165e+00 -3.912232e+00 -3.908304e+00 -3.899352e+00 -3.893950e+00 -3.887892e+00 -3.881486e+00 -3.879004e+00 -3.872206e+00 -3.873436e+00 -3.866782e+00 -3.871375e+00 -3.865377e+00 -3.872754e+00 -3.867987e+00 -3.877508e+00 -3.874497e+00 -3.885480e+00 -3.884412e+00 -3.896106e+00 -3.896681e+00 -3.908426e+00 -3.910079e+00 -3.921466e+00 -3.923618e+00 -3.934443e+00 -3.936653e+00 -3.946783e+00 -3.948789e+00 -3.958061e+00 -3.959767e+00 -3.967966e+00 -3.969401e+00 -3.976293e+00 -3.977575e+00 -3.982953e+00 -3.984249e+00 -3.987966e+00 -3.989446e+00 -3.991423e+00 -3.993230e+00 -3.993449e+00 -3.995668e+00 
-3.995595e+00 -3.998266e+00 -3.995426e+00 -3.998467e+00 -3.994064e+00 -3.997345e+00 -3.991444e+00 -3.994791e+00 -3.987471e+00 -3.990694e+00 -3.982060e+00 -3.984971e+00 -3.975173e+00 -3.977601e+00 -3.966839e+00 -3.968625e+00 -3.957156e+00 -3.958132e+00 -3.946267e+00 -3.946222e+00 -3.934346e+00 -3.933001e+00 -3.921622e+00 -3.918652e+00 -3.908434e+00 -3.903595e+00 -3.895315e+00 -3.888713e+00 -3.883190e+00 -3.875604e+00 -3.873826e+00 -3.866743e+00 -3.869568e+00 -3.864367e+00 -3.871670e+00 -3.868747e+00 -3.879180e+00 -3.878007e+00 -3.889815e+00 -3.889719e+00 -3.901755e+00 -3.902328e+00 -3.914115e+00 -3.915081e+00 -3.926433e+00 -3.927587e+00 -3.938394e+00 -3.939590e+00 -3.949730e+00 -3.950870e+00 -3.960170e+00 -3.961213e+00 -3.969455e+00 -3.970424e+00 -3.977380e+00 -3.978361e+00 -3.983833e+00 -3.984951e+00 -3.988802e+00 -3.990194e+00 -3.992352e+00 -3.994132e+00 -3.994586e+00 -3.996814e+00 
-3.995517e+00 -3.998217e+00 -3.994946e+00 -3.998063e+00 -3.993136e+00 -3.996537e+00 -3.990018e+00 -3.993526e+00 -3.985486e+00 -3.988898e+00 -3.979434e+00 -3.982538e+00 -3.971793e+00 -3.974369e+00 -3.962550e+00 -3.964364e+00 -3.951756e+00 -3.952537e+00 -3.939533e+00 -3.938955e+00 -3.926107e+00 -3.923838e+00 -3.911938e+00 -3.907794e+00 -3.897910e+00 -3.892079e+00 -3.885433e+00 -3.878564e+00 -3.876120e+00 -3.868980e+00 -3.870730e+00 -3.863689e+00 -3.868903e+00 -3.862292e+00 -3.870188e+00 -3.864728e+00 -3.874739e+00 -3.871360e+00 -3.882946e+00 -3.882083e+00 -3.894395e+00 -3.895543e+00 -3.907746e+00 -3.910053e+00 -3.921725e+00 -3.924395e+00 -3.935410e+00 -3.937910e+00 -3.948205e+00 -3.950284e+00 -3.959727e+00 -3.961346e+00 -3.969718e+00 -3.970978e+00 -3.978030e+00 -3.979112e+00 -3.984618e+00 -3.985735e+00 -3.989536e+00 -3.990887e+00 -3.992902e+00 -3.994642e+00 -3.994856e+00 -3.997072e+00 
-3.997525e+00 -4.000299e+00 -3.997355e+00 -4.000569e+00 -3.996042e+00 -3.999553e+00 -3.993515e+00 -3.997138e+00 -3.989668e+00 -3.993201e+00 -3.984393e+00 -3.987635e+00 -3.977617e+00 -3.980380e+00 -3.969316e+00 -3.971429e+00 -3.959523e+00 -3.960815e+00 -3.948312e+00 -3.948583e+00 -3.935817e+00 -3.934792e+00 -3.922297e+00 -3.919560e+00 -3.908157e+00 -3.903164e+00 -3.893786e+00 -3.886240e+00 -3.879555e+00 -3.870167e+00 -3.867485e+00 -3.858666e+00 -3.861774e+00 -3.855921e+00 -3.864933e+00 -3.862433e+00 -3.875044e+00 -3.874543e+00 -3.887826e+00 -3.888209e+00 -3.900956e+00 -3.901972e+00 -3.914156e+00 -3.915541e+00 -3.927204e+00 -3.928694e+00 -3.939784e+00 -3.941176e+00 -3.951585e+00 -3.952759e+00 -3.962321e+00 -3.963255e+00 -3.971750e+00 -3.972516e+00 -3.979697e+00 -3.980443e+00 -3.986092e+00 -3.987000e+00 -3.990964e+00 -3.992209e+00 -3.994411e+00 -3.996126e+00 -3.996562e+00 -3.998812e+00 
-3.998238e+00 -4.001059e+00 -3.997656e+00 -4.001000e+00 -3.995917e+00 -3.999635e+00 -3.992944e+00 -3.996848e+00 -3.988614e+00 -3.992493e+00 -3.982790e+00 -3.986421e+00 -3.975344e+00 -3.978498e+00 -3.966172e+00 -3.968589e+00 -3.955187e+00 -3.956541e+00 -3.942322e+00 -3.942172e+00 -3.927601e+00 -3.925416e+00 -3.911366e+00 -3.906745e+00 -3.894675e+00 -3.887801e+00 -3.879690e+00 -3.871742e+00 -3.869525e+00 -3.861877e+00 -3.865057e+00 -3.857432e+00 -3.864103e+00 -3.856120e+00 -3.864976e+00 -3.857708e+00 -3.868547e+00 -3.864183e+00 -3.877076e+00 -3.876831e+00 -3.890559e+00 -3.893160e+00 -3.906309e+00 -3.910163e+00 -3.922354e+00 -3.926175e+00 -3.937530e+00 -3.940629e+00 -3.951249e+00 -3.953434e+00 -3.963236e+00 -3.964621e+00 -3.973367e+00 -3.974217e+00 -3.981610e+00 -3.982244e+00 -3.988017e+00 -3.988744e+00 -3.992714e+00 -3.993790e+00 -3.995872e+00 -3.997475e+00 -3.997667e+00 -3.999882e+00 
-4.000733e+00 -4.003692e+00 -4.000564e+00 -4.004084e+00 -3.999346e+00 -4.003260e+00 -3.997000e+00 -4.001104e+00 -3.993399e+00 -3.997469e+00 -3.988397e+00 -3.992204e+00 -3.981855e+00 -3.985179e+00 -3.973655e+00 -3.976289e+00 -3.963695e+00 -3.965459e+00 -3.951899e+00 -3.952645e+00 -3.938308e+00 -3.937866e+00 -3.923295e+00 -3.921236e+00 -3.907654e+00 -3.902821e+00 -3.891740e+00 -3.882679e+00 -3.873697e+00 -3.860324e+00 -3.855171e+00 -3.842397e+00 -3.845759e+00 -3.838818e+00 -3.851684e+00 -3.850738e+00 -3.868227e+00 -3.869323e+00 -3.885154e+00 -3.886204e+00 -3.899678e+00 -3.901449e+00 -3.914070e+00 -3.916259e+00 -3.928417e+00 -3.930575e+00 -3.942164e+00 -3.943950e+00 -3.954839e+00 -3.956080e+00 -3.966115e+00 -3.966830e+00 -3.975778e+00 -3.976146e+00 -3.983728e+00 -3.984023e+00 -3.989979e+00 -3.990490e+00 -3.994640e+00 -3.995613e+00 -3.997876e+00 -3.999474e+00 -3.999861e+00 -4.002152e+00 
-4.002288e+00 -4.005314e+00 -4.001694e+00 -4.005404e+00 -4.000083e+00 -4.004301e+00 -3.997369e+00 -4.001887e+00 -3.993402e+00 -3.997996e+00 -3.987999e+00 -3.992436e+00 -3.980951e+00 -3.984986e+00 -3.972016e+00 -3.975370e+00 -3.960885e+00 -3.963178e+00 -3.947159e+00 -3.947799e+00 -3.930439e+00 -3.928536e+00 -3.910694e+00 -3.905281e+00 -3.888971e+00 -3.879904e+00 -3.868474e+00 -3.858243e+00 -3.856941e+00 -3.849294e+00 -3.856030e+00 -3.848373e+00 -3.857887e+00 -3.847420e+00 -3.857300e+00 -3.845823e+00 -3.857196e+00 -3.850433e+00 -3.865694e+00 -3.867257e+00 -3.883794e+00 -3.889498e+00 -3.904075e+00 -3.910914e+00 -3.923672e+00 -3.929501e+00 -3.941243e+00 -3.945244e+00 -3.956348e+00 -3.958561e+00 -3.968963e+00 -3.969827e+00 -3.979206e+00 -3.979285e+00 -3.987244e+00 -3.987087e+00 -3.993283e+00 -3.993350e+00 -3.997567e+00 -3.998196e+00 -4.000353e+00 -4.001743e+00 -4.001869e+00 -4.004095e+00 
-4.005201e+00 -4.008448e+00 -4.005034e+00 -4.009019e+00 -4.003979e+00 -4.008498e+00 -4.001942e+00 -4.006761e+00 -3.998765e+00 -4.003630e+00 -3.994246e+00 -3.998886e+00 -3.988152e+00 -3.992280e+00 -3.980213e+00 -3.983535e+00 -3.970093e+00 -3.972365e+00 -3.957391e+00 -3.958553e+00 -3.941854e+00 -3.942158e+00 -3.924063e+00 -3.923667e+00 -3.906294e+00 -3.903083e+00 -3.890732e+00 -3.880375e+00 -3.867516e+00 -3.845510e+00 -3.833528e+00 -3.811863e+00 -3.814658e+00 -3.806399e+00 -3.827778e+00 -3.831998e+00 -3.860365e+00 -3.864972e+00 -3.883940e+00 -3.884868e+00 -3.897576e+00 -3.900486e+00 -3.913285e+00 -3.916910e+00 -3.929879e+00 -3.933254e+00 -3.945666e+00 -3.948169e+00 -3.959805e+00 -3.961156e+00 -3.971918e+00 -3.972226e+00 -3.981880e+00 -3.981541e+00 -3.989742e+00 -3.989262e+00 -3.995677e+00 -3.995529e+00 -3.999935e+00 -4.000470e+00 -4.002787e+00 -4.004208e+00 -4.004482e+00 -4.006846e+00 
-4.007615e+00 -4.010963e+00 -4.007013e+00 -4.011260e+00 -4.005614e+00 -4.010542e+00 -4.003317e+00 -4.008689e+00 -3.999941e+00 -4.005516e+00 -3.995246e+00 -4.000779e+00 -3.988931e+00 -3.994161e+00 -3.980585e+00 -3.985217e+00 -3.969583e+00 -3.973235e+00 -3.954988e+00 -3.956987e+00 -3.935627e+00 -3.934589e+00 -3.910638e+00 -3.904329e+00 -3.880301e+00 -3.866611e+00 -3.846734e+00 -3.830780e+00 -3.832756e+00 -3.827982e+00 -3.843836e+00 -3.839197e+00 -3.854122e+00 -3.839332e+00 -3.848958e+00 -3.827252e+00 -3.836510e+00 -3.823481e+00 -3.843466e+00 -3.850899e+00 -3.873442e+00 -3.885358e+00 -3.901389e+00 -3.913595e+00 -3.926405e+00 -3.935337e+00 -3.947356e+00 -3.952424e+00 -3.964237e+00 -3.966135e+00 -3.977508e+00 -3.977295e+00 -3.987686e+00 -3.986412e+00 -3.995238e+00 -3.993793e+00 -4.000598e+00 -3.999649e+00 -4.004180e+00 -4.004153e+00 -4.006355e+00 -4.007461e+00 -4.007430e+00 -4.009704e+00 
-4.010874e+00 -4.014557e+00 -4.010716e+00 -4.015369e+00 -4.009919e+00 -4.015286e+00 -4.008372e+00 -4.014181e+00 -4.005876e+00 -4.011844e+00 -4.002161e+00 -4.007970e+00 -3.996881e+00 -4.002132e+00 -3.989562e+00 -3.993753e+00 -3.979489e+00 -3.982098e+00 -3.965582e+00 -3.966469e+00 -3.946624e+00 -3.947027e+00 -3.922967e+00 -3.926067e+00 -3.900551e+00 -3.903495e+00 -3.895559e+00 -3.888649e+00 -3.870565e+00 -3.828139e+00 -3.796005e+00 -3.753014e+00 -3.751839e+00 -3.743029e+00 -3.784080e+00 -3.804873e+00 -3.860206e+00 -3.872366e+00 -3.891235e+00 -3.886321e+00 -3.891808e+00 -3.897142e+00 -3.910172e+00 -3.916428e+00 -3.931272e+00 -3.936823e+00 -3.950615e+00 -3.954389e+00 -3.967083e+00 -3.968568e+00 -3.980368e+00 -3.979901e+00 -3.990597e+00 -3.989017e+00 -3.998132e+00 -3.996368e+00 -4.003429e+00 -4.002243e+00 -4.006966e+00 -4.006851e+00 -4.009174e+00 -4.010357e+00 -4.010398e+00 -4.012896e+00 
-4.014114e+00 -4.017959e+00 -4.013513e+00 -4.018519e+00 -4.012442e+00 -4.018326e+00 -4.010774e+00 -4.017266e+00 -4.008293e+00 -4.015141e+00 -4.004709e+00 -4.011654e+00 -3.999644e+00 -4.006385e+00 -3.992520e+00 -3.998727e+00 -3.982325e+00 -3.987698e+00 -3.967285e+00 -3.971413e+00 -3.944910e+00 -3.946287e+00 -3.913307e+00 -3.907790e+00 -3.871807e+00 -3.848750e+00 -3.803247e+00 -3.769197e+00 -3.783068e+00 -3.792296e+00 -3.832431e+00 -3.841479e+00 -3.866475e+00 -3.844057e+00 -3.848281e+00 -3.800306e+00 -3.796314e+00 -3.764841e+00 -3.796886e+00 -3.825654e+00 -3.863052e+00 -3.885425e+00 -3.899734e+00 -3.921112e+00 -3.931986e+00 -3.945034e+00 -3.957191e+00 -3.962975e+00 -3.976012e+00 -3.976715e+00 -3.989708e+00 -3.987411e+00 -3.999393e+00 -3.995853e+00 -4.005960e+00 -4.002525e+00 -4.010152e+00 -4.007730e+00 -4.012605e+00 -4.011699e+00 -4.013843e+00 -4.014627e+00 -4.014262e+00 -4.016677e+00 
-4.017629e+00 -4.021964e+00 -4.017489e+00 -4.023072e+00 -4.017076e+00 -4.023577e+00 -4.016256e+00 -4.023372e+00 -4.014789e+00 -4.022233e+00 -4.012341e+00 -4.019778e+00 -4.008468e+00 -4.015373e+00 -4.002495e+00 -4.007970e+00 -3.993213e+00 -3.995894e+00 -3.978319e+00 -3.976893e+00 -3.953997e+00 -3.950539e+00 -3.917552e+00 -3.926626e+00 -3.874462e+00 -3.894692e+00 -3.920262e+00 -3.943661e+00 -3.923638e+00 -3.824900e+00 -3.728483e+00 -3.631052e+00 -3.615561e+00 -3.610241e+00 -3.697635e+00 -3.771515e+00 -3.904985e+00 -3.934373e+00 -3.929703e+00 -3.890565e+00 -3.866973e+00 -3.883492e+00 -3.902348e+00 -3.912914e+00 -3.932920e+00 -3.942195e+00 -3.957937e+00 -3.963916e+00 -3.977813e+00 -3.979320e+00 -3.992500e+00 -3.990478e+00 -4.002698e+00 -3.998926e+00 -4.009379e+00 -4.005530e+00 -4.013480e+00 -4.010734e+00 -4.015807e+00 -4.014798e+00 -4.016996e+00 -4.017920e+00 -4.017508e+00 -4.020267e+00 
-4.021573e+00 -4.026185e+00 -4.020996e+00 -4.027052e+00 -4.020398e+00 -4.027525e+00 -4.019619e+00 -4.027521e+00 -4.018408e+00 -4.026848e+00 -4.016449e+00 -4.025177e+00 -4.013352e+00 -4.021975e+00 -4.008498e+00 -4.016462e+00 -4.000506e+00 -4.007517e+00 -3.986270e+00 -3.993005e+00 -3.960749e+00 -3.967870e+00 -3.922400e+00 -3.927710e+00 -3.887225e+00 -3.849534e+00 -3.711596e+00 -3.609756e+00 -3.670755e+00 -3.735079e+00 -3.840561e+00 -3.895613e+00 -3.937071e+00 -3.900718e+00 -3.885950e+00 -3.768697e+00 -3.709362e+00 -3.615375e+00 -3.686570e+00 -3.800911e+00 -3.881181e+00 -3.908311e+00 -3.900672e+00 -3.938287e+00 -3.942960e+00 -3.959532e+00 -3.972822e+00 -3.977612e+00 -3.993205e+00 -3.990892e+00 -4.006620e+00 -4.000554e+00 -4.014988e+00 -4.007814e+00 -4.019753e+00 -4.013373e+00 -4.022048e+00 -4.017617e+00 -4.022785e+00 -4.020809e+00 -4.022664e+00 -4.023179e+00 -4.022165e+00 -4.024921e+00 
-4.025201e+00 -4.030516e+00 -4.025097e+00 -4.031946e+00 -4.025221e+00 -4.033175e+00 -4.025412e+00 -4.034155e+00 -4.025395e+00 -4.034716e+00 -4.024811e+00 -4.034489e+00 -4.023202e+00 -4.032722e+00 -4.019867e+00 -4.027889e+00 -4.013284e+00 -4.016781e+00 -3.999686e+00 -3.992603e+00 -3.970222e+00 -3.947838e+00 -3.915776e+00 -3.931155e+00 -3.757253e+00 -3.806791e+00 -3.994398e+00 -4.183122e+00 -4.187732e+00 -3.891075e+00 -3.492148e+00 -3.092326e+00 -2.931834e+00 -2.998081e+00 -3.349862e+00 -3.706955e+00 -4.135669e+00 -4.218248e+00 -4.064975e+00 -3.860198e+00 -3.744704e+00 -3.832734e+00 -3.897921e+00 -3.907553e+00 -3.938438e+00 -3.953932e+00 -3.969792e+00 -3.979649e+00 -3.994065e+00 -3.994943e+00 -4.009906e+00 -4.004622e+00 -4.019156e+00 -4.011488e+00 -4.023950e+00 -4.016789e+00 -4.025951e+00 -4.020974e+00 -4.026370e+00 -4.024253e+00 -4.026056e+00 -4.026812e+00 -4.025562e+00 -4.028843e+00 
-4.029605e+00 -4.035398e+00 -4.029095e+00 -4.036574e+00 -4.029139e+00 -4.037819e+00 -4.029536e+00 -4.039116e+00 -4.029999e+00 -4.040351e+00 -4.030219e+00 -4.041230e+00 -4.029948e+00 -4.041110e+00 -4.028918e+00 -4.038877e+00 -4.025913e+00 -4.033294e+00 -4.015893e+00 -4.023230e+00 -3.986305e+00 -4.001992e+00 -3.927205e+00 -3.983476e+00 -4.045837e+00 -3.984397e+00 -2.666635e+00 -6.525265e-01 1.227412e+00 3.275431e+00 5.035909e+00 6.274122e+00 6.732928e+00 6.514641e+00 5.615927e+00 4.079201e+00 1.900151e+00 5.730857e-02 -2.086896e+00 -3.704231e+00 -4.081099e+00 -4.011432e+00 -3.878428e+00 -3.962790e+00 -3.965152e+00 -3.976314e+00 -3.997533e+00 -3.997066e+00 -4.017800e+00 -4.009406e+00 -4.029443e+00 -4.017027e+00 -4.035065e+00 -4.022311e+00 -4.036768e+00 -4.026238e+00 -4.036148e+00 -4.029168e+00 -4.034419e+00 -4.031324e+00 -4.032441e+00 -4.032935e+00 -4.030746e+00 -4.034228e+00 
-4.033111e+00 -4.039906e+00 -4.033074e+00 -4.041613e+00 -4.033894e+00 -4.043618e+00 -4.035384e+00 -4.045994e+00 -4.037255e+00 -4.048744e+00 -4.039167e+00 -4.051732e+00 -4.040827e+00 -4.054457e+00 -4.041952e+00 -4.055564e+00 -4.041638e+00 -4.051452e+00 -4.036481e+00 -4.027101e+00 -4.008792e+00 -3.916759e+00 -4.021935e+00 -3.934163e+00 -1.889014e+00 1.638130e+00 5.721963e+00 9.258448e+00 1.136676e+01 1.261805e+01 1.329024e+01 1.358465e+01 1.367745e+01 1.362289e+01 1.348224e+01 1.296128e+01 1.183912e+01 1.023498e+01 6.873213e+00 2.993476e+00 -5.381038e-01 -3.231094e+00 -3.989218e+00 -3.929838e+00 -3.952377e+00 -3.985956e+00 -3.988623e+00 -4.005980e+00 -4.019282e+00 -4.016977e+00 -4.034823e+00 -4.022539e+00 -4.040951e+00 -4.026429e+00 -4.042030e+00 -4.029813e+00 -4.040603e+00 -4.032691e+00 -4.038228e+00 -4.034987e+00 -4.035865e+00 -4.036806e+00 -4.034068e+00 -4.038367e+00 
-4.037577e+00 -4.045172e+00 -4.037205e+00 -4.046582e+00 -4.038067e+00 -4.048592e+00 -4.039917e+00 -4.051317e+00 -4.042412e+00 -4.054860e+00 -4.045237e+00 -4.059199e+00 -4.048431e+00 -4.063700e+00 -4.052867e+00 -4.066264e+00 -4.059822e+00 -4.064534e+00 -4.065316e+00 -4.064857e+00 -4.042781e+00 -3.975875e+00 -2.312741e+00 1.356037e+00 6.153365e+00 1.052766e+01 1.266653e+01 1.338403e+01 1.361515e+01 1.344895e+01 1.330410e+01 1.316674e+01 1.315828e+01 1.315114e+01 1.327296e+01 1.339251e+01 1.359583e+01 1.357351e+01 1.300142e+01 1.159301e+01 8.207977e+00 3.239679e+00 -1.394582e+00 -3.695223e+00 -4.041971e+00 -3.986364e+00 -4.034901e+00 -4.025346e+00 -4.051579e+00 -4.033420e+00 -4.059177e+00 -4.036767e+00 -4.059877e+00 -4.038891e+00 -4.056714e+00 -4.040631e+00 -4.051846e+00 -4.041963e+00 -4.046782e+00 -4.042873e+00 -4.042449e+00 -4.043538e+00 -4.039323e+00 -4.044221e+00 
-4.040608e+00 -4.049634e+00 -4.040687e+00 -4.051454e+00 -4.042342e+00 -4.054110e+00 -4.045371e+00 -4.057845e+00 -4.049473e+00 -4.062994e+00 -4.054341e+00 -4.069980e+00 -4.059955e+00 -4.079000e+00 -4.066869e+00 -4.089838e+00 -4.075969e+00 -4.107012e+00 -4.096337e+00 -4.149891e+00 -3.780563e+00 -1.376180e+00 4.399921e+00 1.009221e+01 1.260878e+01 1.336819e+01 1.327559e+01 1.304084e+01 1.306299e+01 1.311284e+01 1.325585e+01 1.332748e+01 1.338707e+01 1.334654e+01 1.329812e+01 1.315540e+01 1.306718e+01 1.302529e+01 1.315694e+01 1.338450e+01 1.298770e+01 1.113448e+01 6.603109e+00 7.038469e-01 -3.187753e+00 -4.034603e+00 -4.014323e+00 -4.042180e+00 -4.059939e+00 -4.044873e+00 -4.069792e+00 -4.042858e+00 -4.068441e+00 -4.042411e+00 -4.063039e+00 -4.043678e+00 -4.056520e+00 -4.045293e+00 -4.050415e+00 -4.046566e+00 -4.045525e+00 -4.047505e+00 -4.042216e+00 -4.048413e+00 
-4.044592e+00 -4.054898e+00 -4.044468e+00 -4.056345e+00 -4.046319e+00 -4.058905e+00 -4.049858e+00 -4.062866e+00 -4.054653e+00 -4.068774e+00 -4.060175e+00 -4.077476e+00 -4.066308e+00 -4.089030e+00 -4.075054e+00 -4.098365e+00 -4.095007e+00 -4.092669e+00 -4.145005e+00 -3.705576e+00 -2.354689e-01 6.336908e+00 1.136881e+01 1.317492e+01 1.324308e+01 1.305183e+01 1.317105e+01 1.323216e+01 1.333515e+01 1.329323e+01 1.329636e+01 1.323984e+01 1.325682e+01 1.323587e+01 1.328289e+01 1.328904e+01 1.332004e+01 1.327428e+01 1.315229e+01 1.304186e+01 1.308865e+01 1.324438e+01 1.255069e+01 8.779640e+00 1.956712e+00 -2.790811e+00 -4.019368e+00 -4.086424e+00 -4.093994e+00 -4.061543e+00 -4.095727e+00 -4.057973e+00 -4.088861e+00 -4.056083e+00 -4.078516e+00 -4.055491e+00 -4.067809e+00 -4.055250e+00 -4.058561e+00 -4.054867e+00 -4.051528e+00 -4.054453e+00 -4.046893e+00 -4.054352e+00 
-4.046718e+00 -4.059058e+00 -4.046985e+00 -4.060673e+00 -4.049561e+00 -4.063582e+00 -4.054266e+00 -4.068188e+00 -4.060788e+00 -4.075288e+00 -4.068699e+00 -4.086262e+00 -4.077846e+00 -4.101677e+00 -4.088849e+00 -4.115832e+00 -4.095190e+00 -4.130783e+00 -3.836536e+00 -3.472257e-01 7.045507e+00 1.228218e+01 1.323641e+01 1.315956e+01 1.318013e+01 1.323204e+01 1.322346e+01 1.316846e+01 1.319361e+01 1.319157e+01 1.325413e+01 1.326268e+01 1.329959e+01 1.326964e+01 1.326339e+01 1.320393e+01 1.318698e+01 1.316570e+01 1.319239e+01 1.322985e+01 1.320413e+01 1.314495e+01 1.324020e+01 1.284747e+01 9.526333e+00 2.451298e+00 -3.002648e+00 -4.068014e+00 -4.135264e+00 -4.074553e+00 -4.114299e+00 -4.060785e+00 -4.099696e+00 -4.056424e+00 -4.084963e+00 -4.056906e+00 -4.071802e+00 -4.058038e+00 -4.061306e+00 -4.058483e+00 -4.053709e+00 -4.058420e+00 -4.048906e+00 -4.058435e+00 
-4.049602e+00 -4.063895e+00 -4.049882e+00 -4.065056e+00 -4.052853e+00 -4.067673e+00 -4.058288e+00 -4.072096e+00 -4.065723e+00 -4.079424e+00 -4.074023e+00 -4.092457e+00 -4.080721e+00 -4.115138e+00 -4.082453e+00 -4.139890e+00 -4.091422e+00 -3.956473e+00 -8.699516e-01 6.614421e+00 1.216001e+01 1.320371e+01 1.316599e+01 1.324660e+01 1.323185e+01 1.319738e+01 1.324205e+01 1.323922e+01 1.329262e+01 1.326967e+01 1.329801e+01 1.326631e+01 1.329021e+01 1.326565e+01 1.329019e+01 1.327055e+01 1.327914e+01 1.324769e+01 1.321951e+01 1.318922e+01 1.319039e+01 1.322244e+01 1.319745e+01 1.316751e+01 1.295776e+01 9.281467e+00 1.393751e+00 -3.550174e+00 -4.186457e+00 -4.060628e+00 -4.136573e+00 -4.074938e+00 -4.120128e+00 -4.071050e+00 -4.100042e+00 -4.069304e+00 -4.081767e+00 -4.068184e+00 -4.067792e+00 -4.066683e+00 -4.058132e+00 -4.065088e+00 -4.052237e+00 -4.064001e+00 
-4.050442e+00 -4.067557e+00 -4.050980e+00 -4.068526e+00 -4.054469e+00 -4.071030e+00 -4.060879e+00 -4.075408e+00 -4.070001e+00 -4.082904e+00 -4.080931e+00 -4.097048e+00 -4.091838e+00 -4.122249e+00 -4.108521e+00 -4.132769e+00 -4.228287e+00 -2.701322e+00 4.689545e+00 1.197857e+01 1.332448e+01 1.326224e+01 1.329794e+01 1.323536e+01 1.325966e+01 1.324103e+01 1.325723e+01 1.322791e+01 1.325450e+01 1.323825e+01 1.327560e+01 1.326224e+01 1.329045e+01 1.326434e+01 1.327566e+01 1.324131e+01 1.324651e+01 1.322583e+01 1.323765e+01 1.323512e+01 1.323421e+01 1.322058e+01 1.321797e+01 1.322738e+01 1.311398e+01 1.273816e+01 8.058170e+00 1.759309e-02 -3.976919e+00 -4.094272e+00 -4.143103e+00 -4.063903e+00 -4.128598e+00 -4.063812e+00 -4.104230e+00 -4.068395e+00 -4.083580e+00 -4.070710e+00 -4.068741e+00 -4.070513e+00 -4.058856e+00 -4.069161e+00 -4.052962e+00 -4.067908e+00 
-4.051699e+00 -4.071631e+00 -4.052540e+00 -4.072156e+00 -4.056635e+00 -4.074174e+00 -4.064105e+00 -4.077600e+00 -4.075025e+00 -4.083281e+00 -4.088263e+00 -4.096103e+00 -4.096721e+00 -4.133733e+00 -4.071812e+00 -4.251773e+00 -3.596836e+00 2.110910e+00 1.006567e+01 1.318491e+01 1.327544e+01 1.326243e+01 1.326174e+01 1.326704e+01 1.327351e+01 1.325731e+01 1.328386e+01 1.326923e+01 1.330325e+01 1.328239e+01 1.331112e+01 1.328566e+01 1.331050e+01 1.328525e+01 1.330632e+01 1.328191e+01 1.329410e+01 1.326941e+01 1.326984e+01 1.325397e+01 1.325594e+01 1.326642e+01 1.325734e+01 1.328617e+01 1.326553e+01 1.338351e+01 1.247136e+01 5.444539e+00 -2.666975e+00 -4.284716e+00 -4.131446e+00 -4.102667e+00 -4.151090e+00 -4.081086e+00 -4.118185e+00 -4.081022e+00 -4.090334e+00 -4.080533e+00 -4.071973e+00 -4.078073e+00 -4.060614e+00 -4.075042e+00 -4.054225e+00 -4.072669e+00 
-4.051113e+00 -4.074752e+00 -4.051958e+00 -4.074684e+00 -4.056149e+00 -4.076103e+00 -4.064119e+00 -4.078599e+00 -4.076431e+00 -4.082603e+00 -4.091787e+00 -4.094468e+00 -4.095242e+00 -4.150059e+00 -4.000651e+00 -4.432305e+00 -1.734473e+00 7.452695e+00 1.317773e+01 1.323415e+01 1.336137e+01 1.327612e+01 1.332716e+01 1.327444e+01 1.330351e+01 1.327153e+01 1.329460e+01 1.326674e+01 1.329265e+01 1.326972e+01 1.329898e+01 1.327696e+01 1.330326e+01 1.327722e+01 1.329747e+01 1.326940e+01 1.328660e+01 1.326412e+01 1.328103e+01 1.326728e+01 1.327828e+01 1.327091e+01 1.327349e+01 1.328373e+01 1.327233e+01 1.329098e+01 1.334581e+01 1.003192e+01 1.416038e+00 -3.862221e+00 -4.189968e+00 -4.028801e+00 -4.162698e+00 -4.063028e+00 -4.117986e+00 -4.080492e+00 -4.088340e+00 -4.084861e+00 -4.070408e+00 -4.083149e+00 -4.059618e+00 -4.079623e+00 -4.053543e+00 -4.076493e+00 
-4.050534e+00 -4.077923e+00 -4.051971e+00 -4.077689e+00 -4.056809e+00 -4.078835e+00 -4.065870e+00 -4.079971e+00 -4.081105e+00 -4.078660e+00 -4.105949e+00 -4.072193e+00 -4.141047e+00 -4.066042e+00 -4.150707e+00 -3.968221e+00 2.115021e+00 1.088681e+01 1.355834e+01 1.324584e+01 1.337568e+01 1.329367e+01 1.332600e+01 1.329985e+01 1.331609e+01 1.329606e+01 1.331693e+01 1.329716e+01 1.332269e+01 1.330016e+01 1.332616e+01 1.330099e+01 1.332623e+01 1.329996e+01 1.332366e+01 1.329730e+01 1.331792e+01 1.329291e+01 1.330991e+01 1.329137e+01 1.330629e+01 1.330220e+01 1.330869e+01 1.332416e+01 1.331435e+01 1.335556e+01 1.332419e+01 1.306845e+01 6.402175e+00 -2.389746e+00 -4.527259e+00 -3.956296e+00 -4.229396e+00 -4.064830e+00 -4.129248e+00 -4.091387e+00 -4.088173e+00 -4.093887e+00 -4.068369e+00 -4.089575e+00 -4.057798e+00 -4.084260e+00 -4.052335e+00 -4.080122e+00 
-4.048813e+00 -4.080599e+00 -4.049815e+00 -4.079483e+00 -4.054003e+00 -4.079855e+00 -4.062589e+00 -4.079577e+00 -4.079098e+00 -4.073169e+00 -4.113449e+00 -4.044994e+00 -4.193195e+00 -3.944318e+00 -4.399846e+00 -2.411559e+00 6.876583e+00 1.330857e+01 1.337849e+01 1.335449e+01 1.335959e+01 1.333157e+01 1.334518e+01 1.331425e+01 1.333184e+01 1.330255e+01 1.332276e+01 1.329454e+01 1.331815e+01 1.329147e+01 1.331797e+01 1.329155e+01 1.331873e+01 1.329094e+01 1.331775e+01 1.328930e+01 1.331675e+01 1.329039e+01 1.331899e+01 1.329731e+01 1.332348e+01 1.331171e+01 1.332534e+01 1.334500e+01 1.331231e+01 1.342979e+01 1.323209e+01 1.367918e+01 9.886267e+00 3.372202e-01 -4.548473e+00 -3.929979e+00 -4.212251e+00 -4.074209e+00 -4.114993e+00 -4.104121e+00 -4.080284e+00 -4.104346e+00 -4.064296e+00 -4.097343e+00 -4.055509e+00 -4.089819e+00 -4.050658e+00 -4.084013e+00 
-4.046738e+00 -4.082877e+00 -4.048522e+00 -4.082272e+00 -4.052992e+00 -4.083549e+00 -4.061283e+00 -4.084355e+00 -4.077086e+00 -4.078117e+00 -4.112603e+00 -4.044211e+00 -4.209181e+00 -3.911511e+00 -4.523584e+00 -1.136958e-01 1.009796e+01 1.372130e+01 1.325409e+01 1.345102e+01 1.334615e+01 1.337269e+01 1.335236e+01 1.334316e+01 1.334667e+01 1.332755e+01 1.334181e+01 1.331920e+01 1.333975e+01 1.331489e+01 1.333895e+01 1.331221e+01 1.333850e+01 1.331029e+01 1.333841e+01 1.330905e+01 1.333914e+01 1.330928e+01 1.334202e+01 1.331360e+01 1.334903e+01 1.332680e+01 1.335858e+01 1.335726e+01 1.335987e+01 1.343834e+01 1.330899e+01 1.369904e+01 1.250254e+01 4.015202e+00 -4.033102e+00 -4.090275e+00 -4.112459e+00 -4.126997e+00 -4.079578e+00 -4.124726e+00 -4.063786e+00 -4.113663e+00 -4.055146e+00 -4.102148e+00 -4.050003e+00 -4.092738e+00 -4.047266e+00 -4.086267e+00 
-4.044666e+00 -4.085163e+00 -4.045394e+00 -4.083608e+00 -4.048056e+00 -4.084681e+00 -4.053274e+00 -4.086623e+00 -4.063645e+00 -4.084818e+00 -4.089261e+00 -4.065400e+00 -4.167011e+00 -3.984293e+00 -4.429314e+00 2.167992e+00 1.222727e+01 1.385538e+01 1.330015e+01 1.350489e+01 1.336399e+01 1.339333e+01 1.336573e+01 1.334963e+01 1.335436e+01 1.332711e+01 1.334287e+01 1.331346e+01 1.333505e+01 1.330580e+01 1.333160e+01 1.330232e+01 1.333139e+01 1.330116e+01 1.333361e+01 1.330211e+01 1.333944e+01 1.330672e+01 1.335097e+01 1.331661e+01 1.336935e+01 1.333328e+01 1.339524e+01 1.336171e+01 1.343166e+01 1.341373e+01 1.349262e+01 1.350451e+01 1.357307e+01 7.182754e+00 -3.006219e+00 -4.291375e+00 -4.006722e+00 -4.197763e+00 -4.047083e+00 -4.156770e+00 -4.052660e+00 -4.131037e+00 -4.050905e+00 -4.112501e+00 -4.047961e+00 -4.099116e+00 -4.045635e+00 -4.090161e+00 
-4.042081e+00 -4.086506e+00 -4.043739e+00 -4.086227e+00 -4.046373e+00 -4.089585e+00 -4.049665e+00 -4.096116e+00 -4.053212e+00 -4.104997e+00 -4.057572e+00 -4.114459e+00 -4.066044e+00 -4.122074e+00 -3.998785e+00 4.338476e+00 1.325542e+01 1.370464e+01 1.344542e+01 1.350491e+01 1.342095e+01 1.341632e+01 1.339510e+01 1.337356e+01 1.337473e+01 1.334904e+01 1.336068e+01 1.333394e+01 1.335232e+01 1.332483e+01 1.334825e+01 1.331955e+01 1.334730e+01 1.331676e+01 1.334922e+01 1.331611e+01 1.335498e+01 1.331811e+01 1.336668e+01 1.332370e+01 1.338726e+01 1.333346e+01 1.342088e+01 1.334722e+01 1.347867e+01 1.336295e+01 1.360212e+01 1.334921e+01 1.396121e+01 9.462424e+00 -1.852612e+00 -4.379841e+00 -3.942843e+00 -4.226545e+00 -4.009890e+00 -4.166575e+00 -4.031679e+00 -4.134273e+00 -4.038764e+00 -4.113483e+00 -4.040747e+00 -4.099534e+00 -4.041309e+00 -4.090791e+00 
-4.040745e+00 -4.088207e+00 -4.040863e+00 -4.086825e+00 -4.041036e+00 -4.089941e+00 -4.039689e+00 -4.098166e+00 -4.032970e+00 -4.114200e+00 -4.011271e+00 -4.147230e+00 -3.945684e+00 -4.228085e+00 -3.420900e+00 6.324649e+00 1.380819e+01 1.347123e+01 1.355433e+01 1.344491e+01 1.345240e+01 1.339838e+01 1.340385e+01 1.336427e+01 1.337529e+01 1.334034e+01 1.335669e+01 1.332398e+01 1.334533e+01 1.331390e+01 1.334001e+01 1.330876e+01 1.333962e+01 1.330726e+01 1.334388e+01 1.330914e+01 1.335421e+01 1.331520e+01 1.337348e+01 1.332617e+01 1.340570e+01 1.334178e+01 1.345827e+01 1.336104e+01 1.354956e+01 1.338127e+01 1.372709e+01 1.338577e+01 1.409993e+01 1.077779e+01 -9.899124e-01 -4.417711e+00 -3.963080e+00 -4.267488e+00 -4.011732e+00 -4.194066e+00 -4.032176e+00 -4.151240e+00 -4.039472e+00 -4.123777e+00 -4.041199e+00 -4.105678e+00 -4.041047e+00 -4.094266e+00 
-4.038911e+00 -4.088486e+00 -4.040257e+00 -4.088708e+00 -4.041038e+00 -4.094194e+00 -4.039134e+00 -4.106711e+00 -4.028920e+00 -4.131783e+00 -3.996164e+00 -4.185175e+00 -3.903022e+00 -4.309337e+00 -3.054032e+00 7.395743e+00 1.410218e+01 1.345644e+01 1.369113e+01 1.346054e+01 1.351488e+01 1.342054e+01 1.343525e+01 1.338510e+01 1.339467e+01 1.335897e+01 1.337189e+01 1.334108e+01 1.335925e+01 1.332978e+01 1.335327e+01 1.332321e+01 1.335202e+01 1.331990e+01 1.335505e+01 1.331931e+01 1.336360e+01 1.332169e+01 1.338055e+01 1.332713e+01 1.341043e+01 1.333425e+01 1.346112e+01 1.333932e+01 1.354969e+01 1.333575e+01 1.371014e+01 1.330767e+01 1.396576e+01 1.149630e+01 -1.938375e-01 -4.287845e+00 -3.930363e+00 -4.232093e+00 -3.984871e+00 -4.180846e+00 -4.014668e+00 -4.144401e+00 -4.028740e+00 -4.119636e+00 -4.034782e+00 -4.103232e+00 -4.037381e+00 -4.093197e+00 
-4.039143e+00 -4.089290e+00 -4.038939e+00 -4.088077e+00 -4.037893e+00 -4.092241e+00 -4.033316e+00 -4.103532e+00 -4.018362e+00 -4.127659e+00 -3.976216e+00 -4.180472e+00 -3.865745e+00 -4.300086e+00 -2.880037e+00 7.680505e+00 1.401152e+01 1.335570e+01 1.366090e+01 1.341052e+01 1.349747e+01 1.339378e+01 1.342288e+01 1.336722e+01 1.338438e+01 1.334419e+01 1.336190e+01 1.332726e+01 1.334890e+01 1.331651e+01 1.334290e+01 1.331091e+01 1.334250e+01 1.330928e+01 1.334747e+01 1.331137e+01 1.335942e+01 1.331779e+01 1.338168e+01 1.332898e+01 1.341945e+01 1.334408e+01 1.348222e+01 1.336072e+01 1.358980e+01 1.337525e+01 1.377688e+01 1.337841e+01 1.404822e+01 1.183897e+01 6.409674e-02 -4.300800e+00 -3.970664e+00 -4.259221e+00 -4.004790e+00 -4.201006e+00 -4.025733e+00 -4.157377e+00 -4.035283e+00 -4.127661e+00 -4.038570e+00 -4.107994e+00 -4.039216e+00 -4.095705e+00 