# vtk DataFile Version 2.0
Comment goes here
ASCII

DATASET STRUCTURED_POINTS
FIELD FieldData 1
TIME 1 1 double
1.06000000
DIMENSIONS    64   64   1

ORIGIN    0.000   0.000   0.000
SPACING   0.015625 0.015625   1.000

POINT_DATA   4096
SCALARS P double
LOOKUP_TABLE default

-4.189640e+00 -4.191518e+00 -4.187943e+00 -4.186040e+00 -4.181013e+00 -4.175222e+00 -4.168813e+00 -4.159111e+00 -4.151343e+00 -4.137815e+00 -4.128684e+00 -4.111548e+00 -4.101047e+00 -4.080664e+00 -4.068801e+00 -4.045667e+00 -4.032466e+00 -4.007190e+00 -3.992689e+00 -3.965983e+00 -3.950251e+00 -3.922961e+00 -3.906160e+00 -3.879355e+00 -3.861907e+00 -3.836996e+00 -3.819823e+00 -3.798654e+00 -3.783450e+00 -3.768273e+00 -3.757546e+00 -3.750540e+00 -3.746817e+00 -3.749030e+00 -3.753543e+00 -3.764116e+00 -3.776142e+00 -3.792758e+00 -3.810225e+00 -3.830389e+00 -3.850960e+00 -3.872882e+00 -3.894560e+00 -3.917204e+00 -3.938476e+00 -3.961284e+00 -3.981091e+00 -4.003685e+00 -4.021334e+00 -4.043331e+00 -4.058399e+00 -4.079347e+00 -4.091621e+00 -4.111026e+00 -4.120459e+00 -4.137833e+00 -4.144517e+00 -4.159419e+00 -4.163548e+00 -4.175605e+00 -4.177433e+00 -4.186336e+00 -4.186133e+00 -4.191628e+00 
-4.194681e+00 -4.196134e+00 -4.193132e+00 -4.190785e+00 -4.186219e+00 -4.179984e+00 -4.173862e+00 -4.163723e+00 -4.155987e+00 -4.142036e+00 -4.132585e+00 -4.115038e+00 -4.103763e+00 -4.082968e+00 -4.069792e+00 -4.046198e+00 -4.031118e+00 -4.005241e+00 -3.988371e+00 -3.960787e+00 -3.942418e+00 -3.913841e+00 -3.894530e+00 -3.866012e+00 -3.846695e+00 -3.819870e+00 -3.801960e+00 -3.779086e+00 -3.764452e+00 -3.747987e+00 -3.738673e+00 -3.730555e+00 -3.728287e+00 -3.729325e+00 -3.734901e+00 -3.744541e+00 -3.757428e+00 -3.774037e+00 -3.792507e+00 -3.813948e+00 -3.835642e+00 -3.859847e+00 -3.882510e+00 -3.907904e+00 -3.929876e+00 -3.955402e+00 -3.975660e+00 -4.000609e+00 -4.018582e+00 -4.042407e+00 -4.057795e+00 -4.080017e+00 -4.092677e+00 -4.112855e+00 -4.122767e+00 -4.140505e+00 -4.147753e+00 -4.162713e+00 -4.167467e+00 -4.179367e+00 -4.181853e+00 -4.190460e+00 -4.190918e+00 -4.196033e+00 
-4.192297e+00 -4.194259e+00 -4.190626e+00 -4.188788e+00 -4.183745e+00 -4.177994e+00 -4.171610e+00 -4.161910e+00 -4.154199e+00 -4.140623e+00 -4.131564e+00 -4.114316e+00 -4.103878e+00 -4.083302e+00 -4.071462e+00 -4.048034e+00 -4.034790e+00 -4.009099e+00 -3.994473e+00 -3.967225e+00 -3.951285e+00 -3.923349e+00 -3.906276e+00 -3.878781e+00 -3.861001e+00 -3.835432e+00 -3.817823e+00 -3.796069e+00 -3.780247e+00 -3.764631e+00 -3.753227e+00 -3.746110e+00 -3.741956e+00 -3.744501e+00 -3.749031e+00 -3.760217e+00 -3.772637e+00 -3.789846e+00 -3.807901e+00 -3.828504e+00 -3.849763e+00 -3.872038e+00 -3.894432e+00 -3.917402e+00 -3.939305e+00 -3.962425e+00 -3.982696e+00 -4.005578e+00 -4.023499e+00 -4.045749e+00 -4.060918e+00 -4.082081e+00 -4.094326e+00 -4.113912e+00 -4.123232e+00 -4.140759e+00 -4.147286e+00 -4.162322e+00 -4.166280e+00 -4.178456e+00 -4.180122e+00 -4.189134e+00 -4.188793e+00 -4.194386e+00 
-4.200101e+00 -4.201698e+00 -4.198624e+00 -4.196394e+00 -4.191861e+00 -4.185694e+00 -4.179705e+00 -4.169566e+00 -4.162042e+00 -4.147998e+00 -4.138794e+00 -4.121040e+00 -4.109975e+00 -4.088839e+00 -4.075739e+00 -4.051643e+00 -4.036400e+00 -4.009824e+00 -3.992470e+00 -3.963926e+00 -3.944738e+00 -3.914873e+00 -3.894490e+00 -3.864359e+00 -3.843887e+00 -3.815334e+00 -3.796385e+00 -3.772142e+00 -3.756750e+00 -3.739661e+00 -3.729810e+00 -3.721718e+00 -3.719027e+00 -3.720420e+00 -3.725833e+00 -3.736004e+00 -3.749319e+00 -3.766744e+00 -3.786397e+00 -3.808986e+00 -3.832315e+00 -3.857770e+00 -3.882015e+00 -3.908571e+00 -3.931782e+00 -3.958278e+00 -3.979351e+00 -4.005043e+00 -4.023448e+00 -4.047810e+00 -4.063328e+00 -4.085928e+00 -4.098504e+00 -4.118951e+00 -4.128643e+00 -4.146587e+00 -4.153541e+00 -4.168675e+00 -4.173114e+00 -4.185176e+00 -4.187367e+00 -4.196133e+00 -4.196348e+00 -4.201619e+00 
-4.200232e+00 -4.202454e+00 -4.198641e+00 -4.197010e+00 -4.191925e+00 -4.186304e+00 -4.180008e+00 -4.170329e+00 -4.162808e+00 -4.149107e+00 -4.140290e+00 -4.122726e+00 -4.112507e+00 -4.091370e+00 -4.079630e+00 -4.055331e+00 -4.041975e+00 -4.015038e+00 -4.000026e+00 -3.971122e+00 -3.954535e+00 -3.924595e+00 -3.906691e+00 -3.877046e+00 -3.858308e+00 -3.830706e+00 -3.811858e+00 -3.788264e+00 -3.770455e+00 -3.753338e+00 -3.739604e+00 -3.732054e+00 -3.726409e+00 -3.730115e+00 -3.734762e+00 -3.748085e+00 -3.761869e+00 -3.781002e+00 -3.800924e+00 -3.822782e+00 -3.846188e+00 -3.869471e+00 -3.894123e+00 -3.918067e+00 -3.941952e+00 -3.966028e+00 -3.987725e+00 -4.011487e+00 -4.030212e+00 -4.053226e+00 -4.068658e+00 -4.090464e+00 -4.102575e+00 -4.122696e+00 -4.131633e+00 -4.149613e+00 -4.155631e+00 -4.171061e+00 -4.174479e+00 -4.187009e+00 -4.188171e+00 -4.197505e+00 -4.196743e+00 -4.202631e+00 
-4.210843e+00 -4.212743e+00 -4.209520e+00 -4.207545e+00 -4.203083e+00 -4.197082e+00 -4.191384e+00 -4.181272e+00 -4.174223e+00 -4.160020e+00 -4.151388e+00 -4.133246e+00 -4.122701e+00 -4.100907e+00 -4.088062e+00 -4.062998e+00 -4.047500e+00 -4.019569e+00 -4.001246e+00 -3.970825e+00 -3.949896e+00 -3.917429e+00 -3.894712e+00 -3.861123e+00 -3.838119e+00 -3.805606e+00 -3.784387e+00 -3.756997e+00 -3.740139e+00 -3.721891e+00 -3.711086e+00 -3.703378e+00 -3.699711e+00 -3.701968e+00 -3.706726e+00 -3.717841e+00 -3.731853e+00 -3.750868e+00 -3.773216e+00 -3.798347e+00 -3.825471e+00 -3.853636e+00 -3.881357e+00 -3.910364e+00 -3.936153e+00 -3.964641e+00 -3.987326e+00 -4.014503e+00 -4.033702e+00 -4.059103e+00 -4.074800e+00 -4.098105e+00 -4.110436e+00 -4.131374e+00 -4.140555e+00 -4.158873e+00 -4.165181e+00 -4.180639e+00 -4.184400e+00 -4.196775e+00 -4.198337e+00 -4.207420e+00 -4.207122e+00 -4.212711e+00 
-4.213329e+00 -4.216001e+00 -4.211886e+00 -4.210632e+00 -4.205491e+00 -4.200130e+00 -4.194016e+00 -4.184426e+00 -4.177287e+00 -4.163437e+00 -4.155117e+00 -4.137093e+00 -4.127348e+00 -4.105347e+00 -4.093874e+00 -4.068184e+00 -4.054685e+00 -4.025680e+00 -4.009981e+00 -3.978212e+00 -3.960421e+00 -3.926878e+00 -3.907498e+00 -3.873947e+00 -3.853738e+00 -3.822603e+00 -3.802113e+00 -3.775205e+00 -3.753590e+00 -3.733157e+00 -3.714275e+00 -3.705466e+00 -3.696532e+00 -3.702841e+00 -3.708060e+00 -3.726227e+00 -3.743117e+00 -3.765996e+00 -3.789349e+00 -3.812910e+00 -3.840132e+00 -3.864898e+00 -3.893774e+00 -3.919356e+00 -3.946886e+00 -3.972653e+00 -3.996836e+00 -4.022144e+00 -4.042143e+00 -4.066459e+00 -4.082183e+00 -4.105048e+00 -4.116772e+00 -4.137756e+00 -4.145908e+00 -4.164609e+00 -4.169665e+00 -4.185721e+00 -4.188156e+00 -4.201253e+00 -4.201518e+00 -4.211383e+00 -4.209880e+00 -4.216264e+00 
-4.226698e+00 -4.229090e+00 -4.225623e+00 -4.224088e+00 -4.219745e+00 -4.214063e+00 -4.208860e+00 -4.198866e+00 -4.192651e+00 -4.178280e+00 -4.170705e+00 -4.152041e+00 -4.142543e+00 -4.119819e+00 -4.107647e+00 -4.081202e+00 -4.065537e+00 -4.035698e+00 -4.015928e+00 -3.982864e+00 -3.959028e+00 -3.922720e+00 -3.895941e+00 -3.856635e+00 -3.829179e+00 -3.789071e+00 -3.763717e+00 -3.730129e+00 -3.711339e+00 -3.691799e+00 -3.680157e+00 -3.674265e+00 -3.668749e+00 -3.672782e+00 -3.675375e+00 -3.687291e+00 -3.701677e+00 -3.722801e+00 -3.750332e+00 -3.780255e+00 -3.814829e+00 -3.847666e+00 -3.881393e+00 -3.914411e+00 -3.944244e+00 -3.975854e+00 -4.000849e+00 -4.030240e+00 -4.050425e+00 -4.077279e+00 -4.093026e+00 -4.117254e+00 -4.129017e+00 -4.150568e+00 -4.158810e+00 -4.177593e+00 -4.182786e+00 -4.198667e+00 -4.201294e+00 -4.214105e+00 -4.214634e+00 -4.224186e+00 -4.223050e+00 -4.229135e+00 
-4.231369e+00 -4.234714e+00 -4.230163e+00 -4.229506e+00 -4.224313e+00 -4.219407e+00 -4.213625e+00 -4.204267e+00 -4.197803e+00 -4.183870e+00 -4.176455e+00 -4.157931e+00 -4.149110e+00 -4.126064e+00 -4.115211e+00 -4.087739e+00 -4.074169e+00 -4.042348e+00 -4.025570e+00 -3.989600e+00 -3.969742e+00 -3.930513e+00 -3.908671e+00 -3.868735e+00 -3.846644e+00 -3.810514e+00 -3.789806e+00 -3.758132e+00 -3.729908e+00 -3.702154e+00 -3.672086e+00 -3.659412e+00 -3.643427e+00 -3.655395e+00 -3.662968e+00 -3.692056e+00 -3.716137e+00 -3.745700e+00 -3.774188e+00 -3.798221e+00 -3.831000e+00 -3.857416e+00 -3.893507e+00 -3.921549e+00 -3.955014e+00 -3.983471e+00 -4.011310e+00 -4.038984e+00 -4.060547e+00 -4.086737e+00 -4.102494e+00 -4.126799e+00 -4.137603e+00 -4.159713e+00 -4.166450e+00 -4.186075e+00 -4.189543e+00 -4.206407e+00 -4.207295e+00 -4.221141e+00 -4.220033e+00 -4.230621e+00 -4.228007e+00 -4.235097e+00 
-4.247310e+00 -4.250438e+00 -4.246597e+00 -4.245764e+00 -4.241588e+00 -4.236471e+00 -4.232021e+00 -4.222331e+00 -4.217447e+00 -4.202990e+00 -4.197207e+00 -4.177952e+00 -4.170405e+00 -4.146521e+00 -4.135897e+00 -4.107716e+00 -4.092375e+00 -4.060235e+00 -4.038668e+00 -4.002598e+00 -3.974335e+00 -3.933581e+00 -3.900203e+00 -3.852866e+00 -3.818219e+00 -3.763455e+00 -3.730013e+00 -3.683458e+00 -3.663235e+00 -3.643875e+00 -3.633499e+00 -3.633929e+00 -3.624987e+00 -3.632653e+00 -3.628816e+00 -3.639249e+00 -3.651639e+00 -3.674195e+00 -3.712144e+00 -3.752083e+00 -3.801601e+00 -3.841716e+00 -3.884542e+00 -3.923406e+00 -3.958547e+00 -3.994485e+00 -4.022122e+00 -4.054359e+00 -4.075369e+00 -4.103894e+00 -4.119268e+00 -4.144424e+00 -4.155048e+00 -4.177156e+00 -4.183820e+00 -4.203037e+00 -4.206475e+00 -4.222802e+00 -4.223700e+00 -4.237034e+00 -4.236019e+00 -4.246189e+00 -4.243810e+00 -4.250594e+00 
-4.253996e+00 -4.258280e+00 -4.253142e+00 -4.253376e+00 -4.248146e+00 -4.243990e+00 -4.238750e+00 -4.229883e+00 -4.224522e+00 -4.210697e+00 -4.204830e+00 -4.185911e+00 -4.178799e+00 -4.154724e+00 -4.145234e+00 -4.115869e+00 -4.102597e+00 -4.067529e+00 -4.049245e+00 -4.007841e+00 -3.984481e+00 -3.936756e+00 -3.910573e+00 -3.859776e+00 -3.834288e+00 -3.792749e+00 -3.780963e+00 -3.745441e+00 -3.705561e+00 -3.660040e+00 -3.603845e+00 -3.578588e+00 -3.546550e+00 -3.571497e+00 -3.587820e+00 -3.643583e+00 -3.686283e+00 -3.727969e+00 -3.761306e+00 -3.777500e+00 -3.816422e+00 -3.844996e+00 -3.894101e+00 -3.925915e+00 -3.968526e+00 -4.001199e+00 -4.033662e+00 -4.064709e+00 -4.087578e+00 -4.116173e+00 -4.131140e+00 -4.157149e+00 -4.166031e+00 -4.189407e+00 -4.193754e+00 -4.214399e+00 -4.215418e+00 -4.233190e+00 -4.231810e+00 -4.246535e+00 -4.243477e+00 -4.254962e+00 -4.250798e+00 -4.258817e+00 
-4.272143e+00 -4.276325e+00 -4.271921e+00 -4.272161e+00 -4.268169e+00 -4.264005e+00 -4.260594e+00 -4.251553e+00 -4.248640e+00 -4.234319e+00 -4.231395e+00 -4.211574e+00 -4.207465e+00 -4.182216e+00 -4.174854e+00 -4.144582e+00 -4.130983e+00 -4.096333e+00 -4.073207e+00 -4.034636e+00 -4.000138e+00 -3.956697e+00 -3.912795e+00 -3.858276e+00 -3.813880e+00 -3.728808e+00 -3.675267e+00 -3.597176e+00 -3.579726e+00 -3.568550e+00 -3.568515e+00 -3.588327e+00 -3.572680e+00 -3.588232e+00 -3.566525e+00 -3.565589e+00 -3.566190e+00 -3.584270e+00 -3.646190e+00 -3.713109e+00 -3.795635e+00 -3.844432e+00 -3.897246e+00 -3.943682e+00 -3.984030e+00 -4.025285e+00 -4.054891e+00 -4.090217e+00 -4.111210e+00 -4.141161e+00 -4.155274e+00 -4.180976e+00 -4.189536e+00 -4.211880e+00 -4.216038e+00 -4.235493e+00 -4.236298e+00 -4.253006e+00 -4.251400e+00 -4.265306e+00 -4.262100e+00 -4.273037e+00 -4.268910e+00 -4.276632e+00 
-4.280683e+00 -4.286230e+00 -4.280319e+00 -4.281839e+00 -4.276576e+00 -4.273599e+00 -4.269154e+00 -4.261189e+00 -4.257509e+00 -4.244136e+00 -4.240781e+00 -4.221743e+00 -4.217674e+00 -4.192863e+00 -4.186260e+00 -4.155448e+00 -4.143711e+00 -4.105955e+00 -4.086172e+00 -4.039262e+00 -4.010189e+00 -3.950890e+00 -3.917107e+00 -3.843526e+00 -3.801718e+00 -3.757772e+00 -3.796065e+00 -3.772541e+00 -3.708935e+00 -3.615030e+00 -3.492848e+00 -3.426036e+00 -3.354446e+00 -3.411500e+00 -3.457719e+00 -3.584371e+00 -3.681711e+00 -3.747660e+00 -3.771467e+00 -3.742328e+00 -3.782623e+00 -3.822101e+00 -3.900317e+00 -3.937991e+00 -3.993205e+00 -4.032555e+00 -4.069091e+00 -4.104408e+00 -4.126914e+00 -4.158056e+00 -4.170348e+00 -4.197995e+00 -4.203239e+00 -4.227779e+00 -4.228310e+00 -4.249902e+00 -4.247339e+00 -4.266002e+00 -4.261470e+00 -4.277134e+00 -4.271449e+00 -4.283976e+00 -4.277759e+00 -4.286943e+00 
-4.300444e+00 -4.306094e+00 -4.300838e+00 -4.302676e+00 -4.298789e+00 -4.296171e+00 -4.294035e+00 -4.286223e+00 -4.286001e+00 -4.272266e+00 -4.273623e+00 -4.253420e+00 -4.255068e+00 -4.228270e+00 -4.227367e+00 -4.194535e+00 -4.186158e+00 -4.148712e+00 -4.126113e+00 -4.086293e+00 -4.043932e+00 -4.004488e+00 -3.941438e+00 -3.899207e+00 -3.853191e+00 -3.699002e+00 -3.577787e+00 -3.408376e+00 -3.413505e+00 -3.446370e+00 -3.489759e+00 -3.564720e+00 -3.533627e+00 -3.568723e+00 -3.500405e+00 -3.452580e+00 -3.402855e+00 -3.386292e+00 -3.512442e+00 -3.674455e+00 -3.841189e+00 -3.883653e+00 -3.929112e+00 -3.985794e+00 -4.029198e+00 -4.076258e+00 -4.105349e+00 -4.142992e+00 -4.161983e+00 -4.192052e+00 -4.203350e+00 -4.228501e+00 -4.233602e+00 -4.255469e+00 -4.255814e+00 -4.275120e+00 -4.272123e+00 -4.289060e+00 -4.283964e+00 -4.298461e+00 -4.292270e+00 -4.304133e+00 -4.297643e+00 -4.306591e+00 
-4.310685e+00 -4.317900e+00 -4.310959e+00 -4.314302e+00 -4.308936e+00 -4.307759e+00 -4.304327e+00 -4.297880e+00 -4.296555e+00 -4.284150e+00 -4.284639e+00 -4.265890e+00 -4.267021e+00 -4.242034e+00 -4.241321e+00 -4.210393e+00 -4.203620e+00 -4.165841e+00 -4.146342e+00 -4.097487e+00 -4.058327e+00 -3.989173e+00 -3.950759e+00 -3.810944e+00 -3.664893e+00 -3.626584e+00 -3.894411e+00 -3.974138e+00 -3.839639e+00 -3.594129e+00 -3.278550e+00 -3.021245e+00 -2.801123e+00 -2.974671e+00 -3.172637e+00 -3.526332e+00 -3.810233e+00 -3.940217e+00 -3.864542e+00 -3.626661e+00 -3.646667e+00 -3.766744e+00 -3.934706e+00 -3.975782e+00 -4.039841e+00 -4.091750e+00 -4.127411e+00 -4.166719e+00 -4.184491e+00 -4.217012e+00 -4.222986e+00 -4.251489e+00 -4.250386e+00 -4.275599e+00 -4.270385e+00 -4.292616e+00 -4.285086e+00 -4.304483e+00 -4.295793e+00 -4.312372e+00 -4.303319e+00 -4.317000e+00 -4.308181e+00 -4.318785e+00 
-4.331210e+00 -4.338855e+00 -4.332312e+00 -4.336462e+00 -4.332400e+00 -4.332197e+00 -4.331350e+00 -4.325703e+00 -4.328761e+00 -4.316450e+00 -4.323719e+00 -4.303642e+00 -4.314350e+00 -4.285974e+00 -4.297133e+00 -4.261067e+00 -4.265569e+00 -4.223848e+00 -4.207838e+00 -4.163895e+00 -4.113505e+00 -4.079803e+00 -3.958131e+00 -4.036828e+00 -4.085029e+00 -3.671814e+00 -2.485519e+00 -8.380818e-01 9.277136e-01 2.953203e+00 4.450408e+00 5.486047e+00 5.914612e+00 5.641964e+00 4.820773e+00 3.318918e+00 1.502001e+00 -2.823138e-01 -2.111491e+00 -3.569853e+00 -4.125727e+00 -4.030133e+00 -3.948408e+00 -4.042077e+00 -4.102701e+00 -4.157116e+00 -4.181890e+00 -4.219731e+00 -4.233482e+00 -4.260165e+00 -4.266293e+00 -4.288594e+00 -4.288205e+00 -4.308416e+00 -4.303130e+00 -4.321759e+00 -4.313426e+00 -4.330414e+00 -4.320616e+00 -4.335731e+00 -4.325634e+00 -4.338608e+00 -4.329048e+00 -4.339570e+00 
-4.343015e+00 -4.352393e+00 -4.344053e+00 -4.349937e+00 -4.344216e+00 -4.345723e+00 -4.343320e+00 -4.339302e+00 -4.340911e+00 -4.330191e+00 -4.336114e+00 -4.318049e+00 -4.327534e+00 -4.302877e+00 -4.313396e+00 -4.284421e+00 -4.290578e+00 -4.257472e+00 -4.244471e+00 -4.199556e+00 -4.124442e+00 -4.086037e+00 -4.122616e+00 -3.453482e+00 -1.217643e+00 2.226030e+00 6.258169e+00 9.352181e+00 1.098736e+01 1.239431e+01 1.308721e+01 1.337211e+01 1.344347e+01 1.341731e+01 1.320911e+01 1.256340e+01 1.150428e+01 9.794641e+00 6.824067e+00 3.095747e+00 -4.045946e-01 -3.075118e+00 -4.099266e+00 -4.093031e+00 -4.099555e+00 -4.194003e+00 -4.222430e+00 -4.261399e+00 -4.268039e+00 -4.298081e+00 -4.291730e+00 -4.319270e+00 -4.307958e+00 -4.332873e+00 -4.319593e+00 -4.341907e+00 -4.327924e+00 -4.347764e+00 -4.333901e+00 -4.351300e+00 -4.338154e+00 -4.353070e+00 -4.341099e+00 -4.353400e+00 
-4.363182e+00 -4.373452e+00 -4.365001e+00 -4.372384e+00 -4.367519e+00 -4.370952e+00 -4.370888e+00 -4.368853e+00 -4.375186e+00 -4.365769e+00 -4.380220e+00 -4.361452e+00 -4.385150e+00 -4.355801e+00 -4.387771e+00 -4.348021e+00 -4.380314e+00 -4.329753e+00 -4.329603e+00 -4.259345e+00 -4.224298e+00 -3.821815e+00 -1.774651e+00 2.946802e+00 7.651087e+00 1.090375e+01 1.285499e+01 1.355456e+01 1.355421e+01 1.337098e+01 1.329884e+01 1.314394e+01 1.313311e+01 1.313212e+01 1.327208e+01 1.333108e+01 1.357957e+01 1.345320e+01 1.302570e+01 1.159057e+01 8.635760e+00 4.081452e+00 -8.356355e-01 -3.499111e+00 -4.223541e+00 -4.278654e+00 -4.286729e+00 -4.325306e+00 -4.332358e+00 -4.348342e+00 -4.346603e+00 -4.362242e+00 -4.353419e+00 -4.370546e+00 -4.357083e+00 -4.374604e+00 -4.358976e+00 -4.375954e+00 -4.360067e+00 -4.375896e+00 -4.360929e+00 -4.375236e+00 -4.361890e+00 -4.374378e+00 
-4.376419e+00 -4.388546e+00 -4.378269e+00 -4.387635e+00 -4.380957e+00 -4.386421e+00 -4.384542e+00 -4.384362e+00 -4.388932e+00 -4.380964e+00 -4.393699e+00 -4.376410e+00 -4.398097e+00 -4.373159e+00 -4.402459e+00 -4.376738e+00 -4.410193e+00 -4.383953e+00 -4.407129e+00 -4.321680e+00 -3.336072e+00 8.075619e-01 6.413535e+00 1.092114e+01 1.306439e+01 1.334944e+01 1.318179e+01 1.302985e+01 1.302108e+01 1.304535e+01 1.317129e+01 1.322117e+01 1.327486e+01 1.323124e+01 1.320532e+01 1.305237e+01 1.306274e+01 1.298593e+01 1.322898e+01 1.332330e+01 1.322881e+01 1.166006e+01 7.793379e+00 2.130428e+00 -2.824825e+00 -4.257389e+00 -4.378463e+00 -4.386616e+00 -4.381135e+00 -4.403841e+00 -4.375941e+00 -4.400712e+00 -4.374439e+00 -4.397774e+00 -4.374276e+00 -4.395956e+00 -4.374283e+00 -4.394228e+00 -4.374371e+00 -4.392465e+00 -4.374652e+00 -4.390858e+00 -4.375273e+00 -4.389553e+00 
-4.394872e+00 -4.408448e+00 -4.397276e+00 -4.408998e+00 -4.402193e+00 -4.410886e+00 -4.410172e+00 -4.413871e+00 -4.422079e+00 -4.417949e+00 -4.439159e+00 -4.423962e+00 -4.463337e+00 -4.435012e+00 -4.498154e+00 -4.455716e+00 -4.543327e+00 -4.477856e+00 -4.447456e+00 -2.947283e+00 2.368412e+00 9.044915e+00 1.251770e+01 1.320405e+01 1.305654e+01 1.303298e+01 1.312461e+01 1.326807e+01 1.330990e+01 1.328760e+01 1.329367e+01 1.323465e+01 1.325808e+01 1.322740e+01 1.329346e+01 1.326705e+01 1.333065e+01 1.324103e+01 1.316638e+01 1.304327e+01 1.308854e+01 1.321324e+01 1.291803e+01 1.016148e+01 3.914559e+00 -1.906941e+00 -4.235731e+00 -4.439934e+00 -4.464485e+00 -4.454333e+00 -4.443360e+00 -4.448664e+00 -4.426734e+00 -4.440250e+00 -4.415004e+00 -4.431678e+00 -4.406401e+00 -4.423687e+00 -4.400328e+00 -4.417110e+00 -4.396477e+00 -4.412356e+00 -4.394660e+00 -4.409500e+00 
-4.409397e+00 -4.424887e+00 -4.411951e+00 -4.425967e+00 -4.417186e+00 -4.428430e+00 -4.425564e+00 -4.431554e+00 -4.437697e+00 -4.434472e+00 -4.454082e+00 -4.437189e+00 -4.474534e+00 -4.444838e+00 -4.498188e+00 -4.473315e+00 -4.537809e+00 -4.467947e+00 -2.836330e+00 3.127835e+00 1.004579e+01 1.300508e+01 1.317610e+01 1.319449e+01 1.320745e+01 1.324629e+01 1.320302e+01 1.316471e+01 1.316748e+01 1.315874e+01 1.321015e+01 1.320680e+01 1.324704e+01 1.320866e+01 1.322823e+01 1.315749e+01 1.319503e+01 1.315070e+01 1.323564e+01 1.323718e+01 1.324151e+01 1.320403e+01 1.317918e+01 1.319175e+01 1.124787e+01 5.064575e+00 -1.856151e+00 -4.347053e+00 -4.497254e+00 -4.535883e+00 -4.465399e+00 -4.489659e+00 -4.444948e+00 -4.465010e+00 -4.430917e+00 -4.451303e+00 -4.421491e+00 -4.441400e+00 -4.415148e+00 -4.433874e+00 -4.411137e+00 -4.428637e+00 -4.409200e+00 -4.425683e+00 
-4.424661e+00 -4.442138e+00 -4.427333e+00 -4.444579e+00 -4.434128e+00 -4.450082e+00 -4.445972e+00 -4.458351e+00 -4.464595e+00 -4.469342e+00 -4.492959e+00 -4.484663e+00 -4.536379e+00 -4.512384e+00 -4.606968e+00 -4.566712e+00 -4.761223e+00 -3.423472e+00 2.710042e+00 1.039020e+01 1.315648e+01 1.326734e+01 1.328026e+01 1.326042e+01 1.322559e+01 1.321469e+01 1.323709e+01 1.326357e+01 1.329250e+01 1.328078e+01 1.330487e+01 1.327150e+01 1.330198e+01 1.326777e+01 1.330951e+01 1.327094e+01 1.330692e+01 1.325201e+01 1.325946e+01 1.320947e+01 1.324497e+01 1.325109e+01 1.329181e+01 1.325742e+01 1.326829e+01 1.143551e+01 4.452719e+00 -2.457488e+00 -4.572728e+00 -4.583689e+00 -4.543661e+00 -4.545727e+00 -4.500635e+00 -4.513375e+00 -4.471512e+00 -4.489133e+00 -4.451855e+00 -4.470414e+00 -4.438672e+00 -4.456777e+00 -4.430241e+00 -4.447836e+00 -4.425667e+00 -4.443100e+00 
-4.440292e+00 -4.459629e+00 -4.443205e+00 -4.463148e+00 -4.450478e+00 -4.469980e+00 -4.463047e+00 -4.479218e+00 -4.482649e+00 -4.488951e+00 -4.512069e+00 -4.496214e+00 -4.553345e+00 -4.503221e+00 -4.584860e+00 -4.555028e+00 -4.264504e+00 8.262068e-01 9.265454e+00 1.317903e+01 1.324716e+01 1.333580e+01 1.327065e+01 1.329010e+01 1.327342e+01 1.327563e+01 1.326402e+01 1.324154e+01 1.325100e+01 1.322996e+01 1.326058e+01 1.323851e+01 1.327231e+01 1.323832e+01 1.326996e+01 1.322742e+01 1.326627e+01 1.323437e+01 1.328180e+01 1.326766e+01 1.329078e+01 1.328250e+01 1.328492e+01 1.331814e+01 1.328383e+01 1.323616e+01 1.071457e+01 3.166610e+00 -3.465696e+00 -4.748078e+00 -4.550760e+00 -4.564937e+00 -4.514547e+00 -4.524413e+00 -4.484263e+00 -4.503403e+00 -4.465786e+00 -4.486321e+00 -4.453672e+00 -4.473117e+00 -4.445691e+00 -4.464330e+00 -4.441222e+00 -4.459915e+00 
-4.451006e+00 -4.472654e+00 -4.453456e+00 -4.477238e+00 -4.461077e+00 -4.486523e+00 -4.474925e+00 -4.499977e+00 -4.497250e+00 -4.516386e+00 -4.532440e+00 -4.534782e+00 -4.586349e+00 -4.568500e+00 -4.633224e+00 -4.688285e+00 -1.262441e+00 7.573852e+00 1.293149e+01 1.344263e+01 1.336728e+01 1.337139e+01 1.334725e+01 1.333191e+01 1.332122e+01 1.330325e+01 1.331633e+01 1.330490e+01 1.332852e+01 1.330685e+01 1.333419e+01 1.330345e+01 1.333530e+01 1.330147e+01 1.333771e+01 1.330140e+01 1.333650e+01 1.329703e+01 1.332766e+01 1.329255e+01 1.333364e+01 1.330966e+01 1.336468e+01 1.331835e+01 1.341116e+01 1.329680e+01 1.330663e+01 9.415350e+00 2.308090e-02 -4.734887e+00 -4.621412e+00 -4.645664e+00 -4.566519e+00 -4.580893e+00 -4.518978e+00 -4.540743e+00 -4.490301e+00 -4.511702e+00 -4.472010e+00 -4.491654e+00 -4.460148e+00 -4.479208e+00 -4.453272e+00 -4.473144e+00 
-4.467514e+00 -4.490721e+00 -4.470188e+00 -4.497024e+00 -4.478346e+00 -4.508887e+00 -4.493065e+00 -4.525804e+00 -4.517064e+00 -4.545287e+00 -4.558562e+00 -4.557616e+00 -4.646618e+00 -4.524746e+00 -4.875888e+00 -3.839838e+00 3.279530e+00 1.186585e+01 1.358757e+01 1.336136e+01 1.341816e+01 1.337225e+01 1.337056e+01 1.334681e+01 1.334761e+01 1.332305e+01 1.332916e+01 1.329837e+01 1.331464e+01 1.328360e+01 1.331040e+01 1.327959e+01 1.331177e+01 1.327893e+01 1.331394e+01 1.328098e+01 1.332004e+01 1.329294e+01 1.333441e+01 1.331486e+01 1.335133e+01 1.333381e+01 1.337240e+01 1.334728e+01 1.341727e+01 1.331512e+01 1.354162e+01 1.262213e+01 5.630654e+00 -2.480110e+00 -4.810234e+00 -4.506720e+00 -4.584020e+00 -4.567072e+00 -4.525938e+00 -4.550876e+00 -4.502665e+00 -4.526629e+00 -4.487494e+00 -4.507632e+00 -4.476570e+00 -4.495630e+00 -4.469783e+00 -4.490161e+00 
-4.472739e+00 -4.498172e+00 -4.474401e+00 -4.505086e+00 -4.481507e+00 -4.518353e+00 -4.494673e+00 -4.537742e+00 -4.515937e+00 -4.560563e+00 -4.553945e+00 -4.571757e+00 -4.650427e+00 -4.486886e+00 -4.962509e+00 -8.694156e-01 8.390316e+00 1.355608e+01 1.339336e+01 1.351826e+01 1.342562e+01 1.343284e+01 1.341300e+01 1.338726e+01 1.339191e+01 1.335938e+01 1.337764e+01 1.334623e+01 1.337162e+01 1.333880e+01 1.336831e+01 1.333403e+01 1.336723e+01 1.333313e+01 1.336947e+01 1.333621e+01 1.337383e+01 1.334195e+01 1.338015e+01 1.335208e+01 1.339393e+01 1.337189e+01 1.341518e+01 1.340021e+01 1.342749e+01 1.345897e+01 1.337005e+01 1.365179e+01 1.064516e+01 1.119745e+00 -4.900758e+00 -4.616768e+00 -4.629876e+00 -4.624152e+00 -4.546430e+00 -4.579516e+00 -4.516528e+00 -4.542782e+00 -4.498024e+00 -4.518398e+00 -4.484761e+00 -4.504062e+00 -4.476267e+00 -4.497687e+00 
-4.489831e+00 -4.516071e+00 -4.491584e+00 -4.525102e+00 -4.499180e+00 -4.542065e+00 -4.512719e+00 -4.568534e+00 -4.532361e+00 -4.607705e+00 -4.559826e+00 -4.666776e+00 -4.609876e+00 -4.749682e+00 -4.575290e+00 3.101343e+00 1.178236e+01 1.378059e+01 1.338308e+01 1.352200e+01 1.345889e+01 1.344107e+01 1.344241e+01 1.339859e+01 1.341392e+01 1.336803e+01 1.338726e+01 1.334289e+01 1.336633e+01 1.332550e+01 1.335417e+01 1.331718e+01 1.335031e+01 1.331659e+01 1.335342e+01 1.332354e+01 1.336380e+01 1.333916e+01 1.338161e+01 1.336195e+01 1.340473e+01 1.338774e+01 1.343279e+01 1.341869e+01 1.346484e+01 1.347373e+01 1.347108e+01 1.367836e+01 1.297789e+01 5.267674e+00 -3.570716e+00 -4.874465e+00 -4.502776e+00 -4.691170e+00 -4.533606e+00 -4.605309e+00 -4.529380e+00 -4.560235e+00 -4.515929e+00 -4.534430e+00 -4.502871e+00 -4.520148e+00 -4.493750e+00 -4.514380e+00 
-4.489292e+00 -4.517220e+00 -4.489744e+00 -4.526266e+00 -4.495305e+00 -4.543264e+00 -4.505077e+00 -4.570812e+00 -4.516369e+00 -4.617402e+00 -4.521456e+00 -4.716549e+00 -4.500316e+00 -5.004177e+00 -3.255386e+00 7.410988e+00 1.366088e+01 1.354697e+01 1.359863e+01 1.349671e+01 1.352905e+01 1.345479e+01 1.348563e+01 1.342202e+01 1.345199e+01 1.339670e+01 1.342686e+01 1.337875e+01 1.340984e+01 1.336679e+01 1.339959e+01 1.336055e+01 1.339580e+01 1.336059e+01 1.339847e+01 1.336709e+01 1.340715e+01 1.337963e+01 1.342169e+01 1.339823e+01 1.344332e+01 1.342312e+01 1.347315e+01 1.345198e+01 1.351467e+01 1.347882e+01 1.359270e+01 1.346391e+01 1.383536e+01 9.267773e+00 -1.207895e+00 -5.086182e+00 -4.425058e+00 -4.731019e+00 -4.521127e+00 -4.610693e+00 -4.529430e+00 -4.560131e+00 -4.517649e+00 -4.534312e+00 -4.504137e+00 -4.520663e+00 -4.494191e+00 -4.515336e+00 
-4.506487e+00 -4.534032e+00 -4.506969e+00 -4.544895e+00 -4.513450e+00 -4.564831e+00 -4.524924e+00 -4.597256e+00 -4.538532e+00 -4.653383e+00 -4.546114e+00 -4.775835e+00 -4.526382e+00 -5.130374e+00 -1.657493e+00 1.006803e+01 1.423479e+01 1.353124e+01 1.374984e+01 1.351401e+01 1.359992e+01 1.347259e+01 1.352505e+01 1.343491e+01 1.347385e+01 1.340257e+01 1.343499e+01 1.337577e+01 1.340647e+01 1.335658e+01 1.338874e+01 1.334666e+01 1.338170e+01 1.334639e+01 1.338478e+01 1.335581e+01 1.339752e+01 1.337470e+01 1.341925e+01 1.340149e+01 1.344894e+01 1.343340e+01 1.348782e+01 1.346722e+01 1.354402e+01 1.349077e+01 1.364953e+01 1.343616e+01 1.395088e+01 1.173478e+01 1.222138e+00 -5.090784e+00 -4.562348e+00 -4.735584e+00 -4.578563e+00 -4.620227e+00 -4.563747e+00 -4.573161e+00 -4.542835e+00 -4.548851e+00 -4.524753e+00 -4.535831e+00 -4.512407e+00 -4.531099e+00 
-4.500560e+00 -4.529109e+00 -4.499868e+00 -4.539174e+00 -4.504321e+00 -4.556701e+00 -4.512698e+00 -4.583406e+00 -4.522299e+00 -4.625085e+00 -4.527265e+00 -4.704934e+00 -4.517527e+00 -4.908182e+00 4.187745e-01 1.184883e+01 1.401070e+01 1.345343e+01 1.374254e+01 1.348241e+01 1.361720e+01 1.346795e+01 1.354623e+01 1.344434e+01 1.349791e+01 1.342078e+01 1.346283e+01 1.340108e+01 1.343832e+01 1.338716e+01 1.342338e+01 1.338024e+01 1.341755e+01 1.338112e+01 1.342049e+01 1.339018e+01 1.343185e+01 1.340745e+01 1.345135e+01 1.343279e+01 1.347915e+01 1.346598e+01 1.351674e+01 1.350643e+01 1.357132e+01 1.355228e+01 1.367056e+01 1.359312e+01 1.390546e+01 1.341354e+01 3.723522e+00 -4.793750e+00 -4.657996e+00 -4.635108e+00 -4.595831e+00 -4.576482e+00 -4.562919e+00 -4.551888e+00 -4.538248e+00 -4.537323e+00 -4.519567e+00 -4.528682e+00 -4.507023e+00 -4.525789e+00 
-4.516895e+00 -4.544160e+00 -4.516349e+00 -4.555396e+00 -4.522292e+00 -4.574263e+00 -4.533950e+00 -4.600693e+00 -4.550578e+00 -4.634298e+00 -4.573719e+00 -4.677762e+00 -4.620788e+00 -4.750997e+00 2.156330e+00 1.322319e+01 1.403994e+01 1.359009e+01 1.381430e+01 1.354195e+01 1.367124e+01 1.349812e+01 1.357923e+01 1.345908e+01 1.351439e+01 1.342475e+01 1.346656e+01 1.339636e+01 1.343242e+01 1.337606e+01 1.341114e+01 1.336554e+01 1.340224e+01 1.336560e+01 1.340511e+01 1.337649e+01 1.341912e+01 1.339805e+01 1.344348e+01 1.342966e+01 1.347724e+01 1.347102e+01 1.352057e+01 1.352480e+01 1.357671e+01 1.360135e+01 1.365463e+01 1.373408e+01 1.376512e+01 1.402126e+01 5.509802e+00 -4.371777e+00 -4.816211e+00 -4.576768e+00 -4.673641e+00 -4.573318e+00 -4.606304e+00 -4.562879e+00 -4.566442e+00 -4.551355e+00 -4.540615e+00 -4.543048e+00 -4.524670e+00 -4.540256e+00 
-4.506329e+00 -4.534487e+00 -4.504988e+00 -4.544566e+00 -4.509165e+00 -4.560314e+00 -4.518306e+00 -4.579614e+00 -4.532931e+00 -4.595303e+00 -4.559925e+00 -4.587738e+00 -4.636458e+00 -4.504859e+00 3.234324e+00 1.370028e+01 1.386104e+01 1.359337e+01 1.375113e+01 1.352117e+01 1.365081e+01 1.348569e+01 1.357687e+01 1.345819e+01 1.352230e+01 1.343344e+01 1.348193e+01 1.341267e+01 1.345357e+01 1.339794e+01 1.343626e+01 1.339080e+01 1.342936e+01 1.339218e+01 1.343240e+01 1.340265e+01 1.344499e+01 1.342258e+01 1.346674e+01 1.345241e+01 1.349713e+01 1.349347e+01 1.353554e+01 1.355090e+01 1.358120e+01 1.364202e+01 1.362840e+01 1.381810e+01 1.363423e+01 1.421104e+01 6.774818e+00 -3.800549e+00 -4.817862e+00 -4.449227e+00 -4.660807e+00 -4.516322e+00 -4.590977e+00 -4.533709e+00 -4.552623e+00 -4.533988e+00 -4.528694e+00 -4.530910e+00 -4.513911e+00 -4.530253e+00 
-4.520455e+00 -4.547318e+00 -4.519526e+00 -4.558399e+00 -4.525389e+00 -4.575820e+00 -4.537632e+00 -4.596421e+00 -4.557250e+00 -4.609055e+00 -4.592260e+00 -4.579040e+00 -4.681954e+00 -4.398287e+00 3.704760e+00 1.394315e+01 1.389621e+01 1.368298e+01 1.380302e+01 1.357052e+01 1.368746e+01 1.351142e+01 1.359653e+01 1.346844e+01 1.352836e+01 1.343260e+01 1.347757e+01 1.340345e+01 1.344143e+01 1.338275e+01 1.341893e+01 1.337207e+01 1.340940e+01 1.337227e+01 1.341218e+01 1.338368e+01 1.342659e+01 1.340634e+01 1.345180e+01 1.344015e+01 1.348673e+01 1.348630e+01 1.353033e+01 1.355136e+01 1.358130e+01 1.365782e+01 1.363238e+01 1.387066e+01 1.363895e+01 1.434588e+01 7.186861e+00 -3.719024e+00 -4.910238e+00 -4.483799e+00 -4.714489e+00 -4.543145e+00 -4.624786e+00 -4.554445e+00 -4.576004e+00 -4.550469e+00 -4.546542e+00 -4.544844e+00 -4.529000e+00 -4.543054e+00 