# vtk DataFile Version 2.0
Comment goes here
ASCII

DATASET STRUCTURED_POINTS
FIELD FieldData 1
TIME 1 1 double
1.96000000
DIMENSIONS    64   64   1

ORIGIN    0.000   0.000   0.000
SPACING   0.015625 0.015625   1.000

POINT_DATA   4096
SCALARS P double
LOOKUP_TABLE default

-3.817759e+00 -3.815831e+00 -3.818384e+00 -3.817731e+00 -3.820116e+00 -3.820951e+00 -3.822973e+00 -3.825448e+00 -3.826983e+00 -3.831162e+00 -3.832180e+00 -3.838009e+00 -3.838580e+00 -3.845853e+00 -3.846139e+00 -3.854464e+00 -3.854674e+00 -3.863456e+00 -3.863782e+00 -3.872253e+00 -3.872791e+00 -3.880106e+00 -3.880808e+00 -3.886221e+00 -3.886898e+00 -3.889968e+00 -3.890401e+00 -3.891176e+00 -3.891324e+00 -3.890420e+00 -3.890609e+00 -3.889014e+00 -3.889713e+00 -3.888178e+00 -3.889415e+00 -3.887947e+00 -3.889101e+00 -3.887182e+00 -3.887448e+00 -3.884690e+00 -3.883599e+00 -3.879993e+00 -3.877544e+00 -3.873294e+00 -3.869838e+00 -3.865192e+00 -3.861265e+00 -3.856429e+00 -3.852605e+00 -3.847712e+00 -3.844474e+00 -3.839596e+00 -3.837266e+00 -3.832438e+00 -3.831171e+00 -3.826435e+00 -3.826240e+00 -3.821680e+00 -3.822457e+00 -3.818218e+00 -3.819794e+00 -3.816077e+00 -3.818230e+00 -3.815278e+00 
-3.821286e+00 -3.819521e+00 -3.821166e+00 -3.820709e+00 -3.822134e+00 -3.823186e+00 -3.824202e+00 -3.826884e+00 -3.827377e+00 -3.831707e+00 -3.831664e+00 -3.837523e+00 -3.837045e+00 -3.844151e+00 -3.843440e+00 -3.851328e+00 -3.850641e+00 -3.858678e+00 -3.858254e+00 -3.865714e+00 -3.865692e+00 -3.871906e+00 -3.872289e+00 -3.876846e+00 -3.877536e+00 -3.880433e+00 -3.881330e+00 -3.882889e+00 -3.883921e+00 -3.884490e+00 -3.885505e+00 -3.885217e+00 -3.886037e+00 -3.884939e+00 -3.885506e+00 -3.883707e+00 -3.884081e+00 -3.881755e+00 -3.881950e+00 -3.879188e+00 -3.879021e+00 -3.875779e+00 -3.875008e+00 -3.871259e+00 -3.869777e+00 -3.865591e+00 -3.863519e+00 -3.859034e+00 -3.856677e+00 -3.852031e+00 -3.849761e+00 -3.845051e+00 -3.843199e+00 -3.838485e+00 -3.837278e+00 -3.832626e+00 -3.832166e+00 -3.827679e+00 -3.827958e+00 -3.823796e+00 -3.824714e+00 -3.821092e+00 -3.822477e+00 -3.819651e+00 
-3.817211e+00 -3.815159e+00 -3.817831e+00 -3.817073e+00 -3.819558e+00 -3.820322e+00 -3.822414e+00 -3.824870e+00 -3.826437e+00 -3.830664e+00 -3.831670e+00 -3.837630e+00 -3.838147e+00 -3.845641e+00 -3.845840e+00 -3.854472e+00 -3.854583e+00 -3.863734e+00 -3.863981e+00 -3.872836e+00 -3.873357e+00 -3.881008e+00 -3.881778e+00 -3.887411e+00 -3.888224e+00 -3.891335e+00 -3.891887e+00 -3.892482e+00 -3.892611e+00 -3.891360e+00 -3.891441e+00 -3.889557e+00 -3.890276e+00 -3.888709e+00 -3.890173e+00 -3.888843e+00 -3.890261e+00 -3.888398e+00 -3.888774e+00 -3.885921e+00 -3.884759e+00 -3.881010e+00 -3.878375e+00 -3.874012e+00 -3.870315e+00 -3.865604e+00 -3.861429e+00 -3.856559e+00 -3.852518e+00 -3.847603e+00 -3.844202e+00 -3.839295e+00 -3.836869e+00 -3.831995e+00 -3.830697e+00 -3.825893e+00 -3.825724e+00 -3.821073e+00 -3.821922e+00 -3.817571e+00 -3.819252e+00 -3.815409e+00 -3.817685e+00 -3.814602e+00 
-3.820214e+00 -3.818202e+00 -3.820079e+00 -3.819426e+00 -3.821045e+00 -3.821985e+00 -3.823132e+00 -3.825822e+00 -3.826361e+00 -3.830853e+00 -3.830758e+00 -3.836955e+00 -3.836328e+00 -3.843947e+00 -3.843013e+00 -3.851550e+00 -3.850616e+00 -3.859345e+00 -3.858717e+00 -3.866768e+00 -3.866654e+00 -3.873199e+00 -3.873628e+00 -3.878189e+00 -3.879037e+00 -3.881741e+00 -3.882907e+00 -3.884380e+00 -3.885854e+00 -3.886579e+00 -3.888023e+00 -3.887866e+00 -3.888807e+00 -3.887544e+00 -3.887885e+00 -3.885672e+00 -3.885756e+00 -3.883060e+00 -3.883187e+00 -3.880267e+00 -3.880199e+00 -3.876903e+00 -3.876212e+00 -3.872416e+00 -3.870873e+00 -3.866627e+00 -3.864333e+00 -3.859782e+00 -3.857105e+00 -3.852390e+00 -3.849790e+00 -3.844996e+00 -3.842879e+00 -3.838053e+00 -3.836687e+00 -3.831880e+00 -3.831382e+00 -3.826695e+00 -3.827046e+00 -3.822645e+00 -3.823720e+00 -3.819836e+00 -3.821435e+00 -3.818342e+00 
-3.815569e+00 -3.813129e+00 -3.816173e+00 -3.815084e+00 -3.817881e+00 -3.818418e+00 -3.820730e+00 -3.823111e+00 -3.824779e+00 -3.829138e+00 -3.830108e+00 -3.836451e+00 -3.836797e+00 -3.844955e+00 -3.844869e+00 -3.854439e+00 -3.854212e+00 -3.864508e+00 -3.864471e+00 -3.874534e+00 -3.874963e+00 -3.883681e+00 -3.884667e+00 -3.891012e+00 -3.892317e+00 -3.895590e+00 -3.896613e+00 -3.896612e+00 -3.896640e+00 -3.894131e+00 -3.893685e+00 -3.890752e+00 -3.891454e+00 -3.889878e+00 -3.892185e+00 -3.891508e+00 -3.893902e+00 -3.892276e+00 -3.893014e+00 -3.889776e+00 -3.888342e+00 -3.884092e+00 -3.880837e+00 -3.876124e+00 -3.871664e+00 -3.866780e+00 -3.861834e+00 -3.856894e+00 -3.852183e+00 -3.847223e+00 -3.843329e+00 -3.838350e+00 -3.835638e+00 -3.830633e+00 -3.829250e+00 -3.824242e+00 -3.824163e+00 -3.819234e+00 -3.820311e+00 -3.815618e+00 -3.817624e+00 -3.813395e+00 -3.816052e+00 -3.812564e+00 
-3.818059e+00 -3.815523e+00 -3.817893e+00 -3.816814e+00 -3.818852e+00 -3.819534e+00 -3.820968e+00 -3.823644e+00 -3.824291e+00 -3.829084e+00 -3.828883e+00 -3.835754e+00 -3.834804e+00 -3.843483e+00 -3.842048e+00 -3.851964e+00 -3.850450e+00 -3.860693e+00 -3.859571e+00 -3.868939e+00 -3.868591e+00 -3.875848e+00 -3.876371e+00 -3.880791e+00 -3.881944e+00 -3.883960e+00 -3.885604e+00 -3.886771e+00 -3.889320e+00 -3.890643e+00 -3.893266e+00 -3.893660e+00 -3.894892e+00 -3.893248e+00 -3.892844e+00 -3.889488e+00 -3.888692e+00 -3.885089e+00 -3.885139e+00 -3.882020e+00 -3.882340e+00 -3.879038e+00 -3.878642e+00 -3.874786e+00 -3.873151e+00 -3.868795e+00 -3.866012e+00 -3.861347e+00 -3.857955e+00 -3.853127e+00 -3.849803e+00 -3.844865e+00 -3.842180e+00 -3.837140e+00 -3.835447e+00 -3.830332e+00 -3.829765e+00 -3.824671e+00 -3.825185e+00 -3.820292e+00 -3.821709e+00 -3.817278e+00 -3.819334e+00 -3.815679e+00 
-3.812843e+00 -3.809713e+00 -3.813419e+00 -3.811729e+00 -3.815086e+00 -3.815191e+00 -3.817903e+00 -3.820108e+00 -3.821966e+00 -3.826494e+00 -3.827408e+00 -3.834354e+00 -3.834381e+00 -3.843644e+00 -3.843003e+00 -3.854192e+00 -3.853263e+00 -3.865599e+00 -3.864902e+00 -3.877170e+00 -3.877286e+00 -3.887985e+00 -3.889332e+00 -3.897060e+00 -3.899486e+00 -3.903233e+00 -3.905619e+00 -3.904508e+00 -3.904212e+00 -3.898686e+00 -3.896406e+00 -3.890881e+00 -3.891209e+00 -3.890005e+00 -3.894458e+00 -3.895988e+00 -3.900795e+00 -3.899793e+00 -3.901186e+00 -3.896794e+00 -3.894616e+00 -3.889256e+00 -3.884760e+00 -3.879450e+00 -3.873590e+00 -3.868525e+00 -3.862199e+00 -3.857255e+00 -3.851371e+00 -3.846417e+00 -3.841683e+00 -3.836631e+00 -3.833454e+00 -3.828251e+00 -3.826757e+00 -3.821410e+00 -3.821519e+00 -3.816113e+00 -3.817611e+00 -3.812323e+00 -3.814912e+00 -3.810006e+00 -3.813338e+00 -3.809138e+00 
-3.814805e+00 -3.811410e+00 -3.814596e+00 -3.812797e+00 -3.815536e+00 -3.815745e+00 -3.817674e+00 -3.820245e+00 -3.821095e+00 -3.826277e+00 -3.825924e+00 -3.833788e+00 -3.832296e+00 -3.842633e+00 -3.840303e+00 -3.852493e+00 -3.849880e+00 -3.862753e+00 -3.860630e+00 -3.872408e+00 -3.871561e+00 -3.880116e+00 -3.880848e+00 -3.884644e+00 -3.886256e+00 -3.886147e+00 -3.888052e+00 -3.888178e+00 -3.892950e+00 -3.896291e+00 -3.901882e+00 -3.904183e+00 -3.906057e+00 -3.903627e+00 -3.901006e+00 -3.894735e+00 -3.891512e+00 -3.885986e+00 -3.886305e+00 -3.883476e+00 -3.885052e+00 -3.882064e+00 -3.882485e+00 -3.878581e+00 -3.876874e+00 -3.872355e+00 -3.868683e+00 -3.863890e+00 -3.859205e+00 -3.854277e+00 -3.849690e+00 -3.844600e+00 -3.840966e+00 -3.835641e+00 -3.833436e+00 -3.827862e+00 -3.827223e+00 -3.821494e+00 -3.822311e+00 -3.816638e+00 -3.818638e+00 -3.813331e+00 -3.816149e+00 -3.811587e+00 
-3.809070e+00 -3.804880e+00 -3.809598e+00 -3.806966e+00 -3.811190e+00 -3.810579e+00 -3.813926e+00 -3.815764e+00 -3.817943e+00 -3.822592e+00 -3.823443e+00 -3.831141e+00 -3.830672e+00 -3.841455e+00 -3.839880e+00 -3.853439e+00 -3.851221e+00 -3.866703e+00 -3.864619e+00 -3.880427e+00 -3.879615e+00 -3.893531e+00 -3.895237e+00 -3.905295e+00 -3.909949e+00 -3.915141e+00 -3.921681e+00 -3.919227e+00 -3.918189e+00 -3.905579e+00 -3.897289e+00 -3.885207e+00 -3.883802e+00 -3.884432e+00 -3.894467e+00 -3.903071e+00 -3.913738e+00 -3.913982e+00 -3.916027e+00 -3.907945e+00 -3.903688e+00 -3.896164e+00 -3.889487e+00 -3.883464e+00 -3.875423e+00 -3.870461e+00 -3.862014e+00 -3.857351e+00 -3.849705e+00 -3.844930e+00 -3.838995e+00 -3.833927e+00 -3.830140e+00 -3.824694e+00 -3.823118e+00 -3.817290e+00 -3.817750e+00 -3.811640e+00 -3.813818e+00 -3.807641e+00 -3.811136e+00 -3.805210e+00 -3.809576e+00 -3.804296e+00 
-3.810456e+00 -3.805773e+00 -3.810194e+00 -3.807276e+00 -3.811093e+00 -3.810497e+00 -3.813217e+00 -3.815471e+00 -3.816696e+00 -3.822243e+00 -3.821722e+00 -3.830832e+00 -3.828537e+00 -3.841170e+00 -3.837383e+00 -3.852970e+00 -3.848401e+00 -3.865545e+00 -3.861455e+00 -3.877562e+00 -3.875662e+00 -3.886836e+00 -3.888238e+00 -3.890441e+00 -3.893046e+00 -3.886774e+00 -3.886575e+00 -3.882968e+00 -3.892360e+00 -3.902333e+00 -3.915833e+00 -3.924079e+00 -3.927522e+00 -3.923287e+00 -3.914223e+00 -3.900053e+00 -3.889928e+00 -3.880248e+00 -3.882912e+00 -3.883090e+00 -3.888248e+00 -3.886313e+00 -3.888566e+00 -3.884436e+00 -3.882662e+00 -3.877859e+00 -3.872560e+00 -3.867701e+00 -3.860769e+00 -3.855876e+00 -3.849230e+00 -3.844074e+00 -3.838999e+00 -3.833365e+00 -3.830458e+00 -3.824275e+00 -3.823616e+00 -3.816993e+00 -3.818340e+00 -3.811544e+00 -3.814467e+00 -3.807886e+00 -3.811868e+00 -3.805973e+00 
-3.804323e+00 -3.798611e+00 -3.804783e+00 -3.800759e+00 -3.806249e+00 -3.804517e+00 -3.808821e+00 -3.809972e+00 -3.812676e+00 -3.817255e+00 -3.818083e+00 -3.826542e+00 -3.825399e+00 -3.838015e+00 -3.835032e+00 -3.851747e+00 -3.847360e+00 -3.867421e+00 -3.862598e+00 -3.883920e+00 -3.880636e+00 -3.899494e+00 -3.900856e+00 -3.914133e+00 -3.922017e+00 -3.931539e+00 -3.951821e+00 -3.950639e+00 -3.948663e+00 -3.918535e+00 -3.890697e+00 -3.860546e+00 -3.853155e+00 -3.860044e+00 -3.885770e+00 -3.917199e+00 -3.942795e+00 -3.944215e+00 -3.944585e+00 -3.923912e+00 -3.913622e+00 -3.902962e+00 -3.893071e+00 -3.886905e+00 -3.875916e+00 -3.872078e+00 -3.860555e+00 -3.856828e+00 -3.846702e+00 -3.842421e+00 -3.834924e+00 -3.829951e+00 -3.825479e+00 -3.819756e+00 -3.818221e+00 -3.811755e+00 -3.812824e+00 -3.805746e+00 -3.808954e+00 -3.801536e+00 -3.806349e+00 -3.798989e+00 -3.804836e+00 -3.798024e+00 
-3.805050e+00 -3.798529e+00 -3.804733e+00 -3.800153e+00 -3.805555e+00 -3.803655e+00 -3.807595e+00 -3.809131e+00 -3.811022e+00 -3.816713e+00 -3.816103e+00 -3.826542e+00 -3.823197e+00 -3.838690e+00 -3.832719e+00 -3.853018e+00 -3.845117e+00 -3.868928e+00 -3.860915e+00 -3.884949e+00 -3.880511e+00 -3.898004e+00 -3.901714e+00 -3.901562e+00 -3.908888e+00 -3.885367e+00 -3.870986e+00 -3.853214e+00 -3.873232e+00 -3.905443e+00 -3.941453e+00 -3.966887e+00 -3.974546e+00 -3.965696e+00 -3.938197e+00 -3.901281e+00 -3.870207e+00 -3.850649e+00 -3.865690e+00 -3.880767e+00 -3.894850e+00 -3.894034e+00 -3.899317e+00 -3.893671e+00 -3.891618e+00 -3.886297e+00 -3.877835e+00 -3.873208e+00 -3.862350e+00 -3.857882e+00 -3.847985e+00 -3.843008e+00 -3.835886e+00 -3.829969e+00 -3.826224e+00 -3.819261e+00 -3.818766e+00 -3.810928e+00 -3.813181e+00 -3.804837e+00 -3.809169e+00 -3.800821e+00 -3.806506e+00 -3.798745e+00 
-3.798732e+00 -3.790913e+00 -3.799096e+00 -3.793094e+00 -3.800368e+00 -3.796953e+00 -3.802656e+00 -3.802616e+00 -3.806165e+00 -3.810274e+00 -3.811220e+00 -3.820202e+00 -3.818284e+00 -3.832782e+00 -3.827932e+00 -3.848456e+00 -3.840801e+00 -3.867294e+00 -3.857479e+00 -3.887665e+00 -3.878340e+00 -3.904850e+00 -3.903405e+00 -3.917841e+00 -3.922962e+00 -3.944159e+00 -4.013334e+00 -4.031921e+00 -4.032014e+00 -3.954525e+00 -3.861411e+00 -3.778020e+00 -3.752960e+00 -3.777417e+00 -3.849784e+00 -3.958045e+00 -4.025098e+00 -4.020669e+00 -4.004757e+00 -3.939274e+00 -3.911520e+00 -3.902964e+00 -3.891286e+00 -3.887358e+00 -3.873184e+00 -3.873186e+00 -3.857126e+00 -3.855418e+00 -3.841885e+00 -3.838438e+00 -3.829098e+00 -3.824313e+00 -3.819238e+00 -3.813186e+00 -3.811967e+00 -3.804668e+00 -3.806743e+00 -3.798366e+00 -3.803087e+00 -3.793990e+00 -3.800657e+00 -3.791350e+00 -3.799242e+00 -3.790337e+00 
-3.798675e+00 -3.789618e+00 -3.798306e+00 -3.791340e+00 -3.799001e+00 -3.795070e+00 -3.800842e+00 -3.800979e+00 -3.804030e+00 -3.809320e+00 -3.808902e+00 -3.820398e+00 -3.815923e+00 -3.834513e+00 -3.825632e+00 -3.851830e+00 -3.838645e+00 -3.872140e+00 -3.856224e+00 -3.894493e+00 -3.882427e+00 -3.916785e+00 -3.926314e+00 -3.928923e+00 -3.965262e+00 -3.895165e+00 -3.811566e+00 -3.737863e+00 -3.788496e+00 -3.898888e+00 -4.001265e+00 -4.072182e+00 -4.091118e+00 -4.070793e+00 -3.992104e+00 -3.887809e+00 -3.787475e+00 -3.739473e+00 -3.812330e+00 -3.893000e+00 -3.923959e+00 -3.912474e+00 -3.919143e+00 -3.907234e+00 -3.904484e+00 -3.899065e+00 -3.884134e+00 -3.880845e+00 -3.863103e+00 -3.859959e+00 -3.845126e+00 -3.840785e+00 -3.831000e+00 -3.824852e+00 -3.820332e+00 -3.812349e+00 -3.812453e+00 -3.802972e+00 -3.806748e+00 -3.796315e+00 -3.802745e+00 -3.792021e+00 -3.800120e+00 -3.789835e+00 
-3.792476e+00 -3.781821e+00 -3.792714e+00 -3.783976e+00 -3.793706e+00 -3.787844e+00 -3.795552e+00 -3.793584e+00 -3.798458e+00 -3.801419e+00 -3.802782e+00 -3.811676e+00 -3.809070e+00 -3.824932e+00 -3.818055e+00 -3.842329e+00 -3.830622e+00 -3.865517e+00 -3.847738e+00 -3.893518e+00 -3.870139e+00 -3.911792e+00 -3.907044e+00 -3.903086e+00 -3.848345e+00 -3.892629e+00 -4.147878e+00 -4.285766e+00 -4.308594e+00 -4.071539e+00 -3.674797e+00 -3.283996e+00 -3.139789e+00 -3.285383e+00 -3.637608e+00 -4.096038e+00 -4.307135e+00 -4.248814e+00 -4.140007e+00 -3.910316e+00 -3.834930e+00 -3.878449e+00 -3.882774e+00 -3.882289e+00 -3.864929e+00 -3.875629e+00 -3.851751e+00 -3.852935e+00 -3.834890e+00 -3.832175e+00 -3.821069e+00 -3.816428e+00 -3.811134e+00 -3.804675e+00 -3.804259e+00 -3.795886e+00 -3.799543e+00 -3.789451e+00 -3.796330e+00 -3.785007e+00 -3.794212e+00 -3.782327e+00 -3.792964e+00 -3.781281e+00 
-3.791466e+00 -3.779017e+00 -3.791061e+00 -3.780771e+00 -3.791560e+00 -3.784585e+00 -3.793033e+00 -3.790717e+00 -3.795695e+00 -3.799564e+00 -3.799952e+00 -3.811644e+00 -3.806399e+00 -3.827559e+00 -3.815631e+00 -3.847935e+00 -3.827765e+00 -3.873144e+00 -3.842447e+00 -3.902932e+00 -3.865177e+00 -3.943200e+00 -3.951071e+00 -3.997460e+00 -4.208244e+00 -3.918480e+00 -2.876935e+00 -7.976012e-01 1.322729e+00 3.315182e+00 5.074167e+00 6.216187e+00 6.588587e+00 6.200973e+00 5.065822e+00 3.228443e+00 1.455804e+00 -8.713616e-01 -3.086175e+00 -3.987966e+00 -4.074029e+00 -3.952560e+00 -3.942734e+00 -3.918045e+00 -3.917809e+00 -3.918400e+00 -3.889435e+00 -3.890672e+00 -3.861093e+00 -3.860945e+00 -3.839190e+00 -3.836098e+00 -3.823397e+00 -3.816977e+00 -3.812244e+00 -3.802833e+00 -3.804420e+00 -3.792699e+00 -3.798964e+00 -3.785752e+00 -3.795231e+00 -3.781387e+00 -3.792813e+00 -3.779209e+00 
-3.785764e+00 -3.771386e+00 -3.785844e+00 -3.773417e+00 -3.786458e+00 -3.777141e+00 -3.787668e+00 -3.782754e+00 -3.789638e+00 -3.790470e+00 -3.792711e+00 -3.800495e+00 -3.797492e+00 -3.813263e+00 -3.804874e+00 -3.830614e+00 -3.815990e+00 -3.858760e+00 -3.832336e+00 -3.907920e+00 -3.846789e+00 -3.943249e+00 -3.997197e+00 -3.671159e+00 -2.519289e+00 1.618012e+00 5.878773e+00 9.152594e+00 1.166267e+01 1.286490e+01 1.358588e+01 1.380826e+01 1.387893e+01 1.379998e+01 1.352205e+01 1.285596e+01 1.172418e+01 8.979013e+00 5.617235e+00 1.744299e+00 -2.108745e+00 -3.769502e+00 -3.930531e+00 -3.879462e+00 -3.843394e+00 -3.888037e+00 -3.847282e+00 -3.847635e+00 -3.825079e+00 -3.821539e+00 -3.809955e+00 -3.805339e+00 -3.800701e+00 -3.793859e+00 -3.794968e+00 -3.785261e+00 -3.791281e+00 -3.778944e+00 -3.788829e+00 -3.774591e+00 -3.787202e+00 -3.771967e+00 -3.786207e+00 -3.770917e+00 
-3.783602e+00 -3.766752e+00 -3.783184e+00 -3.768413e+00 -3.783403e+00 -3.772036e+00 -3.784277e+00 -3.777978e+00 -3.785987e+00 -3.786795e+00 -3.789001e+00 -3.799227e+00 -3.794224e+00 -3.816255e+00 -3.802806e+00 -3.839268e+00 -3.814371e+00 -3.869487e+00 -3.820715e+00 -3.901277e+00 -3.787406e+00 -3.882893e+00 -3.111073e+00 1.510843e+00 5.971974e+00 1.013284e+01 1.297602e+01 1.342900e+01 1.379795e+01 1.362781e+01 1.350938e+01 1.337214e+01 1.335660e+01 1.338129e+01 1.350472e+01 1.369709e+01 1.379509e+01 1.350019e+01 1.301882e+01 1.048458e+01 6.080281e+00 1.053077e+00 -2.814649e+00 -3.887161e+00 -3.923732e+00 -3.956966e+00 -3.891009e+00 -3.901335e+00 -3.852864e+00 -3.857641e+00 -3.827848e+00 -3.826339e+00 -3.811744e+00 -3.804649e+00 -3.801288e+00 -3.789728e+00 -3.794393e+00 -3.779591e+00 -3.789780e+00 -3.772922e+00 -3.786702e+00 -3.768861e+00 -3.784726e+00 -3.766889e+00 
-3.778806e+00 -3.759663e+00 -3.778703e+00 -3.761413e+00 -3.778842e+00 -3.764757e+00 -3.779198e+00 -3.769969e+00 -3.779813e+00 -3.777272e+00 -3.780922e+00 -3.786515e+00 -3.783180e+00 -3.796843e+00 -3.787769e+00 -3.807971e+00 -3.796152e+00 -3.831239e+00 -3.820032e+00 -3.939821e+00 -3.648798e+00 -1.349390e+00 3.242943e+00 9.488543e+00 1.289635e+01 1.331885e+01 1.338579e+01 1.314992e+01 1.318367e+01 1.326295e+01 1.340670e+01 1.347786e+01 1.351659e+01 1.348024e+01 1.339823e+01 1.328164e+01 1.319485e+01 1.319336e+01 1.339314e+01 1.334562e+01 1.261768e+01 9.250657e+00 3.613747e+00 -1.531206e+00 -3.754472e+00 -3.935752e+00 -3.864344e+00 -3.826872e+00 -3.808400e+00 -3.801477e+00 -3.793461e+00 -3.789962e+00 -3.787110e+00 -3.780496e+00 -3.783923e+00 -3.772643e+00 -3.782051e+00 -3.766744e+00 -3.780767e+00 -3.762716e+00 -3.779828e+00 -3.760307e+00 -3.779178e+00 -3.759315e+00 
-3.775287e+00 -3.752935e+00 -3.774904e+00 -3.754300e+00 -3.774764e+00 -3.757299e+00 -3.774762e+00 -3.762381e+00 -3.774898e+00 -3.770244e+00 -3.775543e+00 -3.781802e+00 -3.778140e+00 -3.798355e+00 -3.786406e+00 -3.822976e+00 -3.806221e+00 -3.864884e+00 -3.840278e+00 -3.772039e+00 -1.149908e+00 5.626811e+00 1.104890e+01 1.288656e+01 1.323283e+01 1.321948e+01 1.323256e+01 1.333765e+01 1.343290e+01 1.341768e+01 1.341365e+01 1.337978e+01 1.337958e+01 1.338482e+01 1.340975e+01 1.343358e+01 1.342545e+01 1.333055e+01 1.322509e+01 1.315880e+01 1.316084e+01 1.303353e+01 1.127147e+01 5.597711e+00 -9.116660e-01 -3.755815e+00 -3.896938e+00 -3.900556e+00 -3.832210e+00 -3.842285e+00 -3.807681e+00 -3.806928e+00 -3.794374e+00 -3.785522e+00 -3.786774e+00 -3.771900e+00 -3.782179e+00 -3.763158e+00 -3.779231e+00 -3.757681e+00 -3.777289e+00 -3.754483e+00 -3.776037e+00 -3.752990e+00 
-3.771797e+00 -3.746737e+00 -3.771504e+00 -3.747959e+00 -3.771105e+00 -3.750535e+00 -3.770420e+00 -3.754943e+00 -3.769203e+00 -3.761701e+00 -3.767351e+00 -3.770667e+00 -3.765582e+00 -3.778643e+00 -3.766057e+00 -3.772791e+00 -3.762014e+00 -3.720258e+00 -3.610328e+00 -1.110524e+00 5.622828e+00 1.163429e+01 1.323780e+01 1.319702e+01 1.318555e+01 1.324671e+01 1.325874e+01 1.322457e+01 1.324717e+01 1.327341e+01 1.332064e+01 1.335039e+01 1.336152e+01 1.335124e+01 1.331654e+01 1.327716e+01 1.324371e+01 1.322651e+01 1.324946e+01 1.322581e+01 1.316797e+01 1.316598e+01 1.322390e+01 1.162617e+01 5.815206e+00 -1.077367e+00 -3.555892e+00 -3.728725e+00 -3.752759e+00 -3.767890e+00 -3.767963e+00 -3.771946e+00 -3.769758e+00 -3.765058e+00 -3.771207e+00 -3.757852e+00 -3.772108e+00 -3.752639e+00 -3.772391e+00 -3.749312e+00 -3.772304e+00 -3.747402e+00 -3.772068e+00 -3.746581e+00 
-3.766771e+00 -3.737840e+00 -3.766506e+00 -3.738624e+00 -3.765998e+00 -3.740394e+00 -3.764918e+00 -3.743665e+00 -3.762771e+00 -3.749260e+00 -3.759115e+00 -3.758163e+00 -3.754918e+00 -3.770923e+00 -3.757247e+00 -3.789066e+00 -3.786628e+00 -3.822752e+00 -1.730431e+00 5.078698e+00 1.154143e+01 1.319366e+01 1.316166e+01 1.320500e+01 1.320658e+01 1.323814e+01 1.324421e+01 1.329540e+01 1.331936e+01 1.333993e+01 1.334007e+01 1.334558e+01 1.333775e+01 1.334566e+01 1.333533e+01 1.333795e+01 1.330986e+01 1.328047e+01 1.323027e+01 1.320643e+01 1.318479e+01 1.317550e+01 1.316654e+01 1.310054e+01 1.173934e+01 5.316558e+00 -1.674408e+00 -3.896242e+00 -3.773206e+00 -3.804263e+00 -3.775289e+00 -3.772334e+00 -3.770098e+00 -3.757642e+00 -3.768495e+00 -3.748654e+00 -3.767952e+00 -3.743236e+00 -3.767567e+00 -3.740138e+00 -3.767239e+00 -3.738495e+00 -3.766983e+00 -3.737802e+00 
-3.764913e+00 -3.732824e+00 -3.764471e+00 -3.733139e+00 -3.763577e+00 -3.734273e+00 -3.761827e+00 -3.737017e+00 -3.758433e+00 -3.742859e+00 -3.752283e+00 -3.754222e+00 -3.743976e+00 -3.772906e+00 -3.748625e+00 -3.786096e+00 -3.860626e+00 -3.330719e+00 2.561932e+00 1.043995e+01 1.310980e+01 1.315107e+01 1.319375e+01 1.319731e+01 1.319446e+01 1.322822e+01 1.322437e+01 1.324173e+01 1.324288e+01 1.326995e+01 1.327554e+01 1.330020e+01 1.329145e+01 1.329919e+01 1.327212e+01 1.326639e+01 1.323689e+01 1.323168e+01 1.321402e+01 1.320296e+01 1.317871e+01 1.314873e+01 1.317116e+01 1.304240e+01 1.310825e+01 1.045379e+01 3.115302e+00 -2.895522e+00 -3.871801e+00 -3.771117e+00 -3.755230e+00 -3.763518e+00 -3.751169e+00 -3.748546e+00 -3.757863e+00 -3.740180e+00 -3.762137e+00 -3.736198e+00 -3.764109e+00 -3.734328e+00 -3.764875e+00 -3.733409e+00 -3.765058e+00 -3.732951e+00 
-3.758361e+00 -3.722021e+00 -3.758356e+00 -3.721875e+00 -3.757647e+00 -3.721667e+00 -3.755662e+00 -3.721893e+00 -3.751133e+00 -3.723639e+00 -3.741498e+00 -3.728838e+00 -3.723111e+00 -3.736666e+00 -3.700391e+00 -3.706156e+00 -3.672458e+00 4.095306e-01 8.613558e+00 1.269319e+01 1.307352e+01 1.313754e+01 1.313940e+01 1.319467e+01 1.318576e+01 1.323603e+01 1.322610e+01 1.327546e+01 1.326834e+01 1.330460e+01 1.329008e+01 1.331526e+01 1.329413e+01 1.331342e+01 1.328595e+01 1.329825e+01 1.326068e+01 1.326251e+01 1.321627e+01 1.321954e+01 1.317622e+01 1.319030e+01 1.313798e+01 1.318327e+01 1.306661e+01 1.295889e+01 9.149846e+00 1.574504e-01 -3.815800e+00 -3.642541e+00 -3.749400e+00 -3.719078e+00 -3.740472e+00 -3.722426e+00 -3.747687e+00 -3.720685e+00 -3.752703e+00 -3.720364e+00 -3.755435e+00 -3.720864e+00 -3.756980e+00 -3.721488e+00 -3.757894e+00 -3.721906e+00 
-3.758345e+00 -3.718449e+00 -3.757857e+00 -3.717360e+00 -3.756687e+00 -3.715982e+00 -3.754286e+00 -3.715072e+00 -3.749170e+00 -3.716827e+00 -3.737202e+00 -3.728077e+00 -3.706329e+00 -3.770344e+00 -3.619820e+00 -3.908186e+00 -2.893386e+00 4.382265e+00 1.222601e+01 1.322616e+01 1.300782e+01 1.318530e+01 1.312868e+01 1.320496e+01 1.317302e+01 1.322866e+01 1.320389e+01 1.324671e+01 1.322630e+01 1.326465e+01 1.324555e+01 1.327800e+01 1.325311e+01 1.327639e+01 1.324319e+01 1.325933e+01 1.322169e+01 1.323577e+01 1.319613e+01 1.320891e+01 1.316013e+01 1.317434e+01 1.310593e+01 1.314509e+01 1.296343e+01 1.320854e+01 1.196237e+01 4.614360e+00 -2.252000e+00 -3.923870e+00 -3.627627e+00 -3.760378e+00 -3.719294e+00 -3.723254e+00 -3.745051e+00 -3.716617e+00 -3.753352e+00 -3.716806e+00 -3.756481e+00 -3.718001e+00 -3.757814e+00 -3.718820e+00 -3.758339e+00 -3.718972e+00 
-3.750444e+00 -3.706441e+00 -3.750872e+00 -3.705029e+00 -3.750333e+00 -3.702038e+00 -3.748298e+00 -3.697557e+00 -3.743231e+00 -3.692735e+00 -3.730332e+00 -3.694615e+00 -3.692512e+00 -3.739201e+00 -3.559985e+00 -3.987263e+00 2.928927e-01 8.725340e+00 1.301812e+01 1.304836e+01 1.309498e+01 1.314076e+01 1.313028e+01 1.319723e+01 1.317036e+01 1.323613e+01 1.320653e+01 1.326562e+01 1.323670e+01 1.328532e+01 1.325430e+01 1.329339e+01 1.325866e+01 1.329089e+01 1.325096e+01 1.327768e+01 1.323072e+01 1.325281e+01 1.319945e+01 1.321984e+01 1.316551e+01 1.318065e+01 1.313722e+01 1.311900e+01 1.314345e+01 1.295708e+01 1.328952e+01 9.560631e+00 7.548349e-01 -4.009474e+00 -3.549420e+00 -3.737320e+00 -3.691817e+00 -3.690087e+00 -3.726982e+00 -3.689607e+00 -3.738486e+00 -3.695712e+00 -3.743873e+00 -3.701024e+00 -3.747112e+00 -3.704532e+00 -3.749206e+00 -3.706292e+00 
-3.752331e+00 -3.704658e+00 -3.751924e+00 -3.701739e+00 -3.750816e+00 -3.696749e+00 -3.748797e+00 -3.689346e+00 -3.745346e+00 -3.679357e+00 -3.738826e+00 -3.669080e+00 -3.722163e+00 -3.675157e+00 -3.655700e+00 -3.608815e+00 3.893652e+00 1.212670e+01 1.339281e+01 1.301864e+01 1.315134e+01 1.315916e+01 1.314075e+01 1.320856e+01 1.316495e+01 1.323392e+01 1.319036e+01 1.324962e+01 1.321015e+01 1.326081e+01 1.322374e+01 1.326711e+01 1.322851e+01 1.326562e+01 1.322278e+01 1.325618e+01 1.320832e+01 1.324136e+01 1.318733e+01 1.322171e+01 1.315946e+01 1.319410e+01 1.312959e+01 1.315042e+01 1.312635e+01 1.304185e+01 1.332515e+01 1.176864e+01 4.118899e+00 -3.420949e+00 -3.766994e+00 -3.635197e+00 -3.750824e+00 -3.665577e+00 -3.747523e+00 -3.684352e+00 -3.748375e+00 -3.695338e+00 -3.749984e+00 -3.701578e+00 -3.751321e+00 -3.704758e+00 -3.752121e+00 -3.705677e+00 
-3.743487e+00 -3.692529e+00 -3.744446e+00 -3.689719e+00 -3.744379e+00 -3.683477e+00 -3.743351e+00 -3.672434e+00 -3.741795e+00 -3.653088e+00 -3.742176e+00 -3.615627e+00 -3.755906e+00 -3.526886e+00 -3.828161e+00 -2.044045e+00 7.342563e+00 1.291975e+01 1.308266e+01 1.314453e+01 1.308625e+01 1.318591e+01 1.312080e+01 1.321884e+01 1.315844e+01 1.324411e+01 1.319054e+01 1.326279e+01 1.321463e+01 1.327469e+01 1.322872e+01 1.327920e+01 1.323233e+01 1.327633e+01 1.322570e+01 1.326605e+01 1.320894e+01 1.324843e+01 1.318267e+01 1.322448e+01 1.314852e+01 1.319505e+01 1.310693e+01 1.316145e+01 1.305503e+01 1.314105e+01 1.295866e+01 1.319825e+01 7.923570e+00 -1.999931e+00 -3.872014e+00 -3.506157e+00 -3.749307e+00 -3.608459e+00 -3.728027e+00 -3.649924e+00 -3.729060e+00 -3.670784e+00 -3.733845e+00 -3.682579e+00 -3.738227e+00 -3.689269e+00 -3.741445e+00 -3.692392e+00 
-3.747222e+00 -3.693016e+00 -3.746922e+00 -3.688287e+00 -3.745850e+00 -3.679630e+00 -3.744235e+00 -3.665154e+00 -3.743312e+00 -3.640069e+00 -3.748910e+00 -3.590744e+00 -3.786903e+00 -3.471901e+00 -3.968012e+00 -5.966999e-01 1.011637e+01 1.360204e+01 1.300065e+01 1.328516e+01 1.308372e+01 1.323693e+01 1.312336e+01 1.323835e+01 1.315480e+01 1.324677e+01 1.317953e+01 1.325412e+01 1.319733e+01 1.325945e+01 1.320847e+01 1.326207e+01 1.321246e+01 1.326092e+01 1.320894e+01 1.325607e+01 1.319862e+01 1.324871e+01 1.318218e+01 1.323994e+01 1.315950e+01 1.323175e+01 1.313163e+01 1.323375e+01 1.310043e+01 1.328544e+01 1.304214e+01 1.356178e+01 1.029280e+01 -1.680277e-01 -3.880929e+00 -3.512404e+00 -3.768704e+00 -3.615882e+00 -3.743999e+00 -3.657731e+00 -3.741331e+00 -3.677594e+00 -3.743222e+00 -3.687917e+00 -3.745324e+00 -3.693037e+00 -3.746699e+00 -3.694563e+00 
-3.738087e+00 -3.682007e+00 -3.739461e+00 -3.678131e+00 -3.739563e+00 -3.669609e+00 -3.738579e+00 -3.654730e+00 -3.737244e+00 -3.629679e+00 -3.739284e+00 -3.585893e+00 -3.762057e+00 -3.503599e+00 -3.879291e+00 5.819189e-01 1.123855e+01 1.353367e+01 1.299293e+01 1.331195e+01 1.306570e+01 1.325613e+01 1.311291e+01 1.324992e+01 1.315052e+01 1.325634e+01 1.317961e+01 1.326419e+01 1.320024e+01 1.326974e+01 1.321217e+01 1.327131e+01 1.321516e+01 1.326811e+01 1.320915e+01 1.326003e+01 1.319426e+01 1.324755e+01 1.317045e+01 1.323178e+01 1.313706e+01 1.321530e+01 1.309197e+01 1.320702e+01 1.302981e+01 1.323721e+01 1.292941e+01 1.338593e+01 1.185656e+01 1.541246e+00 -3.770069e+00 -3.502620e+00 -3.706265e+00 -3.585238e+00 -3.704966e+00 -3.629011e+00 -3.714677e+00 -3.654112e+00 -3.723854e+00 -3.669145e+00 -3.730653e+00 -3.677852e+00 -3.735257e+00 -3.681915e+00 
-3.743621e+00 -3.685216e+00 -3.743319e+00 -3.679283e+00 -3.741821e+00 -3.668476e+00 -3.738851e+00 -3.650989e+00 -3.733742e+00 -3.623707e+00 -3.725302e+00 -3.582318e+00 -3.712095e+00 -3.525789e+00 -3.692161e+00 2.080199e+00 1.240549e+01 1.344885e+01 1.303095e+01 1.333249e+01 1.307836e+01 1.327902e+01 1.311755e+01 1.326186e+01 1.314912e+01 1.325809e+01 1.317279e+01 1.325841e+01 1.318934e+01 1.325965e+01 1.319951e+01 1.326028e+01 1.320339e+01 1.325942e+01 1.320106e+01 1.325722e+01 1.319306e+01 1.325491e+01 1.317996e+01 1.325437e+01 1.316198e+01 1.325932e+01 1.314038e+01 1.327988e+01 1.311975e+01 1.334083e+01 1.310782e+01 1.348298e+01 1.274622e+01 2.660293e+00 -3.703306e+00 -3.599810e+00 -3.700697e+00 -3.626981e+00 -3.716591e+00 -3.651719e+00 -3.728675e+00 -3.668874e+00 -3.736105e+00 -3.679615e+00 -3.740425e+00 -3.685416e+00 -3.742737e+00 -3.687178e+00 
-3.735048e+00 -3.676343e+00 -3.736598e+00 -3.671954e+00 -3.736471e+00 -3.662532e+00 -3.734292e+00 -3.646951e+00 -3.728513e+00 -3.624037e+00 -3.714053e+00 -3.595326e+00 -3.673944e+00 -3.576704e+00 -3.548761e+00 2.933877e+00 1.291142e+01 1.338730e+01 1.307350e+01 1.332813e+01 1.308420e+01 1.328406e+01 1.311590e+01 1.326735e+01 1.314824e+01 1.326432e+01 1.317450e+01 1.326602e+01 1.319324e+01 1.326805e+01 1.320412e+01 1.326800e+01 1.320678e+01 1.326460e+01 1.320105e+01 1.325763e+01 1.318703e+01 1.324780e+01 1.316476e+01 1.323641e+01 1.313395e+01 1.322576e+01 1.309545e+01 1.322095e+01 1.305721e+01 1.322870e+01 1.304828e+01 1.322759e+01 1.305780e+01 3.617611e+00 -3.432868e+00 -3.592406e+00 -3.602104e+00 -3.601033e+00 -3.669230e+00 -3.625852e+00 -3.700075e+00 -3.647334e+00 -3.716382e+00 -3.662472e+00 -3.725897e+00 -3.671831e+00 -3.731676e+00 -3.676292e+00 
-3.742293e+00 -3.682473e+00 -3.741958e+00 -3.676137e+00 -3.740135e+00 -3.664710e+00 -3.736039e+00 -3.646747e+00 -3.727107e+00 -3.620865e+00 -3.705134e+00 -3.589305e+00 -3.642806e+00 -3.572507e+00 -3.447610e+00 3.264249e+00 1.303124e+01 1.332701e+01 1.308124e+01 1.332069e+01 1.308915e+01 1.328744e+01 1.311877e+01 1.326938e+01 1.314790e+01 1.326226e+01 1.317064e+01 1.326013e+01 1.318669e+01 1.325993e+01 1.319659e+01 1.325993e+01 1.320048e+01 1.325917e+01 1.319853e+01 1.325785e+01 1.319131e+01 1.325727e+01 1.317953e+01 1.325950e+01 1.316387e+01 1.326787e+01 1.314707e+01 1.328823e+01 1.313985e+01 1.332339e+01 1.317340e+01 1.332262e+01 1.329628e+01 3.993814e+00 -3.369652e+00 -3.659129e+00 -3.614020e+00 -3.641293e+00 -3.691842e+00 -3.652856e+00 -3.720354e+00 -3.666748e+00 -3.732541e+00 -3.676953e+00 -3.738386e+00 -3.682801e+00 -3.741233e+00 -3.684593e+00 