# vtk DataFile Version 2.0
Comment goes here
ASCII

DATASET STRUCTURED_POINTS
FIELD FieldData 1
TIME 1 1 double
1.17000000
DIMENSIONS    64   64   1

ORIGIN    0.000   0.000   0.000
SPACING   0.015625 0.015625   1.000

POINT_DATA   4096
SCALARS P double
LOOKUP_TABLE default

-4.146107e+00 -4.147423e+00 -4.148458e+00 -4.153883e+00 -4.158554e+00 -4.168211e+00 -4.176355e+00 -4.190303e+00 -4.201785e+00 -4.219985e+00 -4.234695e+00 -4.256969e+00 -4.274792e+00 -4.300767e+00 -4.321530e+00 -4.350571e+00 -4.373954e+00 -4.405100e+00 -4.430540e+00 -4.462482e+00 -4.489107e+00 -4.520244e+00 -4.546902e+00 -4.575512e+00 -4.600896e+00 -4.625343e+00 -4.648181e+00 -4.666986e+00 -4.686121e+00 -4.697885e+00 -4.712163e+00 -4.715636e+00 -4.724051e+00 -4.718626e+00 -4.720612e+00 -4.706698e+00 -4.702154e+00 -4.681115e+00 -4.670231e+00 -4.643908e+00 -4.626974e+00 -4.597257e+00 -4.574912e+00 -4.543713e+00 -4.517215e+00 -4.486270e+00 -4.457362e+00 -4.428030e+00 -4.398567e+00 -4.371759e+00 -4.343383e+00 -4.319619e+00 -4.293595e+00 -4.273123e+00 -4.250328e+00 -4.233253e+00 -4.214225e+00 -4.200611e+00 -4.185628e+00 -4.175551e+00 -4.164703e+00 -4.158273e+00 -4.151522e+00 -4.148883e+00 
-4.151123e+00 -4.152613e+00 -4.154099e+00 -4.159795e+00 -4.164949e+00 -4.174945e+00 -4.183630e+00 -4.197952e+00 -4.210055e+00 -4.228625e+00 -4.244044e+00 -4.266645e+00 -4.285252e+00 -4.311471e+00 -4.333042e+00 -4.362203e+00 -4.386312e+00 -4.417403e+00 -4.443305e+00 -4.474920e+00 -4.501472e+00 -4.531829e+00 -4.557510e+00 -4.584592e+00 -4.607670e+00 -4.629502e+00 -4.648394e+00 -4.663439e+00 -4.677290e+00 -4.684972e+00 -4.694247e+00 -4.695283e+00 -4.701099e+00 -4.696418e+00 -4.698997e+00 -4.688611e+00 -4.686679e+00 -4.669979e+00 -4.661784e+00 -4.638912e+00 -4.623803e+00 -4.596235e+00 -4.574932e+00 -4.544769e+00 -4.518942e+00 -4.488233e+00 -4.459944e+00 -4.430338e+00 -4.401572e+00 -4.374216e+00 -4.346608e+00 -4.322197e+00 -4.296959e+00 -4.275863e+00 -4.253814e+00 -4.236216e+00 -4.217861e+00 -4.203862e+00 -4.189470e+00 -4.179159e+00 -4.168832e+00 -4.162318e+00 -4.156037e+00 -4.153453e+00 
-4.142268e+00 -4.143503e+00 -4.144621e+00 -4.149977e+00 -4.154719e+00 -4.164338e+00 -4.172544e+00 -4.186511e+00 -4.198056e+00 -4.216362e+00 -4.231155e+00 -4.253653e+00 -4.271608e+00 -4.297949e+00 -4.318921e+00 -4.348484e+00 -4.372178e+00 -4.403990e+00 -4.429851e+00 -4.462557e+00 -4.489703e+00 -4.521633e+00 -4.548877e+00 -4.578259e+00 -4.604263e+00 -4.629480e+00 -4.652979e+00 -4.672622e+00 -4.692515e+00 -4.705110e+00 -4.720083e+00 -4.724004e+00 -4.732770e+00 -4.727114e+00 -4.729033e+00 -4.714258e+00 -4.709410e+00 -4.687254e+00 -4.676064e+00 -4.648691e+00 -4.631389e+00 -4.600725e+00 -4.577796e+00 -4.545797e+00 -4.518497e+00 -4.486932e+00 -4.457135e+00 -4.427362e+00 -4.397068e+00 -4.369972e+00 -4.340919e+00 -4.316981e+00 -4.290470e+00 -4.269900e+00 -4.246798e+00 -4.229666e+00 -4.210481e+00 -4.196823e+00 -4.181795e+00 -4.171668e+00 -4.160849e+00 -4.154356e+00 -4.147674e+00 -4.144960e+00 
-4.143323e+00 -4.144677e+00 -4.146298e+00 -4.151884e+00 -4.157154e+00 -4.167108e+00 -4.175896e+00 -4.190294e+00 -4.202514e+00 -4.221337e+00 -4.236936e+00 -4.260024e+00 -4.278945e+00 -4.305937e+00 -4.328032e+00 -4.358290e+00 -4.383200e+00 -4.415714e+00 -4.442728e+00 -4.476047e+00 -4.503999e+00 -4.536229e+00 -4.563496e+00 -4.592441e+00 -4.617055e+00 -4.640470e+00 -4.660370e+00 -4.676263e+00 -4.690021e+00 -4.697419e+00 -4.705993e+00 -4.706421e+00 -4.712163e+00 -4.707414e+00 -4.711015e+00 -4.700850e+00 -4.700226e+00 -4.682976e+00 -4.675105e+00 -4.650555e+00 -4.634644e+00 -4.605008e+00 -4.582137e+00 -4.550072e+00 -4.522332e+00 -4.490104e+00 -4.459913e+00 -4.429196e+00 -4.398776e+00 -4.370668e+00 -4.341766e+00 -4.316887e+00 -4.290730e+00 -4.269364e+00 -4.246735e+00 -4.228982e+00 -4.210323e+00 -4.196220e+00 -4.181728e+00 -4.171320e+00 -4.161028e+00 -4.154400e+00 -4.148230e+00 -4.145513e+00 
-4.130766e+00 -4.131747e+00 -4.133120e+00 -4.138248e+00 -4.143206e+00 -4.152686e+00 -4.161069e+00 -4.175066e+00 -4.186781e+00 -4.205376e+00 -4.220393e+00 -4.243534e+00 -4.261851e+00 -4.289276e+00 -4.310844e+00 -4.341979e+00 -4.366583e+00 -4.400424e+00 -4.427547e+00 -4.462595e+00 -4.491315e+00 -4.525657e+00 -4.554675e+00 -4.586336e+00 -4.614181e+00 -4.641631e+00 -4.667051e+00 -4.689277e+00 -4.711607e+00 -4.727075e+00 -4.744426e+00 -4.750006e+00 -4.759902e+00 -4.753500e+00 -4.755030e+00 -4.737288e+00 -4.731285e+00 -4.705445e+00 -4.693393e+00 -4.662839e+00 -4.644600e+00 -4.611062e+00 -4.586394e+00 -4.551981e+00 -4.522165e+00 -4.488764e+00 -4.456171e+00 -4.425120e+00 -4.392252e+00 -4.364341e+00 -4.333231e+00 -4.308817e+00 -4.280857e+00 -4.260029e+00 -4.236040e+00 -4.218762e+00 -4.199147e+00 -4.185371e+00 -4.170244e+00 -4.159975e+00 -4.149272e+00 -4.142589e+00 -4.136138e+00 -4.133189e+00 
-4.127749e+00 -4.128801e+00 -4.130709e+00 -4.136035e+00 -4.141537e+00 -4.151358e+00 -4.160329e+00 -4.174827e+00 -4.187233e+00 -4.206505e+00 -4.222396e+00 -4.246404e+00 -4.265869e+00 -4.294365e+00 -4.317428e+00 -4.349858e+00 -4.376314e+00 -4.411695e+00 -4.440922e+00 -4.477725e+00 -4.508541e+00 -4.544661e+00 -4.575302e+00 -4.608218e+00 -4.636349e+00 -4.663353e+00 -4.685811e+00 -4.703772e+00 -4.716839e+00 -4.722886e+00 -4.728873e+00 -4.727280e+00 -4.732437e+00 -4.727789e+00 -4.734199e+00 -4.725484e+00 -4.728711e+00 -4.710705e+00 -4.703642e+00 -4.675028e+00 -4.657177e+00 -4.622882e+00 -4.596487e+00 -4.560445e+00 -4.528556e+00 -4.493303e+00 -4.459107e+00 -4.426252e+00 -4.392440e+00 -4.362931e+00 -4.331439e+00 -4.305721e+00 -4.277774e+00 -4.255950e+00 -4.232228e+00 -4.214231e+00 -4.195032e+00 -4.180763e+00 -4.166136e+00 -4.155552e+00 -4.145387e+00 -4.138530e+00 -4.132627e+00 -4.129629e+00 
-4.111664e+00 -4.112172e+00 -4.114001e+00 -4.118684e+00 -4.124002e+00 -4.133171e+00 -4.141819e+00 -4.155771e+00 -4.167707e+00 -4.186682e+00 -4.201979e+00 -4.226097e+00 -4.244907e+00 -4.274073e+00 -4.296526e+00 -4.330285e+00 -4.356331e+00 -4.393665e+00 -4.422875e+00 -4.462030e+00 -4.493429e+00 -4.531947e+00 -4.564002e+00 -4.599318e+00 -4.630177e+00 -4.660894e+00 -4.689040e+00 -4.715646e+00 -4.742672e+00 -4.764592e+00 -4.787240e+00 -4.796922e+00 -4.809022e+00 -4.801172e+00 -4.801209e+00 -4.776837e+00 -4.767732e+00 -4.734397e+00 -4.721292e+00 -4.685629e+00 -4.666627e+00 -4.628181e+00 -4.600644e+00 -4.562156e+00 -4.527668e+00 -4.491304e+00 -4.453563e+00 -4.420544e+00 -4.383108e+00 -4.354007e+00 -4.319399e+00 -4.294348e+00 -4.264031e+00 -4.242900e+00 -4.217553e+00 -4.200121e+00 -4.179922e+00 -4.166003e+00 -4.150836e+00 -4.140350e+00 -4.129944e+00 -4.122937e+00 -4.116952e+00 -4.113581e+00 
-4.104485e+00 -4.105009e+00 -4.107391e+00 -4.112227e+00 -4.118073e+00 -4.127575e+00 -4.136761e+00 -4.151272e+00 -4.163838e+00 -4.183638e+00 -4.199789e+00 -4.225033e+00 -4.245097e+00 -4.275726e+00 -4.300022e+00 -4.335643e+00 -4.364257e+00 -4.403969e+00 -4.436464e+00 -4.478667e+00 -4.513874e+00 -4.556151e+00 -4.592250e+00 -4.631645e+00 -4.666325e+00 -4.700004e+00 -4.728782e+00 -4.751811e+00 -4.762174e+00 -4.763106e+00 -4.760866e+00 -4.753215e+00 -4.755976e+00 -4.752335e+00 -4.765565e+00 -4.762910e+00 -4.776536e+00 -4.758675e+00 -4.752681e+00 -4.714978e+00 -4.692949e+00 -4.650209e+00 -4.617434e+00 -4.575156e+00 -4.536192e+00 -4.496564e+00 -4.455865e+00 -4.420057e+00 -4.380987e+00 -4.349643e+00 -4.314303e+00 -4.287582e+00 -4.257089e+00 -4.234798e+00 -4.209614e+00 -4.191414e+00 -4.171589e+00 -4.157174e+00 -4.142510e+00 -4.131706e+00 -4.121874e+00 -4.114671e+00 -4.109282e+00 -4.105818e+00 
-4.085116e+00 -4.084856e+00 -4.087391e+00 -4.091309e+00 -4.097141e+00 -4.105699e+00 -4.114659e+00 -4.128344e+00 -4.140454e+00 -4.159732e+00 -4.175217e+00 -4.200473e+00 -4.219718e+00 -4.251148e+00 -4.274583e+00 -4.311993e+00 -4.339872e+00 -4.382350e+00 -4.414441e+00 -4.459906e+00 -4.495203e+00 -4.540124e+00 -4.576733e+00 -4.616842e+00 -4.652053e+00 -4.685502e+00 -4.714902e+00 -4.746709e+00 -4.782062e+00 -4.818507e+00 -4.853162e+00 -4.872692e+00 -4.888728e+00 -4.878341e+00 -4.873633e+00 -4.834531e+00 -4.816641e+00 -4.768662e+00 -4.756044e+00 -4.715521e+00 -4.698389e+00 -4.652517e+00 -4.620785e+00 -4.576440e+00 -4.533928e+00 -4.493716e+00 -4.447530e+00 -4.412160e+00 -4.367746e+00 -4.337364e+00 -4.297786e+00 -4.272177e+00 -4.238762e+00 -4.217474e+00 -4.190525e+00 -4.173066e+00 -4.152355e+00 -4.138345e+00 -4.123393e+00 -4.112641e+00 -4.102875e+00 -4.095394e+00 -4.090233e+00 -4.086205e+00 
-4.073734e+00 -4.073408e+00 -4.076510e+00 -4.080498e+00 -4.086806e+00 -4.095649e+00 -4.105021e+00 -4.119285e+00 -4.131838e+00 -4.152058e+00 -4.168200e+00 -4.194805e+00 -4.215215e+00 -4.248429e+00 -4.273907e+00 -4.313605e+00 -4.344746e+00 -4.390241e+00 -4.426932e+00 -4.476627e+00 -4.517643e+00 -4.568608e+00 -4.612053e+00 -4.660461e+00 -4.705966e+00 -4.751199e+00 -4.798786e+00 -4.837994e+00 -4.839645e+00 -4.822454e+00 -4.795432e+00 -4.770300e+00 -4.765815e+00 -4.765972e+00 -4.795180e+00 -4.813530e+00 -4.856877e+00 -4.843632e+00 -4.835212e+00 -4.773678e+00 -4.742244e+00 -4.685894e+00 -4.642498e+00 -4.592289e+00 -4.542231e+00 -4.497486e+00 -4.447263e+00 -4.408110e+00 -4.361847e+00 -4.328582e+00 -4.288296e+00 -4.260732e+00 -4.227179e+00 -4.204689e+00 -4.177929e+00 -4.159772e+00 -4.139469e+00 -4.125048e+00 -4.110658e+00 -4.099638e+00 -4.090522e+00 -4.082840e+00 -4.078356e+00 -4.074180e+00 
-4.051437e+00 -4.050004e+00 -4.053568e+00 -4.056258e+00 -4.062771e+00 -4.070242e+00 -4.079505e+00 -4.092482e+00 -4.104582e+00 -4.123828e+00 -4.139174e+00 -4.165440e+00 -4.184754e+00 -4.218686e+00 -4.242870e+00 -4.284804e+00 -4.314635e+00 -4.364118e+00 -4.399770e+00 -4.454610e+00 -4.495118e+00 -4.550061e+00 -4.593272e+00 -4.639572e+00 -4.683172e+00 -4.714263e+00 -4.733451e+00 -4.764447e+00 -4.814844e+00 -4.887897e+00 -4.953278e+00 -4.996469e+00 -5.018976e+00 -5.004700e+00 -4.987105e+00 -4.912462e+00 -4.866784e+00 -4.787145e+00 -4.784134e+00 -4.751168e+00 -4.746173e+00 -4.686760e+00 -4.647536e+00 -4.595515e+00 -4.538537e+00 -4.494367e+00 -4.434787e+00 -4.397254e+00 -4.343039e+00 -4.311708e+00 -4.265887e+00 -4.240152e+00 -4.203292e+00 -4.182274e+00 -4.153889e+00 -4.136719e+00 -4.115927e+00 -4.101977e+00 -4.087787e+00 -4.076746e+00 -4.068191e+00 -4.060052e+00 -4.056248e+00 -4.051251e+00 
-4.035901e+00 -4.034261e+00 -4.038423e+00 -4.041028e+00 -4.047940e+00 -4.055571e+00 -4.065030e+00 -4.078543e+00 -4.090714e+00 -4.110977e+00 -4.126496e+00 -4.154303e+00 -4.174321e+00 -4.210279e+00 -4.236349e+00 -4.280743e+00 -4.314365e+00 -4.366942e+00 -4.408607e+00 -4.468069e+00 -4.515984e+00 -4.578558e+00 -4.628911e+00 -4.686660e+00 -4.743030e+00 -4.804163e+00 -4.920027e+00 -5.023181e+00 -4.994818e+00 -4.910756e+00 -4.811111e+00 -4.739530e+00 -4.718766e+00 -4.729123e+00 -4.790324e+00 -4.874792e+00 -5.013212e+00 -5.023853e+00 -4.985835e+00 -4.846300e+00 -4.793506e+00 -4.723259e+00 -4.664391e+00 -4.607863e+00 -4.541126e+00 -4.491923e+00 -4.428752e+00 -4.386414e+00 -4.331282e+00 -4.296453e+00 -4.250553e+00 -4.222769e+00 -4.186069e+00 -4.164059e+00 -4.135992e+00 -4.118412e+00 -4.098124e+00 -4.083992e+00 -4.070480e+00 -4.059289e+00 -4.051523e+00 -4.043191e+00 -4.040199e+00 -4.034971e+00 
-4.011189e+00 -4.008027e+00 -4.013047e+00 -4.013858e+00 -4.021257e+00 -4.026929e+00 -4.036431e+00 -4.047975e+00 -4.059695e+00 -4.078217e+00 -4.092767e+00 -4.119459e+00 -4.138003e+00 -4.174126e+00 -4.198273e+00 -4.245079e+00 -4.276476e+00 -4.334735e+00 -4.374282e+00 -4.442776e+00 -4.489448e+00 -4.561730e+00 -4.612733e+00 -4.671807e+00 -4.748790e+00 -4.764860e+00 -4.720994e+00 -4.710089e+00 -4.788486e+00 -4.969336e+00 -5.125727e+00 -5.223518e+00 -5.251667e+00 -5.235765e+00 -5.190211e+00 -5.021293e+00 -4.878322e+00 -4.715222e+00 -4.762396e+00 -4.807187e+00 -4.846817e+00 -4.742449e+00 -4.679559e+00 -4.620507e+00 -4.535243e+00 -4.489309e+00 -4.409374e+00 -4.370704e+00 -4.304132e+00 -4.272675e+00 -4.220178e+00 -4.195209e+00 -4.155372e+00 -4.135433e+00 -4.106431e+00 -4.090118e+00 -4.070177e+00 -4.056553e+00 -4.044059e+00 -4.032715e+00 -4.026236e+00 -4.017198e+00 -4.015506e+00 -4.009119e+00 
-3.991680e+00 -3.988074e+00 -3.993774e+00 -3.994224e+00 -4.001949e+00 -4.007531e+00 -4.016930e+00 -4.028860e+00 -4.040058e+00 -4.059626e+00 -4.073432e+00 -4.101897e+00 -4.120029e+00 -4.158475e+00 -4.183621e+00 -4.232831e+00 -4.268174e+00 -4.328575e+00 -4.376150e+00 -4.447774e+00 -4.504732e+00 -4.584744e+00 -4.637379e+00 -4.697095e+00 -4.713430e+00 -4.763012e+00 -5.165950e+00 -5.555977e+00 -5.395678e+00 -4.986262e+00 -4.439456e+00 -3.887711e+00 -3.644410e+00 -3.782984e+00 -4.211180e+00 -4.799985e+00 -5.400656e+00 -5.544618e+00 -5.316395e+00 -4.866005e+00 -4.775371e+00 -4.747386e+00 -4.674749e+00 -4.618876e+00 -4.525744e+00 -4.473544e+00 -4.394305e+00 -4.348884e+00 -4.284324e+00 -4.248672e+00 -4.197362e+00 -4.170654e+00 -4.131355e+00 -4.111110e+00 -4.082530e+00 -4.066447e+00 -4.047117e+00 -4.033739e+00 -4.022099e+00 -4.010800e+00 -4.005335e+00 -3.996104e+00 -3.995449e+00 -3.988687e+00 
-3.965251e+00 -3.959618e+00 -3.966664e+00 -3.964715e+00 -3.973278e+00 -3.976163e+00 -3.985806e+00 -3.994843e+00 -4.005612e+00 -4.022273e+00 -4.034924e+00 -4.060842e+00 -4.077072e+00 -4.114162e+00 -4.136616e+00 -4.187371e+00 -4.219129e+00 -4.286707e+00 -4.330151e+00 -4.417016e+00 -4.470590e+00 -4.574381e+00 -4.611766e+00 -4.718001e+00 -4.979885e+00 -4.910999e+00 -3.736657e+00 -1.899819e+00 8.010044e-01 3.761253e+00 5.888540e+00 7.423628e+00 7.933047e+00 7.680170e+00 6.612540e+00 4.578256e+00 1.846806e+00 -7.942277e-01 -3.309183e+00 -4.870315e+00 -5.197151e+00 -4.857850e+00 -4.685991e+00 -4.650156e+00 -4.510540e+00 -4.469132e+00 -4.362252e+00 -4.323231e+00 -4.244308e+00 -4.213739e+00 -4.156175e+00 -4.133440e+00 -4.092437e+00 -4.074917e+00 -4.047008e+00 -4.032427e+00 -4.014899e+00 -4.001972e+00 -3.992567e+00 -3.980878e+00 -3.977687e+00 -3.967403e+00 -3.968839e+00 -3.960492e+00 
-3.942129e+00 -3.935663e+00 -3.943580e+00 -3.940803e+00 -3.949690e+00 -3.952019e+00 -3.961243e+00 -3.970326e+00 -3.979768e+00 -3.997431e+00 -4.007861e+00 -4.035963e+00 -4.049600e+00 -4.089802e+00 -4.110878e+00 -4.164376e+00 -4.199168e+00 -4.266748e+00 -4.322096e+00 -4.406985e+00 -4.484489e+00 -4.607014e+00 -4.696026e+00 -4.675365e+00 -3.647810e+00 5.851499e-02 5.263906e+00 9.143660e+00 1.177106e+01 1.355847e+01 1.426726e+01 1.459691e+01 1.463685e+01 1.461969e+01 1.446115e+01 1.383024e+01 1.257412e+01 1.020403e+01 6.294086e+00 1.565408e+00 -2.647897e+00 -4.521013e+00 -4.734525e+00 -4.644176e+00 -4.491527e+00 -4.432574e+00 -4.337677e+00 -4.286792e+00 -4.214905e+00 -4.179494e+00 -4.124160e+00 -4.100973e+00 -4.060316e+00 -4.044057e+00 -4.016362e+00 -4.003180e+00 -3.986321e+00 -3.974298e+00 -3.966016e+00 -3.954615e+00 -3.952802e+00 -3.942274e+00 -3.945114e+00 -3.936139e+00 
-3.914877e+00 -3.905807e+00 -3.915640e+00 -3.909783e+00 -3.919935e+00 -3.918717e+00 -3.928448e+00 -3.933521e+00 -3.942592e+00 -3.955792e+00 -3.964893e+00 -3.988189e+00 -3.999565e+00 -4.035234e+00 -4.053064e+00 -4.104649e+00 -4.134440e+00 -4.208675e+00 -4.257228e+00 -4.364113e+00 -4.449557e+00 -4.585687e+00 -4.208476e+00 -7.492404e-01 4.412354e+00 9.388049e+00 1.299934e+01 1.415702e+01 1.435649e+01 1.417916e+01 1.399726e+01 1.388252e+01 1.384909e+01 1.385715e+01 1.398526e+01 1.409279e+01 1.439054e+01 1.421096e+01 1.356946e+01 1.111789e+01 6.484320e+00 9.280365e-01 -3.593485e+00 -4.600669e+00 -4.462286e+00 -4.414976e+00 -4.285780e+00 -4.240303e+00 -4.155871e+00 -4.126757e+00 -4.068906e+00 -4.050855e+00 -4.012038e+00 -3.999088e+00 -3.974903e+00 -3.963292e+00 -3.950398e+00 -3.938579e+00 -3.934157e+00 -3.921965e+00 -3.923651e+00 -3.911601e+00 -3.917466e+00 -3.906393e+00 
-3.888715e+00 -3.878206e+00 -3.889286e+00 -3.881856e+00 -3.892514e+00 -3.889926e+00 -3.899063e+00 -3.903461e+00 -3.910355e+00 -3.924265e+00 -3.929130e+00 -3.955294e+00 -3.960370e+00 -4.001365e+00 -4.012476e+00 -4.069898e+00 -4.097904e+00 -4.170105e+00 -4.232420e+00 -4.311343e+00 -4.404474e+00 -3.431435e+00 8.686196e-01 7.798178e+00 1.255421e+01 1.373941e+01 1.381162e+01 1.369537e+01 1.367763e+01 1.381996e+01 1.396073e+01 1.408871e+01 1.412454e+01 1.410411e+01 1.403758e+01 1.385852e+01 1.376799e+01 1.367740e+01 1.388000e+01 1.391902e+01 1.317050e+01 9.610560e+00 2.979616e+00 -2.315291e+00 -4.290759e+00 -4.331048e+00 -4.253206e+00 -4.188783e+00 -4.115731e+00 -4.083388e+00 -4.025536e+00 -4.010746e+00 -3.970178e+00 -3.961558e+00 -3.936759e+00 -3.928355e+00 -3.916210e+00 -3.906106e+00 -3.903304e+00 -3.891585e+00 -3.895258e+00 -3.882778e+00 -3.890629e+00 -3.878503e+00 
-3.861698e+00 -3.847976e+00 -3.861606e+00 -3.850390e+00 -3.862827e+00 -3.855812e+00 -3.865809e+00 -3.865035e+00 -3.871648e+00 -3.879408e+00 -3.882726e+00 -3.901243e+00 -3.903846e+00 -3.934968e+00 -3.943408e+00 -3.990002e+00 -4.012324e+00 -4.084729e+00 -4.121629e+00 -4.218184e+00 -2.995212e+00 2.111407e+00 9.085507e+00 1.285150e+01 1.363161e+01 1.358084e+01 1.358544e+01 1.379641e+01 1.384811e+01 1.386546e+01 1.383224e+01 1.381260e+01 1.380536e+01 1.380480e+01 1.384487e+01 1.385021e+01 1.389498e+01 1.381966e+01 1.368546e+01 1.359499e+01 1.362403e+01 1.336526e+01 1.099460e+01 4.718979e+00 -1.904125e+00 -4.159793e+00 -4.168643e+00 -4.100401e+00 -4.028167e+00 -4.004986e+00 -3.953582e+00 -3.945374e+00 -3.912643e+00 -3.907693e+00 -3.890400e+00 -3.883276e+00 -3.877836e+00 -3.867358e+00 -3.870333e+00 -3.857192e+00 -3.865732e+00 -3.851130e+00 -3.863014e+00 -3.848210e+00 
-3.833304e+00 -3.817280e+00 -3.832787e+00 -3.818895e+00 -3.832358e+00 -3.822627e+00 -3.832289e+00 -3.829381e+00 -3.833394e+00 -3.840761e+00 -3.837818e+00 -3.859666e+00 -3.850773e+00 -3.891720e+00 -3.883148e+00 -3.947558e+00 -3.952569e+00 -4.038230e+00 -4.089717e+00 -3.257817e+00 2.171772e+00 9.806635e+00 1.318729e+01 1.341433e+01 1.345465e+01 1.356209e+01 1.359623e+01 1.362228e+01 1.364508e+01 1.371674e+01 1.376801e+01 1.382922e+01 1.384408e+01 1.383994e+01 1.380907e+01 1.374469e+01 1.370539e+01 1.365759e+01 1.366102e+01 1.364960e+01 1.353132e+01 1.350155e+01 1.341680e+01 1.140842e+01 4.644352e+00 -2.058850e+00 -4.083131e+00 -4.056862e+00 -3.973110e+00 -3.958359e+00 -3.894829e+00 -3.898637e+00 -3.858787e+00 -3.863236e+00 -3.844169e+00 -3.842427e+00 -3.838341e+00 -3.830189e+00 -3.835843e+00 -3.823068e+00 -3.834613e+00 -3.819138e+00 -3.833873e+00 -3.817360e+00 
-3.807687e+00 -3.787869e+00 -3.806600e+00 -3.788255e+00 -3.804129e+00 -3.789152e+00 -3.800191e+00 -3.791119e+00 -3.794995e+00 -3.795019e+00 -3.789959e+00 -3.802166e+00 -3.790054e+00 -3.814851e+00 -3.807330e+00 -3.839823e+00 -3.854086e+00 -3.917963e+00 -3.540222e+00 8.513201e-01 8.819487e+00 1.299847e+01 1.331946e+01 1.334733e+01 1.346236e+01 1.348601e+01 1.353204e+01 1.361502e+01 1.364542e+01 1.368647e+01 1.368573e+01 1.370003e+01 1.369560e+01 1.370068e+01 1.370068e+01 1.369333e+01 1.367923e+01 1.364211e+01 1.357867e+01 1.353302e+01 1.348114e+01 1.344980e+01 1.332970e+01 1.330735e+01 1.095963e+01 3.511413e+00 -2.806309e+00 -3.938640e+00 -3.835843e+00 -3.851216e+00 -3.807846e+00 -3.819838e+00 -3.795186e+00 -3.802916e+00 -3.795676e+00 -3.794169e+00 -3.799678e+00 -3.790038e+00 -3.803436e+00 -3.788317e+00 -3.806074e+00 -3.787763e+00 -3.807493e+00 -3.787710e+00 
-3.778122e+00 -3.754908e+00 -3.776412e+00 -3.753923e+00 -3.771818e+00 -3.752098e+00 -3.763910e+00 -3.750008e+00 -3.752186e+00 -3.748708e+00 -3.736956e+00 -3.750381e+00 -3.722106e+00 -3.760155e+00 -3.719875e+00 -3.793585e+00 -3.739123e+00 -3.883801e+00 -7.024924e-01 7.308202e+00 1.262722e+01 1.322705e+01 1.332152e+01 1.334625e+01 1.339463e+01 1.345449e+01 1.348625e+01 1.353555e+01 1.355748e+01 1.361172e+01 1.363117e+01 1.367287e+01 1.367240e+01 1.368145e+01 1.365674e+01 1.363613e+01 1.360009e+01 1.357445e+01 1.353789e+01 1.351466e+01 1.345122e+01 1.341244e+01 1.337261e+01 1.329598e+01 1.316158e+01 9.653035e+00 1.396490e+00 -3.552816e+00 -3.777986e+00 -3.795522e+00 -3.724824e+00 -3.764470e+00 -3.726613e+00 -3.749977e+00 -3.741799e+00 -3.746843e+00 -3.756139e+00 -3.748397e+00 -3.766618e+00 -3.751096e+00 -3.773424e+00 -3.753424e+00 -3.777145e+00 -3.754762e+00 
-3.755118e+00 -3.727651e+00 -3.753047e+00 -3.725531e+00 -3.746661e+00 -3.720929e+00 -3.735045e+00 -3.714166e+00 -3.716746e+00 -3.705844e+00 -3.690546e+00 -3.696797e+00 -3.659353e+00 -3.684425e+00 -3.644409e+00 -3.636328e+00 -3.737768e+00 -2.909771e+00 3.929715e+00 1.144397e+01 1.315951e+01 1.313702e+01 1.325588e+01 1.328372e+01 1.336109e+01 1.340422e+01 1.344567e+01 1.350396e+01 1.352418e+01 1.356925e+01 1.356991e+01 1.359804e+01 1.358744e+01 1.360182e+01 1.358270e+01 1.358278e+01 1.354934e+01 1.353250e+01 1.347837e+01 1.345069e+01 1.339052e+01 1.335482e+01 1.328592e+01 1.322614e+01 1.319411e+01 1.260872e+01 6.834872e+00 -1.202300e+00 -3.783127e+00 -3.638749e+00 -3.648356e+00 -3.681927e+00 -3.665081e+00 -3.689369e+00 -3.695974e+00 -3.698828e+00 -3.720252e+00 -3.709095e+00 -3.736810e+00 -3.717717e+00 -3.747364e+00 -3.723793e+00 -3.753255e+00 -3.727104e+00 
-3.725696e+00 -3.693674e+00 -3.722877e+00 -3.689557e+00 -3.714176e+00 -3.681088e+00 -3.698256e+00 -3.668350e+00 -3.672621e+00 -3.651727e+00 -3.633862e+00 -3.632210e+00 -3.581141e+00 -3.607149e+00 -3.535771e+00 -3.532305e+00 -3.604956e+00 4.719509e-01 9.066768e+00 1.302615e+01 1.305736e+01 1.316623e+01 1.321302e+01 1.327542e+01 1.331455e+01 1.337634e+01 1.340077e+01 1.345799e+01 1.347039e+01 1.352259e+01 1.352488e+01 1.356463e+01 1.355205e+01 1.357192e+01 1.354287e+01 1.354400e+01 1.350259e+01 1.349300e+01 1.344272e+01 1.342493e+01 1.336295e+01 1.333161e+01 1.326613e+01 1.322299e+01 1.312312e+01 1.312400e+01 1.112257e+01 3.121698e+00 -3.202807e+00 -3.624310e+00 -3.497744e+00 -3.615708e+00 -3.581417e+00 -3.624743e+00 -3.638537e+00 -3.644538e+00 -3.675876e+00 -3.663845e+00 -3.699913e+00 -3.678681e+00 -3.714872e+00 -3.688445e+00 -3.723106e+00 -3.693357e+00 
-3.706511e+00 -3.670045e+00 -3.703700e+00 -3.664945e+00 -3.693865e+00 -3.653897e+00 -3.675227e+00 -3.636911e+00 -3.644151e+00 -3.615074e+00 -3.593989e+00 -3.594011e+00 -3.512457e+00 -3.592186e+00 -3.372559e+00 -3.656771e+00 -2.707855e+00 4.401344e+00 1.198188e+01 1.310728e+01 1.298760e+01 1.313665e+01 1.316415e+01 1.324135e+01 1.327944e+01 1.334397e+01 1.336671e+01 1.342787e+01 1.343461e+01 1.348549e+01 1.347761e+01 1.351520e+01 1.349527e+01 1.351979e+01 1.348846e+01 1.350016e+01 1.345559e+01 1.345457e+01 1.339597e+01 1.338337e+01 1.331634e+01 1.328983e+01 1.322022e+01 1.316964e+01 1.310839e+01 1.302501e+01 1.288165e+01 7.301666e+00 -1.142141e+00 -3.772101e+00 -3.336862e+00 -3.581071e+00 -3.520724e+00 -3.573139e+00 -3.600941e+00 -3.600282e+00 -3.646293e+00 -3.627835e+00 -3.674798e+00 -3.648651e+00 -3.692755e+00 -3.662238e+00 -3.702935e+00 -3.669209e+00 
-3.678758e+00 -3.636857e+00 -3.675149e+00 -3.629196e+00 -3.663176e+00 -3.613277e+00 -3.640846e+00 -3.588524e+00 -3.603794e+00 -3.555219e+00 -3.542678e+00 -3.519063e+00 -3.432960e+00 -3.505936e+00 -3.186805e+00 -3.618559e+00 -4.374023e-01 8.138715e+00 1.295451e+01 1.282639e+01 1.305593e+01 1.306591e+01 1.315462e+01 1.321151e+01 1.324928e+01 1.331695e+01 1.333098e+01 1.339560e+01 1.339560e+01 1.345207e+01 1.344090e+01 1.348533e+01 1.346186e+01 1.349165e+01 1.345490e+01 1.347087e+01 1.342164e+01 1.342659e+01 1.336629e+01 1.335986e+01 1.329131e+01 1.326495e+01 1.320278e+01 1.312778e+01 1.312103e+01 1.288690e+01 1.315559e+01 1.068956e+01 2.123092e+00 -3.499520e+00 -3.262847e+00 -3.450678e+00 -3.462959e+00 -3.488246e+00 -3.553365e+00 -3.540260e+00 -3.606616e+00 -3.581660e+00 -3.640835e+00 -3.610268e+00 -3.662484e+00 -3.627984e+00 -3.674650e+00 -3.636537e+00 
-3.664537e+00 -3.618504e+00 -3.661440e+00 -3.610060e+00 -3.649377e+00 -3.591732e+00 -3.626367e+00 -3.562342e+00 -3.588231e+00 -3.521049e+00 -3.526914e+00 -3.471624e+00 -3.424385e+00 -3.436342e+00 -3.223584e+00 -3.467512e+00 2.456349e+00 1.096106e+01 1.317527e+01 1.278493e+01 1.306594e+01 1.305636e+01 1.313454e+01 1.320068e+01 1.322528e+01 1.330109e+01 1.330492e+01 1.337506e+01 1.336626e+01 1.342532e+01 1.340575e+01 1.345230e+01 1.342221e+01 1.345679e+01 1.341535e+01 1.343918e+01 1.338484e+01 1.339921e+01 1.333128e+01 1.333686e+01 1.325790e+01 1.325131e+01 1.317090e+01 1.313527e+01 1.309116e+01 1.296044e+01 1.310258e+01 1.240763e+01 5.350955e+00 -2.657799e+00 -3.416791e+00 -3.300008e+00 -3.481130e+00 -3.421247e+00 -3.539457e+00 -3.498857e+00 -3.587003e+00 -3.551213e+00 -3.621962e+00 -3.585822e+00 -3.645493e+00 -3.607106e+00 -3.659316e+00 -3.617602e+00 
-3.640086e+00 -3.588447e+00 -3.636136e+00 -3.577102e+00 -3.622282e+00 -3.553406e+00 -3.596858e+00 -3.515163e+00 -3.556829e+00 -3.459221e+00 -3.498590e+00 -3.383095e+00 -3.422126e+00 -3.287325e+00 -3.347997e+00 -2.936632e+00 5.401647e+00 1.254213e+01 1.300751e+01 1.288076e+01 1.301692e+01 1.306149e+01 1.310374e+01 1.318855e+01 1.319612e+01 1.328239e+01 1.327541e+01 1.335213e+01 1.333650e+01 1.340100e+01 1.337727e+01 1.342889e+01 1.339538e+01 1.343443e+01 1.338922e+01 1.341748e+01 1.335918e+01 1.337938e+01 1.330661e+01 1.332084e+01 1.323202e+01 1.324117e+01 1.313476e+01 1.314143e+01 1.300996e+01 1.303666e+01 1.282612e+01 1.300579e+01 8.365250e+00 -1.082406e+00 -3.456689e+00 -3.132115e+00 -3.455315e+00 -3.336615e+00 -3.504521e+00 -3.444439e+00 -3.554579e+00 -3.510423e+00 -3.593223e+00 -3.552017e+00 -3.619426e+00 -3.576787e+00 -3.634648e+00 -3.588408e+00 
-3.631850e+00 -3.577162e+00 -3.628908e+00 -3.565457e+00 -3.615947e+00 -3.540037e+00 -3.591609e+00 -3.497755e+00 -3.553522e+00 -3.432854e+00 -3.499679e+00 -3.334646e+00 -3.434087e+00 -3.174054e+00 -3.387256e+00 -2.025216e+00 7.647544e+00 1.313045e+01 1.288218e+01 1.304064e+01 1.298529e+01 1.311609e+01 1.308716e+01 1.320552e+01 1.318094e+01 1.328246e+01 1.325843e+01 1.334291e+01 1.331660e+01 1.338541e+01 1.335389e+01 1.340894e+01 1.336944e+01 1.341298e+01 1.336285e+01 1.339758e+01 1.333407e+01 1.336326e+01 1.328349e+01 1.331126e+01 1.321157e+01 1.324436e+01 1.311732e+01 1.317160e+01 1.299318e+01 1.313175e+01 1.279490e+01 1.329197e+01 1.056053e+01 4.968242e-01 -3.498594e+00 -3.129207e+00 -3.447835e+00 -3.312327e+00 -3.488244e+00 -3.420990e+00 -3.538893e+00 -3.490905e+00 -3.579822e+00 -3.535993e+00 -3.608183e+00 -3.563285e+00 -3.625114e+00 -3.576473e+00 
-3.612301e+00 -3.552818e+00 -3.608321e+00 -3.538293e+00 -3.593567e+00 -3.507968e+00 -3.566867e+00 -3.457916e+00 -3.526356e+00 -3.381122e+00 -3.471265e+00 -3.265397e+00 -3.407746e+00 -3.083042e+00 -3.364621e+00 -9.127513e-01 9.361922e+00 1.323662e+01 1.275053e+01 1.309850e+01 1.292454e+01 1.313067e+01 1.305177e+01 1.320078e+01 1.315438e+01 1.326982e+01 1.323531e+01 1.332703e+01 1.329531e+01 1.336879e+01 1.333425e+01 1.339289e+01 1.335119e+01 1.339778e+01 1.334536e+01 1.338319e+01 1.331690e+01 1.335024e+01 1.326636e+01 1.330082e+01 1.319363e+01 1.323845e+01 1.309727e+01 1.317395e+01 1.297356e+01 1.314403e+01 1.281268e+01 1.326100e+01 1.180563e+01 1.831265e+00 -3.418251e+00 -3.128913e+00 -3.398816e+00 -3.282231e+00 -3.454702e+00 -3.389450e+00 -3.512922e+00 -3.462658e+00 -3.557737e+00 -3.510756e+00 -3.588076e+00 -3.539783e+00 -3.605762e+00 -3.553287e+00 
-3.610918e+00 -3.550211e+00 -3.608274e+00 -3.536116e+00 -3.595077e+00 -3.505684e+00 -3.570505e+00 -3.454721e+00 -3.533196e+00 -3.375997e+00 -3.482843e+00 -3.258614e+00 -3.424730e+00 -3.086496e+00 -3.380668e+00 -8.237990e-02 1.050139e+01 1.330525e+01 1.276547e+01 1.318238e+01 1.292678e+01 1.317948e+01 1.305100e+01 1.322416e+01 1.315090e+01 1.327834e+01 1.322894e+01 1.332684e+01 1.328611e+01 1.336314e+01 1.332249e+01 1.338391e+01 1.333764e+01 1.338750e+01 1.333127e+01 1.337362e+01 1.330352e+01 1.334326e+01 1.325485e+01 1.329860e+01 1.318567e+01 1.324372e+01 1.309622e+01 1.318757e+01 1.298855e+01 1.315090e+01 1.287304e+01 1.316105e+01 1.248674e+01 2.996301e+00 -3.189178e+00 -3.147470e+00 -3.325121e+00 -3.279020e+00 -3.426602e+00 -3.381411e+00 -3.499745e+00 -3.455016e+00 -3.550363e+00 -3.504655e+00 -3.583538e+00 -3.535173e+00 -3.602993e+00 -3.549855e+00 
-3.597684e+00 -3.533848e+00 -3.593756e+00 -3.517473e+00 -3.578597e+00 -3.483416e+00 -3.551191e+00 -3.427050e+00 -3.509608e+00 -3.340691e+00 -3.451399e+00 -3.213804e+00 -3.373072e+00 -3.035438e+00 -3.260418e+00 5.284821e-01 1.106044e+01 1.323614e+01 1.272857e+01 1.317222e+01 1.289242e+01 1.317246e+01 1.302585e+01 1.321424e+01 1.313224e+01 1.326730e+01 1.321429e+01 1.331614e+01 1.327415e+01 1.335352e+01 1.331255e+01 1.337552e+01 1.332912e+01 1.338001e+01 1.332345e+01 1.336657e+01 1.329574e+01 1.333642e+01 1.324665e+01 1.329201e+01 1.317691e+01 1.323730e+01 1.308838e+01 1.317923e+01 1.298956e+01 1.312633e+01 1.290920e+01 1.305366e+01 1.282959e+01 3.802071e+00 -3.001533e+00 -3.174659e+00 -3.267655e+00 -3.274904e+00 -3.402196e+00 -3.368128e+00 -3.484089e+00 -3.439969e+00 -3.537238e+00 -3.489752e+00 -3.571105e+00 -3.520449e+00 -3.590453e+00 -3.534729e+00 
-3.603681e+00 -3.540830e+00 -3.601174e+00 -3.525859e+00 -3.587921e+00 -3.493652e+00 -3.563217e+00 -3.439804e+00 -3.525611e+00 -3.357243e+00 -3.473190e+00 -3.237388e+00 -3.401445e+00 -3.075432e+00 -3.283810e+00 7.020691e-01 1.126525e+01 1.324652e+01 1.275759e+01 1.320540e+01 1.291247e+01 1.319942e+01 1.303909e+01 1.323210e+01 1.314050e+01 1.327816e+01 1.321883e+01 1.332211e+01 1.327581e+01 1.335606e+01 1.331197e+01 1.337579e+01 1.332704e+01 1.337918e+01 1.332075e+01 1.336582e+01 1.329336e+01 1.333682e+01 1.324549e+01 1.329458e+01 1.317802e+01 1.324283e+01 1.309318e+01 1.318687e+01 1.300043e+01 1.312850e+01 1.293145e+01 1.302088e+01 1.292629e+01 4.097987e+00 -2.899681e+00 -3.172912e+00 -3.235553e+00 -3.275228e+00 -3.392914e+00 -3.370365e+00 -3.482860e+00 -3.443429e+00 -3.539255e+00 -3.494054e+00 -3.574765e+00 -3.525502e+00 -3.595284e+00 -3.540633e+00 