# vtk DataFile Version 2.0
Comment goes here
ASCII

DATASET STRUCTURED_POINTS
FIELD FieldData 1
TIME 1 1 double
1.85000000
DIMENSIONS    64   64   1

ORIGIN    0.000   0.000   0.000
SPACING   0.015625 0.015625   1.000

POINT_DATA   4096
SCALARS P double
LOOKUP_TABLE default

-3.858939e+00 -3.861296e+00 -3.858354e+00 -3.860545e+00 -3.856131e+00 -3.858058e+00 -3.852279e+00 -3.853822e+00 -3.846834e+00 -3.847863e+00 -3.839886e+00 -3.840266e+00 -3.831600e+00 -3.831202e+00 -3.822212e+00 -3.820919e+00 -3.812011e+00 -3.809727e+00 -3.801299e+00 -3.797978e+00 -3.790366e+00 -3.786056e+00 -3.779504e+00 -3.774409e+00 -3.769058e+00 -3.763561e+00 -3.759468e+00 -3.754101e+00 -3.751322e+00 -3.746685e+00 -3.745443e+00 -3.742110e+00 -3.742787e+00 -3.741036e+00 -3.743859e+00 -3.743442e+00 -3.748301e+00 -3.748675e+00 -3.755292e+00 -3.756052e+00 -3.764142e+00 -3.765116e+00 -3.774321e+00 -3.775456e+00 -3.785320e+00 -3.786626e+00 -3.796647e+00 -3.798172e+00 -3.807875e+00 -3.809655e+00 -3.818628e+00 -3.820660e+00 -3.828569e+00 -3.830807e+00 -3.837398e+00 -3.839779e+00 -3.844874e+00 -3.847335e+00 -3.850831e+00 -3.853325e+00 -3.855179e+00 -3.857669e+00 -3.857882e+00 -3.860331e+00 
-3.860455e+00 -3.862859e+00 -3.858821e+00 -3.861026e+00 -3.855329e+00 -3.857252e+00 -3.849968e+00 -3.851486e+00 -3.842727e+00 -3.843675e+00 -3.833620e+00 -3.833790e+00 -3.822707e+00 -3.821843e+00 -3.810095e+00 -3.807895e+00 -3.795914e+00 -3.792049e+00 -3.780295e+00 -3.774487e+00 -3.763382e+00 -3.755552e+00 -3.745449e+00 -3.735915e+00 -3.727136e+00 -3.716752e+00 -3.709706e+00 -3.699786e+00 -3.695059e+00 -3.687025e+00 -3.685250e+00 -3.680117e+00 -3.681802e+00 -3.679930e+00 -3.685310e+00 -3.686410e+00 -3.695312e+00 -3.698626e+00 -3.710415e+00 -3.714980e+00 -3.728664e+00 -3.733620e+00 -3.748136e+00 -3.752974e+00 -3.767371e+00 -3.771905e+00 -3.785453e+00 -3.789678e+00 -3.801892e+00 -3.805856e+00 -3.816444e+00 -3.820181e+00 -3.828979e+00 -3.832494e+00 -3.839419e+00 -3.842711e+00 -3.847731e+00 -3.850807e+00 -3.853929e+00 -3.856809e+00 -3.858066e+00 -3.860778e+00 -3.860218e+00 -3.862780e+00 
-3.859761e+00 -3.862154e+00 -3.859173e+00 -3.861414e+00 -3.856946e+00 -3.858936e+00 -3.853086e+00 -3.854706e+00 -3.847623e+00 -3.848740e+00 -3.840641e+00 -3.841114e+00 -3.832293e+00 -3.831981e+00 -3.822809e+00 -3.821575e+00 -3.812468e+00 -3.810194e+00 -3.801568e+00 -3.798186e+00 -3.790408e+00 -3.785960e+00 -3.779312e+00 -3.774021e+00 -3.768668e+00 -3.762967e+00 -3.758938e+00 -3.753393e+00 -3.750637e+00 -3.745848e+00 -3.744531e+00 -3.741136e+00 -3.741724e+00 -3.740064e+00 -3.742862e+00 -3.742599e+00 -3.747465e+00 -3.747913e+00 -3.754560e+00 -3.755317e+00 -3.763525e+00 -3.764496e+00 -3.773923e+00 -3.775066e+00 -3.785210e+00 -3.786529e+00 -3.796825e+00 -3.798361e+00 -3.808288e+00 -3.810078e+00 -3.819214e+00 -3.821254e+00 -3.829268e+00 -3.831513e+00 -3.838166e+00 -3.840552e+00 -3.845679e+00 -3.848146e+00 -3.851651e+00 -3.854155e+00 -3.856003e+00 -3.858510e+00 -3.858706e+00 -3.861181e+00 
-3.862327e+00 -3.864774e+00 -3.860681e+00 -3.862969e+00 -3.857203e+00 -3.859257e+00 -3.851876e+00 -3.853581e+00 -3.844675e+00 -3.845874e+00 -3.835602e+00 -3.836086e+00 -3.824699e+00 -3.824193e+00 -3.812050e+00 -3.810199e+00 -3.797754e+00 -3.794133e+00 -3.781892e+00 -3.776080e+00 -3.764525e+00 -3.756293e+00 -3.745808e+00 -3.735410e+00 -3.726271e+00 -3.714696e+00 -3.707255e+00 -3.696165e+00 -3.691086e+00 -3.682319e+00 -3.680279e+00 -3.674948e+00 -3.676452e+00 -3.674799e+00 -3.680180e+00 -3.681792e+00 -3.691054e+00 -3.695063e+00 -3.707611e+00 -3.712853e+00 -3.727481e+00 -3.732886e+00 -3.748348e+00 -3.753409e+00 -3.768601e+00 -3.773221e+00 -3.787335e+00 -3.791579e+00 -3.804129e+00 -3.808080e+00 -3.818827e+00 -3.822528e+00 -3.831369e+00 -3.834834e+00 -3.841737e+00 -3.844970e+00 -3.849940e+00 -3.852958e+00 -3.856022e+00 -3.858858e+00 -3.860058e+00 -3.862748e+00 -3.862134e+00 -3.864703e+00 
-3.862228e+00 -3.864730e+00 -3.861635e+00 -3.864023e+00 -3.859403e+00 -3.861583e+00 -3.855526e+00 -3.857381e+00 -3.850019e+00 -3.851408e+00 -3.842941e+00 -3.843705e+00 -3.834417e+00 -3.834379e+00 -3.824645e+00 -3.823608e+00 -3.813873e+00 -3.811641e+00 -3.802382e+00 -3.798809e+00 -3.790489e+00 -3.785591e+00 -3.778619e+00 -3.772692e+00 -3.767351e+00 -3.761001e+00 -3.757274e+00 -3.751193e+00 -3.748566e+00 -3.743266e+00 -3.741649e+00 -3.738014e+00 -3.738262e+00 -3.736965e+00 -3.739713e+00 -3.740045e+00 -3.744937e+00 -3.745604e+00 -3.752278e+00 -3.752954e+00 -3.761509e+00 -3.762456e+00 -3.772601e+00 -3.773784e+00 -3.784839e+00 -3.786210e+00 -3.797379e+00 -3.798958e+00 -3.809583e+00 -3.811408e+00 -3.821031e+00 -3.823099e+00 -3.831421e+00 -3.833686e+00 -3.840513e+00 -3.842913e+00 -3.848122e+00 -3.850605e+00 -3.854132e+00 -3.856661e+00 -3.858487e+00 -3.861040e+00 -3.861182e+00 -3.863731e+00 
-3.866045e+00 -3.868570e+00 -3.864379e+00 -3.866828e+00 -3.860943e+00 -3.863254e+00 -3.855699e+00 -3.857776e+00 -3.848601e+00 -3.850304e+00 -3.839616e+00 -3.840743e+00 -3.828749e+00 -3.829002e+00 -3.816042e+00 -3.814974e+00 -3.801537e+00 -3.798528e+00 -3.785230e+00 -3.779537e+00 -3.767028e+00 -3.758032e+00 -3.746802e+00 -3.734523e+00 -3.724705e+00 -3.710392e+00 -3.702080e+00 -3.688236e+00 -3.682422e+00 -3.672113e+00 -3.669570e+00 -3.663985e+00 -3.665040e+00 -3.663944e+00 -3.669131e+00 -3.671855e+00 -3.681786e+00 -3.687377e+00 -3.701666e+00 -3.708485e+00 -3.725195e+00 -3.731508e+00 -3.749025e+00 -3.754457e+00 -3.771337e+00 -3.776076e+00 -3.791339e+00 -3.795605e+00 -3.808796e+00 -3.812722e+00 -3.823732e+00 -3.827368e+00 -3.836245e+00 -3.839605e+00 -3.846430e+00 -3.849536e+00 -3.854383e+00 -3.857276e+00 -3.860210e+00 -3.862946e+00 -3.864026e+00 -3.866662e+00 -3.865943e+00 -3.868518e+00 
-3.866347e+00 -3.869024e+00 -3.865751e+00 -3.868384e+00 -3.863529e+00 -3.866030e+00 -3.859654e+00 -3.861909e+00 -3.854107e+00 -3.855971e+00 -3.846902e+00 -3.848191e+00 -3.838111e+00 -3.838586e+00 -3.827867e+00 -3.827224e+00 -3.816352e+00 -3.814238e+00 -3.803779e+00 -3.799881e+00 -3.790468e+00 -3.784703e+00 -3.777026e+00 -3.769825e+00 -3.764540e+00 -3.756957e+00 -3.754221e+00 -3.747331e+00 -3.745204e+00 -3.738808e+00 -3.736313e+00 -3.731966e+00 -3.731323e+00 -3.731023e+00 -3.733875e+00 -3.735819e+00 -3.740820e+00 -3.741771e+00 -3.748168e+00 -3.748351e+00 -3.757450e+00 -3.758361e+00 -3.769912e+00 -3.771237e+00 -3.784091e+00 -3.785599e+00 -3.798412e+00 -3.800093e+00 -3.811945e+00 -3.813851e+00 -3.824274e+00 -3.826404e+00 -3.835195e+00 -3.837498e+00 -3.844570e+00 -3.846987e+00 -3.852299e+00 -3.854794e+00 -3.858330e+00 -3.860888e+00 -3.862662e+00 -3.865279e+00 -3.865323e+00 -3.867986e+00 
-3.871556e+00 -3.874186e+00 -3.869876e+00 -3.872552e+00 -3.866532e+00 -3.869213e+00 -3.861458e+00 -3.864076e+00 -3.854563e+00 -3.857017e+00 -3.845760e+00 -3.847883e+00 -3.834992e+00 -3.836483e+00 -3.822232e+00 -3.822552e+00 -3.807453e+00 -3.805708e+00 -3.790566e+00 -3.785451e+00 -3.771315e+00 -3.761369e+00 -3.749111e+00 -3.733630e+00 -3.723027e+00 -3.703567e+00 -3.693572e+00 -3.674161e+00 -3.667155e+00 -3.654451e+00 -3.651409e+00 -3.646047e+00 -3.646224e+00 -3.646268e+00 -3.650409e+00 -3.654875e+00 -3.665538e+00 -3.674074e+00 -3.691841e+00 -3.701827e+00 -3.722166e+00 -3.729738e+00 -3.750793e+00 -3.756495e+00 -3.776167e+00 -3.780946e+00 -3.797959e+00 -3.802244e+00 -3.816278e+00 -3.820190e+00 -3.831446e+00 -3.834995e+00 -3.843799e+00 -3.846992e+00 -3.853613e+00 -3.856499e+00 -3.861113e+00 -3.863780e+00 -3.866495e+00 -3.869049e+00 -3.869939e+00 -3.872470e+00 -3.871592e+00 -3.874161e+00 
-3.872125e+00 -3.875038e+00 -3.871539e+00 -3.874510e+00 -3.869370e+00 -3.872324e+00 -3.865560e+00 -3.868392e+00 -3.860033e+00 -3.862604e+00 -3.852730e+00 -3.854833e+00 -3.843633e+00 -3.844951e+00 -3.832768e+00 -3.832836e+00 -3.820181e+00 -3.818380e+00 -3.805919e+00 -3.801583e+00 -3.790160e+00 -3.782907e+00 -3.773689e+00 -3.764080e+00 -3.758680e+00 -3.748887e+00 -3.749243e+00 -3.741959e+00 -3.741583e+00 -3.732839e+00 -3.727610e+00 -3.720848e+00 -3.717807e+00 -3.720210e+00 -3.724233e+00 -3.730677e+00 -3.736241e+00 -3.737021e+00 -3.741688e+00 -3.739768e+00 -3.749604e+00 -3.750773e+00 -3.764924e+00 -3.766715e+00 -3.782850e+00 -3.784674e+00 -3.800219e+00 -3.802111e+00 -3.815777e+00 -3.817848e+00 -3.829314e+00 -3.831564e+00 -3.840892e+00 -3.843252e+00 -3.850563e+00 -3.852984e+00 -3.858364e+00 -3.860842e+00 -3.864342e+00 -3.866906e+00 -3.868575e+00 -3.871254e+00 -3.871146e+00 -3.873952e+00 
-3.878775e+00 -3.881524e+00 -3.877105e+00 -3.880059e+00 -3.873944e+00 -3.877082e+00 -3.869180e+00 -3.872477e+00 -3.862654e+00 -3.866078e+00 -3.854195e+00 -3.857663e+00 -3.843644e+00 -3.846929e+00 -3.830870e+00 -3.833418e+00 -3.815750e+00 -3.816411e+00 -3.798159e+00 -3.794830e+00 -3.777897e+00 -3.767446e+00 -3.754104e+00 -3.733718e+00 -3.723277e+00 -3.694706e+00 -3.680804e+00 -3.649429e+00 -3.640626e+00 -3.625245e+00 -3.622876e+00 -3.620028e+00 -3.618752e+00 -3.620803e+00 -3.620997e+00 -3.627150e+00 -3.637614e+00 -3.651440e+00 -3.677069e+00 -3.694016e+00 -3.719837e+00 -3.728138e+00 -3.754911e+00 -3.760074e+00 -3.784003e+00 -3.788629e+00 -3.807934e+00 -3.812326e+00 -3.827160e+00 -3.831159e+00 -3.842390e+00 -3.845863e+00 -3.854310e+00 -3.857249e+00 -3.863443e+00 -3.865966e+00 -3.870189e+00 -3.872482e+00 -3.874866e+00 -3.877116e+00 -3.877737e+00 -3.880088e+00 -3.878999e+00 -3.881534e+00 
-3.879559e+00 -3.882758e+00 -3.879009e+00 -3.882406e+00 -3.876980e+00 -3.880511e+00 -3.873362e+00 -3.876951e+00 -3.868000e+00 -3.871535e+00 -3.860723e+00 -3.864000e+00 -3.851377e+00 -3.854012e+00 -3.839831e+00 -3.841150e+00 -3.825911e+00 -3.824884e+00 -3.809300e+00 -3.804595e+00 -3.789629e+00 -3.780015e+00 -3.767316e+00 -3.752990e+00 -3.745474e+00 -3.730937e+00 -3.741067e+00 -3.737552e+00 -3.743258e+00 -3.728927e+00 -3.714371e+00 -3.698487e+00 -3.688421e+00 -3.698479e+00 -3.708721e+00 -3.728938e+00 -3.737291e+00 -3.734835e+00 -3.731665e+00 -3.721788e+00 -3.733165e+00 -3.737025e+00 -3.756166e+00 -3.759152e+00 -3.781352e+00 -3.783745e+00 -3.803588e+00 -3.805842e+00 -3.821841e+00 -3.824224e+00 -3.836749e+00 -3.839218e+00 -3.848954e+00 -3.851388e+00 -3.858809e+00 -3.861183e+00 -3.866526e+00 -3.868912e+00 -3.872288e+00 -3.874794e+00 -3.876279e+00 -3.878992e+00 -3.878664e+00 -3.881624e+00 
-3.887569e+00 -3.890446e+00 -3.885962e+00 -3.889229e+00 -3.883128e+00 -3.886771e+00 -3.878889e+00 -3.882936e+00 -3.872993e+00 -3.877518e+00 -3.865142e+00 -3.870229e+00 -3.855024e+00 -3.860654e+00 -3.842325e+00 -3.848149e+00 -3.826727e+00 -3.831636e+00 -3.808049e+00 -3.809256e+00 -3.786813e+00 -3.778283e+00 -3.764079e+00 -3.736830e+00 -3.732705e+00 -3.689729e+00 -3.663527e+00 -3.601839e+00 -3.590525e+00 -3.576187e+00 -3.580207e+00 -3.587901e+00 -3.585009e+00 -3.589683e+00 -3.576653e+00 -3.580567e+00 -3.585698e+00 -3.609041e+00 -3.657368e+00 -3.693121e+00 -3.723738e+00 -3.727164e+00 -3.763484e+00 -3.765683e+00 -3.795888e+00 -3.800429e+00 -3.822229e+00 -3.827227e+00 -3.842241e+00 -3.846640e+00 -3.857125e+00 -3.860567e+00 -3.868119e+00 -3.870651e+00 -3.876091e+00 -3.878010e+00 -3.881653e+00 -3.883334e+00 -3.885273e+00 -3.887041e+00 -3.887312e+00 -3.889380e+00 -3.888029e+00 -3.890494e+00 
-3.888607e+00 -3.892138e+00 -3.888138e+00 -3.892034e+00 -3.886387e+00 -3.890599e+00 -3.883178e+00 -3.887677e+00 -3.878241e+00 -3.882994e+00 -3.871249e+00 -3.876131e+00 -3.861866e+00 -3.866484e+00 -3.849761e+00 -3.853231e+00 -3.834499e+00 -3.835263e+00 -3.815203e+00 -3.810896e+00 -3.790205e+00 -3.777584e+00 -3.757921e+00 -3.734210e+00 -3.712122e+00 -3.682134e+00 -3.724620e+00 -3.747240e+00 -3.774981e+00 -3.745458e+00 -3.697014e+00 -3.645217e+00 -3.612680e+00 -3.645672e+00 -3.683300e+00 -3.749954e+00 -3.771314e+00 -3.750620e+00 -3.713434e+00 -3.674301e+00 -3.693745e+00 -3.714616e+00 -3.743396e+00 -3.747434e+00 -3.781344e+00 -3.784311e+00 -3.810372e+00 -3.813159e+00 -3.831426e+00 -3.834385e+00 -3.847408e+00 -3.850265e+00 -3.859934e+00 -3.862436e+00 -3.869678e+00 -3.871875e+00 -3.877015e+00 -3.879149e+00 -3.882282e+00 -3.884608e+00 -3.885803e+00 -3.888490e+00 -3.887851e+00 -3.890966e+00 
-3.897724e+00 -3.900753e+00 -3.896269e+00 -3.899875e+00 -3.893969e+00 -3.898116e+00 -3.890565e+00 -3.895325e+00 -3.885683e+00 -3.891276e+00 -3.878858e+00 -3.885628e+00 -3.869566e+00 -3.877876e+00 -3.857200e+00 -3.867259e+00 -3.840948e+00 -3.852536e+00 -3.819902e+00 -3.831162e+00 -3.795602e+00 -3.797538e+00 -3.779957e+00 -3.742765e+00 -3.776955e+00 -3.722808e+00 -3.647230e+00 -3.490948e+00 -3.478830e+00 -3.490665e+00 -3.522781e+00 -3.566044e+00 -3.564718e+00 -3.569319e+00 -3.514130e+00 -3.496195e+00 -3.471537e+00 -3.510165e+00 -3.641237e+00 -3.741430e+00 -3.753672e+00 -3.720126e+00 -3.777449e+00 -3.773194e+00 -3.812099e+00 -3.818976e+00 -3.842171e+00 -3.849351e+00 -3.862651e+00 -3.868052e+00 -3.876331e+00 -3.879738e+00 -3.885572e+00 -3.887360e+00 -3.891675e+00 -3.892552e+00 -3.895468e+00 -3.896161e+00 -3.897573e+00 -3.898614e+00 -3.898464e+00 -3.900133e+00 -3.898460e+00 -3.900832e+00 
-3.899138e+00 -3.903049e+00 -3.898814e+00 -3.903268e+00 -3.897540e+00 -3.902484e+00 -3.895060e+00 -3.900538e+00 -3.890957e+00 -3.897103e+00 -3.884689e+00 -3.891610e+00 -3.875673e+00 -3.883141e+00 -3.863376e+00 -3.870402e+00 -3.847269e+00 -3.851807e+00 -3.826142e+00 -3.824892e+00 -3.796273e+00 -3.782855e+00 -3.758538e+00 -3.720211e+00 -3.616988e+00 -3.514511e+00 -3.669323e+00 -3.825834e+00 -3.938750e+00 -3.861111e+00 -3.684099e+00 -3.492608e+00 -3.386022e+00 -3.489602e+00 -3.635255e+00 -3.871617e+00 -3.954078e+00 -3.845571e+00 -3.656750e+00 -3.510744e+00 -3.584193e+00 -3.697732e+00 -3.739958e+00 -3.729428e+00 -3.788026e+00 -3.791412e+00 -3.824283e+00 -3.827899e+00 -3.846309e+00 -3.850395e+00 -3.862166e+00 -3.865703e+00 -3.874371e+00 -3.876843e+00 -3.883520e+00 -3.885237e+00 -3.890019e+00 -3.891594e+00 -3.894373e+00 -3.896314e+00 -3.897094e+00 -3.899671e+00 -3.898595e+00 -3.901870e+00 
-3.908890e+00 -3.912152e+00 -3.907719e+00 -3.911706e+00 -3.906228e+00 -3.910820e+00 -3.904070e+00 -3.909356e+00 -3.900731e+00 -3.907092e+00 -3.895545e+00 -3.903674e+00 -3.887753e+00 -3.898520e+00 -3.876477e+00 -3.890843e+00 -3.860127e+00 -3.879898e+00 -3.834452e+00 -3.864225e+00 -3.794314e+00 -3.836038e+00 -3.780464e+00 -3.711375e+00 -3.948046e+00 -3.949037e+00 -3.424142e+00 -2.075284e+00 -6.500823e-01 8.221999e-01 2.160984e+00 3.091030e+00 3.455201e+00 3.122274e+00 2.257932e+00 8.479940e-01 -4.703405e-01 -2.013426e+00 -3.453240e+00 -4.030900e+00 -3.877708e+00 -3.637737e+00 -3.778475e+00 -3.785861e+00 -3.830371e+00 -3.851305e+00 -3.870838e+00 -3.883015e+00 -3.890184e+00 -3.897057e+00 -3.900674e+00 -3.903679e+00 -3.906844e+00 -3.907123e+00 -3.910129e+00 -3.909176e+00 -3.911410e+00 -3.910538e+00 -3.911448e+00 -3.911455e+00 -3.910829e+00 -3.912011e+00 -3.909922e+00 -3.912242e+00 
-3.910851e+00 -3.915239e+00 -3.910756e+00 -3.915822e+00 -3.910221e+00 -3.915862e+00 -3.908906e+00 -3.915246e+00 -3.906218e+00 -3.913683e+00 -3.901322e+00 -3.910540e+00 -3.893254e+00 -3.904556e+00 -3.881243e+00 -3.893756e+00 -3.865217e+00 -3.876587e+00 -3.845519e+00 -3.853249e+00 -3.809482e+00 -3.807016e+00 -3.858782e+00 -3.730497e+00 -2.746446e+00 3.423175e-01 4.036738e+00 7.496608e+00 9.981780e+00 1.146755e+01 1.246377e+01 1.292825e+01 1.308727e+01 1.294695e+01 1.245516e+01 1.150471e+01 1.016805e+01 7.566466e+00 4.016078e+00 5.959284e-01 -2.197454e+00 -3.753466e+00 -3.841450e+00 -3.678539e+00 -3.802789e+00 -3.821784e+00 -3.851483e+00 -3.856596e+00 -3.867805e+00 -3.874244e+00 -3.881310e+00 -3.886022e+00 -3.892530e+00 -3.894598e+00 -3.900547e+00 -3.901112e+00 -3.905592e+00 -3.906062e+00 -3.908454e+00 -3.909722e+00 -3.909931e+00 -3.912329e+00 -3.910615e+00 -3.914108e+00 
-3.920521e+00 -3.924231e+00 -3.919809e+00 -3.924290e+00 -3.919461e+00 -3.924406e+00 -3.919054e+00 -3.924482e+00 -3.917924e+00 -3.924375e+00 -3.915156e+00 -3.923783e+00 -3.909743e+00 -3.921983e+00 -3.901066e+00 -3.917859e+00 -3.888709e+00 -3.912083e+00 -3.863859e+00 -3.910617e+00 -3.768126e+00 -3.919504e+00 -3.169503e+00 4.536223e-01 4.470567e+00 8.938226e+00 1.191494e+01 1.297565e+01 1.356364e+01 1.351478e+01 1.347693e+01 1.333971e+01 1.332532e+01 1.334874e+01 1.343998e+01 1.356500e+01 1.357640e+01 1.306634e+01 1.200757e+01 9.501802e+00 5.039991e+00 3.884247e-01 -2.768121e+00 -3.847587e+00 -3.854463e+00 -3.914217e+00 -3.919582e+00 -3.934422e+00 -3.927094e+00 -3.934089e+00 -3.929962e+00 -3.931377e+00 -3.931524e+00 -3.928746e+00 -3.931002e+00 -3.926866e+00 -3.928938e+00 -3.925685e+00 -3.926293e+00 -3.924964e+00 -3.923793e+00 -3.924527e+00 -3.921827e+00 -3.924296e+00 
-3.923208e+00 -3.928283e+00 -3.923437e+00 -3.929202e+00 -3.923947e+00 -3.930138e+00 -3.924343e+00 -3.931097e+00 -3.923858e+00 -3.931995e+00 -3.921244e+00 -3.932405e+00 -3.914808e+00 -3.930753e+00 -3.902991e+00 -3.923299e+00 -3.886686e+00 -3.907849e+00 -3.883883e+00 -3.910087e+00 -3.589298e+00 -1.627746e+00 2.844940e+00 8.972585e+00 1.217654e+01 1.313085e+01 1.333598e+01 1.301338e+01 1.300895e+01 1.296806e+01 1.305482e+01 1.305938e+01 1.310268e+01 1.306564e+01 1.304535e+01 1.298865e+01 1.301301e+01 1.303807e+01 1.337214e+01 1.318861e+01 1.213764e+01 9.088244e+00 3.498880e+00 -1.442531e+00 -3.651243e+00 -3.952208e+00 -3.909569e+00 -3.902540e+00 -3.892534e+00 -3.904351e+00 -3.903092e+00 -3.909869e+00 -3.914181e+00 -3.914691e+00 -3.920795e+00 -3.918790e+00 -3.923578e+00 -3.922051e+00 -3.924161e+00 -3.924434e+00 -3.923832e+00 -3.926099e+00 -3.923380e+00 -3.927302e+00 
-3.931834e+00 -3.936457e+00 -3.931794e+00 -3.937048e+00 -3.932952e+00 -3.938185e+00 -3.934867e+00 -3.939843e+00 -3.936747e+00 -3.942067e+00 -3.937239e+00 -3.944827e+00 -3.934543e+00 -3.947155e+00 -3.928462e+00 -3.945534e+00 -3.928900e+00 -3.940152e+00 -3.971062e+00 -3.753438e+00 -9.846640e-01 5.412961e+00 1.052439e+01 1.285113e+01 1.325219e+01 1.299541e+01 1.303034e+01 1.312597e+01 1.328367e+01 1.329260e+01 1.334412e+01 1.330266e+01 1.332750e+01 1.330711e+01 1.333695e+01 1.330605e+01 1.329167e+01 1.312730e+01 1.305951e+01 1.294532e+01 1.324016e+01 1.298427e+01 1.098714e+01 5.936439e+00 -5.727880e-01 -3.648741e+00 -4.025968e+00 -4.006263e+00 -3.968354e+00 -3.973076e+00 -3.960107e+00 -3.958696e+00 -3.958065e+00 -3.949502e+00 -3.953360e+00 -3.943852e+00 -3.947091e+00 -3.940453e+00 -3.941121e+00 -3.938350e+00 -3.936426e+00 -3.937071e+00 -3.933330e+00 -3.936454e+00 
-3.935386e+00 -3.941603e+00 -3.936032e+00 -3.942724e+00 -3.937897e+00 -3.944430e+00 -3.940631e+00 -3.946879e+00 -3.943395e+00 -3.950426e+00 -3.944440e+00 -3.955573e+00 -3.940642e+00 -3.961377e+00 -3.927396e+00 -3.958947e+00 -3.892653e+00 -3.919977e+00 -3.747496e+00 -7.896777e-01 5.987605e+00 1.170692e+01 1.308111e+01 1.309025e+01 1.301829e+01 1.313413e+01 1.315029e+01 1.307965e+01 1.309652e+01 1.305667e+01 1.309891e+01 1.307678e+01 1.311002e+01 1.307805e+01 1.309590e+01 1.305927e+01 1.309722e+01 1.307727e+01 1.316083e+01 1.311951e+01 1.304012e+01 1.306577e+01 1.318062e+01 1.193648e+01 6.545364e+00 -3.408880e-01 -3.627937e+00 -3.898827e+00 -3.888145e+00 -3.929208e+00 -3.922811e+00 -3.933312e+00 -3.939458e+00 -3.934915e+00 -3.944460e+00 -3.937018e+00 -3.943591e+00 -3.938817e+00 -3.940764e+00 -3.939909e+00 -3.937963e+00 -3.940483e+00 -3.936057e+00 -3.940931e+00 
-3.941849e+00 -3.948245e+00 -3.942701e+00 -3.949332e+00 -3.945692e+00 -3.951352e+00 -3.950527e+00 -3.954305e+00 -3.956475e+00 -3.958522e+00 -3.961526e+00 -3.964961e+00 -3.960812e+00 -3.973970e+00 -3.946213e+00 -3.974281e+00 -3.922914e+00 -3.827335e+00 -1.306308e+00 5.983129e+00 1.183422e+01 1.315568e+01 1.308836e+01 1.315942e+01 1.318210e+01 1.313302e+01 1.316913e+01 1.317718e+01 1.324754e+01 1.324455e+01 1.329257e+01 1.326915e+01 1.329982e+01 1.326910e+01 1.329026e+01 1.324287e+01 1.324852e+01 1.316679e+01 1.317409e+01 1.311140e+01 1.318165e+01 1.315579e+01 1.309559e+01 1.311111e+01 1.206627e+01 6.718005e+00 -8.529074e-01 -3.923253e+00 -3.954061e+00 -3.989929e+00 -3.980805e+00 -3.978478e+00 -3.985490e+00 -3.965411e+00 -3.976388e+00 -3.957922e+00 -3.964513e+00 -3.953613e+00 -3.954500e+00 -3.950828e+00 -3.947467e+00 -3.949022e+00 -3.943350e+00 -3.948144e+00 
-3.946334e+00 -3.954555e+00 -3.947452e+00 -3.955644e+00 -3.950882e+00 -3.957758e+00 -3.956545e+00 -3.961013e+00 -3.963912e+00 -3.966182e+00 -3.971017e+00 -3.976094e+00 -3.973183e+00 -3.997396e+00 -3.970264e+00 -4.031585e+00 -4.049794e+00 -2.758422e+00 3.915216e+00 1.150754e+01 1.330091e+01 1.321477e+01 1.321131e+01 1.316855e+01 1.314987e+01 1.315555e+01 1.315977e+01 1.312991e+01 1.314524e+01 1.311492e+01 1.314168e+01 1.311490e+01 1.314262e+01 1.311323e+01 1.313942e+01 1.310876e+01 1.314244e+01 1.311526e+01 1.315673e+01 1.312583e+01 1.314147e+01 1.311080e+01 1.317971e+01 1.308031e+01 1.317728e+01 1.178301e+01 4.938787e+00 -1.944567e+00 -3.928165e+00 -3.979017e+00 -3.957373e+00 -3.956469e+00 -3.974044e+00 -3.952774e+00 -3.972691e+00 -3.954525e+00 -3.964870e+00 -3.955755e+00 -3.957000e+00 -3.955675e+00 -3.951088e+00 -3.954966e+00 -3.947533e+00 -3.954415e+00 
-3.949545e+00 -3.959073e+00 -3.951450e+00 -3.960591e+00 -3.956402e+00 -3.963248e+00 -3.964593e+00 -3.966756e+00 -3.976131e+00 -3.971329e+00 -3.989716e+00 -3.980033e+00 -3.997830e+00 -4.007124e+00 -3.972284e+00 -4.105844e+00 -3.629774e+00 1.826835e+00 9.714182e+00 1.306901e+01 1.323119e+01 1.321780e+01 1.320062e+01 1.320939e+01 1.321643e+01 1.320236e+01 1.322565e+01 1.321872e+01 1.325669e+01 1.324543e+01 1.328057e+01 1.325917e+01 1.328725e+01 1.325701e+01 1.327888e+01 1.323841e+01 1.325495e+01 1.320567e+01 1.322424e+01 1.318606e+01 1.321400e+01 1.320278e+01 1.320071e+01 1.323831e+01 1.323764e+01 1.333026e+01 1.068374e+01 2.321596e+00 -3.761539e+00 -4.104546e+00 -4.022292e+00 -3.997379e+00 -4.023975e+00 -3.973257e+00 -4.000462e+00 -3.967409e+00 -3.979153e+00 -3.964527e+00 -3.964425e+00 -3.961997e+00 -3.955396e+00 -3.959953e+00 -3.950727e+00 -3.958878e+00 
-3.954962e+00 -3.966554e+00 -3.956505e+00 -3.967408e+00 -3.961390e+00 -3.969527e+00 -3.970174e+00 -3.972329e+00 -3.983539e+00 -3.975419e+00 -4.000278e+00 -3.981963e+00 -4.006556e+00 -4.016827e+00 -3.925857e+00 -4.219563e+00 -2.030149e+00 6.785376e+00 1.297325e+01 1.318983e+01 1.328411e+01 1.322627e+01 1.324549e+01 1.321061e+01 1.321027e+01 1.319213e+01 1.319662e+01 1.317236e+01 1.318478e+01 1.315831e+01 1.317847e+01 1.315194e+01 1.317641e+01 1.314912e+01 1.317652e+01 1.314920e+01 1.318079e+01 1.315483e+01 1.318848e+01 1.316300e+01 1.319079e+01 1.316686e+01 1.319747e+01 1.317222e+01 1.317236e+01 1.318628e+01 1.274293e+01 7.266116e+00 -1.011297e+00 -4.045286e+00 -3.983014e+00 -3.959345e+00 -4.024085e+00 -3.962460e+00 -4.005448e+00 -3.970859e+00 -3.985088e+00 -3.973109e+00 -3.970674e+00 -3.971641e+00 -3.961579e+00 -3.969143e+00 -3.956578e+00 -3.967197e+00 
-3.954161e+00 -3.968591e+00 -3.957103e+00 -3.970582e+00 -3.963613e+00 -3.973851e+00 -3.974676e+00 -3.977135e+00 -3.992462e+00 -3.977908e+00 -4.020817e+00 -3.972649e+00 -4.063474e+00 -3.965179e+00 -4.106111e+00 -3.910359e+00 2.180176e+00 1.072657e+01 1.339693e+01 1.325363e+01 1.328922e+01 1.326441e+01 1.325948e+01 1.325626e+01 1.325691e+01 1.324884e+01 1.326114e+01 1.325058e+01 1.327267e+01 1.325753e+01 1.328265e+01 1.326109e+01 1.328555e+01 1.325771e+01 1.328063e+01 1.324726e+01 1.326908e+01 1.323333e+01 1.325593e+01 1.322576e+01 1.324954e+01 1.323006e+01 1.325171e+01 1.323359e+01 1.329099e+01 1.319188e+01 1.344489e+01 1.193824e+01 3.465934e+00 -3.717380e+00 -4.194335e+00 -3.930375e+00 -4.084656e+00 -3.959201e+00 -4.020113e+00 -3.971950e+00 -3.985980e+00 -3.974130e+00 -3.968002e+00 -3.972244e+00 -3.958678e+00 -3.969779e+00 -3.954545e+00 -3.968347e+00 
-3.960494e+00 -3.977129e+00 -3.962224e+00 -3.977837e+00 -3.967783e+00 -3.980216e+00 -3.978598e+00 -3.982343e+00 -3.998495e+00 -3.978951e+00 -4.037568e+00 -3.955145e+00 -4.123696e+00 -3.866969e+00 -4.340892e+00 -2.632405e+00 6.633315e+00 1.338745e+01 1.338079e+01 1.333039e+01 1.331058e+01 1.328883e+01 1.327582e+01 1.325575e+01 1.324887e+01 1.322905e+01 1.323007e+01 1.320687e+01 1.321596e+01 1.319073e+01 1.320730e+01 1.318153e+01 1.320415e+01 1.317842e+01 1.320608e+01 1.318109e+01 1.321316e+01 1.318979e+01 1.322402e+01 1.320338e+01 1.323527e+01 1.322143e+01 1.324700e+01 1.325070e+01 1.325689e+01 1.330503e+01 1.329716e+01 1.317128e+01 7.047972e+00 -2.030762e+00 -4.411087e+00 -3.849196e+00 -4.132726e+00 -3.963243e+00 -4.037868e+00 -3.991170e+00 -3.998025e+00 -3.993160e+00 -3.978332e+00 -3.988210e+00 -3.967695e+00 -3.982669e+00 -3.962209e+00 -3.978741e+00 
-3.955637e+00 -3.976562e+00 -3.959311e+00 -3.979348e+00 -3.966158e+00 -3.984153e+00 -3.977483e+00 -3.989106e+00 -3.996965e+00 -3.988277e+00 -4.035511e+00 -3.962405e+00 -4.128323e+00 -3.846959e+00 -4.404924e+00 -5.267883e-02 9.880114e+00 1.362498e+01 1.323037e+01 1.341457e+01 1.329066e+01 1.333809e+01 1.329396e+01 1.330346e+01 1.328990e+01 1.328444e+01 1.328699e+01 1.327461e+01 1.328737e+01 1.327010e+01 1.328872e+01 1.326681e+01 1.328853e+01 1.326239e+01 1.328600e+01 1.325665e+01 1.328185e+01 1.325162e+01 1.327794e+01 1.325117e+01 1.327535e+01 1.325912e+01 1.326973e+01 1.328385e+01 1.324430e+01 1.336939e+01 1.310862e+01 1.372351e+01 1.082586e+01 9.110594e-01 -4.429243e+00 -3.835194e+00 -4.101549e+00 -3.957418e+00 -4.007540e+00 -3.985049e+00 -3.975344e+00 -3.986921e+00 -3.962304e+00 -3.982772e+00 -3.956594e+00 -3.978598e+00 -3.954700e+00 -3.976325e+00 
-3.962935e+00 -3.985757e+00 -3.964407e+00 -3.986826e+00 -3.968969e+00 -3.991056e+00 -3.977512e+00 -3.997151e+00 -3.993048e+00 -4.000948e+00 -4.025841e+00 -3.988681e+00 -4.112322e+00 -3.915995e+00 -4.386354e+00 2.280920e+00 1.229595e+01 1.384052e+01 1.326422e+01 1.348069e+01 1.331560e+01 1.335461e+01 1.330251e+01 1.329589e+01 1.327816e+01 1.325906e+01 1.325589e+01 1.323232e+01 1.323877e+01 1.321360e+01 1.322820e+01 1.320282e+01 1.322463e+01 1.319972e+01 1.322808e+01 1.320420e+01 1.323858e+01 1.321632e+01 1.325551e+01 1.323604e+01 1.327738e+01 1.326548e+01 1.330282e+01 1.331638e+01 1.332655e+01 1.342862e+01 1.332154e+01 1.373125e+01 1.254236e+01 3.540510e+00 -4.146997e+00 -4.032984e+00 -4.063037e+00 -4.046787e+00 -4.012969e+00 -4.035462e+00 -3.989323e+00 -4.019376e+00 -3.976355e+00 -4.005213e+00 -3.968613e+00 -3.994767e+00 -3.964314e+00 -3.988322e+00 
-3.954953e+00 -3.982575e+00 -3.958865e+00 -3.986556e+00 -3.964489e+00 -3.994448e+00 -3.971884e+00 -4.006408e+00 -3.981224e+00 -4.022236e+00 -3.993945e+00 -4.040408e+00 -4.016704e+00 -4.058521e+00 -3.996536e+00 4.225729e+00 1.314067e+01 1.367673e+01 1.339015e+01 1.347018e+01 1.336570e+01 1.338091e+01 1.333976e+01 1.333554e+01 1.332003e+01 1.330821e+01 1.330672e+01 1.329075e+01 1.329892e+01 1.327968e+01 1.329482e+01 1.327238e+01 1.329260e+01 1.326708e+01 1.329146e+01 1.326340e+01 1.329188e+01 1.326219e+01 1.329506e+01 1.326459e+01 1.330184e+01 1.327136e+01 1.331246e+01 1.328489e+01 1.332921e+01 1.331343e+01 1.336525e+01 1.335152e+01 1.348094e+01 6.208593e+00 -3.416281e+00 -4.105980e+00 -3.883940e+00 -4.048918e+00 -3.930047e+00 -4.022473e+00 -3.944129e+00 -4.005250e+00 -3.948908e+00 -3.993410e+00 -3.950873e+00 -3.985924e+00 -3.952492e+00 -3.982368e+00 
-3.963344e+00 -3.991584e+00 -3.964271e+00 -3.993365e+00 -3.966702e+00 -4.000444e+00 -3.969433e+00 -4.014112e+00 -3.969251e+00 -4.037992e+00 -3.957400e+00 -4.082561e+00 -3.907084e+00 -4.183604e+00 -3.425787e+00 6.292406e+00 1.378650e+01 1.346558e+01 1.351778e+01 1.342193e+01 1.340457e+01 1.336168e+01 1.334374e+01 1.331361e+01 1.330317e+01 1.327613e+01 1.327378e+01 1.324742e+01 1.325326e+01 1.322728e+01 1.324121e+01 1.321577e+01 1.323746e+01 1.321275e+01 1.324205e+01 1.321822e+01 1.325547e+01 1.323234e+01 1.327851e+01 1.325503e+01 1.331279e+01 1.328649e+01 1.336372e+01 1.332887e+01 1.344785e+01 1.338514e+01 1.361271e+01 1.343397e+01 1.399842e+01 7.687834e+00 -3.026176e+00 -4.302852e+00 -3.913826e+00 -4.153510e+00 -3.957038e+00 -4.083264e+00 -3.968515e+00 -4.043437e+00 -3.969000e+00 -4.018828e+00 -3.966513e+00 -4.003508e+00 -3.964211e+00 -3.994830e+00 
-3.953891e+00 -3.985891e+00 -3.957736e+00 -3.990824e+00 -3.961868e+00 -4.001379e+00 -3.964672e+00 -4.020027e+00 -3.961289e+00 -4.053085e+00 -3.938474e+00 -4.117066e+00 -3.860174e+00 -4.257972e+00 -3.043314e+00 7.356560e+00 1.403218e+01 1.341298e+01 1.362926e+01 1.342167e+01 1.345798e+01 1.338388e+01 1.338061e+01 1.334755e+01 1.334097e+01 1.331918e+01 1.331848e+01 1.329868e+01 1.330558e+01 1.328478e+01 1.329863e+01 1.327569e+01 1.329537e+01 1.326988e+01 1.329489e+01 1.326684e+01 1.329772e+01 1.326684e+01 1.330549e+01 1.326975e+01 1.332086e+01 1.327377e+01 1.335024e+01 1.327483e+01 1.341278e+01 1.326340e+01 1.355878e+01 1.320373e+01 1.388600e+01 8.621088e+00 -2.402390e+00 -4.227594e+00 -3.793661e+00 -4.108399e+00 -3.881600e+00 -4.049799e+00 -3.921345e+00 -4.018274e+00 -3.938546e+00 -4.000300e+00 -3.946221e+00 -3.990221e+00 -3.950417e+00 -3.985697e+00 
-3.963240e+00 -3.993663e+00 -3.963885e+00 -3.995800e+00 -3.965225e+00 -4.004212e+00 -3.964975e+00 -4.021390e+00 -3.956950e+00 -4.054013e+00 -3.925075e+00 -4.118907e+00 -3.829321e+00 -4.257152e+00 -2.866225e+00 7.688483e+00 1.399964e+01 1.334660e+01 1.362657e+01 1.338704e+01 1.345029e+01 1.335754e+01 1.336382e+01 1.331760e+01 1.331364e+01 1.328134e+01 1.328044e+01 1.325234e+01 1.325834e+01 1.323183e+01 1.324569e+01 1.322014e+01 1.324188e+01 1.321715e+01 1.324691e+01 1.322292e+01 1.326150e+01 1.323763e+01 1.328711e+01 1.326101e+01 1.332690e+01 1.329197e+01 1.338949e+01 1.332801e+01 1.349831e+01 1.335942e+01 1.370676e+01 1.334091e+01 1.408717e+01 9.052848e+00 -2.243681e+00 -4.321819e+00 -3.858962e+00 -4.181764e+00 -3.932596e+00 -4.100223e+00 -3.958556e+00 -4.052616e+00 -3.965199e+00 -4.023982e+00 -3.965212e+00 -4.006712e+00 -3.963867e+00 -3.997151e+00 