# vtk DataFile Version 2.0
Comment goes here
ASCII

DATASET STRUCTURED_POINTS
FIELD FieldData 1
TIME 1 1 double
1.53000000
DIMENSIONS    64   64   1

ORIGIN    0.000   0.000   0.000
SPACING   0.015625 0.015625   1.000

POINT_DATA   4096
SCALARS P double
LOOKUP_TABLE default

-3.991642e+00 -3.994826e+00 -3.991327e+00 -3.994267e+00 -3.989101e+00 -3.991656e+00 -3.984903e+00 -3.986902e+00 -3.978656e+00 -3.979926e+00 -3.970312e+00 -3.970701e+00 -3.959901e+00 -3.959295e+00 -3.947558e+00 -3.945884e+00 -3.933534e+00 -3.930740e+00 -3.918177e+00 -3.914208e+00 -3.901910e+00 -3.896694e+00 -3.885236e+00 -3.878717e+00 -3.868778e+00 -3.861014e+00 -3.853333e+00 -3.844665e+00 -3.839986e+00 -3.831192e+00 -3.830267e+00 -3.822529e+00 -3.825873e+00 -3.820276e+00 -3.827674e+00 -3.824646e+00 -3.835037e+00 -3.834347e+00 -3.846373e+00 -3.847577e+00 -3.860205e+00 -3.862904e+00 -3.875536e+00 -3.879335e+00 -3.891635e+00 -3.896142e+00 -3.907884e+00 -3.912738e+00 -3.923716e+00 -3.928615e+00 -3.938599e+00 -3.943325e+00 -3.952066e+00 -3.956497e+00 -3.963755e+00 -3.967862e+00 -3.973440e+00 -3.977263e+00 -3.981033e+00 -3.984642e+00 -3.986550e+00 -3.990011e+00 -3.990062e+00 -3.993400e+00 
-3.990892e+00 -3.994000e+00 -3.989967e+00 -3.992836e+00 -3.987020e+00 -3.989513e+00 -3.981982e+00 -3.983923e+00 -3.974757e+00 -3.975954e+00 -3.965266e+00 -3.965533e+00 -3.953496e+00 -3.952658e+00 -3.939530e+00 -3.937425e+00 -3.923567e+00 -3.920027e+00 -3.905922e+00 -3.900777e+00 -3.887047e+00 -3.880177e+00 -3.867609e+00 -3.859070e+00 -3.848613e+00 -3.838786e+00 -3.831460e+00 -3.821097e+00 -3.817762e+00 -3.807824e+00 -3.808846e+00 -3.800209e+00 -3.805412e+00 -3.798813e+00 -3.807643e+00 -3.803698e+00 -3.815366e+00 -3.814452e+00 -3.827990e+00 -3.830018e+00 -3.844365e+00 -3.848728e+00 -3.862995e+00 -3.868855e+00 -3.882492e+00 -3.889033e+00 -3.901764e+00 -3.908351e+00 -3.920018e+00 -3.926233e+00 -3.936677e+00 -3.942307e+00 -3.951331e+00 -3.956321e+00 -3.963718e+00 -3.968126e+00 -3.973718e+00 -3.977666e+00 -3.981335e+00 -3.984961e+00 -3.986657e+00 -3.990073e+00 -3.989807e+00 -3.993074e+00 
-3.992629e+00 -3.995858e+00 -3.992316e+00 -3.995319e+00 -3.990104e+00 -3.992737e+00 -3.985930e+00 -3.988016e+00 -3.979710e+00 -3.981068e+00 -3.971384e+00 -3.971856e+00 -3.960964e+00 -3.960429e+00 -3.948562e+00 -3.946940e+00 -3.934406e+00 -3.931642e+00 -3.918824e+00 -3.914862e+00 -3.902233e+00 -3.897001e+00 -3.885163e+00 -3.878588e+00 -3.868274e+00 -3.860363e+00 -3.852360e+00 -3.843383e+00 -3.838425e+00 -3.829147e+00 -3.828056e+00 -3.819843e+00 -3.823319e+00 -3.817489e+00 -3.825352e+00 -3.822348e+00 -3.833312e+00 -3.832745e+00 -3.845207e+00 -3.846558e+00 -3.859460e+00 -3.862358e+00 -3.875178e+00 -3.879209e+00 -3.891662e+00 -3.896388e+00 -3.908262e+00 -3.913282e+00 -3.924375e+00 -3.929371e+00 -3.939458e+00 -3.944216e+00 -3.953047e+00 -3.957463e+00 -3.964794e+00 -3.968863e+00 -3.974493e+00 -3.978275e+00 -3.982074e+00 -3.985657e+00 -3.987569e+00 -3.991026e+00 -3.991061e+00 -3.994419e+00 
-3.992985e+00 -3.996169e+00 -3.992060e+00 -3.995052e+00 -3.989151e+00 -3.991804e+00 -3.984182e+00 -3.986313e+00 -3.977042e+00 -3.978452e+00 -3.967630e+00 -3.968123e+00 -3.955892e+00 -3.955286e+00 -3.941860e+00 -3.939973e+00 -3.925661e+00 -3.922290e+00 -3.907527e+00 -3.902438e+00 -3.887831e+00 -3.880813e+00 -3.867207e+00 -3.858235e+00 -3.846745e+00 -3.836215e+00 -3.828134e+00 -3.816976e+00 -3.813466e+00 -3.802863e+00 -3.804245e+00 -3.795006e+00 -3.800809e+00 -3.793554e+00 -3.803042e+00 -3.798539e+00 -3.810966e+00 -3.809944e+00 -3.824379e+00 -3.826903e+00 -3.842088e+00 -3.847294e+00 -3.862156e+00 -3.868906e+00 -3.882901e+00 -3.890161e+00 -3.903111e+00 -3.910149e+00 -3.921982e+00 -3.928390e+00 -3.938988e+00 -3.944615e+00 -3.953788e+00 -3.958660e+00 -3.966187e+00 -3.970435e+00 -3.976122e+00 -3.979921e+00 -3.983641e+00 -3.987163e+00 -3.988866e+00 -3.992239e+00 -3.991941e+00 -3.995227e+00 
-3.995590e+00 -3.998955e+00 -3.995282e+00 -3.998481e+00 -3.993120e+00 -3.995992e+00 -3.989030e+00 -3.991380e+00 -3.982906e+00 -3.984536e+00 -3.974650e+00 -3.975380e+00 -3.964221e+00 -3.963904e+00 -3.951660e+00 -3.950192e+00 -3.937112e+00 -3.934425e+00 -3.920832e+00 -3.916876e+00 -3.903219e+00 -3.897940e+00 -3.884889e+00 -3.878190e+00 -3.866690e+00 -3.858408e+00 -3.849447e+00 -3.839555e+00 -3.833688e+00 -3.822777e+00 -3.821013e+00 -3.811153e+00 -3.814994e+00 -3.808446e+00 -3.817926e+00 -3.815140e+00 -3.828060e+00 -3.827940e+00 -3.841737e+00 -3.843505e+00 -3.857159e+00 -3.860679e+00 -3.874028e+00 -3.878812e+00 -3.891721e+00 -3.897153e+00 -3.909430e+00 -3.914978e+00 -3.926426e+00 -3.931719e+00 -3.942121e+00 -3.946963e+00 -3.956070e+00 -3.960421e+00 -3.967978e+00 -3.971909e+00 -3.977700e+00 -3.981343e+00 -3.985227e+00 -3.988719e+00 -3.990641e+00 -3.994080e+00 -3.994061e+00 -3.997482e+00 
-3.997155e+00 -4.000500e+00 -3.996231e+00 -3.999481e+00 -3.993411e+00 -3.996398e+00 -3.988604e+00 -3.991125e+00 -3.981668e+00 -3.983510e+00 -3.972452e+00 -3.973407e+00 -3.960827e+00 -3.960696e+00 -3.946715e+00 -3.945286e+00 -3.930095e+00 -3.927101e+00 -3.911010e+00 -3.906091e+00 -3.889640e+00 -3.882372e+00 -3.866499e+00 -3.856624e+00 -3.842777e+00 -3.830657e+00 -3.820759e+00 -3.807786e+00 -3.803981e+00 -3.792123e+00 -3.794534e+00 -3.784221e+00 -3.791414e+00 -3.782692e+00 -3.793450e+00 -3.787462e+00 -3.801356e+00 -3.799960e+00 -3.816390e+00 -3.820175e+00 -3.837223e+00 -3.844431e+00 -3.860496e+00 -3.869268e+00 -3.883911e+00 -3.892727e+00 -3.906059e+00 -3.914016e+00 -3.926163e+00 -3.932913e+00 -3.943829e+00 -3.949385e+00 -3.958873e+00 -3.963444e+00 -3.971246e+00 -3.975120e+00 -3.981005e+00 -3.984471e+00 -3.988291e+00 -3.991588e+00 -3.993292e+00 -3.996575e+00 -3.996199e+00 -3.999529e+00 
-4.000517e+00 -4.004124e+00 -4.000220e+00 -4.003767e+00 -3.998162e+00 -4.001458e+00 -3.994250e+00 -3.997069e+00 -3.988339e+00 -3.990450e+00 -3.980266e+00 -3.981449e+00 -3.969893e+00 -3.969953e+00 -3.957128e+00 -3.955906e+00 -3.941949e+00 -3.939341e+00 -3.924439e+00 -3.920417e+00 -3.904912e+00 -3.899529e+00 -3.884180e+00 -3.877423e+00 -3.863701e+00 -3.855104e+00 -3.844705e+00 -3.833459e+00 -3.825862e+00 -3.811486e+00 -3.807777e+00 -3.794192e+00 -3.798443e+00 -3.790678e+00 -3.803813e+00 -3.802111e+00 -3.819316e+00 -3.820220e+00 -3.836222e+00 -3.838470e+00 -3.853008e+00 -3.857678e+00 -3.871769e+00 -3.878040e+00 -3.891725e+00 -3.898527e+00 -3.911517e+00 -3.918046e+00 -3.930117e+00 -3.935915e+00 -3.946871e+00 -3.951802e+00 -3.961396e+00 -3.965560e+00 -3.973513e+00 -3.977139e+00 -3.983205e+00 -3.986558e+00 -3.990577e+00 -3.993881e+00 -3.995804e+00 -3.999200e+00 -3.999069e+00 -4.002598e+00 
-4.003361e+00 -4.006978e+00 -4.002448e+00 -4.006119e+00 -3.999796e+00 -4.003314e+00 -3.995288e+00 -3.998421e+00 -3.988737e+00 -3.991250e+00 -3.979917e+00 -3.981586e+00 -3.968588e+00 -3.969193e+00 -3.954503e+00 -3.953803e+00 -3.937392e+00 -3.935058e+00 -3.916972e+00 -3.912472e+00 -3.893041e+00 -3.885571e+00 -3.865797e+00 -3.854524e+00 -3.836325e+00 -3.821258e+00 -3.807482e+00 -3.790910e+00 -3.786898e+00 -3.773608e+00 -3.778717e+00 -3.767472e+00 -3.777361e+00 -3.765984e+00 -3.778287e+00 -3.768724e+00 -3.784443e+00 -3.781865e+00 -3.802035e+00 -3.808752e+00 -3.829237e+00 -3.840363e+00 -3.858173e+00 -3.870640e+00 -3.885994e+00 -3.897436e+00 -3.911181e+00 -3.920523e+00 -3.933108e+00 -3.940223e+00 -3.951659e+00 -3.956911e+00 -3.966937e+00 -3.970874e+00 -3.979138e+00 -3.982312e+00 -3.988513e+00 -3.991391e+00 -3.995352e+00 -3.998267e+00 -3.999947e+00 -4.003085e+00 -4.002556e+00 -4.005966e+00 
-4.007384e+00 -4.011368e+00 -4.007110e+00 -4.011194e+00 -4.005241e+00 -4.009185e+00 -4.001659e+00 -4.005192e+00 -3.996160e+00 -3.999005e+00 -3.988488e+00 -3.990369e+00 -3.978361e+00 -3.978997e+00 -3.965477e+00 -3.964592e+00 -3.949512e+00 -3.946892e+00 -3.930167e+00 -3.925796e+00 -3.907424e+00 -3.901683e+00 -3.882337e+00 -3.875821e+00 -3.858087e+00 -3.850005e+00 -3.838742e+00 -3.826775e+00 -3.816526e+00 -3.795028e+00 -3.785626e+00 -3.763580e+00 -3.767487e+00 -3.758194e+00 -3.779576e+00 -3.782080e+00 -3.808564e+00 -3.811570e+00 -3.829910e+00 -3.831521e+00 -3.845919e+00 -3.852636e+00 -3.867547e+00 -3.876553e+00 -3.891519e+00 -3.900705e+00 -3.914828e+00 -3.922950e+00 -3.935957e+00 -3.942464e+00 -3.954247e+00 -3.959161e+00 -3.969494e+00 -3.973200e+00 -3.981755e+00 -3.984774e+00 -3.991243e+00 -3.994060e+00 -3.998254e+00 -4.001225e+00 -4.003107e+00 -4.006423e+00 -4.006083e+00 -4.009779e+00 
-4.011527e+00 -4.015566e+00 -4.010646e+00 -4.014942e+00 -4.008277e+00 -4.012562e+00 -4.004271e+00 -4.008269e+00 -3.998380e+00 -4.001826e+00 -3.990283e+00 -3.992933e+00 -3.979597e+00 -3.981211e+00 -3.965848e+00 -3.966169e+00 -3.948405e+00 -3.947088e+00 -3.926436e+00 -3.922833e+00 -3.899063e+00 -3.891839e+00 -3.865930e+00 -3.853005e+00 -3.827474e+00 -3.807221e+00 -3.784350e+00 -3.759701e+00 -3.756414e+00 -3.743225e+00 -3.755697e+00 -3.745957e+00 -3.761072e+00 -3.745054e+00 -3.757732e+00 -3.739109e+00 -3.755346e+00 -3.748996e+00 -3.776777e+00 -3.791207e+00 -3.818081e+00 -3.836302e+00 -3.855806e+00 -3.874567e+00 -3.890078e+00 -3.905502e+00 -3.919479e+00 -3.930541e+00 -3.943719e+00 -3.950931e+00 -3.963202e+00 -3.967613e+00 -3.978509e+00 -3.981224e+00 -3.990210e+00 -3.992181e+00 -3.998842e+00 -4.000775e+00 -4.004899e+00 -4.007238e+00 -4.008820e+00 -4.011766e+00 -4.010952e+00 -4.014512e+00 
-4.016124e+00 -4.020669e+00 -4.015889e+00 -4.020754e+00 -4.014338e+00 -4.019207e+00 -4.011314e+00 -4.015861e+00 -4.006542e+00 -4.010442e+00 -3.999650e+00 -4.002560e+00 -3.990171e+00 -3.991684e+00 -3.977512e+00 -3.977117e+00 -3.960866e+00 -3.958011e+00 -3.939134e+00 -3.933590e+00 -3.911215e+00 -3.904027e+00 -3.877751e+00 -3.871994e+00 -3.845337e+00 -3.840310e+00 -3.833831e+00 -3.827050e+00 -3.814389e+00 -3.776969e+00 -3.749901e+00 -3.706670e+00 -3.706465e+00 -3.696454e+00 -3.738051e+00 -3.755466e+00 -3.804217e+00 -3.811161e+00 -3.827511e+00 -3.821905e+00 -3.831568e+00 -3.843165e+00 -3.859493e+00 -3.873571e+00 -3.891055e+00 -3.904212e+00 -3.920086e+00 -3.930629e+00 -3.944900e+00 -3.952231e+00 -3.965148e+00 -3.969688e+00 -3.981082e+00 -3.983783e+00 -3.993207e+00 -3.995095e+00 -4.002118e+00 -4.004018e+00 -4.008402e+00 -4.010837e+00 -4.012580e+00 -4.015780e+00 -4.015062e+00 -4.019021e+00 
-4.021504e+00 -4.026190e+00 -4.020690e+00 -4.025882e+00 -4.018769e+00 -4.024110e+00 -4.015547e+00 -4.020702e+00 -4.010706e+00 -4.015381e+00 -4.003823e+00 -4.007749e+00 -3.994360e+00 -3.997265e+00 -3.981589e+00 -3.983189e+00 -3.964382e+00 -3.964408e+00 -3.940979e+00 -3.939000e+00 -3.909293e+00 -3.903725e+00 -3.868738e+00 -3.855392e+00 -3.820235e+00 -3.792202e+00 -3.743766e+00 -3.696199e+00 -3.698153e+00 -3.693210e+00 -3.726426e+00 -3.728225e+00 -3.753917e+00 -3.729540e+00 -3.736447e+00 -3.693533e+00 -3.702248e+00 -3.683126e+00 -3.730154e+00 -3.768905e+00 -3.808438e+00 -3.837028e+00 -3.854985e+00 -3.884151e+00 -3.897800e+00 -3.918641e+00 -3.932561e+00 -3.945173e+00 -3.959337e+00 -3.965779e+00 -3.979460e+00 -3.981969e+00 -3.994270e+00 -3.994790e+00 -4.004872e+00 -4.004893e+00 -4.012183e+00 -4.012698e+00 -4.016967e+00 -4.018512e+00 -4.019840e+00 -4.022582e+00 -4.021259e+00 -4.025101e+00 
-4.026576e+00 -4.031953e+00 -4.026409e+00 -4.032374e+00 -4.025350e+00 -4.031486e+00 -4.023200e+00 -4.029120e+00 -4.019608e+00 -4.024961e+00 -4.014081e+00 -4.018492e+00 -4.005965e+00 -4.008894e+00 -3.994345e+00 -3.994880e+00 -3.977768e+00 -3.974494e+00 -3.953746e+00 -3.945184e+00 -3.918418e+00 -3.905928e+00 -3.868907e+00 -3.864232e+00 -3.808535e+00 -3.810402e+00 -3.836402e+00 -3.864937e+00 -3.857781e+00 -3.778628e+00 -3.692920e+00 -3.590770e+00 -3.572474e+00 -3.567006e+00 -3.662381e+00 -3.731536e+00 -3.842772e+00 -3.856566e+00 -3.844674e+00 -3.801152e+00 -3.791807e+00 -3.822514e+00 -3.845723e+00 -3.868362e+00 -3.891569e+00 -3.910855e+00 -3.929007e+00 -3.942989e+00 -3.958633e+00 -3.966597e+00 -3.980960e+00 -3.984239e+00 -3.997142e+00 -3.997795e+00 -4.008475e+00 -4.008366e+00 -4.016135e+00 -4.016561e+00 -4.021110e+00 -4.022762e+00 -4.024174e+00 -4.027256e+00 -4.025880e+00 -4.030268e+00 
-4.033017e+00 -4.038689e+00 -4.032326e+00 -4.038778e+00 -4.031065e+00 -4.037814e+00 -4.028992e+00 -4.035637e+00 -4.025714e+00 -4.031945e+00 -4.020715e+00 -4.026262e+00 -4.013349e+00 -4.017867e+00 -4.002705e+00 -4.005729e+00 -3.987099e+00 -3.988399e+00 -3.963115e+00 -3.963337e+00 -3.925752e+00 -3.925216e+00 -3.875907e+00 -3.868572e+00 -3.837859e+00 -3.808079e+00 -3.671922e+00 -3.543526e+00 -3.572374e+00 -3.609818e+00 -3.701518e+00 -3.748085e+00 -3.796123e+00 -3.755498e+00 -3.735587e+00 -3.625882e+00 -3.592505e+00 -3.525460e+00 -3.634132e+00 -3.763697e+00 -3.829638e+00 -3.857203e+00 -3.855959e+00 -3.904258e+00 -3.911911e+00 -3.938525e+00 -3.953000e+00 -3.965560e+00 -3.981843e+00 -3.985545e+00 -4.001691e+00 -4.000432e+00 -4.014975e+00 -4.011790e+00 -4.023493e+00 -4.020527e+00 -4.028626e+00 -4.027154e+00 -4.031457e+00 -4.032023e+00 -4.032801e+00 -4.035425e+00 -4.033213e+00 -4.037593e+00 
-4.038416e+00 -4.045030e+00 -4.038357e+00 -4.045843e+00 -4.038005e+00 -4.045810e+00 -4.037124e+00 -4.044806e+00 -4.035298e+00 -4.042543e+00 -4.031941e+00 -4.038478e+00 -4.026280e+00 -4.031595e+00 -4.017213e+00 -4.019981e+00 -4.002771e+00 -3.999976e+00 -3.978805e+00 -3.964640e+00 -3.936596e+00 -3.906437e+00 -3.867472e+00 -3.864059e+00 -3.680610e+00 -3.672995e+00 -3.849713e+00 -4.056889e+00 -4.100114e+00 -3.884261e+00 -3.576664e+00 -3.249841e+00 -3.121623e+00 -3.166215e+00 -3.468222e+00 -3.742162e+00 -4.065922e+00 -4.095365e+00 -3.922038e+00 -3.704673e+00 -3.645369e+00 -3.776127e+00 -3.838290e+00 -3.864386e+00 -3.898722e+00 -3.926570e+00 -3.945049e+00 -3.963676e+00 -3.979917e+00 -3.987477e+00 -4.003638e+00 -4.003681e+00 -4.018850e+00 -4.015565e+00 -4.028127e+00 -4.024678e+00 -4.033453e+00 -4.031679e+00 -4.036285e+00 -4.036931e+00 -4.037653e+00 -4.040737e+00 -4.038233e+00 -4.043366e+00 
-4.045587e+00 -4.052757e+00 -4.045098e+00 -4.053293e+00 -4.044751e+00 -4.053322e+00 -4.044254e+00 -4.052733e+00 -4.043146e+00 -4.051273e+00 -4.040839e+00 -4.048457e+00 -4.036703e+00 -4.043389e+00 -4.030009e+00 -4.034601e+00 -4.019043e+00 -4.020367e+00 -3.997883e+00 -3.998720e+00 -3.951710e+00 -3.962438e+00 -3.869237e+00 -3.882960e+00 -3.986218e+00 -3.993710e+00 -2.893994e+00 -1.132701e+00 5.642670e-01 2.413601e+00 4.053751e+00 5.271520e+00 5.737839e+00 5.511173e+00 4.600306e+00 3.146159e+00 1.170066e+00 -4.797329e-01 -2.386302e+00 -3.764496e+00 -4.025121e+00 -3.924890e+00 -3.826502e+00 -3.935714e+00 -3.939616e+00 -3.964671e+00 -3.985185e+00 -3.992902e+00 -4.013664e+00 -4.011021e+00 -4.031260e+00 -4.023276e+00 -4.041270e+00 -4.032205e+00 -4.046214e+00 -4.038938e+00 -4.047987e+00 -4.043951e+00 -4.048000e+00 -4.047554e+00 -4.047242e+00 -4.050049e+00 -4.046331e+00 -4.051713e+00 
-4.051069e+00 -4.059525e+00 -4.051166e+00 -4.060725e+00 -4.051758e+00 -4.061678e+00 -4.052581e+00 -4.062366e+00 -4.053181e+00 -4.062660e+00 -4.052936e+00 -4.062235e+00 -4.051107e+00 -4.060264e+00 -4.046791e+00 -4.054774e+00 -4.038340e+00 -4.041259e+00 -4.021523e+00 -4.005169e+00 -3.979250e+00 -3.890112e+00 -3.986593e+00 -3.917802e+00 -2.100624e+00 1.167831e+00 5.132801e+00 8.706561e+00 1.090493e+01 1.224290e+01 1.301768e+01 1.339608e+01 1.352559e+01 1.344342e+01 1.324531e+01 1.262302e+01 1.139446e+01 9.706444e+00 6.242402e+00 2.453141e+00 -8.806975e-01 -3.362676e+00 -3.953672e+00 -3.885655e+00 -3.919172e+00 -3.966806e+00 -3.972278e+00 -3.997674e+00 -4.012708e+00 -4.016588e+00 -4.035614e+00 -4.028304e+00 -4.047301e+00 -4.036865e+00 -4.052405e+00 -4.043717e+00 -4.053835e+00 -4.049086e+00 -4.053459e+00 -4.053076e+00 -4.052460e+00 -4.055938e+00 -4.051541e+00 -4.057993e+00 
-4.058450e+00 -4.067880e+00 -4.058268e+00 -4.068845e+00 -4.059109e+00 -4.069960e+00 -4.060640e+00 -4.071225e+00 -4.062334e+00 -4.072578e+00 -4.063517e+00 -4.073773e+00 -4.063657e+00 -4.073842e+00 -4.062929e+00 -4.070251e+00 -4.062293e+00 -4.060343e+00 -4.057641e+00 -4.048715e+00 -4.014554e+00 -3.984426e+00 -2.477705e+00 1.053049e+00 5.689243e+00 1.008664e+01 1.240196e+01 1.326802e+01 1.358628e+01 1.344911e+01 1.332440e+01 1.316940e+01 1.316190e+01 1.315042e+01 1.329488e+01 1.339379e+01 1.358198e+01 1.348618e+01 1.277860e+01 1.123565e+01 7.695679e+00 2.846695e+00 -1.571670e+00 -3.751179e+00 -4.035395e+00 -3.991842e+00 -4.034760e+00 -4.030559e+00 -4.056702e+00 -4.042905e+00 -4.069105e+00 -4.050225e+00 -4.073344e+00 -4.055470e+00 -4.072669e+00 -4.059567e+00 -4.069568e+00 -4.062597e+00 -4.065768e+00 -4.064655e+00 -4.062326e+00 -4.066010e+00 -4.059808e+00 -4.066993e+00 
-4.063643e+00 -4.074841e+00 -4.063959e+00 -4.076312e+00 -4.065711e+00 -4.078214e+00 -4.068640e+00 -4.080687e+00 -4.072294e+00 -4.083932e+00 -4.076045e+00 -4.088213e+00 -4.079263e+00 -4.093436e+00 -4.081568e+00 -4.098519e+00 -4.082884e+00 -4.105303e+00 -4.090113e+00 -4.126825e+00 -3.764623e+00 -1.482153e+00 4.100149e+00 9.860903e+00 1.248822e+01 1.332953e+01 1.328791e+01 1.301917e+01 1.301989e+01 1.303090e+01 1.315310e+01 1.321266e+01 1.327872e+01 1.322918e+01 1.319082e+01 1.305811e+01 1.301904e+01 1.299148e+01 1.318160e+01 1.337519e+01 1.289240e+01 1.096266e+01 6.275437e+00 4.611770e-01 -3.249179e+00 -4.039534e+00 -4.013151e+00 -4.044205e+00 -4.063108e+00 -4.053021e+00 -4.079161e+00 -4.056581e+00 -4.082830e+00 -4.060315e+00 -4.080724e+00 -4.064539e+00 -4.076313e+00 -4.068149e+00 -4.071576e+00 -4.070696e+00 -4.067582e+00 -4.072376e+00 -4.064863e+00 -4.073624e+00 
-4.070539e+00 -4.083326e+00 -4.070794e+00 -4.084591e+00 -4.073075e+00 -4.086693e+00 -4.077062e+00 -4.089783e+00 -4.082177e+00 -4.094220e+00 -4.087483e+00 -4.100581e+00 -4.091924e+00 -4.108440e+00 -4.096019e+00 -4.111986e+00 -4.108676e+00 -4.100532e+00 -4.158457e+00 -3.719936e+00 -2.866916e-01 6.198274e+00 1.117725e+01 1.312516e+01 1.325601e+01 1.301705e+01 1.311746e+01 1.318755e+01 1.330903e+01 1.327592e+01 1.329287e+01 1.323077e+01 1.325526e+01 1.322605e+01 1.328102e+01 1.327175e+01 1.329890e+01 1.323029e+01 1.310147e+01 1.299812e+01 1.309576e+01 1.323821e+01 1.242717e+01 8.610270e+00 1.830626e+00 -2.837729e+00 -4.031803e+00 -4.096343e+00 -4.108799e+00 -4.078861e+00 -4.114640e+00 -4.079148e+00 -4.110424e+00 -4.079978e+00 -4.101632e+00 -4.081280e+00 -4.091899e+00 -4.082273e+00 -4.083309e+00 -4.082645e+00 -4.076748e+00 -4.082659e+00 -4.072489e+00 -4.082760e+00 
-4.074971e+00 -4.090191e+00 -4.075572e+00 -4.091674e+00 -4.078626e+00 -4.094236e+00 -4.083955e+00 -4.098138e+00 -4.091173e+00 -4.104020e+00 -4.099553e+00 -4.113161e+00 -4.108101e+00 -4.126207e+00 -4.115870e+00 -4.137819e+00 -4.117007e+00 -4.148748e+00 -3.841441e+00 -3.340211e-01 7.029331e+00 1.228693e+01 1.322423e+01 1.314183e+01 1.314851e+01 1.320759e+01 1.320432e+01 1.313501e+01 1.315455e+01 1.313292e+01 1.318990e+01 1.318634e+01 1.322783e+01 1.319143e+01 1.319740e+01 1.313951e+01 1.314671e+01 1.312908e+01 1.317653e+01 1.321278e+01 1.317575e+01 1.314060e+01 1.324879e+01 1.283913e+01 9.445181e+00 2.399116e+00 -2.993860e+00 -4.073249e+00 -4.146846e+00 -4.091622e+00 -4.132964e+00 -4.083379e+00 -4.123525e+00 -4.082819e+00 -4.111049e+00 -4.085636e+00 -4.098875e+00 -4.088063e+00 -4.088857e+00 -4.089173e+00 -4.081525e+00 -4.089425e+00 -4.076923e+00 -4.089565e+00 
-4.080592e+00 -4.098243e+00 -4.081419e+00 -4.099563e+00 -4.085303e+00 -4.102293e+00 -4.092103e+00 -4.106622e+00 -4.101386e+00 -4.113426e+00 -4.111743e+00 -4.125204e+00 -4.119269e+00 -4.145256e+00 -4.116187e+00 -4.162589e+00 -4.109082e+00 -3.940836e+00 -7.974697e-01 6.700262e+00 1.217584e+01 1.322468e+01 1.316312e+01 1.324452e+01 1.323075e+01 1.318182e+01 1.322379e+01 1.321740e+01 1.327818e+01 1.325401e+01 1.329119e+01 1.325440e+01 1.328553e+01 1.325332e+01 1.328367e+01 1.325390e+01 1.326498e+01 1.322376e+01 1.319909e+01 1.316898e+01 1.318256e+01 1.321862e+01 1.318143e+01 1.317340e+01 1.295905e+01 9.322403e+00 1.469092e+00 -3.537993e+00 -4.213983e+00 -4.089889e+00 -4.165449e+00 -4.104317e+00 -4.150431e+00 -4.102803e+00 -4.130763e+00 -4.102544e+00 -4.112525e+00 -4.102069e+00 -4.098488e+00 -4.100783e+00 -4.088788e+00 -4.099252e+00 -4.082962e+00 -4.098228e+00 
-4.083810e+00 -4.104755e+00 -4.084740e+00 -4.105893e+00 -4.089085e+00 -4.108596e+00 -4.096924e+00 -4.112985e+00 -4.108173e+00 -4.119984e+00 -4.121874e+00 -4.132791e+00 -4.135105e+00 -4.156215e+00 -4.148961e+00 -4.169625e+00 -4.247134e+00 -2.556207e+00 4.922587e+00 1.210099e+01 1.334061e+01 1.328563e+01 1.329926e+01 1.323279e+01 1.324714e+01 1.322429e+01 1.323900e+01 1.319915e+01 1.322435e+01 1.319529e+01 1.323291e+01 1.320950e+01 1.324287e+01 1.321065e+01 1.323199e+01 1.319595e+01 1.321530e+01 1.319545e+01 1.321924e+01 1.321895e+01 1.322161e+01 1.321638e+01 1.322049e+01 1.323367e+01 1.312499e+01 1.275670e+01 8.169520e+00 1.585415e-01 -3.957937e+00 -4.129322e+00 -4.172888e+00 -4.096346e+00 -4.164192e+00 -4.099761e+00 -4.139799e+00 -4.105944e+00 -4.118415e+00 -4.108530e+00 -4.102891e+00 -4.108116e+00 -4.092492e+00 -4.106488e+00 -4.086314e+00 -4.105082e+00 
-4.087450e+00 -4.111863e+00 -4.088920e+00 -4.112977e+00 -4.094329e+00 -4.115840e+00 -4.104054e+00 -4.120165e+00 -4.118605e+00 -4.126467e+00 -4.137426e+00 -4.139355e+00 -4.153155e+00 -4.178579e+00 -4.129900e+00 -4.320863e+00 -3.539817e+00 2.381964e+00 1.024640e+01 1.323929e+01 1.329581e+01 1.328469e+01 1.327175e+01 1.327408e+01 1.327775e+01 1.325337e+01 1.328044e+01 1.325933e+01 1.329826e+01 1.327198e+01 1.330738e+01 1.327572e+01 1.330714e+01 1.327484e+01 1.330181e+01 1.327004e+01 1.328716e+01 1.325655e+01 1.326229e+01 1.324461e+01 1.325319e+01 1.326433e+01 1.325795e+01 1.328700e+01 1.327905e+01 1.337079e+01 1.257054e+01 5.703025e+00 -2.543300e+00 -4.310187e+00 -4.170124e+00 -4.137158e+00 -4.190504e+00 -4.121089e+00 -4.156661e+00 -4.122443e+00 -4.127820e+00 -4.121710e+00 -4.108596e+00 -4.118650e+00 -4.096594e+00 -4.115165e+00 -4.089880e+00 -4.112661e+00 
-4.089215e+00 -4.117870e+00 -4.090422e+00 -4.118390e+00 -4.095735e+00 -4.120775e+00 -4.105823e+00 -4.124312e+00 -4.121722e+00 -4.128735e+00 -4.143020e+00 -4.138872e+00 -4.156009e+00 -4.188216e+00 -4.073459e+00 -4.461242e+00 -1.482731e+00 7.838202e+00 1.324348e+01 1.323809e+01 1.339576e+01 1.328868e+01 1.333983e+01 1.327562e+01 1.330231e+01 1.326069e+01 1.328374e+01 1.324511e+01 1.327231e+01 1.323846e+01 1.327073e+01 1.323964e+01 1.327168e+01 1.323937e+01 1.326812e+01 1.323681e+01 1.326428e+01 1.324093e+01 1.326729e+01 1.325459e+01 1.327229e+01 1.326821e+01 1.327653e+01 1.328982e+01 1.328053e+01 1.330410e+01 1.336387e+01 1.023246e+01 1.721788e+00 -3.811667e+00 -4.270331e+00 -4.064404e+00 -4.215233e+00 -4.109833e+00 -4.163443e+00 -4.128037e+00 -4.130825e+00 -4.130948e+00 -4.110980e+00 -4.127724e+00 -4.098835e+00 -4.123147e+00 -4.091921e+00 -4.119531e+00 
-4.090496e+00 -4.123682e+00 -4.092489e+00 -4.124566e+00 -4.098789e+00 -4.127492e+00 -4.110562e+00 -4.130844e+00 -4.130589e+00 -4.131401e+00 -4.164539e+00 -4.123565e+00 -4.220150e+00 -4.101855e+00 -4.288147e+00 -3.896786e+00 2.589752e+00 1.122234e+01 1.358484e+01 1.328834e+01 1.339972e+01 1.331866e+01 1.334401e+01 1.331195e+01 1.332772e+01 1.329890e+01 1.332255e+01 1.329425e+01 1.332490e+01 1.329465e+01 1.332693e+01 1.329445e+01 1.332620e+01 1.329296e+01 1.332295e+01 1.329031e+01 1.331692e+01 1.328716e+01 1.331018e+01 1.328932e+01 1.331012e+01 1.330628e+01 1.331647e+01 1.333637e+01 1.332493e+01 1.338578e+01 1.332049e+01 1.320423e+01 6.819403e+00 -2.184756e+00 -4.596985e+00 -3.997466e+00 -4.279084e+00 -4.116561e+00 -4.175203e+00 -4.142484e+00 -4.132178e+00 -4.142690e+00 -4.110680e+00 -4.136476e+00 -4.098768e+00 -4.130008e+00 -4.092484e+00 -4.125495e+00 
-4.090979e+00 -4.129103e+00 -4.092188e+00 -4.129134e+00 -4.097528e+00 -4.131551e+00 -4.108446e+00 -4.134028e+00 -4.129065e+00 -4.130308e+00 -4.171036e+00 -4.101604e+00 -4.268225e+00 -3.984772e+00 -4.531206e+00 -2.129324e+00 7.405869e+00 1.347277e+01 1.336955e+01 1.340743e+01 1.338004e+01 1.335351e+01 1.336127e+01 1.331999e+01 1.333791e+01 1.329654e+01 1.331927e+01 1.327910e+01 1.330632e+01 1.326871e+01 1.329999e+01 1.326452e+01 1.329803e+01 1.326358e+01 1.329828e+01 1.326561e+01 1.330194e+01 1.327345e+01 1.331086e+01 1.328870e+01 1.332289e+01 1.331180e+01 1.333296e+01 1.335350e+01 1.332696e+01 1.344641e+01 1.325014e+01 1.371188e+01 1.023389e+01 7.284203e-01 -4.567611e+00 -4.009875e+00 -4.261295e+00 -4.141714e+00 -4.165900e+00 -4.163669e+00 -4.129235e+00 -4.158713e+00 -4.110690e+00 -4.148403e+00 -4.099757e+00 -4.138944e+00 -4.093467e+00 -4.132325e+00 
-4.090120e+00 -4.133391e+00 -4.092220e+00 -4.134508e+00 -4.097953e+00 -4.138740e+00 -4.108583e+00 -4.143868e+00 -4.128043e+00 -4.143476e+00 -4.168912e+00 -4.117040e+00 -4.273201e+00 -3.994242e+00 -4.601245e+00 4.106953e-01 1.055002e+01 1.378724e+01 1.328545e+01 1.348883e+01 1.337942e+01 1.339622e+01 1.337874e+01 1.335676e+01 1.336545e+01 1.333382e+01 1.335412e+01 1.332040e+01 1.334752e+01 1.331306e+01 1.334396e+01 1.330888e+01 1.334204e+01 1.330658e+01 1.334147e+01 1.330605e+01 1.334285e+01 1.330837e+01 1.334795e+01 1.331653e+01 1.335911e+01 1.333505e+01 1.337485e+01 1.337128e+01 1.338611e+01 1.345554e+01 1.335693e+01 1.369931e+01 1.278043e+01 4.578187e+00 -3.923835e+00 -4.194145e+00 -4.156676e+00 -4.201437e+00 -4.130813e+00 -4.186972e+00 -4.113903e+00 -4.169641e+00 -4.102732e+00 -4.154578e+00 -4.095393e+00 -4.143286e+00 -4.091224e+00 -4.136217e+00 
-4.089974e+00 -4.138039e+00 -4.090656e+00 -4.138251e+00 -4.094267e+00 -4.142653e+00 -4.101428e+00 -4.149852e+00 -4.114633e+00 -4.156054e+00 -4.143121e+00 -4.149659e+00 -4.219138e+00 -4.095008e+00 -4.443152e+00 2.895998e+00 1.262501e+01 1.386599e+01 1.336406e+01 1.352870e+01 1.340392e+01 1.340925e+01 1.339095e+01 1.335545e+01 1.336736e+01 1.332369e+01 1.334568e+01 1.330226e+01 1.332976e+01 1.328873e+01 1.332073e+01 1.328195e+01 1.331796e+01 1.328058e+01 1.332085e+01 1.328443e+01 1.333027e+01 1.329455e+01 1.334763e+01 1.331167e+01 1.337352e+01 1.333641e+01 1.340867e+01 1.337268e+01 1.345731e+01 1.342964e+01 1.353967e+01 1.351224e+01 1.369590e+01 7.749054e+00 -2.739783e+00 -4.409873e+00 -4.064051e+00 -4.281250e+00 -4.106568e+00 -4.225334e+00 -4.108493e+00 -4.191725e+00 -4.102630e+00 -4.168601e+00 -4.096460e+00 -4.152649e+00 -4.092006e+00 -4.142671e+00 
-4.087897e+00 -4.140529e+00 -4.089575e+00 -4.142512e+00 -4.093148e+00 -4.149887e+00 -4.098159e+00 -4.162711e+00 -4.103777e+00 -4.181241e+00 -4.108775e+00 -4.206261e+00 -4.108753e+00 -4.242861e+00 -3.887812e+00 5.165252e+00 1.351450e+01 1.369800e+01 1.352573e+01 1.352005e+01 1.347186e+01 1.343273e+01 1.343055e+01 1.338586e+01 1.339962e+01 1.335651e+01 1.337784e+01 1.333732e+01 1.336404e+01 1.332537e+01 1.335648e+01 1.331856e+01 1.335366e+01 1.331551e+01 1.335516e+01 1.331592e+01 1.336196e+01 1.332042e+01 1.337636e+01 1.333006e+01 1.340150e+01 1.334530e+01 1.344183e+01 1.336546e+01 1.350943e+01 1.338744e+01 1.364781e+01 1.337726e+01 1.402485e+01 1.003762e+01 -1.446766e+00 -4.486201e+00 -4.014812e+00 -4.306144e+00 -4.074006e+00 -4.233833e+00 -4.089154e+00 -4.194595e+00 -4.091198e+00 -4.169680e+00 -4.089700e+00 -4.153499e+00 -4.088120e+00 -4.144063e+00 
-4.088060e+00 -4.143938e+00 -4.087905e+00 -4.144798e+00 -4.088829e+00 -4.152184e+00 -4.089145e+00 -4.167371e+00 -4.084763e+00 -4.194381e+00 -4.065260e+00 -4.245161e+00 -3.998677e+00 -4.357548e+00 -3.198432e+00 7.147158e+00 1.394548e+01 1.347652e+01 1.363230e+01 1.345792e+01 1.350272e+01 1.340937e+01 1.343571e+01 1.336906e+01 1.339321e+01 1.333800e+01 1.336374e+01 1.331512e+01 1.334418e+01 1.330006e+01 1.333338e+01 1.329216e+01 1.333042e+01 1.329054e+01 1.333507e+01 1.329500e+01 1.334852e+01 1.330607e+01 1.337321e+01 1.332396e+01 1.341274e+01 1.334799e+01 1.347436e+01 1.337713e+01 1.357644e+01 1.340951e+01 1.376625e+01 1.343218e+01 1.414760e+01 1.133692e+01 -5.058359e-01 -4.510827e+00 -4.055560e+00 -4.347227e+00 -4.085667e+00 -4.264419e+00 -4.095233e+00 -4.214827e+00 -4.095543e+00 -4.182776e+00 -4.092735e+00 -4.161948e+00 -4.089790e+00 -4.149465e+00 
-4.086005e+00 -4.144370e+00 -4.087183e+00 -4.147164e+00 -4.088730e+00 -4.157243e+00 -4.088379e+00 -4.176982e+00 -4.080395e+00 -4.212891e+00 -4.050745e+00 -4.281866e+00 -3.964016e+00 -4.426054e+00 -2.773220e+00 8.204505e+00 1.418687e+01 1.346920e+01 1.376434e+01 1.347426e+01 1.356951e+01 1.343450e+01 1.347476e+01 1.339654e+01 1.342278e+01 1.336676e+01 1.339161e+01 1.334539e+01 1.337306e+01 1.333145e+01 1.336323e+01 1.332342e+01 1.335992e+01 1.331995e+01 1.336252e+01 1.332057e+01 1.337226e+01 1.332565e+01 1.339207e+01 1.333539e+01 1.342651e+01 1.334850e+01 1.348331e+01 1.336168e+01 1.357886e+01 1.337006e+01 1.374443e+01 1.336383e+01 1.399523e+01 1.202077e+01 3.516643e-01 -4.353808e+00 -4.031193e+00 -4.302817e+00 -4.060963e+00 -4.247492e+00 -4.077792e+00 -4.206096e+00 -4.084331e+00 -4.177558e+00 -4.085815e+00 -4.158924e+00 -4.085753e+00 -4.148205e+00 
-4.087152e+00 -4.146012e+00 -4.086587e+00 -4.147211e+00 -4.086234e+00 -4.155955e+00 -4.083315e+00 -4.174646e+00 -4.071028e+00 -4.209924e+00 -4.033268e+00 -4.277897e+00 -3.933237e+00 -4.411149e+00 -2.587454e+00 8.473009e+00 1.408979e+01 1.337248e+01 1.373214e+01 1.342348e+01 1.354891e+01 1.340367e+01 1.345665e+01 1.337164e+01 1.340397e+01 1.334214e+01 1.337042e+01 1.331915e+01 1.334915e+01 1.330371e+01 1.333769e+01 1.329552e+01 1.333470e+01 1.329382e+01 1.333997e+01 1.329841e+01 1.335490e+01 1.330972e+01 1.338244e+01 1.332781e+01 1.342739e+01 1.335164e+01 1.349882e+01 1.337937e+01 1.361575e+01 1.340989e+01 1.381032e+01 1.344214e+01 1.408044e+01 1.237039e+01 6.407515e-01 -4.360644e+00 -4.079509e+00 -4.331243e+00 -4.085585e+00 -4.270274e+00 -4.091969e+00 -4.221504e+00 -4.093090e+00 -4.187533e+00 -4.091233e+00 -4.165173e+00 -4.088801e+00 -4.151825e+00 