# vtk DataFile Version 2.0
Comment goes here
ASCII

DATASET STRUCTURED_POINTS
FIELD FieldData 1
TIME 1 1 double
0.31000000
DIMENSIONS    64   64   1

ORIGIN    0.000   0.000   0.000
SPACING   0.015625 0.015625   1.000

POINT_DATA   4096
VECTORS u double

0.000273 -0.000000 0.000000 0.011969 0.000000 0.000000 0.023743 0.000000 0.000000 0.035516 0.000000 0.000000 0.047483 0.000000 0.000000 0.059450 0.000000 0.000000 0.071687 0.000000 0.000000 0.083890 0.000000 0.000000 0.096359 0.000000 0.000000 0.108695 0.000000 0.000000 0.121160 0.000000 0.000000 0.133284 0.000000 0.000000 0.145194 -0.000000 0.000000 0.156417 0.000000 0.000000 0.166794 -0.000000 0.000000 0.175997 0.000000 0.000000 0.183380 -0.000000 0.000000 0.189039 -0.000000 0.000000 0.191572 -0.000000 0.000000 0.191986 -0.000000 0.000000 0.187787 -0.000000 0.000000 0.181608 -0.000000 0.000000 0.169505 -0.000000 0.000000 0.156567 -0.000000 0.000000 0.137185 -0.000000 0.000000 0.119392 -0.000000 0.000000 0.096087 0.000000 0.000000 0.077448 -0.000000 0.000000 0.055683 0.000000 0.000000 0.040141 -0.000000 0.000000 0.023787 0.000000 0.000000 0.011613 -0.000000 0.000000 -0.000311 0.000000 0.000000 -0.012453 -0.000000 0.000000 -0.024386 -0.000000 0.000000 -0.040864 -0.000000 0.000000 -0.056249 -0.000000 0.000000 -0.077992 -0.000000 0.000000 -0.096616 -0.000000 0.000000 -0.119762 -0.000000 0.000000 -0.137623 -0.000000 0.000000 -0.156816 -0.000000 0.000000 -0.169833 -0.000000 0.000000 -0.181772 0.000000 0.000000 -0.187996 -0.000000 0.000000 -0.192069 0.000000 0.000000 -0.191654 -0.000000 0.000000 -0.189029 0.000000 0.000000 -0.183336 -0.000000 0.000000 -0.175887 0.000000 0.000000 -0.166632 -0.000000 0.000000 -0.156207 0.000000 0.000000 -0.144926 -0.000000 0.000000 -0.132983 0.000000 0.000000 -0.120803 -0.000000 0.000000 -0.108316 0.000000 0.000000 -0.095932 -0.000000 0.000000 -0.083450 -0.000000 0.000000 -0.071206 -0.000000 0.000000 -0.058965 -0.000000 0.000000 -0.046965 -0.000000 0.000000 -0.035001 0.000000 0.000000 -0.023204 -0.000000 0.000000 -0.011440 0.000000 0.000000 
0.000245 -0.011705 0.000000 0.011921 -0.011735 0.000000 0.023674 -0.011773 0.000000 0.035434 -0.011870 0.000000 0.047387 -0.011967 0.000000 0.059354 -0.012102 0.000000 0.071590 -0.012220 0.000000 0.083816 -0.012336 0.000000 0.096308 -0.012402 0.000000 0.108696 -0.012400 0.000000 0.121218 -0.012295 0.000000 0.133433 -0.012017 0.000000 0.145445 -0.011566 0.000000 0.156799 -0.010800 0.000000 0.167334 -0.009790 0.000000 0.176701 -0.008293 0.000000 0.184305 -0.006521 0.000000 0.190139 -0.004096 0.000000 0.192955 -0.001474 0.000000 0.193513 0.001892 0.000000 0.189616 0.005189 0.000000 0.183474 0.009141 0.000000 0.171552 0.012520 0.000000 0.158425 0.016160 0.000000 0.138799 0.018588 0.000000 0.120428 0.020549 0.000000 0.096062 0.020972 0.000000 0.076400 0.020202 0.000000 0.052936 0.018654 0.000000 0.036563 0.015948 0.000000 0.020129 0.014264 0.000000 0.009383 0.012049 0.000000 -0.000296 0.012033 0.000000 -0.010198 0.012038 0.000000 -0.020695 0.014205 0.000000 -0.037266 0.015932 0.000000 -0.053478 0.018564 0.000000 -0.076917 0.020183 0.000000 -0.096569 0.020885 0.000000 -0.120755 0.020504 0.000000 -0.139201 0.018527 0.000000 -0.158622 0.016105 0.000000 -0.171832 0.012478 0.000000 -0.183588 0.009081 0.000000 -0.189775 0.005149 0.000000 -0.193555 0.001829 0.000000 -0.192999 -0.001520 0.000000 -0.190103 -0.004159 0.000000 -0.184241 -0.006571 0.000000 -0.176583 -0.008352 0.000000 -0.167172 -0.009840 0.000000 -0.156600 -0.010853 0.000000 -0.145195 -0.011612 0.000000 -0.133158 -0.012061 0.000000 -0.120893 -0.012333 0.000000 -0.108355 -0.012435 0.000000 -0.095922 -0.012433 0.000000 -0.083421 -0.012363 0.000000 -0.071158 -0.012242 0.000000 -0.058920 -0.012120 0.000000 -0.046922 -0.011982 0.000000 -0.034974 -0.011881 0.000000 -0.023190 -0.011781 0.000000 -0.011448 -0.011738 0.000000 
0.000276 -0.023369 0.000000 0.011899 -0.023429 0.000000 0.023604 -0.023513 0.000000 0.035315 -0.023712 0.000000 0.047235 -0.023920 0.000000 0.059169 -0.024204 0.000000 0.071402 -0.024461 0.000000 0.083620 -0.024718 0.000000 0.096149 -0.024880 0.000000 0.108563 -0.024910 0.000000 0.121166 -0.024737 0.000000 0.133438 -0.024227 0.000000 0.145563 -0.023366 0.000000 0.156981 -0.021889 0.000000 0.167622 -0.019902 0.000000 0.177010 -0.016971 0.000000 0.184638 -0.013438 0.000000 0.190378 -0.008649 0.000000 0.193026 -0.003374 0.000000 0.193280 0.003339 0.000000 0.188885 0.010039 0.000000 0.182130 0.018063 0.000000 0.169267 0.025049 0.000000 0.155208 0.032753 0.000000 0.134318 0.037996 0.000000 0.115051 0.042737 0.000000 0.089879 0.044028 0.000000 0.070380 0.043126 0.000000 0.047895 0.039837 0.000000 0.033386 0.032807 0.000000 0.018523 0.027181 0.000000 0.008780 0.020425 0.000000 -0.000314 0.019581 0.000000 -0.009664 0.020399 0.000000 -0.019114 0.027068 0.000000 -0.034133 0.032784 0.000000 -0.048460 0.039651 0.000000 -0.070919 0.043091 0.000000 -0.090434 0.043838 0.000000 -0.115395 0.042631 0.000000 -0.134765 0.037867 0.000000 -0.155436 0.032631 0.000000 -0.169598 0.024966 0.000000 -0.182291 0.017943 0.000000 -0.189095 0.009967 0.000000 -0.193366 0.003224 0.000000 -0.193106 -0.003452 0.000000 -0.190370 -0.008758 0.000000 -0.184589 -0.013520 0.000000 -0.176898 -0.017069 0.000000 -0.167451 -0.019983 0.000000 -0.156765 -0.021977 0.000000 -0.145286 -0.023442 0.000000 -0.133129 -0.024302 0.000000 -0.120800 -0.024803 0.000000 -0.108176 -0.024971 0.000000 -0.095712 -0.024934 0.000000 -0.083171 -0.024764 0.000000 -0.070913 -0.024501 0.000000 -0.058676 -0.024237 0.000000 -0.046710 -0.023946 0.000000 -0.034793 -0.023731 0.000000 -0.023058 -0.023526 0.000000 -0.011363 -0.023436 0.000000 
0.000252 -0.034967 0.000000 0.011774 -0.035063 0.000000 0.023383 -0.035189 0.000000 0.035009 -0.035501 0.000000 0.046860 -0.035821 0.000000 0.058748 -0.036269 0.000000 0.070960 -0.036670 0.000000 0.083195 -0.037083 0.000000 0.095779 -0.037346 0.000000 0.108294 -0.037417 0.000000 0.121045 -0.037169 0.000000 0.133508 -0.036414 0.000000 0.145879 -0.035109 0.000000 0.157556 -0.032859 0.000000 0.168524 -0.029819 0.000000 0.178186 -0.025309 0.000000 0.186187 -0.019889 0.000000 0.192133 -0.012484 0.000000 0.195155 -0.004376 0.000000 0.195441 0.006034 0.000000 0.191332 0.016339 0.000000 0.184293 0.028759 0.000000 0.171408 0.039442 0.000000 0.156589 0.051109 0.000000 0.134885 0.058745 0.000000 0.114289 0.064988 0.000000 0.086726 0.065643 0.000000 0.065343 0.062185 0.000000 0.038583 0.055647 0.000000 0.022209 0.045320 0.000000 0.007510 0.038871 0.000000 0.002010 0.030886 0.000000 -0.000302 0.030476 0.000000 -0.002902 0.030838 0.000000 -0.008048 0.038675 0.000000 -0.022971 0.045277 0.000000 -0.039133 0.055350 0.000000 -0.065865 0.062157 0.000000 -0.087306 0.065361 0.000000 -0.114557 0.064835 0.000000 -0.135303 0.058568 0.000000 -0.156739 0.050938 0.000000 -0.171683 0.039333 0.000000 -0.184394 0.028578 0.000000 -0.191482 0.016224 0.000000 -0.195483 0.005841 0.000000 -0.195187 -0.004516 0.000000 -0.192098 -0.012677 0.000000 -0.186109 -0.020044 0.000000 -0.178064 -0.025490 0.000000 -0.168346 -0.029973 0.000000 -0.157348 -0.033018 0.000000 -0.145614 -0.035248 0.000000 -0.133221 -0.036547 0.000000 -0.120705 -0.037286 0.000000 -0.107940 -0.037523 0.000000 -0.095378 -0.037438 0.000000 -0.082787 -0.037162 0.000000 -0.070514 -0.036738 0.000000 -0.058300 -0.036323 0.000000 -0.046381 -0.035865 0.000000 -0.034535 -0.035533 0.000000 -0.022886 -0.035211 0.000000 -0.011287 -0.035073 0.000000 
0.000287 -0.046430 0.000000 0.011670 -0.046560 0.000000 0.023149 -0.046749 0.000000 0.034648 -0.047189 0.000000 0.046401 -0.047658 0.000000 0.058198 -0.048304 0.000000 0.070370 -0.048909 0.000000 0.082570 -0.049536 0.000000 0.095193 -0.049979 0.000000 0.107741 -0.050177 0.000000 0.120617 -0.049951 0.000000 0.133165 -0.049061 0.000000 0.145720 -0.047414 0.000000 0.157480 -0.044534 0.000000 0.168632 -0.040531 0.000000 0.178296 -0.034634 0.000000 0.186402 -0.027386 0.000000 0.192194 -0.017617 0.000000 0.195159 -0.006682 0.000000 0.195090 0.007162 0.000000 0.190657 0.021187 0.000000 0.183031 0.037987 0.000000 0.169347 0.052753 0.000000 0.153655 0.069277 0.000000 0.130460 0.080297 0.000000 0.108957 0.090896 0.000000 0.080046 0.092974 0.000000 0.059647 0.091269 0.000000 0.035683 0.082970 0.000000 0.024501 0.063880 0.000000 0.012150 0.047380 0.000000 0.005450 0.028237 0.000000 -0.000320 0.024493 0.000000 -0.006456 0.028145 0.000000 -0.012690 0.047137 0.000000 -0.025339 0.063869 0.000000 -0.036243 0.082545 0.000000 -0.060185 0.091263 0.000000 -0.080740 0.092530 0.000000 -0.109207 0.090628 0.000000 -0.130933 0.080049 0.000000 -0.153820 0.069012 0.000000 -0.169688 0.052621 0.000000 -0.183194 0.037742 0.000000 -0.190873 0.021056 0.000000 -0.195195 0.006929 0.000000 -0.195231 -0.006837 0.000000 -0.192193 -0.017836 0.000000 -0.186331 -0.027555 0.000000 -0.178174 -0.034833 0.000000 -0.168433 -0.040699 0.000000 -0.157245 -0.044709 0.000000 -0.145413 -0.047569 0.000000 -0.132831 -0.049211 0.000000 -0.120221 -0.050084 0.000000 -0.107328 -0.050298 0.000000 -0.094729 -0.050087 0.000000 -0.082096 -0.049628 0.000000 -0.069856 -0.048989 0.000000 -0.057680 -0.048369 0.000000 -0.045853 -0.047711 0.000000 -0.034104 -0.047227 0.000000 -0.022581 -0.046774 0.000000 -0.011112 -0.046573 0.000000 
0.000264 -0.057748 0.000000 0.011443 -0.057924 0.000000 0.022724 -0.058168 0.000000 0.034038 -0.058753 0.000000 0.045626 -0.059370 0.000000 0.057281 -0.060238 0.000000 0.069348 -0.061043 0.000000 0.081477 -0.061906 0.000000 0.094072 -0.062517 0.000000 0.106626 -0.062841 0.000000 0.119550 -0.062593 0.000000 0.132158 -0.061517 0.000000 0.144807 -0.059425 0.000000 0.156633 -0.055771 0.000000 0.167896 -0.050635 0.000000 0.177600 -0.043079 0.000000 0.185896 -0.033787 0.000000 0.191783 -0.021241 0.000000 0.195284 -0.007272 0.000000 0.195650 0.010535 0.000000 0.192650 0.028398 0.000000 0.186296 0.050069 0.000000 0.175577 0.068818 0.000000 0.162470 0.089996 0.000000 0.143623 0.103443 0.000000 0.125798 0.115402 0.000000 0.099434 0.114953 0.000000 0.080676 0.106549 0.000000 0.046094 0.090793 0.000000 0.024789 0.068853 0.000000 0.004742 0.057922 0.000000 -0.001644 0.043356 0.000000 -0.000317 0.042382 0.000000 0.000636 0.043207 0.000000 -0.005133 0.057558 0.000000 -0.025742 0.068831 0.000000 -0.046693 0.090196 0.000000 -0.081253 0.106654 0.000000 -0.100310 0.114383 0.000000 -0.125902 0.115028 0.000000 -0.144069 0.103181 0.000000 -0.162523 0.089693 0.000000 -0.175839 0.068707 0.000000 -0.186396 0.049763 0.000000 -0.192782 0.028225 0.000000 -0.195706 0.010199 0.000000 -0.195288 -0.007519 0.000000 -0.191748 -0.021576 0.000000 -0.185785 -0.034062 0.000000 -0.177465 -0.043388 0.000000 -0.167684 -0.050902 0.000000 -0.156402 -0.056039 0.000000 -0.144508 -0.059662 0.000000 -0.131844 -0.061739 0.000000 -0.119177 -0.062789 0.000000 -0.106243 -0.063016 0.000000 -0.093641 -0.062670 0.000000 -0.081040 -0.062035 0.000000 -0.068873 -0.061153 0.000000 -0.056805 -0.060326 0.000000 -0.045120 -0.059441 0.000000 -0.033537 -0.058804 0.000000 -0.022201 -0.058202 0.000000 -0.010930 -0.057941 0.000000 
0.000303 -0.068802 0.000000 0.011229 -0.069020 0.000000 0.022266 -0.069343 0.000000 0.033338 -0.070091 0.000000 0.044713 -0.070902 0.000000 0.056157 -0.072027 0.000000 0.068060 -0.073104 0.000000 0.080015 -0.074260 0.000000 0.092497 -0.075128 0.000000 0.104894 -0.075654 0.000000 0.117723 -0.075483 0.000000 0.130126 -0.074319 0.000000 0.142641 -0.071889 0.000000 0.154139 -0.067623 0.000000 0.165213 -0.061499 0.000000 0.174493 -0.052634 0.000000 0.182735 -0.041568 0.000000 0.188455 -0.027005 0.000000 0.192663 -0.010548 0.000000 0.194039 0.009796 0.000000 0.193657 0.030541 0.000000 0.190906 0.055061 0.000000 0.185736 0.076579 0.000000 0.179552 0.101230 0.000000 0.168012 0.116968 0.000000 0.158294 0.135085 0.000000 0.136920 0.138097 0.000000 0.126327 0.144608 0.000000 0.105071 0.138857 0.000000 0.099486 0.105232 0.000000 0.075079 0.073812 0.000000 0.040396 0.033296 0.000000 -0.000339 0.022213 0.000000 -0.041572 0.032961 0.000000 -0.075422 0.073514 0.000000 -0.100611 0.105429 0.000000 -0.105630 0.138057 0.000000 -0.126863 0.144881 0.000000 -0.138131 0.137179 0.000000 -0.158305 0.134387 0.000000 -0.168491 0.116669 0.000000 -0.179620 0.100782 0.000000 -0.186109 0.076494 0.000000 -0.191144 0.054685 0.000000 -0.193899 0.030366 0.000000 -0.194207 0.009434 0.000000 -0.192718 -0.010795 0.000000 -0.188463 -0.027339 0.000000 -0.182617 -0.041838 0.000000 -0.174343 -0.052933 0.000000 -0.164955 -0.061762 0.000000 -0.153857 -0.067885 0.000000 -0.142274 -0.072127 0.000000 -0.129742 -0.074541 0.000000 -0.117272 -0.075685 0.000000 -0.104431 -0.075834 0.000000 -0.091984 -0.075290 0.000000 -0.079496 -0.074396 0.000000 -0.067503 -0.073223 0.000000 -0.055599 -0.072122 0.000000 -0.044127 -0.070979 0.000000 -0.032756 -0.070146 0.000000 -0.021664 -0.069381 0.000000 -0.010636 -0.069038 0.000000 
0.000283 -0.079613 0.000000 0.010864 -0.079887 0.000000 0.021562 -0.080277 0.000000 0.032297 -0.081201 0.000000 0.043348 -0.082190 0.000000 0.054469 -0.083585 0.000000 0.066063 -0.084901 0.000000 0.077697 -0.086343 0.000000 0.089851 -0.087395 0.000000 0.101876 -0.088067 0.000000 0.114283 -0.087825 0.000000 0.126174 -0.086436 0.000000 0.138088 -0.083437 0.000000 0.148891 -0.078342 0.000000 0.159262 -0.070989 0.000000 0.167928 -0.060602 0.000000 0.175976 -0.047749 0.000000 0.182170 -0.031169 0.000000 0.188413 -0.012856 0.000000 0.193625 0.009541 0.000000 0.200834 0.031531 0.000000 0.208696 0.057990 0.000000 0.220731 0.080172 0.000000 0.234395 0.107721 0.000000 0.251191 0.124701 0.000000 0.269366 0.146494 0.000000 0.281851 0.146920 0.000000 0.298051 0.138398 0.000000 0.250365 0.117634 0.000000 0.197043 0.098845 0.000000 0.121462 0.117012 0.000000 0.053550 0.118774 0.000000 -0.000425 0.124350 0.000000 -0.054627 0.118291 0.000000 -0.121259 0.116597 0.000000 -0.198488 0.099039 0.000000 -0.251072 0.116448 0.000000 -0.298598 0.139155 0.000000 -0.283570 0.145825 0.000000 -0.268973 0.145388 0.000000 -0.251572 0.124496 0.000000 -0.234373 0.107312 0.000000 -0.220997 0.080231 0.000000 -0.208926 0.057553 0.000000 -0.200965 0.031288 0.000000 -0.193749 0.009017 0.000000 -0.188372 -0.013262 0.000000 -0.182133 -0.031677 0.000000 -0.175802 -0.048183 0.000000 -0.167756 -0.061050 0.000000 -0.158985 -0.071388 0.000000 -0.148611 -0.078719 0.000000 -0.137728 -0.083778 0.000000 -0.125808 -0.086741 0.000000 -0.113856 -0.088100 0.000000 -0.101443 -0.088304 0.000000 -0.089370 -0.087605 0.000000 -0.077213 -0.086516 0.000000 -0.065543 -0.085050 0.000000 -0.053950 -0.083702 0.000000 -0.042802 -0.082284 0.000000 -0.031756 -0.081268 0.000000 -0.021001 -0.080322 0.000000 -0.010313 -0.079908 0.000000 
0.000325 -0.089978 0.000000 0.010502 -0.090299 0.000000 0.020799 -0.090776 0.000000 0.031123 -0.091877 0.000000 0.041770 -0.093075 0.000000 0.052457 -0.094742 0.000000 0.063616 -0.096331 0.000000 0.074742 -0.098048 0.000000 0.086356 -0.099308 0.000000 0.097691 -0.100086 0.000000 0.109330 -0.099781 0.000000 0.120205 -0.098123 0.000000 0.131047 -0.094606 0.000000 0.140513 -0.088797 0.000000 0.149793 -0.080536 0.000000 0.157412 -0.069347 0.000000 0.165644 -0.055810 0.000000 0.173131 -0.039442 0.000000 0.184091 -0.022004 0.000000 0.197336 -0.002626 0.000000 0.219338 0.015469 0.000000 0.247747 0.035164 0.000000 0.288787 0.050881 0.000000 0.336167 0.070770 0.000000 0.389095 0.081996 0.000000 0.438960 0.104425 0.000000 0.462225 0.109412 0.000000 0.491579 0.176094 0.000000 0.507353 0.239866 0.000000 0.530294 0.234135 0.000000 0.440161 0.217305 0.000000 0.248722 0.155183 0.000000 -0.000167 0.130391 0.000000 -0.250058 0.153794 0.000000 -0.439923 0.217375 0.000000 -0.531558 0.235242 0.000000 -0.507350 0.238167 0.000000 -0.491248 0.177379 0.000000 -0.464532 0.107554 0.000000 -0.438463 0.102389 0.000000 -0.389357 0.082069 0.000000 -0.336281 0.070207 0.000000 -0.289338 0.051047 0.000000 -0.248365 0.034653 0.000000 -0.219710 0.015189 0.000000 -0.197684 -0.003158 0.000000 -0.184123 -0.022411 0.000000 -0.173143 -0.039909 0.000000 -0.165432 -0.056214 0.000000 -0.157188 -0.069749 0.000000 -0.149425 -0.080906 0.000000 -0.140137 -0.089143 0.000000 -0.130577 -0.094930 0.000000 -0.119730 -0.098413 0.000000 -0.108791 -0.100051 0.000000 -0.097149 -0.100320 0.000000 -0.085769 -0.099520 0.000000 -0.074155 -0.098223 0.000000 -0.062997 -0.096485 0.000000 -0.051842 -0.094863 0.000000 -0.041133 -0.093174 0.000000 -0.030491 -0.091947 0.000000 -0.020151 -0.090825 0.000000 -0.009864 -0.090322 0.000000 
0.000306 -0.099980 0.000000 0.009962 -0.100360 0.000000 0.019733 -0.100897 0.000000 0.029508 -0.102172 0.000000 0.039589 -0.103524 0.000000 0.049648 -0.105431 0.000000 0.060120 -0.107185 0.000000 0.070435 -0.109083 0.000000 0.081100 -0.110345 0.000000 0.091266 -0.111041 0.000000 0.101492 -0.110339 0.000000 0.110676 -0.108153 0.000000 0.119569 -0.103745 0.000000 0.127003 -0.097088 0.000000 0.134397 -0.087888 0.000000 0.140968 -0.076453 0.000000 0.149713 -0.063468 0.000000 0.160909 -0.049615 0.000000 0.180252 -0.037062 0.000000 0.208941 -0.025706 0.000000 0.255199 -0.018879 0.000000 0.316574 -0.011459 0.000000 0.400175 -0.008248 0.000000 0.491075 0.007413 0.000000 0.597075 0.021907 0.000000 0.693455 0.073363 0.000000 0.827273 0.094301 0.000000 0.959751 0.093270 0.000000 0.948951 0.078920 0.000000 0.819116 0.166036 0.000000 0.571395 0.398583 0.000000 0.300960 0.559102 0.000000 0.000953 0.623130 0.000000 -0.302057 0.558046 0.000000 -0.570515 0.398097 0.000000 -0.819349 0.166466 0.000000 -0.949700 0.076139 0.000000 -0.959593 0.096336 0.000000 -0.829177 0.093039 0.000000 -0.692539 0.070212 0.000000 -0.597183 0.022314 0.000000 -0.491555 0.007293 0.000000 -0.400615 -0.007685 0.000000 -0.317353 -0.012076 0.000000 -0.255427 -0.019393 0.000000 -0.209247 -0.026569 0.000000 -0.180170 -0.037804 0.000000 -0.160862 -0.050368 0.000000 -0.149444 -0.064137 0.000000 -0.140717 -0.077057 0.000000 -0.134014 -0.088439 0.000000 -0.126629 -0.097567 0.000000 -0.119110 -0.104185 0.000000 -0.110219 -0.108527 0.000000 -0.100978 -0.110681 0.000000 -0.090753 -0.111326 0.000000 -0.080546 -0.110599 0.000000 -0.069882 -0.109288 0.000000 -0.059538 -0.107363 0.000000 -0.049069 -0.105567 0.000000 -0.038989 -0.103635 0.000000 -0.028915 -0.102249 0.000000 -0.019125 -0.100950 0.000000 -0.009362 -0.100385 0.000000 
0.000351 -0.109302 0.000000 0.009417 -0.109727 0.000000 0.018587 -0.110323 0.000000 0.027720 -0.111733 0.000000 0.037111 -0.113214 0.000000 0.046378 -0.115274 0.000000 0.055945 -0.117119 0.000000 0.065151 -0.119027 0.000000 0.074481 -0.120139 0.000000 0.082976 -0.120478 0.000000 0.091202 -0.119190 0.000000 0.097988 -0.116200 0.000000 0.104295 -0.110934 0.000000 0.109074 -0.103625 0.000000 0.114555 -0.094501 0.000000 0.120499 -0.084664 0.000000 0.132008 -0.075750 0.000000 0.150387 -0.069981 0.000000 0.185187 -0.070036 0.000000 0.237682 -0.077572 0.000000 0.319876 -0.092164 0.000000 0.422963 -0.109812 0.000000 0.553902 -0.123620 0.000000 0.684114 -0.126130 0.000000 0.829913 -0.120383 0.000000 0.941780 -0.125773 0.000000 0.980721 -0.156884 0.000000 0.769616 0.054417 0.000000 0.402497 0.380501 0.000000 0.088400 0.611692 0.000000 -0.116650 0.735461 0.000000 -0.105085 0.725625 0.000000 0.000764 0.733408 0.000000 0.105510 0.725262 0.000000 0.116954 0.734666 0.000000 -0.086246 0.614427 0.000000 -0.403244 0.378411 0.000000 -0.767854 0.056855 0.000000 -0.978484 -0.159501 0.000000 -0.942878 -0.129605 0.000000 -0.829337 -0.118915 0.000000 -0.684849 -0.126361 0.000000 -0.555011 -0.123155 0.000000 -0.424567 -0.110536 0.000000 -0.320514 -0.092917 0.000000 -0.238345 -0.078415 0.000000 -0.185187 -0.070796 0.000000 -0.150362 -0.070635 0.000000 -0.131642 -0.076358 0.000000 -0.120121 -0.085179 0.000000 -0.114007 -0.094995 0.000000 -0.108529 -0.104047 0.000000 -0.103663 -0.111340 0.000000 -0.097364 -0.116545 0.000000 -0.090531 -0.119517 0.000000 -0.082313 -0.120752 0.000000 -0.073791 -0.120391 0.000000 -0.064470 -0.119231 0.000000 -0.055247 -0.117298 0.000000 -0.045689 -0.115412 0.000000 -0.036410 -0.113328 0.000000 -0.027027 -0.111812 0.000000 -0.017885 -0.110378 0.000000 -0.008725 -0.109752 0.000000 
0.000332 -0.118122 0.000000 0.008676 -0.118596 0.000000 0.017100 -0.119199 0.000000 0.025415 -0.120696 0.000000 0.033906 -0.122183 0.000000 0.042100 -0.124265 0.000000 0.050406 -0.125958 0.000000 0.058029 -0.127619 0.000000 0.065431 -0.128169 0.000000 0.071519 -0.127762 0.000000 0.076869 -0.125352 0.000000 0.080331 -0.121246 0.000000 0.083076 -0.114831 0.000000 0.084592 -0.107348 0.000000 0.087862 -0.099312 0.000000 0.094312 -0.093906 0.000000 0.110584 -0.093356 0.000000 0.141184 -0.102794 0.000000 0.196457 -0.124357 0.000000 0.280254 -0.160396 0.000000 0.397618 -0.204160 0.000000 0.532627 -0.245484 0.000000 0.669784 -0.269399 0.000000 0.760417 -0.268598 0.000000 0.803574 -0.235759 0.000000 0.608337 -0.077445 0.000000 0.208799 0.266465 0.000000 -0.242963 0.671495 0.000000 -0.418916 0.760136 0.000000 -0.318225 0.685183 0.000000 -0.182784 0.592068 0.000000 -0.063749 0.441689 0.000000 -0.000450 0.412535 0.000000 0.065570 0.441856 0.000000 0.180687 0.589853 0.000000 0.323090 0.686664 0.000000 0.418888 0.757746 0.000000 0.244759 0.671577 0.000000 -0.203559 0.268064 0.000000 -0.610774 -0.078935 0.000000 -0.803413 -0.235715 0.000000 -0.762463 -0.267033 0.000000 -0.669865 -0.267967 0.000000 -0.533842 -0.246573 0.000000 -0.397716 -0.205614 0.000000 -0.280644 -0.161896 0.000000 -0.196341 -0.125787 0.000000 -0.141106 -0.103914 0.000000 -0.110230 -0.094379 0.000000 -0.093944 -0.094692 0.000000 -0.087343 -0.100031 0.000000 -0.084066 -0.107911 0.000000 -0.082471 -0.115350 0.000000 -0.079730 -0.121660 0.000000 -0.076226 -0.125732 0.000000 -0.070884 -0.128065 0.000000 -0.064772 -0.128442 0.000000 -0.057379 -0.127832 0.000000 -0.049741 -0.126144 0.000000 -0.041444 -0.124404 0.000000 -0.033241 -0.122297 0.000000 -0.024758 -0.120773 0.000000 -0.016436 -0.119253 0.000000 -0.008020 -0.118621 0.000000 
0.000376 -0.125998 0.000000 0.007931 -0.126495 0.000000 0.015527 -0.127062 0.000000 0.022918 -0.128538 0.000000 0.030350 -0.129899 0.000000 0.037258 -0.131773 0.000000 0.043993 -0.133048 0.000000 0.049644 -0.134053 0.000000 0.054592 -0.133629 0.000000 0.057683 -0.131916 0.000000 0.059470 -0.128002 0.000000 0.059017 -0.122407 0.000000 0.057800 -0.115195 0.000000 0.056189 -0.108411 0.000000 0.058354 -0.104221 0.000000 0.067577 -0.107386 0.000000 0.092937 -0.122622 0.000000 0.140417 -0.155855 0.000000 0.221670 -0.209106 0.000000 0.334574 -0.278733 0.000000 0.474629 -0.344537 0.000000 0.596725 -0.381978 0.000000 0.663029 -0.351410 0.000000 0.590635 -0.259920 0.000000 0.343558 0.031696 0.000000 -0.080120 0.469002 0.000000 -0.337318 0.694416 0.000000 -0.270577 0.682132 0.000000 -0.081205 0.455763 0.000000 0.048337 0.375559 0.000000 0.108467 0.480985 0.000000 0.083508 0.543291 0.000000 0.000364 0.604089 0.000000 -0.079431 0.544124 0.000000 -0.107678 0.477147 0.000000 -0.043705 0.376226 0.000000 0.080660 0.456742 0.000000 0.269779 0.679302 0.000000 0.340584 0.696032 0.000000 0.081752 0.470249 0.000000 -0.342464 0.032775 0.000000 -0.591623 -0.259909 0.000000 -0.662514 -0.351776 0.000000 -0.598352 -0.382684 0.000000 -0.474552 -0.346115 0.000000 -0.335053 -0.279790 0.000000 -0.221473 -0.210334 0.000000 -0.140217 -0.156746 0.000000 -0.092395 -0.123521 0.000000 -0.066967 -0.108066 0.000000 -0.057583 -0.104873 0.000000 -0.055395 -0.108919 0.000000 -0.056946 -0.115676 0.000000 -0.058176 -0.122791 0.000000 -0.058616 -0.128363 0.000000 -0.056852 -0.132205 0.000000 -0.053764 -0.133896 0.000000 -0.048840 -0.134262 0.000000 -0.043195 -0.133233 0.000000 -0.036480 -0.131912 0.000000 -0.029577 -0.130014 0.000000 -0.022159 -0.128617 0.000000 -0.014769 -0.127116 0.000000 -0.007182 -0.126520 0.000000 
0.000359 -0.133236 0.000000 0.006996 -0.133747 0.000000 0.013622 -0.134186 0.000000 0.019897 -0.135519 0.000000 0.026038 -0.136523 0.000000 0.031322 -0.137908 0.000000 0.036080 -0.138344 0.000000 0.039193 -0.138217 0.000000 0.041057 -0.136208 0.000000 0.040362 -0.132641 0.000000 0.037847 -0.126686 0.000000 0.032753 -0.119575 0.000000 0.027244 -0.112003 0.000000 0.022696 -0.107902 0.000000 0.024894 -0.110700 0.000000 0.039159 -0.128489 0.000000 0.076343 -0.166196 0.000000 0.143426 -0.231528 0.000000 0.247322 -0.318514 0.000000 0.378735 -0.413355 0.000000 0.502279 -0.466311 0.000000 0.549446 -0.433884 0.000000 0.434136 -0.263309 0.000000 0.176002 0.050873 0.000000 -0.181733 0.434996 0.000000 -0.335656 0.603431 0.000000 -0.198693 0.456922 0.000000 -0.020555 0.415383 0.000000 0.079151 0.441222 0.000000 0.034485 0.495510 0.000000 0.017236 0.556897 0.000000 -0.001662 0.549792 0.000000 0.000911 0.575473 0.000000 0.005494 0.549899 0.000000 -0.014657 0.554128 0.000000 -0.033161 0.498326 0.000000 -0.076869 0.444261 0.000000 0.022129 0.411652 0.000000 0.200539 0.456091 0.000000 0.336864 0.604114 0.000000 0.186222 0.437660 0.000000 -0.170707 0.053017 0.000000 -0.430250 -0.261238 0.000000 -0.544268 -0.434535 0.000000 -0.499951 -0.468913 0.000000 -0.378075 -0.414975 0.000000 -0.247135 -0.320623 0.000000 -0.143355 -0.232992 0.000000 -0.076077 -0.167629 0.000000 -0.038738 -0.129504 0.000000 -0.024285 -0.111602 0.000000 -0.021997 -0.108547 0.000000 -0.026460 -0.112569 0.000000 -0.031952 -0.119990 0.000000 -0.037026 -0.127056 0.000000 -0.039556 -0.132917 0.000000 -0.040256 -0.136455 0.000000 -0.038414 -0.138401 0.000000 -0.035311 -0.138504 0.000000 -0.030573 -0.138023 0.000000 -0.025297 -0.136618 0.000000 -0.019170 -0.135581 0.000000 -0.012897 -0.134229 0.000000 -0.006280 -0.133766 0.000000 
0.000399 -0.139274 0.000000 0.006072 -0.139757 0.000000 0.011661 -0.139963 0.000000 0.016728 -0.140955 0.000000 0.021418 -0.141324 0.000000 0.024866 -0.141815 0.000000 0.027325 -0.140919 0.000000 0.027538 -0.139030 0.000000 0.025844 -0.134799 0.000000 0.020980 -0.128705 0.000000 0.013780 -0.120392 0.000000 0.004152 -0.111804 0.000000 -0.005224 -0.105138 0.000000 -0.011108 -0.106062 0.000000 -0.006662 -0.120684 0.000000 0.016069 -0.158835 0.000000 0.067830 -0.226889 0.000000 0.153893 -0.326833 0.000000 0.272064 -0.444416 0.000000 0.394006 -0.533690 0.000000 0.443686 -0.515247 0.000000 0.330781 -0.313835 0.000000 0.085945 0.022035 0.000000 -0.168689 0.355948 0.000000 -0.326596 0.543354 0.000000 -0.241189 0.485962 0.000000 -0.124612 0.379315 0.000000 -0.090831 0.404289 0.000000 -0.037788 0.400722 0.000000 -0.029521 0.437474 0.000000 0.006276 0.517132 0.000000 0.004245 0.559617 0.000000 0.000953 0.596933 0.000000 -0.001510 0.559692 0.000000 -0.004453 0.515802 0.000000 0.029798 0.438438 0.000000 0.041255 0.401452 0.000000 0.092697 0.401894 0.000000 0.125324 0.381298 0.000000 0.241049 0.484566 0.000000 0.328157 0.540345 0.000000 0.170665 0.356563 0.000000 -0.081955 0.021786 0.000000 -0.323486 -0.312983 0.000000 -0.440374 -0.512308 0.000000 -0.392401 -0.532607 0.000000 -0.271451 -0.445055 0.000000 -0.153338 -0.327803 0.000000 -0.067266 -0.228137 0.000000 -0.015279 -0.159858 0.000000 0.007593 -0.121615 0.000000 0.012158 -0.106744 0.000000 0.006321 -0.105721 0.000000 -0.003047 -0.112225 0.000000 -0.012699 -0.120759 0.000000 -0.019938 -0.128975 0.000000 -0.024845 -0.135039 0.000000 -0.026585 -0.139207 0.000000 -0.026412 -0.141075 0.000000 -0.023989 -0.141926 0.000000 -0.020569 -0.141417 0.000000 -0.015903 -0.141016 0.000000 -0.010851 -0.140006 0.000000 -0.005273 -0.139776 0.000000 
0.000382 -0.144580 0.000000 0.004999 -0.145009 0.000000 0.009448 -0.144842 0.000000 0.013146 -0.145276 0.000000 0.016195 -0.144661 0.000000 0.017511 -0.143815 0.000000 0.017360 -0.141016 0.000000 0.014233 -0.136736 0.000000 0.008629 -0.129650 0.000000 -0.000813 -0.120577 0.000000 -0.012734 -0.109857 0.000000 -0.026793 -0.100571 0.000000 -0.039094 -0.096743 0.000000 -0.045194 -0.106465 0.000000 -0.036483 -0.137877 0.000000 -0.004799 -0.202981 0.000000 0.060493 -0.304020 0.000000 0.155997 -0.435761 0.000000 0.269042 -0.558627 0.000000 0.344671 -0.584977 0.000000 0.254759 -0.403086 0.000000 0.040127 -0.076143 0.000000 -0.150392 0.236160 0.000000 -0.316050 0.463414 0.000000 -0.337789 0.507496 0.000000 -0.212538 0.401447 0.000000 -0.154098 0.306563 0.000000 -0.100217 0.328559 0.000000 -0.052493 0.379912 0.000000 -0.053465 0.451445 0.000000 -0.033801 0.523131 0.000000 -0.022985 0.555115 0.000000 0.000835 0.581229 0.000000 0.024908 0.555304 0.000000 0.035390 0.522820 0.000000 0.054085 0.452618 0.000000 0.054401 0.381362 0.000000 0.100870 0.327583 0.000000 0.153791 0.307739 0.000000 0.214905 0.401281 0.000000 0.335215 0.508044 0.000000 0.315106 0.463129 0.000000 0.149075 0.232913 0.000000 -0.045737 -0.076116 0.000000 -0.255949 -0.399998 0.000000 -0.345557 -0.583897 0.000000 -0.270011 -0.559686 0.000000 -0.156632 -0.437177 0.000000 -0.060756 -0.305688 0.000000 0.005026 -0.204364 0.000000 0.037054 -0.139039 0.000000 0.046029 -0.107275 0.000000 0.040068 -0.097364 0.000000 0.027835 -0.100970 0.000000 0.013782 -0.110165 0.000000 0.001839 -0.120770 0.000000 -0.007645 -0.129808 0.000000 -0.013293 -0.136835 0.000000 -0.016465 -0.141100 0.000000 -0.016655 -0.143866 0.000000 -0.015372 -0.144704 0.000000 -0.012348 -0.145299 0.000000 -0.008669 -0.144859 0.000000 -0.004231 -0.145016 0.000000 