# vtk DataFile Version 2.0
Comment goes here
ASCII

DATASET STRUCTURED_POINTS
FIELD FieldData 1
TIME 1 1 double
0.13000000
DIMENSIONS    64   64   1

ORIGIN    0.000   0.000   0.000
SPACING   0.015625 0.015625   1.000

POINT_DATA   4096
VECTORS u double

-0.000009 -0.000000 0.000000 0.029527 0.000000 0.000000 0.059005 0.000000 0.000000 0.088331 0.000000 0.000000 0.117477 0.000000 0.000000 0.146291 0.000000 0.000000 0.174757 0.000000 0.000000 0.202670 0.000000 0.000000 0.229994 0.000000 0.000000 0.256479 0.000000 0.000000 0.282042 0.000000 0.000000 0.306395 0.000000 0.000000 0.329383 0.000000 0.000000 0.350684 0.000000 0.000000 0.370058 0.000000 0.000000 0.387149 0.000000 0.000000 0.401631 0.000000 0.000000 0.413111 0.000000 0.000000 0.421191 0.000000 0.000000 0.425442 -0.000000 0.000000 0.425431 -0.000000 0.000000 0.420709 -0.000000 0.000000 0.410859 -0.000000 0.000000 0.395451 -0.000000 0.000000 0.374171 -0.000000 0.000000 0.346680 -0.000000 0.000000 0.312903 -0.000000 0.000000 0.272782 -0.000000 0.000000 0.226726 -0.000000 0.000000 0.175249 -0.000000 0.000000 0.119457 -0.000000 0.000000 0.060515 -0.000000 0.000000 0.000035 -0.000000 0.000000 -0.060498 -0.000000 0.000000 -0.119392 -0.000000 0.000000 -0.175234 -0.000000 0.000000 -0.226673 -0.000000 0.000000 -0.272771 -0.000000 0.000000 -0.312868 -0.000000 0.000000 -0.346673 -0.000000 0.000000 -0.374156 -0.000000 0.000000 -0.395449 -0.000000 0.000000 -0.410862 -0.000000 0.000000 -0.420709 -0.000000 0.000000 -0.425446 -0.000000 0.000000 -0.425443 -0.000000 0.000000 -0.421212 -0.000000 0.000000 -0.413111 -0.000000 0.000000 -0.401654 -0.000000 0.000000 -0.387149 -0.000000 0.000000 -0.370080 -0.000000 0.000000 -0.350685 -0.000000 0.000000 -0.329403 -0.000000 0.000000 -0.306398 -0.000000 0.000000 -0.282061 -0.000000 0.000000 -0.256485 -0.000000 0.000000 -0.230012 -0.000000 0.000000 -0.202678 -0.000000 0.000000 -0.174774 -0.000000 0.000000 -0.146302 -0.000000 0.000000 -0.117494 -0.000000 0.000000 -0.088344 -0.000000 0.000000 -0.059023 -0.000000 0.000000 -0.029541 -0.000000 0.000000 
-0.000010 -0.029534 0.000000 0.029570 -0.029507 0.000000 0.059095 -0.029402 0.000000 0.088470 -0.029236 0.000000 0.117673 -0.028980 0.000000 0.146549 -0.028640 0.000000 0.175090 -0.028189 0.000000 0.203085 -0.027619 0.000000 0.230510 -0.026905 0.000000 0.257103 -0.026024 0.000000 0.282800 -0.024958 0.000000 0.307294 -0.023670 0.000000 0.330454 -0.022144 0.000000 0.351934 -0.020337 0.000000 0.371523 -0.018233 0.000000 0.388834 -0.015787 0.000000 0.403572 -0.012981 0.000000 0.415307 -0.009780 0.000000 0.423669 -0.006166 0.000000 0.428190 -0.002120 0.000000 0.428454 0.002367 0.000000 0.423969 0.007286 0.000000 0.414326 0.012629 0.000000 0.399049 0.018344 0.000000 0.377821 0.024386 0.000000 0.350268 0.030634 0.000000 0.316309 0.036949 0.000000 0.275867 0.043089 0.000000 0.229363 0.048767 0.000000 0.177321 0.053634 0.000000 0.120883 0.057367 0.000000 0.061240 0.059711 0.000000 0.000037 0.060506 0.000000 -0.061219 0.059713 0.000000 -0.120814 0.057368 0.000000 -0.177303 0.053640 0.000000 -0.229306 0.048769 0.000000 -0.275853 0.043098 0.000000 -0.316272 0.036951 0.000000 -0.350260 0.030644 0.000000 -0.377805 0.024388 0.000000 -0.399046 0.018353 0.000000 -0.414328 0.012630 0.000000 -0.423968 0.007292 0.000000 -0.428469 0.002367 0.000000 -0.428190 -0.002117 0.000000 -0.423691 -0.006166 0.000000 -0.415307 -0.009779 0.000000 -0.403596 -0.012981 0.000000 -0.388834 -0.015787 0.000000 -0.371546 -0.018232 0.000000 -0.351935 -0.020338 0.000000 -0.330476 -0.022143 0.000000 -0.307297 -0.023671 0.000000 -0.282821 -0.024957 0.000000 -0.257110 -0.026025 0.000000 -0.230530 -0.026903 0.000000 -0.203095 -0.027619 0.000000 -0.175110 -0.028188 0.000000 -0.146562 -0.028640 0.000000 -0.117693 -0.028979 0.000000 -0.088485 -0.029236 0.000000 -0.059115 -0.029402 0.000000 -0.029586 -0.029507 0.000000 
-0.000009 -0.059156 0.000000 0.029659 -0.059105 0.000000 0.059277 -0.058900 0.000000 0.088753 -0.058578 0.000000 0.118072 -0.058079 0.000000 0.147082 -0.057417 0.000000 0.175778 -0.056536 0.000000 0.203955 -0.055420 0.000000 0.231589 -0.054019 0.000000 0.258427 -0.052290 0.000000 0.284397 -0.050190 0.000000 0.309209 -0.047654 0.000000 0.332716 -0.044640 0.000000 0.354595 -0.041069 0.000000 0.374607 -0.036900 0.000000 0.392397 -0.032049 0.000000 0.407629 -0.026473 0.000000 0.419908 -0.020097 0.000000 0.428813 -0.012883 0.000000 0.433903 -0.004785 0.000000 0.434705 0.004221 0.000000 0.430736 0.014128 0.000000 0.421520 0.024920 0.000000 0.406566 0.036504 0.000000 0.385484 0.048781 0.000000 0.357863 0.061512 0.000000 0.323562 0.074401 0.000000 0.282479 0.086947 0.000000 0.235033 0.098546 0.000000 0.181787 0.108479 0.000000 0.123954 0.116081 0.000000 0.062798 0.120846 0.000000 0.000037 0.122460 0.000000 -0.062780 0.120851 0.000000 -0.123885 0.116084 0.000000 -0.181771 0.108492 0.000000 -0.234977 0.098550 0.000000 -0.282467 0.086965 0.000000 -0.323526 0.074406 0.000000 -0.357857 0.061533 0.000000 -0.385471 0.048786 0.000000 -0.406565 0.036523 0.000000 -0.421526 0.024923 0.000000 -0.430737 0.014141 0.000000 -0.434723 0.004222 0.000000 -0.433904 -0.004778 0.000000 -0.428837 -0.012884 0.000000 -0.419908 -0.020095 0.000000 -0.407653 -0.026472 0.000000 -0.392397 -0.032049 0.000000 -0.374630 -0.036899 0.000000 -0.354595 -0.041071 0.000000 -0.332736 -0.044638 0.000000 -0.309211 -0.047655 0.000000 -0.284415 -0.050187 0.000000 -0.258432 -0.052291 0.000000 -0.231606 -0.054015 0.000000 -0.203963 -0.055420 0.000000 -0.175796 -0.056533 0.000000 -0.147093 -0.057417 0.000000 -0.118090 -0.058077 0.000000 -0.088767 -0.058577 0.000000 -0.059295 -0.058899 0.000000 -0.029673 -0.059105 0.000000 
-0.000010 -0.088866 0.000000 0.029826 -0.088793 0.000000 0.059623 -0.088497 0.000000 0.089292 -0.088031 0.000000 0.118834 -0.087308 0.000000 0.148093 -0.086346 0.000000 0.177088 -0.085062 0.000000 0.205602 -0.083429 0.000000 0.233640 -0.081377 0.000000 0.260932 -0.078832 0.000000 0.287437 -0.075740 0.000000 0.312844 -0.071989 0.000000 0.337038 -0.067530 0.000000 0.359672 -0.062229 0.000000 0.380538 -0.056035 0.000000 0.399248 -0.048809 0.000000 0.415494 -0.040491 0.000000 0.428837 -0.030964 0.000000 0.438866 -0.020162 0.000000 0.445082 -0.008012 0.000000 0.446987 0.005535 0.000000 0.444019 0.020471 0.000000 0.435637 0.036798 0.000000 0.421246 0.054380 0.000000 0.400373 0.073089 0.000000 0.372498 0.092556 0.000000 0.337427 0.112333 0.000000 0.295005 0.131618 0.000000 0.245693 0.149459 0.000000 0.190122 0.164713 0.000000 0.129657 0.176355 0.000000 0.065685 0.183628 0.000000 0.000041 0.186085 0.000000 -0.065663 0.183635 0.000000 -0.129581 0.176359 0.000000 -0.190103 0.164733 0.000000 -0.245631 0.149465 0.000000 -0.294991 0.131647 0.000000 -0.337388 0.112341 0.000000 -0.372492 0.092588 0.000000 -0.400359 0.073096 0.000000 -0.421246 0.054408 0.000000 -0.435645 0.036802 0.000000 -0.444020 0.020490 0.000000 -0.447008 0.005535 0.000000 -0.445083 -0.008004 0.000000 -0.438892 -0.020163 0.000000 -0.428836 -0.030962 0.000000 -0.415520 -0.040492 0.000000 -0.399247 -0.048811 0.000000 -0.380562 -0.056034 0.000000 -0.359672 -0.062232 0.000000 -0.337060 -0.067527 0.000000 -0.312847 -0.071991 0.000000 -0.287457 -0.075736 0.000000 -0.260939 -0.078834 0.000000 -0.233660 -0.081372 0.000000 -0.205613 -0.083429 0.000000 -0.177108 -0.085058 0.000000 -0.148107 -0.086346 0.000000 -0.118854 -0.087305 0.000000 -0.089308 -0.088031 0.000000 -0.059643 -0.088495 0.000000 -0.029843 -0.088793 0.000000 
-0.000009 -0.118825 0.000000 0.030028 -0.118739 0.000000 0.060040 -0.118366 0.000000 0.089943 -0.117788 0.000000 0.119758 -0.116880 0.000000 0.149328 -0.115672 0.000000 0.178697 -0.114045 0.000000 0.207641 -0.111972 0.000000 0.236186 -0.109348 0.000000 0.264064 -0.106087 0.000000 0.291241 -0.102102 0.000000 0.317419 -0.097255 0.000000 0.342473 -0.091468 0.000000 0.366083 -0.084569 0.000000 0.388009 -0.076477 0.000000 0.407900 -0.067005 0.000000 0.425391 -0.056061 0.000000 0.440076 -0.043469 0.000000 0.451463 -0.029129 0.000000 0.459060 -0.012906 0.000000 0.462262 0.005285 0.000000 0.460477 0.025478 0.000000 0.453029 0.047692 0.000000 0.439253 0.071769 0.000000 0.418531 0.097529 0.000000 0.390260 0.124458 0.000000 0.354151 0.151894 0.000000 0.310021 0.178681 0.000000 0.258376 0.203428 0.000000 0.199964 0.224515 0.000000 0.136339 0.240518 0.000000 0.069045 0.250462 0.000000 0.000042 0.253807 0.000000 -0.069028 0.250472 0.000000 -0.136260 0.240524 0.000000 -0.199947 0.224543 0.000000 -0.258313 0.203438 0.000000 -0.310008 0.178722 0.000000 -0.354113 0.151907 0.000000 -0.390256 0.124504 0.000000 -0.418523 0.097540 0.000000 -0.439255 0.071809 0.000000 -0.453045 0.047697 0.000000 -0.460481 0.025504 0.000000 -0.462291 0.005285 0.000000 -0.459063 -0.012894 0.000000 -0.451494 -0.029131 0.000000 -0.440075 -0.043467 0.000000 -0.425419 -0.056062 0.000000 -0.407898 -0.067008 0.000000 -0.388032 -0.076474 0.000000 -0.366081 -0.084572 0.000000 -0.342492 -0.091462 0.000000 -0.317420 -0.097257 0.000000 -0.291258 -0.102095 0.000000 -0.264069 -0.106088 0.000000 -0.236203 -0.109341 0.000000 -0.207650 -0.111972 0.000000 -0.178714 -0.114040 0.000000 -0.149341 -0.115671 0.000000 -0.119776 -0.116876 0.000000 -0.089957 -0.117788 0.000000 -0.060058 -0.118364 0.000000 -0.030044 -0.118739 0.000000 
-0.000010 -0.148937 0.000000 0.030285 -0.148843 0.000000 0.060574 -0.148412 0.000000 0.090779 -0.147749 0.000000 0.120951 -0.146694 0.000000 0.150929 -0.145285 0.000000 0.180790 -0.143375 0.000000 0.210301 -0.140919 0.000000 0.239526 -0.137800 0.000000 0.268180 -0.133887 0.000000 0.296270 -0.129095 0.000000 0.323475 -0.123221 0.000000 0.349715 -0.116194 0.000000 0.374638 -0.107765 0.000000 0.398047 -0.097852 0.000000 0.419550 -0.086191 0.000000 0.438806 -0.072667 0.000000 0.455350 -0.057035 0.000000 0.468676 -0.039146 0.000000 0.478200 -0.018812 0.000000 0.483235 0.004118 0.000000 0.483052 0.029704 0.000000 0.476827 0.058023 0.000000 0.463729 0.088878 0.000000 0.442997 0.122081 0.000000 0.413899 0.156937 0.000000 0.376106 0.192573 0.000000 0.329432 0.227392 0.000000 0.274527 0.259516 0.000000 0.212313 0.286750 0.000000 0.144623 0.307273 0.000000 0.073178 0.319925 0.000000 0.000048 0.324158 0.000000 -0.073155 0.319938 0.000000 -0.144533 0.307278 0.000000 -0.212292 0.286786 0.000000 -0.274455 0.259526 0.000000 -0.329417 0.227447 0.000000 -0.376064 0.192588 0.000000 -0.413897 0.156998 0.000000 -0.442992 0.122095 0.000000 -0.463736 0.088930 0.000000 -0.476850 0.058028 0.000000 -0.483060 0.029736 0.000000 -0.483271 0.004116 0.000000 -0.478203 -0.018801 0.000000 -0.468712 -0.039151 0.000000 -0.455348 -0.057037 0.000000 -0.438837 -0.072670 0.000000 -0.419545 -0.086198 0.000000 -0.398071 -0.097850 0.000000 -0.374635 -0.107772 0.000000 -0.349735 -0.116188 0.000000 -0.323477 -0.123225 0.000000 -0.296288 -0.129087 0.000000 -0.268187 -0.133889 0.000000 -0.239545 -0.137791 0.000000 -0.210313 -0.140919 0.000000 -0.180809 -0.143368 0.000000 -0.150944 -0.145284 0.000000 -0.120971 -0.146689 0.000000 -0.090797 -0.147748 0.000000 -0.060595 -0.148409 0.000000 -0.030304 -0.148843 0.000000 
-0.000010 -0.179413 0.000000 0.030553 -0.179323 0.000000 0.061135 -0.178861 0.000000 0.091661 -0.178165 0.000000 0.122223 -0.177029 0.000000 0.152649 -0.175510 0.000000 0.183064 -0.173418 0.000000 0.213218 -0.170709 0.000000 0.243220 -0.167227 0.000000 0.272768 -0.162831 0.000000 0.301904 -0.157398 0.000000 0.330307 -0.150700 0.000000 0.357898 -0.142631 0.000000 0.384354 -0.132901 0.000000 0.409434 -0.121388 0.000000 0.432788 -0.107764 0.000000 0.453983 -0.091862 0.000000 0.472573 -0.073339 0.000000 0.487909 -0.051979 0.000000 0.499373 -0.027465 0.000000 0.506084 0.000433 0.000000 0.507244 0.031886 0.000000 0.501826 0.067015 0.000000 0.488924 0.105599 0.000000 0.467633 0.147359 0.000000 0.437184 0.191350 0.000000 0.397236 0.236361 0.000000 0.347672 0.280259 0.000000 0.289327 0.320548 0.000000 0.223340 0.354419 0.000000 0.151850 0.379653 0.000000 0.076715 0.395038 0.000000 0.000050 0.400140 0.000000 -0.076700 0.395054 0.000000 -0.151754 0.379660 0.000000 -0.223323 0.354465 0.000000 -0.289250 0.320564 0.000000 -0.347658 0.280331 0.000000 -0.397197 0.236387 0.000000 -0.437187 0.191432 0.000000 -0.467641 0.147380 0.000000 -0.488938 0.105666 0.000000 -0.501864 0.067021 0.000000 -0.507257 0.031926 0.000000 -0.506134 0.000428 0.000000 -0.499378 -0.027452 0.000000 -0.487953 -0.051986 0.000000 -0.472571 -0.073343 0.000000 -0.454016 -0.091865 0.000000 -0.432781 -0.107773 0.000000 -0.409457 -0.121384 0.000000 -0.384349 -0.132909 0.000000 -0.357915 -0.142621 0.000000 -0.330306 -0.150704 0.000000 -0.301918 -0.157385 0.000000 -0.272773 -0.162832 0.000000 -0.243235 -0.167215 0.000000 -0.213228 -0.170708 0.000000 -0.183081 -0.173408 0.000000 -0.152663 -0.175509 0.000000 -0.122241 -0.177023 0.000000 -0.091679 -0.178164 0.000000 -0.061154 -0.178857 0.000000 -0.030572 -0.179323 0.000000 
-0.000011 -0.210062 0.000000 0.030838 -0.209987 0.000000 0.061734 -0.209520 0.000000 0.092612 -0.208836 0.000000 0.123607 -0.207681 0.000000 0.154542 -0.206126 0.000000 0.185593 -0.203944 0.000000 0.216493 -0.201074 0.000000 0.247404 -0.197350 0.000000 0.278005 -0.192571 0.000000 0.308386 -0.186634 0.000000 0.338204 -0.179215 0.000000 0.367426 -0.170241 0.000000 0.395694 -0.159301 0.000000 0.422805 -0.146286 0.000000 0.448343 -0.130740 0.000000 0.471881 -0.112453 0.000000 0.492859 -0.090961 0.000000 0.510558 -0.065946 0.000000 0.524200 -0.036988 0.000000 0.532739 -0.003753 0.000000 0.535193 0.033962 0.000000 0.530311 0.076343 0.000000 0.517052 0.123071 0.000000 0.494417 0.173821 0.000000 0.461651 0.227334 0.000000 0.418570 0.282085 0.000000 0.365257 0.335301 0.000000 0.302903 0.383848 0.000000 0.232939 0.424228 0.000000 0.157845 0.453899 0.000000 0.079542 0.471725 0.000000 0.000057 0.477573 0.000000 -0.079525 0.471742 0.000000 -0.157735 0.453901 0.000000 -0.232918 0.424281 0.000000 -0.302813 0.383861 0.000000 -0.365242 0.335394 0.000000 -0.418530 0.282117 0.000000 -0.461664 0.227442 0.000000 -0.494436 0.173846 0.000000 -0.517080 0.123153 0.000000 -0.530365 0.076347 0.000000 -0.535213 0.034005 0.000000 -0.532804 -0.003762 0.000000 -0.524206 -0.036982 0.000000 -0.510611 -0.065958 0.000000 -0.492853 -0.090974 0.000000 -0.471917 -0.112459 0.000000 -0.448331 -0.130757 0.000000 -0.422828 -0.146283 0.000000 -0.395685 -0.159314 0.000000 -0.367442 -0.170231 0.000000 -0.338203 -0.179222 0.000000 -0.308401 -0.186620 0.000000 -0.278012 -0.192572 0.000000 -0.247421 -0.197336 0.000000 -0.216507 -0.201073 0.000000 -0.185612 -0.203933 0.000000 -0.154560 -0.206124 0.000000 -0.123627 -0.207674 0.000000 -0.092633 -0.208834 0.000000 -0.061755 -0.209516 0.000000 -0.030860 -0.209987 0.000000 
-0.000010 -0.241111 0.000000 0.031097 -0.241068 0.000000 0.062287 -0.240635 0.000000 0.093501 -0.240038 0.000000 0.124935 -0.238959 0.000000 0.156388 -0.237496 0.000000 0.188117 -0.235368 0.000000 0.219812 -0.232520 0.000000 0.251718 -0.228739 0.000000 0.283468 -0.223812 0.000000 0.315217 -0.217596 0.000000 0.346598 -0.209740 0.000000 0.377588 -0.200121 0.000000 0.407846 -0.188281 0.000000 0.437085 -0.174037 0.000000 0.464916 -0.156840 0.000000 0.490713 -0.136378 0.000000 0.513876 -0.112015 0.000000 0.533394 -0.083319 0.000000 0.548354 -0.049647 0.000000 0.557402 -0.010561 0.000000 0.559501 0.034313 0.000000 0.553266 0.085156 0.000000 0.537807 0.141494 0.000000 0.512227 0.202760 0.000000 0.476041 0.267197 0.000000 0.429347 0.332755 0.000000 0.372527 0.395925 0.000000 0.307148 0.452866 0.000000 0.234866 0.499477 0.000000 0.158405 0.533050 0.000000 0.079545 0.552826 0.000000 0.000059 0.559207 0.000000 -0.079545 0.552846 0.000000 -0.158288 0.533053 0.000000 -0.234853 0.499543 0.000000 -0.307049 0.452889 0.000000 -0.372514 0.396048 0.000000 -0.429313 0.332808 0.000000 -0.476068 0.267339 0.000000 -0.512276 0.202795 0.000000 -0.537852 0.141595 0.000000 -0.553352 0.085154 0.000000 -0.559531 0.034364 0.000000 -0.557490 -0.010578 0.000000 -0.548363 -0.049645 0.000000 -0.533458 -0.083339 0.000000 -0.513867 -0.112037 0.000000 -0.490750 -0.136386 0.000000 -0.464900 -0.156863 0.000000 -0.437104 -0.174030 0.000000 -0.407833 -0.188295 0.000000 -0.377599 -0.200103 0.000000 -0.346593 -0.209745 0.000000 -0.315226 -0.217576 0.000000 -0.283473 -0.223811 0.000000 -0.251731 -0.228721 0.000000 -0.219825 -0.232517 0.000000 -0.188133 -0.235355 0.000000 -0.156406 -0.237494 0.000000 -0.124953 -0.238950 0.000000 -0.093522 -0.240037 0.000000 -0.062307 -0.240631 0.000000 -0.031119 -0.241067 0.000000 
-0.000011 -0.272278 0.000000 0.031314 -0.272285 0.000000 0.062764 -0.271924 0.000000 0.094290 -0.271484 0.000000 0.126151 -0.270568 0.000000 0.158134 -0.269309 0.000000 0.190569 -0.267368 0.000000 0.223117 -0.264675 0.000000 0.256096 -0.261006 0.000000 0.289102 -0.256069 0.000000 0.322347 -0.249763 0.000000 0.355426 -0.241587 0.000000 0.388350 -0.231490 0.000000 0.420702 -0.218798 0.000000 0.452191 -0.203356 0.000000 0.482257 -0.184368 0.000000 0.510194 -0.161412 0.000000 0.535113 -0.133642 0.000000 0.555821 -0.100424 0.000000 0.571138 -0.060996 0.000000 0.579534 -0.014901 0.000000 0.579904 0.038098 0.000000 0.570726 0.098037 0.000000 0.551319 0.164110 0.000000 0.521041 0.235586 0.000000 0.479880 0.310214 0.000000 0.428566 0.385600 0.000000 0.368034 0.457501 0.000000 0.300431 0.521508 0.000000 0.227621 0.572970 0.000000 0.152412 0.609220 0.000000 0.076146 0.630071 0.000000 0.000065 0.636663 0.000000 -0.076149 0.630090 0.000000 -0.152279 0.609210 0.000000 -0.227606 0.573041 0.000000 -0.300317 0.521522 0.000000 -0.368026 0.457658 0.000000 -0.428543 0.385671 0.000000 -0.479939 0.310405 0.000000 -0.521122 0.235630 0.000000 -0.551397 0.164229 0.000000 -0.570841 0.098026 0.000000 -0.579946 0.038143 0.000000 -0.579650 -0.014930 0.000000 -0.571147 -0.061013 0.000000 -0.555898 -0.100454 0.000000 -0.535095 -0.133682 0.000000 -0.510231 -0.161426 0.000000 -0.482230 -0.184403 0.000000 -0.452204 -0.203349 0.000000 -0.420683 -0.218819 0.000000 -0.388357 -0.231471 0.000000 -0.355422 -0.241594 0.000000 -0.322356 -0.249740 0.000000 -0.289112 -0.256068 0.000000 -0.256111 -0.260984 0.000000 -0.223136 -0.264670 0.000000 -0.190588 -0.267351 0.000000 -0.158157 -0.269304 0.000000 -0.126172 -0.270558 0.000000 -0.094315 -0.271480 0.000000 -0.062786 -0.271919 0.000000 -0.031340 -0.272284 0.000000 
-0.000011 -0.303765 0.000000 0.031451 -0.303843 0.000000 0.063089 -0.303611 0.000000 0.094859 -0.303425 0.000000 0.127111 -0.302803 0.000000 0.159589 -0.301915 0.000000 0.192747 -0.300352 0.000000 0.226158 -0.298046 0.000000 0.260278 -0.294723 0.000000 0.294594 -0.290063 0.000000 0.329430 -0.283921 0.000000 0.364285 -0.275743 0.000000 0.399173 -0.265397 0.000000 0.433625 -0.252122 0.000000 0.467131 -0.235592 0.000000 0.499079 -0.214843 0.000000 0.528274 -0.189234 0.000000 0.553631 -0.157641 0.000000 0.573411 -0.119344 0.000000 0.586118 -0.073360 0.000000 0.589904 -0.019327 0.000000 0.583940 0.043122 0.000000 0.567098 0.113741 0.000000 0.539702 0.191179 0.000000 0.501969 0.274199 0.000000 0.454806 0.359672 0.000000 0.399664 0.444601 0.000000 0.337894 0.524060 0.000000 0.271968 0.593280 0.000000 0.203519 0.647497 0.000000 0.135055 0.684526 0.000000 0.067039 0.705173 0.000000 0.000062 0.711501 0.000000 -0.067080 0.705190 0.000000 -0.134922 0.684510 0.000000 -0.203529 0.647581 0.000000 -0.271840 0.593308 0.000000 -0.337888 0.524274 0.000000 -0.399650 0.444721 0.000000 -0.454897 0.359918 0.000000 -0.502111 0.274253 0.000000 -0.539818 0.191315 0.000000 -0.567270 0.113704 0.000000 -0.583994 0.043172 0.000000 -0.590057 -0.019378 0.000000 -0.586129 -0.073396 0.000000 -0.573496 -0.119391 0.000000 -0.553605 -0.157703 0.000000 -0.528306 -0.189251 0.000000 -0.499042 -0.214890 0.000000 -0.467136 -0.235577 0.000000 -0.433599 -0.252143 0.000000 -0.399169 -0.265364 0.000000 -0.364276 -0.275745 0.000000 -0.329430 -0.283886 0.000000 -0.294602 -0.290057 0.000000 -0.260286 -0.294696 0.000000 -0.226176 -0.298039 0.000000 -0.192762 -0.300334 0.000000 -0.159613 -0.301910 0.000000 -0.127131 -0.302792 0.000000 -0.094886 -0.303422 0.000000 -0.063111 -0.303606 0.000000 -0.031478 -0.303842 0.000000 
-0.000012 -0.335207 0.000000 0.031469 -0.335385 0.000000 0.063183 -0.335333 0.000000 0.095100 -0.335505 0.000000 0.127660 -0.335299 0.000000 0.160582 -0.334945 0.000000 0.194424 -0.333937 0.000000 0.228703 -0.332206 0.000000 0.263966 -0.329442 0.000000 0.299634 -0.325221 0.000000 0.336063 -0.319453 0.000000 0.372672 -0.311330 0.000000 0.409410 -0.300830 0.000000 0.445622 -0.286756 0.000000 0.480602 -0.268810 0.000000 0.513281 -0.245510 0.000000 0.542143 -0.215964 0.000000 0.565423 -0.178779 0.000000 0.581108 -0.132912 0.000000 0.587541 -0.077489 0.000000 0.583227 -0.012722 0.000000 0.567990 0.060905 0.000000 0.540962 0.142275 0.000000 0.503529 0.229239 0.000000 0.456787 0.320483 0.000000 0.402746 0.412519 0.000000 0.344081 0.502512 0.000000 0.282863 0.585197 0.000000 0.221960 0.655883 0.000000 0.162499 0.709882 0.000000 0.106214 0.745699 0.000000 0.052161 0.765065 0.000000 0.000067 0.770782 0.000000 -0.052216 0.765073 0.000000 -0.106067 0.745658 0.000000 -0.162517 0.709959 0.000000 -0.221810 0.655881 0.000000 -0.282859 0.585469 0.000000 -0.344096 0.502680 0.000000 -0.402906 0.412866 0.000000 -0.456990 0.320552 0.000000 -0.503705 0.229388 0.000000 -0.541170 0.142202 0.000000 -0.568051 0.060931 0.000000 -0.583429 -0.012795 0.000000 -0.587545 -0.077574 0.000000 -0.581211 -0.132979 0.000000 -0.565375 -0.178873 0.000000 -0.542164 -0.215989 0.000000 -0.513221 -0.245574 0.000000 -0.480590 -0.268793 0.000000 -0.445585 -0.286785 0.000000 -0.409398 -0.300793 0.000000 -0.372667 -0.311333 0.000000 -0.336064 -0.319414 0.000000 -0.299651 -0.325212 0.000000 -0.263980 -0.329410 0.000000 -0.228731 -0.332194 0.000000 -0.194445 -0.333914 0.000000 -0.160613 -0.334936 0.000000 -0.127684 -0.335285 0.000000 -0.095131 -0.335500 0.000000 -0.063207 -0.335326 0.000000 -0.031499 -0.335383 0.000000 
-0.000013 -0.366732 0.000000 0.031326 -0.367038 0.000000 0.062970 -0.367241 0.000000 0.094894 -0.367902 0.000000 0.127668 -0.368284 0.000000 0.160939 -0.368679 0.000000 0.195448 -0.368474 0.000000 0.230551 -0.367589 0.000000 0.267008 -0.365655 0.000000 0.303996 -0.362160 0.000000 0.342041 -0.356959 0.000000 0.380265 -0.349090 0.000000 0.418566 -0.338346 0.000000 0.455990 -0.323314 0.000000 0.491263 -0.303251 0.000000 0.523065 -0.276384 0.000000 0.548772 -0.241376 0.000000 0.566389 -0.196607 0.000000 0.573352 -0.141462 0.000000 0.567640 -0.075478 0.000000 0.547911 0.000224 0.000000 0.515315 0.085386 0.000000 0.470730 0.178202 0.000000 0.418404 0.275354 0.000000 0.361405 0.374982 0.000000 0.303094 0.472378 0.000000 0.246553 0.564484 0.000000 0.193296 0.646181 0.000000 0.145506 0.713644 0.000000 0.102825 0.763243 0.000000 0.065784 0.794863 0.000000 0.031757 0.811320 0.000000 0.000063 0.815879 0.000000 -0.031871 0.811323 0.000000 -0.065657 0.794811 0.000000 -0.102925 0.763325 0.000000 -0.145338 0.713651 0.000000 -0.193259 0.646560 0.000000 -0.246538 0.564768 0.000000 -0.303292 0.472811 0.000000 -0.361721 0.375053 0.000000 -0.418639 0.275495 0.000000 -0.471014 0.178050 0.000000 -0.515361 0.085432 0.000000 -0.548165 0.000116 0.000000 -0.567639 -0.075615 0.000000 -0.573447 -0.141561 0.000000 -0.566325 -0.196750 0.000000 -0.548775 -0.241405 0.000000 -0.522986 -0.276465 0.000000 -0.491232 -0.303212 0.000000 -0.455943 -0.323335 0.000000 -0.418537 -0.338283 0.000000 -0.380254 -0.349079 0.000000 -0.342029 -0.356902 0.000000 -0.304010 -0.362141 0.000000 -0.267014 -0.365616 0.000000 -0.230579 -0.367574 0.000000 -0.195466 -0.368452 0.000000 -0.160972 -0.368671 0.000000 -0.127692 -0.368275 0.000000 -0.094928 -0.367899 0.000000 -0.062996 -0.367238 0.000000 -0.031360 -0.367038 0.000000 
-0.000012 -0.397892 0.000000 0.030961 -0.398368 0.000000 0.062320 -0.398901 0.000000 0.094056 -0.400204 0.000000 0.126874 -0.401344 0.000000 0.160363 -0.402726 0.000000 0.195427 -0.403549 0.000000 0.231299 -0.403766 0.000000 0.268857 -0.402887 0.000000 0.307120 -0.400253 0.000000 0.346548 -0.395722 0.000000 0.386053 -0.387855 0.000000 0.425132 -0.376555 0.000000 0.462353 -0.359454 0.000000 0.495696 -0.335885 0.000000 0.522826 -0.303019 0.000000 0.540530 -0.259288 0.000000 0.545726 -0.203359 0.000000 0.536170 -0.134163 0.000000 0.511001 -0.052049 0.000000 0.471834 0.039603 0.000000 0.422349 0.138086 0.000000 0.363332 0.239186 0.000000 0.300554 0.338564 0.000000 0.237611 0.435793 0.000000 0.178387 0.527371 0.000000 0.127107 0.612309 0.000000 0.085185 0.686244 0.000000 0.054171 0.746354 0.000000 0.032147 0.789604 0.000000 0.018222 0.816768 0.000000 0.007820 0.830786 0.000000 0.000067 0.834409 0.000000 -0.007967 0.830793 0.000000 -0.018125 0.816713 0.000000 -0.032322 0.789640 0.000000 -0.053956 0.746215 0.000000 -0.085080 0.686668 0.000000 -0.127119 0.612712 0.000000 -0.178709 0.528050 0.000000 -0.238013 0.435899 0.000000 -0.300874 0.338681 0.000000 -0.363581 0.238924 0.000000 -0.422324 0.138081 0.000000 -0.472179 0.039484 0.000000 -0.510969 -0.052291 0.000000 -0.536273 -0.134293 0.000000 -0.545620 -0.203545 0.000000 -0.540498 -0.259327 0.000000 -0.522700 -0.303116 0.000000 -0.495624 -0.335836 0.000000 -0.462292 -0.359481 0.000000 -0.425087 -0.376483 0.000000 -0.386054 -0.387841 0.000000 -0.346542 -0.395658 0.000000 -0.307155 -0.400227 0.000000 -0.268876 -0.402841 0.000000 -0.231345 -0.403743 0.000000 -0.195455 -0.403521 0.000000 -0.160406 -0.402710 0.000000 -0.126902 -0.401329 0.000000 -0.094093 -0.400195 0.000000 -0.062347 -0.398895 0.000000 -0.030994 -0.398366 0.000000 
-0.000016 -0.428687 0.000000 0.030317 -0.429371 0.000000 0.061133 -0.430337 0.000000 0.092445 -0.432455 0.000000 0.125123 -0.434591 0.000000 0.158668 -0.437231 0.000000 0.194223 -0.439410 0.000000 0.230756 -0.441019 0.000000 0.269441 -0.441476 0.000000 0.308767 -0.439852 0.000000 0.349407 -0.435892 0.000000 0.389392 -0.427674 0.000000 0.427958 -0.414646 0.000000 0.462547 -0.393877 0.000000 0.489853 -0.363725 0.000000 0.507190 -0.321218 0.000000 0.509431 -0.264276 0.000000 0.495197 -0.192247 0.000000 0.463899 -0.106737 0.000000 0.414568 -0.011142 0.000000 0.349719 0.088876 0.000000 0.275514 0.193887 0.000000 0.196053 0.299997 0.000000 0.122649 0.401075 0.000000 0.060763 0.497148 0.000000 0.013333 0.582882 0.000000 -0.018354 0.657687 0.000000 -0.036883 0.719117 0.000000 -0.042840 0.766682 0.000000 -0.039667 0.799191 0.000000 -0.028576 0.819190 0.000000 -0.015420 0.829476 0.000000 0.000058 0.831666 0.000000 0.015183 0.829515 0.000000 0.028556 0.819166 0.000000 0.039211 0.799156 0.000000 0.043116 0.766408 0.000000 0.037255 0.719723 0.000000 0.018575 0.658397 0.000000 -0.013735 0.583705 0.000000 -0.061476 0.497218 0.000000 -0.123095 0.401062 0.000000 -0.196333 0.299499 0.000000 -0.275298 0.194031 0.000000 -0.350097 0.088760 0.000000 -0.414504 -0.011521 0.000000 -0.463920 -0.106911 0.000000 -0.495069 -0.192525 0.000000 -0.509371 -0.264325 0.000000 -0.507035 -0.321338 0.000000 -0.489756 -0.363620 0.000000 -0.462478 -0.393873 0.000000 -0.427887 -0.414521 0.000000 -0.389389 -0.427623 0.000000 -0.349382 -0.435800 0.000000 -0.308799 -0.439808 0.000000 -0.269450 -0.441426 0.000000 -0.230801 -0.440996 0.000000 -0.194248 -0.439391 0.000000 -0.158713 -0.437224 0.000000 -0.125154 -0.434587 0.000000 -0.092488 -0.432455 0.000000 -0.061165 -0.430337 0.000000 -0.030358 -0.429372 0.000000 
-0.000012 -0.458567 0.000000 0.029310 -0.459517 0.000000 0.059232 -0.461030 0.000000 0.089787 -0.464194 0.000000 0.122048 -0.467566 0.000000 0.155405 -0.471825 0.000000 0.191269 -0.475638 0.000000 0.228332 -0.478985 0.000000 0.267927 -0.480898 0.000000 0.308101 -0.480220 0.000000 0.349123 -0.476347 0.000000 0.388287 -0.466406 0.000000 0.423322 -0.449711 0.000000 0.450461 -0.421348 0.000000 0.464503 -0.380528 0.000000 0.461756 -0.322598 0.000000 0.437940 -0.247294 0.000000 0.391276 -0.157828 0.000000 0.323585 -0.053534 0.000000 0.239286 0.062132 0.000000 0.152278 0.178657 0.000000 0.073207 0.291752 0.000000 -0.002036 0.392051 0.000000 -0.064601 0.473854 0.000000 -0.112660 0.545108 0.000000 -0.146440 0.606488 0.000000 -0.162292 0.662526 0.000000 -0.162117 0.710730 0.000000 -0.146773 0.749138 0.000000 -0.119612 0.775339 0.000000 -0.082145 0.792520 0.000000 -0.042658 0.802153 0.000000 0.000130 0.803807 0.000000 0.042507 0.802295 0.000000 0.082092 0.792685 0.000000 0.118990 0.775081 0.000000 0.147323 0.748171 0.000000 0.162861 0.711209 0.000000 0.162299 0.663702 0.000000 0.145513 0.608102 0.000000 0.111631 0.545259 0.000000 0.063942 0.473537 0.000000 0.002168 0.391126 0.000000 -0.072562 0.291844 0.000000 -0.152907 0.178690 0.000000 -0.239138 0.061532 0.000000 -0.323536 -0.053728 0.000000 -0.391096 -0.158094 0.000000 -0.437810 -0.247361 0.000000 -0.461508 -0.322730 0.000000 -0.464320 -0.380393 0.000000 -0.450383 -0.421350 0.000000 -0.423230 -0.449572 0.000000 -0.388319 -0.466346 0.000000 -0.349123 -0.476248 0.000000 -0.308178 -0.480160 0.000000 -0.267967 -0.480840 0.000000 -0.228407 -0.478945 0.000000 -0.191313 -0.475609 0.000000 -0.155464 -0.471804 0.000000 -0.122083 -0.467554 0.000000 -0.089829 -0.464184 0.000000 -0.059259 -0.461025 0.000000 -0.029343 -0.459515 0.000000 