# vtk DataFile Version 2.0
Comment goes here
ASCII

DATASET STRUCTURED_POINTS
FIELD FieldData 1
TIME 1 1 double
0.48000000
DIMENSIONS    64   64   1

ORIGIN    0.000   0.000   0.000
SPACING   0.015625 0.015625   1.000

POINT_DATA   4096
VECTORS u double

0.000418 -0.000000 0.000000 -0.010744 -0.000000 0.000000 -0.022000 -0.000000 0.000000 -0.033200 -0.000000 0.000000 -0.044527 0.000000 0.000000 -0.055793 0.000000 0.000000 -0.067175 0.000000 0.000000 -0.078468 0.000000 0.000000 -0.089796 0.000000 0.000000 -0.100981 0.000000 0.000000 -0.112036 0.000000 0.000000 -0.122862 0.000000 0.000000 -0.133312 0.000000 0.000000 -0.143421 0.000000 0.000000 -0.152839 0.000000 0.000000 -0.161793 0.000000 0.000000 -0.169701 0.000000 0.000000 -0.177008 0.000000 0.000000 -0.182897 0.000000 0.000000 -0.188000 0.000000 0.000000 -0.191258 0.000000 0.000000 -0.193394 0.000000 0.000000 -0.193096 0.000000 0.000000 -0.191021 0.000000 0.000000 -0.185625 0.000000 0.000000 -0.177395 0.000000 0.000000 -0.164736 0.000000 0.000000 -0.148096 0.000000 0.000000 -0.126289 0.000000 0.000000 -0.100157 0.000000 0.000000 -0.069520 0.000000 0.000000 -0.035970 0.000000 0.000000 -0.000509 0.000000 0.000000 0.034838 0.000000 0.000000 0.068543 0.000000 0.000000 0.099113 0.000000 0.000000 0.125423 0.000000 0.000000 0.147198 0.000000 0.000000 0.164011 0.000000 0.000000 0.176669 0.000000 0.000000 0.185050 0.000000 0.000000 0.190473 0.000000 0.000000 0.192672 0.000000 0.000000 0.193028 0.000000 0.000000 0.190991 0.000000 0.000000 0.187819 0.000000 0.000000 0.182796 0.000000 0.000000 0.177014 -0.000000 0.000000 0.169768 -0.000000 0.000000 0.161979 -0.000000 0.000000 0.153070 -0.000000 0.000000 0.143776 -0.000000 0.000000 0.133694 -0.000000 0.000000 0.123369 -0.000000 0.000000 0.112553 -0.000000 0.000000 0.101617 -0.000000 0.000000 0.090426 -0.000000 0.000000 0.079209 -0.000000 0.000000 0.067894 -0.000000 0.000000 0.056613 -0.000000 0.000000 0.045311 -0.000000 0.000000 0.034073 -0.000000 0.000000 0.022823 -0.000000 0.000000 0.011643 -0.000000 0.000000 
0.000452 0.011194 0.000000 -0.010708 0.011209 0.000000 -0.021967 0.011228 0.000000 -0.033171 0.011263 0.000000 -0.044516 0.011297 0.000000 -0.055801 0.011324 0.000000 -0.067225 0.011337 0.000000 -0.078560 0.011311 0.000000 -0.089958 0.011256 0.000000 -0.101209 0.011120 0.000000 -0.112360 0.010941 0.000000 -0.123270 0.010638 0.000000 -0.133827 0.010279 0.000000 -0.144022 0.009764 0.000000 -0.153535 0.009186 0.000000 -0.162551 0.008431 0.000000 -0.170512 0.007608 0.000000 -0.177832 0.006598 0.000000 -0.183708 0.005496 0.000000 -0.188760 0.004181 0.000000 -0.191939 0.002697 0.000000 -0.193971 0.000919 0.000000 -0.193556 -0.001186 0.000000 -0.191364 -0.003735 0.000000 -0.185863 -0.006813 0.000000 -0.177556 -0.010445 0.000000 -0.164844 -0.014650 0.000000 -0.148184 -0.019223 0.000000 -0.126367 -0.023969 0.000000 -0.100235 -0.028385 0.000000 -0.069584 -0.032094 0.000000 -0.036015 -0.034505 0.000000 -0.000523 -0.035404 0.000000 0.034854 -0.034526 0.000000 0.068582 -0.032137 0.000000 0.099164 -0.028440 0.000000 0.125477 -0.024043 0.000000 0.147262 -0.019294 0.000000 0.164095 -0.014735 0.000000 0.176802 -0.010519 0.000000 0.185257 -0.006902 0.000000 0.190784 -0.003811 0.000000 0.193095 -0.001277 0.000000 0.193570 0.000840 0.000000 0.191635 0.002605 0.000000 0.188545 0.004098 0.000000 0.183573 0.005403 0.000000 0.177808 0.006514 0.000000 0.170555 0.007517 0.000000 0.162719 0.008349 0.000000 0.153754 0.009101 0.000000 0.144374 0.009688 0.000000 0.134214 0.010204 0.000000 0.123790 0.010570 0.000000 0.112898 0.010876 0.000000 0.101875 0.011063 0.000000 0.090626 0.011204 0.000000 0.079345 0.011266 0.000000 0.067994 0.011298 0.000000 0.056677 0.011292 0.000000 0.045360 0.011270 0.000000 0.034106 0.011244 0.000000 0.022855 0.011215 0.000000 0.011674 0.011203 0.000000 
0.000425 0.022382 0.000000 -0.010767 0.022418 0.000000 -0.022066 0.022463 0.000000 -0.033327 0.022549 0.000000 -0.044755 0.022631 0.000000 -0.056157 0.022709 0.000000 -0.067738 0.022759 0.000000 -0.079279 0.022734 0.000000 -0.090933 0.022649 0.000000 -0.102497 0.022402 0.000000 -0.114010 0.022061 0.000000 -0.125336 0.021467 0.000000 -0.136342 0.020752 0.000000 -0.147022 0.019708 0.000000 -0.157019 0.018529 0.000000 -0.166523 0.016977 0.000000 -0.174929 0.015281 0.000000 -0.182660 0.013196 0.000000 -0.188864 0.010928 0.000000 -0.194182 0.008231 0.000000 -0.197516 0.005211 0.000000 -0.199627 0.001617 0.000000 -0.199168 -0.002608 0.000000 -0.196856 -0.007693 0.000000 -0.191113 -0.013808 0.000000 -0.182482 -0.021019 0.000000 -0.169332 -0.029372 0.000000 -0.152146 -0.038477 0.000000 -0.129696 -0.047949 0.000000 -0.102843 -0.056783 0.000000 -0.071381 -0.064220 0.000000 -0.036936 -0.069062 0.000000 -0.000528 -0.070869 0.000000 0.035765 -0.069105 0.000000 0.070374 -0.064310 0.000000 0.101771 -0.056895 0.000000 0.128815 -0.048098 0.000000 0.151237 -0.038618 0.000000 0.168605 -0.029541 0.000000 0.181754 -0.021162 0.000000 0.190538 -0.013981 0.000000 0.196308 -0.007838 0.000000 0.198744 -0.002786 0.000000 0.199263 0.001460 0.000000 0.197250 0.005025 0.000000 0.194006 0.008062 0.000000 0.188767 0.010736 0.000000 0.182673 0.013019 0.000000 0.175003 0.015090 0.000000 0.166719 0.016800 0.000000 0.157260 0.018345 0.000000 0.147390 0.019540 0.000000 0.136737 0.020584 0.000000 0.125858 0.021316 0.000000 0.114542 0.021915 0.000000 0.103149 0.022273 0.000000 0.091578 0.022530 0.000000 0.080035 0.022631 0.000000 0.068472 0.022668 0.000000 0.056992 0.022635 0.000000 0.045553 0.022570 0.000000 0.034213 0.022504 0.000000 0.022902 0.022432 0.000000 0.011679 0.022403 0.000000 
0.000467 0.033640 0.000000 -0.010751 0.033700 0.000000 -0.022097 0.033788 0.000000 -0.033425 0.033952 0.000000 -0.044977 0.034127 0.000000 -0.056543 0.034306 0.000000 -0.068377 0.034459 0.000000 -0.080222 0.034506 0.000000 -0.092291 0.034475 0.000000 -0.104321 0.034197 0.000000 -0.116410 0.033780 0.000000 -0.128341 0.032969 0.000000 -0.140028 0.031965 0.000000 -0.151375 0.030441 0.000000 -0.162050 0.028687 0.000000 -0.172157 0.026341 0.000000 -0.181091 0.023746 0.000000 -0.189221 0.020533 0.000000 -0.195672 0.017018 0.000000 -0.201081 0.012832 0.000000 -0.204317 0.008142 0.000000 -0.206191 0.002572 0.000000 -0.205329 -0.003958 0.000000 -0.202530 -0.011791 0.000000 -0.196210 -0.021187 0.000000 -0.186999 -0.032226 0.000000 -0.173243 -0.044987 0.000000 -0.155480 -0.058859 0.000000 -0.132428 -0.073272 0.000000 -0.104968 -0.086700 0.000000 -0.072840 -0.098001 0.000000 -0.037702 -0.105358 0.000000 -0.000561 -0.108104 0.000000 0.036461 -0.105428 0.000000 0.071777 -0.098144 0.000000 0.103844 -0.086881 0.000000 0.131513 -0.073508 0.000000 0.154541 -0.059084 0.000000 0.172495 -0.045252 0.000000 0.186245 -0.032452 0.000000 0.195606 -0.021457 0.000000 0.201950 -0.012017 0.000000 0.204864 -0.004232 0.000000 0.205789 0.002334 0.000000 0.204008 0.007862 0.000000 0.200868 0.012581 0.000000 0.195538 0.016735 0.000000 0.189206 0.020277 0.000000 0.181142 0.023471 0.000000 0.172342 0.026092 0.000000 0.162288 0.028430 0.000000 0.151752 0.030210 0.000000 0.140442 0.031736 0.000000 0.128892 0.032766 0.000000 0.116979 0.033586 0.000000 0.105021 0.034026 0.000000 0.092992 0.034318 0.000000 0.081041 0.034372 0.000000 0.069179 0.034341 0.000000 0.057452 0.034210 0.000000 0.045853 0.034048 0.000000 0.034393 0.033895 0.000000 0.023017 0.033749 0.000000 0.011749 0.033681 0.000000 
0.000445 0.044881 0.000000 -0.010829 0.044982 0.000000 -0.022256 0.045137 0.000000 -0.033703 0.045430 0.000000 -0.045447 0.045749 0.000000 -0.057278 0.046108 0.000000 -0.069491 0.046438 0.000000 -0.081819 0.046649 0.000000 -0.094508 0.046748 0.000000 -0.107271 0.046520 0.000000 -0.120222 0.046081 0.000000 -0.133110 0.045086 0.000000 -0.145831 0.043786 0.000000 -0.158248 0.041730 0.000000 -0.169981 0.039310 0.000000 -0.181097 0.036018 0.000000 -0.190919 0.032346 0.000000 -0.199806 0.027777 0.000000 -0.206798 0.022788 0.000000 -0.212565 0.016876 0.000000 -0.215888 0.010321 0.000000 -0.217655 0.002628 0.000000 -0.216406 -0.006268 0.000000 -0.213052 -0.016811 0.000000 -0.205925 -0.029339 0.000000 -0.195767 -0.043986 0.000000 -0.180880 -0.060891 0.000000 -0.161911 -0.079292 0.000000 -0.137576 -0.098461 0.000000 -0.108831 -0.116370 0.000000 -0.075410 -0.131485 0.000000 -0.039001 -0.141341 0.000000 -0.000589 -0.145032 0.000000 0.037704 -0.141444 0.000000 0.074307 -0.131693 0.000000 0.107678 -0.116631 0.000000 0.136656 -0.098794 0.000000 0.160977 -0.079600 0.000000 0.180157 -0.061245 0.000000 0.195038 -0.044272 0.000000 0.205355 -0.029686 0.000000 0.212510 -0.017096 0.000000 0.215982 -0.006625 0.000000 0.217299 0.002316 0.000000 0.215623 0.009945 0.000000 0.212400 0.016532 0.000000 0.206709 0.022398 0.000000 0.199839 0.027414 0.000000 0.191013 0.031954 0.000000 0.181325 0.035655 0.000000 0.170254 0.038935 0.000000 0.158659 0.041386 0.000000 0.146269 0.043444 0.000000 0.133680 0.044778 0.000000 0.120800 0.045787 0.000000 0.107973 0.046260 0.000000 0.095201 0.046509 0.000000 0.082624 0.046444 0.000000 0.070272 0.046258 0.000000 0.058159 0.045961 0.000000 0.046289 0.045629 0.000000 0.034633 0.045341 0.000000 0.023135 0.045077 0.000000 0.011784 0.044953 0.000000 
0.000499 0.056253 0.000000 -0.010825 0.056401 0.000000 -0.022340 0.056662 0.000000 -0.033920 0.057143 0.000000 -0.045908 0.057702 0.000000 -0.058071 0.058351 0.000000 -0.070786 0.059000 0.000000 -0.083731 0.059523 0.000000 -0.097244 0.059927 0.000000 -0.110940 0.059911 0.000000 -0.125022 0.059619 0.000000 -0.139098 0.058579 0.000000 -0.153131 0.057103 0.000000 -0.166821 0.054590 0.000000 -0.179816 0.051535 0.000000 -0.192037 0.047279 0.000000 -0.202793 0.042455 0.000000 -0.212358 0.036412 0.000000 -0.219713 0.029776 0.000000 -0.225538 0.021921 0.000000 -0.228521 0.013233 0.000000 -0.229652 0.003090 0.000000 -0.227391 -0.008561 0.000000 -0.222815 -0.022272 0.000000 -0.214253 -0.038472 0.000000 -0.202656 -0.057271 0.000000 -0.186336 -0.078843 0.000000 -0.166103 -0.102163 0.000000 -0.140633 -0.126352 0.000000 -0.110967 -0.148866 0.000000 -0.076744 -0.167831 0.000000 -0.039678 -0.180179 0.000000 -0.000647 -0.184809 0.000000 0.038261 -0.180324 0.000000 0.075551 -0.168118 0.000000 0.109738 -0.149231 0.000000 0.139684 -0.126808 0.000000 0.165150 -0.102585 0.000000 0.185614 -0.079313 0.000000 0.201914 -0.057650 0.000000 0.213661 -0.038929 0.000000 0.222242 -0.022644 0.000000 0.226921 -0.009021 0.000000 0.229255 0.002693 0.000000 0.228203 0.012761 0.000000 0.225331 0.021495 0.000000 0.219579 0.029297 0.000000 0.212360 0.035974 0.000000 0.202861 0.041985 0.000000 0.192256 0.046851 0.000000 0.180091 0.051096 0.000000 0.167250 0.054196 0.000000 0.153600 0.056715 0.000000 0.139714 0.058235 0.000000 0.125657 0.059292 0.000000 0.111712 0.059626 0.000000 0.098015 0.059666 0.000000 0.084624 0.059302 0.000000 0.071659 0.058807 0.000000 0.059050 0.058193 0.000000 0.046851 0.057574 0.000000 0.034956 0.057049 0.000000 0.023324 0.056598 0.000000 0.011888 0.056370 0.000000 
0.000480 0.067594 0.000000 -0.010912 0.067821 0.000000 -0.022539 0.068232 0.000000 -0.034297 0.068998 0.000000 -0.046595 0.069899 0.000000 -0.059191 0.070987 0.000000 -0.072545 0.072099 0.000000 -0.086293 0.073106 0.000000 -0.100849 0.073958 0.000000 -0.115758 0.074297 0.000000 -0.131264 0.074239 0.000000 -0.146883 0.073195 0.000000 -0.162569 0.071509 0.000000 -0.177923 0.068414 0.000000 -0.192535 0.064526 0.000000 -0.206252 0.058995 0.000000 -0.218292 0.052667 0.000000 -0.228909 0.044697 0.000000 -0.236970 0.035968 0.000000 -0.243203 0.025684 0.000000 -0.246161 0.014435 0.000000 -0.246949 0.001499 0.000000 -0.243861 -0.013106 0.000000 -0.238172 -0.029949 0.000000 -0.228026 -0.049497 0.000000 -0.214568 -0.071903 0.000000 -0.196074 -0.097445 0.000000 -0.173625 -0.124995 0.000000 -0.146033 -0.153596 0.000000 -0.114550 -0.180259 0.000000 -0.078855 -0.202774 0.000000 -0.040667 -0.217438 0.000000 -0.000701 -0.222971 0.000000 0.039144 -0.217642 0.000000 0.077582 -0.203171 0.000000 0.113266 -0.180764 0.000000 0.145080 -0.154205 0.000000 0.172690 -0.125529 0.000000 0.195402 -0.098009 0.000000 0.213863 -0.072319 0.000000 0.227483 -0.050014 0.000000 0.237653 -0.030356 0.000000 0.243447 -0.013637 0.000000 0.246616 0.001034 0.000000 0.245904 0.013869 0.000000 0.243063 0.025157 0.000000 0.236896 0.035369 0.000000 0.228974 0.044131 0.000000 0.218417 0.052058 0.000000 0.206531 0.058425 0.000000 0.192862 0.063941 0.000000 0.178404 0.067878 0.000000 0.163079 0.070980 0.000000 0.147538 0.072721 0.000000 0.131925 0.073789 0.000000 0.116549 0.073903 0.000000 0.101626 0.073598 0.000000 0.087185 0.072799 0.000000 0.073406 0.071831 0.000000 0.060153 0.070769 0.000000 0.047512 0.069723 0.000000 0.035302 0.068868 0.000000 0.023489 0.068145 0.000000 0.011938 0.067778 0.000000 
0.000548 0.079103 0.000000 -0.010894 0.079421 0.000000 -0.022631 0.080047 0.000000 -0.034580 0.081199 0.000000 -0.047240 0.082595 0.000000 -0.060350 0.084301 0.000000 -0.074484 0.086102 0.000000 -0.089200 0.087827 0.000000 -0.105039 0.089391 0.000000 -0.121397 0.090326 0.000000 -0.138639 0.090744 0.000000 -0.156065 0.089884 0.000000 -0.173729 0.088143 0.000000 -0.190978 0.084556 0.000000 -0.207471 0.079864 0.000000 -0.222838 0.073036 0.000000 -0.236306 0.065111 0.000000 -0.248018 0.055091 0.000000 -0.256744 0.044071 0.000000 -0.263238 0.031112 0.000000 -0.265826 0.016979 0.000000 -0.265763 0.000791 0.000000 -0.261098 -0.017338 0.000000 -0.253332 -0.038107 0.000000 -0.240654 -0.062076 0.000000 -0.224596 -0.089223 0.000000 -0.203535 -0.119785 0.000000 -0.178872 -0.152205 0.000000 -0.149426 -0.185427 0.000000 -0.116603 -0.216044 0.000000 -0.079935 -0.241714 0.000000 -0.041175 -0.258333 0.000000 -0.000791 -0.264621 0.000000 0.039475 -0.258607 0.000000 0.078536 -0.242240 0.000000 0.115233 -0.216729 0.000000 0.148492 -0.186233 0.000000 0.177987 -0.152906 0.000000 0.202944 -0.120485 0.000000 0.223917 -0.089732 0.000000 0.240099 -0.062719 0.000000 0.252788 -0.038608 0.000000 0.260624 -0.017984 0.000000 0.265387 0.000237 0.000000 0.265502 0.016313 0.000000 0.263047 0.030503 0.000000 0.256610 0.043386 0.000000 0.248039 0.054452 0.000000 0.236395 0.064428 0.000000 0.223100 0.072406 0.000000 0.207799 0.079223 0.000000 0.191483 0.083978 0.000000 0.174282 0.087581 0.000000 0.156785 0.089389 0.000000 0.139382 0.090281 0.000000 0.122286 0.089925 0.000000 0.105924 0.089030 0.000000 0.090211 0.087522 0.000000 0.075469 0.085839 0.000000 0.061441 0.084087 0.000000 0.048289 0.082424 0.000000 0.035719 0.081073 0.000000 0.023715 0.079963 0.000000 0.012056 0.079379 0.000000 
0.000530 0.090544 0.000000 -0.010954 0.091000 0.000000 -0.022801 0.091918 0.000000 -0.034957 0.093608 0.000000 -0.048026 0.095670 0.000000 -0.061723 0.098230 0.000000 -0.076748 0.100948 0.000000 -0.092584 0.103661 0.000000 -0.109886 0.106154 0.000000 -0.127924 0.107898 0.000000 -0.147141 0.108907 0.000000 -0.166675 0.108284 0.000000 -0.186605 0.106422 0.000000 -0.206132 0.102157 0.000000 -0.224892 0.096387 0.000000 -0.242431 0.087830 0.000000 -0.257905 0.077847 0.000000 -0.271443 0.065135 0.000000 -0.281674 0.051188 0.000000 -0.289373 0.034765 0.000000 -0.292638 0.016959 0.000000 -0.292797 -0.003229 0.000000 -0.287591 -0.025536 0.000000 -0.278821 -0.050393 0.000000 -0.264184 -0.078233 0.000000 -0.245366 -0.109023 0.000000 -0.220660 -0.143169 0.000000 -0.191977 -0.179104 0.000000 -0.158621 -0.215866 0.000000 -0.122458 -0.249750 0.000000 -0.083202 -0.278202 0.000000 -0.042631 -0.296583 0.000000 -0.000867 -0.303622 0.000000 0.040784 -0.296968 0.000000 0.081689 -0.278928 0.000000 0.121020 -0.250721 0.000000 0.157728 -0.216960 0.000000 0.191184 -0.179981 0.000000 0.220196 -0.143940 0.000000 0.244737 -0.109475 0.000000 0.263687 -0.078885 0.000000 0.278359 -0.050881 0.000000 0.287203 -0.026237 0.000000 0.292532 -0.003845 0.000000 0.292412 0.016209 0.000000 0.289287 0.034048 0.000000 0.281629 0.050378 0.000000 0.271555 0.064346 0.000000 0.258071 0.076997 0.000000 0.242774 0.087022 0.000000 0.225288 0.095558 0.000000 0.206709 0.101395 0.000000 0.187216 0.105677 0.000000 0.167451 0.107621 0.000000 0.147924 0.108288 0.000000 0.128847 0.107361 0.000000 0.110790 0.105673 0.000000 0.093604 0.103254 0.000000 0.077730 0.100601 0.000000 0.062803 0.097948 0.000000 0.049054 0.095446 0.000000 0.036069 0.093442 0.000000 0.023854 0.091808 0.000000 0.012080 0.090945 0.000000 
0.000613 0.102137 0.000000 -0.010858 0.102752 0.000000 -0.022775 0.104050 0.000000 -0.035120 0.106423 0.000000 -0.048614 0.109362 0.000000 -0.062952 0.113023 0.000000 -0.078978 0.116963 0.000000 -0.096070 0.120965 0.000000 -0.115050 0.124732 0.000000 -0.134980 0.127581 0.000000 -0.156483 0.129495 0.000000 -0.178399 0.129348 0.000000 -0.201013 0.127601 0.000000 -0.223193 0.122843 0.000000 -0.244797 0.116163 0.000000 -0.265085 0.106049 0.000000 -0.283347 0.094124 0.000000 -0.299536 0.078860 0.000000 -0.312122 0.062000 0.000000 -0.321855 0.042075 0.000000 -0.326249 0.020403 0.000000 -0.326784 -0.004256 0.000000 -0.320412 -0.031313 0.000000 -0.309092 -0.061513 0.000000 -0.290811 -0.095532 0.000000 -0.268008 -0.132748 0.000000 -0.239228 -0.173174 0.000000 -0.206836 -0.214243 0.000000 -0.170091 -0.254946 0.000000 -0.130901 -0.291463 0.000000 -0.088686 -0.321540 0.000000 -0.045425 -0.340668 0.000000 -0.000990 -0.348036 0.000000 0.043351 -0.341163 0.000000 0.087000 -0.322475 0.000000 0.129380 -0.292768 0.000000 0.169369 -0.256397 0.000000 0.206312 -0.215374 0.000000 0.239060 -0.174039 0.000000 0.267451 -0.133223 0.000000 0.290262 -0.096341 0.000000 0.308577 -0.062125 0.000000 0.319920 -0.032157 0.000000 0.326484 -0.004972 0.000000 0.325952 0.019558 0.000000 0.321719 0.041287 0.000000 0.312011 0.061117 0.000000 0.299587 0.078010 0.000000 0.283463 0.093210 0.000000 0.265395 0.105189 0.000000 0.245187 0.115289 0.000000 0.223794 0.122051 0.000000 0.201676 0.126839 0.000000 0.179260 0.128681 0.000000 0.157372 0.128884 0.000000 0.136034 0.127059 0.000000 0.116098 0.124274 0.000000 0.097248 0.120582 0.000000 0.080121 0.116641 0.000000 0.064199 0.112763 0.000000 0.049809 0.109158 0.000000 0.036400 0.106273 0.000000 0.023995 0.103951 0.000000 0.012152 0.102703 0.000000 
0.000594 0.113554 0.000000 -0.010803 0.114388 0.000000 -0.022738 0.116179 0.000000 -0.035220 0.119446 0.000000 -0.049117 0.123502 0.000000 -0.064076 0.128594 0.000000 -0.081117 0.134067 0.000000 -0.099487 0.139734 0.000000 -0.120192 0.145064 0.000000 -0.142094 0.149331 0.000000 -0.165988 0.152326 0.000000 -0.190510 0.152815 0.000000 -0.216100 0.151216 0.000000 -0.241505 0.145941 0.000000 -0.266702 0.138279 0.000000 -0.290927 0.126380 0.000000 -0.313448 0.112298 0.000000 -0.334171 0.093910 0.000000 -0.351264 0.073506 0.000000 -0.365295 0.048893 0.000000 -0.373296 0.021889 0.000000 -0.376490 -0.009066 0.000000 -0.371431 -0.043227 0.000000 -0.360849 -0.079995 0.000000 -0.341363 -0.119318 0.000000 -0.315021 -0.160606 0.000000 -0.279996 -0.204340 0.000000 -0.239614 -0.248240 0.000000 -0.194595 -0.291801 0.000000 -0.147729 -0.331155 0.000000 -0.098877 -0.363678 0.000000 -0.050210 -0.384278 0.000000 -0.001044 -0.392398 0.000000 0.048031 -0.384958 0.000000 0.097065 -0.364956 0.000000 0.146128 -0.333090 0.000000 0.194027 -0.293892 0.000000 0.239390 -0.249671 0.000000 0.280101 -0.205079 0.000000 0.314392 -0.160677 0.000000 0.340754 -0.120010 0.000000 0.360440 -0.080539 0.000000 0.371077 -0.044144 0.000000 0.376390 -0.009876 0.000000 0.373180 0.020974 0.000000 0.365343 0.047989 0.000000 0.351307 0.072509 0.000000 0.334369 0.092894 0.000000 0.313685 0.111189 0.000000 0.291356 0.125298 0.000000 0.267187 0.137159 0.000000 0.242199 0.144905 0.000000 0.216834 0.150211 0.000000 0.191438 0.151925 0.000000 0.166924 0.151513 0.000000 0.143188 0.148635 0.000000 0.121261 0.144459 0.000000 0.100677 0.139231 0.000000 0.082259 0.133650 0.000000 0.065311 0.128261 0.000000 0.050291 0.123244 0.000000 0.036471 0.119257 0.000000 0.023923 0.116056 0.000000 0.012059 0.114327 0.000000 
0.000693 0.124999 0.000000 -0.010493 0.126083 0.000000 -0.022312 0.128467 0.000000 -0.034825 0.132803 0.000000 -0.049032 0.138218 0.000000 -0.064557 0.145023 0.000000 -0.082589 0.152374 0.000000 -0.102252 0.160040 0.000000 -0.124767 0.167338 0.000000 -0.148765 0.173377 0.000000 -0.175357 0.177911 0.000000 -0.202864 0.179460 0.000000 -0.232204 0.178596 0.000000 -0.261778 0.173445 0.000000 -0.292146 0.165585 0.000000 -0.322138 0.152795 0.000000 -0.351375 0.137368 0.000000 -0.379264 0.116677 0.000000 -0.403602 0.093124 0.000000 -0.424593 0.064107 0.000000 -0.437911 0.031598 0.000000 -0.445041 -0.006122 0.000000 -0.439982 -0.046954 0.000000 -0.425116 -0.091581 0.000000 -0.398904 -0.141360 0.000000 -0.365505 -0.194115 0.000000 -0.323679 -0.248581 0.000000 -0.277147 -0.299644 0.000000 -0.226229 -0.346832 0.000000 -0.172948 -0.387181 0.000000 -0.116313 -0.419060 0.000000 -0.059297 -0.438501 0.000000 -0.001135 -0.446277 0.000000 0.056970 -0.439272 0.000000 0.114259 -0.420571 0.000000 0.171192 -0.389730 0.000000 0.226129 -0.349659 0.000000 0.277706 -0.301448 0.000000 0.324494 -0.249041 0.000000 0.364773 -0.193876 0.000000 0.397872 -0.142389 0.000000 0.424472 -0.092448 0.000000 0.439379 -0.048107 0.000000 0.444933 -0.007075 0.000000 0.437746 0.030605 0.000000 0.424610 0.063159 0.000000 0.403605 0.092092 0.000000 0.379393 0.115632 0.000000 0.351567 0.136222 0.000000 0.322526 0.151687 0.000000 0.292623 0.164446 0.000000 0.262500 0.172403 0.000000 0.233001 0.177600 0.000000 0.203899 0.178591 0.000000 0.176429 0.177134 0.000000 0.150030 0.172722 0.000000 0.126023 0.166784 0.000000 0.103645 0.159584 0.000000 0.083937 0.152007 0.000000 0.066003 0.144731 0.000000 0.050414 0.137997 0.000000 0.036282 0.132641 0.000000 0.023699 0.128364 0.000000 0.011948 0.126031 0.000000 
0.000670 0.135995 0.000000 -0.010152 0.137394 0.000000 -0.021708 0.140512 0.000000 -0.034080 0.146166 0.000000 -0.048441 0.153234 0.000000 -0.064330 0.162151 0.000000 -0.083174 0.171761 0.000000 -0.103905 0.181912 0.000000 -0.128055 0.191578 0.000000 -0.154017 0.199921 0.000000 -0.183306 0.206424 0.000000 -0.214102 0.209662 0.000000 -0.247814 0.210130 0.000000 -0.282875 0.205882 0.000000 -0.320227 0.198639 0.000000 -0.358700 0.185609 0.000000 -0.397740 0.169424 0.000000 -0.436344 0.146137 0.000000 -0.471273 0.118835 0.000000 -0.501947 0.083201 0.000000 -0.522894 0.042337 0.000000 -0.534081 -0.006995 0.000000 -0.530470 -0.063152 0.000000 -0.518211 -0.121073 0.000000 -0.491912 -0.178930 0.000000 -0.452669 -0.235831 0.000000 -0.397961 -0.292698 0.000000 -0.333976 -0.345691 0.000000 -0.266126 -0.396000 0.000000 -0.198520 -0.441070 0.000000 -0.130608 -0.477329 0.000000 -0.065523 -0.499457 0.000000 -0.000931 -0.508665 0.000000 0.063565 -0.500352 0.000000 0.128619 -0.479178 0.000000 0.196614 -0.444960 0.000000 0.266200 -0.400407 0.000000 0.335039 -0.348036 0.000000 0.398939 -0.292146 0.000000 0.450926 -0.234055 0.000000 0.490207 -0.179709 0.000000 0.517844 -0.122046 0.000000 0.530195 -0.064605 0.000000 0.534316 -0.008243 0.000000 0.523011 0.041296 0.000000 0.502236 0.082129 0.000000 0.471527 0.117727 0.000000 0.436719 0.144933 0.000000 0.398155 0.168056 0.000000 0.359304 0.184242 0.000000 0.320873 0.197186 0.000000 0.283745 0.204526 0.000000 0.248709 0.208812 0.000000 0.215214 0.208498 0.000000 0.184420 0.205382 0.000000 0.155309 0.199042 0.000000 0.129318 0.190844 0.000000 0.105294 0.181316 0.000000 0.084507 0.171292 0.000000 0.065750 0.161784 0.000000 0.049790 0.152965 0.000000 0.035495 0.145971 0.000000 0.023051 0.140390 0.000000 0.011558 0.137333 0.000000 
0.000782 0.146709 0.000000 -0.009396 0.148461 0.000000 -0.020398 0.152395 0.000000 -0.032358 0.159537 0.000000 -0.046573 0.168468 0.000000 -0.062567 0.179756 0.000000 -0.081944 0.191949 0.000000 -0.103547 0.204921 0.000000 -0.129218 0.217450 0.000000 -0.157215 0.228628 0.000000 -0.189650 0.237996 0.000000 -0.224556 0.243967 0.000000 -0.264325 0.247369 0.000000 -0.307069 0.245858 0.000000 -0.354808 0.241410 0.000000 -0.405384 0.230309 0.000000 -0.458604 0.215012 0.000000 -0.511633 0.190209 0.000000 -0.560249 0.158727 0.000000 -0.602335 0.115729 0.000000 -0.630638 0.063732 0.000000 -0.647346 0.001454 0.000000 -0.638450 -0.062824 0.000000 -0.607373 -0.130139 0.000000 -0.558558 -0.206902 0.000000 -0.501569 -0.288066 0.000000 -0.435267 -0.367274 0.000000 -0.364202 -0.431479 0.000000 -0.292621 -0.482287 0.000000 -0.221523 -0.522698 0.000000 -0.147135 -0.552057 0.000000 -0.074373 -0.568178 0.000000 -0.000621 -0.575364 0.000000 0.073077 -0.568822 0.000000 0.145205 -0.553621 0.000000 0.219318 -0.527311 0.000000 0.293345 -0.488084 0.000000 0.366340 -0.434187 0.000000 0.436970 -0.364928 0.000000 0.498541 -0.285144 0.000000 0.555260 -0.209307 0.000000 0.606575 -0.132436 0.000000 0.637757 -0.064580 0.000000 0.647700 0.000109 0.000000 0.630760 0.062686 0.000000 0.602523 0.114643 0.000000 0.560469 0.157610 0.000000 0.511890 0.189005 0.000000 0.458999 0.213637 0.000000 0.405976 0.228969 0.000000 0.355485 0.240005 0.000000 0.308016 0.244568 0.000000 0.265323 0.246131 0.000000 0.225828 0.242879 0.000000 0.190947 0.237039 0.000000 0.158732 0.227824 0.000000 0.130720 0.216799 0.000000 0.105193 0.204395 0.000000 0.083533 0.191552 0.000000 0.064242 0.179447 0.000000 0.048169 0.168252 0.000000 0.034014 0.159380 0.000000 0.021974 0.152301 0.000000 0.011029 0.148413 0.000000 
0.000749 0.156419 0.000000 -0.008516 0.158574 0.000000 -0.018693 0.163474 0.000000 -0.029906 0.172341 0.000000 -0.043640 0.183442 0.000000 -0.059284 0.197522 0.000000 -0.078774 0.212741 0.000000 -0.100715 0.229186 0.000000 -0.127524 0.245246 0.000000 -0.157260 0.260352 0.000000 -0.192947 0.273765 0.000000 -0.232657 0.284338 0.000000 -0.279840 0.292642 0.000000 -0.332731 0.296365 0.000000 -0.393761 0.296954 0.000000 -0.460125 0.289405 0.000000 -0.530356 0.275673 0.000000 -0.599612 0.247781 0.000000 -0.660349 0.209537 0.000000 -0.709316 0.153591 0.000000 -0.735853 0.087347 0.000000 -0.735460 0.000818 0.000000 -0.706528 -0.103125 0.000000 -0.672064 -0.200965 0.000000 -0.622524 -0.284733 0.000000 -0.552302 -0.359122 0.000000 -0.459286 -0.430066 0.000000 -0.353194 -0.488336 0.000000 -0.256458 -0.538679 0.000000 -0.176937 -0.586556 0.000000 -0.107914 -0.624479 0.000000 -0.051145 -0.645971 0.000000 0.000549 -0.656114 0.000000 0.052171 -0.646178 0.000000 0.108277 -0.625420 0.000000 0.175785 -0.593100 0.000000 0.256147 -0.547428 0.000000 0.352901 -0.491661 0.000000 0.458251 -0.424347 0.000000 0.545717 -0.352344 0.000000 0.618277 -0.287743 0.000000 0.673673 -0.204544 0.000000 0.707214 -0.105730 0.000000 0.736066 -0.001247 0.000000 0.735946 0.086473 0.000000 0.709517 0.152421 0.000000 0.660741 0.208360 0.000000 0.600156 0.246403 0.000000 0.531121 0.273971 0.000000 0.461141 0.287756 0.000000 0.394792 0.295145 0.000000 0.333971 0.294687 0.000000 0.281013 0.291001 0.000000 0.234031 0.282874 0.000000 0.194273 0.272478 0.000000 0.158769 0.259269 0.000000 0.128990 0.244383 0.000000 0.102313 0.228503 0.000000 0.080309 0.212243 0.000000 0.060898 0.197148 0.000000 0.045176 0.183193 0.000000 0.031494 0.172166 0.000000 0.020204 0.163375 0.000000 0.010078 0.158524 0.000000 
0.000866 0.165303 0.000000 -0.007032 0.167903 0.000000 -0.015889 0.173785 0.000000 -0.025873 0.184484 0.000000 -0.038543 0.197846 0.000000 -0.053314 0.214889 0.000000 -0.072295 0.233380 0.000000 -0.094154 0.253670 0.000000 -0.121773 0.273996 0.000000 -0.153421 0.294052 0.000000 -0.193126 0.313393 0.000000 -0.239215 0.330860 0.000000 -0.296577 0.347443 0.000000 -0.362787 0.359779 0.000000 -0.441215 0.368804 0.000000 -0.525760 0.366904 0.000000 -0.614000 0.354498 0.000000 -0.695204 0.320202 0.000000 -0.759106 0.268431 0.000000 -0.796881 0.191233 0.000000 -0.804225 0.089876 0.000000 -0.792749 -0.027872 0.000000 -0.726614 -0.126220 0.000000 -0.608706 -0.214143 0.000000 -0.471670 -0.326663 0.000000 -0.349047 -0.451303 0.000000 -0.257982 -0.566383 0.000000 -0.178747 -0.634307 0.000000 -0.116017 -0.658544 0.000000 -0.071385 -0.671242 0.000000 -0.037313 -0.677849 0.000000 -0.015075 -0.676641 0.000000 0.002291 -0.678680 0.000000 0.019470 -0.676550 0.000000 0.042171 -0.677234 0.000000 0.073595 -0.675181 0.000000 0.113110 -0.665200 0.000000 0.170053 -0.636290 0.000000 0.254521 -0.557744 0.000000 0.345236 -0.445171 0.000000 0.467544 -0.337262 0.000000 0.609349 -0.221372 0.000000 0.725451 -0.126973 0.000000 0.793209 -0.028624 0.000000 0.803948 0.089235 0.000000 0.796064 0.189849 0.000000 0.758984 0.266970 0.000000 0.695209 0.318626 0.000000 0.614621 0.352652 0.000000 0.526800 0.365298 0.000000 0.442354 0.367175 0.000000 0.364254 0.358346 0.000000 0.297978 0.346071 0.000000 0.240883 0.329618 0.000000 0.194746 0.312301 0.000000 0.155254 0.293107 0.000000 0.123561 0.273255 0.000000 0.096077 0.253077 0.000000 0.074143 0.232966 0.000000 0.055226 0.214580 0.000000 0.040358 0.197656 0.000000 0.027721 0.184351 0.000000 0.017647 0.173717 0.000000 0.008829 0.167868 0.000000 