# vtk DataFile Version 2.0
Comment goes here
ASCII

DATASET STRUCTURED_POINTS
FIELD FieldData 1
TIME 1 1 double
1.18000000
DIMENSIONS    64   64   1

ORIGIN    0.000   0.000   0.000
SPACING   0.015625 0.015625   1.000

POINT_DATA   4096
VECTORS u double

0.000216 0.000000 0.000000 0.004623 0.000000 0.000000 0.008981 0.000000 0.000000 0.012879 0.000000 0.000000 0.016475 0.000000 0.000000 0.019269 0.000000 0.000000 0.021521 0.000000 0.000000 0.022687 0.000000 0.000000 0.023096 0.000000 0.000000 0.022228 0.000000 0.000000 0.020440 0.000000 0.000000 0.017312 0.000000 0.000000 0.013188 0.000000 0.000000 0.007833 0.000000 0.000000 0.001534 0.000000 0.000000 -0.005678 0.000000 0.000000 -0.013608 0.000000 0.000000 -0.021905 0.000000 0.000000 -0.030504 0.000000 0.000000 -0.038723 0.000000 0.000000 -0.046665 0.000000 0.000000 -0.053374 0.000000 0.000000 -0.059161 0.000000 0.000000 -0.062901 0.000000 0.000000 -0.065148 0.000000 0.000000 -0.064731 0.000000 0.000000 -0.062478 0.000000 0.000000 -0.057244 0.000000 0.000000 -0.050199 0.000000 0.000000 -0.040287 0.000000 0.000000 -0.029093 0.000000 0.000000 -0.015788 0.000000 0.000000 -0.002271 0.000000 0.000000 0.011996 0.000000 0.000000 0.025176 0.000000 0.000000 0.037541 0.000000 0.000000 0.047830 0.000000 0.000000 0.056039 0.000000 0.000000 0.061832 0.000000 0.000000 0.064853 0.000000 0.000000 0.065723 0.000000 0.000000 0.063733 0.000000 0.000000 0.060253 0.000000 0.000000 0.054350 0.000000 0.000000 0.047760 0.000000 0.000000 0.039529 0.000000 0.000000 0.031363 0.000000 0.000000 0.022454 0.000000 0.000000 0.014199 0.000000 0.000000 0.006010 0.000000 0.000000 -0.001146 0.000000 0.000000 -0.007634 0.000000 0.000000 -0.012913 0.000000 0.000000 -0.017164 0.000000 0.000000 -0.020196 0.000000 0.000000 -0.022069 0.000000 0.000000 -0.022829 0.000000 0.000000 -0.022481 0.000000 0.000000 -0.021201 0.000000 0.000000 -0.019005 0.000000 0.000000 -0.016100 0.000000 0.000000 -0.012563 0.000000 0.000000 -0.008563 0.000000 0.000000 -0.004278 0.000000 0.000000 
0.000336 -0.004450 0.000000 0.004791 -0.004382 0.000000 0.009208 -0.004128 0.000000 0.013159 -0.003747 0.000000 0.016813 -0.003195 0.000000 0.019666 -0.002523 0.000000 0.021975 -0.001709 0.000000 0.023205 -0.000787 0.000000 0.023672 0.000230 0.000000 0.022874 0.001328 0.000000 0.021144 0.002458 0.000000 0.018089 0.003626 0.000000 0.014021 0.004740 0.000000 0.008734 0.005827 0.000000 0.002485 0.006755 0.000000 -0.004671 0.007571 0.000000 -0.012565 0.008114 0.000000 -0.020836 0.008448 0.000000 -0.029426 0.008409 0.000000 -0.037669 0.008081 0.000000 -0.045652 0.007326 0.000000 -0.052464 0.006248 0.000000 -0.058371 0.004763 0.000000 -0.062325 0.002994 0.000000 -0.064799 0.000915 0.000000 -0.064715 -0.001335 0.000000 -0.062766 -0.003743 0.000000 -0.057892 -0.006140 0.000000 -0.051075 -0.008479 0.000000 -0.041304 -0.010553 0.000000 -0.030041 -0.012249 0.000000 -0.016526 -0.013411 0.000000 -0.002675 -0.013892 0.000000 0.011947 -0.013724 0.000000 0.025409 -0.012773 0.000000 0.037940 -0.011327 0.000000 0.048205 -0.009249 0.000000 0.056283 -0.007001 0.000000 0.061819 -0.004407 0.000000 0.064599 -0.001945 0.000000 0.065206 0.000560 0.000000 0.063036 0.002735 0.000000 0.059386 0.004692 0.000000 0.053413 0.006247 0.000000 0.046749 0.007411 0.000000 0.038534 0.008198 0.000000 0.030363 0.008537 0.000000 0.021516 0.008582 0.000000 0.013298 0.008222 0.000000 0.005187 0.007673 0.000000 -0.001908 0.006822 0.000000 -0.008320 0.005883 0.000000 -0.013526 0.004765 0.000000 -0.017709 0.003642 0.000000 -0.020665 0.002452 0.000000 -0.022478 0.001316 0.000000 -0.023163 0.000206 0.000000 -0.022763 -0.000814 0.000000 -0.021413 -0.001738 0.000000 -0.019168 -0.002551 0.000000 -0.016196 -0.003221 0.000000 -0.012614 -0.003768 0.000000 -0.008551 -0.004143 0.000000 -0.004219 -0.004390 0.000000 
0.000233 -0.009010 0.000000 0.004804 -0.008872 0.000000 0.009331 -0.008368 0.000000 0.013395 -0.007605 0.000000 0.017170 -0.006507 0.000000 0.020139 -0.005162 0.000000 0.022585 -0.003539 0.000000 0.023942 -0.001697 0.000000 0.024567 0.000331 0.000000 0.023909 0.002528 0.000000 0.022359 0.004785 0.000000 0.019462 0.007123 0.000000 0.015592 0.009354 0.000000 0.010482 0.011535 0.000000 0.004442 0.013405 0.000000 -0.002524 0.015051 0.000000 -0.010208 0.016165 0.000000 -0.018278 0.016861 0.000000 -0.026668 0.016833 0.000000 -0.034701 0.016226 0.000000 -0.042501 0.014795 0.000000 -0.049101 0.012719 0.000000 -0.054851 0.009861 0.000000 -0.058624 0.006427 0.000000 -0.061015 0.002390 0.000000 -0.060864 -0.002033 0.000000 -0.059011 -0.006823 0.000000 -0.054305 -0.011691 0.000000 -0.047888 -0.016588 0.000000 -0.038623 -0.021034 0.000000 -0.028101 -0.024778 0.000000 -0.015385 -0.027366 0.000000 -0.002471 -0.028473 0.000000 0.011279 -0.028084 0.000000 0.023886 -0.025993 0.000000 0.035726 -0.022796 0.000000 0.045448 -0.018342 0.000000 0.053138 -0.013615 0.000000 0.058472 -0.008316 0.000000 0.061093 -0.003386 0.000000 0.061701 0.001563 0.000000 0.059484 0.005819 0.000000 0.055947 0.009623 0.000000 0.049995 0.012638 0.000000 0.043500 0.014879 0.000000 0.035367 0.016386 0.000000 0.027392 0.017018 0.000000 0.018683 0.017065 0.000000 0.010669 0.016329 0.000000 0.002738 0.015207 0.000000 -0.004158 0.013506 0.000000 -0.010366 0.011618 0.000000 -0.015387 0.009389 0.000000 -0.019365 0.007139 0.000000 -0.022155 0.004769 0.000000 -0.023773 0.002498 0.000000 -0.024312 0.000285 0.000000 -0.023736 -0.001751 0.000000 -0.022258 -0.003595 0.000000 -0.019858 -0.005217 0.000000 -0.016772 -0.006554 0.000000 -0.013052 -0.007645 0.000000 -0.008882 -0.008395 0.000000 -0.004426 -0.008887 0.000000 
0.000370 -0.013681 0.000000 0.005151 -0.013479 0.000000 0.009903 -0.012719 0.000000 0.014184 -0.011586 0.000000 0.018194 -0.009939 0.000000 0.021395 -0.007938 0.000000 0.024093 -0.005511 0.000000 0.025705 -0.002769 0.000000 0.026604 0.000262 0.000000 0.026229 0.003536 0.000000 0.024975 0.006905 0.000000 0.022386 0.010392 0.000000 0.018830 0.013720 0.000000 0.014042 0.016977 0.000000 0.008317 0.019761 0.000000 0.001665 0.022222 0.000000 -0.005727 0.023868 0.000000 -0.013524 0.024907 0.000000 -0.021678 0.024832 0.000000 -0.029524 0.023913 0.000000 -0.037193 0.021725 0.000000 -0.043756 0.018598 0.000000 -0.049563 0.014287 0.000000 -0.053568 0.009157 0.000000 -0.056342 0.003155 0.000000 -0.056866 -0.003339 0.000000 -0.055843 -0.010303 0.000000 -0.052245 -0.017263 0.000000 -0.046885 -0.024161 0.000000 -0.038525 -0.030340 0.000000 -0.028570 -0.035487 0.000000 -0.016048 -0.039041 0.000000 -0.003116 -0.040556 0.000000 0.010771 -0.040080 0.000000 0.023308 -0.037220 0.000000 0.034880 -0.032889 0.000000 0.043927 -0.026661 0.000000 0.050786 -0.020026 0.000000 0.055188 -0.012362 0.000000 0.057006 -0.005174 0.000000 0.057000 0.002169 0.000000 0.054336 0.008488 0.000000 0.050579 0.014181 0.000000 0.044537 0.018694 0.000000 0.038093 0.022038 0.000000 0.030117 0.024306 0.000000 0.022351 0.025221 0.000000 0.013935 0.025305 0.000000 0.006216 0.024167 0.000000 -0.001365 0.022500 0.000000 -0.007928 0.019926 0.000000 -0.013777 0.017113 0.000000 -0.018460 0.013763 0.000000 -0.022096 0.010409 0.000000 -0.024564 0.006860 0.000000 -0.025871 0.003474 0.000000 -0.026114 0.000169 0.000000 -0.025260 -0.002868 0.000000 -0.023512 -0.005616 0.000000 -0.020863 -0.008037 0.000000 -0.017531 -0.010027 0.000000 -0.013584 -0.011658 0.000000 -0.009184 -0.012768 0.000000 -0.004514 -0.013505 0.000000 
0.000288 -0.018675 0.000000 0.005341 -0.018405 0.000000 0.010361 -0.017401 0.000000 0.014913 -0.015896 0.000000 0.019213 -0.013718 0.000000 0.022699 -0.011061 0.000000 0.025723 -0.007849 0.000000 0.027645 -0.004208 0.000000 0.028914 -0.000193 0.000000 0.028886 0.004157 0.000000 0.028049 0.008627 0.000000 0.025847 0.013269 0.000000 0.022746 0.017699 0.000000 0.018376 0.022048 0.000000 0.013124 0.025782 0.000000 0.006904 0.029094 0.000000 -0.000032 0.031354 0.000000 -0.007407 0.032812 0.000000 -0.015155 0.032833 0.000000 -0.022607 0.031741 0.000000 -0.029939 0.029027 0.000000 -0.036147 0.025089 0.000000 -0.041700 0.019673 0.000000 -0.045443 0.013206 0.000000 -0.048121 0.005688 0.000000 -0.048651 -0.002531 0.000000 -0.047913 -0.011444 0.000000 -0.044815 -0.020649 0.000000 -0.040369 -0.030308 0.000000 -0.033165 -0.039350 0.000000 -0.024786 -0.047255 0.000000 -0.013952 -0.052819 0.000000 -0.002956 -0.055292 0.000000 0.009151 -0.054508 0.000000 0.019911 -0.050101 0.000000 0.030069 -0.043415 0.000000 0.037949 -0.034249 0.000000 0.043986 -0.024875 0.000000 0.047897 -0.014536 0.000000 0.049319 -0.005199 0.000000 0.049189 0.004233 0.000000 0.046335 0.012241 0.000000 0.042721 0.019422 0.000000 0.036682 0.025123 0.000000 0.030552 0.029299 0.000000 0.022770 0.032128 0.000000 0.015411 0.033200 0.000000 0.007346 0.033200 0.000000 0.000079 0.031630 0.000000 -0.007049 0.029351 0.000000 -0.013151 0.025919 0.000000 -0.018505 0.022150 0.000000 -0.022745 0.017708 0.000000 -0.025892 0.013243 0.000000 -0.027954 0.008544 0.000000 -0.028807 0.004048 0.000000 -0.028689 -0.000326 0.000000 -0.027430 -0.004352 0.000000 -0.025363 -0.007991 0.000000 -0.022359 -0.011198 0.000000 -0.018740 -0.013834 0.000000 -0.014478 -0.015993 0.000000 -0.009811 -0.017465 0.000000 -0.004856 -0.018440 0.000000 
0.000444 -0.023877 0.000000 0.005853 -0.023552 0.000000 0.011251 -0.022291 0.000000 0.016168 -0.020439 0.000000 0.020869 -0.017726 0.000000 0.024747 -0.014448 0.000000 0.028209 -0.010458 0.000000 0.030568 -0.005960 0.000000 0.032322 -0.000979 0.000000 0.032787 0.004400 0.000000 0.032485 0.009944 0.000000 0.030832 0.015695 0.000000 0.028306 0.021191 0.000000 0.024523 0.026599 0.000000 0.019862 0.031233 0.000000 0.014233 0.035378 0.000000 0.007866 0.038178 0.000000 0.001041 0.040031 0.000000 -0.006202 0.040032 0.000000 -0.013188 0.038697 0.000000 -0.020120 0.035266 0.000000 -0.025999 0.030359 0.000000 -0.031348 0.023583 0.000000 -0.035077 0.015579 0.000000 -0.038048 0.006363 0.000000 -0.039440 -0.003547 0.000000 -0.040086 -0.014139 0.000000 -0.039282 -0.024807 0.000000 -0.037282 -0.035811 0.000000 -0.032193 -0.045922 0.000000 -0.025190 -0.054700 0.000000 -0.014802 -0.060871 0.000000 -0.003771 -0.063659 0.000000 0.008625 -0.062948 0.000000 0.019165 -0.058137 0.000000 0.028575 -0.050927 0.000000 0.034713 -0.040578 0.000000 0.038650 -0.029974 0.000000 0.040461 -0.017695 0.000000 0.040306 -0.006465 0.000000 0.039258 0.005153 0.000000 0.035801 0.014956 0.000000 0.032134 0.023834 0.000000 0.026176 0.030863 0.000000 0.020396 0.035950 0.000000 0.013061 0.039447 0.000000 0.006222 0.040645 0.000000 -0.001234 0.040637 0.000000 -0.007903 0.038563 0.000000 -0.014369 0.035730 0.000000 -0.019846 0.031382 0.000000 -0.024543 0.026707 0.000000 -0.028171 0.021150 0.000000 -0.030701 0.015617 0.000000 -0.032192 0.009776 0.000000 -0.032488 0.004209 0.000000 -0.031855 -0.001208 0.000000 -0.030101 -0.006193 0.000000 -0.027576 -0.010687 0.000000 -0.024133 -0.014661 0.000000 -0.020100 -0.017907 0.000000 -0.015445 -0.020586 0.000000 -0.010394 -0.022390 0.000000 -0.005072 -0.023605 0.000000 
0.000392 -0.029600 0.000000 0.006202 -0.029212 0.000000 0.012005 -0.027716 0.000000 0.017326 -0.025514 0.000000 0.022467 -0.022297 0.000000 0.026776 -0.018401 0.000000 0.030734 -0.013670 0.000000 0.033572 -0.008321 0.000000 0.035897 -0.002412 0.000000 0.036903 0.003994 0.000000 0.037252 0.010583 0.000000 0.036205 0.017448 0.000000 0.034397 0.024007 0.000000 0.031272 0.030492 0.000000 0.027359 0.036072 0.000000 0.022407 0.041090 0.000000 0.016763 0.044546 0.000000 0.010599 0.046879 0.000000 0.004004 0.047062 0.000000 -0.002343 0.045660 0.000000 -0.008696 0.041838 0.000000 -0.013902 0.036317 0.000000 -0.018653 0.028752 0.000000 -0.021647 0.019906 0.000000 -0.024015 0.010050 0.000000 -0.024928 -0.000494 0.000000 -0.025419 -0.011602 0.000000 -0.024912 -0.023452 0.000000 -0.024024 -0.037397 0.000000 -0.020810 -0.051442 0.000000 -0.016772 -0.064646 0.000000 -0.009968 -0.074238 0.000000 -0.003197 -0.078720 0.000000 0.005193 -0.077443 0.000000 0.011856 -0.070051 0.000000 0.018431 -0.058963 0.000000 0.022525 -0.044324 0.000000 0.025427 -0.030623 0.000000 0.026959 -0.016191 0.000000 0.026633 -0.003996 0.000000 0.025705 0.008738 0.000000 0.022196 0.019365 0.000000 0.019046 0.029046 0.000000 0.013283 0.036861 0.000000 0.008201 0.042414 0.000000 0.001329 0.046301 0.000000 -0.004763 0.047494 0.000000 -0.011554 0.047326 0.000000 -0.017471 0.044765 0.000000 -0.023155 0.041293 0.000000 -0.027894 0.036093 0.000000 -0.031775 0.030475 0.000000 -0.034704 0.023866 0.000000 -0.036449 0.017264 0.000000 -0.037305 0.010331 0.000000 -0.036888 0.003711 0.000000 -0.035692 -0.002713 0.000000 -0.033315 -0.008631 0.000000 -0.030296 -0.013959 0.000000 -0.026314 -0.018673 0.000000 -0.021843 -0.022522 0.000000 -0.016717 -0.025699 0.000000 -0.011263 -0.027838 0.000000 -0.005517 -0.029277 0.000000 
0.000572 -0.035596 0.000000 0.006851 -0.035166 0.000000 0.013153 -0.033415 0.000000 0.018956 -0.030901 0.000000 0.024634 -0.027175 0.000000 0.029467 -0.022715 0.000000 0.034025 -0.017254 0.000000 0.037457 -0.011122 0.000000 0.040461 -0.004310 0.000000 0.042151 0.003045 0.000000 0.043263 0.010642 0.000000 0.042995 0.018550 0.000000 0.042021 0.026123 0.000000 0.039754 0.033637 0.000000 0.036720 0.040098 0.000000 0.032672 0.045974 0.000000 0.027925 0.049987 0.000000 0.022678 0.052790 0.000000 0.016999 0.052974 0.000000 0.011609 0.051397 0.000000 0.006256 0.046824 0.000000 0.002176 0.040317 0.000000 -0.001415 0.031328 0.000000 -0.003128 0.020940 0.000000 -0.004585 0.009645 0.000000 -0.005412 -0.002143 0.000000 -0.007235 -0.014155 0.000000 -0.011180 -0.026203 0.000000 -0.015799 -0.039913 0.000000 -0.017376 -0.053174 0.000000 -0.016463 -0.065542 0.000000 -0.010662 -0.074446 0.000000 -0.003861 -0.078820 0.000000 0.004946 -0.078000 0.000000 0.010988 -0.071375 0.000000 0.015673 -0.061596 0.000000 0.015421 -0.047574 0.000000 0.013171 -0.034409 0.000000 0.010247 -0.018901 0.000000 0.007592 -0.005211 0.000000 0.006287 0.009590 0.000000 0.002845 0.021615 0.000000 0.000793 0.032746 0.000000 -0.003929 0.041708 0.000000 -0.007741 0.047904 0.000000 -0.013369 0.052412 0.000000 -0.018320 0.053528 0.000000 -0.023939 0.053345 0.000000 -0.028828 0.050164 0.000000 -0.033448 0.046152 0.000000 -0.037230 0.040002 0.000000 -0.040141 0.033517 0.000000 -0.042182 0.025824 0.000000 -0.043046 0.018218 0.000000 -0.043096 0.010215 0.000000 -0.041894 0.002596 0.000000 -0.039985 -0.004781 0.000000 -0.036919 -0.011590 0.000000 -0.033276 -0.017688 0.000000 -0.028695 -0.023114 0.000000 -0.023672 -0.027504 0.000000 -0.018016 -0.031166 0.000000 -0.012056 -0.033591 0.000000 -0.005824 -0.035259 0.000000 
0.000561 -0.042276 0.000000 0.007327 -0.041794 0.000000 0.014124 -0.039820 0.000000 0.020420 -0.036996 0.000000 0.026645 -0.032809 0.000000 0.032013 -0.027792 0.000000 0.037202 -0.021660 0.000000 0.041242 -0.014757 0.000000 0.044986 -0.007105 0.000000 0.047378 0.001192 0.000000 0.049353 0.009739 0.000000 0.049889 0.018690 0.000000 0.049894 0.027248 0.000000 0.048526 0.035792 0.000000 0.046560 0.043155 0.000000 0.043491 0.049886 0.000000 0.039864 0.054540 0.000000 0.035685 0.057805 0.000000 0.031167 0.058131 0.000000 0.027018 0.056402 0.000000 0.022964 0.051271 0.000000 0.020536 0.043988 0.000000 0.018679 0.034055 0.000000 0.019309 0.023077 0.000000 0.020211 0.012335 0.000000 0.021668 0.002156 0.000000 0.022165 -0.005834 0.000000 0.019959 -0.014888 0.000000 0.015420 -0.031201 0.000000 0.011360 -0.050778 0.000000 0.006170 -0.071359 0.000000 0.002863 -0.086840 0.000000 -0.001719 -0.094328 0.000000 -0.004022 -0.092293 0.000000 -0.008195 -0.080778 0.000000 -0.010196 -0.063396 0.000000 -0.013953 -0.041822 0.000000 -0.016294 -0.025450 0.000000 -0.017282 -0.010612 0.000000 -0.018386 -0.000035 0.000000 -0.018484 0.013484 0.000000 -0.021055 0.024860 0.000000 -0.021070 0.035821 0.000000 -0.024548 0.045394 0.000000 -0.026366 0.051854 0.000000 -0.030562 0.056880 0.000000 -0.033908 0.058064 0.000000 -0.038128 0.057833 0.000000 -0.041733 0.054274 0.000000 -0.045047 0.049696 0.000000 -0.047744 0.042786 0.000000 -0.049453 0.035427 0.000000 -0.050541 0.026771 0.000000 -0.050321 0.018178 0.000000 -0.049531 0.009178 0.000000 -0.047379 0.000600 0.000000 -0.044741 -0.007687 0.000000 -0.040865 -0.015340 0.000000 -0.036593 -0.022183 0.000000 -0.031328 -0.028278 0.000000 -0.025757 -0.033201 0.000000 -0.019518 -0.037315 0.000000 -0.013061 -0.040029 0.000000 -0.006313 -0.041905 0.000000 
0.000774 -0.049237 0.000000 0.008062 -0.048729 0.000000 0.015420 -0.046507 0.000000 0.022256 -0.043422 0.000000 0.029101 -0.038768 0.000000 0.035067 -0.033272 0.000000 0.040969 -0.026482 0.000000 0.045705 -0.018906 0.000000 0.050278 -0.010446 0.000000 0.053496 -0.001321 0.000000 0.056423 0.008131 0.000000 0.057936 0.018009 0.000000 0.059020 0.027486 0.000000 0.058799 0.036971 0.000000 0.058055 0.045134 0.000000 0.056339 0.052670 0.000000 0.054162 0.057793 0.000000 0.051633 0.061487 0.000000 0.048981 0.061641 0.000000 0.046999 0.059600 0.000000 0.045553 0.053307 0.000000 0.046317 0.044602 0.000000 0.048292 0.032554 0.000000 0.053985 0.019408 0.000000 0.059893 0.007286 0.000000 0.066436 -0.004096 0.000000 0.068520 -0.012446 0.000000 0.057012 -0.019458 0.000000 0.038748 -0.031314 0.000000 0.023066 -0.043924 0.000000 0.010261 -0.057045 0.000000 0.004035 -0.066556 0.000000 -0.001596 -0.071935 0.000000 -0.004727 -0.071525 0.000000 -0.011264 -0.065201 0.000000 -0.018251 -0.055838 0.000000 -0.033520 -0.041476 0.000000 -0.049649 -0.031079 0.000000 -0.060651 -0.016809 0.000000 -0.063468 -0.004009 0.000000 -0.059725 0.012259 0.000000 -0.058884 0.024201 0.000000 -0.053974 0.036239 0.000000 -0.053294 0.047004 0.000000 -0.051316 0.053918 0.000000 -0.052074 0.059954 0.000000 -0.052777 0.061094 0.000000 -0.054561 0.061170 0.000000 -0.056299 0.057084 0.000000 -0.057887 0.052164 0.000000 -0.059158 0.044408 0.000000 -0.059532 0.036314 0.000000 -0.059445 0.026692 0.000000 -0.058108 0.017208 0.000000 -0.056316 0.007273 0.000000 -0.053198 -0.002194 0.000000 -0.049701 -0.011296 0.000000 -0.044993 -0.019738 0.000000 -0.039989 -0.027225 0.000000 -0.034015 -0.033950 0.000000 -0.027811 -0.039314 0.000000 -0.020962 -0.043862 0.000000 -0.013937 -0.046796 0.000000 -0.006644 -0.048881 0.000000 
0.000822 -0.056981 0.000000 0.008602 -0.056440 0.000000 0.016471 -0.054014 0.000000 0.023811 -0.050676 0.000000 0.031236 -0.045621 0.000000 0.037767 -0.039661 0.000000 0.044362 -0.032298 0.000000 0.049761 -0.024066 0.000000 0.055175 -0.014896 0.000000 0.059185 -0.004953 0.000000 0.063132 0.005299 0.000000 0.065600 0.016094 0.000000 0.067922 0.026385 0.000000 0.068879 0.036756 0.000000 0.069677 0.045614 0.000000 0.069498 0.053780 0.000000 0.069324 0.059246 0.000000 0.068942 0.062985 0.000000 0.068963 0.062765 0.000000 0.070049 0.059831 0.000000 0.072104 0.051953 0.000000 0.077170 0.041248 0.000000 0.083626 0.026387 0.000000 0.095263 0.011477 0.000000 0.106259 -0.000116 0.000000 0.116797 -0.006471 0.000000 0.125371 0.003590 0.000000 0.123597 0.014884 0.000000 0.113846 0.002745 0.000000 0.098153 -0.022291 0.000000 0.072551 -0.052328 0.000000 0.041918 -0.074984 0.000000 0.004708 -0.085567 0.000000 -0.029940 -0.082625 0.000000 -0.064758 -0.067254 0.000000 -0.088611 -0.041140 0.000000 -0.108286 -0.010424 0.000000 -0.116738 0.001681 0.000000 -0.115799 0.003207 0.000000 -0.112614 -0.000961 0.000000 -0.107543 0.008901 0.000000 -0.104818 0.019108 0.000000 -0.093963 0.030230 0.000000 -0.089073 0.042737 0.000000 -0.081677 0.050634 0.000000 -0.078149 0.058341 0.000000 -0.075031 0.060550 0.000000 -0.073506 0.061355 0.000000 -0.072742 0.057600 0.000000 -0.071950 0.052554 0.000000 -0.071534 0.044431 0.000000 -0.070146 0.035714 0.000000 -0.068819 0.025347 0.000000 -0.066095 0.015048 0.000000 -0.063314 0.004268 0.000000 -0.059067 -0.006015 0.000000 -0.054749 -0.015892 0.000000 -0.049117 -0.025052 0.000000 -0.043425 -0.033162 0.000000 -0.036699 -0.040456 0.000000 -0.029912 -0.046254 0.000000 -0.022446 -0.051189 0.000000 -0.014907 -0.054348 0.000000 -0.007084 -0.056617 0.000000 
0.001078 -0.064924 0.000000 0.009335 -0.064378 0.000000 0.017734 -0.061717 0.000000 0.025573 -0.058187 0.000000 0.033610 -0.052724 0.000000 0.040715 -0.046397 0.000000 0.048045 -0.038475 0.000000 0.054140 -0.029719 0.000000 0.060445 -0.019871 0.000000 0.065321 -0.009279 0.000000 0.070336 0.001716 0.000000 0.073912 0.013220 0.000000 0.077545 0.024207 0.000000 0.080008 0.035215 0.000000 0.082559 0.044514 0.000000 0.084593 0.053023 0.000000 0.087050 0.058350 0.000000 0.090051 0.061848 0.000000 0.094227 0.060534 0.000000 0.100283 0.056459 0.000000 0.108490 0.046186 0.000000 0.120389 0.033080 0.000000 0.135238 0.014461 0.000000 0.158016 -0.003225 0.000000 0.180858 -0.014248 0.000000 0.211272 -0.023209 0.000000 0.232377 -0.019247 0.000000 0.208776 -0.007933 0.000000 0.163728 -0.005869 0.000000 0.120647 -0.002629 0.000000 0.079104 -0.000810 0.000000 0.044661 0.001287 0.000000 0.006926 -0.000077 0.000000 -0.029726 -0.002059 0.000000 -0.067700 -0.006530 0.000000 -0.100667 -0.012310 0.000000 -0.149332 -0.013348 0.000000 -0.195768 -0.023566 0.000000 -0.219790 -0.020934 0.000000 -0.212433 -0.012265 0.000000 -0.188030 0.004463 0.000000 -0.174226 0.010620 0.000000 -0.151799 0.020495 0.000000 -0.136932 0.034717 0.000000 -0.121501 0.042994 0.000000 -0.110185 0.053308 0.000000 -0.101492 0.056451 0.000000 -0.094996 0.058881 0.000000 -0.090629 0.055528 0.000000 -0.086881 0.050956 0.000000 -0.084181 0.042603 0.000000 -0.080942 0.033598 0.000000 -0.078081 0.022642 0.000000 -0.074033 0.011703 0.000000 -0.070115 0.000244 0.000000 -0.064809 -0.010759 0.000000 -0.059587 -0.021245 0.000000 -0.053077 -0.031062 0.000000 -0.046646 -0.039643 0.000000 -0.039197 -0.047463 0.000000 -0.031797 -0.053568 0.000000 -0.023734 -0.058867 0.000000 -0.015664 -0.062157 0.000000 -0.007331 -0.064611 0.000000 
0.001204 -0.073647 0.000000 0.009840 -0.073096 0.000000 0.018646 -0.070253 0.000000 0.026885 -0.066552 0.000000 0.035414 -0.060762 0.000000 0.042993 -0.054096 0.000000 0.050953 -0.045724 0.000000 0.057639 -0.036465 0.000000 0.064754 -0.026076 0.000000 0.070385 -0.014844 0.000000 0.076461 -0.003292 0.000000 0.081059 0.008885 0.000000 0.086180 0.020289 0.000000 0.090197 0.031742 0.000000 0.095074 0.041029 0.000000 0.099745 0.049289 0.000000 0.106062 0.053788 0.000000 0.113590 0.055809 0.000000 0.123825 0.052533 0.000000 0.136806 0.045568 0.000000 0.152990 0.031847 0.000000 0.173503 0.014500 0.000000 0.196805 -0.011239 0.000000 0.230995 -0.034143 0.000000 0.255332 -0.053373 0.000000 0.270331 -0.057991 0.000000 0.283979 0.006086 0.000000 0.302402 0.083533 0.000000 0.323246 0.090874 0.000000 0.306934 0.062334 0.000000 0.240474 0.023658 0.000000 0.142691 -0.002806 0.000000 0.024359 -0.011179 0.000000 -0.091309 -0.007999 0.000000 -0.204928 0.003687 0.000000 -0.283467 0.040492 0.000000 -0.321464 0.084676 0.000000 -0.304443 0.072139 0.000000 -0.273794 0.019872 0.000000 -0.265565 -0.032720 0.000000 -0.262047 -0.029306 0.000000 -0.253963 -0.017123 0.000000 -0.218868 -0.007063 0.000000 -0.195604 0.012438 0.000000 -0.170044 0.023887 0.000000 -0.149487 0.038333 0.000000 -0.133491 0.045361 0.000000 -0.120160 0.050493 0.000000 -0.111058 0.049485 0.000000 -0.102959 0.046106 0.000000 -0.097471 0.038493 0.000000 -0.091598 0.029614 0.000000 -0.087107 0.018438 0.000000 -0.081375 0.007082 0.000000 -0.076398 -0.004956 0.000000 -0.069901 -0.016543 0.000000 -0.063897 -0.027623 0.000000 -0.056488 -0.037993 0.000000 -0.049441 -0.047042 0.000000 -0.041304 -0.055306 0.000000 -0.033410 -0.061716 0.000000 -0.024821 -0.067321 0.000000 -0.016340 -0.070751 0.000000 -0.007585 -0.073359 0.000000 
0.001513 -0.082349 0.000000 0.010440 -0.081820 0.000000 0.019605 -0.078762 0.000000 0.028159 -0.074955 0.000000 0.037151 -0.068832 0.000000 0.045125 -0.061936 0.000000 0.053702 -0.053122 0.000000 0.060914 -0.043520 0.000000 0.068834 -0.032617 0.000000 0.075190 -0.020987 0.000000 0.082321 -0.008958 0.000000 0.088026 0.003501 0.000000 0.094661 0.015070 0.000000 0.100624 0.026322 0.000000 0.108022 0.034966 0.000000 0.116320 0.042035 0.000000 0.127156 0.044505 0.000000 0.140961 0.044084 0.000000 0.158747 0.037317 0.000000 0.180511 0.027295 0.000000 0.206849 0.009489 0.000000 0.235217 -0.010735 0.000000 0.267998 -0.043031 0.000000 0.307710 -0.061752 0.000000 0.341913 -0.053584 0.000000 0.411769 -0.051856 0.000000 0.445200 -0.051317 0.000000 0.422433 -0.047200 0.000000 0.391341 -0.010402 0.000000 0.319218 0.080144 0.000000 0.226597 0.163433 0.000000 0.130954 0.217402 0.000000 0.026535 0.233922 0.000000 -0.067288 0.227228 0.000000 -0.174447 0.185628 0.000000 -0.275563 0.104226 0.000000 -0.363981 0.007628 0.000000 -0.409750 -0.071236 0.000000 -0.444270 -0.059812 0.000000 -0.430212 -0.024012 0.000000 -0.357591 -0.007138 0.000000 -0.327907 -0.032559 0.000000 -0.289162 -0.037864 0.000000 -0.255561 -0.014106 0.000000 -0.222788 -0.003124 0.000000 -0.191412 0.016755 0.000000 -0.167660 0.027125 0.000000 -0.146831 0.036448 0.000000 -0.131786 0.038326 0.000000 -0.119124 0.037369 0.000000 -0.109997 0.031242 0.000000 -0.101573 0.023234 0.000000 -0.095070 0.012419 0.000000 -0.087841 0.000995 0.000000 -0.081699 -0.011230 0.000000 -0.074182 -0.023260 0.000000 -0.067400 -0.034658 0.000000 -0.059219 -0.045518 0.000000 -0.051597 -0.054826 0.000000 -0.042871 -0.063494 0.000000 -0.034539 -0.070051 0.000000 -0.025513 -0.075937 0.000000 -0.016683 -0.079393 0.000000 -0.007595 -0.082154 0.000000 
0.001733 -0.091683 0.000000 0.010765 -0.091188 0.000000 0.020071 -0.087971 0.000000 0.028755 -0.084098 0.000000 0.037984 -0.077728 0.000000 0.046167 -0.070648 0.000000 0.055124 -0.061512 0.000000 0.062659 -0.051597 0.000000 0.071147 -0.040352 0.000000 0.078006 -0.028332 0.000000 0.086021 -0.016129 0.000000 0.092634 -0.003455 0.000000 0.100868 0.007692 0.000000 0.108730 0.018382 0.000000 0.119328 0.025333 0.000000 0.131545 0.030154 0.000000 0.148394 0.029148 0.000000 0.169099 0.024218 0.000000 0.196000 0.012983 0.000000 0.226937 -0.002534 0.000000 0.263118 -0.022860 0.000000 0.298495 -0.046649 0.000000 0.344322 -0.083731 0.000000 0.410326 -0.108057 0.000000 0.436061 -0.157432 0.000000 0.386675 -0.161278 0.000000 0.223090 -0.004578 0.000000 0.053757 0.137392 0.000000 -0.064859 0.194089 0.000000 -0.143210 0.227078 0.000000 -0.148328 0.211922 0.000000 -0.093976 0.197255 0.000000 -0.011758 0.187063 0.000000 0.079313 0.192984 0.000000 0.144207 0.211962 0.000000 0.166828 0.230026 0.000000 0.100965 0.218863 0.000000 -0.021658 0.152428 0.000000 -0.206825 0.040334 0.000000 -0.379191 -0.119400 0.000000 -0.426578 -0.131611 0.000000 -0.420401 -0.085551 0.000000 -0.356215 -0.079409 0.000000 -0.311415 -0.053936 0.000000 -0.274937 -0.040262 0.000000 -0.234337 -0.016796 0.000000 -0.204722 0.000780 0.000000 -0.175366 0.014619 0.000000 -0.154135 0.021779 0.000000 -0.135228 0.024316 0.000000 -0.122065 0.020941 0.000000 -0.110063 0.014687 0.000000 -0.101531 0.004707 0.000000 -0.092436 -0.006288 0.000000 -0.085333 -0.018616 0.000000 -0.076779 -0.030842 0.000000 -0.069469 -0.042587 0.000000 -0.060640 -0.053796 0.000000 -0.052673 -0.063390 0.000000 -0.043529 -0.072363 0.000000 -0.034969 -0.079074 0.000000 -0.025690 -0.085177 0.000000 -0.016716 -0.088668 0.000000 -0.007485 -0.091554 0.000000 
0.002099 -0.100598 0.000000 0.011056 -0.100158 0.000000 0.020364 -0.096753 0.000000 0.028996 -0.092869 0.000000 0.038348 -0.086244 0.000000 0.046546 -0.079075 0.000000 0.055796 -0.069613 0.000000 0.063442 -0.059543 0.000000 0.072431 -0.047964 0.000000 0.079581 -0.035860 0.000000 0.088416 -0.023586 0.000000 0.095822 -0.011346 0.000000 0.105570 -0.001026 0.000000 0.115519 0.007861 0.000000 0.129053 0.012151 0.000000 0.145757 0.012969 0.000000 0.167530 0.006951 0.000000 0.195223 -0.003521 0.000000 0.227999 -0.020521 0.000000 0.265297 -0.039824 0.000000 0.306226 -0.062068 0.000000 0.342916 -0.091939 0.000000 0.397034 -0.154862 0.000000 0.371741 -0.153491 0.000000 0.207809 -0.029933 0.000000 -0.037503 0.161115 0.000000 -0.182007 0.281601 0.000000 -0.136911 0.240748 0.000000 -0.048802 0.186565 0.000000 0.040631 0.163613 0.000000 0.074320 0.114200 0.000000 0.052603 0.080832 0.000000 0.009616 0.060633 0.000000 -0.036381 0.071262 0.000000 -0.064453 0.098113 0.000000 -0.045136 0.147468 0.000000 0.043653 0.196114 0.000000 0.143040 0.236555 0.000000 0.208865 0.297721 0.000000 0.093217 0.195741 0.000000 -0.119735 0.034072 0.000000 -0.296184 -0.102922 0.000000 -0.358719 -0.146851 0.000000 -0.326027 -0.095384 0.000000 -0.300360 -0.080202 0.000000 -0.259975 -0.053460 0.000000 -0.230343 -0.031846 0.000000 -0.198528 -0.014139 0.000000 -0.171977 -0.001812 0.000000 -0.148902 0.005299 0.000000 -0.131279 0.006077 0.000000 -0.116417 0.002700 0.000000 -0.105602 -0.005208 0.000000 -0.095013 -0.015203 0.000000 -0.086981 -0.026887 0.000000 -0.077656 -0.039123 0.000000 -0.069975 -0.050798 0.000000 -0.060704 -0.062314 0.000000 -0.052574 -0.071937 0.000000 -0.043188 -0.081198 0.000000 -0.034579 -0.087889 0.000000 -0.025217 -0.094189 0.000000 -0.016271 -0.097599 0.000000 -0.007069 -0.100604 0.000000 