# vtk DataFile Version 2.0
Comment goes here
ASCII

DATASET STRUCTURED_POINTS
FIELD FieldData 1
TIME 1 1 double
1.32000000
DIMENSIONS    64   64   1

ORIGIN    0.000   0.000   0.000
SPACING   0.015625 0.015625   1.000

POINT_DATA   4096
VECTORS u double

0.001553 0.000000 0.000000 0.001393 0.000000 0.000000 0.000595 0.000000 0.000000 -0.000008 0.000000 0.000000 -0.001588 0.000000 0.000000 -0.003222 0.000000 0.000000 -0.006107 0.000000 0.000000 -0.009259 0.000000 0.000000 -0.013842 0.000000 0.000000 -0.018828 0.000000 0.000000 -0.025303 0.000000 0.000000 -0.032191 0.000000 0.000000 -0.040476 0.000000 0.000000 -0.049004 0.000000 0.000000 -0.058662 0.000000 0.000000 -0.068168 0.000000 0.000000 -0.078352 0.000000 0.000000 -0.087755 0.000000 0.000000 -0.097213 0.000000 0.000000 -0.105082 0.000000 0.000000 -0.112276 0.000000 0.000000 -0.117028 0.000000 0.000000 -0.120375 0.000000 0.000000 -0.120580 0.000000 0.000000 -0.118776 0.000000 0.000000 -0.113461 0.000000 0.000000 -0.105764 0.000000 0.000000 -0.094623 0.000000 0.000000 -0.081042 0.000000 0.000000 -0.064596 0.000000 0.000000 -0.046114 0.000000 0.000000 -0.025969 0.000000 0.000000 -0.004747 0.000000 0.000000 0.016387 0.000000 0.000000 0.037322 0.000000 0.000000 0.056321 0.000000 0.000000 0.074045 0.000000 0.000000 0.088422 0.000000 0.000000 0.100979 0.000000 0.000000 0.109447 0.000000 0.000000 0.116055 0.000000 0.000000 0.118469 0.000000 0.000000 0.119338 0.000000 0.000000 0.116442 0.000000 0.000000 0.112540 0.000000 0.000000 0.105683 0.000000 0.000000 0.098454 0.000000 0.000000 0.089261 0.000000 0.000000 0.080299 -0.000000 0.000000 0.070345 -0.000000 0.000000 0.061091 -0.000000 0.000000 0.051660 -0.000000 0.000000 0.043211 -0.000000 0.000000 0.035179 -0.000000 0.000000 0.028218 -0.000000 0.000000 0.022041 -0.000000 0.000000 0.016857 0.000000 0.000000 0.012624 0.000000 0.000000 0.009173 0.000000 0.000000 0.006687 0.000000 0.000000 0.004679 0.000000 0.000000 0.003534 0.000000 0.000000 0.002508 0.000000 0.000000 0.002162 0.000000 0.000000 
0.001475 0.000384 0.000000 0.001341 0.000479 0.000000 0.000573 0.000701 0.000000 -0.000006 0.001091 0.000000 -0.001555 0.001607 0.000000 -0.003171 0.002260 0.000000 -0.006028 0.003018 0.000000 -0.009170 0.003867 0.000000 -0.013733 0.004784 0.000000 -0.018723 0.005731 0.000000 -0.025193 0.006682 0.000000 -0.032106 0.007586 0.000000 -0.040408 0.008406 0.000000 -0.048988 0.009093 0.000000 -0.058696 0.009582 0.000000 -0.068284 0.009845 0.000000 -0.078558 0.009793 0.000000 -0.088068 0.009431 0.000000 -0.097658 0.008664 0.000000 -0.105642 0.007531 0.000000 -0.112992 0.005973 0.000000 -0.117839 0.004049 0.000000 -0.121332 0.001776 0.000000 -0.121578 -0.000800 0.000000 -0.119863 -0.003559 0.000000 -0.114508 -0.006506 0.000000 -0.106802 -0.009419 0.000000 -0.095531 -0.012361 0.000000 -0.081834 -0.015013 0.000000 -0.065194 -0.017464 0.000000 -0.046516 -0.019314 0.000000 -0.026149 -0.020684 0.000000 -0.004688 -0.021178 0.000000 0.016663 -0.021034 0.000000 0.037846 -0.019967 0.000000 0.057027 -0.018361 0.000000 0.074969 -0.016051 0.000000 0.089453 -0.013467 0.000000 0.102152 -0.010513 0.000000 0.110617 -0.007538 0.000000 0.117262 -0.004511 0.000000 0.119572 -0.001641 0.000000 0.120385 0.001014 0.000000 0.117333 0.003399 0.000000 0.113316 0.005380 0.000000 0.106299 0.007043 0.000000 0.098933 0.008211 0.000000 0.089608 0.009078 0.000000 0.080513 0.009458 0.000000 0.070466 0.009604 0.000000 0.061103 0.009343 0.000000 0.051617 0.008940 0.000000 0.043090 0.008240 0.000000 0.035033 0.007496 0.000000 0.028026 0.006569 0.000000 0.021845 0.005681 0.000000 0.016639 0.004709 0.000000 0.012417 0.003842 0.000000 0.008965 0.002968 0.000000 0.006497 0.002247 0.000000 0.004502 0.001577 0.000000 0.003381 0.001086 0.000000 0.002376 0.000686 0.000000 0.002056 0.000477 0.000000 
0.001565 0.000715 0.000000 0.001597 0.000902 0.000000 0.000979 0.001347 0.000000 0.000566 0.002129 0.000000 -0.000835 0.003165 0.000000 -0.002282 0.004473 0.000000 -0.004993 0.005999 0.000000 -0.007967 0.007705 0.000000 -0.012385 0.009553 0.000000 -0.017212 0.011460 0.000000 -0.023539 0.013383 0.000000 -0.030298 0.015215 0.000000 -0.038465 0.016882 0.000000 -0.046905 0.018288 0.000000 -0.056484 0.019296 0.000000 -0.065949 0.019863 0.000000 -0.076099 0.019784 0.000000 -0.085496 0.019100 0.000000 -0.094955 0.017573 0.000000 -0.102827 0.015334 0.000000 -0.110034 0.012197 0.000000 -0.114773 0.008340 0.000000 -0.118136 0.003739 0.000000 -0.118328 -0.001470 0.000000 -0.116581 -0.007070 0.000000 -0.111338 -0.013061 0.000000 -0.103826 -0.018977 0.000000 -0.092923 -0.024968 0.000000 -0.079678 -0.030337 0.000000 -0.063586 -0.035318 0.000000 -0.045481 -0.039044 0.000000 -0.025678 -0.041828 0.000000 -0.004784 -0.042812 0.000000 0.016040 -0.042534 0.000000 0.036659 -0.040364 0.000000 0.055321 -0.037122 0.000000 0.072723 -0.032426 0.000000 0.086777 -0.027183 0.000000 0.099098 -0.021164 0.000000 0.107349 -0.015110 0.000000 0.113864 -0.008955 0.000000 0.116177 -0.003123 0.000000 0.117042 0.002239 0.000000 0.114108 0.007069 0.000000 0.110226 0.011034 0.000000 0.103357 0.014383 0.000000 0.096149 0.016691 0.000000 0.086966 0.018420 0.000000 0.078034 0.019141 0.000000 0.068123 0.019410 0.000000 0.058926 0.018849 0.000000 0.049579 0.018013 0.000000 0.041224 0.016584 0.000000 0.033314 0.015065 0.000000 0.026481 0.013188 0.000000 0.020457 0.011387 0.000000 0.015425 0.009428 0.000000 0.011365 0.007675 0.000000 0.008083 0.005919 0.000000 0.005781 0.004462 0.000000 0.003950 0.003117 0.000000 0.002994 0.002126 0.000000 0.002147 0.001324 0.000000 0.001993 0.000901 0.000000 
0.001496 0.000781 0.000000 0.001746 0.001065 0.000000 0.001339 0.001731 0.000000 0.001142 0.002905 0.000000 -0.000050 0.004456 0.000000 -0.001290 0.006417 0.000000 -0.003796 0.008703 0.000000 -0.006581 0.011260 0.000000 -0.010810 0.014029 0.000000 -0.015478 0.016885 0.000000 -0.021646 0.019768 0.000000 -0.028297 0.022512 0.000000 -0.036353 0.025013 0.000000 -0.044755 0.027112 0.000000 -0.054296 0.028626 0.000000 -0.063799 0.029459 0.000000 -0.073998 0.029340 0.000000 -0.083498 0.028287 0.000000 -0.093088 0.025995 0.000000 -0.101082 0.022611 0.000000 -0.108468 0.017920 0.000000 -0.113289 0.012151 0.000000 -0.116828 0.005331 0.000000 -0.117039 -0.002354 0.000000 -0.115443 -0.010549 0.000000 -0.110205 -0.019261 0.000000 -0.102848 -0.027835 0.000000 -0.092007 -0.036508 0.000000 -0.078952 -0.044350 0.000000 -0.063004 -0.051662 0.000000 -0.045094 -0.057221 0.000000 -0.025458 -0.061381 0.000000 -0.004717 -0.062896 0.000000 0.015944 -0.062477 0.000000 0.036439 -0.059248 0.000000 0.054915 -0.054426 0.000000 0.072217 -0.047506 0.000000 0.086070 -0.039842 0.000000 0.098338 -0.031085 0.000000 0.106380 -0.022304 0.000000 0.112857 -0.013339 0.000000 0.114954 -0.004819 0.000000 0.115764 0.003083 0.000000 0.112623 0.010215 0.000000 0.108644 0.016131 0.000000 0.101600 0.021120 0.000000 0.094269 0.024602 0.000000 0.084970 0.027193 0.000000 0.075931 0.028301 0.000000 0.065981 0.028712 0.000000 0.056731 0.027887 0.000000 0.047423 0.026643 0.000000 0.039084 0.024505 0.000000 0.031279 0.022239 0.000000 0.024529 0.019426 0.000000 0.018659 0.016737 0.000000 0.013762 0.013800 0.000000 0.009888 0.011184 0.000000 0.006776 0.008553 0.000000 0.004678 0.006380 0.000000 0.003038 0.004364 0.000000 0.002296 0.002888 0.000000 0.001653 0.001687 0.000000 0.001716 0.001060 0.000000 
0.001602 0.000685 0.000000 0.002202 0.001059 0.000000 0.002117 0.001951 0.000000 0.002270 0.003517 0.000000 0.001397 0.005596 0.000000 0.000505 0.008220 0.000000 -0.001687 0.011290 0.000000 -0.004132 0.014718 0.000000 -0.008056 0.018451 0.000000 -0.012405 0.022296 0.000000 -0.018288 0.026202 0.000000 -0.024657 0.029922 0.000000 -0.032461 0.033339 0.000000 -0.040631 0.036230 0.000000 -0.049962 0.038341 0.000000 -0.059287 0.039565 0.000000 -0.069311 0.039483 0.000000 -0.078660 0.038190 0.000000 -0.088074 0.035158 0.000000 -0.095886 0.030714 0.000000 -0.103037 0.024404 0.000000 -0.107597 0.016700 0.000000 -0.110836 0.007489 0.000000 -0.110773 -0.002854 0.000000 -0.108977 -0.013904 0.000000 -0.103736 -0.025657 0.000000 -0.096641 -0.037176 0.000000 -0.086424 -0.048864 0.000000 -0.074283 -0.059340 0.000000 -0.059459 -0.069176 0.000000 -0.042765 -0.076590 0.000000 -0.024309 -0.082205 0.000000 -0.004740 -0.084215 0.000000 0.014816 -0.083689 0.000000 0.034137 -0.079334 0.000000 0.051477 -0.072900 0.000000 0.067659 -0.063581 0.000000 0.080584 -0.053304 0.000000 0.092176 -0.041474 0.000000 0.099850 -0.029629 0.000000 0.106260 -0.017529 0.000000 0.108462 -0.006030 0.000000 0.109525 0.004570 0.000000 0.106653 0.014189 0.000000 0.102982 0.022056 0.000000 0.096189 0.028758 0.000000 0.089122 0.033321 0.000000 0.080027 0.036757 0.000000 0.071222 0.038130 0.000000 0.061468 0.038610 0.000000 0.052457 0.037408 0.000000 0.043374 0.035660 0.000000 0.035304 0.032727 0.000000 0.027767 0.029619 0.000000 0.021317 0.025809 0.000000 0.015751 0.022154 0.000000 0.011176 0.018199 0.000000 0.007632 0.014661 0.000000 0.004852 0.011129 0.000000 0.003097 0.008200 0.000000 0.001792 0.005499 0.000000 0.001397 0.003512 0.000000 0.001084 0.001904 0.000000 0.001496 0.001058 0.000000 
0.001542 0.000075 0.000000 0.002543 0.000550 0.000000 0.002840 0.001663 0.000000 0.003393 0.003625 0.000000 0.002900 0.006221 0.000000 0.002401 0.009502 0.000000 0.000583 0.013340 0.000000 -0.001491 0.017629 0.000000 -0.005057 0.022303 0.000000 -0.009079 0.027117 0.000000 -0.014640 0.032020 0.000000 -0.020758 0.036684 0.000000 -0.028305 0.040987 0.000000 -0.036333 0.044613 0.000000 -0.045506 0.047283 0.000000 -0.054812 0.048809 0.000000 -0.064801 0.048713 0.000000 -0.074226 0.047050 0.000000 -0.083715 0.043221 0.000000 -0.091607 0.037574 0.000000 -0.098882 0.029631 0.000000 -0.103403 0.019950 0.000000 -0.106733 0.008506 0.000000 -0.106483 -0.004214 0.000000 -0.104742 -0.017586 0.000000 -0.099357 -0.031597 0.000000 -0.092439 -0.045147 0.000000 -0.082365 -0.058866 0.000000 -0.070716 -0.071315 0.000000 -0.056500 -0.083179 0.000000 -0.040634 -0.092371 0.000000 -0.023085 -0.099407 0.000000 -0.004463 -0.102021 0.000000 0.014131 -0.101353 0.000000 0.032561 -0.095909 0.000000 0.049042 -0.087948 0.000000 0.064612 -0.076614 0.000000 0.076973 -0.064358 0.000000 0.088379 -0.050350 0.000000 0.095733 -0.036387 0.000000 0.102191 -0.021951 0.000000 0.104192 -0.008084 0.000000 0.105372 0.004891 0.000000 0.102362 0.016757 0.000000 0.098728 0.026595 0.000000 0.091837 0.034979 0.000000 0.084718 0.040763 0.000000 0.075588 0.045093 0.000000 0.066724 0.046860 0.000000 0.057027 0.047477 0.000000 0.048030 0.045980 0.000000 0.039107 0.043796 0.000000 0.031156 0.040112 0.000000 0.023869 0.036226 0.000000 0.017638 0.031442 0.000000 0.012390 0.026877 0.000000 0.008109 0.021919 0.000000 0.004925 0.017508 0.000000 0.002488 0.013088 0.000000 0.001117 0.009441 0.000000 0.000178 0.006064 0.000000 0.000178 0.003596 0.000000 0.000243 0.001587 0.000000 0.001055 0.000542 0.000000 
0.001670 -0.000803 0.000000 0.003187 -0.000239 0.000000 0.003957 0.001101 0.000000 0.005027 0.003456 0.000000 0.005006 0.006588 0.000000 0.005023 0.010537 0.000000 0.003671 0.015182 0.000000 0.002102 0.020358 0.000000 -0.001010 0.026039 0.000000 -0.004560 0.031880 0.000000 -0.009695 0.037880 0.000000 -0.015398 0.043587 0.000000 -0.022569 0.048914 0.000000 -0.030265 0.053430 0.000000 -0.039129 0.056821 0.000000 -0.048188 0.058860 0.000000 -0.057921 0.058897 0.000000 -0.067125 0.057105 0.000000 -0.076332 0.052539 0.000000 -0.083884 0.045881 0.000000 -0.090692 0.036200 0.000000 -0.094584 0.024551 0.000000 -0.097148 0.010570 0.000000 -0.096005 -0.004845 0.000000 -0.093439 -0.021030 0.000000 -0.087491 -0.037960 0.000000 -0.080616 -0.054168 0.000000 -0.071442 -0.070586 0.000000 -0.061447 -0.085205 0.000000 -0.049390 -0.099258 0.000000 -0.035899 -0.110005 0.000000 -0.020612 -0.118377 0.000000 -0.004185 -0.121431 0.000000 0.012326 -0.120714 0.000000 0.028479 -0.114245 0.000000 0.042662 -0.104951 0.000000 0.055992 -0.091512 0.000000 0.066552 -0.077071 0.000000 0.076873 -0.060233 0.000000 0.083890 -0.043441 0.000000 0.090752 -0.025989 0.000000 0.093398 -0.009212 0.000000 0.095429 0.006401 0.000000 0.093159 0.020834 0.000000 0.090238 0.032582 0.000000 0.083852 0.042768 0.000000 0.077205 0.049570 0.000000 0.068395 0.054751 0.000000 0.059871 0.056691 0.000000 0.050450 0.057304 0.000000 0.041779 0.055328 0.000000 0.033176 0.052534 0.000000 0.025595 0.047965 0.000000 0.018700 0.043137 0.000000 0.012892 0.037288 0.000000 0.008096 0.031683 0.000000 0.004278 0.025663 0.000000 0.001584 0.020282 0.000000 -0.000371 0.014938 0.000000 -0.001234 0.010510 0.000000 -0.001685 0.006437 0.000000 -0.001171 0.003447 0.000000 -0.000622 0.001028 0.000000 0.000705 -0.000241 0.000000 
0.001620 -0.002407 0.000000 0.003697 -0.001736 0.000000 0.004996 -0.000178 0.000000 0.006630 0.002576 0.000000 0.007138 0.006225 0.000000 0.007717 0.010836 0.000000 0.006895 0.016261 0.000000 0.005874 0.022310 0.000000 0.003283 0.028964 0.000000 0.000237 0.035802 0.000000 -0.004405 0.042858 0.000000 -0.009693 0.049558 0.000000 -0.016429 0.055854 0.000000 -0.023851 0.061173 0.000000 -0.032385 0.065206 0.000000 -0.041344 0.067601 0.000000 -0.050893 0.067649 0.000000 -0.060138 0.065461 0.000000 -0.069302 0.059980 0.000000 -0.076876 0.051935 0.000000 -0.083701 0.040331 0.000000 -0.087352 0.026405 0.000000 -0.089872 0.009927 0.000000 -0.088148 -0.007922 0.000000 -0.085426 -0.026100 0.000000 -0.078984 -0.044421 0.000000 -0.072096 -0.061196 0.000000 -0.062860 -0.078035 0.000000 -0.053473 -0.093367 0.000000 -0.042520 -0.108727 0.000000 -0.030706 -0.121149 0.000000 -0.017505 -0.131121 0.000000 -0.003358 -0.134959 0.000000 0.010825 -0.134017 0.000000 0.024773 -0.126245 0.000000 0.037066 -0.115461 0.000000 0.049113 -0.100504 0.000000 0.058871 -0.085239 0.000000 0.069156 -0.067689 0.000000 0.075922 -0.050266 0.000000 0.083114 -0.031459 0.000000 0.085651 -0.012762 0.000000 0.088154 0.005131 0.000000 0.085884 0.021948 0.000000 0.083212 0.035902 0.000000 0.076862 0.048012 0.000000 0.070235 0.056220 0.000000 0.061517 0.062427 0.000000 0.052972 0.064806 0.000000 0.043747 0.065569 0.000000 0.035160 0.063254 0.000000 0.026871 0.059980 0.000000 0.019527 0.054589 0.000000 0.013047 0.048929 0.000000 0.007608 0.042046 0.000000 0.003298 0.035491 0.000000 -0.000061 0.028431 0.000000 -0.002226 0.022156 0.000000 -0.003672 0.015906 0.000000 -0.003987 0.010755 0.000000 -0.003909 0.006001 0.000000 -0.002840 0.002533 0.000000 -0.001759 -0.000288 0.000000 0.000125 -0.001750 0.000000 
0.001778 -0.004375 0.000000 0.004499 -0.003614 0.000000 0.006386 -0.001832 0.000000 0.008671 0.001314 0.000000 0.009767 0.005500 0.000000 0.011005 0.010779 0.000000 0.010773 0.017025 0.000000 0.010407 0.023971 0.000000 0.008401 0.031677 0.000000 0.005981 0.039567 0.000000 0.001904 0.047810 0.000000 -0.002826 0.055612 0.000000 -0.009050 0.063072 0.000000 -0.016028 0.069386 0.000000 -0.024139 0.074314 0.000000 -0.032795 0.077368 0.000000 -0.042022 0.077690 0.000000 -0.051033 0.075514 0.000000 -0.059871 0.069277 0.000000 -0.067029 0.060280 0.000000 -0.073213 0.046676 0.000000 -0.075854 0.030722 0.000000 -0.077012 0.011366 0.000000 -0.073412 -0.009292 0.000000 -0.068633 -0.030195 0.000000 -0.060238 -0.051289 0.000000 -0.052578 -0.070292 0.000000 -0.044604 -0.089210 0.000000 -0.038126 -0.105545 0.000000 -0.031057 -0.122026 0.000000 -0.023314 -0.135020 0.000000 -0.013610 -0.145724 0.000000 -0.002513 -0.149761 0.000000 0.008849 -0.148845 0.000000 0.019277 -0.140486 0.000000 0.027588 -0.129290 0.000000 0.035486 -0.113318 0.000000 0.041908 -0.097115 0.000000 0.050520 -0.077285 0.000000 0.057432 -0.057400 0.000000 0.066371 -0.035717 0.000000 0.070770 -0.014251 0.000000 0.075117 0.006168 0.000000 0.074245 0.025775 0.000000 0.072710 0.041604 0.000000 0.067027 0.055746 0.000000 0.060958 0.064915 0.000000 0.052549 0.072014 0.000000 0.044352 0.074462 0.000000 0.035412 0.075115 0.000000 0.027198 0.072204 0.000000 0.019308 0.068168 0.000000 0.012430 0.061790 0.000000 0.006468 0.055056 0.000000 0.001577 0.047037 0.000000 -0.002136 0.039351 0.000000 -0.004900 0.031187 0.000000 -0.006428 0.023894 0.000000 -0.007261 0.016699 0.000000 -0.006927 0.010747 0.000000 -0.006238 0.005290 0.000000 -0.004521 0.001296 0.000000 -0.002838 -0.001937 0.000000 -0.000310 -0.003621 0.000000 
0.001744 -0.007216 0.000000 0.005134 -0.006344 0.000000 0.007647 -0.004350 0.000000 0.010615 -0.000806 0.000000 0.012344 0.003891 0.000000 0.014283 0.009830 0.000000 0.014697 0.016859 0.000000 0.015040 0.024682 0.000000 0.013697 0.033390 0.000000 0.011966 0.042299 0.000000 0.008560 0.051666 0.000000 0.004438 0.060512 0.000000 -0.001140 0.069056 0.000000 -0.007682 0.076262 0.000000 -0.015247 0.081972 0.000000 -0.023744 0.085484 0.000000 -0.032624 0.085888 0.000000 -0.041778 0.083310 0.000000 -0.050521 0.075976 0.000000 -0.057898 0.065278 0.000000 -0.064186 0.049155 0.000000 -0.066646 0.030204 0.000000 -0.068027 0.007485 0.000000 -0.063576 -0.016302 0.000000 -0.058882 -0.039274 0.000000 -0.050014 -0.060476 0.000000 -0.042105 -0.076829 0.000000 -0.033002 -0.092487 0.000000 -0.026096 -0.106914 0.000000 -0.019760 -0.123539 0.000000 -0.014015 -0.138596 0.000000 -0.007678 -0.151922 0.000000 -0.000590 -0.157418 0.000000 0.006609 -0.155807 0.000000 0.013143 -0.144984 0.000000 0.018706 -0.131670 0.000000 0.025266 -0.114823 0.000000 0.031891 -0.100273 0.000000 0.041723 -0.083213 0.000000 0.048634 -0.066117 0.000000 0.057914 -0.044797 0.000000 0.061759 -0.021507 0.000000 0.066787 0.001656 0.000000 0.065717 0.024355 0.000000 0.064333 0.043119 0.000000 0.058563 0.059764 0.000000 0.052229 0.070699 0.000000 0.043875 0.079033 0.000000 0.035467 0.081943 0.000000 0.026794 0.082723 0.000000 0.018656 0.079358 0.000000 0.011228 0.074748 0.000000 0.004703 0.067429 0.000000 -0.000670 0.059782 0.000000 -0.005026 0.050650 0.000000 -0.008084 0.041968 0.000000 -0.010220 0.032723 0.000000 -0.011071 0.024518 0.000000 -0.011245 0.016404 0.000000 -0.010232 0.009731 0.000000 -0.008884 0.003595 0.000000 -0.006495 -0.000867 0.000000 -0.004169 -0.004499 0.000000 -0.000975 -0.006366 0.000000 
0.001941 -0.010484 0.000000 0.006039 -0.009517 0.000000 0.009188 -0.007313 0.000000 0.012881 -0.003382 0.000000 0.015254 0.001833 0.000000 0.017945 0.008426 0.000000 0.019023 0.016268 0.000000 0.020141 0.024971 0.000000 0.019482 0.034751 0.000000 0.018523 0.044705 0.000000 0.015810 0.055337 0.000000 0.012397 0.065312 0.000000 0.007469 0.075192 0.000000 0.001463 0.083492 0.000000 -0.005609 0.090377 0.000000 -0.013883 0.094746 0.000000 -0.022568 0.095724 0.000000 -0.031831 0.093411 0.000000 -0.040636 0.085397 0.000000 -0.048089 0.073944 0.000000 -0.054192 0.055424 0.000000 -0.055872 0.034564 0.000000 -0.055840 0.008296 0.000000 -0.048607 -0.018437 0.000000 -0.039807 -0.043757 0.000000 -0.025545 -0.068066 0.000000 -0.014446 -0.087304 0.000000 -0.007379 -0.105219 0.000000 -0.005888 -0.118787 0.000000 -0.006263 -0.134106 0.000000 -0.006629 -0.147102 0.000000 -0.004118 -0.159150 0.000000 0.001045 -0.164048 0.000000 0.006904 -0.162578 0.000000 0.009826 -0.152582 0.000000 0.009623 -0.141413 0.000000 0.008906 -0.126503 0.000000 0.009138 -0.113571 0.000000 0.016092 -0.094028 0.000000 0.024872 -0.073592 0.000000 0.039606 -0.048842 0.000000 0.047715 -0.023124 0.000000 0.055550 0.002210 0.000000 0.056127 0.028230 0.000000 0.055636 0.048758 0.000000 0.049885 0.067850 0.000000 0.043464 0.079603 0.000000 0.034769 0.088775 0.000000 0.026249 0.091542 0.000000 0.017549 0.091927 0.000000 0.009624 0.087770 0.000000 0.002571 0.082121 0.000000 -0.003451 0.073687 0.000000 -0.008194 0.064784 0.000000 -0.011893 0.054451 0.000000 -0.014215 0.044546 0.000000 -0.015643 0.034174 0.000000 -0.015736 0.024919 0.000000 -0.015203 0.015860 0.000000 -0.013446 0.008386 0.000000 -0.011414 0.001554 0.000000 -0.008304 -0.003420 0.000000 -0.005318 -0.007458 0.000000 -0.001418 -0.009533 0.000000 
0.001931 -0.014673 0.000000 0.006724 -0.013591 0.000000 0.010511 -0.011192 0.000000 0.014929 -0.006872 0.000000 0.017955 -0.001173 0.000000 0.021421 0.006062 0.000000 0.023189 0.014664 0.000000 0.025140 0.024223 0.000000 0.025232 0.035007 0.000000 0.025143 0.045972 0.000000 0.023246 0.057791 0.000000 0.020658 0.068852 0.000000 0.016566 0.079991 0.000000 0.011143 0.089340 0.000000 0.004768 0.097318 0.000000 -0.003476 0.102442 0.000000 -0.011851 0.103836 0.000000 -0.021862 0.101378 0.000000 -0.030853 0.092234 0.000000 -0.039452 0.078833 0.000000 -0.046068 0.056938 0.000000 -0.048166 0.031853 0.000000 -0.049333 0.000220 0.000000 -0.040786 -0.032335 0.000000 -0.033877 -0.062336 0.000000 -0.021963 -0.085836 0.000000 -0.011646 -0.094996 0.000000 0.000172 -0.101045 0.000000 0.007648 -0.108030 0.000000 0.010713 -0.122798 0.000000 0.010442 -0.140741 0.000000 0.007974 -0.159597 0.000000 0.005252 -0.168440 0.000000 0.002687 -0.164588 0.000000 -0.001193 -0.147703 0.000000 -0.003736 -0.130750 0.000000 -0.002633 -0.114339 0.000000 0.003991 -0.107460 0.000000 0.016969 -0.098947 0.000000 0.025169 -0.089632 0.000000 0.037520 -0.067640 0.000000 0.042491 -0.037451 0.000000 0.051236 -0.006756 0.000000 0.051060 0.024269 0.000000 0.050026 0.049361 0.000000 0.043566 0.071937 0.000000 0.035663 0.085815 0.000000 0.026464 0.096247 0.000000 0.016890 0.099162 0.000000 0.008183 0.099348 0.000000 0.000035 0.094336 0.000000 -0.006568 0.087824 0.000000 -0.012191 0.078194 0.000000 -0.016229 0.068224 0.000000 -0.019226 0.056671 0.000000 -0.020761 0.045717 0.000000 -0.021402 0.034244 0.000000 -0.020714 0.024078 0.000000 -0.019410 0.014115 0.000000 -0.016908 0.005943 0.000000 -0.014151 -0.001547 0.000000 -0.010331 -0.006963 0.000000 -0.006667 -0.011385 0.000000 -0.002075 -0.013625 0.000000 
0.002181 -0.019284 0.000000 0.007639 -0.018097 0.000000 0.012008 -0.015517 0.000000 0.017126 -0.010826 0.000000 0.020755 -0.004659 0.000000 0.024984 0.003192 0.000000 0.027400 0.012549 0.000000 0.030190 0.022927 0.000000 0.030994 0.034748 0.000000 0.031797 0.046691 0.000000 0.030668 0.059822 0.000000 0.028917 0.071992 0.000000 0.025542 0.084707 0.000000 0.020629 0.095290 0.000000 0.014617 0.104996 0.000000 0.006116 0.111365 0.000000 -0.002701 0.114111 0.000000 -0.013985 0.112413 0.000000 -0.024279 0.102986 0.000000 -0.034405 0.089159 0.000000 -0.042120 0.064138 0.000000 -0.044353 0.037828 0.000000 -0.045042 0.000916 0.000000 -0.033506 -0.033893 0.000000 -0.017850 -0.062580 0.000000 0.010626 -0.090296 0.000000 0.031781 -0.109439 0.000000 0.037706 -0.124514 0.000000 0.032141 -0.129327 0.000000 0.022452 -0.136899 0.000000 0.012774 -0.144364 0.000000 0.007497 -0.153959 0.000000 0.007400 -0.158761 0.000000 0.008964 -0.156134 0.000000 0.003855 -0.146160 0.000000 -0.006137 -0.139973 0.000000 -0.018504 -0.134230 0.000000 -0.027216 -0.133173 0.000000 -0.022826 -0.115207 0.000000 -0.007552 -0.094143 0.000000 0.022627 -0.066164 0.000000 0.038221 -0.036840 0.000000 0.049919 -0.006359 0.000000 0.050977 0.029441 0.000000 0.049973 0.056252 0.000000 0.041683 0.082212 0.000000 0.031901 0.096705 0.000000 0.020626 0.107548 0.000000 0.009591 0.109824 0.000000 -0.000100 0.108782 0.000000 -0.008661 0.102521 0.000000 -0.015182 0.094347 0.000000 -0.020449 0.083348 0.000000 -0.023828 0.071819 0.000000 -0.026126 0.058983 0.000000 -0.026826 0.046722 0.000000 -0.026696 0.034128 0.000000 -0.025187 0.022927 0.000000 -0.023151 0.012053 0.000000 -0.019892 0.003127 0.000000 -0.016466 -0.005023 0.000000 -0.011949 -0.010904 0.000000 -0.007667 -0.015714 0.000000 -0.002412 -0.018131 0.000000 
0.002208 -0.024724 0.000000 0.008258 -0.023417 0.000000 0.013150 -0.020679 0.000000 0.018913 -0.015619 0.000000 0.023089 -0.009032 0.000000 0.028061 -0.000583 0.000000 0.031090 0.009458 0.000000 0.034756 0.020629 0.000000 0.036280 0.033401 0.000000 0.038087 0.046298 0.000000 0.037800 0.060671 0.000000 0.037049 0.073979 0.000000 0.034528 0.088279 0.000000 0.030206 0.100265 0.000000 0.024707 0.111831 0.000000 0.015651 0.119761 0.000000 0.006547 0.123936 0.000000 -0.006964 0.122956 0.000000 -0.017982 0.112655 0.000000 -0.030738 0.096675 0.000000 -0.037541 0.066886 0.000000 -0.039214 0.034775 0.000000 -0.038868 -0.010627 0.000000 -0.018100 -0.059527 0.000000 -0.007113 -0.106468 0.000000 0.003001 -0.135468 0.000000 0.011545 -0.122076 0.000000 0.032134 -0.101405 0.000000 0.055367 -0.092776 0.000000 0.067060 -0.103431 0.000000 0.065971 -0.125786 0.000000 0.047606 -0.154223 0.000000 0.016804 -0.169907 0.000000 -0.015289 -0.161043 0.000000 -0.040512 -0.132602 0.000000 -0.050115 -0.108391 0.000000 -0.044513 -0.093259 0.000000 -0.019565 -0.103138 0.000000 0.005575 -0.118611 0.000000 0.009969 -0.135085 0.000000 0.019784 -0.113413 0.000000 0.025096 -0.064743 0.000000 0.044926 -0.019512 0.000000 0.050001 0.024214 0.000000 0.049880 0.058655 0.000000 0.041954 0.090009 0.000000 0.029077 0.106872 0.000000 0.016628 0.118557 0.000000 0.002924 0.119888 0.000000 -0.007661 0.117600 0.000000 -0.017254 0.109417 0.000000 -0.023789 0.099612 0.000000 -0.028821 0.086841 0.000000 -0.031607 0.073901 0.000000 -0.033109 0.059668 0.000000 -0.033009 0.046287 0.000000 -0.031989 0.032605 0.000000 -0.029697 0.020533 0.000000 -0.026858 0.008820 0.000000 -0.022898 -0.000742 0.000000 -0.018787 -0.009491 0.000000 -0.013641 -0.015762 0.000000 -0.008767 -0.020921 0.000000 -0.002924 -0.023474 0.000000 
0.002521 -0.030465 0.000000 0.009044 -0.029039 0.000000 0.014327 -0.026172 0.000000 0.020622 -0.020765 0.000000 0.025225 -0.013807 0.000000 0.030843 -0.004809 0.000000 0.034369 0.005854 0.000000 0.038833 0.017737 0.000000 0.040959 0.031417 0.000000 0.043696 0.045171 0.000000 0.044094 0.060859 0.000000 0.044201 0.075264 0.000000 0.042228 0.091551 0.000000 0.038109 0.105111 0.000000 0.032418 0.119551 0.000000 0.021960 0.129524 0.000000 0.011120 0.136726 0.000000 -0.005723 0.136942 0.000000 -0.019461 0.126759 0.000000 -0.034443 0.108718 0.000000 -0.040591 0.072614 0.000000 -0.037970 0.039155 0.000000 -0.035248 -0.020198 0.000000 -0.016110 -0.065647 0.000000 0.019068 -0.083681 0.000000 0.089236 -0.108955 0.000000 0.129414 -0.138571 0.000000 0.119354 -0.168336 0.000000 0.108266 -0.164253 0.000000 0.097945 -0.147503 0.000000 0.080391 -0.124909 0.000000 0.055576 -0.104792 0.000000 0.018362 -0.095867 0.000000 -0.020614 -0.098819 0.000000 -0.048398 -0.111334 0.000000 -0.065929 -0.135972 0.000000 -0.079201 -0.164779 0.000000 -0.092258 -0.183261 0.000000 -0.108654 -0.144740 0.000000 -0.085457 -0.108352 0.000000 -0.013077 -0.081291 0.000000 0.025882 -0.061982 0.000000 0.043667 -0.031265 0.000000 0.051666 0.024486 0.000000 0.057206 0.064299 0.000000 0.048627 0.103015 0.000000 0.033556 0.122031 0.000000 0.017833 0.133702 0.000000 0.001116 0.134113 0.000000 -0.011835 0.128960 0.000000 -0.023033 0.118649 0.000000 -0.030200 0.105914 0.000000 -0.035401 0.091166 0.000000 -0.037734 0.076107 0.000000 -0.038684 0.060385 0.000000 -0.037789 0.045601 0.000000 -0.036059 0.030816 0.000000 -0.033005 0.017796 0.000000 -0.029532 0.005255 0.000000 -0.024937 -0.004944 0.000000 -0.020304 -0.014280 0.000000 -0.014631 -0.020924 0.000000 -0.009319 -0.026431 0.000000 -0.003005 -0.029106 0.000000 
0.002600 -0.036773 0.000000 0.009445 -0.035224 0.000000 0.014979 -0.032257 0.000000 0.021672 -0.026516 0.000000 0.026555 -0.019252 0.000000 0.032722 -0.009727 0.000000 0.036607 0.001468 0.000000 0.041841 0.014039 0.000000 0.044449 0.028538 0.000000 0.048182 0.043163 0.000000 0.049159 0.060166 0.000000 0.050267 0.075844 0.000000 0.048709 0.094370 0.000000 0.044886 0.110075 0.000000 0.038819 0.127979 0.000000 0.026759 0.141058 0.000000 0.014346 0.151619 0.000000 -0.006406 0.153538 0.000000 -0.020202 0.141375 0.000000 -0.036789 0.117804 0.000000 -0.029700 0.070413 0.000000 -0.016734 0.029432 0.000000 0.019573 -0.032487 0.000000 0.098944 -0.113844 0.000000 0.142666 -0.211815 0.000000 0.130486 -0.245813 0.000000 0.066125 -0.152193 0.000000 -0.003953 -0.080257 0.000000 -0.036261 -0.071367 0.000000 -0.053732 -0.075556 0.000000 -0.056505 -0.083416 0.000000 -0.039227 -0.092193 0.000000 -0.009527 -0.093717 0.000000 0.025592 -0.094283 0.000000 0.049553 -0.087287 0.000000 0.062666 -0.077588 0.000000 0.051631 -0.066930 0.000000 0.021434 -0.073684 0.000000 -0.044524 -0.125412 0.000000 -0.112311 -0.230663 0.000000 -0.132551 -0.224753 0.000000 -0.108157 -0.121486 0.000000 -0.026103 -0.045296 0.000000 0.026494 0.010675 0.000000 0.046320 0.061694 0.000000 0.050131 0.113659 0.000000 0.035293 0.137666 0.000000 0.021337 0.150997 0.000000 0.001448 0.149556 0.000000 -0.013551 0.141749 0.000000 -0.026928 0.127783 0.000000 -0.035401 0.111979 0.000000 -0.040922 0.094375 0.000000 -0.043290 0.077184 0.000000 -0.043576 0.059722 0.000000 -0.042137 0.043662 0.000000 -0.039573 0.027821 0.000000 -0.035910 0.014005 0.000000 -0.031758 0.000753 0.000000 -0.026665 -0.009970 0.000000 -0.021546 -0.019797 0.000000 -0.015489 -0.026746 0.000000 -0.009831 -0.032548 0.000000 -0.003196 -0.035314 0.000000 