# vtk DataFile Version 2.0
Comment goes here
ASCII

DATASET STRUCTURED_POINTS
FIELD FieldData 1
TIME 1 1 double
1.46000000
DIMENSIONS    64   64   1

ORIGIN    0.000   0.000   0.000
SPACING   0.015625 0.015625   1.000

POINT_DATA   4096
VECTORS u double

0.000564 0.000000 0.000000 0.002695 0.000000 0.000000 0.005093 0.000000 0.000000 0.006758 0.000000 0.000000 0.008441 0.000000 0.000000 0.009080 0.000000 0.000000 0.009507 0.000000 0.000000 0.008648 0.000000 0.000000 0.007387 0.000000 0.000000 0.004707 0.000000 0.000000 0.001506 0.000000 0.000000 -0.003107 0.000000 0.000000 -0.008251 0.000000 0.000000 -0.014620 0.000000 0.000000 -0.021388 0.000000 0.000000 -0.028987 0.000000 0.000000 -0.036689 0.000000 0.000000 -0.044619 0.000000 0.000000 -0.052213 0.000000 0.000000 -0.059267 0.000000 0.000000 -0.065479 0.000000 0.000000 -0.070316 0.000000 0.000000 -0.073871 0.000000 0.000000 -0.075287 0.000000 0.000000 -0.075178 0.000000 0.000000 -0.072365 0.000000 0.000000 -0.068049 0.000000 0.000000 -0.060781 0.000000 0.000000 -0.052306 0.000000 0.000000 -0.041063 0.000000 0.000000 -0.029212 0.000000 0.000000 -0.015302 0.000000 0.000000 -0.001680 0.000000 0.000000 0.012853 0.000000 0.000000 0.026083 0.000000 0.000000 0.038960 0.000000 0.000000 0.049734 0.000000 0.000000 0.059155 0.000000 0.000000 0.066112 0.000000 0.000000 0.071149 0.000000 0.000000 0.073807 0.000000 0.000000 0.074388 0.000000 0.000000 0.073012 0.000000 0.000000 0.069741 0.000000 0.000000 0.065135 0.000000 0.000000 0.059083 0.000000 0.000000 0.052390 0.000000 0.000000 0.044856 0.000000 0.000000 0.037335 0.000000 0.000000 0.029589 0.000000 0.000000 0.022386 0.000000 0.000000 0.015468 0.000000 0.000000 0.009458 0.000000 0.000000 0.004068 0.000000 0.000000 -0.000216 0.000000 0.000000 -0.003737 0.000000 0.000000 -0.006100 0.000000 0.000000 -0.007731 0.000000 0.000000 -0.008266 0.000000 0.000000 -0.008237 0.000000 0.000000 -0.007256 0.000000 0.000000 -0.005979 0.000000 0.000000 -0.003950 0.000000 0.000000 -0.001952 0.000000 0.000000 
0.000736 -0.002323 0.000000 0.002920 -0.002265 0.000000 0.005378 -0.002032 0.000000 0.007100 -0.001674 0.000000 0.008845 -0.001161 0.000000 0.009550 -0.000533 0.000000 0.010044 0.000216 0.000000 0.009266 0.001060 0.000000 0.008080 0.001971 0.000000 0.005499 0.002941 0.000000 0.002385 0.003907 0.000000 -0.002106 0.004879 0.000000 -0.007147 0.005757 0.000000 -0.013366 0.006569 0.000000 -0.020007 0.007183 0.000000 -0.027425 0.007650 0.000000 -0.034968 0.007816 0.000000 -0.042684 0.007762 0.000000 -0.050077 0.007324 0.000000 -0.056890 0.006633 0.000000 -0.062860 0.005525 0.000000 -0.067458 0.004196 0.000000 -0.070764 0.002486 0.000000 -0.072003 0.000653 0.000000 -0.071724 -0.001461 0.000000 -0.068900 -0.003564 0.000000 -0.064633 -0.005792 0.000000 -0.057626 -0.007872 0.000000 -0.049532 -0.009859 0.000000 -0.038856 -0.011547 0.000000 -0.027683 -0.012881 0.000000 -0.014543 -0.013766 0.000000 -0.001739 -0.014078 0.000000 0.011967 -0.013881 0.000000 0.024403 -0.013053 0.000000 0.036551 -0.011826 0.000000 0.046721 -0.010098 0.000000 0.055677 -0.008189 0.000000 0.062356 -0.005997 0.000000 0.067275 -0.003848 0.000000 0.069977 -0.001619 0.000000 0.070707 0.000397 0.000000 0.069576 0.002323 0.000000 0.066591 0.003939 0.000000 0.062295 0.005329 0.000000 0.056563 0.006372 0.000000 0.050164 0.007113 0.000000 0.042925 0.007528 0.000000 0.035651 0.007634 0.000000 0.028152 0.007474 0.000000 0.021147 0.007061 0.000000 0.014426 0.006464 0.000000 0.008574 0.005700 0.000000 0.003338 0.004837 0.000000 -0.000821 0.003902 0.000000 -0.004223 0.002942 0.000000 -0.006485 0.001997 0.000000 -0.008024 0.001083 0.000000 -0.008476 0.000253 0.000000 -0.008374 -0.000505 0.000000 -0.007322 -0.001129 0.000000 -0.005984 -0.001653 0.000000 -0.003891 -0.002014 0.000000 -0.001840 -0.002257 0.000000 
0.000570 -0.004759 0.000000 0.002901 -0.004641 0.000000 0.005508 -0.004180 0.000000 0.007376 -0.003467 0.000000 0.009275 -0.002450 0.000000 0.010124 -0.001199 0.000000 0.010776 0.000285 0.000000 0.010135 0.001963 0.000000 0.009108 0.003767 0.000000 0.006649 0.005695 0.000000 0.003682 0.007605 0.000000 -0.000716 0.009532 0.000000 -0.005640 0.011260 0.000000 -0.011816 0.012861 0.000000 -0.018396 0.014059 0.000000 -0.025842 0.014961 0.000000 -0.033403 0.015259 0.000000 -0.041232 0.015109 0.000000 -0.048737 0.014206 0.000000 -0.055742 0.012784 0.000000 -0.061915 0.010568 0.000000 -0.066755 0.007903 0.000000 -0.070330 0.004544 0.000000 -0.071817 0.000960 0.000000 -0.071832 -0.003103 0.000000 -0.069205 -0.007091 0.000000 -0.065175 -0.011274 0.000000 -0.058230 -0.015100 0.000000 -0.050185 -0.018770 0.000000 -0.039360 -0.021849 0.000000 -0.027998 -0.024312 0.000000 -0.014525 -0.025944 0.000000 -0.001384 -0.026511 0.000000 0.012704 -0.026142 0.000000 0.025441 -0.024584 0.000000 0.037830 -0.022318 0.000000 0.048097 -0.019126 0.000000 0.057033 -0.015634 0.000000 0.063544 -0.011598 0.000000 0.068197 -0.007622 0.000000 0.070560 -0.003433 0.000000 0.070910 0.000401 0.000000 0.069412 0.004116 0.000000 0.066052 0.007281 0.000000 0.061452 0.010028 0.000000 0.055418 0.012131 0.000000 0.048812 0.013638 0.000000 0.041374 0.014513 0.000000 0.033994 0.014773 0.000000 0.026402 0.014504 0.000000 0.019379 0.013726 0.000000 0.012658 0.012573 0.000000 0.006855 0.011089 0.000000 0.001688 0.009395 0.000000 -0.002376 0.007561 0.000000 -0.005664 0.005665 0.000000 -0.007806 0.003801 0.000000 -0.009205 0.001990 0.000000 -0.009522 0.000350 0.000000 -0.009271 -0.001154 0.000000 -0.008078 -0.002390 0.000000 -0.006589 -0.003431 0.000000 -0.004353 -0.004145 0.000000 -0.002151 -0.004628 0.000000 
0.000749 -0.007376 0.000000 0.003327 -0.007203 0.000000 0.006194 -0.006507 0.000000 0.008315 -0.005441 0.000000 0.010486 -0.003909 0.000000 0.011603 -0.002033 0.000000 0.012542 0.000205 0.000000 0.012191 0.002728 0.000000 0.011467 0.005457 0.000000 0.009321 0.008367 0.000000 0.006667 0.011272 0.000000 0.002601 0.014201 0.000000 -0.002010 0.016857 0.000000 -0.007847 0.019325 0.000000 -0.014123 0.021209 0.000000 -0.021234 0.022657 0.000000 -0.028503 0.023206 0.000000 -0.036006 0.023096 0.000000 -0.043215 0.021834 0.000000 -0.049901 0.019811 0.000000 -0.055753 0.016538 0.000000 -0.060288 0.012611 0.000000 -0.063537 0.007547 0.000000 -0.064808 0.002156 0.000000 -0.064632 -0.004073 0.000000 -0.062057 -0.010222 0.000000 -0.058232 -0.016767 0.000000 -0.051822 -0.022862 0.000000 -0.044614 -0.028728 0.000000 -0.034866 -0.033734 0.000000 -0.024829 -0.037716 0.000000 -0.012730 -0.040380 0.000000 -0.001074 -0.041306 0.000000 0.011563 -0.040706 0.000000 0.022827 -0.038180 0.000000 0.033822 -0.034482 0.000000 0.042839 -0.029300 0.000000 0.050748 -0.023636 0.000000 0.056546 -0.017162 0.000000 0.060789 -0.010863 0.000000 0.063032 -0.004332 0.000000 0.063440 0.001546 0.000000 0.062201 0.007182 0.000000 0.059149 0.011899 0.000000 0.054950 0.015963 0.000000 0.049315 0.019011 0.000000 0.043124 0.021157 0.000000 0.036099 0.022346 0.000000 0.029110 0.022606 0.000000 0.021922 0.022089 0.000000 0.015268 0.020804 0.000000 0.008934 0.018988 0.000000 0.003482 0.016670 0.000000 -0.001320 0.014068 0.000000 -0.005050 0.011255 0.000000 -0.007999 0.008371 0.000000 -0.009825 0.005538 0.000000 -0.010914 0.002800 0.000000 -0.010937 0.000319 0.000000 -0.010401 -0.001948 0.000000 -0.008933 -0.003811 0.000000 -0.007180 -0.005378 0.000000 -0.004682 -0.006451 0.000000 -0.002230 -0.007180 0.000000 
0.000588 -0.010316 0.000000 0.003505 -0.010087 0.000000 0.006719 -0.009169 0.000000 0.009181 -0.007759 0.000000 0.011712 -0.005738 0.000000 0.013177 -0.003255 0.000000 0.014495 -0.000303 0.000000 0.014498 0.003038 0.000000 0.014168 0.006637 0.000000 0.012372 0.010495 0.000000 0.010109 0.014325 0.000000 0.006363 0.018209 0.000000 0.002108 0.021708 0.000000 -0.003476 0.024974 0.000000 -0.009478 0.027446 0.000000 -0.016448 0.029340 0.000000 -0.023572 0.030031 0.000000 -0.031082 0.029822 0.000000 -0.038304 0.028102 0.000000 -0.045145 0.025322 0.000000 -0.051164 0.020955 0.000000 -0.055967 0.015687 0.000000 -0.059523 0.009065 0.000000 -0.061142 0.002055 0.000000 -0.061435 -0.005854 0.000000 -0.059280 -0.013492 0.000000 -0.056058 -0.021509 0.000000 -0.050057 -0.028718 0.000000 -0.043334 -0.035726 0.000000 -0.033811 -0.041635 0.000000 -0.023998 -0.046449 0.000000 -0.011922 -0.049699 0.000000 -0.000310 -0.050804 0.000000 0.012359 -0.050043 0.000000 0.023525 -0.046842 0.000000 0.034355 -0.042330 0.000000 0.043013 -0.036053 0.000000 0.050422 -0.029342 0.000000 0.055551 -0.021639 0.000000 0.059050 -0.014107 0.000000 0.060542 -0.006083 0.000000 0.060248 0.001232 0.000000 0.058449 0.008407 0.000000 0.054883 0.014532 0.000000 0.050364 0.019862 0.000000 0.044426 0.023956 0.000000 0.038121 0.026854 0.000000 0.030994 0.028527 0.000000 0.024055 0.028950 0.000000 0.016942 0.028346 0.000000 0.010466 0.026714 0.000000 0.004346 0.024359 0.000000 -0.000838 0.021342 0.000000 -0.005330 0.017927 0.000000 -0.008739 0.014240 0.000000 -0.011329 0.010440 0.000000 -0.012809 0.006716 0.000000 -0.013523 0.003102 0.000000 -0.013195 -0.000163 0.000000 -0.012289 -0.003158 0.000000 -0.010475 -0.005610 0.000000 -0.008365 -0.007682 0.000000 -0.005527 -0.009095 0.000000 -0.002729 -0.010058 0.000000 
0.000778 -0.013611 0.000000 0.004108 -0.013334 0.000000 0.007760 -0.012182 0.000000 0.010645 -0.010434 0.000000 0.013637 -0.007905 0.000000 0.015549 -0.004816 0.000000 0.017357 -0.001116 0.000000 0.017843 0.003055 0.000000 0.018031 0.007583 0.000000 0.016751 0.012426 0.000000 0.015023 0.017280 0.000000 0.011814 0.022202 0.000000 0.008082 0.026696 0.000000 0.003029 0.030911 0.000000 -0.002492 0.034181 0.000000 -0.008966 0.036751 0.000000 -0.015667 0.037839 0.000000 -0.022725 0.037828 0.000000 -0.029550 0.035898 0.000000 -0.035946 0.032671 0.000000 -0.041501 0.027360 0.000000 -0.045808 0.020970 0.000000 -0.048767 0.012723 0.000000 -0.049888 0.004068 0.000000 -0.049630 -0.005936 0.000000 -0.047287 -0.015599 0.000000 -0.044087 -0.025990 0.000000 -0.038734 -0.035586 0.000000 -0.033366 -0.044974 0.000000 -0.025651 -0.053070 0.000000 -0.018193 -0.059605 0.000000 -0.008450 -0.064069 0.000000 0.000644 -0.065587 0.000000 0.010896 -0.064541 0.000000 0.019528 -0.060176 0.000000 0.027884 -0.053970 0.000000 0.034311 -0.045367 0.000000 0.039925 -0.036174 0.000000 0.043927 -0.025790 0.000000 0.046950 -0.015855 0.000000 0.048446 -0.005531 0.000000 0.048398 0.003639 0.000000 0.047164 0.012547 0.000000 0.044128 0.019984 0.000000 0.040267 0.026419 0.000000 0.034914 0.031254 0.000000 0.029202 0.034590 0.000000 0.022647 0.036412 0.000000 0.016247 0.036658 0.000000 0.009699 0.035679 0.000000 0.003749 0.033400 0.000000 -0.001801 0.030292 0.000000 -0.006454 0.026347 0.000000 -0.010382 0.021969 0.000000 -0.013263 0.017253 0.000000 -0.015307 0.012442 0.000000 -0.016277 0.007732 0.000000 -0.016478 0.003185 0.000000 -0.015666 -0.000915 0.000000 -0.014286 -0.004668 0.000000 -0.012015 -0.007734 0.000000 -0.009464 -0.010327 0.000000 -0.006187 -0.012087 0.000000 -0.002971 -0.013295 0.000000 
0.000626 -0.017394 0.000000 0.004455 -0.017069 0.000000 0.008620 -0.015706 0.000000 0.012010 -0.013635 0.000000 0.015542 -0.010643 0.000000 0.017982 -0.006976 0.000000 0.020372 -0.002597 0.000000 0.021414 0.002365 0.000000 0.022225 0.007728 0.000000 0.021522 0.013503 0.000000 0.020438 0.019262 0.000000 0.017795 0.025150 0.000000 0.014684 0.030493 0.000000 0.010128 0.035549 0.000000 0.005133 0.039442 0.000000 -0.000991 0.042515 0.000000 -0.007338 0.043789 0.000000 -0.014257 0.043704 0.000000 -0.020944 0.041323 0.000000 -0.027417 0.037273 0.000000 -0.033021 0.030817 0.000000 -0.037541 0.022953 0.000000 -0.040695 0.013145 0.000000 -0.042136 0.002918 0.000000 -0.042395 -0.008455 0.000000 -0.040612 -0.019035 0.000000 -0.038462 -0.030062 0.000000 -0.033869 -0.039439 0.000000 -0.029450 -0.048809 0.000000 -0.022345 -0.056808 0.000000 -0.015587 -0.063650 0.000000 -0.006374 -0.068536 0.000000 0.002118 -0.070150 0.000000 0.011871 -0.068927 0.000000 0.019859 -0.063830 0.000000 0.027568 -0.057113 0.000000 0.033169 -0.048094 0.000000 0.037773 -0.038958 0.000000 0.040502 -0.028664 0.000000 0.042161 -0.018626 0.000000 0.042369 -0.007531 0.000000 0.041279 0.002515 0.000000 0.039359 0.012677 0.000000 0.035751 0.021428 0.000000 0.031683 0.029075 0.000000 0.026114 0.035022 0.000000 0.020478 0.039122 0.000000 0.013978 0.041482 0.000000 0.007841 0.041898 0.000000 0.001577 0.040843 0.000000 -0.003970 0.038214 0.000000 -0.009061 0.034563 0.000000 -0.013213 0.029923 0.000000 -0.016574 0.024735 0.000000 -0.018902 0.019165 0.000000 -0.020337 0.013454 0.000000 -0.020742 0.007887 0.000000 -0.020339 0.002491 0.000000 -0.018976 -0.002356 0.000000 -0.017022 -0.006809 0.000000 -0.014224 -0.010432 0.000000 -0.011135 -0.013509 0.000000 -0.007351 -0.015588 0.000000 -0.003623 -0.017023 0.000000 
0.000830 -0.021689 0.000000 0.005190 -0.021327 0.000000 0.009926 -0.019737 0.000000 0.013862 -0.017357 0.000000 0.018002 -0.013877 0.000000 0.021028 -0.009646 0.000000 0.024079 -0.004548 0.000000 0.025762 0.001202 0.000000 0.027288 0.007475 0.000000 0.027284 0.014213 0.000000 0.026949 0.021007 0.000000 0.025042 0.027956 0.000000 0.022668 0.034364 0.000000 0.018842 0.040462 0.000000 0.014512 0.045300 0.000000 0.009064 0.049222 0.000000 0.003275 0.051105 0.000000 -0.003028 0.051435 0.000000 -0.009195 0.049058 0.000000 -0.014998 0.044747 0.000000 -0.019859 0.037484 0.000000 -0.023402 0.028643 0.000000 -0.025242 0.017317 0.000000 -0.025307 0.005769 0.000000 -0.023841 -0.007460 0.000000 -0.020819 -0.019533 0.000000 -0.017472 -0.032733 0.000000 -0.013080 -0.044597 0.000000 -0.010725 -0.056497 0.000000 -0.006840 -0.066934 0.000000 -0.004616 -0.075576 0.000000 0.000261 -0.081773 0.000000 0.004237 -0.083832 0.000000 0.009728 -0.082281 0.000000 0.013096 -0.075872 0.000000 0.016089 -0.067280 0.000000 0.017538 -0.055573 0.000000 0.019017 -0.043507 0.000000 0.020373 -0.030178 0.000000 0.022326 -0.017721 0.000000 0.023476 -0.004649 0.000000 0.023508 0.006649 0.000000 0.023174 0.018075 0.000000 0.020783 0.027660 0.000000 0.018001 0.036057 0.000000 0.013444 0.042459 0.000000 0.008704 0.046725 0.000000 0.003021 0.049049 0.000000 -0.002416 0.049059 0.000000 -0.007940 0.047490 0.000000 -0.012820 0.044038 0.000000 -0.017173 0.039535 0.000000 -0.020638 0.033859 0.000000 -0.023254 0.027657 0.000000 -0.024885 0.021016 0.000000 -0.025595 0.014282 0.000000 -0.025321 0.007735 0.000000 -0.024238 0.001420 0.000000 -0.022235 -0.004232 0.000000 -0.019656 -0.009421 0.000000 -0.016260 -0.013622 0.000000 -0.012596 -0.017200 0.000000 -0.008244 -0.019598 0.000000 -0.003977 -0.021272 0.000000 
0.000696 -0.026561 0.000000 0.005655 -0.026164 0.000000 0.011010 -0.024378 0.000000 0.015560 -0.021712 0.000000 0.020366 -0.017809 0.000000 0.024051 -0.013052 0.000000 0.027841 -0.007331 0.000000 0.030247 -0.000845 0.000000 0.032598 0.006206 0.000000 0.033383 0.013842 0.000000 0.033944 0.021504 0.000000 0.032861 0.029431 0.000000 0.031404 0.036693 0.000000 0.028368 0.043705 0.000000 0.024890 0.049219 0.000000 0.020096 0.053752 0.000000 0.014996 0.055881 0.000000 0.009125 0.056174 0.000000 0.003446 0.053293 0.000000 -0.002113 0.047937 0.000000 -0.006537 0.039221 0.000000 -0.009790 0.028336 0.000000 -0.011010 0.015050 0.000000 -0.010707 0.001517 0.000000 -0.009107 -0.012944 0.000000 -0.006401 -0.025404 0.000000 -0.004837 -0.037801 0.000000 -0.001658 -0.046186 0.000000 -0.000757 -0.055049 0.000000 0.002048 -0.062917 0.000000 0.002679 -0.070751 0.000000 0.005503 -0.077389 0.000000 0.007005 -0.079616 0.000000 0.010114 -0.077786 0.000000 0.011200 -0.070191 0.000000 0.012538 -0.061555 0.000000 0.012705 -0.051021 0.000000 0.012725 -0.041793 0.000000 0.011995 -0.031973 0.000000 0.011575 -0.021729 0.000000 0.010637 -0.008713 0.000000 0.009561 0.002817 0.000000 0.008995 0.015402 0.000000 0.006546 0.026601 0.000000 0.004290 0.036415 0.000000 0.000056 0.044319 0.000000 -0.004025 0.049544 0.000000 -0.009239 0.052602 0.000000 -0.014019 0.052859 0.000000 -0.018928 0.051248 0.000000 -0.023116 0.047447 0.000000 -0.026710 0.042381 0.000000 -0.029429 0.036004 0.000000 -0.031201 0.028981 0.000000 -0.032059 0.021506 0.000000 -0.031915 0.013891 0.000000 -0.030885 0.006531 0.000000 -0.028993 -0.000595 0.000000 -0.026278 -0.006938 0.000000 -0.022962 -0.012785 0.000000 -0.018905 -0.017492 0.000000 -0.014574 -0.021524 0.000000 -0.009602 -0.024207 0.000000 -0.004715 -0.026098 0.000000 
0.000919 -0.032059 0.000000 0.006449 -0.031641 0.000000 0.012433 -0.029642 0.000000 0.017578 -0.026713 0.000000 0.023073 -0.022368 0.000000 0.027411 -0.017120 0.000000 0.031976 -0.010745 0.000000 0.035124 -0.003555 0.000000 0.038346 0.004339 0.000000 0.039969 0.012867 0.000000 0.041474 0.021529 0.000000 0.041308 0.030495 0.000000 0.040809 0.038857 0.000000 0.038723 0.046976 0.000000 0.036137 0.053572 0.000000 0.032278 0.059116 0.000000 0.027961 0.062076 0.000000 0.023036 0.062985 0.000000 0.018168 0.060296 0.000000 0.013841 0.054729 0.000000 0.010837 0.045161 0.000000 0.009804 0.033117 0.000000 0.011658 0.018235 0.000000 0.015587 0.003866 0.000000 0.021730 -0.011766 0.000000 0.028514 -0.023802 0.000000 0.035486 -0.037476 0.000000 0.040636 -0.048677 0.000000 0.038027 -0.060204 0.000000 0.034063 -0.070370 0.000000 0.024688 -0.079031 0.000000 0.018345 -0.086099 0.000000 0.011073 -0.088443 0.000000 0.006051 -0.086476 0.000000 -0.002095 -0.078297 0.000000 -0.010844 -0.068786 0.000000 -0.019386 -0.055760 0.000000 -0.025522 -0.042797 0.000000 -0.027200 -0.029027 0.000000 -0.023741 -0.016363 0.000000 -0.020723 -0.002635 0.000000 -0.018472 0.008290 0.000000 -0.014778 0.021090 0.000000 -0.014271 0.032366 0.000000 -0.013788 0.042547 0.000000 -0.015928 0.050773 0.000000 -0.018457 0.056020 0.000000 -0.022313 0.059043 0.000000 -0.026113 0.058749 0.000000 -0.030017 0.056587 0.000000 -0.033379 0.051820 0.000000 -0.036061 0.045848 0.000000 -0.037956 0.038350 0.000000 -0.038833 0.030288 0.000000 -0.038863 0.021730 0.000000 -0.037858 0.013108 0.000000 -0.036032 0.004813 0.000000 -0.033345 -0.003186 0.000000 -0.029894 -0.010264 0.000000 -0.025866 -0.016794 0.000000 -0.021137 -0.022010 0.000000 -0.016169 -0.026503 0.000000 -0.010573 -0.029456 0.000000 -0.005101 -0.031570 0.000000 
0.000814 -0.038110 0.000000 0.006950 -0.037679 0.000000 0.013566 -0.035507 0.000000 0.019341 -0.032351 0.000000 0.025537 -0.027642 0.000000 0.030578 -0.021956 0.000000 0.035959 -0.015045 0.000000 0.039923 -0.007215 0.000000 0.044106 0.001361 0.000000 0.046678 0.010715 0.000000 0.049295 0.020165 0.000000 0.050204 0.030095 0.000000 0.050945 0.039278 0.000000 0.050019 0.048377 0.000000 0.048753 0.055665 0.000000 0.046084 0.061928 0.000000 0.043123 0.065124 0.000000 0.039389 0.065967 0.000000 0.035951 0.062488 0.000000 0.032961 0.055268 0.000000 0.031877 0.043258 0.000000 0.032953 0.027516 0.000000 0.038220 0.009267 0.000000 0.045084 -0.008555 0.000000 0.054227 -0.025871 0.000000 0.061429 -0.039160 0.000000 0.063362 -0.049923 0.000000 0.065315 -0.048727 0.000000 0.060973 -0.048476 0.000000 0.056442 -0.049578 0.000000 0.044742 -0.055033 0.000000 0.032234 -0.063774 0.000000 0.016116 -0.067323 0.000000 0.001955 -0.064619 0.000000 -0.013522 -0.053296 0.000000 -0.025443 -0.044264 0.000000 -0.033906 -0.036343 0.000000 -0.040503 -0.033979 0.000000 -0.046058 -0.033753 0.000000 -0.048475 -0.028206 0.000000 -0.049972 -0.013983 0.000000 -0.047979 -0.003128 0.000000 -0.042072 0.011201 0.000000 -0.039416 0.025611 0.000000 -0.035957 0.038072 0.000000 -0.035955 0.048988 0.000000 -0.036202 0.055929 0.000000 -0.038470 0.060258 0.000000 -0.040751 0.060562 0.000000 -0.043386 0.058514 0.000000 -0.045610 0.053492 0.000000 -0.047115 0.046958 0.000000 -0.048001 0.038776 0.000000 -0.047738 0.029889 0.000000 -0.046815 0.020530 0.000000 -0.044741 0.011059 0.000000 -0.042027 0.002019 0.000000 -0.038388 -0.006732 0.000000 -0.034134 -0.014417 0.000000 -0.029283 -0.021542 0.000000 -0.023842 -0.027189 0.000000 -0.018164 -0.032088 0.000000 -0.011925 -0.035276 0.000000 -0.005818 -0.037590 0.000000 
0.001059 -0.044828 0.000000 0.007696 -0.044394 0.000000 0.014891 -0.042033 0.000000 0.021198 -0.038684 0.000000 0.028057 -0.033605 0.000000 0.033713 -0.027543 0.000000 0.039888 -0.020089 0.000000 0.044591 -0.011702 0.000000 0.049723 -0.002416 0.000000 0.053184 0.007678 0.000000 0.056894 0.018003 0.000000 0.058852 0.028846 0.000000 0.060789 0.039042 0.000000 0.061079 0.049167 0.000000 0.061077 0.057507 0.000000 0.059837 0.064746 0.000000 0.058242 0.068772 0.000000 0.056302 0.070157 0.000000 0.054544 0.066724 0.000000 0.054169 0.058804 0.000000 0.055928 0.045169 0.000000 0.061861 0.026774 0.000000 0.073646 0.006104 0.000000 0.088277 -0.012142 0.000000 0.105651 -0.028111 0.000000 0.121651 -0.032937 0.000000 0.141254 -0.041362 0.000000 0.152357 -0.046289 0.000000 0.140162 -0.051331 0.000000 0.119612 -0.054139 0.000000 0.085542 -0.054823 0.000000 0.054107 -0.057472 0.000000 0.022191 -0.058163 0.000000 -0.006418 -0.056838 0.000000 -0.039480 -0.050899 0.000000 -0.072814 -0.048402 0.000000 -0.100542 -0.040700 0.000000 -0.120954 -0.030644 0.000000 -0.124870 -0.021055 0.000000 -0.110868 -0.012450 0.000000 -0.101164 -0.003131 0.000000 -0.093297 0.000391 0.000000 -0.078066 0.012526 0.000000 -0.069338 0.026250 0.000000 -0.060793 0.039086 0.000000 -0.056405 0.051019 0.000000 -0.053801 0.058535 0.000000 -0.053505 0.063592 0.000000 -0.054153 0.063665 0.000000 -0.055238 0.061446 0.000000 -0.056315 0.055549 0.000000 -0.056661 0.048239 0.000000 -0.056564 0.038973 0.000000 -0.055285 0.029102 0.000000 -0.053453 0.018733 0.000000 -0.050456 0.008319 0.000000 -0.046910 -0.001541 0.000000 -0.042454 -0.011079 0.000000 -0.037464 -0.019369 0.000000 -0.031914 -0.027086 0.000000 -0.025832 -0.033129 0.000000 -0.019562 -0.038420 0.000000 -0.012750 -0.041802 0.000000 -0.006121 -0.044309 0.000000 
0.001004 -0.051928 0.000000 0.008119 -0.051511 0.000000 0.015823 -0.049009 0.000000 0.022642 -0.045517 0.000000 0.030102 -0.040157 0.000000 0.036369 -0.033787 0.000000 0.043302 -0.025923 0.000000 0.048775 -0.017049 0.000000 0.054875 -0.007232 0.000000 0.059320 0.003543 0.000000 0.064255 0.014497 0.000000 0.067465 0.026201 0.000000 0.070951 0.037051 0.000000 0.072860 0.048088 0.000000 0.074873 0.056907 0.000000 0.075796 0.064763 0.000000 0.076912 0.068658 0.000000 0.077906 0.069665 0.000000 0.079709 0.064620 0.000000 0.083206 0.053884 0.000000 0.089678 0.035566 0.000000 0.101481 0.009798 0.000000 0.122317 -0.017149 0.000000 0.145449 -0.040560 0.000000 0.174988 -0.059245 0.000000 0.191131 -0.074763 0.000000 0.187009 -0.080628 0.000000 0.182080 -0.047636 0.000000 0.169502 -0.015731 0.000000 0.159025 0.005042 0.000000 0.133806 0.010472 0.000000 0.090950 -0.000423 0.000000 0.030935 -0.006798 0.000000 -0.030355 -0.002947 0.000000 -0.082553 0.013100 0.000000 -0.113292 0.016799 0.000000 -0.124015 0.011797 0.000000 -0.131372 -0.009651 0.000000 -0.147627 -0.043839 0.000000 -0.159278 -0.051912 0.000000 -0.164585 -0.031554 0.000000 -0.152296 -0.026227 0.000000 -0.127502 -0.012758 0.000000 -0.112266 0.008338 0.000000 -0.096123 0.025139 0.000000 -0.085989 0.041996 0.000000 -0.078018 0.053030 0.000000 -0.073945 0.060610 0.000000 -0.071532 0.062295 0.000000 -0.070153 0.060676 0.000000 -0.069407 0.054915 0.000000 -0.067948 0.047207 0.000000 -0.066562 0.037400 0.000000 -0.063833 0.026778 0.000000 -0.060946 0.015702 0.000000 -0.056750 0.004515 0.000000 -0.052294 -0.005983 0.000000 -0.046859 -0.016178 0.000000 -0.041099 -0.024957 0.000000 -0.034769 -0.033174 0.000000 -0.028048 -0.039542 0.000000 -0.021159 -0.045170 0.000000 -0.013810 -0.048717 0.000000 -0.006667 -0.051399 0.000000 
0.001274 -0.059614 0.000000 0.008674 -0.059214 0.000000 0.016757 -0.056555 0.000000 0.023898 -0.052962 0.000000 0.031848 -0.047332 0.000000 0.038535 -0.040743 0.000000 0.046133 -0.032496 0.000000 0.052178 -0.023275 0.000000 0.059161 -0.012960 0.000000 0.064378 -0.001702 0.000000 0.070440 0.009858 0.000000 0.074702 0.022150 0.000000 0.079606 0.033646 0.000000 0.083023 0.045245 0.000000 0.086902 0.054570 0.000000 0.090136 0.062707 0.000000 0.093891 0.066662 0.000000 0.098438 0.067359 0.000000 0.103838 0.061423 0.000000 0.112334 0.048835 0.000000 0.123135 0.026895 0.000000 0.143292 -0.005865 0.000000 0.174714 -0.037865 0.000000 0.207600 -0.064813 0.000000 0.235775 -0.073793 0.000000 0.260392 -0.044959 0.000000 0.314131 -0.032311 0.000000 0.346028 -0.028782 0.000000 0.304713 -0.028276 0.000000 0.247324 -0.018442 0.000000 0.184556 0.013253 0.000000 0.112669 0.045398 0.000000 0.035751 0.063141 0.000000 -0.047261 0.056650 0.000000 -0.118858 0.032038 0.000000 -0.184636 -0.006939 0.000000 -0.244204 -0.022620 0.000000 -0.281864 -0.007032 0.000000 -0.288396 0.006851 0.000000 -0.242284 0.004508 0.000000 -0.218036 -0.010113 0.000000 -0.206695 -0.036692 0.000000 -0.171709 -0.027503 0.000000 -0.148750 -0.005129 0.000000 -0.128122 0.012809 0.000000 -0.110927 0.032913 0.000000 -0.098894 0.046491 0.000000 -0.090663 0.057106 0.000000 -0.085536 0.059873 0.000000 -0.081754 0.059321 0.000000 -0.079211 0.053343 0.000000 -0.076217 0.045394 0.000000 -0.073609 0.034859 0.000000 -0.069778 0.023486 0.000000 -0.065983 0.011650 0.000000 -0.060919 -0.000332 0.000000 -0.055736 -0.011431 0.000000 -0.049607 -0.022274 0.000000 -0.043259 -0.031459 0.000000 -0.036394 -0.040137 0.000000 -0.029208 -0.046739 0.000000 -0.021918 -0.052657 0.000000 -0.014195 -0.056295 0.000000 -0.006738 -0.059123 0.000000 
0.001293 -0.067340 0.000000 0.008876 -0.066994 0.000000 0.017178 -0.064232 0.000000 0.024538 -0.060608 0.000000 0.032808 -0.054794 0.000000 0.039827 -0.048073 0.000000 0.047923 -0.039566 0.000000 0.054479 -0.030077 0.000000 0.062208 -0.019432 0.000000 0.068197 -0.007736 0.000000 0.075350 0.004173 0.000000 0.080811 0.017035 0.000000 0.087381 0.028730 0.000000 0.092790 0.040792 0.000000 0.099443 0.049794 0.000000 0.106131 0.057774 0.000000 0.114626 0.060357 0.000000 0.124851 0.059718 0.000000 0.137241 0.050725 0.000000 0.153262 0.034587 0.000000 0.170803 0.004608 0.000000 0.200241 -0.041781 0.000000 0.240556 -0.081457 0.000000 0.286564 -0.101621 0.000000 0.359665 -0.112036 0.000000 0.383297 -0.153119 0.000000 0.338621 -0.166265 0.000000 0.234750 -0.038217 0.000000 0.131696 0.082974 0.000000 0.068336 0.125199 0.000000 0.017832 0.145127 0.000000 -0.001396 0.148381 0.000000 0.003297 0.153132 0.000000 0.006469 0.151662 0.000000 0.004808 0.150475 0.000000 -0.032528 0.142145 0.000000 -0.093473 0.109025 0.000000 -0.177098 0.034542 0.000000 -0.271597 -0.083419 0.000000 -0.324849 -0.122272 0.000000 -0.343750 -0.067144 0.000000 -0.284210 -0.072555 0.000000 -0.229736 -0.070702 0.000000 -0.201353 -0.035248 0.000000 -0.172156 -0.012684 0.000000 -0.146805 0.012768 0.000000 -0.127097 0.032765 0.000000 -0.113298 0.047251 0.000000 -0.103869 0.053386 0.000000 -0.096250 0.054351 0.000000 -0.091218 0.049378 0.000000 -0.085639 0.041606 0.000000 -0.081534 0.030960 0.000000 -0.075996 0.019152 0.000000 -0.071199 0.006843 0.000000 -0.064978 -0.005732 0.000000 -0.059049 -0.017295 0.000000 -0.052118 -0.028655 0.000000 -0.045211 -0.038171 0.000000 -0.037805 -0.047225 0.000000 -0.030226 -0.054018 0.000000 -0.022589 -0.060183 0.000000 -0.014602 -0.063897 0.000000 -0.006920 -0.066868 0.000000 
0.001582 -0.075409 0.000000 0.009072 -0.075099 0.000000 0.017377 -0.072218 0.000000 0.024680 -0.068593 0.000000 0.033078 -0.062621 0.000000 0.040129 -0.055858 0.000000 0.048553 -0.047147 0.000000 0.055273 -0.037560 0.000000 0.063588 -0.026678 0.000000 0.069937 -0.014845 0.000000 0.078005 -0.002756 0.000000 0.084193 0.010118 0.000000 0.092181 0.021667 0.000000 0.099103 0.033183 0.000000 0.108082 0.041230 0.000000 0.117783 0.047524 0.000000 0.130205 0.047941 0.000000 0.145560 0.044745 0.000000 0.163654 0.033013 0.000000 0.185851 0.015273 0.000000 0.205984 -0.020084 0.000000 0.249297 -0.075617 0.000000 0.303366 -0.124189 0.000000 0.345136 -0.183922 0.000000 0.285162 -0.170526 0.000000 0.119220 -0.023915 0.000000 -0.082786 0.116235 0.000000 -0.194159 0.178144 0.000000 -0.177331 0.138138 0.000000 -0.137329 0.095421 0.000000 -0.083266 0.082985 0.000000 -0.046393 0.059933 0.000000 -0.016365 0.055276 0.000000 0.011458 0.055139 0.000000 0.048641 0.071035 0.000000 0.099869 0.091342 0.000000 0.165173 0.121950 0.000000 0.197508 0.171091 0.000000 0.161263 0.154602 0.000000 0.021723 0.076662 0.000000 -0.137459 -0.050751 0.000000 -0.233616 -0.150706 0.000000 -0.258220 -0.110361 0.000000 -0.217358 -0.062709 0.000000 -0.195891 -0.041739 0.000000 -0.165807 -0.012146 0.000000 -0.144419 0.012985 0.000000 -0.127950 0.033878 0.000000 -0.115584 0.042825 0.000000 -0.105351 0.046670 0.000000 -0.097778 0.042732 0.000000 -0.090342 0.035710 0.000000 -0.084803 0.025216 0.000000 -0.078198 0.013151 0.000000 -0.072685 0.000631 0.000000 -0.065860 -0.012483 0.000000 -0.059537 -0.024291 0.000000 -0.052256 -0.036113 0.000000 -0.045121 -0.045772 0.000000 -0.037544 -0.055122 0.000000 -0.029867 -0.061954 0.000000 -0.022200 -0.068282 0.000000 -0.014212 -0.071964 0.000000 -0.006593 -0.075017 0.000000 