# vtk DataFile Version 2.0
Comment goes here
ASCII

DATASET STRUCTURED_POINTS
FIELD FieldData 1
TIME 1 1 double
1.56000000
DIMENSIONS    64   64   1

ORIGIN    0.000   0.000   0.000
SPACING   0.015625 0.015625   1.000

POINT_DATA   4096
VECTORS u double

0.001580 0.000000 0.000000 0.003307 0.000000 0.000000 0.005005 0.000000 0.000000 0.006335 0.000000 0.000000 0.007301 0.000000 0.000000 0.007687 0.000000 0.000000 0.007406 0.000000 0.000000 0.006382 0.000000 0.000000 0.004453 0.000000 0.000000 0.001702 0.000000 0.000000 -0.002098 0.000000 0.000000 -0.006684 0.000000 0.000000 -0.012327 0.000000 0.000000 -0.018569 0.000000 0.000000 -0.025711 0.000000 0.000000 -0.033086 0.000000 0.000000 -0.041023 0.000000 0.000000 -0.048643 0.000000 0.000000 -0.056328 0.000000 0.000000 -0.063009 0.000000 0.000000 -0.069168 0.000000 0.000000 -0.073606 0.000000 0.000000 -0.076965 0.000000 0.000000 -0.078001 0.000000 0.000000 -0.077562 0.000000 0.000000 -0.074456 0.000000 0.000000 -0.069724 0.000000 0.000000 -0.062332 0.000000 0.000000 -0.053442 0.000000 0.000000 -0.042288 0.000000 0.000000 -0.030070 0.000000 0.000000 -0.016421 0.000000 0.000000 -0.002473 0.000000 0.000000 0.011697 0.000000 0.000000 0.025250 0.000000 0.000000 0.037757 0.000000 0.000000 0.048940 0.000000 0.000000 0.058127 0.000000 0.000000 0.065681 0.000000 0.000000 0.070754 0.000000 0.000000 0.074205 0.000000 0.000000 0.075112 0.000000 0.000000 0.074616 0.000000 0.000000 0.071868 0.000000 0.000000 0.068091 0.000000 0.000000 0.062617 0.000000 0.000000 0.056598 0.000000 0.000000 0.049562 0.000000 0.000000 0.042501 0.000000 0.000000 0.035081 0.000000 0.000000 0.028111 0.000000 0.000000 0.021307 0.000000 0.000000 0.015315 0.000000 0.000000 0.009834 0.000000 0.000000 0.005383 0.000000 0.000000 0.001599 0.000000 0.000000 -0.001082 0.000000 0.000000 -0.003098 0.000000 0.000000 -0.004070 0.000000 0.000000 -0.004494 0.000000 0.000000 -0.004046 0.000000 0.000000 -0.003241 0.000000 0.000000 -0.001819 0.000000 0.000000 -0.000273 0.000000 0.000000 
0.001434 -0.001790 0.000000 0.003189 -0.001712 0.000000 0.004929 -0.001514 0.000000 0.006288 -0.001148 0.000000 0.007299 -0.000676 0.000000 0.007711 -0.000052 0.000000 0.007474 0.000652 0.000000 0.006474 0.001476 0.000000 0.004584 0.002340 0.000000 0.001850 0.003275 0.000000 -0.001921 0.004193 0.000000 -0.006502 0.005114 0.000000 -0.012136 0.005943 0.000000 -0.018390 0.006692 0.000000 -0.025555 0.007258 0.000000 -0.032963 0.007656 0.000000 -0.040962 0.007779 0.000000 -0.048635 0.007652 0.000000 -0.056421 0.007183 0.000000 -0.063164 0.006420 0.000000 -0.069448 0.005298 0.000000 -0.073934 0.003899 0.000000 -0.077408 0.002197 0.000000 -0.078452 0.000298 0.000000 -0.078076 -0.001773 0.000000 -0.074914 -0.003919 0.000000 -0.070165 -0.006062 0.000000 -0.062652 -0.008141 0.000000 -0.053671 -0.010022 0.000000 -0.042373 -0.011686 0.000000 -0.030039 -0.012934 0.000000 -0.016265 -0.013799 0.000000 -0.002202 -0.014059 0.000000 0.012067 -0.013862 0.000000 0.025739 -0.013030 0.000000 0.038327 -0.011845 0.000000 0.049628 -0.010185 0.000000 0.058862 -0.008371 0.000000 0.066500 -0.006313 0.000000 0.071551 -0.004262 0.000000 0.075016 -0.002179 0.000000 0.075828 -0.000205 0.000000 0.075275 0.001622 0.000000 0.072392 0.003263 0.000000 0.068513 0.004626 0.000000 0.062899 0.005746 0.000000 0.056764 0.006527 0.000000 0.049610 0.007048 0.000000 0.042443 0.007240 0.000000 0.034939 0.007195 0.000000 0.027889 0.006887 0.000000 0.021035 0.006398 0.000000 0.014997 0.005737 0.000000 0.009492 0.004966 0.000000 0.005024 0.004118 0.000000 0.001237 0.003233 0.000000 -0.001439 0.002348 0.000000 -0.003443 0.001494 0.000000 -0.004395 0.000698 0.000000 -0.004799 -0.000012 0.000000 -0.004320 -0.000627 0.000000 -0.003490 -0.001114 0.000000 -0.002032 -0.001484 0.000000 -0.000459 -0.001699 0.000000 
0.001581 -0.003648 0.000000 0.003515 -0.003496 0.000000 0.005425 -0.003099 0.000000 0.006968 -0.002369 0.000000 0.008153 -0.001423 0.000000 0.008759 -0.000175 0.000000 0.008702 0.001237 0.000000 0.007905 0.002889 0.000000 0.006203 0.004624 0.000000 0.003677 0.006505 0.000000 0.000098 0.008352 0.000000 -0.004280 0.010215 0.000000 -0.009727 0.011888 0.000000 -0.015796 0.013419 0.000000 -0.022789 0.014572 0.000000 -0.030045 0.015407 0.000000 -0.037894 0.015672 0.000000 -0.045459 0.015459 0.000000 -0.053118 0.014529 0.000000 -0.059799 0.013027 0.000000 -0.065979 0.010770 0.000000 -0.070450 0.007961 0.000000 -0.073865 0.004518 0.000000 -0.074963 0.000668 0.000000 -0.074632 -0.003539 0.000000 -0.071656 -0.007912 0.000000 -0.067137 -0.012262 0.000000 -0.060000 -0.016494 0.000000 -0.051452 -0.020278 0.000000 -0.040655 -0.023632 0.000000 -0.028835 -0.026108 0.000000 -0.015554 -0.027837 0.000000 -0.001995 -0.028332 0.000000 0.011795 -0.027941 0.000000 0.024922 -0.026260 0.000000 0.036972 -0.023889 0.000000 0.047682 -0.020535 0.000000 0.056387 -0.016873 0.000000 0.063537 -0.012689 0.000000 0.068236 -0.008515 0.000000 0.071442 -0.004278 0.000000 0.072135 -0.000260 0.000000 0.071530 0.003436 0.000000 0.068696 0.006762 0.000000 0.064894 0.009493 0.000000 0.059416 0.011749 0.000000 0.053426 0.013290 0.000000 0.046447 0.014320 0.000000 0.039461 0.014671 0.000000 0.032152 0.014554 0.000000 0.025301 0.013904 0.000000 0.018654 0.012893 0.000000 0.012825 0.011543 0.000000 0.007531 0.009973 0.000000 0.003274 0.008255 0.000000 -0.000305 0.006463 0.000000 -0.002774 0.004680 0.000000 -0.004577 0.002956 0.000000 -0.005333 0.001356 0.000000 -0.005545 -0.000075 0.000000 -0.004881 -0.001308 0.000000 -0.003868 -0.002288 0.000000 -0.002234 -0.003031 0.000000 -0.000483 -0.003466 0.000000 
0.001433 -0.005788 0.000000 0.003600 -0.005557 0.000000 0.005763 -0.004967 0.000000 0.007544 -0.003876 0.000000 0.008989 -0.002466 0.000000 0.009840 -0.000602 0.000000 0.010052 0.001506 0.000000 0.009505 0.003975 0.000000 0.008072 0.006569 0.000000 0.005789 0.009381 0.000000 0.002463 0.012149 0.000000 -0.001697 0.014939 0.000000 -0.006933 0.017459 0.000000 -0.012837 0.019754 0.000000 -0.019694 0.021507 0.000000 -0.026862 0.022761 0.000000 -0.034678 0.023193 0.000000 -0.042241 0.022876 0.000000 -0.049976 0.021523 0.000000 -0.056718 0.019282 0.000000 -0.063054 0.015950 0.000000 -0.067605 0.011784 0.000000 -0.071201 0.006710 0.000000 -0.072362 0.001066 0.000000 -0.072201 -0.005081 0.000000 -0.069273 -0.011414 0.000000 -0.064922 -0.017717 0.000000 -0.057866 -0.023827 0.000000 -0.049527 -0.029367 0.000000 -0.038922 -0.034303 0.000000 -0.027391 -0.038035 0.000000 -0.014399 -0.040638 0.000000 -0.001178 -0.041407 0.000000 0.012260 -0.040779 0.000000 0.025026 -0.038208 0.000000 0.036674 -0.034605 0.000000 0.047037 -0.029600 0.000000 0.055331 -0.024225 0.000000 0.062204 -0.018162 0.000000 0.066524 -0.012167 0.000000 0.069517 -0.006078 0.000000 0.069896 -0.000294 0.000000 0.069128 0.005062 0.000000 0.066059 0.009899 0.000000 0.062124 0.013905 0.000000 0.056497 0.017215 0.000000 0.050407 0.019497 0.000000 0.043370 0.021013 0.000000 0.036345 0.021536 0.000000 0.029067 0.021355 0.000000 0.022256 0.020385 0.000000 0.015719 0.018874 0.000000 0.010006 0.016860 0.000000 0.004882 0.014517 0.000000 0.000804 0.011953 0.000000 -0.002567 0.009281 0.000000 -0.004819 0.006621 0.000000 -0.006397 0.004053 0.000000 -0.006914 0.001666 0.000000 -0.006896 -0.000464 0.000000 -0.005985 -0.002303 0.000000 -0.004742 -0.003761 0.000000 -0.002860 -0.004870 0.000000 -0.000879 -0.005514 0.000000 
0.001584 -0.008127 0.000000 0.004120 -0.007826 0.000000 0.006649 -0.007043 0.000000 0.008813 -0.005595 0.000000 0.010634 -0.003719 0.000000 0.011887 -0.001238 0.000000 0.012491 0.001573 0.000000 0.012365 0.004869 0.000000 0.011339 0.008340 0.000000 0.009486 0.012114 0.000000 0.006569 0.015837 0.000000 0.002826 0.019611 0.000000 -0.002026 0.023028 0.000000 -0.007558 0.026180 0.000000 -0.014082 0.028597 0.000000 -0.020957 0.030392 0.000000 -0.028510 0.031051 0.000000 -0.035873 0.030757 0.000000 -0.043403 0.029006 0.000000 -0.050017 0.026104 0.000000 -0.056171 0.021657 0.000000 -0.060627 0.016107 0.000000 -0.064063 0.009275 0.000000 -0.065185 0.001668 0.000000 -0.065006 -0.006627 0.000000 -0.062260 -0.015190 0.000000 -0.058282 -0.023669 0.000000 -0.051896 -0.031889 0.000000 -0.044463 -0.039222 0.000000 -0.034910 -0.045768 0.000000 -0.024493 -0.050631 0.000000 -0.012524 -0.054049 0.000000 -0.000338 -0.054992 0.000000 0.012118 -0.054145 0.000000 0.023748 -0.050674 0.000000 0.034201 -0.045901 0.000000 0.043273 -0.039191 0.000000 0.050358 -0.032039 0.000000 0.056222 -0.023882 0.000000 0.059808 -0.015828 0.000000 0.062381 -0.007650 0.000000 0.062565 0.000129 0.000000 0.061793 0.007273 0.000000 0.058843 0.013767 0.000000 0.055094 0.019055 0.000000 0.049710 0.023466 0.000000 0.043879 0.026417 0.000000 0.037134 0.028383 0.000000 0.030407 0.028974 0.000000 0.023461 0.028643 0.000000 0.016988 0.027252 0.000000 0.010821 0.025142 0.000000 0.005484 0.022379 0.000000 0.000757 0.019175 0.000000 -0.002921 0.015705 0.000000 -0.005885 0.012085 0.000000 -0.007728 0.008509 0.000000 -0.008904 0.005051 0.000000 -0.009019 0.001855 0.000000 -0.008613 -0.001003 0.000000 -0.007315 -0.003462 0.000000 -0.005697 -0.005414 0.000000 -0.003441 -0.006895 0.000000 -0.001093 -0.007759 0.000000 
0.001432 -0.011001 0.000000 0.004382 -0.010622 0.000000 0.007352 -0.009660 0.000000 0.009942 -0.007860 0.000000 0.012220 -0.005541 0.000000 0.013920 -0.002459 0.000000 0.015002 0.001027 0.000000 0.015341 0.005127 0.000000 0.014809 0.009448 0.000000 0.013424 0.014152 0.000000 0.010992 0.018810 0.000000 0.007688 0.023533 0.000000 0.003274 0.027843 0.000000 -0.001895 0.031810 0.000000 -0.008086 0.034906 0.000000 -0.014720 0.037189 0.000000 -0.022096 0.038109 0.000000 -0.029355 0.037770 0.000000 -0.036873 0.035667 0.000000 -0.043474 0.032049 0.000000 -0.049725 0.026560 0.000000 -0.054172 0.019677 0.000000 -0.057732 0.011268 0.000000 -0.058810 0.002008 0.000000 -0.058757 -0.008006 0.000000 -0.056005 -0.018138 0.000000 -0.052257 -0.028081 0.000000 -0.046045 -0.037646 0.000000 -0.039114 -0.046352 0.000000 -0.030206 -0.054273 0.000000 -0.020705 -0.060421 0.000000 -0.009746 -0.064793 0.000000 0.001300 -0.066050 0.000000 0.012611 -0.064866 0.000000 0.023066 -0.060291 0.000000 0.032376 -0.054130 0.000000 0.040453 -0.045757 0.000000 0.046583 -0.037174 0.000000 0.051837 -0.027612 0.000000 0.054726 -0.018327 0.000000 0.056974 -0.008835 0.000000 0.056729 0.000295 0.000000 0.055836 0.008785 0.000000 0.052675 0.016598 0.000000 0.048876 0.023038 0.000000 0.043437 0.028430 0.000000 0.037593 0.032072 0.000000 0.030922 0.034485 0.000000 0.024258 0.035209 0.000000 0.017505 0.034773 0.000000 0.011208 0.033025 0.000000 0.005337 0.030378 0.000000 0.000291 0.026923 0.000000 -0.004064 0.022922 0.000000 -0.007363 0.018595 0.000000 -0.009914 0.014088 0.000000 -0.011327 0.009640 0.000000 -0.012075 0.005344 0.000000 -0.011742 0.001374 0.000000 -0.010911 -0.002168 0.000000 -0.009166 -0.005219 0.000000 -0.007133 -0.007635 0.000000 -0.004438 -0.009473 0.000000 -0.001680 -0.010539 0.000000 
0.001588 -0.014189 0.000000 0.005060 -0.013745 0.000000 0.008555 -0.012603 0.000000 0.011690 -0.010463 0.000000 0.014513 -0.007697 0.000000 0.016793 -0.004020 0.000000 0.018453 0.000151 0.000000 0.019411 0.005062 0.000000 0.019486 0.010258 0.000000 0.018747 0.015931 0.000000 0.016936 0.021573 0.000000 0.014273 0.027329 0.000000 0.010456 0.032612 0.000000 0.005876 0.037540 0.000000 0.000214 0.041422 0.000000 -0.005930 0.044402 0.000000 -0.012867 0.045686 0.000000 -0.019746 0.045533 0.000000 -0.026871 0.043126 0.000000 -0.033132 0.038956 0.000000 -0.038913 0.032354 0.000000 -0.042937 0.024115 0.000000 -0.045890 0.013914 0.000000 -0.046461 0.002693 0.000000 -0.045909 -0.009433 0.000000 -0.042941 -0.021690 0.000000 -0.039492 -0.033628 0.000000 -0.034334 -0.045033 0.000000 -0.029166 -0.055061 0.000000 -0.022420 -0.064177 0.000000 -0.015183 -0.071091 0.000000 -0.006168 -0.076055 0.000000 0.003038 -0.077348 0.000000 0.012652 -0.075911 0.000000 0.021027 -0.070439 0.000000 0.027994 -0.063287 0.000000 0.033483 -0.053398 0.000000 0.037197 -0.043424 0.000000 0.040661 -0.032025 0.000000 0.042463 -0.020965 0.000000 0.044435 -0.009653 0.000000 0.044293 0.001267 0.000000 0.043830 0.011326 0.000000 0.041217 0.020726 0.000000 0.038000 0.028294 0.000000 0.033140 0.034749 0.000000 0.027836 0.038932 0.000000 0.021699 0.041718 0.000000 0.015535 0.042391 0.000000 0.009311 0.041693 0.000000 0.003525 0.039420 0.000000 -0.001790 0.036059 0.000000 -0.006286 0.031781 0.000000 -0.010058 0.026830 0.000000 -0.012773 0.021555 0.000000 -0.014732 0.016049 0.000000 -0.015551 0.010671 0.000000 -0.015721 0.005466 0.000000 -0.014804 0.000690 0.000000 -0.013419 -0.003579 0.000000 -0.011115 -0.007240 0.000000 -0.008552 -0.010142 0.000000 -0.005322 -0.012347 0.000000 -0.002046 -0.013629 0.000000 
0.001430 -0.018107 0.000000 0.005449 -0.017589 0.000000 0.009525 -0.016289 0.000000 0.013231 -0.013818 0.000000 0.016664 -0.010644 0.000000 0.019555 -0.006398 0.000000 0.021868 -0.001590 0.000000 0.023481 0.004093 0.000000 0.024257 0.010112 0.000000 0.024202 0.016702 0.000000 0.023118 0.023284 0.000000 0.021132 0.030013 0.000000 0.018019 0.036240 0.000000 0.014049 0.042052 0.000000 0.008995 0.046712 0.000000 0.003328 0.050270 0.000000 -0.003171 0.051925 0.000000 -0.009729 0.051773 0.000000 -0.016598 0.049054 0.000000 -0.022607 0.044092 0.000000 -0.028224 0.036364 0.000000 -0.031897 0.026653 0.000000 -0.034675 0.014792 0.000000 -0.034808 0.002027 0.000000 -0.034090 -0.011526 0.000000 -0.030843 -0.024554 0.000000 -0.027510 -0.036688 0.000000 -0.022362 -0.047973 0.000000 -0.017921 -0.058266 0.000000 -0.012542 -0.068256 0.000000 -0.007332 -0.076673 0.000000 -0.000718 -0.083014 0.000000 0.005807 -0.084870 0.000000 0.012771 -0.082854 0.000000 0.018471 -0.075633 0.000000 0.023062 -0.066586 0.000000 0.026580 -0.054960 0.000000 0.028744 -0.044352 0.000000 0.031456 -0.032878 0.000000 0.032344 -0.022100 0.000000 0.034084 -0.010665 0.000000 0.033582 0.000900 0.000000 0.033328 0.011860 0.000000 0.030766 0.022428 0.000000 0.027801 0.031115 0.000000 0.023194 0.038594 0.000000 0.018099 0.043513 0.000000 0.012327 0.046785 0.000000 0.006412 0.047597 0.000000 0.000642 0.046784 0.000000 -0.004781 0.044126 0.000000 -0.009562 0.040189 0.000000 -0.013566 0.035191 0.000000 -0.016747 0.029409 0.000000 -0.018876 0.023270 0.000000 -0.020222 0.016865 0.000000 -0.020409 0.010628 0.000000 -0.019973 0.004597 0.000000 -0.018422 -0.000927 0.000000 -0.016454 -0.005857 0.000000 -0.013537 -0.010086 0.000000 -0.010415 -0.013428 0.000000 -0.006597 -0.015979 0.000000 -0.002778 -0.017449 0.000000 
0.001593 -0.022416 0.000000 0.006222 -0.021840 0.000000 0.010918 -0.020385 0.000000 0.015270 -0.017601 0.000000 0.019357 -0.014021 0.000000 0.022953 -0.009224 0.000000 0.025977 -0.003775 0.000000 0.028367 0.002674 0.000000 0.029917 0.009537 0.000000 0.030705 0.017070 0.000000 0.030445 0.024643 0.000000 0.029338 0.032428 0.000000 0.027061 0.039695 0.000000 0.023953 0.046565 0.000000 0.019691 0.052143 0.000000 0.014812 0.056567 0.000000 0.009030 0.058743 0.000000 0.003172 0.058961 0.000000 -0.002963 0.056004 0.000000 -0.008225 0.050582 0.000000 -0.012808 0.041645 0.000000 -0.015413 0.030566 0.000000 -0.016640 0.016824 0.000000 -0.015276 0.002108 0.000000 -0.012867 -0.013398 0.000000 -0.008119 -0.028270 0.000000 -0.004478 -0.042110 0.000000 -0.001029 -0.054621 0.000000 -0.000221 -0.064881 0.000000 0.000490 -0.074766 0.000000 0.001149 -0.082915 0.000000 0.004438 -0.089193 0.000000 0.008383 -0.090838 0.000000 0.013203 -0.088575 0.000000 0.015677 -0.080730 0.000000 0.016008 -0.071395 0.000000 0.014403 -0.059080 0.000000 0.011746 -0.048299 0.000000 0.011374 -0.035625 0.000000 0.011094 -0.023594 0.000000 0.013572 -0.010891 0.000000 0.014258 0.002023 0.000000 0.015481 0.014142 0.000000 0.014404 0.026253 0.000000 0.012753 0.035866 0.000000 0.009309 0.044451 0.000000 0.005213 0.049799 0.000000 0.000349 0.053406 0.000000 -0.004770 0.054075 0.000000 -0.009739 0.052886 0.000000 -0.014433 0.049623 0.000000 -0.018435 0.044844 0.000000 -0.021702 0.038966 0.000000 -0.024109 0.032139 0.000000 -0.025481 0.025029 0.000000 -0.026073 0.017582 0.000000 -0.025507 0.010422 0.000000 -0.024357 0.003479 0.000000 -0.022084 -0.002829 0.000000 -0.019450 -0.008464 0.000000 -0.015856 -0.013278 0.000000 -0.012109 -0.017082 0.000000 -0.007654 -0.019985 0.000000 -0.003231 -0.021657 0.000000 
0.001429 -0.027559 0.000000 0.006662 -0.026915 0.000000 0.011999 -0.025337 0.000000 0.016993 -0.022257 0.000000 0.021765 -0.018328 0.000000 0.026071 -0.013018 0.000000 0.029858 -0.007004 0.000000 0.033042 0.000153 0.000000 0.035454 0.007774 0.000000 0.037120 0.016175 0.000000 0.037819 0.024652 0.000000 0.037648 0.033398 0.000000 0.036394 0.041625 0.000000 0.034220 0.049422 0.000000 0.030968 0.055853 0.000000 0.026933 0.060931 0.000000 0.022044 0.063564 0.000000 0.016883 0.063766 0.000000 0.011471 0.060451 0.000000 0.006892 0.053936 0.000000 0.002977 0.043552 0.000000 0.001350 0.030486 0.000000 0.000764 0.014655 0.000000 0.003162 -0.001746 0.000000 0.006036 -0.018683 0.000000 0.011030 -0.032943 0.000000 0.014570 -0.043779 0.000000 0.019031 -0.052230 0.000000 0.019712 -0.059785 0.000000 0.018332 -0.069626 0.000000 0.015337 -0.080621 0.000000 0.013755 -0.090247 0.000000 0.012163 -0.093635 0.000000 0.011607 -0.090148 0.000000 0.008813 -0.078437 0.000000 0.005117 -0.065312 0.000000 0.000640 -0.050698 0.000000 -0.003271 -0.041323 0.000000 -0.003374 -0.032226 0.000000 -0.004583 -0.024299 0.000000 -0.002288 -0.013829 0.000000 -0.001964 -0.001009 0.000000 0.000006 0.011714 0.000000 -0.000657 0.025155 0.000000 -0.001677 0.036211 0.000000 -0.004393 0.046135 0.000000 -0.008010 0.052472 0.000000 -0.012046 0.056768 0.000000 -0.016663 0.057685 0.000000 -0.020788 0.056447 0.000000 -0.024864 0.052823 0.000000 -0.028022 0.047458 0.000000 -0.030549 0.040865 0.000000 -0.032129 0.033187 0.000000 -0.032691 0.025234 0.000000 -0.032493 0.016892 0.000000 -0.031110 0.008912 0.000000 -0.029224 0.001174 0.000000 -0.026173 -0.005834 0.000000 -0.022863 -0.012085 0.000000 -0.018548 -0.017428 0.000000 -0.014174 -0.021630 0.000000 -0.009053 -0.024858 0.000000 -0.004030 -0.026696 0.000000 
0.001597 -0.033108 0.000000 0.007431 -0.032410 0.000000 0.013387 -0.030716 0.000000 0.019033 -0.027367 0.000000 0.024475 -0.023099 0.000000 0.029525 -0.017317 0.000000 0.034072 -0.010746 0.000000 0.038118 -0.002923 0.000000 0.041408 0.005459 0.000000 0.044067 0.014704 0.000000 0.045767 0.024115 0.000000 0.046710 0.033853 0.000000 0.046556 0.043123 0.000000 0.045581 0.051990 0.000000 0.043462 0.059430 0.000000 0.040632 0.065491 0.000000 0.036822 0.068793 0.000000 0.032797 0.069534 0.000000 0.028478 0.065995 0.000000 0.025099 0.059076 0.000000 0.022832 0.047186 0.000000 0.022936 0.032779 0.000000 0.025129 0.015012 0.000000 0.030060 -0.003164 0.000000 0.036581 -0.021266 0.000000 0.046529 -0.036804 0.000000 0.052620 -0.050110 0.000000 0.054242 -0.059763 0.000000 0.047120 -0.064183 0.000000 0.035565 -0.070392 0.000000 0.023799 -0.078338 0.000000 0.017616 -0.086019 0.000000 0.014355 -0.088689 0.000000 0.013376 -0.085225 0.000000 0.007080 -0.074240 0.000000 -0.003545 -0.063222 0.000000 -0.017886 -0.050692 0.000000 -0.031460 -0.044285 0.000000 -0.036717 -0.034312 0.000000 -0.037779 -0.024680 0.000000 -0.031152 -0.013510 0.000000 -0.027193 -0.000271 0.000000 -0.022432 0.012834 0.000000 -0.020529 0.027936 0.000000 -0.019650 0.039603 0.000000 -0.020825 0.050784 0.000000 -0.023111 0.057452 0.000000 -0.025959 0.062059 0.000000 -0.029536 0.062817 0.000000 -0.032586 0.061087 0.000000 -0.035723 0.056858 0.000000 -0.037858 0.050530 0.000000 -0.039460 0.043072 0.000000 -0.040078 0.034281 0.000000 -0.039728 0.025394 0.000000 -0.038655 0.016001 0.000000 -0.036405 0.007153 0.000000 -0.033739 -0.001458 0.000000 -0.029892 -0.009190 0.000000 -0.025890 -0.016089 0.000000 -0.020859 -0.021966 0.000000 -0.015860 -0.026576 0.000000 -0.010090 -0.030129 0.000000 -0.004475 -0.032139 0.000000 
0.001430 -0.039465 0.000000 0.007812 -0.038705 0.000000 0.014351 -0.036940 0.000000 0.020600 -0.033345 0.000000 0.026685 -0.028820 0.000000 0.032437 -0.022615 0.000000 0.037745 -0.015598 0.000000 0.042633 -0.007184 0.000000 0.046854 0.001825 0.000000 0.050520 0.011815 0.000000 0.053363 0.022008 0.000000 0.055488 0.032609 0.000000 0.056700 0.042754 0.000000 0.057046 0.052517 0.000000 0.056454 0.060802 0.000000 0.054949 0.067570 0.000000 0.052647 0.071399 0.000000 0.049729 0.072110 0.000000 0.046697 0.068150 0.000000 0.044311 0.059583 0.000000 0.043260 0.045715 0.000000 0.045082 0.028188 0.000000 0.048150 0.007531 0.000000 0.054816 -0.013198 0.000000 0.061126 -0.035151 0.000000 0.067769 -0.048981 0.000000 0.071297 -0.051491 0.000000 0.078212 -0.046729 0.000000 0.077095 -0.041108 0.000000 0.066214 -0.046306 0.000000 0.050449 -0.062672 0.000000 0.034800 -0.080803 0.000000 0.018672 -0.089395 0.000000 0.004889 -0.082874 0.000000 -0.012290 -0.061517 0.000000 -0.027922 -0.040346 0.000000 -0.042503 -0.022783 0.000000 -0.050517 -0.022491 0.000000 -0.049118 -0.025907 0.000000 -0.051716 -0.029864 0.000000 -0.047964 -0.024415 0.000000 -0.046004 -0.009729 0.000000 -0.040099 0.005050 0.000000 -0.037875 0.022373 0.000000 -0.036601 0.036506 0.000000 -0.036794 0.049596 0.000000 -0.038771 0.057607 0.000000 -0.040389 0.063193 0.000000 -0.043363 0.064311 0.000000 -0.045173 0.062634 0.000000 -0.047433 0.058095 0.000000 -0.048398 0.051196 0.000000 -0.048975 0.043085 0.000000 -0.048540 0.033456 0.000000 -0.047153 0.023811 0.000000 -0.045166 0.013568 0.000000 -0.041952 0.003997 0.000000 -0.038506 -0.005339 0.000000 -0.033809 -0.013683 0.000000 -0.029139 -0.021118 0.000000 -0.023376 -0.027457 0.000000 -0.017790 -0.032399 0.000000 -0.011384 -0.036243 0.000000 -0.005225 -0.038383 0.000000 
0.001601 -0.046145 0.000000 0.008444 -0.045332 0.000000 0.015466 -0.043504 0.000000 0.022245 -0.039701 0.000000 0.028880 -0.034937 0.000000 0.035286 -0.028377 0.000000 0.041272 -0.020942 0.000000 0.046987 -0.012031 0.000000 0.052071 -0.002428 0.000000 0.056779 0.008195 0.000000 0.060716 0.019147 0.000000 0.064127 0.030516 0.000000 0.066673 0.041565 0.000000 0.068537 0.052235 0.000000 0.069416 0.061526 0.000000 0.069528 0.069299 0.000000 0.068536 0.074013 0.000000 0.067026 0.075484 0.000000 0.064900 0.071414 0.000000 0.063650 0.062513 0.000000 0.064075 0.046416 0.000000 0.067577 0.027888 0.000000 0.074311 0.005278 0.000000 0.082055 -0.016140 0.000000 0.093961 -0.034220 0.000000 0.115974 -0.046975 0.000000 0.129932 -0.060552 0.000000 0.130677 -0.065561 0.000000 0.112416 -0.052185 0.000000 0.081677 -0.043746 0.000000 0.051703 -0.046924 0.000000 0.031804 -0.054243 0.000000 0.018051 -0.058778 0.000000 0.009061 -0.054263 0.000000 -0.009662 -0.041429 0.000000 -0.034295 -0.033009 0.000000 -0.065474 -0.028097 0.000000 -0.092434 -0.037670 0.000000 -0.100694 -0.033113 0.000000 -0.097044 -0.025833 0.000000 -0.077293 -0.019222 0.000000 -0.067117 -0.008137 0.000000 -0.059409 0.004704 0.000000 -0.054751 0.024438 0.000000 -0.052204 0.038521 0.000000 -0.051860 0.052954 0.000000 -0.053027 0.061048 0.000000 -0.053857 0.066651 0.000000 -0.056049 0.067600 0.000000 -0.056780 0.065157 0.000000 -0.058113 0.060083 0.000000 -0.057891 0.052072 0.000000 -0.057432 0.043215 0.000000 -0.055898 0.032458 0.000000 -0.053495 0.022019 0.000000 -0.050592 0.010800 0.000000 -0.046470 0.000493 0.000000 -0.042291 -0.009601 0.000000 -0.036822 -0.018558 0.000000 -0.031562 -0.026521 0.000000 -0.025161 -0.033315 0.000000 -0.019082 -0.038568 0.000000 -0.012141 -0.042695 0.000000 -0.005533 -0.044953 0.000000 
0.001437 -0.053441 0.000000 0.008628 -0.052569 0.000000 0.016020 -0.050741 0.000000 0.023214 -0.046759 0.000000 0.030288 -0.041861 0.000000 0.037241 -0.035007 0.000000 0.043815 -0.027299 0.000000 0.050267 -0.017983 0.000000 0.056181 -0.007966 0.000000 0.061881 0.003170 0.000000 0.066991 0.014660 0.000000 0.071711 0.026652 0.000000 0.075847 0.038344 0.000000 0.079331 0.049774 0.000000 0.082157 0.059812 0.000000 0.083948 0.068450 0.000000 0.084890 0.073901 0.000000 0.084419 0.075747 0.000000 0.083676 0.071525 0.000000 0.082607 0.060408 0.000000 0.084662 0.041788 0.000000 0.090769 0.017952 0.000000 0.099045 -0.006947 0.000000 0.114419 -0.032848 0.000000 0.125156 -0.069070 0.000000 0.122994 -0.084953 0.000000 0.114198 -0.066194 0.000000 0.130000 -0.029213 0.000000 0.148991 0.007891 0.000000 0.146537 0.014407 0.000000 0.126103 -0.012798 0.000000 0.084758 -0.047150 0.000000 0.026155 -0.066652 0.000000 -0.031689 -0.055161 0.000000 -0.081039 -0.018161 0.000000 -0.105882 0.015466 0.000000 -0.112121 0.035356 0.000000 -0.093402 0.012728 0.000000 -0.072716 -0.021296 0.000000 -0.083418 -0.053265 0.000000 -0.088248 -0.054342 0.000000 -0.087065 -0.027614 0.000000 -0.074149 -0.007316 0.000000 -0.068106 0.015169 0.000000 -0.066593 0.033615 0.000000 -0.065249 0.050420 0.000000 -0.067425 0.059603 0.000000 -0.067161 0.066214 0.000000 -0.069297 0.067235 0.000000 -0.068829 0.064698 0.000000 -0.069280 0.059206 0.000000 -0.067785 0.050515 0.000000 -0.066079 0.041092 0.000000 -0.063401 0.029518 0.000000 -0.059775 0.018505 0.000000 -0.055967 0.006542 0.000000 -0.050818 -0.004305 0.000000 -0.045958 -0.014986 0.000000 -0.039687 -0.024412 0.000000 -0.033916 -0.032779 0.000000 -0.026909 -0.039938 0.000000 -0.020430 -0.045419 0.000000 -0.013028 -0.049792 0.000000 -0.006076 -0.052125 0.000000 
0.001606 -0.060849 0.000000 0.008959 -0.059915 0.000000 0.016535 -0.058091 0.000000 0.023977 -0.053969 0.000000 0.031307 -0.048963 0.000000 0.038658 -0.041904 0.000000 0.045642 -0.033969 0.000000 0.052709 -0.024397 0.000000 0.059276 -0.014042 0.000000 0.065873 -0.002615 0.000000 0.071973 0.009317 0.000000 0.077925 0.021661 0.000000 0.083418 0.033945 0.000000 0.088437 0.045926 0.000000 0.092765 0.056910 0.000000 0.096120 0.066565 0.000000 0.097954 0.073542 0.000000 0.098374 0.076698 0.000000 0.096800 0.073225 0.000000 0.095793 0.061527 0.000000 0.097530 0.038253 0.000000 0.106525 0.013505 0.000000 0.120876 -0.018372 0.000000 0.124581 -0.042250 0.000000 0.139750 -0.042795 0.000000 0.198687 -0.036017 0.000000 0.231106 -0.067558 0.000000 0.202267 -0.100354 0.000000 0.171131 -0.068722 0.000000 0.149231 -0.020858 0.000000 0.122704 0.014856 0.000000 0.078936 0.045705 0.000000 0.022692 0.057668 0.000000 -0.037069 0.052931 0.000000 -0.083057 0.032764 0.000000 -0.111214 -0.001927 0.000000 -0.128316 -0.040577 0.000000 -0.142606 -0.077075 0.000000 -0.170165 -0.043097 0.000000 -0.158107 -0.010302 0.000000 -0.103622 -0.015574 0.000000 -0.082183 -0.022236 0.000000 -0.080760 -0.014255 0.000000 -0.074066 0.016883 0.000000 -0.070811 0.035665 0.000000 -0.071756 0.053787 0.000000 -0.074586 0.062960 0.000000 -0.074949 0.068522 0.000000 -0.077789 0.069268 0.000000 -0.076984 0.065140 0.000000 -0.077218 0.059039 0.000000 -0.074734 0.048872 0.000000 -0.072157 0.038831 0.000000 -0.068442 0.026154 0.000000 -0.063832 0.014586 0.000000 -0.059246 0.001843 0.000000 -0.053271 -0.009515 0.000000 -0.047907 -0.020731 0.000000 -0.041031 -0.030600 0.000000 -0.034949 -0.039300 0.000000 -0.027533 -0.046801 0.000000 -0.020860 -0.052448 0.000000 -0.013192 -0.057049 0.000000 -0.006095 -0.059418 0.000000 
0.001452 -0.068495 0.000000 0.008794 -0.067499 0.000000 0.016350 -0.065759 0.000000 0.023854 -0.061531 0.000000 0.031225 -0.056542 0.000000 0.038781 -0.049342 0.000000 0.045958 -0.041350 0.000000 0.053445 -0.031616 0.000000 0.060473 -0.021130 0.000000 0.067786 -0.009528 0.000000 0.074757 0.002607 0.000000 0.081796 0.015207 0.000000 0.088649 0.027832 0.000000 0.095085 0.040427 0.000000 0.101078 0.052129 0.000000 0.105764 0.063261 0.000000 0.108915 0.071647 0.000000 0.109179 0.076902 0.000000 0.107850 0.074106 0.000000 0.103891 0.059678 0.000000 0.110110 0.031055 0.000000 0.122750 -0.005395 0.000000 0.147203 -0.025003 0.000000 0.213521 -0.051723 0.000000 0.244208 -0.143176 0.000000 0.218739 -0.176308 0.000000 0.144002 -0.069774 0.000000 0.025902 0.030761 0.000000 -0.040779 0.060926 0.000000 -0.073968 0.062834 0.000000 -0.076940 0.057497 0.000000 -0.056684 0.052862 0.000000 -0.011353 0.049353 0.000000 0.035783 0.050588 0.000000 0.070832 0.055984 0.000000 0.081790 0.060725 0.000000 0.067466 0.066748 0.000000 0.024810 0.054578 0.000000 -0.059878 -0.005795 0.000000 -0.131634 -0.119808 0.000000 -0.169605 -0.130266 0.000000 -0.159060 -0.050476 0.000000 -0.106636 -0.015433 0.000000 -0.077498 0.005220 0.000000 -0.078054 0.031306 0.000000 -0.075068 0.054194 0.000000 -0.080353 0.062796 0.000000 -0.080456 0.069417 0.000000 -0.084823 0.069270 0.000000 -0.084172 0.064128 0.000000 -0.084251 0.056955 0.000000 -0.081147 0.045454 0.000000 -0.077432 0.034800 0.000000 -0.072885 0.021193 0.000000 -0.067059 0.009309 0.000000 -0.061851 -0.004018 0.000000 -0.054959 -0.015643 0.000000 -0.049238 -0.027226 0.000000 -0.041784 -0.037369 0.000000 -0.035542 -0.046278 0.000000 -0.027821 -0.054027 0.000000 -0.021110 -0.059759 0.000000 -0.013331 -0.064557 0.000000 -0.006252 -0.066923 0.000000 