# vtk DataFile Version 2.0
Comment goes here
ASCII

DATASET STRUCTURED_POINTS
FIELD FieldData 1
TIME 1 1 double
1.67000000
DIMENSIONS    64   64   1

ORIGIN    0.000   0.000   0.000
SPACING   0.015625 0.015625   1.000

POINT_DATA   4096
VECTORS u double

0.001770 0.000000 0.000000 0.000586 0.000000 0.000000 -0.000327 0.000000 0.000000 -0.001930 0.000000 0.000000 -0.003498 0.000000 0.000000 -0.006030 0.000000 0.000000 -0.008748 0.000000 0.000000 -0.012617 0.000000 0.000000 -0.016850 0.000000 0.000000 -0.022295 -0.000000 0.000000 -0.028206 0.000000 0.000000 -0.035223 -0.000000 0.000000 -0.042700 0.000000 0.000000 -0.050971 -0.000000 0.000000 -0.059556 0.000000 0.000000 -0.068399 0.000000 0.000000 -0.077251 0.000000 0.000000 -0.085620 0.000000 0.000000 -0.093549 0.000000 0.000000 -0.100125 0.000000 0.000000 -0.105736 0.000000 0.000000 -0.109128 0.000000 0.000000 -0.111065 0.000000 0.000000 -0.110101 0.000000 0.000000 -0.107346 0.000000 0.000000 -0.101352 0.000000 0.000000 -0.093461 0.000000 0.000000 -0.082437 0.000000 0.000000 -0.069669 0.000000 0.000000 -0.054347 0.000000 0.000000 -0.037758 0.000000 0.000000 -0.019675 0.000000 0.000000 -0.001186 0.000000 0.000000 0.017382 0.000000 0.000000 0.035288 0.000000 0.000000 0.051890 0.000000 0.000000 0.066924 0.000000 0.000000 0.079718 0.000000 0.000000 0.090421 0.000000 0.000000 0.098525 0.000000 0.000000 0.104335 0.000000 0.000000 0.107624 0.000000 0.000000 0.108669 0.000000 0.000000 0.107559 0.000000 0.000000 0.104504 0.000000 0.000000 0.099845 0.000000 0.000000 0.093756 0.000000 0.000000 0.086703 0.000000 0.000000 0.078843 0.000000 0.000000 0.070641 0.000000 0.000000 0.062245 0.000000 0.000000 0.054019 0.000000 0.000000 0.046102 0.000000 0.000000 0.038704 0.000000 0.000000 0.031965 0.000000 0.000000 0.025908 0.000000 0.000000 0.020701 0.000000 0.000000 0.016169 0.000000 0.000000 0.012539 0.000000 0.000000 0.009435 0.000000 0.000000 0.007174 0.000000 0.000000 0.005190 0.000000 0.000000 0.003905 0.000000 0.000000 0.002587 0.000000 0.000000 
0.001858 0.001001 0.000000 0.000729 0.001049 0.000000 -0.000128 0.001258 0.000000 -0.001674 0.001586 0.000000 -0.003186 0.002050 0.000000 -0.005658 0.002625 0.000000 -0.008322 0.003294 0.000000 -0.012128 0.004051 0.000000 -0.016312 0.004839 0.000000 -0.021691 0.005678 0.000000 -0.027563 0.006464 0.000000 -0.034514 0.007247 0.000000 -0.041964 0.007874 0.000000 -0.050171 0.008428 0.000000 -0.058741 0.008714 0.000000 -0.067521 0.008847 0.000000 -0.076363 0.008610 0.000000 -0.084664 0.008149 0.000000 -0.092572 0.007253 0.000000 -0.099059 0.006093 0.000000 -0.104610 0.004502 0.000000 -0.107881 0.002665 0.000000 -0.109698 0.000487 0.000000 -0.108585 -0.001860 0.000000 -0.105667 -0.004374 0.000000 -0.099550 -0.006942 0.000000 -0.091545 -0.009458 0.000000 -0.080540 -0.011896 0.000000 -0.067854 -0.014045 0.000000 -0.052812 -0.015955 0.000000 -0.036574 -0.017336 0.000000 -0.019009 -0.018286 0.000000 -0.001045 -0.018529 0.000000 0.016934 -0.018237 0.000000 0.034333 -0.017254 0.000000 0.050479 -0.015818 0.000000 0.065199 -0.013914 0.000000 0.077799 -0.011749 0.000000 0.088438 -0.009403 0.000000 0.096581 -0.006957 0.000000 0.102497 -0.004550 0.000000 0.105933 -0.002167 0.000000 0.107141 0.000033 0.000000 0.106187 0.002083 0.000000 0.103282 0.003857 0.000000 0.098749 0.005374 0.000000 0.092774 0.006571 0.000000 0.085812 0.007456 0.000000 0.078033 0.008031 0.000000 0.069901 0.008299 0.000000 0.061566 0.008311 0.000000 0.053399 0.008071 0.000000 0.045537 0.007658 0.000000 0.038194 0.007069 0.000000 0.031508 0.006398 0.000000 0.025505 0.005632 0.000000 0.020352 0.004869 0.000000 0.015874 0.004081 0.000000 0.012299 0.003367 0.000000 0.009249 0.002683 0.000000 0.007043 0.002123 0.000000 0.005112 0.001634 0.000000 0.003883 0.001301 0.000000 0.002619 0.001067 0.000000 
0.001769 0.001890 0.000000 0.000792 0.001986 0.000000 0.000098 0.002402 0.000000 -0.001296 0.003058 0.000000 -0.002642 0.003984 0.000000 -0.004967 0.005136 0.000000 -0.007464 0.006470 0.000000 -0.011133 0.007990 0.000000 -0.015154 0.009563 0.000000 -0.020417 0.011251 0.000000 -0.026140 0.012823 0.000000 -0.033007 0.014401 0.000000 -0.040340 0.015657 0.000000 -0.048510 0.016777 0.000000 -0.057011 0.017350 0.000000 -0.065814 0.017622 0.000000 -0.074651 0.017143 0.000000 -0.083037 0.016208 0.000000 -0.091009 0.014396 0.000000 -0.097637 0.012038 0.000000 -0.103325 0.008821 0.000000 -0.106777 0.005088 0.000000 -0.108806 0.000704 0.000000 -0.107904 -0.004031 0.000000 -0.105268 -0.009035 0.000000 -0.099371 -0.014122 0.000000 -0.091663 -0.019010 0.000000 -0.080810 -0.023691 0.000000 -0.068276 -0.027728 0.000000 -0.053157 -0.031280 0.000000 -0.036763 -0.033803 0.000000 -0.018837 -0.035529 0.000000 -0.000482 -0.035944 0.000000 0.017922 -0.035378 0.000000 0.035637 -0.033545 0.000000 0.051939 -0.030866 0.000000 0.066648 -0.027320 0.000000 0.079028 -0.023239 0.000000 0.089372 -0.018782 0.000000 0.097116 -0.014058 0.000000 0.102654 -0.009352 0.000000 0.105724 -0.004644 0.000000 0.106599 -0.000254 0.000000 0.105376 0.003858 0.000000 0.102220 0.007438 0.000000 0.097504 0.010509 0.000000 0.091359 0.012938 0.000000 0.084285 0.014740 0.000000 0.076414 0.015911 0.000000 0.068235 0.016467 0.000000 0.059877 0.016501 0.000000 0.051724 0.016029 0.000000 0.043899 0.015205 0.000000 0.036621 0.014029 0.000000 0.030018 0.012689 0.000000 0.024120 0.011155 0.000000 0.019084 0.009631 0.000000 0.014736 0.008053 0.000000 0.011298 0.006625 0.000000 0.008393 0.005256 0.000000 0.006335 0.004137 0.000000 0.004556 0.003160 0.000000 0.003481 0.002493 0.000000 0.002371 0.002025 0.000000 
0.001854 0.002579 0.000000 0.001136 0.002719 0.000000 0.000713 0.003346 0.000000 -0.000420 0.004326 0.000000 -0.001491 0.005721 0.000000 -0.003553 0.007447 0.000000 -0.005776 0.009459 0.000000 -0.009185 0.011741 0.000000 -0.012946 0.014122 0.000000 -0.017962 0.016664 0.000000 -0.023458 0.019054 0.000000 -0.030110 0.021446 0.000000 -0.037271 0.023377 0.000000 -0.045277 0.025099 0.000000 -0.053682 0.026018 0.000000 -0.062383 0.026487 0.000000 -0.071202 0.025833 0.000000 -0.079537 0.024508 0.000000 -0.087542 0.021853 0.000000 -0.094130 0.018409 0.000000 -0.099837 0.013642 0.000000 -0.103205 0.008145 0.000000 -0.105173 0.001614 0.000000 -0.104115 -0.005397 0.000000 -0.101337 -0.012907 0.000000 -0.095289 -0.020547 0.000000 -0.087498 -0.028019 0.000000 -0.076720 -0.035283 0.000000 -0.064434 -0.041698 0.000000 -0.049834 -0.047468 0.000000 -0.034099 -0.051656 0.000000 -0.017044 -0.054567 0.000000 0.000427 -0.055288 0.000000 0.017840 -0.054356 0.000000 0.034653 -0.051271 0.000000 0.050055 -0.046829 0.000000 0.064061 -0.041003 0.000000 0.075864 -0.034473 0.000000 0.085873 -0.027491 0.000000 0.093433 -0.020239 0.000000 0.098927 -0.013158 0.000000 0.102034 -0.006111 0.000000 0.102985 0.000381 0.000000 0.101857 0.006462 0.000000 0.098784 0.011729 0.000000 0.094148 0.016234 0.000000 0.088065 0.019790 0.000000 0.081059 0.022401 0.000000 0.073251 0.024081 0.000000 0.065158 0.024836 0.000000 0.056894 0.024822 0.000000 0.048867 0.024050 0.000000 0.041181 0.022761 0.000000 0.034075 0.020949 0.000000 0.027657 0.018899 0.000000 0.021969 0.016566 0.000000 0.017152 0.014253 0.000000 0.013039 0.011867 0.000000 0.009843 0.009710 0.000000 0.007186 0.007645 0.000000 0.005383 0.005960 0.000000 0.003857 0.004488 0.000000 0.003045 0.003486 0.000000 0.002189 0.002780 0.000000 
0.001762 0.002944 0.000000 0.001394 0.003127 0.000000 0.001340 0.003958 0.000000 0.000557 0.005262 0.000000 -0.000137 0.007117 0.000000 -0.001853 0.009421 0.000000 -0.003694 0.012102 0.000000 -0.006770 0.015160 0.000000 -0.010158 0.018340 0.000000 -0.014873 0.021763 0.000000 -0.020026 0.024970 0.000000 -0.026436 0.028214 0.000000 -0.033318 0.030824 0.000000 -0.041173 0.033188 0.000000 -0.049398 0.034456 0.000000 -0.058061 0.035142 0.000000 -0.066822 0.034297 0.000000 -0.075230 0.032549 0.000000 -0.083296 0.028989 0.000000 -0.090038 0.024333 0.000000 -0.095905 0.017895 0.000000 -0.099473 0.010424 0.000000 -0.101704 0.001615 0.000000 -0.100907 -0.007867 0.000000 -0.098558 -0.017862 0.000000 -0.092889 -0.027961 0.000000 -0.085729 -0.037579 0.000000 -0.075432 -0.046755 0.000000 -0.063705 -0.054613 0.000000 -0.049319 -0.061615 0.000000 -0.033606 -0.066593 0.000000 -0.016209 -0.070055 0.000000 0.001724 -0.070827 0.000000 0.019626 -0.069604 0.000000 0.036732 -0.065760 0.000000 0.052054 -0.060275 0.000000 0.065673 -0.053129 0.000000 0.076664 -0.045050 0.000000 0.085849 -0.036351 0.000000 0.092477 -0.027113 0.000000 0.097229 -0.017952 0.000000 0.099716 -0.008702 0.000000 0.100155 -0.000077 0.000000 0.098682 0.008059 0.000000 0.095282 0.015147 0.000000 0.090448 0.021227 0.000000 0.084171 0.026026 0.000000 0.077063 0.029554 0.000000 0.069177 0.031812 0.000000 0.061079 0.032825 0.000000 0.052851 0.032792 0.000000 0.044924 0.031742 0.000000 0.037379 0.029997 0.000000 0.030469 0.027553 0.000000 0.024277 0.024795 0.000000 0.018857 0.021661 0.000000 0.014327 0.018561 0.000000 0.010528 0.015363 0.000000 0.007656 0.012478 0.000000 0.005337 0.009716 0.000000 0.003877 0.007465 0.000000 0.002700 0.005498 0.000000 0.002241 0.004161 0.000000 0.001736 0.003215 0.000000 
0.001843 0.002922 0.000000 0.001913 0.003141 0.000000 0.002327 0.004183 0.000000 0.001987 0.005803 0.000000 0.001771 0.008131 0.000000 0.000504 0.011004 0.000000 -0.000855 0.014377 0.000000 -0.003484 0.018204 0.000000 -0.006402 0.022224 0.000000 -0.010692 0.026533 0.000000 -0.015421 0.030618 0.000000 -0.021458 0.034738 0.000000 -0.028007 0.038114 0.000000 -0.035581 0.041179 0.000000 -0.043610 0.042906 0.000000 -0.052112 0.043911 0.000000 -0.060833 0.043002 0.000000 -0.069192 0.040983 0.000000 -0.077337 0.036660 0.000000 -0.084068 0.031017 0.000000 -0.090018 0.023076 0.000000 -0.093491 0.013945 0.000000 -0.095661 0.003049 0.000000 -0.094581 -0.008543 0.000000 -0.091940 -0.020925 0.000000 -0.085857 -0.033376 0.000000 -0.078371 -0.045477 0.000000 -0.067982 -0.057308 0.000000 -0.056593 -0.067811 0.000000 -0.043084 -0.077566 0.000000 -0.028597 -0.084765 0.000000 -0.012783 -0.089897 0.000000 0.003530 -0.091123 0.000000 0.019662 -0.089365 0.000000 0.035133 -0.083699 0.000000 0.048826 -0.075770 0.000000 0.061203 -0.065613 0.000000 0.071222 -0.054649 0.000000 0.079954 -0.043305 0.000000 0.086420 -0.031619 0.000000 0.091203 -0.020397 0.000000 0.093822 -0.009037 0.000000 0.094396 0.001415 0.000000 0.093059 0.011335 0.000000 0.089737 0.019963 0.000000 0.084969 0.027345 0.000000 0.078715 0.033176 0.000000 0.071653 0.037395 0.000000 0.063810 0.040065 0.000000 0.055811 0.041162 0.000000 0.047706 0.040977 0.000000 0.039973 0.039522 0.000000 0.032652 0.037216 0.000000 0.026031 0.034051 0.000000 0.020154 0.030510 0.000000 0.015095 0.026517 0.000000 0.010944 0.022582 0.000000 0.007552 0.018539 0.000000 0.005097 0.014901 0.000000 0.003206 0.011423 0.000000 0.002184 0.008597 0.000000 0.001440 0.006124 0.000000 0.001430 0.004450 0.000000 0.001361 0.003259 0.000000 
0.001747 0.002392 0.000000 0.002335 0.002643 0.000000 0.003293 0.003884 0.000000 0.003474 0.005818 0.000000 0.003819 0.008600 0.000000 0.003076 0.012047 0.000000 0.002293 0.016091 0.000000 0.000181 0.020707 0.000000 -0.002159 0.025548 0.000000 -0.005963 0.030782 0.000000 -0.010145 0.035737 0.000000 -0.015769 0.040800 0.000000 -0.021851 0.044947 0.000000 -0.029132 0.048791 0.000000 -0.036829 0.050987 0.000000 -0.045199 0.052366 0.000000 -0.053758 0.051378 0.000000 -0.062136 0.049052 0.000000 -0.070270 0.043864 0.000000 -0.077104 0.037015 0.000000 -0.083136 0.027318 0.000000 -0.086728 0.016066 0.000000 -0.089084 0.002705 0.000000 -0.088218 -0.011588 0.000000 -0.086108 -0.026586 0.000000 -0.080583 -0.041530 0.000000 -0.074335 -0.055453 0.000000 -0.065108 -0.068533 0.000000 -0.055117 -0.079511 0.000000 -0.042393 -0.089611 0.000000 -0.028123 -0.096894 0.000000 -0.011749 -0.102182 0.000000 0.005504 -0.103272 0.000000 0.022653 -0.101206 0.000000 0.038740 -0.094925 0.000000 0.052245 -0.086345 0.000000 0.063704 -0.075524 0.000000 0.071862 -0.063800 0.000000 0.078883 -0.051549 0.000000 0.083570 -0.038362 0.000000 0.087177 -0.025354 0.000000 0.089003 -0.011894 0.000000 0.088959 0.000685 0.000000 0.087351 0.012718 0.000000 0.083702 0.023237 0.000000 0.078803 0.032249 0.000000 0.072377 0.039342 0.000000 0.065251 0.044460 0.000000 0.057375 0.047654 0.000000 0.049426 0.048928 0.000000 0.041439 0.048630 0.000000 0.033903 0.046796 0.000000 0.026843 0.043939 0.000000 0.020557 0.040051 0.000000 0.015055 0.035731 0.000000 0.010430 0.030870 0.000000 0.006733 0.026104 0.000000 0.003831 0.021210 0.000000 0.001873 0.016825 0.000000 0.000497 0.012629 0.000000 -0.000008 0.009231 0.000000 -0.000232 0.006252 0.000000 0.000282 0.004240 0.000000 0.000732 0.002801 0.000000 
0.001818 0.001319 0.000000 0.002983 0.001595 0.000000 0.004562 0.003044 0.000000 0.005330 0.005277 0.000000 0.006321 0.008528 0.000000 0.006180 0.012529 0.000000 0.006066 0.017272 0.000000 0.004564 0.022657 0.000000 0.002896 0.028368 0.000000 -0.000309 0.034519 0.000000 -0.003858 0.040424 0.000000 -0.008939 0.046444 0.000000 -0.014497 0.051478 0.000000 -0.021354 0.056157 0.000000 -0.028719 0.058972 0.000000 -0.036842 0.060839 0.000000 -0.045320 0.059940 0.000000 -0.053640 0.057495 0.000000 -0.061912 0.051628 0.000000 -0.068777 0.043883 0.000000 -0.075000 0.032701 0.000000 -0.078493 0.019892 0.000000 -0.080811 0.004538 0.000000 -0.079456 -0.011518 0.000000 -0.076724 -0.028560 0.000000 -0.070104 -0.045149 0.000000 -0.062600 -0.060951 0.000000 -0.052421 -0.076526 0.000000 -0.042528 -0.090527 0.000000 -0.031205 -0.104560 0.000000 -0.019248 -0.115408 0.000000 -0.005919 -0.123525 0.000000 0.008208 -0.125525 0.000000 0.022066 -0.122601 0.000000 0.035123 -0.113291 0.000000 0.045763 -0.100734 0.000000 0.055268 -0.085231 0.000000 0.062232 -0.069828 0.000000 0.069284 -0.055013 0.000000 0.074552 -0.039913 0.000000 0.078756 -0.025830 0.000000 0.081137 -0.010819 0.000000 0.081459 0.003068 0.000000 0.080110 0.016592 0.000000 0.076541 0.028510 0.000000 0.071660 0.038670 0.000000 0.065168 0.046728 0.000000 0.058015 0.052398 0.000000 0.050118 0.055890 0.000000 0.042258 0.057098 0.000000 0.034405 0.056500 0.000000 0.027127 0.054117 0.000000 0.020373 0.050562 0.000000 0.014494 0.045839 0.000000 0.009434 0.040637 0.000000 0.005318 0.034839 0.000000 0.002148 0.029181 0.000000 -0.000192 0.023398 0.000000 -0.001579 0.018236 0.000000 -0.002376 0.013305 0.000000 -0.002292 0.009326 0.000000 -0.001936 0.005834 0.000000 -0.000826 0.003486 0.000000 0.000199 0.001795 0.000000 
0.001716 -0.000393 0.000000 0.003513 -0.000101 0.000000 0.005758 0.001537 0.000000 0.007168 0.004060 0.000000 0.008855 0.007750 0.000000 0.009374 0.012302 0.000000 0.009994 0.017706 0.000000 0.009166 0.023876 0.000000 0.008260 0.030421 0.000000 0.005717 0.037537 0.000000 0.002921 0.044368 0.000000 -0.001561 0.051438 0.000000 -0.006438 0.057361 0.000000 -0.012838 0.063013 0.000000 -0.019681 0.066476 0.000000 -0.027556 0.068967 0.000000 -0.035731 0.068176 0.000000 -0.044002 0.065645 0.000000 -0.052142 0.059000 0.000000 -0.058995 0.050102 0.000000 -0.065070 0.037035 0.000000 -0.068401 0.021878 0.000000 -0.070491 0.003667 0.000000 -0.069019 -0.015675 0.000000 -0.066590 -0.035938 0.000000 -0.060503 -0.055655 0.000000 -0.055409 -0.073136 0.000000 -0.047944 -0.088604 0.000000 -0.041371 -0.100727 0.000000 -0.032101 -0.112891 0.000000 -0.020512 -0.122180 0.000000 -0.005917 -0.129638 0.000000 0.010348 -0.131258 0.000000 0.026607 -0.128122 0.000000 0.041325 -0.118622 0.000000 0.052158 -0.106491 0.000000 0.059938 -0.091993 0.000000 0.062870 -0.077816 0.000000 0.066524 -0.063870 0.000000 0.068592 -0.047834 0.000000 0.071314 -0.031939 0.000000 0.073248 -0.014597 0.000000 0.073126 0.001712 0.000000 0.071971 0.017636 0.000000 0.068234 0.031687 0.000000 0.063389 0.043622 0.000000 0.056788 0.052988 0.000000 0.049581 0.059509 0.000000 0.041694 0.063412 0.000000 0.033906 0.064641 0.000000 0.026249 0.063761 0.000000 0.019259 0.060828 0.000000 0.012886 0.056572 0.000000 0.007485 0.050991 0.000000 0.002947 0.044907 0.000000 -0.000572 0.038157 0.000000 -0.003136 0.031615 0.000000 -0.004826 0.024937 0.000000 -0.005570 0.019008 0.000000 -0.005708 0.013342 0.000000 -0.004974 0.008792 0.000000 -0.003971 0.004786 0.000000 -0.002213 0.002105 0.000000 -0.000554 0.000157 0.000000 
0.001770 -0.002748 0.000000 0.004215 -0.002447 0.000000 0.007170 -0.000611 0.000000 0.009245 0.002180 0.000000 0.011687 0.006322 0.000000 0.012903 0.011391 0.000000 0.014332 0.017480 0.000000 0.014238 0.024391 0.000000 0.014185 0.031817 0.000000 0.012393 0.039858 0.000000 0.010447 0.047702 0.000000 0.006681 0.055803 0.000000 0.002553 0.062754 0.000000 -0.003255 0.069400 0.000000 -0.009590 0.073691 0.000000 -0.017115 0.076889 0.000000 -0.025151 0.076385 0.000000 -0.033367 0.073905 0.000000 -0.041735 0.066622 0.000000 -0.048693 0.056812 0.000000 -0.055124 0.042107 0.000000 -0.058372 0.025313 0.000000 -0.060584 0.005156 0.000000 -0.058485 -0.015419 0.000000 -0.055126 -0.037077 0.000000 -0.046575 -0.056331 0.000000 -0.037336 -0.073510 0.000000 -0.025640 -0.090564 0.000000 -0.017536 -0.106370 0.000000 -0.010336 -0.125419 0.000000 -0.003490 -0.141592 0.000000 0.004384 -0.154384 0.000000 0.013554 -0.158049 0.000000 0.022640 -0.153579 0.000000 0.030862 -0.138842 0.000000 0.036273 -0.119346 0.000000 0.041284 -0.095943 0.000000 0.043832 -0.076414 0.000000 0.050342 -0.060735 0.000000 0.056050 -0.044703 0.000000 0.060957 -0.030486 0.000000 0.064245 -0.012632 0.000000 0.064869 0.004345 0.000000 0.064156 0.021484 0.000000 0.060475 0.037092 0.000000 0.055506 0.050115 0.000000 0.048630 0.060536 0.000000 0.041208 0.067492 0.000000 0.033142 0.071565 0.000000 0.025363 0.072544 0.000000 0.017811 0.071147 0.000000 0.011119 0.067480 0.000000 0.005123 0.062337 0.000000 0.000243 0.055778 0.000000 -0.003735 0.048693 0.000000 -0.006608 0.040922 0.000000 -0.008517 0.033435 0.000000 -0.009518 0.025832 0.000000 -0.009574 0.019118 0.000000 -0.009025 0.012709 0.000000 -0.007604 0.007589 0.000000 -0.005933 0.003072 0.000000 -0.003494 0.000069 0.000000 -0.001185 -0.002134 0.000000 
0.001660 -0.005792 0.000000 0.004771 -0.005500 0.000000 0.008430 -0.003493 0.000000 0.011191 -0.000457 0.000000 0.014386 0.004092 0.000000 0.016331 0.009657 0.000000 0.018585 0.016371 0.000000 0.019269 0.024023 0.000000 0.020115 0.032266 0.000000 0.019130 0.041275 0.000000 0.018125 0.050080 0.000000 0.015130 0.059332 0.000000 0.011901 0.067298 0.000000 0.006711 0.075156 0.000000 0.001099 0.080335 0.000000 -0.006088 0.084528 0.000000 -0.013689 0.084428 0.000000 -0.021828 0.082229 0.000000 -0.029915 0.074326 0.000000 -0.036611 0.063492 0.000000 -0.042285 0.046715 0.000000 -0.044344 0.027337 0.000000 -0.044724 0.003780 0.000000 -0.041074 -0.021132 0.000000 -0.035940 -0.047848 0.000000 -0.026360 -0.073445 0.000000 -0.021963 -0.094071 0.000000 -0.017057 -0.108404 0.000000 -0.017133 -0.116031 0.000000 -0.014894 -0.126937 0.000000 -0.008135 -0.136900 0.000000 0.002185 -0.146682 0.000000 0.014537 -0.149514 0.000000 0.027294 -0.145430 0.000000 0.038768 -0.132255 0.000000 0.046286 -0.116913 0.000000 0.048398 -0.099552 0.000000 0.041684 -0.086874 0.000000 0.040965 -0.076088 0.000000 0.040846 -0.058449 0.000000 0.045171 -0.040133 0.000000 0.050734 -0.018509 0.000000 0.052213 0.001801 0.000000 0.053383 0.022030 0.000000 0.050322 0.040337 0.000000 0.045827 0.055466 0.000000 0.039088 0.067286 0.000000 0.031546 0.074997 0.000000 0.023525 0.079257 0.000000 0.015749 0.079972 0.000000 0.008427 0.078004 0.000000 0.002076 0.073516 0.000000 -0.003451 0.067448 0.000000 -0.007722 0.059849 0.000000 -0.011056 0.051758 0.000000 -0.013185 0.042939 0.000000 -0.014368 0.034524 0.000000 -0.014594 0.025994 0.000000 -0.013910 0.018516 0.000000 -0.012614 0.011371 0.000000 -0.010472 0.005700 0.000000 -0.008097 0.000676 0.000000 -0.004963 -0.002643 0.000000 -0.001980 -0.005107 0.000000 
0.001688 -0.009499 0.000000 0.005421 -0.009217 0.000000 0.009782 -0.007031 0.000000 0.013192 -0.003776 0.000000 0.017159 0.001182 0.000000 0.019809 0.007192 0.000000 0.022937 0.014542 0.000000 0.024400 0.022860 0.000000 0.026226 0.031956 0.000000 0.026087 0.041848 0.000000 0.026125 0.051702 0.000000 0.023989 0.062028 0.000000 0.021745 0.071173 0.000000 0.017307 0.080202 0.000000 0.012417 0.086490 0.000000 0.005705 0.091677 0.000000 -0.001645 0.092125 0.000000 -0.009668 0.090132 0.000000 -0.017917 0.081405 0.000000 -0.024500 0.069182 0.000000 -0.030148 0.049841 0.000000 -0.031318 0.027752 0.000000 -0.031421 0.001886 0.000000 -0.026976 -0.024203 0.000000 -0.021928 -0.051791 0.000000 -0.008341 -0.070309 0.000000 0.008498 -0.082813 0.000000 0.029295 -0.095393 0.000000 0.037749 -0.108533 0.000000 0.037357 -0.134417 0.000000 0.032579 -0.158671 0.000000 0.024927 -0.177056 0.000000 0.017494 -0.183158 0.000000 0.010530 -0.177810 0.000000 0.004182 -0.157834 0.000000 -0.001286 -0.128976 0.000000 -0.002678 -0.091340 0.000000 -0.004246 -0.068981 0.000000 0.009335 -0.059898 0.000000 0.022960 -0.048909 0.000000 0.032135 -0.040374 0.000000 0.039053 -0.019674 0.000000 0.041882 0.001696 0.000000 0.044458 0.023375 0.000000 0.042127 0.044649 0.000000 0.037758 0.061349 0.000000 0.030729 0.074817 0.000000 0.022853 0.083055 0.000000 0.014497 0.087362 0.000000 0.006635 0.087641 0.000000 -0.000637 0.084820 0.000000 -0.006668 0.079358 0.000000 -0.011771 0.072135 0.000000 -0.015427 0.063384 0.000000 -0.018110 0.054157 0.000000 -0.019490 0.044234 0.000000 -0.019932 0.034844 0.000000 -0.019392 0.025375 0.000000 -0.017965 0.017137 0.000000 -0.015945 0.009271 0.000000 -0.013094 0.003072 0.000000 -0.010049 -0.002437 0.000000 -0.006238 -0.006048 0.000000 -0.002623 -0.008758 0.000000 
0.001569 -0.013837 0.000000 0.005893 -0.013595 0.000000 0.010882 -0.011263 0.000000 0.014913 -0.007834 0.000000 0.019579 -0.002525 0.000000 0.022922 0.003879 0.000000 0.026861 0.011780 0.000000 0.029113 0.020733 0.000000 0.031883 0.030579 0.000000 0.032617 0.041377 0.000000 0.033706 0.052178 0.000000 0.032454 0.063713 0.000000 0.031271 0.073980 0.000000 0.027564 0.084484 0.000000 0.023569 0.091937 0.000000 0.017221 0.098590 0.000000 0.010435 0.099801 0.000000 0.002458 0.098500 0.000000 -0.005242 0.089158 0.000000 -0.010854 0.075722 0.000000 -0.014039 0.053533 0.000000 -0.010193 0.028611 0.000000 -0.002962 -0.000562 0.000000 0.008311 -0.030626 0.000000 0.025709 -0.066483 0.000000 0.049399 -0.103871 0.000000 0.054304 -0.131707 0.000000 0.054460 -0.137654 0.000000 0.041158 -0.124093 0.000000 0.029793 -0.121768 0.000000 0.028035 -0.124470 0.000000 0.024512 -0.131598 0.000000 0.015676 -0.135117 0.000000 0.006096 -0.132117 0.000000 0.002881 -0.120438 0.000000 0.006146 -0.110053 0.000000 0.001413 -0.096592 0.000000 -0.022189 -0.098887 0.000000 -0.027345 -0.103294 0.000000 -0.026799 -0.081250 0.000000 -0.012032 -0.056227 0.000000 0.009367 -0.028256 0.000000 0.018101 -0.003604 0.000000 0.027596 0.021785 0.000000 0.029067 0.047037 0.000000 0.026573 0.066864 0.000000 0.020849 0.082191 0.000000 0.012919 0.091230 0.000000 0.004831 0.095476 0.000000 -0.003124 0.095106 0.000000 -0.010180 0.091306 0.000000 -0.015849 0.084650 0.000000 -0.020475 0.076208 0.000000 -0.023419 0.066188 0.000000 -0.025406 0.055821 0.000000 -0.025938 0.044761 0.000000 -0.025599 0.034427 0.000000 -0.024229 0.024028 0.000000 -0.022041 0.015069 0.000000 -0.019273 0.006500 0.000000 -0.015725 -0.000196 0.000000 -0.012018 -0.006180 0.000000 -0.007570 -0.010069 0.000000 -0.003351 -0.013033 0.000000 
0.001556 -0.018742 0.000000 0.006357 -0.018530 0.000000 0.011911 -0.016052 0.000000 0.016453 -0.012472 0.000000 0.021781 -0.006827 0.000000 0.025714 -0.000090 0.000000 0.030468 0.008351 0.000000 0.033420 0.017838 0.000000 0.037185 0.028452 0.000000 0.038730 0.040025 0.000000 0.040962 0.051866 0.000000 0.040584 0.064463 0.000000 0.040566 0.076063 0.000000 0.037694 0.087905 0.000000 0.034664 0.096833 0.000000 0.028984 0.104810 0.000000 0.022788 0.106888 0.000000 0.015379 0.105809 0.000000 0.008350 0.094717 0.000000 0.004374 0.077978 0.000000 0.004324 0.049179 0.000000 0.014292 0.016676 0.000000 0.027567 -0.016618 0.000000 0.042632 -0.052874 0.000000 0.050147 -0.092878 0.000000 0.070681 -0.098904 0.000000 0.107154 -0.087875 0.000000 0.163521 -0.082246 0.000000 0.188616 -0.083865 0.000000 0.174661 -0.121294 0.000000 0.135443 -0.153390 0.000000 0.081324 -0.164697 0.000000 0.018827 -0.164742 0.000000 -0.046669 -0.165015 0.000000 -0.101200 -0.157885 0.000000 -0.145244 -0.127508 0.000000 -0.156736 -0.063005 0.000000 -0.140500 -0.040222 0.000000 -0.087448 -0.055287 0.000000 -0.046024 -0.064222 0.000000 -0.030954 -0.076541 0.000000 -0.019353 -0.049807 0.000000 -0.007587 -0.016533 0.000000 0.009391 0.012409 0.000000 0.016187 0.045671 0.000000 0.016315 0.069566 0.000000 0.011669 0.088470 0.000000 0.004172 0.099074 0.000000 -0.003911 0.103405 0.000000 -0.011769 0.102651 0.000000 -0.018706 0.097545 0.000000 -0.024001 0.089654 0.000000 -0.028185 0.079705 0.000000 -0.030470 0.068315 0.000000 -0.031790 0.056676 0.000000 -0.031548 0.044427 0.000000 -0.030471 0.033136 0.000000 -0.028354 0.021817 0.000000 -0.025466 0.012181 0.000000 -0.022044 0.002955 0.000000 -0.017874 -0.004183 0.000000 -0.013610 -0.010592 0.000000 -0.008607 -0.014715 0.000000 -0.003894 -0.017897 0.000000 
0.001431 -0.024088 0.000000 0.006612 -0.023950 0.000000 0.012580 -0.021359 0.000000 0.017545 -0.017703 0.000000 0.023371 -0.011787 0.000000 0.027827 -0.004808 0.000000 0.033226 0.004074 0.000000 0.036835 0.014015 0.000000 0.041423 0.025269 0.000000 0.043751 0.037600 0.000000 0.046964 0.050324 0.000000 0.047420 0.064108 0.000000 0.048456 0.076870 0.000000 0.046313 0.090386 0.000000 0.044307 0.100648 0.000000 0.039039 0.110466 0.000000 0.033788 0.113405 0.000000 0.026477 0.112938 0.000000 0.020641 0.100163 0.000000 0.018512 0.079748 0.000000 0.023465 0.043614 0.000000 0.048329 0.005368 0.000000 0.079892 -0.028902 0.000000 0.117294 -0.053206 0.000000 0.183029 -0.094532 0.000000 0.256173 -0.160878 0.000000 0.244375 -0.224547 0.000000 0.222292 -0.219117 0.000000 0.181206 -0.135232 0.000000 0.137056 -0.068594 0.000000 0.092329 -0.031134 0.000000 0.042079 -0.014982 0.000000 0.004389 -0.007124 0.000000 -0.039200 -0.012090 0.000000 -0.078475 -0.021863 0.000000 -0.131493 -0.054517 0.000000 -0.161459 -0.101336 0.000000 -0.178820 -0.168175 0.000000 -0.190005 -0.197770 0.000000 -0.202991 -0.137743 0.000000 -0.153989 -0.082897 0.000000 -0.082378 -0.051623 0.000000 -0.051162 -0.032349 0.000000 -0.021521 -0.001989 0.000000 -0.003275 0.040113 0.000000 0.001381 0.071382 0.000000 0.001389 0.094334 0.000000 -0.005427 0.106811 0.000000 -0.012438 0.111417 0.000000 -0.020169 0.109901 0.000000 -0.026925 0.103538 0.000000 -0.031753 0.094129 0.000000 -0.035599 0.082677 0.000000 -0.037111 0.069793 0.000000 -0.037819 0.056898 0.000000 -0.036726 0.043442 0.000000 -0.034933 0.031233 0.000000 -0.032051 0.019022 0.000000 -0.028496 0.008759 0.000000 -0.024458 -0.001091 0.000000 -0.019733 -0.008631 0.000000 -0.014986 -0.015447 0.000000 -0.009531 -0.019784 0.000000 -0.004418 -0.023196 0.000000 
0.001362 -0.029773 0.000000 0.006742 -0.029679 0.000000 0.012989 -0.026985 0.000000 0.018192 -0.023264 0.000000 0.024413 -0.017109 0.000000 0.029195 -0.009944 0.000000 0.035180 -0.000656 0.000000 0.039230 0.009640 0.000000 0.044636 0.021536 0.000000 0.047501 0.034485 0.000000 0.051733 0.048197 0.000000 0.052773 0.062970 0.000000 0.054930 0.077170 0.000000 0.053431 0.092055 0.000000 0.052587 0.104108 0.000000 0.048307 0.115328 0.000000 0.044486 0.119450 0.000000 0.039183 0.118956 0.000000 0.036150 0.102682 0.000000 0.038742 0.075154 0.000000 0.053722 0.019362 0.000000 0.096460 -0.039751 0.000000 0.157443 -0.085583 0.000000 0.233593 -0.156011 0.000000 0.229695 -0.231757 0.000000 0.160272 -0.160250 0.000000 0.021054 -0.053994 0.000000 -0.100221 -0.019077 0.000000 -0.159726 0.001370 0.000000 -0.166407 -0.032418 0.000000 -0.131027 -0.058413 0.000000 -0.083472 -0.076757 0.000000 -0.024219 -0.083463 0.000000 0.034985 -0.082151 0.000000 0.090427 -0.065592 0.000000 0.139386 -0.044523 0.000000 0.146571 -0.015678 0.000000 0.120724 -0.011677 0.000000 0.044412 -0.031116 0.000000 -0.074718 -0.100238 0.000000 -0.149288 -0.197153 0.000000 -0.173329 -0.152634 0.000000 -0.122788 -0.077390 0.000000 -0.064292 -0.035477 0.000000 -0.027353 0.022770 0.000000 -0.014791 0.064902 0.000000 -0.010575 0.095278 0.000000 -0.014494 0.112901 0.000000 -0.020088 0.118147 0.000000 -0.026904 0.117139 0.000000 -0.033145 0.109129 0.000000 -0.037465 0.098327 0.000000 -0.040928 0.085063 0.000000 -0.041866 0.070535 0.000000 -0.042068 0.056290 0.000000 -0.040345 0.041540 0.000000 -0.037982 0.028461 0.000000 -0.034535 0.015380 0.000000 -0.030467 0.004587 0.000000 -0.025994 -0.005808 0.000000 -0.020873 -0.013655 0.000000 -0.015819 -0.020794 0.000000 -0.010071 -0.025282 0.000000 -0.004736 -0.028860 0.000000 