# vtk DataFile Version 2.0
Comment goes here
ASCII

DATASET STRUCTURED_POINTS
FIELD FieldData 1
TIME 1 1 double
1.59000000
DIMENSIONS    64   64   1

ORIGIN    0.000   0.000   0.000
SPACING   0.015625 0.015625   1.000

POINT_DATA   4096
VECTORS u double

0.001674 0.000000 0.000000 0.001780 0.000000 0.000000 0.001824 0.000000 0.000000 0.001543 0.000000 0.000000 0.000869 0.000000 0.000000 -0.000332 0.000000 0.000000 -0.002224 0.000000 0.000000 -0.004786 0.000000 0.000000 -0.008267 0.000000 0.000000 -0.012473 0.000000 0.000000 -0.017720 0.000000 0.000000 -0.023622 0.000000 0.000000 -0.030546 0.000000 0.000000 -0.037893 0.000000 0.000000 -0.046067 0.000000 0.000000 -0.054250 0.000000 0.000000 -0.062870 0.000000 0.000000 -0.070912 0.000000 0.000000 -0.078829 0.000000 0.000000 -0.085463 0.000000 0.000000 -0.091313 0.000000 0.000000 -0.095174 0.000000 0.000000 -0.097629 0.000000 0.000000 -0.097540 0.000000 0.000000 -0.095607 0.000000 0.000000 -0.090860 0.000000 0.000000 -0.084126 0.000000 0.000000 -0.074661 0.000000 0.000000 -0.063408 0.000000 0.000000 -0.049871 0.000000 0.000000 -0.035100 0.000000 0.000000 -0.018893 0.000000 0.000000 -0.002351 0.000000 0.000000 0.014418 0.000000 0.000000 0.030486 0.000000 0.000000 0.045501 0.000000 0.000000 0.059017 0.000000 0.000000 0.070486 0.000000 0.000000 0.080095 0.000000 0.000000 0.087082 0.000000 0.000000 0.092205 0.000000 0.000000 0.094542 0.000000 0.000000 0.095239 0.000000 0.000000 0.093365 0.000000 0.000000 0.090245 0.000000 0.000000 0.085080 0.000000 0.000000 0.079178 0.000000 0.000000 0.071931 0.000000 0.000000 0.064491 0.000000 0.000000 0.056420 0.000000 0.000000 0.048655 0.000000 0.000000 0.040856 0.000000 0.000000 0.033750 0.000000 0.000000 0.027021 0.000000 0.000000 0.021229 0.000000 0.000000 0.016028 0.000000 0.000000 0.011857 0.000000 0.000000 0.008320 0.000000 0.000000 0.005768 0.000000 0.000000 0.003764 0.000000 0.000000 0.002585 0.000000 0.000000 0.001780 0.000000 0.000000 0.001553 0.000000 0.000000 0.001478 0.000000 0.000000 
0.001524 -0.000151 0.000000 0.001658 -0.000075 0.000000 0.001743 0.000118 0.000000 0.001489 0.000477 0.000000 0.000857 0.000938 0.000000 -0.000319 0.001546 0.000000 -0.002172 0.002227 0.000000 -0.004713 0.003022 0.000000 -0.008162 0.003843 0.000000 -0.012356 0.004727 0.000000 -0.017585 0.005575 0.000000 -0.023488 0.006413 0.000000 -0.030418 0.007136 0.000000 -0.037786 0.007760 0.000000 -0.045999 0.008178 0.000000 -0.054228 0.008402 0.000000 -0.062929 0.008331 0.000000 -0.071037 0.007979 0.000000 -0.079073 0.007275 0.000000 -0.085783 0.006242 0.000000 -0.091771 0.004856 0.000000 -0.095695 0.003158 0.000000 -0.098269 0.001183 0.000000 -0.098197 -0.001011 0.000000 -0.096319 -0.003340 0.000000 -0.091515 -0.005740 0.000000 -0.084744 -0.008099 0.000000 -0.075145 -0.010359 0.000000 -0.063770 -0.012395 0.000000 -0.050061 -0.014154 0.000000 -0.035133 -0.015489 0.000000 -0.018762 -0.016374 0.000000 -0.002061 -0.016655 0.000000 0.014852 -0.016418 0.000000 0.031074 -0.015541 0.000000 0.046211 -0.014266 0.000000 0.059870 -0.012493 0.000000 0.071414 -0.010539 0.000000 0.081118 -0.008298 0.000000 0.088098 -0.006055 0.000000 0.093235 -0.003730 0.000000 0.095478 -0.001517 0.000000 0.096113 0.000588 0.000000 0.094092 0.002497 0.000000 0.090860 0.004142 0.000000 0.085536 0.005534 0.000000 0.079504 0.006575 0.000000 0.072117 0.007344 0.000000 0.064557 0.007755 0.000000 0.056381 0.007918 0.000000 0.048523 0.007782 0.000000 0.040656 0.007453 0.000000 0.033491 0.006917 0.000000 0.026727 0.006260 0.000000 0.020907 0.005496 0.000000 0.015695 0.004686 0.000000 0.011521 0.003854 0.000000 0.007990 0.003044 0.000000 0.005454 0.002278 0.000000 0.003466 0.001592 0.000000 0.002314 0.000992 0.000000 0.001532 0.000516 0.000000 0.001339 0.000151 0.000000 0.001290 -0.000060 0.000000 
0.001674 -0.000368 0.000000 0.001986 -0.000218 0.000000 0.002242 0.000169 0.000000 0.002170 0.000886 0.000000 0.001710 0.001809 0.000000 0.000721 0.003028 0.000000 -0.000956 0.004394 0.000000 -0.003307 0.005990 0.000000 -0.006580 0.007642 0.000000 -0.010586 0.009423 0.000000 -0.015644 0.011133 0.000000 -0.021372 0.012833 0.000000 -0.028143 0.014298 0.000000 -0.035362 0.015581 0.000000 -0.043438 0.016441 0.000000 -0.051552 0.016929 0.000000 -0.060139 0.016810 0.000000 -0.068173 0.016145 0.000000 -0.076113 0.014746 0.000000 -0.082779 0.012698 0.000000 -0.088679 0.009912 0.000000 -0.092584 0.006498 0.000000 -0.095091 0.002502 0.000000 -0.095048 -0.001950 0.000000 -0.093181 -0.006682 0.000000 -0.088522 -0.011575 0.000000 -0.081929 -0.016371 0.000000 -0.072658 -0.020975 0.000000 -0.061661 -0.025083 0.000000 -0.048411 -0.028636 0.000000 -0.033956 -0.031300 0.000000 -0.018040 -0.033072 0.000000 -0.001815 -0.033614 0.000000 0.014654 -0.033136 0.000000 0.030359 -0.031359 0.000000 0.044996 -0.028795 0.000000 0.058096 -0.025202 0.000000 0.069156 -0.021248 0.000000 0.078413 -0.016684 0.000000 0.085085 -0.012117 0.000000 0.090005 -0.007380 0.000000 0.092157 -0.002878 0.000000 0.092766 0.001386 0.000000 0.090799 0.005253 0.000000 0.087646 0.008555 0.000000 0.082442 0.011356 0.000000 0.076532 0.013419 0.000000 0.069291 0.014947 0.000000 0.061874 0.015736 0.000000 0.053857 0.016034 0.000000 0.046157 0.015725 0.000000 0.038461 0.015032 0.000000 0.031468 0.013930 0.000000 0.024885 0.012584 0.000000 0.019246 0.011032 0.000000 0.014221 0.009386 0.000000 0.010233 0.007705 0.000000 0.006888 0.006067 0.000000 0.004536 0.004524 0.000000 0.002732 0.003140 0.000000 0.001760 0.001934 0.000000 0.001158 0.000975 0.000000 0.001140 0.000243 0.000000 0.001268 -0.000185 0.000000 
0.001522 -0.000869 0.000000 0.002066 -0.000643 0.000000 0.002572 -0.000066 0.000000 0.002735 0.001009 0.000000 0.002528 0.002387 0.000000 0.001776 0.004212 0.000000 0.000352 0.006255 0.000000 -0.001767 0.008646 0.000000 -0.004797 0.011122 0.000000 -0.008589 0.013791 0.000000 -0.013435 0.016361 0.000000 -0.018987 0.018912 0.000000 -0.025603 0.021125 0.000000 -0.032710 0.023054 0.000000 -0.040719 0.024368 0.000000 -0.048805 0.025103 0.000000 -0.057435 0.024952 0.000000 -0.065524 0.023953 0.000000 -0.073608 0.021881 0.000000 -0.080383 0.018809 0.000000 -0.086483 0.014662 0.000000 -0.090494 0.009570 0.000000 -0.093188 0.003647 0.000000 -0.093205 -0.002922 0.000000 -0.091463 -0.009867 0.000000 -0.086819 -0.016993 0.000000 -0.080304 -0.023963 0.000000 -0.071048 -0.030627 0.000000 -0.060145 -0.036642 0.000000 -0.046988 -0.041860 0.000000 -0.032695 -0.045860 0.000000 -0.016943 -0.048515 0.000000 -0.000927 -0.049350 0.000000 0.015330 -0.048592 0.000000 0.030783 -0.045883 0.000000 0.045146 -0.042003 0.000000 0.057981 -0.036652 0.000000 0.068733 -0.030855 0.000000 0.077771 -0.024228 0.000000 0.084133 -0.017647 0.000000 0.088878 -0.010801 0.000000 0.090740 -0.004278 0.000000 0.091196 0.001946 0.000000 0.088972 0.007617 0.000000 0.085664 0.012499 0.000000 0.080252 0.016647 0.000000 0.074195 0.019726 0.000000 0.066819 0.022002 0.000000 0.059298 0.023189 0.000000 0.051235 0.023635 0.000000 0.043505 0.023178 0.000000 0.035851 0.022142 0.000000 0.028913 0.020494 0.000000 0.022445 0.018482 0.000000 0.016935 0.016160 0.000000 0.012077 0.013700 0.000000 0.008272 0.011187 0.000000 0.005128 0.008741 0.000000 0.002992 0.006434 0.000000 0.001404 0.004368 0.000000 0.000667 0.002566 0.000000 0.000289 0.001136 0.000000 0.000513 0.000041 0.000000 0.000869 -0.000595 0.000000 
0.001675 -0.001564 0.000000 0.002588 -0.001268 0.000000 0.003462 -0.000501 0.000000 0.004004 0.000929 0.000000 0.004170 0.002768 0.000000 0.003807 0.005205 0.000000 0.002761 0.007937 0.000000 0.001036 0.011140 0.000000 -0.001618 0.014464 0.000000 -0.005024 0.018060 0.000000 -0.009511 0.021531 0.000000 -0.014711 0.025001 0.000000 -0.021013 0.028021 0.000000 -0.027830 0.030697 0.000000 -0.035594 0.032536 0.000000 -0.043477 0.033646 0.000000 -0.051938 0.033529 0.000000 -0.059908 0.032318 0.000000 -0.067872 0.029604 0.000000 -0.074570 0.025573 0.000000 -0.080540 0.020023 0.000000 -0.084465 0.013203 0.000000 -0.086995 0.005213 0.000000 -0.086934 -0.003675 0.000000 -0.085103 -0.013068 0.000000 -0.080564 -0.022734 0.000000 -0.074298 -0.032142 0.000000 -0.065608 -0.041134 0.000000 -0.055469 -0.049144 0.000000 -0.043253 -0.056086 0.000000 -0.029949 -0.061344 0.000000 -0.015102 -0.064839 0.000000 -0.000010 -0.065887 0.000000 0.015393 -0.064846 0.000000 0.029807 -0.061175 0.000000 0.043100 -0.055993 0.000000 0.054737 -0.048790 0.000000 0.064408 -0.041038 0.000000 0.072540 -0.032084 0.000000 0.078274 -0.023224 0.000000 0.082689 -0.013986 0.000000 0.084410 -0.005196 0.000000 0.084908 0.003154 0.000000 0.082794 0.010785 0.000000 0.079658 0.017275 0.000000 0.074430 0.022825 0.000000 0.068565 0.026853 0.000000 0.061394 0.029844 0.000000 0.054077 0.031320 0.000000 0.046250 0.031826 0.000000 0.038759 0.031108 0.000000 0.031386 0.029625 0.000000 0.024734 0.027336 0.000000 0.018590 0.024562 0.000000 0.013413 0.021399 0.000000 0.008909 0.018048 0.000000 0.005465 0.014654 0.000000 0.002688 0.011348 0.000000 0.000927 0.008247 0.000000 -0.000290 0.005465 0.000000 -0.000653 0.003050 0.000000 -0.000663 0.001128 0.000000 -0.000068 -0.000338 0.000000 0.000655 -0.001194 0.000000 
0.001518 -0.002803 0.000000 0.002846 -0.002430 0.000000 0.004160 -0.001482 0.000000 0.005125 0.000301 0.000000 0.005740 0.002584 0.000000 0.005809 0.005622 0.000000 0.005220 0.009026 0.000000 0.003929 0.013024 0.000000 0.001727 0.017182 0.000000 -0.001264 0.021685 0.000000 -0.005333 0.026049 0.000000 -0.010171 0.030414 0.000000 -0.016132 0.034244 0.000000 -0.022684 0.037635 0.000000 -0.030238 0.040015 0.000000 -0.037990 0.041448 0.000000 -0.046411 0.041383 0.000000 -0.054383 0.039886 0.000000 -0.062463 0.036542 0.000000 -0.069236 0.031477 0.000000 -0.075399 0.024557 0.000000 -0.079373 0.016026 0.000000 -0.082062 0.006116 0.000000 -0.081974 -0.004814 0.000000 -0.080215 -0.016237 0.000000 -0.075638 -0.027797 0.000000 -0.069458 -0.038919 0.000000 -0.060845 -0.049455 0.000000 -0.051001 -0.058998 0.000000 -0.039252 -0.067380 0.000000 -0.026622 -0.074010 0.000000 -0.012525 -0.078454 0.000000 0.001702 -0.079846 0.000000 0.016265 -0.078409 0.000000 0.029742 -0.073590 0.000000 0.042157 -0.066934 0.000000 0.052961 -0.057960 0.000000 0.061883 -0.048658 0.000000 0.069508 -0.038093 0.000000 0.074669 -0.027796 0.000000 0.078821 -0.016938 0.000000 0.080138 -0.006497 0.000000 0.080521 0.003563 0.000000 0.078126 0.012867 0.000000 0.074886 0.020864 0.000000 0.069475 0.027739 0.000000 0.063495 0.032762 0.000000 0.056250 0.036490 0.000000 0.048869 0.038333 0.000000 0.041093 0.038953 0.000000 0.033649 0.038042 0.000000 0.026451 0.036167 0.000000 0.019977 0.033290 0.000000 0.014110 0.029804 0.000000 0.009223 0.025842 0.000000 0.005066 0.021647 0.000000 0.001991 0.017407 0.000000 -0.000399 0.013279 0.000000 -0.001749 0.009413 0.000000 -0.002563 0.005948 0.000000 -0.002497 0.002939 0.000000 -0.002099 0.000551 0.000000 -0.001070 -0.001277 0.000000 0.000062 -0.002338 0.000000 
0.001675 -0.004348 0.000000 0.003530 -0.003909 0.000000 0.005376 -0.002780 0.000000 0.006885 -0.000651 0.000000 0.008043 0.002083 0.000000 0.008677 0.005725 0.000000 0.008645 0.009818 0.000000 0.007936 0.014633 0.000000 0.006297 0.019657 0.000000 0.003885 0.025120 0.000000 0.000359 0.030438 0.000000 -0.003937 0.035800 0.000000 -0.009415 0.040534 0.000000 -0.015509 0.044803 0.000000 -0.022681 0.047842 0.000000 -0.030094 0.049818 0.000000 -0.038242 0.049922 0.000000 -0.045982 0.048370 0.000000 -0.053831 0.044457 0.000000 -0.060379 0.038509 0.000000 -0.066205 0.030160 0.000000 -0.069816 0.019866 0.000000 -0.071961 0.007814 0.000000 -0.071360 -0.005522 0.000000 -0.069040 -0.019403 0.000000 -0.064188 -0.033491 0.000000 -0.058122 -0.046935 0.000000 -0.050408 -0.059591 0.000000 -0.042054 -0.070736 0.000000 -0.032247 -0.080465 0.000000 -0.021615 -0.088071 0.000000 -0.009193 -0.093164 0.000000 0.003470 -0.094677 0.000000 0.016654 -0.092886 0.000000 0.028296 -0.087067 0.000000 0.038665 -0.079211 0.000000 0.047097 -0.068515 0.000000 0.053885 -0.057585 0.000000 0.059922 -0.044871 0.000000 0.064186 -0.032537 0.000000 0.068197 -0.019455 0.000000 0.069663 -0.006897 0.000000 0.070504 0.005165 0.000000 0.068569 0.016421 0.000000 0.065826 0.025926 0.000000 0.060832 0.034216 0.000000 0.055236 0.040078 0.000000 0.048342 0.044470 0.000000 0.041280 0.046476 0.000000 0.033860 0.047046 0.000000 0.026754 0.045750 0.000000 0.019965 0.043298 0.000000 0.013896 0.039677 0.000000 0.008499 0.035316 0.000000 0.004087 0.030443 0.000000 0.000443 0.025280 0.000000 -0.002109 0.020120 0.000000 -0.003970 0.015088 0.000000 -0.004776 0.010411 0.000000 -0.005060 0.006213 0.000000 -0.004450 0.002586 0.000000 -0.003528 -0.000298 0.000000 -0.001964 -0.002500 0.000000 -0.000310 -0.003782 0.000000 
0.001511 -0.006643 0.000000 0.003922 -0.006131 0.000000 0.006355 -0.004837 0.000000 0.008437 -0.002366 0.000000 0.010201 0.000791 0.000000 0.011432 0.005019 0.000000 0.012030 0.009767 0.000000 0.011937 0.015373 0.000000 0.010944 0.021233 0.000000 0.009146 0.027622 0.000000 0.006253 0.033871 0.000000 0.002526 0.040188 0.000000 -0.002387 0.045816 0.000000 -0.008017 0.050901 0.000000 -0.014767 0.054599 0.000000 -0.021879 0.057009 0.000000 -0.029813 0.057271 0.000000 -0.037419 0.055475 0.000000 -0.045254 0.050939 0.000000 -0.051731 0.043851 0.000000 -0.057627 0.033995 0.000000 -0.061065 0.021782 0.000000 -0.063217 0.007661 0.000000 -0.062318 -0.007735 0.000000 -0.059868 -0.023409 0.000000 -0.054811 -0.038716 0.000000 -0.048684 -0.052700 0.000000 -0.040867 -0.065523 0.000000 -0.032867 -0.077158 0.000000 -0.024069 -0.087819 0.000000 -0.014976 -0.097065 0.000000 -0.004400 -0.103539 0.000000 0.006185 -0.105692 0.000000 0.017395 -0.103235 0.000000 0.026904 -0.095601 0.000000 0.035472 -0.085735 0.000000 0.042306 -0.073180 0.000000 0.047986 -0.061482 0.000000 0.053457 -0.048394 0.000000 0.057007 -0.036071 0.000000 0.060838 -0.022415 0.000000 0.061887 -0.008804 0.000000 0.062854 0.004658 0.000000 0.060723 0.017546 0.000000 0.058050 0.028600 0.000000 0.053001 0.038329 0.000000 0.047376 0.045252 0.000000 0.040561 0.050446 0.000000 0.033506 0.052815 0.000000 0.026306 0.053478 0.000000 0.019349 0.051936 0.000000 0.012913 0.049025 0.000000 0.007165 0.044756 0.000000 0.002226 0.039612 0.000000 -0.001724 0.033899 0.000000 -0.004844 0.027844 0.000000 -0.006846 0.021819 0.000000 -0.008152 0.015946 0.000000 -0.008369 0.010503 0.000000 -0.008094 0.005622 0.000000 -0.006888 0.001407 0.000000 -0.005413 -0.001935 0.000000 -0.003260 -0.004495 0.000000 -0.001056 -0.005976 0.000000 
0.001672 -0.009326 0.000000 0.004710 -0.008754 0.000000 0.007782 -0.007295 0.000000 0.010518 -0.004496 0.000000 0.012942 -0.000911 0.000000 0.014868 0.003896 0.000000 0.016160 0.009313 0.000000 0.016804 0.015719 0.000000 0.016533 0.022448 0.000000 0.015495 0.029811 0.000000 0.013329 0.037058 0.000000 0.010343 0.044441 0.000000 0.006110 0.051076 0.000000 0.001146 0.057183 0.000000 -0.005034 0.061704 0.000000 -0.011610 0.064864 0.000000 -0.019112 0.065463 0.000000 -0.026302 0.063812 0.000000 -0.033738 0.058770 0.000000 -0.039748 0.050882 0.000000 -0.044972 0.039494 0.000000 -0.047592 0.025455 0.000000 -0.048508 0.009067 0.000000 -0.046267 -0.008871 0.000000 -0.042198 -0.026910 0.000000 -0.035728 -0.044675 0.000000 -0.029046 -0.060879 0.000000 -0.022647 -0.075408 0.000000 -0.017639 -0.087534 0.000000 -0.012954 -0.098357 0.000000 -0.007799 -0.107740 0.000000 0.000037 -0.114325 0.000000 0.008610 -0.116472 0.000000 0.018339 -0.113605 0.000000 0.025167 -0.105144 0.000000 0.030168 -0.094614 0.000000 0.032454 -0.081029 0.000000 0.034028 -0.068736 0.000000 0.036885 -0.053892 0.000000 0.039611 -0.039919 0.000000 0.044349 -0.024335 0.000000 0.046511 -0.008912 0.000000 0.048846 0.006329 0.000000 0.047848 0.021225 0.000000 0.046172 0.033648 0.000000 0.041860 0.044889 0.000000 0.036844 0.052518 0.000000 0.030550 0.058341 0.000000 0.023931 0.060732 0.000000 0.017227 0.061203 0.000000 0.010710 0.059143 0.000000 0.004828 0.055482 0.000000 -0.000396 0.050365 0.000000 -0.004718 0.044204 0.000000 -0.008055 0.037513 0.000000 -0.010523 0.030402 0.000000 -0.011859 0.023428 0.000000 -0.012508 0.016611 0.000000 -0.012045 0.010353 0.000000 -0.011127 0.004732 0.000000 -0.009253 -0.000096 0.000000 -0.007151 -0.003926 0.000000 -0.004351 -0.006856 0.000000 -0.001530 -0.008553 0.000000 
0.001501 -0.012882 0.000000 0.005166 -0.012241 0.000000 0.008902 -0.010645 0.000000 0.012293 -0.007527 0.000000 0.015413 -0.003559 0.000000 0.018041 0.001802 0.000000 0.020081 0.007832 0.000000 0.021479 0.015000 0.000000 0.022018 0.022541 0.000000 0.021772 0.030827 0.000000 0.020458 0.039023 0.000000 0.018264 0.047407 0.000000 0.014873 0.055013 0.000000 0.010628 0.062045 0.000000 0.005179 0.067355 0.000000 -0.000846 0.071087 0.000000 -0.007846 0.071963 0.000000 -0.014700 0.070100 0.000000 -0.021901 0.064386 0.000000 -0.027644 0.055085 0.000000 -0.032769 0.041839 0.000000 -0.034895 0.025318 0.000000 -0.035742 0.006335 0.000000 -0.032888 -0.014045 0.000000 -0.028647 -0.033947 0.000000 -0.022274 -0.051868 0.000000 -0.015445 -0.065782 0.000000 -0.007854 -0.076930 0.000000 -0.002133 -0.086850 0.000000 0.001361 -0.097660 0.000000 0.003914 -0.110056 0.000000 0.007979 -0.119947 0.000000 0.012118 -0.123994 0.000000 0.017685 -0.119793 0.000000 0.020305 -0.107431 0.000000 0.022484 -0.093021 0.000000 0.022834 -0.077040 0.000000 0.024197 -0.065914 0.000000 0.027689 -0.053978 0.000000 0.029816 -0.043534 0.000000 0.034372 -0.029315 0.000000 0.035878 -0.013302 0.000000 0.038649 0.003321 0.000000 0.037403 0.020220 0.000000 0.035884 0.034588 0.000000 0.031600 0.047657 0.000000 0.026515 0.056562 0.000000 0.020482 0.063359 0.000000 0.013885 0.066138 0.000000 0.007626 0.066699 0.000000 0.001367 0.064335 0.000000 -0.003939 0.060131 0.000000 -0.008673 0.054301 0.000000 -0.012338 0.047271 0.000000 -0.015027 0.039704 0.000000 -0.016807 0.031647 0.000000 -0.017419 0.023804 0.000000 -0.017384 0.016132 0.000000 -0.016185 0.009122 0.000000 -0.014606 0.002830 0.000000 -0.012020 -0.002568 0.000000 -0.009283 -0.006837 0.000000 -0.005803 -0.010116 0.000000 -0.002361 -0.012000 0.000000 
0.001666 -0.016852 0.000000 0.005969 -0.016154 0.000000 0.010363 -0.014423 0.000000 0.014436 -0.011008 0.000000 0.018250 -0.006659 0.000000 0.021629 -0.000772 0.000000 0.024427 0.005875 0.000000 0.026656 0.013782 0.000000 0.028026 0.022155 0.000000 0.028685 0.031370 0.000000 0.028262 0.040565 0.000000 0.027012 0.050026 0.000000 0.024515 0.058713 0.000000 0.021178 0.066877 0.000000 0.016520 0.073177 0.000000 0.011261 0.077889 0.000000 0.004829 0.079317 0.000000 -0.001467 0.077866 0.000000 -0.008247 0.071713 0.000000 -0.013432 0.061750 0.000000 -0.017740 0.046745 0.000000 -0.018761 0.028428 0.000000 -0.017668 0.007060 0.000000 -0.012598 -0.015966 0.000000 -0.004941 -0.037524 0.000000 0.005973 -0.057876 0.000000 0.015723 -0.075299 0.000000 0.021086 -0.088720 0.000000 0.020578 -0.096749 0.000000 0.015321 -0.104403 0.000000 0.010432 -0.114358 0.000000 0.010895 -0.122529 0.000000 0.014028 -0.126179 0.000000 0.019978 -0.121792 0.000000 0.019897 -0.109943 0.000000 0.016513 -0.097143 0.000000 0.008348 -0.082742 0.000000 0.001736 -0.073592 0.000000 0.001062 -0.059511 0.000000 0.003909 -0.046602 0.000000 0.012989 -0.030398 0.000000 0.017817 -0.013188 0.000000 0.023099 0.004805 0.000000 0.023613 0.023990 0.000000 0.023287 0.039451 0.000000 0.019665 0.054258 0.000000 0.015074 0.063636 0.000000 0.009477 0.070970 0.000000 0.003226 0.073588 0.000000 -0.002492 0.073721 0.000000 -0.008299 0.070707 0.000000 -0.012925 0.065522 0.000000 -0.017044 0.058764 0.000000 -0.019954 0.050558 0.000000 -0.021910 0.041982 0.000000 -0.022927 0.032793 0.000000 -0.022762 0.024005 0.000000 -0.021998 0.015378 0.000000 -0.020034 0.007575 0.000000 -0.017771 0.000567 0.000000 -0.014462 -0.005418 0.000000 -0.011080 -0.010143 0.000000 -0.006920 -0.013778 0.000000 -0.002850 -0.015858 0.000000 
0.001490 -0.021702 0.000000 0.006389 -0.020938 0.000000 0.011417 -0.019112 0.000000 0.016130 -0.015415 0.000000 0.020623 -0.010752 0.000000 0.024718 -0.004375 0.000000 0.028284 0.002805 0.000000 0.031329 0.011400 0.000000 0.033594 0.020512 0.000000 0.035173 0.030591 0.000000 0.035783 0.040697 0.000000 0.035535 0.051154 0.000000 0.034173 0.060846 0.000000 0.031834 0.070039 0.000000 0.028278 0.077273 0.000000 0.023829 0.082779 0.000000 0.018221 0.084690 0.000000 0.012345 0.083177 0.000000 0.005946 0.076351 0.000000 0.000989 0.064578 0.000000 -0.003141 0.047168 0.000000 -0.003301 0.025246 0.000000 -0.002401 0.000172 0.000000 0.003930 -0.026772 0.000000 0.010991 -0.052518 0.000000 0.018120 -0.072532 0.000000 0.025993 -0.080895 0.000000 0.036632 -0.081784 0.000000 0.043328 -0.081085 0.000000 0.040331 -0.087514 0.000000 0.033226 -0.105631 0.000000 0.026067 -0.123544 0.000000 0.017941 -0.133077 0.000000 0.012809 -0.125662 0.000000 0.003525 -0.103966 0.000000 -0.002843 -0.081472 0.000000 -0.009608 -0.062262 0.000000 -0.009062 -0.058628 0.000000 -0.003099 -0.056151 0.000000 -0.001362 -0.055461 0.000000 0.005019 -0.043222 0.000000 0.007404 -0.023412 0.000000 0.013508 -0.002475 0.000000 0.013284 0.020033 0.000000 0.012742 0.038535 0.000000 0.008957 0.055870 0.000000 0.003687 0.066749 0.000000 -0.001621 0.075207 0.000000 -0.008139 0.078108 0.000000 -0.013257 0.078224 0.000000 -0.018787 0.074768 0.000000 -0.022638 0.068876 0.000000 -0.026095 0.061330 0.000000 -0.028172 0.052137 0.000000 -0.029284 0.042677 0.000000 -0.029494 0.032499 0.000000 -0.028453 0.022875 0.000000 -0.026945 0.013404 0.000000 -0.024155 0.004895 0.000000 -0.021216 -0.002743 0.000000 -0.017158 -0.009259 0.000000 -0.013157 -0.014378 0.000000 -0.008320 -0.018346 0.000000 -0.003660 -0.020585 0.000000 
0.001654 -0.026902 0.000000 0.007085 -0.026081 0.000000 0.012669 -0.024163 0.000000 0.017975 -0.020214 0.000000 0.023077 -0.015247 0.000000 0.027866 -0.008434 0.000000 0.032141 -0.000736 0.000000 0.036013 0.008473 0.000000 0.039121 0.018310 0.000000 0.041671 0.029180 0.000000 0.043269 0.040204 0.000000 0.044106 0.051636 0.000000 0.043815 0.062413 0.000000 0.042575 0.072771 0.000000 0.039970 0.081182 0.000000 0.036397 0.087946 0.000000 0.031254 0.090801 0.000000 0.025746 0.090140 0.000000 0.019179 0.083069 0.000000 0.014328 0.070838 0.000000 0.010501 0.051035 0.000000 0.011296 0.027688 0.000000 0.014639 -0.000171 0.000000 0.022741 -0.029358 0.000000 0.036154 -0.051714 0.000000 0.058306 -0.072878 0.000000 0.077412 -0.093810 0.000000 0.082567 -0.106054 0.000000 0.074088 -0.100449 0.000000 0.052677 -0.094302 0.000000 0.032703 -0.100094 0.000000 0.022312 -0.107244 0.000000 0.016924 -0.112921 0.000000 0.017219 -0.107377 0.000000 0.007115 -0.094290 0.000000 -0.006760 -0.084010 0.000000 -0.028953 -0.076523 0.000000 -0.045464 -0.080101 0.000000 -0.048249 -0.067211 0.000000 -0.039453 -0.054719 0.000000 -0.016352 -0.039164 0.000000 -0.005651 -0.021677 0.000000 0.002791 -0.001075 0.000000 0.004277 0.024756 0.000000 0.004389 0.043779 0.000000 0.000147 0.063313 0.000000 -0.005549 0.074214 0.000000 -0.011151 0.082796 0.000000 -0.017982 0.085223 0.000000 -0.022827 0.084369 0.000000 -0.028181 0.080089 0.000000 -0.031352 0.072830 0.000000 -0.034208 0.064298 0.000000 -0.035455 0.053747 0.000000 -0.035758 0.043304 0.000000 -0.035166 0.031962 0.000000 -0.033288 0.021456 0.000000 -0.031072 0.011079 0.000000 -0.027507 0.001847 0.000000 -0.023956 -0.006430 0.000000 -0.019215 -0.013478 0.000000 -0.014667 -0.018982 0.000000 -0.009228 -0.023275 0.000000 -0.004052 -0.025668 0.000000 
0.001479 -0.032838 0.000000 0.007345 -0.031953 0.000000 0.013390 -0.030002 0.000000 0.019188 -0.025822 0.000000 0.024806 -0.020644 0.000000 0.030195 -0.013439 0.000000 0.035111 -0.005341 0.000000 0.039729 0.004421 0.000000 0.043673 0.014854 0.000000 0.047147 0.026443 0.000000 0.049829 0.038262 0.000000 0.051760 0.050607 0.000000 0.052785 0.062378 0.000000 0.052695 0.073884 0.000000 0.051437 0.083452 0.000000 0.048727 0.091495 0.000000 0.044492 0.095341 0.000000 0.038996 0.095251 0.000000 0.032635 0.087769 0.000000 0.027344 0.073257 0.000000 0.024490 0.050200 0.000000 0.027777 0.021108 0.000000 0.032219 -0.011273 0.000000 0.049091 -0.048287 0.000000 0.062425 -0.088083 0.000000 0.062329 -0.113791 0.000000 0.062335 -0.105156 0.000000 0.081104 -0.078459 0.000000 0.107147 -0.051195 0.000000 0.112378 -0.046130 0.000000 0.101493 -0.075266 0.000000 0.071300 -0.107764 0.000000 0.023995 -0.127983 0.000000 -0.021446 -0.115853 0.000000 -0.060229 -0.079987 0.000000 -0.073819 -0.045405 0.000000 -0.072062 -0.023558 0.000000 -0.044763 -0.039332 0.000000 -0.021598 -0.062162 0.000000 -0.025566 -0.087358 0.000000 -0.024152 -0.077024 0.000000 -0.021292 -0.042555 0.000000 -0.006312 -0.012403 0.000000 -0.003549 0.018435 0.000000 -0.003519 0.042665 0.000000 -0.007377 0.065808 0.000000 -0.015102 0.078048 0.000000 -0.020477 0.087640 0.000000 -0.028407 0.089783 0.000000 -0.032814 0.088423 0.000000 -0.038135 0.083294 0.000000 -0.040571 0.074903 0.000000 -0.042674 0.065432 0.000000 -0.043060 0.053688 0.000000 -0.042361 0.042389 0.000000 -0.040962 0.030029 0.000000 -0.038115 0.018781 0.000000 -0.035218 0.007624 0.000000 -0.030829 -0.002221 0.000000 -0.026717 -0.011035 0.000000 -0.021307 -0.018547 0.000000 -0.016286 -0.024365 0.000000 -0.010303 -0.028961 0.000000 -0.004697 -0.031467 0.000000 
0.001635 -0.038944 0.000000 0.007784 -0.037991 0.000000 0.014134 -0.036005 0.000000 0.020293 -0.031631 0.000000 0.026279 -0.026254 0.000000 0.032163 -0.018738 0.000000 0.037577 -0.010271 0.000000 0.042870 -0.000089 0.000000 0.047504 0.010893 0.000000 0.051854 0.023024 0.000000 0.055450 0.035591 0.000000 0.058413 0.048680 0.000000 0.060489 0.061478 0.000000 0.061397 0.074120 0.000000 0.060967 0.085151 0.000000 0.058799 0.094891 0.000000 0.054409 0.100532 0.000000 0.048470 0.101998 0.000000 0.040446 0.094721 0.000000 0.034704 0.078983 0.000000 0.031953 0.050602 0.000000 0.039387 0.019959 0.000000 0.049837 -0.021486 0.000000 0.060164 -0.059564 0.000000 0.083794 -0.064952 0.000000 0.146371 -0.072789 0.000000 0.189169 -0.112585 0.000000 0.168504 -0.150866 0.000000 0.144705 -0.131723 0.000000 0.127199 -0.088648 0.000000 0.106603 -0.059016 0.000000 0.069402 -0.029746 0.000000 0.019748 -0.020175 0.000000 -0.032133 -0.023153 0.000000 -0.072756 -0.041917 0.000000 -0.094042 -0.072176 0.000000 -0.107328 -0.105580 0.000000 -0.113899 -0.130565 0.000000 -0.133393 -0.086407 0.000000 -0.110863 -0.052164 0.000000 -0.047574 -0.043439 0.000000 -0.021114 -0.039518 0.000000 -0.012725 -0.018818 0.000000 -0.007507 0.021963 0.000000 -0.004111 0.047607 0.000000 -0.009179 0.074895 0.000000 -0.018067 0.087313 0.000000 -0.024574 0.096101 0.000000 -0.034179 0.097561 0.000000 -0.039008 0.094096 0.000000 -0.044996 0.087846 0.000000 -0.047069 0.077370 0.000000 -0.048845 0.066787 0.000000 -0.048526 0.053434 0.000000 -0.047056 0.041206 0.000000 -0.044978 0.027717 0.000000 -0.041324 0.015712 0.000000 -0.037898 0.003793 0.000000 -0.032835 -0.006655 0.000000 -0.028333 -0.015952 0.000000 -0.022410 -0.023908 0.000000 -0.017090 -0.029986 0.000000 -0.010722 -0.034864 0.000000 -0.004854 -0.037450 0.000000 
0.001471 -0.045476 0.000000 0.007747 -0.044451 0.000000 0.014223 -0.042511 0.000000 0.020578 -0.037968 0.000000 0.026743 -0.032514 0.000000 0.032949 -0.024736 0.000000 0.038676 -0.016048 0.000000 0.044470 -0.005507 0.000000 0.049642 0.005870 0.000000 0.054694 0.018497 0.000000 0.059125 0.031703 0.000000 0.062948 0.045568 0.000000 0.066114 0.059394 0.000000 0.067853 0.073407 0.000000 0.068464 0.086049 0.000000 0.066667 0.098053 0.000000 0.062633 0.105671 0.000000 0.055721 0.109214 0.000000 0.047431 0.101534 0.000000 0.040186 0.081749 0.000000 0.044767 0.045518 0.000000 0.060423 0.003224 0.000000 0.086334 -0.032050 0.000000 0.159695 -0.082244 0.000000 0.201233 -0.174290 0.000000 0.189021 -0.219165 0.000000 0.126704 -0.127289 0.000000 0.020172 -0.033995 0.000000 -0.039128 -0.009890 0.000000 -0.070181 -0.008028 0.000000 -0.072843 -0.017469 0.000000 -0.055853 -0.020910 0.000000 -0.014937 -0.026449 0.000000 0.027895 -0.023348 0.000000 0.059206 -0.018079 0.000000 0.069529 -0.010833 0.000000 0.055741 -0.003700 0.000000 0.019030 -0.013267 0.000000 -0.053851 -0.065199 0.000000 -0.113422 -0.173177 0.000000 -0.138876 -0.166774 0.000000 -0.116522 -0.077404 0.000000 -0.053077 -0.026009 0.000000 -0.021021 0.009821 0.000000 -0.014024 0.044337 0.000000 -0.011942 0.079763 0.000000 -0.022904 0.093443 0.000000 -0.027933 0.103752 0.000000 -0.039505 0.104217 0.000000 -0.044689 0.099240 0.000000 -0.051276 0.091355 0.000000 -0.053307 0.078752 0.000000 -0.054497 0.066890 0.000000 -0.053686 0.051899 0.000000 -0.051209 0.038841 0.000000 -0.048581 0.024298 0.000000 -0.044003 0.011701 0.000000 -0.040155 -0.000865 0.000000 -0.034413 -0.011786 0.000000 -0.029634 -0.021461 0.000000 -0.023274 -0.029790 0.000000 -0.017783 -0.036053 0.000000 -0.011158 -0.041198 0.000000 -0.005170 -0.043825 0.000000 