# vtk DataFile Version 2.0
Comment goes here
ASCII

DATASET STRUCTURED_POINTS
FIELD FieldData 1
TIME 1 1 double
1.79000000
DIMENSIONS    64   64   1

ORIGIN    0.000   0.000   0.000
SPACING   0.015625 0.015625   1.000

POINT_DATA   4096
VECTORS u double

0.000634 0.000000 0.000000 0.002331 0.000000 0.000000 0.004276 0.000000 0.000000 0.005614 0.000000 0.000000 0.006954 0.000000 0.000000 0.007439 0.000000 0.000000 0.007699 0.000000 0.000000 0.006919 0.000000 0.000000 0.005729 -0.000000 0.000000 0.003408 -0.000000 0.000000 0.000559 -0.000000 0.000000 -0.003381 -0.000000 0.000000 -0.007876 -0.000000 0.000000 -0.013260 -0.000000 0.000000 -0.019105 -0.000000 0.000000 -0.025457 -0.000000 0.000000 -0.032051 -0.000000 0.000000 -0.038592 -0.000000 0.000000 -0.045041 -0.000000 0.000000 -0.050755 -0.000000 0.000000 -0.055979 0.000000 0.000000 -0.059759 0.000000 0.000000 -0.062662 0.000000 0.000000 -0.063527 0.000000 0.000000 -0.063214 0.000000 0.000000 -0.060525 0.000000 0.000000 -0.056505 0.000000 0.000000 -0.050126 0.000000 0.000000 -0.042463 0.000000 0.000000 -0.032841 0.000000 0.000000 -0.022281 0.000000 0.000000 -0.010554 0.000000 0.000000 0.001386 0.000000 0.000000 0.013415 0.000000 0.000000 0.024729 0.000000 0.000000 0.035123 0.000000 0.000000 0.044061 0.000000 0.000000 0.051488 0.000000 0.000000 0.057121 0.000000 0.000000 0.061096 0.000000 0.000000 0.063245 0.000000 0.000000 0.063863 0.000000 0.000000 0.062806 0.000000 0.000000 0.060486 0.000000 0.000000 0.056812 0.000000 0.000000 0.052232 0.000000 0.000000 0.046773 0.000000 0.000000 0.040823 0.000000 0.000000 0.034546 0.000000 0.000000 0.028192 0.000000 0.000000 0.022038 0.000000 0.000000 0.016154 0.000000 0.000000 0.010885 0.000000 0.000000 0.006120 0.000000 0.000000 0.002239 0.000000 0.000000 -0.001039 0.000000 0.000000 -0.003313 0.000000 0.000000 -0.005011 0.000000 0.000000 -0.005712 0.000000 0.000000 -0.005973 0.000000 0.000000 -0.005343 0.000000 0.000000 -0.004488 0.000000 0.000000 -0.002918 0.000000 0.000000 -0.001388 0.000000 0.000000 
0.000459 -0.001860 0.000000 0.002195 -0.001821 0.000000 0.004188 -0.001641 0.000000 0.005567 -0.001339 0.000000 0.006958 -0.000913 0.000000 0.007484 -0.000373 0.000000 0.007797 0.000260 0.000000 0.007059 0.000985 0.000000 0.005919 0.001755 0.000000 0.003638 0.002585 0.000000 0.000832 0.003395 0.000000 -0.003071 0.004217 0.000000 -0.007536 0.004939 0.000000 -0.012888 0.005615 0.000000 -0.018725 0.006099 0.000000 -0.025051 0.006473 0.000000 -0.031659 0.006567 0.000000 -0.038176 0.006495 0.000000 -0.044661 0.006081 0.000000 -0.050346 0.005469 0.000000 -0.055610 0.004502 0.000000 -0.059351 0.003341 0.000000 -0.062275 0.001884 0.000000 -0.063083 0.000276 0.000000 -0.062753 -0.001501 0.000000 -0.059990 -0.003354 0.000000 -0.055924 -0.005199 0.000000 -0.049485 -0.007021 0.000000 -0.041798 -0.008642 0.000000 -0.032194 -0.010091 0.000000 -0.021693 -0.011144 0.000000 -0.010083 -0.011834 0.000000 0.001728 -0.011985 0.000000 0.013605 -0.011671 0.000000 0.024801 -0.010854 0.000000 0.035091 -0.009666 0.000000 0.043987 -0.008182 0.000000 0.051383 -0.006530 0.000000 0.057038 -0.004804 0.000000 0.061018 -0.003062 0.000000 0.063200 -0.001383 0.000000 0.063814 0.000220 0.000000 0.062770 0.001689 0.000000 0.060415 0.002997 0.000000 0.056727 0.004127 0.000000 0.052084 0.005019 0.000000 0.046593 0.005705 0.000000 0.040571 0.006113 0.000000 0.034256 0.006315 0.000000 0.027841 0.006254 0.000000 0.021656 0.006019 0.000000 0.015732 0.005576 0.000000 0.010447 0.005017 0.000000 0.005667 0.004323 0.000000 0.001785 0.003579 0.000000 -0.001488 0.002776 0.000000 -0.003749 0.001986 0.000000 -0.005427 0.001200 0.000000 -0.006104 0.000481 0.000000 -0.006337 -0.000184 0.000000 -0.005674 -0.000743 0.000000 -0.004784 -0.001212 0.000000 -0.003176 -0.001550 0.000000 -0.001608 -0.001776 0.000000 
0.000609 -0.003803 0.000000 0.002515 -0.003729 0.000000 0.004677 -0.003372 0.000000 0.006229 -0.002770 0.000000 0.007794 -0.001918 0.000000 0.008501 -0.000839 0.000000 0.008996 0.000426 0.000000 0.008445 0.001878 0.000000 0.007498 0.003420 0.000000 0.005408 0.005087 0.000000 0.002799 0.006710 0.000000 -0.000920 0.008368 0.000000 -0.005191 0.009817 0.000000 -0.010381 0.011189 0.000000 -0.016039 0.012162 0.000000 -0.022242 0.012934 0.000000 -0.028703 0.013125 0.000000 -0.035152 0.013001 0.000000 -0.041539 0.012170 0.000000 -0.047223 0.010950 0.000000 -0.052462 0.009005 0.000000 -0.056277 0.006665 0.000000 -0.059278 0.003732 0.000000 -0.060248 0.000478 0.000000 -0.060125 -0.003093 0.000000 -0.057626 -0.006829 0.000000 -0.053890 -0.010505 0.000000 -0.047802 -0.014126 0.000000 -0.040480 -0.017291 0.000000 -0.031192 -0.020105 0.000000 -0.020938 -0.022111 0.000000 -0.009499 -0.023422 0.000000 0.002187 -0.023687 0.000000 0.013920 -0.023073 0.000000 0.024903 -0.021486 0.000000 0.034872 -0.019185 0.000000 0.043338 -0.016292 0.000000 0.050250 -0.013051 0.000000 0.055405 -0.009635 0.000000 0.058953 -0.006162 0.000000 0.060761 -0.002796 0.000000 0.061131 0.000430 0.000000 0.059888 0.003399 0.000000 0.057466 0.006043 0.000000 0.053718 0.008330 0.000000 0.049119 0.010134 0.000000 0.043660 0.011514 0.000000 0.037744 0.012337 0.000000 0.031527 0.012730 0.000000 0.025258 0.012600 0.000000 0.019220 0.012109 0.000000 0.013471 0.011209 0.000000 0.008365 0.010066 0.000000 0.003777 0.008663 0.000000 0.000090 0.007155 0.000000 -0.002985 0.005533 0.000000 -0.005046 0.003939 0.000000 -0.006530 0.002356 0.000000 -0.007015 0.000909 0.000000 -0.007061 -0.000430 0.000000 -0.006215 -0.001552 0.000000 -0.005148 -0.002498 0.000000 -0.003365 -0.003176 0.000000 -0.001626 -0.003635 0.000000 
0.000404 -0.006001 0.000000 0.002555 -0.005889 0.000000 0.004978 -0.005355 0.000000 0.006780 -0.004456 0.000000 0.008619 -0.003184 0.000000 0.009585 -0.001575 0.000000 0.010367 0.000315 0.000000 0.010083 0.002484 0.000000 0.009430 0.004793 0.000000 0.007608 0.007283 0.000000 0.005287 0.009723 0.000000 0.001823 0.012208 0.000000 -0.002189 0.014400 0.000000 -0.007154 0.016463 0.000000 -0.012612 0.017960 0.000000 -0.018638 0.019137 0.000000 -0.024982 0.019478 0.000000 -0.031312 0.019331 0.000000 -0.037674 0.018152 0.000000 -0.043295 0.016391 0.000000 -0.048594 0.013556 0.000000 -0.052393 0.010158 0.000000 -0.055515 0.005855 0.000000 -0.056510 0.001123 0.000000 -0.056531 -0.004123 0.000000 -0.054103 -0.009589 0.000000 -0.050538 -0.015024 0.000000 -0.044613 -0.020430 0.000000 -0.037553 -0.025252 0.000000 -0.028611 -0.029634 0.000000 -0.018770 -0.032837 0.000000 -0.007840 -0.034958 0.000000 0.003329 -0.035404 0.000000 0.014480 -0.034387 0.000000 0.024911 -0.031806 0.000000 0.034299 -0.028100 0.000000 0.042256 -0.023560 0.000000 0.048673 -0.018597 0.000000 0.053445 -0.013507 0.000000 0.056640 -0.008418 0.000000 0.058197 -0.003561 0.000000 0.058362 0.001093 0.000000 0.056976 0.005353 0.000000 0.054432 0.009167 0.000000 0.050605 0.012474 0.000000 0.045917 0.015077 0.000000 0.040421 0.017080 0.000000 0.034454 0.018246 0.000000 0.028252 0.018801 0.000000 0.021998 0.018562 0.000000 0.016039 0.017806 0.000000 0.010383 0.016431 0.000000 0.005420 0.014711 0.000000 0.000993 0.012598 0.000000 -0.002500 0.010341 0.000000 -0.005366 0.007912 0.000000 -0.007204 0.005532 0.000000 -0.008454 0.003168 0.000000 -0.008699 0.001011 0.000000 -0.008501 -0.000984 0.000000 -0.007410 -0.002655 0.000000 -0.006098 -0.004062 0.000000 -0.004067 -0.005072 0.000000 -0.002084 -0.005751 0.000000 
0.000534 -0.008442 0.000000 0.003045 -0.008303 0.000000 0.005835 -0.007597 0.000000 0.008007 -0.006411 0.000000 0.010228 -0.004722 0.000000 0.011581 -0.002587 0.000000 0.012767 -0.000072 0.000000 0.012890 0.002816 0.000000 0.012662 0.005895 0.000000 0.011259 0.009229 0.000000 0.009373 0.012495 0.000000 0.006319 0.015845 0.000000 0.002731 0.018795 0.000000 -0.001863 0.021612 0.000000 -0.006936 0.023646 0.000000 -0.012664 0.025303 0.000000 -0.018693 0.025799 0.000000 -0.024825 0.025694 0.000000 -0.030968 0.024153 0.000000 -0.036503 0.021870 0.000000 -0.041708 0.018104 0.000000 -0.045543 0.013585 0.000000 -0.048748 0.007849 0.000000 -0.049932 0.001494 0.000000 -0.050293 -0.005500 0.000000 -0.048283 -0.012822 0.000000 -0.045381 -0.019995 0.000000 -0.040203 -0.027111 0.000000 -0.034019 -0.033293 0.000000 -0.025891 -0.038888 0.000000 -0.016707 -0.042883 0.000000 -0.006265 -0.045520 0.000000 0.004566 -0.046007 0.000000 0.015320 -0.044655 0.000000 0.025203 -0.041306 0.000000 0.033754 -0.036530 0.000000 0.040642 -0.030666 0.000000 0.045876 -0.024240 0.000000 0.049541 -0.017602 0.000000 0.051823 -0.010915 0.000000 0.052700 -0.004517 0.000000 0.052461 0.001650 0.000000 0.050795 0.007329 0.000000 0.048208 0.012414 0.000000 0.044342 0.016845 0.000000 0.039767 0.020319 0.000000 0.034362 0.022977 0.000000 0.028580 0.024506 0.000000 0.022567 0.025185 0.000000 0.016566 0.024813 0.000000 0.010887 0.023723 0.000000 0.005552 0.021827 0.000000 0.000941 0.019455 0.000000 -0.003113 0.016583 0.000000 -0.006214 0.013515 0.000000 -0.008682 0.010237 0.000000 -0.010114 0.007027 0.000000 -0.010964 0.003850 0.000000 -0.010808 0.000956 0.000000 -0.010222 -0.001719 0.000000 -0.008747 -0.003955 0.000000 -0.007062 -0.005841 0.000000 -0.004662 -0.007190 0.000000 -0.002317 -0.008105 0.000000 
0.000293 -0.011363 0.000000 0.003228 -0.011190 0.000000 0.006465 -0.010317 0.000000 0.009072 -0.008849 0.000000 0.011765 -0.006758 0.000000 0.013573 -0.004114 0.000000 0.015261 -0.000994 0.000000 0.015860 0.002589 0.000000 0.016161 0.006424 0.000000 0.015245 0.010572 0.000000 0.013894 0.014663 0.000000 0.011317 0.018850 0.000000 0.008231 0.022582 0.000000 0.004068 0.026131 0.000000 -0.000583 0.028761 0.000000 -0.005958 0.030894 0.000000 -0.011692 0.031639 0.000000 -0.017565 0.031606 0.000000 -0.023567 0.029830 0.000000 -0.028927 0.027131 0.000000 -0.034141 0.022595 0.000000 -0.037876 0.017197 0.000000 -0.041212 0.010245 0.000000 -0.042381 0.002668 0.000000 -0.042933 -0.005772 0.000000 -0.040991 -0.014501 0.000000 -0.038349 -0.023104 0.000000 -0.033436 -0.031793 0.000000 -0.027765 -0.039564 0.000000 -0.020441 -0.046945 0.000000 -0.012260 -0.052463 0.000000 -0.003079 -0.056232 0.000000 0.006459 -0.056990 0.000000 0.015813 -0.055024 0.000000 0.024382 -0.050239 0.000000 0.031644 -0.043539 0.000000 0.037439 -0.035682 0.000000 0.041716 -0.027497 0.000000 0.044709 -0.019455 0.000000 0.046424 -0.011577 0.000000 0.046940 -0.004199 0.000000 0.046500 0.002998 0.000000 0.044704 0.009606 0.000000 0.042063 0.015620 0.000000 0.038166 0.020915 0.000000 0.033546 0.025058 0.000000 0.028149 0.028268 0.000000 0.022356 0.030041 0.000000 0.016427 0.030814 0.000000 0.010523 0.030242 0.000000 0.005041 0.028820 0.000000 -0.000060 0.026377 0.000000 -0.004364 0.023377 0.000000 -0.008073 0.019753 0.000000 -0.010788 0.015910 0.000000 -0.012842 0.011812 0.000000 -0.013846 0.007813 0.000000 -0.014253 0.003863 0.000000 -0.013657 0.000270 0.000000 -0.012628 -0.003046 0.000000 -0.010714 -0.005816 0.000000 -0.008596 -0.008147 0.000000 -0.005762 -0.009817 0.000000 -0.002993 -0.010946 0.000000 
0.000406 -0.014663 0.000000 0.003849 -0.014476 0.000000 0.007608 -0.013441 0.000000 0.010741 -0.011711 0.000000 0.013983 -0.009223 0.000000 0.016350 -0.006084 0.000000 0.018631 -0.002360 0.000000 0.019830 0.001916 0.000000 0.020766 0.006510 0.000000 0.020484 0.011496 0.000000 0.019799 0.016424 0.000000 0.017862 0.021508 0.000000 0.015443 0.026043 0.000000 0.011886 0.030426 0.000000 0.007861 0.033672 0.000000 0.003010 0.036412 0.000000 -0.002168 0.037406 0.000000 -0.007625 0.037568 0.000000 -0.013152 0.035515 0.000000 -0.018198 0.032445 0.000000 -0.023032 0.027053 0.000000 -0.026549 0.020656 0.000000 -0.029702 0.012354 0.000000 -0.030815 0.003215 0.000000 -0.031596 -0.006890 0.000000 -0.029976 -0.017406 0.000000 -0.028335 -0.027550 0.000000 -0.024789 -0.037696 0.000000 -0.020983 -0.046288 0.000000 -0.015530 -0.054393 0.000000 -0.008826 -0.060245 0.000000 -0.000657 -0.064240 0.000000 0.008337 -0.064899 0.000000 0.017054 -0.062577 0.000000 0.024633 -0.057137 0.000000 0.030204 -0.049587 0.000000 0.033761 -0.040738 0.000000 0.035644 -0.031511 0.000000 0.036653 -0.022310 0.000000 0.036962 -0.013146 0.000000 0.036746 -0.004593 0.000000 0.036100 0.003887 0.000000 0.034289 0.011766 0.000000 0.032001 0.018952 0.000000 0.028344 0.025362 0.000000 0.024117 0.030336 0.000000 0.019003 0.034167 0.000000 0.013557 0.036227 0.000000 0.007974 0.037018 0.000000 0.002459 0.036199 0.000000 -0.002574 0.034307 0.000000 -0.007194 0.031233 0.000000 -0.010956 0.027468 0.000000 -0.014108 0.023006 0.000000 -0.016229 0.018284 0.000000 -0.017692 0.013295 0.000000 -0.018094 0.008438 0.000000 -0.017915 0.003662 0.000000 -0.016737 -0.000670 0.000000 -0.015147 -0.004663 0.000000 -0.012681 -0.007988 0.000000 -0.010032 -0.010793 0.000000 -0.006673 -0.012793 0.000000 -0.003393 -0.014160 0.000000 
0.000125 -0.018606 0.000000 0.004119 -0.018392 0.000000 0.008459 -0.017208 0.000000 0.012159 -0.015224 0.000000 0.016022 -0.012368 0.000000 0.018994 -0.008762 0.000000 0.021953 -0.004473 0.000000 0.023801 0.000454 0.000000 0.025475 0.005770 0.000000 0.025880 0.011539 0.000000 0.025971 0.017285 0.000000 0.024729 0.023206 0.000000 0.023080 0.028558 0.000000 0.020182 0.033713 0.000000 0.016856 0.037637 0.000000 0.012587 0.040923 0.000000 0.007976 0.042274 0.000000 0.003021 0.042589 0.000000 -0.002095 0.040403 0.000000 -0.006666 0.037011 0.000000 -0.011244 0.030946 0.000000 -0.014293 0.023867 0.000000 -0.017360 0.014511 0.000000 -0.018129 0.004562 0.000000 -0.018884 -0.006611 0.000000 -0.017021 -0.017762 0.000000 -0.015414 -0.028291 0.000000 -0.011848 -0.039145 0.000000 -0.008637 -0.048823 0.000000 -0.004752 -0.059102 0.000000 -0.000280 -0.067335 0.000000 0.004903 -0.073394 0.000000 0.010761 -0.074701 0.000000 0.016212 -0.071321 0.000000 0.020842 -0.063389 0.000000 0.023848 -0.052667 0.000000 0.025476 -0.041122 0.000000 0.026060 -0.030390 0.000000 0.026509 -0.020772 0.000000 0.026379 -0.011670 0.000000 0.026071 -0.003337 0.000000 0.025715 0.005455 0.000000 0.024165 0.013705 0.000000 0.022261 0.021566 0.000000 0.018898 0.028798 0.000000 0.014837 0.034399 0.000000 0.009904 0.038828 0.000000 0.004542 0.041070 0.000000 -0.000834 0.041912 0.000000 -0.006139 0.040789 0.000000 -0.010825 0.038473 0.000000 -0.015045 0.034760 0.000000 -0.018318 0.030291 0.000000 -0.020923 0.025025 0.000000 -0.022463 0.019494 0.000000 -0.023306 0.013677 0.000000 -0.023091 0.008036 0.000000 -0.022279 0.002506 0.000000 -0.020488 -0.002499 0.000000 -0.018287 -0.007102 0.000000 -0.015230 -0.010930 0.000000 -0.012002 -0.014156 0.000000 -0.008073 -0.016456 0.000000 -0.004238 -0.018025 0.000000 
0.000223 -0.023020 0.000000 0.004803 -0.022809 0.000000 0.009749 -0.021481 0.000000 0.014063 -0.019274 0.000000 0.018578 -0.016058 0.000000 0.022218 -0.012014 0.000000 0.025898 -0.007168 0.000000 0.028490 -0.001606 0.000000 0.030965 0.004432 0.000000 0.032185 0.011000 0.000000 0.033148 0.017574 0.000000 0.032772 0.024399 0.000000 0.032033 0.030590 0.000000 0.030007 0.036650 0.000000 0.027593 0.041267 0.000000 0.024154 0.045292 0.000000 0.020450 0.046972 0.000000 0.016278 0.047640 0.000000 0.012126 0.045202 0.000000 0.008370 0.041594 0.000000 0.004897 0.034680 0.000000 0.002764 0.026772 0.000000 0.000759 0.016189 0.000000 0.000885 0.004739 0.000000 0.000687 -0.007997 0.000000 0.003212 -0.020876 0.000000 0.003694 -0.032723 0.000000 0.004770 -0.044473 0.000000 0.003806 -0.053384 0.000000 0.003150 -0.062749 0.000000 0.004228 -0.069900 0.000000 0.007468 -0.075281 0.000000 0.012820 -0.076207 0.000000 0.017681 -0.072658 0.000000 0.020797 -0.064774 0.000000 0.020463 -0.054221 0.000000 0.017197 -0.042949 0.000000 0.012805 -0.032544 0.000000 0.009814 -0.022629 0.000000 0.007968 -0.012707 0.000000 0.007743 -0.003929 0.000000 0.008306 0.005792 0.000000 0.007740 0.015220 0.000000 0.007384 0.024218 0.000000 0.005034 0.032786 0.000000 0.002008 0.039331 0.000000 -0.002224 0.044463 0.000000 -0.006965 0.046965 0.000000 -0.011734 0.047699 0.000000 -0.016464 0.046190 0.000000 -0.020472 0.043213 0.000000 -0.024020 0.038726 0.000000 -0.026532 0.033346 0.000000 -0.028383 0.027151 0.000000 -0.029132 0.020667 0.000000 -0.029204 0.013923 0.000000 -0.028218 0.007412 0.000000 -0.026669 0.001059 0.000000 -0.024158 -0.004662 0.000000 -0.021276 -0.009921 0.000000 -0.017558 -0.014272 0.000000 -0.013704 -0.017950 0.000000 -0.009160 -0.020557 0.000000 -0.004734 -0.022358 0.000000 
-0.000100 -0.028143 0.000000 0.005074 -0.027918 0.000000 0.010652 -0.026468 0.000000 0.015585 -0.024052 0.000000 0.020791 -0.020523 0.000000 0.025111 -0.016082 0.000000 0.029574 -0.010744 0.000000 0.032925 -0.004613 0.000000 0.036293 0.002075 0.000000 0.038353 0.009356 0.000000 0.040309 0.016698 0.000000 0.040828 0.024321 0.000000 0.041144 0.031323 0.000000 0.040024 0.038153 0.000000 0.038664 0.043489 0.000000 0.036106 0.048066 0.000000 0.033405 0.050151 0.000000 0.030135 0.050913 0.000000 0.026948 0.048311 0.000000 0.024311 0.044241 0.000000 0.021790 0.036553 0.000000 0.021071 0.028005 0.000000 0.019739 0.016390 0.000000 0.020944 0.004634 0.000000 0.021287 -0.008938 0.000000 0.024627 -0.020769 0.000000 0.025821 -0.029848 0.000000 0.028575 -0.039258 0.000000 0.028049 -0.047204 0.000000 0.024803 -0.059524 0.000000 0.021166 -0.071653 0.000000 0.017456 -0.081986 0.000000 0.015190 -0.084914 0.000000 0.012325 -0.079298 0.000000 0.008834 -0.066172 0.000000 0.003650 -0.049067 0.000000 -0.002429 -0.033463 0.000000 -0.007395 -0.023006 0.000000 -0.009311 -0.015936 0.000000 -0.010917 -0.009600 0.000000 -0.010620 -0.003675 0.000000 -0.008475 0.005459 0.000000 -0.007876 0.014626 0.000000 -0.006832 0.024272 0.000000 -0.008090 0.034175 0.000000 -0.010515 0.041657 0.000000 -0.014187 0.047800 0.000000 -0.018663 0.050579 0.000000 -0.022989 0.051412 0.000000 -0.027311 0.049528 0.000000 -0.030742 0.046029 0.000000 -0.033647 0.040819 0.000000 -0.035445 0.034654 0.000000 -0.036509 0.027625 0.000000 -0.036478 0.020315 0.000000 -0.035727 0.012764 0.000000 -0.033963 0.005501 0.000000 -0.031626 -0.001555 0.000000 -0.028380 -0.007892 0.000000 -0.024777 -0.013702 0.000000 -0.020382 -0.018502 0.000000 -0.015875 -0.022554 0.000000 -0.010701 -0.025426 0.000000 -0.005668 -0.027408 0.000000 
-0.000013 -0.033762 0.000000 0.005725 -0.033561 0.000000 0.011892 -0.031992 0.000000 0.017428 -0.029414 0.000000 0.023287 -0.025583 0.000000 0.028291 -0.020798 0.000000 0.033512 -0.014982 0.000000 0.037662 -0.008325 0.000000 0.041915 -0.000996 0.000000 0.044904 0.006984 0.000000 0.047876 0.015098 0.000000 0.049450 0.023564 0.000000 0.050896 0.031395 0.000000 0.050932 0.039130 0.000000 0.050801 0.045184 0.000000 0.049474 0.050551 0.000000 0.048139 0.052943 0.000000 0.046202 0.054098 0.000000 0.044728 0.051027 0.000000 0.043738 0.046751 0.000000 0.043663 0.037920 0.000000 0.045135 0.028823 0.000000 0.046666 0.016317 0.000000 0.050200 0.003190 0.000000 0.053189 -0.011680 0.000000 0.060932 -0.025409 0.000000 0.061991 -0.036672 0.000000 0.059994 -0.046702 0.000000 0.049532 -0.049612 0.000000 0.034946 -0.055866 0.000000 0.023753 -0.062553 0.000000 0.017199 -0.069305 0.000000 0.016256 -0.071076 0.000000 0.014680 -0.066302 0.000000 0.009977 -0.056099 0.000000 -0.001508 -0.042957 0.000000 -0.018906 -0.031904 0.000000 -0.034932 -0.025662 0.000000 -0.042881 -0.019107 0.000000 -0.045553 -0.011398 0.000000 -0.041837 -0.006372 0.000000 -0.035879 0.003048 0.000000 -0.032505 0.013578 0.000000 -0.027459 0.024432 0.000000 -0.026296 0.036468 0.000000 -0.026722 0.045428 0.000000 -0.029036 0.052610 0.000000 -0.032576 0.055767 0.000000 -0.035880 0.056347 0.000000 -0.039372 0.053943 0.000000 -0.041779 0.049550 0.000000 -0.043748 0.043428 0.000000 -0.044516 0.036208 0.000000 -0.044608 0.028184 0.000000 -0.043598 0.019884 0.000000 -0.041923 0.011408 0.000000 -0.039272 0.003310 0.000000 -0.036106 -0.004524 0.000000 -0.032080 -0.011511 0.000000 -0.027756 -0.017919 0.000000 -0.022680 -0.023174 0.000000 -0.017543 -0.027631 0.000000 -0.011762 -0.030764 0.000000 -0.006155 -0.032959 0.000000 
-0.000377 -0.040024 0.000000 0.005888 -0.039823 0.000000 0.012619 -0.038171 0.000000 0.018715 -0.035447 0.000000 0.025217 -0.031386 0.000000 0.030865 -0.026308 0.000000 0.036863 -0.020115 0.000000 0.041777 -0.013016 0.000000 0.046979 -0.005168 0.000000 0.050871 0.003395 0.000000 0.054980 0.012152 0.000000 0.057592 0.021301 0.000000 0.060358 0.029841 0.000000 0.061545 0.038247 0.000000 0.062894 0.044947 0.000000 0.062803 0.050728 0.000000 0.063091 0.053424 0.000000 0.062550 0.054324 0.000000 0.062915 0.050774 0.000000 0.063958 0.045306 0.000000 0.066092 0.035156 0.000000 0.070811 0.025002 0.000000 0.073739 0.011324 0.000000 0.079228 -0.001889 0.000000 0.082658 -0.019670 0.000000 0.089684 -0.029571 0.000000 0.091531 -0.028910 0.000000 0.097787 -0.026798 0.000000 0.095277 -0.022155 0.000000 0.079812 -0.033745 0.000000 0.060335 -0.053907 0.000000 0.037886 -0.074489 0.000000 0.017463 -0.082395 0.000000 -0.003806 -0.073019 0.000000 -0.023946 -0.049984 0.000000 -0.043462 -0.020184 0.000000 -0.061299 -0.000039 0.000000 -0.070311 0.000969 0.000000 -0.069692 -0.005315 0.000000 -0.072148 -0.010644 0.000000 -0.069503 -0.013349 0.000000 -0.060277 -0.003873 0.000000 -0.054774 0.006206 0.000000 -0.046927 0.018062 0.000000 -0.043259 0.033438 0.000000 -0.042663 0.044397 0.000000 -0.043892 0.053654 0.000000 -0.046934 0.057424 0.000000 -0.049390 0.058208 0.000000 -0.052074 0.055427 0.000000 -0.053508 0.050405 0.000000 -0.054426 0.043556 0.000000 -0.054177 0.035514 0.000000 -0.053180 0.026708 0.000000 -0.051199 0.017631 0.000000 -0.048517 0.008437 0.000000 -0.044984 -0.000315 0.000000 -0.040943 -0.008746 0.000000 -0.036144 -0.016242 0.000000 -0.031083 -0.023101 0.000000 -0.025342 -0.028715 0.000000 -0.019583 -0.033472 0.000000 -0.013219 -0.036814 0.000000 -0.007064 -0.039157 0.000000 
-0.000299 -0.046714 0.000000 0.006378 -0.046556 0.000000 0.013551 -0.044819 0.000000 0.020108 -0.042012 0.000000 0.027133 -0.037734 0.000000 0.033349 -0.032443 0.000000 0.040006 -0.025893 0.000000 0.045639 -0.018441 0.000000 0.051679 -0.010090 0.000000 0.056481 -0.001017 0.000000 0.061631 0.008377 0.000000 0.065381 0.018186 0.000000 0.069409 0.027442 0.000000 0.072002 0.036594 0.000000 0.074856 0.043926 0.000000 0.076456 0.050354 0.000000 0.078538 0.053197 0.000000 0.079925 0.054273 0.000000 0.082625 0.049619 0.000000 0.086031 0.043575 0.000000 0.092105 0.031066 0.000000 0.100369 0.021176 0.000000 0.108480 0.007900 0.000000 0.115843 -0.005729 0.000000 0.125399 -0.022136 0.000000 0.149118 -0.034282 0.000000 0.155999 -0.044775 0.000000 0.151754 -0.050448 0.000000 0.125414 -0.031637 0.000000 0.084421 -0.020924 0.000000 0.051053 -0.020627 0.000000 0.027608 -0.026434 0.000000 0.015233 -0.029385 0.000000 0.001503 -0.024893 0.000000 -0.016162 -0.016443 0.000000 -0.045607 -0.005604 0.000000 -0.087747 -0.005056 0.000000 -0.121190 -0.017269 0.000000 -0.131669 -0.017270 0.000000 -0.130633 -0.011587 0.000000 -0.113860 -0.018243 0.000000 -0.096262 -0.011681 0.000000 -0.087999 0.000228 0.000000 -0.072387 0.012917 0.000000 -0.064409 0.032204 0.000000 -0.061396 0.046060 0.000000 -0.060675 0.056881 0.000000 -0.062779 0.061266 0.000000 -0.063631 0.061487 0.000000 -0.065101 0.058061 0.000000 -0.064974 0.051902 0.000000 -0.064543 0.044098 0.000000 -0.062938 0.034962 0.000000 -0.060715 0.025206 0.000000 -0.057619 0.015221 0.000000 -0.053920 0.005193 0.000000 -0.049484 -0.004264 0.000000 -0.044631 -0.013363 0.000000 -0.039110 -0.021371 0.000000 -0.033412 -0.028721 0.000000 -0.027094 -0.034674 0.000000 -0.020831 -0.039754 0.000000 -0.013994 -0.043282 0.000000 -0.007412 -0.045801 0.000000 
-0.000695 -0.053814 0.000000 0.006301 -0.053673 0.000000 0.013826 -0.051901 0.000000 0.020742 -0.049030 0.000000 0.028211 -0.044627 0.000000 0.034887 -0.039180 0.000000 0.042151 -0.032406 0.000000 0.048400 -0.024689 0.000000 0.055274 -0.016009 0.000000 0.060886 -0.006557 0.000000 0.067157 0.003252 0.000000 0.071950 0.013523 0.000000 0.077443 0.023220 0.000000 0.081346 0.032800 0.000000 0.086064 0.040492 0.000000 0.089192 0.047046 0.000000 0.093526 0.049955 0.000000 0.096444 0.050237 0.000000 0.101725 0.044668 0.000000 0.107144 0.035827 0.000000 0.116808 0.020818 0.000000 0.131166 0.008626 0.000000 0.140898 -0.004150 0.000000 0.153332 -0.018808 0.000000 0.160201 -0.052945 0.000000 0.164382 -0.060170 0.000000 0.157633 -0.031546 0.000000 0.180914 0.003787 0.000000 0.202997 0.045178 0.000000 0.192237 0.040616 0.000000 0.154751 0.002906 0.000000 0.091310 -0.038669 0.000000 0.015237 -0.056290 0.000000 -0.063622 -0.041624 0.000000 -0.126461 -0.002874 0.000000 -0.165051 0.051401 0.000000 -0.173418 0.075545 0.000000 -0.152676 0.044891 0.000000 -0.130183 0.004128 0.000000 -0.143231 -0.028453 0.000000 -0.147413 -0.047721 0.000000 -0.127896 -0.029733 0.000000 -0.115612 -0.017670 0.000000 -0.096430 -0.005528 0.000000 -0.083649 0.022447 0.000000 -0.080091 0.040663 0.000000 -0.078125 0.055037 0.000000 -0.079571 0.060380 0.000000 -0.078999 0.060530 0.000000 -0.078879 0.056770 0.000000 -0.077148 0.049847 0.000000 -0.075007 0.041520 0.000000 -0.072024 0.031687 0.000000 -0.068368 0.021389 0.000000 -0.064175 0.010835 0.000000 -0.059365 0.000302 0.000000 -0.054061 -0.009604 0.000000 -0.048374 -0.019121 0.000000 -0.042174 -0.027461 0.000000 -0.035862 -0.035116 0.000000 -0.029027 -0.041296 0.000000 -0.022313 -0.046572 0.000000 -0.015078 -0.050233 0.000000 -0.008146 -0.052852 0.000000 
-0.000626 -0.061162 0.000000 0.006486 -0.061077 0.000000 0.014154 -0.059260 0.000000 0.021240 -0.056396 0.000000 0.028941 -0.051879 0.000000 0.035902 -0.046384 0.000000 0.043554 -0.039406 0.000000 0.050253 -0.031564 0.000000 0.057723 -0.022576 0.000000 0.064003 -0.012899 0.000000 0.071125 -0.002688 0.000000 0.076895 0.007900 0.000000 0.083555 0.018047 0.000000 0.088896 0.027973 0.000000 0.095151 0.036080 0.000000 0.100284 0.042891 0.000000 0.106404 0.045945 0.000000 0.111451 0.046075 0.000000 0.118258 0.038918 0.000000 0.124988 0.028491 0.000000 0.137954 0.007045 0.000000 0.156402 -0.002913 0.000000 0.172731 -0.014266 0.000000 0.175002 -0.025031 0.000000 0.191542 -0.033187 0.000000 0.256775 -0.031714 0.000000 0.272665 -0.061307 0.000000 0.245743 -0.095813 0.000000 0.205586 -0.042960 0.000000 0.179830 0.027322 0.000000 0.137469 0.080300 0.000000 0.079680 0.113081 0.000000 0.007858 0.125547 0.000000 -0.067655 0.116805 0.000000 -0.126961 0.084986 0.000000 -0.176229 0.041353 0.000000 -0.188837 -0.017430 0.000000 -0.211294 -0.060504 0.000000 -0.239193 -0.026715 0.000000 -0.229267 0.005643 0.000000 -0.178612 -0.033578 0.000000 -0.156462 -0.043481 0.000000 -0.153116 -0.031238 0.000000 -0.122043 -0.019046 0.000000 -0.101467 0.015865 0.000000 -0.098404 0.040536 0.000000 -0.094700 0.056361 0.000000 -0.096083 0.062140 0.000000 -0.093209 0.060796 0.000000 -0.091227 0.056210 0.000000 -0.087260 0.048029 0.000000 -0.083184 0.038974 0.000000 -0.078597 0.028324 0.000000 -0.073515 0.017357 0.000000 -0.068247 0.006218 0.000000 -0.062485 -0.004920 0.000000 -0.056452 -0.015255 0.000000 -0.050151 -0.025251 0.000000 -0.043461 -0.033883 0.000000 -0.036771 -0.041868 0.000000 -0.029624 -0.048223 0.000000 -0.022691 -0.053703 0.000000 -0.015269 -0.057449 0.000000 -0.008205 -0.060184 0.000000 
-0.001038 -0.068505 0.000000 0.006037 -0.068453 0.000000 0.013685 -0.066654 0.000000 0.020774 -0.063817 0.000000 0.028541 -0.059289 0.000000 0.035609 -0.053794 0.000000 0.043495 -0.046757 0.000000 0.050457 -0.038858 0.000000 0.058406 -0.029759 0.000000 0.065157 -0.019959 0.000000 0.073094 -0.009641 0.000000 0.079624 0.001093 0.000000 0.087541 0.011220 0.000000 0.094034 0.021204 0.000000 0.102075 0.029104 0.000000 0.108628 0.035793 0.000000 0.116942 0.038788 0.000000 0.122372 0.038383 0.000000 0.130979 0.031131 0.000000 0.134589 0.016131 0.000000 0.151298 -0.010597 0.000000 0.176287 -0.026151 0.000000 0.194584 -0.022750 0.000000 0.248487 -0.037620 0.000000 0.265322 -0.134718 0.000000 0.234064 -0.141293 0.000000 0.129450 -0.020514 0.000000 0.004304 0.070865 0.000000 -0.089033 0.111091 0.000000 -0.118491 0.108733 0.000000 -0.117482 0.103057 0.000000 -0.077620 0.090942 0.000000 -0.012810 0.091045 0.000000 0.053247 0.093195 0.000000 0.099534 0.105700 0.000000 0.107637 0.113277 0.000000 0.083094 0.110610 0.000000 0.017798 0.095247 0.000000 -0.088719 0.022100 0.000000 -0.168677 -0.089033 0.000000 -0.220800 -0.120525 0.000000 -0.229334 -0.055230 0.000000 -0.173126 -0.052088 0.000000 -0.146222 -0.057176 0.000000 -0.118959 -0.001192 0.000000 -0.116708 0.033896 0.000000 -0.112841 0.052716 0.000000 -0.113149 0.058888 0.000000 -0.108239 0.055674 0.000000 -0.103473 0.050820 0.000000 -0.097322 0.041805 0.000000 -0.090871 0.032857 0.000000 -0.084790 0.022017 0.000000 -0.078126 0.011039 0.000000 -0.071895 -0.000195 0.000000 -0.065157 -0.011493 0.000000 -0.058488 -0.021937 0.000000 -0.051616 -0.032112 0.000000 -0.044524 -0.040842 0.000000 -0.037538 -0.048953 0.000000 -0.030183 -0.055376 0.000000 -0.023141 -0.060927 0.000000 -0.015658 -0.064719 0.000000 -0.008597 -0.067495 0.000000 