# vtk DataFile Version 2.0
Comment goes here
ASCII

DATASET STRUCTURED_POINTS
FIELD FieldData 1
TIME 1 1 double
1.63000000
DIMENSIONS    64   64   1

ORIGIN    0.000   0.000   0.000
SPACING   0.015625 0.015625   1.000

POINT_DATA   4096
VECTORS u double

0.001659 0.000000 0.000000 0.000316 -0.000000 0.000000 -0.000928 -0.000000 0.000000 -0.002668 -0.000000 0.000000 -0.004606 -0.000000 0.000000 -0.007262 -0.000000 0.000000 -0.010386 -0.000000 0.000000 -0.014375 -0.000000 0.000000 -0.019043 -0.000000 0.000000 -0.024610 -0.000000 0.000000 -0.030971 -0.000000 0.000000 -0.038117 -0.000000 0.000000 -0.046036 -0.000000 0.000000 -0.054442 -0.000000 0.000000 -0.063429 -0.000000 0.000000 -0.072404 -0.000000 0.000000 -0.081579 0.000000 0.000000 -0.090057 0.000000 0.000000 -0.098186 0.000000 0.000000 -0.104822 0.000000 0.000000 -0.110463 0.000000 0.000000 -0.113834 0.000000 0.000000 -0.115604 0.000000 0.000000 -0.114513 0.000000 0.000000 -0.111405 0.000000 0.000000 -0.105168 0.000000 0.000000 -0.096801 0.000000 0.000000 -0.085423 0.000000 0.000000 -0.072149 0.000000 0.000000 -0.056371 0.000000 0.000000 -0.039307 0.000000 0.000000 -0.020668 0.000000 0.000000 -0.001726 0.000000 0.000000 0.017482 0.000000 0.000000 0.035859 0.000000 0.000000 0.053135 0.000000 0.000000 0.068697 0.000000 0.000000 0.082117 0.000000 0.000000 0.093400 0.000000 0.000000 0.101962 0.000000 0.000000 0.108333 0.000000 0.000000 0.111827 0.000000 0.000000 0.113317 0.000000 0.000000 0.112155 0.000000 0.000000 0.109370 0.000000 0.000000 0.104466 0.000000 0.000000 0.098463 0.000000 0.000000 0.091052 0.000000 0.000000 0.083129 0.000000 0.000000 0.074527 -0.000000 0.000000 0.065967 -0.000000 0.000000 0.057344 -0.000000 0.000000 0.049211 -0.000000 0.000000 0.041439 -0.000000 0.000000 0.034464 0.000000 0.000000 0.028068 -0.000000 0.000000 0.022621 0.000000 0.000000 0.017788 -0.000000 0.000000 0.013915 0.000000 0.000000 0.010551 -0.000000 0.000000 0.008038 0.000000 0.000000 0.005832 -0.000000 0.000000 0.004278 0.000000 0.000000 0.002772 -0.000000 0.000000 
0.001609 0.001228 0.000000 0.000306 0.001294 0.000000 -0.000891 0.001492 0.000000 -0.002590 0.001839 0.000000 -0.004481 0.002297 0.000000 -0.007097 0.002890 0.000000 -0.010179 0.003556 0.000000 -0.014130 0.004328 0.000000 -0.018762 0.005118 0.000000 -0.024296 0.005964 0.000000 -0.030634 0.006754 0.000000 -0.037757 0.007532 0.000000 -0.045672 0.008162 0.000000 -0.054067 0.008696 0.000000 -0.063076 0.008981 0.000000 -0.072055 0.009075 0.000000 -0.081278 0.008827 0.000000 -0.089772 0.008304 0.000000 -0.097964 0.007382 0.000000 -0.104612 0.006138 0.000000 -0.110309 0.004506 0.000000 -0.113667 0.002571 0.000000 -0.115452 0.000340 0.000000 -0.114303 -0.002100 0.000000 -0.111147 -0.004673 0.000000 -0.104810 -0.007302 0.000000 -0.096353 -0.009873 0.000000 -0.084882 -0.012326 0.000000 -0.071553 -0.014526 0.000000 -0.055779 -0.016421 0.000000 -0.038770 -0.017851 0.000000 -0.020260 -0.018790 0.000000 -0.001464 -0.019075 0.000000 0.017564 -0.018793 0.000000 0.035804 -0.017827 0.000000 0.052954 -0.016419 0.000000 0.068472 -0.014491 0.000000 0.081863 -0.012351 0.000000 0.093193 -0.009922 0.000000 0.101774 -0.007466 0.000000 0.108213 -0.004932 0.000000 0.111712 -0.002492 0.000000 0.113241 -0.000164 0.000000 0.112051 0.001974 0.000000 0.109259 0.003845 0.000000 0.104305 0.005454 0.000000 0.098265 0.006707 0.000000 0.090805 0.007667 0.000000 0.082836 0.008262 0.000000 0.074199 0.008581 0.000000 0.065602 0.008592 0.000000 0.056963 0.008378 0.000000 0.048813 0.007952 0.000000 0.041046 0.007374 0.000000 0.034073 0.006686 0.000000 0.027696 0.005922 0.000000 0.022268 0.005140 0.000000 0.017465 0.004353 0.000000 0.013623 0.003619 0.000000 0.010294 0.002938 0.000000 0.007820 0.002360 0.000000 0.005652 0.001880 0.000000 0.004142 0.001530 0.000000 0.002676 0.001309 0.000000 
0.001660 0.002370 0.000000 0.000523 0.002500 0.000000 -0.000506 0.002896 0.000000 -0.002038 0.003591 0.000000 -0.003760 0.004507 0.000000 -0.006210 0.005697 0.000000 -0.009122 0.007032 0.000000 -0.012913 0.008583 0.000000 -0.017382 0.010167 0.000000 -0.022770 0.011873 0.000000 -0.028961 0.013460 0.000000 -0.035963 0.015038 0.000000 -0.043758 0.016311 0.000000 -0.052073 0.017404 0.000000 -0.061000 0.017988 0.000000 -0.069947 0.018202 0.000000 -0.079131 0.017717 0.000000 -0.087640 0.016686 0.000000 -0.095831 0.014840 0.000000 -0.102528 0.012345 0.000000 -0.108249 0.009055 0.000000 -0.111677 0.005144 0.000000 -0.113514 0.000636 0.000000 -0.112467 -0.004305 0.000000 -0.109421 -0.009493 0.000000 -0.103255 -0.014794 0.000000 -0.095006 -0.019928 0.000000 -0.083784 -0.024800 0.000000 -0.070714 -0.029103 0.000000 -0.055151 -0.032783 0.000000 -0.038309 -0.035519 0.000000 -0.019852 -0.037306 0.000000 -0.001103 -0.037825 0.000000 0.017924 -0.037268 0.000000 0.036050 -0.035390 0.000000 0.053034 -0.032668 0.000000 0.068246 -0.028909 0.000000 0.081296 -0.024720 0.000000 0.092251 -0.019911 0.000000 0.100507 -0.015020 0.000000 0.106672 -0.009939 0.000000 0.109976 -0.005028 0.000000 0.111359 -0.000338 0.000000 0.110085 0.003982 0.000000 0.107233 0.007745 0.000000 0.102258 0.010994 0.000000 0.096205 0.013501 0.000000 0.088759 0.015430 0.000000 0.080812 0.016606 0.000000 0.072221 0.017233 0.000000 0.063682 0.017235 0.000000 0.055122 0.016789 0.000000 0.047063 0.015918 0.000000 0.039405 0.014741 0.000000 0.032554 0.013350 0.000000 0.026312 0.011805 0.000000 0.021027 0.010231 0.000000 0.016374 0.008645 0.000000 0.012689 0.007171 0.000000 0.009519 0.005803 0.000000 0.007209 0.004642 0.000000 0.005204 0.003678 0.000000 0.003860 0.002976 0.000000 0.002559 0.002533 0.000000 
0.001609 0.003265 0.000000 0.000716 0.003459 0.000000 -0.000052 0.004053 0.000000 -0.001340 0.005093 0.000000 -0.002801 0.006468 0.000000 -0.005008 0.008252 0.000000 -0.007666 0.010259 0.000000 -0.011222 0.012588 0.000000 -0.015455 0.014975 0.000000 -0.020632 0.017543 0.000000 -0.026624 0.019946 0.000000 -0.033458 0.022330 0.000000 -0.041119 0.024272 0.000000 -0.049331 0.025938 0.000000 -0.058214 0.026855 0.000000 -0.067137 0.027206 0.000000 -0.076376 0.026520 0.000000 -0.084931 0.025004 0.000000 -0.093253 0.022270 0.000000 -0.100024 0.018556 0.000000 -0.105889 0.013656 0.000000 -0.109356 0.007836 0.000000 -0.111273 0.001129 0.000000 -0.110184 -0.006192 0.000000 -0.107116 -0.013884 0.000000 -0.100857 -0.021717 0.000000 -0.092551 -0.029344 0.000000 -0.081306 -0.036618 0.000000 -0.068317 -0.043159 0.000000 -0.052963 -0.048827 0.000000 -0.036448 -0.053150 0.000000 -0.018415 -0.055997 0.000000 -0.000150 -0.056851 0.000000 0.018364 -0.055946 0.000000 0.035975 -0.052936 0.000000 0.052466 -0.048615 0.000000 0.067271 -0.042753 0.000000 0.079963 -0.036357 0.000000 0.090712 -0.029133 0.000000 0.098753 -0.021887 0.000000 0.104847 -0.014402 0.000000 0.108002 -0.007179 0.000000 0.109346 -0.000273 0.000000 0.107937 0.006100 0.000000 0.105017 0.011672 0.000000 0.099917 0.016482 0.000000 0.093770 0.020206 0.000000 0.086235 0.023060 0.000000 0.078211 0.024800 0.000000 0.069595 0.025711 0.000000 0.061037 0.025691 0.000000 0.052527 0.024997 0.000000 0.044526 0.023668 0.000000 0.036987 0.021883 0.000000 0.030265 0.019779 0.000000 0.024195 0.017449 0.000000 0.019094 0.015077 0.000000 0.014649 0.012691 0.000000 0.011184 0.010474 0.000000 0.008242 0.008419 0.000000 0.006172 0.006675 0.000000 0.004404 0.005229 0.000000 0.003312 0.004175 0.000000 0.002252 0.003510 0.000000 
0.001660 0.003906 0.000000 0.001128 0.004162 0.000000 0.000731 0.004952 0.000000 -0.000192 0.006340 0.000000 -0.001279 0.008175 0.000000 -0.003122 0.010562 0.000000 -0.005407 0.013246 0.000000 -0.008609 0.016372 0.000000 -0.012484 0.019577 0.000000 -0.017335 0.023042 0.000000 -0.023006 0.026286 0.000000 -0.029571 0.029533 0.000000 -0.036978 0.032183 0.000000 -0.045007 0.034499 0.000000 -0.053732 0.035794 0.000000 -0.062576 0.036364 0.000000 -0.071761 0.035511 0.000000 -0.080330 0.033563 0.000000 -0.088671 0.029932 0.000000 -0.095499 0.024981 0.000000 -0.101396 0.018387 0.000000 -0.104908 0.010527 0.000000 -0.106840 0.001464 0.000000 -0.105800 -0.008462 0.000000 -0.102819 -0.018820 0.000000 -0.096758 -0.029360 0.000000 -0.088806 -0.039479 0.000000 -0.078081 -0.049033 0.000000 -0.065722 -0.057446 0.000000 -0.050964 -0.064653 0.000000 -0.034950 -0.070067 0.000000 -0.017162 -0.073604 0.000000 0.000911 -0.074603 0.000000 0.019318 -0.073393 0.000000 0.036572 -0.069492 0.000000 0.052530 -0.063963 0.000000 0.066513 -0.056405 0.000000 0.078298 -0.048162 0.000000 0.088194 -0.038701 0.000000 0.095519 -0.029156 0.000000 0.101147 -0.019187 0.000000 0.103977 -0.009527 0.000000 0.105160 -0.000274 0.000000 0.103652 0.008311 0.000000 0.100690 0.015765 0.000000 0.095569 0.022241 0.000000 0.089415 0.027182 0.000000 0.081899 0.030988 0.000000 0.073903 0.033246 0.000000 0.065363 0.034407 0.000000 0.056897 0.034303 0.000000 0.048537 0.033301 0.000000 0.040708 0.031458 0.000000 0.033395 0.029002 0.000000 0.026919 0.026142 0.000000 0.021134 0.022975 0.000000 0.016337 0.019777 0.000000 0.012215 0.016555 0.000000 0.009090 0.013578 0.000000 0.006491 0.010814 0.000000 0.004779 0.008479 0.000000 0.003364 0.006539 0.000000 0.002637 0.005128 0.000000 0.001934 0.004235 0.000000 
0.001608 0.004071 0.000000 0.001503 0.004388 0.000000 0.001561 0.005373 0.000000 0.001069 0.007103 0.000000 0.000440 0.009398 0.000000 -0.000969 0.012380 0.000000 -0.002798 0.015747 0.000000 -0.005577 0.019665 0.000000 -0.009016 0.023701 0.000000 -0.013477 0.028065 0.000000 -0.018765 0.032182 0.000000 -0.025006 0.036302 0.000000 -0.032130 0.039708 0.000000 -0.039942 0.042692 0.000000 -0.048531 0.044425 0.000000 -0.057297 0.045236 0.000000 -0.066516 0.044274 0.000000 -0.075132 0.041913 0.000000 -0.083644 0.037438 0.000000 -0.090568 0.031281 0.000000 -0.096666 0.023065 0.000000 -0.100202 0.013280 0.000000 -0.102217 0.002020 0.000000 -0.101043 -0.010214 0.000000 -0.097936 -0.022926 0.000000 -0.091633 -0.035729 0.000000 -0.083470 -0.048021 0.000000 -0.072631 -0.059702 0.000000 -0.060411 -0.070276 0.000000 -0.046150 -0.079599 0.000000 -0.030941 -0.086952 0.000000 -0.014172 -0.091858 0.000000 0.002736 -0.093331 0.000000 0.019972 -0.091607 0.000000 0.036019 -0.086148 0.000000 0.050895 -0.078556 0.000000 0.063974 -0.068522 0.000000 0.075083 -0.058037 0.000000 0.084629 -0.046354 0.000000 0.091640 -0.034840 0.000000 0.097220 -0.022860 0.000000 0.099856 -0.011192 0.000000 0.101046 0.000052 0.000000 0.099363 0.010569 0.000000 0.096330 0.019755 0.000000 0.091047 0.027757 0.000000 0.084759 0.033877 0.000000 0.077143 0.038572 0.000000 0.069042 0.041336 0.000000 0.060510 0.042718 0.000000 0.052045 0.042516 0.000000 0.043819 0.041186 0.000000 0.036124 0.038811 0.000000 0.029057 0.035671 0.000000 0.022838 0.032040 0.000000 0.017382 0.028031 0.000000 0.012932 0.023996 0.000000 0.009190 0.019938 0.000000 0.006466 0.016198 0.000000 0.004275 0.012729 0.000000 0.002993 0.009802 0.000000 0.001997 0.007371 0.000000 0.001712 0.005604 0.000000 0.001433 0.004487 0.000000 
0.001659 0.003836 0.000000 0.002079 0.004209 0.000000 0.002683 0.005386 0.000000 0.002725 0.007460 0.000000 0.002650 0.010213 0.000000 0.001781 0.013800 0.000000 0.000510 0.017854 0.000000 -0.001733 0.022590 0.000000 -0.004626 0.027476 0.000000 -0.008582 0.032791 0.000000 -0.013370 0.037815 0.000000 -0.019178 0.042897 0.000000 -0.025894 0.047120 0.000000 -0.033395 0.050900 0.000000 -0.041717 0.053148 0.000000 -0.050325 0.054350 0.000000 -0.059433 0.053347 0.000000 -0.068018 0.050691 0.000000 -0.076510 0.045368 0.000000 -0.083424 0.038003 0.000000 -0.089452 0.028021 0.000000 -0.092863 0.016079 0.000000 -0.094663 0.002306 0.000000 -0.093264 -0.012743 0.000000 -0.089990 -0.028230 0.000000 -0.083737 -0.043826 0.000000 -0.076071 -0.058481 0.000000 -0.066273 -0.072092 0.000000 -0.055466 -0.083927 0.000000 -0.042653 -0.094122 0.000000 -0.028570 -0.102045 0.000000 -0.012232 -0.107282 0.000000 0.004535 -0.108748 0.000000 0.021843 -0.106676 0.000000 0.037378 -0.100415 0.000000 0.051213 -0.091918 0.000000 0.062547 -0.080593 0.000000 0.071706 -0.068816 0.000000 0.079608 -0.055259 0.000000 0.085408 -0.041747 0.000000 0.090476 -0.027403 0.000000 0.092876 -0.013353 0.000000 0.094114 0.000219 0.000000 0.092516 0.013027 0.000000 0.089604 0.024081 0.000000 0.084403 0.033812 0.000000 0.078177 0.041086 0.000000 0.070626 0.046705 0.000000 0.062584 0.049879 0.000000 0.054179 0.051405 0.000000 0.045851 0.050995 0.000000 0.037860 0.049221 0.000000 0.030423 0.046220 0.000000 0.023703 0.042288 0.000000 0.017856 0.037817 0.000000 0.012832 0.032882 0.000000 0.008839 0.027969 0.000000 0.005581 0.023020 0.000000 0.003365 0.018494 0.000000 0.001681 0.014288 0.000000 0.000929 0.010758 0.000000 0.000450 0.007820 0.000000 0.000702 0.005691 0.000000 0.000944 0.004340 0.000000 
0.001605 0.002935 0.000000 0.002596 0.003364 0.000000 0.003810 0.004727 0.000000 0.004433 0.007136 0.000000 0.004982 0.010341 0.000000 0.004705 0.014520 0.000000 0.004069 0.019261 0.000000 0.002419 0.024801 0.000000 0.000153 0.030550 0.000000 -0.003234 0.036809 0.000000 -0.007441 0.042778 0.000000 -0.012753 0.048826 0.000000 -0.019000 0.053925 0.000000 -0.026137 0.058515 0.000000 -0.034180 0.061354 0.000000 -0.042613 0.062951 0.000000 -0.051687 0.061968 0.000000 -0.060286 0.058991 0.000000 -0.068964 0.052844 0.000000 -0.075969 0.044223 0.000000 -0.082254 0.032504 0.000000 -0.085637 0.018491 0.000000 -0.087537 0.002421 0.000000 -0.085841 -0.014886 0.000000 -0.082248 -0.032453 0.000000 -0.075428 -0.049649 0.000000 -0.067016 -0.065484 0.000000 -0.056542 -0.080307 0.000000 -0.045561 -0.093897 0.000000 -0.033567 -0.106494 0.000000 -0.021109 -0.117373 0.000000 -0.006950 -0.124963 0.000000 0.007327 -0.127406 0.000000 0.022219 -0.124450 0.000000 0.035301 -0.115517 0.000000 0.047147 -0.103724 0.000000 0.057001 -0.089015 0.000000 0.065453 -0.075098 0.000000 0.073337 -0.060057 0.000000 0.079106 -0.045708 0.000000 0.084450 -0.030328 0.000000 0.086714 -0.014831 0.000000 0.088131 0.000412 0.000000 0.086319 0.015079 0.000000 0.083337 0.027867 0.000000 0.077925 0.039185 0.000000 0.071482 0.047653 0.000000 0.063825 0.054164 0.000000 0.055620 0.057784 0.000000 0.047276 0.059451 0.000000 0.038965 0.058834 0.000000 0.031214 0.056614 0.000000 0.024000 0.052968 0.000000 0.017664 0.048238 0.000000 0.012212 0.042910 0.000000 0.007672 0.037048 0.000000 0.004187 0.031247 0.000000 0.001467 0.025412 0.000000 -0.000180 0.020098 0.000000 -0.001303 0.015165 0.000000 -0.001461 0.011034 0.000000 -0.001375 0.007599 0.000000 -0.000522 0.005110 0.000000 0.000286 0.003530 0.000000 
0.001654 0.001526 0.000000 0.003284 0.002004 0.000000 0.005165 0.003549 0.000000 0.006444 0.006288 0.000000 0.007679 0.009941 0.000000 0.008080 0.014714 0.000000 0.008152 0.020141 0.000000 0.007193 0.026506 0.000000 0.005645 0.033129 0.000000 0.002934 0.040385 0.000000 -0.000586 0.047334 0.000000 -0.005289 0.054456 0.000000 -0.010945 0.060505 0.000000 -0.017615 0.066080 0.000000 -0.025247 0.069624 0.000000 -0.033416 0.071857 0.000000 -0.042306 0.071020 0.000000 -0.050825 0.067967 0.000000 -0.059453 0.061051 0.000000 -0.066370 0.051293 0.000000 -0.072448 0.037689 0.000000 -0.075427 0.021361 0.000000 -0.076659 0.002509 0.000000 -0.074150 -0.018031 0.000000 -0.069666 -0.038643 0.000000 -0.062216 -0.059058 0.000000 -0.054333 -0.077367 0.000000 -0.046002 -0.093547 0.000000 -0.038230 -0.106902 0.000000 -0.029682 -0.118574 0.000000 -0.019527 -0.128662 0.000000 -0.005631 -0.135719 0.000000 0.009462 -0.137917 0.000000 0.025730 -0.134650 0.000000 0.038782 -0.125343 0.000000 0.049044 -0.113618 0.000000 0.055367 -0.098899 0.000000 0.059722 -0.085152 0.000000 0.064551 -0.068911 0.000000 0.068573 -0.052861 0.000000 0.073952 -0.035011 0.000000 0.076640 -0.017033 0.000000 0.078698 0.000615 0.000000 0.077391 0.017821 0.000000 0.074777 0.032475 0.000000 0.069544 0.045668 0.000000 0.063183 0.055186 0.000000 0.055584 0.062567 0.000000 0.047410 0.066427 0.000000 0.039216 0.068059 0.000000 0.031060 0.067057 0.000000 0.023627 0.064187 0.000000 0.016748 0.059770 0.000000 0.010884 0.054075 0.000000 0.005927 0.047810 0.000000 0.001959 0.040907 0.000000 -0.000927 0.034173 0.000000 -0.003025 0.027387 0.000000 -0.004022 0.021264 0.000000 -0.004508 0.015568 0.000000 -0.004002 0.010830 0.000000 -0.003281 0.006880 0.000000 -0.001766 0.004031 0.000000 -0.000325 0.002213 0.000000 
0.001596 -0.000673 0.000000 0.003876 -0.000148 0.000000 0.006460 0.001567 0.000000 0.008408 0.004622 0.000000 0.010373 0.008706 0.000000 0.011473 0.014048 0.000000 0.012312 0.020148 0.000000 0.012080 0.027309 0.000000 0.011328 0.034810 0.000000 0.009348 0.043040 0.000000 0.006615 0.051000 0.000000 0.002596 0.059186 0.000000 -0.002365 0.066251 0.000000 -0.008489 0.072816 0.000000 -0.015640 0.077155 0.000000 -0.023510 0.080010 0.000000 -0.032263 0.079377 0.000000 -0.040780 0.076138 0.000000 -0.049634 0.068389 0.000000 -0.056706 0.057218 0.000000 -0.063209 0.041561 0.000000 -0.066182 0.022702 0.000000 -0.067799 0.001145 0.000000 -0.064968 -0.021879 0.000000 -0.060251 -0.044387 0.000000 -0.052104 -0.064982 0.000000 -0.042230 -0.081699 0.000000 -0.031055 -0.096409 0.000000 -0.021152 -0.110216 0.000000 -0.013181 -0.125197 0.000000 -0.005916 -0.141424 0.000000 0.003365 -0.153953 0.000000 0.012960 -0.158767 0.000000 0.024012 -0.153770 0.000000 0.032060 -0.138831 0.000000 0.038998 -0.120309 0.000000 0.043759 -0.099693 0.000000 0.049023 -0.084282 0.000000 0.056028 -0.068907 0.000000 0.061338 -0.055109 0.000000 0.067647 -0.038395 0.000000 0.070025 -0.019577 0.000000 0.072369 -0.000340 0.000000 0.070566 0.019000 0.000000 0.067671 0.035714 0.000000 0.062008 0.050779 0.000000 0.055110 0.061613 0.000000 0.047312 0.069936 0.000000 0.038776 0.074152 0.000000 0.030678 0.075802 0.000000 0.022510 0.074423 0.000000 0.015431 0.070925 0.000000 0.008869 0.065711 0.000000 0.003537 0.059059 0.000000 -0.000878 0.051836 0.000000 -0.004216 0.043902 0.000000 -0.006438 0.036230 0.000000 -0.007869 0.028507 0.000000 -0.008156 0.021582 0.000000 -0.007974 0.015145 0.000000 -0.006755 0.009807 0.000000 -0.005378 0.005362 0.000000 -0.003163 0.002155 0.000000 -0.001076 0.000111 0.000000 
0.001641 -0.003426 0.000000 0.004594 -0.002861 0.000000 0.007888 -0.000983 0.000000 0.010538 0.002375 0.000000 0.013247 0.006877 0.000000 0.015096 0.012775 0.000000 0.016730 0.019534 0.000000 0.017297 0.027490 0.000000 0.017393 0.035861 0.000000 0.016237 0.045098 0.000000 0.014368 0.054086 0.000000 0.011135 0.063436 0.000000 0.006963 0.071589 0.000000 0.001472 0.079355 0.000000 -0.005117 0.084645 0.000000 -0.012653 0.088479 0.000000 -0.021219 0.088290 0.000000 -0.029740 0.085338 0.000000 -0.038706 0.076977 0.000000 -0.045782 0.064868 0.000000 -0.052088 0.047165 0.000000 -0.054330 0.025951 0.000000 -0.054526 0.001295 0.000000 -0.049800 -0.025579 0.000000 -0.042157 -0.051507 0.000000 -0.030646 -0.077078 0.000000 -0.020575 -0.098416 0.000000 -0.014162 -0.114626 0.000000 -0.012044 -0.124776 0.000000 -0.012560 -0.133809 0.000000 -0.009928 -0.145208 0.000000 0.000449 -0.154595 0.000000 0.014027 -0.158564 0.000000 0.030316 -0.153749 0.000000 0.040560 -0.140328 0.000000 0.045679 -0.125318 0.000000 0.043010 -0.108924 0.000000 0.039022 -0.097421 0.000000 0.040052 -0.081226 0.000000 0.043547 -0.064480 0.000000 0.052706 -0.043699 0.000000 0.057932 -0.021755 0.000000 0.062153 0.000073 0.000000 0.061547 0.022519 0.000000 0.059211 0.041033 0.000000 0.053577 0.058229 0.000000 0.046503 0.069882 0.000000 0.038494 0.078901 0.000000 0.029729 0.083062 0.000000 0.021663 0.084325 0.000000 0.013546 0.082303 0.000000 0.006821 0.077828 0.000000 0.000629 0.071664 0.000000 -0.004120 0.063822 0.000000 -0.007933 0.055563 0.000000 -0.010578 0.046467 0.000000 -0.012079 0.037826 0.000000 -0.012790 0.029105 0.000000 -0.012322 0.021369 0.000000 -0.011435 0.014168 0.000000 -0.009474 0.008234 0.000000 -0.007417 0.003288 0.000000 -0.004485 -0.000272 0.000000 -0.001731 -0.002545 0.000000 
0.001580 -0.006999 0.000000 0.005168 -0.006394 0.000000 0.009159 -0.004377 0.000000 0.012476 -0.000737 0.000000 0.015929 0.004148 0.000000 0.018501 0.010564 0.000000 0.020956 0.017946 0.000000 0.022314 0.026646 0.000000 0.023318 0.035870 0.000000 0.023009 0.046065 0.000000 0.022109 0.056103 0.000000 0.019724 0.066590 0.000000 0.016486 0.075914 0.000000 0.011716 0.084896 0.000000 0.005829 0.091279 0.000000 -0.001316 0.096113 0.000000 -0.009660 0.096464 0.000000 -0.018275 0.093625 0.000000 -0.027551 0.084431 0.000000 -0.034926 0.070600 0.000000 -0.041704 0.050110 0.000000 -0.043650 0.025139 0.000000 -0.044612 -0.003386 0.000000 -0.039301 -0.034248 0.000000 -0.032785 -0.063542 0.000000 -0.022883 -0.086564 0.000000 -0.008954 -0.098183 0.000000 0.007659 -0.104940 0.000000 0.020484 -0.111817 0.000000 0.023224 -0.127313 0.000000 0.021319 -0.154433 0.000000 0.020027 -0.177908 0.000000 0.017783 -0.188634 0.000000 0.018643 -0.180303 0.000000 0.015858 -0.154194 0.000000 0.014992 -0.122759 0.000000 0.013866 -0.093035 0.000000 0.019695 -0.081324 0.000000 0.031718 -0.073433 0.000000 0.039857 -0.067763 0.000000 0.049468 -0.052779 0.000000 0.052465 -0.029024 0.000000 0.057036 -0.003955 0.000000 0.055649 0.021942 0.000000 0.052791 0.043684 0.000000 0.046548 0.063486 0.000000 0.038287 0.076697 0.000000 0.029922 0.086711 0.000000 0.020346 0.090983 0.000000 0.012339 0.091985 0.000000 0.004084 0.089266 0.000000 -0.002216 0.083841 0.000000 -0.008014 0.076652 0.000000 -0.012113 0.067622 0.000000 -0.015235 0.058294 0.000000 -0.017141 0.048048 0.000000 -0.017841 0.038442 0.000000 -0.017813 0.028751 0.000000 -0.016542 0.020227 0.000000 -0.014954 0.012296 0.000000 -0.012232 0.005788 0.000000 -0.009515 0.000373 0.000000 -0.005869 -0.003531 0.000000 -0.002482 -0.006015 0.000000 
0.001619 -0.011076 0.000000 0.005805 -0.010440 0.000000 0.010435 -0.008291 0.000000 0.014395 -0.004394 0.000000 0.018539 0.000852 0.000000 0.021834 0.007748 0.000000 0.025073 0.015721 0.000000 0.027252 0.025128 0.000000 0.029152 0.035166 0.000000 0.029751 0.046307 0.000000 0.029834 0.057372 0.000000 0.028362 0.069060 0.000000 0.026076 0.079596 0.000000 0.022044 0.090012 0.000000 0.016816 0.097677 0.000000 0.009936 0.103968 0.000000 0.001603 0.105249 0.000000 -0.007391 0.103229 0.000000 -0.017289 0.093628 0.000000 -0.024941 0.079020 0.000000 -0.031537 0.055890 0.000000 -0.031553 0.028860 0.000000 -0.029071 -0.003054 0.000000 -0.019729 -0.037407 0.000000 -0.003523 -0.067925 0.000000 0.021300 -0.100909 0.000000 0.039429 -0.128957 0.000000 0.043149 -0.144064 0.000000 0.035141 -0.140341 0.000000 0.017111 -0.134644 0.000000 0.006519 -0.142012 0.000000 0.009632 -0.151060 0.000000 0.015337 -0.157179 0.000000 0.025212 -0.151825 0.000000 0.028345 -0.136677 0.000000 0.026750 -0.123325 0.000000 0.009946 -0.113628 0.000000 -0.006798 -0.115273 0.000000 -0.008709 -0.101388 0.000000 -0.000371 -0.082230 0.000000 0.023372 -0.056306 0.000000 0.037822 -0.029323 0.000000 0.046802 -0.003111 0.000000 0.048153 0.026763 0.000000 0.046687 0.050135 0.000000 0.040309 0.072733 0.000000 0.031493 0.086508 0.000000 0.022398 0.096841 0.000000 0.012016 0.100645 0.000000 0.003721 0.100587 0.000000 -0.004814 0.096858 0.000000 -0.010831 0.089926 0.000000 -0.016324 0.081560 0.000000 -0.019786 0.071043 0.000000 -0.022239 0.060592 0.000000 -0.023387 0.049073 0.000000 -0.023282 0.038497 0.000000 -0.022509 0.027806 0.000000 -0.020440 0.018511 0.000000 -0.018169 0.009858 0.000000 -0.014711 0.002795 0.000000 -0.011371 -0.003075 0.000000 -0.007054 -0.007305 0.000000 -0.003076 -0.009994 0.000000 
0.001553 -0.015880 0.000000 0.006240 -0.015210 0.000000 0.011433 -0.012967 0.000000 0.015939 -0.008841 0.000000 0.020711 -0.003291 0.000000 0.024637 0.004030 0.000000 0.028624 0.012527 0.000000 0.031544 0.022567 0.000000 0.034349 0.033372 0.000000 0.035796 0.045383 0.000000 0.036927 0.057491 0.000000 0.036350 0.070348 0.000000 0.035141 0.082232 0.000000 0.031885 0.094156 0.000000 0.027490 0.103388 0.000000 0.020968 0.111326 0.000000 0.012877 0.113790 0.000000 0.003602 0.112517 0.000000 -0.006401 0.101982 0.000000 -0.013996 0.084848 0.000000 -0.018903 0.056722 0.000000 -0.015056 0.022673 0.000000 -0.009852 -0.015209 0.000000 0.006627 -0.059796 0.000000 0.017160 -0.104572 0.000000 0.023624 -0.129516 0.000000 0.040670 -0.120031 0.000000 0.076954 -0.100652 0.000000 0.116247 -0.085780 0.000000 0.127895 -0.098691 0.000000 0.113252 -0.146954 0.000000 0.076154 -0.186727 0.000000 0.021912 -0.204214 0.000000 -0.031077 -0.193311 0.000000 -0.075876 -0.155733 0.000000 -0.094022 -0.104360 0.000000 -0.086892 -0.059487 0.000000 -0.048145 -0.062669 0.000000 -0.007794 -0.079860 0.000000 0.006376 -0.099845 0.000000 0.016473 -0.090971 0.000000 0.019502 -0.052455 0.000000 0.032939 -0.014286 0.000000 0.038206 0.022058 0.000000 0.038900 0.051529 0.000000 0.034031 0.078680 0.000000 0.023915 0.094607 0.000000 0.014993 0.106188 0.000000 0.003349 0.109660 0.000000 -0.004921 0.108815 0.000000 -0.013794 0.103819 0.000000 -0.019456 0.095351 0.000000 -0.024528 0.085607 0.000000 -0.027344 0.073537 0.000000 -0.028997 0.061895 0.000000 -0.029401 0.049090 0.000000 -0.028413 0.037564 0.000000 -0.026935 0.025909 0.000000 -0.024049 0.015887 0.000000 -0.021157 0.006568 0.000000 -0.016994 -0.001010 0.000000 -0.013109 -0.007284 0.000000 -0.008181 -0.011826 0.000000 -0.003701 -0.014689 0.000000 
0.001581 -0.021017 0.000000 0.006659 -0.020321 0.000000 0.012281 -0.017990 0.000000 0.017241 -0.013672 0.000000 0.022508 -0.007845 0.000000 0.027000 -0.000165 0.000000 0.031613 0.008813 0.000000 0.035247 0.019403 0.000000 0.038847 0.030914 0.000000 0.041143 0.043728 0.000000 0.043222 0.056817 0.000000 0.043526 0.070846 0.000000 0.043270 0.084062 0.000000 0.040669 0.097664 0.000000 0.036898 0.108594 0.000000 0.030377 0.118581 0.000000 0.022074 0.122615 0.000000 0.011877 0.122508 0.000000 0.000811 0.111225 0.000000 -0.006750 0.091522 0.000000 -0.009945 0.056950 0.000000 0.002691 0.019809 0.000000 0.017985 -0.024737 0.000000 0.040414 -0.064420 0.000000 0.083840 -0.084922 0.000000 0.155364 -0.124419 0.000000 0.186054 -0.182287 0.000000 0.172951 -0.219640 0.000000 0.157039 -0.191281 0.000000 0.138246 -0.131649 0.000000 0.112212 -0.090271 0.000000 0.066820 -0.059720 0.000000 0.013783 -0.049947 0.000000 -0.040276 -0.054037 0.000000 -0.086700 -0.073733 0.000000 -0.117042 -0.112309 0.000000 -0.130264 -0.159505 0.000000 -0.128799 -0.194372 0.000000 -0.136027 -0.155910 0.000000 -0.120999 -0.106496 0.000000 -0.056016 -0.069432 0.000000 -0.009012 -0.045789 0.000000 0.012550 -0.021816 0.000000 0.023915 0.020802 0.000000 0.031729 0.054310 0.000000 0.029113 0.087718 0.000000 0.019769 0.105546 0.000000 0.010539 0.117407 0.000000 -0.002381 0.120559 0.000000 -0.011184 0.117730 0.000000 -0.020905 0.111393 0.000000 -0.026486 0.100659 0.000000 -0.031485 0.089448 0.000000 -0.033748 0.075513 0.000000 -0.034755 0.062649 0.000000 -0.034463 0.048489 0.000000 -0.032663 0.036031 0.000000 -0.030544 0.023442 0.000000 -0.026909 0.012733 0.000000 -0.023489 0.002802 0.000000 -0.018710 -0.005253 0.000000 -0.014391 -0.011888 0.000000 -0.008967 -0.016713 0.000000 -0.004102 -0.019728 0.000000 
0.001509 -0.026641 0.000000 0.006821 -0.025910 0.000000 0.012723 -0.023548 0.000000 0.017973 -0.019067 0.000000 0.023597 -0.013050 0.000000 0.028485 -0.005075 0.000000 0.033602 0.004281 0.000000 0.037766 0.015332 0.000000 0.042069 0.027475 0.000000 0.045003 0.041009 0.000000 0.047961 0.055108 0.000000 0.048902 0.070299 0.000000 0.049554 0.085090 0.000000 0.047411 0.100529 0.000000 0.044305 0.113679 0.000000 0.037935 0.126149 0.000000 0.029878 0.132290 0.000000 0.019613 0.133780 0.000000 0.009576 0.120609 0.000000 0.003966 0.095603 0.000000 0.011905 0.047281 0.000000 0.040217 -0.005257 0.000000 0.083734 -0.052932 0.000000 0.167605 -0.125651 0.000000 0.199583 -0.219522 0.000000 0.179888 -0.231730 0.000000 0.095177 -0.137619 0.000000 -0.020048 -0.071637 0.000000 -0.086105 -0.051074 0.000000 -0.121656 -0.053864 0.000000 -0.113741 -0.075528 0.000000 -0.079672 -0.088298 0.000000 -0.021282 -0.097119 0.000000 0.039211 -0.092828 0.000000 0.085928 -0.078966 0.000000 0.110023 -0.060795 0.000000 0.093921 -0.047731 0.000000 0.050042 -0.056906 0.000000 -0.025979 -0.087659 0.000000 -0.105225 -0.179856 0.000000 -0.138531 -0.202959 0.000000 -0.128768 -0.121021 0.000000 -0.061006 -0.047213 0.000000 -0.010804 0.002879 0.000000 0.011248 0.046331 0.000000 0.019400 0.090640 0.000000 0.011320 0.113181 0.000000 0.005340 0.128338 0.000000 -0.008312 0.131382 0.000000 -0.016934 0.127339 0.000000 -0.027040 0.119120 0.000000 -0.032656 0.105931 0.000000 -0.037310 0.092869 0.000000 -0.039231 0.076807 0.000000 -0.039467 0.062610 0.000000 -0.038646 0.046998 0.000000 -0.036013 0.033646 0.000000 -0.033394 0.020155 0.000000 -0.029063 0.008833 0.000000 -0.025251 -0.001631 0.000000 -0.019958 -0.010108 0.000000 -0.015349 -0.017027 0.000000 -0.009558 -0.022115 0.000000 -0.004459 -0.025237 0.000000 