# vtk DataFile Version 2.0
Comment goes here
ASCII

DATASET STRUCTURED_POINTS
FIELD FieldData 1
TIME 1 1 double
1.14000000
DIMENSIONS    64   64   1

ORIGIN    0.000   0.000   0.000
SPACING   0.015625 0.015625   1.000

POINT_DATA   4096
SCALARS uMag double
LOOKUP_TABLE default

1.597934e-03 9.048447e-04 1.863988e-04 1.025413e-03 2.519977e-03 4.854242e-03 7.702315e-03 1.166380e-02 1.632047e-02 2.225041e-02 2.897474e-02 3.697227e-02 4.573813e-02 5.556835e-02 6.596609e-02 7.696884e-02 8.812197e-02 9.915631e-02 1.096999e-01 1.191795e-01 1.273593e-01 1.334307e-01 1.373596e-01 1.382279e-01 1.362683e-01 1.305947e-01 1.217673e-01 1.090382e-01 9.336813e-02 7.422014e-02 5.298702e-02 2.941602e-02 5.207630e-03 1.962482e-02 4.337617e-02 6.590049e-02 8.587651e-02 1.031346e-01 1.169936e-01 1.272900e-01 1.340439e-01 1.370949e-01 1.370845e-01 1.338372e-01 1.283929e-01 1.205800e-01 1.115535e-01 1.011747e-01 9.047715e-02 7.937055e-02 6.862843e-02 5.821138e-02 4.859186e-02 3.977152e-02 3.195206e-02 2.515506e-02 1.938182e-02 1.464265e-02 1.082321e-02 7.885815e-03 5.682347e-03 4.091826e-03 3.001028e-03 2.179118e-03 
1.898002e-03 1.339803e-03 1.073893e-03 1.522315e-03 2.877122e-03 5.141496e-03 8.012593e-03 1.198000e-02 1.667270e-02 2.261483e-02 2.936242e-02 3.735938e-02 4.612465e-02 5.593457e-02 6.630338e-02 7.726868e-02 8.836979e-02 9.936564e-02 1.098568e-01 1.193324e-01 1.275074e-01 1.336677e-01 1.377135e-01 1.388366e-01 1.371946e-01 1.319976e-01 1.237226e-01 1.116854e-01 9.679130e-02 7.863478e-02 5.890549e-02 3.870092e-02 2.516429e-02 3.132557e-02 4.976234e-02 7.025276e-02 8.908158e-02 1.055379e-01 1.187089e-01 1.284803e-01 1.347842e-01 1.375503e-01 1.373123e-01 1.339855e-01 1.284774e-01 1.207108e-01 1.117113e-01 1.014263e-01 9.078763e-02 7.976902e-02 6.908157e-02 5.872003e-02 4.913279e-02 4.032735e-02 3.251187e-02 2.569132e-02 1.989512e-02 1.510167e-02 1.123950e-02 8.231936e-03 5.983882e-03 4.338251e-03 3.237242e-03 2.418077e-03 
1.994427e-03 1.705401e-03 1.911625e-03 2.669736e-03 4.175154e-03 6.504183e-03 9.513923e-03 1.357262e-02 1.836270e-02 2.436202e-02 3.111902e-02 3.908987e-02 4.774531e-02 5.740729e-02 6.752789e-02 7.819768e-02 8.891071e-02 9.946194e-02 1.094531e-01 1.183760e-01 1.260131e-01 1.316199e-01 1.352327e-01 1.360067e-01 1.342888e-01 1.292979e-01 1.217478e-01 1.110639e-01 9.849348e-02 8.392370e-02 6.954677e-02 5.696924e-02 5.052905e-02 5.321318e-02 6.343406e-02 7.766478e-02 9.226689e-02 1.060051e-01 1.175092e-01 1.263464e-01 1.322723e-01 1.349659e-01 1.349826e-01 1.319731e-01 1.269685e-01 1.196502e-01 1.111719e-01 1.013161e-01 9.109127e-02 8.040241e-02 6.997129e-02 5.980751e-02 5.031683e-02 4.157498e-02 3.371934e-02 2.684337e-02 2.090445e-02 1.596366e-02 1.189809e-02 8.696108e-03 6.244794e-03 4.439712e-03 3.236476e-03 2.411084e-03 
2.409641e-03 2.332235e-03 2.820842e-03 3.747483e-03 5.482874e-03 7.961387e-03 1.122504e-02 1.545643e-02 2.045609e-02 2.657807e-02 3.342732e-02 4.140306e-02 4.997794e-02 5.947475e-02 6.930676e-02 7.961567e-02 8.983387e-02 9.985492e-02 1.092172e-01 1.175580e-01 1.246188e-01 1.298434e-01 1.332688e-01 1.342673e-01 1.332192e-01 1.295488e-01 1.239618e-01 1.159733e-01 1.067015e-01 9.595229e-02 8.576514e-02 7.728664e-02 7.313516e-02 7.462044e-02 8.095289e-02 9.075764e-02 1.012061e-01 1.114607e-01 1.200559e-01 1.267932e-01 1.312753e-01 1.332035e-01 1.329470e-01 1.300819e-01 1.254575e-01 1.187150e-01 1.108321e-01 1.016244e-01 9.193829e-02 8.176390e-02 7.168713e-02 6.181961e-02 5.246700e-02 4.379454e-02 3.588206e-02 2.888085e-02 2.273817e-02 1.753353e-02 1.318237e-02 9.658045e-03 6.929378e-03 4.864812e-03 3.533810e-03 2.682145e-03 
2.362899e-03 2.549408e-03 3.398753e-03 4.690213e-03 6.847809e-03 9.704141e-03 1.339887e-02 1.799604e-02 2.335152e-02 2.974750e-02 3.677887e-02 4.484305e-02 5.334027e-02 6.265191e-02 7.208464e-02 8.187148e-02 9.135228e-02 1.005100e-01 1.088617e-01 1.161013e-01 1.220673e-01 1.262146e-01 1.288076e-01 1.292146e-01 1.281339e-01 1.250752e-01 1.211090e-01 1.159979e-01 1.113044e-01 1.066753e-01 1.034025e-01 1.010183e-01 9.994752e-02 1.001979e-01 1.015102e-01 1.045631e-01 1.084315e-01 1.135647e-01 1.186693e-01 1.233406e-01 1.268251e-01 1.284680e-01 1.286166e-01 1.263708e-01 1.227529e-01 1.169703e-01 1.101576e-01 1.018715e-01 9.301794e-02 8.351714e-02 7.392042e-02 6.440514e-02 5.518518e-02 4.655738e-02 3.849776e-02 3.129498e-02 2.481879e-02 1.925361e-02 1.448461e-02 1.054438e-02 7.418436e-03 5.003156e-03 3.430914e-03 2.501276e-03 
2.429475e-03 2.905719e-03 4.087889e-03 5.648702e-03 8.198781e-03 1.139339e-02 1.555129e-02 2.052810e-02 2.631303e-02 3.302527e-02 4.032468e-02 4.852085e-02 5.700101e-02 6.614304e-02 7.516969e-02 8.439596e-02 9.303237e-02 1.012299e-01 1.083774e-01 1.144232e-01 1.191462e-01 1.223340e-01 1.243250e-01 1.248719e-01 1.248436e-01 1.240814e-01 1.235631e-01 1.228488e-01 1.225924e-01 1.215433e-01 1.207603e-01 1.198020e-01 1.192796e-01 1.193229e-01 1.194998e-01 1.204973e-01 1.209545e-01 1.218473e-01 1.223283e-01 1.232081e-01 1.240173e-01 1.242806e-01 1.241101e-01 1.223206e-01 1.196340e-01 1.150732e-01 1.094664e-01 1.024099e-01 9.451865e-02 8.589092e-02 7.683363e-02 6.773860e-02 5.864351e-02 5.002727e-02 4.177000e-02 3.427489e-02 2.739837e-02 2.136303e-02 1.611283e-02 1.165274e-02 8.075912e-03 5.214220e-03 3.357663e-03 2.328039e-03 
1.940882e-03 2.824968e-03 4.371818e-03 6.305851e-03 9.344864e-03 1.303196e-02 1.778275e-02 2.331597e-02 2.967789e-02 3.689291e-02 4.460735e-02 5.310722e-02 6.168836e-02 7.077797e-02 7.945262e-02 8.812818e-02 9.587209e-02 1.029519e-01 1.087051e-01 1.131717e-01 1.162671e-01 1.178021e-01 1.184797e-01 1.179840e-01 1.176361e-01 1.172951e-01 1.182363e-01 1.206049e-01 1.260969e-01 1.328573e-01 1.403085e-01 1.459422e-01 1.485218e-01 1.474328e-01 1.425843e-01 1.360617e-01 1.284590e-01 1.229851e-01 1.194146e-01 1.180721e-01 1.177131e-01 1.176894e-01 1.182416e-01 1.174303e-01 1.163339e-01 1.132549e-01 1.092264e-01 1.034957e-01 9.671280e-02 8.894019e-02 8.041200e-02 7.165353e-02 6.258724e-02 5.387480e-02 4.529569e-02 3.740670e-02 3.001657e-02 2.343399e-02 1.761906e-02 1.258847e-02 8.494745e-03 5.117534e-03 2.807144e-03 1.505880e-03 
1.989154e-03 3.309862e-03 5.106270e-03 7.270009e-03 1.070123e-02 1.475966e-02 2.006756e-02 2.608472e-02 3.303646e-02 4.072692e-02 4.890593e-02 5.772125e-02 6.646815e-02 7.553962e-02 8.389597e-02 9.203690e-02 9.880894e-02 1.046978e-01 1.087691e-01 1.114384e-01 1.124351e-01 1.121204e-01 1.113285e-01 1.104300e-01 1.112059e-01 1.141086e-01 1.201929e-01 1.288176e-01 1.390743e-01 1.474282e-01 1.545576e-01 1.592954e-01 1.615365e-01 1.608592e-01 1.569621e-01 1.515195e-01 1.430287e-01 1.339446e-01 1.241615e-01 1.168365e-01 1.122480e-01 1.103007e-01 1.108505e-01 1.112732e-01 1.120229e-01 1.110945e-01 1.089169e-01 1.049715e-01 9.939520e-02 9.267047e-02 8.464926e-02 7.624524e-02 6.713813e-02 5.826137e-02 4.928727e-02 4.090771e-02 3.294589e-02 2.572167e-02 1.930271e-02 1.362314e-02 8.989293e-03 5.035167e-03 2.208651e-03 6.143770e-04 
2.619317e-03 3.964884e-03 5.693847e-03 7.993285e-03 1.177662e-02 1.628115e-02 2.222373e-02 2.887447e-02 3.654791e-02 4.491119e-02 5.372558e-02 6.308671e-02 7.219946e-02 8.148897e-02 8.973887e-02 9.753421e-02 1.035193e-01 1.082702e-01 1.107382e-01 1.113968e-01 1.101321e-01 1.073037e-01 1.043920e-01 1.014951e-01 1.011433e-01 1.031160e-01 1.076276e-01 1.164793e-01 1.335527e-01 1.540236e-01 1.741555e-01 1.893002e-01 1.963076e-01 1.938341e-01 1.823005e-01 1.650054e-01 1.439857e-01 1.269245e-01 1.150347e-01 1.080491e-01 1.029964e-01 1.010551e-01 1.031467e-01 1.052738e-01 1.086295e-01 1.099576e-01 1.099193e-01 1.076278e-01 1.032520e-01 9.734489e-02 8.969124e-02 8.141962e-02 7.210734e-02 6.289904e-02 5.339660e-02 4.442306e-02 3.580914e-02 2.790070e-02 2.085947e-02 1.455544e-02 9.448293e-03 5.086297e-03 2.092046e-03 1.404239e-03 
4.564163e-03 5.827982e-03 7.329588e-03 9.543388e-03 1.345607e-02 1.819015e-02 2.465857e-02 3.179192e-02 4.015309e-02 4.909539e-02 5.856782e-02 6.844786e-02 7.799990e-02 8.755825e-02 9.579010e-02 1.033350e-01 1.085041e-01 1.120946e-01 1.124926e-01 1.106151e-01 1.056965e-01 9.894807e-02 9.188460e-02 8.625460e-02 8.611398e-02 9.298366e-02 1.066705e-01 1.254470e-01 1.469192e-01 1.635950e-01 1.773462e-01 1.878027e-01 1.934656e-01 1.921496e-01 1.846986e-01 1.746139e-01 1.589099e-01 1.411047e-01 1.201558e-01 1.014642e-01 8.868347e-02 8.483129e-02 8.892715e-02 9.513839e-02 1.026804e-01 1.081093e-01 1.108587e-01 1.109931e-01 1.078849e-01 1.029797e-01 9.556240e-02 8.737140e-02 7.770829e-02 6.805114e-02 5.791955e-02 4.823831e-02 3.892137e-02 3.024505e-02 2.257567e-02 1.562414e-02 1.012601e-02 5.611207e-03 3.233155e-03 3.582319e-03 
7.359961e-03 8.312929e-03 9.275584e-03 1.113005e-02 1.492122e-02 1.981949e-02 2.679797e-02 3.451832e-02 4.367029e-02 5.339763e-02 6.370857e-02 7.439036e-02 8.462865e-02 9.477440e-02 1.032763e-01 1.108200e-01 1.154167e-01 1.178121e-01 1.161209e-01 1.110396e-01 1.018142e-01 8.959856e-02 7.761073e-02 6.864223e-02 7.044005e-02 7.816093e-02 8.142787e-02 9.027392e-02 1.227606e-01 1.635174e-01 1.982066e-01 2.235565e-01 2.351944e-01 2.312876e-01 2.140271e-01 1.844775e-01 1.450425e-01 1.143800e-01 9.795242e-02 8.812346e-02 7.299617e-02 6.486243e-02 7.138509e-02 8.216733e-02 9.585246e-02 1.061697e-01 1.126574e-01 1.152764e-01 1.136414e-01 1.094842e-01 1.021873e-01 9.380445e-02 8.361399e-02 7.332206e-02 6.243694e-02 5.196216e-02 4.190518e-02 3.247402e-02 2.425605e-02 1.683054e-02 1.128391e-02 7.288765e-03 5.961843e-03 6.681751e-03 
1.085398e-02 1.178030e-02 1.241451e-02 1.393245e-02 1.741020e-02 2.220035e-02 2.950001e-02 3.757450e-02 4.744084e-02 5.778758e-02 6.894317e-02 8.034265e-02 9.134587e-02 1.020995e-01 1.109706e-01 1.185960e-01 1.225158e-01 1.235832e-01 1.188553e-01 1.093596e-01 9.250346e-02 7.060157e-02 4.683204e-02 3.923303e-02 6.193753e-02 1.030091e-01 1.373234e-01 1.459021e-01 1.538883e-01 1.611490e-01 1.661762e-01 1.740586e-01 1.805835e-01 1.797134e-01 1.762488e-01 1.744257e-01 1.702834e-01 1.699991e-01 1.552752e-01 1.143670e-01 6.573960e-02 3.673570e-02 3.504958e-02 5.819052e-02 8.237215e-02 1.017519e-01 1.134203e-01 1.200109e-01 1.201257e-01 1.170633e-01 1.097503e-01 1.011009e-01 9.019220e-02 7.909381e-02 6.733318e-02 5.592045e-02 4.508616e-02 3.483025e-02 2.611314e-02 1.829263e-02 1.290427e-02 9.664302e-03 9.095971e-03 1.021357e-02 
1.527099e-02 1.598910e-02 1.606569e-02 1.698104e-02 1.978355e-02 2.423552e-02 3.168747e-02 4.013776e-02 5.076092e-02 6.193658e-02 7.410501e-02 8.656325e-02 9.857237e-02 1.102911e-01 1.197275e-01 1.275027e-01 1.306178e-01 1.295510e-01 1.208312e-01 1.044479e-01 7.726307e-02 3.991531e-02 1.435575e-02 6.862258e-02 1.205155e-01 1.549438e-01 1.573578e-01 1.855172e-01 2.417963e-01 2.698632e-01 2.589230e-01 2.315797e-01 2.113900e-01 2.223834e-01 2.587403e-01 2.765993e-01 2.594111e-01 2.110223e-01 1.699779e-01 1.580079e-01 1.274497e-01 8.337518e-02 2.695105e-02 2.207569e-02 6.133515e-02 9.221975e-02 1.119013e-01 1.234730e-01 1.264829e-01 1.246839e-01 1.175526e-01 1.085102e-01 9.677562e-02 8.473950e-02 7.200291e-02 5.961479e-02 4.801989e-02 3.704092e-02 2.803486e-02 2.019253e-02 1.546946e-02 1.332218e-02 1.342111e-02 1.477137e-02 
2.017460e-02 2.090605e-02 2.064872e-02 2.117397e-02 2.333262e-02 2.725859e-02 3.464371e-02 4.316429e-02 5.443080e-02 6.617437e-02 7.934156e-02 9.264444e-02 1.056882e-01 1.181763e-01 1.280924e-01 1.357249e-01 1.374660e-01 1.337067e-01 1.196687e-01 9.626402e-02 6.025969e-02 3.373240e-02 8.064123e-02 1.478718e-01 2.152811e-01 3.220263e-01 3.869329e-01 3.972841e-01 3.683722e-01 2.616243e-01 1.608829e-01 8.394563e-02 9.437405e-03 5.502603e-02 1.367420e-01 2.358725e-01 3.567457e-01 4.232181e-01 4.217527e-01 3.522716e-01 2.349809e-01 1.704006e-01 1.075614e-01 5.262932e-02 4.551173e-02 8.012774e-02 1.072559e-01 1.255621e-01 1.322466e-01 1.325865e-01 1.258208e-01 1.164669e-01 1.038135e-01 9.064874e-02 7.684533e-02 6.330414e-02 5.095296e-02 3.920557e-02 3.003896e-02 2.235115e-02 1.843365e-02 1.734320e-02 1.797693e-02 1.969402e-02 
2.602780e-02 2.661897e-02 2.580840e-02 2.567267e-02 2.676790e-02 2.979583e-02 3.672782e-02 4.520055e-02 5.703352e-02 6.954337e-02 8.382073e-02 9.838023e-02 1.125934e-01 1.262089e-01 1.364451e-01 1.436247e-01 1.432201e-01 1.354236e-01 1.165079e-01 9.050978e-02 7.673767e-02 1.119135e-01 2.029633e-01 3.227286e-01 4.161065e-01 3.852891e-01 1.874389e-01 4.955953e-02 1.254722e-01 1.788455e-01 1.634028e-01 1.132975e-01 7.534635e-02 9.448028e-02 1.392417e-01 1.787867e-01 1.312047e-01 5.320528e-02 1.877548e-01 3.967009e-01 4.263767e-01 3.474848e-01 2.304402e-01 1.393259e-01 8.264205e-02 7.432291e-02 1.004483e-01 1.237412e-01 1.355153e-01 1.387314e-01 1.330360e-01 1.236944e-01 1.101783e-01 9.594277e-02 8.100870e-02 6.637506e-02 5.334212e-02 4.105766e-02 3.208162e-02 2.508216e-02 2.238254e-02 2.246401e-02 2.362677e-02 2.563808e-02 
3.209698e-02 3.270058e-02 3.149383e-02 3.091779e-02 3.113164e-02 3.323765e-02 3.955997e-02 4.764185e-02 5.992211e-02 7.282170e-02 8.818537e-02 1.035321e-01 1.188051e-01 1.327702e-01 1.427738e-01 1.483261e-01 1.447266e-01 1.334677e-01 1.138000e-01 1.058340e-01 1.389943e-01 2.207160e-01 3.485863e-01 3.538399e-01 1.682998e-01 8.801651e-02 1.765389e-01 7.108159e-02 5.060294e-02 1.399398e-01 1.813966e-01 1.720627e-01 1.624328e-01 1.667857e-01 1.850874e-01 1.501383e-01 5.404204e-02 7.252044e-02 1.879676e-01 1.050405e-01 1.319181e-01 3.178554e-01 3.476002e-01 2.352982e-01 1.505557e-01 9.692618e-02 9.846920e-02 1.205178e-01 1.361362e-01 1.432196e-01 1.392918e-01 1.303961e-01 1.162973e-01 1.008406e-01 8.482874e-02 6.888186e-02 5.525873e-02 4.242626e-02 3.388047e-02 2.781695e-02 2.639731e-02 2.765704e-02 2.931517e-02 3.173769e-02 
3.897918e-02 3.949422e-02 3.769942e-02 3.644038e-02 3.529674e-02 3.599267e-02 4.101644e-02 4.836204e-02 6.080094e-02 7.425216e-02 9.069019e-02 1.073252e-01 1.235121e-01 1.382179e-01 1.472041e-01 1.508354e-01 1.436358e-01 1.305026e-01 1.197314e-01 1.402951e-01 1.949917e-01 2.873053e-01 2.432679e-01 1.412763e-02 1.302632e-01 1.750188e-02 2.397274e-01 3.794762e-01 3.531835e-01 2.908149e-01 2.105111e-01 1.320726e-01 6.855396e-02 9.607408e-02 1.651798e-01 2.581993e-01 3.176292e-01 3.644274e-01 2.288802e-01 1.731636e-02 1.101011e-01 4.665430e-02 1.928172e-01 2.644705e-01 1.949807e-01 1.297714e-01 1.063337e-01 1.167993e-01 1.329407e-01 1.438039e-01 1.423368e-01 1.349403e-01 1.205504e-01 1.043385e-01 8.723059e-02 7.018777e-02 5.608478e-02 4.310877e-02 3.548041e-02 3.100564e-02 3.115807e-02 3.369990e-02 3.588166e-02 3.869400e-02 
4.563573e-02 4.614181e-02 4.385889e-02 4.208041e-02 3.980289e-02 3.919267e-02 4.289317e-02 4.918539e-02 6.174760e-02 7.530965e-02 9.287838e-02 1.099893e-01 1.268565e-01 1.405761e-01 1.477090e-01 1.473178e-01 1.363082e-01 1.249270e-01 1.212701e-01 1.457830e-01 1.863941e-01 1.525083e-01 3.563524e-02 6.285269e-02 1.434295e-01 3.388486e-01 3.583393e-01 2.482634e-01 1.556945e-01 9.463891e-02 6.344218e-02 4.894619e-02 4.064258e-02 3.299813e-02 3.098627e-02 5.988518e-02 1.127508e-01 2.115935e-01 3.091851e-01 3.157691e-01 1.941077e-01 2.390518e-02 4.912417e-02 1.193381e-01 1.787563e-01 1.292308e-01 1.098924e-01 1.162826e-01 1.271867e-01 1.411449e-01 1.426305e-01 1.372328e-01 1.234944e-01 1.064050e-01 8.854524e-02 7.008040e-02 5.569979e-02 4.260141e-02 3.630722e-02 3.377624e-02 3.557573e-02 3.945491e-02 4.214231e-02 4.540713e-02 
5.276859e-02 5.324267e-02 5.033925e-02 4.790349e-02 4.402672e-02 4.160138e-02 4.290970e-02 4.745647e-02 5.953562e-02 7.332349e-02 9.187825e-02 1.101174e-01 1.271157e-01 1.407070e-01 1.446275e-01 1.415566e-01 1.277044e-01 1.152149e-01 1.095139e-01 1.027560e-01 8.545288e-02 1.528588e-02 7.786566e-03 1.654855e-01 2.596376e-01 2.370056e-01 1.888972e-01 1.363928e-01 9.888505e-02 7.626360e-02 8.629135e-02 1.029266e-01 1.083858e-01 9.635287e-02 6.991481e-02 4.975959e-02 7.602816e-02 1.247760e-01 1.554779e-01 1.857031e-01 2.325034e-01 1.874975e-01 3.419015e-02 9.514338e-03 9.035117e-02 9.542778e-02 8.163581e-02 1.089957e-01 1.175989e-01 1.336183e-01 1.377878e-01 1.360622e-01 1.232827e-01 1.063513e-01 8.769298e-02 6.816315e-02 5.352820e-02 4.090066e-02 3.656086e-02 3.674238e-02 4.035388e-02 4.567529e-02 4.888105e-02 5.261618e-02 
5.904562e-02 5.948305e-02 5.602192e-02 5.301909e-02 4.776293e-02 4.369675e-02 4.273545e-02 4.535040e-02 5.719927e-02 7.101729e-02 9.095566e-02 1.094359e-01 1.265476e-01 1.375211e-01 1.384954e-01 1.290855e-01 1.132503e-01 9.487240e-02 5.637194e-02 3.188532e-02 4.246809e-02 3.674439e-02 8.201645e-02 1.702810e-01 1.799761e-01 1.818468e-01 1.520173e-01 8.167566e-02 2.298785e-02 2.633095e-02 5.972603e-02 7.948295e-02 8.792134e-02 8.039726e-02 6.416161e-02 3.024312e-02 1.610400e-02 7.084507e-02 1.277379e-01 1.618663e-01 1.682440e-01 1.579953e-01 1.050678e-01 2.351002e-02 4.015779e-02 5.449195e-02 3.599442e-02 9.435519e-02 1.035450e-01 1.222620e-01 1.302845e-01 1.316776e-01 1.214753e-01 1.042664e-01 8.539838e-02 6.415793e-02 4.940375e-02 3.724222e-02 3.555624e-02 3.892603e-02 4.439294e-02 5.114640e-02 5.481745e-02 5.898869e-02 
6.527363e-02 6.575068e-02 6.170616e-02 5.819432e-02 5.125765e-02 4.526433e-02 4.065188e-02 4.016220e-02 5.083573e-02 6.486647e-02 8.623918e-02 1.058165e-01 1.223926e-01 1.329239e-01 1.288244e-01 1.200393e-01 1.012710e-01 9.008163e-02 6.764384e-02 5.727348e-02 8.767221e-02 2.363617e-02 6.274829e-02 1.457047e-01 1.621699e-01 1.498829e-01 1.248732e-01 8.392200e-02 3.722801e-02 2.152535e-02 5.807823e-02 8.424499e-02 9.558817e-02 8.745766e-02 6.730408e-02 3.658735e-02 4.055047e-02 7.903904e-02 1.103780e-01 1.335350e-01 1.538077e-01 1.456512e-01 9.469644e-02 1.950020e-02 3.315413e-02 9.121591e-02 3.964413e-02 1.085368e-01 9.585794e-02 1.099878e-01 1.193333e-01 1.257416e-01 1.171547e-01 1.008758e-01 8.133503e-02 5.850726e-02 4.310638e-02 3.203479e-02 3.378564e-02 4.110583e-02 4.835312e-02 5.657265e-02 6.066240e-02 6.530761e-02 
6.988840e-02 7.031245e-02 6.574002e-02 6.174946e-02 5.336310e-02 4.567986e-02 3.765356e-02 3.412022e-02 4.464366e-02 5.991654e-02 8.374103e-02 1.045707e-01 1.208000e-01 1.296719e-01 1.231175e-01 1.100755e-01 1.258024e-01 1.424108e-01 4.251812e-02 1.440442e-01 1.380527e-02 2.719683e-02 7.289846e-02 1.324208e-01 1.456646e-01 1.401055e-01 1.163093e-01 8.069885e-02 5.033773e-02 3.989705e-02 5.164389e-02 6.411521e-02 7.204945e-02 6.873291e-02 6.296260e-02 5.348125e-02 5.872964e-02 8.082649e-02 1.084765e-01 1.331446e-01 1.456114e-01 1.375707e-01 1.062154e-01 2.347770e-02 5.845319e-02 1.092971e-01 7.953229e-02 1.435421e-01 1.310471e-01 1.061705e-01 1.156996e-01 1.212563e-01 1.145649e-01 9.765890e-02 7.745477e-02 5.179767e-02 3.490461e-02 2.456001e-02 3.093210e-02 4.246951e-02 5.130910e-02 6.074902e-02 6.512241e-02 7.006465e-02 
7.382210e-02 7.437147e-02 6.941113e-02 6.526684e-02 5.552661e-02 4.647303e-02 3.391491e-02 2.553624e-02 3.491154e-02 5.207494e-02 7.927848e-02 1.014886e-01 1.182695e-01 1.274032e-01 1.193245e-01 1.209999e-01 1.882738e-01 7.863177e-02 1.781963e-01 3.086931e-02 1.233255e-01 4.099240e-02 8.301575e-02 1.293585e-01 1.389528e-01 1.334125e-01 1.148596e-01 8.860432e-02 6.019219e-02 4.048566e-02 4.145217e-02 5.130772e-02 5.927852e-02 5.691314e-02 5.337725e-02 5.186334e-02 6.518466e-02 8.839583e-02 1.101213e-01 1.290101e-01 1.388527e-01 1.365214e-01 1.045018e-01 5.200002e-02 1.118968e-01 5.405311e-02 1.778127e-01 2.636714e-02 1.999198e-01 1.417792e-01 1.161103e-01 1.232917e-01 1.143555e-01 9.678862e-02 7.536771e-02 4.634529e-02 2.610201e-02 1.608276e-02 2.815150e-02 4.389565e-02 5.384354e-02 6.433268e-02 6.884962e-02 7.410796e-02 
7.540474e-02 7.591697e-02 7.066871e-02 6.639473e-02 5.565546e-02 4.562957e-02 2.913873e-02 1.600206e-02 2.769853e-02 4.992317e-02 8.112283e-02 1.069935e-01 1.227885e-01 1.404926e-01 1.150975e-01 1.717262e-01 1.957204e-01 1.250101e-01 1.217378e-01 1.794206e-01 8.333469e-02 6.319337e-02 9.306156e-02 1.296872e-01 1.329649e-01 1.290060e-01 1.100451e-01 8.780433e-02 6.316633e-02 4.385444e-02 3.368080e-02 3.257535e-02 3.738355e-02 3.863427e-02 4.423198e-02 5.230432e-02 6.768688e-02 8.829091e-02 1.078514e-01 1.261333e-01 1.344481e-01 1.329093e-01 1.096510e-01 7.274170e-02 7.335620e-02 1.920269e-01 5.097465e-02 1.772430e-01 1.463894e-01 2.132972e-01 1.181316e-01 1.347326e-01 1.179339e-01 1.001524e-01 7.681722e-02 4.478980e-02 2.018790e-02 8.600703e-03 2.651647e-02 4.496566e-02 5.537730e-02 6.625116e-02 7.065465e-02 7.587658e-02 
7.571540e-02 7.643860e-02 7.125606e-02 6.743833e-02 5.643347e-02 4.659864e-02 2.737713e-02 9.311879e-03 2.150063e-02 4.735582e-02 8.264030e-02 1.090416e-01 1.275685e-01 1.476521e-01 1.165415e-01 2.262430e-01 7.419536e-02 2.203438e-01 9.777315e-02 2.138940e-01 4.904431e-02 5.889913e-02 9.837744e-02 1.224629e-01 1.264544e-01 1.211638e-01 1.043113e-01 8.504634e-02 6.138793e-02 4.100135e-02 2.486841e-02 1.873813e-02 2.266812e-02 2.586872e-02 3.436865e-02 4.689544e-02 6.377673e-02 8.468036e-02 1.022134e-01 1.192850e-01 1.270947e-01 1.276466e-01 1.115461e-01 7.402498e-02 6.284981e-02 1.819227e-01 1.845593e-01 1.770507e-01 3.892891e-02 2.377687e-01 1.407095e-01 1.402205e-01 1.292991e-01 1.053159e-01 8.341773e-02 4.847689e-02 2.364230e-02 1.264230e-02 2.781135e-02 4.643205e-02 5.642261e-02 6.715582e-02 7.119313e-02 7.631685e-02 
7.316053e-02 7.391220e-02 6.903130e-02 6.578842e-02 5.528025e-02 4.631989e-02 2.722725e-02 1.268900e-02 2.540201e-02 5.152365e-02 9.137311e-02 1.159407e-01 1.472213e-01 1.548565e-01 1.594793e-01 2.149083e-01 1.359095e-01 1.391695e-01 2.786611e-01 1.683907e-01 5.656857e-02 6.040108e-02 1.036598e-01 1.207576e-01 1.202204e-01 1.144766e-01 9.679490e-02 7.999668e-02 5.805288e-02 4.024442e-02 2.206739e-02 9.053556e-03 7.565191e-03 1.644859e-02 2.866728e-02 4.350903e-02 5.902968e-02 7.846790e-02 9.395421e-02 1.110646e-01 1.179831e-01 1.220848e-01 1.076767e-01 7.922730e-02 5.941957e-02 1.047535e-01 2.915406e-01 6.934123e-02 1.810882e-01 1.991017e-01 1.847592e-01 1.288796e-01 1.453282e-01 1.090895e-01 9.248599e-02 5.530805e-02 3.392304e-02 2.343443e-02 3.267996e-02 4.813170e-02 5.675223e-02 6.621601e-02 6.948635e-02 7.398437e-02 
6.895198e-02 6.998150e-02 6.596064e-02 6.401558e-02 5.537913e-02 4.868730e-02 3.333831e-02 2.393630e-02 3.115930e-02 5.139321e-02 9.290221e-02 1.106696e-01 1.557487e-01 1.333539e-01 1.901968e-01 1.197848e-01 2.293432e-01 1.343542e-01 3.220214e-01 7.825326e-02 2.998738e-02 7.780624e-02 9.878784e-02 1.171602e-01 1.102642e-01 1.051352e-01 8.714703e-02 7.280285e-02 5.252928e-02 3.736262e-02 2.051839e-02 9.927255e-03 5.164919e-03 1.447439e-02 2.451736e-02 3.876050e-02 5.212389e-02 7.053460e-02 8.389858e-02 1.014924e-01 1.073676e-01 1.167186e-01 1.004026e-01 8.834017e-02 2.516248e-02 3.861659e-02 2.735742e-01 1.935366e-01 2.321136e-01 8.202881e-02 1.918077e-01 1.138781e-01 1.549212e-01 1.115005e-01 1.001694e-01 6.245474e-02 4.572337e-02 3.457131e-02 3.995941e-02 5.045053e-02 5.687217e-02 6.420846e-02 6.631261e-02 6.996516e-02 
6.178069e-02 6.298234e-02 6.034030e-02 6.004344e-02 5.467764e-02 5.091302e-02 4.191818e-02 3.609631e-02 4.230469e-02 5.379960e-02 9.243269e-02 1.037193e-01 1.518362e-01 1.183677e-01 1.808070e-01 8.649521e-02 2.078854e-01 2.573150e-01 2.680268e-01 6.020965e-02 4.613088e-02 1.071581e-01 1.064812e-01 1.204086e-01 1.061735e-01 9.968611e-02 8.029959e-02 6.729980e-02 4.863396e-02 3.640985e-02 2.244751e-02 1.575794e-02 1.156498e-02 1.682218e-02 2.328637e-02 3.533196e-02 4.601533e-02 6.259990e-02 7.454823e-02 9.219512e-02 9.913517e-02 1.117768e-01 1.007586e-01 9.674093e-02 4.145829e-02 1.512891e-02 2.148861e-01 3.031903e-01 1.334632e-01 9.590221e-02 1.513034e-01 1.205166e-01 1.487289e-01 1.123682e-01 1.000969e-01 6.701140e-02 5.495104e-02 4.470777e-02 4.803095e-02 5.301528e-02 5.658059e-02 6.056490e-02 6.094759e-02 6.309165e-02 
5.291622e-02 5.447114e-02 5.388160e-02 5.589234e-02 5.501415e-02 5.464320e-02 5.194292e-02 4.769507e-02 5.138918e-02 5.230393e-02 8.058360e-02 8.606428e-02 1.244872e-01 1.089578e-01 1.426504e-01 1.108749e-01 1.368718e-01 2.679215e-01 2.464383e-01 1.130491e-01 1.155814e-01 1.297412e-01 1.213678e-01 1.222912e-01 1.046768e-01 9.388322e-02 7.450239e-02 6.118235e-02 4.445282e-02 3.374661e-02 2.248013e-02 1.764280e-02 1.420779e-02 1.732334e-02 2.118179e-02 3.099658e-02 4.005179e-02 5.520653e-02 6.746628e-02 8.534117e-02 9.670832e-02 1.121379e-01 1.146870e-01 1.153398e-01 1.013185e-01 6.497196e-02 1.719051e-01 2.953815e-01 5.453413e-02 1.380992e-01 8.674340e-02 1.382739e-01 1.266784e-01 1.061733e-01 9.146508e-02 6.786027e-02 6.147567e-02 5.393006e-02 5.596787e-02 5.627601e-02 5.650325e-02 5.648758e-02 5.450551e-02 5.466357e-02 
4.153327e-02 4.365754e-02 4.618197e-02 5.118671e-02 5.593391e-02 5.914269e-02 6.295243e-02 6.064528e-02 6.512064e-02 5.852288e-02 7.529533e-02 7.331881e-02 1.029146e-01 1.066959e-01 1.116693e-01 1.113636e-01 8.504749e-02 2.265199e-01 2.286194e-01 1.426514e-01 1.638636e-01 1.512529e-01 1.432703e-01 1.284530e-01 1.097674e-01 9.206151e-02 7.296852e-02 5.743017e-02 4.228691e-02 3.168989e-02 2.225358e-02 1.773717e-02 1.443193e-02 1.620311e-02 1.877209e-02 2.678721e-02 3.540682e-02 4.915749e-02 6.330989e-02 8.104396e-02 9.876068e-02 1.160183e-01 1.333609e-01 1.388924e-01 1.535048e-01 1.301412e-01 1.861491e-01 2.530519e-01 7.895554e-02 1.363795e-01 8.471266e-02 1.352247e-01 8.472157e-02 8.310720e-02 7.177684e-02 6.333721e-02 6.461093e-02 6.113027e-02 6.244065e-02 5.908445e-02 5.597725e-02 5.150134e-02 4.652559e-02 4.389980e-02 
2.884957e-02 3.176375e-02 3.822402e-02 4.639872e-02 5.622212e-02 6.216178e-02 7.047650e-02 6.923206e-02 7.384424e-02 6.168256e-02 6.601755e-02 5.179255e-02 6.693411e-02 9.004732e-02 8.782002e-02 1.209028e-01 5.897873e-02 1.734592e-01 2.243501e-01 1.770610e-01 2.042047e-01 1.736052e-01 1.660229e-01 1.367467e-01 1.181127e-01 9.261363e-02 7.430476e-02 5.519015e-02 4.142503e-02 2.934205e-02 2.095609e-02 1.525423e-02 1.164286e-02 1.214874e-02 1.470491e-02 2.199674e-02 3.180565e-02 4.490197e-02 6.199556e-02 8.004399e-02 1.038374e-01 1.235172e-01 1.513100e-01 1.634939e-01 1.891093e-01 1.778775e-01 1.949302e-01 2.048902e-01 7.434901e-02 1.099161e-01 1.023548e-01 1.013869e-01 4.754784e-02 5.714648e-02 5.592935e-02 6.197790e-02 6.866816e-02 6.831678e-02 6.832569e-02 6.240090e-02 5.617886e-02 4.760422e-02 3.906695e-02 3.264069e-02 
1.467263e-02 2.030596e-02 3.249795e-02 4.388707e-02 5.786735e-02 6.598185e-02 7.766630e-02 7.787792e-02 8.376581e-02 7.028335e-02 6.804649e-02 4.018787e-02 3.705314e-02 5.457908e-02 7.088254e-02 1.086265e-01 3.987586e-02 1.149703e-01 2.050223e-01 1.862052e-01 2.180219e-01 1.827571e-01 1.764852e-01 1.400670e-01 1.221355e-01 9.203756e-02 7.454147e-02 5.300962e-02 4.019847e-02 2.681803e-02 1.896061e-02 1.179635e-02 7.427843e-03 6.783276e-03 1.078139e-02 1.824999e-02 2.977285e-02 4.257770e-02 6.212947e-02 8.055728e-02 1.085109e-01 1.303457e-01 1.641240e-01 1.821798e-01 2.113418e-01 2.100350e-01 2.027811e-01 1.789953e-01 4.931661e-02 9.546068e-02 1.053570e-01 5.207469e-02 2.219196e-02 3.483860e-02 4.615073e-02 6.120613e-02 7.081575e-02 7.222668e-02 7.135704e-02 6.387969e-02 5.560720e-02 4.401675e-02 3.228656e-02 2.113006e-02 
8.108760e-04 1.338795e-02 2.924038e-02 4.181900e-02 5.710857e-02 6.570821e-02 7.822425e-02 7.850696e-02 8.443754e-02 6.996403e-02 6.528767e-02 3.124870e-02 1.518181e-02 3.465830e-02 6.836896e-02 1.179496e-01 4.715773e-02 9.824430e-02 2.054860e-01 1.962071e-01 2.286990e-01 1.912383e-01 1.845237e-01 1.447851e-01 1.265877e-01 9.418109e-02 7.669290e-02 5.379136e-02 4.113301e-02 2.685658e-02 1.897801e-02 1.063980e-02 4.998928e-03 1.204355e-03 8.390668e-03 1.640185e-02 2.889483e-02 4.167018e-02 6.213664e-02 8.069264e-02 1.098877e-01 1.324013e-01 1.675758e-01 1.873977e-01 2.162647e-01 2.173602e-01 2.003160e-01 1.611649e-01 1.408174e-02 7.814779e-02 1.019397e-01 8.139879e-03 8.753649e-03 2.813658e-02 4.518374e-02 6.280645e-02 7.275251e-02 7.463876e-02 7.318086e-02 6.519880e-02 5.608388e-02 4.341962e-02 3.024839e-02 1.595057e-02 
1.467263e-02 2.030596e-02 3.249795e-02 4.388707e-02 5.786735e-02 6.598185e-02 7.766630e-02 7.787792e-02 8.376581e-02 7.028335e-02 6.804649e-02 4.018787e-02 3.705314e-02 5.457908e-02 7.088254e-02 1.086265e-01 3.987586e-02 1.149703e-01 2.050223e-01 1.862052e-01 2.180219e-01 1.827571e-01 1.764852e-01 1.400670e-01 1.221355e-01 9.203756e-02 7.454147e-02 5.300962e-02 4.019847e-02 2.681803e-02 1.896061e-02 1.179635e-02 7.427843e-03 6.783276e-03 1.078139e-02 1.824999e-02 2.977285e-02 4.257770e-02 6.212947e-02 8.055728e-02 1.085109e-01 1.303457e-01 1.641240e-01 1.821798e-01 2.113418e-01 2.100350e-01 2.027811e-01 1.789953e-01 4.931661e-02 9.546068e-02 1.053570e-01 5.207469e-02 2.219196e-02 3.483860e-02 4.615073e-02 6.120613e-02 7.081575e-02 7.222668e-02 7.135704e-02 6.387969e-02 5.560720e-02 4.401675e-02 3.228656e-02 2.113006e-02 
2.884957e-02 3.176375e-02 3.822402e-02 4.639872e-02 5.622212e-02 6.216178e-02 7.047650e-02 6.923206e-02 7.384424e-02 6.168256e-02 6.601755e-02 5.179255e-02 6.693411e-02 9.004732e-02 8.782002e-02 1.209028e-01 5.897873e-02 1.734592e-01 2.243501e-01 1.770610e-01 2.042047e-01 1.736052e-01 1.660229e-01 1.367467e-01 1.181127e-01 9.261363e-02 7.430476e-02 5.519015e-02 4.142503e-02 2.934205e-02 2.095609e-02 1.525423e-02 1.164286e-02 1.214874e-02 1.470491e-02 2.199674e-02 3.180565e-02 4.490197e-02 6.199556e-02 8.004399e-02 1.038374e-01 1.235172e-01 1.513100e-01 1.634939e-01 1.891093e-01 1.778775e-01 1.949302e-01 2.048902e-01 7.434901e-02 1.099161e-01 1.023548e-01 1.013869e-01 4.754784e-02 5.714648e-02 5.592935e-02 6.197790e-02 6.866816e-02 6.831678e-02 6.832569e-02 6.240090e-02 5.617886e-02 4.760422e-02 3.906695e-02 3.264069e-02 