# vtk DataFile Version 2.0
Comment goes here
ASCII

DATASET STRUCTURED_POINTS
FIELD FieldData 1
TIME 1 1 double
0.32000000
DIMENSIONS    64   64   1

ORIGIN    0.000   0.000   0.000
SPACING   0.015625 0.015625   1.000

POINT_DATA   4096
SCALARS uMag double
LOOKUP_TABLE default

2.422097e-04 1.829824e-02 3.648435e-02 5.464970e-02 7.312530e-02 9.157140e-02 1.104476e-01 1.292342e-01 1.484554e-01 1.674356e-01 1.866651e-01 2.053611e-01 2.238374e-01 2.413004e-01 2.576904e-01 2.723907e-01 2.847051e-01 2.945374e-01 3.002173e-01 3.027382e-01 2.990633e-01 2.920890e-01 2.770580e-01 2.596804e-01 2.333848e-01 2.071869e-01 1.731708e-01 1.427638e-01 1.078069e-01 7.900855e-02 4.932385e-02 2.435212e-02 1.873244e-04 2.490949e-02 4.970540e-02 7.947587e-02 1.082125e-01 1.430984e-01 1.735862e-01 2.074281e-01 2.337594e-01 2.598812e-01 2.773737e-01 2.922729e-01 2.993008e-01 3.028866e-01 3.003560e-01 2.946190e-01 2.847324e-01 2.723829e-01 2.576052e-01 2.411948e-01 2.236474e-01 2.051613e-01 1.863840e-01 1.671530e-01 1.480996e-01 1.288843e-01 1.100345e-01 9.117125e-02 7.267221e-02 5.421644e-02 3.600769e-02 1.784861e-02 
1.807477e-02 2.570591e-02 4.066323e-02 5.749945e-02 7.524412e-02 9.325478e-02 1.118269e-01 1.304134e-01 1.494841e-01 1.683705e-01 1.875351e-01 2.062052e-01 2.246844e-01 2.421788e-01 2.586461e-01 2.734430e-01 2.859404e-01 2.959684e-01 3.019991e-01 3.048872e-01 3.018125e-01 2.954856e-01 2.813559e-01 2.649918e-01 2.398098e-01 2.148631e-01 1.818122e-01 1.522409e-01 1.175825e-01 8.834437e-02 5.890984e-02 3.573748e-02 2.463116e-02 3.607516e-02 5.914058e-02 8.871047e-02 1.178990e-01 1.525148e-01 1.821852e-01 2.150589e-01 2.401526e-01 2.651620e-01 2.816467e-01 2.956550e-01 3.020362e-01 3.050359e-01 3.021379e-01 2.960634e-01 2.859821e-01 2.734595e-01 2.585872e-01 2.421062e-01 2.245299e-01 2.060447e-01 1.872958e-01 1.681319e-01 1.491748e-01 1.301114e-01 1.114649e-01 9.290753e-02 7.485013e-02 5.713271e-02 4.027930e-02 2.542151e-02 
3.605849e-02 4.047402e-02 5.130064e-02 6.551097e-02 8.157096e-02 9.849512e-02 1.163056e-01 1.343527e-01 1.530389e-01 1.716250e-01 1.905939e-01 2.090753e-01 2.274550e-01 2.447956e-01 2.611967e-01 2.758242e-01 2.882450e-01 2.980703e-01 3.039898e-01 3.066660e-01 3.034253e-01 2.969236e-01 2.825262e-01 2.660497e-01 2.404893e-01 2.155546e-01 1.824915e-01 1.536391e-01 1.212039e-01 9.534974e-02 7.272976e-02 5.659576e-02 5.201237e-02 5.683966e-02 7.288801e-02 9.576140e-02 1.214931e-01 1.539400e-01 1.828768e-01 2.157497e-01 2.408581e-01 2.662270e-01 2.828480e-01 2.971102e-01 3.036704e-01 3.068279e-01 3.041339e-01 2.981662e-01 2.882770e-01 2.758288e-01 2.611175e-01 2.447014e-01 2.272737e-01 2.088876e-01 1.903256e-01 1.713576e-01 1.527020e-01 1.340245e-01 1.159225e-01 9.813171e-02 8.117442e-02 6.515799e-02 5.097059e-02 4.027716e-02 
5.400374e-02 5.707246e-02 6.515098e-02 7.685714e-02 9.091340e-02 1.063915e-01 1.230883e-01 1.403286e-01 1.583914e-01 1.765150e-01 1.951447e-01 2.133555e-01 2.315751e-01 2.487515e-01 2.651325e-01 2.796813e-01 2.922727e-01 3.021990e-01 3.086631e-01 3.118899e-01 3.098783e-01 3.048262e-01 2.926303e-01 2.789179e-01 2.563855e-01 2.351559e-01 2.046685e-01 1.779951e-01 1.452119e-01 1.161027e-01 9.127304e-02 7.267059e-02 6.837835e-02 7.283716e-02 9.125074e-02 1.164127e-01 1.453290e-01 1.782258e-01 2.050078e-01 2.352641e-01 2.567162e-01 2.790405e-01 2.929276e-01 3.050007e-01 3.101135e-01 3.120668e-01 3.088134e-01 3.023255e-01 2.923274e-01 2.797264e-01 2.650899e-01 2.487050e-01 2.314416e-01 2.132213e-01 1.949324e-01 1.763064e-01 1.581181e-01 1.400657e-01 1.227783e-01 1.061039e-01 9.060507e-02 7.659705e-02 6.492451e-02 5.695121e-02 
7.166438e-02 7.405743e-02 8.044696e-02 9.027171e-02 1.025594e-01 1.166129e-01 1.321407e-01 1.484763e-01 1.658287e-01 1.833728e-01 2.015735e-01 2.193642e-01 2.373031e-01 2.540977e-01 2.702742e-01 2.844434e-01 2.969516e-01 3.066329e-01 3.133529e-01 3.168326e-01 3.157464e-01 3.119336e-01 3.014292e-01 2.900786e-01 2.693389e-01 2.506743e-01 2.212848e-01 1.961883e-01 1.667142e-01 1.408044e-01 1.195183e-01 9.977776e-02 9.595743e-02 9.995182e-02 1.194328e-01 1.412687e-01 1.667789e-01 1.964577e-01 2.216306e-01 2.507124e-01 2.696996e-01 2.901904e-01 3.017824e-01 3.121462e-01 3.160197e-01 3.170450e-01 3.135132e-01 3.067731e-01 2.969960e-01 2.844829e-01 2.702115e-01 2.540344e-01 2.371469e-01 2.192095e-01 2.013410e-01 1.831457e-01 1.655418e-01 1.482024e-01 1.318287e-01 1.163280e-01 1.022672e-01 9.003350e-02 8.025210e-02 7.395733e-02 
8.922448e-02 9.120206e-02 9.642399e-02 1.048171e-01 1.155665e-01 1.282764e-01 1.425819e-01 1.579279e-01 1.744103e-01 1.912283e-01 2.087824e-01 2.259591e-01 2.433478e-01 2.595308e-01 2.752371e-01 2.888547e-01 3.012331e-01 3.108408e-01 3.184999e-01 3.233445e-01 3.254853e-01 3.258900e-01 3.220017e-01 3.186833e-01 3.071961e-01 2.986386e-01 2.758121e-01 2.557081e-01 2.190755e-01 1.777369e-01 1.422342e-01 1.122287e-01 1.059401e-01 1.124201e-01 1.419960e-01 1.781916e-01 2.189516e-01 2.559737e-01 2.762579e-01 2.985345e-01 3.075140e-01 3.187297e-01 3.223374e-01 3.261169e-01 3.257570e-01 3.236007e-01 3.186766e-01 3.110346e-01 3.013134e-01 2.889530e-01 2.752259e-01 2.595301e-01 2.432538e-01 2.258702e-01 2.086189e-01 1.910699e-01 1.741973e-01 1.577256e-01 1.423475e-01 1.280653e-01 1.153520e-01 1.046467e-01 9.628798e-02 9.113399e-02 
1.062555e-01 1.079836e-01 1.124297e-01 1.198162e-01 1.293906e-01 1.410020e-01 1.542470e-01 1.686719e-01 1.843066e-01 2.003370e-01 2.171546e-01 2.335273e-01 2.501682e-01 2.654360e-01 2.804318e-01 2.932136e-01 3.054151e-01 3.150496e-01 3.242684e-01 3.315412e-01 3.386387e-01 3.454908e-01 3.503267e-01 3.569367e-01 3.540223e-01 3.538879e-01 3.321216e-01 3.121422e-01 2.789991e-01 2.459532e-01 2.097190e-01 1.649399e-01 1.513025e-01 1.652554e-01 2.094587e-01 2.470287e-01 2.789957e-01 3.123870e-01 3.327012e-01 3.535594e-01 3.543874e-01 3.570008e-01 3.508009e-01 3.458470e-01 3.389924e-01 3.318826e-01 3.244614e-01 3.152686e-01 3.054781e-01 2.933023e-01 2.803937e-01 2.654136e-01 2.500500e-01 2.334173e-01 2.169750e-01 2.001643e-01 1.840875e-01 1.684651e-01 1.540176e-01 1.407972e-01 1.291907e-01 1.196592e-01 1.123090e-01 1.079234e-01 
1.230811e-01 1.246355e-01 1.284751e-01 1.350731e-01 1.436350e-01 1.542608e-01 1.664435e-01 1.798944e-01 1.944937e-01 2.095116e-01 2.252002e-01 2.403626e-01 2.556610e-01 2.694927e-01 2.831394e-01 2.947568e-01 3.066369e-01 3.169074e-01 3.291599e-01 3.415619e-01 3.582279e-01 3.771910e-01 3.997861e-01 4.254057e-01 4.464044e-01 4.700930e-01 4.711702e-01 4.830236e-01 4.458527e-01 3.780828e-01 2.988872e-01 2.259892e-01 2.033230e-01 2.264245e-01 2.983021e-01 3.789831e-01 4.456151e-01 4.832620e-01 4.725341e-01 4.695025e-01 4.465868e-01 4.254685e-01 4.002814e-01 3.776908e-01 3.586259e-01 3.420222e-01 3.294041e-01 3.172180e-01 3.067633e-01 2.949246e-01 2.831740e-01 2.695449e-01 2.556200e-01 2.403256e-01 2.250987e-01 2.094104e-01 1.943510e-01 1.797563e-01 1.662857e-01 1.541182e-01 1.434957e-01 1.349636e-01 1.283917e-01 1.245939e-01 
1.390640e-01 1.405116e-01 1.439212e-01 1.499563e-01 1.577462e-01 1.675807e-01 1.788496e-01 1.913824e-01 2.049353e-01 2.188089e-01 2.331739e-01 2.468041e-01 2.604489e-01 2.724897e-01 2.846944e-01 2.953058e-01 3.078472e-01 3.205733e-01 3.393146e-01 3.616921e-01 3.947609e-01 4.336786e-01 4.825302e-01 5.353174e-01 5.840157e-01 6.333302e-01 6.405727e-01 6.375982e-01 6.078906e-01 6.006963e-01 5.494451e-01 4.199130e-01 3.469624e-01 4.202652e-01 5.487489e-01 6.033812e-01 6.079266e-01 6.363920e-01 6.421878e-01 6.326406e-01 5.841671e-01 5.355653e-01 4.833543e-01 4.345812e-01 3.953414e-01 3.623458e-01 3.395980e-01 3.209216e-01 3.079499e-01 2.954488e-01 2.846924e-01 2.725059e-01 2.603792e-01 2.467395e-01 2.330573e-01 2.186932e-01 2.047903e-01 1.912420e-01 1.786991e-01 1.674444e-01 1.576188e-01 1.498558e-01 1.438472e-01 1.404744e-01 
1.546808e-01 1.560515e-01 1.590829e-01 1.646401e-01 1.717040e-01 1.807689e-01 1.910388e-01 2.025057e-01 2.146937e-01 2.270329e-01 2.394600e-01 2.509427e-01 2.621109e-01 2.718177e-01 2.820491e-01 2.920835e-01 3.062855e-01 3.244942e-01 3.539493e-01 3.930016e-01 4.500547e-01 5.162189e-01 5.985241e-01 6.777111e-01 7.621740e-01 8.256768e-01 8.744626e-01 9.908597e-01 1.016871e+00 9.150944e-01 7.800777e-01 6.756979e-01 6.436397e-01 6.767664e-01 7.789886e-01 9.160895e-01 1.016570e+00 9.907322e-01 8.781270e-01 8.248949e-01 7.610622e-01 6.780312e-01 5.994047e-01 5.176008e-01 4.508346e-01 3.939450e-01 3.544096e-01 3.250111e-01 3.065275e-01 2.923376e-01 2.821580e-01 2.719194e-01 2.621342e-01 2.509520e-01 2.394246e-01 2.269838e-01 2.146200e-01 2.024243e-01 1.909485e-01 1.806813e-01 1.716223e-01 1.645729e-01 1.590341e-01 1.560262e-01 
1.690690e-01 1.703927e-01 1.731225e-01 1.783002e-01 1.847395e-01 1.930970e-01 2.023807e-01 2.126955e-01 2.233525e-01 2.338609e-01 2.440185e-01 2.529597e-01 2.614683e-01 2.689110e-01 2.781041e-01 2.894678e-01 3.092388e-01 3.386290e-01 3.872244e-01 4.524160e-01 5.431719e-01 6.422878e-01 7.570935e-01 8.566302e-01 9.598110e-01 1.065859e+00 1.132437e+00 1.072012e+00 9.270031e-01 8.615113e-01 9.320728e-01 9.747394e-01 1.007281e+00 9.758425e-01 9.308158e-01 8.642324e-01 9.264597e-01 1.069765e+00 1.132600e+00 1.068849e+00 9.590772e-01 8.566333e-01 7.583475e-01 6.443749e-01 5.441918e-01 4.536482e-01 3.877879e-01 3.392039e-01 3.094908e-01 2.896941e-01 2.781891e-01 2.689710e-01 2.614678e-01 2.529391e-01 2.439715e-01 2.337986e-01 2.232796e-01 2.126140e-01 2.022992e-01 1.930163e-01 1.846687e-01 1.782406e-01 1.730811e-01 1.703707e-01 
1.828755e-01 1.841604e-01 1.865820e-01 1.913755e-01 1.971324e-01 2.046835e-01 2.127698e-01 2.216425e-01 2.303157e-01 2.384879e-01 2.457306e-01 2.516605e-01 2.571226e-01 2.627594e-01 2.720077e-01 2.879319e-01 3.176854e-01 3.659560e-01 4.407003e-01 5.396667e-01 6.608406e-01 7.785601e-01 8.854235e-01 9.443240e-01 1.004080e+00 8.911735e-01 6.450764e-01 6.588779e-01 9.555341e-01 1.022676e+00 9.404634e-01 8.369068e-01 8.209607e-01 8.372242e-01 9.361797e-01 1.028142e+00 9.518665e-01 6.596173e-01 6.410478e-01 8.938208e-01 1.005318e+00 9.442581e-01 8.862208e-01 7.812159e-01 6.622024e-01 5.412513e-01 4.417046e-01 3.668239e-01 3.182563e-01 2.883497e-01 2.722867e-01 2.629356e-01 2.572401e-01 2.517155e-01 2.457626e-01 2.384812e-01 2.303009e-01 2.216045e-01 2.127320e-01 2.046356e-01 1.970919e-01 1.913369e-01 1.865564e-01 1.841456e-01 
1.950161e-01 1.962697e-01 1.983824e-01 2.027829e-01 2.078102e-01 2.144562e-01 2.211713e-01 2.283416e-01 2.347131e-01 2.401972e-01 2.443189e-01 2.472867e-01 2.505008e-01 2.560616e-01 2.689638e-01 2.947201e-01 3.424110e-01 4.175424e-01 5.253811e-01 6.544463e-01 7.857447e-01 8.700817e-01 8.965701e-01 8.074351e-01 5.730730e-01 5.417486e-01 8.869530e-01 1.029384e+00 9.212471e-01 7.330990e-01 6.833530e-01 6.992255e-01 7.360177e-01 6.996566e-01 6.789530e-01 7.347795e-01 9.192494e-01 1.025089e+00 8.942086e-01 5.427832e-01 5.706351e-01 8.075219e-01 8.945395e-01 8.727240e-01 7.866612e-01 6.558282e-01 5.264378e-01 4.184407e-01 3.431094e-01 2.951899e-01 2.693160e-01 2.562582e-01 2.506458e-01 2.473433e-01 2.443608e-01 2.401908e-01 2.347070e-01 2.283088e-01 2.211444e-01 2.144166e-01 2.077802e-01 2.027516e-01 1.983632e-01 1.962578e-01 
2.063269e-01 2.075385e-01 2.092898e-01 2.132093e-01 2.173509e-01 2.228724e-01 2.279049e-01 2.330072e-01 2.366727e-01 2.391762e-01 2.401175e-01 2.406941e-01 2.430459e-01 2.514689e-01 2.722333e-01 3.142274e-01 3.859098e-01 4.932688e-01 6.289903e-01 7.691196e-01 8.537966e-01 8.272797e-01 6.409378e-01 3.389968e-01 5.498753e-01 9.101184e-01 7.941863e-01 6.363730e-01 6.499538e-01 7.294337e-01 8.078026e-01 8.251860e-01 8.526666e-01 8.253617e-01 8.026206e-01 7.324265e-01 6.546176e-01 6.334116e-01 7.940115e-01 9.097731e-01 5.527474e-01 3.370551e-01 6.337025e-01 8.259746e-01 8.544619e-01 7.698269e-01 6.304483e-01 4.944382e-01 3.870873e-01 3.150236e-01 2.729064e-01 2.518708e-01 2.433631e-01 2.408529e-01 2.402409e-01 2.392166e-01 2.367059e-01 2.329977e-01 2.278993e-01 2.228460e-01 2.173332e-01 2.131853e-01 2.092765e-01 2.075290e-01 
2.155347e-01 2.166927e-01 2.180058e-01 2.213337e-01 2.243942e-01 2.285507e-01 2.315796e-01 2.343053e-01 2.350194e-01 2.345742e-01 2.329007e-01 2.324990e-01 2.367153e-01 2.519665e-01 2.862763e-01 3.503616e-01 4.517147e-01 5.888232e-01 7.381131e-01 8.414394e-01 7.919197e-01 5.392790e-01 1.985910e-01 5.197175e-01 8.011228e-01 7.628761e-01 6.255891e-01 6.734882e-01 7.060413e-01 7.015250e-01 7.383698e-01 7.565768e-01 7.813871e-01 7.567976e-01 7.359499e-01 7.032861e-01 7.066840e-01 6.713829e-01 6.294385e-01 7.615620e-01 7.993629e-01 5.201409e-01 2.008256e-01 5.325456e-01 7.901721e-01 8.401205e-01 7.389860e-01 5.898190e-01 4.530783e-01 3.513867e-01 2.872034e-01 2.525744e-01 2.371999e-01 2.327685e-01 2.330999e-01 2.346582e-01 2.350822e-01 2.343130e-01 2.315881e-01 2.285340e-01 2.243853e-01 2.213158e-01 2.179972e-01 2.166854e-01 
2.236841e-01 2.247586e-01 2.255384e-01 2.281092e-01 2.298556e-01 2.323576e-01 2.330845e-01 2.332051e-01 2.309925e-01 2.280871e-01 2.251234e-01 2.260888e-01 2.356727e-01 2.620452e-01 3.144196e-01 4.045033e-01 5.340240e-01 6.886821e-01 8.161416e-01 8.072137e-01 5.302184e-01 1.112801e-01 3.934614e-01 7.145994e-01 7.869331e-01 7.118691e-01 6.146559e-01 5.940536e-01 6.188048e-01 6.759072e-01 7.469051e-01 7.819786e-01 8.076406e-01 7.822860e-01 7.460053e-01 6.773618e-01 6.211206e-01 5.931440e-01 6.179237e-01 7.114796e-01 7.884348e-01 7.186533e-01 3.932236e-01 1.052892e-01 5.288071e-01 8.056774e-01 8.166279e-01 6.899211e-01 5.357186e-01 4.059442e-01 3.157049e-01 2.629583e-01 2.363970e-01 2.265267e-01 2.254289e-01 2.282254e-01 2.310783e-01 2.332150e-01 2.330867e-01 2.323297e-01 2.298361e-01 2.280818e-01 2.255234e-01 2.247479e-01 
2.293777e-01 2.303407e-01 2.304435e-01 2.320678e-01 2.321991e-01 2.327573e-01 2.308652e-01 2.283013e-01 2.233648e-01 2.189434e-01 2.163998e-01 2.213579e-01 2.393216e-01 2.797284e-01 3.528747e-01 4.693731e-01 6.208423e-01 7.719037e-01 8.402871e-01 6.328928e-01 1.793771e-01 2.426161e-01 6.331911e-01 8.652334e-01 7.824096e-01 6.398071e-01 5.570550e-01 5.732192e-01 6.072141e-01 6.483646e-01 6.970406e-01 7.223549e-01 7.415242e-01 7.225862e-01 6.968374e-01 6.489578e-01 6.083968e-01 5.722950e-01 5.589256e-01 6.383587e-01 7.823117e-01 8.703261e-01 6.335119e-01 2.417594e-01 1.758105e-01 6.309366e-01 8.406354e-01 7.733644e-01 6.229079e-01 4.712948e-01 3.545877e-01 2.810411e-01 2.403794e-01 2.220729e-01 2.168988e-01 2.192081e-01 2.235218e-01 2.283499e-01 2.308864e-01 2.327386e-01 2.321840e-01 2.320425e-01 2.304297e-01 2.303304e-01 
2.338851e-01 2.346921e-01 2.339961e-01 2.344649e-01 2.327320e-01 2.310966e-01 2.264657e-01 2.213785e-01 2.144491e-01 2.099686e-01 2.101764e-01 2.215788e-01 2.504635e-01 3.066589e-01 4.024237e-01 5.432551e-01 7.035283e-01 8.324883e-01 7.721846e-01 3.543412e-01 1.359906e-01 4.556406e-01 8.610075e-01 8.729810e-01 6.716650e-01 5.698927e-01 5.212917e-01 5.331625e-01 5.671964e-01 6.167541e-01 6.682108e-01 6.969257e-01 7.146401e-01 6.972101e-01 6.685545e-01 6.174678e-01 5.686885e-01 5.331004e-01 5.222736e-01 5.695525e-01 6.701568e-01 8.748986e-01 8.649603e-01 4.566435e-01 1.379859e-01 3.555694e-01 7.714864e-01 8.339794e-01 7.058505e-01 5.455755e-01 4.045000e-01 3.082692e-01 2.517595e-01 2.224967e-01 2.108126e-01 2.103109e-01 2.146221e-01 2.214104e-01 2.264499e-01 2.310375e-01 2.326785e-01 2.344090e-01 2.339608e-01 2.346710e-01 
2.357670e-01 2.363805e-01 2.347131e-01 2.338171e-01 2.299145e-01 2.258879e-01 2.183894e-01 2.111443e-01 2.029782e-01 2.000754e-01 2.045964e-01 2.238397e-01 2.639700e-01 3.361846e-01 4.527435e-01 6.109143e-01 7.588310e-01 8.460263e-01 5.943187e-01 2.312343e-01 2.746159e-01 7.138286e-01 9.758696e-01 7.683304e-01 6.174495e-01 5.297693e-01 4.999293e-01 5.147709e-01 5.439807e-01 5.788789e-01 6.136395e-01 6.321868e-01 6.445589e-01 6.324008e-01 6.140772e-01 5.794166e-01 5.452359e-01 5.152506e-01 5.013689e-01 5.306064e-01 6.181170e-01 7.703773e-01 9.780576e-01 7.179874e-01 2.793165e-01 2.272120e-01 5.916418e-01 8.476439e-01 7.613055e-01 6.136880e-01 4.552786e-01 3.382411e-01 2.656415e-01 2.251082e-01 2.055137e-01 2.006295e-01 2.032736e-01 2.112400e-01 2.183965e-01 2.258335e-01 2.298565e-01 2.337551e-01 2.346725e-01 2.363566e-01 
2.365083e-01 2.368841e-01 2.341421e-01 2.317059e-01 2.254679e-01 2.189608e-01 2.087350e-01 1.998893e-01 1.915525e-01 1.916336e-01 2.014619e-01 2.285094e-01 2.801616e-01 3.669266e-01 5.054630e-01 6.658385e-01 8.063357e-01 7.965555e-01 4.505225e-01 2.330888e-01 4.603731e-01 9.438390e-01 9.200641e-01 6.725151e-01 5.595093e-01 4.923826e-01 4.762153e-01 4.855070e-01 5.090578e-01 5.376011e-01 5.669878e-01 5.830077e-01 5.933809e-01 5.831958e-01 5.674426e-01 5.380678e-01 5.100189e-01 4.859434e-01 4.768558e-01 4.927755e-01 5.587152e-01 6.719897e-01 9.169792e-01 9.453575e-01 4.637201e-01 2.325823e-01 4.520731e-01 7.974374e-01 8.091582e-01 6.686104e-01 5.082423e-01 3.691558e-01 2.819633e-01 2.298993e-01 2.024735e-01 1.922608e-01 1.918529e-01 1.999479e-01 2.086726e-01 2.188331e-01 2.253409e-01 2.315895e-01 2.340635e-01 2.368411e-01 
2.346746e-01 2.347811e-01 2.308406e-01 2.267321e-01 2.179918e-01 2.090061e-01 1.961828e-01 1.863954e-01 1.786498e-01 1.827596e-01 1.974582e-01 2.321675e-01 2.940284e-01 3.950973e-01 5.518960e-01 7.019820e-01 8.361278e-01 6.860822e-01 3.973449e-01 3.147542e-01 6.888667e-01 1.019291e+00 7.820547e-01 6.150859e-01 5.164727e-01 4.731693e-01 4.570695e-01 4.621645e-01 4.751067e-01 4.910489e-01 5.080980e-01 5.164546e-01 5.232268e-01 5.166391e-01 5.085996e-01 4.916138e-01 4.762146e-01 4.631947e-01 4.585661e-01 4.749541e-01 5.179893e-01 6.177678e-01 7.819588e-01 1.019327e+00 6.928185e-01 3.185595e-01 3.986598e-01 6.853201e-01 8.388229e-01 7.047454e-01 5.549975e-01 3.976817e-01 2.961283e-01 2.338341e-01 1.987109e-01 1.836024e-01 1.790925e-01 1.865274e-01 1.961398e-01 2.088724e-01 2.178478e-01 2.265988e-01 2.307488e-01 2.347313e-01 
2.318687e-01 2.316883e-01 2.265528e-01 2.207526e-01 2.095697e-01 1.982629e-01 1.832070e-01 1.730981e-01 1.665178e-01 1.747831e-01 1.930166e-01 2.346454e-01 3.039707e-01 4.193140e-01 5.828470e-01 7.239612e-01 8.238118e-01 5.885241e-01 3.546877e-01 4.026921e-01 8.524426e-01 9.583287e-01 6.803606e-01 5.726551e-01 4.815654e-01 4.500036e-01 4.318364e-01 4.305420e-01 4.355079e-01 4.437452e-01 4.547485e-01 4.596518e-01 4.647806e-01 4.597571e-01 4.550787e-01 4.440580e-01 4.361701e-01 4.310902e-01 4.326676e-01 4.508770e-01 4.824790e-01 5.735325e-01 6.808031e-01 9.578954e-01 8.584814e-01 4.044397e-01 3.533015e-01 5.888351e-01 8.249172e-01 7.267344e-01 5.856357e-01 4.219595e-01 3.059845e-01 2.362924e-01 1.942303e-01 1.756205e-01 1.669236e-01 1.731592e-01 1.830605e-01 1.980228e-01 2.093288e-01 2.205432e-01 2.264085e-01 2.316121e-01 
2.265867e-01 2.261211e-01 2.198339e-01 2.124289e-01 1.989693e-01 1.856286e-01 1.687627e-01 1.588795e-01 1.537229e-01 1.656150e-01 1.857752e-01 2.334190e-01 3.075384e-01 4.376816e-01 5.965811e-01 7.412869e-01 7.767982e-01 5.622197e-01 3.729458e-01 5.444505e-01 9.644897e-01 8.505181e-01 6.255703e-01 5.304321e-01 4.590940e-01 4.274876e-01 4.078641e-01 3.987756e-01 3.952666e-01 3.939295e-01 3.967112e-01 3.962883e-01 3.992032e-01 3.964194e-01 3.971019e-01 3.943650e-01 3.961008e-01 3.996188e-01 4.091103e-01 4.287085e-01 4.605605e-01 5.311993e-01 6.265216e-01 8.484640e-01 9.673165e-01 5.497763e-01 3.728010e-01 5.630190e-01 7.787587e-01 7.454191e-01 5.997992e-01 4.406478e-01 3.097143e-01 2.351616e-01 1.870896e-01 1.665480e-01 1.542199e-01 1.589832e-01 1.686177e-01 1.853669e-01 1.987001e-01 2.121941e-01 2.196708e-01 2.260352e-01 
2.202915e-01 2.195876e-01 2.123924e-01 2.036977e-01 1.884919e-01 1.736777e-01 1.557665e-01 1.465241e-01 1.429891e-01 1.571263e-01 1.781835e-01 2.296630e-01 3.064313e-01 4.467129e-01 5.928165e-01 7.400718e-01 7.034512e-01 5.390074e-01 4.203733e-01 6.698025e-01 9.507014e-01 7.269616e-01 5.846863e-01 4.831179e-01 4.329597e-01 3.962926e-01 3.771841e-01 3.610388e-01 3.527953e-01 3.454062e-01 3.441372e-01 3.408773e-01 3.428036e-01 3.409174e-01 3.443288e-01 3.455731e-01 3.532384e-01 3.614683e-01 3.779743e-01 3.970791e-01 4.342069e-01 4.838763e-01 5.865343e-01 7.265805e-01 9.529435e-01 6.752760e-01 4.185195e-01 5.404783e-01 7.076407e-01 7.452823e-01 5.963598e-01 4.496461e-01 3.084600e-01 2.311667e-01 1.793103e-01 1.579006e-01 1.433704e-01 1.464999e-01 1.554875e-01 1.732851e-01 1.881106e-01 2.033757e-01 2.121703e-01 2.194721e-01 
2.112002e-01 2.103385e-01 2.026039e-01 1.931435e-01 1.770175e-01 1.615802e-01 1.437331e-01 1.355920e-01 1.338953e-01 1.484670e-01 1.692866e-01 2.209618e-01 2.983263e-01 4.413642e-01 5.752254e-01 7.181382e-01 6.435700e-01 5.104414e-01 4.531511e-01 7.529462e-01 8.887026e-01 6.384447e-01 5.488881e-01 4.441949e-01 4.064791e-01 3.654559e-01 3.457973e-01 3.237496e-01 3.108904e-01 2.974816e-01 2.915210e-01 2.848736e-01 2.855939e-01 2.849332e-01 2.917445e-01 2.977084e-01 3.113906e-01 3.242673e-01 3.466629e-01 3.663594e-01 4.077916e-01 4.452725e-01 5.507356e-01 6.389085e-01 8.909542e-01 7.608656e-01 4.513629e-01 5.152881e-01 6.482182e-01 7.209608e-01 5.781643e-01 4.437316e-01 3.001945e-01 2.222500e-01 1.702961e-01 1.491337e-01 1.342312e-01 1.355295e-01 1.434185e-01 1.611490e-01 1.766008e-01 1.927935e-01 2.023617e-01 2.102128e-01 
2.002893e-01 1.994373e-01 1.918209e-01 1.825154e-01 1.668703e-01 1.522055e-01 1.360965e-01 1.296363e-01 1.299969e-01 1.434124e-01 1.636412e-01 2.124164e-01 2.893164e-01 4.276874e-01 5.544083e-01 6.852332e-01 6.185028e-01 4.929495e-01 5.143803e-01 8.070478e-01 7.945630e-01 5.732795e-01 5.020206e-01 4.057746e-01 3.718496e-01 3.301043e-01 3.094459e-01 2.844151e-01 2.691997e-01 2.527298e-01 2.446193e-01 2.362739e-01 2.364762e-01 2.362574e-01 2.446747e-01 2.527428e-01 2.693794e-01 2.846150e-01 3.098398e-01 3.306050e-01 3.723231e-01 4.062761e-01 5.016215e-01 5.731947e-01 7.924490e-01 8.136573e-01 5.178116e-01 4.902797e-01 6.183399e-01 6.861054e-01 5.571151e-01 4.293942e-01 2.906078e-01 2.130720e-01 1.641750e-01 1.437170e-01 1.300770e-01 1.293704e-01 1.356175e-01 1.516346e-01 1.663411e-01 1.820807e-01 1.915215e-01 1.992832e-01 
1.854001e-01 1.848034e-01 1.782285e-01 1.704182e-01 1.572572e-01 1.453655e-01 1.332752e-01 1.293713e-01 1.320926e-01 1.429997e-01 1.615744e-01 2.029367e-01 2.760740e-01 4.003794e-01 5.228994e-01 6.318023e-01 6.084313e-01 5.040078e-01 5.603949e-01 7.941651e-01 6.874535e-01 5.202430e-01 4.487884e-01 3.694091e-01 3.346258e-01 2.959988e-01 2.735481e-01 2.476780e-01 2.299908e-01 2.111197e-01 2.003614e-01 1.901872e-01 1.896201e-01 1.901655e-01 2.003914e-01 2.110968e-01 2.300800e-01 2.477611e-01 2.737499e-01 2.963061e-01 3.349180e-01 3.700075e-01 4.489047e-01 5.216703e-01 6.865376e-01 7.950796e-01 5.660677e-01 5.023917e-01 6.096932e-01 6.377050e-01 5.281855e-01 4.034668e-01 2.776173e-01 2.034736e-01 1.617437e-01 1.429655e-01 1.318724e-01 1.289078e-01 1.326575e-01 1.447051e-01 1.566592e-01 1.699378e-01 1.778971e-01 1.846344e-01 
1.669740e-01 1.670288e-01 1.628426e-01 1.584659e-01 1.504696e-01 1.438333e-01 1.379597e-01 1.372019e-01 1.419938e-01 1.499776e-01 1.664754e-01 1.991496e-01 2.661344e-01 3.728248e-01 4.912256e-01 5.810085e-01 5.958089e-01 5.253404e-01 5.905375e-01 7.413170e-01 5.932080e-01 4.705154e-01 3.944318e-01 3.316169e-01 2.946573e-01 2.608212e-01 2.369143e-01 2.122200e-01 1.932761e-01 1.739126e-01 1.617363e-01 1.507481e-01 1.496669e-01 1.506889e-01 1.616831e-01 1.737899e-01 1.932158e-01 2.121584e-01 2.369374e-01 2.610105e-01 2.949845e-01 3.325673e-01 3.959905e-01 4.740111e-01 5.980648e-01 7.453786e-01 5.929750e-01 5.265076e-01 6.025506e-01 5.891987e-01 4.964813e-01 3.753298e-01 2.668949e-01 1.989934e-01 1.660504e-01 1.494547e-01 1.413680e-01 1.364384e-01 1.371148e-01 1.430059e-01 1.497371e-01 1.578887e-01 1.624431e-01 1.668270e-01 
1.429958e-01 1.443150e-01 1.444313e-01 1.461097e-01 1.464776e-01 1.476852e-01 1.498346e-01 1.528090e-01 1.596277e-01 1.648936e-01 1.788537e-01 2.016821e-01 2.587219e-01 3.445039e-01 4.549508e-01 5.344523e-01 5.805070e-01 5.478713e-01 6.016408e-01 6.678021e-01 5.131137e-01 4.218420e-01 3.446513e-01 2.959783e-01 2.576909e-01 2.293475e-01 2.042721e-01 1.816180e-01 1.611919e-01 1.415020e-01 1.270901e-01 1.148843e-01 1.128332e-01 1.147804e-01 1.269406e-01 1.412253e-01 1.608917e-01 1.812111e-01 2.038257e-01 2.288980e-01 2.572821e-01 2.959871e-01 3.453570e-01 4.241582e-01 5.182454e-01 6.755115e-01 6.035042e-01 5.485004e-01 5.890744e-01 5.411073e-01 4.579479e-01 3.452663e-01 2.580492e-01 2.004404e-01 1.774650e-01 1.635830e-01 1.583358e-01 1.515639e-01 1.486272e-01 1.466037e-01 1.455408e-01 1.453855e-01 1.439244e-01 1.440607e-01 
1.140503e-01 1.175780e-01 1.245255e-01 1.350815e-01 1.462166e-01 1.564439e-01 1.665790e-01 1.729933e-01 1.812118e-01 1.842066e-01 1.956599e-01 2.107058e-01 2.575437e-01 3.248382e-01 4.253470e-01 5.027438e-01 5.677206e-01 5.657308e-01 5.997678e-01 5.930334e-01 4.496978e-01 3.770072e-01 3.019338e-01 2.630843e-01 2.243458e-01 2.007779e-01 1.751009e-01 1.548886e-01 1.335044e-01 1.141420e-01 9.766280e-02 8.433920e-02 8.114200e-02 8.425969e-02 9.755661e-02 1.139206e-01 1.332479e-01 1.544875e-01 1.745910e-01 2.000944e-01 2.234818e-01 2.621039e-01 3.009726e-01 3.763809e-01 4.508161e-01 5.983998e-01 6.036338e-01 5.678673e-01 5.716360e-01 5.043893e-01 4.245954e-01 3.230958e-01 2.551910e-01 2.083730e-01 1.934786e-01 1.822904e-01 1.794400e-01 1.714016e-01 1.651083e-01 1.551635e-01 1.450993e-01 1.342009e-01 1.238824e-01 1.172471e-01 
7.948696e-02 8.710212e-02 1.044468e-01 1.262453e-01 1.488128e-01 1.676567e-01 1.848207e-01 1.944575e-01 2.040940e-01 2.057664e-01 2.153588e-01 2.248196e-01 2.624696e-01 3.143078e-01 4.034806e-01 4.836345e-01 5.654704e-01 5.858802e-01 5.900995e-01 5.279190e-01 4.019613e-01 3.392183e-01 2.694694e-01 2.374687e-01 1.993594e-01 1.796125e-01 1.535871e-01 1.354121e-01 1.127685e-01 9.323107e-02 7.343906e-02 5.750415e-02 5.193640e-02 5.730686e-02 7.314706e-02 9.274912e-02 1.121708e-01 1.345431e-01 1.524483e-01 1.780378e-01 1.972671e-01 2.347183e-01 2.660022e-01 3.351624e-01 3.979921e-01 5.266882e-01 5.919879e-01 5.875886e-01 5.645327e-01 4.807979e-01 3.997870e-01 3.103209e-01 2.584668e-01 2.211956e-01 2.121047e-01 2.029706e-01 2.016010e-01 1.923076e-01 1.829016e-01 1.660162e-01 1.473698e-01 1.250627e-01 1.035105e-01 8.657155e-02 
4.098539e-02 5.723539e-02 8.824524e-02 1.203989e-01 1.515360e-01 1.762369e-01 1.978771e-01 2.095074e-01 2.198263e-01 2.204393e-01 2.284051e-01 2.342518e-01 2.655037e-01 3.070978e-01 3.866527e-01 4.676298e-01 5.555490e-01 5.902606e-01 5.774396e-01 4.805749e-01 3.695237e-01 3.119656e-01 2.469175e-01 2.192234e-01 1.819215e-01 1.647854e-01 1.386946e-01 1.220417e-01 9.856071e-02 7.890120e-02 5.583284e-02 3.582248e-02 2.550091e-02 3.574441e-02 5.575167e-02 7.866652e-02 9.824237e-02 1.214439e-01 1.378400e-01 1.634096e-01 1.800043e-01 2.164035e-01 2.433013e-01 3.073201e-01 3.649050e-01 4.774090e-01 5.794189e-01 5.937243e-01 5.545528e-01 4.644071e-01 3.823139e-01 3.026475e-01 2.611428e-01 2.303777e-01 2.249107e-01 2.174471e-01 2.171716e-01 2.072480e-01 1.958775e-01 1.745373e-01 1.500242e-01 1.191115e-01 8.711217e-02 5.642406e-02 
6.357332e-04 4.161545e-02 8.193061e-02 1.187116e-01 1.531897e-01 1.801271e-01 2.035048e-01 2.160545e-01 2.268683e-01 2.274464e-01 2.352151e-01 2.403796e-01 2.700001e-01 3.090182e-01 3.859930e-01 4.693613e-01 5.604548e-01 5.976256e-01 5.756566e-01 4.671791e-01 3.613984e-01 3.041402e-01 2.408615e-01 2.141809e-01 1.771676e-01 1.607631e-01 1.345707e-01 1.183315e-01 9.435853e-02 7.442205e-02 4.943163e-02 2.569310e-02 1.483524e-04 2.530871e-02 4.904560e-02 7.385283e-02 9.365939e-02 1.172947e-01 1.331851e-01 1.587581e-01 1.744617e-01 2.104240e-01 2.360596e-01 2.981140e-01 3.551519e-01 4.619352e-01 5.758952e-01 5.994196e-01 5.581409e-01 4.651276e-01 3.805989e-01 3.037128e-01 2.649425e-01 2.359250e-01 2.312300e-01 2.240398e-01 2.238689e-01 2.135095e-01 2.012640e-01 1.782194e-01 1.514854e-01 1.172292e-01 8.055028e-02 4.034780e-02 
4.098539e-02 5.723539e-02 8.824524e-02 1.203989e-01 1.515360e-01 1.762369e-01 1.978771e-01 2.095074e-01 2.198263e-01 2.204393e-01 2.284051e-01 2.342518e-01 2.655037e-01 3.070978e-01 3.866527e-01 4.676298e-01 5.555490e-01 5.902606e-01 5.774396e-01 4.805749e-01 3.695237e-01 3.119656e-01 2.469175e-01 2.192234e-01 1.819215e-01 1.647854e-01 1.386946e-01 1.220417e-01 9.856071e-02 7.890120e-02 5.583284e-02 3.582248e-02 2.550091e-02 3.574441e-02 5.575167e-02 7.866652e-02 9.824237e-02 1.214439e-01 1.378400e-01 1.634096e-01 1.800043e-01 2.164035e-01 2.433013e-01 3.073201e-01 3.649050e-01 4.774090e-01 5.794189e-01 5.937243e-01 5.545528e-01 4.644071e-01 3.823139e-01 3.026475e-01 2.611428e-01 2.303777e-01 2.249107e-01 2.174471e-01 2.171716e-01 2.072480e-01 1.958775e-01 1.745373e-01 1.500242e-01 1.191115e-01 8.711217e-02 5.642406e-02 
7.948696e-02 8.710212e-02 1.044468e-01 1.262453e-01 1.488128e-01 1.676567e-01 1.848207e-01 1.944575e-01 2.040940e-01 2.057664e-01 2.153588e-01 2.248196e-01 2.624696e-01 3.143078e-01 4.034806e-01 4.836345e-01 5.654704e-01 5.858802e-01 5.900995e-01 5.279190e-01 4.019613e-01 3.392183e-01 2.694694e-01 2.374687e-01 1.993594e-01 1.796125e-01 1.535871e-01 1.354121e-01 1.127685e-01 9.323107e-02 7.343906e-02 5.750415e-02 5.193640e-02 5.730686e-02 7.314706e-02 9.274912e-02 1.121708e-01 1.345431e-01 1.524483e-01 1.780378e-01 1.972671e-01 2.347183e-01 2.660022e-01 3.351624e-01 3.979921e-01 5.266882e-01 5.919879e-01 5.875886e-01 5.645327e-01 4.807979e-01 3.997870e-01 3.103209e-01 2.584668e-01 2.211956e-01 2.121047e-01 2.029706e-01 2.016010e-01 1.923076e-01 1.829016e-01 1.660162e-01 1.473698e-01 1.250627e-01 1.035105e-01 8.657155e-02 