# vtk DataFile Version 2.0
Comment goes here
ASCII

DATASET STRUCTURED_POINTS
FIELD FieldData 1
TIME 1 1 double
1.15000000
DIMENSIONS    64   64   1

ORIGIN    0.000   0.000   0.000
SPACING   0.015625 0.015625   1.000

POINT_DATA   4096
SCALARS uMag double
LOOKUP_TABLE default

1.289612e-03 1.968511e-03 2.531124e-03 2.691626e-03 2.486148e-03 1.525990e-03 2.523648e-05 2.616457e-03 5.977789e-03 1.055857e-02 1.601162e-02 2.271438e-02 3.027298e-02 3.891603e-02 4.823130e-02 5.822991e-02 6.850837e-02 7.881855e-02 8.879815e-02 9.794625e-02 1.059873e-01 1.122359e-01 1.165622e-01 1.182156e-01 1.172748e-01 1.130498e-01 1.058921e-01 9.525146e-02 8.184108e-02 6.528994e-02 4.673705e-02 2.605651e-02 4.720639e-03 1.716727e-02 3.809501e-02 5.785098e-02 7.528423e-02 9.015473e-02 1.019528e-01 1.104011e-01 1.157018e-01 1.175248e-01 1.166962e-01 1.128476e-01 1.071716e-01 9.932918e-02 9.056549e-02 8.063479e-02 7.058415e-02 6.029207e-02 5.047243e-02 4.112764e-02 3.261129e-02 2.502761e-02 1.841732e-02 1.294947e-02 8.438219e-03 5.070879e-03 2.532724e-03 9.796070e-04 5.927696e-05 1.492652e-04 3.932795e-05 5.932141e-04 
1.600692e-03 2.254664e-03 2.803370e-03 2.983709e-03 2.882364e-03 2.281057e-03 2.107765e-03 3.678965e-03 6.780064e-03 1.122867e-02 1.663248e-02 2.328561e-02 3.080860e-02 3.940670e-02 4.867188e-02 5.862009e-02 6.883489e-02 7.910280e-02 8.902796e-02 9.817698e-02 1.062215e-01 1.125702e-01 1.170294e-01 1.189467e-01 1.183361e-01 1.145755e-01 1.079538e-01 9.793972e-02 8.521648e-02 6.948569e-02 5.217778e-02 3.432275e-02 2.221781e-02 2.759095e-02 4.392656e-02 6.197443e-02 7.845878e-02 9.263510e-02 1.038208e-01 1.117659e-01 1.166293e-01 1.181532e-01 1.170829e-01 1.131346e-01 1.073761e-01 9.956729e-02 9.081632e-02 8.097631e-02 7.097741e-02 6.077811e-02 5.101253e-02 4.173379e-02 3.325535e-02 2.570134e-02 1.910725e-02 1.363311e-02 9.118621e-03 5.711785e-03 3.157256e-03 1.522959e-03 5.649571e-04 1.446477e-04 3.844062e-04 9.352951e-04 
1.965973e-03 2.528355e-03 2.990039e-03 3.199518e-03 3.340961e-03 3.389645e-03 4.182957e-03 6.063701e-03 9.152536e-03 1.349731e-02 1.880064e-02 2.531691e-02 3.264496e-02 4.100487e-02 4.994480e-02 5.951265e-02 6.926309e-02 7.900192e-02 8.834841e-02 9.686002e-02 1.042834e-01 1.099941e-01 1.139297e-01 1.154136e-01 1.146266e-01 1.109881e-01 1.049819e-01 9.622955e-02 8.569776e-02 7.338144e-02 6.112565e-02 5.037398e-02 4.483164e-02 4.705887e-02 5.574264e-02 6.789852e-02 8.033820e-02 9.194191e-02 1.015518e-01 1.086677e-01 1.132464e-01 1.147923e-01 1.140750e-01 1.105348e-01 1.053750e-01 9.810504e-02 8.996391e-02 8.064430e-02 7.114100e-02 6.136076e-02 5.192721e-02 4.292987e-02 3.461855e-02 2.720139e-02 2.063289e-02 1.515788e-02 1.055762e-02 7.018290e-03 4.288144e-03 2.386369e-03 1.191995e-03 6.358318e-04 8.854365e-04 1.416576e-03 
2.811042e-03 3.347384e-03 3.750636e-03 4.011644e-03 4.414551e-03 4.965396e-03 6.361876e-03 8.607065e-03 1.193373e-02 1.634436e-02 2.167275e-02 2.810442e-02 3.526599e-02 4.336734e-02 5.192675e-02 6.104063e-02 7.020484e-02 7.932577e-02 8.796008e-02 9.581448e-02 1.025938e-01 1.078637e-01 1.115603e-01 1.132166e-01 1.130435e-01 1.106382e-01 1.064744e-01 1.002041e-01 9.267855e-02 8.373012e-02 7.512003e-02 6.784508e-02 6.425330e-02 6.548115e-02 7.087609e-02 7.921867e-02 8.800193e-02 9.646997e-02 1.034096e-01 1.085574e-01 1.117866e-01 1.126106e-01 1.116718e-01 1.083174e-01 1.035891e-01 9.696118e-02 8.947410e-02 8.088848e-02 7.198578e-02 6.281108e-02 5.379121e-02 4.517186e-02 3.704926e-02 2.975917e-02 2.316624e-02 1.758019e-02 1.277104e-02 8.910671e-03 5.820141e-03 3.455866e-03 1.870215e-03 1.148735e-03 1.541619e-03 2.243755e-03 
3.847366e-03 4.278463e-03 4.529324e-03 4.772199e-03 5.391309e-03 6.421596e-03 8.470952e-03 1.130011e-02 1.513494e-02 1.988750e-02 2.543814e-02 3.193502e-02 3.898876e-02 4.682722e-02 5.490784e-02 6.338224e-02 7.169097e-02 7.980009e-02 8.727408e-02 9.385520e-02 9.936241e-02 1.033641e-01 1.060216e-01 1.068772e-01 1.064342e-01 1.044270e-01 1.016507e-01 9.810059e-02 9.501376e-02 9.208346e-02 9.024876e-02 8.892803e-02 8.834015e-02 8.841546e-02 8.894172e-02 9.069919e-02 9.297033e-02 9.643184e-02 9.998763e-02 1.032625e-01 1.057137e-01 1.064674e-01 1.061726e-01 1.036443e-01 1.001310e-01 9.465906e-02 8.841338e-02 8.092782e-02 7.299443e-02 6.464132e-02 5.620474e-02 4.804135e-02 4.011976e-02 3.292225e-02 2.621303e-02 2.041122e-02 1.526376e-02 1.097943e-02 7.466042e-03 4.673571e-03 2.901643e-03 2.222497e-03 2.646220e-03 3.358334e-03 
5.307242e-03 5.755781e-03 5.947851e-03 6.212678e-03 6.985618e-03 8.319215e-03 1.083099e-02 1.410320e-02 1.842245e-02 2.353401e-02 2.938244e-02 3.600899e-02 4.302764e-02 5.064493e-02 5.824876e-02 6.606229e-02 7.340523e-02 8.040964e-02 8.651546e-02 9.172659e-02 9.580322e-02 9.866309e-02 1.005423e-01 1.013836e-01 1.018558e-01 1.020063e-01 1.025073e-01 1.030668e-01 1.040500e-01 1.041981e-01 1.044197e-01 1.041579e-01 1.040078e-01 1.039418e-01 1.036642e-01 1.038248e-01 1.032102e-01 1.028831e-01 1.021257e-01 1.017802e-01 1.016809e-01 1.011472e-01 1.006851e-01 9.877339e-02 9.636608e-02 9.231652e-02 8.742612e-02 8.135372e-02 7.448729e-02 6.714128e-02 5.930447e-02 5.163418e-02 4.385836e-02 3.668407e-02 2.976436e-02 2.363175e-02 1.805145e-02 1.324520e-02 9.251463e-03 6.005758e-03 4.035963e-03 3.413802e-03 3.936669e-03 4.787728e-03 
7.181561e-03 7.538361e-03 7.551506e-03 7.708230e-03 8.509974e-03 1.008905e-02 1.308645e-02 1.691067e-02 2.186204e-02 2.753054e-02 3.387439e-02 4.084551e-02 4.802004e-02 5.558336e-02 6.283699e-02 7.003453e-02 7.640809e-02 8.214203e-02 8.666833e-02 9.003416e-02 9.216286e-02 9.297668e-02 9.309001e-02 9.239994e-02 9.203772e-02 9.216373e-02 9.375029e-02 9.732227e-02 1.041950e-01 1.124188e-01 1.210284e-01 1.274493e-01 1.304295e-01 1.293122e-01 1.240414e-01 1.166212e-01 1.076653e-01 1.007541e-01 9.580852e-02 9.344760e-02 9.259157e-02 9.222358e-02 9.303803e-02 9.257668e-02 9.218364e-02 8.999051e-02 8.693812e-02 8.243951e-02 7.682098e-02 7.046288e-02 6.321743e-02 5.592430e-02 4.819282e-02 4.089833e-02 3.365248e-02 2.707520e-02 2.099854e-02 1.564021e-02 1.122787e-02 7.666438e-03 5.741527e-03 5.268303e-03 5.855693e-03 6.726934e-03 
9.509852e-03 9.907611e-03 9.856888e-03 9.999524e-03 1.081263e-02 1.250593e-02 1.581346e-02 2.000649e-02 2.548250e-02 3.161103e-02 3.842875e-02 4.572849e-02 5.308662e-02 6.063100e-02 6.755167e-02 7.416383e-02 7.947549e-02 8.386914e-02 8.648483e-02 8.773656e-02 8.733018e-02 8.578083e-02 8.385661e-02 8.229329e-02 8.277792e-02 8.610008e-02 9.278455e-02 1.022733e-01 1.134405e-01 1.227138e-01 1.307307e-01 1.360982e-01 1.387909e-01 1.380709e-01 1.339157e-01 1.278422e-01 1.185346e-01 1.086570e-01 9.788167e-02 8.957921e-02 8.439761e-02 8.222558e-02 8.348956e-02 8.483219e-02 8.679814e-02 8.725714e-02 8.632901e-02 8.389315e-02 7.957694e-02 7.437854e-02 6.765270e-02 6.073230e-02 5.294560e-02 4.546340e-02 3.781497e-02 3.072924e-02 2.412180e-02 1.818979e-02 1.337134e-02 9.539455e-03 7.652902e-03 7.352162e-03 8.034381e-03 9.038837e-03 
1.246162e-02 1.277980e-02 1.253060e-02 1.249123e-02 1.314053e-02 1.482415e-02 1.839583e-02 2.300206e-02 2.909953e-02 3.584808e-02 4.332479e-02 5.118485e-02 5.897916e-02 6.677222e-02 7.365768e-02 7.992598e-02 8.446296e-02 8.761507e-02 8.846242e-02 8.734551e-02 8.412661e-02 7.924528e-02 7.414764e-02 6.944307e-02 6.783516e-02 6.956030e-02 7.433724e-02 8.448734e-02 1.034595e-01 1.257025e-01 1.468753e-01 1.625312e-01 1.698724e-01 1.676250e-01 1.562630e-01 1.384356e-01 1.159894e-01 9.717616e-02 8.325348e-02 7.514185e-02 6.998060e-02 6.861185e-02 7.270850e-02 7.692015e-02 8.233930e-02 8.573040e-02 8.726903e-02 8.675290e-02 8.373097e-02 7.940927e-02 7.306295e-02 6.624296e-02 5.824901e-02 5.038034e-02 4.223070e-02 3.453490e-02 2.739379e-02 2.091074e-02 1.583388e-02 1.192159e-02 1.028938e-02 1.021252e-02 1.099605e-02 1.204930e-02 
1.589569e-02 1.626710e-02 1.592990e-02 1.584423e-02 1.638309e-02 1.800557e-02 2.169333e-02 2.651357e-02 3.308904e-02 4.029963e-02 4.836411e-02 5.670891e-02 6.492973e-02 7.298807e-02 7.985224e-02 8.585473e-02 8.952941e-02 9.141838e-02 8.997501e-02 8.591970e-02 7.826910e-02 6.824355e-02 5.718918e-02 4.845197e-02 4.809153e-02 5.811521e-02 7.333662e-02 9.063866e-02 1.111855e-01 1.281095e-01 1.425182e-01 1.534752e-01 1.597014e-01 1.585446e-01 1.513966e-01 1.409651e-01 1.251178e-01 1.083423e-01 8.791733e-02 6.782705e-02 5.139134e-02 4.648501e-02 5.380750e-02 6.413096e-02 7.493254e-02 8.333157e-02 8.793463e-02 9.010283e-02 8.836973e-02 8.509829e-02 7.897328e-02 7.222697e-02 6.389253e-02 5.557602e-02 4.686113e-02 3.852164e-02 3.084759e-02 2.383794e-02 1.854704e-02 1.462089e-02 1.320484e-02 1.338364e-02 1.427507e-02 1.548259e-02 
2.012445e-02 2.042683e-02 1.986016e-02 1.953146e-02 1.973896e-02 2.109963e-02 2.476318e-02 2.975808e-02 3.684673e-02 4.464360e-02 5.346029e-02 6.252655e-02 7.144195e-02 8.006489e-02 8.725855e-02 9.325835e-02 9.643469e-02 9.709380e-02 9.354578e-02 8.602876e-02 7.349162e-02 5.659372e-02 3.764194e-02 2.404775e-02 3.305434e-02 4.915625e-02 5.860873e-02 6.871671e-02 9.752350e-02 1.340176e-01 1.635018e-01 1.843245e-01 1.941819e-01 1.920733e-01 1.800522e-01 1.554412e-01 1.205237e-01 9.209666e-02 7.235482e-02 5.764245e-02 3.615909e-02 1.993810e-02 3.086778e-02 4.953942e-02 6.749523e-02 8.135546e-02 8.973507e-02 9.444495e-02 9.419911e-02 9.165265e-02 8.568444e-02 7.870447e-02 6.990803e-02 6.093922e-02 5.159682e-02 4.253841e-02 3.439049e-02 2.693812e-02 2.165731e-02 1.793388e-02 1.693409e-02 1.742386e-02 1.846217e-02 1.976525e-02 
2.480713e-02 2.516727e-02 2.446445e-02 2.404422e-02 2.402042e-02 2.515486e-02 2.870684e-02 3.368930e-02 4.113606e-02 4.931427e-02 5.878708e-02 6.844039e-02 7.800992e-02 8.716366e-02 9.465223e-02 1.007051e-01 1.032027e-01 1.026419e-01 9.630545e-02 8.489224e-02 6.551337e-02 3.992353e-02 9.130868e-03 3.583975e-02 7.469125e-02 1.201687e-01 1.491403e-01 1.395128e-01 1.276226e-01 1.251251e-01 1.232048e-01 1.239501e-01 1.271806e-01 1.293167e-01 1.342010e-01 1.379083e-01 1.429248e-01 1.570130e-01 1.565893e-01 1.260985e-01 7.933169e-02 4.625648e-02 1.744512e-02 3.435226e-02 5.760563e-02 7.860677e-02 9.089706e-02 9.905593e-02 1.002567e-01 9.872003e-02 9.274536e-02 8.554312e-02 7.615247e-02 6.648055e-02 5.646261e-02 4.666751e-02 3.807539e-02 3.023877e-02 2.502286e-02 2.156967e-02 2.093226e-02 2.178258e-02 2.296149e-02 2.446225e-02 
3.038672e-02 3.068863e-02 2.970545e-02 2.897768e-02 2.845189e-02 2.907481e-02 3.224630e-02 3.705508e-02 4.478785e-02 5.341324e-02 6.365382e-02 7.412724e-02 8.458031e-02 9.454532e-02 1.025899e-01 1.087792e-01 1.107560e-01 1.085518e-01 9.959017e-02 8.394883e-02 6.109853e-02 4.137202e-02 5.720083e-02 1.063281e-01 1.491287e-01 1.792276e-01 1.933434e-01 2.314399e-01 2.747170e-01 2.769821e-01 2.393631e-01 1.835839e-01 1.453482e-01 1.692419e-01 2.350341e-01 2.782603e-01 2.872016e-01 2.496216e-01 2.007166e-01 1.791710e-01 1.537027e-01 1.232477e-01 7.626615e-02 5.277182e-02 5.563391e-02 7.579008e-02 9.173692e-02 1.029012e-01 1.063310e-01 1.056962e-01 9.994831e-02 9.233092e-02 8.231696e-02 7.179035e-02 6.108171e-02 5.053170e-02 4.162901e-02 3.358330e-02 2.873732e-02 2.581125e-02 2.575230e-02 2.704429e-02 2.842983e-02 3.009309e-02 
3.628445e-02 3.664042e-02 3.544663e-02 3.455514e-02 3.364060e-02 3.384464e-02 3.661881e-02 4.109445e-02 4.896860e-02 5.778044e-02 6.867923e-02 7.972940e-02 9.096446e-02 1.015196e-01 1.098993e-01 1.160467e-01 1.170932e-01 1.136623e-01 1.028958e-01 8.876269e-02 7.808442e-02 9.197052e-02 1.398436e-01 2.011262e-01 2.674806e-01 3.698814e-01 4.127136e-01 4.030193e-01 3.646681e-01 2.532131e-01 1.643006e-01 1.047093e-01 7.141096e-02 8.677209e-02 1.465286e-01 2.293364e-01 3.497523e-01 4.234339e-01 4.378495e-01 3.938626e-01 2.836277e-01 2.210964e-01 1.635856e-01 1.135414e-01 8.367013e-02 8.268966e-02 9.401800e-02 1.066386e-01 1.116171e-01 1.123213e-01 1.068001e-01 9.895447e-02 8.830676e-02 7.691837e-02 6.553330e-02 5.422360e-02 4.508991e-02 3.693199e-02 3.253372e-02 3.022597e-02 3.070719e-02 3.251616e-02 3.409760e-02 3.602087e-02 
4.306597e-02 4.337796e-02 4.183207e-02 4.056129e-02 3.893925e-02 3.835979e-02 4.029185e-02 4.409650e-02 5.184713e-02 6.080973e-02 7.236214e-02 8.421309e-02 9.632700e-02 1.077088e-01 1.164329e-01 1.224348e-01 1.227662e-01 1.185406e-01 1.106474e-01 1.083297e-01 1.276323e-01 1.740028e-01 2.603372e-01 3.691915e-01 4.388196e-01 3.753666e-01 1.490441e-01 3.772800e-02 1.505961e-01 2.055666e-01 1.675851e-01 9.723487e-02 1.914440e-02 6.998526e-02 1.385125e-01 2.008056e-01 1.632108e-01 4.543878e-02 1.417458e-01 3.711154e-01 4.298490e-01 3.776410e-01 2.777544e-01 1.950642e-01 1.403734e-01 1.063866e-01 1.024777e-01 1.099457e-01 1.158603e-01 1.174515e-01 1.125699e-01 1.045408e-01 9.334141e-02 8.108429e-02 6.905635e-02 5.708037e-02 4.794742e-02 4.000747e-02 3.646870e-02 3.511858e-02 3.638320e-02 3.882398e-02 4.068329e-02 4.285549e-02 
4.987273e-02 5.022608e-02 4.837286e-02 4.683881e-02 4.461234e-02 4.335732e-02 4.448654e-02 4.748234e-02 5.500248e-02 6.378447e-02 7.590347e-02 8.811360e-02 1.009139e-01 1.124477e-01 1.209688e-01 1.262274e-01 1.256196e-01 1.236204e-01 1.245339e-01 1.450386e-01 1.913161e-01 2.658912e-01 3.745654e-01 3.522735e-01 1.386697e-01 1.272320e-01 2.166963e-01 1.020561e-01 4.220332e-02 1.187216e-01 1.405413e-01 1.145753e-01 9.643381e-02 1.038360e-01 1.354875e-01 1.173561e-01 3.969399e-02 9.006446e-02 2.211143e-01 1.443486e-01 8.140899e-02 2.919231e-01 3.560489e-01 2.687884e-01 1.999460e-01 1.440829e-01 1.192788e-01 1.156833e-01 1.184028e-01 1.206885e-01 1.165392e-01 1.087835e-01 9.737108e-02 8.431223e-02 7.181059e-02 5.915358e-02 5.019551e-02 4.263173e-02 4.010318e-02 3.986403e-02 4.191094e-02 4.508098e-02 4.720692e-02 4.971079e-02 
5.738383e-02 5.771593e-02 5.542867e-02 5.345398e-02 5.027756e-02 4.794633e-02 4.761496e-02 4.923277e-02 5.592859e-02 6.432813e-02 7.679126e-02 8.957127e-02 1.028335e-01 1.147202e-01 1.225875e-01 1.271913e-01 1.269208e-01 1.296314e-01 1.439184e-01 1.815783e-01 2.293635e-01 3.009843e-01 2.339948e-01 2.726798e-02 1.706548e-01 5.594539e-02 1.986304e-01 3.353702e-01 3.071840e-01 2.668269e-01 2.140419e-01 1.677531e-01 1.292272e-01 1.396433e-01 1.703084e-01 2.334867e-01 2.686338e-01 3.165506e-01 1.904615e-01 2.523640e-02 1.487244e-01 8.565863e-02 1.645326e-01 2.650590e-01 2.235737e-01 1.735872e-01 1.398089e-01 1.240570e-01 1.202340e-01 1.210511e-01 1.175269e-01 1.104129e-01 9.898471e-02 8.545224e-02 7.256764e-02 5.952349e-02 5.110320e-02 4.451371e-02 4.353785e-02 4.486133e-02 4.793157e-02 5.196977e-02 5.443733e-02 5.728474e-02 
6.443588e-02 6.478960e-02 6.209334e-02 5.975147e-02 5.571042e-02 5.239467e-02 5.067801e-02 5.078746e-02 5.663175e-02 6.426991e-02 7.714028e-02 8.979587e-02 1.033365e-01 1.141743e-01 1.207799e-01 1.236952e-01 1.237449e-01 1.325655e-01 1.494187e-01 1.755884e-01 1.955371e-01 1.427470e-01 6.612524e-02 1.094301e-01 9.103620e-02 2.727717e-01 2.900089e-01 1.995237e-01 1.299479e-01 9.845256e-02 9.338028e-02 9.806108e-02 9.549294e-02 8.874310e-02 7.502703e-02 6.362071e-02 8.858496e-02 1.626288e-01 2.497875e-01 2.543860e-01 1.437236e-01 6.882135e-02 9.184435e-02 9.363401e-02 1.776360e-01 1.535954e-01 1.395516e-01 1.296726e-01 1.187747e-01 1.179193e-01 1.149924e-01 1.090074e-01 9.853152e-02 8.459449e-02 7.175321e-02 5.819575e-02 5.062581e-02 4.528181e-02 4.614257e-02 4.925916e-02 5.338292e-02 5.838064e-02 6.117313e-02 6.440973e-02 
7.181315e-02 7.218302e-02 6.899041e-02 6.620177e-02 6.098314e-02 5.635802e-02 5.241397e-02 5.021229e-02 5.409321e-02 6.053298e-02 7.330345e-02 8.609800e-02 9.914552e-02 1.093428e-01 1.133998e-01 1.151098e-01 1.157902e-01 1.209166e-01 1.256867e-01 1.100278e-01 6.922514e-02 3.211283e-02 5.835285e-02 9.648833e-02 1.908392e-01 1.706467e-01 1.292492e-01 8.189889e-02 6.067178e-02 8.578632e-02 1.246969e-01 1.538118e-01 1.615058e-01 1.494969e-01 1.176676e-01 6.773157e-02 3.863933e-02 7.358653e-02 1.028751e-01 1.275281e-01 1.701878e-01 1.217203e-01 3.659007e-02 5.454385e-02 6.592829e-02 9.578843e-02 9.627634e-02 1.177867e-01 1.113225e-01 1.089282e-01 1.068258e-01 1.030506e-01 9.381362e-02 8.041326e-02 6.770565e-02 5.418512e-02 4.796503e-02 4.490806e-02 4.823058e-02 5.365996e-02 5.898805e-02 6.506856e-02 6.821727e-02 7.187016e-02 
7.806386e-02 7.843589e-02 7.476696e-02 7.156022e-02 6.524626e-02 5.938622e-02 5.331810e-02 4.868902e-02 5.069879e-02 5.570832e-02 6.895760e-02 8.122439e-02 9.401592e-02 1.014672e-01 1.033266e-01 1.010377e-01 9.910994e-02 9.252985e-02 5.459459e-02 2.381929e-02 1.351911e-02 2.327828e-02 1.611600e-02 1.067161e-01 1.243887e-01 1.258505e-01 9.661269e-02 2.910761e-02 2.965747e-02 7.402221e-02 1.063096e-01 1.263849e-01 1.338369e-01 1.264686e-01 1.102515e-01 7.573261e-02 4.133009e-02 2.778840e-02 7.554038e-02 1.102153e-01 1.167811e-01 9.797777e-02 3.461173e-02 4.365315e-02 7.559155e-03 3.244001e-02 2.721846e-02 8.129952e-02 9.134341e-02 9.313458e-02 9.454890e-02 9.312082e-02 8.691034e-02 7.371225e-02 6.163647e-02 4.754082e-02 4.306689e-02 4.283789e-02 4.903601e-02 5.700988e-02 6.354342e-02 7.072157e-02 7.418498e-02 7.822709e-02 
8.407570e-02 8.452068e-02 8.036888e-02 7.683535e-02 6.926225e-02 6.212074e-02 5.311120e-02 4.521410e-02 4.345711e-02 4.636666e-02 5.969986e-02 7.208914e-02 8.338870e-02 8.939527e-02 8.537494e-02 8.208888e-02 7.242001e-02 6.038875e-02 6.764187e-02 2.544913e-02 3.496654e-02 3.859329e-02 9.309742e-03 9.441413e-02 1.175797e-01 1.082666e-01 9.039554e-02 5.762529e-02 3.840291e-02 6.587528e-02 1.023558e-01 1.282061e-01 1.388320e-01 1.306867e-01 1.103526e-01 7.521328e-02 5.226521e-02 6.063218e-02 8.134070e-02 9.938305e-02 1.134210e-01 1.009793e-01 4.670623e-02 5.807103e-02 2.330877e-02 4.757104e-02 5.522594e-02 8.893529e-02 6.533649e-02 6.867788e-02 7.507299e-02 7.933857e-02 7.562385e-02 6.413386e-02 5.216022e-02 3.776680e-02 3.550175e-02 3.988854e-02 4.935576e-02 6.022252e-02 6.787273e-02 7.617338e-02 7.989694e-02 8.435108e-02 
8.818948e-02 8.863085e-02 8.403963e-02 8.018570e-02 7.148768e-02 6.318407e-02 5.142983e-02 4.028958e-02 3.481641e-02 3.643557e-02 5.197149e-02 6.534620e-02 7.594499e-02 7.951624e-02 7.241738e-02 6.390752e-02 8.501684e-02 1.293588e-01 1.162208e-02 9.198348e-02 7.194682e-02 8.827379e-02 4.864899e-02 9.423341e-02 1.144449e-01 1.107033e-01 9.330767e-02 6.922455e-02 6.182911e-02 7.208938e-02 8.980694e-02 1.026572e-01 1.098201e-01 1.056786e-01 9.814515e-02 8.182307e-02 7.346214e-02 7.551004e-02 9.049017e-02 1.089930e-01 1.181357e-01 1.043561e-01 7.656356e-02 7.360758e-02 1.190327e-01 6.028316e-02 4.147409e-02 1.498855e-01 9.769797e-02 5.516368e-02 6.310617e-02 6.871038e-02 6.735496e-02 5.590510e-02 4.292846e-02 2.550787e-02 2.527059e-02 3.568870e-02 4.853635e-02 6.218081e-02 7.077903e-02 8.001179e-02 8.389166e-02 8.861262e-02 
9.140261e-02 9.199150e-02 8.709134e-02 8.323702e-02 7.357717e-02 6.459304e-02 4.989220e-02 3.554180e-02 2.303901e-02 2.326969e-02 4.301295e-02 5.866401e-02 6.888698e-02 7.253410e-02 6.294500e-02 6.960220e-02 1.595982e-01 8.688872e-02 1.306623e-01 6.522675e-02 1.837847e-01 8.244867e-02 7.743532e-02 1.046984e-01 1.177898e-01 1.135792e-01 1.007597e-01 8.053128e-02 6.538078e-02 6.331260e-02 7.534098e-02 8.688830e-02 9.437550e-02 9.086770e-02 8.446847e-02 7.353617e-02 7.394080e-02 8.452865e-02 9.941137e-02 1.134144e-01 1.198117e-01 1.137651e-01 8.984805e-02 7.463443e-02 1.795963e-01 1.082183e-01 1.319008e-01 5.614699e-02 1.942028e-01 8.974401e-02 6.031532e-02 6.710624e-02 6.276901e-02 5.198696e-02 3.654633e-02 1.348496e-02 1.367128e-02 3.292446e-02 4.807991e-02 6.408337e-02 7.316023e-02 8.312848e-02 8.699646e-02 9.196731e-02 
9.200039e-02 9.260957e-02 8.751694e-02 8.370498e-02 7.340501e-02 6.405236e-02 4.709591e-02 3.065581e-02 9.828919e-03 1.764215e-02 4.357970e-02 6.455662e-02 7.360366e-02 8.763077e-02 6.752708e-02 1.289104e-01 1.908938e-01 8.699146e-02 6.716925e-02 2.391419e-01 1.469369e-01 8.964668e-02 8.646226e-02 1.125168e-01 1.174303e-01 1.141751e-01 9.966344e-02 8.204754e-02 6.700783e-02 5.868739e-02 6.006173e-02 6.309323e-02 6.794999e-02 6.687433e-02 6.800604e-02 6.711143e-02 7.406677e-02 8.592271e-02 1.002923e-01 1.146867e-01 1.210531e-01 1.182260e-01 1.000791e-01 9.205437e-02 1.373945e-01 2.524995e-01 1.763690e-02 1.283864e-01 1.708436e-01 1.766483e-01 7.173901e-02 8.807084e-02 7.017732e-02 6.046544e-02 4.101645e-02 1.703791e-02 9.022631e-03 3.245504e-02 4.791399e-02 6.502068e-02 7.406964e-02 8.420554e-02 8.784423e-02 9.275676e-02 
9.109362e-02 9.193047e-02 8.696703e-02 8.374281e-02 7.348742e-02 6.484538e-02 4.702981e-02 3.158916e-02 7.787218e-03 2.258228e-02 4.906342e-02 7.248970e-02 8.214945e-02 1.051864e-01 7.454252e-02 1.996147e-01 7.835862e-02 1.752583e-01 1.462386e-01 2.769695e-01 1.076065e-01 8.645416e-02 9.145671e-02 1.093456e-01 1.135942e-01 1.087104e-01 9.494745e-02 7.809383e-02 6.060606e-02 4.792787e-02 4.467344e-02 4.567944e-02 5.022194e-02 4.987911e-02 5.248590e-02 5.548500e-02 6.571527e-02 8.060637e-02 9.499670e-02 1.092938e-01 1.157443e-01 1.151853e-01 1.034861e-01 8.667894e-02 1.146485e-01 2.495594e-01 2.241973e-01 1.406242e-01 8.231742e-03 2.267419e-01 9.122725e-02 1.053273e-01 8.492815e-02 7.297852e-02 5.391475e-02 3.206723e-02 2.205506e-02 3.674194e-02 4.960059e-02 6.613391e-02 7.437679e-02 8.414448e-02 8.727295e-02 9.201752e-02 
8.711125e-02 8.803402e-02 8.347100e-02 8.100434e-02 7.155530e-02 6.423213e-02 4.755425e-02 3.554641e-02 2.213679e-02 3.601869e-02 6.275440e-02 8.479332e-02 1.037114e-01 1.223210e-01 1.131020e-01 2.149854e-01 1.013666e-01 8.605845e-02 3.373560e-01 2.280689e-01 1.062559e-01 6.816988e-02 9.490645e-02 1.057319e-01 1.073180e-01 1.016715e-01 8.690549e-02 7.174216e-02 5.419620e-02 4.039359e-02 3.163167e-02 2.761857e-02 3.045422e-02 3.188905e-02 3.847027e-02 4.622703e-02 5.794923e-02 7.328219e-02 8.653873e-02 1.013042e-01 1.074472e-01 1.098308e-01 1.001293e-01 7.787863e-02 1.058642e-01 1.682252e-01 3.520172e-01 4.951997e-02 1.435743e-01 2.089216e-01 1.447686e-01 1.094645e-01 1.087698e-01 8.574821e-02 7.169692e-02 4.844043e-02 3.857090e-02 4.448101e-02 5.331024e-02 6.694604e-02 7.359785e-02 8.195523e-02 8.419473e-02 8.827319e-02 
8.125549e-02 8.247586e-02 7.884152e-02 7.781060e-02 7.041439e-02 6.558379e-02 5.251528e-02 4.470709e-02 3.698396e-02 4.576292e-02 7.137022e-02 8.536461e-02 1.165921e-01 1.066811e-01 1.502540e-01 1.310283e-01 1.975950e-01 1.420885e-01 3.847749e-01 1.260771e-01 7.637885e-02 5.776121e-02 8.304436e-02 9.834853e-02 9.475520e-02 9.046280e-02 7.502270e-02 6.195861e-02 4.445193e-02 3.122312e-02 2.025455e-02 1.510516e-02 1.783158e-02 2.021589e-02 2.702012e-02 3.614611e-02 4.703694e-02 6.265927e-02 7.401797e-02 8.957989e-02 9.371949e-02 1.008764e-01 8.529270e-02 7.171301e-02 6.589758e-02 9.062843e-02 3.256606e-01 2.252072e-01 1.921007e-01 7.783120e-02 1.694880e-01 9.652701e-02 1.268721e-01 9.239262e-02 8.653075e-02 6.104464e-02 5.379247e-02 5.341829e-02 5.885241e-02 6.806743e-02 7.245941e-02 7.855444e-02 7.950434e-02 8.264580e-02 
7.229867e-02 7.373820e-02 7.158661e-02 7.239286e-02 6.841130e-02 6.666737e-02 5.943133e-02 5.509119e-02 5.292786e-02 5.571481e-02 7.829061e-02 8.079173e-02 1.158294e-01 7.994142e-02 1.491590e-01 4.371657e-02 1.785638e-01 2.818253e-01 3.122579e-01 5.036020e-02 7.765808e-03 7.168056e-02 7.809690e-02 9.639532e-02 8.575267e-02 8.209879e-02 6.519586e-02 5.421685e-02 3.749979e-02 2.637373e-02 1.392100e-02 6.049962e-03 6.667680e-03 1.170802e-02 1.910124e-02 2.912730e-02 3.826471e-02 5.293390e-02 6.239276e-02 7.816182e-02 8.178910e-02 9.240655e-02 7.634883e-02 7.083839e-02 1.226242e-02 5.043476e-02 2.521252e-01 3.438366e-01 9.485608e-02 4.504626e-02 1.500089e-01 9.257607e-02 1.304190e-01 9.592543e-02 9.432036e-02 7.059008e-02 6.685840e-02 6.271240e-02 6.561131e-02 6.934148e-02 7.083237e-02 7.341633e-02 7.250698e-02 7.402615e-02 
6.147312e-02 6.330495e-02 6.333490e-02 6.664502e-02 6.728430e-02 6.907233e-02 6.818703e-02 6.620740e-02 6.710852e-02 6.370456e-02 7.893871e-02 7.132467e-02 1.000843e-01 6.359441e-02 1.202773e-01 5.159112e-02 1.084689e-01 2.969457e-01 2.527022e-01 7.273033e-02 6.926223e-02 9.072562e-02 8.593258e-02 9.458864e-02 7.962829e-02 7.336535e-02 5.602289e-02 4.568250e-02 3.028578e-02 2.110447e-02 9.859044e-03 4.114575e-03 3.241166e-03 8.552617e-03 1.340174e-02 2.225577e-02 2.935660e-02 4.291708e-02 5.182025e-02 6.775926e-02 7.438936e-02 8.761547e-02 8.262023e-02 8.061721e-02 5.494284e-02 2.842043e-02 1.793560e-01 3.279867e-01 1.406036e-02 9.121838e-02 8.821023e-02 9.291692e-02 1.114324e-01 9.061940e-02 9.214150e-02 7.561163e-02 7.626672e-02 7.122071e-02 7.236824e-02 7.109718e-02 6.931870e-02 6.770374e-02 6.432182e-02 6.368135e-02 
4.805674e-02 5.049936e-02 5.380595e-02 6.033481e-02 6.672027e-02 7.215239e-02 7.788102e-02 7.806189e-02 8.283336e-02 7.569153e-02 8.590803e-02 7.070363e-02 9.380394e-02 6.631363e-02 9.806585e-02 4.971059e-02 6.597625e-02 2.458389e-01 2.156080e-01 1.004737e-01 1.210522e-01 1.124129e-01 1.071991e-01 9.867305e-02 8.239468e-02 6.949920e-02 5.252554e-02 4.069423e-02 2.716405e-02 1.904358e-02 1.031896e-02 6.905422e-03 4.811893e-03 7.837809e-03 1.034230e-02 1.745239e-02 2.337369e-02 3.517691e-02 4.539367e-02 6.062678e-02 7.354690e-02 8.772690e-02 9.901196e-02 1.001728e-01 1.095680e-01 8.633996e-02 1.635434e-01 2.636536e-01 6.777049e-02 8.877548e-02 4.567856e-02 8.375511e-02 7.123680e-02 7.270157e-02 8.174289e-02 7.725866e-02 8.279249e-02 7.859141e-02 7.836534e-02 7.279114e-02 6.764868e-02 6.124850e-02 5.470293e-02 5.099033e-02 
3.323476e-02 3.659813e-02 4.418465e-02 5.421272e-02 6.594920e-02 7.424890e-02 8.485699e-02 8.633676e-02 9.326449e-02 8.313480e-02 8.737552e-02 6.316004e-02 7.196325e-02 5.018587e-02 5.954858e-02 5.792425e-02 2.735712e-02 1.732925e-01 1.910392e-01 1.312928e-01 1.623166e-01 1.346890e-01 1.307539e-01 1.059653e-01 9.018591e-02 6.880913e-02 5.303874e-02 3.760736e-02 2.608939e-02 1.707807e-02 1.062533e-02 7.234003e-03 5.237105e-03 6.164055e-03 7.197428e-03 1.257403e-02 1.915158e-02 2.957263e-02 4.309825e-02 5.794302e-02 7.807478e-02 9.388478e-02 1.178994e-01 1.247649e-01 1.474271e-01 1.308445e-01 1.554993e-01 1.859437e-01 6.984231e-02 6.462415e-02 4.870685e-02 6.479910e-02 4.591682e-02 6.328909e-02 7.746257e-02 8.183472e-02 8.907701e-02 8.564695e-02 8.372539e-02 7.499748e-02 6.675693e-02 5.589325e-02 4.563338e-02 3.772145e-02 
1.689204e-02 2.318784e-02 3.699439e-02 5.055769e-02 6.668066e-02 7.719935e-02 9.139570e-02 9.430618e-02 1.034455e-01 9.310702e-02 9.535672e-02 6.772410e-02 6.610858e-02 3.290833e-02 3.516942e-02 4.396821e-02 2.650570e-02 8.644208e-02 1.602817e-01 1.385817e-01 1.771561e-01 1.444405e-01 1.424049e-01 1.093012e-01 9.457032e-02 6.793697e-02 5.338785e-02 3.537623e-02 2.543509e-02 1.550020e-02 1.043381e-02 6.409321e-03 4.254314e-03 3.674126e-03 4.626156e-03 8.893183e-03 1.712529e-02 2.636540e-02 4.281042e-02 5.730982e-02 8.238859e-02 9.965160e-02 1.308327e-01 1.426891e-01 1.696437e-01 1.588951e-01 1.526681e-01 1.271810e-01 5.031641e-02 4.246305e-02 4.016042e-02 4.339985e-02 3.743860e-02 6.104033e-02 7.620342e-02 8.496424e-02 9.258991e-02 8.966349e-02 8.663061e-02 7.596569e-02 6.564650e-02 5.144029e-02 3.778137e-02 2.453484e-02 
1.229135e-03 1.534311e-02 3.330075e-02 4.824844e-02 6.580534e-02 7.685914e-02 9.198784e-02 9.499223e-02 1.044551e-01 9.342638e-02 9.450925e-02 6.484222e-02 5.888644e-02 1.316830e-02 3.174054e-04 5.385739e-02 1.483797e-02 3.049853e-02 1.542805e-01 1.461768e-01 1.869233e-01 1.523082e-01 1.503274e-01 1.137310e-01 9.902027e-02 6.992408e-02 5.561216e-02 3.615713e-02 2.662570e-02 1.587842e-02 1.111968e-02 6.365431e-03 3.826544e-03 1.264644e-03 2.866365e-03 7.152100e-03 1.668278e-02 2.559549e-02 4.326818e-02 5.770950e-02 8.438891e-02 1.021924e-01 1.351977e-01 1.486152e-01 1.754545e-01 1.656214e-01 1.472147e-01 9.101122e-02 4.378254e-02 1.411864e-02 2.957968e-02 4.077367e-02 4.092309e-02 6.474052e-02 7.834522e-02 8.786963e-02 9.490730e-02 9.199668e-02 8.829727e-02 7.696492e-02 6.579965e-02 5.037358e-02 3.518592e-02 1.839886e-02 
1.689204e-02 2.318784e-02 3.699439e-02 5.055769e-02 6.668066e-02 7.719935e-02 9.139570e-02 9.430618e-02 1.034455e-01 9.310702e-02 9.535672e-02 6.772410e-02 6.610858e-02 3.290833e-02 3.516942e-02 4.396821e-02 2.650570e-02 8.644208e-02 1.602817e-01 1.385817e-01 1.771561e-01 1.444405e-01 1.424049e-01 1.093012e-01 9.457032e-02 6.793697e-02 5.338785e-02 3.537623e-02 2.543509e-02 1.550020e-02 1.043381e-02 6.409321e-03 4.254314e-03 3.674126e-03 4.626156e-03 8.893183e-03 1.712529e-02 2.636540e-02 4.281042e-02 5.730982e-02 8.238859e-02 9.965160e-02 1.308327e-01 1.426891e-01 1.696437e-01 1.588951e-01 1.526681e-01 1.271810e-01 5.031641e-02 4.246305e-02 4.016042e-02 4.339985e-02 3.743860e-02 6.104033e-02 7.620342e-02 8.496424e-02 9.258991e-02 8.966349e-02 8.663061e-02 7.596569e-02 6.564650e-02 5.144029e-02 3.778137e-02 2.453484e-02 
3.323476e-02 3.659813e-02 4.418465e-02 5.421272e-02 6.594920e-02 7.424890e-02 8.485699e-02 8.633676e-02 9.326449e-02 8.313480e-02 8.737552e-02 6.316004e-02 7.196325e-02 5.018587e-02 5.954858e-02 5.792425e-02 2.735712e-02 1.732925e-01 1.910392e-01 1.312928e-01 1.623166e-01 1.346890e-01 1.307539e-01 1.059653e-01 9.018591e-02 6.880913e-02 5.303874e-02 3.760736e-02 2.608939e-02 1.707807e-02 1.062533e-02 7.234003e-03 5.237105e-03 6.164055e-03 7.197428e-03 1.257403e-02 1.915158e-02 2.957263e-02 4.309825e-02 5.794302e-02 7.807478e-02 9.388478e-02 1.178994e-01 1.247649e-01 1.474271e-01 1.308445e-01 1.554993e-01 1.859437e-01 6.984231e-02 6.462415e-02 4.870685e-02 6.479910e-02 4.591682e-02 6.328909e-02 7.746257e-02 8.183472e-02 8.907701e-02 8.564695e-02 8.372539e-02 7.499748e-02 6.675693e-02 5.589325e-02 4.563338e-02 3.772145e-02 