# vtk DataFile Version 2.0
Comment goes here
ASCII

DATASET STRUCTURED_POINTS
FIELD FieldData 1
TIME 1 1 double
1.70000000
DIMENSIONS    64   64   1

ORIGIN    0.000   0.000   0.000
SPACING   0.015625 0.015625   1.000

POINT_DATA   4096
SCALARS uMag double
LOOKUP_TABLE default

1.371683e-03 1.177645e-03 1.239074e-03 6.323843e-04 6.848109e-05 1.456912e-03 3.134761e-03 5.988190e-03 9.147695e-03 1.357892e-02 1.839952e-02 2.443092e-02 3.083239e-02 3.819228e-02 4.577039e-02 5.384441e-02 6.183741e-02 6.966789e-02 7.698873e-02 8.335779e-02 8.872352e-02 9.233908e-02 9.449569e-02 9.425253e-02 9.223744e-02 8.747409e-02 8.082864e-02 7.149876e-02 6.039961e-02 4.714546e-02 3.253359e-02 1.675868e-02 4.238782e-04 1.578745e-02 3.151245e-02 4.592970e-02 5.890961e-02 6.989028e-02 7.881258e-02 8.561265e-02 9.004979e-02 9.260104e-02 9.276719e-02 9.144939e-02 8.802185e-02 8.358959e-02 7.757615e-02 7.106846e-02 6.363664e-02 5.619675e-02 4.847510e-02 4.114555e-02 3.405796e-02 2.763004e-02 2.180237e-02 1.674914e-02 1.248802e-02 8.968172e-03 6.290361e-03 4.194576e-03 2.882018e-03 1.896806e-03 1.559604e-03 1.233520e-03 
1.498896e-03 1.365356e-03 1.508876e-03 1.107254e-03 1.131531e-03 1.900387e-03 3.481155e-03 6.200271e-03 9.334036e-03 1.368444e-02 1.846610e-02 2.440219e-02 3.073793e-02 3.796987e-02 4.545020e-02 5.335790e-02 6.121767e-02 6.884534e-02 7.599586e-02 8.213630e-02 8.729988e-02 9.068724e-02 9.263717e-02 9.222538e-02 9.007835e-02 8.532874e-02 7.879673e-02 6.988395e-02 5.943630e-02 4.738666e-02 3.463325e-02 2.264842e-02 1.627532e-02 2.207314e-02 3.388499e-02 4.627915e-02 5.802294e-02 6.820902e-02 7.667318e-02 8.326623e-02 8.766381e-02 9.032040e-02 9.065811e-02 8.957619e-02 8.640130e-02 8.223121e-02 7.647779e-02 7.020808e-02 6.300592e-02 5.575877e-02 4.821936e-02 4.103038e-02 3.407219e-02 2.773241e-02 2.198205e-02 1.696750e-02 1.273468e-02 9.208138e-03 6.512192e-03 4.370161e-03 3.002304e-03 1.961813e-03 1.604431e-03 1.304865e-03 
1.363057e-03 1.376199e-03 1.708247e-03 1.638272e-03 2.166424e-03 3.103294e-03 4.772311e-03 7.403548e-03 1.052559e-02 1.480624e-02 1.948700e-02 2.532268e-02 3.146354e-02 3.854252e-02 4.574906e-02 5.345615e-02 6.100424e-02 6.841774e-02 7.529226e-02 8.127353e-02 8.630469e-02 8.968984e-02 9.177971e-02 9.163828e-02 9.001282e-02 8.589695e-02 8.030653e-02 7.246132e-02 6.342049e-02 5.316540e-02 4.295165e-02 3.467836e-02 3.121593e-02 3.468945e-02 4.301379e-02 5.292232e-02 6.292724e-02 7.168485e-02 7.904298e-02 8.466206e-02 8.830897e-02 9.039506e-02 9.031363e-02 8.900672e-02 8.570000e-02 8.154090e-02 7.585737e-02 6.972395e-02 6.269552e-02 5.562246e-02 4.827600e-02 4.123791e-02 3.443252e-02 2.818241e-02 2.251052e-02 1.750438e-02 1.325956e-02 9.653342e-03 6.848590e-03 4.544301e-03 2.979234e-03 1.740008e-03 1.253625e-03 1.013185e-03 
1.516209e-03 1.768606e-03 2.337336e-03 2.545370e-03 3.427344e-03 4.496679e-03 6.362118e-03 8.933469e-03 1.210239e-02 1.624583e-02 2.081487e-02 2.640508e-02 3.226253e-02 3.895706e-02 4.571554e-02 5.289654e-02 5.986586e-02 6.664718e-02 7.288022e-02 7.820651e-02 8.264429e-02 8.549378e-02 8.720831e-02 8.687592e-02 8.536716e-02 8.178736e-02 7.728081e-02 7.136244e-02 6.509355e-02 5.884796e-02 5.328645e-02 4.973581e-02 4.842850e-02 5.009238e-02 5.406354e-02 5.934227e-02 6.546368e-02 7.120836e-02 7.655269e-02 8.088159e-02 8.383694e-02 8.572604e-02 8.571342e-02 8.477985e-02 8.194903e-02 7.839539e-02 7.335918e-02 6.786312e-02 6.148611e-02 5.496608e-02 4.816300e-02 4.152810e-02 3.509547e-02 2.906809e-02 2.357576e-02 1.860792e-02 1.435454e-02 1.062079e-02 7.643361e-03 5.087208e-03 3.225792e-03 1.671010e-03 9.220632e-04 8.717232e-04 
1.637986e-03 2.114099e-03 2.864476e-03 3.321866e-03 4.572315e-03 5.936573e-03 8.162411e-03 1.091041e-02 1.427267e-02 1.844710e-02 2.296703e-02 2.840787e-02 3.393503e-02 4.026705e-02 4.641900e-02 5.302518e-02 5.918055e-02 6.524399e-02 7.061924e-02 7.526375e-02 7.908735e-02 8.160617e-02 8.334990e-02 8.343639e-02 8.297717e-02 8.083433e-02 7.841718e-02 7.479212e-02 7.102487e-02 6.724082e-02 6.378852e-02 6.186138e-02 6.119266e-02 6.247262e-02 6.517160e-02 6.851846e-02 7.252122e-02 7.583319e-02 7.902663e-02 8.129919e-02 8.268674e-02 8.348841e-02 8.276159e-02 8.163719e-02 7.884037e-02 7.564893e-02 7.111068e-02 6.620454e-02 6.048851e-02 5.455414e-02 4.834782e-02 4.215282e-02 3.612389e-02 3.032292e-02 2.499644e-02 2.003232e-02 1.572138e-02 1.180734e-02 8.602301e-03 5.760408e-03 3.565722e-03 1.699507e-03 2.970326e-04 7.762666e-04 
2.404357e-03 3.053269e-03 3.938101e-03 4.600700e-03 6.148970e-03 7.748389e-03 1.034807e-02 1.328423e-02 1.693537e-02 2.116271e-02 2.574086e-02 3.100589e-02 3.625655e-02 4.210711e-02 4.759752e-02 5.338145e-02 5.851461e-02 6.345786e-02 6.758126e-02 7.097214e-02 7.357826e-02 7.502264e-02 7.597649e-02 7.562380e-02 7.532646e-02 7.404909e-02 7.350576e-02 7.312422e-02 7.370135e-02 7.538210e-02 7.687295e-02 7.880683e-02 7.943211e-02 7.948479e-02 7.854299e-02 7.693353e-02 7.580756e-02 7.460951e-02 7.471764e-02 7.501953e-02 7.543287e-02 7.609506e-02 7.562277e-02 7.529536e-02 7.344638e-02 7.138817e-02 6.806500e-02 6.427189e-02 5.969203e-02 5.464499e-02 4.927986e-02 4.364460e-02 3.808062e-02 3.249238e-02 2.727397e-02 2.222222e-02 1.774333e-02 1.353859e-02 1.000476e-02 6.807729e-03 4.262663e-03 2.226133e-03 9.944954e-04 1.598406e-03 
3.665120e-03 4.315931e-03 5.166820e-03 5.931006e-03 7.691908e-03 9.537115e-03 1.254092e-02 1.579277e-02 1.983985e-02 2.431200e-02 2.907897e-02 3.437072e-02 3.942832e-02 4.494412e-02 4.972448e-02 5.469738e-02 5.855721e-02 6.220029e-02 6.464103e-02 6.648936e-02 6.754300e-02 6.792839e-02 6.851376e-02 6.873992e-02 7.032614e-02 7.171284e-02 7.466219e-02 7.731892e-02 8.014981e-02 8.325011e-02 8.531642e-02 8.765540e-02 8.837720e-02 8.840985e-02 8.725811e-02 8.491190e-02 8.266925e-02 7.918445e-02 7.683480e-02 7.410958e-02 7.210523e-02 7.116036e-02 6.969843e-02 6.943743e-02 6.805832e-02 6.699417e-02 6.489597e-02 6.231089e-02 5.900511e-02 5.495651e-02 5.052100e-02 4.549610e-02 4.040651e-02 3.502387e-02 2.987817e-02 2.470981e-02 2.003059e-02 1.552987e-02 1.168472e-02 8.211730e-03 5.467144e-03 3.567869e-03 2.635207e-03 3.106152e-03 
5.606215e-03 6.297994e-03 7.122642e-03 7.959662e-03 9.860067e-03 1.188043e-02 1.526482e-02 1.880347e-02 2.332453e-02 2.806877e-02 3.318967e-02 3.857017e-02 4.364841e-02 4.888719e-02 5.315020e-02 5.730121e-02 5.994661e-02 6.210631e-02 6.263156e-02 6.242945e-02 6.122577e-02 5.954351e-02 5.843805e-02 5.763323e-02 5.921215e-02 6.148495e-02 6.663827e-02 7.348006e-02 8.180611e-02 9.188644e-02 9.974259e-02 1.064184e-01 1.083790e-01 1.068201e-01 1.010617e-01 9.231404e-02 8.313315e-02 7.373181e-02 6.800049e-02 6.354749e-02 6.111641e-02 6.076605e-02 6.024411e-02 6.170087e-02 6.220988e-02 6.304480e-02 6.296004e-02 6.192740e-02 6.014501e-02 5.710270e-02 5.351652e-02 4.894067e-02 4.410602e-02 3.871279e-02 3.340598e-02 2.792456e-02 2.286487e-02 1.793771e-02 1.369177e-02 9.917589e-03 7.015524e-03 5.291592e-03 4.563447e-03 5.110839e-03 
8.187642e-03 8.827036e-03 9.493581e-03 1.027490e-02 1.215208e-02 1.425554e-02 1.793594e-02 2.178173e-02 2.679604e-02 3.194839e-02 3.752756e-02 4.323116e-02 4.848867e-02 5.373664e-02 5.762031e-02 6.117052e-02 6.255312e-02 6.315387e-02 6.125146e-02 5.833251e-02 5.376255e-02 4.908732e-02 4.606378e-02 4.599789e-02 5.148619e-02 5.922172e-02 6.986771e-02 7.935557e-02 8.746189e-02 9.623355e-02 1.023063e-01 1.082426e-01 1.099524e-01 1.086758e-01 1.036772e-01 9.579051e-02 8.748098e-02 7.698972e-02 6.946817e-02 6.069795e-02 5.462928e-02 5.202455e-02 5.035680e-02 5.288105e-02 5.517499e-02 5.823522e-02 6.057637e-02 6.142350e-02 6.139988e-02 5.951452e-02 5.682375e-02 5.272847e-02 4.811793e-02 4.270131e-02 3.720395e-02 3.140588e-02 2.597991e-02 2.067403e-02 1.611960e-02 1.219007e-02 9.313119e-03 7.848209e-03 7.260237e-03 7.818681e-03 
1.141249e-02 1.206926e-02 1.262013e-02 1.334394e-02 1.514843e-02 1.725236e-02 2.117331e-02 2.524951e-02 3.080215e-02 3.634338e-02 4.253902e-02 4.861364e-02 5.431749e-02 5.969776e-02 6.356413e-02 6.671557e-02 6.724410e-02 6.653573e-02 6.252443e-02 5.698903e-02 4.880529e-02 4.017516e-02 3.315059e-02 3.106342e-02 3.756323e-02 4.636281e-02 5.856753e-02 7.299235e-02 8.738114e-02 1.054805e-01 1.188201e-01 1.298807e-01 1.327878e-01 1.290539e-01 1.172831e-01 9.982034e-02 8.032334e-02 6.178641e-02 5.178739e-02 4.311075e-02 3.866451e-02 3.789212e-02 3.858687e-02 4.466705e-02 5.079290e-02 5.662082e-02 6.178684e-02 6.424800e-02 6.564498e-02 6.447178e-02 6.217708e-02 5.814511e-02 5.332704e-02 4.756362e-02 4.157850e-02 3.525585e-02 2.930785e-02 2.354166e-02 1.866320e-02 1.463423e-02 1.186853e-02 1.073247e-02 1.035412e-02 1.105831e-02 
1.532074e-02 1.594532e-02 1.628829e-02 1.685034e-02 1.839750e-02 2.035043e-02 2.431460e-02 2.853876e-02 3.453504e-02 4.052177e-02 4.735606e-02 5.401280e-02 6.030502e-02 6.618151e-02 7.028654e-02 7.349399e-02 7.345309e-02 7.176295e-02 6.563815e-02 5.713122e-02 4.410475e-02 2.887578e-02 1.261836e-02 1.566459e-02 3.702965e-02 5.812641e-02 7.590144e-02 8.735826e-02 9.167983e-02 1.008037e-01 1.071576e-01 1.153342e-01 1.175636e-01 1.144767e-01 1.050592e-01 9.220038e-02 7.877362e-02 6.515394e-02 5.902658e-02 4.406864e-02 3.222504e-02 2.326345e-02 2.119166e-02 3.188760e-02 4.363067e-02 5.354603e-02 6.238653e-02 6.702013e-02 7.002133e-02 6.972208e-02 6.779348e-02 6.383868e-02 5.876578e-02 5.264148e-02 4.616516e-02 3.933147e-02 3.292202e-02 2.677611e-02 2.171406e-02 1.773586e-02 1.520659e-02 1.440771e-02 1.420575e-02 1.502058e-02 
1.983626e-02 2.046899e-02 2.062441e-02 2.101718e-02 2.227390e-02 2.398510e-02 2.791398e-02 3.215098e-02 3.859624e-02 4.493055e-02 5.253237e-02 5.972876e-02 6.685241e-02 7.324992e-02 7.792759e-02 8.130307e-02 8.106113e-02 7.863457e-02 7.081730e-02 6.010005e-02 4.379469e-02 2.606780e-02 1.099876e-02 2.153833e-02 4.363756e-02 6.084676e-02 7.802651e-02 9.968006e-02 1.101207e-01 1.258796e-01 1.343500e-01 1.410722e-01 1.413199e-01 1.363840e-01 1.229753e-01 1.030163e-01 7.668080e-02 6.251081e-02 5.210781e-02 3.628698e-02 3.110693e-02 1.378561e-02 4.580480e-03 2.287234e-02 4.194008e-02 5.496267e-02 6.702321e-02 7.306021e-02 7.691734e-02 7.691344e-02 7.469628e-02 7.038912e-02 6.461555e-02 5.784776e-02 5.064608e-02 4.317011e-02 3.624948e-02 2.975527e-02 2.462350e-02 2.087242e-02 1.874273e-02 1.842704e-02 1.850246e-02 1.953014e-02 
2.495745e-02 2.558679e-02 2.549103e-02 2.565134e-02 2.643857e-02 2.774445e-02 3.133619e-02 3.540132e-02 4.204326e-02 4.867422e-02 5.691848e-02 6.479948e-02 7.277999e-02 8.007497e-02 8.555641e-02 8.970069e-02 8.975171e-02 8.731288e-02 7.862718e-02 6.688319e-02 5.072796e-02 4.168104e-02 4.898912e-02 6.710781e-02 9.933457e-02 1.334052e-01 1.477695e-01 1.446486e-01 1.160249e-01 1.031620e-01 9.399835e-02 8.918651e-02 8.440290e-02 8.165371e-02 7.753714e-02 7.445955e-02 7.139407e-02 9.205710e-02 1.111346e-01 9.865933e-02 8.139352e-02 4.846457e-02 2.934967e-02 1.798451e-02 3.888327e-02 5.567685e-02 7.115943e-02 7.929612e-02 8.396504e-02 8.439264e-02 8.178554e-02 7.708916e-02 7.057133e-02 6.311363e-02 5.521335e-02 4.710100e-02 3.976801e-02 3.302090e-02 2.798022e-02 2.458226e-02 2.292214e-02 2.308669e-02 2.342473e-02 2.466217e-02 
3.056169e-02 3.118912e-02 3.083331e-02 3.072586e-02 3.100686e-02 3.180034e-02 3.495816e-02 3.864587e-02 4.544414e-02 5.216500e-02 6.115631e-02 6.954353e-02 7.861281e-02 8.665085e-02 9.323157e-02 9.800582e-02 9.849804e-02 9.585416e-02 8.588972e-02 7.343319e-02 5.986423e-02 6.686248e-02 8.952889e-02 1.133668e-01 1.391285e-01 1.525803e-01 1.802949e-01 2.328233e-01 2.391438e-01 2.200151e-01 1.782899e-01 1.289790e-01 9.382976e-02 1.121523e-01 1.534544e-01 1.951681e-01 2.037926e-01 1.994865e-01 1.528517e-01 1.114269e-01 1.143110e-01 8.999816e-02 6.436950e-02 3.641328e-02 4.165826e-02 5.872797e-02 7.682599e-02 8.672902e-02 9.158667e-02 9.222576e-02 8.866776e-02 8.334458e-02 7.575269e-02 6.745290e-02 5.876859e-02 5.002629e-02 4.240595e-02 3.561166e-02 3.094634e-02 2.821110e-02 2.724223e-02 2.805610e-02 2.874444e-02 3.025475e-02 
3.654708e-02 3.720271e-02 3.654941e-02 3.616864e-02 3.578733e-02 3.594423e-02 3.828281e-02 4.132041e-02 4.780402e-02 5.441094e-02 6.377207e-02 7.267860e-02 8.257966e-02 9.165899e-02 9.928941e-02 1.052862e-01 1.066308e-01 1.045726e-01 9.474415e-02 8.352702e-02 7.849019e-02 1.090424e-01 1.507774e-01 1.910488e-01 2.661041e-01 3.457343e-01 3.500170e-01 3.048010e-01 1.993989e-01 1.331756e-01 9.113008e-02 6.043010e-02 5.927813e-02 6.356099e-02 8.089228e-02 1.240664e-01 1.639777e-01 2.293483e-01 2.844139e-01 2.707401e-01 2.201153e-01 1.489799e-01 1.137603e-01 7.464898e-02 5.277007e-02 6.568197e-02 8.282719e-02 9.477933e-02 9.927868e-02 1.000297e-01 9.544916e-02 8.935460e-02 8.072985e-02 7.148666e-02 6.210090e-02 5.271847e-02 4.494878e-02 3.822464e-02 3.410092e-02 3.214033e-02 3.189751e-02 3.337515e-02 3.441335e-02 3.622700e-02 
4.276663e-02 4.341067e-02 4.243326e-02 4.171251e-02 4.062629e-02 4.001602e-02 4.142032e-02 4.351558e-02 4.957809e-02 5.570930e-02 6.552835e-02 7.458436e-02 8.558800e-02 9.529051e-02 1.043676e-01 1.112043e-01 1.138926e-01 1.126616e-01 1.035364e-01 9.611763e-02 1.056812e-01 1.659006e-01 2.287592e-01 3.108033e-01 3.247455e-01 1.850832e-01 9.137741e-03 1.388724e-01 1.952384e-01 1.746605e-01 1.297153e-01 8.145466e-02 3.343135e-02 4.280674e-02 8.842366e-02 1.437971e-01 1.648768e-01 1.568141e-01 6.213146e-02 9.360094e-02 2.394166e-01 2.583401e-01 1.860926e-01 1.272302e-01 7.082206e-02 7.301715e-02 8.715920e-02 1.014174e-01 1.048743e-01 1.061696e-01 1.001170e-01 9.330123e-02 8.350156e-02 7.332884e-02 6.337875e-02 5.355270e-02 4.600510e-02 3.980188e-02 3.668562e-02 3.590966e-02 3.661016e-02 3.888290e-02 4.031637e-02 4.244189e-02 
4.899222e-02 4.969912e-02 4.838721e-02 4.739809e-02 4.549627e-02 4.410056e-02 4.415508e-02 4.501122e-02 4.990694e-02 5.516429e-02 6.469045e-02 7.371612e-02 8.504905e-02 9.549377e-02 1.051417e-01 1.131170e-01 1.167107e-01 1.164293e-01 1.101422e-01 1.034901e-01 1.285321e-01 2.112421e-01 2.344745e-01 1.461002e-01 6.488218e-02 1.961849e-01 1.314977e-01 2.371639e-02 1.553516e-01 1.910890e-01 1.508898e-01 9.123353e-02 5.726934e-02 1.127941e-01 1.943911e-01 2.313850e-01 2.373325e-01 1.144330e-01 4.954509e-02 1.664142e-01 1.009420e-01 9.957647e-02 2.111302e-01 2.088904e-01 1.110345e-01 9.139120e-02 9.287041e-02 1.077516e-01 1.096217e-01 1.107771e-01 1.038078e-01 9.611643e-02 8.548377e-02 7.426659e-02 6.390179e-02 5.361589e-02 4.645261e-02 4.095598e-02 3.901187e-02 3.954992e-02 4.120599e-02 4.431661e-02 4.615161e-02 4.864947e-02 
5.507667e-02 5.576781e-02 5.409853e-02 5.275381e-02 5.000905e-02 4.768709e-02 4.627256e-02 4.551223e-02 4.902109e-02 5.282732e-02 6.215369e-02 7.055405e-02 8.259598e-02 9.284778e-02 1.034119e-01 1.109807e-01 1.160368e-01 1.174825e-01 1.192105e-01 1.247898e-01 1.817757e-01 1.867553e-01 5.225571e-02 1.101302e-01 8.214925e-02 1.284329e-01 2.904603e-01 3.478569e-01 2.911106e-01 2.331690e-01 1.942926e-01 1.588856e-01 1.456712e-01 1.726682e-01 2.246395e-01 2.727249e-01 3.323166e-01 3.930733e-01 3.839415e-01 2.220330e-01 3.170131e-02 1.239139e-01 1.067316e-02 1.644180e-01 1.522466e-01 9.205463e-02 9.112309e-02 1.096230e-01 1.088144e-01 1.113772e-01 1.031891e-01 9.501807e-02 8.376380e-02 7.167472e-02 6.134398e-02 5.103109e-02 4.494770e-02 4.093750e-02 4.075421e-02 4.300911e-02 4.574266e-02 4.971920e-02 5.193794e-02 5.474636e-02 
6.067236e-02 6.146232e-02 5.945433e-02 5.791721e-02 5.429362e-02 5.121060e-02 4.799316e-02 4.547222e-02 4.657956e-02 4.835259e-02 5.632869e-02 6.382903e-02 7.527751e-02 8.551381e-02 9.449547e-02 1.015401e-01 1.033373e-01 1.030786e-01 1.102989e-01 1.235202e-01 1.104329e-01 8.773985e-03 8.244418e-02 2.800350e-03 2.061066e-01 2.616643e-01 2.053349e-01 1.274534e-01 5.988697e-02 7.273626e-02 1.018075e-01 1.170456e-01 1.245508e-01 1.246528e-01 1.159362e-01 1.016895e-01 9.496168e-02 1.599995e-01 2.532566e-01 3.429164e-01 3.106801e-01 1.173872e-01 8.069373e-02 1.572868e-02 1.203571e-01 7.592311e-02 7.969420e-02 1.023180e-01 1.037833e-01 1.069696e-01 1.001391e-01 9.204880e-02 8.086582e-02 6.785268e-02 5.750728e-02 4.707838e-02 4.215688e-02 3.999025e-02 4.171351e-02 4.584589e-02 4.964069e-02 5.454092e-02 5.714230e-02 6.033773e-02 
6.566279e-02 6.644561e-02 6.411097e-02 6.230015e-02 5.783330e-02 5.388985e-02 4.881658e-02 4.417799e-02 4.247967e-02 4.139033e-02 4.827228e-02 5.457096e-02 6.660067e-02 7.610088e-02 8.425003e-02 8.634091e-02 8.043983e-02 6.143575e-02 3.756277e-02 3.024789e-02 3.479503e-02 3.771361e-02 2.398851e-02 1.316197e-01 1.614140e-01 1.258601e-01 1.055189e-01 7.576592e-02 1.633689e-02 7.746350e-02 1.373741e-01 1.705087e-01 1.848830e-01 1.777699e-01 1.504608e-01 1.033368e-01 5.018146e-02 7.974197e-02 1.175696e-01 1.537342e-01 2.060750e-01 2.400145e-01 1.140669e-01 4.609952e-02 4.078063e-02 6.552292e-02 5.357622e-02 1.020799e-01 9.160714e-02 9.775312e-02 9.214822e-02 8.419390e-02 7.380839e-02 5.982670e-02 5.013741e-02 4.013960e-02 3.744217e-02 3.827195e-02 4.238235e-02 4.855224e-02 5.333946e-02 5.902169e-02 6.191821e-02 6.535992e-02 
6.962508e-02 7.053821e-02 6.792828e-02 6.609360e-02 6.085607e-02 5.645418e-02 4.945324e-02 4.306804e-02 3.749822e-02 3.289440e-02 3.740723e-02 4.292160e-02 5.533491e-02 6.663506e-02 7.379261e-02 8.100474e-02 7.595884e-02 7.828121e-02 8.259330e-02 3.402351e-02 3.544604e-02 3.740159e-02 6.634042e-02 9.954752e-02 1.221801e-01 1.094647e-01 6.569618e-02 4.277905e-02 6.296935e-02 9.294318e-02 1.258628e-01 1.423048e-01 1.506347e-01 1.428358e-01 1.228593e-01 9.078307e-02 5.257406e-02 3.254727e-02 7.070736e-02 1.211430e-01 1.406887e-01 1.350613e-01 1.405054e-01 2.319390e-02 1.990455e-02 6.897207e-02 5.694875e-02 9.939856e-02 7.041951e-02 8.823801e-02 8.507869e-02 7.946881e-02 6.853954e-02 5.279827e-02 4.207077e-02 3.157080e-02 3.084643e-02 3.541183e-02 4.194884e-02 5.025377e-02 5.595373e-02 6.243621e-02 6.559514e-02 6.934479e-02 
7.250557e-02 7.343975e-02 7.064122e-02 6.875011e-02 6.291857e-02 5.809118e-02 4.936636e-02 4.126314e-02 3.136002e-02 2.206083e-02 2.483283e-02 3.291868e-02 4.913087e-02 6.672729e-02 7.833378e-02 9.553600e-02 1.143164e-01 1.222466e-01 1.386601e-02 7.417705e-02 1.775370e-02 2.486678e-02 4.785471e-02 7.933927e-02 9.741924e-02 1.043234e-01 8.999256e-02 7.493863e-02 6.777014e-02 8.633433e-02 1.200661e-01 1.406989e-01 1.512837e-01 1.427519e-01 1.207308e-01 8.689907e-02 6.007289e-02 6.744256e-02 9.444768e-02 1.169514e-01 1.321387e-01 1.317002e-01 1.271129e-01 3.537966e-02 7.991215e-02 7.917395e-02 3.788652e-02 1.490552e-01 1.088640e-01 9.791549e-02 8.844450e-02 7.636259e-02 6.377005e-02 4.463119e-02 3.254378e-02 2.097649e-02 2.366027e-02 3.314457e-02 4.191521e-02 5.190349e-02 5.821422e-02 6.514115e-02 6.842102e-02 7.226592e-02 
7.388331e-02 7.496631e-02 7.207108e-02 7.042116e-02 6.421296e-02 5.954890e-02 4.948429e-02 4.091072e-02 2.674652e-02 1.329090e-02 1.308033e-02 2.727718e-02 4.701140e-02 6.756441e-02 8.089952e-02 1.041266e-01 1.673916e-01 9.656727e-02 9.630990e-02 3.321904e-02 1.207091e-01 7.361677e-02 9.048603e-02 9.978123e-02 1.130254e-01 1.111377e-01 9.772535e-02 8.840647e-02 8.632251e-02 9.051607e-02 1.039630e-01 1.104033e-01 1.155768e-01 1.098794e-01 1.006643e-01 8.800745e-02 8.321252e-02 9.043090e-02 1.077721e-01 1.299552e-01 1.435443e-01 1.412759e-01 1.288799e-01 6.969408e-02 1.375885e-01 6.963526e-02 1.405275e-01 3.196931e-02 1.599243e-01 1.318290e-01 1.141469e-01 8.952676e-02 7.090474e-02 4.500371e-02 2.792112e-02 9.317453e-03 1.537875e-02 3.063548e-02 4.117249e-02 5.253228e-02 5.922946e-02 6.646699e-02 6.976084e-02 7.369730e-02 
7.378695e-02 7.494088e-02 7.215340e-02 7.080895e-02 6.464731e-02 6.038519e-02 4.976569e-02 4.151254e-02 2.497013e-02 1.324069e-02 1.330509e-02 3.563940e-02 5.498499e-02 8.792363e-02 9.286413e-02 1.644095e-01 2.146951e-01 5.475715e-02 7.167169e-02 1.770192e-01 1.072128e-01 1.039220e-01 1.056271e-01 1.187092e-01 1.193582e-01 1.202888e-01 1.060687e-01 9.321200e-02 8.015544e-02 7.693602e-02 8.607906e-02 9.246996e-02 9.790977e-02 9.259515e-02 8.433154e-02 7.519458e-02 7.799916e-02 9.425317e-02 1.146859e-01 1.346111e-01 1.446498e-01 1.474607e-01 1.274294e-01 9.642123e-02 9.763467e-02 2.178441e-01 2.644126e-02 1.341421e-01 1.218928e-01 1.900128e-01 1.104794e-01 9.277144e-02 7.213122e-02 4.576561e-02 2.747243e-02 3.708139e-03 1.286529e-02 3.055150e-02 4.155673e-02 5.306373e-02 5.970634e-02 6.671185e-02 6.985863e-02 7.363138e-02 
7.188560e-02 7.319323e-02 7.066322e-02 6.990364e-02 6.419444e-02 6.088271e-02 5.058860e-02 4.391235e-02 2.803554e-02 2.330131e-02 2.575977e-02 4.840915e-02 6.792127e-02 1.087672e-01 1.056993e-01 2.345840e-01 8.890887e-02 1.704854e-01 1.197640e-01 2.373298e-01 1.060485e-01 1.172916e-01 1.137348e-01 1.234587e-01 1.220872e-01 1.180697e-01 1.034972e-01 9.079935e-02 7.703759e-02 6.848628e-02 6.731689e-02 6.582690e-02 6.803901e-02 6.520056e-02 6.534263e-02 6.753941e-02 7.785664e-02 9.455387e-02 1.129683e-01 1.306632e-01 1.412745e-01 1.395084e-01 1.265896e-01 9.193219e-02 8.792991e-02 2.063703e-01 2.043483e-01 1.319272e-01 1.850184e-02 2.311720e-01 1.335877e-01 1.094918e-01 8.566028e-02 5.425430e-02 3.604339e-02 1.611230e-02 1.866415e-02 3.239120e-02 4.257866e-02 5.311885e-02 5.921801e-02 6.557390e-02 6.832827e-02 7.181352e-02 
6.829018e-02 6.974147e-02 6.782693e-02 6.784131e-02 6.333800e-02 6.134553e-02 5.283520e-02 4.829539e-02 3.623399e-02 3.556814e-02 4.116341e-02 5.955655e-02 8.614981e-02 1.146917e-01 1.489669e-01 2.521057e-01 8.674240e-02 6.656374e-02 3.115288e-01 1.848674e-01 1.156271e-01 9.487360e-02 1.110865e-01 1.162868e-01 1.145284e-01 1.103973e-01 9.496277e-02 8.188682e-02 6.476779e-02 5.393752e-02 4.970795e-02 4.783757e-02 4.977829e-02 4.715946e-02 4.789271e-02 5.234135e-02 6.504996e-02 8.408081e-02 1.024202e-01 1.204020e-01 1.295186e-01 1.317676e-01 1.190700e-01 8.955314e-02 9.900081e-02 1.468746e-01 3.245229e-01 5.209867e-02 1.754696e-01 1.859547e-01 1.885000e-01 1.059165e-01 1.034837e-01 5.900671e-02 4.546741e-02 2.543372e-02 2.734827e-02 3.572488e-02 4.446773e-02 5.281420e-02 5.798316e-02 6.309342e-02 6.528834e-02 6.823170e-02 
6.282573e-02 6.445751e-02 6.340067e-02 6.442268e-02 6.174892e-02 6.133812e-02 5.571449e-02 5.302267e-02 4.569974e-02 4.507722e-02 5.491208e-02 6.488823e-02 1.057518e-01 1.041692e-01 1.948784e-01 1.732364e-01 1.891514e-01 1.276945e-01 3.254832e-01 1.005170e-01 8.673080e-02 7.482667e-02 9.122829e-02 1.045414e-01 1.003561e-01 9.765906e-02 8.222128e-02 7.108663e-02 5.445490e-02 4.349104e-02 3.472235e-02 2.922186e-02 2.915583e-02 2.845263e-02 3.383725e-02 4.299125e-02 5.650043e-02 7.404509e-02 8.980465e-02 1.063178e-01 1.139172e-01 1.182030e-01 1.024614e-01 8.424157e-02 5.258052e-02 7.469938e-02 3.014472e-01 2.474944e-01 1.891435e-01 6.524521e-02 2.121694e-01 9.199685e-02 1.110873e-01 5.944167e-02 5.374544e-02 3.470979e-02 3.844964e-02 4.141825e-02 4.796083e-02 5.289970e-02 5.635833e-02 5.956826e-02 6.075059e-02 6.289174e-02 
5.568302e-02 5.758993e-02 5.791859e-02 6.025870e-02 6.036062e-02 6.179379e-02 6.034908e-02 5.909389e-02 5.709570e-02 5.386111e-02 6.620669e-02 6.597614e-02 1.147964e-01 9.167809e-02 1.903561e-01 5.552429e-02 1.638672e-01 2.777496e-01 2.727681e-01 4.855978e-02 2.725190e-02 6.496113e-02 7.343696e-02 9.257874e-02 8.482961e-02 8.345435e-02 6.758092e-02 5.814643e-02 4.163080e-02 3.201797e-02 2.244803e-02 1.761188e-02 1.705967e-02 1.617540e-02 2.113219e-02 3.060417e-02 4.321085e-02 6.018915e-02 7.462466e-02 9.113164e-02 9.886443e-02 1.059848e-01 9.299542e-02 7.787986e-02 1.788819e-02 4.114626e-02 2.256581e-01 3.284322e-01 9.046571e-02 7.128144e-02 2.058261e-01 1.208669e-01 1.056850e-01 6.444017e-02 5.805435e-02 4.268106e-02 4.764206e-02 4.690246e-02 5.135381e-02 5.260710e-02 5.398154e-02 5.480596e-02 5.470140e-02 5.579534e-02 
4.686845e-02 4.912818e-02 5.124561e-02 5.516994e-02 5.861794e-02 6.196584e-02 6.498238e-02 6.492970e-02 6.730812e-02 6.161664e-02 7.206209e-02 6.504775e-02 1.036562e-01 1.004617e-01 1.615065e-01 4.118075e-02 7.186216e-02 2.910700e-01 2.040401e-01 3.929440e-02 4.786275e-02 7.159538e-02 7.446968e-02 8.535682e-02 7.461343e-02 7.073925e-02 5.503357e-02 4.662206e-02 3.180526e-02 2.424885e-02 1.410193e-02 8.842611e-03 6.239744e-03 7.529840e-03 1.421996e-02 2.384654e-02 3.440551e-02 4.896146e-02 6.199646e-02 7.764204e-02 8.832946e-02 9.773913e-02 9.719762e-02 8.616649e-02 7.105253e-02 4.756164e-02 1.611122e-01 3.138208e-01 4.883034e-02 1.258039e-01 1.579416e-01 1.444420e-01 8.144123e-02 6.474963e-02 5.784843e-02 5.151045e-02 5.605438e-02 5.398471e-02 5.535148e-02 5.325804e-02 5.165686e-02 4.965594e-02 4.755046e-02 4.721656e-02 
3.667329e-02 3.960556e-02 4.424607e-02 5.015333e-02 5.738056e-02 6.278331e-02 7.005624e-02 7.164097e-02 7.745472e-02 7.135524e-02 7.760069e-02 6.420633e-02 8.182429e-02 9.669353e-02 1.242244e-01 5.791334e-02 2.303773e-02 2.299428e-01 1.797433e-01 8.723927e-02 1.047317e-01 9.299745e-02 9.372259e-02 8.587942e-02 7.344546e-02 6.205118e-02 4.672432e-02 3.648564e-02 2.337388e-02 1.688074e-02 8.238981e-03 5.188055e-03 1.547212e-03 3.049412e-03 8.160200e-03 1.660669e-02 2.598078e-02 3.951350e-02 5.353013e-02 7.017619e-02 8.659508e-02 1.008619e-01 1.147243e-01 1.144821e-01 1.230227e-01 1.015252e-01 1.396640e-01 2.570700e-01 1.095000e-01 1.360399e-01 1.157226e-01 1.385910e-01 5.560880e-02 6.378199e-02 5.907279e-02 6.100035e-02 6.292827e-02 6.067005e-02 5.850656e-02 5.387097e-02 4.897696e-02 4.407048e-02 3.940567e-02 3.727639e-02 
2.531804e-02 2.942947e-02 3.734825e-02 4.545057e-02 5.626253e-02 6.354226e-02 7.432535e-02 7.775940e-02 8.653524e-02 8.229126e-02 8.710895e-02 7.300410e-02 7.379714e-02 8.466213e-02 8.891117e-02 5.926916e-02 2.115907e-02 1.672985e-01 1.527249e-01 1.175634e-01 1.418803e-01 1.190793e-01 1.166131e-01 9.345640e-02 7.936003e-02 5.885026e-02 4.412833e-02 2.992702e-02 1.911468e-02 1.212268e-02 5.835476e-03 3.944216e-03 1.438473e-03 3.449488e-03 6.477656e-03 1.290858e-02 2.115965e-02 3.339919e-02 4.885310e-02 6.683494e-02 8.869211e-02 1.086464e-01 1.323305e-01 1.451008e-01 1.613356e-01 1.579154e-01 1.521183e-01 2.105217e-01 1.132570e-01 1.106061e-01 1.052348e-01 1.080968e-01 3.376805e-02 6.533377e-02 6.175711e-02 7.032408e-02 6.825169e-02 6.677461e-02 6.107602e-02 5.491929e-02 4.676569e-02 3.919046e-02 3.123307e-02 2.655416e-02 
1.334692e-02 2.017645e-02 3.208840e-02 4.214963e-02 5.556567e-02 6.415463e-02 7.706007e-02 8.193181e-02 9.228766e-02 9.021739e-02 9.401591e-02 8.191446e-02 7.053676e-02 6.305435e-02 5.138512e-02 5.061234e-02 3.003824e-02 9.863673e-02 1.445612e-01 1.418383e-01 1.664211e-01 1.391963e-01 1.338026e-01 1.017989e-01 8.633262e-02 5.933150e-02 4.496406e-02 2.673350e-02 1.761651e-02 8.326672e-03 4.353193e-03 2.155622e-03 1.214591e-03 2.974454e-03 5.359296e-03 1.095870e-02 1.958673e-02 3.171527e-02 4.883893e-02 6.846255e-02 9.355659e-02 1.182569e-01 1.459997e-01 1.687494e-01 1.843988e-01 1.947807e-01 1.612358e-01 1.786281e-01 7.114446e-02 6.933786e-02 8.816265e-02 8.371863e-02 3.657128e-02 7.790196e-02 6.753622e-02 7.918159e-02 7.243135e-02 7.144165e-02 6.284653e-02 5.579884e-02 4.516938e-02 3.558196e-02 2.427166e-02 1.590629e-02 
4.011332e-03 1.567171e-02 3.001613e-02 4.095308e-02 5.540443e-02 6.454425e-02 7.833221e-02 8.391205e-02 9.517371e-02 9.444130e-02 9.882635e-02 8.918211e-02 7.559637e-02 5.896103e-02 1.436554e-02 4.102375e-02 3.618143e-02 5.608576e-02 1.318608e-01 1.439410e-01 1.700624e-01 1.439959e-01 1.380674e-01 1.039821e-01 8.823697e-02 5.922522e-02 4.512083e-02 2.546319e-02 1.715846e-02 6.779220e-03 4.062774e-03 1.410217e-04 5.692643e-05 2.095765e-03 4.323336e-03 9.451236e-03 1.809675e-02 3.011809e-02 4.783432e-02 6.810086e-02 9.443002e-02 1.209083e-01 1.501732e-01 1.764507e-01 1.919586e-01 2.067387e-01 1.645303e-01 1.620119e-01 4.052855e-02 3.326866e-02 8.091854e-02 7.271098e-02 3.756982e-02 8.182588e-02 6.858016e-02 8.151229e-02 7.328005e-02 7.271042e-02 6.320832e-02 5.601567e-02 4.453361e-02 3.425028e-02 2.133190e-02 9.817630e-03 
1.334692e-02 2.017645e-02 3.208840e-02 4.214963e-02 5.556567e-02 6.415463e-02 7.706007e-02 8.193181e-02 9.228766e-02 9.021739e-02 9.401591e-02 8.191446e-02 7.053676e-02 6.305435e-02 5.138512e-02 5.061234e-02 3.003824e-02 9.863673e-02 1.445612e-01 1.418383e-01 1.664211e-01 1.391963e-01 1.338026e-01 1.017989e-01 8.633262e-02 5.933150e-02 4.496406e-02 2.673350e-02 1.761651e-02 8.326672e-03 4.353193e-03 2.155622e-03 1.214591e-03 2.974454e-03 5.359296e-03 1.095870e-02 1.958673e-02 3.171527e-02 4.883893e-02 6.846255e-02 9.355659e-02 1.182569e-01 1.459997e-01 1.687494e-01 1.843988e-01 1.947807e-01 1.612358e-01 1.786281e-01 7.114446e-02 6.933786e-02 8.816265e-02 8.371863e-02 3.657128e-02 7.790196e-02 6.753622e-02 7.918159e-02 7.243135e-02 7.144165e-02 6.284653e-02 5.579884e-02 4.516938e-02 3.558196e-02 2.427166e-02 1.590629e-02 
2.531804e-02 2.942947e-02 3.734825e-02 4.545057e-02 5.626253e-02 6.354226e-02 7.432535e-02 7.775940e-02 8.653524e-02 8.229126e-02 8.710895e-02 7.300410e-02 7.379714e-02 8.466213e-02 8.891117e-02 5.926916e-02 2.115907e-02 1.672985e-01 1.527249e-01 1.175634e-01 1.418803e-01 1.190793e-01 1.166131e-01 9.345640e-02 7.936003e-02 5.885026e-02 4.412833e-02 2.992702e-02 1.911468e-02 1.212268e-02 5.835476e-03 3.944216e-03 1.438473e-03 3.449488e-03 6.477656e-03 1.290858e-02 2.115965e-02 3.339919e-02 4.885310e-02 6.683494e-02 8.869211e-02 1.086464e-01 1.323305e-01 1.451008e-01 1.613356e-01 1.579154e-01 1.521183e-01 2.105217e-01 1.132570e-01 1.106061e-01 1.052348e-01 1.080968e-01 3.376805e-02 6.533377e-02 6.175711e-02 7.032408e-02 6.825169e-02 6.677461e-02 6.107602e-02 5.491929e-02 4.676569e-02 3.919046e-02 3.123307e-02 2.655416e-02 