# vtk DataFile Version 2.0
Comment goes here
ASCII

DATASET STRUCTURED_POINTS
FIELD FieldData 1
TIME 1 1 double
0.34000000
DIMENSIONS    64   64   1

ORIGIN    0.000   0.000   0.000
SPACING   0.015625 0.015625   1.000

POINT_DATA   4096
SCALARS uMag double
LOOKUP_TABLE default

1.760578e-04 2.838222e-02 5.667377e-02 8.501561e-02 1.135192e-01 1.421125e-01 1.708640e-01 1.996391e-01 2.284193e-01 2.569886e-01 2.851726e-01 3.126759e-01 3.390663e-01 3.640187e-01 3.867030e-01 4.069026e-01 4.232144e-01 4.358096e-01 4.425200e-01 4.443692e-01 4.382607e-01 4.267170e-01 4.056604e-01 3.798018e-01 3.442424e-01 3.062135e-01 2.604123e-01 2.158490e-01 1.673620e-01 1.233012e-01 7.906130e-02 3.917693e-02 8.604628e-05 3.923747e-02 7.923190e-02 1.233279e-01 1.675354e-01 2.158602e-01 2.605866e-01 3.062583e-01 3.444084e-01 3.799269e-01 4.058374e-01 4.269216e-01 4.384450e-01 4.446083e-01 4.426849e-01 4.360287e-01 4.233288e-01 4.070592e-01 3.867438e-01 3.640885e-01 3.390224e-01 3.126512e-01 2.850437e-01 2.568742e-01 2.282137e-01 1.994476e-01 1.705954e-01 1.418611e-01 1.132044e-01 8.472378e-02 5.633102e-02 2.807006e-02 
2.822663e-02 4.002922e-02 6.332992e-02 8.960941e-02 1.170327e-01 1.449650e-01 1.732964e-01 2.017690e-01 2.303567e-01 2.587701e-01 2.868705e-01 3.142923e-01 3.406558e-01 3.655655e-01 3.882442e-01 4.084187e-01 4.247160e-01 4.372941e-01 4.439532e-01 4.457943e-01 4.395726e-01 4.280326e-01 4.067855e-01 3.809340e-01 3.451429e-01 3.071400e-01 2.612894e-01 2.170456e-01 1.694115e-01 1.270578e-01 8.664023e-02 5.442048e-02 3.920728e-02 5.445689e-02 8.676559e-02 1.270689e-01 1.695576e-01 2.170301e-01 2.614421e-01 3.071534e-01 3.452899e-01 3.810353e-01 4.069492e-01 4.282239e-01 4.397492e-01 4.460283e-01 4.441154e-01 4.375144e-01 4.248329e-01 4.085818e-01 3.882927e-01 3.656465e-01 3.406245e-01 3.142830e-01 2.867587e-01 2.586747e-01 2.301721e-01 2.016001e-01 1.730531e-01 1.447407e-01 1.167502e-01 8.935496e-02 6.304518e-02 3.982557e-02 
5.642921e-02 6.316821e-02 7.998242e-02 1.020652e-01 1.268280e-01 1.530150e-01 1.801262e-01 2.077440e-01 2.357057e-01 2.636801e-01 2.914749e-01 3.186972e-01 3.449706e-01 3.698438e-01 3.926142e-01 4.128951e-01 4.294873e-01 4.423552e-01 4.495902e-01 4.520142e-01 4.467633e-01 4.362523e-01 4.164471e-01 3.921639e-01 3.581954e-01 3.221295e-01 2.781281e-01 2.356052e-01 1.896105e-01 1.486224e-01 1.116088e-01 8.449386e-02 7.476699e-02 8.451941e-02 1.116849e-01 1.486329e-01 1.897478e-01 2.355924e-01 2.783084e-01 3.221495e-01 3.583676e-01 3.922914e-01 4.166343e-01 4.364789e-01 4.469606e-01 4.522783e-01 4.497681e-01 4.425945e-01 4.296142e-01 4.130667e-01 3.926673e-01 3.699253e-01 3.449393e-01 3.186832e-01 2.913601e-01 2.635774e-01 2.355175e-01 2.075683e-01 1.798823e-01 1.527897e-01 1.265567e-01 1.018297e-01 7.974822e-02 6.303266e-02 
8.447953e-02 8.912432e-02 1.017586e-01 1.199360e-01 1.416805e-01 1.656278e-01 1.911020e-01 2.174929e-01 2.445772e-01 2.718786e-01 2.992410e-01 3.261183e-01 3.522472e-01 3.769869e-01 3.998262e-01 4.201513e-01 4.370258e-01 4.501832e-01 4.579941e-01 4.611319e-01 4.568694e-01 4.477117e-01 4.293341e-01 4.070703e-01 3.747537e-01 3.409277e-01 2.985287e-01 2.578936e-01 2.142204e-01 1.758965e-01 1.435842e-01 1.205111e-01 1.138393e-01 1.205297e-01 1.435881e-01 1.759008e-01 2.143161e-01 2.578394e-01 2.986988e-01 3.408829e-01 3.749123e-01 4.071751e-01 4.295196e-01 4.479500e-01 4.570734e-01 4.614183e-01 4.581835e-01 4.504457e-01 4.371689e-01 4.203461e-01 3.999008e-01 3.770931e-01 3.522428e-01 3.261317e-01 2.991584e-01 2.718075e-01 2.444269e-01 2.173543e-01 1.909037e-01 1.654482e-01 1.414672e-01 1.197600e-01 1.015956e-01 8.903936e-02 
1.124350e-01 1.159791e-01 1.259596e-01 1.410993e-01 1.600480e-01 1.816959e-01 2.053121e-01 2.302656e-01 2.562206e-01 2.826659e-01 3.093868e-01 3.357812e-01 3.616167e-01 3.861399e-01 4.090116e-01 4.294173e-01 4.467966e-01 4.605699e-01 4.697171e-01 4.744813e-01 4.728820e-01 4.669240e-01 4.528383e-01 4.355122e-01 4.085834e-01 3.802780e-01 3.421115e-01 3.041095e-01 2.595642e-01 2.166622e-01 1.792197e-01 1.508482e-01 1.429448e-01 1.508704e-01 1.791573e-01 2.166678e-01 2.596251e-01 3.040428e-01 3.423370e-01 3.802084e-01 4.087770e-01 4.356646e-01 4.530676e-01 4.672390e-01 4.731278e-01 4.748304e-01 4.699389e-01 4.608714e-01 4.469624e-01 4.296320e-01 4.091012e-01 3.862541e-01 3.616223e-01 3.357967e-01 3.093119e-01 2.825955e-01 2.560790e-01 2.301306e-01 2.051275e-01 1.815276e-01 1.598584e-01 1.409458e-01 1.258271e-01 1.159123e-01 
1.400363e-01 1.429055e-01 1.511655e-01 1.640720e-01 1.807512e-01 2.003326e-01 2.221945e-01 2.456849e-01 2.704804e-01 2.959662e-01 3.219797e-01 3.477576e-01 3.732251e-01 3.973986e-01 4.202690e-01 4.407166e-01 4.587433e-01 4.733972e-01 4.844239e-01 4.916674e-01 4.938249e-01 4.926232e-01 4.841308e-01 4.734762e-01 4.522462e-01 4.299220e-01 3.943254e-01 3.576117e-01 3.126624e-01 2.681124e-01 2.283915e-01 1.958420e-01 1.871704e-01 1.958795e-01 2.282449e-01 2.681613e-01 3.127036e-01 3.574962e-01 3.945750e-01 4.297089e-01 4.524228e-01 4.736283e-01 4.843854e-01 4.930066e-01 4.941063e-01 4.920813e-01 4.846792e-01 4.737475e-01 4.589427e-01 4.409707e-01 4.203956e-01 3.975496e-01 3.732720e-01 3.478115e-01 3.219506e-01 2.959373e-01 2.703887e-01 2.455953e-01 2.220636e-01 2.002130e-01 1.806162e-01 1.639647e-01 1.510749e-01 1.428607e-01 
1.673978e-01 1.698330e-01 1.768800e-01 1.881312e-01 2.029511e-01 2.207479e-01 2.409377e-01 2.629907e-01 2.865003e-01 3.109047e-01 3.359533e-01 3.608980e-01 3.856723e-01 4.092691e-01 4.319107e-01 4.523972e-01 4.713281e-01 4.875496e-01 5.018350e-01 5.135315e-01 5.225944e-01 5.297215e-01 5.319153e-01 5.328245e-01 5.239045e-01 5.132972e-01 4.862919e-01 4.550495e-01 4.040048e-01 3.442169e-01 2.860006e-01 2.367551e-01 2.222480e-01 2.368287e-01 2.857237e-01 3.442605e-01 4.039589e-01 4.548780e-01 4.867110e-01 5.129710e-01 5.240860e-01 5.331058e-01 5.322560e-01 5.302769e-01 5.229647e-01 5.140605e-01 5.021538e-01 4.879598e-01 4.715673e-01 4.526769e-01 4.320615e-01 4.094291e-01 3.857355e-01 3.609551e-01 3.359377e-01 3.108792e-01 2.864229e-01 2.629081e-01 2.408240e-01 2.206402e-01 2.028360e-01 1.880382e-01 1.768055e-01 1.697956e-01 
1.941109e-01 1.962284e-01 2.024336e-01 2.124470e-01 2.258385e-01 2.421495e-01 2.609063e-01 2.816138e-01 3.038915e-01 3.271389e-01 3.511439e-01 3.750744e-01 3.990431e-01 4.219326e-01 4.444554e-01 4.652680e-01 4.859415e-01 5.050207e-01 5.247318e-01 5.436058e-01 5.630726e-01 5.822133e-01 5.984263e-01 6.140418e-01 6.175878e-01 6.189720e-01 5.944106e-01 5.625658e-01 5.100943e-01 4.514447e-01 3.889608e-01 3.278995e-01 3.085968e-01 3.280173e-01 3.884506e-01 4.515908e-01 5.100727e-01 5.622538e-01 5.949634e-01 6.182825e-01 6.176436e-01 6.144241e-01 5.988512e-01 5.829701e-01 5.635448e-01 5.442731e-01 5.251298e-01 5.055150e-01 4.862435e-01 4.656041e-01 4.446620e-01 4.221396e-01 3.991612e-01 3.751777e-01 3.511841e-01 3.271612e-01 3.038702e-01 2.815795e-01 2.608465e-01 2.420873e-01 2.257696e-01 2.123894e-01 2.023877e-01 1.962049e-01 
2.203238e-01 2.222293e-01 2.277891e-01 2.368685e-01 2.490779e-01 2.641413e-01 2.815466e-01 3.009547e-01 3.218464e-01 3.437699e-01 3.663484e-01 3.889446e-01 4.116292e-01 4.335924e-01 4.558424e-01 4.774720e-01 5.008703e-01 5.248894e-01 5.529981e-01 5.830769e-01 6.177629e-01 6.535252e-01 6.891302e-01 7.227809e-01 7.462923e-01 7.655184e-01 7.611587e-01 7.552028e-01 7.019228e-01 6.187895e-01 5.236217e-01 4.343015e-01 4.041247e-01 4.345348e-01 5.227233e-01 6.187295e-01 7.015648e-01 7.547372e-01 7.624328e-01 7.645266e-01 7.460228e-01 7.235205e-01 6.896969e-01 6.546135e-01 6.184204e-01 5.839321e-01 5.535291e-01 5.254728e-01 5.012480e-01 4.778390e-01 4.560864e-01 4.338046e-01 4.117664e-01 3.890469e-01 3.664022e-01 3.437934e-01 3.218388e-01 3.009261e-01 2.815018e-01 2.640884e-01 2.490236e-01 2.368201e-01 2.277529e-01 2.222098e-01 
2.454717e-01 2.471935e-01 2.522874e-01 2.606165e-01 2.718919e-01 2.858639e-01 3.020676e-01 3.201783e-01 3.396606e-01 3.600855e-01 3.810879e-01 4.021370e-01 4.235440e-01 4.447897e-01 4.676260e-01 4.915915e-01 5.204647e-01 5.530952e-01 5.946561e-01 6.410009e-01 6.963223e-01 7.519091e-01 8.089492e-01 8.610428e-01 9.005710e-01 9.388962e-01 9.305715e-01 9.053389e-01 8.550436e-01 8.110798e-01 7.458245e-01 6.509466e-01 6.149378e-01 6.511613e-01 7.441120e-01 8.113704e-01 8.549742e-01 9.044750e-01 9.322675e-01 9.372489e-01 8.997294e-01 8.621154e-01 8.096635e-01 7.533459e-01 6.971835e-01 6.420824e-01 5.953609e-01 5.538245e-01 5.209707e-01 4.920495e-01 4.679605e-01 4.450647e-01 4.237515e-01 4.022921e-01 3.812035e-01 3.601592e-01 3.397096e-01 3.201971e-01 3.020726e-01 2.858515e-01 2.718763e-01 2.605963e-01 2.522727e-01 2.471844e-01 
2.697144e-01 2.713149e-01 2.760146e-01 2.837481e-01 2.941832e-01 3.071788e-01 3.221476e-01 3.389164e-01 3.567330e-01 3.754316e-01 3.944287e-01 4.137244e-01 4.336290e-01 4.546241e-01 4.789154e-01 5.074856e-01 5.448413e-01 5.907822e-01 6.503180e-01 7.176247e-01 7.948131e-01 8.681423e-01 9.389553e-01 9.948204e-01 1.038692e+00 1.064734e+00 1.090495e+00 1.161854e+00 1.149992e+00 1.051752e+00 9.507996e-01 8.698261e-01 8.530120e-01 8.703294e-01 9.483045e-01 1.051672e+00 1.148882e+00 1.161618e+00 1.094448e+00 1.062750e+00 1.036421e+00 9.966004e-01 9.397786e-01 8.698208e-01 7.959545e-01 7.189028e-01 6.512803e-01 5.916544e-01 5.455111e-01 5.080090e-01 4.793251e-01 4.549137e-01 4.338634e-01 4.138763e-01 3.945545e-01 3.755020e-01 3.567903e-01 3.389368e-01 3.221624e-01 3.071719e-01 2.941771e-01 2.837337e-01 2.760059e-01 2.713081e-01 
2.923486e-01 2.938117e-01 2.981987e-01 3.053633e-01 3.150412e-01 3.270290e-01 3.407455e-01 3.559989e-01 3.720020e-01 3.887175e-01 4.056400e-01 4.232580e-01 4.423721e-01 4.645344e-01 4.930584e-01 5.302826e-01 5.817805e-01 6.470335e-01 7.300644e-01 8.192416e-01 9.141099e-01 9.897116e-01 1.057070e+00 1.096957e+00 1.136440e+00 1.205741e+00 1.216999e+00 1.153814e+00 1.107328e+00 1.101214e+00 1.165801e+00 1.186902e+00 1.206415e+00 1.188343e+00 1.163720e+00 1.102784e+00 1.107154e+00 1.154065e+00 1.217510e+00 1.204039e+00 1.134866e+00 1.098817e+00 1.057827e+00 9.913309e-01 9.153623e-01 8.207054e-01 7.313091e-01 6.481595e-01 5.827186e-01 5.309963e-01 4.936429e-01 4.649379e-01 4.427100e-01 4.234801e-01 4.058340e-01 3.888393e-01 3.721114e-01 3.560613e-01 3.408017e-01 3.270552e-01 3.150649e-01 3.053704e-01 2.982059e-01 2.938124e-01 
3.135257e-01 3.148884e-01 3.189599e-01 3.256038e-01 3.344905e-01 3.454579e-01 3.577727e-01 3.713940e-01 3.853256e-01 3.999834e-01 4.147681e-01 4.312595e-01 4.505586e-01 4.762151e-01 5.121459e-01 5.629408e-01 6.332970e-01 7.223015e-01 8.274614e-01 9.310369e-01 1.020340e+00 1.070927e+00 1.093428e+00 1.094580e+00 1.091712e+00 9.732676e-01 8.722606e-01 9.618092e-01 1.156212e+00 1.216336e+00 1.187188e+00 1.139047e+00 1.131156e+00 1.140120e+00 1.184727e+00 1.220153e+00 1.155205e+00 9.637867e-01 8.706768e-01 9.736410e-01 1.095469e+00 1.095594e+00 1.094008e+00 1.071411e+00 1.021551e+00 9.324087e-01 8.290026e-01 7.236325e-01 6.345450e-01 5.638340e-01 5.129046e-01 4.766984e-01 4.509606e-01 4.314993e-01 4.149764e-01 4.001027e-01 3.854364e-01 3.714532e-01 3.578307e-01 3.454844e-01 3.345176e-01 3.256129e-01 3.189698e-01 3.148902e-01 
3.324576e-01 3.336721e-01 3.374368e-01 3.434589e-01 3.514930e-01 3.612377e-01 3.719942e-01 3.837026e-01 3.954458e-01 4.079860e-01 4.211102e-01 4.374844e-01 4.592058e-01 4.917472e-01 5.401411e-01 6.102352e-01 7.046981e-01 8.184768e-01 9.380805e-01 1.031857e+00 1.075366e+00 1.035569e+00 9.661368e-01 8.412496e-01 7.156688e-01 8.772376e-01 1.131050e+00 1.220665e+00 1.170589e+00 1.064949e+00 1.015223e+00 1.013147e+00 1.030663e+00 1.013694e+00 1.012662e+00 1.066274e+00 1.173639e+00 1.216973e+00 1.136372e+00 8.789197e-01 7.185499e-01 8.394219e-01 9.648424e-01 1.034960e+00 1.075450e+00 1.033007e+00 9.397701e-01 8.201252e-01 7.063852e-01 6.115034e-01 5.412332e-01 4.924691e-01 4.597883e-01 4.378448e-01 4.214061e-01 4.081644e-01 3.956024e-01 3.837948e-01 3.720800e-01 3.612851e-01 3.515378e-01 3.434804e-01 3.374555e-01 3.336781e-01 
3.492772e-01 3.503571e-01 3.537547e-01 3.591123e-01 3.661641e-01 3.745861e-01 3.836127e-01 3.933761e-01 4.029627e-01 4.138959e-01 4.262888e-01 4.445778e-01 4.716085e-01 5.154358e-01 5.810089e-01 6.747571e-01 7.933179e-01 9.231712e-01 1.031378e+00 1.067708e+00 9.899383e-01 8.013066e-01 6.098905e-01 5.741744e-01 9.378449e-01 1.142199e+00 1.033623e+00 9.400605e-01 9.464929e-01 1.021794e+00 1.098389e+00 1.129857e+00 1.153725e+00 1.130337e+00 1.094930e+00 1.021912e+00 9.539441e-01 9.363056e-01 1.033309e+00 1.147270e+00 9.396734e-01 5.748728e-01 6.057629e-01 7.999951e-01 9.884441e-01 1.068054e+00 1.032992e+00 9.249283e-01 7.953747e-01 6.763627e-01 5.824182e-01 5.163807e-01 4.723424e-01 4.450252e-01 4.266278e-01 4.140902e-01 4.031200e-01 3.934628e-01 3.836914e-01 3.746271e-01 3.662043e-01 3.591307e-01 3.537717e-01 3.503622e-01 
3.632089e-01 3.640838e-01 3.670662e-01 3.715662e-01 3.774813e-01 3.842964e-01 3.914382e-01 3.990899e-01 4.067522e-01 4.166160e-01 4.297187e-01 4.520818e-01 4.878868e-01 5.469067e-01 6.337358e-01 7.523547e-01 8.896647e-01 1.017974e+00 1.074652e+00 9.926905e-01 7.195257e-01 4.195351e-01 4.899055e-01 9.322791e-01 1.062108e+00 9.545757e-01 9.221250e-01 9.910543e-01 1.020809e+00 1.025647e+00 1.047885e+00 1.055774e+00 1.069567e+00 1.055994e+00 1.046090e+00 1.026641e+00 1.024738e+00 9.877190e-01 9.205557e-01 9.571032e-01 1.067200e+00 9.328563e-01 4.922444e-01 4.174114e-01 7.172448e-01 9.913668e-01 1.076187e+00 1.019801e+00 8.921857e-01 7.544754e-01 6.356304e-01 5.482554e-01 4.889132e-01 4.527373e-01 4.301873e-01 4.168899e-01 4.069523e-01 3.991982e-01 3.915261e-01 3.843399e-01 3.775213e-01 3.715832e-01 3.670820e-01 3.640882e-01 
3.743730e-01 3.750338e-01 3.775036e-01 3.810399e-01 3.856567e-01 3.907668e-01 3.959914e-01 4.017881e-01 4.081271e-01 4.182525e-01 4.340615e-01 4.636182e-01 5.117276e-01 5.899047e-01 6.999328e-01 8.406966e-01 9.841159e-01 1.078696e+00 1.031792e+00 7.325518e-01 2.715237e-01 3.762743e-01 8.321816e-01 1.064767e+00 1.007796e+00 9.851435e-01 9.515831e-01 9.289887e-01 9.375551e-01 9.747688e-01 1.025488e+00 1.052962e+00 1.071191e+00 1.053127e+00 1.024910e+00 9.753531e-01 9.405489e-01 9.291691e-01 9.505065e-01 9.839902e-01 1.012721e+00 1.064426e+00 8.346328e-01 3.828201e-01 2.688042e-01 7.293384e-01 1.032497e+00 1.080336e+00 9.867612e-01 8.431960e-01 7.021996e-01 5.916156e-01 5.130013e-01 4.644597e-01 4.346287e-01 4.185829e-01 4.083413e-01 4.018954e-01 3.960660e-01 3.907965e-01 3.856827e-01 3.810467e-01 3.775122e-01 3.750348e-01 
3.821352e-01 3.825053e-01 3.843889e-01 3.867451e-01 3.899137e-01 3.931033e-01 3.964491e-01 4.005623e-01 4.063429e-01 4.178664e-01 4.383500e-01 4.772120e-01 5.400881e-01 6.382259e-01 7.698425e-01 9.227949e-01 1.050950e+00 1.073628e+00 8.447070e-01 3.070472e-01 2.344256e-01 6.934686e-01 1.070268e+00 1.120638e+00 1.021848e+00 9.456617e-01 8.866709e-01 8.944631e-01 9.102320e-01 9.369105e-01 9.663467e-01 9.826964e-01 9.940718e-01 9.828310e-01 9.663935e-01 9.372544e-01 9.120762e-01 8.940398e-01 8.874118e-01 9.448076e-01 1.024270e+00 1.121270e+00 1.072383e+00 6.987554e-01 2.379803e-01 3.019582e-01 8.439302e-01 1.075272e+00 1.053637e+00 9.257680e-01 7.725597e-01 6.404143e-01 5.417157e-01 4.783247e-01 4.390859e-01 4.182945e-01 4.065976e-01 4.006752e-01 3.965092e-01 3.931102e-01 3.899160e-01 3.867315e-01 3.843829e-01 3.824987e-01 
3.866136e-01 3.866699e-01 3.878712e-01 3.889345e-01 3.905533e-01 3.918208e-01 3.935075e-01 3.964968e-01 4.027649e-01 4.172755e-01 4.443606e-01 4.948315e-01 5.738549e-01 6.926347e-01 8.411028e-01 9.962065e-01 1.085167e+00 9.999556e-01 5.400531e-01 1.465420e-01 5.224873e-01 1.006794e+00 1.227947e+00 1.095828e+00 9.723157e-01 8.916765e-01 8.486802e-01 8.402571e-01 8.532891e-01 8.815987e-01 9.144906e-01 9.345529e-01 9.462809e-01 9.347184e-01 9.149228e-01 8.820076e-01 8.549004e-01 8.404784e-01 8.495966e-01 8.910126e-01 9.740273e-01 1.096288e+00 1.228561e+00 1.010670e+00 5.244155e-01 1.456081e-01 5.376807e-01 1.000270e+00 1.087514e+00 9.992945e-01 8.440664e-01 6.951779e-01 5.757500e-01 4.961778e-01 4.452408e-01 4.177991e-01 4.030572e-01 3.966190e-01 3.935537e-01 3.918081e-01 3.905331e-01 3.889029e-01 3.878517e-01 3.866568e-01 
3.874241e-01 3.871091e-01 3.875833e-01 3.872157e-01 3.872596e-01 3.865971e-01 3.869524e-01 3.893160e-01 3.970965e-01 4.156498e-01 4.505965e-01 5.131962e-01 6.080390e-01 7.438939e-01 9.029766e-01 1.040161e+00 1.081538e+00 8.143612e-01 3.368412e-01 3.893905e-01 8.357378e-01 1.274456e+00 1.202310e+00 1.025279e+00 9.140532e-01 8.366946e-01 7.981024e-01 7.955975e-01 8.055431e-01 8.252184e-01 8.449237e-01 8.571680e-01 8.641544e-01 8.572866e-01 8.454157e-01 8.254985e-01 8.068167e-01 7.958242e-01 7.993699e-01 8.369177e-01 9.155008e-01 1.026898e+00 1.204003e+00 1.280792e+00 8.435487e-01 3.948260e-01 3.424579e-01 8.135774e-01 1.083150e+00 1.043290e+00 9.061906e-01 7.467758e-01 6.102403e-01 5.147599e-01 4.516250e-01 4.162431e-01 3.974074e-01 3.894139e-01 3.869533e-01 3.865301e-01 3.871877e-01 3.871411e-01 3.875336e-01 3.870804e-01 
3.846507e-01 3.839504e-01 3.836614e-01 3.818335e-01 3.803563e-01 3.779130e-01 3.773760e-01 3.796871e-01 3.899240e-01 4.132149e-01 4.566525e-01 5.311822e-01 6.401353e-01 7.903969e-01 9.500782e-01 1.065119e+00 1.030395e+00 6.193502e-01 3.889222e-01 6.056204e-01 1.142340e+00 1.318034e+00 1.093080e+00 9.642108e-01 8.465949e-01 7.890922e-01 7.537449e-01 7.470785e-01 7.504777e-01 7.639025e-01 7.786703e-01 7.885390e-01 7.940956e-01 7.886622e-01 7.792063e-01 7.642178e-01 7.516057e-01 7.474449e-01 7.548640e-01 7.892575e-01 8.475093e-01 9.641556e-01 1.092983e+00 1.319382e+00 1.148917e+00 6.153529e-01 3.920053e-01 6.160602e-01 1.030510e+00 1.068488e+00 9.532999e-01 7.935325e-01 6.425241e-01 5.329307e-01 4.578172e-01 4.139058e-01 3.902872e-01 3.798029e-01 3.773673e-01 3.778247e-01 3.802574e-01 3.817357e-01 3.835936e-01 3.839127e-01 
3.781562e-01 3.770684e-01 3.760785e-01 3.728602e-01 3.700825e-01 3.661502e-01 3.653001e-01 3.681453e-01 3.816087e-01 4.098688e-01 4.615981e-01 5.469259e-01 6.661979e-01 8.286498e-01 9.725731e-01 1.077852e+00 9.101363e-01 5.816727e-01 5.137985e-01 8.829749e-01 1.342194e+00 1.232340e+00 1.026968e+00 8.966226e-01 7.997586e-01 7.445897e-01 7.107448e-01 6.990091e-01 6.945321e-01 6.983117e-01 7.030510e-01 7.068163e-01 7.091657e-01 7.068869e-01 7.034938e-01 6.985231e-01 6.954406e-01 6.993892e-01 7.118343e-01 7.451416e-01 8.006816e-01 8.970219e-01 1.026688e+00 1.230778e+00 1.341558e+00 8.866064e-01 5.140952e-01 5.815536e-01 9.109330e-01 1.081229e+00 9.762169e-01 8.319506e-01 6.688019e-01 5.487185e-01 4.627921e-01 4.105235e-01 3.819197e-01 3.681829e-01 3.652036e-01 3.659735e-01 3.699035e-01 3.726982e-01 3.759658e-01 3.770079e-01 
3.678603e-01 3.664237e-01 3.648422e-01 3.604384e-01 3.566901e-01 3.516729e-01 3.510958e-01 3.548313e-01 3.719420e-01 4.043076e-01 4.638039e-01 5.559846e-01 6.840253e-01 8.484314e-01 9.776635e-01 1.055244e+00 8.030229e-01 6.071343e-01 6.650217e-01 1.120843e+00 1.344966e+00 1.097541e+00 9.543862e-01 8.285412e-01 7.497416e-01 6.986394e-01 6.647530e-01 6.470917e-01 6.354803e-01 6.321331e-01 6.310010e-01 6.314747e-01 6.322354e-01 6.315436e-01 6.314077e-01 6.323625e-01 6.362911e-01 6.475733e-01 6.658287e-01 6.994954e-01 7.509793e-01 8.298388e-01 9.553012e-01 1.099022e+00 1.345813e+00 1.124263e+00 6.682964e-01 6.081201e-01 8.042821e-01 1.057908e+00 9.815215e-01 8.516559e-01 6.867482e-01 5.578256e-01 4.650778e-01 4.050164e-01 3.722928e-01 3.548858e-01 3.509937e-01 3.514788e-01 3.564857e-01 3.602537e-01 3.647110e-01 3.663538e-01 
3.537037e-01 3.520218e-01 3.501306e-01 3.450093e-01 3.409324e-01 3.355989e-01 3.361401e-01 3.413605e-01 3.624580e-01 3.980402e-01 4.645354e-01 5.593713e-01 6.961575e-01 8.511098e-01 9.814121e-01 1.001893e+00 7.858890e-01 6.469128e-01 8.167392e-01 1.256831e+00 1.239169e+00 1.012840e+00 8.885708e-01 7.763157e-01 7.061519e-01 6.554264e-01 6.186593e-01 5.944423e-01 5.751965e-01 5.638768e-01 5.554971e-01 5.514995e-01 5.501467e-01 5.515101e-01 5.557630e-01 5.639563e-01 5.757337e-01 5.947296e-01 6.194035e-01 6.560613e-01 7.069589e-01 7.772747e-01 8.889837e-01 1.014025e+00 1.239623e+00 1.261061e+00 8.204211e-01 6.455133e-01 7.877286e-01 1.005810e+00 9.864521e-01 8.544531e-01 6.988031e-01 5.609834e-01 4.655644e-01 3.985360e-01 3.626186e-01 3.412603e-01 3.358959e-01 3.352859e-01 3.406252e-01 3.447470e-01 3.499451e-01 3.519250e-01 
3.352498e-01 3.334825e-01 3.316765e-01 3.265449e-01 3.229862e-01 3.183632e-01 3.208446e-01 3.281234e-01 3.528581e-01 3.905309e-01 4.616657e-01 5.554367e-01 6.976113e-01 8.366694e-01 9.735361e-01 9.370901e-01 8.210902e-01 7.469778e-01 9.767725e-01 1.299168e+00 1.115860e+00 9.466757e-01 8.185056e-01 7.263366e-01 6.566509e-01 6.086691e-01 5.680313e-01 5.394979e-01 5.143247e-01 4.977454e-01 4.846729e-01 4.780398e-01 4.753892e-01 4.780508e-01 4.849015e-01 4.978402e-01 5.148059e-01 5.398612e-01 5.688159e-01 6.095637e-01 6.578352e-01 7.280338e-01 8.200610e-01 9.496007e-01 1.118200e+00 1.304978e+00 9.822475e-01 7.462772e-01 8.279239e-01 9.428977e-01 9.784893e-01 8.400247e-01 7.002593e-01 5.571007e-01 4.626855e-01 3.910306e-01 3.530010e-01 3.280170e-01 3.205808e-01 3.180326e-01 3.226546e-01 3.262631e-01 3.314741e-01 3.333775e-01 
3.123074e-01 3.107361e-01 3.096928e-01 3.057319e-01 3.040564e-01 3.018239e-01 3.074649e-01 3.179326e-01 3.458706e-01 3.852535e-01 4.579195e-01 5.490898e-01 6.904795e-01 8.158258e-01 9.511594e-01 8.918196e-01 8.251487e-01 8.139546e-01 1.065180e+00 1.228464e+00 9.959728e-01 8.813015e-01 7.525903e-01 6.779369e-01 6.083464e-01 5.619424e-01 5.177897e-01 4.851615e-01 4.545210e-01 4.325570e-01 4.144961e-01 4.046911e-01 4.006075e-01 4.046381e-01 4.145733e-01 4.324613e-01 4.546971e-01 4.851826e-01 5.181077e-01 5.622388e-01 6.088216e-01 6.784673e-01 7.529638e-01 8.815528e-01 9.960600e-01 1.231146e+00 1.071065e+00 8.113782e-01 8.253487e-01 8.934604e-01 9.516020e-01 8.174544e-01 6.917095e-01 5.500065e-01 4.582711e-01 3.853242e-01 3.456560e-01 3.175837e-01 3.070019e-01 3.013483e-01 3.036069e-01 3.053661e-01 3.094324e-01 3.106030e-01 
2.840749e-01 2.830791e-01 2.837276e-01 2.825482e-01 2.845223e-01 2.867887e-01 2.968739e-01 3.117397e-01 3.420271e-01 3.828442e-01 4.531984e-01 5.414057e-01 6.746676e-01 7.947239e-01 9.196785e-01 8.896026e-01 8.407564e-01 8.707082e-01 1.109961e+00 1.131301e+00 9.115242e-01 8.151196e-01 6.932252e-01 6.267541e-01 5.583652e-01 5.126851e-01 4.664490e-01 4.312153e-01 3.969569e-01 3.714325e-01 3.499499e-01 3.380174e-01 3.329096e-01 3.379625e-01 3.499951e-01 3.713292e-01 3.970714e-01 4.312178e-01 4.667105e-01 5.129711e-01 5.588917e-01 6.273721e-01 6.939941e-01 8.155921e-01 9.123783e-01 1.132053e+00 1.118029e+00 8.755182e-01 8.377713e-01 8.894299e-01 9.213054e-01 7.973407e-01 6.763228e-01 5.423636e-01 4.534057e-01 3.827304e-01 3.416356e-01 3.112586e-01 2.963063e-01 2.862418e-01 2.840146e-01 2.821432e-01 2.834384e-01 2.829325e-01 
2.503169e-01 2.504686e-01 2.541981e-01 2.580725e-01 2.660664e-01 2.754390e-01 2.914787e-01 3.120768e-01 3.442190e-01 3.865797e-01 4.521352e-01 5.376287e-01 6.584904e-01 7.796618e-01 8.914207e-01 9.114305e-01 8.828929e-01 9.490951e-01 1.118085e+00 1.020540e+00 8.413299e-01 7.453242e-01 6.391366e-01 5.753174e-01 5.113985e-01 4.651553e-01 4.185863e-01 3.806080e-01 3.434325e-01 3.138804e-01 2.886578e-01 2.738249e-01 2.675597e-01 2.737160e-01 2.885842e-01 3.136167e-01 3.433064e-01 3.803148e-01 4.184690e-01 4.649667e-01 5.114383e-01 5.753916e-01 6.396536e-01 7.459072e-01 8.429704e-01 1.021796e+00 1.123261e+00 9.552777e-01 8.839462e-01 9.140585e-01 8.958326e-01 7.831082e-01 6.600937e-01 5.381203e-01 4.518158e-01 3.859880e-01 3.434305e-01 3.112863e-01 2.906706e-01 2.747107e-01 2.654182e-01 2.575651e-01 2.538390e-01 2.502871e-01 
2.103617e-01 2.124654e-01 2.212158e-01 2.329696e-01 2.495816e-01 2.684389e-01 2.915450e-01 3.185975e-01 3.521351e-01 3.957377e-01 4.549228e-01 5.367817e-01 6.431258e-01 7.656017e-01 8.683272e-01 9.361591e-01 9.282721e-01 9.779007e-01 1.055161e+00 9.056713e-01 7.731915e-01 6.750902e-01 5.873147e-01 5.239219e-01 4.660822e-01 4.191460e-01 3.736780e-01 3.337256e-01 2.948459e-01 2.619488e-01 2.334777e-01 2.157571e-01 2.083393e-01 2.156330e-01 2.333585e-01 2.616311e-01 2.946010e-01 3.332854e-01 3.733130e-01 4.186552e-01 4.657251e-01 5.236439e-01 5.875401e-01 6.760383e-01 7.756546e-01 9.100341e-01 1.060457e+00 9.796328e-01 9.302275e-01 9.417082e-01 8.731167e-01 7.681962e-01 6.437384e-01 5.363421e-01 4.538569e-01 3.945234e-01 3.508625e-01 3.174243e-01 2.904463e-01 2.674886e-01 2.487606e-01 2.323322e-01 2.207638e-01 2.122361e-01 
1.645233e-01 1.698422e-01 1.863824e-01 2.091780e-01 2.365617e-01 2.661890e-01 2.966060e-01 3.299647e-01 3.646971e-01 4.092465e-01 4.624466e-01 5.402311e-01 6.339784e-01 7.558256e-01 8.575954e-01 9.533428e-01 9.647256e-01 9.903674e-01 9.863212e-01 8.236871e-01 7.192246e-01 6.179343e-01 5.446840e-01 4.802319e-01 4.284055e-01 3.801913e-01 3.363996e-01 2.941157e-01 2.536558e-01 2.164187e-01 1.835663e-01 1.611026e-01 1.518586e-01 1.609521e-01 1.834037e-01 2.160426e-01 2.533158e-01 2.935401e-01 3.358123e-01 3.793653e-01 4.275367e-01 4.792129e-01 5.438077e-01 6.174009e-01 7.196026e-01 8.261689e-01 9.918542e-01 9.938906e-01 9.666977e-01 9.566001e-01 8.594538e-01 7.557990e-01 6.328828e-01 5.385644e-01 4.605977e-01 4.074485e-01 3.630166e-01 3.284685e-01 2.952656e-01 2.650377e-01 2.355729e-01 2.083919e-01 1.858087e-01 1.695400e-01 
1.131506e-01 1.241175e-01 1.524811e-01 1.889127e-01 2.276347e-01 2.674074e-01 3.042799e-01 3.429385e-01 3.787551e-01 4.239283e-01 4.724458e-01 5.460867e-01 6.302334e-01 7.492206e-01 8.551952e-01 9.662517e-01 9.908194e-01 9.935161e-01 9.248101e-01 7.630921e-01 6.737730e-01 5.720922e-01 5.093773e-01 4.443811e-01 3.975427e-01 3.484792e-01 3.064258e-01 2.623720e-01 2.207479e-01 1.793078e-01 1.413618e-01 1.120660e-01 9.957780e-02 1.118504e-01 1.411021e-01 1.788049e-01 2.202118e-01 2.615246e-01 3.054062e-01 3.470224e-01 3.957052e-01 4.419349e-01 5.063704e-01 5.684061e-01 6.697155e-01 7.590437e-01 9.226718e-01 9.940382e-01 9.915625e-01 9.655744e-01 8.532938e-01 7.465433e-01 6.272480e-01 5.430760e-01 4.696191e-01 4.213788e-01 3.764935e-01 3.409742e-01 3.025626e-01 2.659394e-01 2.263665e-01 1.878664e-01 1.516621e-01 1.236417e-01 
5.772344e-02 8.068376e-02 1.254369e-01 1.749077e-01 2.224966e-01 2.694241e-01 3.105871e-01 3.526300e-01 3.890560e-01 4.344190e-01 4.798154e-01 5.502621e-01 6.282279e-01 7.441081e-01 8.535614e-01 9.709390e-01 1.004000e+00 9.905541e-01 8.809432e-01 7.265905e-01 6.449477e-01 5.439954e-01 4.877606e-01 4.223698e-01 3.789440e-01 3.290971e-01 2.883101e-01 2.426660e-01 1.999609e-01 1.543854e-01 1.104528e-01 6.996603e-02 4.904018e-02 6.973879e-02 1.102565e-01 1.539696e-01 1.995301e-01 2.419323e-01 2.873832e-01 3.277075e-01 3.770699e-01 4.197853e-01 4.843263e-01 5.396821e-01 6.397419e-01 7.214071e-01 8.771578e-01 9.917229e-01 1.005860e+00 9.695951e-01 8.510092e-01 7.407270e-01 6.248016e-01 5.468968e-01 4.767916e-01 4.317062e-01 3.866961e-01 3.505780e-01 3.088100e-01 2.678943e-01 2.211620e-01 1.737590e-01 1.244436e-01 7.995826e-02 
5.557805e-04 5.828197e-02 1.146344e-01 1.700184e-01 2.210759e-01 2.706493e-01 3.134212e-01 3.567357e-01 3.935497e-01 4.391275e-01 4.837896e-01 5.533643e-01 6.299346e-01 7.451561e-01 8.575921e-01 9.774217e-01 1.012783e+00 9.923075e-01 8.682383e-01 7.162749e-01 6.352678e-01 5.344049e-01 4.797280e-01 4.141805e-01 3.717143e-01 3.216702e-01 2.812804e-01 2.351832e-01 1.921029e-01 1.449701e-01 9.816724e-02 4.925663e-02 1.376463e-04 4.882367e-02 9.780909e-02 1.443769e-01 1.914528e-01 2.341758e-01 2.799887e-01 3.197927e-01 3.691843e-01 4.106957e-01 4.751138e-01 5.285076e-01 6.281399e-01 7.088352e-01 8.621070e-01 9.918636e-01 1.013161e+00 9.748864e-01 8.541744e-01 7.409162e-01 6.258068e-01 5.494290e-01 4.803017e-01 4.360435e-01 3.908804e-01 3.544312e-01 3.114277e-01 2.689343e-01 2.195692e-01 1.686979e-01 1.134233e-01 5.716082e-02 
5.772344e-02 8.068376e-02 1.254369e-01 1.749077e-01 2.224966e-01 2.694241e-01 3.105871e-01 3.526300e-01 3.890560e-01 4.344190e-01 4.798154e-01 5.502621e-01 6.282279e-01 7.441081e-01 8.535614e-01 9.709390e-01 1.004000e+00 9.905541e-01 8.809432e-01 7.265905e-01 6.449477e-01 5.439954e-01 4.877606e-01 4.223698e-01 3.789440e-01 3.290971e-01 2.883101e-01 2.426660e-01 1.999609e-01 1.543854e-01 1.104528e-01 6.996603e-02 4.904018e-02 6.973879e-02 1.102565e-01 1.539696e-01 1.995301e-01 2.419323e-01 2.873832e-01 3.277075e-01 3.770699e-01 4.197853e-01 4.843263e-01 5.396821e-01 6.397419e-01 7.214071e-01 8.771578e-01 9.917229e-01 1.005860e+00 9.695951e-01 8.510092e-01 7.407270e-01 6.248016e-01 5.468968e-01 4.767916e-01 4.317062e-01 3.866961e-01 3.505780e-01 3.088100e-01 2.678943e-01 2.211620e-01 1.737590e-01 1.244436e-01 7.995826e-02 
1.131506e-01 1.241175e-01 1.524811e-01 1.889127e-01 2.276347e-01 2.674074e-01 3.042799e-01 3.429385e-01 3.787551e-01 4.239283e-01 4.724458e-01 5.460867e-01 6.302334e-01 7.492206e-01 8.551952e-01 9.662517e-01 9.908194e-01 9.935161e-01 9.248101e-01 7.630921e-01 6.737730e-01 5.720922e-01 5.093773e-01 4.443811e-01 3.975427e-01 3.484792e-01 3.064258e-01 2.623720e-01 2.207479e-01 1.793078e-01 1.413618e-01 1.120660e-01 9.957780e-02 1.118504e-01 1.411021e-01 1.788049e-01 2.202118e-01 2.615246e-01 3.054062e-01 3.470224e-01 3.957052e-01 4.419349e-01 5.063704e-01 5.684061e-01 6.697155e-01 7.590437e-01 9.226718e-01 9.940382e-01 9.915625e-01 9.655744e-01 8.532938e-01 7.465433e-01 6.272480e-01 5.430760e-01 4.696191e-01 4.213788e-01 3.764935e-01 3.409742e-01 3.025626e-01 2.659394e-01 2.263665e-01 1.878664e-01 1.516621e-01 1.236417e-01 