# vtk DataFile Version 2.0
Comment goes here
ASCII

DATASET STRUCTURED_POINTS
FIELD FieldData 1
TIME 1 1 double
1.92000000
DIMENSIONS    64   64   1

ORIGIN    0.000   0.000   0.000
SPACING   0.015625 0.015625   1.000

POINT_DATA   4096
SCALARS uMag double
LOOKUP_TABLE default

1.755072e-03 9.501463e-04 3.596352e-04 7.767816e-04 1.906137e-03 3.836767e-03 5.945586e-03 9.040279e-03 1.245533e-02 1.693233e-02 2.180542e-02 2.767082e-02 3.391634e-02 4.090807e-02 4.814855e-02 5.569945e-02 6.323717e-02 7.047911e-02 7.731914e-02 8.315259e-02 8.810250e-02 9.134623e-02 9.320452e-02 9.281498e-02 9.062892e-02 8.594049e-02 7.926220e-02 7.016976e-02 5.921712e-02 4.627084e-02 3.200539e-02 1.649985e-02 6.548819e-04 1.541336e-02 3.063065e-02 4.510200e-02 5.776517e-02 6.905143e-02 7.804265e-02 8.535327e-02 9.028030e-02 9.343686e-02 9.439567e-02 9.367125e-02 9.114813e-02 8.721524e-02 8.203737e-02 7.587988e-02 6.909336e-02 6.182538e-02 5.450132e-02 4.715692e-02 4.020795e-02 3.358503e-02 2.765347e-02 2.224387e-02 1.766903e-02 1.366047e-02 1.050136e-02 7.821359e-03 5.907707e-03 4.284632e-03 3.277249e-03 2.304114e-03 
1.726844e-03 1.076322e-03 9.068866e-04 1.400503e-03 2.443063e-03 4.304915e-03 6.417023e-03 9.505940e-03 1.292697e-02 1.740397e-02 2.227224e-02 2.812682e-02 3.435571e-02 4.131916e-02 4.853596e-02 5.604059e-02 6.355570e-02 7.073898e-02 7.756609e-02 8.334032e-02 8.829202e-02 9.149256e-02 9.336753e-02 9.297165e-02 9.082503e-02 8.620382e-02 7.964476e-02 7.079187e-02 6.022469e-02 4.799694e-02 3.503759e-02 2.255242e-02 1.596113e-02 2.214498e-02 3.426556e-02 4.736952e-02 5.930428e-02 7.018405e-02 7.891694e-02 8.609730e-02 9.092217e-02 9.403301e-02 9.494528e-02 9.418799e-02 9.164151e-02 8.766904e-02 8.247999e-02 7.627749e-02 6.948569e-02 6.217246e-02 5.484294e-02 4.745510e-02 4.049466e-02 3.382833e-02 2.787505e-02 2.241892e-02 1.781071e-02 1.375121e-02 1.055020e-02 7.819418e-03 5.866714e-03 4.208911e-03 3.189255e-03 2.226035e-03 
2.134218e-03 1.722968e-03 1.802418e-03 2.189749e-03 3.173441e-03 4.860299e-03 6.959554e-03 9.958015e-03 1.333270e-02 1.771298e-02 2.245732e-02 2.816808e-02 3.418058e-02 4.093855e-02 4.785430e-02 5.509771e-02 6.225971e-02 6.915519e-02 7.563841e-02 8.115739e-02 8.586677e-02 8.894298e-02 9.080028e-02 9.055580e-02 8.876859e-02 8.476097e-02 7.911870e-02 7.155672e-02 6.271063e-02 5.282626e-02 4.311613e-02 3.510515e-02 3.188927e-02 3.502955e-02 4.280285e-02 5.260637e-02 6.220591e-02 7.132270e-02 7.874403e-02 8.497848e-02 8.916760e-02 9.190147e-02 9.265273e-02 9.189472e-02 8.947509e-02 8.571398e-02 8.078825e-02 7.488799e-02 6.839257e-02 6.139039e-02 5.432621e-02 4.720470e-02 4.044180e-02 3.396535e-02 2.812494e-02 2.276954e-02 1.818919e-02 1.414750e-02 1.090630e-02 8.139566e-03 6.120818e-03 4.435156e-03 3.402218e-03 2.509300e-03 
2.203110e-03 2.026635e-03 2.399555e-03 2.990166e-03 4.171515e-03 5.901097e-03 8.122044e-03 1.113016e-02 1.454135e-02 1.887738e-02 2.353850e-02 2.911456e-02 3.491163e-02 4.142502e-02 4.801030e-02 5.490570e-02 6.167339e-02 6.815917e-02 7.427012e-02 7.940470e-02 8.387519e-02 8.672823e-02 8.859926e-02 8.847070e-02 8.708234e-02 8.375123e-02 7.913120e-02 7.314310e-02 6.643018e-02 5.951869e-02 5.340032e-02 4.899434e-02 4.758281e-02 4.933975e-02 5.389781e-02 6.027953e-02 6.707589e-02 7.409930e-02 7.997428e-02 8.519210e-02 8.865071e-02 9.098695e-02 9.151095e-02 9.069552e-02 8.835314e-02 8.471275e-02 8.002024e-02 7.431948e-02 6.810288e-02 6.131129e-02 5.449410e-02 4.754335e-02 4.094651e-02 3.456473e-02 2.878576e-02 2.343136e-02 1.880777e-02 1.467937e-02 1.131376e-02 8.407314e-03 6.235422e-03 4.430192e-03 3.317172e-03 2.449702e-03 
2.333749e-03 2.392999e-03 3.061410e-03 3.829590e-03 5.256268e-03 7.064087e-03 9.468490e-03 1.250211e-02 1.597737e-02 2.024782e-02 2.477997e-02 3.014513e-02 3.557263e-02 4.169359e-02 4.766585e-02 5.398493e-02 5.995500e-02 6.573089e-02 7.099705e-02 7.541935e-02 7.922449e-02 8.161401e-02 8.331632e-02 8.337655e-02 8.271642e-02 8.072412e-02 7.812382e-02 7.489749e-02 7.143223e-02 6.807543e-02 6.530878e-02 6.338143e-02 6.299657e-02 6.385192e-02 6.612755e-02 6.928285e-02 7.271768e-02 7.659267e-02 7.982028e-02 8.307490e-02 8.520941e-02 8.682710e-02 8.711240e-02 8.641382e-02 8.447682e-02 8.138198e-02 7.735728e-02 7.234134e-02 6.680114e-02 6.064963e-02 5.437407e-02 4.791072e-02 4.165526e-02 3.555716e-02 2.990687e-02 2.462798e-02 1.994551e-02 1.571965e-02 1.216107e-02 9.052420e-03 6.631434e-03 4.619754e-03 3.332665e-03 2.439295e-03 
1.875370e-03 2.258370e-03 3.323785e-03 4.390353e-03 6.191466e-03 8.239509e-03 1.097528e-02 1.418300e-02 1.787465e-02 2.220135e-02 2.674470e-02 3.198077e-02 3.714313e-02 4.289485e-02 4.830331e-02 5.399553e-02 5.916169e-02 6.410623e-02 6.849950e-02 7.205453e-02 7.520536e-02 7.701091e-02 7.860885e-02 7.879392e-02 7.881740e-02 7.800679e-02 7.705526e-02 7.625005e-02 7.573064e-02 7.599254e-02 7.675301e-02 7.752383e-02 7.820740e-02 7.810000e-02 7.790036e-02 7.770279e-02 7.787186e-02 7.905660e-02 8.015818e-02 8.198191e-02 8.302671e-02 8.409455e-02 8.410564e-02 8.344802e-02 8.182387e-02 7.912709e-02 7.570625e-02 7.122984e-02 6.632419e-02 6.068082e-02 5.490337e-02 4.880378e-02 4.283404e-02 3.690240e-02 3.131665e-02 2.600706e-02 2.120317e-02 1.679173e-02 1.298520e-02 9.602505e-03 6.866938e-03 4.554659e-03 2.939153e-03 1.857530e-03 
1.478272e-03 2.416411e-03 3.906360e-03 5.275759e-03 7.449219e-03 9.758579e-03 1.287478e-02 1.631614e-02 2.030870e-02 2.476884e-02 2.939599e-02 3.456111e-02 3.944762e-02 4.481871e-02 4.948269e-02 5.440524e-02 5.833845e-02 6.211445e-02 6.493677e-02 6.706860e-02 6.872306e-02 6.931279e-02 7.021743e-02 7.035881e-02 7.142461e-02 7.281809e-02 7.512824e-02 7.841656e-02 8.182739e-02 8.545603e-02 8.868228e-02 9.079914e-02 9.203853e-02 9.135158e-02 8.980169e-02 8.707576e-02 8.395773e-02 8.139791e-02 7.883340e-02 7.777678e-02 7.691712e-02 7.709607e-02 7.705816e-02 7.695578e-02 7.639336e-02 7.490862e-02 7.285103e-02 6.965113e-02 6.590191e-02 6.126436e-02 5.623213e-02 5.074017e-02 4.509163e-02 3.937432e-02 3.376309e-02 2.835188e-02 2.328465e-02 1.856594e-02 1.436790e-02 1.058461e-02 7.411773e-03 4.678881e-03 2.576016e-03 1.084196e-03 
1.352584e-03 2.693651e-03 4.413070e-03 6.020134e-03 8.541356e-03 1.112932e-02 1.468252e-02 1.841991e-02 2.283092e-02 2.751729e-02 3.240269e-02 3.760707e-02 4.243199e-02 4.752450e-02 5.165466e-02 5.585902e-02 5.870191e-02 6.126172e-02 6.255206e-02 6.310800e-02 6.330574e-02 6.256044e-02 6.302886e-02 6.319969e-02 6.532471e-02 6.839533e-02 7.236344e-02 7.793081e-02 8.404588e-02 9.152310e-02 9.888588e-02 1.043157e-01 1.068240e-01 1.046570e-01 9.974282e-02 9.267553e-02 8.594474e-02 8.099867e-02 7.680677e-02 7.473131e-02 7.275334e-02 7.239530e-02 7.208809e-02 7.223738e-02 7.245335e-02 7.187564e-02 7.103551e-02 6.888787e-02 6.620147e-02 6.237906e-02 5.800581e-02 5.295575e-02 4.755794e-02 4.192908e-02 3.625425e-02 3.066788e-02 2.533906e-02 2.029597e-02 1.574703e-02 1.160388e-02 8.070597e-03 5.033602e-03 2.539942e-03 8.008927e-04 
2.968326e-03 4.192259e-03 5.810226e-03 7.508549e-03 1.021804e-02 1.303648e-02 1.700024e-02 2.108086e-02 2.598610e-02 3.102851e-02 3.631492e-02 4.175067e-02 4.667106e-02 5.170107e-02 5.537357e-02 5.902288e-02 6.060482e-02 6.190305e-02 6.098797e-02 5.941064e-02 5.673031e-02 5.329567e-02 5.166536e-02 5.098436e-02 5.455756e-02 6.135454e-02 7.029962e-02 8.110650e-02 9.065830e-02 9.998446e-02 1.083416e-01 1.139682e-01 1.167869e-01 1.143143e-01 1.090471e-01 1.004785e-01 9.128471e-02 8.270755e-02 7.396356e-02 6.788428e-02 6.335686e-02 6.196319e-02 6.204370e-02 6.366538e-02 6.623394e-02 6.803203e-02 6.956226e-02 6.940866e-02 6.823393e-02 6.559246e-02 6.184701e-02 5.723067e-02 5.183499e-02 4.611094e-02 4.007745e-02 3.408880e-02 2.824487e-02 2.268187e-02 1.761312e-02 1.299654e-02 9.068949e-03 5.816549e-03 3.362290e-03 2.503990e-03 
5.460917e-03 6.384676e-03 7.653577e-03 9.223918e-03 1.193218e-02 1.484658e-02 1.915280e-02 2.351068e-02 2.893604e-02 3.431647e-02 4.012079e-02 4.581484e-02 5.105369e-02 5.609623e-02 5.964533e-02 6.285709e-02 6.357868e-02 6.373959e-02 6.095270e-02 5.727827e-02 5.186960e-02 4.564246e-02 4.259439e-02 4.193374e-02 4.804696e-02 5.750236e-02 6.628701e-02 7.671585e-02 8.693192e-02 1.002558e-01 1.153129e-01 1.273553e-01 1.327862e-01 1.272525e-01 1.153104e-01 9.892940e-02 8.554428e-02 7.656742e-02 6.911411e-02 6.424764e-02 5.870752e-02 5.625353e-02 5.539820e-02 5.731368e-02 6.150429e-02 6.514371e-02 6.880528e-02 7.034232e-02 7.053227e-02 6.882362e-02 6.562083e-02 6.126915e-02 5.587240e-02 4.998037e-02 4.365799e-02 3.728140e-02 3.104698e-02 2.505713e-02 1.964758e-02 1.475453e-02 1.072139e-02 7.653244e-03 5.655143e-03 5.249499e-03 
8.665870e-03 9.523222e-03 1.048446e-02 1.185790e-02 1.435059e-02 1.723954e-02 2.174900e-02 2.637680e-02 3.233155e-02 3.817422e-02 4.462554e-02 5.082915e-02 5.660551e-02 6.203786e-02 6.573212e-02 6.900406e-02 6.910322e-02 6.871789e-02 6.405978e-02 5.874859e-02 4.956338e-02 3.919315e-02 3.027998e-02 2.615295e-02 3.539474e-02 5.281848e-02 6.996629e-02 8.637544e-02 9.633806e-02 1.059026e-01 1.180775e-01 1.278826e-01 1.332065e-01 1.282973e-01 1.187168e-01 1.041592e-01 9.245309e-02 8.258134e-02 6.973417e-02 5.807516e-02 4.827204e-02 4.327514e-02 4.236789e-02 4.732124e-02 5.623830e-02 6.398905e-02 7.095731e-02 7.490940e-02 7.636321e-02 7.550055e-02 7.229580e-02 6.784028e-02 6.186484e-02 5.541028e-02 4.833938e-02 4.125795e-02 3.432917e-02 2.771624e-02 2.183111e-02 1.663165e-02 1.256823e-02 9.839665e-03 8.364429e-03 8.403536e-03 
1.253646e-02 1.323231e-02 1.383079e-02 1.488502e-02 1.699933e-02 1.965712e-02 2.419715e-02 2.890735e-02 3.531278e-02 4.146713e-02 4.858792e-02 5.517717e-02 6.163995e-02 6.737208e-02 7.153598e-02 7.483265e-02 7.482922e-02 7.392666e-02 6.800115e-02 6.117719e-02 4.867685e-02 3.454333e-02 2.002524e-02 1.747889e-02 3.690008e-02 5.747165e-02 6.693311e-02 7.557447e-02 8.255425e-02 9.506151e-02 1.198878e-01 1.446571e-01 1.565272e-01 1.449647e-01 1.204601e-01 8.975083e-02 7.458988e-02 6.898513e-02 6.499297e-02 6.216060e-02 5.223447e-02 4.154098e-02 3.423203e-02 3.816186e-02 5.082999e-02 6.244855e-02 7.270056e-02 7.888784e-02 8.157779e-02 8.134653e-02 7.820591e-02 7.354565e-02 6.716719e-02 6.017418e-02 5.259120e-02 4.491972e-02 3.756058e-02 3.051851e-02 2.445725e-02 1.923935e-02 1.545494e-02 1.321601e-02 1.214376e-02 1.236735e-02 
1.702346e-02 1.770293e-02 1.797247e-02 1.870493e-02 2.025615e-02 2.252988e-02 2.683984e-02 3.153772e-02 3.828576e-02 4.482195e-02 5.266014e-02 5.987831e-02 6.719374e-02 7.365071e-02 7.853090e-02 8.246230e-02 8.262544e-02 8.203922e-02 7.514033e-02 6.831166e-02 5.331842e-02 3.916797e-02 1.776196e-02 1.137674e-02 3.526972e-02 7.192311e-02 1.011960e-01 1.179222e-01 1.114318e-01 9.801449e-02 1.047264e-01 1.178805e-01 1.266932e-01 1.193476e-01 1.079194e-01 9.489956e-02 1.038046e-01 1.098645e-01 9.717384e-02 7.638416e-02 5.621245e-02 3.773587e-02 1.829079e-02 2.599794e-02 4.798832e-02 6.607797e-02 7.994663e-02 8.840703e-02 9.135045e-02 9.112163e-02 8.693962e-02 8.142284e-02 7.380093e-02 6.577803e-02 5.714939e-02 4.858469e-02 4.052407e-02 3.294809e-02 2.668268e-02 2.157364e-02 1.824255e-02 1.670557e-02 1.617836e-02 1.679181e-02 
2.197130e-02 2.254697e-02 2.247945e-02 2.283569e-02 2.376904e-02 2.548603e-02 2.935807e-02 3.377081e-02 4.068094e-02 4.732439e-02 5.579614e-02 6.335242e-02 7.155999e-02 7.841809e-02 8.426599e-02 8.848690e-02 8.938081e-02 8.868976e-02 8.149824e-02 7.392561e-02 5.677705e-02 4.414785e-02 2.245903e-02 4.076654e-02 7.250857e-02 9.890547e-02 9.626597e-02 1.019613e-01 1.224013e-01 1.292767e-01 1.393303e-01 1.552766e-01 1.665558e-01 1.597682e-01 1.482802e-01 1.300366e-01 1.183745e-01 9.655690e-02 9.307979e-02 1.061161e-01 9.904419e-02 6.582752e-02 2.645188e-02 6.259157e-03 3.993674e-02 6.664789e-02 8.512948e-02 9.605858e-02 9.957174e-02 9.913686e-02 9.426702e-02 8.785138e-02 7.942398e-02 7.048157e-02 6.123375e-02 5.196674e-02 4.358863e-02 3.573059e-02 2.960801e-02 2.484749e-02 2.210173e-02 2.115055e-02 2.097769e-02 2.177676e-02 
2.745414e-02 2.802299e-02 2.758753e-02 2.755474e-02 2.767299e-02 2.866453e-02 3.171246e-02 3.562383e-02 4.241152e-02 4.912564e-02 5.814433e-02 6.623031e-02 7.537862e-02 8.307464e-02 8.999002e-02 9.511526e-02 9.664902e-02 9.626052e-02 8.781577e-02 7.952687e-02 5.944312e-02 5.512058e-02 3.990892e-02 5.991244e-02 9.368287e-02 1.703565e-01 2.266232e-01 2.454059e-01 2.109064e-01 1.582721e-01 1.192399e-01 6.408244e-02 7.982417e-03 6.815488e-02 1.316214e-01 1.743647e-01 2.152732e-01 2.414151e-01 2.255172e-01 1.793805e-01 1.290942e-01 9.978965e-02 5.476556e-02 2.185045e-02 3.772707e-02 7.408084e-02 9.664855e-02 1.095826e-01 1.117985e-01 1.102249e-01 1.030818e-01 9.507621e-02 8.488932e-02 7.462481e-02 6.428912e-02 5.416550e-02 4.534661e-02 3.731676e-02 3.151602e-02 2.747982e-02 2.562994e-02 2.561206e-02 2.599833e-02 2.720590e-02 
3.301827e-02 3.351195e-02 3.274620e-02 3.231320e-02 3.166528e-02 3.184860e-02 3.391554e-02 3.702875e-02 4.342625e-02 4.984504e-02 5.921586e-02 6.739997e-02 7.737386e-02 8.533102e-02 9.338897e-02 9.870657e-02 1.015436e-01 1.006773e-01 9.235229e-02 8.123717e-02 6.150901e-02 7.293410e-02 8.297806e-02 1.629655e-01 2.433013e-01 2.657165e-01 1.477778e-01 3.257657e-02 7.473723e-02 1.046685e-01 1.021643e-01 7.190944e-02 3.789299e-02 6.045940e-02 9.337852e-02 9.075532e-02 5.945696e-02 2.729189e-02 1.438434e-01 2.532677e-01 2.759415e-01 2.176713e-01 1.218816e-01 7.302765e-02 3.777272e-02 7.779807e-02 1.055731e-01 1.198447e-01 1.213126e-01 1.181499e-01 1.096650e-01 1.001454e-01 8.907112e-02 7.770623e-02 6.692089e-02 5.618470e-02 4.737787e-02 3.942598e-02 3.422846e-02 3.097686e-02 2.993358e-02 3.058383e-02 3.133962e-02 3.277191e-02 
3.896954e-02 3.945369e-02 3.829037e-02 3.744115e-02 3.582017e-02 3.503380e-02 3.562812e-02 3.757727e-02 4.304760e-02 4.895334e-02 5.843475e-02 6.684540e-02 7.763647e-02 8.644021e-02 9.577247e-02 1.023188e-01 1.064203e-01 1.053213e-01 9.433623e-02 7.327499e-02 4.633814e-02 7.896312e-02 1.355980e-01 1.851780e-01 8.446694e-02 8.846365e-02 1.589592e-01 9.129823e-02 4.462092e-02 9.322340e-02 1.114483e-01 1.170933e-01 1.266155e-01 1.257306e-01 1.199374e-01 8.926529e-02 4.605291e-02 9.177065e-02 1.509802e-01 1.071146e-01 7.669409e-02 2.448084e-01 2.301291e-01 1.511731e-01 6.980028e-02 8.650054e-02 1.189581e-01 1.335865e-01 1.313510e-01 1.261567e-01 1.146260e-01 1.034314e-01 9.072967e-02 7.821250e-02 6.677713e-02 5.557304e-02 4.695337e-02 3.956126e-02 3.545716e-02 3.365766e-02 3.382759e-02 3.554782e-02 3.684789e-02 3.869090e-02 
4.445950e-02 4.489245e-02 4.341841e-02 4.218160e-02 3.972822e-02 3.799924e-02 3.709349e-02 3.764472e-02 4.186686e-02 4.689571e-02 5.627061e-02 6.455928e-02 7.600392e-02 8.507861e-02 9.539489e-02 1.020461e-01 1.076247e-01 1.059448e-01 9.688032e-02 6.741617e-02 3.371090e-02 6.293240e-02 7.439986e-02 4.011250e-02 1.063826e-01 1.391274e-02 1.847272e-01 3.330340e-01 3.181118e-01 2.489106e-01 1.654706e-01 1.006220e-01 6.618102e-02 1.216089e-01 1.980317e-01 2.736804e-01 3.521533e-01 3.556953e-01 2.299320e-01 4.774314e-02 1.254817e-01 3.369179e-02 1.547025e-01 2.140100e-01 1.531412e-01 9.936255e-02 1.286666e-01 1.384869e-01 1.342792e-01 1.275013e-01 1.158292e-01 1.037649e-01 9.102579e-02 7.775791e-02 6.642102e-02 5.498518e-02 4.693023e-02 4.026258e-02 3.732651e-02 3.678971e-02 3.791066e-02 4.037431e-02 4.205984e-02 4.415664e-02 
5.012505e-02 5.054188e-02 4.868907e-02 4.707305e-02 4.363303e-02 4.087530e-02 3.798377e-02 3.665999e-02 3.875646e-02 4.240974e-02 5.142784e-02 5.983729e-02 7.245270e-02 8.317993e-02 9.565779e-02 1.051967e-01 1.138367e-01 1.142513e-01 1.075924e-01 5.755450e-02 3.357543e-02 1.395996e-02 3.171791e-02 5.819015e-03 1.593207e-01 3.130539e-01 3.068992e-01 2.403674e-01 1.390703e-01 9.336517e-02 7.668803e-02 7.310343e-02 7.347361e-02 8.269843e-02 1.008445e-01 1.397319e-01 1.920247e-01 2.887861e-01 3.583616e-01 3.820867e-01 1.948313e-01 4.599817e-02 6.288665e-02 6.897558e-02 1.483846e-01 1.081537e-01 1.263685e-01 1.378228e-01 1.284942e-01 1.238604e-01 1.114865e-01 9.964027e-02 8.661138e-02 7.280232e-02 6.169749e-02 5.045303e-02 4.356404e-02 3.863129e-02 3.769189e-02 3.926282e-02 4.169410e-02 4.521653e-02 4.736481e-02 4.981846e-02 
5.467864e-02 5.507523e-02 5.297956e-02 5.105848e-02 4.685387e-02 4.320810e-02 3.849392e-02 3.524062e-02 3.485964e-02 3.698493e-02 4.587734e-02 5.516581e-02 6.974790e-02 8.320312e-02 9.776330e-02 1.086744e-01 1.161547e-01 1.124125e-01 1.154042e-01 5.448148e-02 2.716453e-02 1.658542e-02 5.855384e-02 1.691211e-01 2.208837e-01 1.820764e-01 1.283791e-01 1.005168e-01 4.165300e-02 3.517477e-02 7.826672e-02 1.067461e-01 1.174118e-01 1.135811e-01 9.521937e-02 7.428979e-02 6.578656e-02 1.098958e-01 1.524176e-01 2.383648e-01 3.012193e-01 2.091280e-01 2.681731e-02 3.730116e-02 2.712761e-02 4.280499e-02 7.760433e-02 1.060844e-01 1.074156e-01 1.131077e-01 1.059315e-01 9.561468e-02 8.314869e-02 6.865453e-02 5.769819e-02 4.648781e-02 4.066162e-02 3.742003e-02 3.820796e-02 4.146273e-02 4.486217e-02 4.912763e-02 5.163197e-02 5.432770e-02 
5.916096e-02 5.953484e-02 5.716689e-02 5.499584e-02 5.001836e-02 4.556962e-02 3.882255e-02 3.332486e-02 2.919468e-02 2.885816e-02 3.812231e-02 4.946640e-02 6.855955e-02 8.788637e-02 1.095548e-01 1.308382e-01 1.516853e-01 1.669768e-01 1.124427e-01 2.039016e-02 4.535727e-02 3.150787e-02 9.957449e-02 1.307743e-01 1.325402e-01 1.396982e-01 1.153894e-01 6.612709e-02 1.978138e-02 5.608088e-02 9.244461e-02 1.093542e-01 1.155128e-01 1.096687e-01 9.105727e-02 5.997899e-02 1.197228e-02 6.451908e-02 1.236791e-01 1.719863e-01 1.866397e-01 1.924002e-01 1.464699e-01 5.216507e-02 4.085059e-02 2.633837e-02 1.077704e-01 1.363184e-01 1.094744e-01 1.155588e-01 1.048441e-01 9.184150e-02 7.762871e-02 6.051740e-02 4.931450e-02 3.811671e-02 3.439540e-02 3.450292e-02 3.797900e-02 4.356216e-02 4.804970e-02 5.312702e-02 5.592259e-02 5.883383e-02 
6.186772e-02 6.226572e-02 5.981008e-02 5.752451e-02 5.207968e-02 4.708724e-02 3.873114e-02 3.131352e-02 2.297414e-02 2.033130e-02 3.206808e-02 4.881062e-02 7.406172e-02 1.027230e-01 1.314110e-01 1.629008e-01 1.857522e-01 1.435008e-01 1.595466e-02 8.540446e-02 2.925598e-02 1.167732e-02 6.152428e-02 1.150910e-01 1.308823e-01 1.224123e-01 1.030462e-01 8.456876e-02 5.865057e-02 5.724420e-02 8.052834e-02 9.817690e-02 1.056642e-01 9.738076e-02 7.593316e-02 4.686656e-02 4.139238e-02 7.073053e-02 1.030133e-01 1.350305e-01 1.538468e-01 1.382477e-01 9.580188e-02 4.224257e-02 1.785529e-02 1.102001e-01 2.250071e-02 1.425815e-01 1.425535e-01 1.442085e-01 1.237031e-01 1.023910e-01 8.092578e-02 5.870573e-02 4.422592e-02 3.142364e-02 2.848798e-02 3.164535e-02 3.716027e-02 4.449710e-02 4.974970e-02 5.537926e-02 5.841603e-02 6.148111e-02 
6.425838e-02 6.463390e-02 6.213705e-02 5.984145e-02 5.415374e-02 4.891338e-02 3.937882e-02 3.052816e-02 1.712931e-02 9.699475e-03 2.716305e-02 4.882388e-02 8.006573e-02 1.127093e-01 1.432612e-01 1.765826e-01 1.994830e-01 8.324189e-02 9.630515e-02 2.472373e-02 5.783100e-02 3.560113e-02 7.158096e-02 1.100552e-01 1.239745e-01 1.255912e-01 1.055536e-01 8.346759e-02 6.402496e-02 6.351733e-02 7.697943e-02 8.603312e-02 9.051488e-02 8.443334e-02 7.221868e-02 5.588801e-02 5.648302e-02 7.921223e-02 1.108226e-01 1.387995e-01 1.451852e-01 1.371101e-01 1.057997e-01 6.141813e-02 7.832551e-02 2.334650e-02 1.227040e-01 8.941050e-02 1.759848e-01 1.526338e-01 1.402205e-01 1.083324e-01 8.397488e-02 5.444561e-02 3.671823e-02 2.093144e-02 2.076016e-02 2.929849e-02 3.727876e-02 4.619204e-02 5.195243e-02 5.782580e-02 6.088272e-02 6.391362e-02 
6.431483e-02 6.477743e-02 6.247730e-02 6.039417e-02 5.488392e-02 4.978624e-02 3.988497e-02 3.056916e-02 1.395163e-02 2.335273e-03 2.852341e-02 5.480047e-02 9.014925e-02 1.304657e-01 1.553606e-01 2.310562e-01 2.081180e-01 7.500699e-02 1.048249e-01 1.090337e-01 9.447867e-02 7.153578e-02 8.435678e-02 1.168833e-01 1.254814e-01 1.249802e-01 1.092903e-01 9.291992e-02 7.135515e-02 5.907290e-02 5.928642e-02 6.322621e-02 6.664753e-02 6.201509e-02 5.657487e-02 5.543485e-02 7.085194e-02 9.430220e-02 1.169582e-01 1.374275e-01 1.423385e-01 1.390830e-01 1.025078e-01 8.006941e-02 5.390764e-02 1.328676e-01 1.104394e-01 1.010582e-01 1.820170e-01 2.112863e-01 1.480423e-01 1.206047e-01 9.055634e-02 5.671101e-02 3.478900e-02 1.315208e-02 1.317215e-02 2.665921e-02 3.614878e-02 4.594178e-02 5.195461e-02 5.785834e-02 6.091835e-02 6.390121e-02 
6.384343e-02 6.431417e-02 6.235802e-02 6.062824e-02 5.578329e-02 5.121863e-02 4.207875e-02 3.335344e-02 1.832347e-02 1.290730e-02 3.474725e-02 6.281642e-02 1.050691e-01 1.497180e-01 1.798167e-01 2.655831e-01 5.361979e-02 1.861426e-01 8.876962e-02 2.020040e-01 9.132839e-02 8.289307e-02 9.400723e-02 1.160240e-01 1.202493e-01 1.185947e-01 1.013922e-01 8.430629e-02 6.302242e-02 5.036943e-02 4.653342e-02 4.701092e-02 4.942072e-02 4.702016e-02 4.722955e-02 5.178764e-02 6.806690e-02 9.071216e-02 1.126690e-01 1.322670e-01 1.381620e-01 1.344949e-01 1.127077e-01 8.768244e-02 6.737571e-02 1.954908e-01 1.111244e-01 1.859889e-01 5.081716e-02 2.484880e-01 1.592309e-01 1.347566e-01 9.754157e-02 5.805259e-02 3.264113e-02 5.028470e-03 1.167572e-02 2.795229e-02 3.797651e-02 4.728050e-02 5.293158e-02 5.817126e-02 6.087581e-02 6.347616e-02 
6.070159e-02 6.135793e-02 6.004689e-02 5.901205e-02 5.539760e-02 5.187514e-02 4.457786e-02 3.722062e-02 2.648314e-02 2.302188e-02 4.477648e-02 6.863573e-02 1.242545e-01 1.502568e-01 2.293733e-01 2.390877e-01 1.262701e-01 8.156029e-02 2.711536e-01 1.484336e-01 7.833232e-02 7.133928e-02 9.582987e-02 1.131035e-01 1.148859e-01 1.115865e-01 9.561040e-02 8.046043e-02 5.915479e-02 4.343738e-02 3.143576e-02 2.685128e-02 2.810728e-02 2.891138e-02 3.618942e-02 4.877544e-02 6.741346e-02 8.928676e-02 1.079956e-01 1.258114e-01 1.322325e-01 1.322543e-01 1.156522e-01 8.390266e-02 7.463368e-02 1.289545e-01 2.821837e-01 8.334467e-02 1.496905e-01 2.397351e-01 2.258660e-01 1.344913e-01 1.181980e-01 6.270093e-02 3.963272e-02 1.203246e-02 1.601844e-02 2.888660e-02 3.841349e-02 4.639927e-02 5.143240e-02 5.576315e-02 5.805591e-02 6.027178e-02 
5.688139e-02 5.766964e-02 5.725857e-02 5.711523e-02 5.538535e-02 5.323986e-02 4.897111e-02 4.307743e-02 3.708371e-02 3.185861e-02 5.141960e-02 6.825377e-02 1.304281e-01 1.350909e-01 2.537857e-01 1.336293e-01 2.070579e-01 1.437417e-01 2.702885e-01 7.467148e-02 3.897693e-02 6.351060e-02 8.607472e-02 1.053937e-01 1.028769e-01 9.910558e-02 8.240083e-02 6.801611e-02 4.769675e-02 3.327249e-02 2.006082e-02 1.454989e-02 1.614735e-02 1.909206e-02 2.787646e-02 4.062313e-02 5.689419e-02 7.677891e-02 9.327721e-02 1.102588e-01 1.155480e-01 1.179657e-01 9.768161e-02 7.459832e-02 2.688727e-02 5.547475e-02 2.611980e-01 1.675526e-01 2.206749e-01 1.179434e-01 2.524887e-01 1.199950e-01 1.219060e-01 5.896790e-02 4.172144e-02 1.974554e-02 2.736862e-02 3.465570e-02 4.249462e-02 4.749844e-02 5.107715e-02 5.364532e-02 5.505842e-02 5.649778e-02 
5.038271e-02 5.155250e-02 5.241648e-02 5.367103e-02 5.441893e-02 5.428281e-02 5.369562e-02 4.978640e-02 4.835961e-02 4.166310e-02 5.841744e-02 7.050892e-02 1.309444e-01 1.424278e-01 2.453226e-01 5.945367e-02 1.585750e-01 2.731621e-01 2.281489e-01 3.202754e-02 1.825643e-02 7.239574e-02 8.624484e-02 1.011722e-01 9.513635e-02 8.963983e-02 7.354334e-02 6.059960e-02 4.233464e-02 2.930899e-02 1.447175e-02 5.030983e-03 5.480739e-03 1.359217e-02 2.404993e-02 3.727481e-02 5.149446e-02 6.926829e-02 8.384188e-02 1.003397e-01 1.076574e-01 1.137938e-01 1.010899e-01 8.449670e-02 3.321407e-02 2.794221e-02 2.167022e-01 2.837088e-01 1.413641e-01 6.717981e-02 2.563275e-01 1.562194e-01 1.183761e-01 6.674956e-02 4.849812e-02 3.153051e-02 3.863832e-02 4.027682e-02 4.574954e-02 4.715711e-02 4.876228e-02 4.918720e-02 4.943099e-02 5.000514e-02 
4.317221e-02 4.483213e-02 4.734139e-02 5.030267e-02 5.391306e-02 5.604346e-02 5.911223e-02 5.736050e-02 5.908882e-02 5.134727e-02 6.077457e-02 6.965587e-02 1.098114e-01 1.674974e-01 2.046788e-01 1.028139e-01 6.273941e-02 2.774390e-01 1.832124e-01 6.153616e-02 8.686562e-02 9.414160e-02 1.026285e-01 1.020990e-01 9.249120e-02 8.146259e-02 6.509176e-02 5.124934e-02 3.496077e-02 2.349732e-02 1.152184e-02 5.608595e-03 5.786884e-03 1.118583e-02 1.823479e-02 2.871717e-02 4.019121e-02 5.587931e-02 7.000000e-02 8.646600e-02 9.795755e-02 1.074021e-01 1.086794e-01 9.872855e-02 9.248560e-02 7.072819e-02 1.673655e-01 2.683424e-01 6.154817e-02 1.322130e-01 2.071808e-01 1.764321e-01 9.072821e-02 6.468700e-02 4.912554e-02 4.224999e-02 4.891256e-02 4.788040e-02 5.016462e-02 4.815603e-02 4.704880e-02 4.491115e-02 4.346268e-02 4.286126e-02 
3.369709e-02 3.624212e-02 4.088995e-02 4.618482e-02 5.279650e-02 5.779214e-02 6.401119e-02 6.570620e-02 6.948483e-02 6.452313e-02 6.547869e-02 6.660385e-02 7.481474e-02 1.660422e-01 1.696470e-01 1.283056e-01 5.295480e-02 2.304606e-01 1.620917e-01 1.124552e-01 1.332922e-01 1.211989e-01 1.223525e-01 1.078552e-01 9.491660e-02 7.775672e-02 6.161907e-02 4.653465e-02 3.279315e-02 2.246984e-02 1.389288e-02 9.861708e-03 9.136026e-03 1.200417e-02 1.657375e-02 2.482263e-02 3.444574e-02 4.846316e-02 6.320204e-02 8.056185e-02 9.769385e-02 1.120690e-01 1.260901e-01 1.253190e-01 1.329350e-01 1.094488e-01 1.410015e-01 2.404942e-01 8.803242e-02 1.521224e-01 1.579379e-01 1.724551e-01 7.162318e-02 7.016917e-02 5.772612e-02 5.811889e-02 5.960187e-02 5.688044e-02 5.454606e-02 4.956739e-02 4.487716e-02 3.984832e-02 3.584776e-02 3.363150e-02 
2.377548e-02 2.790101e-02 3.527862e-02 4.306167e-02 5.230497e-02 5.989953e-02 6.839377e-02 7.360798e-02 7.870955e-02 7.896418e-02 7.550911e-02 7.446936e-02 5.468615e-02 1.330939e-01 1.350830e-01 1.250656e-01 6.777946e-02 1.936181e-01 1.598874e-01 1.590546e-01 1.713518e-01 1.534482e-01 1.450981e-01 1.205364e-01 1.030100e-01 7.957323e-02 6.240824e-02 4.448443e-02 3.195861e-02 2.095266e-02 1.427239e-02 9.683086e-03 8.051329e-03 8.389452e-03 1.099921e-02 1.799213e-02 2.781778e-02 4.199157e-02 5.961165e-02 7.959490e-02 1.033575e-01 1.248073e-01 1.497505e-01 1.635459e-01 1.804256e-01 1.765707e-01 1.699865e-01 2.097031e-01 1.012242e-01 1.345534e-01 1.350026e-01 1.293823e-01 3.950589e-02 6.655916e-02 6.001786e-02 6.787368e-02 6.515638e-02 6.277634e-02 5.666880e-02 5.013161e-02 4.231195e-02 3.489844e-02 2.802198e-02 2.385016e-02 
1.264493e-02 1.969554e-02 3.021427e-02 4.033908e-02 5.146733e-02 6.114984e-02 7.095605e-02 7.913931e-02 8.477665e-02 9.027194e-02 8.436188e-02 8.814526e-02 5.057082e-02 8.954054e-02 1.100200e-01 9.435071e-02 4.338372e-02 1.702299e-01 1.691811e-01 1.934278e-01 1.929684e-01 1.742805e-01 1.576973e-01 1.283238e-01 1.072739e-01 8.038896e-02 6.258597e-02 4.312404e-02 3.159652e-02 2.022700e-02 1.468312e-02 9.413375e-03 7.268955e-03 5.469590e-03 6.749044e-03 1.297740e-02 2.300672e-02 3.704995e-02 5.591034e-02 7.729591e-02 1.036793e-01 1.293412e-01 1.573338e-01 1.800704e-01 1.949907e-01 2.056059e-01 1.729579e-01 1.916991e-01 5.684515e-02 9.170078e-02 1.176043e-01 8.582028e-02 3.437957e-02 8.003479e-02 6.984533e-02 8.081303e-02 7.237649e-02 6.989148e-02 6.011631e-02 5.235678e-02 4.167439e-02 3.210380e-02 2.164804e-02 1.378910e-02 
5.280023e-03 1.652341e-02 2.877655e-02 3.978331e-02 5.156763e-02 6.193466e-02 7.219855e-02 8.147866e-02 8.738487e-02 9.520977e-02 8.877928e-02 9.664503e-02 5.447161e-02 7.074685e-02 9.315564e-02 7.240098e-02 2.110352e-02 1.575607e-01 1.700373e-01 2.047840e-01 2.008687e-01 1.832117e-01 1.640500e-01 1.334354e-01 1.110610e-01 8.292549e-02 6.460010e-02 4.426657e-02 3.264027e-02 2.062527e-02 1.492614e-02 8.738316e-03 5.658959e-03 9.369318e-04 4.157027e-03 1.218074e-02 2.364754e-02 3.852563e-02 5.885655e-02 8.161568e-02 1.100306e-01 1.382610e-01 1.686655e-01 1.956997e-01 2.113650e-01 2.267708e-01 1.855399e-01 1.878882e-01 1.292401e-02 7.466146e-02 1.152059e-01 5.872156e-02 3.004740e-02 8.125695e-02 6.868758e-02 8.160350e-02 7.163348e-02 6.978565e-02 5.917167e-02 5.142501e-02 4.002654e-02 2.992154e-02 1.798315e-02 6.961912e-03 
1.264493e-02 1.969554e-02 3.021427e-02 4.033908e-02 5.146733e-02 6.114984e-02 7.095605e-02 7.913931e-02 8.477665e-02 9.027194e-02 8.436188e-02 8.814526e-02 5.057082e-02 8.954054e-02 1.100200e-01 9.435071e-02 4.338372e-02 1.702299e-01 1.691811e-01 1.934278e-01 1.929684e-01 1.742805e-01 1.576973e-01 1.283238e-01 1.072739e-01 8.038896e-02 6.258597e-02 4.312404e-02 3.159652e-02 2.022700e-02 1.468312e-02 9.413375e-03 7.268955e-03 5.469590e-03 6.749044e-03 1.297740e-02 2.300672e-02 3.704995e-02 5.591034e-02 7.729591e-02 1.036793e-01 1.293412e-01 1.573338e-01 1.800704e-01 1.949907e-01 2.056059e-01 1.729579e-01 1.916991e-01 5.684515e-02 9.170078e-02 1.176043e-01 8.582028e-02 3.437957e-02 8.003479e-02 6.984533e-02 8.081303e-02 7.237649e-02 6.989148e-02 6.011631e-02 5.235678e-02 4.167439e-02 3.210380e-02 2.164804e-02 1.378910e-02 
2.377548e-02 2.790101e-02 3.527862e-02 4.306167e-02 5.230497e-02 5.989953e-02 6.839377e-02 7.360798e-02 7.870955e-02 7.896418e-02 7.550911e-02 7.446936e-02 5.468615e-02 1.330939e-01 1.350830e-01 1.250656e-01 6.777946e-02 1.936181e-01 1.598874e-01 1.590546e-01 1.713518e-01 1.534482e-01 1.450981e-01 1.205364e-01 1.030100e-01 7.957323e-02 6.240824e-02 4.448443e-02 3.195861e-02 2.095266e-02 1.427239e-02 9.683086e-03 8.051329e-03 8.389452e-03 1.099921e-02 1.799213e-02 2.781778e-02 4.199157e-02 5.961165e-02 7.959490e-02 1.033575e-01 1.248073e-01 1.497505e-01 1.635459e-01 1.804256e-01 1.765707e-01 1.699865e-01 2.097031e-01 1.012242e-01 1.345534e-01 1.350026e-01 1.293823e-01 3.950589e-02 6.655916e-02 6.001786e-02 6.787368e-02 6.515638e-02 6.277634e-02 5.666880e-02 5.013161e-02 4.231195e-02 3.489844e-02 2.802198e-02 2.385016e-02 