# vtk DataFile Version 2.0
Comment goes here
ASCII

DATASET STRUCTURED_POINTS
FIELD FieldData 1
TIME 1 1 double
0.75000000
DIMENSIONS    64   64   1

ORIGIN    0.000   0.000   0.000
SPACING   0.015625 0.015625   1.000

POINT_DATA   4096
SCALARS uMag double
LOOKUP_TABLE default

8.854088e-04 6.424575e-04 2.155681e-03 4.075458e-03 6.152127e-03 8.910747e-03 1.195844e-02 1.594279e-02 2.027937e-02 2.577893e-02 3.159619e-02 3.876363e-02 4.608683e-02 5.489066e-02 6.352790e-02 7.368930e-02 8.316439e-02 9.407108e-02 1.035386e-01 1.141374e-01 1.222914e-01 1.309843e-01 1.360031e-01 1.406250e-01 1.402579e-01 1.382981e-01 1.302863e-01 1.195895e-01 1.026175e-01 8.262348e-02 5.763324e-02 3.060348e-02 1.528310e-03 2.748733e-02 5.479618e-02 7.995490e-02 1.003378e-01 1.176238e-01 1.286811e-01 1.370525e-01 1.392609e-01 1.399729e-01 1.354808e-01 1.307764e-01 1.221359e-01 1.142667e-01 1.036914e-01 9.447709e-02 8.359900e-02 7.433941e-02 6.422986e-02 5.576379e-02 4.704105e-02 3.984035e-02 3.278125e-02 2.703655e-02 2.166579e-02 1.735331e-02 1.350911e-02 1.044089e-02 7.823938e-03 5.687645e-03 3.901583e-03 2.296338e-03 
1.713920e-03 1.646065e-03 2.736487e-03 4.506206e-03 6.570328e-03 9.327380e-03 1.242348e-02 1.644254e-02 2.084792e-02 2.639259e-02 3.228154e-02 3.948921e-02 4.687213e-02 5.569751e-02 6.436684e-02 7.451849e-02 8.398364e-02 9.484281e-02 1.042528e-01 1.147758e-01 1.228408e-01 1.314673e-01 1.364178e-01 1.410555e-01 1.407372e-01 1.389809e-01 1.312793e-01 1.211232e-01 1.049844e-01 8.627964e-02 6.369644e-02 4.173540e-02 2.908739e-02 3.951528e-02 6.116161e-02 8.373663e-02 1.027732e-01 1.191903e-01 1.296962e-01 1.377487e-01 1.397496e-01 1.404141e-01 1.359030e-01 1.312713e-01 1.226944e-01 1.149169e-01 1.044159e-01 9.525746e-02 8.442678e-02 7.517062e-02 6.507120e-02 5.656280e-02 4.781794e-02 4.054532e-02 3.344304e-02 2.761410e-02 2.219156e-02 1.779833e-02 1.390694e-02 1.077729e-02 8.134856e-03 5.979273e-03 4.227127e-03 2.733205e-03 
3.046418e-03 3.069140e-03 3.980240e-03 5.601263e-03 7.705818e-03 1.051400e-02 1.378083e-02 1.793091e-02 2.256465e-02 2.826372e-02 3.439509e-02 4.174003e-02 4.933817e-02 5.824305e-02 6.705229e-02 7.718153e-02 8.665720e-02 9.735284e-02 1.065987e-01 1.168058e-01 1.245300e-01 1.327453e-01 1.372790e-01 1.415935e-01 1.410734e-01 1.394715e-01 1.323699e-01 1.235462e-01 1.098187e-01 9.482728e-02 7.829962e-02 6.449554e-02 5.864201e-02 6.321009e-02 7.647118e-02 9.271061e-02 1.078974e-01 1.217838e-01 1.309047e-01 1.383111e-01 1.401243e-01 1.409742e-01 1.367572e-01 1.325359e-01 1.243470e-01 1.169061e-01 1.067060e-01 9.770633e-02 8.703177e-02 7.775713e-02 6.767763e-02 5.901854e-02 5.019375e-02 4.269268e-02 3.545180e-02 2.936549e-02 2.378302e-02 1.914512e-02 1.510793e-02 1.178699e-02 9.055356e-03 6.814903e-03 5.103465e-03 3.750435e-03 
4.411148e-03 4.506372e-03 5.431780e-03 7.045288e-03 9.287403e-03 1.223896e-02 1.578902e-02 2.017917e-02 2.517627e-02 3.114700e-02 3.765951e-02 4.524433e-02 5.317214e-02 6.221432e-02 7.121859e-02 8.130607e-02 9.075241e-02 1.011666e-01 1.100944e-01 1.197830e-01 1.269264e-01 1.345253e-01 1.384328e-01 1.423951e-01 1.417258e-01 1.406761e-01 1.347807e-01 1.282838e-01 1.182079e-01 1.081518e-01 9.810636e-02 9.030708e-02 8.772746e-02 8.950298e-02 9.687593e-02 1.065020e-01 1.166534e-01 1.267435e-01 1.334766e-01 1.396143e-01 1.408345e-01 1.418210e-01 1.379208e-01 1.343310e-01 1.267294e-01 1.198722e-01 1.101725e-01 1.014827e-01 9.108267e-02 8.181698e-02 7.177941e-02 6.289603e-02 5.393588e-02 4.607166e-02 3.859005e-02 3.208945e-02 2.622836e-02 2.119787e-02 1.690492e-02 1.327671e-02 1.037386e-02 7.976899e-03 6.251017e-03 4.960791e-03 
5.711583e-03 5.869306e-03 6.894935e-03 8.622529e-03 1.111085e-02 1.432384e-02 1.828181e-02 2.304051e-02 2.854667e-02 3.492132e-02 4.196869e-02 4.990998e-02 5.830664e-02 6.755953e-02 7.685304e-02 8.689552e-02 9.632407e-02 1.063406e-01 1.148345e-01 1.237414e-01 1.300143e-01 1.365694e-01 1.393726e-01 1.424445e-01 1.411053e-01 1.402492e-01 1.355573e-01 1.319235e-01 1.266956e-01 1.229289e-01 1.202152e-01 1.180104e-01 1.181000e-01 1.176081e-01 1.196283e-01 1.219029e-01 1.256987e-01 1.307491e-01 1.345155e-01 1.393459e-01 1.402968e-01 1.419227e-01 1.388480e-01 1.363558e-01 1.297492e-01 1.237575e-01 1.148133e-01 1.065473e-01 9.653771e-02 8.727368e-02 7.728520e-02 6.809173e-02 5.892971e-02 5.057347e-02 4.274408e-02 3.568583e-02 2.942587e-02 2.386666e-02 1.920463e-02 1.515479e-02 1.198608e-02 9.343162e-03 7.519876e-03 6.198425e-03 
6.943526e-03 7.177513e-03 8.350027e-03 1.027427e-02 1.308492e-02 1.665906e-02 2.111913e-02 2.636355e-02 3.249034e-02 3.939483e-02 4.709065e-02 5.549823e-02 6.444894e-02 7.396611e-02 8.356235e-02 9.350817e-02 1.028118e-01 1.122321e-01 1.200278e-01 1.278050e-01 1.328029e-01 1.379179e-01 1.392312e-01 1.412715e-01 1.392985e-01 1.391975e-01 1.365122e-01 1.367319e-01 1.369442e-01 1.392006e-01 1.425082e-01 1.442489e-01 1.461851e-01 1.441135e-01 1.424257e-01 1.387220e-01 1.365337e-01 1.359724e-01 1.357987e-01 1.384933e-01 1.386027e-01 1.408352e-01 1.387204e-01 1.377318e-01 1.325075e-01 1.277965e-01 1.199495e-01 1.123672e-01 1.029463e-01 9.377603e-02 8.389242e-02 7.435567e-02 6.494366e-02 5.599072e-02 4.770860e-02 3.996363e-02 3.318334e-02 2.697482e-02 2.183265e-02 1.726635e-02 1.374390e-02 1.078914e-02 8.803483e-03 7.404756e-03 
8.023207e-03 8.335419e-03 9.689906e-03 1.188082e-02 1.509285e-02 1.912809e-02 2.419382e-02 3.003939e-02 3.690470e-02 4.445389e-02 5.291234e-02 6.187632e-02 7.146803e-02 8.128733e-02 9.122528e-02 1.010374e-01 1.101941e-01 1.188907e-01 1.258878e-01 1.322964e-01 1.357827e-01 1.390495e-01 1.383648e-01 1.386868e-01 1.352131e-01 1.349874e-01 1.337913e-01 1.380282e-01 1.447774e-01 1.544214e-01 1.651444e-01 1.716606e-01 1.758279e-01 1.718917e-01 1.657576e-01 1.547446e-01 1.452200e-01 1.378866e-01 1.335410e-01 1.345602e-01 1.346636e-01 1.383500e-01 1.378405e-01 1.388442e-01 1.353901e-01 1.321822e-01 1.256726e-01 1.188722e-01 1.101767e-01 1.011316e-01 9.140001e-02 8.149813e-02 7.180798e-02 6.219125e-02 5.337603e-02 4.484830e-02 3.744193e-02 3.047953e-02 2.474909e-02 1.956995e-02 1.559837e-02 1.225238e-02 1.002947e-02 8.496725e-03 
8.977931e-03 9.393047e-03 1.095994e-02 1.348123e-02 1.715115e-02 2.173442e-02 2.748024e-02 3.403144e-02 4.172117e-02 5.002482e-02 5.932552e-02 6.893405e-02 7.920983e-02 8.935663e-02 9.960399e-02 1.091948e-01 1.180514e-01 1.257703e-01 1.316412e-01 1.362235e-01 1.376744e-01 1.385271e-01 1.353394e-01 1.338468e-01 1.292834e-01 1.304394e-01 1.325277e-01 1.419498e-01 1.546793e-01 1.694964e-01 1.846814e-01 1.936187e-01 1.991086e-01 1.941031e-01 1.858509e-01 1.704763e-01 1.559845e-01 1.425024e-01 1.329031e-01 1.303969e-01 1.289558e-01 1.336711e-01 1.348551e-01 1.383972e-01 1.372580e-01 1.360916e-01 1.313573e-01 1.256539e-01 1.179312e-01 1.091387e-01 9.964992e-02 8.938558e-02 7.939869e-02 6.904778e-02 5.961744e-02 5.020637e-02 4.206914e-02 3.425465e-02 2.783669e-02 2.196698e-02 1.746665e-02 1.367812e-02 1.116495e-02 9.478082e-03 
9.680526e-03 1.020753e-02 1.201825e-02 1.493235e-02 1.913276e-02 2.435673e-02 3.087839e-02 3.823750e-02 4.684906e-02 5.599222e-02 6.620469e-02 7.649631e-02 8.747623e-02 9.793083e-02 1.084729e-01 1.177917e-01 1.263620e-01 1.330848e-01 1.379523e-01 1.407886e-01 1.404524e-01 1.390652e-01 1.335063e-01 1.300857e-01 1.235352e-01 1.242799e-01 1.277781e-01 1.413325e-01 1.608711e-01 1.826609e-01 2.047079e-01 2.177280e-01 2.253395e-01 2.186815e-01 2.068017e-01 1.847645e-01 1.634396e-01 1.428348e-01 1.289198e-01 1.247186e-01 1.235103e-01 1.301326e-01 1.330481e-01 1.389513e-01 1.399331e-01 1.405291e-01 1.375124e-01 1.327742e-01 1.260645e-01 1.175223e-01 1.083385e-01 9.775151e-02 8.749452e-02 7.641903e-02 6.634094e-02 5.600307e-02 4.705324e-02 3.830609e-02 3.109644e-02 2.444574e-02 1.931561e-02 1.500577e-02 1.212494e-02 1.023635e-02 
1.018191e-02 1.085877e-02 1.294777e-02 1.632327e-02 2.110424e-02 2.705127e-02 3.440679e-02 4.266395e-02 5.225589e-02 6.232681e-02 7.349911e-02 8.455156e-02 9.627424e-02 1.071088e-01 1.179989e-01 1.271236e-01 1.354895e-01 1.412631e-01 1.451547e-01 1.461126e-01 1.437586e-01 1.396862e-01 1.313316e-01 1.260661e-01 1.189608e-01 1.233570e-01 1.322074e-01 1.505576e-01 1.731619e-01 1.957595e-01 2.181875e-01 2.307519e-01 2.388087e-01 2.319210e-01 2.208680e-01 1.985403e-01 1.768130e-01 1.529723e-01 1.343735e-01 1.245081e-01 1.193750e-01 1.263893e-01 1.309727e-01 1.397760e-01 1.432724e-01 1.458883e-01 1.446717e-01 1.408434e-01 1.350815e-01 1.266606e-01 1.177069e-01 1.066936e-01 9.610407e-02 8.422191e-02 7.342736e-02 6.208405e-02 5.224098e-02 4.248709e-02 3.440340e-02 2.691161e-02 2.107884e-02 1.620653e-02 1.290476e-02 1.080268e-02 
1.028794e-02 1.113614e-02 1.354453e-02 1.745213e-02 2.289017e-02 2.965587e-02 3.794197e-02 4.719394e-02 5.785403e-02 6.891870e-02 8.109769e-02 9.293499e-02 1.054191e-01 1.166726e-01 1.280124e-01 1.371393e-01 1.456848e-01 1.510337e-01 1.548191e-01 1.549140e-01 1.520670e-01 1.470773e-01 1.380232e-01 1.331665e-01 1.246800e-01 1.270944e-01 1.338364e-01 1.524865e-01 1.795342e-01 2.077662e-01 2.365073e-01 2.526279e-01 2.628573e-01 2.543860e-01 2.404201e-01 2.120995e-01 1.847931e-01 1.558098e-01 1.366786e-01 1.287589e-01 1.255984e-01 1.338902e-01 1.377154e-01 1.472140e-01 1.514809e-01 1.545497e-01 1.542096e-01 1.504094e-01 1.451106e-01 1.364421e-01 1.275204e-01 1.160153e-01 1.050459e-01 9.238238e-02 8.084416e-02 6.848682e-02 5.768073e-02 4.685520e-02 3.778947e-02 2.936431e-02 2.271245e-02 1.718978e-02 1.337180e-02 1.100310e-02 
1.008665e-02 1.116865e-02 1.394807e-02 1.847039e-02 2.460796e-02 3.226720e-02 4.151546e-02 5.182896e-02 6.357986e-02 7.571034e-02 8.894124e-02 1.017133e-01 1.151460e-01 1.272118e-01 1.395415e-01 1.494884e-01 1.592460e-01 1.653769e-01 1.703414e-01 1.706568e-01 1.680036e-01 1.618763e-01 1.509679e-01 1.441087e-01 1.352034e-01 1.446799e-01 1.584032e-01 1.781634e-01 2.006026e-01 2.215821e-01 2.438328e-01 2.552361e-01 2.645983e-01 2.568679e-01 2.479676e-01 2.260899e-01 2.067300e-01 1.819106e-01 1.621335e-01 1.471988e-01 1.365006e-01 1.448181e-01 1.505576e-01 1.623491e-01 1.674838e-01 1.703991e-01 1.697645e-01 1.646711e-01 1.586108e-01 1.485866e-01 1.388903e-01 1.262649e-01 1.145362e-01 1.008293e-01 8.840851e-02 7.494528e-02 6.311491e-02 5.117790e-02 4.107587e-02 3.168980e-02 2.415741e-02 1.795766e-02 1.355830e-02 1.090705e-02 
9.292381e-03 1.066422e-02 1.387808e-02 1.909544e-02 2.600681e-02 3.465697e-02 4.496853e-02 5.644672e-02 6.940000e-02 8.269915e-02 9.711476e-02 1.110040e-01 1.256646e-01 1.390294e-01 1.530458e-01 1.648762e-01 1.772125e-01 1.857922e-01 1.939267e-01 1.963913e-01 1.964573e-01 1.915447e-01 1.830054e-01 1.822518e-01 1.715633e-01 1.705552e-01 1.691845e-01 1.797039e-01 2.049329e-01 2.354547e-01 2.685737e-01 2.858302e-01 2.983442e-01 2.879693e-01 2.742682e-01 2.423590e-01 2.129049e-01 1.829709e-01 1.716588e-01 1.724490e-01 1.730897e-01 1.830789e-01 1.819900e-01 1.915682e-01 1.955528e-01 1.958185e-01 1.932905e-01 1.849461e-01 1.765231e-01 1.638220e-01 1.522335e-01 1.378515e-01 1.248262e-01 1.098629e-01 9.635348e-02 8.170628e-02 6.873300e-02 5.560218e-02 4.433609e-02 3.388831e-02 2.533870e-02 1.836345e-02 1.325596e-02 1.024921e-02 
8.073996e-03 9.862784e-03 1.359852e-02 1.960173e-02 2.730447e-02 3.700022e-02 4.836424e-02 6.104453e-02 7.519493e-02 8.976164e-02 1.055087e-01 1.209430e-01 1.375062e-01 1.534070e-01 1.708231e-01 1.869149e-01 2.046283e-01 2.185975e-01 2.325456e-01 2.388758e-01 2.415517e-01 2.355574e-01 2.219085e-01 2.076520e-01 1.886639e-01 2.038993e-01 2.227173e-01 2.338871e-01 2.433005e-01 2.530612e-01 2.684343e-01 2.749528e-01 2.849276e-01 2.759725e-01 2.730180e-01 2.585682e-01 2.513094e-01 2.359397e-01 2.257301e-01 2.072809e-01 1.895140e-01 2.061211e-01 2.191937e-01 2.356650e-01 2.402409e-01 2.380894e-01 2.319101e-01 2.176784e-01 2.040399e-01 1.857741e-01 1.699794e-01 1.519713e-01 1.364320e-01 1.193966e-01 1.043751e-01 8.832148e-02 7.411673e-02 5.978281e-02 4.733368e-02 3.585462e-02 2.625089e-02 1.850749e-02 1.260306e-02 9.191058e-03 
6.055219e-03 8.450282e-03 1.278472e-02 1.960956e-02 2.812882e-02 3.894659e-02 5.146561e-02 6.548182e-02 8.104869e-02 9.715819e-02 1.147234e-01 1.324131e-01 1.519605e-01 1.719943e-01 1.947606e-01 2.175821e-01 2.428593e-01 2.638774e-01 2.836096e-01 2.913089e-01 2.923404e-01 2.744794e-01 2.567919e-01 2.625416e-01 2.450048e-01 2.257636e-01 2.073078e-01 2.017925e-01 2.299672e-01 2.718350e-01 3.122883e-01 3.257776e-01 3.375585e-01 3.259749e-01 3.177929e-01 2.820534e-01 2.410644e-01 2.005568e-01 2.059319e-01 2.266547e-01 2.460738e-01 2.597771e-01 2.506137e-01 2.714677e-01 2.892059e-01 2.891745e-01 2.827448e-01 2.628841e-01 2.424239e-01 2.165994e-01 1.939446e-01 1.704976e-01 1.507208e-01 1.306382e-01 1.133379e-01 9.546162e-02 7.971327e-02 6.398426e-02 5.017147e-02 3.754362e-02 2.673973e-02 1.814695e-02 1.129490e-02 7.350424e-03 
3.645296e-03 7.018896e-03 1.199402e-02 1.963315e-02 2.890071e-02 4.085019e-02 5.445587e-02 6.983136e-02 8.682693e-02 1.047020e-01 1.245232e-01 1.454657e-01 1.695859e-01 1.963310e-01 2.276854e-01 2.608744e-01 2.966297e-01 3.250816e-01 3.476124e-01 3.485877e-01 3.355072e-01 3.036925e-01 2.584865e-01 1.932065e-01 1.825202e-01 2.520858e-01 3.217549e-01 3.198290e-01 2.918301e-01 2.694221e-01 2.630170e-01 2.534674e-01 2.566231e-01 2.512684e-01 2.623980e-01 2.688946e-01 2.986286e-01 3.177426e-01 3.295423e-01 2.710032e-01 1.889377e-01 1.796255e-01 2.469441e-01 3.003184e-01 3.298915e-01 3.438310e-01 3.458061e-01 3.235202e-01 2.964351e-01 2.601218e-01 2.272539e-01 1.948478e-01 1.682899e-01 1.432955e-01 1.226967e-01 1.024380e-01 8.492629e-02 6.779331e-02 5.262204e-02 3.896907e-02 2.698345e-02 1.765332e-02 9.801269e-03 5.164162e-03 
2.030380e-03 5.988505e-03 1.110987e-02 1.920170e-02 2.903461e-02 4.209611e-02 5.685602e-02 7.377238e-02 9.263461e-02 1.129009e-01 1.362189e-01 1.621095e-01 1.933353e-01 2.298778e-01 2.726300e-01 3.179840e-01 3.618615e-01 3.901711e-01 3.979663e-01 3.693103e-01 3.052738e-01 1.839217e-01 1.648893e-01 2.730982e-01 2.850517e-01 2.347911e-01 2.314493e-01 2.356222e-01 2.618185e-01 2.753039e-01 2.921557e-01 2.980870e-01 3.010495e-01 2.978177e-01 2.936877e-01 2.713892e-01 2.634266e-01 2.346173e-01 2.332682e-01 2.419388e-01 2.941047e-01 2.789358e-01 1.725928e-01 1.674242e-01 2.942100e-01 3.602180e-01 3.944152e-01 3.879828e-01 3.615147e-01 3.178111e-01 2.725336e-01 2.287494e-01 1.921579e-01 1.599080e-01 1.342417e-01 1.104291e-01 9.045706e-02 7.147802e-02 5.468188e-02 3.987999e-02 2.661838e-02 1.662197e-02 7.889788e-03 2.607624e-03 
5.107405e-03 6.970305e-03 1.119377e-02 1.916903e-02 2.927119e-02 4.336999e-02 5.914381e-02 7.765726e-02 9.848038e-02 1.215990e-01 1.493093e-01 1.818696e-01 2.226877e-01 2.723363e-01 3.289231e-01 3.860959e-01 4.308101e-01 4.390419e-01 4.007443e-01 2.804537e-01 1.171204e-01 1.920449e-01 2.006435e-01 1.828263e-01 1.844806e-01 1.855629e-01 2.450449e-01 2.995127e-01 3.405299e-01 3.597733e-01 3.447365e-01 3.215182e-01 3.130185e-01 3.165211e-01 3.435690e-01 3.527372e-01 3.311395e-01 2.906057e-01 2.408940e-01 1.818863e-01 1.857631e-01 1.862851e-01 2.064952e-01 2.046706e-01 1.112607e-01 2.598523e-01 3.919146e-01 4.339477e-01 4.297672e-01 3.862192e-01 3.298573e-01 2.717878e-01 2.219350e-01 1.794359e-01 1.468917e-01 1.184745e-01 9.557601e-02 7.472908e-02 5.630573e-02 4.062622e-02 2.623263e-02 1.600046e-02 7.253129e-03 3.784546e-03 
1.032863e-02 1.042301e-02 1.261037e-02 1.904166e-02 2.870289e-02 4.355717e-02 6.025120e-02 8.054489e-02 1.040058e-01 1.310406e-01 1.655056e-01 2.076173e-01 2.620997e-01 3.277778e-01 3.974390e-01 4.582576e-01 4.812508e-01 4.278073e-01 2.770395e-01 7.935487e-02 1.389692e-01 1.392276e-01 1.283577e-01 2.032811e-01 3.522688e-01 4.857399e-01 5.508117e-01 5.180623e-01 4.374068e-01 3.441971e-01 2.504254e-01 1.779851e-01 1.479654e-01 1.676624e-01 2.406792e-01 3.321034e-01 4.228124e-01 4.954159e-01 5.403177e-01 4.716709e-01 3.393016e-01 2.008865e-01 1.269687e-01 1.395561e-01 1.415297e-01 7.928591e-02 2.589902e-01 4.183085e-01 4.764925e-01 4.580312e-01 3.983799e-01 3.278908e-01 2.620438e-01 2.056022e-01 1.633078e-01 1.279239e-01 1.009022e-01 7.739887e-02 5.701765e-02 4.040786e-02 2.500867e-02 1.515237e-02 8.475484e-03 8.160131e-03 
1.571568e-02 1.478724e-02 1.543641e-02 1.973434e-02 2.838271e-02 4.380478e-02 6.120567e-02 8.346806e-02 1.098099e-01 1.415845e-01 1.841466e-01 2.377808e-01 3.075194e-01 3.893771e-01 4.660826e-01 5.156145e-01 4.793351e-01 3.110532e-01 7.365803e-02 9.571879e-02 1.099083e-01 2.117620e-01 4.028139e-01 5.499292e-01 5.876372e-01 5.138947e-01 4.181045e-01 3.143410e-01 2.456220e-01 1.990139e-01 1.684505e-01 1.499482e-01 1.447045e-01 1.474199e-01 1.668831e-01 1.944540e-01 2.379033e-01 2.959672e-01 4.005477e-01 5.000364e-01 5.676603e-01 5.447572e-01 4.084732e-01 2.192644e-01 1.048281e-01 9.942646e-02 5.489706e-02 2.949406e-01 4.692184e-01 5.131285e-01 4.678840e-01 3.902948e-01 3.083995e-01 2.357358e-01 1.814917e-01 1.377874e-01 1.058330e-01 7.970736e-02 5.729261e-02 4.022789e-02 2.419484e-02 1.565886e-02 1.208751e-02 1.316533e-02 
2.224751e-02 2.044998e-02 1.980325e-02 2.088076e-02 2.720143e-02 4.237479e-02 5.997376e-02 8.425381e-02 1.141710e-01 1.520641e-01 2.062266e-01 2.746988e-01 3.640061e-01 4.602783e-01 5.327098e-01 5.426216e-01 3.967777e-01 1.247397e-01 8.825635e-02 1.904717e-01 3.346589e-01 5.151327e-01 5.405784e-01 4.728965e-01 3.941933e-01 3.325164e-01 2.994740e-01 2.556444e-01 2.136427e-01 1.671344e-01 1.267641e-01 9.478202e-02 8.380180e-02 9.090169e-02 1.232737e-01 1.629456e-01 2.096881e-01 2.468949e-01 2.901143e-01 3.224071e-01 3.741294e-01 4.534393e-01 5.276392e-01 5.200393e-01 3.453534e-01 1.886980e-01 9.957571e-02 9.981379e-02 3.765727e-01 5.347627e-01 5.318854e-01 4.606029e-01 3.662365e-01 2.737198e-01 2.045560e-01 1.487418e-01 1.102013e-01 8.037205e-02 5.563730e-02 3.831882e-02 2.235126e-02 1.650541e-02 1.702495e-02 1.911703e-02 
2.814941e-02 2.561963e-02 2.421429e-02 2.251465e-02 2.616598e-02 4.077219e-02 5.835102e-02 8.517557e-02 1.192623e-01 1.647392e-01 2.321125e-01 3.160414e-01 4.217587e-01 5.233626e-01 5.750281e-01 5.147342e-01 2.275628e-01 1.358240e-01 2.794773e-01 4.007843e-01 4.798311e-01 4.577417e-01 3.820496e-01 3.495490e-01 3.233759e-01 2.779156e-01 2.319902e-01 1.814296e-01 1.463324e-01 1.167657e-01 9.861281e-02 8.547782e-02 8.346917e-02 8.516867e-02 9.906363e-02 1.157064e-01 1.445035e-01 1.753489e-01 2.249925e-01 2.704949e-01 3.103170e-01 3.362972e-01 3.665788e-01 4.414492e-01 4.757348e-01 3.987995e-01 2.749647e-01 1.453622e-01 1.972818e-01 4.970783e-01 5.736903e-01 5.235269e-01 4.242828e-01 3.146798e-01 2.295055e-01 1.607835e-01 1.143546e-01 8.096206e-02 5.358732e-02 3.662647e-02 2.136999e-02 1.864694e-02 2.213596e-02 2.455960e-02 
3.466680e-02 3.140372e-02 2.959255e-02 2.485894e-02 2.480736e-02 3.709280e-02 5.341336e-02 8.258448e-02 1.209060e-01 1.751586e-01 2.592720e-01 3.606943e-01 4.886974e-01 5.932626e-01 6.134704e-01 3.823335e-01 1.562439e-01 3.448789e-01 3.748719e-01 4.000193e-01 3.576254e-01 3.345151e-01 3.033807e-01 2.760952e-01 2.489892e-01 2.200268e-01 1.964211e-01 1.643951e-01 1.366605e-01 1.071212e-01 8.627809e-02 6.965549e-02 6.643871e-02 6.906186e-02 8.595609e-02 1.058862e-01 1.350681e-01 1.603918e-01 1.914673e-01 2.134236e-01 2.388257e-01 2.653905e-01 2.943259e-01 3.252664e-01 3.501063e-01 3.932880e-01 3.696647e-01 3.397743e-01 1.719796e-01 3.508589e-01 6.031146e-01 5.885685e-01 4.935438e-01 3.614460e-01 2.588362e-01 1.724841e-01 1.163255e-01 7.835668e-02 4.821998e-02 3.234050e-02 1.979847e-02 2.119348e-02 2.791696e-02 3.047556e-02 
3.957091e-02 3.567302e-02 3.378192e-02 2.657745e-02 2.332031e-02 3.246062e-02 4.746776e-02 8.006599e-02 1.240268e-01 1.896121e-01 2.930201e-01 4.115198e-01 5.519941e-01 6.537204e-01 5.480963e-01 1.648113e-01 4.214078e-01 3.461050e-01 3.159768e-01 3.043075e-01 2.852157e-01 2.767224e-01 2.521734e-01 2.397764e-01 2.229011e-01 1.982339e-01 1.728627e-01 1.424619e-01 1.189471e-01 9.593460e-02 8.189665e-02 7.040882e-02 6.906318e-02 7.044941e-02 8.219829e-02 9.522763e-02 1.177251e-01 1.391532e-01 1.686675e-01 1.926723e-01 2.154779e-01 2.314820e-01 2.440119e-01 2.662826e-01 2.793736e-01 2.948253e-01 3.128238e-01 3.318110e-01 4.229680e-01 1.653207e-01 5.286648e-01 6.463408e-01 5.524769e-01 4.098243e-01 2.900605e-01 1.867249e-01 1.190242e-01 7.644838e-02 4.269649e-02 2.817304e-02 1.921455e-02 2.351904e-02 3.245971e-02 3.485254e-02 
4.423669e-02 3.972199e-02 3.822121e-02 2.892740e-02 2.330210e-02 2.624391e-02 3.785657e-02 7.359102e-02 1.208052e-01 1.971091e-01 3.169145e-01 4.442154e-01 6.069927e-01 6.955109e-01 3.076947e-01 4.153210e-01 3.673383e-01 2.265298e-01 2.565611e-01 2.425916e-01 2.385992e-01 2.331637e-01 2.244378e-01 2.128059e-01 1.987970e-01 1.790766e-01 1.603123e-01 1.358382e-01 1.153794e-01 9.338769e-02 7.911769e-02 6.703396e-02 6.531566e-02 6.676672e-02 7.879959e-02 9.224449e-02 1.138834e-01 1.329022e-01 1.567976e-01 1.742246e-01 1.930983e-01 2.060062e-01 2.184081e-01 2.251475e-01 2.317218e-01 2.316370e-01 2.470167e-01 2.129746e-01 3.461137e-01 4.327591e-01 2.613168e-01 6.775115e-01 6.218528e-01 4.514449e-01 3.181006e-01 1.967552e-01 1.165213e-01 7.017229e-02 3.284495e-02 2.119934e-02 2.000871e-02 2.629841e-02 3.718664e-02 3.901077e-02 
4.630371e-02 4.141883e-02 4.065105e-02 2.994453e-02 2.366454e-02 1.787963e-02 2.605780e-02 6.590216e-02 1.179136e-01 2.067685e-01 3.510915e-01 4.778998e-01 7.082827e-01 6.045445e-01 3.104063e-01 4.802619e-01 1.999030e-01 2.129204e-01 2.223921e-01 2.184945e-01 2.220983e-01 2.189142e-01 2.120694e-01 2.018129e-01 1.880954e-01 1.685413e-01 1.488948e-01 1.256846e-01 1.070816e-01 8.829844e-02 7.680298e-02 6.703182e-02 6.584236e-02 6.674843e-02 7.639573e-02 8.709640e-02 1.055555e-01 1.229392e-01 1.457153e-01 1.642309e-01 1.834099e-01 1.959492e-01 2.067721e-01 2.116157e-01 2.162982e-01 2.099454e-01 2.142610e-01 2.031846e-01 1.885495e-01 4.537559e-01 3.530415e-01 5.390326e-01 7.127595e-01 4.819412e-01 3.481532e-01 2.085134e-01 1.159475e-01 6.563670e-02 2.358575e-02 1.355587e-02 2.107654e-02 2.747123e-02 3.951825e-02 4.066544e-02 
4.711346e-02 4.200727e-02 4.233610e-02 3.127939e-02 2.662311e-02 1.066440e-02 1.225696e-02 5.693728e-02 1.069132e-01 2.120384e-01 3.555404e-01 5.076675e-01 7.367363e-01 3.387358e-01 5.444225e-01 2.883746e-01 1.995375e-01 2.178953e-01 2.120892e-01 2.176914e-01 2.167086e-01 2.124541e-01 2.047007e-01 1.919390e-01 1.769734e-01 1.577173e-01 1.393446e-01 1.183642e-01 1.012721e-01 8.389654e-02 7.294563e-02 6.357920e-02 6.227133e-02 6.307905e-02 7.213623e-02 8.234086e-02 9.943691e-02 1.155473e-01 1.362567e-01 1.535560e-01 1.727317e-01 1.863486e-01 1.997244e-01 2.050067e-01 2.102005e-01 2.061876e-01 2.030235e-01 1.989056e-01 1.912083e-01 2.347283e-01 5.338876e-01 2.881360e-01 7.249192e-01 5.088574e-01 3.439119e-01 2.123642e-01 1.050051e-01 5.766167e-02 1.117009e-02 5.745957e-03 2.480980e-02 2.932335e-02 4.134137e-02 4.135956e-02 
4.472143e-02 3.992028e-02 4.171077e-02 3.192611e-02 3.047005e-02 1.138565e-02 5.119740e-03 4.602473e-02 8.672017e-02 2.083595e-01 3.169793e-01 5.528518e-01 6.984932e-01 2.940922e-01 5.014130e-01 1.724995e-01 2.687652e-01 2.221701e-01 2.448207e-01 2.305864e-01 2.317878e-01 2.188671e-01 2.077873e-01 1.904243e-01 1.724524e-01 1.513167e-01 1.312853e-01 1.104449e-01 9.348139e-02 7.749728e-02 6.739914e-02 5.913852e-02 5.785916e-02 5.854197e-02 6.638359e-02 7.575368e-02 9.141433e-02 1.075644e-01 1.281299e-01 1.473298e-01 1.683568e-01 1.853050e-01 2.029271e-01 2.122022e-01 2.252127e-01 2.198780e-01 2.322568e-01 1.997693e-01 2.394365e-01 1.430468e-01 4.611683e-01 3.321138e-01 6.417906e-01 5.617305e-01 3.224905e-01 2.223802e-01 9.561489e-02 5.466748e-02 8.539749e-03 8.968166e-03 2.744650e-02 2.953369e-02 4.017091e-02 3.910405e-02 
4.030955e-02 3.627112e-02 3.947919e-02 3.290453e-02 3.431003e-02 2.269086e-02 1.940528e-02 4.195884e-02 6.890106e-02 1.974346e-01 2.670347e-01 5.623213e-01 5.913867e-01 4.491616e-01 4.267847e-01 2.457692e-01 3.264158e-01 2.657963e-01 2.830434e-01 2.582563e-01 2.515170e-01 2.311715e-01 2.133829e-01 1.911084e-01 1.688121e-01 1.457736e-01 1.241063e-01 1.034213e-01 8.607765e-02 7.050794e-02 6.001771e-02 5.174964e-02 5.006706e-02 5.091580e-02 5.855624e-02 6.833400e-02 8.350528e-02 1.002334e-01 1.205960e-01 1.416986e-01 1.645318e-01 1.862705e-01 2.085052e-01 2.256247e-01 2.454780e-01 2.512550e-01 2.728314e-01 2.550995e-01 3.008959e-01 2.550816e-01 3.667248e-01 4.812688e-01 5.007506e-01 5.548550e-01 2.826534e-01 2.126302e-01 8.039306e-02 5.029823e-02 1.546707e-02 2.013472e-02 3.065472e-02 3.048775e-02 3.773325e-02 3.543076e-02 
3.284347e-02 3.043234e-02 3.524729e-02 3.420511e-02 3.760361e-02 3.616361e-02 3.238599e-02 4.736941e-02 5.428909e-02 1.696204e-01 2.210001e-01 4.775014e-01 4.848615e-01 5.129235e-01 3.133137e-01 3.386182e-01 3.275967e-01 3.114429e-01 3.080813e-01 2.879459e-01 2.707439e-01 2.469407e-01 2.216800e-01 1.957340e-01 1.686034e-01 1.434855e-01 1.190050e-01 9.754728e-02 7.864395e-02 6.282398e-02 5.122741e-02 4.264728e-02 4.030453e-02 4.157373e-02 4.933580e-02 6.029899e-02 7.563259e-02 9.419320e-02 1.152158e-01 1.395703e-01 1.642873e-01 1.916447e-01 2.172543e-01 2.435091e-01 2.667523e-01 2.869613e-01 3.054131e-01 3.186542e-01 3.287949e-01 3.707539e-01 2.952710e-01 4.848065e-01 4.419401e-01 4.663954e-01 2.485514e-01 1.792747e-01 6.497404e-02 4.947453e-02 2.552658e-02 3.230860e-02 3.282213e-02 3.126851e-02 3.286418e-02 2.933957e-02 
2.347209e-02 2.373992e-02 3.013123e-02 3.572452e-02 3.964673e-02 4.737492e-02 4.156063e-02 5.718805e-02 4.541379e-02 1.298988e-01 1.897741e-01 3.472424e-01 4.440413e-01 4.559402e-01 2.446399e-01 3.948283e-01 3.398510e-01 3.627921e-01 3.336883e-01 3.212591e-01 2.894365e-01 2.643133e-01 2.303126e-01 2.017331e-01 1.695149e-01 1.426922e-01 1.154481e-01 9.320054e-02 7.247865e-02 5.578697e-02 4.207508e-02 3.193036e-02 2.812055e-02 3.030640e-02 3.939051e-02 5.266585e-02 6.881925e-02 8.951235e-02 1.112290e-01 1.387303e-01 1.650055e-01 1.980002e-01 2.260591e-01 2.618688e-01 2.863831e-01 3.220232e-01 3.334335e-01 3.705826e-01 3.458895e-01 4.125344e-01 2.544231e-01 4.274581e-01 4.335623e-01 3.442270e-01 2.103940e-01 1.273071e-01 4.664808e-02 4.949994e-02 3.272472e-02 4.133140e-02 3.394378e-02 3.184331e-02 2.693439e-02 2.207707e-02 
1.222600e-02 1.687244e-02 2.522207e-02 3.663173e-02 4.067907e-02 5.426613e-02 4.696863e-02 6.192587e-02 3.028900e-02 6.889085e-02 1.416646e-01 2.265753e-01 4.496823e-01 3.912714e-01 2.318041e-01 4.126929e-01 3.449430e-01 3.901522e-01 3.461925e-01 3.402804e-01 2.994092e-01 2.746139e-01 2.352183e-01 2.056050e-01 1.701902e-01 1.425024e-01 1.132625e-01 9.039194e-02 6.803030e-02 5.039789e-02 3.428023e-02 2.153758e-02 1.460623e-02 1.901441e-02 3.081171e-02 4.689998e-02 6.400842e-02 8.661798e-02 1.088737e-01 1.386695e-01 1.656727e-01 2.022666e-01 2.312137e-01 2.728786e-01 2.970564e-01 3.415082e-01 3.466835e-01 3.937335e-01 3.477283e-01 4.072266e-01 2.375656e-01 3.602982e-01 4.379520e-01 2.399931e-01 1.525380e-01 6.534332e-02 2.712104e-02 5.340557e-02 3.952358e-02 4.861683e-02 3.536198e-02 3.291126e-02 2.157291e-02 1.465077e-02 
2.124692e-03 1.391795e-02 2.343804e-02 3.735704e-02 4.140097e-02 5.735274e-02 4.974310e-02 6.546477e-02 2.501475e-02 2.371980e-02 1.067158e-01 1.634839e-01 4.455765e-01 3.615696e-01 2.254933e-01 4.084012e-01 3.454989e-01 3.995467e-01 3.522422e-01 3.491692e-01 3.047146e-01 2.800602e-01 2.381972e-01 2.080516e-01 1.711406e-01 1.429788e-01 1.128769e-01 8.968751e-02 6.666838e-02 4.855674e-02 3.120926e-02 1.632859e-02 1.997612e-03 1.262506e-02 2.713546e-02 4.476444e-02 6.238166e-02 8.577833e-02 1.083495e-01 1.391280e-01 1.666235e-01 2.048814e-01 2.344614e-01 2.788872e-01 3.032673e-01 3.518460e-01 3.551539e-01 4.065709e-01 3.542951e-01 4.126060e-01 2.431214e-01 3.382432e-01 4.448240e-01 1.947003e-01 1.166734e-01 5.552921e-03 1.356955e-02 5.396768e-02 4.082110e-02 5.013356e-02 3.503525e-02 3.260704e-02 1.866277e-02 1.029074e-02 
1.222600e-02 1.687244e-02 2.522207e-02 3.663173e-02 4.067907e-02 5.426613e-02 4.696863e-02 6.192587e-02 3.028900e-02 6.889085e-02 1.416646e-01 2.265753e-01 4.496823e-01 3.912714e-01 2.318041e-01 4.126929e-01 3.449430e-01 3.901522e-01 3.461925e-01 3.402804e-01 2.994092e-01 2.746139e-01 2.352183e-01 2.056050e-01 1.701902e-01 1.425024e-01 1.132625e-01 9.039194e-02 6.803030e-02 5.039789e-02 3.428023e-02 2.153758e-02 1.460623e-02 1.901441e-02 3.081171e-02 4.689998e-02 6.400842e-02 8.661798e-02 1.088737e-01 1.386695e-01 1.656727e-01 2.022666e-01 2.312137e-01 2.728786e-01 2.970564e-01 3.415082e-01 3.466835e-01 3.937335e-01 3.477283e-01 4.072266e-01 2.375656e-01 3.602982e-01 4.379520e-01 2.399931e-01 1.525380e-01 6.534332e-02 2.712104e-02 5.340557e-02 3.952358e-02 4.861683e-02 3.536198e-02 3.291126e-02 2.157291e-02 1.465077e-02 
2.347209e-02 2.373992e-02 3.013123e-02 3.572452e-02 3.964673e-02 4.737492e-02 4.156063e-02 5.718805e-02 4.541379e-02 1.298988e-01 1.897741e-01 3.472424e-01 4.440413e-01 4.559402e-01 2.446399e-01 3.948283e-01 3.398510e-01 3.627921e-01 3.336883e-01 3.212591e-01 2.894365e-01 2.643133e-01 2.303126e-01 2.017331e-01 1.695149e-01 1.426922e-01 1.154481e-01 9.320054e-02 7.247865e-02 5.578697e-02 4.207508e-02 3.193036e-02 2.812055e-02 3.030640e-02 3.939051e-02 5.266585e-02 6.881925e-02 8.951235e-02 1.112290e-01 1.387303e-01 1.650055e-01 1.980002e-01 2.260591e-01 2.618688e-01 2.863831e-01 3.220232e-01 3.334335e-01 3.705826e-01 3.458895e-01 4.125344e-01 2.544231e-01 4.274581e-01 4.335623e-01 3.442270e-01 2.103940e-01 1.273071e-01 4.664808e-02 4.949994e-02 3.272472e-02 4.133140e-02 3.394378e-02 3.184331e-02 2.693439e-02 2.207707e-02 