# vtk DataFile Version 2.0
Comment goes here
ASCII

DATASET STRUCTURED_POINTS
FIELD FieldData 1
TIME 1 1 double
1.36000000
DIMENSIONS    64   64   1

ORIGIN    0.000   0.000   0.000
SPACING   0.015625 0.015625   1.000

POINT_DATA   4096
SCALARS uMag double
LOOKUP_TABLE default

2.256265e-03 3.046644e-04 2.895497e-03 5.905521e-03 9.277777e-03 1.330612e-02 1.799021e-02 2.349346e-02 2.987055e-02 3.711738e-02 4.534109e-02 5.432835e-02 6.423961e-02 7.460635e-02 8.565304e-02 9.661188e-02 1.078008e-01 1.181234e-01 1.280486e-01 1.361536e-01 1.431469e-01 1.473241e-01 1.497343e-01 1.484771e-01 1.450074e-01 1.373462e-01 1.273256e-01 1.130563e-01 9.661284e-02 7.646375e-02 5.474045e-02 3.058755e-02 5.932167e-03 1.924939e-02 4.363039e-02 6.648684e-02 8.747548e-02 1.053097e-01 1.207307e-01 1.320790e-01 1.409386e-01 1.455221e-01 1.478737e-01 1.463547e-01 1.431033e-01 1.368177e-01 1.294457e-01 1.200730e-01 1.102919e-01 9.951267e-02 8.892892e-02 7.815795e-02 6.804244e-02 5.828713e-02 4.947409e-02 4.130618e-02 3.419638e-02 2.779700e-02 2.242075e-02 1.765798e-02 1.376073e-02 1.027303e-02 7.401612e-03 4.675366e-03 
3.386044e-03 2.585486e-03 3.938400e-03 6.563092e-03 9.790665e-03 1.375629e-02 1.841137e-02 2.390209e-02 3.027136e-02 3.750693e-02 4.571530e-02 5.467205e-02 6.454607e-02 7.485206e-02 8.583241e-02 9.669520e-02 1.077874e-01 1.179789e-01 1.277816e-01 1.357280e-01 1.425848e-01 1.465974e-01 1.488839e-01 1.475092e-01 1.439943e-01 1.363801e-01 1.265464e-01 1.127181e-01 9.700942e-02 7.816687e-02 5.854496e-02 3.876175e-02 2.560523e-02 3.111718e-02 4.888114e-02 6.888094e-02 8.823779e-02 1.051079e-01 1.199755e-01 1.310226e-01 1.398117e-01 1.443955e-01 1.468820e-01 1.454914e-01 1.424278e-01 1.363129e-01 1.291094e-01 1.199049e-01 1.102470e-01 9.960786e-02 8.909931e-02 7.842793e-02 6.834641e-02 5.864821e-02 4.983830e-02 4.169193e-02 3.456680e-02 2.816775e-02 2.277346e-02 1.801161e-02 1.411656e-02 1.066599e-02 7.866943e-03 5.331272e-03 
5.393341e-03 5.064769e-03 6.050132e-03 8.238466e-03 1.121028e-02 1.506022e-02 1.964655e-02 2.513167e-02 3.147335e-02 3.871447e-02 4.686840e-02 5.579095e-02 6.554688e-02 7.575194e-02 8.653592e-02 9.722568e-02 1.080537e-01 1.180227e-01 1.275393e-01 1.352755e-01 1.419205e-01 1.458495e-01 1.481576e-01 1.469990e-01 1.439536e-01 1.370747e-01 1.283852e-01 1.160687e-01 1.024378e-01 8.641027e-02 7.071959e-02 5.680637e-02 4.929672e-02 5.228450e-02 6.349007e-02 7.883401e-02 9.482531e-02 1.093847e-01 1.224769e-01 1.322389e-01 1.401239e-01 1.441112e-01 1.462740e-01 1.447583e-01 1.417205e-01 1.357456e-01 1.287298e-01 1.197641e-01 1.103271e-01 9.991554e-02 8.958779e-02 7.907563e-02 6.910386e-02 5.948058e-02 5.070804e-02 4.256576e-02 3.542564e-02 2.899491e-02 2.357200e-02 1.879702e-02 1.492030e-02 1.155793e-02 8.932223e-03 6.764995e-03 
7.452850e-03 7.342315e-03 8.254391e-03 1.026208e-02 1.309584e-02 1.689518e-02 2.146934e-02 2.699209e-02 3.334973e-02 4.061537e-02 4.872789e-02 5.758823e-02 6.718676e-02 7.719588e-02 8.767608e-02 9.801819e-02 1.084013e-01 1.178906e-01 1.268746e-01 1.340711e-01 1.402125e-01 1.436880e-01 1.457199e-01 1.444526e-01 1.416770e-01 1.354801e-01 1.281417e-01 1.180392e-01 1.076840e-01 9.632095e-02 8.628821e-02 7.856266e-02 7.463144e-02 7.622163e-02 8.184018e-02 9.115593e-02 1.018127e-01 1.125194e-01 1.228995e-01 1.309238e-01 1.379159e-01 1.414223e-01 1.436456e-01 1.423297e-01 1.397504e-01 1.342901e-01 1.278129e-01 1.194305e-01 1.104493e-01 1.005345e-01 9.051337e-02 8.033494e-02 7.051125e-02 6.104556e-02 5.228658e-02 4.415864e-02 3.694366e-02 3.044842e-02 2.492773e-02 2.009666e-02 1.618498e-02 1.288132e-02 1.038870e-02 8.501906e-03 
9.303292e-03 9.370244e-03 1.033980e-02 1.235768e-02 1.519635e-02 1.906358e-02 2.370869e-02 2.935973e-02 3.578853e-02 4.315280e-02 5.124426e-02 6.008563e-02 6.949322e-02 7.929899e-02 8.936966e-02 9.929221e-02 1.090471e-01 1.179293e-01 1.261501e-01 1.326842e-01 1.381493e-01 1.411957e-01 1.430484e-01 1.420581e-01 1.401740e-01 1.355254e-01 1.306330e-01 1.236378e-01 1.170578e-01 1.097983e-01 1.036949e-01 9.927694e-02 9.684996e-02 9.796730e-02 1.008884e-01 1.066135e-01 1.130258e-01 1.198625e-01 1.267612e-01 1.320383e-01 1.371216e-01 1.394032e-01 1.411183e-01 1.397409e-01 1.374740e-01 1.325668e-01 1.267055e-01 1.190424e-01 1.106600e-01 1.013561e-01 9.176483e-02 8.196862e-02 7.236393e-02 6.304051e-02 5.431164e-02 4.614016e-02 3.882614e-02 3.219148e-02 2.652761e-02 2.156981e-02 1.757364e-02 1.426829e-02 1.184829e-02 1.014659e-02 
1.078541e-02 1.099778e-02 1.209328e-02 1.424484e-02 1.723387e-02 2.129719e-02 2.614936e-02 3.203680e-02 3.865923e-02 4.620577e-02 5.437208e-02 6.323586e-02 7.249696e-02 8.207315e-02 9.169955e-02 1.010841e-01 1.100784e-01 1.181283e-01 1.253597e-01 1.309004e-01 1.353916e-01 1.375780e-01 1.388815e-01 1.376302e-01 1.361476e-01 1.325103e-01 1.296764e-01 1.259750e-01 1.240627e-01 1.226924e-01 1.224146e-01 1.228991e-01 1.226272e-01 1.230421e-01 1.220492e-01 1.223743e-01 1.225395e-01 1.241739e-01 1.270145e-01 1.296167e-01 1.333366e-01 1.348417e-01 1.367457e-01 1.357697e-01 1.343575e-01 1.304217e-01 1.255213e-01 1.189114e-01 1.113009e-01 1.028251e-01 9.370685e-02 8.439121e-02 7.496119e-02 6.578253e-02 5.698846e-02 4.871389e-02 4.118287e-02 3.431856e-02 2.839060e-02 2.320631e-02 1.901158e-02 1.560164e-02 1.314395e-02 1.151517e-02 
1.185201e-02 1.222542e-02 1.350861e-02 1.589863e-02 1.914418e-02 2.352399e-02 2.868495e-02 3.492719e-02 4.183565e-02 4.967974e-02 5.799608e-02 6.698094e-02 7.613037e-02 8.552904e-02 9.466596e-02 1.034749e-01 1.115333e-01 1.185888e-01 1.245020e-01 1.288026e-01 1.319471e-01 1.331813e-01 1.339193e-01 1.329712e-01 1.328484e-01 1.317219e-01 1.326781e-01 1.331355e-01 1.353191e-01 1.372208e-01 1.391959e-01 1.411360e-01 1.413345e-01 1.417227e-01 1.396122e-01 1.383169e-01 1.355254e-01 1.335537e-01 1.321414e-01 1.307261e-01 1.313972e-01 1.309325e-01 1.321190e-01 1.312461e-01 1.305624e-01 1.277787e-01 1.240184e-01 1.187035e-01 1.120715e-01 1.045536e-01 9.604711e-02 8.721635e-02 7.802032e-02 6.890959e-02 6.004736e-02 5.155861e-02 4.376738e-02 3.655858e-02 3.030002e-02 2.478297e-02 2.031027e-02 1.670093e-02 1.412723e-02 1.250370e-02 
1.233235e-02 1.287895e-02 1.441841e-02 1.713482e-02 2.075936e-02 2.556590e-02 3.117802e-02 3.789059e-02 4.524141e-02 5.349923e-02 6.212542e-02 7.133429e-02 8.050907e-02 8.979214e-02 9.851386e-02 1.067303e-01 1.138276e-01 1.197627e-01 1.242368e-01 1.270687e-01 1.287234e-01 1.286826e-01 1.286748e-01 1.273559e-01 1.277786e-01 1.275212e-01 1.302218e-01 1.337773e-01 1.409615e-01 1.496014e-01 1.581449e-01 1.654934e-01 1.679827e-01 1.676580e-01 1.612925e-01 1.541393e-01 1.442006e-01 1.367091e-01 1.311475e-01 1.272670e-01 1.268305e-01 1.253635e-01 1.269299e-01 1.265932e-01 1.271331e-01 1.258060e-01 1.233636e-01 1.195511e-01 1.138874e-01 1.074078e-01 9.939729e-02 9.102349e-02 8.189841e-02 7.276287e-02 6.365886e-02 5.483753e-02 4.662144e-02 3.894723e-02 3.220890e-02 2.624242e-02 2.135680e-02 1.743669e-02 1.463672e-02 1.294068e-02 
1.226412e-02 1.302924e-02 1.489624e-02 1.803819e-02 2.212541e-02 2.746183e-02 3.360469e-02 4.089696e-02 4.877566e-02 5.757212e-02 6.660634e-02 7.617957e-02 8.548404e-02 9.478752e-02 1.031692e-01 1.108678e-01 1.169559e-01 1.216779e-01 1.243817e-01 1.253992e-01 1.248916e-01 1.232388e-01 1.220874e-01 1.212392e-01 1.237049e-01 1.274983e-01 1.357802e-01 1.439261e-01 1.540114e-01 1.633004e-01 1.713405e-01 1.780954e-01 1.801616e-01 1.801842e-01 1.741511e-01 1.680469e-01 1.579907e-01 1.489874e-01 1.395723e-01 1.305229e-01 1.253549e-01 1.208577e-01 1.212861e-01 1.212466e-01 1.229813e-01 1.235361e-01 1.226949e-01 1.206817e-01 1.161991e-01 1.107940e-01 1.033858e-01 9.534731e-02 8.632321e-02 7.699035e-02 6.762729e-02 5.830955e-02 4.962289e-02 4.134694e-02 3.406272e-02 2.753125e-02 2.214487e-02 1.780594e-02 1.468421e-02 1.284868e-02 
1.145014e-02 1.249307e-02 1.479580e-02 1.844570e-02 2.310417e-02 2.904769e-02 3.584610e-02 4.381080e-02 5.237769e-02 6.183165e-02 7.147268e-02 8.155609e-02 9.121180e-02 1.006941e-01 1.089405e-01 1.162528e-01 1.214658e-01 1.250287e-01 1.260336e-01 1.252463e-01 1.228373e-01 1.197270e-01 1.182089e-01 1.175031e-01 1.213831e-01 1.247675e-01 1.315300e-01 1.397547e-01 1.542962e-01 1.727518e-01 1.904683e-01 2.053210e-01 2.108195e-01 2.095127e-01 1.970326e-01 1.821608e-01 1.618095e-01 1.474124e-01 1.360441e-01 1.277921e-01 1.238340e-01 1.177837e-01 1.183923e-01 1.184947e-01 1.214345e-01 1.237595e-01 1.242543e-01 1.239528e-01 1.202985e-01 1.158178e-01 1.086623e-01 1.007773e-01 9.155374e-02 8.185165e-02 7.198805e-02 6.203129e-02 5.268423e-02 4.369377e-02 3.571133e-02 2.851855e-02 2.249605e-02 1.763584e-02 1.406671e-02 1.201571e-02 
1.002786e-02 1.146510e-02 1.431528e-02 1.857150e-02 2.384743e-02 3.046765e-02 3.795327e-02 4.667161e-02 5.597591e-02 6.620134e-02 7.654099e-02 8.730227e-02 9.747539e-02 1.073762e-01 1.157513e-01 1.229687e-01 1.276034e-01 1.302034e-01 1.294994e-01 1.266270e-01 1.212719e-01 1.156532e-01 1.117765e-01 1.115600e-01 1.176754e-01 1.283850e-01 1.449217e-01 1.578896e-01 1.717024e-01 1.847699e-01 1.964292e-01 2.071382e-01 2.109600e-01 2.105512e-01 2.006201e-01 1.918131e-01 1.773705e-01 1.663959e-01 1.527774e-01 1.370531e-01 1.244878e-01 1.144968e-01 1.138604e-01 1.148823e-01 1.197128e-01 1.247422e-01 1.269676e-01 1.285373e-01 1.258052e-01 1.219626e-01 1.150541e-01 1.069409e-01 9.749019e-02 8.710133e-02 7.670466e-02 6.589038e-02 5.584579e-02 4.600312e-02 3.727583e-02 2.932766e-02 2.259462e-02 1.710897e-02 1.295770e-02 1.058506e-02 
7.816420e-03 9.846679e-03 1.340512e-02 1.828408e-02 2.421690e-02 3.150969e-02 3.975467e-02 4.926570e-02 5.945042e-02 7.054756e-02 8.181527e-02 9.343852e-02 1.044456e-01 1.150475e-01 1.239077e-01 1.313589e-01 1.356711e-01 1.375027e-01 1.350850e-01 1.300504e-01 1.219009e-01 1.141593e-01 1.105697e-01 1.124020e-01 1.244750e-01 1.306904e-01 1.342927e-01 1.386402e-01 1.572501e-01 1.889028e-01 2.191347e-01 2.436498e-01 2.527587e-01 2.494201e-01 2.289047e-01 2.029183e-01 1.670247e-01 1.492982e-01 1.396678e-01 1.353697e-01 1.316611e-01 1.170459e-01 1.149764e-01 1.156959e-01 1.218776e-01 1.294957e-01 1.329077e-01 1.361731e-01 1.336901e-01 1.301598e-01 1.228869e-01 1.142354e-01 1.041013e-01 9.280453e-02 8.156545e-02 6.976178e-02 5.881748e-02 4.805656e-02 3.845333e-02 2.972155e-02 2.217972e-02 1.602101e-02 1.113133e-02 8.304481e-03 
5.193483e-03 8.189150e-03 1.252043e-02 1.798271e-02 2.448508e-02 3.243256e-02 4.137847e-02 5.171502e-02 6.276426e-02 7.482292e-02 8.707299e-02 9.973881e-02 1.117760e-01 1.234080e-01 1.332054e-01 1.413957e-01 1.461496e-01 1.477274e-01 1.442464e-01 1.367788e-01 1.243302e-01 1.112224e-01 1.011918e-01 1.010243e-01 1.117587e-01 1.403288e-01 1.724886e-01 1.827469e-01 1.869408e-01 1.951580e-01 2.043215e-01 2.164274e-01 2.214288e-01 2.200212e-01 2.067750e-01 1.997888e-01 1.872872e-01 1.881415e-01 1.793052e-01 1.558543e-01 1.247038e-01 1.065121e-01 1.072297e-01 1.120261e-01 1.232666e-01 1.357675e-01 1.413821e-01 1.463115e-01 1.441789e-01 1.401643e-01 1.324349e-01 1.224792e-01 1.115731e-01 9.885956e-02 8.672629e-02 7.366343e-02 6.179615e-02 5.000707e-02 3.952364e-02 2.998987e-02 2.164106e-02 1.480471e-02 9.044351e-03 5.488996e-03 
3.088125e-03 7.143861e-03 1.194886e-02 1.761665e-02 2.449252e-02 3.291504e-02 4.252508e-02 5.363113e-02 6.564700e-02 7.872132e-02 9.221804e-02 1.061464e-01 1.196713e-01 1.327956e-01 1.440976e-01 1.536399e-01 1.590379e-01 1.604456e-01 1.545584e-01 1.427352e-01 1.219935e-01 1.001616e-01 8.568989e-02 9.934607e-02 1.422882e-01 1.519977e-01 1.410125e-01 1.446207e-01 1.801895e-01 2.311443e-01 2.613466e-01 2.740979e-01 2.711721e-01 2.689429e-01 2.615792e-01 2.372702e-01 1.807714e-01 1.526308e-01 1.393713e-01 1.493135e-01 1.495708e-01 1.090533e-01 9.390182e-02 1.029908e-01 1.212657e-01 1.424841e-01 1.514505e-01 1.592297e-01 1.569874e-01 1.524024e-01 1.433915e-01 1.317960e-01 1.194693e-01 1.050983e-01 9.167158e-02 7.725177e-02 6.424845e-02 5.144421e-02 3.999672e-02 2.976424e-02 2.064143e-02 1.333053e-02 6.782619e-03 2.108237e-03 
5.039689e-03 8.105296e-03 1.241509e-02 1.774183e-02 2.460599e-02 3.332781e-02 4.340998e-02 5.525996e-02 6.813760e-02 8.229525e-02 9.702002e-02 1.123981e-01 1.275541e-01 1.425220e-01 1.557723e-01 1.670828e-01 1.739659e-01 1.750735e-01 1.675357e-01 1.489846e-01 1.175056e-01 7.785884e-02 5.746035e-02 7.264931e-02 1.345660e-01 2.464670e-01 3.166429e-01 3.223229e-01 2.797571e-01 2.265708e-01 1.799612e-01 1.496353e-01 1.305173e-01 1.346084e-01 1.503879e-01 1.921590e-01 2.398269e-01 2.977652e-01 3.062885e-01 2.707507e-01 1.584016e-01 7.512571e-02 6.941410e-02 7.484605e-02 1.102333e-01 1.459867e-01 1.622581e-01 1.737144e-01 1.727165e-01 1.665098e-01 1.564496e-01 1.420705e-01 1.282458e-01 1.115131e-01 9.671635e-02 8.064315e-02 6.648908e-02 5.262642e-02 4.027112e-02 2.946429e-02 1.977301e-02 1.240777e-02 6.062252e-03 3.104028e-03 
9.648033e-03 1.125639e-02 1.423904e-02 1.834881e-02 2.462657e-02 3.319731e-02 4.354755e-02 5.594664e-02 6.972023e-02 8.491838e-02 1.011721e-01 1.181965e-01 1.356464e-01 1.530804e-01 1.691680e-01 1.831997e-01 1.914835e-01 1.920134e-01 1.779984e-01 1.465951e-01 8.744778e-02 1.974983e-02 9.531537e-02 2.430371e-01 3.387633e-01 2.675533e-01 1.497915e-01 1.463665e-01 1.693606e-01 1.937203e-01 2.000725e-01 2.004556e-01 1.974848e-01 1.995640e-01 1.972619e-01 2.015739e-01 1.810005e-01 1.614165e-01 1.310579e-01 2.150828e-01 3.140433e-01 2.529105e-01 1.178955e-01 2.122101e-02 7.348345e-02 1.380203e-01 1.680069e-01 1.880425e-01 1.892006e-01 1.824990e-01 1.705779e-01 1.532952e-01 1.371178e-01 1.177784e-01 1.010977e-01 8.329847e-02 6.776844e-02 5.294576e-02 3.967056e-02 2.857983e-02 1.866197e-02 1.215972e-02 7.984327e-03 7.817677e-03 
1.475663e-02 1.548072e-02 1.719256e-02 1.974819e-02 2.488384e-02 3.297080e-02 4.325422e-02 5.614318e-02 7.062391e-02 8.695594e-02 1.046357e-01 1.235566e-01 1.432568e-01 1.634819e-01 1.822580e-01 1.987042e-01 2.077541e-01 2.045027e-01 1.828001e-01 1.281477e-01 3.763679e-02 1.021411e-01 2.390972e-01 2.069021e-01 1.043660e-01 1.362747e-01 1.086863e-01 1.465325e-01 2.243063e-01 2.688735e-01 2.733400e-01 2.451308e-01 2.328147e-01 2.491641e-01 2.861986e-01 3.157236e-01 2.662522e-01 2.036382e-01 1.034035e-01 1.249652e-01 1.036981e-01 1.609471e-01 2.301750e-01 1.245801e-01 4.391993e-03 1.124340e-01 1.651554e-01 1.975404e-01 2.064693e-01 1.989113e-01 1.866954e-01 1.652476e-01 1.467595e-01 1.239826e-01 1.052554e-01 8.545359e-02 6.849483e-02 5.276743e-02 3.867754e-02 2.760788e-02 1.802006e-02 1.328089e-02 1.181807e-02 1.287652e-02 
2.046710e-02 2.051708e-02 2.111443e-02 2.179096e-02 2.517495e-02 3.206695e-02 4.188214e-02 5.491238e-02 7.005704e-02 8.733360e-02 1.067858e-01 1.275988e-01 1.504581e-01 1.738075e-01 1.965028e-01 2.159229e-01 2.252530e-01 2.176745e-01 1.802878e-01 9.440244e-02 7.112118e-02 1.765169e-01 1.155722e-01 6.634363e-02 6.752286e-02 2.534246e-01 4.294140e-01 4.955411e-01 4.281690e-01 3.241466e-01 2.183091e-01 1.116299e-01 1.805948e-02 1.012511e-01 1.979035e-01 3.212461e-01 4.208099e-01 5.162700e-01 4.935590e-01 3.373582e-01 1.253542e-01 5.863169e-02 8.270999e-02 1.472771e-01 9.310384e-02 5.805954e-02 1.491986e-01 2.012403e-01 2.205509e-01 2.159973e-01 2.031733e-01 1.780493e-01 1.563656e-01 1.298092e-01 1.084334e-01 8.646106e-02 6.783773e-02 5.131866e-02 3.648714e-02 2.592674e-02 1.751002e-02 1.550051e-02 1.659764e-02 1.844244e-02 
2.591627e-02 2.544258e-02 2.518766e-02 2.419716e-02 2.558058e-02 3.092363e-02 3.984208e-02 5.300568e-02 6.863828e-02 8.713043e-02 1.083030e-01 1.315568e-01 1.572825e-01 1.842424e-01 2.089330e-01 2.300452e-01 2.340202e-01 2.148052e-01 1.553782e-01 4.496428e-02 1.051231e-01 7.481353e-02 3.226288e-02 1.808916e-01 4.112526e-01 4.546533e-01 4.010835e-01 2.941568e-01 1.879643e-01 1.203208e-01 7.732478e-02 4.436816e-02 2.725892e-02 4.192084e-02 6.352724e-02 1.106024e-01 1.673915e-01 2.714071e-01 3.855697e-01 4.673110e-01 4.508839e-01 2.616242e-01 7.277751e-02 4.957870e-02 1.057555e-01 1.277327e-02 1.165406e-01 1.909991e-01 2.336647e-01 2.316708e-01 2.215163e-01 1.917268e-01 1.667821e-01 1.357274e-01 1.112164e-01 8.688625e-02 6.635692e-02 4.918042e-02 3.367602e-02 2.407737e-02 1.768111e-02 1.839367e-02 2.144372e-02 2.371518e-02 
3.147919e-02 3.051362e-02 2.956294e-02 2.690797e-02 2.607163e-02 2.905820e-02 3.650374e-02 4.939802e-02 6.548591e-02 8.499861e-02 1.084048e-01 1.338220e-01 1.636697e-01 1.933101e-01 2.218240e-01 2.427428e-01 2.432001e-01 2.167040e-01 1.299847e-01 3.157403e-02 6.374615e-02 8.427319e-02 2.161341e-01 3.474738e-01 3.434130e-01 2.862081e-01 2.672664e-01 2.198135e-01 1.581180e-01 1.013454e-01 6.000817e-02 4.147152e-02 4.161887e-02 3.730482e-02 4.102590e-02 7.810850e-02 1.350108e-01 2.081296e-01 2.624880e-01 2.953279e-01 3.380090e-01 3.591746e-01 2.901771e-01 1.095256e-01 9.911576e-02 6.511505e-02 9.217833e-02 1.848761e-01 2.402610e-01 2.477180e-01 2.399891e-01 2.062061e-01 1.778499e-01 1.414574e-01 1.133758e-01 8.610661e-02 6.342828e-02 4.549084e-02 2.943048e-02 2.144768e-02 1.832406e-02 2.174807e-02 2.649811e-02 2.907549e-02 
3.619449e-02 3.479453e-02 3.330958e-02 2.927197e-02 2.634907e-02 2.676250e-02 3.231139e-02 4.515068e-02 6.186413e-02 8.312733e-02 1.093708e-01 1.382865e-01 1.726396e-01 2.068688e-01 2.363485e-01 2.603921e-01 2.492192e-01 2.202081e-01 1.069220e-01 8.913430e-02 1.518583e-01 2.090979e-01 2.710972e-01 2.816526e-01 2.915555e-01 2.637514e-01 2.188582e-01 1.532246e-01 8.937193e-02 4.210784e-02 7.783003e-03 1.519037e-02 2.664879e-02 2.186623e-02 1.484046e-02 3.508364e-02 7.315317e-02 1.375943e-01 2.038178e-01 2.572792e-01 2.902312e-01 2.692182e-01 2.905138e-01 2.183826e-01 1.246534e-01 1.545399e-01 3.612356e-02 1.848115e-01 2.569142e-01 2.649337e-01 2.592475e-01 2.223062e-01 1.893732e-01 1.481579e-01 1.154715e-01 8.542788e-02 5.996279e-02 4.133437e-02 2.449755e-02 1.862860e-02 1.942990e-02 2.480046e-02 3.089251e-02 3.358679e-02 
4.053561e-02 3.869923e-02 3.685400e-02 3.154042e-02 2.678279e-02 2.398523e-02 2.695252e-02 3.962884e-02 5.718080e-02 8.055696e-02 1.103703e-01 1.429136e-01 1.833652e-01 2.204702e-01 2.556787e-01 2.769630e-01 2.809225e-01 2.206122e-01 8.743105e-02 2.130158e-01 1.622483e-01 1.873469e-01 2.109291e-01 2.315096e-01 2.270357e-01 2.048738e-01 1.813642e-01 1.412649e-01 9.319978e-02 4.570354e-02 5.171622e-03 2.132958e-02 3.485850e-02 3.010259e-02 2.102388e-02 4.272062e-02 8.285766e-02 1.354628e-01 1.750278e-01 2.043161e-01 2.258934e-01 2.305618e-01 2.310420e-01 2.184314e-01 1.254325e-01 1.308701e-01 1.924967e-01 9.216713e-02 2.735194e-01 2.755438e-01 2.796211e-01 2.366874e-01 2.029268e-01 1.550573e-01 1.182595e-01 8.433052e-02 5.588918e-02 3.593312e-02 1.820000e-02 1.536416e-02 2.112866e-02 2.786595e-02 3.506757e-02 3.773303e-02 
4.347725e-02 4.127837e-02 3.922147e-02 3.293387e-02 2.676591e-02 2.077812e-02 2.079617e-02 3.396949e-02 5.329001e-02 7.962044e-02 1.146796e-01 1.518598e-01 2.014752e-01 2.433864e-01 2.852076e-01 3.204484e-01 2.934893e-01 7.607639e-02 2.644922e-01 1.277185e-01 8.283620e-02 1.530759e-01 1.781709e-01 2.010418e-01 2.052669e-01 1.895574e-01 1.625027e-01 1.252233e-01 8.557947e-02 5.107608e-02 2.193796e-02 7.796420e-03 1.651357e-02 2.430869e-02 3.546172e-02 5.791606e-02 8.393337e-02 1.219891e-01 1.558818e-01 1.850157e-01 2.035318e-01 2.015529e-01 1.951820e-01 1.827815e-01 1.353838e-01 4.316025e-02 2.052320e-01 1.553103e-01 2.313625e-01 3.074272e-01 2.907037e-01 2.533163e-01 2.152357e-01 1.639077e-01 1.218811e-01 8.497979e-02 5.279912e-02 3.138257e-02 1.161658e-02 1.237892e-02 2.273905e-02 3.001627e-02 3.801451e-02 4.051118e-02 
4.561194e-02 4.305669e-02 4.100624e-02 3.395641e-02 2.705233e-02 1.780263e-02 1.398773e-02 2.834538e-02 4.949555e-02 7.951740e-02 1.186792e-01 1.608491e-01 2.156595e-01 2.599488e-01 2.952213e-01 3.519258e-01 1.520630e-01 2.706194e-01 1.531166e-01 2.794371e-02 7.931163e-02 1.336496e-01 1.661120e-01 1.833226e-01 1.835852e-01 1.714786e-01 1.514456e-01 1.228498e-01 8.974519e-02 5.708499e-02 2.769317e-02 6.259686e-03 9.180879e-03 2.092231e-02 3.542900e-02 6.034743e-02 8.772028e-02 1.206456e-01 1.481104e-01 1.687080e-01 1.844206e-01 1.828635e-01 1.823638e-01 1.471918e-01 1.230848e-01 2.062484e-02 6.405588e-02 2.794504e-01 8.352652e-02 3.226540e-01 3.228213e-01 2.717435e-01 2.327739e-01 1.747054e-01 1.269483e-01 8.659989e-02 5.050080e-02 2.731336e-02 4.423164e-03 1.090741e-02 2.492171e-02 3.198954e-02 4.040947e-02 4.254068e-02 
4.595024e-02 4.317303e-02 4.130865e-02 3.390308e-02 2.696292e-02 1.515393e-02 6.787201e-03 2.351365e-02 4.688157e-02 7.965364e-02 1.232410e-01 1.662728e-01 2.318552e-01 2.571770e-01 3.321070e-01 3.234553e-01 1.663870e-01 2.510709e-01 9.873052e-02 4.130826e-02 8.682766e-02 1.302254e-01 1.639811e-01 1.753584e-01 1.760396e-01 1.627260e-01 1.426740e-01 1.159889e-01 8.769062e-02 6.074792e-02 3.667333e-02 1.900216e-02 1.350824e-02 2.550471e-02 4.130089e-02 6.326082e-02 8.618560e-02 1.129301e-01 1.381663e-01 1.578817e-01 1.742193e-01 1.743229e-01 1.719777e-01 1.434881e-01 1.067971e-01 2.898753e-02 1.078172e-01 1.665871e-01 2.776885e-01 1.986608e-01 3.681609e-01 2.739269e-01 2.495254e-01 1.846669e-01 1.326465e-01 9.019998e-02 5.047826e-02 2.642990e-02 4.065735e-03 1.148670e-02 2.646541e-02 3.276718e-02 4.117924e-02 4.285900e-02 
4.519389e-02 4.224509e-02 4.079734e-02 3.341540e-02 2.729850e-02 1.429671e-02 1.764737e-03 2.022004e-02 4.424868e-02 7.997288e-02 1.251993e-01 1.717472e-01 2.448212e-01 2.534001e-01 3.623779e-01 1.851982e-01 3.281100e-01 1.242958e-01 1.542317e-01 5.240566e-02 7.642511e-02 1.366218e-01 1.566960e-01 1.686944e-01 1.640362e-01 1.518988e-01 1.331225e-01 1.100993e-01 8.548100e-02 6.168121e-02 4.104342e-02 2.658224e-02 2.184853e-02 2.880417e-02 4.208687e-02 6.092388e-02 8.249156e-02 1.052882e-01 1.287024e-01 1.454134e-01 1.624807e-01 1.642116e-01 1.648885e-01 1.423830e-01 1.025093e-01 4.500010e-02 1.206992e-01 1.308657e-01 2.955601e-01 1.142354e-01 3.503675e-01 2.836586e-01 2.470193e-01 1.926735e-01 1.320002e-01 9.235224e-02 4.921226e-02 2.685008e-02 1.032666e-02 1.506009e-02 2.843088e-02 3.339203e-02 4.119999e-02 4.221922e-02 
4.249605e-02 3.958184e-02 3.874354e-02 3.200460e-02 2.745788e-02 1.544857e-02 8.216726e-03 1.910798e-02 4.078985e-02 7.932296e-02 1.202665e-01 1.784041e-01 2.395232e-01 2.750470e-01 3.232269e-01 1.660340e-01 3.003654e-01 2.111286e-01 1.664692e-01 5.464388e-02 9.954802e-02 1.459088e-01 1.609660e-01 1.657682e-01 1.588575e-01 1.440991e-01 1.254133e-01 1.033289e-01 8.172014e-02 6.149321e-02 4.506240e-02 3.398997e-02 3.017791e-02 3.424613e-02 4.428068e-02 5.877027e-02 7.722226e-02 9.622231e-02 1.187041e-01 1.345839e-01 1.540643e-01 1.573974e-01 1.653338e-01 1.442459e-01 1.281089e-01 5.676902e-02 1.045271e-01 2.299030e-01 1.886142e-01 2.584677e-01 2.836461e-01 3.206339e-01 2.228898e-01 2.026825e-01 1.270906e-01 9.480179e-02 4.828612e-02 2.974565e-02 1.638469e-02 1.937169e-02 2.950982e-02 3.296234e-02 3.950321e-02 3.981869e-02 
3.860583e-02 3.585919e-02 3.583366e-02 3.040568e-02 2.798490e-02 1.891473e-02 1.514323e-02 1.990991e-02 3.550103e-02 7.480470e-02 1.062507e-01 1.781839e-01 2.116960e-01 3.137746e-01 2.574774e-01 2.500648e-01 1.944909e-01 2.756963e-01 1.679826e-01 9.850749e-02 1.532058e-01 1.641380e-01 1.733807e-01 1.663407e-01 1.550491e-01 1.369641e-01 1.177970e-01 9.663414e-02 7.716233e-02 5.929019e-02 4.553073e-02 3.617347e-02 3.281412e-02 3.481317e-02 4.262008e-02 5.392309e-02 7.052695e-02 8.691603e-02 1.087395e-01 1.241867e-01 1.461375e-01 1.526801e-01 1.684055e-01 1.531223e-01 1.570089e-01 1.007117e-01 1.258286e-01 2.427084e-01 1.905239e-01 3.313174e-01 2.130375e-01 3.060366e-01 1.885300e-01 1.975235e-01 1.148961e-01 9.047681e-02 4.380025e-02 3.161135e-02 2.135616e-02 2.438581e-02 3.065689e-02 3.248867e-02 3.701416e-02 3.645557e-02 
3.292550e-02 3.060995e-02 3.157120e-02 2.838664e-02 2.830665e-02 2.357599e-02 2.165272e-02 2.341101e-02 2.935183e-02 6.469537e-02 8.307825e-02 1.592593e-01 1.650582e-01 3.129979e-01 2.591431e-01 2.866418e-01 2.042401e-01 2.844617e-01 2.239606e-01 1.724800e-01 2.068952e-01 1.913020e-01 1.917801e-01 1.725035e-01 1.566058e-01 1.338013e-01 1.132136e-01 9.145461e-02 7.295493e-02 5.653219e-02 4.446939e-02 3.620516e-02 3.290483e-02 3.367751e-02 3.966968e-02 4.876636e-02 6.357014e-02 7.892138e-02 1.004269e-01 1.180140e-01 1.421747e-01 1.558175e-01 1.769750e-01 1.772733e-01 1.878535e-01 1.683931e-01 1.601935e-01 2.588615e-01 2.460174e-01 2.716966e-01 2.001601e-01 2.414124e-01 1.918179e-01 1.823821e-01 1.070747e-01 8.199980e-02 4.015475e-02 3.450071e-02 2.626021e-02 2.948009e-02 3.125349e-02 3.153703e-02 3.317886e-02 3.164569e-02 
2.617653e-02 2.453248e-02 2.673437e-02 2.665047e-02 2.876103e-02 2.872603e-02 2.766303e-02 2.957069e-02 2.621582e-02 5.234343e-02 5.966644e-02 1.258268e-01 1.280510e-01 2.463610e-01 2.552271e-01 2.805911e-01 2.088753e-01 3.079485e-01 2.577109e-01 2.433070e-01 2.472587e-01 2.249259e-01 2.105366e-01 1.839093e-01 1.604480e-01 1.338360e-01 1.102661e-01 8.762833e-02 6.878126e-02 5.266472e-02 4.079918e-02 3.231838e-02 2.841336e-02 2.824011e-02 3.348809e-02 4.211268e-02 5.635179e-02 7.248382e-02 9.403214e-02 1.155867e-01 1.414462e-01 1.649815e-01 1.895661e-01 2.100251e-01 2.228682e-01 2.408229e-01 2.204225e-01 2.989606e-01 2.425873e-01 1.982448e-01 2.223691e-01 2.021048e-01 2.045759e-01 1.471618e-01 9.065970e-02 6.365888e-02 3.315472e-02 3.571611e-02 3.007874e-02 3.368325e-02 3.163378e-02 3.051847e-02 2.881444e-02 2.611150e-02 
1.814405e-02 1.749286e-02 2.134025e-02 2.509041e-02 2.893938e-02 3.321896e-02 3.245136e-02 3.638456e-02 2.725068e-02 4.254387e-02 4.139153e-02 9.016140e-02 1.166567e-01 1.788109e-01 2.528172e-01 2.384868e-01 1.804211e-01 3.262991e-01 2.757520e-01 2.967641e-01 2.745440e-01 2.551344e-01 2.259318e-01 1.960092e-01 1.651544e-01 1.359241e-01 1.090940e-01 8.543004e-02 6.545289e-02 4.903915e-02 3.644100e-02 2.707528e-02 2.181607e-02 2.082120e-02 2.588255e-02 3.543061e-02 4.963508e-02 6.781180e-02 8.936962e-02 1.155407e-01 1.421587e-01 1.747476e-01 2.007383e-01 2.364219e-01 2.493233e-01 2.857878e-01 2.610348e-01 3.123009e-01 2.212968e-01 1.668995e-01 2.290736e-01 1.925412e-01 1.743805e-01 9.696524e-02 6.135270e-02 4.315034e-02 2.921079e-02 3.937087e-02 3.459316e-02 3.778964e-02 3.222596e-02 2.977227e-02 2.429977e-02 2.004086e-02 
9.507126e-03 1.055038e-02 1.683460e-02 2.413980e-02 2.908829e-02 3.623853e-02 3.554928e-02 4.119663e-02 2.908536e-02 3.497321e-02 2.080986e-02 4.546713e-02 1.039962e-01 1.193278e-01 2.601985e-01 2.040405e-01 1.466165e-01 3.316689e-01 2.898463e-01 3.295777e-01 2.922269e-01 2.770160e-01 2.372184e-01 2.064171e-01 1.695967e-01 1.389731e-01 1.092212e-01 8.474917e-02 6.342142e-02 4.631915e-02 3.241216e-02 2.127479e-02 1.328297e-02 1.109098e-02 1.795469e-02 3.021740e-02 4.525037e-02 6.576523e-02 8.759753e-02 1.174964e-01 1.447662e-01 1.838350e-01 2.109152e-01 2.560932e-01 2.692670e-01 3.121371e-01 2.828050e-01 3.048987e-01 2.012759e-01 1.482946e-01 2.333914e-01 1.741969e-01 1.208119e-01 5.335236e-02 3.059547e-02 3.066736e-02 2.946042e-02 4.243375e-02 3.742492e-02 4.004324e-02 3.230742e-02 2.896131e-02 2.049043e-02 1.449732e-02 
2.317360e-03 6.378157e-03 1.481134e-02 2.380438e-02 2.915615e-02 3.743942e-02 3.682388e-02 4.339324e-02 3.068051e-02 3.389149e-02 4.389485e-03 5.376235e-03 9.295341e-02 8.712200e-02 2.524505e-01 1.860185e-01 1.261938e-01 3.188697e-01 2.868361e-01 3.347655e-01 2.948518e-01 2.822047e-01 2.395421e-01 2.088705e-01 1.703385e-01 1.394233e-01 1.088218e-01 8.417700e-02 6.241445e-02 4.513994e-02 3.069757e-02 1.871028e-02 8.165686e-03 2.545971e-03 1.354333e-02 2.762942e-02 4.298263e-02 6.443866e-02 8.622381e-02 1.174540e-01 1.447556e-01 1.860166e-01 2.133741e-01 2.616476e-01 2.752856e-01 3.200200e-01 2.905288e-01 3.036405e-01 1.959759e-01 1.416636e-01 2.360015e-01 1.684817e-01 8.915293e-02 2.971171e-02 5.397214e-03 2.776355e-02 3.089370e-02 4.432875e-02 3.896833e-02 4.128968e-02 3.268522e-02 2.895929e-02 1.916637e-02 1.208456e-02 
9.507126e-03 1.055038e-02 1.683460e-02 2.413980e-02 2.908829e-02 3.623853e-02 3.554928e-02 4.119663e-02 2.908536e-02 3.497321e-02 2.080986e-02 4.546713e-02 1.039962e-01 1.193278e-01 2.601985e-01 2.040405e-01 1.466165e-01 3.316689e-01 2.898463e-01 3.295777e-01 2.922269e-01 2.770160e-01 2.372184e-01 2.064171e-01 1.695967e-01 1.389731e-01 1.092212e-01 8.474917e-02 6.342142e-02 4.631915e-02 3.241216e-02 2.127479e-02 1.328297e-02 1.109098e-02 1.795469e-02 3.021740e-02 4.525037e-02 6.576523e-02 8.759753e-02 1.174964e-01 1.447662e-01 1.838350e-01 2.109152e-01 2.560932e-01 2.692670e-01 3.121371e-01 2.828050e-01 3.048987e-01 2.012759e-01 1.482946e-01 2.333914e-01 1.741969e-01 1.208119e-01 5.335236e-02 3.059547e-02 3.066736e-02 2.946042e-02 4.243375e-02 3.742492e-02 4.004324e-02 3.230742e-02 2.896131e-02 2.049043e-02 1.449732e-02 
1.814405e-02 1.749286e-02 2.134025e-02 2.509041e-02 2.893938e-02 3.321896e-02 3.245136e-02 3.638456e-02 2.725068e-02 4.254387e-02 4.139153e-02 9.016140e-02 1.166567e-01 1.788109e-01 2.528172e-01 2.384868e-01 1.804211e-01 3.262991e-01 2.757520e-01 2.967641e-01 2.745440e-01 2.551344e-01 2.259318e-01 1.960092e-01 1.651544e-01 1.359241e-01 1.090940e-01 8.543004e-02 6.545289e-02 4.903915e-02 3.644100e-02 2.707528e-02 2.181607e-02 2.082120e-02 2.588255e-02 3.543061e-02 4.963508e-02 6.781180e-02 8.936962e-02 1.155407e-01 1.421587e-01 1.747476e-01 2.007383e-01 2.364219e-01 2.493233e-01 2.857878e-01 2.610348e-01 3.123009e-01 2.212968e-01 1.668995e-01 2.290736e-01 1.925412e-01 1.743805e-01 9.696524e-02 6.135270e-02 4.315034e-02 2.921079e-02 3.937087e-02 3.459316e-02 3.778964e-02 3.222596e-02 2.977227e-02 2.429977e-02 2.004086e-02 