# vtk DataFile Version 2.0
Comment goes here
ASCII

DATASET STRUCTURED_POINTS
FIELD FieldData 1
TIME 1 1 double
1.09000000
DIMENSIONS    64   64   1

ORIGIN    0.000   0.000   0.000
SPACING   0.015625 0.015625   1.000

POINT_DATA   4096
SCALARS uMag double
LOOKUP_TABLE default

2.148197e-03 2.811981e-03 7.696803e-03 1.312632e-02 1.881636e-02 2.530785e-02 3.234691e-02 4.037646e-02 4.915475e-02 5.900351e-02 6.967736e-02 8.134191e-02 9.374231e-02 1.068370e-01 1.203743e-01 1.340416e-01 1.476299e-01 1.604947e-01 1.725394e-01 1.827587e-01 1.912608e-01 1.967163e-01 1.995278e-01 1.981649e-01 1.933743e-01 1.836321e-01 1.700193e-01 1.512877e-01 1.288119e-01 1.019045e-01 7.219151e-02 3.969635e-02 6.152660e-03 2.785128e-02 6.073268e-02 9.169817e-02 1.196165e-01 1.438217e-01 1.638099e-01 1.792067e-01 1.901039e-01 1.964083e-01 1.986694e-01 1.969766e-01 1.921721e-01 1.844145e-01 1.746698e-01 1.630704e-01 1.505705e-01 1.372049e-01 1.238395e-01 1.103653e-01 9.753994e-02 8.509122e-02 7.368241e-02 6.288429e-02 5.328858e-02 4.433508e-02 3.656055e-02 2.931245e-02 2.307832e-02 1.715697e-02 1.198490e-02 6.854537e-03 
5.346551e-03 5.581493e-03 9.078993e-03 1.401226e-02 1.948916e-02 2.587036e-02 3.285120e-02 4.085061e-02 4.960847e-02 5.944462e-02 7.009459e-02 8.173281e-02 9.407782e-02 1.071070e-01 1.205339e-01 1.340734e-01 1.474795e-01 1.601373e-01 1.719263e-01 1.818618e-01 1.900627e-01 1.952025e-01 1.977440e-01 1.961525e-01 1.912732e-01 1.816090e-01 1.683402e-01 1.503253e-01 1.290343e-01 1.040582e-01 7.745141e-02 5.115126e-02 3.433663e-02 4.305833e-02 6.741273e-02 9.448963e-02 1.201632e-01 1.429539e-01 1.621093e-01 1.770481e-01 1.878193e-01 1.941670e-01 1.966453e-01 1.952238e-01 1.907433e-01 1.833164e-01 1.738733e-01 1.625734e-01 1.503020e-01 1.371670e-01 1.239507e-01 1.106329e-01 9.789186e-02 8.553733e-02 7.416938e-02 6.342363e-02 5.384809e-02 4.493025e-02 3.718024e-02 2.998374e-02 2.381657e-02 1.802917e-02 1.308649e-02 8.510685e-03 
9.817325e-03 1.011086e-02 1.261669e-02 1.680494e-02 2.187995e-02 2.803686e-02 3.491376e-02 4.287224e-02 5.162929e-02 6.148524e-02 7.215536e-02 8.381344e-02 9.615169e-02 1.091638e-01 1.225290e-01 1.359965e-01 1.492818e-01 1.618220e-01 1.734635e-01 1.832878e-01 1.914017e-01 1.965493e-01 1.992207e-01 1.979396e-01 1.936292e-01 1.848263e-01 1.728381e-01 1.565781e-01 1.377227e-01 1.162242e-01 9.470678e-02 7.608643e-02 6.650453e-02 7.109574e-02 8.700437e-02 1.081351e-01 1.298611e-01 1.499918e-01 1.672332e-01 1.808402e-01 1.906487e-01 1.963909e-01 1.984783e-01 1.968706e-01 1.923270e-01 1.849140e-01 1.755480e-01 1.643141e-01 1.521366e-01 1.390395e-01 1.258736e-01 1.125387e-01 9.979031e-02 8.737193e-02 7.595457e-02 6.512751e-02 5.549412e-02 4.652157e-02 3.875541e-02 3.159624e-02 2.553938e-02 2.001472e-02 1.552491e-02 1.183278e-02 
1.438223e-02 1.464728e-02 1.664691e-02 2.028678e-02 2.499066e-02 3.092471e-02 3.770136e-02 4.563540e-02 5.440875e-02 6.430551e-02 7.499319e-02 8.665971e-02 9.892370e-02 1.118291e-01 1.249508e-01 1.381265e-01 1.509499e-01 1.629734e-01 1.739463e-01 1.830613e-01 1.904238e-01 1.948480e-01 1.969867e-01 1.953927e-01 1.913171e-01 1.833745e-01 1.732455e-01 1.601099e-01 1.458589e-01 1.307495e-01 1.169715e-01 1.064552e-01 1.014652e-01 1.036355e-01 1.120119e-01 1.249018e-01 1.396630e-01 1.545810e-01 1.682722e-01 1.796814e-01 1.884004e-01 1.937670e-01 1.960658e-01 1.949497e-01 1.911043e-01 1.844448e-01 1.758023e-01 1.652567e-01 1.536235e-01 1.410130e-01 1.281637e-01 1.150938e-01 1.024665e-01 9.013521e-02 7.870870e-02 6.786498e-02 5.817059e-02 4.916630e-02 4.137446e-02 3.427166e-02 2.833185e-02 2.308740e-02 1.900221e-02 1.591716e-02 
1.867048e-02 1.903273e-02 2.088547e-02 2.429569e-02 2.882690e-02 3.467054e-02 4.144923e-02 4.944452e-02 5.831822e-02 6.832816e-02 7.910703e-02 9.083866e-02 1.030852e-01 1.159215e-01 1.288391e-01 1.417536e-01 1.541558e-01 1.657276e-01 1.761268e-01 1.847159e-01 1.915754e-01 1.956982e-01 1.978360e-01 1.966834e-01 1.937073e-01 1.875755e-01 1.801652e-01 1.705492e-01 1.605694e-01 1.503068e-01 1.413649e-01 1.349565e-01 1.318760e-01 1.331004e-01 1.379557e-01 1.461203e-01 1.559429e-01 1.664617e-01 1.764430e-01 1.850161e-01 1.916724e-01 1.958063e-01 1.974572e-01 1.962006e-01 1.925382e-01 1.862423e-01 1.780711e-01 1.679675e-01 1.567595e-01 1.444496e-01 1.318419e-01 1.188704e-01 1.062904e-01 9.388904e-02 8.237092e-02 7.136810e-02 6.152718e-02 5.237313e-02 4.447753e-02 3.734127e-02 3.144710e-02 2.639171e-02 2.258579e-02 1.990102e-02 
2.274599e-02 2.314321e-02 2.492156e-02 2.823389e-02 3.271547e-02 3.858188e-02 4.546682e-02 5.362561e-02 6.270083e-02 7.292375e-02 8.388140e-02 9.575901e-02 1.080275e-01 1.208184e-01 1.334671e-01 1.460227e-01 1.577614e-01 1.685730e-01 1.779055e-01 1.853534e-01 1.909373e-01 1.938048e-01 1.949822e-01 1.931726e-01 1.904986e-01 1.856409e-01 1.811532e-01 1.763980e-01 1.730284e-01 1.706577e-01 1.691862e-01 1.686569e-01 1.681535e-01 1.681876e-01 1.682610e-01 1.692948e-01 1.711491e-01 1.744222e-01 1.788795e-01 1.838910e-01 1.887893e-01 1.923530e-01 1.944477e-01 1.940788e-01 1.916284e-01 1.865957e-01 1.795944e-01 1.705656e-01 1.601620e-01 1.485315e-01 1.363159e-01 1.236268e-01 1.111052e-01 9.868639e-02 8.701360e-02 7.582625e-02 6.574419e-02 5.637520e-02 4.827217e-02 4.101477e-02 3.505035e-02 3.005380e-02 2.635489e-02 2.385741e-02 
2.634115e-02 2.685092e-02 2.869995e-02 3.209827e-02 3.670199e-02 4.275068e-02 4.988178e-02 5.832721e-02 6.771828e-02 7.824394e-02 8.946786e-02 1.015402e-01 1.138826e-01 1.266299e-01 1.390236e-01 1.511926e-01 1.622690e-01 1.723336e-01 1.806768e-01 1.872011e-01 1.918592e-01 1.941628e-01 1.952831e-01 1.942100e-01 1.933432e-01 1.913773e-01 1.908091e-01 1.902859e-01 1.909684e-01 1.920840e-01 1.933001e-01 1.947632e-01 1.950917e-01 1.947924e-01 1.933540e-01 1.920332e-01 1.906891e-01 1.902494e-01 1.906134e-01 1.916827e-01 1.932189e-01 1.946684e-01 1.955978e-01 1.949876e-01 1.929022e-01 1.885542e-01 1.824086e-01 1.741740e-01 1.644919e-01 1.533665e-01 1.415223e-01 1.289665e-01 1.164775e-01 1.038986e-01 9.202343e-02 8.051802e-02 7.012820e-02 6.042514e-02 5.203691e-02 4.455391e-02 3.843498e-02 3.340102e-02 2.972426e-02 2.734606e-02 
2.954185e-02 3.012347e-02 3.205906e-02 3.560398e-02 4.041791e-02 4.675207e-02 5.424846e-02 6.310649e-02 7.295808e-02 8.393859e-02 9.559709e-02 1.080446e-01 1.206370e-01 1.335352e-01 1.458124e-01 1.577488e-01 1.681707e-01 1.774746e-01 1.845598e-01 1.897569e-01 1.927801e-01 1.934434e-01 1.932618e-01 1.910364e-01 1.903184e-01 1.892582e-01 1.916042e-01 1.967135e-01 2.051376e-01 2.150880e-01 2.236687e-01 2.305349e-01 2.331545e-01 2.319999e-01 2.266355e-01 2.187485e-01 2.090482e-01 2.002412e-01 1.940123e-01 1.910196e-01 1.907931e-01 1.916947e-01 1.934217e-01 1.940431e-01 1.935669e-01 1.908363e-01 1.860827e-01 1.791098e-01 1.702507e-01 1.597989e-01 1.482201e-01 1.357976e-01 1.231586e-01 1.103332e-01 9.805827e-02 8.611027e-02 7.522556e-02 6.505168e-02 5.620842e-02 4.836089e-02 4.193168e-02 3.671908e-02 3.292024e-02 3.053432e-02 
3.207085e-02 3.279171e-02 3.490914e-02 3.873737e-02 4.389800e-02 5.066809e-02 5.866801e-02 6.807262e-02 7.850940e-02 9.004346e-02 1.022356e-01 1.151008e-01 1.280024e-01 1.410210e-01 1.531929e-01 1.648036e-01 1.745546e-01 1.830337e-01 1.889275e-01 1.930308e-01 1.948922e-01 1.949922e-01 1.949724e-01 1.941754e-01 1.962697e-01 1.996048e-01 2.069254e-01 2.156824e-01 2.259287e-01 2.360749e-01 2.444788e-01 2.518006e-01 2.547785e-01 2.535519e-01 2.480531e-01 2.404288e-01 2.307980e-01 2.213391e-01 2.126559e-01 2.050681e-01 1.994660e-01 1.968521e-01 1.963449e-01 1.962383e-01 1.960953e-01 1.941625e-01 1.904682e-01 1.844301e-01 1.763740e-01 1.664030e-01 1.551301e-01 1.426805e-01 1.299184e-01 1.167055e-01 1.040272e-01 9.151525e-02 8.010147e-02 6.935282e-02 5.999679e-02 5.169582e-02 4.488820e-02 3.942841e-02 3.545507e-02 3.304079e-02 
3.402111e-02 3.485827e-02 3.717620e-02 4.133350e-02 4.691576e-02 5.420667e-02 6.282121e-02 7.288934e-02 8.406617e-02 9.632487e-02 1.092756e-01 1.228274e-01 1.363647e-01 1.499201e-01 1.624221e-01 1.742808e-01 1.838315e-01 1.920936e-01 1.970723e-01 2.003324e-01 2.007036e-01 1.993439e-01 1.980591e-01 1.954559e-01 1.972114e-01 1.985514e-01 2.055547e-01 2.194859e-01 2.396501e-01 2.617209e-01 2.785480e-01 2.916047e-01 2.969781e-01 2.949009e-01 2.858567e-01 2.712527e-01 2.512372e-01 2.311517e-01 2.153608e-01 2.055817e-01 2.006340e-01 1.981277e-01 1.989818e-01 2.002487e-01 2.016681e-01 2.012482e-01 1.985518e-01 1.934596e-01 1.856974e-01 1.759686e-01 1.644516e-01 1.516912e-01 1.383487e-01 1.244903e-01 1.110579e-01 9.776281e-02 8.555175e-02 7.404240e-02 6.396207e-02 5.504635e-02 4.768948e-02 4.184453e-02 3.756855e-02 3.503015e-02 
3.511396e-02 3.613484e-02 3.873285e-02 4.335500e-02 4.948626e-02 5.746200e-02 6.683757e-02 7.773519e-02 8.980737e-02 1.029394e-01 1.168082e-01 1.311524e-01 1.454803e-01 1.595958e-01 1.725542e-01 1.845526e-01 1.939530e-01 2.017531e-01 2.057669e-01 2.080141e-01 2.069899e-01 2.048621e-01 2.035329e-01 2.025381e-01 2.072718e-01 2.159044e-01 2.300231e-01 2.457673e-01 2.630038e-01 2.789137e-01 2.914463e-01 3.045337e-01 3.108013e-01 3.081174e-01 2.993182e-01 2.878159e-01 2.728270e-01 2.586272e-01 2.454171e-01 2.296199e-01 2.143645e-01 2.070343e-01 2.051502e-01 2.056441e-01 2.080046e-01 2.086624e-01 2.071708e-01 2.028316e-01 1.955265e-01 1.857533e-01 1.740496e-01 1.606858e-01 1.467772e-01 1.320499e-01 1.178580e-01 1.036293e-01 9.059280e-02 7.821836e-02 6.735933e-02 5.774742e-02 4.976938e-02 4.347747e-02 3.883879e-02 3.616171e-02 
3.545608e-02 3.666007e-02 3.957948e-02 4.471602e-02 5.146828e-02 6.019190e-02 7.041742e-02 8.222749e-02 9.533157e-02 1.094916e-01 1.245311e-01 1.399982e-01 1.555852e-01 1.709131e-01 1.850953e-01 1.983146e-01 2.085595e-01 2.172724e-01 2.210716e-01 2.232596e-01 2.203324e-01 2.164685e-01 2.127365e-01 2.084389e-01 2.131861e-01 2.099220e-01 2.113991e-01 2.317442e-01 2.696740e-01 3.096409e-01 3.321523e-01 3.488102e-01 3.563706e-01 3.528819e-01 3.435343e-01 3.251466e-01 2.920995e-01 2.574857e-01 2.330602e-01 2.216195e-01 2.166973e-01 2.109908e-01 2.119476e-01 2.156384e-01 2.204053e-01 2.232699e-01 2.223483e-01 2.185028e-01 2.104578e-01 1.999996e-01 1.870301e-01 1.724596e-01 1.572015e-01 1.411548e-01 1.256870e-01 1.102162e-01 9.601873e-02 8.256549e-02 7.069781e-02 6.022798e-02 5.145908e-02 4.459077e-02 3.947299e-02 3.657821e-02 
3.478264e-02 3.624040e-02 3.955012e-02 4.534927e-02 5.284132e-02 6.250003e-02 7.373158e-02 8.667941e-02 1.010293e-01 1.164892e-01 1.330012e-01 1.498975e-01 1.671422e-01 1.839266e-01 1.997371e-01 2.140664e-01 2.252350e-01 2.338343e-01 2.364762e-01 2.360538e-01 2.286522e-01 2.195082e-01 2.114568e-01 2.040486e-01 2.090389e-01 2.308189e-01 2.509756e-01 2.655344e-01 2.858934e-01 3.052467e-01 3.171580e-01 3.362289e-01 3.475062e-01 3.406108e-01 3.298755e-01 3.175086e-01 2.975893e-01 2.867388e-01 2.822957e-01 2.553110e-01 2.158399e-01 2.034100e-01 2.072821e-01 2.145104e-01 2.264563e-01 2.343046e-01 2.369205e-01 2.345463e-01 2.267248e-01 2.152771e-01 2.011391e-01 1.847800e-01 1.680682e-01 1.502646e-01 1.334228e-01 1.164631e-01 1.010286e-01 8.636871e-02 7.341357e-02 6.200603e-02 5.235072e-02 4.483948e-02 3.914721e-02 3.600669e-02 
3.324716e-02 3.499475e-02 3.877398e-02 4.529324e-02 5.358655e-02 6.420609e-02 7.648856e-02 9.059493e-02 1.062800e-01 1.231340e-01 1.413598e-01 1.600051e-01 1.794445e-01 1.984364e-01 2.167717e-01 2.334721e-01 2.464641e-01 2.562164e-01 2.571547e-01 2.537080e-01 2.368534e-01 2.186866e-01 1.976563e-01 1.912905e-01 2.159253e-01 2.040939e-01 1.960848e-01 2.488913e-01 3.290706e-01 3.891582e-01 3.813230e-01 3.641513e-01 3.571544e-01 3.575157e-01 3.774952e-01 3.913697e-01 3.581730e-01 3.047447e-01 2.472556e-01 2.116963e-01 2.085274e-01 1.897741e-01 1.870763e-01 2.074450e-01 2.301165e-01 2.484279e-01 2.558266e-01 2.565461e-01 2.482974e-01 2.356524e-01 2.191344e-01 2.002805e-01 1.810829e-01 1.609079e-01 1.420228e-01 1.231855e-01 1.061325e-01 9.004951e-02 7.579178e-02 6.331684e-02 5.263680e-02 4.438162e-02 3.802036e-02 3.457381e-02 
3.060638e-02 3.271870e-02 3.701684e-02 4.439811e-02 5.356578e-02 6.532890e-02 7.879395e-02 9.434498e-02 1.116356e-01 1.303454e-01 1.507833e-01 1.718386e-01 1.942085e-01 2.160224e-01 2.375173e-01 2.561620e-01 2.703555e-01 2.775304e-01 2.724667e-01 2.558603e-01 2.194084e-01 1.773000e-01 1.529111e-01 1.404771e-01 2.200253e-01 3.606772e-01 4.057578e-01 3.843744e-01 3.253051e-01 2.900591e-01 2.649076e-01 2.628433e-01 2.626511e-01 2.612702e-01 2.609935e-01 2.775694e-01 3.045600e-01 3.735468e-01 4.423031e-01 4.135303e-01 2.650598e-01 1.501100e-01 1.402200e-01 1.559046e-01 2.040695e-01 2.445476e-01 2.670739e-01 2.759575e-01 2.708991e-01 2.575206e-01 2.392543e-01 2.171283e-01 1.952502e-01 1.720111e-01 1.508248e-01 1.297401e-01 1.108934e-01 9.324022e-02 7.755916e-02 6.396041e-02 5.213899e-02 4.308402e-02 3.591254e-02 3.210628e-02 
2.712729e-02 2.970929e-02 3.465615e-02 4.294908e-02 5.301062e-02 6.587863e-02 8.050153e-02 9.743125e-02 1.163490e-01 1.368933e-01 1.597227e-01 1.833258e-01 2.090265e-01 2.340114e-01 2.589831e-01 2.797240e-01 2.940429e-01 2.970303e-01 2.803522e-01 2.441601e-01 1.724314e-01 1.029767e-01 1.297142e-01 2.985660e-01 3.805216e-01 2.775616e-01 2.327744e-01 2.501451e-01 2.673557e-01 3.067894e-01 3.175757e-01 3.305375e-01 3.415774e-01 3.366536e-01 3.226968e-01 3.179464e-01 2.845158e-01 2.540117e-01 2.428645e-01 2.720147e-01 3.811115e-01 3.455468e-01 1.733582e-01 8.133705e-02 1.455082e-01 2.205923e-01 2.671855e-01 2.922424e-01 2.938967e-01 2.822908e-01 2.622759e-01 2.367764e-01 2.112878e-01 1.843382e-01 1.601114e-01 1.363335e-01 1.153117e-01 9.590181e-02 7.864905e-02 6.387655e-02 5.086059e-02 4.097546e-02 3.294662e-02 2.874720e-02 
2.258145e-02 2.572770e-02 3.133261e-02 4.059932e-02 5.149622e-02 6.556856e-02 8.137751e-02 9.998222e-02 1.207892e-01 1.438210e-01 1.696805e-01 1.969163e-01 2.268645e-01 2.559920e-01 2.846491e-01 3.060288e-01 3.174278e-01 3.073824e-01 2.687838e-01 1.901165e-01 5.512085e-02 1.373258e-01 3.028068e-01 2.593250e-01 1.623481e-01 1.467503e-01 2.477612e-01 3.698788e-01 4.232300e-01 4.568667e-01 3.917665e-01 3.348110e-01 3.075582e-01 3.215490e-01 3.731193e-01 4.430879e-01 4.363625e-01 3.858889e-01 2.631457e-01 1.586984e-01 1.613168e-01 2.443709e-01 3.147471e-01 1.903716e-01 1.920304e-02 1.541449e-01 2.431584e-01 2.961800e-01 3.130631e-01 3.059466e-01 2.867191e-01 2.576545e-01 2.287000e-01 1.973776e-01 1.697396e-01 1.428756e-01 1.193810e-01 9.810472e-02 7.911835e-02 6.319440e-02 4.888360e-02 3.817820e-02 2.912838e-02 2.444344e-02 
1.745445e-02 2.142219e-02 2.784682e-02 3.804719e-02 4.969147e-02 6.483629e-02 8.172497e-02 1.018566e-01 1.245173e-01 1.498564e-01 1.788257e-01 2.093393e-01 2.434488e-01 2.755911e-01 3.064229e-01 3.251909e-01 3.283957e-01 2.987625e-01 2.286289e-01 9.078843e-02 1.091767e-01 2.247544e-01 1.713166e-01 1.145267e-01 2.492071e-01 4.784822e-01 6.280077e-01 5.838298e-01 4.694890e-01 3.626241e-01 2.441596e-01 1.758971e-01 1.336051e-01 1.530189e-01 2.110097e-01 3.191570e-01 4.276534e-01 5.494883e-01 6.135433e-01 4.857784e-01 2.642020e-01 1.209314e-01 1.514848e-01 2.280624e-01 1.538402e-01 3.259543e-02 1.848301e-01 2.792368e-01 3.216453e-01 3.264525e-01 3.106808e-01 2.795675e-01 2.469438e-01 2.107999e-01 1.791620e-01 1.487511e-01 1.225026e-01 9.924147e-02 7.851454e-02 6.152269e-02 4.602759e-02 3.461160e-02 2.459610e-02 1.941309e-02 
1.154815e-02 1.657628e-02 2.370055e-02 3.461311e-02 4.668427e-02 6.279861e-02 8.059194e-02 1.024493e-01 1.270922e-01 1.554625e-01 1.881084e-01 2.232676e-01 2.621168e-01 2.984955e-01 3.302504e-01 3.446790e-01 3.350787e-01 2.786774e-01 1.748386e-01 3.847483e-02 1.580412e-01 1.368013e-01 1.652789e-01 3.717115e-01 5.702702e-01 5.572436e-01 4.601393e-01 3.342772e-01 2.589074e-01 2.186566e-01 1.724011e-01 1.483062e-01 1.312199e-01 1.407152e-01 1.616287e-01 2.094736e-01 2.521977e-01 3.214513e-01 4.292429e-01 5.206000e-01 5.487127e-01 3.935878e-01 1.774046e-01 1.224010e-01 1.474129e-01 5.717897e-02 1.095790e-01 2.438698e-01 3.202688e-01 3.392210e-01 3.322710e-01 3.006680e-01 2.655480e-01 2.246755e-01 1.886748e-01 1.545472e-01 1.250970e-01 9.986596e-02 7.719251e-02 5.929066e-02 4.259096e-02 3.063659e-02 1.958861e-02 1.373089e-02 
6.017075e-03 1.263270e-02 2.029047e-02 3.149645e-02 4.371535e-02 6.057897e-02 7.912211e-02 1.025663e-01 1.291731e-01 1.603166e-01 1.966875e-01 2.354010e-01 2.783476e-01 3.153493e-01 3.449160e-01 3.488273e-01 3.220735e-01 2.483111e-01 1.156011e-01 1.095851e-01 1.793295e-01 2.321132e-01 4.072585e-01 4.858218e-01 4.547497e-01 4.011571e-01 3.748464e-01 3.053738e-01 2.379871e-01 1.738191e-01 1.169556e-01 8.361662e-02 6.091951e-02 7.107527e-02 9.892634e-02 1.558252e-01 2.209666e-01 2.944494e-01 3.630704e-01 3.907055e-01 4.318673e-01 4.711204e-01 4.214113e-01 2.533249e-01 1.741506e-01 1.056380e-01 6.364713e-02 2.057744e-01 3.081520e-01 3.474904e-01 3.501230e-01 3.201840e-01 2.833322e-01 2.374003e-01 1.970114e-01 1.587183e-01 1.260597e-01 9.883662e-02 7.442718e-02 5.585710e-02 3.830676e-02 2.615662e-02 1.445317e-02 7.825888e-03 
4.333751e-03 1.029871e-02 1.724764e-02 2.768474e-02 3.933376e-02 5.652596e-02 7.538913e-02 1.003967e-01 1.288625e-01 1.633271e-01 2.037158e-01 2.472988e-01 2.943541e-01 3.344664e-01 3.605646e-01 3.611698e-01 3.292645e-01 2.437703e-01 7.341878e-02 2.328423e-01 2.557144e-01 3.299376e-01 3.879961e-01 3.725303e-01 3.871039e-01 3.483793e-01 2.982389e-01 2.310258e-01 1.768523e-01 1.369053e-01 1.009391e-01 8.443487e-02 7.455656e-02 8.344006e-02 9.916558e-02 1.344449e-01 1.726589e-01 2.225825e-01 2.805918e-01 3.251648e-01 3.653273e-01 3.603381e-01 3.816727e-01 3.499396e-01 2.661910e-01 2.400788e-01 8.342285e-02 1.957327e-01 3.020879e-01 3.457631e-01 3.618830e-01 3.371757e-01 2.999435e-01 2.504792e-01 2.050791e-01 1.629000e-01 1.262971e-01 9.724755e-02 7.080270e-02 5.183830e-02 3.354428e-02 2.165340e-02 1.005585e-02 2.917702e-03 
9.246812e-03 1.142201e-02 1.614608e-02 2.462353e-02 3.523259e-02 5.253486e-02 7.161604e-02 9.830383e-02 1.287474e-01 1.666639e-01 2.113612e-01 2.587026e-01 3.099974e-01 3.479580e-01 3.714403e-01 3.594865e-01 3.330631e-01 1.607212e-01 2.441870e-01 2.937742e-01 2.356377e-01 3.075298e-01 3.407123e-01 3.442411e-01 3.300832e-01 2.971967e-01 2.656330e-01 2.157713e-01 1.667880e-01 1.218704e-01 8.426526e-02 6.389221e-02 5.348343e-02 6.185679e-02 7.981401e-02 1.159226e-01 1.579009e-01 2.056948e-01 2.514152e-01 2.815233e-01 3.092815e-01 3.241548e-01 3.265070e-01 3.155254e-01 2.454201e-01 2.583620e-01 2.865923e-01 1.012267e-01 3.183587e-01 3.571285e-01 3.734943e-01 3.494618e-01 3.144046e-01 2.600638e-01 2.109294e-01 1.645189e-01 1.244320e-01 9.367441e-02 6.562090e-02 4.660608e-02 2.818530e-02 1.725375e-02 8.287075e-03 5.820741e-03 
1.509324e-02 1.483418e-02 1.672394e-02 2.139058e-02 2.979635e-02 4.637607e-02 6.506171e-02 9.308748e-02 1.251896e-01 1.665175e-01 2.156303e-01 2.669894e-01 3.227314e-01 3.622771e-01 3.760115e-01 3.911140e-01 3.187839e-01 1.743843e-01 3.494754e-01 1.868996e-01 2.144350e-01 2.873276e-01 2.991079e-01 2.948904e-01 2.885073e-01 2.606007e-01 2.303649e-01 1.900014e-01 1.526765e-01 1.204392e-01 9.240367e-02 7.722349e-02 6.992331e-02 7.748603e-02 9.209578e-02 1.184304e-01 1.479479e-01 1.818364e-01 2.174459e-01 2.445962e-01 2.705182e-01 2.780628e-01 2.845136e-01 2.834727e-01 2.423505e-01 1.503295e-01 3.057835e-01 2.563168e-01 2.397552e-01 3.864946e-01 3.811219e-01 3.661432e-01 3.284135e-01 2.714657e-01 2.166577e-01 1.666555e-01 1.219492e-01 8.969402e-02 5.960050e-02 4.074950e-02 2.241472e-02 1.336527e-02 1.029110e-02 1.133293e-02 
1.989143e-02 1.825412e-02 1.823168e-02 1.881519e-02 2.460350e-02 4.039387e-02 5.876413e-02 8.876673e-02 1.226250e-01 1.686858e-01 2.222842e-01 2.791266e-01 3.405401e-01 3.787529e-01 3.920432e-01 4.026356e-01 1.657499e-01 3.868620e-01 2.386150e-01 1.325510e-01 2.265224e-01 2.521327e-01 2.747034e-01 2.698135e-01 2.615099e-01 2.377378e-01 2.134947e-01 1.792372e-01 1.462108e-01 1.146242e-01 8.857971e-02 7.278285e-02 6.587035e-02 7.173368e-02 8.585239e-02 1.099427e-01 1.389448e-01 1.698154e-01 2.015688e-01 2.239560e-01 2.464631e-01 2.539594e-01 2.634503e-01 2.479132e-01 2.398552e-01 1.484146e-01 1.593918e-01 3.764957e-01 1.582311e-01 3.847382e-01 4.118995e-01 3.651551e-01 3.386375e-01 2.765457e-01 2.187694e-01 1.660116e-01 1.173825e-01 8.418619e-02 5.250717e-02 3.412407e-02 1.665017e-02 1.079549e-02 1.395019e-02 1.604628e-02 
2.409810e-02 2.172364e-02 2.068878e-02 1.703427e-02 1.889977e-02 3.240138e-02 4.979248e-02 8.097573e-02 1.158413e-01 1.652987e-01 2.230368e-01 2.801958e-01 3.533972e-01 3.628685e-01 4.359862e-01 3.506220e-01 2.860893e-01 3.582210e-01 9.229903e-02 1.531237e-01 1.966012e-01 2.329544e-01 2.474286e-01 2.444346e-01 2.370903e-01 2.159593e-01 1.942611e-01 1.654290e-01 1.391569e-01 1.143804e-01 9.442942e-02 8.199459e-02 7.679830e-02 8.116886e-02 9.246355e-02 1.106442e-01 1.333816e-01 1.572581e-01 1.838869e-01 2.036927e-01 2.243089e-01 2.317791e-01 2.378610e-01 2.297049e-01 2.067672e-01 1.707284e-01 9.519562e-02 2.766719e-01 3.678159e-01 2.662666e-01 4.505979e-01 3.609602e-01 3.513111e-01 2.828778e-01 2.207527e-01 1.657384e-01 1.124931e-01 7.854218e-02 4.503869e-02 2.701799e-02 1.064962e-02 9.680632e-03 1.756897e-02 2.006415e-02 
2.636566e-02 2.345453e-02 2.197442e-02 1.526024e-02 1.330041e-02 2.444210e-02 4.122087e-02 7.427454e-02 1.094508e-01 1.645212e-01 2.233335e-01 2.893755e-01 3.635733e-01 3.703304e-01 4.446162e-01 2.190595e-01 4.520239e-01 2.037721e-01 1.308219e-01 1.760895e-01 1.978474e-01 2.340800e-01 2.401367e-01 2.360274e-01 2.249695e-01 2.040495e-01 1.830480e-01 1.561122e-01 1.321334e-01 1.086513e-01 9.078542e-02 7.873530e-02 7.407269e-02 7.701017e-02 8.725541e-02 1.030667e-01 1.246794e-01 1.463902e-01 1.720441e-01 1.905170e-01 2.118209e-01 2.197041e-01 2.287412e-01 2.187925e-01 1.998039e-01 1.618839e-01 1.345553e-01 1.242354e-01 4.136579e-01 2.048305e-01 4.204220e-01 3.791848e-01 3.388223e-01 2.887404e-01 2.150349e-01 1.639616e-01 1.056365e-01 7.260396e-02 3.769772e-02 2.031599e-02 6.064928e-03 1.040396e-02 2.016742e-02 2.241936e-02 
2.757061e-02 2.460563e-02 2.340258e-02 1.529993e-02 1.010266e-02 1.522156e-02 3.062721e-02 6.421502e-02 9.729433e-02 1.575067e-01 2.110397e-01 2.946774e-01 3.469562e-01 4.084956e-01 3.763387e-01 2.885962e-01 3.905111e-01 1.681920e-01 1.832564e-01 1.730815e-01 2.142617e-01 2.302491e-01 2.349358e-01 2.244597e-01 2.120877e-01 1.899397e-01 1.697003e-01 1.448058e-01 1.241142e-01 1.040983e-01 8.968541e-02 7.969200e-02 7.606411e-02 7.805208e-02 8.640600e-02 9.890613e-02 1.172722e-01 1.358394e-01 1.596397e-01 1.777418e-01 2.005365e-01 2.106039e-01 2.259539e-01 2.179387e-01 2.186939e-01 1.668023e-01 1.859353e-01 1.576965e-01 3.143046e-01 3.448723e-01 3.503624e-01 4.089233e-01 3.086955e-01 2.927993e-01 2.042826e-01 1.598352e-01 9.743739e-02 6.618577e-02 3.077180e-02 1.432392e-02 4.686720e-03 1.206380e-02 2.183724e-02 2.373434e-02 
2.646041e-02 2.363490e-02 2.297030e-02 1.518116e-02 9.528328e-03 6.798568e-03 2.123626e-02 5.398897e-02 8.401868e-02 1.461420e-01 1.932848e-01 2.904765e-01 3.189717e-01 4.397970e-01 3.351485e-01 3.709548e-01 3.021155e-01 2.353200e-01 2.541102e-01 2.185625e-01 2.603489e-01 2.489476e-01 2.477128e-01 2.271325e-01 2.101646e-01 1.844115e-01 1.624370e-01 1.369367e-01 1.163740e-01 9.645795e-02 8.252173e-02 7.228731e-02 6.865462e-02 6.994532e-02 7.796270e-02 8.973611e-02 1.078496e-01 1.262686e-01 1.505644e-01 1.700669e-01 1.956316e-01 2.093011e-01 2.314733e-01 2.280006e-01 2.432458e-01 1.986567e-01 2.226695e-01 2.171228e-01 2.527581e-01 4.372421e-01 2.834201e-01 3.854067e-01 2.859697e-01 2.868103e-01 1.926515e-01 1.511940e-01 8.843797e-02 5.933198e-02 2.528415e-02 1.155866e-02 7.572578e-03 1.362431e-02 2.178018e-02 2.302654e-02 
2.410281e-02 2.184871e-02 2.216225e-02 1.666880e-02 1.329852e-02 6.741814e-03 1.264460e-02 4.088716e-02 6.509811e-02 1.228300e-01 1.623334e-01 2.591056e-01 2.761488e-01 4.092389e-01 3.534024e-01 4.082428e-01 2.934005e-01 3.106642e-01 3.223893e-01 2.789184e-01 2.960188e-01 2.681942e-01 2.572942e-01 2.287448e-01 2.065760e-01 1.776542e-01 1.535869e-01 1.277695e-01 1.073255e-01 8.824704e-02 7.505068e-02 6.526868e-02 6.173896e-02 6.268459e-02 7.001204e-02 8.112614e-02 9.823093e-02 1.169477e-01 1.411788e-01 1.637715e-01 1.914354e-01 2.126217e-01 2.393998e-01 2.508080e-01 2.707307e-01 2.595707e-01 2.605551e-01 2.960338e-01 2.791532e-01 3.771788e-01 3.061751e-01 3.185480e-01 2.884346e-01 2.628753e-01 1.780079e-01 1.334031e-01 7.650357e-02 5.019601e-02 2.057694e-02 1.289994e-02 1.155737e-02 1.560255e-02 2.085268e-02 2.131179e-02 
1.963239e-02 1.841010e-02 2.007453e-02 1.846229e-02 1.774221e-02 1.633146e-02 1.382642e-02 3.151789e-02 4.730840e-02 9.517252e-02 1.316463e-01 2.143188e-01 2.494165e-01 3.337998e-01 3.576847e-01 3.868897e-01 2.757663e-01 3.646474e-01 3.364864e-01 3.288140e-01 3.197309e-01 2.933668e-01 2.695821e-01 2.378025e-01 2.084975e-01 1.771113e-01 1.493155e-01 1.221562e-01 9.972260e-02 7.938747e-02 6.454007e-02 5.319044e-02 4.866828e-02 4.968230e-02 5.794501e-02 7.087614e-02 8.910184e-02 1.104008e-01 1.357182e-01 1.628923e-01 1.924961e-01 2.225244e-01 2.521376e-01 2.808428e-01 3.021107e-01 3.275990e-01 3.182260e-01 3.835588e-01 2.978187e-01 3.173480e-01 3.397952e-01 2.976130e-01 3.000383e-01 2.251016e-01 1.573533e-01 1.078148e-01 6.177613e-02 3.963740e-02 1.726893e-02 1.623734e-02 1.436531e-02 1.660419e-02 1.826219e-02 1.770984e-02 
1.410137e-02 1.425658e-02 1.743734e-02 1.982008e-02 2.093692e-02 2.314416e-02 1.843716e-02 2.575855e-02 2.990984e-02 6.373479e-02 1.015287e-01 1.625979e-01 2.360367e-01 2.782304e-01 3.772256e-01 3.504057e-01 2.692782e-01 4.120210e-01 3.623388e-01 3.782981e-01 3.426557e-01 3.192534e-01 2.808066e-01 2.471026e-01 2.100152e-01 1.767732e-01 1.449788e-01 1.167920e-01 9.224096e-02 7.095669e-02 5.425182e-02 4.114513e-02 3.498068e-02 3.619791e-02 4.556104e-02 6.070182e-02 7.966039e-02 1.036163e-01 1.294061e-01 1.611557e-01 1.916650e-01 2.298955e-01 2.604575e-01 3.027202e-01 3.228009e-01 3.666409e-01 3.510714e-01 4.046321e-01 3.031339e-01 2.877350e-01 3.535482e-01 2.965536e-01 2.688057e-01 1.722625e-01 1.228361e-01 7.364864e-02 4.198690e-02 2.750264e-02 1.562782e-02 2.024367e-02 1.725381e-02 1.797973e-02 1.561040e-02 1.365182e-02 
7.367876e-03 1.035874e-02 1.562920e-02 2.167567e-02 2.414895e-02 2.929575e-02 2.461907e-02 2.738672e-02 1.548857e-02 3.135662e-02 6.940974e-02 1.075627e-01 2.065429e-01 2.461689e-01 3.849307e-01 3.190303e-01 2.636260e-01 4.147185e-01 3.672058e-01 3.974098e-01 3.507244e-01 3.323470e-01 2.859013e-01 2.529469e-01 2.111615e-01 1.775634e-01 1.430800e-01 1.142459e-01 8.772872e-02 6.502206e-02 4.554895e-02 2.876338e-02 1.836730e-02 2.126134e-02 3.483901e-02 5.409524e-02 7.480522e-02 1.015865e-01 1.281872e-01 1.634327e-01 1.947230e-01 2.384999e-01 2.697831e-01 3.203389e-01 3.398958e-01 3.911526e-01 3.711954e-01 4.043923e-01 3.006195e-01 2.686768e-01 3.569107e-01 2.832494e-01 2.188775e-01 1.314080e-01 9.045040e-02 4.282547e-02 2.277963e-02 1.850603e-02 1.596221e-02 2.287761e-02 1.863953e-02 1.825683e-02 1.250126e-02 8.766566e-03 
8.916790e-04 7.854035e-03 1.412743e-02 2.143141e-02 2.419119e-02 3.015231e-02 2.535065e-02 2.703466e-02 5.989415e-03 2.243816e-03 5.617164e-02 8.169626e-02 1.924088e-01 2.331988e-01 3.887212e-01 3.138264e-01 2.666006e-01 4.183480e-01 3.742603e-01 4.094911e-01 3.582974e-01 3.408303e-01 2.903853e-01 2.568530e-01 2.125635e-01 1.783065e-01 1.423930e-01 1.131321e-01 8.574448e-02 6.258833e-02 4.201875e-02 2.323461e-02 6.247972e-03 1.164170e-02 2.896258e-02 5.001289e-02 7.109684e-02 9.880930e-02 1.254429e-01 1.619785e-01 1.933314e-01 2.391844e-01 2.705673e-01 3.240699e-01 3.436717e-01 3.974424e-01 3.776682e-01 4.058551e-01 3.035016e-01 2.652652e-01 3.661195e-01 2.870362e-01 1.994731e-01 1.178527e-01 7.712632e-02 2.597407e-02 9.697981e-03 1.435748e-02 1.634207e-02 2.406614e-02 1.946379e-02 1.877835e-02 1.164575e-02 6.674857e-03 
7.367876e-03 1.035874e-02 1.562920e-02 2.167567e-02 2.414895e-02 2.929575e-02 2.461907e-02 2.738672e-02 1.548857e-02 3.135662e-02 6.940974e-02 1.075627e-01 2.065429e-01 2.461689e-01 3.849307e-01 3.190303e-01 2.636260e-01 4.147185e-01 3.672058e-01 3.974098e-01 3.507244e-01 3.323470e-01 2.859013e-01 2.529469e-01 2.111615e-01 1.775634e-01 1.430800e-01 1.142459e-01 8.772872e-02 6.502206e-02 4.554895e-02 2.876338e-02 1.836730e-02 2.126134e-02 3.483901e-02 5.409524e-02 7.480522e-02 1.015865e-01 1.281872e-01 1.634327e-01 1.947230e-01 2.384999e-01 2.697831e-01 3.203389e-01 3.398958e-01 3.911526e-01 3.711954e-01 4.043923e-01 3.006195e-01 2.686768e-01 3.569107e-01 2.832494e-01 2.188775e-01 1.314080e-01 9.045040e-02 4.282547e-02 2.277963e-02 1.850603e-02 1.596221e-02 2.287761e-02 1.863953e-02 1.825683e-02 1.250126e-02 8.766566e-03 
1.410137e-02 1.425658e-02 1.743734e-02 1.982008e-02 2.093692e-02 2.314416e-02 1.843716e-02 2.575855e-02 2.990984e-02 6.373479e-02 1.015287e-01 1.625979e-01 2.360367e-01 2.782304e-01 3.772256e-01 3.504057e-01 2.692782e-01 4.120210e-01 3.623388e-01 3.782981e-01 3.426557e-01 3.192534e-01 2.808066e-01 2.471026e-01 2.100152e-01 1.767732e-01 1.449788e-01 1.167920e-01 9.224096e-02 7.095669e-02 5.425182e-02 4.114513e-02 3.498068e-02 3.619791e-02 4.556104e-02 6.070182e-02 7.966039e-02 1.036163e-01 1.294061e-01 1.611557e-01 1.916650e-01 2.298955e-01 2.604575e-01 3.027202e-01 3.228009e-01 3.666409e-01 3.510714e-01 4.046321e-01 3.031339e-01 2.877350e-01 3.535482e-01 2.965536e-01 2.688057e-01 1.722625e-01 1.228361e-01 7.364864e-02 4.198690e-02 2.750264e-02 1.562782e-02 2.024367e-02 1.725381e-02 1.797973e-02 1.561040e-02 1.365182e-02 