# vtk DataFile Version 2.0
Comment goes here
ASCII

DATASET STRUCTURED_POINTS
FIELD FieldData 1
TIME 1 1 double
1.53000000
DIMENSIONS    64   64   1

ORIGIN    0.000   0.000   0.000
SPACING   0.015625 0.015625   1.000

POINT_DATA   4096
SCALARS uMag double
LOOKUP_TABLE default

1.021534e-03 4.022238e-03 7.236399e-03 9.825260e-03 1.230555e-02 1.392852e-02 1.514387e-02 1.532429e-02 1.484987e-02 1.324450e-02 1.082098e-02 7.285232e-03 2.886261e-03 2.455094e-03 8.555575e-03 1.524667e-02 2.242908e-02 2.965959e-02 3.697096e-02 4.363135e-02 4.989164e-02 5.473646e-02 5.874360e-02 6.064300e-02 6.141845e-02 5.961345e-02 5.659892e-02 5.087328e-02 4.405886e-02 3.482466e-02 2.487761e-02 1.328938e-02 1.678984e-03 1.038348e-02 2.162343e-02 3.207162e-02 4.103987e-02 4.832547e-02 5.385808e-02 5.731924e-02 5.906574e-02 5.877104e-02 5.700459e-02 5.353261e-02 4.899293e-02 4.327666e-02 3.701300e-02 3.017201e-02 2.334103e-02 1.648125e-02 1.013794e-02 4.175763e-03 8.798324e-04 5.320925e-03 8.612660e-03 1.122738e-02 1.259932e-02 1.337104e-02 1.294017e-02 1.208526e-02 1.017751e-02 8.083950e-03 5.170105e-03 2.340155e-03 
3.318455e-03 5.051982e-03 7.806937e-03 1.019571e-02 1.257707e-02 1.414371e-02 1.535834e-02 1.556586e-02 1.518164e-02 1.373163e-02 1.160055e-02 8.675932e-03 5.916154e-03 6.043407e-03 1.026037e-02 1.624218e-02 2.302277e-02 2.996761e-02 3.706520e-02 4.351232e-02 4.962609e-02 5.428628e-02 5.819643e-02 5.995032e-02 6.069175e-02 5.883115e-02 5.590559e-02 5.033592e-02 4.388991e-02 3.530307e-02 2.645879e-02 1.726521e-02 1.192036e-02 1.560302e-02 2.399376e-02 3.309210e-02 4.131370e-02 4.811556e-02 5.342636e-02 5.672416e-02 5.847416e-02 5.816848e-02 5.649922e-02 5.310200e-02 4.869667e-02 4.311562e-02 3.701145e-02 3.036427e-02 2.374999e-02 1.721188e-02 1.135976e-02 6.588090e-03 4.959312e-03 7.001548e-03 9.570849e-03 1.184788e-02 1.305971e-02 1.374769e-02 1.328975e-02 1.245605e-02 1.061672e-02 8.663785e-03 6.057524e-03 3.957646e-03 
6.529560e-03 7.590508e-03 9.661525e-03 1.166111e-02 1.381160e-02 1.528861e-02 1.652053e-02 1.686999e-02 1.675591e-02 1.577453e-02 1.435303e-02 1.255884e-02 1.118685e-02 1.139327e-02 1.383321e-02 1.826645e-02 2.379519e-02 2.985790e-02 3.611539e-02 4.196572e-02 4.747787e-02 5.178165e-02 5.538701e-02 5.711110e-02 5.798579e-02 5.656038e-02 5.434434e-02 4.982962e-02 4.477782e-02 3.809016e-02 3.167806e-02 2.591182e-02 2.319915e-02 2.506892e-02 2.998609e-02 3.647398e-02 4.264360e-02 4.795453e-02 5.207284e-02 5.456734e-02 5.577568e-02 5.525339e-02 5.356559e-02 5.040203e-02 4.635384e-02 4.130521e-02 3.581403e-02 2.991169e-02 2.415001e-02 1.866467e-02 1.415560e-02 1.105484e-02 1.009904e-02 1.092275e-02 1.230776e-02 1.378001e-02 1.449510e-02 1.489085e-02 1.428978e-02 1.345405e-02 1.175009e-02 1.009263e-02 8.071564e-03 6.775877e-03 
1.000471e-02 1.068442e-02 1.219038e-02 1.372398e-02 1.556534e-02 1.687484e-02 1.811959e-02 1.862871e-02 1.888158e-02 1.847360e-02 1.786938e-02 1.710341e-02 1.669488e-02 1.721099e-02 1.889934e-02 2.202040e-02 2.606856e-02 3.080103e-02 3.578608e-02 4.054339e-02 4.507553e-02 4.856043e-02 5.157442e-02 5.287659e-02 5.371868e-02 5.249932e-02 5.106540e-02 4.780036e-02 4.475491e-02 4.089598e-02 3.784231e-02 3.557534e-02 3.461861e-02 3.555516e-02 3.745231e-02 4.057800e-02 4.379755e-02 4.686334e-02 4.949647e-02 5.098431e-02 5.178570e-02 5.112003e-02 4.970651e-02 4.700665e-02 4.366661e-02 3.949668e-02 3.500281e-02 3.025963e-02 2.572391e-02 2.159743e-02 1.838623e-02 1.625001e-02 1.537404e-02 1.545735e-02 1.591228e-02 1.656817e-02 1.671410e-02 1.676016e-02 1.600013e-02 1.519922e-02 1.369748e-02 1.241181e-02 1.093209e-02 1.012205e-02 
1.376001e-02 1.427561e-02 1.543414e-02 1.661532e-02 1.818256e-02 1.936144e-02 2.064654e-02 2.139057e-02 2.207994e-02 2.232938e-02 2.253959e-02 2.268280e-02 2.300602e-02 2.382281e-02 2.506563e-02 2.713234e-02 2.953757e-02 3.254047e-02 3.551422e-02 3.853071e-02 4.122474e-02 4.336096e-02 4.520114e-02 4.599016e-02 4.688898e-02 4.649659e-02 4.672317e-02 4.587115e-02 4.569807e-02 4.499303e-02 4.461103e-02 4.443351e-02 4.419723e-02 4.469434e-02 4.477124e-02 4.541391e-02 4.556227e-02 4.572823e-02 4.577650e-02 4.540909e-02 4.513299e-02 4.419421e-02 4.313764e-02 4.141859e-02 3.937244e-02 3.687527e-02 3.412289e-02 3.125041e-02 2.847260e-02 2.593164e-02 2.389471e-02 2.233347e-02 2.135239e-02 2.079638e-02 2.040573e-02 2.023209e-02 1.971479e-02 1.932086e-02 1.832824e-02 1.752607e-02 1.620630e-02 1.525684e-02 1.421235e-02 1.374633e-02 
1.797045e-02 1.832893e-02 1.919695e-02 2.003152e-02 2.132199e-02 2.232149e-02 2.362858e-02 2.456491e-02 2.568739e-02 2.654139e-02 2.752429e-02 2.846742e-02 2.950817e-02 3.073914e-02 3.196779e-02 3.346319e-02 3.473472e-02 3.614418e-02 3.708316e-02 3.791903e-02 3.825384e-02 3.825701e-02 3.822574e-02 3.769378e-02 3.812076e-02 3.798103e-02 3.966487e-02 4.112081e-02 4.422347e-02 4.747597e-02 5.076671e-02 5.351377e-02 5.438289e-02 5.420758e-02 5.174439e-02 4.889084e-02 4.516323e-02 4.196863e-02 3.959081e-02 3.759201e-02 3.682016e-02 3.604973e-02 3.605848e-02 3.590787e-02 3.580947e-02 3.547311e-02 3.481693e-02 3.391195e-02 3.275812e-02 3.142652e-02 3.010489e-02 2.873607e-02 2.751837e-02 2.639668e-02 2.531001e-02 2.444308e-02 2.334742e-02 2.257760e-02 2.139296e-02 2.062811e-02 1.949680e-02 1.885164e-02 1.813907e-02 1.789700e-02 
2.258049e-02 2.287165e-02 2.356402e-02 2.416541e-02 2.524971e-02 2.613482e-02 2.748662e-02 2.865885e-02 3.022052e-02 3.170565e-02 3.344152e-02 3.519800e-02 3.696629e-02 3.875163e-02 4.017669e-02 4.147340e-02 4.192756e-02 4.202433e-02 4.081013e-02 3.909806e-02 3.594590e-02 3.252440e-02 2.864790e-02 2.555183e-02 2.517778e-02 2.680852e-02 3.221876e-02 3.806758e-02 4.464853e-02 5.069307e-02 5.540973e-02 5.903131e-02 5.996132e-02 5.959490e-02 5.612111e-02 5.175242e-02 4.526179e-02 3.866708e-02 3.222776e-02 2.677150e-02 2.422585e-02 2.405596e-02 2.639202e-02 2.974474e-02 3.296087e-02 3.588999e-02 3.779269e-02 3.896053e-02 3.922127e-02 3.872639e-02 3.773950e-02 3.623131e-02 3.457179e-02 3.276320e-02 3.091683e-02 2.931330e-02 2.759330e-02 2.641168e-02 2.499935e-02 2.424666e-02 2.327090e-02 2.288963e-02 2.245921e-02 2.241856e-02 
2.781299e-02 2.800622e-02 2.852568e-02 2.887203e-02 2.973984e-02 3.045146e-02 3.180611e-02 3.312641e-02 3.507689e-02 3.709699e-02 3.954975e-02 4.204890e-02 4.459099e-02 4.697970e-02 4.885879e-02 5.022119e-02 5.041253e-02 4.965732e-02 4.707459e-02 4.328965e-02 3.729351e-02 3.038896e-02 2.174463e-02 1.358501e-02 9.785256e-03 1.435048e-02 2.363037e-02 3.280229e-02 4.212599e-02 5.177445e-02 5.977692e-02 6.613548e-02 6.783082e-02 6.635426e-02 5.964309e-02 5.120585e-02 4.030034e-02 3.035243e-02 2.110925e-02 1.297504e-02 9.602259e-03 1.313347e-02 2.017470e-02 2.755188e-02 3.387969e-02 3.926604e-02 4.308587e-02 4.556391e-02 4.672535e-02 4.660802e-02 4.569612e-02 4.389792e-02 4.177276e-02 3.934144e-02 3.683553e-02 3.463442e-02 3.240203e-02 3.092635e-02 2.935927e-02 2.867291e-02 2.785789e-02 2.771259e-02 2.750696e-02 2.760425e-02 
3.352563e-02 3.367902e-02 3.408933e-02 3.425673e-02 3.495277e-02 3.554022e-02 3.689417e-02 3.837856e-02 4.068617e-02 4.325705e-02 4.641172e-02 4.972865e-02 5.311137e-02 5.632424e-02 5.887999e-02 6.075189e-02 6.110063e-02 6.018198e-02 5.685459e-02 5.192864e-02 4.408380e-02 3.523251e-02 2.427032e-02 1.573081e-02 1.396447e-02 2.281421e-02 3.212629e-02 4.120822e-02 4.726395e-02 5.421526e-02 5.941609e-02 6.409342e-02 6.467874e-02 6.315727e-02 5.658481e-02 4.888719e-02 3.828461e-02 2.989367e-02 2.138728e-02 1.544736e-02 1.289077e-02 1.768781e-02 2.490075e-02 3.361808e-02 4.096546e-02 4.757911e-02 5.218843e-02 5.520459e-02 5.656737e-02 5.628217e-02 5.501422e-02 5.257370e-02 4.974818e-02 4.651048e-02 4.324307e-02 4.037933e-02 3.760846e-02 3.583717e-02 3.412354e-02 3.351678e-02 3.286922e-02 3.296216e-02 3.298463e-02 3.323598e-02 
3.994265e-02 4.001577e-02 4.030032e-02 4.024262e-02 4.073549e-02 4.111519e-02 4.239947e-02 4.392293e-02 4.650549e-02 4.950134e-02 5.331765e-02 5.737623e-02 6.165684e-02 6.570325e-02 6.914444e-02 7.163566e-02 7.256772e-02 7.172426e-02 6.845339e-02 6.305645e-02 5.523869e-02 4.715989e-02 3.942164e-02 3.705356e-02 3.878271e-02 4.585516e-02 5.070772e-02 5.650961e-02 5.780324e-02 6.130320e-02 6.517194e-02 7.011061e-02 6.972209e-02 6.571174e-02 5.484335e-02 4.428390e-02 3.530585e-02 3.532867e-02 3.501796e-02 3.661471e-02 3.612205e-02 3.808718e-02 4.065572e-02 4.610379e-02 5.215425e-02 5.796445e-02 6.262585e-02 6.542320e-02 6.674530e-02 6.604513e-02 6.434682e-02 6.124042e-02 5.773385e-02 5.379032e-02 4.984880e-02 4.648546e-02 4.329361e-02 4.137928e-02 3.960875e-02 3.915596e-02 3.869563e-02 3.901716e-02 3.923908e-02 3.960111e-02 
4.684009e-02 4.687507e-02 4.706866e-02 4.682886e-02 4.712647e-02 4.731441e-02 4.848350e-02 5.002239e-02 5.279754e-02 5.619881e-02 6.062328e-02 6.549122e-02 7.071790e-02 7.584800e-02 8.038864e-02 8.403968e-02 8.599814e-02 8.617934e-02 8.376580e-02 7.944018e-02 7.346683e-02 6.855757e-02 6.694934e-02 6.982855e-02 7.645592e-02 8.752643e-02 9.197505e-02 9.159590e-02 7.855223e-02 6.594934e-02 5.622100e-02 5.299970e-02 4.872498e-02 4.477759e-02 3.677666e-02 3.482917e-02 4.217409e-02 6.035891e-02 7.014637e-02 7.492429e-02 7.216176e-02 6.943210e-02 6.720668e-02 6.781044e-02 7.017559e-02 7.373831e-02 7.677714e-02 7.844025e-02 7.886106e-02 7.714845e-02 7.458341e-02 7.043514e-02 6.603699e-02 6.120012e-02 5.651788e-02 5.261959e-02 4.903843e-02 4.703606e-02 4.528385e-02 4.505233e-02 4.484314e-02 4.543675e-02 4.590129e-02 4.640836e-02 
5.439913e-02 5.435224e-02 5.443125e-02 5.394791e-02 5.400164e-02 5.389010e-02 5.484581e-02 5.623595e-02 5.907992e-02 6.271692e-02 6.767941e-02 7.325524e-02 7.948443e-02 8.570085e-02 9.157801e-02 9.647199e-02 9.992686e-02 1.011833e-01 1.003424e-01 9.706582e-02 9.378487e-02 9.248446e-02 9.596782e-02 1.029316e-01 1.113752e-01 1.208930e-01 1.226356e-01 1.276996e-01 1.196290e-01 1.025736e-01 8.340155e-02 6.945059e-02 5.571075e-02 4.677618e-02 4.397038e-02 5.894166e-02 8.150835e-02 9.784025e-02 9.880973e-02 1.017561e-01 9.989764e-02 9.762239e-02 9.232084e-02 8.909664e-02 8.908363e-02 8.959610e-02 9.130323e-02 9.133033e-02 9.086526e-02 8.801660e-02 8.454128e-02 7.939772e-02 7.409713e-02 6.851690e-02 6.315779e-02 5.893630e-02 5.508489e-02 5.318660e-02 5.155295e-02 5.163697e-02 5.171178e-02 5.258230e-02 5.327852e-02 5.389746e-02 
6.232057e-02 6.222030e-02 6.220036e-02 6.148996e-02 6.127512e-02 6.084497e-02 6.149454e-02 6.265930e-02 6.541793e-02 6.919353e-02 7.455305e-02 8.081637e-02 8.800459e-02 9.548327e-02 1.028086e-01 1.094867e-01 1.147274e-01 1.181622e-01 1.192790e-01 1.186812e-01 1.189998e-01 1.228162e-01 1.350070e-01 1.448462e-01 1.604137e-01 1.848124e-01 1.926423e-01 1.845109e-01 1.461401e-01 1.012670e-01 6.433532e-02 4.170382e-02 2.389080e-02 1.272585e-02 2.488550e-02 5.103325e-02 9.157779e-02 1.354797e-01 1.557882e-01 1.597145e-01 1.458174e-01 1.324829e-01 1.231769e-01 1.151503e-01 1.109585e-01 1.086983e-01 1.076216e-01 1.055663e-01 1.035494e-01 9.905813e-02 9.440893e-02 8.792644e-02 8.164622e-02 7.519010e-02 6.920075e-02 6.470401e-02 6.072338e-02 5.906702e-02 5.771790e-02 5.823802e-02 5.871980e-02 5.993690e-02 6.093785e-02 6.170803e-02 
7.069834e-02 7.050138e-02 7.035993e-02 6.935550e-02 6.881519e-02 6.794259e-02 6.815908e-02 6.889178e-02 7.137663e-02 7.504850e-02 8.065342e-02 8.743703e-02 9.558257e-02 1.043112e-01 1.133238e-01 1.219097e-01 1.295297e-01 1.350454e-01 1.389870e-01 1.399390e-01 1.443690e-01 1.536242e-01 1.723039e-01 1.876471e-01 2.023074e-01 2.033768e-01 1.882617e-01 2.116843e-01 2.369089e-01 2.195288e-01 1.698138e-01 1.053218e-01 3.400128e-02 4.380714e-02 1.138099e-01 1.719231e-01 2.084185e-01 1.904639e-01 1.506857e-01 1.525705e-01 1.625974e-01 1.609943e-01 1.485987e-01 1.362458e-01 1.318272e-01 1.258296e-01 1.232829e-01 1.189225e-01 1.155379e-01 1.094851e-01 1.035159e-01 9.585085e-02 8.847997e-02 8.139527e-02 7.480478e-02 7.033553e-02 6.635203e-02 6.518157e-02 6.422563e-02 6.528947e-02 6.621736e-02 6.779078e-02 6.909517e-02 6.998768e-02 
7.916871e-02 7.888890e-02 7.862973e-02 7.733010e-02 7.642014e-02 7.506260e-02 7.471733e-02 7.489129e-02 7.686896e-02 8.022597e-02 8.580425e-02 9.289083e-02 1.017713e-01 1.116220e-01 1.221340e-01 1.327326e-01 1.423247e-01 1.504662e-01 1.555790e-01 1.587892e-01 1.640691e-01 1.800285e-01 2.108189e-01 2.157027e-01 2.357803e-01 2.915736e-01 3.016819e-01 2.659374e-01 2.203594e-01 1.997851e-01 1.849680e-01 1.697046e-01 1.618567e-01 1.598574e-01 1.651137e-01 1.702095e-01 1.768055e-01 1.941452e-01 2.280688e-01 2.376474e-01 2.011921e-01 1.678990e-01 1.636862e-01 1.519697e-01 1.444702e-01 1.392866e-01 1.350651e-01 1.293995e-01 1.253119e-01 1.176911e-01 1.108136e-01 1.018106e-01 9.360595e-02 8.590903e-02 7.897427e-02 7.472169e-02 7.103611e-02 7.057881e-02 7.028153e-02 7.203700e-02 7.358051e-02 7.557918e-02 7.727627e-02 7.832029e-02 
8.770325e-02 8.730168e-02 8.691374e-02 8.526025e-02 8.393366e-02 8.197179e-02 8.092537e-02 8.030560e-02 8.150494e-02 8.420032e-02 8.942559e-02 9.647859e-02 1.058406e-01 1.166090e-01 1.284730e-01 1.409903e-01 1.526571e-01 1.627858e-01 1.700482e-01 1.717103e-01 1.804934e-01 2.032950e-01 2.418358e-01 2.999407e-01 3.318706e-01 2.703696e-01 1.315741e-01 1.062123e-01 1.670072e-01 1.872712e-01 1.770723e-01 1.433000e-01 1.161854e-01 1.270021e-01 1.657803e-01 1.915103e-01 1.892067e-01 1.495780e-01 8.447405e-02 1.423219e-01 2.337000e-01 2.343493e-01 1.940748e-01 1.582253e-01 1.554786e-01 1.464907e-01 1.420175e-01 1.362502e-01 1.320970e-01 1.239824e-01 1.160511e-01 1.062971e-01 9.709988e-02 8.931124e-02 8.208101e-02 7.852307e-02 7.529650e-02 7.584751e-02 7.631884e-02 7.885989e-02 8.105061e-02 8.346988e-02 8.555895e-02 8.672227e-02 
9.589591e-02 9.537117e-02 9.485428e-02 9.284168e-02 9.105788e-02 8.845503e-02 8.658039e-02 8.503322e-02 8.517267e-02 8.689365e-02 9.134160e-02 9.783359e-02 1.071847e-01 1.180197e-01 1.304782e-01 1.434934e-01 1.554393e-01 1.658948e-01 1.701912e-01 1.701411e-01 1.709750e-01 2.191142e-01 2.765763e-01 2.286524e-01 6.716835e-02 1.835233e-01 2.640273e-01 1.844196e-01 1.042997e-01 1.076983e-01 1.067025e-01 6.547757e-02 3.083956e-02 7.448837e-02 1.241505e-01 1.376357e-01 1.103958e-01 1.261042e-01 2.325549e-01 2.444476e-01 1.082240e-01 9.759372e-02 1.978034e-01 1.648755e-01 1.425782e-01 1.378298e-01 1.357704e-01 1.315172e-01 1.315015e-01 1.238348e-01 1.167973e-01 1.066596e-01 9.737542e-02 8.985090e-02 8.291360e-02 8.044063e-02 7.816658e-02 7.999528e-02 8.157517e-02 8.501300e-02 8.803413e-02 9.090242e-02 9.346712e-02 9.475131e-02 
1.035823e-01 1.029052e-01 1.022765e-01 9.987448e-02 9.763256e-02 9.431512e-02 9.151991e-02 8.884872e-02 8.762095e-02 8.794521e-02 9.102290e-02 9.629038e-02 1.047478e-01 1.147480e-01 1.261627e-01 1.384605e-01 1.478135e-01 1.574050e-01 1.594406e-01 1.538237e-01 1.758946e-01 2.292294e-01 1.012823e-01 1.548922e-01 2.255466e-01 1.252871e-01 1.401461e-01 2.562843e-01 2.624062e-01 2.332552e-01 2.259684e-01 2.293134e-01 2.318324e-01 2.438428e-01 2.597878e-01 2.752553e-01 3.019559e-01 3.286100e-01 2.574977e-01 9.948576e-02 1.702400e-01 2.090810e-01 4.575499e-02 1.270118e-01 1.270542e-01 1.180964e-01 1.120476e-01 1.168794e-01 1.224269e-01 1.183304e-01 1.124072e-01 1.036024e-01 9.442140e-02 8.837844e-02 8.201550e-02 8.138093e-02 8.029332e-02 8.366458e-02 8.642915e-02 9.077049e-02 9.461883e-02 9.788267e-02 1.009110e-01 1.022701e-01 
1.103582e-01 1.095144e-01 1.087793e-01 1.059985e-01 1.032969e-01 9.928278e-02 9.551631e-02 9.168948e-02 8.887330e-02 8.754242e-02 8.869532e-02 9.190045e-02 9.854635e-02 1.055410e-01 1.143091e-01 1.208958e-01 1.246686e-01 1.254344e-01 1.194213e-01 9.619827e-02 1.403892e-01 3.840080e-02 1.928875e-01 1.427100e-01 7.814378e-02 2.148048e-01 2.286788e-01 1.843723e-01 1.684923e-01 1.842416e-01 2.010135e-01 2.152574e-01 2.219434e-01 2.221417e-01 2.167121e-01 1.999361e-01 1.936423e-01 2.034608e-01 2.519853e-01 2.721650e-01 1.920172e-01 5.263660e-02 1.791814e-01 9.062427e-02 3.654892e-02 6.290155e-02 7.211330e-02 8.259285e-02 1.005858e-01 1.009809e-01 9.972210e-02 9.377190e-02 8.664200e-02 8.317078e-02 7.845578e-02 8.023599e-02 8.099463e-02 8.604412e-02 9.032271e-02 9.552999e-02 1.003416e-01 1.039399e-01 1.074761e-01 1.088674e-01 
1.159403e-01 1.149183e-01 1.141451e-01 1.110094e-01 1.079518e-01 1.032732e-01 9.861971e-02 9.362292e-02 8.910324e-02 8.586406e-02 8.435723e-02 8.453039e-02 8.745645e-02 8.901336e-02 9.053158e-02 8.777037e-02 7.477152e-02 7.062315e-02 6.349427e-02 2.632964e-02 2.351596e-02 1.657989e-01 7.083868e-02 9.509513e-02 1.175394e-01 7.556951e-02 1.670819e-02 2.656355e-02 8.658032e-02 1.501931e-01 2.060308e-01 2.455268e-01 2.618356e-01 2.550435e-01 2.253741e-01 1.711170e-01 1.077615e-01 4.132493e-02 1.338499e-02 6.577433e-02 1.319260e-01 1.404375e-01 2.210819e-02 1.112147e-01 1.023193e-01 4.971018e-02 2.983931e-02 5.558117e-02 7.773566e-02 7.472482e-02 7.698376e-02 7.719819e-02 7.373933e-02 7.548783e-02 7.330917e-02 7.833951e-02 8.117330e-02 8.782501e-02 9.355999e-02 9.941789e-02 1.051113e-01 1.088962e-01 1.129017e-01 1.142550e-01 
1.199986e-01 1.187789e-01 1.179915e-01 1.145525e-01 1.112256e-01 1.060118e-01 1.006134e-01 9.467654e-02 8.853882e-02 8.363064e-02 7.900217e-02 7.564847e-02 7.304539e-02 6.547202e-02 5.696984e-02 4.007395e-02 4.091878e-02 9.687371e-02 9.770450e-02 1.757909e-02 9.898688e-02 9.893655e-02 2.969020e-02 2.460347e-02 4.325427e-02 5.870304e-02 3.828897e-02 6.961127e-02 1.276101e-01 1.747718e-01 2.102229e-01 2.311040e-01 2.394335e-01 2.344241e-01 2.171097e-01 1.840715e-01 1.378973e-01 8.173153e-02 3.256552e-02 5.493346e-02 6.145417e-02 3.509848e-02 3.859421e-02 5.259321e-03 5.427724e-02 5.876367e-02 6.836609e-02 1.149853e-01 9.037749e-02 4.631124e-02 4.347660e-02 5.189601e-02 5.573907e-02 6.486070e-02 6.687557e-02 7.527516e-02 8.079010e-02 8.863772e-02 9.597736e-02 1.021586e-01 1.087258e-01 1.125000e-01 1.169288e-01 1.181453e-01 
1.221766e-01 1.207781e-01 1.201198e-01 1.164850e-01 1.131656e-01 1.076071e-01 1.019057e-01 9.533306e-02 8.815147e-02 8.201094e-02 7.442531e-02 6.767694e-02 5.736152e-02 3.757525e-02 1.294954e-02 5.012754e-02 1.305571e-01 1.649966e-01 4.495085e-02 2.443924e-02 1.290297e-01 1.006465e-01 8.971735e-02 1.024687e-01 9.123738e-02 9.670039e-02 1.029802e-01 1.140964e-01 1.331247e-01 1.602497e-01 1.899976e-01 2.121442e-01 2.213365e-01 2.155500e-01 1.956254e-01 1.659560e-01 1.343642e-01 1.148502e-01 1.020645e-01 9.515103e-02 8.776788e-02 8.600733e-02 8.325549e-02 8.382609e-02 9.431168e-02 5.711319e-02 5.248612e-03 1.218666e-01 1.819312e-01 8.745230e-02 2.696011e-02 1.890141e-02 3.586058e-02 5.530348e-02 6.226641e-02 7.314359e-02 8.104663e-02 8.911302e-02 9.771501e-02 1.036571e-01 1.108885e-01 1.143800e-01 1.191461e-01 1.201283e-01 
1.223115e-01 1.207241e-01 1.202532e-01 1.165451e-01 1.134675e-01 1.078390e-01 1.023010e-01 9.562942e-02 8.815324e-02 8.193938e-02 7.218460e-02 6.497725e-02 4.695408e-02 2.770666e-02 3.668028e-02 1.302883e-01 2.227958e-01 8.386826e-02 3.014597e-02 1.321396e-01 1.939402e-01 1.415642e-01 1.257554e-01 1.248345e-01 1.281738e-01 1.264657e-01 1.205026e-01 1.242576e-01 1.378032e-01 1.556944e-01 1.734764e-01 1.851907e-01 1.898965e-01 1.862524e-01 1.747527e-01 1.577932e-01 1.372049e-01 1.238542e-01 1.172714e-01 1.249138e-01 1.306234e-01 1.330057e-01 1.349724e-01 1.595810e-01 1.817931e-01 2.068149e-01 1.783380e-02 2.408648e-02 2.134238e-01 1.822884e-01 7.425483e-02 2.752221e-02 3.012828e-02 4.960332e-02 6.181585e-02 7.236937e-02 8.265097e-02 8.961682e-02 9.919820e-02 1.042210e-01 1.118188e-01 1.146742e-01 1.195657e-01 1.201565e-01 
1.200294e-01 1.183237e-01 1.182687e-01 1.147161e-01 1.123669e-01 1.070376e-01 1.025485e-01 9.626440e-02 9.011234e-02 8.449793e-02 7.576074e-02 7.062336e-02 5.379796e-02 6.266981e-02 7.857566e-02 2.464926e-01 1.832557e-01 7.435001e-02 1.031535e-01 2.747825e-01 2.203322e-01 1.717079e-01 1.576263e-01 1.530244e-01 1.460339e-01 1.419153e-01 1.348145e-01 1.311337e-01 1.306001e-01 1.364184e-01 1.458496e-01 1.543613e-01 1.577560e-01 1.550698e-01 1.460177e-01 1.361753e-01 1.272007e-01 1.277465e-01 1.304871e-01 1.384821e-01 1.428271e-01 1.501435e-01 1.510855e-01 1.603844e-01 1.680423e-01 2.632196e-01 2.014049e-01 6.591767e-02 9.482725e-02 2.731360e-01 1.375791e-01 6.840352e-02 5.081422e-02 5.523969e-02 6.821080e-02 7.437148e-02 8.592282e-02 9.011495e-02 1.000456e-01 1.033701e-01 1.109519e-01 1.128142e-01 1.176578e-01 1.177455e-01 
1.154152e-01 1.136161e-01 1.140886e-01 1.109306e-01 1.097326e-01 1.051218e-01 1.024853e-01 9.709742e-02 9.356500e-02 8.914448e-02 8.340452e-02 8.288688e-02 7.202823e-02 1.032732e-01 1.485481e-01 3.129268e-01 6.339762e-02 3.255680e-02 3.253498e-01 2.789255e-01 2.203939e-01 1.710726e-01 1.631070e-01 1.523707e-01 1.484552e-01 1.392516e-01 1.292341e-01 1.212906e-01 1.175031e-01 1.184577e-01 1.222878e-01 1.258977e-01 1.271591e-01 1.257030e-01 1.208824e-01 1.168487e-01 1.132606e-01 1.173001e-01 1.239777e-01 1.360537e-01 1.449401e-01 1.528100e-01 1.544055e-01 1.634925e-01 1.786855e-01 2.369009e-01 3.377685e-01 8.331342e-02 8.201976e-02 2.462496e-01 2.425845e-01 9.699760e-02 9.055622e-02 6.750999e-02 8.204285e-02 8.018500e-02 9.213887e-02 9.218143e-02 1.014429e-01 1.022898e-01 1.090689e-01 1.094823e-01 1.138002e-01 1.131811e-01 
1.081272e-01 1.063857e-01 1.076818e-01 1.053386e-01 1.059126e-01 1.026172e-01 1.028091e-01 9.868169e-02 9.937092e-02 9.485118e-02 9.642315e-02 9.180389e-02 1.052430e-01 1.113124e-01 2.408133e-01 2.441450e-01 1.321167e-01 1.761850e-01 3.906524e-01 2.253894e-01 2.019866e-01 1.569823e-01 1.528295e-01 1.459552e-01 1.395417e-01 1.312438e-01 1.202617e-01 1.105091e-01 1.019171e-01 9.773848e-02 9.654605e-02 9.753850e-02 9.750125e-02 9.688990e-02 9.432699e-02 9.459654e-02 9.651413e-02 1.048385e-01 1.142441e-01 1.259381e-01 1.346251e-01 1.425701e-01 1.433980e-01 1.518823e-01 1.617829e-01 2.189207e-01 3.411136e-01 3.117253e-01 9.054815e-02 8.935038e-02 3.127386e-01 1.081681e-01 1.217752e-01 7.460685e-02 9.673268e-02 8.588917e-02 9.848753e-02 9.405219e-02 1.019411e-01 9.996494e-02 1.052971e-01 1.039691e-01 1.074051e-01 1.059730e-01 
9.851840e-02 9.694289e-02 9.924613e-02 9.817940e-02 1.010537e-01 9.971565e-02 1.034372e-01 1.008740e-01 1.066692e-01 1.005974e-01 1.115853e-01 9.563231e-02 1.355936e-01 1.099421e-01 3.009335e-01 9.901424e-02 1.109316e-01 3.508616e-01 3.419085e-01 2.007123e-01 1.566417e-01 1.349335e-01 1.270655e-01 1.263431e-01 1.204356e-01 1.128651e-01 1.022434e-01 9.237987e-02 8.363990e-02 7.826970e-02 7.522491e-02 7.431723e-02 7.334422e-02 7.315644e-02 7.227243e-02 7.432802e-02 7.796232e-02 8.628004e-02 9.640640e-02 1.072013e-01 1.166743e-01 1.223963e-01 1.223402e-01 1.283841e-01 1.251429e-01 1.925820e-01 2.515270e-01 4.435476e-01 7.949342e-02 1.170928e-01 3.109590e-01 1.613863e-01 1.404669e-01 9.449093e-02 1.130894e-01 9.728080e-02 1.068285e-01 9.879206e-02 1.032875e-01 9.838720e-02 1.009107e-01 9.747406e-02 9.920732e-02 9.673548e-02 
8.633744e-02 8.518104e-02 8.883754e-02 8.977129e-02 9.543585e-02 9.704763e-02 1.043441e-01 1.045227e-01 1.141689e-01 1.084365e-01 1.236448e-01 1.019795e-01 1.448160e-01 1.317365e-01 2.949257e-01 9.494088e-02 7.022536e-02 4.390797e-01 2.500889e-01 1.624148e-01 9.797192e-02 9.954331e-02 9.498036e-02 1.011019e-01 9.687619e-02 9.238247e-02 8.349427e-02 7.538644e-02 6.667912e-02 6.059152e-02 5.569579e-02 5.350966e-02 5.167516e-02 5.182834e-02 5.219027e-02 5.564824e-02 6.101789e-02 6.879794e-02 7.883344e-02 8.662434e-02 9.620951e-02 9.726836e-02 9.922184e-02 9.136728e-02 8.414306e-02 1.359357e-01 1.555957e-01 4.019685e-01 2.403332e-01 1.690488e-01 2.191167e-01 2.169788e-01 1.380323e-01 1.222904e-01 1.209488e-01 1.102391e-01 1.122960e-01 1.039266e-01 1.033879e-01 9.640715e-02 9.505715e-02 8.944315e-02 8.876433e-02 8.510083e-02 
7.214403e-02 7.169519e-02 7.704445e-02 8.083092e-02 8.955502e-02 9.510524e-02 1.054222e-01 1.097821e-01 1.212132e-01 1.194471e-01 1.329366e-01 1.156691e-01 1.389059e-01 1.628217e-01 2.433372e-01 1.352815e-01 1.583046e-01 3.822599e-01 1.418972e-01 9.755437e-02 3.365475e-02 5.528664e-02 6.494360e-02 7.246407e-02 7.202873e-02 6.868510e-02 6.252674e-02 5.647100e-02 4.999607e-02 4.510049e-02 4.053318e-02 3.795230e-02 3.571761e-02 3.574728e-02 3.647792e-02 3.940870e-02 4.426890e-02 4.942625e-02 5.823258e-02 6.251580e-02 7.228534e-02 6.864702e-02 7.352863e-02 4.933674e-02 4.478800e-02 6.765583e-02 9.675787e-02 3.128580e-01 3.347929e-01 1.471486e-01 1.047541e-01 2.262010e-01 1.273770e-01 1.445023e-01 1.251993e-01 1.244296e-01 1.171835e-01 1.106123e-01 1.037072e-01 9.543410e-02 8.903057e-02 8.117540e-02 7.701688e-02 7.187112e-02 
5.587790e-02 5.654064e-02 6.415287e-02 7.178944e-02 8.360740e-02 9.388813e-02 1.062799e-01 1.162851e-01 1.275522e-01 1.344805e-01 1.426828e-01 1.429540e-01 1.404183e-01 1.899928e-01 1.755018e-01 1.584141e-01 2.130875e-01 2.914912e-01 8.286625e-02 6.080725e-02 1.966854e-02 2.721983e-02 4.709038e-02 4.808129e-02 4.950906e-02 4.648743e-02 4.344756e-02 4.026332e-02 3.635682e-02 3.292936e-02 2.846406e-02 2.539092e-02 2.252863e-02 2.258858e-02 2.419355e-02 2.694977e-02 3.161405e-02 3.414822e-02 4.138254e-02 4.306512e-02 5.336564e-02 5.141513e-02 6.052899e-02 4.475578e-02 4.036442e-02 4.313916e-02 5.489675e-02 2.231449e-01 3.099797e-01 1.229785e-01 5.984218e-02 2.074375e-01 1.221704e-01 1.546608e-01 1.290468e-01 1.362482e-01 1.215802e-01 1.170375e-01 1.040054e-01 9.489948e-02 8.306407e-02 7.291273e-02 6.427131e-02 5.710276e-02 
3.820741e-02 4.084469e-02 5.176538e-02 6.413838e-02 7.877551e-02 9.376131e-02 1.073027e-01 1.230574e-01 1.330650e-01 1.500033e-01 1.518658e-01 1.731574e-01 1.483081e-01 2.130325e-01 1.174594e-01 1.449056e-01 2.234419e-01 1.974467e-01 4.530142e-02 6.627056e-02 5.417471e-02 5.345809e-02 5.140015e-02 4.122963e-02 3.535432e-02 2.849957e-02 2.660456e-02 2.583228e-02 2.516215e-02 2.374169e-02 2.031301e-02 1.704794e-02 1.358714e-02 1.329753e-02 1.527640e-02 1.700539e-02 2.014381e-02 1.944005e-02 2.435240e-02 2.677764e-02 3.811328e-02 4.836306e-02 5.978412e-02 7.346947e-02 6.919509e-02 9.371335e-02 6.548092e-02 1.640746e-01 2.210840e-01 1.103813e-01 4.106537e-02 1.614043e-01 1.187903e-01 1.552068e-01 1.336764e-01 1.439824e-01 1.250004e-01 1.216541e-01 1.038742e-01 9.431201e-02 7.764110e-02 6.548245e-02 5.168727e-02 4.175369e-02 
1.936516e-02 2.572597e-02 4.136905e-02 5.834373e-02 7.501588e-02 9.347291e-02 1.074716e-01 1.273347e-01 1.361203e-01 1.601321e-01 1.577642e-01 1.914551e-01 1.544948e-01 2.073052e-01 6.532840e-02 1.221113e-01 1.803222e-01 1.147275e-01 4.515399e-02 9.712175e-02 7.876959e-02 7.981745e-02 6.079182e-02 4.585007e-02 2.888247e-02 1.626793e-02 1.235530e-02 1.522125e-02 1.785479e-02 1.825789e-02 1.528440e-02 1.143037e-02 6.527156e-03 6.315225e-03 1.031733e-02 1.197759e-02 1.408826e-02 1.031806e-02 1.186851e-02 1.913459e-02 3.079399e-02 5.324267e-02 6.486907e-02 9.414663e-02 8.951077e-02 1.183032e-01 6.993214e-02 1.023477e-01 1.328232e-01 1.268192e-01 4.944210e-02 1.367233e-01 1.356241e-01 1.643151e-01 1.446002e-01 1.522255e-01 1.301207e-01 1.262004e-01 1.051139e-01 9.484785e-02 7.463028e-02 6.074250e-02 4.193663e-02 2.784169e-02 
1.612734e-04 1.815491e-02 3.750355e-02 5.662426e-02 7.409696e-02 9.389085e-02 1.080788e-01 1.295689e-01 1.380433e-01 1.649249e-01 1.615314e-01 1.999178e-01 1.605147e-01 2.052055e-01 4.749814e-02 1.161510e-01 1.682358e-01 5.288178e-02 3.691025e-02 1.014436e-01 8.304797e-02 8.654124e-02 6.356144e-02 4.829275e-02 2.756736e-02 1.206149e-02 1.418361e-03 1.031135e-02 1.508022e-02 1.633162e-02 1.376463e-02 9.659521e-03 3.205568e-03 2.012301e-03 7.877234e-03 9.332240e-03 1.050729e-02 4.011917e-03 1.815429e-03 1.880969e-02 3.084233e-02 5.857964e-02 7.079997e-02 1.058224e-01 1.021511e-01 1.332350e-01 7.890508e-02 7.896213e-02 7.151800e-02 1.223042e-01 3.986878e-02 1.166254e-01 1.382378e-01 1.641003e-01 1.459494e-01 1.527851e-01 1.301280e-01 1.263664e-01 1.043936e-01 9.416136e-02 7.279529e-02 5.842416e-02 3.744437e-02 2.055970e-02 
1.936516e-02 2.572597e-02 4.136905e-02 5.834373e-02 7.501588e-02 9.347291e-02 1.074716e-01 1.273347e-01 1.361203e-01 1.601321e-01 1.577642e-01 1.914551e-01 1.544948e-01 2.073052e-01 6.532840e-02 1.221113e-01 1.803222e-01 1.147275e-01 4.515399e-02 9.712175e-02 7.876959e-02 7.981745e-02 6.079182e-02 4.585007e-02 2.888247e-02 1.626793e-02 1.235530e-02 1.522125e-02 1.785479e-02 1.825789e-02 1.528440e-02 1.143037e-02 6.527156e-03 6.315225e-03 1.031733e-02 1.197759e-02 1.408826e-02 1.031806e-02 1.186851e-02 1.913459e-02 3.079399e-02 5.324267e-02 6.486907e-02 9.414663e-02 8.951077e-02 1.183032e-01 6.993214e-02 1.023477e-01 1.328232e-01 1.268192e-01 4.944210e-02 1.367233e-01 1.356241e-01 1.643151e-01 1.446002e-01 1.522255e-01 1.301207e-01 1.262004e-01 1.051139e-01 9.484785e-02 7.463028e-02 6.074250e-02 4.193663e-02 2.784169e-02 
3.820741e-02 4.084469e-02 5.176538e-02 6.413838e-02 7.877551e-02 9.376131e-02 1.073027e-01 1.230574e-01 1.330650e-01 1.500033e-01 1.518658e-01 1.731574e-01 1.483081e-01 2.130325e-01 1.174594e-01 1.449056e-01 2.234419e-01 1.974467e-01 4.530142e-02 6.627056e-02 5.417471e-02 5.345809e-02 5.140015e-02 4.122963e-02 3.535432e-02 2.849957e-02 2.660456e-02 2.583228e-02 2.516215e-02 2.374169e-02 2.031301e-02 1.704794e-02 1.358714e-02 1.329753e-02 1.527640e-02 1.700539e-02 2.014381e-02 1.944005e-02 2.435240e-02 2.677764e-02 3.811328e-02 4.836306e-02 5.978412e-02 7.346947e-02 6.919509e-02 9.371335e-02 6.548092e-02 1.640746e-01 2.210840e-01 1.103813e-01 4.106537e-02 1.614043e-01 1.187903e-01 1.552068e-01 1.336764e-01 1.439824e-01 1.250004e-01 1.216541e-01 1.038742e-01 9.431201e-02 7.764110e-02 6.548245e-02 5.168727e-02 4.175369e-02 