# vtk DataFile Version 2.0
Comment goes here
ASCII

DATASET STRUCTURED_POINTS
FIELD FieldData 1
TIME 1 1 double
1.89000000
DIMENSIONS    64   64   1

ORIGIN    0.000   0.000   0.000
SPACING   0.015625 0.015625   1.000

POINT_DATA   4096
SCALARS uMag double
LOOKUP_TABLE default

1.742890e-03 1.094607e-03 6.408431e-04 3.285559e-04 1.353376e-03 3.112795e-03 5.152385e-03 8.079010e-03 1.146143e-02 1.578132e-02 2.065729e-02 2.638368e-02 3.266312e-02 3.953895e-02 4.683561e-02 5.429520e-02 6.189848e-02 6.907158e-02 7.597227e-02 8.175617e-02 8.675186e-02 8.996571e-02 9.185507e-02 9.146325e-02 8.930589e-02 8.465917e-02 7.803032e-02 6.904508e-02 5.819141e-02 4.543433e-02 3.133661e-02 1.609417e-02 4.771295e-04 1.529501e-02 3.026013e-02 4.445112e-02 5.687399e-02 6.792408e-02 7.670632e-02 8.383362e-02 8.859543e-02 9.161904e-02 9.246846e-02 9.165519e-02 8.908725e-02 8.510185e-02 7.994493e-02 7.376415e-02 6.705811e-02 5.979098e-02 5.259614e-02 4.527382e-02 3.849044e-02 3.190963e-02 2.616802e-02 2.082055e-02 1.644897e-02 1.252302e-02 9.570362e-03 6.993609e-03 5.280343e-03 3.780554e-03 2.959158e-03 2.127578e-03 
1.651318e-03 1.097254e-03 8.917907e-04 1.076012e-03 1.964559e-03 3.654613e-03 5.692114e-03 8.629279e-03 1.201725e-02 1.635636e-02 2.123076e-02 2.696803e-02 3.323964e-02 4.011199e-02 4.740231e-02 5.484405e-02 6.245423e-02 6.960103e-02 7.653353e-02 8.229436e-02 8.735199e-02 9.056097e-02 9.253612e-02 9.217192e-02 9.011408e-02 8.554687e-02 7.905549e-02 7.026981e-02 5.973810e-02 4.757710e-02 3.462360e-02 2.219449e-02 1.569540e-02 2.202428e-02 3.416906e-02 4.716559e-02 5.898691e-02 6.968692e-02 7.824120e-02 8.521482e-02 8.984686e-02 9.276315e-02 9.351840e-02 9.260418e-02 8.996641e-02 8.588341e-02 8.067653e-02 7.440782e-02 6.766519e-02 6.032376e-02 5.309762e-02 4.571302e-02 3.889589e-02 3.225944e-02 2.647581e-02 2.107326e-02 1.664855e-02 1.266436e-02 9.649138e-03 7.013449e-03 5.239273e-03 3.695020e-03 2.841916e-03 2.008590e-03 
1.961230e-03 1.633818e-03 1.699199e-03 1.942384e-03 2.770505e-03 4.278694e-03 6.273556e-03 9.114481e-03 1.243319e-02 1.666507e-02 2.139549e-02 2.697013e-02 3.300442e-02 3.964337e-02 4.660609e-02 5.374983e-02 6.096891e-02 6.778290e-02 7.431667e-02 7.977011e-02 8.451162e-02 8.753957e-02 8.940991e-02 8.914432e-02 8.736496e-02 8.338625e-02 7.777825e-02 7.033186e-02 6.159656e-02 5.194889e-02 4.246594e-02 3.476292e-02 3.172965e-02 3.481073e-02 4.237323e-02 5.187673e-02 6.121502e-02 7.007903e-02 7.728586e-02 8.334377e-02 8.737284e-02 8.999011e-02 9.064112e-02 8.981043e-02 8.735809e-02 8.355732e-02 7.866716e-02 7.275354e-02 6.635386e-02 5.936079e-02 5.243865e-02 4.534653e-02 3.875624e-02 3.232828e-02 2.667576e-02 2.138709e-02 1.699549e-02 1.303675e-02 9.971705e-03 7.300228e-03 5.436811e-03 3.858474e-03 2.970339e-03 2.205794e-03 
1.872531e-03 1.781806e-03 2.150257e-03 2.678870e-03 3.754028e-03 5.376527e-03 7.500302e-03 1.039531e-02 1.374459e-02 1.796559e-02 2.260611e-02 2.807218e-02 3.388937e-02 4.030496e-02 4.694496e-02 5.375935e-02 6.060555e-02 6.702906e-02 7.322971e-02 7.832256e-02 8.288462e-02 8.572166e-02 8.768201e-02 8.757030e-02 8.626171e-02 8.297674e-02 7.840052e-02 7.245182e-02 6.570106e-02 5.877349e-02 5.255962e-02 4.812456e-02 4.674412e-02 4.858280e-02 5.328390e-02 5.970337e-02 6.650467e-02 7.341342e-02 7.913681e-02 8.415722e-02 8.741007e-02 8.955391e-02 8.991378e-02 8.895094e-02 8.652911e-02 8.279317e-02 7.810903e-02 7.235900e-02 6.622270e-02 5.941998e-02 5.273307e-02 4.580178e-02 3.936340e-02 3.302592e-02 2.741411e-02 2.212448e-02 1.765934e-02 1.361102e-02 1.037932e-02 7.560058e-03 5.487952e-03 3.772072e-03 2.748188e-03 1.999679e-03 
1.938120e-03 2.145776e-03 2.841983e-03 3.600875e-03 4.932054e-03 6.670616e-03 8.966938e-03 1.191100e-02 1.530567e-02 1.947193e-02 2.396206e-02 2.921309e-02 3.463617e-02 4.063821e-02 4.663271e-02 5.283102e-02 5.883012e-02 6.448356e-02 6.976157e-02 7.405989e-02 7.784191e-02 8.011145e-02 8.175500e-02 8.171966e-02 8.099065e-02 7.898310e-02 7.637610e-02 7.331163e-02 7.001363e-02 6.702124e-02 6.455938e-02 6.293921e-02 6.268397e-02 6.344148e-02 6.548919e-02 6.826527e-02 7.136379e-02 7.491672e-02 7.790751e-02 8.101184e-02 8.301616e-02 8.458749e-02 8.481853e-02 8.411424e-02 8.219631e-02 7.911031e-02 7.517429e-02 7.017782e-02 6.478129e-02 5.866307e-02 5.256438e-02 4.615014e-02 4.008143e-02 3.404800e-02 2.857329e-02 2.337265e-02 1.883664e-02 1.469768e-02 1.124128e-02 8.217616e-03 5.844633e-03 3.903472e-03 2.642684e-03 1.873685e-03 
1.436873e-03 2.042700e-03 3.122619e-03 4.180018e-03 5.873571e-03 7.886738e-03 1.050978e-02 1.367403e-02 1.727874e-02 2.154487e-02 2.603770e-02 3.119353e-02 3.634328e-02 4.199617e-02 4.742265e-02 5.299888e-02 5.819852e-02 6.301315e-02 6.743863e-02 7.086170e-02 7.403830e-02 7.573790e-02 7.737035e-02 7.751739e-02 7.759891e-02 7.683679e-02 7.591886e-02 7.514555e-02 7.449946e-02 7.465817e-02 7.520829e-02 7.585912e-02 7.654258e-02 7.649244e-02 7.651063e-02 7.645071e-02 7.674710e-02 7.788347e-02 7.885954e-02 8.048784e-02 8.129866e-02 8.219930e-02 8.206015e-02 8.131022e-02 7.967001e-02 7.693646e-02 7.360652e-02 6.912952e-02 6.437867e-02 5.876274e-02 5.316645e-02 4.711767e-02 4.132608e-02 3.546445e-02 3.003203e-02 2.480830e-02 2.011731e-02 1.580319e-02 1.205789e-02 8.773779e-03 6.036769e-03 3.798086e-03 2.101890e-03 1.097555e-03 
1.454037e-03 2.530305e-03 3.949015e-03 5.280386e-03 7.312798e-03 9.598059e-03 1.258418e-02 1.601073e-02 1.990741e-02 2.433978e-02 2.891141e-02 3.402252e-02 3.888964e-02 4.417116e-02 4.883335e-02 5.361919e-02 5.753258e-02 6.111169e-02 6.385101e-02 6.572159e-02 6.720069e-02 6.748484e-02 6.814323e-02 6.800922e-02 6.885292e-02 7.018048e-02 7.246758e-02 7.608032e-02 7.979998e-02 8.400006e-02 8.763798e-02 9.010186e-02 9.146519e-02 9.057582e-02 8.868581e-02 8.537510e-02 8.174601e-02 7.868344e-02 7.582295e-02 7.466892e-02 7.376890e-02 7.408753e-02 7.413544e-02 7.420770e-02 7.381275e-02 7.245860e-02 7.061541e-02 6.750338e-02 6.398292e-02 5.941577e-02 5.460141e-02 4.918081e-02 4.371921e-02 3.808202e-02 3.261182e-02 2.729269e-02 2.231198e-02 1.769808e-02 1.352963e-02 9.859565e-03 6.659295e-03 4.029252e-03 1.796885e-03 2.026069e-04 
2.258369e-03 3.300032e-03 4.769229e-03 6.225446e-03 8.527051e-03 1.106629e-02 1.445054e-02 1.819270e-02 2.248593e-02 2.718128e-02 3.199605e-02 3.718293e-02 4.197477e-02 4.699793e-02 5.110905e-02 5.516245e-02 5.795878e-02 6.025845e-02 6.142857e-02 6.162111e-02 6.162406e-02 6.050542e-02 6.083090e-02 6.085282e-02 6.308090e-02 6.637963e-02 7.054671e-02 7.624412e-02 8.210231e-02 8.925854e-02 9.608227e-02 1.011085e-01 1.035271e-01 1.014018e-01 9.690215e-02 9.018665e-02 8.377214e-02 7.883429e-02 7.452125e-02 7.217599e-02 6.986322e-02 6.939534e-02 6.901518e-02 6.925122e-02 6.966895e-02 6.922991e-02 6.869249e-02 6.665748e-02 6.425896e-02 6.052598e-02 5.638946e-02 5.142562e-02 4.620595e-02 4.067250e-02 3.511556e-02 2.964186e-02 2.437359e-02 1.946805e-02 1.493474e-02 1.096474e-02 7.439136e-03 4.659922e-03 2.374887e-03 1.579715e-03 
4.163288e-03 5.134030e-03 6.524904e-03 8.025091e-03 1.047197e-02 1.321999e-02 1.698099e-02 2.107995e-02 2.585395e-02 3.094113e-02 3.615988e-02 4.162492e-02 4.652474e-02 5.153160e-02 5.519203e-02 5.871548e-02 6.021947e-02 6.122619e-02 6.006102e-02 5.797962e-02 5.479011e-02 5.065720e-02 4.837991e-02 4.717339e-02 5.052098e-02 5.754878e-02 6.666955e-02 7.809862e-02 8.800038e-02 9.792955e-02 1.066186e-01 1.124935e-01 1.154044e-01 1.125483e-01 1.068144e-01 9.740565e-02 8.751614e-02 7.815562e-02 6.905482e-02 6.291818e-02 5.846496e-02 5.750769e-02 5.791275e-02 6.006623e-02 6.312807e-02 6.529817e-02 6.728056e-02 6.732777e-02 6.649106e-02 6.396084e-02 6.045329e-02 5.592272e-02 5.068544e-02 4.505250e-02 3.910834e-02 3.323328e-02 2.742120e-02 2.201040e-02 1.694383e-02 1.254617e-02 8.675882e-03 5.822513e-03 3.838937e-03 3.562149e-03 
6.894106e-03 7.612005e-03 8.715010e-03 1.002485e-02 1.241622e-02 1.520223e-02 1.924348e-02 2.361187e-02 2.886464e-02 3.431378e-02 4.002272e-02 4.577927e-02 5.097390e-02 5.601061e-02 5.951628e-02 6.256734e-02 6.315684e-02 6.289747e-02 5.976524e-02 5.534610e-02 4.926692e-02 4.204393e-02 3.840384e-02 3.777523e-02 4.485208e-02 5.560864e-02 6.516030e-02 7.572064e-02 8.502084e-02 9.695017e-02 1.101242e-01 1.206759e-01 1.256988e-01 1.202777e-01 1.095277e-01 9.444735e-02 8.206688e-02 7.341963e-02 6.606981e-02 6.066827e-02 5.433478e-02 5.156545e-02 5.057882e-02 5.286868e-02 5.775058e-02 6.187125e-02 6.621636e-02 6.803403e-02 6.866436e-02 6.710890e-02 6.416566e-02 5.992893e-02 5.468002e-02 4.890871e-02 4.265736e-02 3.643305e-02 3.022011e-02 2.444143e-02 1.905591e-02 1.448245e-02 1.061646e-02 8.075307e-03 6.581034e-03 6.495339e-03 
1.020384e-02 1.088971e-02 1.178601e-02 1.292086e-02 1.512184e-02 1.786066e-02 2.206990e-02 2.670340e-02 3.246015e-02 3.839534e-02 4.474734e-02 5.105775e-02 5.680144e-02 6.228603e-02 6.595020e-02 6.912279e-02 6.908196e-02 6.832670e-02 6.326514e-02 5.725717e-02 4.722707e-02 3.578277e-02 2.542397e-02 2.126006e-02 3.217295e-02 5.092849e-02 6.830678e-02 8.527633e-02 9.490664e-02 1.039709e-01 1.152641e-01 1.244799e-01 1.297857e-01 1.243820e-01 1.146720e-01 9.959657e-02 8.759414e-02 7.690272e-02 6.402732e-02 5.231880e-02 4.267338e-02 3.798701e-02 3.704323e-02 4.280889e-02 5.259504e-02 6.094122e-02 6.859790e-02 7.284771e-02 7.471365e-02 7.400245e-02 7.102959e-02 6.668392e-02 6.083236e-02 5.449558e-02 4.747186e-02 4.054943e-02 3.362310e-02 2.724962e-02 2.139580e-02 1.658034e-02 1.274915e-02 1.056599e-02 9.533269e-03 9.750830e-03 
1.427144e-02 1.479048e-02 1.539114e-02 1.619319e-02 1.803319e-02 2.049429e-02 2.467645e-02 2.936814e-02 3.551783e-02 4.178097e-02 4.876186e-02 5.549421e-02 6.189175e-02 6.770183e-02 7.179895e-02 7.496184e-02 7.477794e-02 7.335257e-02 6.701909e-02 5.926959e-02 4.601588e-02 3.076578e-02 1.414160e-02 1.608642e-02 3.825759e-02 6.071874e-02 7.112839e-02 7.911311e-02 8.338471e-02 9.176422e-02 1.108479e-01 1.310391e-01 1.418388e-01 1.306591e-01 1.097163e-01 8.327800e-02 7.064966e-02 6.668381e-02 6.438050e-02 6.102757e-02 5.001255e-02 3.802233e-02 2.905549e-02 3.290402e-02 4.675242e-02 5.894003e-02 7.008515e-02 7.657595e-02 7.973547e-02 7.968975e-02 7.678026e-02 7.227586e-02 6.600962e-02 5.918580e-02 5.164126e-02 4.419064e-02 3.684022e-02 3.012249e-02 2.414031e-02 1.941225e-02 1.594182e-02 1.423086e-02 1.356206e-02 1.388780e-02 
1.884590e-02 1.934857e-02 1.969098e-02 2.019256e-02 2.153949e-02 2.361200e-02 2.754890e-02 3.220868e-02 3.866408e-02 4.531215e-02 5.299433e-02 6.037876e-02 6.763019e-02 7.420953e-02 7.902802e-02 8.290630e-02 8.288630e-02 8.191100e-02 7.459815e-02 6.709104e-02 5.152128e-02 3.712243e-02 1.545934e-02 1.546993e-02 3.693654e-02 7.108094e-02 9.985281e-02 1.188110e-01 1.135286e-01 9.993332e-02 1.032269e-01 1.136458e-01 1.223877e-01 1.147448e-01 1.047760e-01 9.240554e-02 9.966288e-02 1.029975e-01 8.949308e-02 6.819829e-02 5.120347e-02 3.600815e-02 1.589227e-02 2.310017e-02 4.515865e-02 6.328713e-02 7.761904e-02 8.629034e-02 8.958164e-02 8.953221e-02 8.555756e-02 8.020241e-02 7.269616e-02 6.484913e-02 5.625659e-02 4.792962e-02 3.987274e-02 3.266542e-02 2.650178e-02 2.194283e-02 1.895717e-02 1.789154e-02 1.772865e-02 1.838127e-02 
2.397653e-02 2.435093e-02 2.440725e-02 2.451695e-02 2.529506e-02 2.678567e-02 3.025162e-02 3.459764e-02 4.114228e-02 4.791191e-02 5.617169e-02 6.394553e-02 7.204991e-02 7.909543e-02 8.485387e-02 8.905082e-02 8.978080e-02 8.857161e-02 8.117131e-02 7.257541e-02 5.554219e-02 4.269636e-02 2.176680e-02 4.288607e-02 7.480486e-02 1.038909e-01 1.008531e-01 9.771676e-02 1.065056e-01 1.088093e-01 1.172505e-01 1.319787e-01 1.452967e-01 1.352666e-01 1.233391e-01 1.055487e-01 9.523882e-02 8.149004e-02 8.909067e-02 1.029514e-01 9.454079e-02 6.109316e-02 2.390730e-02 5.906503e-03 3.886934e-02 6.438624e-02 8.309256e-02 9.393317e-02 9.765580e-02 9.738130e-02 9.263901e-02 8.644203e-02 7.810600e-02 6.941520e-02 6.020294e-02 5.126253e-02 4.290654e-02 3.552768e-02 2.956417e-02 2.543874e-02 2.307538e-02 2.254485e-02 2.273079e-02 2.352119e-02 
2.952951e-02 2.987997e-02 2.962781e-02 2.934807e-02 2.939331e-02 3.016073e-02 3.282313e-02 3.663947e-02 4.301891e-02 4.983346e-02 5.861314e-02 6.689339e-02 7.593445e-02 8.380857e-02 9.064446e-02 9.583734e-02 9.724882e-02 9.665070e-02 8.800678e-02 7.908272e-02 5.857078e-02 5.218295e-02 3.422728e-02 5.384550e-02 7.765577e-02 1.465841e-01 2.030787e-01 2.222561e-01 1.916714e-01 1.448888e-01 1.110863e-01 6.297024e-02 2.376909e-02 6.760406e-02 1.221600e-01 1.583213e-01 1.922870e-01 2.097804e-01 1.921515e-01 1.412390e-01 9.976226e-02 8.509983e-02 4.395858e-02 1.409961e-02 3.762832e-02 7.298083e-02 9.508190e-02 1.077947e-01 1.099830e-01 1.084750e-01 1.014280e-01 9.359634e-02 8.353987e-02 7.351500e-02 6.323693e-02 5.345871e-02 4.466694e-02 3.717686e-02 3.156723e-02 2.820664e-02 2.675201e-02 2.708680e-02 2.783297e-02 2.898679e-02 
3.524947e-02 3.549108e-02 3.495689e-02 3.425210e-02 3.358852e-02 3.353293e-02 3.521170e-02 3.820631e-02 4.410127e-02 5.063020e-02 5.967046e-02 6.810930e-02 7.790754e-02 8.616768e-02 9.409871e-02 9.970880e-02 1.024931e-01 1.015437e-01 9.345103e-02 8.070989e-02 6.047892e-02 6.511723e-02 6.663618e-02 1.421460e-01 2.290094e-01 2.670842e-01 1.631956e-01 4.086874e-02 5.254516e-02 7.780195e-02 8.097319e-02 5.815195e-02 2.926496e-02 4.195100e-02 6.582424e-02 5.931913e-02 3.494280e-02 3.992314e-02 1.567088e-01 2.499565e-01 2.490389e-01 1.784778e-01 9.056599e-02 5.532070e-02 3.256306e-02 7.716184e-02 1.048583e-01 1.186439e-01 1.196256e-01 1.164531e-01 1.077684e-01 9.845586e-02 8.744014e-02 7.640420e-02 6.567820e-02 5.540779e-02 4.664944e-02 3.937568e-02 3.441912e-02 3.189638e-02 3.126212e-02 3.220881e-02 3.333997e-02 3.467296e-02 
4.124600e-02 4.144414e-02 4.057427e-02 3.942760e-02 3.787896e-02 3.684603e-02 3.712149e-02 3.892623e-02 4.385476e-02 4.980518e-02 5.890592e-02 6.743864e-02 7.803418e-02 8.694267e-02 9.618303e-02 1.030512e-01 1.074565e-01 1.071690e-01 9.705098e-02 7.581864e-02 4.258042e-02 6.901796e-02 1.291038e-01 1.923579e-01 9.883547e-02 8.383802e-02 1.652926e-01 1.138498e-01 5.267454e-02 6.888003e-02 8.621109e-02 1.009082e-01 1.139166e-01 1.089475e-01 9.859072e-02 6.934664e-02 4.945830e-02 1.054250e-01 1.507771e-01 9.658974e-02 9.245661e-02 2.431171e-01 2.038380e-01 1.242078e-01 4.849407e-02 8.500015e-02 1.190445e-01 1.335664e-01 1.306067e-01 1.248576e-01 1.129753e-01 1.016737e-01 8.907768e-02 7.678741e-02 6.544673e-02 5.472139e-02 4.615352e-02 3.952293e-02 3.569661e-02 3.463372e-02 3.523320e-02 3.717841e-02 3.889002e-02 4.058686e-02 
4.684616e-02 4.695231e-02 4.582583e-02 4.425852e-02 4.194287e-02 3.995422e-02 3.876413e-02 3.916486e-02 4.271316e-02 4.776505e-02 5.655349e-02 6.495038e-02 7.601577e-02 8.533127e-02 9.543322e-02 1.032969e-01 1.094630e-01 1.107418e-01 1.034811e-01 7.318300e-02 2.044874e-02 6.337200e-02 8.363670e-02 3.947788e-02 1.171855e-01 5.491445e-03 1.696256e-01 3.185376e-01 3.106444e-01 2.435501e-01 1.569785e-01 8.302335e-02 4.041274e-02 1.093231e-01 1.931173e-01 2.684744e-01 3.484871e-01 3.467251e-01 2.204789e-01 3.496029e-02 1.294611e-01 2.749881e-02 1.519565e-01 2.027103e-01 1.264471e-01 9.005128e-02 1.286405e-01 1.404109e-01 1.346156e-01 1.271285e-01 1.141860e-01 1.018605e-01 8.905054e-02 7.607643e-02 6.484859e-02 5.406276e-02 4.607572e-02 4.034245e-02 3.770921e-02 3.791291e-02 3.946973e-02 4.208813e-02 4.421767e-02 4.611625e-02 
5.252261e-02 5.255849e-02 5.112539e-02 4.912433e-02 4.592235e-02 4.286985e-02 3.982820e-02 3.834714e-02 3.974840e-02 4.329779e-02 5.155792e-02 5.969987e-02 7.185010e-02 8.225172e-02 9.476502e-02 1.056416e-01 1.168428e-01 1.229210e-01 1.233471e-01 7.511812e-02 3.469723e-02 1.853038e-02 4.463299e-02 1.602466e-02 1.538350e-01 3.237752e-01 3.232119e-01 2.557318e-01 1.587779e-01 1.153337e-01 9.083926e-02 7.748645e-02 7.458136e-02 9.039545e-02 1.175854e-01 1.613269e-01 2.111845e-01 3.038645e-01 3.753569e-01 3.950857e-01 1.940245e-01 3.970260e-02 6.908964e-02 6.773202e-02 1.488274e-01 8.588719e-02 1.295982e-01 1.433916e-01 1.325685e-01 1.252045e-01 1.108782e-01 9.779517e-02 8.466635e-02 7.089037e-02 5.992390e-02 4.938175e-02 4.255446e-02 3.869236e-02 3.810043e-02 4.036099e-02 4.327839e-02 4.686626e-02 4.952706e-02 5.172107e-02 
5.712032e-02 5.708809e-02 5.547832e-02 5.313066e-02 4.925032e-02 4.529188e-02 4.052985e-02 3.715384e-02 3.591180e-02 3.778622e-02 4.536485e-02 5.406611e-02 6.798502e-02 8.141155e-02 9.660523e-02 1.118384e-01 1.235091e-01 1.348561e-01 1.508474e-01 4.388914e-02 4.944166e-02 2.038664e-02 6.499268e-02 1.837517e-01 2.329812e-01 1.904123e-01 1.247851e-01 9.323857e-02 3.514876e-02 3.692972e-02 7.562197e-02 9.861006e-02 1.072144e-01 1.067008e-01 9.347532e-02 7.651454e-02 6.387441e-02 1.066978e-01 1.515931e-01 2.482134e-01 3.124999e-01 2.351386e-01 4.817233e-02 4.646533e-02 4.221326e-02 4.444512e-02 9.516315e-02 1.199082e-01 1.155213e-01 1.172790e-01 1.058337e-01 9.352759e-02 8.078010e-02 6.626142e-02 5.557023e-02 4.535143e-02 3.961759e-02 3.766111e-02 3.878911e-02 4.264094e-02 4.654456e-02 5.077208e-02 5.384249e-02 5.621411e-02 
6.157142e-02 6.144053e-02 5.964482e-02 5.696102e-02 5.243346e-02 4.758759e-02 4.101558e-02 3.539930e-02 3.049081e-02 2.963596e-02 3.695349e-02 4.722961e-02 6.613108e-02 8.580280e-02 1.095952e-01 1.369729e-01 1.628372e-01 1.946090e-01 1.192544e-01 4.512333e-02 2.934581e-02 2.274089e-02 1.161956e-01 1.253383e-01 1.290091e-01 1.438899e-01 1.203123e-01 6.748728e-02 1.390923e-02 5.762039e-02 9.529712e-02 1.131728e-01 1.190533e-01 1.146092e-01 9.600010e-02 6.565377e-02 1.875955e-02 6.786190e-02 1.272415e-01 1.729576e-01 1.793875e-01 1.913702e-01 1.734533e-01 5.761518e-02 3.291280e-02 3.849092e-02 1.123239e-01 1.583491e-01 1.247621e-01 1.243582e-01 1.072511e-01 9.075093e-02 7.563267e-02 5.784549e-02 4.674053e-02 3.672963e-02 3.312056e-02 3.474475e-02 3.864151e-02 4.464978e-02 4.974045e-02 5.464709e-02 5.810497e-02 6.060636e-02 
6.423911e-02 6.407848e-02 6.227557e-02 5.942445e-02 5.455331e-02 4.912295e-02 4.117279e-02 3.370605e-02 2.468639e-02 2.094630e-02 2.943426e-02 4.496620e-02 7.163106e-02 1.021033e-01 1.373425e-01 1.784695e-01 2.088623e-01 1.657368e-01 1.868474e-02 7.800730e-02 6.818886e-03 7.945097e-03 7.435105e-02 1.238602e-01 1.394720e-01 1.254019e-01 1.042373e-01 8.452268e-02 6.003239e-02 5.957955e-02 8.085140e-02 9.739120e-02 1.038474e-01 9.666401e-02 7.606421e-02 4.884327e-02 4.166465e-02 6.844863e-02 1.005963e-01 1.334766e-01 1.557801e-01 1.415935e-01 1.050379e-01 5.126880e-02 1.661459e-02 1.103214e-01 3.013849e-02 1.549865e-01 1.634430e-01 1.615439e-01 1.302267e-01 1.025861e-01 7.989558e-02 5.577231e-02 4.141626e-02 3.002451e-02 2.729591e-02 3.212929e-02 3.806835e-02 4.555454e-02 5.148018e-02 5.678399e-02 6.056477e-02 6.314095e-02 
6.655403e-02 6.628008e-02 6.453329e-02 6.156168e-02 5.661155e-02 5.078378e-02 4.199785e-02 3.297046e-02 1.969846e-02 1.040095e-02 2.343176e-02 4.498051e-02 8.008421e-02 1.171945e-01 1.586559e-01 2.068485e-01 2.189823e-01 7.479309e-02 1.003197e-01 2.284765e-02 5.749325e-02 3.335685e-02 8.428117e-02 1.183942e-01 1.301752e-01 1.299917e-01 1.079248e-01 8.345252e-02 6.228673e-02 6.355298e-02 7.875661e-02 8.992396e-02 9.435107e-02 8.862347e-02 7.447213e-02 5.615880e-02 5.416603e-02 7.772492e-02 1.107904e-01 1.399572e-01 1.470790e-01 1.414714e-01 1.174590e-01 6.381491e-02 7.095035e-02 2.177595e-02 1.296044e-01 6.470333e-02 1.874401e-01 1.869785e-01 1.569936e-01 1.153274e-01 8.695681e-02 5.304778e-02 3.408627e-02 1.932292e-02 1.966012e-02 2.987318e-02 3.846844e-02 4.713428e-02 5.372243e-02 5.907081e-02 6.298097e-02 6.541157e-02 
6.648065e-02 6.624239e-02 6.477627e-02 6.195662e-02 5.734024e-02 5.156514e-02 4.277565e-02 3.315571e-02 1.787561e-02 2.410469e-03 2.411033e-02 4.994257e-02 9.123122e-02 1.348941e-01 1.773186e-01 2.701236e-01 1.953851e-01 9.620629e-02 9.120533e-02 1.075067e-01 1.006905e-01 6.356147e-02 8.947680e-02 1.217900e-01 1.311936e-01 1.272080e-01 1.112585e-01 9.383571e-02 7.289666e-02 6.115845e-02 6.076939e-02 6.475445e-02 6.729131e-02 6.342145e-02 5.783754e-02 5.701812e-02 7.183640e-02 9.441429e-02 1.175937e-01 1.381683e-01 1.458458e-01 1.431425e-01 1.101873e-01 7.793920e-02 5.988975e-02 1.284783e-01 8.416774e-02 1.348173e-01 1.367844e-01 2.406965e-01 1.774740e-01 1.283552e-01 9.747442e-02 5.665728e-02 3.343077e-02 1.203747e-02 1.311901e-02 2.732921e-02 3.765362e-02 4.669444e-02 5.369836e-02 5.887890e-02 6.289530e-02 6.519453e-02 
6.589169e-02 6.557988e-02 6.454514e-02 6.198017e-02 5.820986e-02 5.279710e-02 4.518598e-02 3.574382e-02 2.272160e-02 1.284842e-02 3.161150e-02 5.851866e-02 1.093117e-01 1.545853e-01 2.155642e-01 2.923116e-01 2.052643e-02 1.732026e-01 1.175314e-01 1.913867e-01 9.530529e-02 7.630377e-02 9.854376e-02 1.192870e-01 1.241352e-01 1.202894e-01 1.027306e-01 8.422117e-02 6.284211e-02 5.078510e-02 4.806468e-02 5.022333e-02 5.232942e-02 5.006291e-02 4.845125e-02 5.169479e-02 6.748505e-02 9.020127e-02 1.133735e-01 1.334347e-01 1.411769e-01 1.379842e-01 1.187232e-01 8.838317e-02 7.484330e-02 1.810851e-01 1.520126e-01 1.585248e-01 3.409578e-02 2.559260e-01 2.057488e-01 1.414669e-01 1.084090e-01 5.870177e-02 3.249763e-02 4.090034e-03 1.430063e-02 2.877136e-02 4.000254e-02 4.796843e-02 5.476802e-02 5.904337e-02 6.278720e-02 6.458758e-02 
6.253492e-02 6.238558e-02 6.204556e-02 6.014658e-02 5.771324e-02 5.326074e-02 4.773688e-02 3.931894e-02 3.062100e-02 2.283354e-02 4.283340e-02 6.522187e-02 1.306695e-01 1.558047e-01 2.697306e-01 2.358887e-01 1.558009e-01 6.499400e-02 2.659585e-01 1.301320e-01 7.267322e-02 7.283436e-02 9.816428e-02 1.159600e-01 1.177313e-01 1.126134e-01 9.708303e-02 8.096774e-02 6.045697e-02 4.478116e-02 3.300901e-02 2.869776e-02 2.900953e-02 3.025179e-02 3.711198e-02 4.941224e-02 6.822002e-02 8.949599e-02 1.091301e-01 1.267432e-01 1.348158e-01 1.354205e-01 1.191459e-01 9.024357e-02 7.264321e-02 1.059862e-01 2.788301e-01 7.013699e-02 1.996694e-01 1.868366e-01 2.698467e-01 1.480173e-01 1.277477e-01 6.586032e-02 3.985009e-02 1.197783e-02 1.929140e-02 2.930681e-02 4.056364e-02 4.679592e-02 5.314031e-02 5.636249e-02 5.976091e-02 6.112659e-02 
5.855608e-02 5.851367e-02 5.909709e-02 5.808941e-02 5.760049e-02 5.451622e-02 5.215474e-02 4.504193e-02 4.136902e-02 3.250314e-02 5.081721e-02 6.789248e-02 1.356130e-01 1.520687e-01 2.862333e-01 1.068559e-01 2.080139e-01 1.682701e-01 2.521196e-01 6.811559e-02 2.905275e-02 6.753802e-02 9.046105e-02 1.073646e-01 1.053942e-01 9.944880e-02 8.331750e-02 6.756694e-02 4.785107e-02 3.308902e-02 2.095536e-02 1.679984e-02 1.789695e-02 2.031468e-02 2.789680e-02 3.981826e-02 5.663548e-02 7.613997e-02 9.407539e-02 1.106799e-01 1.181596e-01 1.201426e-01 1.028241e-01 7.985352e-02 2.280739e-02 4.843995e-02 2.396895e-01 2.250772e-01 2.036200e-01 6.064541e-02 2.763044e-01 1.454260e-01 1.253645e-01 6.412396e-02 4.139758e-02 2.045692e-02 3.087198e-02 3.532188e-02 4.492320e-02 4.795877e-02 5.281948e-02 5.416281e-02 5.666148e-02 5.719127e-02 
5.177587e-02 5.216613e-02 5.397315e-02 5.447450e-02 5.633315e-02 5.546198e-02 5.645828e-02 5.169015e-02 5.201551e-02 4.337522e-02 5.827540e-02 7.411826e-02 1.330603e-01 1.739623e-01 2.730969e-01 6.351530e-02 1.339079e-01 2.876835e-01 2.071183e-01 3.297517e-02 2.599638e-02 7.381256e-02 9.057115e-02 1.015419e-01 9.687386e-02 8.917934e-02 7.423306e-02 6.012053e-02 4.291727e-02 2.932504e-02 1.527085e-02 5.769872e-03 5.406484e-03 1.333564e-02 2.416853e-02 3.686368e-02 5.187335e-02 6.881379e-02 8.477013e-02 1.003045e-01 1.100766e-01 1.148485e-01 1.067007e-01 8.708877e-02 4.489996e-02 2.454268e-02 1.876923e-01 3.147429e-01 9.636870e-02 1.058905e-01 2.686603e-01 1.918560e-01 1.190227e-01 7.546340e-02 4.872972e-02 3.366682e-02 4.118471e-02 4.107938e-02 4.769363e-02 4.755652e-02 5.018755e-02 4.952926e-02 5.074775e-02 5.046228e-02 
4.436207e-02 4.533523e-02 4.867005e-02 5.110218e-02 5.554125e-02 5.736711e-02 6.141826e-02 5.961921e-02 6.223615e-02 5.450990e-02 6.138544e-02 7.486354e-02 1.070471e-01 1.987304e-01 2.228220e-01 1.349111e-01 5.995438e-02 2.848958e-01 1.577838e-01 5.748872e-02 8.996741e-02 9.441340e-02 1.058237e-01 1.017779e-01 9.344896e-02 8.051797e-02 6.506759e-02 5.011292e-02 3.458233e-02 2.237783e-02 1.093855e-02 4.144410e-03 4.903429e-03 1.004047e-02 1.758762e-02 2.749926e-02 3.994965e-02 5.498447e-02 7.056266e-02 8.617053e-02 9.999443e-02 1.080420e-01 1.134916e-01 1.005025e-01 9.879582e-02 7.119663e-02 1.438359e-01 2.822447e-01 8.945172e-02 1.804085e-01 2.107824e-01 2.051609e-01 8.365090e-02 7.319353e-02 4.887740e-02 4.527189e-02 5.067658e-02 4.913269e-02 5.164011e-02 4.877154e-02 4.822631e-02 4.527805e-02 4.458339e-02 4.321172e-02 
3.456829e-02 3.659320e-02 4.185888e-02 4.697091e-02 5.395984e-02 5.924532e-02 6.560573e-02 6.832754e-02 7.180415e-02 6.930000e-02 6.741826e-02 7.560182e-02 7.115689e-02 1.909056e-01 1.834266e-01 1.620711e-01 9.515757e-02 2.386449e-01 1.445840e-01 1.142887e-01 1.333315e-01 1.217780e-01 1.226361e-01 1.068637e-01 9.410915e-02 7.620692e-02 6.057114e-02 4.510272e-02 3.197715e-02 2.137415e-02 1.322063e-02 8.791360e-03 8.480501e-03 1.115510e-02 1.639801e-02 2.409722e-02 3.439309e-02 4.774593e-02 6.331139e-02 8.017469e-02 9.853156e-02 1.127604e-01 1.285716e-01 1.286709e-01 1.366214e-01 1.189113e-01 1.285914e-01 2.502565e-01 1.460112e-01 1.790057e-01 1.543532e-01 1.882088e-01 6.833428e-02 8.211468e-02 5.806559e-02 6.294111e-02 6.038344e-02 5.884010e-02 5.530371e-02 5.050423e-02 4.560515e-02 4.028221e-02 3.662776e-02 3.383766e-02 
2.440647e-02 2.825866e-02 3.597583e-02 4.399582e-02 5.309763e-02 6.159412e-02 6.934999e-02 7.660300e-02 7.999922e-02 8.467546e-02 7.688816e-02 8.623080e-02 5.320279e-02 1.502632e-01 1.456048e-01 1.428288e-01 1.062281e-01 2.129022e-01 1.530113e-01 1.680868e-01 1.699757e-01 1.559038e-01 1.434988e-01 1.202876e-01 1.011599e-01 7.845869e-02 6.072797e-02 4.321959e-02 3.059168e-02 1.976063e-02 1.317697e-02 8.604285e-03 7.288805e-03 7.492347e-03 1.061021e-02 1.743133e-02 2.749761e-02 4.174649e-02 5.927642e-02 7.991755e-02 1.032248e-01 1.265291e-01 1.502273e-01 1.687594e-01 1.815623e-01 1.903578e-01 1.681449e-01 2.301299e-01 1.349960e-01 1.362564e-01 1.363177e-01 1.344934e-01 4.181271e-02 7.570365e-02 5.808412e-02 7.157851e-02 6.449811e-02 6.461027e-02 5.661347e-02 5.115402e-02 4.255155e-02 3.540990e-02 2.846813e-02 2.400423e-02 
1.295671e-02 2.002315e-02 3.058961e-02 4.133406e-02 5.191634e-02 6.295232e-02 7.141117e-02 8.225747e-02 8.522911e-02 9.590593e-02 8.428461e-02 9.788051e-02 4.704892e-02 1.009233e-01 1.230198e-01 9.437016e-02 6.209320e-02 1.971418e-01 1.680336e-01 2.055871e-01 1.904944e-01 1.775353e-01 1.544385e-01 1.280921e-01 1.041596e-01 7.904859e-02 5.997653e-02 4.160404e-02 2.960788e-02 1.891910e-02 1.335409e-02 8.481260e-03 6.659931e-03 5.033139e-03 6.644382e-03 1.282702e-02 2.237742e-02 3.688984e-02 5.480570e-02 7.756995e-02 1.023547e-01 1.310325e-01 1.561270e-01 1.851193e-01 1.942859e-01 2.174678e-01 1.729825e-01 2.100461e-01 7.220262e-02 8.329965e-02 1.220887e-01 8.281941e-02 2.898436e-02 8.269324e-02 6.640598e-02 8.369579e-02 7.122597e-02 7.195782e-02 5.978078e-02 5.368352e-02 4.168195e-02 3.284860e-02 2.179343e-02 1.395274e-02 
5.461159e-03 1.695152e-02 2.908603e-02 4.086429e-02 5.192835e-02 6.380329e-02 7.246125e-02 8.459540e-02 8.739970e-02 1.004842e-01 8.760022e-02 1.038189e-01 4.715945e-02 7.394948e-02 1.114628e-01 6.332911e-02 2.464248e-02 1.839099e-01 1.706091e-01 2.174003e-01 1.983145e-01 1.869379e-01 1.606128e-01 1.336967e-01 1.079872e-01 8.209775e-02 6.216949e-02 4.320906e-02 3.084664e-02 1.965008e-02 1.372048e-02 7.954772e-03 5.004939e-03 3.682039e-04 4.269349e-03 1.258013e-02 2.322669e-02 3.893870e-02 5.796572e-02 8.250656e-02 1.088328e-01 1.406059e-01 1.674548e-01 2.013698e-01 2.106839e-01 2.385807e-01 1.866367e-01 2.050799e-01 4.472951e-03 6.076578e-02 1.244922e-01 4.532691e-02 1.877830e-02 8.039289e-02 6.410596e-02 8.358409e-02 6.988884e-02 7.153634e-02 5.845776e-02 5.260823e-02 3.976661e-02 3.060565e-02 1.786443e-02 7.123012e-03 
1.295671e-02 2.002315e-02 3.058961e-02 4.133406e-02 5.191634e-02 6.295232e-02 7.141117e-02 8.225747e-02 8.522911e-02 9.590593e-02 8.428461e-02 9.788051e-02 4.704892e-02 1.009233e-01 1.230198e-01 9.437016e-02 6.209320e-02 1.971418e-01 1.680336e-01 2.055871e-01 1.904944e-01 1.775353e-01 1.544385e-01 1.280921e-01 1.041596e-01 7.904859e-02 5.997653e-02 4.160404e-02 2.960788e-02 1.891910e-02 1.335409e-02 8.481260e-03 6.659931e-03 5.033139e-03 6.644382e-03 1.282702e-02 2.237742e-02 3.688984e-02 5.480570e-02 7.756995e-02 1.023547e-01 1.310325e-01 1.561270e-01 1.851193e-01 1.942859e-01 2.174678e-01 1.729825e-01 2.100461e-01 7.220262e-02 8.329965e-02 1.220887e-01 8.281941e-02 2.898436e-02 8.269324e-02 6.640598e-02 8.369579e-02 7.122597e-02 7.195782e-02 5.978078e-02 5.368352e-02 4.168195e-02 3.284860e-02 2.179343e-02 1.395274e-02 
2.440647e-02 2.825866e-02 3.597583e-02 4.399582e-02 5.309763e-02 6.159412e-02 6.934999e-02 7.660300e-02 7.999922e-02 8.467546e-02 7.688816e-02 8.623080e-02 5.320279e-02 1.502632e-01 1.456048e-01 1.428288e-01 1.062281e-01 2.129022e-01 1.530113e-01 1.680868e-01 1.699757e-01 1.559038e-01 1.434988e-01 1.202876e-01 1.011599e-01 7.845869e-02 6.072797e-02 4.321959e-02 3.059168e-02 1.976063e-02 1.317697e-02 8.604285e-03 7.288805e-03 7.492347e-03 1.061021e-02 1.743133e-02 2.749761e-02 4.174649e-02 5.927642e-02 7.991755e-02 1.032248e-01 1.265291e-01 1.502273e-01 1.687594e-01 1.815623e-01 1.903578e-01 1.681449e-01 2.301299e-01 1.349960e-01 1.362564e-01 1.363177e-01 1.344934e-01 4.181271e-02 7.570365e-02 5.808412e-02 7.157851e-02 6.449811e-02 6.461027e-02 5.661347e-02 5.115402e-02 4.255155e-02 3.540990e-02 2.846813e-02 2.400423e-02 