# vtk DataFile Version 2.0
Comment goes here
ASCII

DATASET STRUCTURED_POINTS
DIMENSIONS    128   128   1

ORIGIN    0.000   0.000   0.000
SPACING   0.0156250.015625   1.000

POINT_DATA   16384
SCALARS Concentration double
LOOKUP_TABLE default

3.279143e-37 1.331534e-36 1.999126e-36 5.561371e-36 4.388762e-36 7.063643e-36 2.976527e-36 2.288594e-36 5.794077e-37 2.132436e-37 3.574795e-38 7.509301e-39 8.815742e-40 1.197305e-40 1.042995e-41 1.136267e-42 1.778840e-43 1.241033e-42 1.139909e-41 1.107068e-40 6.856790e-40 4.530430e-39 1.312394e-38 -7.864390e-38 -5.564225e-36 -1.662902e-34 -4.594324e-33 -8.999876e-32 -1.220957e-30 6.739983e-30 1.106773e-27 3.937393e-26 1.146549e-24 2.300943e-23 4.420251e-22 6.046124e-21 7.835120e-20 6.700920e-19 4.551245e-18 8.756189e-18 -1.681118e-16 -1.713528e-15 -5.422318e-15 8.407429e-14 1.512079e-12 1.004903e-11 6.566220e-11 2.034108e-10 7.878173e-10 1.200385e-09 2.656651e-09 2.294367e-09 3.714750e-09 -3.567457e-08 1.257023e-07 -6.855807e-07 2.883759e-06 -1.201274e-05 3.723349e-05 -6.814689e-05 1.192194e-04 -1.485468e-04 1.531797e-04 -3.545098e-05 -3.016493e-05 2.382779e-06 -1.619678e-07 7.391768e-08 -6.803342e-08 2.215213e-08 -1.915256e-10 -3.559104e-09 1.461856e-09 -4.201937e-10 4.395178e-11 -2.302738e-11 -6.849458e-12 -3.558918e-11 -3.837476e-11 -1.778895e-11 -1.240295e-11 -3.563561e-12 -1.325188e-12 -2.472283e-13 -5.050225e-14 -5.501542e-15 -5.461269e-16 -2.286165e-17 2.659294e-19 6.055760e-20 -1.388303e-20 -3.941522e-21 -5.845795e-22 -5.156966e-23 -4.064243e-24 -2.187877e-25 -1.074181e-26 -3.286731e-28 -5.301176e-30 2.946957e-31 3.269023e-32 1.751271e-33 7.897139e-35 2.618771e-36 8.226253e-38 1.993693e-39 4.676862e-41 8.552664e-43 1.505033e-44 2.026482e-46 2.473649e-48 1.933809e-50 1.168177e-52 2.034466e-51 3.796478e-50 7.488745e-49 1.105022e-47 1.761395e-46 2.053957e-45 2.665037e-44 2.448036e-43 2.596125e-42 1.856147e-41 1.603892e-40 8.681617e-40 6.031591e-39 2.347502e-38 1.276367e-37 
2.911123e-38 1.207535e-37 1.771465e-37 5.115631e-37 3.951732e-37 6.689916e-37 2.796160e-37 2.266202e-37 5.829139e-38 2.263035e-38 3.945477e-39 8.822342e-40 1.103426e-40 1.621727e-41 1.539520e-42 1.786058e-43 2.275510e-44 1.174325e-43 1.085442e-42 1.129642e-41 7.111203e-41 5.050329e-40 1.218999e-39 -2.053137e-38 -1.227333e-36 -3.836287e-35 -1.131716e-33 -2.085855e-32 -1.039317e-31 1.385172e-29 8.915103e-28 2.985125e-26 9.082508e-25 1.895745e-23 3.762358e-22 5.001546e-21 5.646067e-20 2.918250e-19 -1.971202e-18 -5.887985e-17 -7.416178e-16 -2.889332e-15 2.659296e-14 5.538686e-13 6.528779e-12 3.710773e-11 2.249102e-10 6.787681e-10 2.589024e-09 4.112317e-09 9.488194e-09 9.980363e-09 -5.787661e-09 3.552423e-08 -4.674623e-08 1.833202e-07 -2.065126e-06 9.765474e-06 -5.111309e-05 8.335645e-05 -1.393129e-04 1.671200e-04 -1.725966e-04 2.589034e-05 2.862771e-05 1.265618e-06 -4.460106e-07 -1.837135e-07 2.228648e-07 -8.907420e-08 2.125014e-08 1.933236e-09 -9.857422e-10 -6.898718e-12 2.342913e-10 -4.557658e-11 -4.950259e-11 -1.145877e-10 -1.277520e-10 -5.575839e-11 -3.637744e-11 -1.035809e-11 -3.846802e-12 -7.440299e-13 -1.619109e-13 -1.942166e-14 -2.291144e-15 -1.382311e-16 -4.746022e-18 2.594168e-19 4.154728e-20 8.503731e-22 -2.259322e-22 -3.263849e-23 -2.962347e-24 -1.651751e-25 -8.259031e-27 -2.657532e-28 -6.809733e-30 -2.087200e-32 7.233872e-33 4.420140e-34 1.960782e-35 5.854431e-37 1.708238e-38 3.444832e-40 7.404579e-42 9.843712e-44 1.498428e-45 8.595108e-48 2.267616e-51 -2.908926e-51 -5.503318e-53 3.487229e-52 5.853297e-51 1.050067e-49 1.430680e-48 2.131197e-47 2.342600e-46 2.900168e-45 2.547328e-44 2.619611e-43 1.808180e-42 1.535574e-41 8.074591e-41 5.580991e-40 2.118014e-39 1.159994e-38 
2.513767e-39 1.062569e-38 1.526739e-38 4.567797e-38 3.462712e-38 6.153464e-38 2.559313e-38 2.180248e-38 5.720433e-39 2.334298e-39 4.251185e-40 1.007368e-40 1.348184e-41 2.130396e-42 2.214852e-43 2.738559e-44 3.124809e-45 1.050438e-44 9.618526e-44 1.071952e-42 6.826997e-42 3.851275e-41 -4.612669e-41 -2.301316e-38 -3.269794e-37 -2.173590e-35 -2.749961e-34 -9.618701e-33 -4.006664e-32 2.729362e-30 2.531975e-28 9.716777e-27 3.240788e-25 7.357175e-24 1.394605e-22 1.430907e-21 -3.807042e-21 -4.923447e-19 -1.230092e-17 -1.420691e-16 -9.718501e-16 4.111838e-15 1.894730e-13 2.227092e-12 2.144148e-11 1.179205e-10 6.543850e-10 2.068137e-09 7.221521e-09 1.252159e-08 2.476328e-08 1.700584e-08 1.038903e-09 -3.650851e-09 -1.036847e-07 -1.323709e-06 7.476751e-06 -3.073524e-05 6.576547e-05 -7.656009e-05 9.222692e-05 -9.894119e-05 8.207747e-05 3.758496e-05 -1.249645e-05 -5.714455e-06 -1.737165e-07 8.254196e-07 -5.298938e-07 2.338551e-07 -8.662978e-08 2.049781e-08 1.414876e-09 2.060202e-09 -2.284315e-09 2.665857e-10 -4.012062e-11 -2.534689e-10 -3.280699e-10 -1.617094e-10 -9.384583e-11 -2.829240e-11 -9.743301e-12 -1.996720e-12 -4.281942e-13 -5.602964e-14 -6.988079e-15 -5.128163e-16 -2.977873e-17 -4.896377e-19 6.191907e-20 5.930913e-21 2.821915e-22 7.246477e-25 -6.939469e-25 -5.264976e-26 -2.651193e-27 -8.197324e-29 -1.927091e-30 4.946032e-33 1.752822e-33 1.794674e-34 4.600757e-36 4.017871e-37 4.852621e-39 5.507241e-40 3.841415e-42 4.285716e-43 2.617532e-45 1.717322e-46 1.213265e-48 3.392185e-50 2.935118e-52 6.190719e-53 8.867328e-52 1.437969e-50 1.822021e-49 2.520082e-48 2.623245e-47 3.079729e-46 2.595429e-45 2.574149e-44 1.720316e-43 1.429116e-42 7.319659e-42 5.013567e-41 1.859990e-40 1.022905e-39 
2.091934e-40 9.037781e-40 1.268451e-39 3.945348e-39 2.927241e-39 5.481100e-39 2.262603e-39 2.033689e-39 5.425997e-40 2.337090e-40 4.425641e-41 1.116589e-41 1.586979e-42 2.708767e-43 3.048560e-44 4.066910e-45 4.470605e-46 1.113889e-45 5.849416e-45 3.042449e-43 -7.491443e-43 1.622087e-40 -1.375123e-39 2.176781e-37 -1.659433e-36 1.632048e-34 -6.803842e-34 5.380869e-32 -8.211052e-32 9.141140e-30 4.977766e-29 2.645740e-27 6.876281e-26 1.335579e-24 3.783537e-24 -8.225833e-22 -4.114412e-20 -9.192227e-19 -1.607512e-17 -1.327323e-16 7.778043e-17 2.313292e-14 4.647333e-13 4.569851e-12 4.076960e-11 2.167700e-10 1.177183e-09 3.713583e-09 1.277929e-08 2.194920e-08 3.890284e-08 1.462492e-08 -6.757837e-08 -2.415090e-07 4.946679e-07 5.350797e-07 3.741051e-06 2.208629e-05 -2.033051e-05 -1.839233e-05 4.840447e-05 -8.492354e-05 1.726879e-04 -2.061105e-04 -1.874357e-05 7.624191e-06 3.063375e-06 -1.585501e-06 5.704098e-07 -1.329943e-07 6.580350e-08 1.514091e-08 -8.036947e-09 -7.557225e-09 4.723754e-09 -2.115534e-09 4.584666e-10 -2.981557e-10 -5.333376e-10 -2.805936e-10 -1.598661e-10 -4.737986e-11 -1.581008e-11 -3.222637e-12 -6.932375e-13 -9.358080e-14 -1.227138e-14 -9.825981e-16 -6.893661e-17 -2.450175e-18 -1.915932e-20 4.958768e-21 4.062098e-22 1.390603e-23 2.934965e-25 -3.640277e-27 -4.349983e-28 -2.477056e-29 -3.675510e-31 -1.350884e-31 1.549346e-33 -9.131923e-34 1.296401e-35 -3.285941e-36 4.203001e-38 -6.048770e-39 5.908876e-41 -5.586163e-42 3.405702e-44 -2.466115e-45 5.509961e-48 -4.790338e-49 -8.439471e-52 -2.850535e-53 1.280177e-52 1.908136e-51 2.236328e-50 2.897901e-49 2.839925e-48 3.179525e-47 2.556883e-46 2.454913e-45 1.580924e-44 1.288339e-43 6.401680e-43 4.356166e-42 1.574604e-41 8.718101e-41 
1.686577e-41 7.432832e-41 1.020713e-40 3.295611e-40 2.397254e-40 4.722024e-40 1.939223e-40 1.834397e-40 4.991254e-41 2.261591e-41 4.466578e-42 1.194565e-42 1.808221e-43 3.312366e-44 4.048078e-45 5.790669e-46 1.090544e-46 -3.735554e-45 6.835294e-44 -2.923289e-42 3.561802e-41 -1.721392e-39 4.457355e-38 -2.540028e-36 4.754357e-35 -1.810444e-33 1.933467e-32 -5.420919e-31 3.296619e-30 -7.627997e-29 2.418285e-28 -5.057149e-27 1.299044e-26 -4.991707e-26 -4.494636e-24 -3.832369e-22 -1.703210e-20 -4.091252e-19 -6.716159e-18 -3.282175e-17 1.217865e-15 3.499718e-14 6.110988e-13 6.230652e-12 5.563294e-11 3.209489e-10 1.735733e-09 5.982075e-09 1.961501e-08 3.562490e-08 4.028432e-08 -6.828954e-08 -4.860422e-07 -8.354035e-07 -3.679440e-06 -8.689858e-06 2.219002e-05 -9.826365e-07 -6.353879e-05 8.114451e-05 -1.447016e-04 2.629002e-04 -6.146962e-04 5.237926e-04 6.207072e-05 -3.023065e-07 -6.513003e-06 3.468364e-07 5.461707e-07 -4.902148e-07 4.523962e-07 -1.443347e-08 -2.330829e-07 -9.590112e-08 -1.691395e-08 7.381401e-10 3.291795e-09 3.613270e-10 -6.480140e-10 -4.670607e-10 -2.445271e-10 -7.364014e-11 -2.170416e-11 -4.283751e-12 -8.212413e-13 -1.072608e-13 -1.280235e-14 -1.000494e-15 -6.610160e-17 -2.545364e-18 -5.954253e-20 8.214606e-22 1.169431e-22 4.264515e-24 9.137513e-26 2.661678e-27 -1.275080e-28 7.583142e-29 -3.597443e-30 1.166359e-30 -5.217396e-32 9.028189e-33 -3.440189e-34 3.645611e-35 -1.098408e-36 7.635052e-38 -1.716566e-39 8.081901e-41 -1.270690e-42 4.098320e-44 -4.051001e-46 8.975358e-48 -4.256039e-50 6.927265e-52 1.815038e-53 2.447535e-52 2.673202e-51 3.229947e-50 2.995082e-49 3.182933e-48 2.451287e-47 2.268623e-46 1.411780e-45 1.124361e-44 5.433258e-44 3.661297e-43 1.292250e-42 7.184605e-42 
1.304222e-42 5.877945e-42 7.879566e-42 2.648340e-41 1.884050e-41 3.915865e-41 1.595694e-41 1.593388e-41 4.406028e-42 2.107287e-42 4.318064e-43 1.228580e-43 1.964988e-44 3.875819e-45 5.083124e-46 1.111140e-46 -1.207940e-45 7.319950e-44 -1.381421e-42 4.391726e-41 -4.689789e-40 1.626841e-38 -5.549086e-37 2.634624e-35 -6.302186e-34 1.857707e-32 -2.508706e-31 5.171841e-30 -4.246325e-29 6.670310e-28 -3.280371e-27 4.204751e-26 -1.085697e-25 1.244194e-24 -2.168067e-24 -6.854829e-23 -4.182370e-21 -1.072959e-19 -1.399329e-18 1.795164e-17 1.417744e-15 3.147800e-14 5.286594e-13 5.394137e-12 4.768616e-11 2.797088e-10 1.473239e-09 5.283641e-09 1.725261e-08 3.605152e-08 5.741000e-08 -3.208592e-08 -5.303260e-07 -1.479349e-06 2.144063e-06 -1.835757e-06 1.433686e-05 -3.209147e-05 2.846811e-05 6.067158e-06 2.116025e-05 -1.650279e-04 1.177842e-03 -1.029987e-03 -1.157915e-04 -1.784446e-05 4.904660e-06 3.452283e-06 -1.185174e-06 5.383633e-07 -7.662283e-07 6.325054e-07 -2.948169e-07 2.644156e-07 -2.527817e-09 2.179980e-08 7.639560e-09 4.394559e-10 -7.696965e-10 -4.667924e-10 -2.163564e-10 -6.458860e-11 -1.785127e-11 -3.519559e-12 -6.431616e-13 -8.275726e-14 -9.506116e-15 -7.186636e-16 -4.623752e-17 -1.762381e-18 -5.106312e-20 -4.586283e-22 1.404416e-23 4.611539e-25 3.159984e-26 -1.819140e-26 1.586100e-27 -6.119660e-28 4.826364e-29 -1.002168e-29 6.565493e-31 -8.503565e-32 4.403807e-33 -3.805427e-34 1.504989e-35 -8.945826e-37 2.617118e-38 -1.079192e-39 2.245338e-41 -6.357649e-43 8.836214e-45 -1.660807e-46 1.357150e-48 -1.571821e-50 5.271647e-53 2.967184e-53 3.041761e-52 3.459552e-51 3.022460e-50 3.068358e-49 2.253391e-48 2.019102e-47 1.209524e-46 9.444400e-46 4.423691e-45 2.959754e-44 1.017210e-43 5.692655e-43 
9.730333e-44 4.478243e-43 5.866190e-43 2.050361e-42 1.427849e-42 3.127789e-42 1.266516e-42 1.332171e-42 3.750221e-43 1.887550e-43 4.019914e-44 1.211661e-44 2.050645e-45 4.325657e-46 6.864512e-47 -7.486805e-46 2.966950e-44 -1.412239e-42 2.779570e-41 -7.172946e-40 5.751054e-39 -1.156055e-37 4.513106e-36 -2.111354e-34 6.401332e-33 -1.603394e-31 2.557428e-30 -4.259269e-29 4.191124e-28 -5.065173e-27 3.179087e-26 -2.889520e-25 1.084759e-24 -7.348211e-24 1.255230e-23 -4.766501e-23 -2.873604e-22 -9.613231e-21 -1.931560e-19 -7.365613e-19 1.065792e-16 3.759887e-15 6.807490e-14 9.693787e-13 8.975236e-12 7.527745e-11 4.441167e-10 2.380591e-09 9.895181e-09 3.531867e-08 1.184247e-07 2.618070e-07 6.157090e-07 -4.016951e-06 7.046128e-06 -7.840814e-06 -6.783660e-06 2.249728e-05 5.199651e-05 -7.264449e-05 1.896782e-04 -4.475115e-04 -1.548655e-03 1.689453e-03 1.727343e-04 4.641707e-05 6.721978e-06 -3.857033e-06 -3.540580e-06 1.070463e-06 -1.112957e-06 -3.262013e-07 1.738220e-07 1.502935e-07 -9.148302e-08 5.328389e-08 -8.530222e-09 -3.522149e-09 -1.602710e-09 -4.669881e-10 -1.281194e-10 -2.923809e-11 -5.147823e-12 -8.659565e-13 -1.035433e-13 -1.329525e-14 -1.107199e-15 -8.779497e-17 -4.104912e-18 -1.482372e-19 -2.567411e-21 3.591349e-24 1.301685e-24 1.093222e-24 -2.103919e-25 1.123342e-25 -1.596415e-26 4.209019e-27 -4.635609e-28 7.544279e-29 -6.402860e-30 7.007843e-31 -4.527792e-32 3.460863e-33 -1.678695e-34 9.087289e-36 -3.250376e-37 1.243519e-38 -3.195208e-40 8.482954e-42 -1.499928e-43 2.648688e-45 -2.972489e-47 3.180972e-49 -1.869417e-51 1.289343e-53 3.338012e-53 3.563035e-52 2.947936e-51 2.849547e-50 2.002860e-49 1.732161e-48 1.001556e-47 7.646176e-47 3.478928e-46 2.305501e-45 7.729208e-45 4.345506e-44 
6.926089e-45 3.261744e-44 4.167343e-44 1.517951e-43 1.032562e-43 2.389327e-43 9.589628e-44 1.064943e-43 3.041045e-44 1.615628e-44 3.558676e-45 1.146461e-45 2.058055e-46 5.124888e-47 -1.991823e-46 1.643596e-44 -6.385566e-43 2.752786e-41 -5.619968e-40 1.358818e-38 -9.695509e-38 7.797285e-37 -1.550156e-36 8.200194e-34 -3.848174e-32 1.017712e-30 -1.804278e-29 2.827553e-28 -2.953515e-27 3.217791e-26 -2.157770e-25 1.687642e-24 -6.934048e-24 3.570539e-23 -5.837823e-23 -7.982993e-23 1.154140e-21 -1.467971e-20 -3.407306e-21 -4.812050e-19 1.008438e-17 5.601548e-16 1.542467e-14 2.904195e-13 3.805317e-12 3.717841e-11 2.589759e-10 1.410911e-09 5.395191e-09 2.088168e-08 5.694804e-08 2.509948e-07 6.973827e-07 2.497285e-06 -2.228533e-06 -7.911262e-06 1.708871e-05 -2.488831e-05 1.381892e-05 -9.469365e-05 1.334599e-04 9.485809e-04 1.966873e-03 -2.361037e-03 -2.345762e-04 -7.286543e-05 -2.099484e-05 -3.570033e-06 4.949698e-06 2.506352e-06 -8.179647e-07 3.714921e-07 -3.356157e-07 1.296582e-07 4.566818e-08 -3.364555e-08 -9.888730e-09 -3.636879e-09 -8.854881e-10 -3.060196e-10 -7.698472e-11 -1.843030e-11 -3.191734e-12 -4.351259e-13 -4.349114e-14 -3.607647e-15 -2.167739e-16 -1.206011e-17 -4.065544e-19 -8.847513e-21 -1.969084e-22 1.021269e-22 -4.983890e-24 -3.105524e-24 1.274205e-24 -5.944780e-25 1.056827e-25 -2.498353e-26 3.160512e-27 -4.817296e-28 4.546316e-29 -4.807296e-30 3.408113e-31 -2.573719e-32 1.364251e-33 -7.423042e-35 2.906429e-36 -1.133936e-37 3.211231e-39 -8.815722e-41 1.742307e-42 -3.234280e-44 4.179285e-46 -4.831023e-48 3.548027e-50 -2.071782e-52 3.997577e-54 3.487645e-53 2.724696e-52 2.524265e-51 1.692803e-50 1.419695e-49 7.900170e-49 5.916972e-48 2.608402e-47 1.716618e-46 5.601709e-46 3.170745e-45 
4.736457e-46 2.280437e-45 2.842793e-45 1.078550e-44 7.166715e-45 1.750268e-44 6.962952e-45 8.124485e-45 2.346769e-45 1.234457e-45 2.683605e-46 2.551395e-47 -1.219443e-47 -8.583820e-47 5.086491e-45 -3.446048e-43 1.375213e-41 -5.442525e-40 1.204632e-38 -2.842731e-37 2.696254e-36 -2.619628e-35 -2.830022e-34 3.290034e-33 9.876057e-32 -4.192869e-30 9.835682e-29 -1.488933e-27 1.718061e-26 -1.675211e-25 1.197271e-24 -7.879947e-24 3.309121e-23 -1.114806e-22 -2.665721e-23 2.982478e-21 -1.736087e-20 1.167030e-19 -2.514714e-19 1.286558e-18 -7.469631e-19 2.516675e-17 1.045956e-16 8.736373e-15 -1.905626e-13 -2.813459e-12 -6.231900e-11 -4.597921e-10 -3.217556e-09 -1.305238e-08 -4.629333e-08 -6.918919e-08 -2.285014e-07 5.170770e-07 2.440244e-06 -4.250513e-06 -5.420361e-06 1.268686e-05 5.864042e-06 1.027753e-05 -3.471248e-04 -1.355964e-03 -2.908442e-03 3.175048e-03 3.123900e-04 1.007150e-04 3.255648e-05 6.783421e-06 -7.210517e-07 -3.182551e-06 -1.124435e-06 -2.912772e-07 1.005597e-07 6.964139e-08 -3.616293e-08 -1.172564e-08 2.874113e-09 7.983544e-10 6.118617e-10 1.657906e-10 4.092435e-11 5.794645e-12 7.715485e-13 3.731632e-14 2.421862e-15 -1.228869e-16 -1.812849e-18 -6.753994e-19 2.178351e-21 -1.105079e-20 2.028130e-21 -9.427980e-22 1.212333e-22 -8.804040e-24 -4.240011e-24 2.374470e-24 -5.507398e-25 1.220670e-25 -1.797148e-26 2.580969e-27 -2.744556e-28 2.780453e-29 -2.194907e-30 1.612497e-31 -9.490147e-33 5.089307e-34 -2.218338e-35 8.629177e-37 -2.741144e-38 7.588207e-40 -1.706341e-41 3.237051e-43 -4.890337e-45 5.903758e-47 -5.398348e-49 3.496118e-51 -1.437574e-53 3.281022e-54 2.414696e-53 2.140246e-52 1.374381e-51 1.115665e-50 5.990058e-50 4.393565e-49 1.880032e-48 1.226765e-47 3.901873e-47 2.220741e-46 
3.093122e-47 1.525860e-46 1.859782e-46 7.390756e-46 4.856665e-46 1.294535e-45 5.411940e-46 9.377815e-46 3.232349e-46 9.688554e-46 2.983916e-46 7.038670e-46 2.606141e-46 1.645330e-45 -1.060301e-43 6.691749e-42 -2.683316e-40 1.029693e-38 -2.425242e-37 5.822255e-36 -7.202384e-35 9.471200e-34 -3.556962e-34 -6.166437e-32 1.313946e-30 -4.818078e-30 -2.153007e-28 4.592295e-27 -6.392508e-26 6.171892e-25 -4.459777e-24 2.577758e-23 -8.925483e-23 2.662001e-23 2.549390e-21 -2.770109e-20 1.414972e-19 -7.905476e-19 2.122618e-18 -8.753424e-18 1.008034e-17 -3.786495e-17 -3.420105e-18 2.661731e-16 5.123591e-16 -1.359445e-14 5.756008e-12 5.575417e-11 7.588982e-10 3.170610e-09 1.083428e-08 6.651534e-08 3.595893e-07 -5.986829e-07 2.002166e-06 -4.862021e-06 -3.843512e-06 -2.707742e-05 -2.758651e-05 6.957145e-05 7.025029e-04 2.120061e-03 3.976312e-03 -4.250050e-03 -4.054128e-04 -1.402096e-04 -5.268111e-05 -1.651670e-05 -1.356663e-06 3.909169e-06 -1.732839e-07 8.268228e-07 8.492617e-08 7.434075e-08 -3.286965e-08 9.560693e-09 -4.772591e-09 -7.449852e-10 -1.498288e-10 -3.963152e-11 -1.015741e-11 -7.402357e-13 -8.421007e-14 1.061792e-16 -1.175493e-17 -5.659574e-18 1.127705e-19 1.178786e-19 -5.155559e-20 7.492069e-20 -1.840854e-20 7.134444e-21 -1.178359e-21 1.829627e-22 -3.666742e-24 -6.033712e-24 1.915036e-24 -4.509929e-25 7.216657e-26 -1.049184e-26 1.175362e-27 -1.205569e-28 9.955106e-30 -7.457296e-31 4.591323e-32 -2.532266e-33 1.158614e-34 -4.679042e-36 1.569376e-37 -4.559826e-39 1.092327e-40 -2.206580e-42 3.603490e-44 -4.743037e-46 4.826572e-48 -3.598970e-50 1.841303e-52 -1.675824e-55 2.168762e-54 1.803272e-53 1.085025e-52 8.487845e-52 4.357349e-51 3.129789e-50 1.294278e-49 8.383190e-49 2.593112e-48 1.486210e-47 
-3.782604e-49 -2.978949e-48 -1.000885e-47 -7.406534e-47 -1.111739e-46 -7.446543e-46 -5.349607e-46 -3.628930e-45 -1.145324e-45 -8.802442e-45 -2.121850e-45 -6.313936e-45 -1.897307e-45 -3.132474e-44 2.148047e-42 -1.247595e-40 5.104056e-39 -1.860943e-37 4.645664e-36 -1.098518e-34 1.605138e-33 -2.358229e-32 1.433586e-31 -7.169566e-31 -1.426216e-29 1.829582e-28 -1.270348e-27 3.589089e-28 1.350859e-25 -1.490577e-24 1.187473e-23 -5.072082e-23 2.109855e-23 2.180582e-21 -2.349311e-20 1.742205e-19 -9.018890e-19 4.239317e-18 -1.370394e-17 4.570811e-17 -8.296647e-17 2.051711e-16 -1.888182e-16 2.993270e-15 -6.101229e-14 4.313128e-13 -5.540849e-12 2.696432e-11 -3.442435e-10 7.069294e-10 -1.547413e-08 4.192675e-08 -4.005528e-07 2.383469e-07 9.996370e-07 2.414366e-06 3.313893e-06 1.189566e-05 -7.370588e-05 -3.491593e-04 -9.482974e-04 -2.705980e-03 -5.803999e-03 5.434747e-03 5.122536e-04 1.783993e-04 6.876904e-05 2.332658e-05 7.576233e-06 -8.555076e-07 -1.942881e-06 -1.098418e-07 -6.497782e-08 -3.074284e-08 -1.068686e-08 -5.502663e-09 5.790720e-09 -6.398718e-10 2.033769e-10 -5.869107e-12 2.780168e-12 -1.041655e-13 1.105482e-15 1.303982e-16 9.941046e-18 -2.195457e-17 5.496471e-18 -3.693636e-19 3.360231e-19 -4.497533e-19 1.395976e-19 -4.412955e-20 8.630192e-21 -1.382634e-21 1.334900e-22 4.408554e-24 -4.941567e-24 1.343705e-24 -2.428912e-25 3.530641e-26 -4.258893e-27 4.321294e-28 -3.807427e-29 2.832496e-30 -1.860521e-31 1.026199e-32 -5.028883e-34 2.047523e-35 -7.407688e-37 2.190363e-38 -5.722559e-40 1.190764e-41 -2.159208e-43 2.983521e-45 -3.487642e-47 2.843056e-49 -1.824396e-51 5.892533e-54 -1.699645e-54 -8.943975e-54 -3.058350e-53 -1.516963e-52 -4.374141e-52 -1.910162e-51 -4.192800e-51 -1.422055e-50 -2.422642e-50 -7.672409e-50 
2.612614e-47 1.467852e-46 2.341150e-46 1.375881e-45 1.433816e-45 9.156615e-45 4.963339e-45 3.972595e-44 7.111199e-45 9.097688e-44 1.304232e-44 5.723516e-44 9.915326e-45 5.350802e-43 -3.659041e-41 2.047946e-39 -8.358318e-38 2.987651e-36 -7.665614e-35 1.814280e-33 -2.900791e-32 4.505031e-31 -4.013621e-30 3.656995e-29 -5.693555e-29 -6.403343e-28 1.791949e-26 -1.296157e-25 5.177714e-25 -1.011398e-24 -7.427589e-24 -2.354928e-23 9.799746e-22 -1.278324e-20 1.042928e-19 -6.811767e-19 3.438007e-18 -1.522859e-17 5.258765e-17 -1.709599e-16 4.255587e-16 -1.015777e-15 -3.265650e-15 3.167887e-14 -4.133066e-13 1.724104e-12 -1.075297e-11 2.557906e-11 -5.147798e-11 2.401695e-11 5.729278e-09 6.126042e-09 2.360779e-07 -2.418114e-07 5.860784e-07 -4.389354e-07 3.674502e-06 -1.378114e-05 5.187207e-05 1.872449e-04 5.724987e-04 3.051905e-03 8.869506e-03 -6.942586e-03 -6.522594e-04 -2.222917e-04 -8.440096e-05 -2.856090e-05 -7.067105e-06 -8.287355e-09 2.987005e-06 5.053629e-07 4.706956e-08 2.727971e-08 -1.738401e-08 3.608833e-09 -3.097294e-09 -4.974999e-11 -6.780557e-11 4.979388e-13 -3.862918e-13 9.807533e-14 -5.908942e-14 1.151955e-14 -3.374143e-15 1.570366e-17 6.171236e-17 -1.149119e-17 -1.088473e-18 2.556052e-18 -7.964913e-19 2.051831e-19 -3.819109e-20 5.346248e-21 -5.496185e-22 1.454029e-24 1.146025e-23 -3.326911e-24 6.004294e-25 -8.679922e-26 1.046972e-26 -1.062126e-27 9.427492e-29 -7.072742e-30 4.710724e-31 -2.642007e-32 1.321011e-33 -5.515159e-35 2.049601e-36 -6.273011e-38 1.697173e-39 -3.698646e-41 7.021202e-43 -1.033602e-44 1.286789e-46 -1.153310e-48 8.171072e-51 -2.883825e-53 2.189987e-53 1.219677e-52 4.588113e-52 2.537346e-51 8.802911e-51 4.823345e-50 1.503089e-49 8.200236e-49 2.199502e-48 1.207318e-47 
-3.080851e-46 -1.780716e-45 -2.629994e-45 -1.634596e-44 -1.473660e-44 -1.065371e-43 -4.020611e-44 -4.517970e-43 -1.230233e-44 -9.878102e-43 -2.556315e-44 -5.415069e-43 1.919300e-44 -8.687670e-42 5.962131e-40 -3.146042e-38 1.299702e-36 -4.458226e-35 1.180159e-33 -2.725893e-32 4.646567e-31 -7.247945e-30 7.569052e-29 -7.674546e-28 3.928154e-27 -2.020761e-26 -6.337127e-26 8.075840e-25 -7.023339e-24 3.187869e-23 -1.047550e-22 6.318912e-22 -5.509042e-21 4.951866e-20 -3.663400e-19 2.119600e-18 -1.040590e-17 4.041412e-17 -1.417060e-16 4.619455e-16 -2.534448e-15 1.411874e-14 -9.956546e-14 4.656589e-13 -2.249532e-12 7.370369e-12 -2.263714e-11 5.371563e-11 -1.210170e-10 5.394280e-10 -3.377312e-09 1.200023e-08 -1.580615e-07 2.357999e-07 4.488481e-07 5.986374e-07 8.342828e-06 1.945479e-06 5.303558e-06 2.013749e-04 2.287628e-04 -2.778751e-03 -1.326643e-02 8.714818e-03 8.225651e-04 2.726817e-04 1.026494e-04 3.435018e-05 1.111662e-05 2.211246e-06 -2.190967e-06 -8.760918e-07 -7.665696e-08 1.377439e-08 -8.102805e-10 -3.716584e-09 2.269960e-09 -2.011236e-10 6.513246e-11 -1.010946e-11 2.344024e-12 -2.845449e-13 -1.862990e-14 4.013235e-14 -2.288072e-14 5.606386e-15 -1.343834e-15 5.333290e-17 3.325509e-17 -1.719516e-17 4.612511e-18 -7.938384e-19 1.218115e-19 -9.004214e-21 8.793510e-23 2.654795e-22 -6.487371e-23 1.191121e-23 -1.775351e-24 2.203019e-25 -2.481748e-26 2.320765e-27 -2.015782e-28 1.440483e-29 -9.606599e-31 5.225841e-32 -2.652075e-33 1.087065e-34 -4.144134e-36 1.258455e-37 -3.532182e-39 7.728759e-41 -1.545276e-42 2.322782e-44 -3.122078e-46 2.946321e-48 -2.375083e-50 4.866807e-53 -2.690292e-52 -1.512436e-51 -5.741835e-51 -3.188954e-50 -1.104255e-49 -6.075801e-49 -1.867559e-48 -1.026270e-47 -2.677432e-47 -1.491239e-46 
3.719058e-45 2.241863e-44 3.001121e-44 2.012438e-43 1.500957e-43 1.284155e-42 2.621814e-43 5.332016e-42 -6.790397e-43 1.119491e-41 -1.169670e-42 5.465106e-42 -1.484630e-42 1.130716e-40 -7.688913e-39 3.977423e-37 -1.647681e-35 5.597898e-34 -1.510200e-32 3.490028e-31 -6.200460e-30 9.823876e-29 -1.119878e-27 1.196315e-26 -7.960353e-26 5.356295e-25 -1.303208e-24 2.717659e-24 3.905385e-23 -2.073810e-22 8.880198e-22 -3.160412e-21 1.479116e-20 -1.102020e-19 7.392396e-19 -3.928673e-18 1.570630e-17 -3.672314e-17 -7.598246e-17 1.188269e-15 -7.505357e-15 2.831282e-14 -6.472756e-14 -4.019476e-15 1.358995e-12 -7.708201e-12 4.113967e-11 -1.383488e-10 5.387420e-10 -1.529337e-09 6.334169e-09 -1.780796e-08 1.410114e-07 -2.372862e-07 1.007836e-07 -9.419823e-08 8.316216e-06 -1.392985e-05 -1.000651e-04 -1.059858e-03 -2.210598e-03 5.846493e-04 1.993022e-02 -1.084676e-02 -1.044078e-03 -3.269108e-04 -1.150489e-04 -3.610726e-05 -1.007003e-05 -1.317465e-06 1.805318e-06 8.884373e-07 8.442566e-08 1.013399e-08 -8.287503e-09 2.621183e-09 -1.597539e-09 1.548935e-10 -3.927932e-11 5.173745e-12 -2.409079e-13 -1.287535e-13 1.438995e-13 -1.160121e-14 -8.127954e-15 1.015779e-14 -4.899554e-15 1.507260e-15 -4.062432e-16 6.695643e-17 -9.752234e-18 1.051714e-19 2.063391e-19 -7.864779e-20 1.627596e-20 -2.773940e-21 3.965164e-22 -4.885442e-23 5.511912e-24 -5.406168e-25 5.026126e-26 -4.035024e-27 3.093222e-28 -2.013857e-29 1.244583e-30 -6.416345e-32 3.113088e-33 -1.240069e-34 4.611271e-36 -1.385249e-37 3.850338e-39 -8.466077e-41 1.700523e-42 -2.614208e-44 3.590398e-46 -3.551933e-48 3.012377e-50 6.513078e-52 3.376743e-51 1.932103e-50 7.360234e-50 4.142191e-49 1.421889e-48 7.929708e-48 2.383977e-47 1.333182e-46 3.346480e-46 1.913153e-45 
-4.786388e-44 -3.047075e-43 -3.616823e-43 -2.673604e-42 -1.557861e-42 -1.670567e-41 -5.560887e-43 -6.805225e-41 1.845766e-41 -1.384222e-40 3.200689e-41 -6.397117e-41 3.000072e-41 -1.265757e-39 8.819621e-38 -4.407648e-36 1.887361e-34 -6.280213e-33 1.771143e-31 -4.052639e-30 7.628416e-29 -1.210541e-27 1.495877e-26 -1.630007e-25 1.247883e-24 -9.023164e-24 3.589075e-23 -1.541005e-22 2.556922e-23 5.033021e-22 -6.570607e-21 1.804854e-20 -5.531253e-20 3.007891e-19 -2.039247e-18 1.140097e-17 -5.490578e-17 1.782103e-16 -2.785973e-16 -1.257018e-15 1.488843e-14 -6.843884e-14 2.605161e-13 -5.585920e-13 5.573920e-13 3.559164e-12 -2.869510e-11 1.194832e-10 -4.883918e-10 1.451093e-09 -5.385971e-09 1.541005e-08 -7.927980e-08 1.511139e-07 2.504579e-07 -8.211582e-06 1.292563e-05 2.243400e-05 5.289514e-04 2.061306e-03 5.223932e-03 4.419852e-03 -2.923160e-02 1.348838e-02 1.335139e-03 3.958558e-04 1.353825e-04 4.082688e-05 1.201883e-05 2.078158e-06 -5.369428e-07 -8.492629e-07 -1.100328e-07 1.444666e-08 5.562245e-09 -1.914050e-09 1.129191e-09 -2.318950e-10 8.266148e-11 -2.405571e-11 8.615392e-12 -2.718981e-12 1.026276e-12 -3.475854e-13 1.314719e-13 -3.539659e-14 9.046596e-15 -9.592196e-16 -1.353185e-16 1.460402e-16 -5.470697e-17 1.424850e-17 -3.181507e-18 5.563091e-19 -9.034724e-20 1.182939e-20 -1.477813e-21 1.512561e-22 -1.500465e-23 1.234009e-24 -9.950013e-26 6.692935e-27 -4.434549e-28 2.441682e-29 -1.316867e-30 5.817763e-32 -2.483535e-33 8.505748e-35 -2.765085e-36 7.026052e-38 -1.654471e-39 2.929175e-41 -4.590859e-43 4.964951e-45 -4.001055e-47 1.148545e-49 -2.206357e-52 -1.084516e-50 -4.574666e-50 -2.667221e-49 -1.016995e-48 -5.816749e-48 -1.971734e-47 -1.119208e-46 -3.270915e-46 -1.872672e-45 -4.481311e-45 -2.652184e-44 
6.399645e-43 4.355380e-42 4.510981e-42 3.731713e-41 1.614975e-41 2.282163e-40 -2.543675e-41 9.147339e-40 -3.514217e-40 1.826058e-39 -6.222229e-40 8.721644e-40 -4.273845e-40 7.472363e-39 -5.856671e-37 3.034042e-35 -1.421575e-33 4.908674e-32 -1.506496e-30 3.578667e-29 -7.325644e-28 1.208456e-26 -1.635102e-25 1.861016e-24 -1.598745e-23 1.227317e-22 -6.030552e-22 2.970546e-21 -5.654308e-21 1.510535e-20 3.645335e-20 -8.349582e-20 2.740010e-19 -4.511232e-19 1.886090e-18 -1.275969e-17 7.778750e-17 -3.568483e-16 1.509255e-15 -4.004769e-15 8.771399e-15 -8.285190e-15 1.960887e-14 -3.315520e-13 2.757123e-12 -1.436265e-11 6.830197e-11 -2.373727e-10 9.275477e-10 -2.634243e-09 9.650715e-09 -2.402637e-08 9.764835e-08 -2.046607e-07 -2.442429e-06 -7.568733e-06 2.475285e-06 -5.196589e-05 -6.674664e-04 -2.238651e-03 -7.929054e-03 -1.501211e-02 4.113767e-02 -1.651226e-02 -1.696664e-03 -4.695964e-04 -1.477891e-04 -4.135574e-05 -1.069239e-05 -1.632201e-06 2.448118e-07 6.589285e-07 2.401358e-07 -5.591693e-08 -1.095017e-08 9.336784e-10 -9.221141e-10 2.720772e-10 -1.204709e-10 3.465933e-11 -1.335836e-11 3.849661e-12 -1.411077e-12 3.724654e-13 -1.029418e-13 1.102942e-14 3.233617e-15 -3.096505e-15 1.380923e-15 -4.207602e-16 1.137559e-16 -2.362130e-17 4.626790e-18 -7.194540e-19 1.072980e-19 -1.293578e-20 1.507077e-21 -1.439332e-22 1.339145e-23 -1.036530e-24 7.919327e-26 -5.122645e-27 3.326426e-28 -1.854739e-29 1.046539e-30 -5.053441e-32 2.439581e-33 -9.857330e-35 3.889211e-36 -1.248530e-37 3.827034e-39 -9.270246e-41 2.102041e-42 -3.634493e-44 5.749808e-46 -6.550351e-48 9.070168e-50 1.536390e-49 6.512866e-49 3.904761e-48 1.470508e-47 8.639364e-47 2.853327e-46 1.668007e-45 4.674686e-45 2.774059e-44 6.242678e-44 3.872091e-43 
-9.358684e-42 -6.902359e-41 -6.145013e-41 -5.758681e-40 -1.764929e-40 -3.439679e-39 7.499888e-40 -1.359802e-38 6.228740e-39 -2.699791e-38 1.161531e-38 -1.438377e-38 5.913935e-39 4.985314e-38 -1.379244e-36 2.586769e-35 2.481866e-33 -1.373521e-31 7.199945e-30 -1.994831e-28 5.316187e-27 -9.568584e-26 1.558550e-24 -1.891458e-23 1.913581e-22 -1.560643e-21 9.242035e-21 -4.932436e-20 1.385459e-19 -4.623885e-19 1.957063e-20 -2.016244e-19 -3.810639e-18 3.503359e-18 -4.031186e-18 2.301975e-18 1.988386e-16 -5.746642e-16 3.389656e-15 -4.877202e-15 1.288052e-14 2.792217e-14 -2.362430e-13 1.446080e-12 -7.158779e-12 2.978719e-11 -1.204584e-10 4.082848e-10 -1.459947e-09 4.129424e-09 -1.385989e-08 3.227660e-08 -1.091963e-07 1.923285e-07 1.404302e-06 1.067095e-05 -1.584237e-05 7.240864e-06 7.327590e-06 7.877748e-04 8.187275e-03 3.300572e-02 -5.707313e-02 2.037095e-02 2.191685e-03 5.647984e-04 1.710313e-04 4.528383e-05 1.143058e-05 1.600590e-06 -9.241200e-08 -3.130817e-07 -2.320502e-07 7.938480e-08 1.015878e-08 4.096142e-11 1.760871e-10 -8.036596e-11 4.488508e-11 -1.408114e-11 5.832771e-12 -1.477574e-12 3.982173e-13 8.424762e-15 -6.220702e-14 4.204581e-14 -2.110810e-14 7.348052e-15 -2.429568e-15 5.989361e-16 -1.450826e-16 2.701773e-17 -4.977684e-18 7.186592e-19 -1.026775e-19 1.165307e-20 -1.308182e-21 1.178880e-22 -1.051666e-23 7.584860e-25 -5.411527e-26 3.108829e-27 -1.738556e-28 7.490210e-30 -2.866359e-31 6.063176e-33 7.764848e-35 -1.834876e-35 1.273146e-36 -5.712370e-38 2.204114e-39 -6.293649e-41 1.636721e-42 -3.134813e-44 5.489795e-46 -6.855456e-48 -3.207175e-49 -2.512869e-48 -1.055646e-47 -6.495165e-47 -2.389425e-46 -1.448197e-45 -4.588336e-45 -2.789723e-44 -7.360523e-44 -4.589731e-43 -9.531742e-43 -6.289002e-42 