# vtk DataFile Version 2.0
Comment goes here
ASCII

DATASET STRUCTURED_POINTS
DIMENSIONS    128   128   1

ORIGIN    0.000   0.000   0.000
SPACING   0.0156250.015625   1.000

POINT_DATA   16384
SCALARS Concentration double
LOOKUP_TABLE default

3.968589e-74 2.857848e-73 3.439652e-72 1.870201e-71 2.070312e-70 7.776409e-70 7.591433e-69 1.746153e-68 1.361913e-67 1.624572e-67 8.033057e-67 4.606870e-67 9.881556e-67 4.044205e-67 5.619280e-67 2.195816e-67 4.327203e-67 3.799297e-67 5.192566e-65 4.915904e-65 1.049669e-62 5.866061e-63 1.258626e-60 1.976357e-61 1.006796e-58 -6.296357e-59 6.125419e-57 -1.399886e-56 4.112093e-55 -7.578604e-55 1.702633e-53 -1.019416e-53 2.376361e-52 8.225409e-54 7.914862e-52 1.917237e-52 3.643556e-52 9.438812e-53 3.359274e-53 -9.061821e-53 1.798728e-51 -3.540597e-50 5.244151e-49 -8.275995e-48 9.223218e-47 -1.122005e-45 8.808992e-45 -7.785258e-44 3.852198e-43 -2.181043e-42 5.471853e-42 -1.254596e-41 1.104530e-41 1.810478e-42 -2.847297e-42 -9.884900e-41 2.143118e-39 -3.401895e-38 6.095118e-37 -4.688914e-36 3.597440e-35 -1.164060e-34 2.638426e-34 -1.033734e-34 -1.915595e-35 1.587438e-36 -1.995144e-37 2.015796e-38 -1.799867e-39 1.115892e-40 -4.535878e-42 1.712042e-43 -7.134373e-45 2.943775e-46 -1.414157e-47 -1.020493e-47 -9.994015e-47 1.116285e-46 -4.404201e-47 1.553621e-47 -2.400002e-48 4.231138e-49 -4.160883e-50 4.602778e-51 -3.279691e-52 2.549108e-53 -1.396829e-54 8.147354e-56 -3.568085e-57 1.636423e-58 -5.917744e-60 2.219300e-61 -6.822650e-63 2.157057e-64 -5.732060e-66 1.546487e-67 -3.537819e-69 8.082201e-71 -1.563905e-72 2.978906e-74 -4.792614e-76 7.519190e-78 -9.950696e-80 1.277073e-81 -1.382012e-83 1.444789e-85 -1.272372e-87 1.077896e-89 -7.613791e-92 3.571454e-93 2.578404e-92 1.367755e-91 1.130201e-90 5.427949e-90 4.403747e-89 2.025606e-88 2.078431e-87 1.752732e-86 2.617016e-85 3.269188e-84 5.443225e-83 7.645819e-82 1.234603e-80 1.562836e-79 2.318581e-78 2.490724e-77 3.433852e-76 3.078156e-75 
1.233620e-72 8.949826e-72 1.057101e-70 5.744241e-70 6.086701e-69 2.278717e-68 2.068466e-67 4.739190e-67 3.342712e-66 3.945247e-66 1.734589e-65 9.622680e-66 1.856752e-65 7.199494e-66 9.157434e-66 3.430467e-66 8.012729e-66 2.259776e-65 1.253880e-63 4.381936e-63 2.364726e-61 5.498433e-61 2.792650e-59 4.260761e-59 2.191557e-57 1.327469e-57 1.229162e-55 -8.919870e-56 8.008394e-54 -4.998250e-54 3.283631e-52 -2.615638e-53 4.579606e-51 8.152946e-52 1.550176e-50 3.802753e-51 7.327282e-51 1.808501e-51 5.765514e-52 5.814045e-52 -9.649138e-51 2.108949e-49 -3.273417e-48 5.543309e-47 -6.352677e-46 8.197165e-45 -6.565362e-44 6.178178e-43 -3.110294e-42 1.931362e-41 -4.897659e-41 1.384422e-40 -1.152983e-40 -1.867006e-41 7.299307e-41 7.344101e-40 -2.205598e-38 4.511762e-37 -7.559602e-36 5.141208e-35 -3.434243e-34 1.024434e-33 -2.125762e-33 8.180656e-34 1.315865e-34 -9.272144e-36 1.079543e-36 -9.516806e-38 4.579591e-39 1.032825e-40 -7.246228e-41 4.332765e-42 4.722790e-44 -4.072111e-45 2.427023e-46 9.888509e-47 1.155537e-45 -1.411155e-45 4.540898e-46 -1.589727e-46 2.240007e-47 -3.882662e-48 3.585277e-49 -3.888143e-50 2.612296e-51 -1.975547e-52 1.009627e-53 -5.626043e-55 2.229312e-56 -9.389818e-58 2.885913e-59 -9.199573e-61 2.138571e-62 -4.966505e-64 7.859525e-66 -1.052007e-67 1.794923e-70 2.898075e-71 -1.033676e-72 2.458005e-74 -4.346543e-76 6.961497e-78 -8.916847e-80 1.083527e-81 -1.071415e-83 1.019170e-85 -7.927070e-88 5.951200e-90 -3.645684e-92 1.429708e-94 -5.641119e-94 -1.882360e-93 3.793685e-93 5.746529e-91 1.574926e-89 3.747418e-88 8.567975e-87 1.767159e-85 3.675690e-84 6.647149e-83 1.247722e-81 1.943719e-80 3.288287e-79 4.356077e-78 6.686840e-77 7.437310e-76 1.044717e-74 9.555532e-74 
3.563444e-71 2.603654e-70 3.014465e-69 1.638634e-68 1.661072e-67 6.198595e-67 5.239661e-66 1.193160e-65 7.638084e-65 8.888687e-65 3.486883e-64 1.866588e-64 3.242625e-64 1.186819e-64 1.383978e-64 5.035612e-65 1.547847e-64 8.249134e-64 2.908816e-62 1.611170e-61 5.137914e-60 2.018833e-59 5.970414e-58 1.673594e-57 4.518167e-56 7.571428e-56 2.349823e-54 1.871357e-54 1.473770e-52 8.726568e-53 5.785005e-51 2.552595e-51 7.780055e-50 2.532556e-50 2.566015e-49 6.285043e-50 1.172503e-49 2.588278e-50 8.873568e-51 -1.881320e-51 7.120070e-50 -1.460515e-48 2.310942e-47 -3.787181e-46 4.509909e-45 -5.701491e-44 4.810561e-43 -4.474282e-42 2.406338e-41 -1.506032e-40 4.128750e-40 -1.303072e-39 1.101204e-39 2.163546e-40 -1.092000e-39 -4.212083e-39 -7.752575e-39 4.517775e-37 5.387270e-35 -4.099112e-34 2.414642e-33 -7.325483e-33 1.393972e-32 -5.498434e-33 -7.255093e-34 3.458850e-35 -3.167885e-36 6.013010e-38 6.564380e-38 -1.328924e-38 1.625599e-39 1.190714e-40 -5.642599e-42 2.278530e-43 -3.960056e-45 -1.099764e-45 -1.209364e-44 1.517756e-44 -4.404889e-45 1.431783e-45 -2.003077e-46 3.250580e-47 -3.035825e-48 3.124179e-49 -2.141568e-50 1.558279e-51 -8.227359e-53 4.497005e-54 -1.882788e-55 8.016828e-57 -2.707295e-58 9.169619e-60 -2.517749e-61 6.853886e-63 -1.533039e-64 3.367144e-66 -6.127106e-68 1.086351e-69 -1.604015e-71 2.293412e-73 -2.739161e-75 3.151954e-77 -3.033677e-79 2.800008e-81 -2.159854e-83 1.589443e-85 -9.736943e-88 5.650890e-90 -2.705117e-92 1.352046e-94 3.729714e-94 1.049094e-92 2.993442e-91 8.194791e-90 2.219845e-88 5.598288e-87 1.400503e-85 3.153467e-84 7.120339e-83 1.389751e-81 2.788921e-80 4.615873e-79 8.213679e-78 1.137639e-76 1.807876e-75 2.071673e-74 2.964336e-73 2.758222e-72 
9.967549e-70 7.312653e-69 8.316204e-68 4.504876e-67 4.385528e-66 1.622087e-65 1.284922e-64 2.884995e-64 1.690330e-63 1.922647e-63 6.780961e-63 3.479534e-63 5.464422e-63 1.874428e-63 2.013697e-63 7.297717e-64 3.216163e-63 2.465332e-62 6.655505e-61 4.653528e-60 1.114018e-58 5.826686e-58 1.273498e-56 4.867895e-56 9.167699e-55 2.300369e-54 4.483766e-53 9.422961e-53 2.707574e-51 4.401017e-51 9.998332e-50 8.991509e-50 1.277360e-48 5.860163e-49 4.052239e-48 9.646205e-49 1.767476e-48 3.237175e-49 1.230663e-49 3.120189e-50 -1.930738e-49 4.634049e-48 -7.968221e-47 1.447931e-45 -1.844366e-44 2.550322e-43 -2.277005e-42 2.301686e-41 -1.308723e-40 9.010182e-40 -2.652635e-39 1.014361e-38 -9.125311e-39 -1.596588e-39 1.804120e-38 -1.898390e-37 -2.403401e-36 9.185924e-35 -6.200070e-34 3.150758e-33 -1.466267e-32 4.046378e-32 -7.663517e-32 2.882888e-32 3.236210e-33 -4.566072e-35 2.189808e-36 1.861971e-36 -8.423012e-37 1.766719e-37 -3.200157e-38 5.218662e-39 -9.008360e-41 -2.481955e-42 -1.270379e-44 1.234917e-44 1.074607e-43 -1.347312e-43 3.255111e-44 -9.901850e-45 1.260457e-45 -1.936056e-46 1.663081e-47 -1.617296e-48 1.013157e-49 -6.893068e-51 3.282352e-52 -1.651708e-53 6.143375e-55 -2.369861e-56 7.021807e-58 -2.128598e-59 5.094349e-61 -1.233657e-62 2.403055e-64 -4.688961e-66 7.443251e-68 -1.172541e-69 1.511510e-71 -1.917880e-73 1.996292e-75 -2.031695e-77 1.696889e-79 -1.378094e-81 9.170121e-84 -5.901050e-86 3.096892e-88 -1.560721e-90 6.351783e-93 6.262475e-95 2.900749e-93 9.481742e-92 3.041564e-90 9.359090e-89 2.823287e-87 7.932584e-86 2.189820e-84 5.428328e-83 1.334419e-81 2.820490e-80 6.059360e-79 1.065853e-77 1.996050e-76 2.886144e-75 4.749903e-74 5.594316e-73 8.158621e-72 7.701543e-71 
2.624064e-68 1.934212e-67 2.158133e-66 1.165927e-65 1.089543e-64 3.994481e-64 2.967649e-63 6.559229e-63 3.524330e-62 3.906787e-62 1.240459e-61 6.082590e-62 8.633878e-62 2.760976e-62 2.740053e-62 1.045045e-62 6.789545e-62 6.488661e-61 1.446464e-59 1.178674e-58 2.320593e-57 1.472174e-56 2.590677e-55 1.200799e-54 1.745682e-53 5.568064e-53 8.088312e-52 2.603809e-51 4.664069e-50 1.152661e-49 1.585688e-48 2.049352e-48 1.875200e-47 1.080383e-47 5.529452e-47 1.234884e-47 2.190482e-47 2.865780e-48 1.425401e-48 1.986739e-49 7.074974e-49 -1.519200e-47 2.889659e-46 -5.373382e-45 7.535476e-44 -1.051715e-42 1.039404e-41 -1.049770e-40 6.722906e-40 -4.599436e-39 1.598466e-38 -6.327134e-38 7.011138e-38 1.479215e-38 -2.188948e-37 -8.386248e-36 -1.652874e-34 3.661724e-34 2.441331e-33 -1.393032e-32 5.775020e-32 -1.718469e-31 3.458681e-31 -1.311392e-31 -1.180755e-32 -4.239455e-34 1.216841e-35 -1.320744e-35 4.620630e-36 -1.064714e-36 1.574611e-37 3.097101e-38 -1.068162e-38 -1.523842e-40 -6.458668e-44 -3.114754e-43 -8.628309e-43 9.566688e-43 -2.256723e-43 5.843865e-44 -7.492891e-45 1.021951e-45 -8.779682e-47 7.707136e-48 -4.778459e-49 2.950328e-50 -1.371513e-51 6.240538e-53 -2.221597e-54 7.645048e-56 -2.108267e-57 5.566379e-59 -1.195941e-60 2.441395e-62 -4.097165e-64 6.494203e-66 -8.525425e-68 1.052455e-69 -1.083065e-71 1.045302e-73 -8.469447e-76 6.430300e-78 -4.135006e-80 2.492898e-82 -1.286599e-84 6.221006e-87 -2.599950e-89 1.008714e-91 -3.263530e-94 5.214234e-94 1.992977e-92 7.399507e-91 2.715113e-89 9.459191e-88 3.234123e-86 1.019956e-84 3.149951e-83 8.644505e-82 2.335312e-80 5.360900e-79 1.239293e-77 2.317868e-76 4.578410e-75 6.905774e-74 1.177567e-72 1.424403e-71 2.115979e-70 2.026251e-69 
6.740594e-67 4.980251e-66 5.459071e-65 2.932633e-64 2.638378e-63 9.547149e-63 6.684170e-62 1.445688e-61 7.166027e-61 7.690018e-61 2.208188e-60 1.029014e-60 1.322582e-60 3.916900e-61 3.609672e-61 1.572522e-61 1.452596e-60 1.561780e-59 3.068917e-58 2.749187e-57 4.779667e-56 3.416056e-55 5.172630e-54 2.669401e-53 3.235454e-52 1.189287e-51 1.435762e-50 5.801694e-50 7.894939e-49 2.412310e-48 2.459027e-47 3.893442e-47 2.675317e-46 1.781723e-46 7.272576e-46 1.470415e-46 2.590508e-46 1.805302e-47 1.724318e-47 2.063915e-48 5.759303e-49 1.663053e-47 -3.624694e-46 7.912243e-45 -1.272389e-43 2.052509e-42 -2.311134e-41 2.666176e-40 -1.938505e-39 1.494549e-38 -6.014785e-38 2.722096e-37 -4.080000e-37 1.036926e-36 -3.435487e-36 -5.682089e-35 -1.340866e-33 4.061178e-33 -1.561967e-32 4.179312e-32 -1.478215e-31 5.184628e-31 -1.248968e-30 4.624168e-31 3.444140e-32 2.998982e-33 1.410715e-34 5.223957e-35 -1.502175e-35 4.089314e-36 -1.372000e-36 3.180693e-37 -8.944098e-38 -7.805285e-40 -9.703169e-41 1.350282e-41 5.094211e-42 -4.805303e-42 9.920381e-43 -2.219912e-43 2.518493e-44 -3.024017e-45 2.268644e-46 -1.746835e-47 9.342655e-49 -5.024183e-50 1.992855e-51 -7.830181e-53 2.349896e-54 -6.907369e-56 1.585075e-57 -3.534079e-59 6.249671e-61 -1.068034e-62 1.466919e-64 -1.939959e-66 2.086297e-68 -2.154144e-70 1.827245e-72 -1.484186e-74 9.975886e-77 -6.422158e-79 3.406186e-81 -1.778482e-83 6.950549e-86 -3.502512e-88 3.087854e-91 -8.967075e-93 7.570633e-96 2.868920e-93 1.272098e-91 5.400046e-90 2.272745e-88 9.080713e-87 3.530274e-85 1.264060e-83 4.381735e-82 1.342558e-80 3.994457e-79 1.000261e-77 2.489141e-76 4.953254e-75 1.031411e-73 1.620645e-72 2.861303e-71 3.547365e-70 5.365415e-69 5.200672e-68 
1.649247e-65 1.221759e-64 1.314599e-63 7.026292e-63 6.084199e-62 2.173244e-61 1.434715e-60 3.032902e-60 1.388375e-59 1.438509e-59 3.734942e-59 1.647623e-59 1.915824e-59 5.216772e-60 4.494103e-60 2.497276e-60 3.004523e-59 3.478521e-58 6.192100e-57 5.978748e-56 9.423747e-55 7.326714e-54 9.761904e-53 5.389964e-52 5.617144e-51 2.285219e-50 2.394887e-49 1.122141e-48 1.245276e-47 4.329867e-47 3.519652e-46 6.349765e-46 3.471091e-45 2.544189e-45 8.495492e-45 1.466821e-45 2.626400e-45 -6.528890e-48 1.898932e-46 1.128237e-47 1.478608e-47 -4.603865e-48 2.425326e-46 -5.577537e-45 1.245279e-43 -2.425232e-42 3.619816e-41 -4.707039e-40 4.388083e-39 -3.556127e-38 1.833440e-37 -8.279088e-37 1.746484e-36 -2.989736e-36 -4.197923e-36 -1.148652e-34 6.267492e-34 -1.965653e-33 4.712698e-33 -1.306132e-32 7.550587e-32 -1.112112e-30 3.862707e-30 -1.466980e-30 -8.804289e-32 -1.285955e-32 -1.619063e-33 -2.962309e-34 1.430025e-35 -3.510704e-36 1.013552e-36 -2.584561e-37 1.010117e-37 6.282411e-39 2.719833e-40 6.425771e-41 -4.318270e-41 1.902012e-41 -3.708215e-42 6.289746e-43 -6.719619e-44 6.253522e-45 -4.146141e-46 2.404465e-47 -1.061814e-48 4.111560e-50 -1.268901e-51 3.439741e-53 -7.766983e-55 1.548527e-56 -2.719992e-58 4.259369e-60 -6.250154e-62 8.141458e-64 -1.028076e-65 1.107106e-67 -1.186317e-69 9.727673e-72 -9.765235e-74 3.992751e-76 -8.361956e-78 -3.541877e-80 -1.218635e-81 -1.198599e-83 -2.024024e-85 -2.032112e-87 -2.741759e-89 -2.530891e-91 -2.452713e-93 1.222784e-92 6.931935e-91 3.263520e-89 1.638079e-87 7.579372e-86 3.446134e-84 1.416215e-82 5.627004e-81 1.940143e-79 6.445743e-78 1.766633e-76 4.766649e-75 1.008752e-73 2.221381e-72 3.629878e-71 6.641943e-70 8.428182e-69 1.297591e-67 1.272484e-66 
3.963029e-64 2.938537e-63 3.105860e-62 1.648198e-61 1.376730e-60 4.840347e-60 3.024121e-59 6.222626e-59 2.641486e-58 2.629574e-58 6.184692e-58 2.570993e-58 2.703584e-58 6.726939e-59 5.466760e-59 4.264898e-59 6.060706e-58 7.296152e-57 1.217326e-55 1.234877e-54 1.819270e-53 1.480555e-52 1.787753e-51 1.016474e-50 9.448734e-50 4.088374e-49 3.890230e-48 1.982291e-47 1.912155e-46 7.110275e-46 4.925888e-45 9.576623e-45 4.416056e-44 3.427816e-44 9.728499e-44 1.370718e-44 2.610060e-44 -1.986471e-45 2.225823e-45 1.108853e-49 2.109972e-46 7.794702e-47 8.154341e-46 5.470695e-46 -1.673731e-44 4.378905e-43 -9.965321e-42 1.832078e-40 -2.559518e-39 2.944751e-38 -2.276271e-37 1.513760e-36 -6.195045e-36 2.764072e-35 -5.818059e-35 -2.170093e-34 -1.517314e-33 2.600552e-34 -1.364781e-33 3.383713e-32 4.262597e-31 1.979674e-30 -9.797789e-30 3.634182e-30 1.896081e-31 3.396855e-32 6.656027e-33 1.288155e-33 1.517326e-34 1.152704e-35 -4.137578e-37 9.166434e-38 -8.320816e-38 1.375441e-38 2.500936e-39 -9.723409e-40 1.869941e-40 -3.957709e-41 5.057327e-42 -5.646774e-43 4.171094e-44 -2.590393e-45 1.183623e-46 -4.488703e-48 1.428893e-49 -3.752213e-51 9.693519e-53 -2.033358e-54 4.500908e-56 -7.820809e-58 1.349001e-59 -2.060429e-61 1.888521e-63 -5.373190e-65 -6.471145e-67 -2.553038e-68 -7.186126e-70 -1.437001e-71 -3.723543e-73 -6.175176e-75 -1.308412e-76 -1.897730e-78 -3.316926e-80 -4.240131e-82 -6.238041e-84 -7.059597e-86 -8.900603e-88 -8.971986e-90 -9.267742e-92 3.438560e-92 4.277016e-90 1.832290e-88 1.128370e-86 6.041236e-85 3.226459e-83 1.542619e-81 7.049723e-80 2.766150e-78 1.028080e-76 3.100428e-75 9.062138e-74 2.040049e-72 4.741609e-71 8.044855e-70 1.522639e-68 1.973946e-67 3.088961e-66 3.059465e-65 
9.165261e-63 6.802268e-62 7.059411e-61 3.721226e-60 2.998707e-59 1.038046e-58 6.142028e-58 1.229323e-57 4.842236e-57 4.620636e-57 9.829680e-57 3.831908e-57 3.638582e-57 8.193737e-58 6.385747e-58 7.550854e-58 1.165248e-56 1.447359e-55 2.289630e-54 2.422442e-53 3.353671e-52 2.808385e-51 3.091599e-50 1.782562e-49 1.496100e-48 6.788134e-48 5.947542e-47 3.211358e-46 2.749059e-45 1.065541e-44 6.442223e-44 1.313482e-43 5.221896e-43 4.183898e-43 1.023231e-42 1.066291e-43 2.342927e-43 -3.554351e-44 2.352060e-44 -1.318763e-45 2.752030e-45 1.925735e-45 1.219902e-44 -8.194478e-46 2.215321e-45 8.439615e-45 -1.915712e-42 3.996320e-44 7.090176e-41 -8.361695e-40 1.242539e-38 -9.139673e-38 -1.350728e-36 -1.227235e-35 -1.955502e-35 -6.527755e-34 -3.281547e-33 3.682917e-34 -2.270322e-33 -2.145605e-31 -1.523286e-30 -5.442387e-30 2.543341e-29 -8.450139e-30 -4.101919e-31 -7.621752e-32 -1.701372e-32 -3.543039e-33 -6.343143e-34 -7.770945e-35 -7.640564e-37 3.441815e-37 -1.404850e-37 5.415224e-39 1.923486e-39 3.517359e-40 3.301425e-41 3.938308e-43 -1.914346e-43 -2.068479e-44 -3.199127e-46 -6.308000e-47 -6.843147e-49 -4.356602e-50 -1.546709e-51 1.945751e-53 -1.617404e-54 1.800860e-56 -4.166283e-57 -1.311537e-58 -1.232901e-59 -4.248825e-61 -2.189564e-62 -6.549496e-64 -2.427917e-65 -6.188868e-67 -1.782020e-68 -3.876176e-70 -9.012472e-72 -1.681312e-73 -3.238861e-75 -5.216031e-77 -8.485979e-79 -1.188166e-80 -1.657593e-82 -2.032814e-84 -2.463574e-86 -2.667152e-88 -2.725460e-90 -5.603711e-91 4.011107e-89 6.708890e-88 6.907947e-86 4.003735e-84 2.663717e-82 1.499301e-80 8.153235e-79 3.682981e-77 1.563051e-75 5.205151e-74 1.663941e-72 3.976035e-71 9.792578e-70 1.719922e-68 3.371410e-67 4.456045e-66 7.087319e-65 7.083408e-64 
2.093299e-61 1.553381e-60 1.583178e-59 8.280242e-59 6.447919e-58 2.194467e-57 1.233160e-56 2.395595e-56 8.779441e-56 8.007117e-56 1.539501e-55 5.606818e-56 4.794753e-56 9.714371e-57 7.409008e-57 1.354725e-56 2.164726e-55 2.741585e-54 4.193769e-53 4.552361e-52 6.007473e-51 5.064651e-50 5.168883e-49 2.966444e-48 2.295628e-47 1.069249e-46 8.824797e-46 4.906890e-45 3.849063e-44 1.517854e-43 8.289809e-43 1.733457e-42 6.139162e-42 5.007502e-42 1.080302e-41 7.775680e-43 2.140813e-42 -4.682669e-43 2.505126e-43 -2.399140e-44 3.819251e-44 4.178254e-44 1.891516e-43 -3.064921e-44 9.970142e-44 -3.226647e-42 -5.000795e-41 2.509938e-40 1.103846e-40 4.420016e-38 1.360322e-37 1.507214e-36 5.776441e-36 3.584079e-35 1.082672e-34 -5.560998e-34 -1.115982e-32 2.898565e-33 2.000986e-31 1.013717e-30 5.404721e-30 1.419009e-29 -6.455811e-29 1.947165e-29 8.631619e-31 1.713225e-31 4.344554e-32 9.623273e-33 2.399837e-33 3.979948e-34 7.212319e-35 3.080453e-36 -7.375642e-37 2.796989e-38 -2.338489e-39 -6.957259e-40 -1.237944e-40 -2.638857e-41 -2.305069e-42 -1.958005e-43 -6.767598e-45 -2.728093e-46 -8.571934e-49 7.991401e-50 1.510064e-50 5.791672e-52 1.218472e-53 -1.557979e-55 -7.098001e-56 -4.043703e-57 -2.587045e-58 -1.035230e-59 -4.484665e-61 -1.451357e-62 -4.848591e-64 -1.306736e-65 -3.521934e-67 -8.010583e-69 -1.786675e-70 -3.465023e-72 -6.513465e-74 -1.087201e-75 -1.747476e-77 -2.532118e-79 -3.521684e-81 -4.465448e-83 -5.429485e-85 -6.071079e-87 -6.249561e-89 -2.301194e-89 7.489590e-88 -2.190626e-87 5.442192e-85 2.439998e-83 2.164177e-81 1.426799e-79 9.301881e-78 4.902835e-76 2.381571e-74 8.802717e-73 3.069775e-71 7.776993e-70 2.021947e-68 3.668532e-67 7.422019e-66 9.984606e-65 1.609988e-63 1.621677e-62 
4.643945e-60 3.444811e-59 3.447983e-58 1.789974e-57 1.347713e-56 4.512317e-56 2.410720e-55 4.545800e-55 1.550976e-54 1.349843e-54 2.339082e-54 7.910370e-55 6.078343e-55 1.094083e-55 8.468985e-56 2.397516e-55 3.849520e-54 4.981335e-53 7.393741e-52 8.194176e-51 1.029011e-49 8.663886e-49 8.209716e-48 4.664092e-47 3.346616e-46 1.591975e-45 1.243669e-44 7.059396e-44 5.115611e-43 2.036129e-42 1.015853e-41 2.155541e-41 6.889457e-41 5.650719e-41 1.088706e-40 4.357235e-42 1.867699e-41 -5.168786e-42 2.420589e-42 -2.985412e-43 4.845504e-43 7.344230e-43 2.686050e-42 -4.460862e-43 4.450256e-42 -1.128476e-40 -1.197465e-39 -2.006946e-38 -6.618768e-38 -4.646631e-37 4.283644e-37 -1.181550e-36 2.955811e-36 6.198492e-36 5.621947e-36 -1.100274e-35 -3.198225e-32 -1.137464e-31 -6.808398e-31 -2.570245e-30 -1.399581e-29 -4.750876e-29 1.653632e-28 -4.280368e-29 -1.800113e-30 -3.576207e-31 -9.202644e-32 -2.077373e-32 -5.401409e-33 -1.030566e-33 -2.507695e-34 -2.996477e-35 -4.910800e-36 1.520871e-37 -4.255524e-39 -2.544338e-40 8.505755e-43 5.975739e-42 1.158500e-42 2.409675e-43 2.293034e-44 2.494411e-45 1.427027e-46 9.522427e-48 3.361191e-49 1.348099e-50 7.559617e-53 -1.152705e-53 -1.506441e-54 -8.711202e-56 -4.505240e-57 -1.897830e-58 -7.266172e-60 -2.475073e-61 -7.612592e-63 -2.153406e-64 -5.477365e-66 -1.304983e-67 -2.794580e-69 -5.672202e-71 -1.037098e-72 -1.811613e-74 -2.861064e-76 -4.339674e-78 -5.977389e-80 -7.934215e-82 -9.610117e-84 -1.124164e-85 -1.145362e-87 -6.827689e-88 1.733961e-86 -1.764958e-85 7.120629e-84 6.817610e-83 1.615827e-80 1.158600e-78 9.758089e-77 6.088378e-75 3.500658e-73 1.439454e-71 5.545108e-70 1.481918e-68 4.085186e-67 7.622446e-66 1.593737e-64 2.176206e-63 3.557835e-62 3.607040e-61 
1.022274e-58 7.576761e-58 7.445502e-57 3.835831e-56 2.795737e-55 9.208753e-55 4.687731e-54 8.580461e-54 2.730059e-53 2.266652e-53 3.528213e-53 1.104499e-53 7.586021e-54 1.206014e-54 9.854494e-55 4.129139e-54 6.618864e-53 8.705649e-52 1.267524e-50 1.417003e-49 1.707092e-48 1.418838e-47 1.262567e-46 7.036768e-46 4.742078e-45 2.274888e-44 1.704906e-43 9.757019e-43 6.665928e-42 2.657712e-41 1.238454e-40 2.653357e-40 7.823211e-40 6.479980e-40 1.132455e-39 2.156825e-41 1.718832e-40 -5.498433e-41 2.350500e-41 -3.129468e-42 6.515032e-42 1.444713e-41 4.650486e-41 -4.754032e-42 3.192584e-40 6.456561e-40 2.430120e-38 2.097593e-37 3.352988e-37 4.123858e-36 -4.541559e-36 7.427803e-36 1.302728e-36 2.433123e-35 1.125213e-34 -1.060816e-33 -1.085197e-32 4.880229e-32 7.681434e-31 1.902683e-30 2.515055e-29 1.924549e-28 -4.454230e-28 9.585152e-29 3.890740e-30 7.561951e-31 1.889482e-31 4.132278e-32 1.016090e-32 1.887049e-33 4.174285e-34 5.667315e-35 8.909445e-36 2.966665e-37 -2.419386e-38 -3.653366e-39 -3.001624e-40 -5.216834e-41 -5.812811e-42 -7.922523e-43 -7.529442e-44 -7.609320e-45 -5.839331e-46 -4.544107e-47 -2.927457e-48 -1.876423e-49 -1.060605e-50 -5.850442e-52 -2.898674e-53 -1.373270e-54 -5.801005e-56 -2.320353e-57 -8.211451e-59 -2.752974e-60 -8.154054e-62 -2.299262e-63 -5.746347e-65 -1.374844e-66 -2.931577e-68 -6.012385e-70 -1.105862e-71 -1.963014e-73 -3.144379e-75 -4.871050e-77 -6.848309e-79 -9.321105e-81 -1.157472e-82 -1.391984e-84 -1.394842e-86 -1.820584e-86 4.203617e-85 -5.480597e-84 1.571203e-82 -1.374360e-81 1.558402e-79 8.786859e-78 1.033363e-75 7.655742e-74 5.256642e-72 2.407897e-70 1.019811e-68 2.864175e-67 8.319541e-66 1.592168e-64 3.422596e-63 4.736619e-62 7.823081e-61 7.976501e-60 
2.203904e-57 1.631314e-56 1.574578e-55 8.053192e-55 5.687999e-54 1.844960e-53 8.963110e-53 1.594354e-52 4.735356e-52 3.750708e-52 5.224355e-52 1.502487e-52 9.192533e-53 1.269052e-53 1.164628e-53 6.908970e-53 1.099641e-51 1.474467e-50 2.103605e-49 2.363396e-48 2.723920e-47 2.228019e-46 1.863262e-45 1.017355e-44 6.460986e-44 3.122520e-43 2.251474e-42 1.297215e-41 8.399629e-41 3.351410e-40 1.470992e-39 3.172821e-39 8.732685e-39 7.278595e-39 1.170614e-38 3.168347e-41 1.584665e-39 -5.526066e-40 2.178108e-40 -2.844963e-41 8.524262e-41 2.786303e-40 8.870680e-40 -4.665885e-40 9.737469e-39 3.200974e-37 -7.185658e-37 -2.332406e-36 4.405104e-36 -3.530947e-35 2.876968e-35 -2.153458e-35 4.260332e-36 -1.543345e-36 -3.647116e-36 -1.806114e-33 -9.955661e-32 -3.863792e-31 4.710744e-30 2.931814e-29 5.678960e-29 -7.877607e-28 1.257908e-27 -2.141271e-28 -8.755861e-30 -1.613276e-30 -3.842474e-31 -7.841734e-32 -1.773179e-32 -2.984876e-33 -5.611347e-34 -5.644588e-35 -5.401423e-36 -2.971837e-38 -2.043196e-39 -8.051219e-40 -1.251390e-40 -3.075781e-41 -4.647929e-42 -8.549329e-43 -1.065589e-43 -1.469507e-44 -1.451605e-45 -1.519699e-46 -1.185170e-47 -9.588251e-49 -5.956232e-50 -3.794254e-51 -1.902007e-52 -9.712162e-54 -3.984152e-55 -1.658215e-56 -5.646120e-58 -1.945850e-59 -5.576978e-61 -1.615387e-62 -3.949748e-64 -9.747474e-66 -2.058034e-67 -4.378988e-69 -8.065235e-71 -1.493849e-72 -2.418903e-74 -3.928106e-76 -5.622530e-78 -8.045030e-80 -1.021616e-81 -1.292606e-83 -1.144096e-85 -4.619769e-85 1.009167e-83 -1.533446e-82 3.904864e-81 -5.943807e-80 2.276266e-78 3.277577e-77 1.023763e-74 8.799213e-73 7.752415e-71 3.937445e-69 1.863468e-67 5.450134e-66 1.675370e-64 3.269150e-63 7.232958e-62 1.011123e-60 1.687308e-59 1.727367e-58 
4.733214e-56 3.499490e-55 3.315141e-54 1.684448e-53 1.153765e-52 3.690672e-52 1.714106e-51 2.970360e-51 8.244223e-51 6.250111e-51 7.748545e-51 2.042090e-51 1.103558e-51 1.314238e-52 1.424553e-52 1.114092e-51 1.770553e-50 2.410682e-49 3.389583e-48 3.796417e-47 4.211313e-46 3.372485e-45 2.673213e-44 1.424580e-43 8.594119e-43 4.152958e-42 2.907463e-41 1.680845e-40 1.047228e-39 4.188894e-39 1.760461e-38 3.845419e-38 1.004437e-37 8.578484e-38 1.283419e-37 2.588619e-40 1.582061e-38 -5.772765e-39 2.074394e-39 -2.406775e-40 1.162132e-39 7.231090e-39 2.494579e-38 -3.700547e-37 -2.029724e-36 -1.331144e-35 7.698726e-36 3.168463e-35 -1.049505e-34 2.286898e-34 -1.329111e-34 6.037764e-35 -4.695293e-36 3.115509e-35 3.808313e-34 -9.261305e-33 -3.719973e-31 -5.101928e-30 -5.645479e-29 -3.302218e-28 -1.107961e-27 3.509415e-27 -3.796104e-27 5.047356e-28 2.125152e-29 3.724958e-30 8.197346e-31 1.552324e-31 3.101313e-32 4.836433e-33 7.651711e-34 7.851385e-35 5.649293e-36 1.215519e-37 -4.443939e-39 -3.962853e-40 -3.947934e-41 -9.763229e-42 -1.597289e-42 -3.261033e-43 -4.421628e-44 -6.678674e-45 -7.105432e-46 -8.019738e-47 -6.697999e-48 -5.780855e-49 -3.841934e-50 -2.599948e-51 -1.399794e-52 -7.610230e-54 -3.381907e-55 -1.510206e-56 -5.636514e-58 -2.106814e-59 -6.700022e-61 -2.127306e-62 -5.825961e-64 -1.587801e-65 -3.771072e-67 -8.883024e-69 -1.837584e-70 -3.757969e-72 -6.789899e-74 -1.209276e-75 -1.912316e-77 -2.973444e-79 -4.123586e-81 -5.614966e-83 1.546107e-86 -1.115602e-83 2.390903e-82 -4.034299e-81 9.860151e-80 -1.754134e-78 5.215263e-77 -5.407264e-76 1.155684e-73 1.009804e-71 1.204132e-69 6.700754e-68 3.514148e-66 1.062939e-64 3.424916e-63 6.794271e-62 1.536225e-60 2.166742e-59 3.636121e-58 3.736178e-57 
1.002971e-54 7.401494e-54 6.887847e-53 3.477826e-52 2.313831e-51 7.308513e-51 3.252338e-50 5.503416e-50 1.430070e-49 1.040500e-49 1.143751e-49 2.737485e-50 1.299826e-50 1.302998e-51 1.792898e-51 1.752399e-50 2.782657e-49 3.852116e-48 5.322790e-47 5.929086e-46 6.318697e-45 4.950971e-44 3.724196e-43 1.937604e-42 1.113964e-41 5.389358e-41 3.676546e-40 2.136652e-39 1.288091e-38 5.176124e-38 2.101851e-37 4.654056e-37 1.169435e-36 1.024989e-36 1.453193e-36 1.176319e-38 1.655562e-37 -6.086243e-38 2.006719e-38 -2.119734e-39 1.191866e-38 2.201153e-37 2.426872e-36 2.720217e-35 9.088310e-35 3.383584e-34 1.168904e-35 -4.830826e-34 1.108634e-33 -1.367786e-33 5.497427e-34 -1.765478e-34 1.714291e-35 -6.106761e-36 -4.345054e-35 -1.147601e-33 3.328258e-31 1.430401e-29 3.502582e-28 2.192441e-27 1.005075e-26 -1.545487e-26 1.212420e-26 -1.199139e-27 -5.563483e-29 -9.047976e-30 -1.848740e-30 -3.111343e-31 -5.474348e-32 -7.232161e-33 -9.416546e-34 -7.425646e-35 -3.975566e-36 -3.555130e-38 -1.606092e-40 -4.344278e-41 -7.792173e-42 -2.215096e-42 -4.258265e-43 -9.789822e-44 -1.506982e-44 -2.564502e-45 -3.085952e-46 -3.955984e-47 -3.755661e-48 -3.718663e-49 -2.823138e-50 -2.206378e-51 -1.356974e-52 -8.519733e-54 -4.294906e-55 -2.198225e-56 -9.182423e-58 -3.880538e-59 -1.357192e-60 -4.790832e-62 -1.416734e-63 -4.220993e-65 -1.064862e-66 -2.702210e-68 -5.860447e-70 -1.276287e-71 -2.394506e-73 -4.502669e-75 -7.344298e-77 -1.198205e-78 -1.705901e-80 -2.432089e-82 1.216252e-83 -2.620453e-82 5.569384e-81 -1.028004e-79 2.461490e-78 -4.874691e-77 1.343254e-75 -2.700020e-74 1.533626e-72 8.974621e-71 1.896771e-68 1.127325e-66 6.680120e-65 2.062000e-63 6.988202e-62 1.399637e-60 3.236236e-59 4.587834e-58 7.743695e-57 7.970318e-56 
2.123898e-53 1.565606e-52 1.429386e-51 7.183327e-51 4.643178e-50 1.452223e-49 6.199998e-49 1.029440e-48 2.506692e-48 1.764079e-48 1.709657e-48 3.712114e-49 1.529169e-49 1.276183e-50 2.310107e-50 2.659320e-49 4.246658e-48 5.953859e-47 8.111618e-46 8.946953e-45 9.207839e-44 7.051813e-43 5.067098e-42 2.572584e-41 1.416033e-40 6.830280e-40 4.570911e-39 2.676428e-38 1.580461e-37 6.429782e-37 2.556100e-36 5.813945e-36 1.423936e-35 1.316500e-35 1.783087e-35 5.869017e-37 1.929878e-36 -6.980163e-37 2.044620e-37 -1.803786e-38 -3.132972e-37 -9.440919e-36 -7.856880e-35 -6.131251e-34 -1.832787e-33 -5.255628e-33 -2.330658e-33 5.487882e-33 -9.466507e-33 7.206459e-33 -2.069886e-33 4.585793e-34 -2.212165e-35 5.737806e-35 1.223558e-33 -6.028424e-32 -7.387204e-30 -1.948357e-28 -2.745391e-27 -1.400046e-26 -7.761073e-26 7.479408e-26 -4.182133e-26 3.062862e-27 1.625806e-28 2.502351e-29 4.611944e-30 7.032673e-31 1.058372e-31 1.260293e-32 1.340460e-33 9.994864e-35 3.959072e-36 5.553230e-38 -1.085924e-39 -4.867579e-41 -2.589061e-42 -4.842779e-43 -8.732543e-44 -2.046062e-44 -3.322941e-45 -5.953985e-46 -7.480315e-47 -9.994327e-48 -9.736720e-49 -9.887539e-50 -7.569461e-51 -5.961376e-52 -3.635379e-53 -2.261009e-54 -1.113214e-55 -5.559481e-57 -2.240122e-58 -9.126206e-60 -3.050881e-61 -1.029453e-62 -2.894523e-64 -8.209529e-66 -1.968194e-67 -4.760613e-69 -9.868111e-71 -2.065348e-72 -3.754678e-74 -6.898452e-76 -1.115164e-77 -1.821959e-79 -2.647932e-81 -5.524960e-83 3.196984e-82 -5.895280e-81 1.265346e-79 -2.509125e-78 6.023188e-77 -1.292111e-75 3.512328e-74 -8.140969e-73 3.031492e-71 4.261692e-70 3.289552e-67 2.013582e-65 1.325273e-63 4.139782e-62 1.455310e-60 2.935454e-59 6.878254e-58 9.793878e-57 1.653202e-55 1.704678e-54 
4.467446e-52 3.286072e-51 2.947307e-50 1.474329e-49 9.278194e-49 2.877421e-48 1.181998e-47 1.932203e-47 4.422701e-47 3.028306e-47 2.584434e-47 5.046189e-48 1.788788e-48 1.191266e-49 3.036821e-49 3.977326e-48 6.391082e-47 9.068409e-46 1.214528e-44 1.324600e-43 1.315754e-42 9.851993e-42 6.776456e-41 3.360318e-40 1.778018e-39 8.572559e-39 5.655741e-38 3.347188e-37 1.949516e-36 8.056532e-36 3.169623e-35 7.426819e-35 1.802295e-34 1.763613e-34 2.338852e-34 1.520143e-35 2.500216e-35 -8.570907e-36 2.293852e-36 1.894833e-36 2.762964e-35 3.288928e-34 1.904284e-33 1.120483e-32 2.795647e-32 6.681200e-32 4.553203e-32 -5.147741e-32 6.774799e-32 -3.706385e-32 7.995843e-33 -1.349297e-33 7.624518e-35 -2.599256e-35 -6.973102e-35 6.547675e-31 3.975381e-29 1.139634e-27 2.920298e-26 5.833196e-26 5.519088e-25 -3.538679e-25 1.521755e-25 -7.798283e-27 -5.233613e-28 -7.408749e-29 -1.251987e-29 -1.651003e-30 -2.154384e-31 -2.124735e-32 -1.889065e-33 -1.123368e-34 -4.048083e-36 -5.156608e-38 -5.770444e-41 -4.022285e-42 -3.694419e-43 -7.292579e-44 -1.418814e-44 -3.512217e-45 -6.148019e-46 -1.180279e-46 -1.584853e-47 -2.261323e-48 -2.344490e-49 -2.542520e-50 -2.077682e-51 -1.758473e-52 -1.156635e-53 -7.831566e-55 -4.230842e-56 -2.343770e-57 -1.059214e-58 -4.893780e-60 -1.878364e-61 -7.347518e-63 -2.421955e-64 -8.106971e-66 -2.311714e-67 -6.667902e-69 -1.652006e-70 -4.123992e-72 -8.899508e-74 -1.927883e-75 -3.628758e-77 -6.832825e-79 -1.122017e-80 -5.192530e-82 6.644602e-81 -1.302063e-79 2.834586e-78 -6.012072e-77 1.456553e-75 -3.360404e-74 9.123518e-73 -2.303657e-71 7.407220e-70 -1.661918e-68 6.032615e-66 3.604009e-64 2.680941e-62 8.346757e-61 3.048592e-59 6.148100e-58 1.460110e-56 2.079683e-55 3.511488e-54 3.619050e-53 