# vtk DataFile Version 2.0
Comment goes here
ASCII

DATASET STRUCTURED_POINTS
DIMENSIONS    128   128   1

ORIGIN    0.000   0.000   0.000
SPACING   0.0156250.015625   1.000

POINT_DATA   16384
SCALARS Concentration double
LOOKUP_TABLE default

3.312521e-77 2.946008e-76 3.048071e-75 2.243684e-74 1.984301e-73 1.141263e-72 8.253965e-72 3.396172e-71 1.885865e-70 4.871129e-70 1.921458e-69 2.800896e-69 7.666127e-69 7.838401e-69 1.770760e-68 1.580762e-68 3.348363e-68 2.829170e-68 5.936080e-68 4.905896e-68 1.050720e-67 8.640575e-68 1.926860e-67 1.579578e-67 3.666663e-67 2.859762e-67 6.376772e-67 3.880882e-67 5.747836e-67 1.880665e-67 9.087134e-68 1.863848e-68 4.013518e-69 6.646933e-70 1.983232e-69 3.017662e-69 5.980014e-68 3.906649e-68 4.212542e-67 1.123559e-67 2.804916e-67 4.499948e-68 6.829926e-69 5.873193e-70 3.810283e-71 9.175093e-73 -6.154261e-74 -1.017941e-72 1.705126e-71 -2.885086e-70 2.440477e-69 -1.647794e-68 3.831243e-68 -1.401121e-68 -3.269741e-71 3.417719e-71 1.594659e-72 -5.310748e-73 7.686548e-71 -1.893807e-69 3.750574e-68 -2.072959e-67 -3.597904e-67 -1.989558e-67 -2.889878e-68 -2.047802e-69 1.669520e-70 -1.062941e-71 7.225476e-73 -2.825238e-74 9.883593e-76 -1.419948e-77 1.328167e-79 -4.022854e-80 1.424157e-83 9.141689e-84 6.035412e-83 -2.348011e-83 3.222778e-84 -3.614882e-85 2.081060e-86 -1.165653e-87 3.984396e-89 -1.346497e-90 3.063934e-92 -6.928844e-94 1.148327e-95 -1.944533e-97 2.658701e-99 -3.796753e-101 4.472840e-103 -5.191132e-105 4.637562e-107 -3.849808e-109 2.311853e-111 -1.260834e-113 4.703245e-116 2.377275e-117 6.886145e-116 1.919206e-114 5.332136e-113 1.491750e-111 4.151427e-110 1.141622e-108 3.119642e-107 8.267398e-106 2.179254e-104 5.471893e-103 1.371595e-101 3.221097e-100 7.601522e-99 1.655585e-97 3.657028e-96 7.353016e-95 1.516282e-93 2.808818e-92 5.402662e-91 9.210687e-90 1.651708e-88 2.587259e-87 4.319447e-86 6.193966e-85 9.594572e-84 1.250712e-82 1.786390e-81 2.092415e-80 2.728947e-79 2.821786e-78 
1.267650e-75 1.129050e-74 1.162718e-73 8.534573e-73 7.460967e-72 4.262592e-71 3.025506e-70 1.232811e-69 6.666858e-69 1.702077e-68 6.484721e-68 9.335984e-68 2.452003e-67 2.469215e-67 5.336070e-67 4.681138e-67 9.463835e-67 7.852693e-67 1.570231e-66 1.275611e-66 2.601922e-66 2.109027e-66 4.478856e-66 3.635041e-66 8.034465e-66 6.225777e-66 1.319505e-65 7.903985e-66 1.110011e-65 3.403181e-66 1.550517e-66 2.855524e-67 5.794427e-68 1.105892e-68 7.020031e-68 1.437228e-67 2.162603e-66 1.788285e-66 1.584604e-65 4.576286e-66 1.191728e-65 1.862400e-66 3.048432e-67 3.026901e-68 2.794665e-69 1.647820e-70 7.875755e-72 2.403287e-71 -3.866596e-70 6.651687e-69 -5.597485e-68 4.228702e-67 -1.019830e-66 7.381252e-67 -6.640313e-69 2.783580e-69 1.813870e-70 1.209347e-70 -3.026923e-69 6.050882e-68 -1.030804e-66 5.397903e-66 7.045310e-66 3.483398e-66 4.814956e-67 3.936661e-68 -2.838640e-69 1.924967e-70 -1.486322e-71 6.862372e-73 -3.062795e-74 7.099587e-76 -1.680648e-77 -3.292106e-78 -1.727273e-80 -9.759567e-82 -1.267373e-81 5.508929e-82 -7.078256e-83 8.069016e-84 -4.572331e-85 2.603870e-86 -8.770623e-88 2.976209e-89 -6.408855e-91 1.361818e-92 -1.815374e-94 2.190559e-96 -1.121244e-98 -5.790096e-101 2.723916e-102 -4.206485e-104 3.952278e-106 -3.105764e-108 1.616258e-110 -7.511691e-113 2.203902e-115 2.458858e-116 7.351378e-115 2.214289e-113 6.621260e-112 2.000668e-110 5.986353e-109 1.773033e-107 5.194052e-106 1.475830e-104 4.151807e-103 1.111252e-101 2.956345e-100 7.352459e-99 1.830377e-97 4.193311e-96 9.710918e-95 2.040398e-93 4.384688e-92 8.435486e-91 1.681025e-89 2.958958e-88 5.466276e-87 8.790629e-86 1.503471e-84 2.201230e-83 3.474134e-82 4.599619e-81 6.658170e-80 7.881960e-79 1.036135e-77 1.077798e-76 
4.627918e-74 4.133036e-73 4.228593e-72 3.099162e-71 2.673640e-70 1.519519e-69 1.056768e-68 4.270742e-68 2.245495e-67 5.674719e-67 2.084421e-66 2.967622e-66 7.463366e-66 7.409514e-66 1.527972e-65 1.318159e-65 2.536302e-65 2.067457e-65 3.927057e-65 3.135976e-65 6.069196e-65 4.847579e-65 9.761852e-65 7.839110e-65 1.641720e-64 1.262683e-64 2.528683e-64 1.488113e-64 1.965940e-64 5.595469e-65 2.378350e-65 3.823395e-66 7.429550e-67 2.221116e-67 2.274762e-66 5.749668e-66 6.828428e-65 6.873019e-65 4.991759e-64 1.555944e-64 3.950519e-64 5.670506e-65 9.244257e-66 9.745739e-67 1.018145e-67 6.857013e-69 2.526777e-70 -4.754453e-70 7.582045e-69 -1.233390e-67 1.057948e-66 -8.139268e-66 2.097092e-65 -2.611243e-65 4.401470e-67 1.292392e-67 1.266052e-68 2.409976e-69 6.564743e-68 -1.406671e-66 2.141652e-65 -1.162077e-64 -1.105630e-64 -4.981095e-65 -6.488952e-66 -6.388241e-67 3.418059e-68 -2.544801e-69 2.098173e-70 -1.102679e-71 4.954202e-73 -4.256048e-75 -5.724499e-76 -1.604226e-76 -1.691664e-78 6.388727e-80 1.552282e-80 -9.096682e-81 1.245202e-81 -1.431957e-82 8.661214e-84 -4.988728e-85 1.820689e-86 -6.392979e-88 1.557239e-89 -3.648534e-91 6.240502e-93 -1.022041e-94 1.248512e-96 -1.443091e-98 1.237951e-100 -9.869550e-103 5.680284e-105 -2.972662e-107 1.061015e-109 -3.337636e-112 6.380987e-115 2.025752e-115 6.526993e-114 2.145987e-112 7.036123e-111 2.316963e-109 7.575280e-108 2.435736e-106 7.753989e-105 2.378228e-103 7.219434e-102 2.071097e-100 5.898173e-99 1.559963e-97 4.122755e-96 9.965198e-95 2.430258e-93 5.347343e-92 1.201039e-90 2.403209e-89 4.970843e-88 9.044075e-87 1.722917e-85 2.847646e-84 4.991190e-83 7.470398e-82 1.200940e-80 1.617133e-79 2.369932e-78 2.839369e-77 3.755731e-76 3.935095e-75 
1.643340e-72 1.469920e-71 1.495165e-70 1.092859e-69 9.312954e-69 5.258698e-68 3.587861e-67 1.436225e-66 7.352626e-66 1.836755e-65 6.514172e-65 9.157493e-65 2.207911e-64 2.157144e-64 4.248979e-64 3.596894e-64 6.592652e-64 5.265722e-64 9.509678e-64 7.441820e-64 1.367945e-63 1.072692e-63 2.051009e-63 1.622659e-63 3.225273e-63 2.450120e-63 4.644694e-63 2.671040e-63 3.320590e-63 8.668095e-64 3.425961e-64 4.626868e-65 9.189288e-66 5.924751e-66 7.098311e-65 2.066715e-64 2.041745e-63 2.383732e-63 1.466789e-62 4.842762e-63 1.194024e-62 1.442642e-63 2.414243e-64 2.566994e-65 3.208079e-66 2.970404e-67 2.533451e-68 7.026266e-69 -9.296069e-68 1.569384e-66 -1.379152e-65 1.148324e-64 -3.178973e-64 7.167709e-64 -2.476056e-65 2.361623e-66 2.336416e-67 1.304197e-67 -1.942100e-66 2.916869e-65 -3.905274e-64 1.996050e-63 1.450638e-63 5.622760e-64 7.297692e-65 8.260306e-66 -2.755962e-67 2.622266e-68 -2.521424e-69 1.570766e-70 -9.942210e-72 3.925891e-73 -2.543029e-74 -3.609082e-75 -8.837397e-77 -2.275991e-78 2.031882e-81 9.550154e-80 -1.418267e-80 1.675953e-81 -1.000338e-82 5.722297e-84 -1.997120e-85 6.759326e-87 -1.506881e-88 3.250778e-90 -4.808755e-92 6.874304e-94 -6.895085e-96 6.683702e-98 -4.563539e-100 2.986433e-102 -1.324744e-104 5.484159e-107 -1.362125e-109 3.048079e-112 -3.323655e-115 1.426432e-114 5.064168e-113 1.852917e-111 6.706459e-110 2.446119e-108 8.788704e-107 3.109166e-105 1.080708e-103 3.616479e-102 1.189144e-100 3.686539e-99 1.127028e-97 3.188813e-96 8.963712e-95 2.295119e-93 5.900897e-92 1.363033e-90 3.201530e-89 6.671623e-88 1.432595e-86 2.695565e-85 5.295318e-84 8.994607e-83 1.615512e-81 2.470719e-80 4.045564e-79 5.536544e-78 8.215170e-77 9.952097e-76 1.324894e-74 1.396794e-73 
5.592537e-71 5.014060e-70 5.065404e-69 3.695781e-68 3.107368e-67 1.745027e-66 1.166535e-65 4.630096e-65 2.304837e-64 5.696802e-64 1.947893e-63 2.705717e-63 6.243099e-63 6.004949e-63 1.127452e-62 9.366132e-63 1.631426e-62 1.276477e-62 2.185960e-62 1.675356e-62 2.916342e-62 2.243190e-62 4.058973e-62 3.159942e-62 5.939273e-62 4.449271e-62 7.949733e-62 4.455786e-62 5.180833e-62 1.223407e-62 4.457574e-63 4.746240e-64 1.132934e-64 1.748693e-64 2.011652e-63 6.490976e-63 5.414723e-62 7.096869e-62 3.690282e-61 1.268763e-61 2.907492e-61 2.566880e-62 4.607999e-63 4.274451e-64 6.219392e-65 6.317083e-66 6.553950e-67 -1.784993e-68 9.897760e-67 -1.596685e-65 1.474106e-64 -1.195493e-63 3.568333e-63 -1.153477e-62 4.984382e-64 3.288748e-65 2.793505e-66 1.045668e-66 2.066931e-65 -3.761234e-64 5.313272e-63 -2.866675e-62 -1.545232e-62 -5.285507e-63 -6.865962e-64 -9.145068e-65 4.397700e-67 -2.296151e-67 2.153405e-68 -1.340394e-69 7.472300e-71 6.469723e-73 -4.133337e-73 -5.093791e-74 -9.591900e-76 9.079691e-77 -4.031817e-78 -5.099466e-79 1.188802e-79 -1.480160e-80 9.629211e-82 -5.438692e-83 2.003054e-84 -6.613491e-86 1.527168e-87 -3.161334e-89 4.688553e-91 -6.170063e-93 5.781710e-95 -4.712239e-97 2.633970e-99 -1.231310e-101 3.669096e-104 -7.738206e-107 1.416323e-109 6.761782e-113 -4.272601e-114 7.598560e-114 3.124736e-112 1.289974e-110 5.307481e-109 2.169620e-107 8.779522e-106 3.451090e-104 1.336287e-102 4.917973e-101 1.779561e-99 5.998360e-98 1.992373e-96 6.056825e-95 1.826807e-93 4.968915e-92 1.355140e-90 3.291729e-89 8.119035e-88 1.763800e-86 3.942323e-85 7.675714e-84 1.557374e-82 2.719642e-81 5.009521e-80 7.831055e-79 1.306310e-77 1.817605e-76 2.730017e-75 3.345652e-74 4.480190e-73 4.755592e-72 
1.855894e-69 1.666384e-68 1.672520e-67 1.216973e-66 1.010168e-65 5.636419e-65 3.695002e-64 1.452703e-63 7.039140e-63 1.719632e-62 5.674842e-62 7.779804e-62 1.719142e-61 1.625678e-61 2.910743e-61 2.368957e-61 3.922757e-61 3.000581e-61 4.874351e-61 3.649915e-61 6.019779e-61 4.528859e-61 7.761536e-61 5.926169e-61 1.054567e-60 7.761962e-61 1.309042e-60 7.125547e-61 7.746078e-61 1.634059e-61 5.458159e-62 4.173130e-63 1.664043e-63 5.196951e-63 5.475974e-62 1.883654e-61 1.372060e-60 1.946321e-60 8.773157e-60 3.076370e-60 6.547830e-60 3.238142e-61 8.303439e-62 5.256485e-63 1.166437e-63 1.175107e-64 1.554171e-65 1.851952e-66 -4.969735e-66 9.345952e-65 -9.401102e-64 8.610094e-63 -2.559055e-62 1.209050e-61 -8.023486e-63 2.696471e-64 6.899579e-66 2.511585e-65 -3.565007e-64 3.521504e-63 -6.126675e-62 3.217900e-61 1.349284e-61 3.980527e-62 5.424225e-63 8.014444e-64 2.074623e-65 2.441724e-66 -1.550480e-67 1.037088e-68 -9.159331e-70 5.440049e-71 -5.326707e-72 -3.789508e-73 -7.037741e-75 -5.327241e-76 4.364574e-77 4.801560e-79 -4.941790e-79 6.544720e-80 -4.049877e-81 2.126247e-82 -6.972708e-84 2.044586e-85 -3.977480e-87 6.936240e-89 -8.007612e-91 8.253750e-93 -5.293582e-95 3.153635e-97 -7.404891e-100 5.002415e-102 3.673901e-104 3.083013e-106 2.689131e-108 5.678699e-111 -2.702313e-112 2.992772e-113 1.665573e-111 7.960494e-110 3.742674e-108 1.751744e-106 8.019163e-105 3.564169e-103 1.543149e-101 6.332998e-100 2.529217e-98 9.366741e-97 3.386876e-95 1.114526e-93 3.610375e-92 1.048392e-90 3.033459e-89 7.772553e-88 2.012466e-86 4.565668e-85 1.061576e-83 2.140561e-82 4.482520e-81 8.049628e-80 1.519550e-78 2.427605e-77 4.123068e-76 5.830057e-75 8.860294e-74 1.097749e-72 1.478374e-71 1.578755e-70 
5.931709e-68 5.336054e-67 5.317221e-66 3.860463e-65 3.160940e-64 1.753409e-63 1.126183e-62 4.388307e-62 2.067770e-61 4.995179e-61 1.589176e-60 2.150710e-60 4.545258e-60 4.225172e-60 7.202721e-60 5.740440e-60 9.020205e-60 6.740064e-60 1.036547e-59 7.575163e-60 1.181200e-59 8.680290e-60 1.405778e-59 1.051059e-59 1.766569e-59 1.275139e-59 2.024279e-59 1.067042e-59 1.079809e-59 1.995084e-60 6.064624e-61 2.653604e-62 3.016489e-62 1.439971e-61 1.370322e-60 4.919198e-60 3.151997e-59 4.720741e-59 1.844585e-58 6.454584e-59 1.246117e-58 6.986293e-61 1.367233e-60 2.032107e-62 1.883167e-62 1.096728e-63 2.089135e-64 1.780572e-65 2.009329e-65 -4.637459e-64 5.858154e-63 -5.720000e-62 1.486441e-61 -7.404848e-61 3.371865e-62 2.412081e-63 -3.378827e-64 -1.794286e-65 -8.620334e-64 1.200831e-62 5.703328e-61 -3.157422e-60 -1.007268e-60 -2.644731e-61 -3.821886e-62 -6.232189e-63 -3.748398e-64 -3.202410e-65 5.626751e-68 -3.396830e-68 2.190108e-69 -8.226741e-71 -2.711179e-72 -2.749232e-72 -6.076853e-74 1.153525e-74 -6.481190e-76 2.596123e-77 7.118226e-79 -1.625267e-79 1.004716e-80 -4.167823e-82 1.078794e-83 -2.111749e-85 2.864001e-87 -2.594486e-89 2.818424e-91 4.973176e-94 4.848560e-95 5.811714e-97 1.170388e-98 1.325236e-100 1.737427e-102 1.514144e-104 1.030442e-106 4.948103e-110 -1.548673e-110 -1.907523e-112 6.432107e-111 3.654827e-109 2.066676e-107 1.129701e-105 6.090939e-104 3.107182e-102 1.551802e-100 7.180543e-99 3.240048e-97 1.328584e-95 5.319267e-94 1.904054e-92 6.703623e-91 2.083798e-89 6.448474e-88 1.745074e-86 4.768544e-85 1.130267e-83 2.743356e-82 5.729046e-81 1.240917e-79 2.291302e-78 4.438361e-77 7.245651e-76 1.253706e-74 1.801520e-73 2.770597e-72 3.470708e-71 4.699583e-70 5.050417e-69 
1.852946e-66 1.669013e-65 1.651129e-64 1.195362e-63 9.657294e-63 5.322173e-62 3.350864e-61 1.293235e-60 5.929933e-60 1.415585e-59 4.344538e-59 5.800056e-59 1.172630e-58 1.070588e-58 1.737560e-58 1.354569e-58 2.019442e-58 1.472070e-58 2.142829e-58 1.525944e-58 2.249485e-58 1.611769e-58 2.467249e-58 1.802706e-58 2.863662e-58 2.023071e-58 3.025906e-58 1.542887e-58 1.451605e-58 2.318188e-59 6.342904e-60 7.718725e-62 6.577482e-61 3.798521e-60 3.318916e-59 1.216597e-58 7.019449e-58 1.084953e-57 3.748666e-57 1.293987e-57 2.264905e-57 -8.193885e-59 2.592822e-59 -8.059880e-61 3.516021e-61 -9.659603e-64 3.645970e-63 7.739969e-65 -3.415541e-64 1.058558e-63 -2.267015e-62 3.494072e-61 -4.548445e-61 3.202392e-60 1.563839e-61 3.912932e-63 -4.406061e-63 -6.129261e-64 1.097588e-63 -4.833749e-61 -4.975406e-60 2.458714e-59 6.505838e-60 1.517895e-60 2.358228e-61 3.922814e-62 3.488777e-63 3.068189e-64 1.404507e-65 5.712535e-67 -1.156018e-69 1.526928e-70 -7.555305e-71 -1.042433e-71 -1.248859e-72 -3.071432e-74 -1.359906e-75 2.591137e-77 -3.314600e-78 1.997751e-79 -6.501228e-81 1.138881e-82 2.075390e-85 7.135469e-86 5.124220e-87 1.159803e-88 4.402094e-90 8.012075e-92 1.873623e-93 2.795489e-95 4.558904e-97 5.424779e-99 6.172621e-101 5.108464e-103 2.379101e-105 -1.884421e-107 -8.336313e-109 -1.399738e-110 2.114933e-110 1.486095e-108 1.012078e-106 6.640111e-105 4.223702e-103 2.529109e-101 1.459845e-99 7.752210e-98 3.958769e-96 1.821190e-94 8.080248e-93 3.174950e-91 1.214610e-89 4.065159e-88 1.344053e-86 3.854985e-85 1.110103e-83 2.754531e-82 6.967947e-81 1.508647e-79 3.374712e-78 6.409980e-77 1.272301e-75 2.122544e-74 3.737143e-73 5.456037e-72 8.483478e-71 1.074069e-69 1.461374e-68 1.579568e-67 
5.601005e-65 5.051834e-64 4.959752e-63 3.581122e-62 2.853221e-61 1.562556e-60 9.638210e-60 3.685016e-59 1.643278e-58 3.876760e-58 1.146980e-57 1.510220e-57 2.918242e-57 2.615287e-57 4.036645e-57 3.075452e-57 4.344699e-57 3.085958e-57 4.246352e-57 2.942330e-57 4.095273e-57 2.856336e-57 4.127734e-57 2.942234e-57 4.412402e-57 3.045257e-57 4.286396e-57 2.108626e-57 1.839448e-57 2.466786e-58 6.009756e-59 -9.943969e-61 1.500588e-59 9.369062e-59 7.541914e-58 2.791182e-57 1.458719e-56 2.290333e-56 7.027322e-56 2.356485e-56 3.705522e-56 -2.786539e-57 4.818642e-58 -3.045284e-59 5.941330e-60 -3.312463e-61 6.357863e-62 -5.160077e-63 -3.869653e-63 -1.051086e-62 -1.420288e-61 -4.579211e-60 3.321721e-60 -8.387526e-60 -1.279418e-60 -1.943980e-62 -3.851044e-62 -1.580261e-62 9.944720e-62 6.926103e-60 5.697231e-59 -1.878963e-58 -4.429054e-59 -8.874318e-60 -1.450275e-60 -2.329633e-61 -2.417945e-62 -2.264506e-63 -1.575596e-64 -8.325122e-66 -1.100376e-67 4.847431e-69 -5.977003e-70 -4.200557e-71 1.337723e-72 6.205411e-73 4.324604e-74 3.551382e-75 4.838606e-77 1.125870e-78 -4.566951e-80 -9.698065e-82 5.413480e-83 3.285086e-84 1.845365e-85 5.290148e-87 1.499588e-88 3.097123e-90 5.993018e-92 9.476768e-94 1.336750e-95 1.595977e-97 1.526158e-99 1.052640e-101 -1.068628e-104 -1.637534e-105 -3.740838e-107 -5.723323e-109 3.413857e-110 3.692453e-108 3.397932e-106 2.794400e-104 2.264481e-102 1.638304e-100 1.153071e-98 7.159780e-97 4.293916e-95 2.241919e-93 1.130109e-91 4.905047e-90 2.072315e-88 7.488049e-87 2.672655e-85 8.130209e-84 2.483595e-82 6.449787e-81 1.707627e-79 3.830854e-78 8.873489e-77 1.732640e-75 3.529748e-74 6.014144e-73 1.078498e-71 1.599071e-70 2.514808e-69 3.217130e-68 4.398530e-67 4.781441e-66 
1.658145e-63 1.497063e-62 1.458078e-61 1.049594e-60 8.246508e-60 4.486242e-59 2.711557e-58 1.026705e-57 4.454168e-57 1.038195e-56 2.961810e-56 3.845271e-56 7.100481e-56 6.244077e-56 9.160549e-56 6.817537e-56 9.119768e-56 6.308039e-56 8.198847e-56 5.524256e-56 7.254748e-56 4.922398e-56 6.712668e-56 4.665352e-56 6.605256e-56 4.453468e-56 5.900813e-56 2.806222e-56 2.264173e-56 2.513031e-57 5.290627e-58 -1.267480e-59 3.479310e-58 2.231602e-57 1.681263e-56 6.226448e-56 2.999236e-55 4.745208e-55 1.313673e-54 4.319919e-55 6.073209e-55 -6.345678e-56 9.023468e-57 -7.107896e-58 1.012705e-58 -8.274766e-60 1.169601e-60 -1.931891e-61 4.689105e-62 7.047558e-61 1.265398e-60 5.386319e-59 -3.475738e-59 1.960224e-59 2.669363e-60 -1.132993e-61 -3.245493e-61 -5.643839e-61 -7.235860e-60 -9.164926e-59 -6.323634e-58 1.391660e-57 2.941837e-58 5.045088e-59 8.719590e-60 1.343164e-60 1.607842e-61 1.597165e-62 1.594163e-63 1.095455e-64 8.348556e-66 2.250748e-67 -7.197631e-69 -5.313689e-71 3.553799e-73 -1.646489e-72 -2.564924e-73 -3.329641e-74 -2.047697e-75 -1.090198e-76 -2.651308e-78 -3.771914e-80 2.235798e-81 1.346565e-82 5.523512e-84 1.570172e-85 3.784575e-87 7.566318e-89 1.297434e-90 1.924196e-92 2.354964e-94 2.370720e-96 1.381129e-98 -5.929968e-101 -4.034109e-102 -8.234470e-104 -1.323655e-105 -1.784581e-107 -1.084143e-109 7.686249e-108 1.026882e-105 1.077774e-103 1.109398e-101 9.971749e-100 8.544251e-98 6.345716e-96 4.468373e-94 2.692333e-92 1.540943e-90 7.469297e-89 3.478737e-87 1.365923e-85 5.249083e-84 1.699770e-82 5.492085e-81 1.495804e-79 4.133203e-78 9.618251e-77 2.301130e-75 4.621568e-74 9.642221e-73 1.678240e-71 3.059678e-70 4.606971e-69 7.317644e-68 9.457002e-67 1.297901e-65 1.418530e-64 
4.771599e-62 4.311262e-61 4.165276e-60 2.988836e-59 2.315326e-58 1.251103e-57 7.408228e-57 2.777571e-56 1.172029e-55 2.698267e-55 7.420456e-55 9.493863e-55 1.674511e-54 1.443592e-54 2.011849e-54 1.460710e-54 1.849042e-54 1.243549e-54 1.525781e-54 9.979362e-55 1.235979e-54 8.143416e-55 1.047737e-54 7.087720e-55 9.474800e-55 6.230617e-55 7.774001e-55 3.566962e-55 2.658384e-55 2.335056e-56 4.075531e-57 1.733754e-58 7.882911e-57 5.093769e-56 3.609126e-55 1.331545e-54 5.957223e-54 9.430300e-54 2.378699e-53 7.664515e-54 9.640533e-54 -1.212192e-54 1.539465e-55 -1.335092e-56 1.549476e-57 -1.431747e-58 1.820520e-59 -5.901339e-60 6.105115e-60 5.005094e-59 1.243222e-58 -4.716077e-58 1.743884e-58 -4.434480e-59 -2.860251e-60 -9.374359e-62 -1.762238e-60 -2.172576e-60 9.439134e-59 1.006424e-57 7.829042e-57 -1.033643e-56 -2.130237e-57 -2.974615e-58 -5.250264e-59 -7.409193e-60 -9.020266e-61 -8.993589e-62 -9.532974e-63 -7.388069e-64 -6.965488e-65 -3.605878e-66 -2.634608e-67 9.672249e-70 2.647093e-71 9.051039e-72 1.112410e-72 1.488155e-73 1.275775e-74 1.054863e-75 5.906838e-77 3.106436e-78 1.166590e-79 4.138755e-81 1.096354e-82 2.765523e-84 5.337501e-86 9.763399e-88 1.339597e-89 1.628007e-91 1.061583e-93 -4.667496e-96 -3.854472e-97 -9.041319e-99 -1.592449e-100 -2.422942e-102 -3.221448e-104 -4.007512e-106 -3.214058e-108 -1.467207e-107 1.884704e-105 2.112592e-103 3.514382e-101 4.196521e-99 4.902975e-97 4.527793e-95 4.000527e-93 2.839524e-91 1.919484e-89 1.048923e-87 5.510132e-86 2.358072e-84 9.887097e-83 3.408256e-81 1.174061e-79 3.349934e-78 9.708083e-77 2.340302e-75 5.800879e-74 1.196822e-72 2.562144e-71 4.550551e-70 8.444417e-69 1.290137e-67 2.071087e-66 2.702283e-65 3.723971e-64 4.090410e-63 
1.347318e-60 1.218127e-59 1.166613e-58 8.343916e-58 6.370516e-57 3.419115e-56 1.983168e-55 7.363100e-55 3.021909e-54 6.872821e-54 1.821745e-53 2.297472e-53 3.868257e-53 3.269935e-53 4.324520e-53 3.063691e-53 3.665159e-53 2.397214e-53 2.772683e-53 1.760973e-53 2.054166e-53 1.315040e-53 1.594487e-53 1.051018e-53 1.325597e-53 8.520440e-54 1.000613e-53 4.454163e-54 3.054239e-54 2.087259e-55 2.653848e-56 1.177438e-56 1.774191e-55 1.145644e-54 7.730942e-54 2.845719e-53 1.199081e-52 1.910326e-52 4.448399e-52 1.453895e-52 1.618493e-52 -2.179719e-53 2.518725e-54 -2.204764e-55 2.231028e-56 -2.049482e-57 2.908203e-58 -9.897901e-58 2.050966e-57 -3.452686e-57 -1.696949e-57 2.728374e-57 -5.983495e-58 7.591521e-59 5.207815e-60 -4.244564e-61 -1.480863e-59 -1.127284e-58 -1.058731e-57 -1.265870e-56 -1.098480e-55 8.751428e-56 1.741424e-56 1.993656e-57 3.358743e-58 4.260077e-59 4.911109e-60 4.667446e-61 4.712604e-62 3.622417e-63 3.178578e-64 1.798029e-65 1.111437e-66 1.925578e-68 -5.640422e-70 -3.880060e-71 -2.385602e-72 -2.230859e-73 -1.641119e-74 -1.285914e-75 -7.804507e-77 -4.574721e-78 -2.098825e-79 -9.046870e-81 -3.129894e-82 -1.016153e-83 -2.724718e-85 -6.905031e-87 -1.483875e-88 -3.040143e-90 -5.403112e-92 -9.229704e-94 -1.394120e-95 -2.037884e-97 -2.676515e-99 -3.420341e-101 -3.979573e-103 -4.524862e-105 -1.223760e-107 -6.196410e-106 1.677316e-104 1.263919e-103 1.086256e-100 1.661419e-98 2.649908e-96 3.128477e-94 3.459405e-92 2.956048e-90 2.355169e-88 1.470408e-86 8.679475e-85 4.076412e-83 1.855896e-81 6.834330e-80 2.497963e-78 7.480891e-77 2.263988e-75 5.659706e-74 1.448115e-72 3.070959e-71 6.725305e-70 1.219206e-68 2.297164e-67 3.561436e-66 5.766931e-65 7.596593e-64 1.049626e-62 1.158577e-61 
3.714283e-59 3.358392e-58 3.189089e-57 2.272472e-56 1.710323e-55 9.113765e-55 5.178966e-54 1.903259e-53 7.598829e-53 1.706264e-52 4.359859e-52 5.414970e-52 8.703575e-52 7.204861e-52 9.041710e-52 6.239928e-52 7.054617e-52 4.478751e-52 4.883758e-52 3.005838e-52 3.303577e-52 2.050849e-52 2.345288e-52 1.503719e-52 1.791769e-52 1.124173e-52 1.244844e-52 5.369678e-53 3.387005e-53 1.666360e-54 1.054149e-55 3.628580e-55 3.940214e-54 2.534981e-53 1.640807e-52 6.027387e-52 2.418626e-51 3.877623e-51 8.468866e-51 2.839116e-51 2.830401e-51 -3.825512e-52 3.990068e-53 -3.412755e-54 3.082162e-55 -2.772179e-56 1.166447e-56 1.874358e-55 -1.521982e-55 1.074414e-55 5.656400e-57 -1.303473e-56 1.851325e-57 -1.470807e-58 -4.664234e-60 -8.210405e-61 -7.296244e-59 -4.731564e-58 1.142442e-56 1.597971e-55 1.732526e-54 -7.979647e-55 -1.595309e-55 -1.475235e-56 -2.301415e-57 -2.517596e-58 -2.656542e-59 -2.271473e-60 -2.076236e-61 -1.430837e-62 -1.087443e-63 -5.005448e-65 -2.188669e-66 -1.733486e-68 8.365753e-71 2.448829e-72 -3.629731e-74 -1.902990e-74 -2.272213e-75 -2.438136e-76 -1.779918e-77 -1.254605e-78 -6.573610e-80 -3.317322e-81 -1.303225e-82 -4.931571e-84 -1.503302e-85 -4.428396e-87 -1.080186e-88 -2.558142e-90 -5.133966e-92 -1.005458e-93 -1.702337e-95 -2.826190e-97 -4.127398e-99 -5.934881e-101 -7.621058e-103 -9.709234e-105 8.282778e-106 -1.812500e-104 4.316343e-103 -9.150428e-102 3.404185e-100 2.199449e-98 9.006545e-96 1.480720e-93 2.394971e-91 2.572710e-89 2.595397e-87 1.881921e-85 1.291993e-83 6.683644e-82 3.361366e-80 1.321191e-78 5.171537e-77 1.622266e-75 5.154862e-74 1.333498e-72 3.533738e-71 7.688077e-70 1.725986e-68 3.188754e-67 6.108519e-66 9.598106e-65 1.569070e-63 2.084633e-62 2.889550e-61 3.202753e-60 
1.006410e-57 9.101986e-57 8.561081e-56 6.079229e-55 4.507124e-54 2.385294e-53 1.327342e-52 4.830490e-52 1.875455e-51 4.160292e-51 1.024202e-50 1.253724e-50 1.921681e-50 1.559018e-50 1.853654e-50 1.247200e-50 1.330011e-50 8.204214e-51 8.416634e-51 5.026677e-51 5.194294e-51 3.132721e-51 3.372264e-51 2.108761e-51 2.370097e-51 1.457689e-51 1.519984e-51 6.410964e-52 3.699148e-52 1.282725e-53 -4.089951e-55 9.195908e-54 8.752343e-53 5.631676e-52 3.533646e-51 1.307971e-50 5.056440e-50 8.300167e-50 1.718627e-49 6.215666e-50 5.495918e-50 -6.866132e-51 6.124531e-52 -4.817832e-53 3.813562e-54 -4.149001e-55 -1.298993e-54 -9.600268e-54 5.294990e-54 -2.094600e-54 5.634529e-56 5.290535e-56 -4.386631e-57 1.798209e-58 7.149428e-60 -2.229261e-60 -8.708621e-58 -1.724345e-56 -1.666783e-55 -2.593400e-54 -3.117320e-53 8.632700e-54 1.660000e-54 1.302457e-55 1.755908e-56 1.658248e-57 1.529517e-58 1.164213e-59 9.142198e-61 5.619829e-62 3.459898e-63 1.420906e-64 4.186241e-66 4.697949e-68 -4.364530e-70 -1.405269e-71 -4.686955e-73 -3.213419e-74 -2.004456e-75 -1.547986e-76 -9.757764e-78 -6.407053e-79 -3.348158e-80 -1.724470e-81 -7.160948e-83 -2.883700e-84 -9.568077e-86 -3.069282e-87 -8.290587e-89 -2.168757e-90 -4.872116e-92 -1.063497e-93 -2.028265e-95 -3.771763e-97 -6.219892e-99 -1.003145e-100 -1.452847e-102 -2.172949e-104 2.393409e-104 -4.991750e-103 1.196037e-101 -2.756097e-100 7.656416e-99 -1.665221e-97 3.393022e-95 6.615924e-93 1.610171e-90 2.233664e-88 2.852197e-86 2.442841e-84 1.939304e-82 1.112542e-80 6.132906e-79 2.580257e-77 1.073879e-75 3.533595e-74 1.171841e-72 3.139489e-71 8.574412e-70 1.914786e-68 4.389417e-67 8.266958e-66 1.605065e-64 2.556497e-63 4.208849e-62 5.640602e-61 7.828561e-60 8.714374e-59 
2.673915e-56 2.416771e-55 2.252836e-54 1.593000e-53 1.164058e-52 6.114175e-52 3.333657e-51 1.200491e-50 4.535302e-50 9.929996e-50 2.356730e-49 2.839821e-49 4.153202e-49 3.296683e-49 3.715524e-49 2.432329e-49 2.447950e-49 1.463821e-49 1.413912e-49 8.174603e-50 7.951345e-50 4.648566e-50 4.718552e-50 2.872559e-50 3.052826e-50 1.838345e-50 1.810824e-50 7.463627e-51 3.942031e-51 8.204933e-53 -1.392723e-53 2.172966e-52 1.955999e-51 1.261212e-50 7.747942e-50 2.898922e-49 1.096035e-48 1.850086e-48 3.713922e-48 1.466195e-48 1.187262e-48 -1.291417e-49 9.655106e-51 -6.953283e-52 5.091814e-53 3.349479e-53 5.533903e-53 3.520800e-52 -1.197611e-52 3.236674e-53 -1.158423e-54 -2.180339e-55 1.302900e-56 -4.019103e-58 -7.563668e-60 1.496020e-58 -7.106184e-57 -2.063647e-55 1.401539e-54 3.665209e-53 6.102829e-52 -9.808534e-53 -1.915927e-53 -1.270470e-54 -1.473605e-55 -1.159226e-56 -9.331292e-58 -6.037062e-59 -4.058339e-60 -2.074728e-61 -1.052853e-62 -3.400657e-64 -8.193297e-66 -7.810109e-68 -1.574557e-70 -4.957499e-72 -1.859030e-73 -1.284332e-74 -8.162621e-76 -6.348864e-77 -4.087874e-78 -2.796961e-79 -1.544354e-80 -8.597596e-82 -3.881865e-83 -1.732478e-84 -6.358746e-86 -2.290790e-87 -6.894352e-89 -2.033568e-90 -5.089067e-92 -1.249443e-93 -2.641000e-95 -5.487702e-97 -9.950772e-99 -1.777514e-100 -2.803523e-102 -7.120226e-104 6.095801e-103 -1.341588e-101 3.263135e-100 -8.092191e-99 2.264794e-97 -6.659492e-96 2.272960e-94 2.012836e-93 7.188671e-90 1.404270e-87 2.708277e-85 2.830087e-83 2.753462e-81 1.759755e-79 1.087499e-77 4.887266e-76 2.185685e-74 7.520162e-73 2.617762e-71 7.241643e-70 2.045414e-68 4.676523e-67 1.097071e-65 2.101929e-64 4.142300e-63 6.676689e-62 1.108144e-60 1.496045e-59 2.080649e-58 2.323515e-57 
6.992971e-55 6.319207e-54 5.830130e-53 4.107415e-52 2.955266e-51 1.541640e-50 8.229264e-50 2.935018e-49 1.078120e-48 2.332448e-48 5.331520e-48 6.332175e-48 8.822675e-48 6.861104e-48 7.314718e-48 4.665641e-48 4.420365e-48 2.566733e-48 2.327727e-48 1.305648e-48 1.191960e-48 6.774833e-49 6.466098e-49 3.847790e-49 3.856862e-49 2.287742e-49 2.123917e-49 8.656996e-50 4.155771e-50 5.184225e-52 -1.008819e-52 4.998760e-51 4.407108e-50 2.875411e-49 1.744800e-48 6.701129e-48 2.500978e-47 4.451608e-47 8.736434e-47 3.968111e-47 2.943806e-47 -2.463986e-48 1.331981e-49 -7.988546e-51 2.329527e-52 -5.092440e-51 1.196358e-52 -1.051753e-50 2.213003e-51 -4.150908e-52 6.977057e-54 1.310971e-54 -2.277329e-56 1.000119e-57 -2.455097e-59 7.442270e-57 -6.459543e-56 -7.528149e-54 -4.603238e-52 -3.552696e-52 -1.321047e-50 1.290828e-51 2.479780e-52 1.472208e-53 1.393252e-54 9.303975e-56 6.294146e-57 3.512544e-58 1.934759e-59 8.425375e-61 3.263202e-62 8.744626e-64 1.316501e-65 1.165211e-67 -1.925120e-70 -3.377179e-72 -4.511331e-74 -1.445852e-75 -5.552459e-77 -3.909207e-78 -2.636682e-79 -1.959264e-80 -1.135341e-81 -6.580196e-83 -2.985507e-84 -1.337213e-85 -4.809606e-87 -1.708067e-88 -5.010332e-90 -1.460131e-91 -3.621971e-93 -9.006707e-95 -1.963140e-96 -4.315516e-98 -8.499807e-100 -1.684424e-101 -2.728760e-103 -6.547046e-103 1.472618e-101 -3.430353e-100 8.567147e-99 -2.260219e-97 6.462546e-96 -1.984359e-94 6.424802e-93 -2.341374e-91 3.624166e-89 8.396813e-87 2.595325e-84 3.383942e-82 4.015212e-80 2.874646e-78 1.967582e-76 9.460023e-75 4.499390e-73 1.619944e-71 5.871628e-70 1.678040e-68 4.871208e-67 1.140699e-65 2.725171e-64 5.313206e-63 1.058768e-61 1.727464e-60 2.881815e-59 3.920376e-58 5.450999e-57 6.108912e-56 
1.800890e-53 1.625160e-52 1.485315e-51 1.041534e-50 7.385307e-50 3.822623e-49 1.999674e-48 7.056349e-48 2.522920e-47 5.386871e-47 1.187193e-46 1.387654e-46 1.843926e-46 1.402042e-46 1.415378e-46 8.774694e-47 7.834791e-47 4.405516e-47 3.756338e-47 2.038405e-47 1.749857e-47 9.644463e-48 8.677612e-48 5.037247e-48 4.778912e-48 2.788533e-48 2.450874e-48 9.872646e-49 4.313198e-49 2.314434e-51 2.828860e-51 1.157780e-49 1.017331e-48 6.740030e-48 4.091020e-47 1.619833e-46 6.081766e-46 1.148351e-45 2.269271e-45 1.192629e-45 8.586078e-46 -4.684881e-47 1.429565e-48 -6.766544e-50 3.984982e-50 4.760512e-49 -1.421103e-49 2.865115e-49 -3.106316e-50 4.569014e-51 1.985625e-53 -1.085991e-53 9.115936e-56 -4.650351e-56 -4.012152e-57 2.330229e-55 5.039231e-54 4.136892e-52 5.752574e-50 -1.012273e-50 2.906631e-49 -1.682957e-50 -3.447374e-51 -1.808604e-52 -1.432444e-53 -7.893140e-55 -4.580740e-56 -2.133233e-57 -9.954006e-59 -3.564497e-60 -1.164086e-61 -2.599829e-63 -4.002209e-65 -4.141646e-67 -1.962626e-69 -3.505073e-71 -6.737109e-73 -2.554435e-74 -9.546268e-76 -4.882629e-77 -2.271744e-78 -1.230284e-79 -5.806237e-81 -2.940981e-82 -1.273184e-83 -5.672377e-85 -2.149273e-86 -8.203619e-88 -2.671415e-89 -8.671674e-91 -2.419032e-92 -6.694482e-94 -1.606645e-95 -3.817803e-97 -7.943182e-99 -1.635350e-100 -2.327008e-102 -1.520602e-101 3.527861e-100 -8.686346e-99 2.229974e-97 -6.216790e-96 1.811149e-94 -5.778056e-93 1.871538e-91 -6.940157e-90 2.591431e-88 3.057163e-87 1.944991e-83 3.388221e-81 5.544768e-79 4.469324e-77 3.490665e-75 1.788516e-73 9.151720e-72 3.432543e-70 1.302990e-68 3.832137e-67 1.147190e-65 2.742671e-64 6.687465e-63 1.323336e-61 2.670594e-60 4.401325e-59 7.388877e-58 1.011128e-56 1.406954e-55 1.580159e-54 