# vtk DataFile Version 2.0
Comment goes here
ASCII

DATASET STRUCTURED_POINTS
DIMENSIONS    128   128   1

ORIGIN    0.000   0.000   0.000
SPACING   0.0156250.015625   1.000

POINT_DATA   16384
SCALARS Concentration double
LOOKUP_TABLE default

5.662561e-75 4.259646e-74 5.272401e-73 3.011718e-72 3.422413e-71 1.360563e-70 1.361692e-69 3.335802e-69 2.671969e-68 3.383322e-68 1.737694e-67 1.031069e-67 2.337702e-67 9.758003e-68 1.447645e-67 5.729509e-68 9.355065e-68 6.755665e-68 5.339180e-66 8.003573e-66 1.127207e-63 1.219008e-63 1.258062e-61 7.324052e-62 8.896606e-60 -3.769542e-60 5.627831e-58 -1.227813e-57 4.094383e-56 -8.020099e-56 1.960137e-54 -1.326606e-54 3.252081e-53 6.393164e-56 1.323828e-52 3.055649e-53 7.643798e-53 1.958959e-53 6.524555e-54 -3.779075e-54 9.556513e-53 -1.938395e-51 2.984395e-50 -4.860223e-49 5.648267e-48 -7.096443e-47 5.844755e-46 -5.345864e-45 2.803283e-44 -1.652059e-43 4.469827e-43 -1.107116e-42 1.059743e-42 1.573652e-43 -3.290534e-43 -4.396012e-42 1.020944e-40 -1.727887e-39 3.278266e-38 -2.629428e-37 2.096308e-36 -6.930348e-36 1.567557e-35 -5.979636e-36 -1.066189e-36 8.455773e-38 -1.019447e-38 9.810330e-40 -8.234445e-41 4.727056e-42 -1.600459e-43 5.155445e-45 -1.625803e-46 6.030034e-48 2.597969e-49 -6.821789e-49 -6.908309e-48 6.662544e-48 -2.378584e-48 7.690097e-49 -1.132938e-49 1.871983e-50 -1.767500e-51 1.850514e-52 -1.266917e-53 9.362303e-55 -4.926876e-56 2.738900e-57 -1.151502e-58 5.042477e-60 -1.750990e-61 6.280832e-63 -1.854614e-64 5.611721e-66 -1.429889e-67 3.683485e-69 -8.041389e-71 1.745244e-72 -3.202195e-74 5.760976e-76 -8.734629e-78 1.287475e-79 -1.597167e-81 1.917032e-83 -1.935876e-85 1.885158e-87 -1.542871e-89 1.212992e-91 -7.697629e-94 1.801135e-94 1.524186e-93 8.329483e-93 7.104351e-92 3.536251e-91 2.983590e-90 1.461778e-89 1.606220e-88 1.529567e-87 2.467479e-86 3.398333e-85 5.909027e-84 8.653065e-83 1.439089e-81 1.884955e-80 2.883579e-79 3.216499e-78 4.571053e-77 4.264722e-76 
1.797574e-73 1.361663e-72 1.654920e-71 9.445994e-71 1.028552e-69 4.075081e-69 3.799447e-68 9.273884e-68 6.734521e-67 8.448852e-67 3.867873e-66 2.226210e-66 4.545199e-66 1.803255e-66 2.449082e-66 9.237433e-67 1.573776e-66 2.829261e-66 1.345615e-64 5.402519e-64 2.601833e-62 6.955129e-62 2.801772e-60 4.861696e-60 2.010893e-58 1.609562e-58 1.187616e-56 -6.625222e-57 8.264592e-55 -5.112046e-55 3.912912e-53 -3.378605e-54 6.472539e-52 1.127633e-52 2.672646e-51 6.436032e-52 1.590446e-51 3.843887e-52 1.293117e-52 4.858451e-53 -5.140152e-52 1.174508e-50 -1.900200e-49 3.326189e-48 -3.980311e-47 5.305481e-46 -4.460458e-45 4.338267e-44 -2.315030e-43 1.489749e-42 -4.079433e-42 1.226910e-41 -1.119511e-41 -1.563124e-42 6.470066e-42 3.735493e-41 -1.127202e-39 2.495905e-38 -4.288957e-37 3.026857e-36 -2.090366e-35 6.366954e-35 -1.311124e-34 4.913076e-35 7.605670e-36 -5.143835e-37 5.755268e-38 -4.828961e-39 2.087330e-40 7.393738e-42 -3.634050e-42 2.172037e-43 8.002193e-46 -1.460224e-46 -1.962885e-48 6.672844e-48 8.306159e-47 -8.531484e-47 2.513538e-47 -8.039370e-48 1.084852e-48 -1.762445e-49 1.565769e-50 -1.607557e-51 1.038532e-52 -7.463484e-54 3.659232e-55 -1.938507e-56 7.340583e-58 -2.931979e-59 8.553996e-61 -2.567423e-62 5.584110e-64 -1.195012e-65 1.673079e-67 -1.732087e-69 -1.187257e-71 9.406478e-73 -2.610847e-74 5.511437e-76 -8.865839e-78 1.307562e-79 -1.547359e-81 1.741021e-83 -1.593688e-85 1.403394e-87 -1.008961e-89 6.997028e-92 -3.955933e-94 -1.777127e-96 -3.087619e-95 -8.030989e-95 1.011400e-93 5.553078e-92 1.505316e-90 3.638587e-89 8.547567e-88 1.814203e-86 3.884114e-85 7.239506e-84 1.399787e-82 2.250892e-81 3.925255e-80 5.377433e-79 8.512207e-78 9.813214e-77 1.421241e-75 1.351493e-74 
5.300916e-72 4.043463e-71 4.819270e-70 2.751222e-69 2.868761e-68 1.132796e-67 9.851910e-67 2.391096e-66 1.579510e-65 1.957005e-65 8.012933e-65 4.463610e-65 8.213608e-65 3.086553e-65 3.842301e-65 1.384160e-65 2.675573e-65 9.691040e-65 3.244552e-63 1.929549e-62 5.741578e-61 2.328085e-60 6.010022e-59 1.729294e-58 4.327629e-57 8.142792e-57 2.380704e-55 2.325211e-55 1.577440e-53 1.125623e-53 7.141223e-52 3.593342e-52 1.136248e-50 3.984956e-51 4.563415e-50 1.132003e-50 2.636834e-50 5.647255e-51 1.975382e-51 1.750061e-52 4.080122e-51 -8.488717e-50 1.394241e-48 -2.357253e-47 2.922465e-46 -3.813277e-45 3.366736e-44 -3.232701e-43 1.834537e-42 -1.185698e-41 3.486721e-41 -1.152186e-40 1.057891e-40 1.755132e-41 -9.152008e-41 -3.930801e-40 -1.337292e-39 3.984689e-38 3.193297e-36 -2.524425e-35 1.539293e-34 -4.767625e-34 8.945308e-34 -3.431861e-34 -4.363342e-35 2.004199e-36 -1.771047e-37 3.059116e-39 3.456023e-39 -6.707181e-40 7.909635e-41 5.644072e-42 -2.554002e-43 1.025539e-44 -1.484562e-47 -7.516930e-47 -8.924387e-46 9.260664e-46 -2.488076e-46 7.418110e-47 -9.966377e-48 1.522654e-48 -1.370480e-49 1.340505e-50 -8.852478e-52 6.145862e-53 -3.121869e-54 1.630304e-55 -6.555517e-57 2.666711e-58 -8.630276e-60 2.789245e-61 -7.318542e-63 1.896634e-64 -4.039142e-66 8.417576e-68 -1.452050e-69 2.432906e-71 -3.389018e-73 4.558485e-75 -5.110414e-77 5.505738e-79 -4.947796e-81 4.254297e-83 -3.047277e-85 2.078093e-87 -1.175201e-89 6.283920e-92 -2.758218e-94 2.232777e-96 3.155930e-95 9.236819e-94 2.717248e-92 7.661882e-91 2.135901e-89 5.544642e-88 1.427225e-86 3.308672e-85 7.689237e-84 1.546523e-82 3.196485e-81 5.459672e-80 1.001359e-78 1.434023e-77 2.349820e-76 2.790605e-75 4.116903e-74 3.982073e-73 
1.514120e-70 1.159535e-69 1.357899e-68 7.723606e-68 7.740433e-67 3.029378e-66 2.472469e-65 5.920688e-65 3.586923e-64 4.352067e-64 1.605979e-63 8.603264e-64 1.432797e-63 5.065223e-64 5.804557e-64 2.007696e-64 4.901730e-64 2.896988e-63 7.676465e-62 5.552865e-61 1.254857e-59 6.467176e-59 1.292155e-57 4.989596e-57 9.209328e-56 2.503595e-55 4.747740e-54 1.072436e-53 3.009140e-52 5.525516e-52 1.280066e-50 1.302103e-50 1.929522e-49 9.839834e-50 7.437761e-49 1.851839e-49 4.118439e-49 7.221903e-50 2.842111e-50 5.535471e-51 -9.837749e-51 2.727543e-49 -4.873343e-48 9.144006e-47 -1.213494e-45 1.731251e-44 -1.616157e-43 1.683548e-42 -1.007284e-41 7.131660e-41 -2.239953e-40 8.816935e-40 -8.583257e-40 -1.058425e-40 1.629660e-39 -1.620721e-38 -1.898540e-37 5.625691e-36 -3.870508e-35 2.032825e-34 -9.787933e-34 2.760087e-33 -5.108096e-33 1.867100e-33 2.022349e-34 -2.835045e-36 1.383822e-37 1.037353e-37 -4.530778e-38 9.141330e-39 -1.601323e-39 2.498390e-40 -6.656476e-42 -7.079272e-44 -2.197708e-45 4.763435e-46 8.141927e-45 -8.178827e-45 1.850148e-45 -5.172569e-46 6.342974e-47 -9.193125e-48 7.625797e-49 -7.057940e-50 4.264934e-51 -2.769367e-52 1.269102e-53 -6.096495e-55 2.176050e-56 -8.005212e-58 2.269300e-59 -6.548869e-61 1.494689e-62 -3.437661e-64 6.362625e-66 -1.175423e-67 1.765161e-69 -2.621963e-71 3.180916e-73 -3.787002e-75 3.687890e-77 -3.502091e-79 2.719156e-81 -2.048214e-83 1.258526e-85 -7.464147e-88 3.591395e-90 -1.656751e-92 6.151674e-95 7.200950e-96 2.541832e-94 8.557937e-93 2.825926e-91 8.951773e-90 2.778572e-88 8.034680e-87 2.281765e-85 5.822327e-84 1.472837e-82 3.207367e-81 7.095875e-80 1.287973e-78 2.485830e-77 3.716152e-76 6.305538e-75 7.696248e-74 1.157097e-72 1.135382e-71 
4.070220e-69 3.131037e-68 3.598496e-67 2.040681e-66 1.964528e-65 7.619940e-65 5.840140e-64 1.377667e-63 7.668579e-63 9.086901e-63 3.026416e-62 1.554772e-62 2.343253e-62 7.755001e-63 8.195311e-63 2.776424e-63 9.430547e-63 7.759779e-62 1.714458e-60 1.405152e-59 2.620219e-58 1.604576e-57 2.669097e-56 1.257131e-55 1.843571e-54 6.240599e-54 8.914961e-53 2.981012e-52 5.382089e-51 1.479006e-50 2.105812e-49 3.062046e-49 2.930844e-48 1.904644e-48 1.048284e-47 2.536573e-48 5.294921e-48 6.497109e-49 3.353719e-49 4.867549e-50 5.545913e-50 -9.149420e-49 1.810997e-47 -3.480674e-46 5.073124e-45 -7.312464e-44 7.525082e-43 -7.834113e-42 5.243570e-41 -3.684156e-40 1.348311e-39 -5.426330e-39 6.301119e-39 6.919767e-40 -2.238587e-38 -6.535151e-37 -1.060853e-35 2.297476e-35 1.592557e-34 -9.453189e-34 4.069886e-33 -1.240519e-32 2.401515e-32 -8.818866e-33 -7.676206e-34 -2.586003e-35 7.141281e-37 -7.727114e-37 2.590422e-37 -5.707228e-38 8.233601e-39 1.471480e-39 -5.182875e-40 -5.470130e-42 6.342550e-46 -7.141790e-45 -6.683655e-44 5.808185e-44 -1.289425e-44 3.097186e-45 -3.825851e-46 4.954529e-47 -4.109696e-48 3.449202e-49 -2.062250e-50 1.219242e-51 -5.451647e-53 2.373072e-54 -8.098646e-56 2.660032e-57 -7.004585e-59 1.759384e-60 -3.593076e-62 6.948898e-64 -1.102676e-65 1.647546e-67 -2.032901e-69 2.351966e-71 -2.259745e-73 2.030677e-75 -1.524942e-77 1.070458e-79 -6.331859e-82 3.504747e-84 -1.652277e-86 7.289132e-89 -2.768080e-91 9.736276e-94 -1.823528e-96 4.509223e-95 1.779981e-93 6.813335e-92 2.574499e-90 9.236422e-89 3.249856e-87 1.054883e-85 3.351567e-84 9.467454e-83 2.631925e-81 6.224625e-80 1.481933e-78 2.860089e-77 5.822600e-76 9.080323e-75 1.596371e-73 2.001106e-72 3.064478e-71 3.050046e-70 
1.067786e-67 8.231316e-67 9.295310e-66 5.239645e-65 4.858626e-64 1.859702e-63 1.344565e-62 3.106078e-62 1.597798e-61 1.837044e-61 5.548281e-61 2.719327e-61 3.716198e-61 1.144277e-61 1.119095e-61 3.856514e-62 1.921059e-61 1.910275e-60 3.714872e-59 3.275143e-58 5.400398e-57 3.714796e-56 5.460444e-55 2.897654e-54 3.596862e-53 1.380339e-52 1.642182e-51 6.792416e-51 9.458295e-50 3.186761e-49 3.387488e-48 6.005755e-48 4.327524e-47 3.274691e-47 1.424528e-46 3.245708e-47 6.492135e-47 4.022068e-48 4.124955e-48 4.398235e-49 2.261441e-49 1.023868e-48 -2.261047e-47 5.164809e-46 -8.621077e-45 1.432931e-43 -1.674862e-42 1.984636e-41 -1.500882e-40 1.184080e-39 -4.973082e-39 2.275255e-38 -3.459774e-38 6.943015e-38 -1.887989e-37 -4.013197e-36 -8.643524e-35 2.676317e-34 -1.071486e-33 3.002145e-33 -1.107039e-32 3.990306e-32 -9.024750e-32 3.223181e-32 2.323714e-33 1.920100e-34 8.478586e-36 3.187673e-36 -8.736343e-37 2.264751e-37 -7.256606e-38 1.624718e-38 -4.403244e-39 -1.222123e-41 -3.375182e-42 1.083251e-43 4.010723e-43 -2.836280e-43 5.533862e-44 -1.157357e-44 1.270181e-45 -1.455226e-46 1.058560e-47 -7.821709e-49 4.047786e-50 -2.089067e-51 7.982068e-53 -3.000929e-54 8.625906e-56 -2.415360e-57 5.276533e-59 -1.115107e-60 1.865752e-62 -3.006254e-64 3.882132e-66 -4.813568e-68 4.835294e-70 -4.653146e-72 3.661011e-74 -2.754371e-76 1.703360e-78 -1.010404e-80 4.860705e-83 -2.358602e-85 7.723503e-88 -4.226310e-90 -4.187293e-93 -1.348389e-94 4.926534e-96 2.526436e-94 1.156001e-92 5.070170e-91 2.198306e-89 9.049389e-88 3.620971e-86 1.334609e-84 4.759512e-83 1.501112e-81 4.596019e-80 1.185837e-78 3.039300e-77 6.241991e-76 1.339653e-74 2.176723e-73 3.962016e-72 5.090700e-71 7.936713e-70 7.995263e-69 
2.668044e-66 2.061431e-65 2.285382e-64 1.281028e-63 1.143778e-62 4.319912e-62 2.947567e-61 6.659364e-61 3.168790e-60 3.526026e-60 9.657587e-60 4.500240e-60 5.572200e-60 1.585884e-60 1.440514e-60 5.404330e-61 3.913694e-60 4.347106e-59 7.609353e-58 7.111500e-57 1.067338e-55 8.047295e-55 1.064766e-53 6.112111e-53 6.573037e-52 2.748134e-51 2.835452e-50 1.350431e-49 1.548010e-48 5.901956e-48 5.027261e-47 1.011419e-46 5.810889e-46 4.861776e-46 1.720335e-45 3.522299e-46 6.825119e-46 -6.063202e-48 4.625816e-47 2.093180e-48 3.137964e-48 4.893954e-50 2.037215e-47 -3.519975e-46 8.174939e-45 -1.651332e-43 2.559498e-42 -3.446868e-41 3.340140e-40 -2.799154e-39 1.504080e-38 -6.982142e-38 1.524782e-37 -2.354105e-37 -6.224764e-37 -1.158737e-35 3.451133e-35 -1.366558e-34 3.691814e-34 -1.129384e-33 6.686725e-33 -9.464666e-32 2.913067e-31 -1.060168e-31 -6.159993e-33 -8.579683e-34 -1.025973e-34 -1.839085e-35 8.565548e-37 -2.039682e-37 5.540577e-38 -1.315188e-38 5.091345e-39 3.429087e-40 1.559566e-41 4.695926e-42 -2.698025e-42 1.070484e-42 -1.988209e-43 3.194791e-44 -3.279267e-45 2.921782e-46 -1.864572e-47 1.037935e-48 -4.406560e-50 1.636618e-51 -4.842813e-53 1.256421e-54 -2.711145e-56 5.159565e-58 -8.628456e-60 1.285207e-61 -1.785662e-63 2.197051e-65 -2.608359e-67 2.618754e-69 -2.646341e-71 1.944255e-73 -1.988220e-75 4.880736e-78 -1.823614e-79 -1.154419e-81 -2.832854e-83 -2.866408e-85 -4.432535e-87 -4.333245e-89 -5.492923e-91 -4.897073e-93 -1.580475e-95 1.083740e-93 6.336950e-92 3.109056e-90 1.608986e-88 7.683841e-87 3.597956e-85 1.522960e-83 6.227817e-82 2.211076e-80 7.561963e-79 2.136214e-77 5.938483e-76 1.297511e-74 2.945620e-73 4.978722e-72 9.392674e-71 1.235354e-69 1.960432e-68 1.997795e-67 
6.548163e-65 5.061929e-64 5.512534e-63 3.065917e-62 2.641189e-61 9.813163e-61 6.340609e-60 1.395010e-59 6.164773e-59 6.606670e-59 1.644624e-58 7.256195e-59 8.139666e-59 2.129243e-59 1.803977e-59 8.057441e-60 7.937718e-59 9.292325e-58 1.511540e-56 1.469289e-55 2.076086e-54 1.661445e-53 2.029263e-52 1.209672e-51 1.163208e-50 5.096560e-50 4.760099e-49 2.457782e-48 2.464292e-47 1.000481e-46 7.289001e-46 1.574291e-45 7.646985e-45 6.791679e-45 2.036066e-44 3.633967e-45 7.016176e-45 -5.659356e-46 5.533578e-46 -7.781884e-48 4.263866e-47 1.536004e-47 1.578277e-46 3.645791e-47 -1.084311e-45 2.888017e-44 -6.767254e-43 1.276573e-41 -1.860731e-40 2.235949e-39 -1.803505e-38 1.252807e-37 -5.324204e-37 2.471670e-36 -5.158978e-36 -2.126954e-35 -1.108701e-34 1.616615e-35 -9.452501e-35 2.554550e-33 3.475831e-32 1.864641e-31 -7.687698e-31 2.719891e-31 1.370960e-32 2.353001e-33 4.408308e-34 8.236390e-35 9.274940e-36 6.954477e-37 -2.286378e-38 4.761886e-39 -3.498800e-39 7.982548e-40 1.396865e-40 -5.513264e-41 1.016794e-41 -2.059022e-42 2.521433e-43 -2.690053e-44 1.905746e-45 -1.133351e-46 4.984480e-48 -1.822072e-49 5.635914e-51 -1.445808e-52 3.642173e-54 -7.465570e-56 1.576822e-57 -2.638685e-59 4.179662e-61 -6.386349e-63 3.882752e-65 -1.746622e-66 -3.009023e-68 -8.893941e-70 -2.500519e-71 -4.686390e-73 -1.144830e-74 -1.819522e-76 -3.623879e-78 -5.045757e-80 -8.318857e-82 -1.020345e-83 -1.420418e-85 -1.541610e-87 -1.843403e-89 -1.781491e-91 -1.384234e-93 3.089861e-93 3.857480e-91 1.770027e-89 1.121930e-87 6.227331e-86 3.426179e-84 1.688861e-82 7.946107e-81 3.212020e-79 1.229381e-77 3.823430e-76 1.151862e-74 2.678647e-73 6.419865e-72 1.127107e-70 2.199520e-69 2.955973e-68 4.767620e-67 4.906442e-66 
1.546822e-63 1.196221e-62 1.279073e-61 7.060422e-61 5.868333e-60 2.144937e-59 1.313051e-58 2.810394e-58 1.153971e-57 1.188195e-57 2.685183e-57 1.116993e-57 1.133642e-57 2.702224e-58 2.152774e-58 1.269881e-58 1.549093e-57 1.871587e-56 2.863491e-55 2.891951e-54 3.882571e-53 3.249077e-52 3.672046e-51 2.231547e-50 1.935948e-49 8.765305e-49 7.514123e-48 4.107152e-47 3.670878e-46 1.548301e-45 9.869614e-45 2.228475e-44 9.350227e-44 8.589741e-44 2.213757e-43 3.245040e-44 6.503425e-44 -1.003565e-44 6.006964e-45 -4.127035e-46 5.313293e-46 3.613438e-46 2.291544e-45 -2.244314e-46 -2.123583e-46 -2.123034e-45 -3.038906e-43 -9.445904e-44 7.690054e-42 -2.105113e-40 9.494413e-40 -1.516600e-38 -1.477189e-37 -1.174942e-36 -2.239530e-36 -5.629083e-35 -2.602106e-34 2.957500e-35 -2.052528e-34 -1.693804e-32 -1.304472e-31 -5.247817e-31 2.064194e-30 -6.538655e-31 -3.058781e-32 -5.460214e-33 -1.172759e-33 -2.359939e-34 -4.061227e-35 -4.812578e-36 -5.462386e-38 2.119847e-38 -5.213646e-39 6.712046e-40 9.744602e-41 2.557318e-41 2.612093e-42 1.286589e-43 -9.728473e-45 -8.141182e-46 -2.459795e-47 -2.269480e-48 -4.776284e-50 -1.093650e-51 -5.978499e-53 1.490085e-54 -4.608383e-56 8.593403e-58 -1.962715e-58 -7.152919e-60 -5.944363e-61 -2.024943e-62 -9.602192e-64 -2.764579e-65 -9.542116e-67 -2.325983e-68 -6.281364e-70 -1.304283e-71 -2.858847e-73 -5.089858e-75 -9.276792e-77 -1.426076e-78 -2.200612e-80 -2.942075e-82 -3.899905e-84 -4.568237e-86 -5.266925e-88 -5.448326e-90 -4.566888e-92 -4.783932e-92 3.478919e-90 6.575876e-89 6.833716e-87 4.175178e-85 2.861516e-83 1.665226e-81 9.331897e-80 4.347617e-78 1.901881e-76 6.538144e-75 2.155959e-73 5.326330e-72 1.353307e-70 2.460888e-69 4.974543e-68 6.817288e-67 1.117559e-65 1.160358e-64 
3.609233e-62 2.789068e-61 2.928317e-60 1.602198e-59 1.286733e-58 4.618744e-58 2.685659e-57 5.577626e-57 2.133336e-56 2.103707e-56 4.314767e-56 1.686912e-56 1.545513e-56 3.339738e-57 2.522492e-57 2.119355e-57 2.930252e-56 3.588864e-55 5.277461e-54 5.483042e-53 7.109470e-52 6.085743e-51 6.449003e-50 3.912138e-49 3.119826e-48 1.430356e-47 1.150402e-46 6.473885e-46 5.318754e-45 2.275803e-44 1.313125e-43 3.031584e-43 1.135293e-42 1.062436e-42 2.413365e-42 2.858295e-43 6.110570e-43 -1.343118e-43 6.576086e-44 -7.073274e-45 7.087294e-45 7.572127e-45 3.477731e-44 -9.248196e-45 -3.209497e-45 -5.044483e-43 -7.629997e-42 2.661590e-41 1.720821e-42 6.183456e-39 1.323055e-38 1.515073e-37 4.778208e-37 3.141917e-36 9.976653e-36 -5.485869e-35 -8.969296e-34 2.934311e-34 1.614826e-32 8.301002e-32 4.786417e-31 1.410921e-30 -5.412636e-30 1.554640e-30 6.626532e-32 1.265781e-32 3.099481e-33 6.640395e-34 1.598728e-34 2.561767e-35 4.545976e-36 2.151980e-37 -3.087798e-38 1.847983e-39 -1.905762e-40 -5.456842e-41 -9.078990e-42 -1.802864e-42 -1.553446e-43 -1.290944e-44 -4.593530e-46 -1.821094e-47 -6.068419e-50 6.870460e-51 1.063390e-51 4.116069e-53 9.493898e-55 -3.717799e-57 -3.700635e-57 -2.117514e-58 -1.279567e-59 -4.931242e-61 -2.006093e-62 -6.195115e-64 -1.948099e-65 -4.998067e-67 -1.272176e-68 -2.754090e-70 -5.817400e-72 -1.074342e-73 -1.916535e-75 -3.047964e-77 -4.655950e-79 -6.431174e-81 -8.509261e-83 -1.028962e-84 -1.191102e-86 -1.270696e-88 -1.074487e-90 -1.989130e-90 6.499024e-89 -1.807919e-88 5.233009e-86 2.584577e-84 2.342948e-82 1.607035e-80 1.080038e-78 5.880332e-77 2.947124e-75 1.126084e-73 4.054305e-72 1.063108e-70 2.852667e-69 5.362256e-68 1.118916e-66 1.561094e-65 2.594374e-64 2.714278e-63 
8.181776e-61 6.315657e-60 6.510966e-59 3.531850e-58 2.741870e-57 9.668101e-57 5.344100e-56 1.076420e-55 3.836376e-55 3.615794e-55 6.714956e-55 2.454595e-55 2.026077e-55 3.924676e-56 2.861378e-56 3.616544e-56 5.303052e-55 6.583638e-54 9.370984e-53 1.001759e-51 1.254039e-50 1.087442e-49 1.079122e-48 6.485158e-48 4.773386e-47 2.205070e-46 1.672612e-45 9.612784e-45 7.312409e-44 3.150487e-43 1.662871e-42 3.885821e-42 1.315173e-41 1.238543e-41 2.510698e-41 2.255507e-42 5.469148e-42 -1.517199e-42 6.552398e-43 -8.904451e-44 8.729627e-44 1.309701e-43 4.862051e-43 -2.092458e-43 2.505421e-43 -1.562868e-41 -1.798471e-40 -3.258249e-39 -1.070307e-38 -7.787995e-38 6.769564e-38 -2.406027e-37 3.216080e-37 5.696725e-37 1.182518e-36 -1.924483e-35 -2.704615e-33 -9.164586e-33 -5.237245e-32 -2.038011e-31 -1.223776e-30 -4.701855e-30 1.428685e-29 -3.521699e-30 -1.421735e-31 -2.720866e-32 -6.774008e-33 -1.479335e-33 -3.716304e-34 -6.815478e-35 -1.590516e-35 -1.809610e-36 -2.850156e-37 8.294207e-39 -2.165456e-40 -7.828652e-42 9.462573e-43 5.313654e-43 9.339399e-44 1.778212e-44 1.685631e-45 1.756837e-46 1.012223e-47 6.522133e-49 2.334019e-50 9.062471e-52 7.603151e-54 -5.915511e-55 -8.087017e-56 -4.584066e-57 -2.259050e-58 -9.107497e-60 -3.303229e-61 -1.070762e-62 -3.120693e-64 -8.391191e-66 -2.025493e-67 -4.588105e-69 -9.336733e-71 -1.802638e-72 -3.134994e-74 -5.211381e-76 -7.833110e-78 -1.131078e-79 -1.483323e-81 -1.875009e-83 -2.163004e-85 -2.410633e-87 -1.937734e-89 -6.000081e-89 1.536548e-87 -1.623734e-86 6.613713e-85 7.710239e-84 1.731612e-81 1.316954e-79 1.143505e-77 7.394317e-76 4.395016e-74 1.872626e-72 7.458245e-71 2.066180e-69 5.882759e-68 1.138137e-66 2.455067e-65 3.477658e-64 5.860128e-63 6.169600e-62 
1.840902e-59 1.418735e-58 1.435562e-57 7.717624e-57 5.797544e-56 2.007508e-55 1.056914e-54 2.063358e-54 6.861839e-54 6.174346e-54 1.035331e-53 3.530196e-54 2.613182e-54 4.515897e-55 3.235417e-55 6.170032e-55 9.260601e-54 1.160633e-52 1.622630e-51 1.770147e-50 2.155794e-49 1.867675e-48 1.751404e-47 1.032140e-46 7.096188e-46 3.264045e-45 2.364618e-44 1.370248e-43 9.842370e-43 4.238036e-42 2.091536e-41 4.921626e-41 1.538902e-40 1.462077e-40 2.690369e-40 1.932194e-41 5.150356e-41 -1.650621e-41 6.539583e-42 -9.752514e-43 1.133511e-42 2.506899e-42 8.289764e-42 -6.241847e-42 3.300883e-41 2.896880e-40 4.315149e-39 4.071714e-38 4.572779e-38 7.318429e-37 -8.084412e-37 1.174622e-36 1.503967e-38 2.557018e-36 1.242652e-35 -1.221280e-34 -1.651035e-33 4.774981e-34 4.102906e-32 5.522313e-32 1.969408e-30 1.890472e-29 -3.964752e-29 8.129393e-30 3.161118e-31 5.928895e-32 1.436137e-32 3.046705e-33 7.265452e-34 1.308557e-34 2.801144e-35 3.685421e-36 5.583462e-37 1.828683e-38 -1.467947e-39 -2.159240e-40 -1.838990e-41 -3.148904e-42 -3.557852e-43 -4.818196e-44 -4.642215e-45 -4.696268e-46 -3.637383e-47 -2.827701e-48 -1.810317e-49 -1.143529e-50 -6.283979e-52 -3.356104e-53 -1.591599e-54 -7.219021e-56 -2.903268e-57 -1.107200e-58 -3.728737e-60 -1.190602e-61 -3.357544e-63 -9.014370e-65 -2.145549e-66 -4.886702e-68 -9.922971e-70 -1.936901e-71 -3.391864e-73 -5.729132e-75 -8.735038e-77 -1.287448e-78 -1.722642e-80 -2.230938e-82 -2.636792e-84 -3.018667e-86 -1.933989e-88 -1.635239e-87 3.813159e-86 -5.124958e-85 1.475273e-83 -1.294868e-82 1.627792e-80 1.012577e-78 1.219132e-76 9.407535e-75 6.689894e-73 3.185559e-71 1.396979e-69 4.074485e-68 1.223201e-66 2.429476e-65 5.389400e-64 7.739529e-63 1.317558e-61 1.394695e-60 
4.058226e-58 3.120837e-57 3.100820e-56 1.652488e-55 1.202335e-54 4.091083e-54 2.054181e-53 3.888491e-53 1.207292e-52 1.036094e-52 1.563128e-52 4.939873e-53 3.269884e-53 4.966688e-54 3.624108e-54 1.035739e-53 1.558372e-52 1.982651e-51 2.731292e-50 3.036158e-49 3.584579e-48 3.086218e-47 2.732140e-46 1.574958e-45 1.014113e-44 4.639942e-44 3.220873e-43 1.879629e-42 1.280929e-41 5.508629e-41 2.562180e-40 6.055751e-40 1.769262e-39 1.689710e-39 2.863029e-39 1.650141e-40 4.861734e-40 -1.701554e-40 6.237545e-41 -9.529390e-42 1.438986e-41 4.754164e-41 1.610596e-40 -2.894268e-40 4.693223e-40 4.811387e-38 -1.496024e-37 -5.689245e-37 1.017672e-36 -6.487894e-36 5.119911e-36 -3.658447e-36 7.110538e-37 -8.146388e-38 2.269861e-37 -1.772563e-34 -8.918715e-33 -3.095039e-32 5.288263e-31 3.282132e-30 7.831702e-30 -7.798003e-29 1.153337e-28 -1.868747e-29 -7.318249e-31 -1.302036e-31 -3.007773e-32 -5.948491e-33 -1.303173e-33 -2.123261e-34 -3.864976e-35 -3.804420e-36 -3.564480e-37 -2.263774e-39 -1.132430e-40 -4.596246e-41 -7.436974e-42 -1.819128e-42 -2.791519e-43 -5.093339e-44 -6.387362e-45 -8.706610e-46 -8.578881e-47 -8.825859e-48 -6.805076e-49 -5.374733e-50 -3.273828e-51 -2.023372e-52 -9.874273e-54 -4.865555e-55 -1.931520e-56 -7.723460e-58 -2.532674e-59 -8.356776e-61 -2.297912e-62 -6.355418e-64 -1.486401e-65 -3.495381e-67 -7.042568e-69 -1.425677e-70 -2.501394e-72 -4.403558e-74 -6.785060e-76 -1.046796e-77 -1.425163e-79 -1.937625e-81 -2.340875e-83 -2.817247e-85 -1.856570e-88 -4.241091e-86 9.370197e-85 -1.460765e-83 3.755507e-82 -5.908588e-81 2.321084e-79 3.939989e-78 1.203152e-75 1.087853e-73 9.965563e-72 5.288595e-70 2.597687e-68 7.907960e-67 2.514949e-65 5.098349e-64 1.164545e-62 1.689817e-61 2.906879e-60 3.088691e-59 
8.915666e-57 6.842315e-56 6.669981e-55 3.525702e-54 2.486119e-53 8.322112e-53 3.991084e-52 7.337554e-52 2.128164e-51 1.745030e-51 2.356311e-51 6.890205e-52 4.048342e-52 5.378388e-53 4.125126e-53 1.686323e-52 2.535513e-51 3.274712e-50 4.485070e-49 5.043408e-48 5.797808e-47 4.925264e-46 4.146318e-45 2.328701e-44 1.415275e-43 6.395934e-43 4.288337e-42 2.509994e-41 1.646857e-40 7.085212e-40 3.156864e-39 7.535324e-39 2.091412e-38 2.039846e-38 3.222081e-38 1.902122e-39 4.980366e-39 -1.818738e-39 6.083948e-40 -8.847435e-41 1.876924e-40 1.161496e-39 4.878025e-39 -5.153762e-38 -3.467776e-37 -2.468402e-36 1.704209e-36 8.371294e-36 -2.214836e-35 4.353557e-35 -2.427402e-35 1.047412e-35 -9.444850e-37 2.971808e-36 3.588933e-35 -8.783503e-34 -3.774383e-32 -5.287114e-31 -5.855725e-30 -3.498267e-29 -1.244410e-28 3.547046e-28 -3.598264e-28 4.543825e-29 1.831990e-30 3.106840e-31 6.639853e-32 1.219533e-32 2.362576e-33 3.570995e-34 5.472832e-35 5.453530e-36 3.798832e-37 7.803831e-39 -2.793367e-40 -2.410540e-41 -2.424165e-42 -5.867198e-43 -9.644698e-44 -1.937092e-44 -2.620956e-45 -3.883046e-46 -4.088226e-47 -4.504857e-48 -3.694369e-49 -3.097500e-50 -2.007287e-51 -1.313237e-52 -6.851269e-54 -3.584550e-55 -1.535111e-56 -6.570005e-58 -2.352319e-59 -8.398982e-61 -2.553657e-62 -7.727833e-64 -2.019265e-65 -5.239538e-67 -1.186355e-68 -2.660388e-70 -5.247460e-72 -1.022236e-73 -1.762347e-75 -2.992759e-77 -4.520250e-79 -6.709035e-81 -8.895775e-83 -1.160080e-84 5.071548e-86 -1.046112e-84 2.271009e-83 -3.922558e-82 9.724868e-81 -1.783332e-79 5.403738e-78 -5.718688e-77 1.349962e-74 1.253290e-72 1.561663e-70 9.140208e-69 4.987060e-67 1.573958e-65 5.251803e-64 1.083514e-62 2.530257e-61 3.705414e-60 6.410765e-59 6.834774e-58 
1.933800e-55 1.479952e-54 1.416688e-53 7.429192e-53 5.084615e-52 1.676159e-51 7.692806e-51 1.375813e-50 3.732148e-50 2.926920e-50 3.522108e-50 9.455395e-51 4.910252e-51 5.588736e-52 4.764621e-52 2.678455e-51 4.018368e-50 5.298532e-49 7.216020e-48 8.188183e-47 9.135725e-46 7.639751e-45 6.117215e-44 3.346244e-43 1.924927e-42 8.601716e-42 5.592632e-41 3.289991e-40 2.089193e-39 9.012618e-39 3.879931e-38 9.365242e-38 2.501530e-37 2.495358e-37 3.741804e-37 2.485319e-38 5.367351e-38 -1.967512e-38 6.030303e-39 -8.237361e-40 1.847874e-39 3.054742e-38 3.803183e-37 4.613300e-36 1.713869e-35 6.849519e-35 1.772134e-36 -1.239705e-34 2.335465e-34 -2.649820e-34 1.016571e-34 -3.091272e-35 2.924227e-36 -4.841435e-37 -3.011719e-36 8.901240e-35 3.676916e-32 1.431551e-30 3.582015e-29 2.319472e-28 1.120165e-27 -1.602895e-27 1.187850e-27 -1.110694e-28 -4.949030e-30 -7.801349e-31 -1.548930e-31 -2.524614e-32 -4.301438e-33 -5.500130e-34 -6.942937e-35 -5.344625e-36 -2.810530e-37 -2.651798e-39 -6.799283e-42 -2.357626e-42 -4.501785e-43 -1.286251e-43 -2.489350e-44 -5.638116e-45 -8.619869e-46 -1.434475e-46 -1.699736e-47 -2.119424e-48 -1.967975e-49 -1.886844e-50 -1.393348e-51 -1.050417e-52 -6.255873e-54 -3.776954e-55 -1.837325e-56 -9.021626e-58 -3.627238e-59 -1.468264e-60 -4.934111e-62 -1.666755e-63 -4.730894e-65 -1.348288e-66 -3.262925e-68 -7.919921e-70 -1.647319e-71 -3.432089e-73 -6.175440e-75 -1.111275e-76 -1.738608e-78 -2.715513e-80 -3.709092e-82 -5.121408e-84 1.362739e-84 -2.509580e-83 5.415296e-82 -1.022083e-80 2.490778e-79 -5.074837e-78 1.430017e-76 -3.021140e-75 1.782722e-73 1.094400e-71 2.470939e-69 1.558791e-67 9.646603e-66 3.115628e-64 1.094873e-62 2.283153e-61 5.455344e-60 8.032367e-59 1.398012e-57 1.492564e-56 
4.193716e-54 3.202915e-53 3.006803e-52 1.566662e-51 1.040892e-50 3.387882e-50 1.489635e-49 2.602292e-49 6.604081e-49 4.982140e-49 5.307016e-49 1.306848e-49 5.933340e-50 5.746399e-51 5.644823e-51 4.097887e-50 6.176909e-49 8.319440e-48 1.132016e-46 1.289285e-45 1.401108e-44 1.150664e-43 8.816605e-43 4.696647e-42 2.569743e-41 1.130945e-40 7.167674e-40 4.243785e-39 2.639591e-38 1.150356e-37 4.848048e-37 1.198364e-36 3.121579e-36 3.265320e-36 4.692259e-36 4.361123e-37 6.468747e-37 -2.305876e-37 6.235809e-38 -6.940298e-39 -3.860080e-38 -1.472213e-36 -1.344138e-35 -1.113595e-34 -3.646268e-34 -1.141037e-33 -5.148276e-34 1.402812e-33 -2.014419e-33 1.427917e-33 -3.881428e-34 8.122547e-35 -3.913985e-36 4.348277e-36 8.794658e-35 -4.421452e-33 -7.228365e-31 -2.033650e-29 -2.997366e-28 -1.518435e-27 -8.914209e-27 8.047017e-27 -4.258241e-27 2.924714e-28 1.500078e-29 2.243772e-30 4.021123e-31 5.931741e-32 8.627187e-33 9.903658e-34 1.014130e-34 7.253634e-36 2.726746e-37 3.620833e-39 -6.823757e-41 -2.989444e-42 -1.560261e-43 -2.831038e-44 -5.050074e-45 -1.157684e-45 -1.855442e-46 -3.235334e-47 -3.982426e-48 -5.152167e-49 -4.887160e-50 -4.785907e-51 -3.549062e-52 -2.686280e-53 -1.580119e-54 -9.418459e-56 -4.457516e-57 -2.128601e-58 -8.221278e-60 -3.196553e-61 -1.021809e-62 -3.285017e-64 -8.811955e-66 -2.377153e-67 -5.424522e-69 -1.245670e-70 -2.451859e-72 -4.863188e-74 -8.377982e-76 -1.457114e-77 -2.230452e-79 -3.451502e-81 -4.758082e-83 -2.212770e-84 3.061994e-83 -5.766331e-82 1.259072e-80 -2.552280e-79 6.250220e-78 -1.378201e-76 3.843730e-75 -9.335300e-74 3.610766e-72 4.415023e-71 4.307611e-68 2.824793e-66 1.949286e-64 6.387935e-63 2.331305e-61 4.901069e-60 1.187367e-58 1.756419e-57 3.057802e-56 3.269471e-55 
9.041247e-53 6.884145e-52 6.346333e-51 3.285814e-50 2.123612e-49 6.833266e-49 2.886257e-48 4.939024e-48 1.175389e-47 8.563890e-48 8.047832e-48 1.801798e-48 7.106246e-49 5.668498e-50 6.846984e-50 6.153188e-49 9.359569e-48 1.292294e-46 1.753870e-45 1.999923e-44 2.112944e-43 1.702752e-42 1.250260e-41 6.489048e-41 3.389508e-40 1.472438e-39 9.146342e-39 5.469405e-38 3.354213e-37 1.481971e-36 6.177991e-36 1.568782e-35 4.048578e-35 4.457018e-35 6.285183e-35 7.937317e-36 8.674012e-36 -2.895745e-36 7.020096e-37 2.189863e-37 4.437946e-36 5.689590e-35 3.465254e-34 2.125923e-33 5.715826e-33 1.525812e-32 1.032265e-32 -1.324714e-32 1.454155e-32 -7.430514e-33 1.499418e-33 -2.372740e-34 1.201661e-35 -5.294836e-36 -4.217624e-35 7.824422e-32 4.743403e-30 1.299460e-28 3.536533e-27 6.356093e-27 6.558515e-26 -3.949168e-26 1.609584e-26 -7.639439e-28 -5.015651e-29 -6.916673e-30 -1.137107e-30 -1.447978e-31 -1.823206e-32 -1.731479e-33 -1.483046e-34 -8.502811e-36 -2.961380e-37 -3.797965e-39 -2.538015e-42 -1.970692e-43 -1.980311e-44 -4.028416e-45 -7.883844e-46 -1.917129e-46 -3.300873e-47 -6.152699e-48 -8.062046e-49 -1.110975e-49 -1.118060e-50 -1.166944e-51 -9.220368e-53 -7.492343e-54 -4.751737e-55 -3.084156e-56 -1.603576e-57 -8.508314e-59 -3.696679e-60 -1.635328e-61 -6.030926e-63 -2.258820e-64 -7.151882e-66 -2.292556e-67 -6.278343e-69 -1.734626e-70 -4.127214e-72 -9.871556e-74 -2.045879e-75 -4.247694e-77 -7.679488e-79 -1.386372e-80 -2.188510e-82 -3.568185e-83 6.496588e-82 -1.302406e-80 2.889480e-79 -6.265500e-78 1.551373e-76 -3.677141e-75 1.026595e-73 -2.711739e-72 9.146243e-71 -2.439748e-69 7.929183e-67 5.119397e-65 4.017165e-63 1.315482e-61 4.995832e-60 1.051161e-58 2.582874e-57 3.822967e-56 6.659252e-55 7.114588e-54 