# vtk DataFile Version 2.0
Comment goes here
ASCII

DATASET STRUCTURED_POINTS
DIMENSIONS    128   128   1

ORIGIN    0.000   0.000   0.000
SPACING   0.0156250.015625   1.000

POINT_DATA   16384
SCALARS Concentration double
LOOKUP_TABLE default

3.984622e-58 4.597308e-57 3.694132e-57 3.229367e-56 1.003221e-56 4.532676e-56 6.380505e-57 8.834453e-57 7.808888e-58 3.315299e-58 3.644744e-59 1.003721e-59 4.478823e-60 1.251609e-60 1.324012e-59 -7.849979e-59 3.684729e-57 -2.148153e-56 5.881350e-55 -2.484031e-54 4.699491e-53 -1.383347e-52 1.969118e-51 -4.837775e-51 5.135927e-50 -9.932335e-50 7.522520e-49 -6.523494e-49 3.729237e-48 -6.558596e-51 -4.389971e-49 -1.116416e-48 -2.912838e-47 -6.284507e-47 -6.458848e-47 -2.398348e-46 6.692129e-46 9.383653e-44 7.163759e-42 -3.436725e-40 -1.403384e-37 -1.259586e-35 -9.484024e-34 -3.625253e-32 -1.317170e-30 -2.637646e-29 -5.124324e-28 -5.546093e-27 -5.861225e-26 -3.361852e-25 -1.899956e-24 -5.586636e-24 -1.690543e-23 -3.226334e-23 -5.971512e-24 -3.746825e-23 3.309698e-22 -2.742595e-21 2.313034e-20 -1.126294e-19 4.852137e-19 -1.194147e-18 2.276749e-18 -1.000514e-18 -3.346815e-19 2.232687e-20 -9.613464e-22 -4.663267e-22 2.541994e-22 -5.849635e-23 1.131976e-23 -1.196207e-24 1.276689e-25 -1.606153e-26 -2.537347e-26 -1.129505e-25 -5.130479e-26 -1.481258e-26 -4.310909e-27 -6.606663e-28 -1.011548e-28 -8.544714e-30 -7.147761e-31 -3.374804e-32 -1.563029e-33 -4.034230e-35 -1.000677e-36 -1.281149e-38 -1.419435e-40 -4.381114e-43 4.914832e-45 8.984137e-47 7.384372e-49 6.491685e-51 2.020985e-54 7.501033e-55 -1.932786e-56 1.523067e-57 -5.253241e-59 2.734321e-60 -7.904153e-62 3.125618e-63 -8.225711e-65 2.745004e-66 -6.763992e-68 1.962120e-69 -4.347851e-71 1.059619e-72 -1.965289e-74 3.830974e-76 -1.373645e-78 1.187857e-76 1.663914e-75 4.788254e-74 6.761184e-73 1.888706e-71 2.516306e-70 6.551834e-69 7.733017e-68 1.819359e-66 1.788181e-65 3.720289e-64 2.847642e-63 5.169101e-62 2.835799e-61 4.460405e-60 1.561501e-59 2.120327e-58 
3.027658e-60 4.086482e-59 2.693420e-59 2.814885e-58 7.331934e-59 3.834246e-58 1.036225e-58 1.250971e-58 3.120111e-58 1.546761e-58 3.160852e-58 1.051996e-58 6.920431e-59 1.985702e-59 2.897137e-58 -7.973501e-58 7.215534e-56 -2.571269e-55 1.046457e-53 -3.038625e-53 7.826357e-52 -1.743647e-51 3.162267e-50 -6.663558e-50 8.343839e-49 -1.514477e-48 1.308672e-47 -1.238235e-47 8.278312e-47 -2.563831e-47 2.051093e-46 4.786940e-47 4.516390e-46 8.888238e-46 8.213668e-46 2.503740e-45 -2.644770e-45 -1.269135e-42 -2.097956e-40 -2.297729e-38 -2.613421e-36 -1.452496e-34 -8.445501e-33 -2.581181e-31 -8.106216e-30 -1.394805e-28 -2.434628e-27 -2.335770e-26 -2.260450e-25 -1.168525e-24 -6.226996e-24 -1.696034e-23 -5.492321e-23 -9.001427e-23 -3.713054e-23 7.452972e-23 -8.945490e-22 8.548093e-21 -9.097441e-20 4.202040e-19 -1.751133e-18 4.197146e-18 -8.238406e-18 3.685099e-18 1.048806e-18 -3.430591e-20 -4.256130e-21 2.897927e-21 -1.208066e-21 2.740043e-22 -5.495307e-23 4.676125e-24 -4.450633e-25 2.156667e-26 -1.052009e-25 -4.077629e-25 -2.086015e-25 -5.515392e-26 -1.694766e-26 -2.684211e-27 -4.457058e-28 -4.030135e-29 -3.740759e-30 -1.937480e-31 -1.030596e-32 -3.034333e-34 -9.257251e-36 -1.493567e-37 -2.537648e-39 -2.105621e-41 -1.837419e-43 -1.098147e-45 -1.916853e-48 -1.409027e-49 6.819473e-52 -1.955075e-53 1.413739e-55 -5.784805e-57 2.185262e-58 -1.159837e-59 3.461479e-61 -1.255759e-62 2.847903e-64 -7.534656e-66 1.285505e-67 -2.373053e-69 2.536278e-71 -1.903791e-73 -2.289574e-75 1.066694e-76 -2.028069e-78 8.767709e-79 1.086131e-77 3.294861e-76 4.354987e-75 1.309881e-73 1.655038e-72 4.709996e-71 5.298295e-70 1.375127e-68 1.283367e-67 2.964216e-66 2.128586e-65 4.317837e-64 2.177410e-63 3.864311e-62 1.207413e-61 1.877878e-60 
1.724032e-61 9.430124e-61 5.472509e-60 1.748760e-59 1.202801e-58 2.174662e-58 1.458023e-57 1.384632e-57 6.702422e-57 3.283026e-57 6.063004e-57 1.878226e-57 1.064079e-57 3.383979e-58 6.140796e-57 2.217637e-57 1.361144e-54 -1.650662e-54 1.778965e-52 -2.555885e-52 1.230023e-50 -1.680278e-50 4.725227e-49 -7.383176e-49 1.222106e-47 -1.724711e-47 1.844300e-46 -1.182909e-46 9.599141e-46 -1.497665e-47 2.728092e-46 -5.387568e-46 -5.082603e-45 -1.138201e-44 -9.770693e-45 -2.308699e-44 -1.136448e-43 1.347540e-41 -1.083693e-40 1.399286e-38 -1.919608e-36 -1.397432e-34 -1.179043e-32 -4.159316e-31 -1.468416e-29 -2.667676e-28 -4.839896e-27 -4.648819e-26 -4.506360e-25 -2.246817e-24 -1.202531e-23 -3.214194e-23 -1.165079e-22 -1.871069e-22 -4.427107e-23 -1.293121e-22 1.054576e-21 -1.624777e-20 2.418321e-19 -1.207325e-18 4.773727e-18 -1.205702e-17 2.523383e-17 -1.197945e-17 -2.772480e-18 -4.216057e-20 2.731520e-20 -1.000729e-20 3.747756e-21 -8.965101e-22 1.663852e-22 -9.705453e-24 5.768662e-25 -9.559387e-26 -2.826913e-25 -1.095723e-24 -5.661453e-25 -1.325759e-25 -4.061349e-26 -6.217283e-27 -1.039990e-27 -9.155726e-29 -8.322101e-30 -4.081264e-31 -2.031371e-32 -5.280868e-34 -1.388300e-35 -1.566448e-37 -2.027951e-39 1.071016e-41 -9.716711e-44 1.090390e-44 -8.936433e-47 3.487986e-48 -3.232033e-50 6.512401e-52 -5.036992e-54 6.197451e-56 -7.317763e-58 3.142396e-59 -1.178915e-60 4.495137e-62 -1.215787e-63 3.401408e-65 -7.250616e-67 1.594564e-68 -2.738849e-70 4.756617e-72 -6.449951e-74 8.636920e-76 -8.842069e-78 3.279400e-79 4.323874e-78 7.031738e-77 1.163392e-75 1.706991e-74 2.566271e-73 3.390946e-72 4.572975e-71 5.513107e-70 6.541947e-69 7.370270e-68 7.420456e-67 7.877986e-66 6.406550e-65 6.167618e-64 3.965618e-63 3.132762e-62 
3.890836e-60 1.624860e-59 1.340001e-58 3.928674e-58 2.926628e-57 5.317385e-57 3.364544e-56 3.235967e-56 1.434109e-55 6.949485e-56 1.159869e-55 3.348253e-56 1.649726e-56 6.316804e-57 1.314414e-55 3.382088e-55 2.611313e-53 1.490999e-53 3.089041e-51 -8.217338e-52 1.987547e-49 -1.337374e-49 7.422095e-48 -8.548111e-48 1.965767e-46 -2.348217e-46 3.139227e-45 -2.007025e-45 1.974357e-44 -3.396604e-45 4.403874e-44 1.403247e-44 7.118339e-44 1.340213e-43 1.039126e-43 1.668438e-43 3.444944e-42 -2.302253e-40 4.790760e-39 -3.139298e-37 2.075037e-36 -2.693342e-34 -5.766372e-33 -3.211215e-31 -1.273168e-29 -2.666218e-28 -5.711157e-27 -5.646236e-26 -5.795224e-25 -2.830200e-24 -1.562758e-23 -4.418510e-23 -1.815200e-22 -2.863180e-22 -1.013925e-22 -1.305679e-22 1.213737e-21 4.386173e-20 -8.154582e-19 3.176564e-18 -1.098623e-17 2.773998e-17 -6.853982e-17 3.313323e-17 6.415498e-18 4.543601e-19 -6.464088e-20 2.106671e-20 -9.066654e-21 2.588599e-21 -6.249308e-22 4.070832e-23 5.995582e-25 -8.025586e-26 -5.231787e-25 -2.170799e-24 -1.116204e-24 -2.322357e-25 -6.724413e-26 -9.657964e-27 -1.596618e-27 -1.282641e-28 -1.105712e-29 -4.474628e-31 -1.901865e-32 -4.220535e-34 -7.022678e-36 -2.851383e-37 2.021417e-39 -2.894686e-40 4.167506e-42 -1.907044e-43 2.680763e-45 -7.255600e-47 8.820273e-49 -1.610091e-50 1.574301e-52 -1.943006e-54 1.326094e-56 -1.070425e-58 1.416694e-60 -5.734069e-62 1.756959e-63 -4.923570e-65 9.945413e-67 -1.963781e-68 2.959624e-70 -4.402925e-72 5.052543e-74 -5.650562e-76 4.947849e-78 2.925864e-78 5.704050e-77 9.822476e-76 1.736212e-74 2.657772e-73 4.259907e-72 5.688779e-71 8.198376e-70 9.405067e-69 1.216609e-67 1.185579e-66 1.383098e-65 1.133541e-64 1.202571e-63 8.164111e-63 7.942022e-62 4.339842e-61 
9.102134e-59 3.855802e-58 3.109371e-57 9.236222e-57 6.589414e-56 1.216483e-55 7.207884e-55 7.040837e-55 2.876112e-54 1.384181e-54 2.117306e-54 5.693293e-55 2.484898e-55 1.254118e-55 2.652183e-54 1.201415e-53 4.743345e-52 1.058340e-51 5.081116e-50 4.628938e-50 3.032126e-48 3.499437e-49 1.095153e-46 -6.041785e-47 2.897093e-45 -2.107236e-45 4.494880e-44 -1.587086e-44 2.464400e-43 -1.824773e-45 2.063481e-43 -1.167341e-43 -5.904087e-43 -1.441696e-42 -1.050173e-42 -8.957158e-43 -6.175989e-41 3.185818e-39 -9.088691e-38 3.796627e-36 -6.734152e-35 2.310737e-33 -2.102848e-32 6.114983e-31 -3.780091e-30 5.860451e-30 -1.564361e-27 -1.683050e-26 -2.076463e-25 -1.153356e-24 -8.224302e-24 -3.074541e-23 -1.956431e-22 -3.981226e-22 -3.227182e-22 3.325694e-21 4.809336e-21 9.440426e-20 1.315017e-18 -4.577859e-18 1.462299e-17 -4.382019e-17 1.590116e-16 -8.322805e-17 -1.296337e-17 -1.867430e-18 -1.198232e-20 -2.915816e-20 1.656099e-20 -5.419684e-21 6.193813e-22 1.720701e-22 9.566674e-24 2.129394e-24 -6.143800e-25 -3.575366e-24 -1.389691e-24 -2.066025e-25 -4.720337e-26 -5.095531e-27 -7.016722e-28 -4.283420e-29 -3.196823e-30 1.090792e-32 -5.561276e-33 8.333371e-34 -2.603249e-35 2.653749e-36 -7.173145e-38 3.785382e-39 -8.481482e-41 2.803396e-42 -5.060780e-44 1.158961e-45 -1.672369e-47 2.792955e-49 -3.190945e-51 3.939125e-53 -3.425973e-55 2.948416e-57 -1.661398e-59 8.128247e-62 -6.748586e-64 2.075209e-65 -5.166507e-67 9.667065e-69 -1.382007e-70 1.665127e-72 -1.617444e-74 1.335223e-76 7.536752e-79 3.336443e-77 6.945060e-76 1.280291e-74 2.433275e-73 3.970308e-72 6.786054e-71 9.598427e-70 1.460666e-68 1.761354e-67 2.380330e-66 2.418770e-65 2.915529e-64 2.471801e-63 2.678653e-62 1.866709e-61 1.832169e-60 1.020603e-59 
2.062406e-57 8.856455e-57 6.988343e-56 2.101358e-55 1.440326e-54 2.698316e-54 1.506262e-53 1.494087e-53 5.671216e-53 2.725963e-53 3.865193e-53 9.756648e-54 3.841273e-54 2.533940e-54 5.206049e-53 3.001924e-52 8.477587e-51 2.839225e-50 8.312196e-49 1.462088e-48 4.663421e-47 3.359184e-47 1.670091e-45 -1.503068e-46 4.564088e-44 -1.993698e-44 7.375888e-43 -2.038581e-43 4.580332e-42 -1.286059e-43 8.986191e-42 2.936835e-42 9.110599e-42 1.502618e-41 9.895663e-42 3.246351e-42 7.274608e-40 -3.333757e-38 1.039528e-36 -3.648343e-35 7.763570e-34 -2.005463e-32 2.637082e-31 -4.851044e-30 3.248513e-29 -4.229182e-28 7.008552e-28 -1.022421e-26 -9.636444e-27 -9.968689e-26 -2.304437e-24 -1.405026e-23 -1.523944e-22 -5.114517e-22 2.055228e-21 -1.073482e-20 -4.060331e-20 4.085651e-19 -2.068945e-18 2.226379e-18 -6.661921e-18 3.232074e-17 -3.165661e-16 1.760889e-16 2.314665e-17 4.828966e-18 6.395872e-19 9.814469e-20 -4.161842e-20 1.550776e-20 -5.977496e-21 6.019606e-22 -4.669172e-23 -8.809953e-25 1.198771e-24 -4.992081e-24 -1.031893e-24 -1.325813e-25 -1.445249e-26 -4.533620e-28 -3.553646e-29 -3.060135e-29 1.755856e-30 -8.499537e-31 5.600498e-32 -7.446449e-33 3.645579e-34 -2.545236e-35 9.083453e-37 -3.975792e-38 1.055838e-39 -3.175703e-41 6.429250e-43 -1.405722e-44 2.210580e-46 -3.633432e-48 4.481629e-50 -5.625452e-52 5.428185e-54 -5.169502e-56 3.763824e-58 -2.513506e-60 1.103383e-62 -1.883875e-65 -3.002012e-67 4.092457e-69 -2.658920e-71 1.024889e-73 2.303042e-76 -5.175893e-78 1.746846e-77 3.827750e-76 8.502541e-75 1.686386e-73 3.407918e-72 5.949795e-71 1.074439e-69 1.613540e-68 2.572523e-67 3.264473e-66 4.578570e-65 4.852342e-64 6.010937e-63 5.269698e-62 5.809595e-61 4.153294e-60 4.101644e-59 2.327603e-58 
4.369999e-56 1.899269e-55 1.469725e-54 4.473373e-54 2.954068e-53 5.621096e-53 2.968265e-52 2.995271e-52 1.062804e-51 5.122439e-52 6.815228e-52 1.618750e-52 5.901118e-53 5.021595e-53 9.540958e-52 6.550047e-51 1.422844e-49 6.222729e-49 1.282979e-47 3.332067e-47 6.794379e-46 9.578065e-46 2.415171e-44 1.306636e-44 6.685987e-43 2.723074e-44 1.064538e-41 -2.743391e-43 6.174080e-41 3.393839e-42 7.933696e-41 -1.246179e-41 -3.847649e-41 -1.400073e-40 -8.648644e-41 -5.520348e-41 -5.077761e-39 2.112314e-37 -7.194806e-36 2.247901e-34 -5.380767e-33 1.192691e-31 -1.865067e-30 2.765415e-29 -2.509707e-28 2.280846e-27 -9.163633e-27 4.132930e-26 -1.541298e-26 -3.684729e-26 -2.041721e-24 1.548575e-24 -2.376311e-24 -5.915047e-22 -1.048647e-21 -2.933025e-21 5.514208e-20 -1.272276e-19 -1.225108e-18 4.134247e-18 -1.268497e-17 8.053045e-17 5.526318e-16 -3.473924e-16 -3.836283e-17 -1.068736e-17 -2.622279e-18 -5.978990e-19 3.592854e-20 -8.826525e-21 6.814289e-21 -1.200067e-21 5.508743e-23 -5.328939e-23 -1.483481e-23 -6.779023e-24 5.116539e-25 -1.516312e-25 1.360992e-26 3.623229e-28 -1.603398e-28 2.067185e-28 -2.970889e-29 5.642583e-30 -5.111437e-31 4.880264e-32 -2.920798e-33 1.698182e-34 -7.020216e-36 2.723180e-37 -8.099614e-39 2.226198e-40 -4.934803e-42 1.003161e-43 -1.700299e-45 2.624688e-47 -3.443001e-49 4.074852e-51 -4.133617e-53 3.738959e-55 -2.906473e-57 1.987322e-59 -1.165861e-61 5.909502e-64 -2.542914e-66 9.150322e-69 -2.673959e-71 5.792364e-74 -6.841043e-77 6.252670e-78 1.679835e-76 3.976262e-75 9.622142e-74 2.046928e-72 4.467375e-71 8.307533e-70 1.602868e-68 2.541270e-67 4.277791e-66 5.676721e-65 8.307135e-64 9.124001e-63 1.166032e-61 1.050935e-60 1.182210e-59 8.628844e-59 8.595810e-58 4.952925e-57 
9.017611e-55 3.966545e-54 3.009139e-53 9.270203e-53 5.908517e-52 1.141834e-51 5.726933e-51 5.887395e-51 1.963088e-50 9.559742e-51 1.202183e-50 2.721606e-51 9.357617e-52 9.450280e-52 1.670483e-50 1.253513e-49 2.304629e-48 1.156741e-47 1.934295e-46 6.152892e-46 9.828836e-45 1.911151e-44 3.541710e-43 3.660063e-43 1.013534e-41 3.700587e-42 1.662162e-40 1.662950e-41 1.044082e-39 1.076978e-40 1.920822e-39 5.441652e-40 1.185592e-39 1.430642e-39 7.733103e-40 9.202583e-40 1.840766e-38 -7.419976e-37 2.615019e-35 -8.009473e-34 2.004229e-32 -4.284511e-31 7.127041e-30 -9.937251e-29 1.000182e-27 -8.124982e-27 3.885068e-26 -1.139538e-25 -3.417582e-25 3.348323e-24 -1.543854e-23 3.083311e-23 -3.616073e-23 -9.702633e-22 5.737274e-21 2.016320e-20 -8.157871e-20 -3.107205e-19 -2.472810e-19 -6.254271e-19 -3.740655e-17 -2.377751e-16 -8.785524e-16 5.735403e-16 5.811827e-17 1.792676e-17 5.817748e-18 1.695534e-18 3.369774e-19 1.955071e-20 2.239092e-21 2.259033e-21 -1.191596e-21 2.746622e-22 5.744001e-23 -1.202971e-23 6.884874e-25 -2.771308e-25 3.783184e-26 -1.960247e-26 4.559372e-27 -1.169168e-27 1.814606e-28 -2.508645e-29 2.426308e-30 -2.028834e-31 1.277436e-32 -6.938614e-34 2.976136e-35 -1.106982e-36 3.375048e-38 -9.005656e-40 2.034886e-41 -4.069065e-43 7.076075e-45 -1.097593e-46 1.501976e-48 -1.830182e-50 1.965862e-52 -1.860073e-54 1.536558e-56 -1.102504e-58 6.828806e-61 -3.620039e-63 1.637113e-65 -6.222785e-68 1.985073e-70 -5.174251e-73 1.094987e-75 5.758193e-77 1.672720e-75 4.288300e-74 1.111881e-72 2.549707e-71 5.929331e-70 1.178943e-68 2.403001e-67 4.031808e-66 7.097106e-65 9.860341e-64 1.493434e-62 1.700530e-61 2.227504e-60 2.063803e-59 2.357029e-58 1.756076e-57 1.758272e-56 1.028565e-55 
1.765928e-53 7.845378e-53 5.848219e-52 1.822037e-51 1.124112e-50 2.206215e-50 1.055263e-49 1.106152e-49 3.485071e-49 1.720436e-49 2.065164e-49 4.473085e-50 1.484700e-50 1.685163e-50 2.734760e-49 2.216073e-48 3.509966e-47 1.978032e-46 2.760686e-45 1.043617e-44 1.357183e-43 3.479926e-43 4.971309e-42 8.244841e-42 1.451176e-40 1.188350e-40 2.384238e-39 7.742659e-40 1.485337e-38 2.340735e-39 2.410471e-38 8.400241e-40 3.258246e-39 -1.113669e-38 -5.625710e-39 -1.074363e-38 1.087643e-38 -3.333391e-37 2.990012e-36 1.619072e-34 -1.008290e-32 3.067385e-31 -7.066624e-30 1.126801e-28 -1.483018e-27 1.363086e-26 -1.028567e-25 5.231950e-25 -2.084142e-24 6.037056e-24 -1.526523e-23 6.788947e-23 -4.236699e-22 2.386257e-21 5.627718e-21 -4.157051e-21 -2.902947e-19 -8.979148e-19 -2.362518e-18 1.415043e-17 8.624720e-17 4.009264e-16 1.552238e-15 -9.209523e-16 -8.960455e-17 -2.803995e-17 -9.595414e-18 -2.951963e-18 -8.400138e-19 -1.579766e-19 2.341426e-20 5.657186e-21 -6.004214e-22 1.196597e-22 7.732928e-23 1.940364e-23 -4.022301e-24 7.058345e-25 -2.023452e-25 4.661316e-26 -1.112610e-26 1.925776e-27 -2.987345e-28 3.312472e-29 -3.175223e-30 2.211130e-31 -1.312521e-32 5.654422e-34 -1.996146e-35 4.644295e-37 -5.816302e-39 -1.153978e-40 9.423323e-42 -3.118231e-43 7.802940e-45 -1.427690e-46 2.271435e-48 -2.783268e-50 3.052997e-52 -2.600732e-54 2.000242e-56 -1.186722e-58 6.363894e-61 -2.587186e-63 9.475381e-66 -2.551100e-68 6.122083e-71 -1.034939e-73 8.390453e-77 4.906851e-76 1.532227e-74 4.249327e-73 1.208115e-71 2.975783e-70 7.500152e-69 1.585770e-67 3.455518e-66 6.093811e-65 1.130809e-63 1.632843e-62 2.573859e-61 3.016906e-60 4.066790e-59 3.849064e-58 4.476917e-57 3.387541e-56 3.417714e-55 2.022567e-54 
3.383914e-52 1.519388e-51 1.111379e-50 3.504259e-50 2.093868e-49 4.177372e-49 1.910002e-48 2.046680e-48 6.110946e-48 3.084393e-48 3.545643e-48 7.465412e-49 2.414412e-49 2.806465e-49 4.243807e-48 3.574421e-47 5.110808e-46 3.074044e-45 3.811265e-44 1.604460e-43 1.841182e-42 5.636200e-42 6.949753e-41 1.493678e-40 2.092070e-39 2.413946e-39 3.536738e-38 1.710803e-38 2.350739e-37 5.403912e-38 4.513148e-37 1.107000e-37 2.052955e-37 1.412600e-37 6.205026e-38 8.303775e-38 7.259463e-38 -1.167114e-36 2.978716e-35 -6.559745e-34 1.415979e-32 -2.736667e-31 5.070831e-30 -7.541330e-29 9.955122e-28 -9.539382e-27 7.900386e-26 -4.398569e-25 2.160577e-24 -6.804554e-24 2.255539e-23 -6.044017e-23 4.440185e-22 -1.592020e-21 1.883751e-21 1.007203e-20 -2.338494e-19 -1.779356e-18 -1.742058e-17 -5.784190e-17 -2.162101e-16 -7.364058e-16 -2.661875e-15 1.482598e-15 1.362297e-16 4.444779e-17 1.671619e-17 5.522321e-18 2.143210e-18 6.555480e-19 1.760320e-19 9.444858e-21 -4.184029e-21 4.665262e-22 -4.908748e-23 -2.411717e-23 3.090727e-24 -3.351754e-25 1.184552e-25 -2.938570e-26 7.766930e-27 -1.356192e-27 2.145189e-28 -2.371334e-29 2.289136e-30 -1.630254e-31 1.017447e-32 -4.964577e-34 2.204109e-35 -8.250896e-37 2.951493e-38 -9.222003e-40 2.702033e-41 -6.627861e-43 1.453158e-44 -2.566663e-46 3.969346e-48 -4.863101e-50 5.194782e-52 -4.349611e-54 3.174209e-56 -1.791443e-58 8.799308e-61 -3.271141e-63 1.052633e-65 -2.472167e-68 4.846671e-71 -9.123443e-74 -8.889933e-76 4.392949e-75 1.483788e-73 4.470842e-72 1.366544e-70 3.630568e-69 9.757250e-68 2.200333e-66 5.055791e-65 9.387256e-64 1.815078e-62 2.726021e-61 4.429352e-60 5.345850e-59 7.358807e-58 7.115945e-57 8.378110e-56 6.440167e-55 6.517324e-54 3.903647e-53 
6.228059e-51 2.818917e-50 2.028370e-49 6.462539e-49 3.751713e-48 7.601861e-48 3.336590e-47 3.654653e-47 1.039632e-46 5.376945e-47 5.965886e-47 1.226077e-47 3.924376e-48 4.417577e-48 6.195615e-47 5.421200e-46 7.041921e-45 4.509212e-44 5.019725e-43 2.346281e-42 2.406780e-41 8.745489e-41 9.385534e-40 2.564853e-39 2.897056e-38 4.575836e-38 5.003115e-37 3.523691e-37 3.462165e-36 9.922042e-37 6.870401e-36 9.168873e-37 2.408431e-36 -6.101858e-37 -1.860089e-37 -6.592486e-37 -2.666919e-37 3.999352e-37 -3.892613e-36 -3.178452e-36 9.123979e-37 2.439948e-32 -1.037267e-30 2.124250e-29 -3.744872e-28 4.127421e-27 -4.275090e-26 2.708125e-25 -1.714738e-24 6.315368e-24 -2.767986e-23 7.041934e-23 -3.486635e-22 3.879819e-22 -6.268401e-21 -1.333642e-19 1.552140e-18 6.712622e-18 2.549319e-17 4.302252e-17 1.536408e-16 8.654250e-16 4.887213e-15 -2.261871e-15 -2.063241e-16 -6.493037e-17 -2.338022e-17 -7.442187e-18 -2.788554e-18 -9.098057e-19 -3.864476e-19 -8.743898e-20 -2.116160e-20 2.044288e-21 1.039608e-22 2.378537e-23 -6.479918e-24 8.157008e-25 -2.186831e-25 3.817058e-26 -8.166095e-27 1.116054e-27 -1.548262e-28 1.398816e-29 -1.198945e-30 6.851813e-32 -3.559163e-33 1.177631e-34 -2.840086e-36 -1.239311e-38 4.517995e-39 -2.503866e-40 9.788815e-42 -2.682221e-43 6.351750e-45 -1.101068e-46 1.702098e-48 -1.921587e-50 1.958797e-52 -1.436914e-54 9.596900e-57 -4.494472e-59 1.928902e-61 -5.562202e-64 1.469211e-66 -2.729883e-69 -7.487774e-72 -4.060189e-73 -1.218264e-74 3.560373e-74 1.347145e-72 4.404865e-71 1.483633e-69 4.231979e-68 1.234212e-66 2.947271e-65 7.225527e-64 1.400384e-62 2.843455e-61 4.402682e-60 7.413873e-59 9.138495e-58 1.289736e-56 1.265408e-55 1.512800e-54 1.174898e-53 1.195641e-52 7.219641e-52 
1.126310e-49 5.145503e-49 3.633809e-48 1.171583e-47 6.604145e-47 1.361583e-46 5.741914e-46 6.450989e-46 1.750196e-45 9.358231e-46 1.002217e-45 2.046152e-46 6.487267e-47 6.507824e-47 8.548521e-46 7.617259e-45 9.240272e-44 6.146299e-43 6.364627e-42 3.202473e-41 3.066790e-40 1.259551e-39 1.243971e-38 3.982276e-38 3.964714e-37 7.638966e-37 7.113043e-36 6.407851e-36 5.304247e-35 1.987794e-35 1.197789e-34 2.779125e-35 5.411409e-35 1.946544e-35 6.841605e-36 6.492858e-36 2.376596e-36 -4.250941e-36 7.025310e-35 -6.994683e-34 5.655634e-33 -4.945977e-32 6.661297e-31 -1.005066e-29 1.563577e-28 -1.753669e-27 1.889048e-26 -1.336693e-25 9.478389e-25 -4.097796e-24 2.032009e-23 -5.644664e-23 2.459429e-22 -3.566890e-22 -4.812084e-22 -9.823854e-21 -4.430417e-20 -1.027060e-18 1.256927e-17 9.335474e-17 2.897635e-16 -2.085855e-16 -9.653372e-15 3.560593e-15 3.287905e-16 9.767166e-17 3.298981e-17 9.521082e-18 3.102768e-18 7.817962e-19 2.674386e-19 4.148025e-20 1.164475e-21 1.166503e-22 6.577935e-24 -1.030517e-23 4.059856e-24 -6.524470e-25 1.750004e-25 -2.830816e-26 5.412561e-27 -6.696551e-28 8.453019e-29 -7.255456e-30 6.001495e-31 -3.556353e-32 2.003400e-33 -8.581994e-35 3.577063e-36 -1.237625e-37 4.378638e-39 -1.351430e-40 4.101839e-42 -1.010898e-43 2.268278e-45 -3.880192e-47 5.881860e-49 -6.598564e-51 6.544359e-53 -4.693266e-55 2.985259e-57 -1.331080e-59 5.277906e-62 -1.414097e-64 2.703551e-67 -3.666145e-69 -1.036176e-70 -4.252617e-72 -1.203255e-73 3.238450e-73 1.329644e-71 4.729973e-70 1.715153e-68 5.264882e-67 1.633802e-65 4.136895e-64 1.064236e-62 2.153967e-61 4.529739e-60 7.231176e-59 1.247975e-57 1.571211e-56 2.253307e-55 2.244000e-54 2.704732e-53 2.123889e-52 2.161541e-51 1.317200e-50 
1.976212e-48 9.083988e-48 6.313673e-47 2.055283e-46 1.128877e-45 2.364272e-45 9.622699e-45 1.107793e-44 2.881943e-44 1.594599e-44 1.659404e-44 3.379104e-45 1.073299e-45 9.130337e-46 1.118197e-44 1.017234e-43 1.156848e-42 8.012069e-42 7.770246e-41 4.218882e-40 3.799450e-39 1.761690e-38 1.607418e-37 5.998928e-37 5.297634e-36 1.240688e-35 9.927542e-35 1.139367e-34 8.038514e-34 3.686989e-34 2.073133e-33 3.938571e-34 1.063046e-33 7.163862e-35 7.300388e-35 -4.223016e-35 -1.334934e-35 1.767016e-35 -3.076070e-34 2.727809e-33 -1.715066e-32 7.476586e-32 -2.285456e-31 1.433032e-30 -2.553806e-29 3.433279e-28 -4.653888e-27 3.737184e-26 -3.177565e-25 1.523866e-24 -8.418328e-24 2.418547e-23 -8.891792e-23 1.245022e-22 -5.706724e-23 -5.274540e-22 1.000875e-20 4.133117e-21 -6.166932e-17 -2.572055e-16 -1.147856e-15 -2.998515e-15 1.922278e-14 -5.552987e-15 -5.348877e-16 -1.466562e-16 -4.557656e-17 -1.190857e-17 -3.390981e-18 -7.223826e-19 -1.706454e-19 -9.061165e-21 3.106578e-22 -2.078183e-24 1.329599e-25 2.370480e-24 -1.178301e-24 2.455032e-25 -6.792740e-26 1.030501e-26 -1.839105e-27 1.930949e-28 -2.175176e-29 1.495903e-30 -1.042551e-31 4.408380e-33 -1.747616e-34 3.069819e-36 2.655624e-38 -7.195513e-39 4.280991e-40 -1.732016e-41 5.998488e-43 -1.540826e-44 3.535315e-46 -5.835748e-48 8.658120e-50 -8.947566e-52 8.396235e-54 -5.288691e-56 3.064711e-58 -1.138081e-60 3.791506e-63 -2.551615e-65 -4.072150e-67 -2.897015e-68 -8.110401e-70 -3.736884e-71 -9.685640e-73 2.734987e-72 1.260958e-70 4.871912e-69 1.950356e-67 6.400077e-66 2.149050e-64 5.713582e-63 1.558972e-61 3.259115e-60 7.148626e-59 1.164228e-57 2.069586e-56 2.636949e-55 3.857402e-54 3.869760e-53 4.716666e-52 3.722809e-51 3.798715e-50 2.325909e-49 
3.419491e-47 1.584521e-46 1.080413e-45 3.558726e-45 1.901443e-44 4.056244e-44 1.592608e-43 1.886657e-43 4.703625e-43 2.717196e-43 2.741615e-43 5.672135e-44 1.799750e-44 1.210651e-44 1.381480e-43 1.269426e-42 1.377641e-41 9.812233e-41 9.109810e-40 5.248934e-39 4.558141e-38 2.318932e-37 2.016766e-36 8.433461e-36 6.914996e-35 1.881080e-34 1.369674e-33 1.926837e-33 1.225217e-32 7.206443e-33 3.723124e-32 9.228799e-33 2.325797e-32 5.011409e-33 1.575984e-33 8.109483e-34 1.621807e-34 -8.229309e-35 1.538902e-33 -1.296884e-32 7.929960e-32 -3.257385e-31 8.162082e-31 -1.524089e-30 3.376223e-30 -4.410937e-29 6.613606e-28 -6.070344e-27 5.771479e-26 -3.083931e-25 1.785185e-24 -5.323710e-24 1.562161e-23 -2.138398e-23 9.197899e-25 4.840169e-22 -6.654993e-20 9.541613e-19 -8.791478e-18 -1.270841e-16 1.266017e-15 1.591401e-14 -4.032635e-14 9.060453e-15 9.328926e-16 2.327520e-16 6.437735e-17 1.450134e-17 3.262774e-18 4.718834e-19 5.796273e-20 -1.082718e-22 -1.876621e-23 1.763964e-25 1.780803e-26 -3.099782e-25 1.716541e-25 -4.665170e-26 1.300100e-26 -1.934746e-27 3.185678e-28 -3.032304e-29 3.038993e-30 -1.867424e-31 1.166734e-32 -4.792283e-34 2.037854e-35 -6.856704e-37 2.739817e-38 -1.103293e-39 4.855088e-41 -1.849047e-42 6.420473e-44 -1.695373e-45 3.918530e-47 -6.526733e-49 9.538064e-51 -9.702628e-53 8.761753e-55 -5.314479e-57 2.906528e-59 -1.474123e-61 -1.930047e-64 -9.167967e-65 -2.208370e-66 -1.500329e-67 -4.264567e-69 -1.976886e-70 -4.958773e-72 2.681371e-71 1.339017e-69 5.620634e-68 2.417505e-66 8.476583e-65 3.008526e-63 8.389804e-62 2.380737e-60 5.135337e-59 1.156415e-57 1.920228e-56 3.472227e-55 4.477820e-54 6.614716e-53 6.689889e-52 8.179151e-51 6.497099e-50 6.604498e-49 4.069746e-48 
5.790323e-46 2.694848e-45 1.808150e-44 6.008994e-44 3.135202e-43 6.796401e-43 2.586717e-42 3.147438e-42 7.561840e-42 4.559211e-42 4.488658e-42 9.468998e-43 3.031258e-43 1.551304e-43 1.630647e-42 1.518150e-41 1.578492e-40 1.160042e-39 1.037448e-38 6.358673e-38 5.356447e-37 2.985535e-36 2.487987e-35 1.162681e-34 8.934258e-34 2.816192e-33 1.892416e-32 3.252213e-32 1.906281e-31 1.415268e-31 7.130964e-31 1.860574e-31 6.353965e-31 8.037402e-32 6.150433e-32 1.188718e-34 2.304558e-33 8.264111e-34 -7.084451e-33 5.925879e-32 -3.586450e-31 1.448545e-30 -3.593397e-30 6.568783e-30 -3.087668e-30 9.369940e-30 -5.810525e-29 5.729775e-28 -6.265154e-27 3.545779e-26 -2.167422e-25 6.315167e-25 -1.312084e-24 2.046110e-24 1.227102e-22 2.349315e-21 5.280011e-21 2.849739e-18 4.754519e-16 2.847464e-15 7.137038e-15 -5.368507e-14 8.515939e-14 -1.514786e-14 -1.693200e-15 -3.826132e-16 -9.682457e-17 -1.969888e-17 -3.978523e-18 -5.193135e-19 -5.636193e-20 -6.898317e-22 3.471079e-24 -2.204890e-26 -7.468256e-28 1.412411e-26 -1.125220e-26 4.810056e-27 -1.427080e-27 2.069937e-28 -3.258503e-29 2.690284e-30 -2.427704e-31 1.201026e-32 -6.304649e-34 1.752366e-35 -4.419421e-37 -2.844981e-39 6.951499e-40 -5.038983e-41 2.647445e-42 -1.121347e-43 4.046786e-45 -1.085035e-46 2.497388e-48 -4.013980e-50 5.669104e-52 -5.364136e-54 4.677305e-56 -3.415874e-58 2.174105e-60 -1.900751e-61 -2.350902e-63 -3.578966e-64 -8.840752e-66 -6.031800e-67 -1.694036e-68 -8.129955e-70 -1.760043e-71 2.495530e-70 1.407962e-68 6.398633e-67 3.028373e-65 1.123153e-63 4.275413e-62 1.234218e-60 3.675056e-59 8.070106e-58 1.877120e-56 3.140049e-55 5.801834e-54 7.497857e-53 1.122383e-51 1.135306e-50 1.396235e-49 1.109289e-48 1.126187e-47 6.950693e-47 
9.699428e-45 4.545159e-44 2.988868e-43 1.004999e-42 5.106795e-42 1.128863e-41 4.157836e-41 5.221927e-41 1.206588e-40 7.659632e-41 7.332022e-41 1.606237e-41 5.162447e-42 1.919494e-42 1.818609e-41 1.706421e-40 1.720078e-39 1.296792e-38 1.132454e-37 7.311775e-37 6.058548e-36 3.637254e-35 2.957106e-34 1.514775e-33 1.118691e-32 4.009825e-32 2.556201e-31 5.308658e-31 2.922836e-30 2.843348e-30 1.353808e-29 4.828005e-30 1.716485e-29 2.675312e-30 1.836588e-30 2.676447e-31 2.685619e-32 -7.982430e-34 3.716634e-32 -3.113419e-31 1.848394e-30 -7.107078e-30 1.753261e-29 -2.994868e-29 -1.588701e-30 2.785440e-30 -1.057954e-28 1.159077e-28 -2.892992e-28 -2.066885e-27 7.713369e-27 -1.089943e-26 -5.620417e-25 4.113763e-24 -3.291707e-22 2.680395e-20 7.569726e-19 -3.902907e-17 -1.889787e-15 -1.322147e-14 -5.655395e-14 1.715602e-13 -1.856901e-13 2.683427e-14 3.277599e-15 6.721481e-16 1.508297e-16 2.725574e-17 4.570066e-18 4.945680e-19 3.876135e-20 8.894362e-22 -9.391862e-24 -1.507707e-25 1.573560e-27 -2.317579e-28 3.742456e-28 -3.441375e-28 9.969637e-29 -1.484331e-29 2.131668e-30 -1.609041e-31 1.268055e-32 -5.570783e-34 2.550250e-35 -7.126993e-37 2.244632e-38 -7.041620e-40 3.372500e-41 -1.978665e-42 1.074832e-43 -4.925265e-45 1.853011e-46 -5.142385e-48 1.194340e-49 -1.944292e-51 2.823194e-53 -3.168322e-55 3.949369e-57 -1.274490e-58 3.621357e-61 -2.432048e-61 -4.813608e-63 -5.381671e-64 -1.586510e-65 -1.016852e-66 -3.165986e-68 -1.510916e-69 2.725940e-72 2.751422e-69 1.703708e-67 8.355718e-66 4.216135e-64 1.647499e-62 6.546004e-61 1.949621e-59 5.959096e-58 1.329309e-56 3.139472e-55 5.287324e-54 9.848126e-53 1.276164e-51 1.914734e-50 1.939802e-49 2.378347e-48 1.893460e-47 1.906092e-46 1.180885e-45 
1.601754e-43 7.525871e-43 4.866433e-42 1.649887e-41 8.198959e-41 1.842637e-40 6.601922e-40 8.536299e-40 1.907970e-39 1.273313e-39 1.192873e-39 2.720585e-40 8.854043e-41 2.365025e-41 1.951931e-40 1.850521e-39 1.817130e-38 1.409413e-37 1.209451e-36 8.232455e-36 6.749333e-35 4.353964e-34 3.479206e-33 1.947562e-32 1.399524e-31 5.675403e-31 3.495055e-30 8.698317e-30 4.618294e-29 5.832126e-29 2.737438e-28 1.340664e-28 5.484239e-28 8.244314e-29 1.994513e-28 1.717526e-29 -2.425055e-31 4.620755e-31 1.769716e-31 1.702259e-30 -9.246034e-30 3.687256e-29 -9.511590e-29 2.094853e-28 -1.173071e-28 3.980239e-28 -5.952993e-28 9.783204e-28 -5.523568e-27 3.604683e-28 -4.545250e-26 1.787105e-25 -6.761657e-24 2.331918e-22 5.655487e-21 2.229728e-19 9.289242e-18 3.711804e-16 7.608101e-15 3.998152e-14 2.566439e-13 -4.936710e-13 4.132788e-13 -5.025530e-14 -6.621305e-15 -1.233110e-15 -2.574784e-16 -4.336973e-17 -6.985740e-18 -7.566012e-19 -6.749170e-20 -2.853768e-21 -7.161091e-23 -1.368234e-24 -3.206279e-26 -1.331074e-27 3.607558e-29 1.401717e-29 -4.249024e-30 6.543712e-31 -8.964379e-32 5.878023e-33 -4.181659e-34 1.477878e-35 -5.750913e-37 1.069942e-38 -1.743100e-40 -5.715072e-42 6.046238e-43 -5.152569e-44 3.130578e-45 -1.605719e-46 6.379837e-48 -1.898173e-49 4.955700e-51 -1.046148e-52 2.446042e-54 -8.313991e-56 1.455695e-57 -1.675429e-58 -1.280522e-60 -4.398857e-61 -1.098512e-62 -1.068801e-63 -3.318813e-65 -2.108028e-66 -6.624269e-68 -3.218213e-69 3.564602e-70 2.972450e-68 2.111581e-66 1.108093e-64 6.081688e-63 2.467029e-61 1.034884e-59 3.128082e-58 9.886061e-57 2.206504e-55 5.319337e-54 8.906361e-53 1.678978e-51 2.159782e-50 3.258049e-49 3.279514e-48 4.019125e-47 3.185884e-46 3.188042e-45 1.972430e-44 