# vtk DataFile Version 2.0
Comment goes here
ASCII

DATASET STRUCTURED_POINTS
DIMENSIONS    128   128   1

ORIGIN    0.000   0.000   0.000
SPACING   0.0156250.015625   1.000

POINT_DATA   16384
SCALARS Concentration double
LOOKUP_TABLE default

1.510117e-83 1.692651e-82 2.771651e-81 2.457431e-80 3.608185e-79 2.336341e-78 2.946478e-77 1.223540e-76 1.220459e-75 2.585654e-75 1.730904e-74 1.430154e-74 4.790337e-74 2.501002e-74 6.053976e-74 2.863013e-74 6.452442e-74 3.069982e-74 7.205030e-74 3.630261e-74 1.031602e-73 1.076238e-73 3.664460e-72 1.427100e-71 6.003016e-70 1.343367e-69 2.815728e-68 2.126946e-68 3.080824e-67 2.122762e-68 1.413061e-65 -2.221979e-65 1.193377e-63 -5.746547e-64 3.256307e-62 2.296272e-63 1.816257e-61 3.474720e-62 9.146448e-62 1.673737e-62 3.369102e-63 3.721904e-64 -2.969772e-64 7.331243e-63 -1.182540e-61 1.902858e-60 -2.056378e-59 2.209930e-58 -1.412596e-57 8.616761e-57 -2.460537e-56 4.826501e-56 -2.212140e-56 -3.367389e-57 7.947271e-57 -9.995758e-55 8.189509e-55 -2.634976e-53 7.579168e-52 -9.359253e-51 1.000587e-49 -4.200184e-49 7.003405e-49 -1.621589e-49 -1.933047e-50 8.348577e-52 -5.797904e-53 3.168172e-54 -1.202698e-55 2.410973e-57 8.757426e-59 2.433918e-60 -7.892032e-62 4.319976e-62 -2.487962e-64 3.638792e-64 -4.951269e-63 2.660128e-63 -5.772874e-64 1.068681e-64 -1.033851e-65 1.020018e-66 -6.265976e-68 3.954743e-69 -1.719883e-70 7.612042e-72 -2.480273e-73 8.165053e-75 -2.082457e-76 5.357659e-78 -1.115169e-79 2.341097e-81 -4.094040e-83 7.155639e-85 -1.048655e-86 1.507865e-88 -1.803177e-90 2.080683e-92 -1.977956e-94 1.797419e-96 -1.337230e-98 9.474564e-101 -5.472566e-103 3.006823e-105 -1.340795e-107 5.724863e-110 5.761549e-111 5.608238e-110 7.187821e-109 5.979252e-108 7.550590e-107 6.481851e-106 1.023553e-104 1.622437e-103 4.232728e-102 1.100924e-100 3.120944e-99 8.009040e-98 2.122417e-96 4.910475e-95 1.197813e-93 2.456617e-92 5.518801e-91 9.954800e-90 2.068967e-88 3.253136e-87 6.273784e-86 8.455607e-85 
6.284601e-82 7.089110e-81 1.145610e-79 1.015115e-78 1.444283e-77 9.309949e-77 1.114629e-75 4.602595e-75 4.266490e-74 8.977787e-74 5.486981e-73 4.470935e-73 1.364405e-72 6.941557e-73 1.541427e-72 7.082326e-73 1.471403e-72 6.826061e-73 1.482397e-72 7.396896e-73 2.114310e-72 3.995403e-72 1.266163e-70 6.681690e-70 1.875185e-68 5.083407e-68 7.653059e-67 6.703794e-67 8.328826e-66 6.881355e-66 4.217735e-64 6.140109e-65 3.508011e-62 8.668604e-63 9.535791e-61 2.513872e-61 5.480141e-60 1.104961e-60 2.994714e-60 5.251916e-61 1.194760e-61 1.488498e-62 4.685366e-63 -6.422366e-62 1.047816e-60 -1.724502e-59 1.835243e-58 -1.969504e-57 1.199801e-56 -6.937553e-56 1.583325e-55 -9.852850e-56 -5.375808e-55 1.912771e-55 -2.574634e-55 -6.076553e-53 -2.595179e-53 6.223584e-52 -1.343004e-50 1.418585e-49 -1.354746e-48 5.392330e-48 -7.965082e-48 1.847632e-48 1.885831e-49 -6.529078e-51 3.999572e-52 -1.427108e-53 -8.044467e-55 1.381763e-55 -1.378110e-56 5.757670e-58 -1.825684e-59 2.989069e-60 8.860884e-63 -1.918850e-62 9.733131e-62 -4.959148e-62 9.120248e-63 -1.626218e-63 1.473833e-64 -1.424529e-65 8.376029e-67 -5.196260e-68 2.155812e-69 -9.273597e-71 2.809194e-72 -8.674566e-74 1.929656e-75 -4.287284e-77 6.795888e-79 -1.030840e-80 9.977507e-83 -6.734997e-85 -4.196136e-87 1.875615e-88 -3.278098e-90 4.344250e-92 -4.287579e-94 3.823494e-96 -2.654618e-98 1.728408e-100 -8.836096e-103 4.296484e-105 -1.637229e-107 5.968338e-110 -2.503851e-112 7.070582e-113 2.645466e-110 1.352728e-108 5.263616e-107 1.946046e-105 6.983660e-104 2.384468e-102 8.034056e-101 2.510309e-99 7.817402e-98 2.190504e-96 6.224969e-95 1.539204e-93 3.970805e-92 8.578512e-91 2.012451e-89 3.774573e-88 8.087824e-87 1.306251e-85 2.562841e-84 3.508895e-83 
2.437179e-80 2.769290e-79 4.410085e-78 3.909997e-77 5.384415e-76 3.458512e-75 3.929873e-74 1.613880e-73 1.391648e-72 2.906590e-72 1.624204e-71 1.304406e-71 3.626801e-71 1.795930e-71 3.657302e-71 1.629558e-71 3.120223e-71 1.407881e-71 2.829166e-71 1.405155e-71 4.344649e-71 1.506397e-70 4.136329e-69 2.592873e-68 5.415918e-67 1.646711e-66 1.895157e-65 1.880457e-65 2.099209e-64 3.644772e-64 1.171050e-62 2.099499e-62 9.261391e-61 8.932404e-61 2.412552e-59 1.122883e-59 1.359631e-58 2.847658e-59 7.444017e-59 1.144609e-59 2.886542e-60 3.843747e-61 3.010501e-62 5.882043e-61 -9.296881e-60 1.423363e-58 -1.481429e-57 1.446668e-56 -8.118373e-56 3.516681e-55 -1.098014e-55 -5.876205e-54 1.778061e-53 -8.645398e-54 -1.252262e-53 -2.097998e-51 -9.713469e-52 -1.080882e-51 1.370616e-49 -1.562037e-48 1.379381e-47 -5.754302e-47 7.476623e-47 -1.788594e-47 -1.499184e-48 3.122563e-50 -1.384047e-51 -7.320226e-53 2.868783e-53 -3.151169e-54 2.485645e-55 1.476320e-58 -8.036811e-58 1.127213e-58 7.114477e-61 6.404157e-61 -1.563808e-60 7.276666e-61 -1.243000e-61 2.075446e-62 -1.889394e-63 1.754238e-64 -1.057023e-65 6.406255e-67 -2.764581e-68 1.184023e-69 -3.820723e-71 1.211347e-72 -2.998363e-74 7.228689e-76 -1.389525e-77 2.579636e-79 -3.860624e-81 5.536050e-83 -6.429246e-85 7.105836e-87 -6.364592e-89 5.395368e-91 -3.698177e-93 2.388188e-95 -1.240763e-97 6.048345e-100 -2.352481e-102 8.546700e-105 -2.445247e-107 6.494093e-110 8.356985e-113 9.271489e-111 3.949080e-109 1.668834e-107 6.952342e-106 2.811133e-104 1.118326e-102 4.216016e-101 1.565912e-99 5.363577e-98 1.821870e-96 5.534108e-95 1.692813e-93 4.476342e-92 1.225102e-90 2.790385e-89 6.845054e-88 1.335306e-86 2.950082e-85 4.895036e-84 9.763270e-83 1.358623e-81 
9.149756e-79 1.044727e-77 1.641608e-76 1.451961e-75 1.939997e-74 1.236915e-73 1.339311e-72 5.443488e-72 4.390970e-71 9.053156e-71 4.652874e-70 3.666259e-70 9.322111e-70 4.471997e-70 8.378252e-70 3.601155e-70 6.377775e-70 2.782316e-70 5.198202e-70 2.597393e-70 9.711285e-70 5.536568e-69 1.316261e-67 8.988874e-67 1.508255e-65 4.842921e-65 4.490716e-64 4.941700e-64 5.243363e-63 1.419810e-62 3.210467e-61 1.007910e-60 2.373031e-59 3.755490e-59 5.828142e-58 3.793272e-58 3.166679e-57 6.693941e-58 1.699461e-57 2.028432e-58 6.587602e-59 8.840374e-60 1.710981e-60 -2.334775e-60 4.160877e-59 -6.602912e-58 6.752523e-57 -6.242524e-56 2.740845e-55 -3.096949e-56 -1.139506e-53 1.133466e-52 -2.813849e-52 2.969318e-52 -8.519331e-52 -3.146657e-50 -2.696803e-50 1.566809e-49 -1.920075e-48 1.604318e-47 -1.235091e-46 5.014155e-46 -6.057380e-46 1.396140e-46 9.945532e-48 -2.635783e-50 -1.917149e-52 1.574517e-51 -3.556876e-52 4.169630e-53 -4.500177e-54 3.299098e-55 -2.792513e-56 1.649296e-57 3.604476e-59 -1.962284e-59 1.976655e-59 -8.188510e-60 1.222423e-60 -1.906370e-61 1.610811e-62 -1.424066e-63 8.001385e-65 -4.601623e-66 1.828092e-67 -7.311726e-69 2.127012e-70 -6.162659e-72 1.345432e-73 -2.904950e-75 4.845618e-77 -7.947842e-79 1.023089e-80 -1.286583e-82 1.278091e-84 -1.230843e-86 9.350964e-89 -6.835289e-91 3.914605e-93 -2.144383e-95 9.104392e-98 -3.682675e-100 1.137288e-102 -3.336790e-105 7.312538e-108 -1.514836e-110 1.603795e-111 7.741679e-110 3.715126e-108 1.774834e-106 8.292141e-105 3.771758e-103 1.673589e-101 7.045609e-100 2.895367e-98 1.096042e-96 4.072952e-95 1.348661e-93 4.449256e-92 1.261916e-90 3.667476e-89 8.813422e-88 2.261567e-86 4.585329e-85 1.044643e-83 1.778061e-82 3.605937e-81 5.089737e-80 
3.237337e-77 3.716013e-76 5.754484e-75 5.080589e-74 6.579629e-73 4.165980e-72 4.296814e-71 1.728193e-70 1.304694e-69 2.653362e-69 1.255140e-68 9.693923e-69 2.253099e-68 1.045182e-68 1.800669e-68 7.446830e-69 1.219798e-68 5.128877e-69 8.919706e-69 4.640169e-69 2.345977e-68 1.904418e-67 3.918231e-66 2.798845e-65 3.892584e-64 1.277858e-63 9.750575e-63 1.193546e-62 1.239088e-61 4.610865e-61 8.144529e-60 3.418690e-59 5.503225e-58 1.153486e-57 1.239130e-56 1.007930e-56 6.238169e-56 1.282851e-56 3.079215e-56 2.195841e-57 1.194629e-57 1.357497e-58 2.925952e-59 1.343269e-59 -1.723716e-58 2.642734e-57 -2.553290e-56 1.734208e-55 2.233979e-56 -1.496709e-53 1.549616e-52 -1.163346e-51 2.973173e-51 -4.925388e-51 -8.417790e-51 -3.339220e-49 -5.444667e-49 6.743936e-49 9.630011e-48 -9.981276e-47 7.745343e-46 -3.644677e-45 4.150895e-45 -9.514380e-46 -5.505485e-47 -1.268169e-48 1.217008e-50 -1.374493e-50 2.491287e-51 -2.870769e-52 2.533577e-53 1.521075e-54 -4.746255e-55 2.426898e-56 5.359190e-58 3.329953e-58 -1.961541e-58 6.939847e-59 -1.012665e-59 1.430029e-60 -1.214751e-61 9.952012e-63 -5.617048e-64 3.015033e-65 -1.193104e-66 4.441116e-68 -1.265617e-69 3.364259e-71 -6.994739e-73 1.347061e-74 -2.052027e-76 2.877199e-78 -3.205131e-80 3.266931e-82 -2.644127e-84 1.947042e-86 -1.133328e-88 5.968952e-91 -2.465461e-93 9.168335e-96 -2.648016e-98 6.859682e-101 -1.381007e-103 2.428211e-106 -4.081347e-109 3.232059e-112 9.024830e-111 5.134685e-109 2.866040e-107 1.563248e-105 8.409750e-104 4.349131e-102 2.199751e-100 1.043607e-98 4.828120e-97 2.034647e-95 8.379726e-94 3.039844e-92 1.091012e-90 3.327428e-89 1.032115e-87 2.618820e-86 7.047097e-85 1.484809e-83 3.491165e-82 6.093994e-81 1.256280e-79 1.798701e-78 
1.115428e-75 1.284511e-74 1.961501e-73 1.724306e-72 2.168104e-71 1.358870e-70 1.339097e-69 5.308871e-69 3.767031e-68 7.524606e-68 3.290156e-67 2.482070e-67 5.284856e-67 2.362002e-67 3.748464e-67 1.485385e-67 2.255247e-67 9.097645e-68 1.480307e-67 8.547870e-68 6.242239e-67 6.186371e-66 1.126274e-64 8.110906e-64 9.680572e-63 3.145763e-62 2.028558e-61 2.766009e-61 2.912445e-60 1.345891e-59 2.012862e-58 9.842082e-58 1.237133e-56 3.043835e-56 2.535914e-55 2.376032e-55 1.169133e-54 2.252017e-55 5.205810e-55 7.643003e-57 2.242570e-56 1.664259e-57 5.782556e-58 3.968489e-59 5.582880e-58 -3.794601e-57 3.117707e-56 1.684596e-56 -5.363610e-54 1.078749e-52 -9.384282e-52 7.328494e-51 -2.106398e-50 6.922928e-50 -1.747958e-50 -2.041702e-48 -4.476795e-48 1.218119e-47 -9.582212e-47 5.060817e-46 -3.644262e-45 2.098518e-44 -2.391072e-44 5.195446e-45 2.512839e-46 1.222871e-47 3.475240e-49 8.930669e-50 -1.202919e-50 1.556542e-51 -2.608961e-52 3.060363e-53 -4.332165e-54 2.712043e-55 9.970132e-58 -4.813508e-57 1.413328e-57 -3.994465e-58 4.940387e-59 -6.142865e-60 4.570799e-61 -3.323287e-62 1.632772e-63 -7.703006e-65 2.613189e-66 -8.417863e-68 2.013519e-69 -4.536723e-71 7.711091e-73 -1.227934e-74 1.485843e-76 -1.679117e-78 1.445199e-80 -1.159971e-82 7.080863e-85 -4.032844e-87 1.735313e-89 -7.030121e-92 2.063040e-94 -6.450902e-97 5.991530e-100 -7.226917e-102 -5.288762e-104 -3.777872e-106 -3.613082e-108 -2.063112e-110 4.088782e-110 3.033118e-108 2.008491e-106 1.259531e-104 7.828109e-103 4.675181e-101 2.703870e-99 1.465848e-97 7.660051e-96 3.633923e-94 1.663482e-92 6.662508e-91 2.605383e-89 8.579517e-88 2.840713e-86 7.619844e-85 2.148947e-83 4.703437e-82 1.140415e-80 2.039011e-79 4.270055e-78 6.191246e-77 
3.658554e-74 4.226533e-73 6.358583e-72 5.566130e-71 6.789641e-70 4.212326e-69 3.964638e-68 1.548650e-67 1.033076e-66 2.024857e-66 8.186295e-66 6.024075e-66 1.174233e-65 5.044162e-66 7.370923e-66 2.789609e-66 3.927067e-66 1.514541e-66 2.318459e-66 1.661271e-66 1.711246e-65 1.873126e-64 3.033712e-63 2.167614e-62 2.244597e-61 7.088194e-61 3.892060e-60 6.046186e-60 6.511673e-59 3.526012e-58 4.593649e-57 2.460245e-56 2.541376e-55 6.910699e-55 4.666963e-54 4.787427e-54 1.917524e-53 3.279737e-54 7.353737e-54 -3.630244e-55 3.660565e-55 6.732636e-57 9.586297e-57 1.154180e-57 5.151655e-57 4.432847e-57 -2.070309e-57 -1.146955e-54 2.924640e-53 -4.855849e-52 4.563178e-51 -3.508560e-50 1.153636e-49 -4.058895e-49 -5.485240e-49 -1.186946e-47 -1.435576e-47 -9.184589e-48 5.420650e-47 -3.784282e-46 7.305920e-45 -1.042752e-43 1.219091e-43 -2.573443e-44 -1.008755e-45 -7.965894e-47 -5.530571e-48 -7.027697e-49 1.249628e-50 -2.330157e-51 2.997215e-52 -2.797036e-53 6.778715e-54 1.920849e-54 7.745531e-56 3.144069e-56 -8.370633e-57 1.745671e-57 -2.016770e-58 1.994821e-59 -1.332269e-60 7.570470e-62 -3.122054e-63 1.094173e-64 -2.893045e-66 6.503981e-68 -1.133912e-69 1.684466e-71 -1.999361e-73 2.039039e-75 -1.743191e-77 1.298024e-79 -8.802632e-82 4.813073e-84 -3.303528e-86 4.093500e-89 -2.052972e-90 -1.554857e-92 -2.698129e-94 -2.547513e-96 -3.188337e-98 -2.741485e-100 -2.826848e-102 -2.171845e-104 -1.899236e-106 -1.271567e-108 -6.744459e-110 1.122195e-107 1.146205e-105 7.832721e-104 5.937207e-102 4.153934e-100 2.848558e-98 1.790334e-96 1.086130e-94 5.864588e-93 3.043528e-91 1.355361e-89 5.848554e-88 2.085543e-86 7.423428e-85 2.105499e-83 6.245185e-82 1.418803e-80 3.552442e-79 6.500727e-78 1.383103e-76 2.029928e-75 
1.174791e-72 1.359183e-71 2.014530e-70 1.752346e-69 2.075841e-68 1.271489e-67 1.145476e-66 4.394945e-66 2.764789e-65 5.300359e-65 1.987044e-64 1.422848e-64 2.541011e-64 1.046445e-64 1.408426e-64 5.076085e-65 6.630863e-65 2.438360e-65 3.551877e-65 3.605512e-65 4.768778e-64 5.378572e-63 7.887938e-62 5.489318e-61 5.026618e-60 1.510331e-59 7.160507e-59 1.290237e-58 1.439656e-57 8.619307e-57 1.014948e-55 5.670272e-55 5.074221e-54 1.454481e-53 8.367226e-53 9.032764e-53 3.055985e-52 4.464312e-53 9.993760e-53 -1.129944e-53 6.042118e-54 -2.123677e-55 1.815700e-55 2.718700e-56 3.330882e-56 1.404441e-55 -1.003323e-54 1.907796e-54 -6.340845e-53 1.000758e-51 -9.394734e-51 1.073514e-49 -2.965029e-49 2.281428e-48 -4.288191e-48 -3.065128e-47 -5.303168e-47 -6.102288e-48 1.983035e-47 -1.207484e-45 1.060853e-44 4.233156e-43 -5.199664e-43 1.020477e-43 3.426858e-45 3.351737e-46 3.651485e-47 4.401925e-48 2.988525e-49 1.682781e-50 -2.210421e-52 2.096536e-53 4.984685e-55 5.990279e-54 6.979965e-55 -2.297897e-55 2.418818e-56 -3.037482e-57 2.241115e-58 -1.459382e-59 6.298819e-61 -2.321968e-62 6.261713e-64 -1.433201e-65 2.738236e-67 -4.317428e-69 6.703217e-71 -7.298081e-73 9.412865e-75 -7.295885e-77 1.282441e-80 -1.970353e-80 -5.742941e-82 -1.067948e-83 -2.471193e-85 -3.573584e-87 -6.262192e-89 -7.686998e-91 -1.078974e-92 -1.146048e-94 -1.334828e-96 -1.238598e-98 -1.224138e-100 -9.992106e-103 -8.517120e-105 -6.028070e-107 -8.203428e-108 -3.878436e-107 8.488073e-105 4.262713e-103 4.209059e-101 3.436734e-99 2.806749e-97 2.079927e-95 1.469294e-93 9.165521e-92 5.408058e-90 2.705955e-88 1.289779e-86 5.005623e-85 1.913562e-83 5.746628e-82 1.789441e-80 4.218287e-79 1.088607e-77 2.036760e-76 4.395847e-75 6.521581e-74 
3.624464e-71 4.197385e-70 6.125435e-69 5.292901e-68 6.085728e-67 3.678699e-66 3.171408e-65 1.194288e-64 7.086170e-64 1.327120e-63 4.613534e-63 3.209221e-63 5.246708e-63 2.065375e-63 2.559695e-63 8.751688e-64 1.061650e-63 3.711248e-64 5.259289e-64 8.559202e-64 1.291697e-62 1.454931e-61 1.937164e-60 1.303520e-59 1.058921e-58 2.983198e-58 1.221994e-57 2.652798e-57 3.033539e-56 1.945740e-55 2.089806e-54 1.192653e-53 9.415159e-53 2.776199e-52 1.385806e-51 1.532607e-51 4.438954e-51 5.175652e-52 1.205844e-51 -2.103928e-52 8.581463e-53 -7.025100e-54 3.026999e-54 3.822530e-55 -1.319670e-54 3.117778e-54 -3.718548e-53 -5.515638e-53 -5.607204e-52 -2.043363e-50 -1.293095e-50 -8.460731e-49 3.718264e-49 -3.108309e-48 -1.769027e-48 -7.612506e-47 -2.487987e-46 -6.794608e-47 1.808983e-46 8.635105e-45 -7.321623e-44 -1.811695e-42 2.167913e-42 -3.783213e-43 -1.142524e-44 -1.193755e-45 -1.562850e-46 -2.025259e-47 -2.159597e-48 -1.671652e-49 -2.644423e-51 2.828860e-52 1.420261e-53 1.478164e-53 2.708921e-55 2.644316e-55 2.457947e-56 2.169984e-57 1.156745e-59 9.113762e-61 -5.921480e-62 -6.096257e-64 -9.569158e-66 8.785371e-67 1.002300e-67 2.997861e-69 1.092906e-70 2.137073e-72 3.201348e-74 1.060671e-76 -1.789307e-77 -6.140767e-79 -1.917186e-80 -3.921214e-82 -8.072483e-84 -1.297898e-85 -2.078325e-87 -2.783342e-89 -3.665358e-91 -4.190809e-93 -4.667142e-95 -4.619882e-97 -4.425413e-99 -3.828664e-101 -3.193587e-103 -2.385829e-105 -2.945827e-106 -3.509332e-105 1.285522e-103 5.719892e-103 2.538257e-100 2.127496e-98 2.263121e-96 2.016515e-94 1.739268e-92 1.276460e-90 8.835827e-89 5.022045e-87 2.693530e-85 1.141546e-83 4.731133e-82 1.503376e-80 4.936464e-79 1.205490e-77 3.212357e-76 6.136304e-75 1.344008e-73 2.013687e-72 
1.100164e-69 1.273579e-68 1.828937e-67 1.567292e-66 1.749872e-65 1.041781e-64 8.606440e-64 3.173668e-63 1.779729e-62 3.248840e-62 1.048940e-61 7.078370e-62 1.058798e-61 3.978618e-62 4.535071e-62 1.468782e-62 1.653455e-62 5.500711e-63 7.887651e-63 2.168689e-62 3.423560e-61 3.766576e-60 4.609896e-59 2.970157e-58 2.164208e-57 5.617692e-57 1.996616e-56 5.382118e-56 6.284864e-55 4.177208e-54 4.181270e-53 2.391301e-52 1.714547e-51 5.103782e-51 2.275995e-50 2.540008e-50 6.447714e-50 5.857360e-51 1.461073e-50 -3.306578e-51 1.186972e-51 -1.358379e-52 5.169723e-53 4.873109e-54 -6.011595e-53 7.970677e-53 -1.211736e-51 -7.191070e-51 -1.944370e-50 8.869574e-49 -1.943671e-49 7.884861e-48 -4.859103e-48 6.999397e-48 1.561867e-47 -1.258932e-46 -1.254002e-45 -1.262754e-45 -8.252475e-45 -6.382895e-44 3.871463e-43 7.498264e-42 -8.744623e-42 1.367753e-42 3.643906e-44 4.151545e-45 6.391188e-46 8.872650e-47 1.357738e-47 1.396860e-48 1.652551e-49 6.677791e-51 -2.124635e-53 3.099497e-53 -3.170060e-54 -6.897623e-55 -9.331626e-56 -1.346781e-56 -9.961247e-58 -6.567044e-59 -2.180258e-60 -6.381499e-62 4.297435e-65 4.733285e-65 3.278524e-66 1.101507e-67 3.015683e-69 6.016538e-71 6.659613e-73 -3.170720e-75 -5.855125e-76 -1.933003e-77 -5.301788e-79 -1.105189e-80 -2.141729e-82 -3.522829e-84 -5.463844e-86 -7.492974e-88 -9.718534e-90 -1.138615e-91 -1.262570e-93 -1.281314e-95 -1.231129e-97 -1.092287e-99 -9.184372e-102 -7.002917e-104 -9.492869e-105 -1.306856e-103 3.628061e-102 -4.063547e-101 2.582045e-99 1.073269e-97 1.759947e-95 1.858452e-93 1.970506e-91 1.733233e-89 1.412307e-87 9.248427e-86 5.585372e-84 2.599422e-82 1.165051e-80 3.920876e-79 1.352972e-77 3.420889e-76 9.383126e-75 1.828274e-73 4.053764e-72 6.126889e-71 
3.236901e-68 3.742202e-67 5.286961e-66 4.489939e-65 4.866668e-64 2.851337e-63 2.257133e-62 8.141367e-62 4.315659e-61 7.667417e-61 2.298825e-60 1.501853e-60 2.053668e-60 7.341319e-61 7.695598e-61 2.350711e-61 2.458877e-61 7.792843e-62 1.216614e-61 5.591861e-61 8.722723e-60 9.303708e-59 1.047665e-57 6.437791e-57 4.206793e-56 9.894696e-56 3.039956e-55 1.070760e-54 1.249836e-53 8.473161e-53 7.939695e-52 4.520419e-51 2.971850e-50 8.845182e-50 3.567016e-49 3.965874e-49 8.936591e-49 5.905281e-50 1.677817e-49 -4.487707e-50 1.468807e-50 -2.004731e-51 8.043286e-52 7.924727e-53 -1.631249e-51 2.502280e-51 -2.839111e-50 -6.118219e-49 -2.710252e-48 -2.856661e-47 2.808168e-47 -6.061188e-47 2.391109e-47 -7.281204e-48 4.483210e-48 -1.960638e-46 -4.069649e-45 -4.272623e-45 1.154465e-43 7.540731e-43 1.292112e-42 -3.297685e-41 3.468309e-41 -4.653131e-42 -1.137451e-43 -1.321223e-44 -2.117917e-45 -3.030126e-46 -4.923423e-47 -5.779577e-48 -8.480487e-49 -6.182262e-50 -6.283695e-51 1.080489e-52 -1.145224e-54 3.061297e-55 6.389787e-56 1.337462e-56 1.622389e-57 1.960239e-58 1.464719e-59 1.062153e-60 5.031637e-62 2.332061e-63 7.294938e-65 2.225227e-66 4.316331e-68 7.058835e-70 -1.167875e-72 -3.862610e-73 -1.690008e-74 -4.871822e-76 -1.151043e-77 -2.398084e-79 -4.344953e-81 -7.328814e-83 -1.095596e-84 -1.554900e-86 -1.975735e-88 -2.404680e-90 -2.638509e-92 -2.785803e-94 -2.666101e-96 -2.461532e-98 -2.070881e-100 -1.623165e-102 -2.871814e-103 -4.407821e-102 1.107822e-100 -1.730006e-99 5.595988e-98 -3.989654e-97 1.211126e-94 1.266294e-92 1.870435e-90 2.028229e-88 2.055193e-86 1.579993e-84 1.105449e-82 5.670166e-81 2.782000e-79 9.895288e-78 3.606861e-76 9.417023e-75 2.664252e-73 5.284089e-72 1.186840e-70 1.806970e-69 
9.414072e-67 1.085886e-65 1.507634e-64 1.267399e-63 1.333486e-62 7.677945e-62 5.827706e-61 2.052813e-60 1.029713e-59 1.778122e-59 4.951771e-59 3.130997e-59 3.906407e-59 1.328349e-59 1.277037e-59 3.679900e-60 3.568217e-60 1.090122e-60 2.049127e-60 1.435551e-59 2.162537e-58 2.220173e-57 2.320819e-56 1.353692e-55 7.981919e-55 1.669679e-54 4.422375e-54 2.119653e-53 2.444956e-52 1.661198e-51 1.479977e-50 8.349237e-50 5.132315e-49 1.523128e-48 5.667374e-48 6.296976e-48 1.280265e-47 6.586584e-49 2.023887e-48 -5.969666e-49 1.804785e-49 -2.630968e-50 1.374208e-50 4.700160e-51 -4.832608e-50 2.209232e-49 4.506371e-49 2.391537e-47 -2.255407e-47 4.443910e-46 -3.873613e-46 3.134352e-46 -7.056991e-47 1.695385e-47 4.662643e-47 -7.158181e-46 -2.000581e-44 -1.288957e-43 -1.178547e-42 -8.497853e-42 -3.468294e-41 1.686278e-40 -1.438052e-40 1.597418e-41 3.656060e-43 4.236401e-44 6.728791e-45 9.475204e-46 1.484400e-46 1.758695e-47 2.438023e-48 2.141352e-49 2.103546e-50 5.066352e-52 -2.758192e-53 -2.759572e-54 -2.189771e-55 -2.857031e-56 -2.786657e-57 -2.992181e-58 -2.420074e-59 -1.932829e-60 -1.184175e-61 -6.926624e-63 -3.204683e-64 -1.409467e-65 -5.074190e-67 -1.744413e-68 -5.058807e-70 -1.407899e-71 -3.381160e-73 -7.814215e-75 -1.582548e-76 -3.086936e-78 -5.330825e-80 -8.868670e-82 -1.316042e-83 -1.882179e-85 -2.416032e-87 -2.991165e-89 -3.342284e-91 -3.604941e-93 -3.527114e-95 -3.333526e-97 -2.874154e-99 -2.192964e-101 -8.563365e-102 -1.398087e-100 3.376669e-99 -6.014411e-98 1.739265e-96 -3.087274e-95 1.542120e-93 6.826548e-92 1.740578e-89 2.321209e-87 2.948173e-85 2.713072e-83 2.202965e-81 1.251571e-79 6.690347e-78 2.514570e-76 9.628551e-75 2.593490e-73 7.533367e-72 1.519490e-70 3.445415e-69 5.279533e-68 
2.676827e-65 3.076607e-64 4.198256e-63 3.489910e-62 3.564691e-61 2.014806e-60 1.466576e-59 5.037759e-59 2.391712e-58 4.006983e-58 1.036143e-57 6.325768e-58 7.194713e-58 2.318205e-58 2.043957e-58 5.529787e-59 4.979971e-59 1.494400e-59 3.829288e-59 3.620751e-58 5.190221e-57 5.121167e-56 4.972140e-55 2.745697e-54 1.459049e-53 2.655997e-53 6.105480e-53 4.191973e-52 4.655527e-51 3.147638e-50 2.679253e-49 1.496995e-48 8.676224e-48 2.561771e-47 8.902886e-47 9.851224e-47 1.835343e-46 7.617823e-48 2.460557e-47 -7.611103e-48 2.133165e-48 -3.120217e-49 2.605258e-49 2.925515e-49 -1.918706e-48 1.640789e-47 -1.748415e-46 -8.842923e-46 1.972293e-45 -5.513706e-45 3.116975e-45 -1.422309e-45 2.027382e-46 -2.054740e-47 4.704699e-48 -7.763390e-46 -2.922182e-44 8.070687e-44 9.215034e-42 7.658169e-41 4.460804e-40 -9.289695e-40 6.286913e-40 -5.421365e-41 -1.227146e-42 -1.377961e-43 -2.121802e-44 -2.784614e-45 -3.998857e-46 -4.245705e-47 -4.997545e-48 -3.345293e-49 -2.106039e-50 -1.203942e-52 2.132120e-55 -2.586309e-55 -4.717901e-56 -9.436517e-57 -1.229176e-57 -1.702836e-58 -1.682694e-59 -1.674042e-60 -1.237194e-61 -8.991189e-63 -5.008085e-64 -2.721702e-65 -1.163589e-66 -4.849799e-68 -1.625603e-69 -5.323712e-71 -1.429001e-72 -3.759911e-74 -8.244574e-76 -1.778113e-77 -3.243219e-79 -5.835597e-81 -8.995718e-83 -1.371048e-84 -1.810513e-86 -2.367087e-88 -2.707493e-90 -3.067669e-92 -3.066112e-94 -3.034991e-96 -2.676405e-98 -1.683073e-100 -2.503694e-100 -4.253928e-99 1.005593e-97 -1.985670e-96 5.494780e-95 -1.154733e-93 3.772446e-92 -4.445034e-91 1.372749e-88 2.071780e-86 3.749862e-84 4.273721e-82 4.231521e-80 2.670131e-78 1.579355e-76 6.245869e-75 2.526270e-73 6.992864e-72 2.089925e-70 4.275153e-69 9.794267e-68 1.507677e-66 
7.558108e-64 8.651232e-63 1.158445e-61 9.516900e-61 9.430871e-60 5.228807e-59 3.649715e-58 1.221526e-57 5.488982e-57 8.917997e-57 2.138834e-56 1.261694e-56 1.303875e-56 3.986042e-57 3.208757e-57 8.168376e-58 6.804536e-58 2.099789e-58 7.961567e-58 8.925228e-57 1.216474e-55 1.151529e-54 1.045343e-53 5.460007e-53 2.625102e-52 4.083270e-52 8.429970e-52 8.348538e-51 8.770798e-50 5.850867e-49 4.821155e-48 2.678712e-47 1.485922e-46 4.399708e-46 1.450261e-45 1.625998e-45 2.808297e-45 1.281566e-46 3.269325e-46 -1.022025e-46 2.593118e-47 -3.581175e-48 6.246901e-48 3.066168e-47 -1.720087e-46 -4.646558e-45 5.689515e-45 2.025706e-44 -4.176543e-44 5.051471e-44 -1.943745e-44 5.374778e-45 -4.329525e-46 3.124628e-47 1.428575e-46 -5.380239e-45 -3.831668e-43 -6.751429e-42 -8.677430e-41 -7.844670e-40 -5.095690e-39 5.978002e-39 -2.997625e-39 1.944559e-40 4.507242e-42 5.002403e-43 7.272571e-44 8.873919e-45 1.123452e-45 1.096361e-46 1.076238e-47 6.949474e-49 3.120691e-50 4.088075e-52 -9.381958e-54 -4.568558e-55 -2.616163e-56 -3.566290e-57 -4.083304e-58 -5.543463e-59 -5.527350e-60 -5.669023e-61 -4.323815e-62 -3.265737e-63 -1.891190e-64 -1.070874e-65 -4.787879e-67 -2.085930e-68 -7.362589e-70 -2.533634e-71 -7.221678e-73 -2.011159e-74 -4.727553e-76 -1.088443e-77 -2.149176e-79 -4.164690e-81 -7.013073e-83 -1.160310e-84 -1.686083e-86 -2.407758e-88 -3.045518e-90 -3.783364e-92 -4.191033e-94 -4.553879e-96 -4.626906e-98 1.616092e-99 -7.450223e-99 -1.234649e-97 2.918201e-96 -6.226405e-95 1.702565e-93 -3.894060e-92 1.203066e-90 -2.722187e-89 1.660207e-87 1.674473e-85 4.749277e-83 6.839669e-81 8.347878e-79 5.858317e-77 3.802362e-75 1.578888e-73 6.689936e-72 1.900410e-70 5.807296e-69 1.203756e-67 2.774196e-66 4.287392e-65 
2.104295e-62 2.394893e-61 3.148568e-60 2.552937e-59 2.455663e-58 1.333705e-57 8.930987e-57 2.907265e-56 1.236802e-55 1.944592e-55 4.323209e-55 2.457326e-55 2.305274e-55 6.657145e-56 4.893087e-56 1.166089e-56 9.013752e-57 3.080212e-57 1.780051e-56 2.160642e-55 2.791938e-54 2.535046e-53 2.153795e-52 1.062391e-51 4.626290e-51 6.083318e-51 1.300156e-50 1.697754e-49 1.637756e-48 1.074405e-47 8.631741e-47 4.780719e-46 2.563315e-45 7.625267e-45 2.419291e-44 2.755068e-44 4.500972e-44 2.504682e-45 4.650497e-45 -1.418025e-45 3.280674e-46 -4.703906e-47 1.415980e-46 5.411149e-45 4.298697e-44 2.858967e-43 -1.132940e-43 -3.691566e-43 5.488968e-43 -4.075708e-43 1.057593e-43 -2.010926e-44 1.235367e-45 -4.412523e-47 9.127053e-47 7.436680e-45 -2.119376e-43 3.944115e-42 6.579765e-40 6.433461e-39 5.695996e-38 -3.999266e-38 1.532479e-38 -6.899318e-40 -1.818019e-41 -1.971797e-42 -2.721207e-43 -2.922601e-44 -3.219363e-45 -2.605244e-46 -2.077978e-47 -1.012742e-48 -3.456664e-50 -2.758719e-52 6.998414e-55 9.077300e-57 -1.617713e-57 -4.375563e-58 -6.646797e-59 -1.055790e-59 -1.172619e-60 -1.331127e-61 -1.110674e-62 -9.283541e-64 -5.927790e-65 -3.757914e-66 -1.876023e-67 -9.263733e-69 -3.688595e-70 -1.450840e-71 -4.688682e-73 -1.496646e-74 -3.985840e-76 -1.049014e-77 -2.333458e-79 -5.133233e-81 -9.651020e-83 -1.795473e-84 -2.882253e-86 -4.579297e-88 -6.329324e-90 -8.655988e-92 -1.036991e-93 -1.227075e-95 -1.766501e-97 6.191361e-98 -2.185933e-97 -3.483748e-96 8.282441e-95 -1.895997e-93 5.171848e-92 -1.273852e-90 3.873048e-89 -1.002257e-87 3.564270e-86 1.027362e-85 5.083336e-82 9.573767e-80 1.611958e-77 1.255241e-75 9.109733e-74 3.943320e-72 1.759607e-70 5.103582e-69 1.597777e-67 3.344628e-66 7.761272e-65 1.201480e-63 
5.843178e-61 6.612076e-60 8.517477e-59 6.816888e-58 6.357420e-57 3.382482e-56 2.171253e-55 6.874129e-55 2.765623e-54 4.209931e-54 8.652746e-54 4.747086e-54 4.023816e-54 1.100629e-54 7.338958e-55 1.644820e-55 1.174303e-55 4.983643e-56 4.124639e-55 5.117421e-54 6.290569e-53 5.484213e-52 4.383527e-51 2.048413e-50 8.137919e-50 9.363868e-50 2.609588e-49 3.532077e-48 3.049180e-47 1.958405e-46 1.553004e-45 8.658702e-45 4.543158e-44 1.378894e-43 4.263186e-43 5.069776e-43 7.900833e-43 6.524485e-44 7.526868e-44 -2.181801e-44 4.399784e-45 -1.235857e-45 -2.055954e-44 -3.781167e-43 -2.157234e-42 -9.153931e-42 1.332758e-42 5.299994e-42 -6.183088e-42 2.965660e-42 -5.245280e-43 6.678336e-44 -1.988641e-45 -3.850513e-47 -2.736885e-45 1.978988e-43 -9.372041e-42 -6.310565e-40 -1.844653e-38 -4.984030e-38 -6.658492e-37 3.114042e-37 -8.688226e-38 2.566842e-39 8.517716e-41 9.325986e-42 1.183052e-42 1.139538e-43 1.054695e-44 7.460347e-46 4.645681e-47 1.958214e-48 4.165754e-50 3.478692e-52 -3.739953e-54 -9.728508e-56 -2.554594e-57 -1.931796e-58 -1.608265e-59 -2.002066e-60 -2.032480e-61 -2.238461e-62 -1.848730e-63 -1.546900e-64 -9.839814e-66 -6.232881e-67 -3.074870e-68 -1.501805e-69 -5.840630e-71 -2.245314e-72 -7.008063e-74 -2.163960e-75 -5.521321e-77 -1.397213e-78 -2.970718e-80 -6.289292e-82 -1.137397e-83 -2.058806e-85 -3.237552e-87 -5.124646e-89 -7.163564e-91 -1.011958e-92 -1.280652e-94 -1.306976e-96 -1.246823e-96 1.940023e-96 -6.469008e-96 -9.389042e-95 2.269930e-93 -5.513724e-92 1.523470e-90 -3.990940e-89 1.221365e-87 -3.394952e-86 1.152780e-84 -2.953966e-83 6.081040e-81 1.316685e-78 3.294578e-76 2.821531e-74 2.255623e-72 1.013450e-70 4.706434e-69 1.391311e-67 4.426990e-66 9.351662e-65 2.173511e-63 3.369445e-62 
1.613566e-59 1.812100e-58 2.289433e-57 1.805979e-56 1.634566e-55 8.506645e-55 5.238642e-54 1.609838e-53 6.126859e-53 9.008221e-53 1.710120e-52 9.025924e-53 6.906152e-53 1.780324e-53 1.076958e-53 2.258033e-54 1.500349e-54 9.061575e-55 9.748578e-54 1.200894e-52 1.404704e-51 1.175738e-50 8.858785e-50 3.924274e-49 1.439840e-48 1.626930e-48 7.038744e-48 7.654305e-47 5.735133e-46 3.595814e-45 2.842974e-44 1.601554e-43 8.324733e-43 2.588278e-42 7.942484e-42 9.917788e-42 1.515095e-41 1.756888e-42 1.402379e-42 -3.731535e-43 6.978710e-44 9.926901e-44 1.491663e-42 1.734401e-41 7.214439e-41 2.272471e-40 -5.454582e-42 -6.700919e-41 6.103709e-41 -2.100632e-41 2.615695e-42 -2.403479e-43 6.095109e-45 -3.362191e-46 -3.285399e-45 5.599444e-42 4.578434e-40 1.502681e-38 6.789967e-37 4.897469e-38 7.597303e-36 -2.418072e-36 5.251813e-37 -8.667028e-39 -4.579165e-40 -4.893749e-41 -5.772483e-42 -4.732915e-43 -3.741610e-44 -2.143864e-45 -1.098026e-46 -3.657892e-48 -7.451676e-50 -7.141963e-52 -3.639205e-55 -1.102851e-56 -4.221388e-58 -3.479154e-59 -2.892566e-60 -3.355546e-61 -3.258871e-62 -3.529676e-63 -2.931289e-64 -2.513656e-65 -1.655525e-66 -1.102006e-67 -5.768752e-69 -3.034721e-70 -1.288261e-71 -5.491662e-73 -1.933396e-74 -6.836934e-76 -2.034805e-77 -6.079258e-79 -1.550524e-80 -3.962712e-82 -8.735832e-84 -1.924978e-85 -3.687250e-87 -7.041568e-89 -1.176086e-90 -1.953594e-92 -2.881268e-94 3.908529e-96 -3.070083e-95 5.843480e-95 -1.868207e-94 -2.484970e-93 6.122747e-92 -1.575310e-90 4.427983e-89 -1.232122e-87 3.823186e-86 -1.139572e-84 3.912356e-83 -1.323835e-81 8.514549e-80 1.061726e-77 6.772573e-75 6.274703e-73 5.638443e-71 2.602484e-69 1.263263e-67 3.782962e-66 1.225436e-64 2.602006e-63 6.063499e-62 9.388305e-61 