# vtk DataFile Version 2.0
Comment goes here
ASCII

DATASET STRUCTURED_POINTS
DIMENSIONS    128   128   1

ORIGIN    0.000   0.000   0.000
SPACING   0.0156250.015625   1.000

POINT_DATA   16384
SCALARS Concentration double
LOOKUP_TABLE default

1.369463e-140 1.134626e-138 8.524909e-137 5.649942e-135 3.311649e-133 1.645226e-131 6.932219e-130 2.298435e-128 5.939460e-127 1.007170e-125 1.019987e-124 2.595102e-124 4.666856e-124 7.148193e-124 1.121542e-123 1.036410e-123 1.009665e-123 9.199283e-124 1.108204e-123 1.020534e-123 1.223521e-123 1.081700e-123 1.268546e-123 1.063344e-123 1.195791e-123 9.154731e-124 9.280595e-124 5.606780e-124 3.605509e-124 3.379845e-125 2.478698e-126 9.262992e-128 3.376079e-129 8.008654e-131 1.946490e-132 3.421754e-134 6.295150e-136 8.892778e-138 1.329922e-139 1.589855e-141 2.021058e-143 2.118481e-145 2.345588e-147 2.199325e-149 2.115603e-151 1.768541e-153 1.420304e-155 1.025726e-157 6.522270e-160 3.989880e-162 2.102600e-164 1.190246e-166 6.342875e-169 3.360509e-171 1.773054e-173 2.315042e-175 1.953409e-177 1.773409e-179 8.520595e-182 3.400997e-184 1.194902e-186 4.185098e-189 1.608086e-191 5.753694e-194 1.875111e-196 5.065654e-199 1.158883e-201 2.245927e-204 3.922371e-207 6.296833e-210 1.129484e-212 1.859093e-215 4.505658e-218 8.736763e-221 2.736560e-223 5.168908e-226 1.272788e-228 1.858011e-231 3.522658e-234 4.666639e-237 7.937123e-240 1.130520e-242 1.907991e-245 1.872305e-247 5.491771e-245 1.978610e-242 7.006760e-240 2.528005e-237 9.043502e-235 3.258372e-232 1.166246e-229 4.163874e-227 1.475471e-224 5.177220e-222 1.799277e-219 6.158594e-217 2.082577e-214 6.907823e-212 2.257489e-209 7.213586e-207 2.264673e-204 6.933668e-202 2.079989e-199 6.071232e-197 1.731823e-194 4.796770e-192 1.295167e-189 3.388708e-187 8.621574e-185 2.120826e-182 5.059326e-180 1.163936e-177 2.589033e-175 5.537549e-173 1.141532e-170 2.255380e-168 4.280534e-166 7.757954e-164 1.345698e-161 2.219255e-159 3.487542e-157 5.182091e-155 7.297947e-153 9.650401e-151 1.201276e-148 1.391480e-146 1.503941e-144 1.494526e-142 
3.676762e-138 3.021165e-136 2.318106e-134 1.524530e-132 9.188838e-131 4.532921e-129 1.984772e-127 6.536211e-126 1.784666e-124 3.000290e-123 3.308831e-122 8.649897e-122 1.613086e-121 1.949892e-121 2.758791e-121 2.851114e-121 3.709362e-121 3.552673e-121 4.441617e-121 4.028173e-121 4.911259e-121 4.231911e-121 5.040163e-121 4.087072e-121 4.691665e-121 3.462587e-121 3.620950e-121 2.128900e-121 1.421085e-121 1.293975e-122 9.815431e-124 3.586689e-125 1.341073e-126 3.121445e-128 7.750356e-130 1.338525e-131 2.510216e-133 3.484373e-135 5.307951e-137 6.232633e-139 8.075054e-141 8.307500e-143 9.388350e-145 8.626014e-147 8.474895e-149 6.908445e-151 5.626438e-153 3.889058e-155 2.405949e-157 1.303768e-159 5.564332e-162 2.204075e-164 6.101023e-167 1.841854e-169 3.875879e-172 1.220993e-172 1.181254e-174 1.099198e-176 4.876287e-179 1.689788e-181 4.183861e-184 8.088620e-187 1.236130e-189 1.540869e-192 1.602161e-195 1.435468e-198 9.171484e-202 4.599013e-205 1.234728e-208 4.932480e-212 2.873321e-215 3.873544e-218 5.179364e-220 1.288024e-220 2.784555e-223 3.121540e-226 3.123084e-229 1.344788e-232 8.595065e-236 4.968745e-239 3.987190e-241 2.046402e-243 1.600620e-245 5.606594e-245 1.968668e-242 6.984270e-240 2.485902e-237 8.839587e-235 3.176457e-232 1.127787e-229 4.048840e-227 1.422916e-224 5.047287e-222 1.740520e-219 6.042705e-217 2.029450e-214 6.843743e-212 2.224624e-209 7.241500e-207 2.266125e-204 7.082836e-202 2.123602e-199 6.342836e-197 1.813874e-194 5.154223e-192 1.399700e-189 3.767303e-187 9.671976e-185 2.454747e-182 5.930370e-180 1.412613e-177 3.195324e-175 7.107053e-173 1.496933e-170 3.091330e-168 6.025243e-166 1.147836e-163 2.055434e-161 3.585128e-159 5.848458e-157 9.256662e-155 1.361657e-152 1.934522e-150 2.533915e-148 3.187994e-146 3.659404e-144 4.007129e-142 3.947558e-140 
1.629470e-135 1.338916e-133 1.026477e-131 6.749965e-130 4.063572e-128 2.004264e-126 8.761362e-125 2.885145e-123 7.858867e-122 1.322040e-120 1.451303e-119 3.807928e-119 7.056514e-119 8.564576e-119 1.203394e-118 1.249067e-118 1.612750e-118 1.551917e-118 1.924024e-118 1.754019e-118 2.118781e-118 1.836331e-118 2.164598e-118 1.766810e-118 2.004938e-118 1.490774e-118 1.538930e-118 9.125610e-119 6.003639e-119 5.498522e-120 4.137807e-121 1.510362e-122 5.618860e-124 1.302534e-125 3.220900e-127 5.527870e-129 1.032883e-130 1.421855e-132 2.158948e-134 2.509301e-136 3.242902e-138 3.297485e-140 3.722306e-142 3.379001e-144 3.322838e-146 2.681674e-148 2.190433e-150 1.509623e-152 9.391188e-155 5.133108e-157 2.195638e-159 8.696864e-162 2.244733e-164 6.500700e-167 1.093471e-169 8.508642e-170 8.507303e-172 6.728474e-174 3.064850e-176 1.008504e-178 2.593113e-181 4.878977e-184 7.440965e-187 8.056616e-190 6.097764e-193 2.334553e-196 3.162516e-200 7.212479e-204 1.166150e-207 7.495755e-211 -3.501651e-214 2.417612e-216 4.159205e-217 9.983788e-218 1.974636e-220 1.488907e-223 1.145198e-226 1.416202e-230 7.843486e-234 1.271217e-236 2.842869e-238 1.455787e-240 1.070625e-242 2.120640e-242 7.476483e-240 2.664411e-237 9.585132e-235 3.431945e-232 1.248350e-229 4.464275e-227 1.621392e-224 5.736081e-222 2.055550e-219 7.129321e-217 2.496688e-214 8.426115e-212 2.862103e-209 9.341706e-207 3.059203e-204 9.606411e-202 3.017550e-199 9.073863e-197 2.721539e-194 7.802439e-192 2.224888e-189 6.055213e-187 1.634593e-184 4.204639e-182 1.069815e-179 2.588941e-177 6.179952e-175 1.400010e-172 3.119467e-170 6.579153e-168 1.360671e-165 2.655120e-163 5.064101e-161 9.077232e-159 1.584690e-156 2.587219e-154 4.097461e-152 6.031219e-150 8.571543e-148 1.123258e-145 1.413291e-143 1.622758e-141 1.776559e-139 1.750390e-137 
7.078278e-133 5.815258e-131 4.455105e-129 2.928835e-127 1.761341e-125 8.684720e-124 3.790689e-122 1.248061e-120 3.391917e-119 5.709026e-118 6.239074e-117 1.642828e-116 3.025431e-116 3.686416e-116 5.144416e-116 5.361950e-116 6.871206e-116 6.641889e-116 8.166172e-116 7.481559e-116 8.954343e-116 7.803492e-116 9.104348e-116 7.477313e-116 8.388022e-116 6.280717e-116 6.400223e-116 3.825625e-116 2.480386e-116 2.283611e-117 1.704584e-118 6.209805e-120 2.298297e-121 5.299032e-123 1.304841e-124 2.220871e-126 4.133677e-128 5.625729e-130 8.510889e-132 9.744694e-134 1.255299e-135 1.252245e-137 1.410598e-139 1.250819e-141 1.230359e-143 9.670625e-146 7.936502e-148 5.346616e-150 3.384610e-152 1.841786e-154 8.307362e-157 3.263026e-159 8.339914e-162 2.049058e-164 2.016954e-167 4.596629e-167 4.364981e-169 2.956956e-171 1.325549e-173 4.305081e-176 1.138303e-178 2.234490e-181 3.662716e-184 4.785481e-187 5.359817e-190 4.864413e-193 2.371870e-196 6.067767e-200 -1.081535e-203 9.829765e-208 -4.501025e-211 1.673130e-213 2.849243e-214 5.980208e-215 1.268555e-217 7.542242e-221 4.178847e-224 -3.947294e-228 1.907107e-231 9.379750e-234 2.099833e-235 9.989726e-238 6.820105e-240 7.402854e-240 2.659081e-237 9.588105e-235 3.521388e-232 1.276171e-229 4.726928e-227 1.708539e-224 6.298702e-222 2.248256e-219 8.154166e-217 2.848809e-214 1.007286e-211 3.419728e-209 1.170559e-206 3.839193e-204 1.265090e-201 3.988508e-199 1.259228e-196 3.799176e-194 1.144260e-191 3.289737e-189 9.413435e-187 2.568089e-184 6.952769e-182 1.792140e-179 4.571123e-177 1.108180e-174 2.650814e-172 6.014427e-170 1.342476e-167 2.835109e-165 5.872012e-163 1.147103e-160 2.190455e-158 3.929918e-156 6.867087e-154 1.121954e-151 1.778042e-149 2.618564e-147 3.722976e-145 4.880463e-143 6.141481e-141 7.052896e-139 7.720365e-137 7.606631e-135 
3.010583e-130 2.473526e-128 1.893228e-126 1.244581e-124 7.474851e-123 3.685443e-121 1.605710e-119 5.287249e-118 1.433179e-116 2.414321e-115 2.625493e-114 6.940269e-114 1.269575e-113 1.553605e-113 2.152103e-113 2.253395e-113 2.864142e-113 2.782331e-113 3.389871e-113 3.122694e-113 3.699584e-113 3.243787e-113 3.741514e-113 3.094010e-113 3.426286e-113 2.585571e-113 2.596303e-113 1.565799e-113 9.982780e-114 9.249458e-115 6.829208e-116 2.485571e-117 9.122416e-119 2.093590e-120 5.113576e-122 8.634896e-124 1.593045e-125 2.143008e-127 3.208836e-129 3.614752e-131 4.598886e-133 4.486899e-135 4.977462e-137 4.284959e-139 4.135502e-141 3.131952e-143 2.509558e-145 1.628491e-147 1.006010e-149 5.444663e-152 2.509201e-154 1.041561e-156 2.589365e-159 5.840589e-162 3.298583e-165 1.977895e-164 1.856763e-166 9.913290e-169 4.371152e-171 1.338502e-173 3.652251e-176 7.021132e-179 1.097051e-181 1.041919e-184 4.903719e-188 -2.405682e-191 -3.016682e-194 -9.736933e-198 2.470410e-201 -2.616532e-205 -1.726436e-208 1.008239e-210 1.691009e-211 2.838412e-212 5.454039e-215 3.477315e-219 -2.037913e-223 -7.263508e-226 2.625082e-228 7.046985e-231 1.324173e-232 6.235512e-235 3.845326e-237 2.276313e-237 8.492185e-235 3.151566e-232 1.198232e-229 4.439199e-227 1.689659e-224 6.208394e-222 2.337195e-219 8.445723e-217 3.112796e-214 1.097744e-211 3.929993e-209 1.343937e-206 4.645239e-204 1.532281e-201 5.088264e-199 1.611596e-196 5.119610e-194 1.550450e-191 4.693238e-189 1.353541e-186 3.889053e-184 1.063794e-181 2.889872e-179 7.465836e-177 1.909634e-174 4.638608e-172 1.112161e-169 2.527661e-167 5.652780e-165 1.195532e-162 2.479993e-160 4.850765e-158 9.274038e-156 1.665622e-153 2.913104e-151 4.763593e-149 7.553730e-147 1.113216e-144 1.583210e-142 2.076491e-140 2.613047e-138 3.001858e-136 3.285010e-134 3.237227e-132 
1.254298e-127 1.030508e-125 7.880717e-124 5.179985e-122 3.107228e-120 1.531777e-118 6.662274e-117 2.193797e-115 5.931399e-114 1.000019e-112 1.082182e-111 2.871617e-111 5.218077e-111 6.412363e-111 8.817424e-111 9.273771e-111 1.169137e-110 1.141242e-110 1.377838e-110 1.275989e-110 1.496382e-110 1.319776e-110 1.504909e-110 1.252729e-110 1.369349e-110 1.041120e-110 1.030062e-110 6.265533e-111 3.927345e-111 3.661050e-112 2.672730e-113 9.715226e-115 3.534165e-116 8.068489e-118 1.953508e-119 3.269343e-121 5.972542e-123 7.927356e-125 1.172960e-126 1.295896e-128 1.624000e-130 1.540695e-132 1.675880e-134 1.385693e-136 1.303225e-138 9.320506e-141 7.210853e-143 4.346820e-145 2.565691e-147 1.322594e-149 6.271312e-152 2.912006e-154 1.032290e-156 2.742508e-159 2.531742e-162 5.585697e-162 4.422749e-164 1.926474e-166 8.017052e-169 2.429270e-171 7.043900e-174 1.583111e-176 3.163460e-179 4.821147e-182 5.664368e-185 4.650435e-188 1.844461e-191 3.048456e-195 -1.116874e-198 3.051389e-202 -2.697441e-205 4.489193e-208 6.045150e-209 8.831529e-210 1.344454e-212 -7.261227e-216 2.670986e-219 -2.917592e-222 2.640376e-225 4.909504e-228 7.554133e-230 3.521319e-232 1.985373e-234 6.385531e-235 2.519537e-232 9.777960e-230 3.885739e-227 1.485022e-224 5.832034e-222 2.190061e-219 8.430795e-217 3.094621e-214 1.159268e-211 4.135803e-209 1.498707e-206 5.170363e-204 1.803711e-201 5.990568e-199 2.003673e-196 6.380808e-194 2.038623e-191 6.201148e-189 1.885755e-186 5.458345e-184 1.574215e-181 4.319105e-179 1.176951e-176 3.048370e-174 7.817227e-172 1.902968e-169 4.572298e-167 1.041083e-164 2.332325e-162 4.940427e-160 1.026292e-157 2.010001e-155 3.847168e-153 6.916921e-151 1.210753e-148 1.981543e-146 3.143946e-144 4.636313e-142 6.595694e-140 8.654605e-138 1.089122e-135 1.251515e-133 1.369225e-131 1.349450e-129 
5.114694e-125 4.202577e-123 3.210652e-121 2.110408e-119 1.264149e-117 6.232067e-116 2.705303e-114 8.910203e-113 2.402295e-111 4.054469e-110 4.364880e-109 1.162931e-108 2.098463e-108 2.590207e-108 3.534250e-108 3.734745e-108 4.667987e-108 4.579941e-108 5.476397e-108 5.100116e-108 5.916519e-108 5.250919e-108 5.914465e-108 4.958068e-108 5.344390e-108 4.095889e-108 3.987878e-108 2.447939e-108 1.506245e-108 1.413711e-109 1.018415e-110 3.699555e-112 1.330810e-113 3.023576e-115 7.236233e-117 1.200242e-118 2.163437e-120 2.831254e-122 4.119751e-124 4.454938e-126 5.461352e-128 5.015315e-130 5.293753e-132 4.163115e-134 3.752956e-136 2.479340e-138 1.799222e-140 9.545325e-143 5.030016e-145 2.198944e-147 9.189289e-150 4.209514e-152 1.778907e-154 8.297476e-157 -2.624835e-160 1.165495e-159 6.925985e-162 1.906613e-164 6.120460e-167 1.400414e-169 3.415362e-172 6.576032e-175 1.215137e-177 1.827003e-180 2.350731e-183 2.521106e-186 1.899303e-189 1.312980e-192 3.296414e-196 1.418744e-199 -4.191801e-204 1.469308e-205 1.976366e-206 2.028152e-207 3.999086e-210 -3.445279e-213 2.949980e-216 -2.083781e-219 1.463509e-222 2.822721e-225 3.457911e-227 1.725202e-229 8.854652e-232 1.554311e-232 6.718281e-230 2.769491e-227 1.174355e-224 4.661768e-222 1.911290e-219 7.358351e-217 2.917578e-214 1.089382e-211 4.167530e-209 1.505076e-206 5.538724e-204 1.928178e-201 6.805212e-199 2.275904e-196 7.680834e-194 2.459384e-191 7.913177e-189 2.417653e-186 7.393552e-184 2.147807e-181 6.222637e-179 1.712422e-176 4.683658e-174 1.216179e-171 3.128231e-169 7.631610e-167 1.838208e-164 4.193211e-162 9.412873e-160 1.997014e-157 4.155098e-155 8.148646e-153 1.561583e-150 2.810736e-148 4.924376e-146 8.066665e-144 1.280607e-141 1.889843e-139 2.689247e-137 3.530629e-135 4.442903e-133 5.107277e-131 5.585746e-129 5.506323e-127 
2.041582e-122 1.677617e-120 1.280379e-118 8.416001e-117 5.034238e-115 2.481788e-113 1.075260e-111 3.542215e-110 9.523442e-109 1.609024e-107 1.723224e-106 4.609655e-106 8.259829e-106 1.024035e-105 1.386444e-105 1.471959e-105 1.823905e-105 1.798566e-105 2.129832e-105 1.994516e-105 2.288617e-105 2.043702e-105 2.273600e-105 1.919191e-105 2.039690e-105 1.575533e-105 1.509266e-105 9.348278e-106 5.645081e-106 5.334948e-107 3.790341e-108 1.376386e-109 4.892391e-111 1.106515e-112 2.615060e-114 4.300216e-116 7.636858e-118 9.856632e-120 1.407378e-121 1.489531e-123 1.780196e-125 1.580984e-127 1.610505e-129 1.200458e-131 1.028189e-133 6.203131e-136 4.156725e-138 1.857488e-140 8.302973e-143 2.601008e-145 7.519273e-148 2.518733e-150 8.057041e-153 3.465184e-155 -3.773096e-159 1.665454e-157 4.401345e-160 7.659839e-163 1.302920e-165 1.963087e-168 2.959501e-171 4.190633e-174 5.840627e-177 7.769107e-180 1.007602e-182 1.271165e-185 1.574031e-188 1.983628e-191 2.401404e-194 2.922100e-197 3.225599e-200 6.267935e-203 4.247343e-204 3.182416e-205 8.043354e-208 -1.307448e-210 -1.381664e-215 4.512637e-217 7.408939e-220 1.009772e-222 1.345588e-224 7.236013e-227 3.503621e-229 3.568343e-230 1.703100e-227 7.584489e-225 3.436192e-222 1.429371e-219 6.106982e-217 2.423194e-214 9.871908e-212 3.762517e-209 1.466544e-206 5.374385e-204 2.004542e-201 7.054369e-199 2.514743e-196 8.480185e-194 2.883911e-191 9.294531e-189 3.008522e-186 9.239880e-184 2.839221e-181 8.283156e-179 2.409078e-176 6.653081e-174 1.825424e-171 4.754009e-169 1.225972e-166 2.998319e-164 7.237215e-162 1.654373e-159 3.720067e-157 7.906312e-155 1.647267e-152 3.235227e-150 6.206358e-148 1.118444e-145 1.960966e-143 3.215373e-141 5.106887e-139 7.542048e-137 1.073441e-134 1.410053e-132 1.774252e-130 2.040302e-128 2.230637e-126 2.199359e-124 
7.972324e-120 6.551952e-118 4.995193e-116 3.283595e-114 1.961241e-112 9.669432e-111 4.180822e-109 1.377720e-107 3.693139e-106 6.247115e-105 6.654723e-104 1.787465e-103 3.180018e-103 3.960220e-103 5.319279e-103 5.674308e-103 6.968868e-103 6.907470e-103 8.098528e-103 7.626884e-103 8.653478e-103 7.776023e-103 8.540770e-103 7.260446e-103 7.604246e-103 5.921052e-103 5.577239e-103 3.486373e-103 2.064574e-103 1.965256e-104 1.375572e-105 4.994641e-107 1.752224e-108 3.945379e-110 9.195858e-112 1.498803e-113 2.618743e-115 3.330862e-117 4.658905e-119 4.818272e-121 5.601877e-123 4.796013e-125 4.701968e-127 3.300595e-129 2.676957e-131 1.451535e-133 8.959578e-136 3.169271e-138 1.195161e-140 1.699971e-143 2.383188e-146 -1.730049e-150 3.287495e-153 2.053585e-154 1.534223e-156 1.729432e-155 4.903783e-159 1.151371e-161 1.419896e-164 2.315042e-167 3.548895e-170 5.533055e-173 8.374176e-176 1.251707e-178 1.795437e-181 2.233737e-184 2.074050e-187 -7.941604e-191 -5.667835e-193 -1.160358e-195 1.041223e-198 1.518044e-200 1.097052e-201 3.648042e-203 9.929786e-207 9.952480e-209 2.168417e-211 3.873465e-214 1.455780e-217 3.612472e-221 4.383262e-222 2.657844e-224 1.213306e-226 7.465040e-228 4.059869e-225 1.950460e-222 9.612363e-220 4.179986e-217 1.879941e-214 7.672021e-212 3.232269e-209 1.255393e-206 5.008011e-204 1.859868e-201 7.053784e-199 2.506821e-196 9.048276e-194 3.074158e-191 1.055466e-188 3.421701e-186 1.115856e-183 3.443297e-181 1.064350e-178 3.117198e-176 9.109472e-174 2.523860e-171 6.951643e-169 1.815351e-166 4.696216e-164 1.151174e-161 2.785757e-159 6.380425e-157 1.437664e-154 3.060521e-152 6.386854e-150 1.256113e-147 2.412651e-145 4.352822e-143 7.638491e-141 1.253646e-138 1.992223e-136 2.944367e-134 4.191623e-132 5.509120e-130 6.931535e-128 7.974074e-126 8.714586e-124 8.594558e-122 
3.045110e-117 2.502981e-115 1.906139e-113 1.253114e-111 7.473225e-110 3.684927e-108 1.589949e-106 5.241303e-105 1.400766e-103 2.372442e-102 2.513559e-101 6.779383e-101 1.197406e-100 1.497916e-100 1.995854e-100 2.139270e-100 2.603815e-100 2.594241e-100 3.010974e-100 2.851735e-100 3.198819e-100 2.892640e-100 3.136111e-100 2.684982e-100 2.770640e-100 2.174877e-100 2.013811e-100 1.270615e-100 7.376507e-101 7.075683e-102 4.876097e-103 1.771894e-104 6.129698e-106 1.375816e-107 3.158879e-109 5.112504e-111 8.774718e-113 1.102882e-114 1.508025e-116 1.530342e-118 1.726149e-120 1.434322e-122 1.348800e-124 9.025885e-127 6.910097e-129 3.455996e-131 1.971129e-133 5.897602e-136 1.986895e-138 1.175035e-141 1.575378e-144 -3.018978e-147 3.602132e-150 -2.832385e-152 -1.989087e-154 1.744950e-153 -1.092590e-156 2.021761e-159 -2.038095e-162 -1.288790e-165 -4.508990e-169 -3.619518e-172 -2.305206e-175 3.991474e-178 3.279653e-180 1.784819e-182 7.021132e-185 2.418639e-187 7.050731e-190 1.570124e-192 2.609298e-195 6.840940e-198 2.661291e-199 3.768748e-201 -1.802424e-204 -1.114967e-206 -4.029308e-209 -1.307401e-211 -2.436817e-214 -1.833073e-217 1.516851e-219 8.962871e-222 3.776695e-224 1.647941e-225 9.846907e-223 5.107159e-220 2.685252e-217 1.224345e-214 5.729554e-212 2.412267e-209 1.043095e-206 4.139471e-204 1.681238e-201 6.341342e-199 2.436360e-196 8.759468e-194 3.192403e-191 1.094361e-188 3.785336e-186 1.235869e-183 4.053906e-181 1.258106e-178 3.907086e-176 1.149644e-173 3.372326e-171 9.379623e-169 2.591433e-166 6.789230e-164 1.760733e-161 4.327811e-159 1.049423e-156 2.409075e-154 5.437042e-152 1.159666e-149 2.423120e-147 4.773195e-145 9.176686e-143 1.657796e-140 2.911048e-138 4.782722e-136 7.603212e-134 1.124630e-131 1.601178e-129 2.105760e-127 2.648962e-125 3.048712e-123 3.330267e-121 3.285320e-119 
1.137270e-114 9.349448e-113 7.112107e-111 4.676027e-109 2.784353e-107 1.373104e-105 5.912071e-104 1.949672e-102 5.194741e-101 8.809429e-100 9.282765e-99 2.513909e-98 4.408281e-98 5.539137e-98 7.321478e-98 7.884551e-98 9.510923e-98 9.524084e-98 1.094294e-97 1.042188e-97 1.155759e-97 1.051597e-97 1.125406e-97 9.702263e-98 9.864318e-98 7.804667e-98 7.104316e-98 4.523441e-98 2.574705e-98 2.488404e-99 1.688276e-100 6.139186e-102 2.094488e-103 4.685107e-105 1.060123e-106 1.703055e-108 2.874186e-110 3.567789e-112 4.778369e-114 4.755364e-116 5.223209e-118 4.212173e-120 3.827259e-122 2.447074e-124 1.796310e-126 8.379358e-129 4.592655e-131 1.223757e-133 4.224705e-136 1.500157e-139 5.341949e-142 -9.161552e-145 7.905339e-148 4.291167e-150 3.172776e-152 2.316992e-151 2.108368e-154 8.761788e-157 -1.159888e-159 2.473052e-163 -5.358454e-167 -2.923718e-170 -5.608769e-173 -2.618740e-175 -1.130373e-177 -5.073850e-180 -1.961660e-182 -6.683906e-185 -2.135188e-187 -5.557214e-190 -1.536267e-192 -2.171829e-196 4.633658e-197 4.782821e-199 2.830339e-202 8.639169e-205 2.849558e-207 1.146012e-209 4.465297e-212 1.849012e-214 7.713343e-217 2.998851e-219 1.098581e-221 3.697102e-223 2.423276e-220 1.318743e-217 7.428737e-215 3.502049e-212 1.713439e-209 7.383785e-207 3.291039e-204 1.327902e-201 5.510474e-199 2.104018e-196 8.212586e-194 2.980225e-191 1.099247e-188 3.795686e-186 1.325179e-183 4.351773e-181 1.438008e-178 4.483989e-176 1.400747e-173 4.137861e-171 1.219586e-168 3.403268e-166 9.439166e-164 2.479808e-161 6.451482e-159 1.589472e-156 3.864047e-154 8.888003e-152 2.010027e-149 4.294368e-147 8.987394e-145 1.772869e-142 3.412517e-140 6.171958e-138 1.084694e-135 1.783779e-133 2.837165e-131 4.199709e-129 5.980436e-127 7.869479e-125 9.898337e-123 1.139665e-120 1.244382e-118 1.227910e-116 
4.151098e-112 3.413388e-110 2.593394e-108 1.705387e-106 1.013813e-104 5.000718e-103 2.148361e-101 7.088278e-100 1.882650e-98 3.197162e-97 3.350270e-96 9.110855e-96 1.585972e-95 2.001850e-95 2.624474e-95 2.839888e-95 3.394500e-95 3.416816e-95 3.885630e-95 3.721656e-95 4.079417e-95 3.735277e-95 3.944837e-95 3.425233e-95 3.430104e-95 2.736139e-95 2.447606e-95 1.573238e-95 8.776308e-96 8.553259e-97 5.709016e-98 2.080473e-99 6.992937e-101 1.562270e-102 3.479457e-104 5.565904e-106 9.222621e-108 1.136111e-109 1.487859e-111 1.463233e-113 1.562416e-115 1.238777e-117 1.086407e-119 6.798676e-122 4.790363e-124 2.194994e-126 1.163655e-128 3.203368e-131 1.139078e-133 9.428545e-137 2.545109e-139 -1.879410e-142 -1.265911e-145 -2.054209e-147 -1.945021e-149 4.283197e-149 1.282960e-151 3.158651e-154 -1.590805e-157 1.329892e-161 -1.971770e-166 7.500464e-168 2.064644e-170 8.895544e-173 3.603296e-175 1.487205e-177 5.388543e-180 1.715754e-182 5.081789e-185 1.197172e-187 2.822195e-190 1.432461e-192 1.279319e-194 8.367846e-197 5.765361e-200 1.360209e-202 3.347168e-205 1.428189e-207 7.057306e-210 3.622364e-212 1.725596e-214 7.336557e-217 2.817229e-219 9.455127e-221 6.395567e-218 3.613861e-215 2.104527e-212 1.023969e-209 5.138436e-207 2.268696e-204 1.030339e-201 4.234394e-199 1.781969e-196 6.900373e-194 2.722303e-191 9.987976e-189 3.714719e-186 1.293959e-183 4.547345e-181 1.503927e-178 4.995917e-176 1.566916e-173 4.915906e-171 1.459209e-168 4.315947e-166 1.209247e-163 3.363548e-161 8.866602e-159 2.312140e-156 5.712810e-154 1.391423e-151 3.208238e-149 7.266310e-147 1.555564e-144 3.259276e-142 6.440114e-140 1.240661e-137 2.246993e-135 3.951119e-133 6.504887e-131 1.034894e-128 1.533257e-126 2.183348e-124 2.874950e-122 3.615118e-120 4.164404e-118 4.544462e-116 4.485853e-114 
1.480607e-109 1.217677e-107 9.240959e-106 6.077434e-104 3.607212e-102 1.779571e-100 7.628829e-99 2.518107e-97 6.667505e-96 1.133787e-94 1.181648e-93 3.226228e-93 5.576122e-93 7.068680e-93 9.193834e-93 9.993787e-93 1.183967e-92 1.197589e-92 1.348340e-92 1.298357e-92 1.407159e-92 1.296117e-92 1.351377e-92 1.181250e-92 1.165757e-92 9.370424e-93 8.243136e-93 5.345557e-93 2.925250e-93 2.873219e-94 1.888474e-95 6.893394e-97 2.285790e-98 5.097289e-100 1.119677e-101 1.782341e-103 2.908769e-105 3.553924e-107 4.573781e-109 4.444389e-111 4.650973e-113 3.629828e-115 3.114550e-117 1.916675e-119 1.326901e-121 6.054765e-124 3.232549e-126 9.527340e-129 3.700473e-131 5.347285e-134 1.609152e-136 8.927089e-140 2.325690e-142 2.246474e-144 9.890948e-146 1.040930e-146 3.619489e-149 1.011389e-151 9.307848e-156 1.865176e-158 -3.876912e-162 -5.767487e-165 -9.613825e-168 -3.367383e-170 -1.288579e-172 -4.724326e-175 -1.599427e-177 -4.683691e-180 -1.334583e-182 -3.072384e-185 -6.284997e-188 2.310219e-190 2.673230e-192 1.729652e-194 2.616380e-197 7.060886e-200 1.823618e-202 6.732610e-205 2.670410e-207 1.189920e-209 5.142728e-212 2.119135e-214 7.999503e-217 2.580595e-218 1.770229e-215 1.004762e-212 6.029426e-210 2.972685e-207 1.531704e-204 6.853297e-202 3.179045e-199 1.321503e-196 5.654444e-194 2.210310e-191 8.834738e-189 3.266574e-186 1.227595e-183 4.303514e-181 1.525071e-178 5.070735e-176 1.695919e-173 5.342920e-171 1.685557e-168 5.022278e-166 1.492221e-163 4.194373e-161 1.171033e-158 3.095387e-156 8.096461e-154 2.005115e-151 4.895772e-149 1.131053e-146 2.566766e-144 5.504018e-142 1.154993e-139 2.285348e-137 4.407669e-135 7.991934e-133 1.406415e-130 2.317567e-128 3.688830e-126 5.469166e-124 7.789214e-122 1.026214e-119 1.290214e-117 1.486831e-115 1.621770e-113 1.601269e-111 
5.156518e-107 4.242024e-105 3.215087e-103 2.114954e-101 1.253152e-99 6.184124e-98 2.644972e-96 8.735576e-95 2.305513e-93 3.926373e-92 4.069291e-91 1.115608e-90 1.914159e-90 2.437334e-90 3.144402e-90 3.434103e-90 4.031455e-90 4.098539e-90 4.567326e-90 4.422486e-90 4.737782e-90 4.390979e-90 4.518290e-90 3.977226e-90 3.866627e-90 3.133151e-90 2.709345e-90 1.773588e-90 9.516647e-91 9.430679e-92 6.098858e-93 2.234104e-94 7.300089e-96 1.629396e-97 3.525224e-99 5.606462e-101 8.997600e-103 1.096793e-104 1.384812e-106 1.341642e-108 1.373823e-110 1.070634e-112 8.976994e-115 5.562292e-117 3.779325e-119 1.787269e-121 9.559980e-124 3.207470e-126 1.315467e-128 2.970592e-131 9.842182e-134 2.068014e-136 7.364038e-139 8.826921e-141 1.242072e-142 3.252518e-144 1.264947e-146 3.539257e-149 3.043591e-152 2.668238e-155 1.021916e-158 4.437812e-162 4.376802e-165 1.586101e-167 5.556502e-170 1.768416e-172 5.204293e-175 1.362998e-177 3.359206e-180 6.885157e-183 1.970325e-185 1.543945e-187 8.822128e-190 4.718119e-192 8.840056e-195 2.653962e-197 6.429043e-200 2.374456e-202 8.752927e-205 3.807018e-207 1.551479e-209 6.300143e-212 2.327510e-214 7.877902e-216 5.222384e-213 2.965853e-210 1.774519e-207 8.856254e-205 4.594691e-202 2.084881e-199 9.756624e-197 4.108458e-194 1.772696e-191 7.006895e-189 2.821311e-186 1.052993e-183 3.982019e-181 1.407017e-178 5.012549e-176 1.677751e-173 5.636238e-171 1.785679e-168 5.654371e-166 1.692815e-163 5.045342e-161 1.423900e-158 3.985649e-156 1.057145e-153 2.770964e-151 6.882353e-149 1.683284e-146 3.898386e-144 8.858665e-142 1.903519e-139 3.998465e-137 7.925240e-135 1.529587e-132 2.777360e-130 4.889626e-128 8.066669e-126 1.284148e-123 1.905660e-121 2.713737e-119 3.577840e-117 4.496546e-115 5.184552e-113 5.651357e-111 5.582098e-109 
1.753646e-104 1.442857e-102 1.092294e-100 7.186138e-99 4.251216e-97 2.098264e-95 8.955142e-94 2.958911e-92 7.785320e-91 1.327622e-89 1.368639e-88 3.766464e-88 6.417782e-88 8.205405e-88 1.050420e-87 1.152144e-87 1.340896e-87 1.369501e-87 1.511369e-87 1.470804e-87 1.558482e-87 1.452467e-87 1.476176e-87 1.307600e-87 1.253527e-87 1.023103e-87 8.707410e-88 5.748369e-88 3.029255e-88 3.025690e-89 1.928672e-90 7.083665e-92 2.286130e-93 5.102408e-95 1.090762e-96 1.731365e-98 2.744942e-100 3.335024e-102 4.158787e-104 4.014260e-106 4.062239e-108 3.160810e-110 2.628333e-112 1.640885e-114 1.118064e-116 5.475978e-119 3.021425e-121 1.130249e-123 5.068022e-126 1.509976e-128 6.005326e-131 2.014366e-133 9.989958e-136 9.639455e-138 9.439179e-140 1.114737e-141 3.948651e-144 1.129454e-146 1.362625e-149 1.624076e-152 9.989009e-156 6.087450e-159 -6.010689e-163 -9.753233e-165 -2.906329e-167 -7.238750e-170 -1.843470e-172 -4.388481e-175 -1.068363e-177 -1.684072e-180 1.439666e-183 5.126622e-185 2.695469e-187 1.383690e-189 3.548806e-192 1.166307e-194 3.072015e-197 1.077025e-199 3.660250e-202 1.443120e-204 5.418570e-207 2.087494e-209 7.454387e-212 2.500387e-213 1.595072e-210 8.870675e-208 5.288368e-205 2.630780e-202 1.375419e-199 6.262804e-197 2.961838e-194 1.254254e-191 5.468451e-189 2.174491e-186 8.838000e-184 3.317391e-181 1.264759e-178 4.492015e-176 1.611457e-173 5.418438e-171 1.831022e-168 5.824403e-166 1.853478e-163 5.568419e-161 1.666552e-158 4.717628e-156 1.325093e-153 3.523830e-151 9.262983e-149 2.305826e-146 5.652695e-144 1.311615e-141 2.986036e-139 6.426537e-137 1.351876e-134 2.683075e-132 5.183882e-130 9.422925e-128 1.660126e-125 2.741188e-123 4.365492e-121 6.482754e-119 9.232593e-117 1.217864e-114 1.530279e-112 1.765064e-110 1.923031e-108 1.899918e-106 
5.817356e-102 4.787925e-100 3.619689e-98 2.382064e-96 1.406691e-94 6.945491e-93 2.957299e-91 9.777758e-90 2.564230e-88 4.379616e-87 4.490006e-86 1.240579e-85 2.098794e-85 2.694927e-85 3.422528e-85 3.770959e-85 4.349728e-85 4.464103e-85 4.877337e-85 4.771648e-85 4.999186e-85 4.686703e-85 4.702658e-85 4.193623e-85 3.962406e-85 3.259187e-85 2.728663e-85 1.817913e-85 9.403628e-86 9.478812e-87 5.950023e-88 2.195688e-89 6.990099e-91 1.564694e-92 3.299954e-94 5.249794e-96 8.207458e-98 9.997842e-100 1.228806e-101 1.191663e-103 1.188949e-105 9.346793e-108 7.685043e-110 4.912570e-112 3.339596e-114 1.725649e-116 9.699166e-119 4.070040e-121 1.929447e-123 7.102615e-126 3.121034e-128 1.337844e-130 7.161256e-133 6.131753e-135 5.031048e-137 4.121160e-139 1.463659e-141 4.017342e-144 6.540495e-147 9.370943e-150 9.845443e-153 1.050860e-155 1.055406e-158 1.174911e-161 1.544537e-164 2.428545e-167 4.623990e-170 9.740500e-173 2.585650e-175 1.092327e-177 5.120155e-180 2.751811e-182 1.061664e-184 4.773470e-187 1.335425e-189 4.638341e-192 1.228613e-194 4.316421e-197 1.382131e-199 5.270355e-202 1.862466e-204 7.006362e-207 2.423902e-209 8.314341e-211 5.011747e-208 2.741696e-205 1.597336e-202 7.936642e-200 4.121437e-197 1.886467e-194 8.923002e-192 3.806781e-189 1.664635e-186 6.670956e-184 2.721976e-181 1.029264e-178 3.940045e-176 1.408766e-173 5.073262e-171 1.716016e-168 5.819063e-166 1.860681e-163 5.939339e-161 1.792456e-158 5.378745e-156 1.528565e-153 4.303019e-151 1.148154e-148 3.023672e-146 7.548406e-144 1.853221e-141 4.310566e-139 9.824760e-137 2.118816e-134 4.460868e-132 8.868645e-130 1.714440e-127 3.120796e-125 5.499798e-123 9.091664e-121 1.447945e-118 2.152175e-116 3.064410e-114 4.045152e-112 5.080439e-110 5.863146e-108 6.383159e-106 6.309071e-104 