# vtk DataFile Version 2.0
Comment goes here
ASCII

DATASET STRUCTURED_POINTS
DIMENSIONS    128   128   1

ORIGIN    0.000   0.000   0.000
SPACING   0.0156250.015625   1.000

POINT_DATA   16384
SCALARS Concentration double
LOOKUP_TABLE default

1.980017e-40 8.979021e-40 1.399909e-39 4.453295e-39 3.592027e-39 6.721080e-39 2.850650e-39 2.514927e-39 6.432235e-40 2.653380e-40 4.624320e-41 1.105509e-41 1.411103e-42 2.282051e-43 2.275870e-44 2.931242e-45 2.540860e-46 1.410054e-46 1.301381e-45 1.812308e-44 1.678401e-43 1.715848e-42 9.880558e-42 5.826728e-41 -2.676761e-40 -1.864883e-38 -8.210818e-37 -2.759377e-35 -9.716262e-34 -2.692857e-32 -7.728449e-31 -1.683575e-29 -3.650537e-28 -5.637712e-27 -7.862174e-26 -6.097011e-25 5.550387e-25 1.260675e-22 3.109233e-21 4.160402e-20 5.491828e-19 4.834573e-18 4.675734e-17 2.945541e-16 2.118159e-15 8.848083e-15 4.420565e-14 1.080278e-13 3.774339e-13 4.963393e-13 1.848231e-12 -2.094295e-12 1.128599e-11 -7.246344e-11 3.818273e-10 -2.239427e-09 1.011252e-08 -4.270044e-08 1.629504e-07 -4.049638e-07 9.867064e-07 -1.630566e-06 2.395632e-06 -1.041780e-06 -4.217516e-07 3.682786e-08 -2.555260e-09 -5.249225e-10 5.705496e-10 -2.392870e-10 8.429305e-11 -1.531661e-11 2.713722e-12 -7.255971e-13 1.245758e-13 -2.046832e-13 -3.901446e-14 3.241285e-14 -7.484754e-15 -1.802766e-15 -1.698243e-15 -6.828292e-16 -3.394687e-16 -7.843118e-17 -2.049908e-17 -3.044505e-18 -5.056979e-19 -5.392255e-20 -6.194695e-21 -4.595137e-22 -3.143404e-23 -8.134891e-25 7.673879e-26 1.427741e-26 1.501658e-27 9.865167e-29 5.976220e-30 2.538257e-31 1.036090e-32 3.005717e-34 8.231506e-36 1.510627e-37 2.092669e-39 -9.194080e-43 -1.052292e-42 -3.536591e-44 -9.381953e-46 -1.731136e-47 -3.110666e-49 -4.293582e-51 -5.955013e-53 -6.582781e-55 8.973531e-56 1.910573e-54 2.874859e-53 4.880149e-52 6.240056e-51 9.135189e-50 9.801978e-49 1.231961e-47 1.090964e-46 1.168363e-45 8.332316e-45 7.508844e-44 4.150309e-43 3.084691e-42 1.243763e-41 7.393191e-41 
1.461994e-41 6.796681e-41 1.029617e-40 3.418700e-40 2.681168e-40 5.311497e-40 2.219479e-40 2.076147e-40 5.368203e-41 2.345888e-41 4.233332e-42 1.079447e-42 1.458423e-43 2.541602e-44 2.733133e-45 3.761042e-46 3.493254e-47 1.217844e-47 9.187970e-47 1.377901e-45 1.297809e-44 1.466912e-43 8.531027e-43 6.122781e-42 -5.056811e-41 -2.335797e-39 -1.479362e-37 -4.905246e-36 -2.123029e-34 -6.223045e-33 -2.041227e-31 -4.775459e-30 -1.123722e-28 -1.765909e-27 -2.158491e-26 -2.476180e-26 6.609838e-24 1.769504e-22 3.904721e-21 5.356051e-20 7.741177e-19 7.423952e-18 7.802779e-17 5.139175e-16 3.687975e-15 1.471526e-14 6.301074e-14 1.301555e-13 3.083516e-13 4.742101e-13 2.111890e-12 -1.700093e-12 2.842461e-12 1.562094e-10 -4.595582e-10 2.560542e-09 -1.690613e-08 7.641411e-08 -3.339796e-07 7.788313e-07 -1.877857e-06 3.200849e-06 -5.056475e-06 2.383412e-06 7.667729e-07 -2.644686e-08 -3.716728e-09 2.275543e-09 -1.404069e-09 6.110036e-10 -2.570580e-10 4.440980e-11 -6.405781e-12 7.774991e-13 -3.206256e-13 -3.427813e-13 -1.817947e-13 6.924648e-14 3.130788e-15 4.410395e-15 3.371987e-15 1.502224e-16 -2.101324e-16 -9.488422e-17 -2.982124e-17 -4.750862e-18 -7.806635e-19 -7.867589e-20 -8.516685e-21 -5.998691e-22 -4.323305e-23 -1.794037e-24 -4.380645e-26 3.070046e-27 4.658160e-28 3.152412e-29 1.820801e-30 6.922619e-32 2.566531e-33 5.847041e-35 1.437593e-36 1.846598e-39 -5.001523e-41 -3.394493e-41 -4.873807e-43 -2.694765e-44 -2.877986e-46 -9.415827e-48 -8.703965e-50 -1.672252e-51 -1.486573e-53 -1.660243e-55 1.422482e-56 2.756572e-55 3.772634e-54 5.868725e-53 6.946648e-52 9.514712e-51 9.593214e-50 1.148490e-48 9.672214e-48 1.002195e-46 6.859583e-46 6.065598e-45 3.238840e-44 2.394246e-43 9.365509e-43 5.616201e-42 
1.045351e-42 4.973713e-42 7.333980e-42 2.537892e-41 1.938296e-41 4.059066e-41 1.673695e-41 1.656412e-41 4.335038e-42 2.001149e-42 3.740553e-43 1.013356e-43 1.447874e-44 2.704044e-45 3.130233e-46 4.598450e-47 4.610702e-48 1.166895e-48 6.011359e-48 9.980246e-47 1.032801e-45 -2.729415e-45 2.138571e-43 -1.400282e-41 1.087018e-40 -1.404054e-38 5.893328e-38 -9.903981e-36 -5.931241e-36 -4.208116e-33 -3.398064e-32 -1.452804e-30 -2.348000e-29 -4.135915e-28 -3.038564e-27 8.264406e-26 5.202157e-24 1.351032e-22 3.184809e-21 5.047383e-20 8.060377e-19 8.718133e-18 9.396011e-17 6.290642e-16 3.874951e-15 1.181870e-14 1.046011e-14 -9.050993e-14 -7.302048e-13 -7.465233e-13 6.505324e-13 -5.541298e-12 5.483056e-11 -8.036539e-11 4.313179e-10 -4.588196e-09 3.066967e-08 -1.463509e-07 5.493716e-07 -1.201616e-06 2.748073e-06 -5.253897e-06 9.386864e-06 -4.988512e-06 -1.240756e-06 -4.422332e-08 1.242082e-08 -3.028368e-09 2.100105e-09 -1.200926e-09 6.081816e-10 -1.121742e-10 1.148859e-11 -1.485924e-12 -3.897228e-13 -1.032392e-12 -5.627506e-13 4.408093e-14 -9.380918e-15 1.961974e-14 1.897181e-14 4.404028e-15 9.925308e-16 4.143663e-17 -1.481520e-17 -4.395242e-18 -8.016457e-19 -8.343066e-20 -8.266829e-21 -5.430479e-22 -3.510088e-23 -1.467635e-24 -5.100303e-26 -2.050400e-28 8.753814e-29 7.530584e-30 3.708258e-31 2.391973e-32 3.663607e-34 8.491754e-35 -4.868521e-37 2.512870e-37 -2.210952e-39 4.020000e-40 -2.850554e-42 3.189481e-43 -1.439370e-45 1.216791e-46 -2.212819e-49 2.134160e-50 1.785065e-53 1.625891e-54 7.939602e-57 3.733763e-56 4.692954e-55 6.708810e-54 7.407244e-53 9.498444e-52 9.045272e-51 1.030788e-49 8.285448e-49 8.294405e-48 5.463551e-47 4.732086e-46 2.446659e-45 1.795519e-44 6.828076e-44 4.123244e-43 
7.090990e-44 3.463350e-43 4.955272e-43 1.793645e-42 1.329775e-42 2.955010e-42 1.199182e-42 1.259657e-42 3.328821e-43 1.627907e-43 3.142569e-44 9.069860e-45 1.364586e-45 2.738368e-46 3.392852e-47 5.356881e-48 5.864432e-49 -2.108639e-49 1.389861e-48 1.299752e-46 -3.882953e-45 2.558869e-43 -4.411746e-42 2.402554e-40 -4.141327e-39 2.211703e-37 -3.034633e-36 1.311969e-34 -1.151856e-33 3.958380e-32 -1.985673e-31 5.643624e-30 -1.618465e-29 3.099778e-28 -8.443752e-28 2.410558e-26 1.274863e-24 4.019181e-23 1.197692e-21 2.321731e-20 4.453855e-19 5.288849e-18 5.527829e-17 2.763496e-16 -2.535033e-16 -1.625717e-14 -1.972479e-13 -7.814729e-13 -3.101844e-12 -3.053646e-12 2.764690e-12 8.217804e-12 8.058450e-11 2.041181e-10 -1.622524e-10 1.384705e-09 -2.105873e-08 1.713773e-07 -6.667118e-07 1.145331e-06 -2.751054e-06 6.437768e-06 -1.559443e-05 9.108195e-06 1.837580e-06 2.081765e-07 -1.076967e-09 -3.321348e-10 -3.190784e-09 2.428727e-09 -1.392198e-09 3.922301e-10 -1.481746e-10 -7.795324e-12 1.068148e-12 -2.203557e-12 -1.587058e-12 -2.783275e-13 -2.284422e-13 6.233696e-15 3.498473e-14 1.228234e-14 3.762201e-15 4.629348e-16 5.080279e-17 1.312350e-18 -2.145635e-19 -3.762467e-20 -3.834624e-21 -2.241932e-22 -1.231224e-23 -4.227486e-25 -1.253858e-26 -1.862261e-28 1.946956e-29 -5.576812e-30 2.913864e-31 -1.101957e-31 4.074374e-33 -8.558930e-34 2.670744e-35 -3.205966e-36 7.948970e-38 -5.974883e-39 1.110712e-40 -5.519529e-42 7.254901e-44 -2.460422e-45 2.103739e-47 -4.992108e-49 2.333342e-51 -4.116128e-53 5.175346e-56 3.655907e-57 5.529241e-56 7.320723e-55 7.514451e-54 9.067315e-53 8.126432e-52 8.844631e-51 6.761067e-50 6.554500e-49 4.140761e-48 3.519587e-47 1.756398e-46 1.282113e-45 4.725722e-45 2.880454e-44 
4.632495e-45 2.319998e-44 3.224520e-44 1.219598e-43 8.784233e-44 2.069037e-43 8.269666e-44 9.204178e-44 2.456571e-44 1.269726e-44 2.529868e-45 7.753053e-46 1.226333e-46 2.631935e-47 3.482045e-48 6.007143e-49 -3.880865e-50 2.233708e-48 2.474565e-47 -3.096623e-45 9.025131e-44 -4.032204e-42 8.899401e-41 -3.759069e-39 8.556172e-38 -3.297080e-36 5.875749e-35 -1.742610e-33 2.086454e-32 -4.689937e-31 3.516341e-30 -6.186597e-29 2.600844e-28 -3.788053e-27 6.894157e-27 -8.873768e-26 1.909309e-25 6.112633e-24 2.209521e-22 5.175557e-21 9.062907e-20 6.464116e-19 -1.332802e-17 -4.140741e-16 -7.603888e-15 -6.503086e-14 -4.885952e-13 -1.720469e-12 -5.070467e-12 -3.341652e-12 1.750928e-11 3.805487e-11 1.662765e-10 1.578654e-11 4.730237e-10 1.512187e-09 1.070735e-07 -2.576240e-07 1.750879e-07 4.009064e-08 5.906770e-07 -4.202015e-06 2.229951e-05 -1.543519e-05 -2.498225e-06 -5.095449e-07 -7.365018e-08 -2.665937e-09 1.028402e-08 -6.483484e-09 3.797339e-09 -1.561003e-10 -3.184290e-10 -1.706364e-11 -4.568290e-12 -2.804421e-12 -4.181078e-12 -1.313100e-12 -9.055832e-13 -1.316700e-13 1.000612e-14 1.631836e-14 6.095745e-15 9.727826e-16 1.313896e-16 9.214851e-18 5.325397e-19 1.202026e-20 -1.560893e-22 -3.467634e-23 -1.907217e-24 -5.693855e-26 -2.026406e-27 1.400813e-27 -1.118584e-28 6.190271e-29 -4.494886e-30 1.097175e-30 -6.629109e-32 9.210845e-33 -4.381938e-34 3.857708e-35 -1.394458e-36 8.187413e-38 -2.184249e-39 8.754435e-41 -1.670349e-42 4.593166e-44 -5.994710e-46 1.117942e-47 -9.214666e-50 1.128557e-51 -4.856731e-54 3.770709e-56 6.103218e-57 7.538898e-56 7.242839e-55 8.233351e-54 6.977655e-53 7.254595e-52 5.291722e-51 4.965795e-50 3.016186e-49 2.513863e-48 1.213214e-47 8.799719e-47 3.148984e-46 1.935165e-45 
2.861671e-46 1.473103e-45 1.983743e-45 7.863051e-45 5.486833e-45 1.373988e-44 5.396044e-45 6.378848e-45 1.715371e-45 9.390328e-46 1.925184e-46 6.276909e-47 1.039411e-47 2.390439e-48 3.392580e-49 -5.392245e-50 1.045562e-48 -1.644405e-48 -9.337324e-46 5.634884e-44 -1.563018e-42 5.789332e-41 -1.427637e-39 5.294166e-38 -1.335618e-36 4.332558e-35 -8.409606e-34 2.053316e-32 -2.747688e-31 4.982158e-30 -4.412636e-29 6.035102e-28 -3.302972e-27 3.478467e-26 -9.938359e-26 8.179842e-25 -6.681134e-25 3.026727e-24 1.495925e-23 2.496155e-23 -2.047801e-20 -9.764464e-19 -3.700429e-17 -6.567093e-16 -1.037615e-14 -8.467501e-14 -5.976405e-13 -1.995938e-12 -4.205125e-12 2.802368e-12 5.159931e-11 1.005879e-10 3.250836e-10 3.624567e-10 -8.160351e-10 -4.685919e-09 8.139387e-10 -1.867497e-07 9.302354e-07 -1.248807e-06 2.387714e-06 -2.799413e-06 -2.759751e-05 2.283328e-05 3.186956e-06 8.795011e-07 2.525834e-07 5.119715e-08 -2.493164e-08 1.121786e-08 -8.897450e-09 3.366692e-09 -9.240211e-10 -2.332030e-12 1.308321e-11 -6.744823e-12 -8.551510e-12 -3.150947e-12 -1.996114e-12 -4.251397e-13 -7.631591e-14 5.935398e-15 4.825548e-15 9.219548e-16 1.286169e-16 9.047666e-18 5.478209e-19 1.639496e-20 4.141903e-22 3.238150e-24 -1.096235e-25 -5.203654e-26 1.040077e-26 -1.210419e-26 1.509725e-27 -5.356391e-28 5.298219e-29 -9.981118e-30 7.669206e-31 -9.039556e-32 5.283871e-33 -4.174223e-34 1.824960e-35 -9.963558e-37 3.203521e-38 -1.221556e-39 2.828456e-41 -7.502039e-43 1.212679e-44 -2.192392e-46 2.345800e-48 -2.760018e-50 1.754327e-52 -1.211117e-54 4.002865e-57 7.326475e-57 6.582538e-56 7.085650e-55 5.664670e-54 5.646375e-53 3.920228e-52 3.570240e-51 2.079781e-50 1.703159e-49 7.930166e-49 5.725958e-48 1.984784e-47 1.232226e-46 
1.693215e-47 8.954315e-47 1.168906e-46 4.852905e-46 3.281005e-46 8.729399e-46 3.368166e-46 4.223897e-46 1.143492e-46 6.616000e-47 1.392625e-47 4.794452e-48 8.231048e-49 1.979279e-49 -1.152562e-50 1.024890e-48 -5.619408e-48 -2.861507e-46 1.855651e-44 -8.169459e-43 2.181567e-41 -6.981079e-40 1.813953e-38 -6.032698e-37 1.611631e-35 -4.603750e-34 9.378118e-33 -1.993603e-31 2.841291e-30 -4.445298e-29 4.337242e-28 -5.033820e-27 3.215774e-26 -2.772623e-25 1.024848e-24 -6.393307e-24 8.253619e-24 -2.068586e-23 -8.351895e-23 9.702574e-22 -3.554950e-21 -2.567779e-19 -1.221572e-17 -3.081528e-16 -5.293487e-15 -5.441027e-14 -3.688737e-13 -1.386386e-12 -1.292516e-12 1.121789e-11 8.613191e-11 1.992473e-10 5.178458e-10 -4.014506e-10 2.189538e-09 -6.414360e-09 -4.532317e-08 1.133057e-07 -2.853933e-07 4.586828e-08 -6.628469e-07 1.420515e-05 2.981185e-05 -3.207673e-05 -3.901333e-06 -1.366107e-06 -5.249867e-07 -1.927471e-07 -4.471067e-09 1.105109e-09 -2.208738e-10 -1.320243e-09 1.030618e-09 1.668243e-10 -4.303214e-11 -2.091814e-12 -1.420557e-11 -5.594177e-12 -2.738423e-12 -6.680304e-13 -1.392517e-13 -9.306623e-15 8.948803e-16 3.814017e-16 4.735380e-17 3.240154e-18 1.384020e-19 3.235998e-21 4.975575e-23 -1.011652e-23 9.250999e-25 4.239766e-25 -1.274638e-25 9.264583e-26 -1.495633e-26 4.095766e-27 -4.889749e-28 7.878600e-29 -7.067931e-30 7.550633e-31 -5.079260e-32 3.771992e-33 -1.889529e-34 9.940317e-36 -3.668704e-37 1.371958e-38 -3.672137e-40 9.678691e-42 -1.833092e-43 3.328477e-45 -4.279652e-47 5.109077e-49 -4.123271e-51 2.928591e-53 -1.233716e-55 1.063845e-57 5.641547e-57 5.760852e-56 4.362494e-55 4.173343e-54 2.766007e-53 2.446008e-52 1.369413e-51 1.101963e-50 4.957850e-50 3.562860e-49 1.197685e-48 7.508652e-48 
9.441549e-49 5.138666e-48 6.490307e-48 2.828360e-47 1.849040e-47 5.239195e-47 1.984846e-47 2.653152e-47 7.295081e-48 4.752066e-48 1.114630e-48 6.700019e-49 1.851375e-49 9.263214e-50 4.375067e-49 -7.684879e-48 -3.155041e-47 6.564906e-45 -2.833328e-43 1.027030e-41 -2.526314e-40 7.078096e-39 -1.790310e-37 5.527255e-36 -1.500641e-34 4.001595e-33 -8.229232e-32 1.616211e-30 -2.337356e-29 3.359661e-28 -3.397820e-27 3.597831e-26 -2.474819e-25 1.911512e-24 -8.123169e-24 4.307002e-23 -7.285638e-23 1.007083e-22 1.036121e-21 -8.292147e-21 9.316784e-21 -8.576533e-20 -3.673571e-19 -1.982238e-17 -4.403546e-16 -9.942328e-15 -9.826193e-14 -5.605694e-13 2.446232e-13 1.572131e-11 1.180705e-10 3.912027e-10 1.139160e-09 1.611064e-09 -5.358922e-09 -8.407196e-09 3.129578e-08 -1.592549e-07 3.159359e-07 -5.495156e-07 -8.005968e-06 -2.040777e-05 -3.247700e-05 3.970712e-05 4.587750e-06 1.721530e-06 7.826497e-07 3.286198e-07 1.304509e-07 1.407165e-08 -4.799817e-09 1.533950e-09 -9.434124e-10 5.246468e-11 1.011456e-10 -3.749760e-11 -2.213013e-11 -8.678142e-12 -2.953126e-12 -6.619215e-13 -1.170951e-13 -1.033637e-14 -6.653625e-16 7.030011e-18 4.894083e-19 1.449210e-19 3.352542e-21 8.981985e-22 -1.055460e-22 7.803605e-23 -9.634747e-24 -2.895952e-24 1.169864e-24 -6.240560e-25 1.163741e-25 -2.751470e-26 3.629899e-27 -5.407862e-28 5.275748e-29 -5.423513e-30 3.950461e-31 -2.899785e-32 1.575034e-33 -8.353552e-35 3.358301e-36 -1.286288e-37 3.777209e-39 -1.033892e-40 2.171002e-42 -4.151721e-44 6.017850e-46 -7.702904e-48 7.230897e-50 -5.684898e-52 3.018880e-54 -1.171544e-56 4.759800e-58 4.406512e-57 3.155957e-56 2.907491e-55 1.836697e-54 1.581090e-53 8.493870e-53 6.729286e-52 2.920939e-51 2.092517e-50 6.811259e-50 4.318931e-49 
4.947472e-50 2.769901e-49 3.348022e-49 1.524681e-48 9.154122e-49 2.645558e-48 6.674647e-49 -3.012757e-50 -8.712211e-49 -3.834619e-48 -1.760939e-48 -3.562538e-48 -1.344781e-48 -8.544538e-49 -3.913054e-48 4.145648e-47 1.400904e-45 -9.910044e-44 3.568376e-42 -1.086356e-40 2.343300e-39 -5.252094e-38 1.182791e-36 -3.329010e-35 9.728127e-34 -2.499937e-32 5.410113e-31 -9.985955e-30 1.491084e-28 -1.992111e-27 2.095391e-26 -2.053577e-25 1.506247e-24 -1.067159e-23 5.046653e-23 -2.368294e-22 4.747669e-22 -1.980892e-22 -9.147350e-21 6.277415e-20 -1.424145e-19 6.521721e-19 3.504466e-20 -4.420766e-20 -2.210552e-17 -1.788991e-15 -3.213876e-14 -4.620052e-13 -1.615038e-12 -1.173017e-12 2.960834e-11 2.648993e-10 6.756548e-10 3.090731e-09 6.348843e-09 -1.501618e-08 -4.401167e-08 -2.976492e-08 3.627544e-07 1.903021e-06 8.290491e-06 2.572663e-05 4.413037e-05 -4.869909e-05 -5.431184e-06 -2.061617e-06 -9.294165e-07 -3.938081e-07 -1.565118e-07 -3.893954e-08 -7.691720e-09 1.401438e-10 4.375230e-10 2.627711e-10 -1.067281e-10 -6.709043e-11 -1.182936e-11 -5.677743e-12 -7.753555e-13 -1.975085e-13 -9.976789e-15 1.246878e-16 1.152482e-16 7.610874e-18 -1.743151e-20 -3.834651e-21 -3.909205e-22 -5.737733e-21 1.385837e-21 -5.233396e-22 6.866396e-23 1.592498e-23 -8.178142e-24 3.482861e-24 -7.200442e-25 1.514759e-25 -2.160064e-26 3.002164e-27 -3.145012e-28 3.105058e-29 -2.429966e-30 1.748343e-31 -1.024273e-32 5.407971e-34 -2.358864e-35 9.107309e-37 -2.923689e-38 8.154948e-40 -1.890686e-41 3.723915e-43 -6.045611e-45 8.073096e-47 -8.696018e-49 7.284859e-51 -4.678590e-53 2.056392e-55 -5.645481e-58 2.899596e-58 2.028023e-57 1.832272e-56 1.119371e-55 9.461231e-55 4.909499e-54 3.846433e-53 1.615370e-52 1.156270e-51 3.646055e-51 2.340469e-50 
1.113834e-50 6.465292e-50 1.225111e-49 6.465522e-49 9.701823e-49 4.358333e-48 5.140751e-48 1.910875e-47 1.404777e-47 4.736355e-47 1.923374e-47 3.937546e-47 1.441041e-47 9.335301e-48 3.055985e-47 -1.187987e-47 -2.546883e-44 1.299555e-42 -4.067712e-41 1.064440e-39 -1.802056e-38 2.575215e-37 -2.892155e-36 7.048639e-35 -3.241330e-33 9.873875e-32 -2.473874e-30 4.629909e-29 -7.161287e-28 9.291054e-27 -9.922327e-26 9.350729e-25 -7.051394e-24 4.774974e-23 -2.387337e-22 1.035548e-21 -2.202918e-21 -1.942684e-21 6.271359e-20 -4.122961e-19 1.329724e-18 -4.884085e-18 1.743596e-18 -5.638173e-18 -5.873192e-17 -6.441813e-17 4.337750e-15 -2.031738e-15 6.552005e-13 2.489278e-12 2.606557e-12 -3.317237e-11 1.099294e-10 -2.204402e-09 1.986994e-09 -9.352434e-11 2.427349e-09 -3.598486e-07 2.273948e-07 -3.626249e-06 -1.552367e-05 -3.424285e-05 -5.347196e-05 5.977714e-05 6.366777e-06 2.525124e-06 1.231649e-06 5.528531e-07 2.848743e-07 8.186213e-08 -4.363965e-09 5.611981e-09 -4.810380e-10 2.771691e-11 -6.567447e-11 3.077410e-11 5.477522e-12 2.267449e-12 2.697356e-13 1.641640e-14 3.223201e-15 8.743593e-18 2.094618e-17 1.560922e-18 -3.739260e-19 9.321447e-20 -3.379163e-20 3.677373e-20 -1.067032e-20 3.084941e-21 -3.859513e-22 -6.205204e-23 4.186986e-23 -1.562084e-23 3.420710e-24 -6.741696e-25 9.988586e-26 -1.345225e-26 1.460880e-27 -1.429075e-28 1.162888e-29 -8.430135e-31 5.162465e-32 -2.784297e-33 1.277622e-34 -5.100334e-36 1.735245e-37 -5.063212e-39 1.255040e-40 -2.618810e-42 4.598131e-44 -6.611689e-46 7.839833e-48 -7.262535e-50 5.313349e-52 -2.748732e-54 1.007746e-56 3.478453e-58 1.725306e-57 1.146206e-56 5.185598e-56 3.446389e-55 1.453457e-54 9.566567e-54 3.594011e-53 2.308893e-52 7.277042e-52 4.486538e-51 
-1.126138e-49 -6.538890e-49 -1.339153e-48 -7.183382e-48 -1.122337e-47 -5.202708e-47 -5.818155e-47 -2.296744e-46 -1.468788e-46 -5.507198e-46 -1.949602e-46 -4.320641e-46 -1.499643e-46 -9.962579e-47 -1.951765e-46 -3.725001e-45 3.599384e-43 -1.551299e-41 4.488803e-40 -1.042249e-38 1.309863e-37 -3.332120e-37 -4.875342e-35 1.407057e-33 -1.923349e-32 1.202278e-31 3.976253e-30 -1.117198e-28 2.205368e-27 -2.907728e-26 3.304640e-25 -3.008722e-24 2.362996e-23 -1.529685e-22 8.043247e-22 -3.220400e-21 6.558252e-21 2.019242e-20 -3.229585e-19 2.052189e-18 -8.651652e-18 3.164054e-17 -6.316894e-17 1.432443e-16 3.180115e-16 -1.419227e-15 1.245600e-14 -3.312516e-14 1.005196e-13 -8.622428e-13 -6.253431e-12 1.923563e-11 -3.492955e-10 1.166344e-09 1.338643e-10 -3.930482e-09 3.915672e-08 -2.094089e-07 1.849127e-06 5.030303e-06 1.498264e-05 4.049282e-05 7.403846e-05 -7.107910e-05 -7.383233e-06 -2.909049e-06 -1.372918e-06 -6.292141e-07 -3.212846e-07 -1.513384e-07 -4.212621e-08 3.270179e-09 -1.559245e-09 -6.461011e-11 2.926126e-11 -3.210996e-11 4.235037e-12 -1.786234e-12 2.482072e-13 -3.145344e-14 1.235069e-14 -1.502559e-15 4.519755e-16 -2.590111e-17 2.199463e-18 4.101731e-20 9.107008e-20 -1.815433e-19 5.632461e-20 -1.478519e-20 1.963292e-21 1.064484e-22 -1.410790e-22 4.981385e-23 -1.159239e-23 2.159121e-24 -3.331769e-25 4.317761e-26 -4.877693e-27 4.660711e-28 -3.957795e-29 2.836644e-30 -1.821491e-31 9.811010e-33 -4.747375e-34 1.909262e-35 -6.894116e-37 2.042869e-38 -5.415610e-40 1.156944e-41 -2.194269e-43 3.261343e-45 -4.239776e-47 4.117787e-49 -3.393196e-51 1.895222e-53 -8.402862e-56 -4.246671e-57 -2.083557e-56 -1.348815e-55 -5.998286e-55 -3.840391e-54 -1.577746e-53 -9.946389e-53 -3.658868e-52 -2.263251e-51 -7.165982e-51 -4.326768e-50 
1.453465e-48 8.523882e-48 1.672172e-47 9.138215e-47 1.333664e-46 6.446188e-46 6.377321e-46 2.773040e-45 1.415414e-45 6.393541e-45 1.791465e-45 4.681598e-45 1.474197e-45 1.003111e-45 7.325504e-46 7.858561e-44 -4.907255e-42 1.980687e-40 -5.608987e-39 1.306105e-37 -1.630746e-36 5.017179e-36 6.999136e-34 -2.111734e-32 4.118911e-31 -5.723259e-30 4.952933e-29 -2.849765e-28 -1.828587e-27 4.745626e-26 -7.009547e-25 6.597123e-24 -5.345525e-23 3.391138e-22 -1.779620e-21 6.521960e-21 -8.511640e-21 -1.038812e-19 1.155357e-18 -7.117988e-18 3.343797e-17 -1.277581e-16 3.903522e-16 -1.115337e-15 2.566767e-15 -6.561607e-15 1.138963e-14 -2.814332e-15 -2.487457e-13 1.295371e-12 -8.659077e-12 2.926883e-11 -1.874432e-11 -5.859735e-10 3.085757e-13 -1.155165e-08 -8.114653e-08 -2.405592e-07 -1.555662e-06 -2.833147e-07 -1.068565e-05 -4.336656e-05 -1.036285e-04 8.485198e-05 8.678745e-06 3.346098e-06 1.568242e-06 6.946969e-07 3.558060e-07 1.597520e-07 7.348891e-08 2.746250e-09 -3.092446e-10 2.985827e-11 -8.276793e-11 1.253911e-11 1.950305e-12 4.275439e-13 -5.146913e-14 -2.172860e-14 1.364229e-14 -4.905735e-15 1.824699e-15 -3.545575e-16 8.056543e-17 -3.247960e-18 -1.529046e-18 1.099524e-18 -3.203801e-19 6.938402e-20 -1.059200e-20 5.406081e-22 2.387956e-22 -1.046237e-22 2.602720e-23 -4.849100e-24 7.620916e-25 -9.829728e-26 1.126844e-26 -1.079353e-27 9.330354e-29 -6.760695e-30 4.441358e-31 -2.439099e-32 1.214549e-33 -5.023403e-35 1.879107e-36 -5.779722e-38 1.599760e-39 -3.585872e-41 7.171101e-43 -1.134091e-44 1.576083e-46 -1.663806e-48 1.499373e-50 -9.488762e-53 4.886623e-55 5.540846e-56 2.723754e-55 1.769163e-54 7.969341e-54 5.113122e-53 2.111065e-52 1.333542e-51 4.884589e-51 3.031212e-50 9.453417e-50 5.740861e-49 
-1.944672e-47 -1.151256e-46 -2.159539e-46 -1.202881e-45 -1.615478e-45 -8.248295e-45 -6.822066e-45 -3.448197e-44 -1.181963e-44 -7.603868e-44 -1.331072e-44 -5.104945e-44 -1.317111e-44 -9.364751e-45 5.622234e-45 -1.245685e-42 6.856566e-41 -2.762526e-39 8.331393e-38 -2.131486e-36 3.537752e-35 -4.636568e-34 -1.287816e-33 1.300135e-31 -3.825218e-30 5.957354e-29 -7.012113e-28 6.316305e-27 -3.615178e-26 1.599966e-25 2.722297e-25 -6.793785e-24 7.621601e-23 -4.872616e-22 2.641489e-21 -8.696641e-21 5.936076e-22 2.736297e-19 -2.734386e-18 1.629637e-17 -8.246503e-17 3.076149e-16 -1.022280e-15 2.519145e-15 -5.598803e-15 8.699318e-15 -2.755389e-14 5.829094e-14 -5.382949e-13 1.681253e-12 -1.230537e-11 4.210511e-11 -3.029233e-10 7.589116e-10 2.226636e-09 4.542572e-10 -2.930092e-08 2.045883e-07 -2.996263e-06 -7.557523e-06 -2.354785e-06 3.914644e-05 1.457025e-04 -9.917246e-05 -1.011005e-05 -3.764537e-06 -1.679314e-06 -7.242527e-07 -3.579477e-07 -1.605590e-07 -9.322415e-08 -2.367181e-08 -1.829748e-09 1.855411e-10 1.129257e-10 -1.068922e-11 1.647785e-12 -3.161356e-13 -1.680124e-14 1.621442e-14 -1.630872e-14 8.132744e-16 4.564413e-16 -6.597223e-16 2.872861e-16 -8.888507e-17 2.543596e-17 -5.345614e-18 1.142640e-18 -1.701861e-19 2.214510e-20 -5.030964e-22 -5.433270e-22 1.928850e-22 -4.528249e-23 7.781523e-24 -1.199852e-24 1.464580e-25 -1.667889e-26 1.531176e-27 -1.323285e-28 9.261346e-30 -6.108127e-31 3.257607e-32 -1.634142e-33 6.591813e-35 -2.492731e-36 7.506592e-38 -2.109137e-39 4.647627e-41 -9.487798e-43 1.482656e-44 -2.121372e-46 2.230166e-48 -2.100401e-50 1.343537e-52 -8.453243e-55 -7.321975e-55 -3.602654e-54 -2.359282e-53 -1.077595e-52 -6.965001e-52 -2.890086e-51 -1.839194e-50 -6.707607e-50 -4.194217e-49 -1.289100e-48 -7.889282e-48 
2.549353e-46 1.566412e-45 2.702037e-45 1.599564e-44 1.839233e-44 1.071329e-43 6.295055e-44 4.364915e-43 5.358086e-44 9.198928e-43 2.596000e-44 5.562125e-43 8.959969e-44 7.369444e-44 -2.218009e-43 1.992098e-41 -1.051630e-39 4.361000e-38 -1.409189e-36 3.923930e-35 -7.941729e-34 1.427004e-32 -1.434374e-31 1.064677e-30 1.479183e-29 -3.616945e-28 6.022680e-27 -5.962309e-26 4.365664e-25 -2.529591e-24 8.287209e-24 -2.319442e-23 -4.379334e-23 4.460343e-22 -2.941388e-21 9.294939e-21 5.223115e-21 -3.841850e-19 3.778549e-18 -2.305232e-17 1.179112e-16 -4.313914e-16 1.247420e-15 -1.747065e-15 -5.931623e-15 5.002576e-14 -2.650337e-13 8.570592e-13 -2.947197e-12 7.261368e-12 -2.220937e-11 4.434058e-11 -1.283975e-10 1.301144e-10 -5.631094e-09 5.267505e-08 -2.170044e-07 1.957168e-06 1.077408e-05 2.129082e-05 2.848126e-05 -1.330522e-05 -2.074420e-04 1.160310e-04 1.201215e-05 4.209592e-06 1.769504e-06 7.077601e-07 3.188740e-07 1.304519e-07 6.772773e-08 2.630638e-08 3.951833e-09 -7.178728e-10 -1.631919e-10 -1.817961e-12 -1.676936e-12 8.338737e-13 -4.820924e-13 1.719273e-13 -8.431357e-14 2.740492e-14 -1.081299e-14 2.659317e-15 -7.434716e-16 1.220877e-16 -2.206401e-17 1.473875e-18 7.192294e-20 -1.141847e-19 3.557006e-20 -8.964631e-21 2.021905e-21 -3.806774e-22 6.827846e-23 -1.003038e-23 1.405355e-24 -1.605014e-25 1.743179e-26 -1.544078e-27 1.296610e-28 -8.881163e-30 5.747326e-31 -3.027957e-32 1.501631e-33 -6.035448e-35 2.273867e-36 -6.889062e-38 1.946120e-39 -4.365510e-41 9.061943e-43 -1.463431e-44 2.160427e-46 -2.396375e-48 2.377220e-50 -1.656825e-52 2.417843e-54 9.582707e-54 4.809262e-53 3.190280e-52 1.469811e-51 9.629377e-51 3.968683e-50 2.569602e-49 9.159153e-49 5.861183e-48 1.733756e-47 1.092430e-46 
-3.081673e-45 -2.285566e-44 -2.835132e-44 -2.283222e-43 -1.647247e-43 -1.488613e-42 -3.917621e-43 -5.872997e-42 7.738387e-43 -1.175468e-41 2.001932e-42 -6.278603e-42 1.910513e-44 -3.426379e-43 4.415688e-42 -3.064396e-40 1.643435e-38 -6.955458e-37 2.400396e-35 -6.994154e-34 1.586178e-32 -3.155572e-31 4.389369e-30 -5.566302e-29 3.392023e-28 -1.445889e-27 -2.966512e-26 3.948637e-25 -4.059031e-24 2.531760e-23 -1.061329e-22 3.791204e-22 -4.946636e-22 7.958619e-22 2.646217e-21 -4.480519e-21 -4.170245e-20 6.492850e-19 -5.907086e-18 3.640917e-17 -2.055230e-16 8.554961e-16 -3.283363e-15 8.605444e-15 -1.588018e-14 -2.946315e-15 1.864128e-13 -7.012245e-13 2.407720e-12 -3.427662e-12 1.282454e-13 3.896076e-11 -3.451088e-10 1.553002e-09 2.210731e-08 1.804031e-07 -9.747125e-07 -5.013925e-06 -1.599881e-05 -3.049531e-05 -5.991369e-05 -4.046322e-05 2.834680e-04 -1.335362e-04 -1.423208e-05 -4.683667e-06 -1.850464e-06 -6.963374e-07 -2.941750e-07 -1.117554e-07 -5.161672e-08 -2.080557e-08 -6.546169e-09 1.385783e-09 1.203954e-10 1.258948e-11 -3.782885e-12 7.657226e-13 -2.266085e-13 8.688070e-14 -3.492454e-14 1.867857e-14 -8.783683e-15 3.692897e-15 -1.401983e-15 4.161779e-16 -1.173198e-16 2.569219e-17 -5.530638e-18 9.532230e-19 -1.675287e-19 2.466438e-20 -3.852224e-21 5.170756e-22 -7.367736e-23 8.803699e-24 -1.076301e-24 1.066180e-25 -1.047763e-26 8.185560e-28 -6.233727e-29 3.731409e-30 -2.151246e-31 9.620830e-33 -4.088754e-34 1.314949e-35 -3.911276e-37 8.224093e-39 -1.422184e-40 9.811236e-43 2.180912e-44 -1.056508e-45 2.569311e-47 -3.935464e-49 5.034045e-51 -4.555806e-53 -1.834360e-53 -1.286334e-52 -6.627786e-52 -4.508803e-51 -2.100216e-50 -1.411557e-49 -5.758769e-49 -3.843995e-48 -1.308073e-47 -8.796372e-47 -2.332883e-46 -1.622529e-45 
9.068785e-44 3.891420e-43 1.055716e-42 3.646967e-42 6.774833e-42 2.215150e-41 1.315469e-41 8.343572e-41 -3.210926e-41 1.579870e-40 -6.556810e-41 7.533907e-41 -2.036205e-41 -3.410011e-42 -7.774718e-41 4.665689e-39 -2.531333e-37 1.083932e-35 -3.903595e-34 1.165214e-32 -2.829013e-31 5.872701e-30 -9.288230e-29 1.305513e-27 -1.214232e-26 1.060150e-25 -3.279392e-25 2.971481e-25 2.936667e-23 -2.149753e-22 1.256737e-21 -4.635706e-21 8.648715e-21 -1.739593e-20 -9.713185e-21 2.130005e-20 -7.048350e-20 -5.507005e-19 8.470082e-18 -4.500517e-17 2.698059e-16 -1.013618e-15 4.352743e-15 -1.267453e-14 3.894097e-14 -7.130108e-14 1.229616e-13 1.409303e-14 -1.647484e-13 -3.947820e-13 9.862343e-12 -4.398132e-11 2.645529e-10 -6.869231e-10 -6.237409e-10 -8.420396e-08 8.281588e-07 3.388977e-06 1.005940e-05 2.715601e-05 8.379915e-05 1.515381e-04 -3.816001e-04 1.537023e-04 1.714201e-05 5.191985e-06 1.873966e-06 6.384148e-07 2.315522e-07 7.132947e-08 2.476888e-08 8.484161e-09 2.991418e-09 -3.641426e-10 2.059961e-12 -8.280697e-12 5.279638e-12 -1.634227e-12 8.951211e-13 -3.291326e-13 1.617763e-13 -5.784907e-14 2.414019e-14 -7.382482e-15 2.435890e-15 -5.946287e-16 1.511604e-16 -2.919324e-17 5.810308e-18 -9.114809e-19 1.487464e-19 -2.003766e-20 2.879698e-21 -3.554229e-22 4.717076e-23 -5.373760e-24 6.393282e-25 -6.378364e-26 6.429725e-27 -5.357116e-28 4.415869e-29 -2.989843e-30 1.974184e-31 -1.064717e-32 5.533805e-34 -2.330353e-35 9.360315e-37 -3.012564e-38 9.165358e-40 -2.200743e-41 4.951534e-43 -8.603292e-45 1.385496e-46 -1.664981e-48 1.823029e-50 -9.774647e-53 2.471447e-52 1.772234e-51 9.279631e-51 6.584792e-50 3.083010e-49 2.163518e-48 9.095026e-48 6.194009e-47 2.378299e-46 1.488103e-45 5.280821e-45 2.817011e-44 
2.217433e-42 -2.685164e-42 3.568674e-41 -3.300748e-41 3.102023e-40 -2.733170e-40 1.262824e-39 -1.183978e-39 1.921300e-39 -2.327706e-39 1.468999e-39 -1.038545e-39 7.442317e-40 1.337736e-40 1.114968e-39 -5.914680e-38 3.343854e-36 -1.439145e-34 5.508407e-33 -1.675214e-31 4.386667e-30 -9.407962e-29 1.647209e-27 -2.457914e-26 2.719949e-25 -2.732881e-24 1.618246e-23 -9.838179e-23 3.631114e-23 6.969043e-22 -1.466470e-20 5.649619e-20 -1.592659e-19 3.196518e-19 -6.022599e-21 -8.851659e-20 5.624374e-18 -2.139889e-17 1.314829e-16 -3.104423e-16 1.150767e-15 -1.648463e-15 3.914148e-15 2.728557e-15 -2.985994e-15 1.089766e-13 -4.332358e-14 6.135978e-13 -2.525582e-13 1.923327e-12 -6.149397e-12 1.940178e-11 -7.846476e-11 1.590073e-10 -2.181701e-10 -6.882852e-10 3.679274e-08 5.225401e-07 2.450199e-06 -4.520228e-06 -6.070842e-05 -3.087728e-04 4.858910e-04 -1.752506e-04 -2.061874e-05 -5.770953e-06 -1.967695e-06 -6.307902e-07 -2.147179e-07 -5.806288e-08 -1.616101e-08 -3.182892e-09 -6.675229e-10 5.736397e-11 4.566262e-12 3.802371e-12 -2.715939e-12 1.142658e-12 -7.121961e-13 2.820946e-13 -1.432488e-13 4.937366e-14 -2.001274e-14 5.654747e-15 -1.777301e-15 3.999696e-16 -9.716448e-17 1.747171e-17 -3.350691e-18 4.942472e-19 -7.817525e-20 9.943694e-21 -1.381518e-21 1.595814e-22 -2.010138e-23 2.079696e-24 -2.254601e-25 1.917544e-26 -1.622421e-27 1.001346e-28 -5.587555e-30 1.586996e-31 2.479104e-33 -9.031575e-34 8.162326e-35 -4.908856e-36 2.480538e-37 -9.502726e-39 3.300318e-40 -8.758884e-42 2.150154e-43 -3.972826e-45 6.818900e-47 -8.525968e-49 9.764597e-51 -6.527067e-52 -3.423998e-51 -2.656258e-50 -1.340008e-49 -1.028123e-48 -4.008434e-48 -3.225578e-47 -6.952588e-47 -7.805841e-46 5.056233e-46 -1.413822e-44 7.287578e-44 -2.019729e-43 