# vtk DataFile Version 2.0
Comment goes here
ASCII

DATASET STRUCTURED_POINTS
DIMENSIONS    128   128   1

ORIGIN    0.000   0.000   0.000
SPACING   0.0156250.015625   1.000

POINT_DATA   16384
SCALARS Concentration double
LOOKUP_TABLE default

2.372650e-132 1.460462e-130 8.207401e-129 4.040771e-127 1.776580e-125 6.555695e-124 2.084284e-122 5.136487e-121 1.016732e-119 1.290491e-118 1.066296e-117 2.555094e-117 4.894868e-117 7.329105e-117 1.219888e-116 1.078758e-116 1.128055e-116 1.005805e-116 1.311396e-116 1.158741e-116 1.507669e-116 1.272629e-116 1.635059e-116 1.306079e-116 1.629912e-116 1.190586e-116 1.358618e-116 7.842996e-117 5.810748e-117 6.672193e-118 7.238634e-119 3.526285e-120 1.887389e-121 5.979080e-123 2.127220e-124 5.074227e-126 1.365970e-127 2.651381e-129 5.796262e-131 9.605188e-133 1.772144e-134 2.578091e-136 4.052262e-138 5.205679e-140 6.804716e-142 7.564440e-144 7.840481e-146 7.317681e-148 5.936787e-150 4.894201e-152 3.739094e-154 3.316688e-156 2.866676e-158 2.219258e-160 1.655956e-162 3.554536e-164 4.147561e-166 6.036985e-168 3.767629e-170 1.937128e-172 8.904253e-175 4.479989e-177 2.609732e-179 1.334326e-181 5.864544e-184 2.006979e-186 5.486817e-189 1.205830e-191 2.352340e-194 4.211903e-197 9.707018e-200 1.864031e-202 6.886464e-205 1.704662e-207 8.713914e-210 2.065854e-212 7.274473e-215 1.074150e-217 2.628159e-220 3.125999e-223 6.605399e-226 9.219381e-229 1.853487e-231 5.281112e-233 1.196158e-230 2.965767e-228 7.222513e-226 1.791301e-223 4.433579e-221 1.105147e-218 2.764680e-216 6.893360e-214 1.725642e-211 4.269253e-209 1.058315e-206 2.576244e-204 6.264572e-202 1.488951e-199 3.522691e-197 8.118239e-195 1.855474e-192 4.120006e-190 9.039655e-188 1.922770e-185 4.026913e-183 8.160682e-181 1.622823e-178 3.117004e-176 5.855140e-174 1.060219e-171 1.871049e-169 3.175496e-167 5.233477e-165 8.271900e-163 1.264914e-160 1.849242e-158 2.605916e-156 3.498172e-154 4.508967e-152 5.512091e-150 6.441810e-148 7.100323e-146 7.442596e-144 7.305061e-142 6.774551e-140 5.827580e-138 4.697363e-136 3.467693e-134 
5.096900e-130 3.114415e-128 1.799635e-126 8.809275e-125 4.014708e-123 1.475354e-121 4.915300e-120 1.207569e-118 2.542006e-117 3.213702e-116 2.884397e-115 7.071337e-115 1.377823e-114 1.622977e-114 2.412326e-114 2.428216e-114 3.334284e-114 3.108888e-114 4.124987e-114 3.640194e-114 4.741050e-114 3.973561e-114 5.094642e-114 4.017647e-114 5.010874e-114 3.597102e-114 4.131548e-114 2.363710e-114 1.770173e-114 2.009323e-115 2.206397e-116 1.060874e-117 5.733644e-119 1.791867e-120 6.428171e-122 1.511070e-123 4.099487e-125 7.830113e-127 1.725767e-128 2.809587e-130 5.232947e-132 7.467022e-134 1.187237e-135 1.493476e-137 1.977551e-139 2.144383e-141 2.239699e-143 1.991575e-145 1.540481e-147 1.049191e-149 5.459229e-152 2.645960e-154 8.667578e-157 3.219961e-159 8.187227e-162 1.575494e-161 2.105597e-163 3.069004e-165 1.820907e-167 8.235017e-170 2.407382e-172 5.126916e-175 8.514809e-178 1.978308e-180 6.892394e-183 1.541123e-185 1.267038e-188 4.128803e-192 -4.413446e-196 9.834171e-200 2.453627e-202 3.083264e-205 -1.538886e-207 -5.360504e-208 -9.225318e-211 -6.382659e-214 -2.343345e-217 2.579644e-220 6.197033e-223 5.657797e-226 1.341497e-228 3.311709e-231 1.346610e-232 1.305270e-230 3.172966e-228 7.803687e-226 1.919617e-223 4.734870e-221 1.183717e-218 2.934287e-216 7.402930e-214 1.832536e-211 4.615409e-209 1.130799e-206 2.812752e-204 6.761836e-202 1.645732e-199 3.852564e-197 9.103872e-195 2.061754e-192 4.699595e-190 1.023761e-187 2.238207e-185 4.665469e-183 9.732614e-181 1.931650e-178 3.826171e-176 7.195285e-174 1.346732e-171 2.387760e-169 4.202087e-167 6.987615e-165 1.150161e-162 1.783668e-160 2.730222e-158 3.923693e-156 5.549024e-154 7.336745e-152 9.514931e-150 1.147569e-147 1.352710e-145 1.473023e-143 1.561289e-141 1.515758e-139 1.425417e-137 1.214158e-135 9.958577e-134 7.288098e-132 
1.671808e-127 1.021738e-125 5.898386e-124 2.887270e-122 1.313886e-120 4.827826e-119 1.605007e-117 3.943092e-116 8.274168e-115 1.046915e-113 9.340263e-113 2.299862e-112 4.443482e-112 5.259419e-112 7.745227e-112 7.836200e-112 1.065112e-111 9.986135e-112 1.310197e-111 1.163268e-111 1.496372e-111 1.262683e-111 1.596805e-111 1.268943e-111 1.558590e-111 1.128683e-111 1.274361e-111 7.364497e-112 5.410436e-112 6.180034e-113 6.708883e-114 3.217696e-115 1.725456e-116 5.357387e-118 1.908789e-119 4.444300e-121 1.197697e-122 2.259441e-124 4.946087e-126 7.931741e-128 1.467040e-129 2.057614e-131 3.248289e-133 4.015294e-135 5.278639e-137 5.652292e-139 5.877430e-141 5.244253e-143 4.106172e-145 2.879091e-147 1.524552e-149 7.527438e-152 2.285249e-154 8.368266e-157 1.671577e-159 8.074987e-159 1.164053e-160 1.400207e-162 9.041106e-165 4.046040e-167 1.345054e-169 3.004887e-172 4.436770e-175 -1.648303e-178 -2.746705e-180 -6.529426e-183 -3.834700e-186 -3.995262e-190 1.519889e-193 -6.782400e-197 6.004863e-200 -4.100512e-203 -2.691664e-204 -3.846886e-205 -6.687870e-208 -2.780418e-211 -1.290680e-214 4.211950e-218 -4.210443e-222 3.379527e-224 5.217519e-226 2.207343e-228 6.202012e-230 3.275086e-228 8.022452e-226 1.995026e-223 4.990394e-221 1.248206e-218 3.179318e-216 7.987056e-214 2.050833e-211 5.136567e-209 1.313894e-206 3.251359e-204 8.195074e-202 1.986652e-199 4.889298e-197 1.152622e-194 2.749217e-192 6.263134e-190 1.438828e-187 3.150196e-185 6.932649e-183 1.451383e-180 3.044683e-178 6.065801e-176 1.207244e-173 2.277886e-171 4.280961e-169 7.612772e-167 1.344440e-164 2.241598e-162 3.700749e-160 5.752659e-158 8.827779e-156 1.271303e-153 1.801676e-151 2.386394e-149 3.100014e-147 3.744502e-145 4.419321e-143 4.818327e-141 5.111200e-139 4.966892e-137 4.672680e-135 3.982880e-133 3.266646e-131 2.391688e-129 
5.373079e-125 3.283786e-123 1.894201e-121 9.270270e-120 4.213063e-118 1.547597e-116 5.134938e-115 1.261286e-113 2.638745e-112 3.341024e-111 2.963338e-110 7.327376e-110 1.403937e-109 1.669452e-109 2.436051e-109 2.476715e-109 3.332541e-109 3.140906e-109 4.075156e-109 3.638972e-109 4.623441e-109 3.926314e-109 4.897453e-109 3.919801e-109 4.741213e-109 3.461355e-109 3.841431e-109 2.240577e-109 1.614549e-109 1.854224e-110 1.989303e-111 9.505204e-113 5.055533e-114 1.556470e-115 5.505370e-117 1.265885e-118 3.386555e-120 6.281726e-122 1.364403e-123 2.140535e-125 3.925488e-127 5.355514e-129 8.376801e-131 1.001768e-132 1.304215e-134 1.349502e-136 1.394607e-138 1.219624e-140 9.798610e-143 7.016132e-145 4.087801e-147 2.067062e-149 6.560157e-152 2.059256e-154 1.911036e-157 2.973382e-156 4.155759e-158 4.256919e-160 2.792537e-162 1.280860e-164 4.594200e-167 1.174764e-169 2.652109e-172 6.049680e-175 1.358275e-177 2.059226e-180 7.234237e-184 -9.600858e-188 7.597823e-191 -4.123255e-194 3.310788e-197 -2.455391e-200 -1.584148e-201 -1.947629e-202 -4.136886e-205 -1.765852e-208 -6.506136e-212 3.881543e-215 -1.077280e-218 5.335147e-221 6.605761e-223 2.089531e-225 3.155942e-227 7.335892e-226 1.846675e-223 4.699585e-221 1.212379e-218 3.102460e-216 8.123310e-214 2.080580e-211 5.465914e-209 1.390655e-206 3.623591e-204 9.080805e-202 2.323115e-199 5.689372e-197 1.417098e-194 3.368568e-192 8.113446e-190 1.861058e-187 4.309820e-185 9.490074e-183 2.102443e-180 4.422897e-178 9.330328e-176 1.866558e-173 3.732579e-171 7.068091e-169 1.333740e-166 2.379184e-164 4.216327e-162 7.049086e-160 1.167221e-157 1.818692e-155 2.797899e-153 4.037494e-151 5.733831e-149 7.607706e-147 9.899277e-145 1.197407e-142 1.415006e-140 1.544454e-138 1.639778e-136 1.594754e-134 1.501020e-132 1.280088e-130 1.049979e-128 7.689316e-127 
1.689798e-122 1.033004e-120 5.952308e-119 2.913348e-117 1.321863e-115 4.855736e-114 1.607356e-112 3.948841e-111 8.232741e-110 1.043540e-108 9.196421e-108 2.284573e-107 4.338190e-107 5.185062e-107 7.491450e-107 7.657697e-107 1.019140e-106 9.661311e-107 1.238307e-106 1.112823e-106 1.394761e-106 1.192860e-106 1.465358e-106 1.182194e-106 1.405529e-106 1.035416e-106 1.126894e-106 6.641022e-107 4.680241e-107 5.411067e-108 5.716389e-109 2.724016e-110 1.430989e-111 4.371334e-113 1.527217e-114 3.467959e-116 9.151297e-118 1.667352e-119 3.563219e-121 5.453898e-123 9.803850e-125 1.293707e-126 1.972763e-128 2.258368e-130 2.842626e-132 2.791148e-134 2.757686e-136 2.308499e-138 1.799824e-140 1.312439e-142 8.129014e-145 4.530730e-147 1.256092e-149 2.891498e-152 -4.851815e-156 8.311052e-154 1.176589e-155 9.426016e-158 6.294600e-160 2.809912e-162 1.091043e-164 2.693315e-167 4.420639e-170 -1.925201e-174 -1.538053e-175 -3.028254e-178 -1.024933e-181 1.386915e-185 -1.346523e-188 8.753118e-192 -4.798801e-195 -8.546289e-198 -7.821038e-199 -7.393154e-200 -1.572980e-202 2.829161e-206 2.592358e-209 -4.239143e-212 -3.538604e-216 6.239383e-218 5.685240e-220 1.647664e-222 1.513953e-224 1.379130e-223 3.670938e-221 9.788650e-219 2.657792e-216 7.057275e-214 1.925310e-211 5.069298e-209 1.374799e-206 3.570641e-204 9.535010e-202 2.427115e-199 6.328795e-197 1.568784e-194 3.966592e-192 9.519418e-190 2.320427e-187 5.363737e-185 1.254195e-182 2.779237e-180 6.206014e-178 1.312491e-175 2.786911e-173 5.600450e-171 1.126043e-168 2.140574e-166 4.057713e-164 7.262714e-162 1.292020e-159 2.166415e-157 3.598765e-155 5.621726e-153 8.671476e-151 1.254105e-148 1.784830e-146 2.372617e-144 3.092437e-142 3.746521e-140 4.432719e-138 4.844488e-136 5.147430e-134 5.011149e-132 4.718139e-130 4.026666e-128 3.302427e-126 2.419651e-124 
5.204280e-120 3.181931e-118 1.831660e-116 8.964744e-115 4.061298e-113 1.491726e-111 4.926869e-110 1.210492e-108 2.515162e-107 3.191413e-106 2.794631e-105 6.974059e-105 1.312533e-104 1.576595e-104 2.255486e-104 2.317658e-104 3.050853e-104 2.908478e-104 3.682565e-104 3.329758e-104 4.116695e-104 3.544760e-104 4.288146e-104 3.485906e-104 4.073164e-104 3.026490e-104 3.229557e-104 1.921984e-104 1.324351e-104 1.540769e-105 1.601856e-106 7.608466e-108 3.944705e-109 1.194493e-110 4.117733e-112 9.219365e-114 2.395988e-115 4.276318e-117 8.970366e-119 1.333220e-120 2.340594e-122 2.962292e-124 4.379010e-126 4.724729e-128 5.695102e-130 5.153640e-132 4.766264e-134 3.635234e-136 2.636788e-138 1.868834e-140 1.248169e-142 8.669772e-145 4.428762e-147 1.393588e-149 2.130508e-152 1.444049e-151 1.746646e-153 1.144827e-155 7.385688e-158 3.387839e-160 1.497034e-162 4.979147e-165 1.456503e-167 3.102255e-170 4.788822e-173 4.555422e-176 9.974823e-180 -2.670988e-183 2.624861e-186 -2.217902e-189 4.298145e-192 -3.861270e-195 -2.203935e-196 -1.738112e-197 -2.820468e-200 3.531416e-203 -3.114287e-206 4.815334e-209 -3.888981e-212 6.422788e-215 4.027730e-217 1.099934e-219 6.869033e-222 2.265972e-221 6.556832e-219 1.878209e-216 5.447235e-214 1.522393e-211 4.357421e-209 1.189406e-206 3.339446e-204 8.900431e-202 2.437936e-199 6.325172e-197 1.681016e-194 4.227601e-192 1.084640e-189 2.632488e-187 6.490613e-185 1.513835e-182 3.572201e-180 7.973721e-178 1.793747e-175 3.816472e-173 8.153283e-171 1.646752e-168 3.327817e-166 6.353282e-164 1.209462e-161 2.172713e-159 3.879013e-157 6.524684e-155 1.087097e-152 1.702761e-150 2.633010e-148 3.816689e-146 5.442809e-144 7.249126e-142 9.463303e-140 1.148290e-137 1.360177e-135 1.488376e-133 1.582630e-131 1.542167e-129 1.452484e-127 1.240411e-125 1.017229e-123 7.455933e-122 
1.568060e-117 9.590327e-116 5.514088e-114 2.699233e-112 1.220669e-110 4.484109e-109 1.477274e-107 3.630752e-106 7.515932e-105 9.549498e-104 8.305810e-103 2.082755e-102 3.883283e-102 4.689203e-102 6.639128e-102 6.860107e-102 8.926514e-102 8.560789e-102 1.069994e-101 9.737953e-102 1.186564e-101 1.029096e-101 1.224641e-101 1.003596e-101 1.151002e-101 8.630805e-102 9.015502e-102 5.421598e-102 3.645210e-102 4.270919e-103 4.358270e-104 2.064652e-105 1.053285e-106 3.162267e-108 1.071782e-109 2.364950e-111 6.026172e-113 1.051921e-114 2.153311e-116 3.096437e-118 5.266683e-120 6.344765e-122 8.988092e-124 8.992118e-126 1.019213e-127 8.180724e-130 6.811571e-132 4.323240e-134 2.620241e-136 1.548031e-138 9.296311e-141 6.705649e-143 4.565299e-145 3.613910e-147 -4.435847e-150 1.820884e-149 1.618626e-151 6.446560e-154 3.173329e-156 1.068542e-158 3.908002e-161 1.082654e-163 2.872140e-166 5.935988e-169 1.012424e-171 1.367155e-174 1.095508e-177 7.590797e-181 -9.184963e-185 -8.229924e-188 1.562711e-190 1.448029e-193 -5.773791e-194 -2.955818e-195 -6.609208e-198 5.320188e-201 -8.371088e-204 1.471575e-206 -4.832785e-210 3.041906e-212 2.086699e-214 5.895742e-217 2.645768e-219 3.024084e-219 1.008035e-216 3.177499e-214 1.015903e-211 3.019296e-209 9.228455e-207 2.623429e-204 7.707702e-202 2.112503e-199 5.976867e-197 1.582031e-194 4.305916e-192 1.099120e-189 2.871232e-187 7.048641e-185 1.762351e-182 4.147609e-180 9.895815e-178 2.225051e-175 5.050039e-173 1.080948e-170 2.326021e-168 4.721686e-166 9.598613e-164 1.840368e-161 3.520725e-159 6.347953e-157 1.137939e-154 1.920113e-152 3.209904e-150 5.041456e-148 7.817016e-146 1.135755e-143 1.623176e-141 2.166128e-139 2.832457e-137 3.442592e-135 4.082656e-133 4.473423e-131 4.760127e-129 4.643288e-127 4.374410e-125 3.738627e-123 3.065351e-121 2.247996e-119 
4.623929e-115 2.828797e-113 1.624551e-111 7.953376e-110 3.590461e-108 1.319055e-106 4.334721e-105 1.065688e-103 2.197868e-102 2.796305e-101 2.415673e-100 6.086613e-100 1.124240e-99 1.364672e-99 1.912088e-99 1.986607e-99 2.555094e-99 2.464860e-99 3.040849e-99 2.785240e-99 3.344335e-99 2.921121e-99 3.418934e-99 2.824120e-99 3.178327e-99 2.404742e-99 2.458187e-99 1.493483e-99 9.794396e-100 1.155797e-100 1.156806e-101 5.467432e-103 2.741688e-104 8.164035e-106 2.716679e-107 5.909776e-109 1.473570e-110 2.516212e-112 5.012071e-114 6.971125e-116 1.143981e-117 1.309591e-119 1.767047e-121 1.629370e-123 1.720482e-125 1.197640e-127 8.772499e-130 4.232432e-132 1.890924e-134 7.465185e-137 3.006002e-139 1.592098e-141 7.997434e-144 6.146531e-146 -2.284599e-149 1.530875e-147 5.109506e-150 1.143154e-152 2.599515e-155 5.314061e-158 1.106484e-160 2.195128e-163 4.312815e-166 8.196670e-169 1.527388e-171 2.918568e-174 5.827492e-177 1.391871e-179 2.947225e-182 5.950027e-185 6.680500e-188 4.142416e-191 -9.418576e-192 -3.352991e-193 -1.116736e-195 3.086899e-198 -1.054418e-201 -2.857340e-205 1.817798e-207 1.673948e-209 8.654425e-212 2.377548e-214 8.577009e-217 3.650012e-217 1.435274e-214 5.122305e-212 1.815340e-209 5.815156e-207 1.896398e-204 5.657973e-202 1.735166e-199 4.914884e-197 1.432478e-194 3.881715e-192 1.079373e-189 2.803533e-187 7.441594e-185 1.851350e-182 4.686029e-180 1.114462e-177 2.684805e-175 6.087927e-173 1.392480e-170 3.001293e-168 6.499169e-166 1.326924e-163 2.711524e-161 5.224166e-159 1.003722e-156 1.817192e-154 3.269165e-152 5.535570e-150 9.281283e-148 1.462046e-145 2.272427e-143 3.309954e-141 4.739512e-139 6.338123e-137 8.299914e-135 1.010511e-132 1.199622e-130 1.316244e-128 1.401455e-126 1.368493e-124 1.289495e-122 1.102914e-120 9.040834e-119 6.633452e-117 
1.333558e-112 8.161316e-111 4.681017e-109 2.292219e-107 1.032857e-105 3.795252e-104 1.243892e-102 3.059468e-101 6.285191e-100 8.008571e-99 6.870177e-98 1.739529e-97 3.182348e-97 3.883542e-97 5.383547e-97 5.624685e-97 7.148374e-97 6.937266e-97 8.444374e-97 7.785034e-97 9.207426e-97 8.100280e-97 9.319524e-97 7.760354e-97 8.564611e-97 6.539362e-97 6.536399e-97 4.012811e-97 2.564358e-97 3.048760e-98 2.988741e-99 1.409615e-100 6.937902e-102 2.048853e-103 6.683363e-105 1.432501e-106 3.489443e-108 5.820890e-110 1.126263e-111 1.511208e-113 2.388444e-115 2.585008e-117 3.318250e-119 2.788077e-121 2.746700e-123 1.599614e-125 1.039949e-127 3.141390e-130 9.632716e-133 5.533974e-136 1.989209e-138 -2.458940e-141 1.406235e-144 -2.542378e-145 -1.610063e-147 9.280926e-146 -1.060833e-148 -1.507148e-151 -2.496918e-154 -4.123964e-157 -7.065553e-160 -1.252960e-162 -2.164838e-165 -4.183794e-168 -1.069459e-170 -4.942815e-173 -2.438038e-175 -1.225207e-177 -4.286304e-180 -1.198449e-182 -9.609224e-186 -2.275712e-188 -1.951147e-189 -2.803383e-191 -2.393504e-196 -1.173243e-196 -3.471471e-199 -8.172221e-202 7.099254e-205 7.016917e-207 2.613069e-209 6.920903e-212 2.128514e-214 3.727095e-215 1.863688e-212 7.555216e-210 3.063444e-207 1.054557e-204 3.728115e-202 1.163786e-199 3.761462e-197 1.098396e-194 3.319306e-192 9.190820e-190 2.623124e-187 6.922704e-185 1.873613e-182 4.718470e-180 1.212273e-177 2.910973e-175 7.095414e-173 1.621470e-170 3.743688e-168 8.120791e-166 1.771929e-163 3.637125e-161 7.478640e-159 1.447408e-156 2.795139e-154 5.080002e-152 9.177425e-150 1.559109e-147 2.623072e-145 4.143670e-143 6.458238e-141 9.429428e-139 1.353136e-136 1.813193e-134 2.378313e-132 2.900435e-130 3.447165e-128 3.787423e-126 4.035300e-124 3.944596e-122 3.717641e-120 3.182270e-118 2.607890e-116 1.914541e-114 
3.761506e-110 2.302917e-108 1.319103e-106 6.461045e-105 2.905686e-103 1.067953e-101 3.490712e-100 8.590060e-99 1.757673e-97 2.243203e-96 1.910744e-95 4.861954e-95 8.808785e-95 1.080742e-94 1.482067e-94 1.557175e-94 1.955203e-94 1.908899e-94 2.292212e-94 2.127106e-94 2.477402e-94 2.195335e-94 2.482145e-94 2.083722e-94 2.254429e-94 1.737271e-94 1.697329e-94 1.053116e-94 6.555034e-95 7.856671e-96 7.537610e-97 3.551907e-98 1.713882e-99 5.028340e-101 1.605492e-102 3.399227e-104 8.073494e-106 1.320646e-107 2.475952e-109 3.223705e-111 4.892261e-113 5.054620e-115 6.153850e-117 4.796176e-119 4.409310e-121 2.226982e-123 1.317245e-125 2.512554e-128 6.658728e-131 -1.188589e-133 2.930929e-136 -9.024338e-139 1.875945e-141 1.978205e-143 7.024014e-146 5.447891e-144 -2.012061e-146 6.144375e-150 -1.678634e-152 -1.524771e-155 1.035875e-158 1.121487e-161 1.657247e-164 1.054101e-166 7.820954e-169 6.377353e-171 4.060156e-173 2.267232e-175 1.096942e-177 3.996490e-180 1.186204e-182 -2.529117e-186 -3.829480e-187 -1.797922e-189 1.878395e-192 1.302124e-194 6.237306e-197 2.845997e-199 8.914693e-202 2.426611e-204 5.111906e-207 1.103621e-209 3.552263e-212 4.102272e-213 2.503311e-210 1.153444e-207 5.216640e-205 1.935403e-202 7.300221e-200 2.392745e-197 8.066183e-195 2.436223e-192 7.578938e-190 2.150302e-187 6.266851e-185 1.684375e-182 4.630602e-180 1.182744e-177 3.075572e-175 7.468398e-173 1.837805e-170 4.238082e-168 9.860109e-166 2.154879e-163 4.731255e-161 9.772169e-159 2.019660e-156 3.929337e-154 7.620177e-152 1.391065e-149 2.521821e-147 4.300297e-145 7.255481e-143 1.149792e-140 1.796143e-138 2.629496e-136 3.780107e-134 5.076616e-132 6.667677e-130 8.146354e-128 9.690550e-126 1.066274e-123 1.136590e-121 1.112315e-119 1.048368e-117 8.981602e-116 7.357686e-114 5.404753e-112 
1.037311e-107 6.353186e-106 3.634230e-104 1.780528e-102 7.991859e-101 2.938074e-99 9.576997e-98 2.357986e-96 4.805437e-95 6.142784e-94 5.195289e-93 1.328410e-92 2.383610e-92 2.939856e-92 3.988249e-92 4.213487e-92 5.226891e-92 5.133147e-92 6.080603e-92 5.678710e-92 6.513019e-92 5.812242e-92 6.458011e-92 5.464337e-92 5.795705e-92 4.506398e-92 4.303677e-92 2.697904e-92 1.635835e-92 1.976275e-93 1.855475e-94 8.734340e-96 4.132658e-97 1.204178e-98 3.765947e-100 7.872054e-102 1.825767e-103 2.926639e-105 5.332139e-107 6.732832e-109 9.865960e-111 9.734318e-113 1.136643e-114 8.249132e-117 7.259435e-119 3.232864e-121 1.880362e-123 2.312457e-126 8.948717e-129 -2.375924e-131 5.230044e-134 -1.729067e-136 3.601939e-139 -3.648449e-141 2.717947e-144 4.281176e-142 -4.678024e-145 2.133575e-147 -6.628964e-150 6.110371e-153 -5.182402e-156 -5.156486e-160 -1.372057e-162 -1.549196e-164 -1.235346e-166 -9.540500e-169 -6.162235e-171 -3.442271e-173 -1.823935e-175 -7.707479e-178 -3.546217e-180 -1.229880e-182 -5.880387e-185 -1.014746e-187 -4.598135e-191 -2.533833e-193 -1.153850e-195 -5.892086e-198 -2.186436e-200 -7.625418e-203 -1.646373e-205 9.899707e-211 4.052184e-210 4.594013e-211 3.480176e-208 1.740602e-205 8.871509e-203 3.470460e-200 1.407163e-197 4.784657e-195 1.692502e-192 5.248606e-190 1.689118e-187 4.887158e-185 1.460177e-182 3.983777e-180 1.116020e-177 2.884237e-175 7.610647e-173 1.865644e-170 4.644514e-168 1.079384e-165 2.534814e-163 5.575555e-161 1.233514e-158 2.561626e-156 5.327322e-154 1.041235e-151 2.029631e-149 3.719647e-147 6.771588e-145 1.158582e-142 1.961447e-140 3.117208e-138 4.882865e-136 7.165608e-134 1.032312e-131 1.389182e-129 1.827465e-127 2.236472e-125 2.663295e-123 2.934452e-121 3.129861e-119 3.066271e-117 2.890398e-115 2.478252e-113 2.029513e-111 1.491675e-109 
2.795592e-105 1.713026e-103 9.784643e-102 4.795527e-100 2.147993e-98 7.899650e-97 2.567568e-95 6.325919e-94 1.283810e-92 1.644034e-91 1.380378e-90 3.547196e-90 6.302525e-90 7.815201e-90 1.048628e-89 1.114103e-89 1.365128e-89 1.348729e-89 1.575653e-89 1.481170e-89 1.672345e-89 1.503260e-89 1.640820e-89 1.399724e-89 1.454811e-89 1.141774e-89 1.065389e-89 6.751442e-90 3.985831e-90 4.859240e-91 4.460772e-92 2.101907e-93 9.740143e-95 2.827199e-96 8.647522e-98 1.792670e-99 4.053023e-101 6.410587e-103 1.132902e-104 1.402836e-106 1.981518e-108 1.903673e-110 2.130473e-112 1.496453e-114 1.263883e-116 5.476572e-119 3.163033e-121 4.389830e-124 1.915190e-126 -3.362456e-129 5.904357e-132 -1.391344e-134 6.598889e-138 4.916729e-139 -5.081542e-141 4.782622e-140 1.184991e-142 3.177871e-145 -7.508999e-148 5.347714e-151 -3.927535e-154 -8.367972e-159 2.916446e-160 3.043660e-162 2.213736e-164 1.536200e-166 9.255761e-169 4.826527e-171 2.388533e-173 9.319203e-176 3.529004e-178 7.943331e-181 1.254791e-183 -4.935932e-187 2.611089e-190 4.137770e-192 2.112110e-194 9.905888e-197 3.227058e-199 1.497663e-201 1.355007e-203 1.299226e-205 1.135672e-207 7.068009e-209 5.598496e-206 2.953051e-203 1.596327e-200 6.539868e-198 2.766011e-195 9.751957e-193 3.557593e-190 1.134436e-187 3.735615e-185 1.104424e-182 3.357923e-180 9.318271e-178 2.646168e-175 6.932348e-173 1.849099e-170 4.583244e-168 1.150984e-165 2.699425e-163 6.384595e-161 1.415093e-158 3.149104e-156 6.581762e-154 1.375434e-151 2.702920e-149 5.289807e-147 9.739131e-145 1.778840e-142 3.055382e-140 5.186499e-138 8.269805e-136 1.298152e-133 1.910330e-131 2.756594e-129 3.718136e-127 4.896926e-125 6.004329e-123 7.155525e-121 7.896179e-119 8.424713e-117 8.263548e-115 7.788857e-113 6.684395e-111 5.471220e-109 4.024015e-107 
7.362813e-103 4.513356e-101 2.574438e-99 1.262095e-97 5.641890e-96 2.075508e-94 6.727057e-93 1.658357e-91 3.351857e-90 4.299547e-89 3.584467e-88 9.254931e-88 1.628678e-87 2.029896e-87 2.694623e-87 2.878102e-87 3.484444e-87 3.462056e-87 3.990209e-87 3.773936e-87 4.196477e-87 3.797727e-87 4.074220e-87 3.502032e-87 3.569127e-87 2.825543e-87 2.578211e-87 1.650390e-87 9.497713e-88 1.167675e-88 1.049387e-89 4.946745e-91 2.249043e-92 6.498971e-94 1.949499e-95 4.005487e-97 8.865724e-99 1.383150e-100 2.387083e-102 2.900212e-104 3.992346e-106 3.745844e-108 4.091874e-110 2.809055e-112 2.349457e-114 1.022629e-116 6.171404e-119 1.108929e-121 5.290365e-124 -2.872689e-127 1.252434e-129 -2.291088e-132 3.319330e-135 -1.990639e-136 5.986354e-138 7.237631e-138 2.714640e-140 8.197384e-143 -9.757441e-146 6.081784e-149 -4.414544e-152 -1.439940e-155 -8.832422e-158 -6.592402e-160 -4.288096e-162 -2.594201e-164 -1.451768e-166 -6.933780e-169 -3.265351e-171 -1.238662e-173 -4.900851e-176 -1.434311e-178 -4.165718e-181 -5.885174e-184 -6.390087e-187 -1.951605e-189 -5.833701e-192 -2.175631e-194 -4.921799e-197 7.001745e-200 3.053407e-201 3.190876e-203 2.670896e-205 1.255614e-206 9.968110e-204 5.225190e-201 2.971845e-198 1.237841e-195 5.463264e-193 1.963946e-190 7.409397e-188 2.404486e-185 8.128181e-183 2.438943e-180 7.569827e-178 2.126690e-175 6.139090e-173 1.624908e-170 4.391788e-168 1.097989e-165 2.787160e-163 6.584577e-161 1.571164e-158 3.503990e-156 7.854641e-154 1.650356e-151 3.469672e-149 6.849298e-147 1.347131e-144 2.489835e-142 4.566231e-140 7.869034e-138 1.340197e-135 2.142937e-133 3.372773e-131 4.975079e-129 7.193712e-127 9.722237e-125 1.282386e-122 1.574956e-120 1.878810e-118 2.076012e-116 2.216157e-114 2.176005e-112 2.051166e-110 1.761680e-108 1.441398e-106 1.060722e-104 
1.893482e-100 1.161326e-98 6.613753e-97 3.243767e-95 1.446877e-93 5.325218e-92 1.720823e-90 4.245560e-89 8.544310e-88 1.098125e-86 9.088097e-86 2.358114e-85 4.109240e-85 5.148696e-85 6.760053e-85 7.260321e-85 8.682214e-85 8.677333e-85 9.863296e-85 9.388571e-85 1.027748e-84 9.367155e-85 9.872510e-85 8.554399e-85 8.544643e-85 6.827370e-85 6.088752e-85 3.940249e-85 2.209184e-85 2.743185e-86 2.411188e-87 1.140082e-88 5.078970e-90 1.466775e-91 4.308362e-93 8.823592e-95 1.908709e-96 2.962457e-98 4.984194e-100 6.021360e-102 8.064974e-104 7.552881e-106 8.041008e-108 5.604932e-110 4.625477e-112 2.176565e-114 1.341560e-116 3.483123e-119 1.645848e-121 1.620100e-124 7.455604e-127 2.916101e-130 -4.993342e-132 2.585847e-133 1.492978e-134 1.486190e-135 7.089053e-138 2.228664e-140 3.899855e-144 2.577616e-147 -7.632672e-153 5.201655e-153 2.861214e-155 1.672930e-157 9.332698e-160 4.937452e-162 2.434174e-164 1.035699e-166 4.188044e-169 1.352621e-171 4.055070e-174 8.313474e-177 1.384838e-179 2.672083e-182 4.767470e-185 1.824478e-187 5.058063e-190 2.567415e-192 1.589456e-194 1.343868e-196 1.135922e-198 9.134172e-201 6.652773e-203 2.870598e-204 2.037775e-201 1.049925e-198 5.906398e-196 2.489124e-193 1.109470e-190 4.062996e-188 1.554631e-185 5.139121e-183 1.761228e-180 5.372492e-178 1.687803e-175 4.809414e-173 1.402808e-170 3.758021e-168 1.024688e-165 2.588206e-163 6.618974e-161 1.577412e-158 3.787574e-156 8.510074e-154 1.917729e-151 4.055058e-149 8.563005e-147 1.699571e-144 3.355042e-142 6.229710e-140 1.145951e-137 1.982616e-135 3.384888e-133 5.430416e-131 8.563323e-129 1.266701e-126 1.834221e-124 2.484745e-122 3.280705e-120 4.036966e-118 4.818599e-116 5.332709e-114 5.693692e-112 5.597497e-110 5.275155e-108 4.535028e-106 3.708150e-104 2.730807e-102 
4.756042e-98 2.918069e-96 1.659520e-94 8.141422e-93 3.624228e-91 1.334290e-89 4.299710e-88 1.061446e-86 2.127568e-85 2.738979e-84 2.251028e-83 5.867370e-83 1.012920e-82 1.275292e-82 1.656977e-82 1.788523e-82 2.113845e-82 2.123862e-82 2.382509e-82 2.280835e-82 2.459978e-82 2.256277e-82 2.338521e-82 2.040776e-82 2.000314e-82 1.611480e-82 1.406834e-82 9.192822e-83 5.031868e-83 6.303298e-84 5.431405e-85 2.573295e-86 1.126712e-87 3.248490e-89 9.383250e-91 1.913563e-92 4.070355e-94 6.280047e-96 1.039274e-97 1.248265e-99 1.648319e-101 1.542477e-103 1.631728e-105 1.157815e-107 9.691829e-110 4.917954e-112 3.212920e-114 1.081333e-116 5.691362e-119 1.340965e-121 6.439124e-124 2.199563e-126 1.498467e-128 5.667097e-130 1.244237e-131 3.550052e-133 1.582212e-135 5.348017e-138 4.252082e-141 3.576326e-144 -6.232269e-148 -3.100899e-150 -1.059434e-152 -4.618855e-155 -2.271938e-157 -1.036405e-159 -4.656913e-162 -1.778408e-164 -6.693821e-167 -2.028291e-169 -6.046504e-172 -1.360863e-174 -2.648818e-177 -5.654707e-181 9.281446e-183 6.640514e-185 2.528204e-187 1.381199e-189 7.709611e-192 5.364223e-194 3.761314e-196 2.687559e-198 1.798458e-200 7.014057e-202 4.464527e-199 2.188889e-196 1.214419e-193 5.057977e-191 2.276679e-188 8.360394e-186 3.249970e-183 1.082745e-180 3.771090e-178 1.160836e-175 3.700852e-173 1.064005e-170 3.143578e-168 8.490955e-166 2.340847e-163 5.956406e-161 1.537617e-158 3.688385e-156 8.926911e-154 2.017241e-151 4.576354e-149 9.725088e-147 2.065197e-144 4.116702e-142 8.164670e-140 1.521681e-137 2.809930e-135 4.876979e-133 8.352501e-131 1.343632e-128 2.124081e-126 3.149143e-124 4.568797e-122 6.200912e-120 8.198709e-118 1.010435e-115 1.207171e-113 1.337635e-111 1.428829e-109 1.406057e-107 1.325101e-105 1.140017e-103 9.317542e-102 6.865349e-100 
1.165368e-95 7.154331e-94 4.061910e-92 1.993733e-90 8.855239e-89 3.261941e-87 1.047943e-85 2.589309e-84 5.167587e-83 6.666017e-82 5.438876e-81 1.424471e-80 2.435556e-80 3.082101e-80 3.961566e-80 4.298778e-80 5.019573e-80 5.071793e-80 5.612526e-80 5.405892e-80 5.741779e-80 5.302117e-80 5.401235e-80 4.749959e-80 4.565969e-80 3.711504e-80 3.169828e-80 2.093555e-80 1.118038e-80 1.415402e-81 1.194342e-82 5.686622e-84 2.443579e-85 7.063384e-87 2.002841e-88 4.091666e-90 8.541189e-92 1.321267e-93 2.145918e-95 2.594355e-97 3.368522e-99 3.206297e-101 3.356881e-103 2.485025e-105 2.091746e-107 1.175419e-109 7.956102e-112 3.388644e-114 1.913877e-116 7.136195e-119 3.820634e-121 2.157197e-123 1.698055e-125 3.908727e-127 6.219940e-129 9.898765e-131 4.499878e-133 1.463554e-135 2.252262e-138 2.824738e-141 2.165482e-144 1.992100e-147 3.756006e-150 1.393365e-152 6.007539e-155 2.422319e-157 9.476077e-160 3.236989e-162 1.047739e-164 2.755777e-167 6.464258e-170 1.181306e-172 2.286008e-175 1.296803e-177 5.513728e-180 3.128390e-182 1.121262e-184 5.997890e-187 2.953904e-189 1.913079e-191 1.184626e-193 7.983066e-196 4.955762e-198 1.878744e-199 1.046288e-196 4.928672e-194 2.605306e-191 1.074627e-188 4.767617e-186 1.757818e-183 6.828031e-181 2.296182e-178 8.034474e-176 2.500295e-173 8.023116e-171 2.331689e-168 6.936198e-166 1.892382e-163 5.251209e-161 1.348328e-158 3.501377e-156 8.466520e-154 2.059935e-151 4.687689e-149 1.068324e-146 2.284172e-144 4.869548e-142 9.758175e-140 1.941681e-137 3.635232e-135 6.730898e-133 1.172764e-130 2.012866e-128 3.248676e-126 5.144274e-124 7.648002e-122 1.110937e-119 1.511287e-117 1.999799e-115 2.469323e-113 2.951312e-111 3.275354e-109 3.498729e-107 3.447246e-105 3.247587e-103 2.796704e-101 2.284056e-99 1.684207e-97 