# vtk DataFile Version 2.0
Comment goes here
ASCII

DATASET STRUCTURED_POINTS
DIMENSIONS    128   128   1

ORIGIN    0.000   0.000   0.000
SPACING   0.0156250.015625   1.000

POINT_DATA   16384
SCALARS Concentration double
LOOKUP_TABLE default

1.432852e-63 4.118909e-62 1.089693e-62 2.435085e-61 2.938095e-62 2.157573e-61 2.036524e-61 2.306869e-61 1.269972e-60 7.483875e-61 1.901374e-60 7.456821e-61 6.726786e-61 2.220144e-61 9.850736e-61 -5.357404e-60 3.285998e-58 -1.993835e-57 7.310619e-56 -3.242084e-55 8.486191e-54 -2.593726e-53 5.245170e-52 -1.449578e-51 2.172256e-50 -6.077654e-50 6.385184e-49 -1.088007e-48 8.649616e-48 -4.983995e-48 3.624447e-47 3.648528e-49 3.257216e-47 5.594924e-48 3.420003e-48 -6.097159e-48 7.076640e-47 -1.741585e-45 1.861167e-44 -4.952570e-43 2.510745e-42 -1.129619e-40 -2.900374e-40 -1.789416e-38 -9.574327e-38 -1.299321e-36 -1.044155e-34 -4.856511e-33 -2.273021e-31 -4.217830e-30 -8.292348e-29 -6.611934e-28 -5.284673e-27 -2.376235e-26 -2.042260e-27 -1.711895e-26 1.769097e-25 -1.695261e-24 1.701870e-23 -9.433217e-23 4.675052e-22 -1.236548e-21 2.414479e-21 -1.042845e-21 -3.155799e-22 2.850350e-23 -3.467684e-24 2.615760e-25 2.583304e-26 -1.001805e-26 2.043935e-27 -1.677557e-28 1.445272e-29 -1.177013e-30 -2.378331e-30 -1.879420e-29 -3.768923e-30 -4.347634e-31 -5.038448e-32 -2.393801e-33 -1.214164e-34 -2.451089e-36 -4.701845e-38 4.084988e-40 3.758298e-41 1.142719e-42 1.410202e-44 -4.217626e-45 6.461609e-47 -1.137009e-47 1.816137e-49 -3.934325e-51 -3.787255e-52 4.650688e-53 -2.413229e-54 1.444844e-55 -5.474347e-57 2.439850e-58 -7.854730e-60 2.897579e-61 -8.382988e-63 2.704121e-64 -7.153745e-66 2.032399e-67 -4.776880e-69 1.158583e-70 -2.309187e-72 4.611696e-74 -7.503742e-76 1.199235e-77 -1.543600e-79 2.159602e-81 1.688013e-81 8.495860e-81 9.138976e-80 9.659303e-79 1.383570e-77 2.929349e-76 4.801664e-75 3.426458e-73 4.371313e-72 3.084901e-70 2.429109e-69 1.258026e-67 5.611485e-67 2.245258e-65 4.951532e-65 1.641860e-63 
3.019755e-64 1.471612e-63 1.233175e-62 4.065836e-62 3.328065e-61 6.809171e-61 4.913452e-60 5.446546e-60 2.835586e-59 1.629838e-59 3.607759e-59 1.311790e-59 1.021315e-59 3.233214e-60 2.030735e-59 -2.835899e-59 6.406757e-57 -1.682479e-56 1.300262e-54 -2.923655e-54 1.404108e-52 -2.435942e-52 8.210935e-51 -1.569167e-50 3.346149e-49 -7.279750e-49 1.006692e-47 -1.345456e-47 1.413165e-46 -6.224466e-47 6.300678e-46 2.218376e-47 6.603484e-46 1.379482e-46 1.392595e-46 7.510690e-47 -4.054928e-46 1.076774e-44 -1.298303e-43 3.394577e-42 -2.328556e-41 7.556140e-40 -5.400558e-40 6.265430e-38 -8.004680e-37 -5.162207e-35 -3.120326e-33 -9.469930e-32 -3.378968e-30 -5.076572e-29 -8.722964e-28 -5.953643e-27 -4.841400e-26 -1.606555e-25 -3.093384e-26 4.335564e-26 -6.357079e-25 7.397566e-24 -9.492101e-23 4.935675e-22 -2.302848e-21 5.764691e-21 -1.119350e-20 4.813457e-21 1.261265e-21 -7.908142e-23 5.876865e-24 6.498803e-25 -5.387467e-25 1.193460e-25 -2.167766e-26 1.455361e-27 -1.043463e-28 4.550498e-30 -2.176905e-29 -1.443840e-28 -3.847287e-29 -4.296435e-30 -5.751074e-31 -3.093217e-32 -1.919551e-33 -5.082912e-35 -1.629358e-36 -3.651411e-38 -9.808662e-40 -4.356620e-41 -3.996788e-43 8.077484e-45 -8.693142e-46 1.185818e-46 -3.164224e-48 1.585459e-49 -1.805442e-51 -7.845778e-53 8.442302e-54 -5.896521e-55 2.324893e-56 -1.017771e-57 3.010662e-59 -9.847071e-61 2.284569e-62 -5.634072e-64 9.766560e-66 -1.655092e-67 1.612190e-69 -3.470750e-72 -4.274074e-73 1.398802e-74 -2.716632e-76 4.574477e-78 -5.697945e-80 8.298904e-82 3.081694e-81 5.285013e-80 9.037145e-79 1.382667e-77 2.170693e-76 2.941634e-75 4.202279e-74 4.962570e-73 6.429642e-72 6.561877e-71 7.728826e-70 6.870570e-69 7.313336e-68 5.718103e-67 5.392852e-66 3.529651e-65 
7.683490e-63 3.579058e-62 3.125625e-61 1.031014e-60 8.134176e-60 1.685597e-59 1.126000e-58 1.258540e-58 5.917047e-58 3.325358e-58 6.464004e-58 2.168944e-58 1.454191e-58 4.654551e-59 4.235509e-58 1.058654e-57 1.237017e-55 7.169272e-56 2.267166e-53 -2.887655e-54 2.249485e-51 -9.280742e-52 1.237258e-49 -1.204054e-49 4.956818e-48 -6.942084e-48 1.497423e-46 -1.311953e-46 2.099436e-45 -5.521757e-46 9.307284e-45 6.887063e-46 9.301369e-45 1.604956e-45 1.289088e-45 -2.613992e-46 2.233494e-45 -5.880545e-44 8.558848e-43 -2.004784e-41 1.853485e-40 -3.568810e-39 1.248223e-38 5.732713e-37 3.674305e-36 2.017007e-34 -1.515399e-32 -4.942913e-31 -1.915384e-29 -2.764479e-28 -4.727953e-27 -2.986267e-26 -2.500513e-25 -7.156674e-25 -1.194877e-25 -1.052227e-25 1.019404e-24 -2.001803e-23 3.435564e-22 -1.935589e-21 8.292181e-21 -2.136225e-20 4.232810e-20 -1.901219e-20 -4.082606e-21 8.576794e-23 1.059688e-23 -7.961673e-24 3.186560e-24 -6.979767e-25 1.107990e-25 -4.982066e-27 1.717573e-28 -2.137320e-29 -1.195159e-28 -7.397862e-28 -2.250399e-28 -2.404244e-29 -3.430433e-30 -1.832192e-31 -1.171990e-32 -2.763558e-34 -7.524215e-36 2.251206e-37 4.459736e-39 8.306847e-40 -3.131216e-42 6.076662e-43 6.150211e-46 -6.203325e-46 3.053731e-47 -1.695061e-48 4.135396e-50 -9.780430e-52 -4.425587e-54 1.464072e-54 -7.995298e-56 3.740786e-57 -1.248385e-58 4.223861e-60 -1.123003e-61 3.041722e-63 -6.687370e-65 1.476225e-66 -2.675881e-68 4.788211e-70 -7.047374e-72 1.007528e-73 -1.178375e-75 1.316937e-77 -1.186062e-79 2.828597e-81 3.643206e-80 6.689075e-79 1.238786e-77 2.048402e-76 3.462101e-75 5.039655e-74 7.673730e-73 9.643051e-72 1.316320e-70 1.408641e-69 1.730705e-68 1.561080e-67 1.742947e-66 1.306326e-65 1.338966e-64 8.112978e-64 
1.887402e-61 8.896570e-61 7.611585e-60 2.532640e-59 1.913440e-58 4.000713e-58 2.495934e-57 2.800518e-57 1.203648e-56 6.602924e-57 1.141169e-56 3.508628e-57 2.027733e-57 7.091549e-58 9.013921e-57 4.866140e-56 2.411811e-54 7.239092e-54 3.982705e-52 6.249988e-52 3.618400e-50 2.562946e-50 1.883907e-48 -1.681059e-49 7.517756e-47 -4.635599e-47 2.281922e-45 -9.659866e-46 3.215944e-44 -3.056580e-45 1.471561e-43 1.677897e-44 1.630746e-43 3.424936e-44 3.527550e-44 1.052777e-44 -6.400233e-45 2.555809e-43 -4.040345e-42 8.392860e-41 -6.999847e-40 -2.369558e-39 1.872148e-37 -1.634611e-35 3.690661e-35 -6.057825e-33 -5.531732e-32 -1.978589e-30 -6.970536e-29 -9.510713e-28 -1.641915e-26 -9.824142e-26 -8.294577e-25 -2.084907e-24 -3.062401e-25 -7.416887e-25 6.089016e-24 1.377452e-22 -1.709477e-21 7.170262e-21 -2.562042e-20 6.266266e-20 -1.393163e-19 6.222502e-20 1.122124e-20 3.601318e-22 -7.736482e-23 2.977125e-23 -1.218270e-23 3.196317e-24 -6.992238e-25 6.168260e-26 2.392736e-27 -2.562209e-28 -3.562210e-28 -2.527017e-27 -8.595955e-28 -8.967048e-29 -1.331914e-29 -6.944770e-31 -4.647251e-32 -1.309371e-33 -3.513846e-35 -4.432722e-36 2.690833e-38 -1.260740e-38 2.110466e-40 -1.514634e-41 2.179453e-43 -4.307143e-45 -8.766816e-47 9.035614e-48 -3.122595e-49 1.076046e-50 -1.968132e-52 2.265962e-54 6.842054e-56 -5.498510e-57 2.028656e-58 -6.717341e-60 1.644085e-61 -3.990586e-63 7.644309e-65 -1.462127e-66 2.261232e-68 -3.463705e-70 4.326511e-72 -5.282709e-74 5.244996e-76 -5.003155e-78 3.907387e-80 1.851555e-80 4.077693e-79 8.178978e-78 1.640580e-76 2.946120e-75 5.353468e-74 8.387391e-73 1.359269e-71 1.818192e-70 2.610937e-69 2.939516e-68 3.753752e-67 3.521632e-66 4.036841e-65 3.113239e-64 3.233462e-63 1.996782e-62 
4.316956e-60 2.060742e-59 1.727150e-58 5.808410e-58 4.206658e-57 8.896219e-57 5.199129e-56 5.873826e-56 2.320583e-55 1.248439e-55 1.935171e-55 5.433546e-56 2.710687e-56 1.158459e-56 1.848364e-55 1.413526e-54 4.510647e-53 2.219065e-52 6.713482e-51 2.008391e-50 5.576750e-49 9.665791e-49 2.760731e-47 2.295857e-47 1.098833e-45 2.567622e-46 3.289852e-44 2.264806e-45 4.526775e-43 4.400172e-44 2.029780e-42 3.190162e-43 2.156719e-42 3.888630e-43 3.653373e-43 1.821866e-44 3.265865e-44 -7.579276e-43 1.164747e-41 -8.318303e-41 -3.694418e-39 2.911677e-37 -6.356162e-36 2.346755e-34 -2.203193e-33 6.761843e-32 -1.712394e-31 5.370221e-30 -3.874733e-29 -6.625796e-28 -1.828652e-26 -1.261574e-25 -1.398870e-24 -4.289876e-24 -1.027879e-24 1.524050e-23 -2.538358e-23 5.261718e-22 3.330386e-21 -1.469154e-20 4.680788e-20 -1.276082e-19 3.779046e-19 -1.798632e-19 -2.586915e-20 -2.717935e-21 7.092245e-23 -5.913814e-23 2.714155e-23 -8.198550e-24 9.596372e-25 3.508094e-25 -1.037879e-26 5.986148e-27 -5.966132e-28 -6.096328e-27 -1.675186e-27 -1.339455e-28 -1.712453e-29 -5.431825e-31 -2.882932e-32 4.705768e-33 -1.303425e-34 5.026480e-35 -1.566776e-36 1.622043e-37 -4.526149e-39 2.285621e-40 -4.982253e-42 1.417380e-43 -1.821708e-45 8.125770e-48 8.906621e-49 -4.332827e-50 1.136206e-51 -2.507038e-53 3.247816e-55 -7.158913e-58 -1.415604e-58 5.895038e-60 -1.538511e-61 3.383124e-63 -5.980259e-65 9.571470e-67 -1.280671e-68 1.563124e-70 -1.614844e-72 1.511138e-74 -1.200520e-76 8.498875e-79 2.203563e-81 1.745629e-79 4.180780e-78 9.172969e-77 2.015350e-75 3.931217e-74 7.740632e-73 1.303929e-71 2.259718e-70 3.210510e-69 4.861203e-68 5.741807e-67 7.627241e-66 7.422159e-65 8.735683e-64 6.918252e-63 7.278831e-62 4.577815e-61 
9.550932e-59 4.607763e-58 3.790962e-57 1.285744e-56 8.964569e-56 1.912630e-55 1.054375e-54 1.197465e-54 4.388115e-54 2.321747e-54 3.264740e-54 8.360848e-55 3.621059e-55 2.043579e-55 3.687268e-54 3.326148e-53 8.223520e-52 5.054790e-51 1.109455e-49 4.408824e-49 8.483127e-48 2.144113e-47 4.050942e-46 6.627404e-46 1.625153e-44 1.579869e-44 4.801081e-43 2.361094e-43 6.503672e-42 1.731768e-42 2.945221e-41 6.023246e-42 3.322343e-41 7.019012e-42 7.029967e-42 1.694014e-42 4.545399e-43 6.923093e-43 2.214841e-41 -2.263815e-39 8.857493e-38 -3.638665e-36 8.106757e-35 -2.311905e-33 3.000656e-32 -6.153131e-31 3.650078e-30 -5.376614e-29 5.175418e-29 -4.713930e-28 -1.136118e-27 -8.196240e-26 -8.912474e-25 -6.979592e-24 8.837139e-24 -9.647558e-23 -4.914517e-22 2.410447e-21 -1.015999e-20 1.663509e-20 -4.428332e-20 1.511476e-19 -8.564909e-19 4.256932e-19 5.101746e-20 8.801643e-21 8.610796e-22 1.500730e-22 -6.158296e-23 2.255726e-23 -9.319306e-24 1.411478e-24 -2.360051e-25 -4.151877e-26 3.603779e-27 -1.131948e-26 -1.110618e-27 -1.076232e-28 -2.114261e-30 -6.153615e-31 5.402417e-32 -4.968686e-32 3.069993e-33 -4.793866e-34 2.193482e-35 -1.599983e-36 5.404477e-38 -2.376010e-39 5.977201e-41 -1.737682e-42 3.168032e-44 -5.875554e-46 5.930235e-48 -7.670380e-51 -1.948962e-51 6.701298e-53 -1.358286e-54 2.340604e-56 -2.818262e-58 2.611767e-60 -4.696975e-63 -3.406542e-64 8.742971e-66 -1.439255e-67 1.827318e-69 -1.994683e-71 1.827200e-73 -1.477395e-75 1.015388e-77 -5.860687e-80 6.002782e-80 1.585884e-78 4.174475e-77 1.009560e-75 2.421518e-74 5.158988e-73 1.097492e-71 1.993627e-70 3.683597e-69 5.562109e-68 8.854924e-67 1.096100e-65 1.511122e-64 1.522238e-63 1.836837e-62 1.490403e-61 1.587572e-60 1.014628e-59 
1.995638e-57 9.731888e-57 7.861068e-56 2.692028e-55 1.809062e-54 3.900924e-54 2.034138e-53 2.329147e-53 7.954145e-53 4.164120e-53 5.363158e-53 1.253659e-53 4.770325e-54 3.722916e-54 6.919413e-53 6.941426e-52 1.413316e-50 9.997341e-50 1.736203e-48 8.274907e-48 1.229152e-46 3.996923e-46 5.716395e-45 1.396316e-44 2.306703e-43 3.910165e-43 6.635994e-42 6.063417e-42 8.694703e-41 3.851066e-41 3.845022e-40 9.422899e-41 4.200257e-40 7.833704e-41 7.671410e-41 9.754265e-42 2.670730e-42 7.279847e-42 -4.021262e-40 1.918221e-38 -7.018221e-37 2.401778e-35 -6.095190e-34 1.492605e-32 -2.477237e-31 4.148800e-30 -3.893830e-29 4.047609e-28 -1.268032e-27 4.539065e-27 5.511332e-26 -4.887977e-25 1.806181e-24 -9.806459e-24 -3.025412e-24 3.501757e-23 5.553099e-22 -1.102901e-21 -1.378073e-21 1.041183e-20 -3.001413e-20 1.010542e-19 1.659573e-18 -9.217159e-19 -9.125439e-20 -2.246833e-20 -4.761364e-21 -9.542496e-22 6.121323e-23 -1.468005e-23 8.083082e-24 -2.456442e-24 4.823328e-25 1.134507e-26 -1.959196e-26 -1.882287e-26 3.599106e-27 -7.511192e-28 7.288526e-29 7.379443e-30 -1.513281e-30 4.094489e-31 -3.539076e-32 3.452817e-33 -1.910358e-34 1.076435e-35 -4.137669e-37 1.543713e-38 -4.308647e-40 1.134363e-41 -2.347701e-43 4.471765e-45 -6.821159e-47 9.232981e-49 -9.671102e-51 7.927029e-53 -2.984886e-55 -3.043704e-57 8.582071e-59 -1.103918e-60 1.001362e-62 -6.454415e-65 1.424274e-67 2.163185e-69 -5.385909e-71 5.553686e-73 -5.754606e-75 3.770982e-77 -3.176929e-79 1.485786e-80 4.432100e-79 1.305704e-77 3.849985e-76 1.027734e-74 2.731450e-73 6.356421e-72 1.476045e-70 2.886594e-69 5.721512e-68 9.153149e-67 1.537017e-65 1.986467e-64 2.846506e-63 2.958085e-62 3.661565e-61 3.036257e-60 3.274553e-59 2.124142e-58 
4.060054e-56 1.998813e-55 1.586736e-54 5.479511e-54 3.559614e-53 7.747941e-53 3.841176e-52 4.435487e-52 1.420933e-51 7.403953e-52 8.821681e-52 1.895058e-52 6.436421e-53 6.738243e-53 1.237744e-51 1.305255e-50 2.326871e-49 1.766295e-48 2.623573e-47 1.383152e-46 1.739354e-45 6.616632e-45 7.996654e-44 2.481777e-43 3.260541e-42 7.366275e-42 9.167886e-41 1.147396e-40 1.175243e-39 6.999076e-40 5.204503e-39 1.522511e-39 5.881454e-39 1.211038e-39 1.173453e-39 2.445979e-40 6.536728e-41 -1.881311e-41 1.521587e-39 -6.672171e-38 2.457253e-36 -8.139741e-35 2.205804e-33 -5.306938e-32 1.003777e-30 -1.652585e-29 2.012771e-28 -2.079335e-27 1.440523e-26 -8.335053e-26 2.725974e-25 -9.959734e-25 1.797345e-24 -1.502658e-23 4.616114e-23 1.410057e-22 -6.592638e-22 2.065935e-23 -2.015204e-22 3.181580e-21 -3.545260e-20 -5.196543e-19 -2.836000e-18 1.623504e-18 1.461598e-19 4.073670e-20 1.197867e-20 3.117542e-21 5.223579e-22 2.750514e-23 -1.231441e-25 1.635755e-24 -1.672324e-24 3.981800e-25 1.077142e-25 -3.603808e-26 5.981959e-27 -2.461479e-27 5.498948e-28 -1.289602e-28 1.850508e-29 -2.312313e-30 1.991865e-31 -1.489520e-32 8.322731e-34 -4.094951e-35 1.587964e-36 -5.492144e-38 1.551372e-39 -3.938933e-41 8.343466e-43 -1.591423e-44 2.560498e-46 -3.702870e-48 4.544386e-50 -4.997911e-52 4.679433e-54 -3.907259e-56 2.772331e-58 -1.737956e-60 9.183436e-63 -4.248485e-65 1.672459e-67 -6.556746e-70 7.521991e-73 -4.335107e-74 -1.508877e-75 -2.421845e-77 -8.831408e-79 7.898686e-80 3.251168e-78 1.071207e-76 3.512027e-75 1.043749e-73 3.057120e-72 7.820461e-71 1.972572e-69 4.166652e-68 8.815631e-67 1.495072e-65 2.635982e-64 3.553290e-63 5.272615e-62 5.643016e-61 7.145696e-60 6.045303e-59 6.589649e-58 4.332309e-57 
7.891579e-55 3.920417e-54 3.060032e-53 1.066115e-52 6.704590e-52 1.474749e-51 6.970674e-51 8.137300e-51 2.455907e-50 1.281728e-50 1.426194e-50 2.833337e-51 8.792862e-52 1.178441e-51 2.073406e-50 2.265722e-49 3.600056e-48 2.876321e-47 3.747356e-46 2.135741e-45 2.347435e-44 1.017105e-43 1.076165e-42 4.031258e-42 4.414175e-41 1.230088e-40 1.206251e-39 1.903194e-39 1.502528e-38 1.122626e-38 6.554619e-38 2.151153e-38 7.304680e-38 1.330823e-38 1.325248e-38 1.906264e-39 4.835241e-40 1.650435e-41 1.055353e-39 -4.459143e-38 1.638213e-36 -4.543296e-35 1.022104e-33 -1.623689e-32 1.520445e-31 -7.379615e-32 -3.721675e-29 5.983652e-28 -8.009396e-27 5.107684e-26 -3.360570e-25 1.068673e-24 -5.190423e-24 1.450556e-23 3.709602e-23 -5.276781e-23 -6.240708e-22 -9.004539e-22 -6.981652e-22 4.617114e-21 1.073307e-19 9.206805e-19 5.305696e-18 -2.758749e-18 -2.383295e-19 -6.771288e-20 -2.132503e-20 -5.931526e-21 -1.483956e-21 -2.339446e-22 1.977239e-23 3.294709e-24 -1.928377e-24 3.529922e-26 8.698737e-26 2.545599e-26 -9.322756e-27 1.750713e-27 -4.947492e-28 6.581618e-29 -9.262701e-30 6.499732e-31 -4.016170e-32 4.608155e-34 8.189047e-35 -9.999623e-36 6.208179e-37 -2.692795e-38 9.374904e-40 -2.470370e-41 5.598115e-43 -9.807913e-45 1.516253e-46 -1.826245e-48 1.965849e-50 -1.650952e-52 1.246242e-54 -7.313896e-57 3.842851e-59 -1.555208e-61 5.247727e-64 -1.764258e-66 -3.035277e-68 -6.653312e-70 -3.494917e-71 -7.580348e-73 -2.747441e-74 -5.762350e-76 -1.620566e-77 2.311093e-79 2.176460e-77 8.000756e-76 2.988200e-74 9.901025e-73 3.256523e-71 9.154816e-70 2.539716e-68 5.777534e-67 1.314019e-65 2.351202e-64 4.368413e-63 6.110172e-62 9.406337e-61 1.032199e-59 1.338270e-58 1.151460e-57 1.268957e-56 8.440732e-56 
1.501832e-53 7.524335e-53 5.774724e-52 2.028832e-51 1.237424e-50 2.750109e-50 1.243774e-49 1.470100e-49 4.199064e-49 2.211541e-49 2.315357e-49 4.316899e-50 1.248749e-50 1.955795e-50 3.289507e-49 3.633071e-48 5.303711e-47 4.332679e-46 5.139750e-45 3.066538e-44 3.079473e-43 1.461534e-42 1.422774e-41 6.042039e-41 5.881341e-40 1.870833e-39 1.573934e-38 2.895236e-38 1.931875e-37 1.709640e-37 8.492603e-37 3.188299e-37 9.779023e-37 1.861842e-37 1.839460e-37 3.114270e-38 6.996490e-39 1.043206e-39 9.090145e-40 -2.609337e-38 7.708955e-37 -1.773552e-35 3.141462e-34 -4.311761e-33 4.023399e-32 -3.219006e-31 3.519969e-30 -5.994238e-29 1.108047e-27 -8.307608e-27 7.917513e-26 -1.949476e-25 2.107286e-24 -3.373936e-24 5.320418e-24 7.935303e-23 -1.504755e-21 -2.618097e-21 -9.838445e-21 -3.113697e-20 -3.036381e-19 -1.821812e-18 -9.636095e-18 4.685650e-18 3.811756e-19 1.137345e-19 3.966627e-20 1.188525e-20 4.087577e-21 1.019711e-21 2.335864e-22 8.348898e-24 -6.490136e-24 4.752933e-25 -2.326709e-26 -1.810879e-26 4.187227e-27 -3.004997e-28 1.050204e-28 -9.988328e-30 1.221317e-30 -6.142557e-32 3.137232e-33 -1.995584e-34 2.235402e-35 -2.311792e-36 1.581044e-37 -7.887151e-39 2.981180e-40 -8.477347e-42 1.950136e-43 -3.430605e-45 5.029621e-47 -5.667245e-49 5.401630e-51 -3.943587e-53 2.449267e-55 -1.151653e-57 4.449570e-60 -1.611891e-62 -2.479641e-64 -7.962911e-66 -4.368631e-67 -1.268716e-68 -5.000516e-70 -1.341367e-71 -4.182400e-73 -1.002049e-74 -2.592908e-76 -2.119491e-78 1.496185e-76 6.112058e-75 2.571258e-73 9.572299e-72 3.506568e-70 1.090149e-68 3.300948e-67 8.108587e-66 1.967473e-64 3.713339e-63 7.222516e-62 1.046696e-60 1.662929e-59 1.868082e-58 2.469857e-57 2.158632e-56 2.398229e-55 1.612647e-54 
2.757311e-52 1.391715e-51 1.051119e-50 3.723189e-50 2.206249e-49 4.956565e-49 2.151236e-48 2.579038e-48 7.000442e-48 3.741278e-48 3.715843e-48 6.571506e-49 1.813279e-49 3.075554e-49 4.904393e-48 5.461241e-47 7.372590e-46 6.134940e-45 6.695405e-44 4.163442e-43 3.874106e-42 1.999434e-41 1.813880e-40 8.572645e-40 7.534778e-39 2.676292e-38 1.976988e-37 4.140165e-37 2.395599e-36 2.446009e-36 1.059391e-35 4.365896e-36 1.243848e-35 2.092918e-36 2.267314e-36 2.745158e-37 5.883642e-38 5.516805e-39 -9.781749e-40 6.427472e-38 -1.378362e-36 1.862217e-35 -1.272350e-34 4.890563e-34 2.693095e-33 -2.166406e-32 -3.296292e-32 2.195847e-30 -7.653519e-29 6.475403e-28 -9.817853e-27 2.332498e-26 -5.093906e-25 1.108514e-24 2.412849e-24 7.024982e-23 -6.500989e-22 -1.609361e-21 -1.739417e-20 -7.214887e-20 -4.602615e-20 1.968144e-18 1.841642e-17 -7.565311e-18 -6.077055e-19 -1.769359e-19 -6.021394e-20 -1.777117e-20 -6.072787e-21 -1.674821e-21 -5.945272e-22 -1.097092e-22 -2.443523e-23 1.412973e-24 1.223790e-26 5.220213e-27 -1.156856e-27 3.988235e-29 -1.262337e-29 7.695853e-31 -8.541011e-32 2.798256e-33 -1.202867e-34 -1.031601e-35 2.242198e-36 -2.979922e-37 2.262188e-38 -1.184024e-39 4.691227e-41 -1.287891e-42 2.938525e-44 -4.635683e-46 6.356550e-48 -5.955312e-50 4.971964e-52 -2.771076e-54 1.349902e-56 -6.076016e-59 -1.172893e-60 -5.935146e-62 -3.066269e-63 -1.284561e-64 -5.177142e-66 -1.876482e-67 -6.234872e-69 -1.934085e-70 -5.438227e-72 -1.448589e-73 -3.505060e-75 -6.162048e-77 9.751376e-76 4.273207e-74 2.093243e-72 8.748886e-71 3.654979e-69 1.254867e-67 4.206946e-66 1.110129e-64 2.894587e-63 5.720824e-62 1.169170e-60 1.743398e-59 2.864031e-58 3.275651e-57 4.420566e-56 3.909646e-55 4.380800e-54 2.971198e-53 
4.980199e-51 2.532496e-50 1.880697e-49 6.718100e-49 3.870848e-48 8.797300e-48 3.672442e-47 4.476733e-47 1.158034e-46 6.330651e-47 5.991669e-47 1.025335e-47 2.729972e-48 4.547429e-48 6.919326e-47 7.670510e-46 9.752133e-45 8.153153e-44 8.369665e-43 5.344438e-42 4.728468e-41 2.598847e-40 2.256597e-39 1.149682e-38 9.444349e-38 3.626248e-37 2.455444e-36 5.684959e-36 2.984039e-35 3.461053e-35 1.357444e-34 6.363859e-35 1.690265e-34 2.928103e-35 3.293055e-35 3.933614e-36 7.587682e-37 9.013275e-38 3.700892e-38 -5.358473e-37 1.157838e-35 -1.540557e-34 1.160171e-33 -6.995488e-33 1.210997e-32 -4.280991e-32 -1.746273e-32 -7.658738e-32 3.356805e-30 -4.198277e-29 7.032312e-28 -2.868890e-27 5.290901e-26 -1.334383e-25 3.127886e-25 -1.745107e-23 1.047034e-21 1.001811e-20 1.174797e-19 4.828942e-19 1.675890e-18 1.229067e-18 -3.750304e-17 1.251628e-17 1.011129e-18 2.813031e-19 9.079563e-20 2.484297e-20 7.558107e-21 1.712683e-21 4.859430e-22 6.758291e-23 7.200930e-24 -1.145818e-25 1.050239e-27 -6.543755e-28 1.335051e-28 -5.280721e-30 9.099907e-31 -4.741177e-32 3.374820e-33 -1.847949e-35 -1.112682e-35 2.839115e-37 8.824087e-38 -2.279507e-38 1.981500e-39 -1.160408e-40 4.720110e-42 -1.324362e-43 2.932441e-45 -4.450437e-47 5.614422e-49 -4.757388e-51 3.350095e-53 -2.009607e-55 -2.853049e-57 -2.193665e-58 -1.190907e-59 -6.562447e-61 -2.913711e-62 -1.337349e-63 -5.020779e-65 -1.924760e-66 -6.185769e-68 -2.000548e-69 -5.547021e-71 -1.529611e-72 -3.687571e-74 -7.617392e-76 7.221562e-75 3.137779e-73 1.781841e-71 8.370440e-70 3.945182e-68 1.502675e-66 5.514167e-65 1.563842e-63 4.334637e-62 8.952923e-61 1.905705e-59 2.917665e-58 4.922043e-57 5.723166e-56 7.841419e-55 7.012613e-54 7.893895e-53 5.398675e-52 
8.751067e-50 4.475973e-49 3.272303e-48 1.177839e-47 6.612744e-47 1.520117e-46 6.123026e-46 7.596753e-46 1.880484e-45 1.055874e-45 9.588499e-46 1.607211e-46 4.189588e-47 6.375010e-47 9.232688e-46 1.020357e-44 1.225701e-43 1.030812e-42 1.001256e-41 6.573330e-41 5.573595e-40 3.255172e-39 2.720219e-38 1.482931e-37 1.147924e-36 4.730928e-36 2.975928e-35 7.550037e-35 3.657846e-34 4.760048e-34 1.728216e-33 9.020750e-34 2.309796e-33 3.724568e-34 4.877579e-34 3.976812e-35 7.978930e-36 6.411670e-37 5.423070e-38 4.168407e-36 -9.215033e-35 1.165876e-33 -7.758280e-33 4.821266e-32 -6.109565e-32 2.607022e-31 9.557337e-32 4.636638e-32 9.254381e-32 1.291279e-30 -3.719963e-29 2.326727e-28 -3.801940e-27 1.429971e-26 4.211252e-25 7.765611e-24 -2.908344e-22 -1.187205e-20 -2.283196e-19 -8.929347e-19 -4.608861e-18 -1.547342e-17 7.806681e-17 -2.061034e-17 -1.727369e-18 -4.485374e-19 -1.353839e-19 -3.413944e-20 -9.323487e-21 -1.847260e-21 -3.976806e-22 -2.717512e-23 -8.743105e-25 2.259925e-26 1.065708e-27 4.849524e-29 -8.866625e-30 4.427943e-31 -5.619302e-32 2.407604e-33 -1.883741e-34 1.404112e-35 -1.812291e-36 1.166556e-37 -3.025195e-39 -1.086327e-39 1.098675e-40 -7.115100e-42 2.896761e-43 -7.819252e-45 1.648418e-46 -2.233294e-48 2.528285e-50 -3.001656e-52 -2.611397e-54 -5.904567e-55 -2.408025e-56 -2.125989e-57 -8.917983e-59 -5.693592e-60 -2.211936e-61 -1.111231e-62 -3.857874e-64 -1.583613e-65 -4.846104e-67 -1.660467e-68 -4.460764e-70 -1.294737e-71 -3.056271e-73 -7.235452e-75 5.913932e-74 2.040980e-72 1.474479e-70 7.669965e-69 4.214317e-67 1.773152e-65 7.231863e-64 2.183937e-62 6.478917e-61 1.383754e-59 3.078233e-58 4.796746e-57 8.324269e-56 9.777752e-55 1.361293e-53 1.225662e-52 1.386780e-51 9.536921e-51 
1.519003e-48 7.819616e-48 5.618512e-47 2.039748e-46 1.115697e-45 2.598209e-45 1.010913e-44 1.280620e-44 3.037610e-44 1.765739e-44 1.541412e-44 2.586454e-45 6.615075e-46 8.420961e-46 1.167349e-44 1.277775e-43 1.468164e-42 1.234088e-41 1.150905e-40 7.713117e-40 6.367516e-39 3.901834e-38 3.186816e-37 1.828777e-36 1.362391e-35 5.948242e-35 3.565266e-34 9.823689e-34 4.506542e-33 6.600508e-33 2.260994e-32 1.374702e-32 3.361216e-32 6.021388e-33 8.372601e-33 6.112700e-34 1.262329e-34 1.051944e-35 4.378020e-36 -4.071254e-35 8.313762e-34 -9.982105e-33 5.231339e-32 -3.502895e-31 2.773120e-31 -1.611587e-30 -7.262421e-31 -2.943459e-31 -9.210002e-31 1.098424e-30 -1.453231e-29 9.281824e-29 -1.165776e-27 3.503610e-27 1.555310e-25 -1.222570e-24 1.366483e-22 6.970350e-21 -1.792104e-19 -1.353789e-18 2.974806e-18 7.209239e-17 -1.703721e-16 3.537599e-17 3.140789e-18 7.544564e-19 2.061373e-19 4.646139e-20 1.058935e-20 1.666094e-21 2.400753e-22 1.083157e-23 5.248390e-26 -1.138125e-28 9.939239e-29 7.130511e-32 2.627728e-31 -2.972265e-32 4.008591e-33 -1.939736e-34 1.008061e-35 3.060343e-37 -9.544716e-38 8.820500e-39 -4.342059e-40 -3.534479e-41 4.533115e-42 -3.225504e-43 1.322688e-44 -3.643391e-46 7.580148e-48 -2.002032e-49 -5.640505e-53 -6.269995e-52 -2.112002e-53 -2.912911e-54 -1.232090e-55 -1.048404e-56 -4.430057e-58 -2.797527e-59 -1.094486e-60 -5.496538e-62 -1.929207e-63 -7.969695e-65 -2.475421e-66 -8.577719e-68 -2.345729e-69 -6.909144e-71 -1.661759e-72 -4.790208e-74 6.537176e-73 1.259113e-71 1.348487e-69 7.564272e-68 4.806201e-66 2.233463e-64 9.957779e-63 3.189296e-61 9.981271e-60 2.194975e-58 5.046546e-57 7.983654e-56 1.413020e-54 1.674810e-53 2.353617e-52 2.133023e-51 2.413837e-50 1.669722e-49 
2.584021e-47 1.335892e-46 9.448438e-46 3.454819e-45 1.845613e-44 4.350846e-44 1.640882e-43 2.122759e-43 4.845415e-43 2.923225e-43 2.467898e-43 4.191919e-44 1.061865e-44 1.061527e-44 1.405992e-43 1.528285e-42 1.684098e-41 1.418869e-40 1.276507e-39 8.755737e-39 7.075490e-38 4.544936e-37 3.641148e-36 2.193768e-35 1.583801e-34 7.311109e-34 4.224257e-33 1.259137e-32 5.561025e-32 9.103848e-32 3.012486e-31 2.113681e-31 5.110824e-31 9.986848e-32 1.584847e-31 7.818769e-33 2.539653e-33 1.259207e-34 2.817924e-35 4.269193e-34 -7.114118e-33 9.459718e-32 -3.244551e-31 2.912963e-30 -9.275137e-31 1.233989e-29 5.522520e-30 3.236499e-30 5.201123e-30 -4.070876e-30 6.403214e-30 -1.055458e-28 4.127162e-27 -4.375732e-26 -5.740469e-25 -8.601512e-24 8.839403e-22 7.766374e-20 3.045838e-18 1.671435e-17 4.330945e-17 -2.510411e-16 3.809851e-16 -6.211591e-17 -5.994018e-18 -1.316139e-18 -3.321760e-19 -6.789493e-20 -1.393009e-20 -1.946822e-21 -2.428812e-22 -1.044048e-23 -2.153554e-25 -1.337066e-27 -2.849247e-29 -1.397950e-30 1.151072e-31 -1.230629e-33 -8.735851e-35 9.571806e-36 -9.290115e-37 4.263154e-38 -2.089228e-39 8.352507e-41 1.622175e-41 -3.777142e-42 3.655679e-43 -2.756586e-44 1.333319e-45 -1.074042e-46 2.140548e-48 -5.468345e-49 -6.517470e-51 -2.794609e-51 -8.738137e-53 -1.193628e-53 -4.626361e-55 -3.998991e-56 -1.583106e-57 -1.022442e-58 -3.825466e-60 -1.974282e-61 -6.736857e-63 -2.871570e-64 -8.781840e-66 -3.149710e-67 -8.560593e-69 -2.614942e-70 -6.272786e-72 -4.081744e-73 8.898864e-72 1.769924e-71 1.275583e-68 7.175814e-67 5.583319e-65 2.833913e-63 1.402482e-61 4.687966e-60 1.556948e-58 3.476464e-57 8.283767e-56 1.317222e-54 2.380816e-53 2.827911e-52 4.014133e-51 3.644348e-50 4.127311e-49 2.862332e-48 
4.357474e-46 2.265099e-45 1.573114e-44 5.802892e-44 3.024449e-43 7.234337e-43 2.644601e-42 3.507266e-42 7.704443e-42 4.860921e-42 3.968902e-42 6.967846e-43 1.745331e-43 1.269160e-43 1.607803e-42 1.730521e-41 1.845006e-40 1.554463e-39 1.362632e-38 9.534106e-38 7.612161e-37 5.085136e-36 4.033168e-35 2.532660e-34 1.796307e-33 8.739313e-33 4.944853e-32 1.596230e-31 6.889101e-31 1.274766e-30 4.111107e-30 3.474754e-30 8.187697e-30 2.077297e-30 3.336962e-30 1.681998e-31 8.257107e-32 3.977967e-33 9.582552e-34 -6.128723e-33 6.407122e-32 -9.715312e-31 1.652478e-30 -2.408690e-29 -4.156151e-30 -8.579614e-29 -5.971926e-29 -2.027854e-29 -5.514162e-29 1.177148e-29 -1.457870e-29 -3.228028e-29 -3.871173e-27 3.218399e-26 -1.590507e-25 -4.181056e-23 -8.261201e-21 -6.667089e-19 -1.347805e-17 -8.301617e-17 -3.209476e-16 8.462922e-16 -8.824953e-16 1.155253e-16 1.220407e-17 2.464996e-18 5.580353e-19 1.034892e-19 1.815806e-20 2.257512e-21 2.253711e-22 1.185055e-23 2.190691e-25 3.692056e-27 -3.787386e-29 -2.110652e-30 1.215002e-31 2.477164e-34 -9.107785e-35 3.260741e-36 -1.702897e-37 -1.328733e-39 9.605840e-40 -1.359015e-40 1.694444e-41 -1.785268e-42 1.428107e-43 -1.436752e-44 6.298547e-46 -9.161177e-47 8.104259e-49 -5.309367e-49 -1.060146e-50 -2.732926e-51 -9.935308e-53 -1.175737e-53 -4.974234e-55 -4.040695e-56 -1.715004e-57 -1.083307e-58 -4.327194e-60 -2.239554e-61 -8.159862e-63 -3.547418e-64 -1.159243e-65 -4.288338e-67 -1.245007e-68 -3.949024e-70 -9.728799e-72 -6.113990e-72 1.438247e-70 -1.297171e-69 1.444737e-67 7.460314e-66 7.171069e-64 3.938345e-62 2.114344e-60 7.300109e-59 2.526720e-57 5.696573e-56 1.387944e-54 2.213689e-53 4.044208e-52 4.812103e-51 6.845335e-50 6.228474e-49 7.018060e-48 4.883900e-47 
7.247593e-45 3.777880e-44 2.581308e-43 9.587215e-43 4.888851e-42 1.184960e-41 4.214832e-41 5.726914e-41 1.216141e-40 8.032001e-41 6.380035e-41 1.167289e-41 2.914715e-42 1.463824e-42 1.763603e-41 1.884974e-40 1.950348e-39 1.648416e-38 1.414516e-37 1.011921e-36 8.016649e-36 5.565182e-35 4.386135e-34 2.868743e-33 2.013740e-32 1.031906e-31 5.785482e-31 2.016407e-30 8.652284e-30 1.797857e-29 5.794251e-29 5.843148e-29 1.391309e-28 4.588891e-29 7.807214e-29 4.238813e-30 3.651036e-30 1.118341e-31 9.010639e-33 1.091561e-31 -3.045870e-31 1.107321e-29 -1.690115e-30 2.344977e-28 1.163270e-28 7.981662e-28 5.628771e-28 2.890592e-28 4.045872e-28 -6.962932e-29 1.930157e-28 -5.727272e-29 3.310722e-27 9.794349e-25 2.013965e-23 1.524044e-21 9.672406e-20 3.164270e-18 5.462538e-17 2.800015e-16 1.589114e-15 -2.650664e-15 2.114034e-15 -2.251550e-16 -2.624568e-17 -4.824072e-18 -1.013285e-18 -1.721184e-19 -2.812127e-20 -3.244095e-21 -3.165642e-22 -1.727670e-23 -5.474673e-25 -8.047397e-27 -9.925375e-29 -4.613633e-30 -1.043507e-32 -8.215087e-34 4.057561e-35 -3.826139e-37 2.312557e-38 -3.760892e-39 3.644816e-40 -7.335289e-41 5.624733e-42 -1.048597e-42 4.722664e-44 -1.082767e-44 1.387081e-46 -8.880228e-47 -1.332661e-48 -6.097867e-49 -2.065558e-50 -3.489794e-51 -1.506293e-52 -1.621223e-53 -7.399015e-55 -5.969725e-56 -2.645585e-57 -1.713843e-58 -7.058657e-60 -3.792990e-61 -1.416474e-62 -6.418608e-64 -2.141644e-65 -8.257327e-67 -2.439918e-68 -8.052721e-70 -1.389374e-71 -1.246438e-70 2.487988e-69 -4.113407e-68 1.823564e-66 7.292547e-65 9.714121e-63 5.629675e-61 3.324679e-59 1.157874e-57 4.195186e-56 9.401974e-55 2.346400e-53 3.715776e-52 6.866634e-51 8.127771e-50 1.159269e-48 1.051835e-47 1.179972e-46 8.209514e-46 