# vtk DataFile Version 2.0
Comment goes here
ASCII

DATASET STRUCTURED_POINTS
DIMENSIONS    128   128   1

ORIGIN    0.000   0.000   0.000
SPACING   0.0156250.015625   1.000

POINT_DATA   16384
SCALARS Concentration double
LOOKUP_TABLE default

9.538018e-96 1.707272e-94 4.015069e-93 5.817747e-92 1.186808e-90 1.290073e-89 2.172387e-88 1.551895e-87 1.983236e-86 7.165253e-86 5.957506e-85 7.011880e-85 2.907237e-84 1.991618e-84 6.433490e-84 3.879661e-84 1.181416e-83 6.917157e-84 2.127240e-83 1.263659e-83 4.093885e-83 2.540259e-83 8.943628e-83 5.881456e-83 2.277616e-82 1.537485e-82 6.056008e-82 3.317833e-82 6.217248e-82 7.269358e-83 2.342666e-83 -3.569888e-84 6.080261e-83 4.563722e-84 1.692631e-80 2.367001e-81 1.529564e-78 4.016531e-79 2.513036e-77 4.223341e-78 2.430029e-77 2.459651e-78 2.256366e-79 1.159081e-80 4.104475e-82 2.876072e-83 -7.990602e-82 2.140182e-80 -3.603376e-79 5.750823e-78 -4.852543e-77 3.233454e-76 -7.866126e-76 4.275660e-76 -4.676930e-78 -1.074022e-77 6.039860e-79 -5.461749e-77 3.306121e-75 -8.071502e-74 1.624777e-72 -1.084359e-71 6.203945e-72 -2.011802e-73 -2.616934e-74 1.146109e-75 -6.668023e-77 3.297113e-78 -1.771250e-79 6.280769e-81 -2.067857e-82 3.460969e-84 -4.609321e-86 7.307615e-88 -3.200598e-91 4.093471e-90 -6.329122e-90 1.479524e-90 -1.486495e-91 1.276609e-92 -6.103478e-94 2.841515e-95 -8.512141e-97 2.517515e-98 -5.213350e-100 1.067795e-101 -1.631533e-103 2.487961e-105 -3.008135e-107 3.678317e-109 -3.717558e-111 3.755270e-113 -3.112516e-115 2.489112e-117 -1.584890e-119 9.492290e-122 -4.416031e-124 1.912790e-126 -6.307949e-129 1.930863e-131 -4.398384e-134 9.461464e-137 6.030370e-137 2.079899e-135 9.279518e-134 4.409729e-132 2.324652e-130 1.235266e-128 6.648530e-127 3.473122e-125 1.805563e-123 8.879879e-122 4.358631e-120 1.976599e-118 9.043519e-117 3.734325e-115 1.582692e-113 5.911512e-112 2.318236e-110 7.810733e-109 2.838361e-107 8.610276e-106 2.903362e-104 7.897296e-103 2.468484e-101 5.965248e-100 1.719450e-98 3.628380e-97 
6.530282e-94 1.174189e-92 2.737996e-91 3.961961e-90 7.922361e-89 8.561586e-88 1.395398e-86 9.884371e-86 1.205412e-84 4.317950e-84 3.372452e-83 3.950829e-83 1.523278e-82 1.034133e-82 3.102105e-82 1.849826e-82 5.224175e-82 3.026849e-82 8.626261e-82 5.089350e-82 1.527018e-81 9.474613e-82 3.085688e-81 2.049436e-81 7.321446e-81 5.040671e-81 1.821089e-80 1.000264e-80 1.691490e-80 1.714693e-81 1.542372e-81 -2.121829e-82 3.524136e-81 9.719124e-81 9.254191e-79 1.277709e-78 8.261410e-77 4.899463e-77 1.412250e-75 2.794543e-76 1.565563e-75 1.523126e-76 1.539281e-77 9.555711e-79 5.432748e-80 1.410679e-81 1.701291e-80 -4.628029e-79 7.722643e-78 -1.266553e-76 1.068888e-75 -7.907571e-75 1.996786e-74 -1.871358e-74 3.943382e-76 -1.670398e-75 -1.969832e-76 2.930055e-75 -1.254520e-73 2.600730e-72 -4.646226e-71 2.935363e-70 -1.457084e-70 5.961805e-72 5.369098e-73 -2.166361e-74 1.191053e-75 -6.010403e-77 3.538538e-78 -1.434342e-79 5.813333e-81 -1.220173e-82 2.151998e-84 5.489132e-86 9.505408e-89 -2.286538e-88 2.040738e-88 -4.565506e-89 4.091264e-90 -3.447607e-91 1.583555e-92 -7.342346e-94 2.138477e-95 -6.275186e-97 1.238129e-98 -2.430328e-100 3.281283e-102 -4.296116e-104 3.723255e-106 -2.834038e-108 8.751327e-111 5.564411e-113 -1.369551e-114 1.459196e-116 -1.020094e-118 6.080034e-121 -2.618637e-123 1.026865e-125 -2.907910e-128 7.650695e-131 -1.415621e-133 2.514681e-136 3.575923e-136 2.186947e-134 1.320987e-132 8.114397e-131 4.911361e-129 2.954137e-127 1.748182e-125 1.003476e-123 5.674412e-122 3.035785e-120 1.608877e-118 7.867004e-117 3.853724e-115 1.699086e-113 7.638457e-112 3.015201e-110 1.242335e-108 4.379655e-107 1.656526e-105 5.208719e-104 1.811260e-102 5.062134e-101 1.616686e-99 3.981525e-98 1.161518e-96 2.479050e-95 
4.217470e-92 7.627603e-91 1.760728e-89 2.548377e-88 4.986519e-87 5.366516e-86 8.452506e-85 5.946410e-84 6.911506e-83 2.457928e-82 1.801238e-81 2.102605e-81 7.524766e-81 5.066336e-81 1.408150e-80 8.306496e-81 2.170146e-80 1.244210e-80 3.276697e-80 1.919044e-80 5.315653e-80 3.294623e-80 9.890200e-80 6.623366e-80 2.174199e-79 1.522968e-79 5.022488e-79 2.758353e-79 4.167189e-79 3.955587e-80 8.285086e-80 -1.172528e-80 1.861493e-79 9.491762e-79 4.520074e-77 1.162710e-76 3.843617e-75 3.627870e-75 6.506196e-74 1.502612e-74 7.593860e-74 6.465082e-75 6.822753e-76 4.552369e-77 2.956408e-78 1.330399e-79 -3.328204e-79 8.634928e-78 -1.441293e-76 2.270898e-75 -1.950262e-74 1.468908e-73 -3.961565e-73 5.763213e-73 -1.740520e-74 -1.240706e-73 -3.845738e-74 -1.945565e-74 2.927978e-72 -6.332107e-71 1.024346e-69 -6.643794e-69 2.839992e-69 -1.432224e-70 -8.927530e-72 3.163137e-73 -1.502788e-74 7.610704e-76 -4.598913e-77 2.086898e-78 -8.899849e-80 1.580216e-81 1.075031e-84 4.845719e-84 2.107636e-86 9.280735e-87 -5.263107e-87 1.093806e-87 -9.447573e-89 7.652879e-90 -3.596208e-91 1.644199e-92 -5.013096e-94 1.482351e-95 -3.151397e-97 6.464245e-99 -9.970108e-101 1.475120e-102 -1.681495e-104 1.823917e-106 -1.537870e-108 1.221907e-110 -7.531465e-113 4.331018e-115 -1.911789e-117 7.794963e-120 -2.391413e-122 6.701859e-125 -1.366230e-127 2.508157e-130 -3.158645e-133 4.171937e-136 4.384483e-135 2.976196e-133 2.013336e-131 1.374544e-129 9.287787e-128 6.190705e-126 4.067857e-124 2.573866e-122 1.603977e-120 9.387591e-119 5.430342e-117 2.876637e-115 1.520869e-113 7.183391e-112 3.444141e-110 1.439778e-108 6.253546e-107 2.309482e-105 9.107858e-104 2.970694e-102 1.065938e-100 3.062937e-99 9.992166e-98 2.509792e-96 7.403666e-95 1.599855e-93 
2.638477e-90 4.791412e-89 1.096017e-87 1.583494e-86 3.037031e-85 3.247512e-84 4.954754e-83 3.452938e-82 3.836873e-81 1.350842e-80 9.318491e-80 1.081010e-79 3.598442e-79 2.396043e-79 6.181136e-79 3.595274e-79 8.704480e-79 4.919753e-79 1.199616e-78 6.943263e-79 1.779657e-78 1.095966e-78 3.041439e-78 2.040468e-78 6.178165e-78 4.369245e-78 1.320985e-77 7.203818e-78 9.721699e-78 1.078133e-78 3.999557e-78 -6.101313e-79 9.468186e-78 6.500268e-77 2.112799e-75 7.525935e-75 1.684322e-73 2.134661e-73 2.768253e-72 7.232094e-73 3.307332e-72 2.136427e-73 2.685800e-74 1.833854e-75 1.433374e-76 8.270328e-78 4.175999e-78 -1.018226e-76 1.731631e-75 -2.826610e-74 2.467595e-73 -1.986287e-72 5.770141e-72 -1.367629e-71 5.934168e-73 -3.625911e-72 -1.697022e-72 3.198968e-72 -8.358323e-71 1.355299e-69 -1.979618e-68 1.219126e-67 -4.786379e-68 2.663165e-69 1.231930e-70 -3.423199e-72 1.337734e-73 -6.739675e-75 4.509929e-76 -2.395354e-77 1.387003e-78 -4.645278e-80 1.882446e-81 1.454725e-82 2.419938e-84 -3.104969e-85 1.025654e-85 -1.926751e-86 1.512431e-87 -1.167950e-88 5.196228e-90 -2.293684e-91 6.591147e-93 -1.859875e-94 3.642179e-96 -6.951153e-98 9.578497e-100 -1.281010e-101 1.269299e-103 -1.216587e-105 8.752588e-108 -6.052307e-110 3.132148e-112 -1.540649e-114 5.555978e-117 -1.878691e-119 4.478754e-122 -9.876946e-125 1.437582e-127 -1.904535e-130 1.484912e-133 5.467404e-136 4.651176e-134 3.563756e-132 2.714499e-130 2.096374e-128 1.588383e-126 1.191566e-124 8.730068e-123 6.168548e-121 4.252521e-119 2.751231e-117 1.742630e-115 1.007838e-113 5.763984e-112 2.931445e-110 1.500941e-108 6.663855e-107 3.052890e-105 1.182510e-103 4.863046e-102 1.645464e-100 6.092176e-99 1.798636e-97 5.993694e-96 1.533667e-94 4.575699e-93 9.995979e-92 
1.569295e-88 2.863755e-87 6.483535e-86 9.359995e-85 1.757246e-83 1.869021e-82 2.758832e-81 1.906441e-80 2.023211e-79 7.056910e-79 4.577906e-78 5.279969e-78 1.632159e-77 1.074844e-77 2.568645e-77 1.472749e-77 3.297339e-77 1.835976e-77 4.135525e-77 2.363032e-77 5.590773e-77 3.415964e-77 8.740312e-77 5.862789e-77 1.632734e-76 1.162712e-76 3.211651e-76 1.733613e-76 2.079389e-76 3.681104e-77 1.713555e-76 -2.845618e-77 4.406279e-76 3.617116e-75 8.916072e-74 3.895593e-73 6.494293e-72 1.011044e-71 9.961968e-71 2.861982e-71 1.139317e-70 4.135676e-72 8.389147e-73 4.884540e-74 4.315163e-75 2.681963e-76 4.204512e-77 1.001275e-75 -1.779353e-74 2.787218e-73 -2.510791e-72 1.935736e-71 -6.156691e-71 1.923909e-70 -1.212194e-71 -7.088906e-71 -5.616192e-71 5.937881e-72 1.022055e-69 -1.864206e-68 2.880983e-67 -1.881268e-66 6.850588e-67 -4.216301e-68 -1.404159e-69 2.528553e-71 -5.800124e-73 3.506380e-74 -2.495295e-75 1.389334e-76 -7.952393e-78 9.821294e-80 1.761983e-80 2.713708e-81 4.024308e-83 5.535102e-84 -1.525221e-84 2.515669e-85 -1.955620e-86 1.404301e-87 -6.326169e-89 2.644971e-90 -7.688497e-92 2.056768e-93 -4.022174e-95 7.178487e-97 -9.601638e-99 1.162126e-100 -1.062949e-102 8.711219e-105 -5.368641e-107 2.928875e-109 -1.180139e-111 4.142193e-114 -1.035703e-116 2.201697e-119 -3.099746e-122 3.602984e-125 -1.887303e-128 3.274973e-131 1.669560e-133 6.092104e-135 3.820286e-133 3.243233e-131 2.902968e-129 2.563630e-127 2.249617e-125 1.922447e-123 1.612965e-121 1.285975e-119 1.002089e-117 7.226560e-116 5.096059e-114 3.237436e-112 2.027089e-110 1.114346e-108 6.142213e-107 2.901955e-105 1.409329e-103 5.730113e-102 2.464452e-100 8.652825e-99 3.310210e-97 1.004295e-95 3.419717e-94 8.916846e-93 2.689558e-91 5.943124e-90 
9.076160e-87 1.662091e-85 3.726095e-84 5.366337e-83 9.872601e-82 1.042526e-80 1.491447e-79 1.019850e-78 1.036148e-77 3.572590e-77 2.184726e-76 2.500158e-76 7.185750e-76 4.670088e-76 1.034709e-75 5.833725e-76 1.208798e-75 6.612053e-76 1.377202e-75 7.743174e-76 1.693333e-75 1.022469e-75 2.416780e-75 1.613086e-75 4.143337e-75 2.954344e-75 7.479527e-75 3.978957e-75 4.279363e-75 1.508326e-75 6.939510e-75 -1.252171e-75 1.967387e-74 1.776399e-73 3.607816e-72 1.772708e-71 2.384795e-70 4.236775e-70 3.368305e-69 1.028820e-69 3.598176e-69 1.313760e-71 2.798117e-71 9.918177e-73 1.299041e-73 7.526349e-75 2.370193e-74 -3.428481e-75 9.111281e-74 -1.565210e-72 1.462408e-71 -1.168542e-70 4.004483e-70 -1.677369e-69 1.362364e-70 -7.598235e-70 -8.222294e-70 9.034060e-70 -1.557116e-68 1.837790e-67 -3.541818e-66 2.311023e-65 -8.323058e-66 5.231008e-67 1.314936e-68 -1.034268e-70 -8.466702e-73 -1.920936e-73 1.229886e-74 -7.833868e-76 6.532518e-77 -3.671495e-78 3.290021e-79 2.759617e-80 2.891022e-82 -1.104186e-82 1.529770e-83 -2.046150e-84 1.372599e-85 -8.784157e-87 3.502335e-88 -1.309044e-89 3.321429e-91 -7.804049e-93 1.290822e-94 -1.958101e-96 2.113025e-98 -2.076227e-100 1.443390e-102 -9.085711e-105 3.960351e-107 -1.555291e-109 4.025837e-112 -9.414728e-115 1.306880e-117 -1.395859e-120 5.930334e-123 3.690936e-125 3.643685e-127 2.114999e-129 1.500469e-131 1.708611e-133 3.209278e-132 2.491223e-130 2.760780e-128 2.794565e-126 2.854296e-124 2.833864e-122 2.731736e-120 2.501039e-118 2.210333e-116 1.802226e-114 1.419129e-112 1.000865e-110 6.874143e-109 4.113122e-107 2.442195e-105 1.232644e-103 6.344145e-102 2.712434e-100 1.219111e-98 4.443826e-97 1.755047e-95 5.470281e-94 1.901891e-92 5.049602e-91 1.539082e-89 3.436205e-88 
5.026300e-85 9.239766e-84 2.049378e-82 2.945947e-81 5.305926e-80 5.565920e-79 7.710391e-78 5.219670e-77 5.073197e-76 1.729515e-75 9.962754e-75 1.131076e-74 3.018568e-74 1.935028e-74 3.968693e-74 2.198361e-74 4.208943e-74 2.259073e-74 4.343706e-74 2.399661e-74 4.842231e-74 2.884704e-74 6.287741e-74 4.167824e-74 9.856167e-74 7.019767e-74 1.625232e-73 8.498616e-74 8.400266e-74 6.274478e-74 2.597545e-73 -5.044950e-74 8.098802e-73 7.745975e-72 1.336338e-70 7.066278e-70 7.903433e-69 1.532890e-68 1.001400e-67 3.153785e-68 9.524052e-68 -3.020927e-69 8.645722e-70 2.714459e-72 3.488601e-72 1.533147e-73 1.420353e-72 4.286549e-74 -4.640144e-74 6.639810e-72 -6.744774e-71 4.103602e-70 -1.852588e-69 7.588107e-69 -7.008306e-70 -7.308214e-69 -9.177164e-69 1.355188e-70 -2.610350e-68 4.223916e-67 3.510526e-65 -2.493088e-64 8.936285e-65 -5.748391e-66 -1.061040e-67 -3.381342e-70 3.272115e-71 2.230470e-72 -1.003580e-74 2.306599e-75 -1.422729e-76 5.262066e-78 2.445832e-79 2.622005e-79 5.114263e-81 7.391474e-82 -1.083887e-82 1.152229e-83 -6.903700e-85 3.463091e-86 -1.156730e-87 3.189454e-89 -6.165876e-91 9.765441e-93 -1.114036e-94 1.028060e-96 -7.094426e-99 3.710388e-101 -1.838273e-103 3.370915e-106 -4.305698e-108 -1.359454e-110 -1.531369e-112 -5.988316e-115 -1.165119e-117 1.771537e-119 3.545038e-121 3.101071e-123 2.746816e-125 1.753312e-127 1.164025e-129 1.093397e-131 4.087734e-131 6.207977e-130 2.176354e-127 2.179023e-125 2.809546e-123 3.289735e-121 3.818293e-119 4.083752e-117 4.239570e-115 3.959391e-113 3.572522e-111 2.821860e-109 2.164196e-107 1.416318e-105 9.162700e-104 4.949802e-102 2.718513e-100 1.222575e-98 5.765187e-97 2.181049e-95 8.911272e-94 2.852398e-92 1.013452e-90 2.739288e-89 8.436994e-88 1.903338e-86 
2.715950e-83 5.006597e-82 1.098603e-80 1.574278e-79 2.777475e-78 2.890214e-77 3.881631e-76 2.597453e-75 2.419324e-74 8.142112e-74 4.425338e-73 4.977607e-73 1.233959e-72 7.791327e-73 1.479118e-72 8.037231e-73 1.421633e-72 7.474291e-73 1.326698e-72 7.187534e-73 1.338701e-72 7.850431e-73 1.579229e-72 1.036701e-72 2.260642e-72 1.603243e-72 3.401187e-72 1.750072e-72 1.713294e-72 2.566116e-72 9.433416e-72 -1.974203e-72 3.204950e-71 3.132767e-70 4.778432e-69 2.616059e-68 2.534440e-67 5.165002e-67 2.870825e-66 9.129577e-67 2.396495e-66 -1.544061e-67 2.713693e-68 -6.885348e-70 1.150745e-70 4.087688e-72 6.621364e-71 -6.825225e-72 4.914865e-71 -8.382151e-72 6.518105e-71 2.568110e-69 2.325822e-69 -1.535657e-68 -3.898231e-69 -3.573286e-68 -6.494425e-68 -9.105672e-69 9.615213e-68 -2.567502e-65 -3.342729e-64 2.195767e-63 -8.111093e-64 4.970956e-65 7.144432e-67 6.990756e-69 -1.768661e-70 -2.184124e-71 -9.335198e-73 -3.470514e-74 1.348659e-76 -6.007586e-78 5.796872e-78 1.269644e-78 9.909665e-80 -8.322595e-81 4.710814e-82 -2.728494e-83 9.308612e-85 -2.793137e-86 5.110264e-88 -7.851980e-90 6.434851e-92 -9.870036e-94 -1.555031e-95 -3.117692e-97 -8.190257e-99 -9.655474e-101 -1.621132e-102 -1.512834e-104 -1.666905e-106 -1.201947e-108 -8.481466e-111 -3.821859e-113 -4.066699e-116 1.413525e-117 2.381432e-119 2.145401e-121 1.801827e-123 1.184529e-125 7.637182e-128 7.227999e-130 1.100318e-129 -4.226711e-128 3.188053e-126 1.257936e-124 2.557041e-122 3.446761e-120 4.853330e-118 6.198042e-116 7.580616e-114 8.268193e-112 8.573649e-110 7.695361e-108 6.601650e-106 4.768623e-104 3.360852e-102 1.952547e-100 1.142762e-98 5.417610e-97 2.675436e-95 1.051295e-93 4.435447e-92 1.458006e-90 5.285438e-89 1.453702e-87 4.519237e-86 1.029343e-84 
1.414644e-81 2.614663e-80 5.673566e-79 8.104954e-78 1.399924e-76 1.445201e-75 1.880727e-74 1.244018e-73 1.109972e-72 3.686792e-72 1.889827e-71 2.104625e-71 4.841893e-71 3.008042e-71 5.279933e-71 2.810570e-71 4.587780e-71 2.359058e-71 3.861507e-71 2.048180e-71 3.517660e-71 2.027163e-71 3.760152e-71 2.440409e-71 4.903272e-71 3.456489e-71 6.716105e-71 3.421709e-71 3.873669e-71 9.898104e-71 3.253747e-70 -7.297698e-71 1.188092e-69 1.170337e-68 1.598007e-67 8.890707e-67 7.571063e-66 1.583618e-65 7.582605e-65 2.385267e-65 5.413858e-65 -5.066450e-66 7.307408e-67 -3.499608e-68 3.432538e-69 1.025358e-70 1.956513e-69 -4.530932e-70 1.583062e-69 1.004859e-70 -3.149963e-69 -1.326382e-67 4.978822e-68 -2.558143e-68 7.293378e-69 -1.476678e-67 -6.575522e-67 -3.351478e-67 5.523887e-66 4.258210e-64 4.282747e-63 -1.921134e-62 6.974168e-63 -3.876797e-64 -4.504424e-66 -4.902946e-68 8.504539e-70 1.475216e-70 1.043464e-71 5.209346e-73 7.237175e-75 -2.239973e-76 5.628849e-77 5.708709e-78 -7.582285e-80 -3.475134e-81 -1.906425e-82 -2.698801e-83 -2.539446e-85 -7.265369e-87 2.715228e-88 1.767368e-90 -6.802238e-91 -2.378556e-92 -9.275965e-94 -1.877122e-95 -3.832902e-97 -5.508953e-99 -7.422748e-101 -7.919704e-103 -7.457360e-105 -5.791097e-107 -3.500609e-109 -1.454281e-111 2.522990e-114 1.070898e-115 1.416466e-117 1.266843e-119 9.963851e-122 6.707146e-124 4.160373e-126 4.296584e-128 2.519468e-128 -2.866026e-126 1.145989e-124 -1.312046e-123 2.208292e-121 2.341629e-119 4.689728e-117 7.313115e-115 1.126182e-112 1.468352e-110 1.827568e-108 1.891321e-106 1.865713e-104 1.497837e-102 1.168762e-100 7.315551e-99 4.604152e-97 2.300006e-95 1.195500e-93 4.874292e-92 2.129277e-90 7.180904e-89 2.659408e-87 7.437545e-86 2.334706e-84 5.366839e-83 
7.211845e-80 1.335535e-78 2.864152e-77 4.075406e-76 6.891984e-75 7.051700e-74 8.898014e-73 5.812031e-72 4.973130e-71 1.628793e-70 7.881032e-70 8.684459e-70 1.853344e-69 1.132182e-69 1.835660e-69 9.566721e-70 1.439531e-69 7.235650e-70 1.091093e-69 5.663348e-70 8.961530e-70 5.072859e-70 8.672479e-70 5.562177e-70 1.029966e-69 7.218364e-70 1.288916e-69 6.711052e-70 1.088691e-69 3.710988e-69 1.108728e-68 -2.702713e-69 4.273576e-68 4.178531e-67 5.231849e-66 2.913332e-65 2.237342e-64 4.731786e-64 1.997627e-63 6.234960e-64 1.222162e-63 -1.403214e-64 1.850342e-65 -1.136423e-66 9.634980e-68 3.497155e-69 5.850341e-68 -2.939766e-68 5.518473e-68 2.201502e-70 -3.242138e-67 3.228807e-66 -1.129268e-66 2.956189e-67 3.297561e-68 -4.427342e-67 -6.767651e-66 -1.796325e-65 -4.392778e-64 -6.535601e-63 -5.389069e-62 1.633469e-61 -5.813500e-62 2.946081e-63 2.604177e-65 3.343517e-67 -1.954770e-69 -8.295511e-70 -9.437393e-71 -6.610832e-72 -5.188372e-73 -1.298452e-74 6.616722e-76 1.377793e-77 -7.057769e-79 -1.852243e-80 1.997219e-81 4.296255e-82 2.499556e-83 1.231354e-84 1.958814e-86 -6.358233e-90 -3.093434e-89 -1.188524e-90 -3.521209e-92 -7.379946e-94 -1.303900e-95 -1.883642e-97 -2.299087e-99 -2.393180e-101 -2.029939e-103 -1.418521e-105 -6.146636e-108 2.902313e-111 5.076548e-112 6.927929e-114 7.034908e-116 5.817584e-118 4.279609e-120 2.817680e-122 1.695541e-124 2.201596e-126 -4.200283e-127 -1.571616e-124 5.584862e-123 -1.107982e-121 5.235846e-120 6.295668e-119 4.382753e-116 7.874609e-114 1.548171e-111 2.473301e-109 3.710505e-107 4.518071e-105 5.136880e-103 4.638767e-101 4.003688e-99 2.714772e-97 1.832173e-95 9.666737e-94 5.271456e-92 2.232099e-90 1.006570e-88 3.483361e-87 1.314659e-85 3.737754e-84 1.182545e-82 2.742060e-81 
3.566875e-78 6.614311e-77 1.401837e-75 1.985991e-74 3.287723e-73 3.332859e-72 4.077140e-71 2.628635e-70 2.156949e-69 6.961129e-69 3.179032e-68 3.462366e-68 6.850530e-68 4.108591e-68 6.149294e-68 3.131963e-68 4.341911e-68 2.129319e-68 2.956727e-68 1.499132e-68 2.185056e-68 1.213043e-68 1.911208e-68 1.209715e-68 2.065266e-68 1.439706e-68 2.388009e-68 1.380085e-68 3.708643e-68 1.333668e-67 3.671965e-67 -9.728153e-68 1.473247e-66 1.423961e-65 1.648340e-64 9.126687e-64 6.395596e-63 1.354019e-62 5.109998e-62 1.576455e-62 2.674813e-62 -3.451966e-63 4.212958e-64 -2.931960e-65 2.282579e-66 1.341842e-67 1.819843e-66 -2.018049e-66 2.785553e-66 3.055588e-67 3.125364e-65 -5.104391e-65 1.108008e-65 -1.568458e-66 -2.544009e-68 -1.335958e-66 -3.927696e-65 3.899481e-65 6.619871e-63 8.260261e-62 7.627872e-61 -1.407130e-60 4.634240e-61 -2.026047e-62 -1.338050e-64 -1.396428e-66 1.371251e-68 2.878956e-69 3.710941e-70 3.498223e-71 3.881813e-72 2.249485e-73 1.740534e-74 -2.635735e-77 -1.367895e-78 -3.593626e-79 -3.848130e-80 -4.483559e-81 -3.311289e-82 -2.329715e-83 -1.093796e-84 -4.762089e-86 -1.452974e-87 -4.136944e-89 -8.603524e-91 -1.686550e-92 -2.474115e-94 -3.424368e-96 -3.513044e-98 -3.269648e-100 -1.888795e-102 -4.031690e-105 1.279199e-106 2.438249e-108 2.983953e-110 3.002412e-112 2.534506e-114 1.974121e-116 1.345736e-118 8.736826e-121 5.016227e-123 1.063444e-124 -1.176994e-124 -8.066650e-123 2.698624e-121 -6.192891e-120 2.349378e-118 -5.339091e-117 4.493251e-115 4.819791e-113 1.609290e-110 3.256151e-108 6.434171e-106 9.471932e-104 1.301318e-101 1.336655e-99 1.306638e-97 9.614063e-96 7.039512e-94 3.917457e-92 2.254744e-90 9.896765e-89 4.621791e-87 1.638565e-85 6.312345e-84 1.822225e-82 5.814748e-81 1.358891e-79 
1.731621e-76 3.214218e-75 6.725210e-74 9.481815e-73 1.535942e-71 1.541904e-70 1.828880e-69 1.163353e-68 9.158512e-68 2.911842e-67 1.255221e-66 1.351324e-66 2.475743e-66 1.458018e-66 2.010659e-66 1.001187e-66 1.276069e-66 6.109960e-67 7.795861e-67 3.865310e-67 5.178764e-67 2.823860e-67 4.092913e-67 2.561821e-67 4.029466e-67 2.816869e-67 4.488111e-67 3.450761e-67 1.437393e-66 4.738318e-66 1.219915e-65 -3.589884e-66 4.998418e-65 4.760381e-64 5.181660e-63 2.851230e-62 1.856569e-61 3.946459e-61 1.353592e-60 4.254702e-61 6.187960e-61 -8.327487e-62 9.314341e-63 -6.654100e-64 4.863038e-65 6.973903e-66 8.357651e-65 -1.500632e-63 1.664364e-63 -1.736354e-64 -8.381293e-64 5.422254e-64 -7.200042e-65 5.565472e-66 4.178330e-67 -8.438459e-66 -5.164548e-64 -5.656605e-63 -8.223015e-62 -1.165355e-60 -1.219379e-59 1.395176e-59 -3.854541e-60 1.356653e-61 6.063726e-64 1.644047e-66 -5.145746e-68 9.723248e-69 7.969512e-70 -1.215329e-71 -7.855151e-72 -7.179369e-73 -5.122933e-74 -7.510420e-76 2.319142e-77 1.431982e-78 7.842279e-80 6.533969e-81 4.224312e-82 2.877897e-83 1.487687e-84 7.328830e-86 2.760627e-87 9.643223e-89 2.637093e-90 6.684172e-92 1.362677e-93 2.595163e-95 4.075499e-97 6.036696e-99 7.534112e-101 8.950458e-103 9.125188e-105 8.925748e-107 7.609137e-109 6.262705e-111 4.550203e-113 3.206479e-115 2.015461e-117 1.232378e-119 6.564469e-122 5.227013e-123 -1.168034e-122 -3.899585e-121 1.269697e-119 -3.192916e-118 1.162952e-116 -3.195863e-115 1.461817e-113 -1.046477e-112 1.678030e-109 3.945601e-107 1.057230e-104 1.931932e-102 3.230202e-100 3.835315e-98 4.240753e-96 3.405411e-94 2.692462e-92 1.583700e-90 9.572903e-89 4.359330e-87 2.099206e-85 7.626645e-84 2.988715e-82 8.759895e-81 2.812131e-79 6.621907e-78 
8.207327e-75 1.523385e-73 3.147739e-72 4.412971e-71 6.996539e-70 6.950029e-69 7.995016e-68 5.013184e-67 3.787840e-66 1.185109e-65 4.823413e-65 5.124627e-65 8.692721e-65 5.016483e-65 6.373148e-65 3.095510e-65 3.627292e-65 1.691949e-65 1.984084e-65 9.601209e-66 1.182991e-65 6.326413e-66 8.441488e-66 5.221004e-66 7.586818e-66 5.405174e-66 9.108182e-66 1.137431e-65 5.831957e-65 1.647957e-64 4.026343e-64 -1.314369e-64 1.668572e-63 1.567096e-62 1.618311e-61 8.849876e-61 5.426773e-60 1.157211e-59 3.672746e-59 1.187938e-59 1.499096e-59 -2.000489e-60 2.036176e-61 -1.435493e-62 9.967001e-64 3.328194e-64 1.365314e-62 2.348344e-61 -1.250382e-61 9.341438e-63 1.336214e-62 -5.007002e-63 4.119271e-64 -2.017797e-65 -1.762842e-67 -1.449989e-65 -2.516276e-63 -1.505934e-62 1.025811e-60 1.620724e-59 2.166203e-58 -1.499333e-58 3.376701e-59 -8.671558e-61 -1.832210e-63 3.185140e-65 -2.033132e-66 -3.848447e-67 -3.371345e-68 -1.560351e-69 -6.406335e-71 -6.745713e-73 2.094316e-74 3.435400e-76 -1.984582e-78 -3.991651e-81 5.074279e-81 7.759750e-82 6.527794e-83 5.412588e-84 3.101923e-85 1.722776e-86 6.996538e-88 2.720350e-89 8.040470e-91 2.270898e-92 5.028465e-94 1.066520e-95 1.818286e-97 2.980397e-99 4.008233e-101 5.201296e-103 5.632551e-105 5.898918e-107 5.225974e-109 4.475419e-111 3.272370e-113 2.299101e-115 1.381381e-117 7.828369e-120 -7.930910e-122 2.981647e-121 -9.100223e-121 -1.806134e-119 5.793144e-118 -1.579517e-116 5.644215e-115 -1.713519e-113 7.285711e-112 -2.634141e-110 2.113635e-108 2.347192e-106 1.364709e-103 3.218013e-101 7.251032e-99 1.015321e-96 1.318429e-94 1.156885e-92 1.002469e-90 6.216107e-89 3.973186e-87 1.871860e-85 9.327021e-84 3.464489e-82 1.383656e-80 4.110287e-79 1.328803e-77 3.148633e-76 
3.828709e-73 7.106155e-72 1.447827e-70 2.018278e-69 3.129005e-68 3.075645e-67 3.429868e-66 2.120326e-65 1.537265e-64 4.735172e-64 1.818265e-63 1.908042e-63 2.990355e-63 1.692656e-63 1.975540e-63 9.372170e-64 1.006506e-63 4.582341e-64 4.922258e-64 2.330901e-64 2.632203e-64 1.385353e-64 1.696213e-64 1.041646e-64 1.401074e-64 1.071575e-64 2.297009e-64 4.762279e-64 2.424129e-63 5.751101e-63 1.351308e-62 -4.993872e-63 5.565671e-62 5.178941e-61 5.141462e-60 2.821517e-59 1.651978e-58 3.594438e-58 1.068213e-57 3.735329e-58 4.045319e-58 -5.089584e-59 4.503097e-60 -2.939570e-61 1.911305e-62 -1.400206e-61 -9.168218e-61 -1.360945e-59 4.899763e-60 -2.366751e-61 -1.821480e-61 4.089850e-62 -1.899266e-63 5.183340e-65 8.751470e-67 -4.055276e-65 -4.425365e-62 -1.210652e-60 -1.181712e-59 -2.523376e-58 -4.331476e-57 1.921951e-57 -3.251598e-58 5.462546e-60 -6.374434e-63 -3.425532e-64 5.689583e-65 6.203109e-66 4.518695e-67 2.085348e-68 8.895220e-70 2.234249e-71 3.806944e-73 1.839725e-75 -1.526544e-77 -2.984681e-79 -5.660478e-81 -1.717645e-82 -1.098375e-84 3.490070e-85 3.351134e-86 2.410168e-87 1.182847e-88 5.424471e-90 1.901815e-91 6.360533e-93 1.700650e-94 4.358751e-96 9.174276e-98 1.855558e-99 3.141830e-101 5.125461e-103 7.109556e-105 9.532254e-107 1.101455e-108 1.234435e-110 1.206587e-112 1.147445e-114 9.616397e-117 7.921650e-119 -5.889059e-120 1.838376e-119 -6.512553e-119 -7.932516e-118 2.548944e-116 -7.433607e-115 2.661492e-113 -8.750187e-112 3.756012e-110 -1.526379e-108 8.534059e-107 -2.388520e-105 1.785921e-102 5.031983e-100 1.601955e-97 2.705038e-95 4.127784e-93 3.977886e-91 3.749349e-89 2.454521e-87 1.647011e-85 8.032857e-84 4.117722e-82 1.564275e-80 6.338975e-79 1.908779e-77 6.194089e-76 1.476953e-74 
1.754818e-71 3.252104e-70 6.538119e-69 9.051308e-68 1.373086e-66 1.333931e-65 1.443059e-64 8.783545e-64 6.115338e-63 1.851670e-62 6.712334e-62 6.942587e-62 1.005650e-61 5.568697e-62 5.972912e-62 2.759992e-62 2.717981e-62 1.204611e-62 1.186271e-62 5.485334e-63 5.683552e-63 2.939714e-63 3.307874e-63 2.018463e-63 2.552547e-63 2.346384e-63 7.759266e-63 2.219655e-62 1.016826e-61 2.001406e-61 4.602024e-61 -1.911137e-61 1.874781e-60 1.734116e-59 1.673867e-58 9.252018e-58 5.260158e-57 1.173582e-56 3.345467e-56 1.281383e-56 1.230334e-56 -1.401185e-57 1.078275e-58 -6.511051e-60 1.269103e-60 4.646304e-59 5.681422e-59 5.753628e-58 -1.352559e-58 4.345764e-60 2.151502e-60 -3.269110e-61 1.017360e-62 -1.926910e-64 2.286341e-65 6.678031e-63 -4.613123e-61 -2.323947e-59 6.098399e-58 2.267662e-57 9.348843e-56 -2.626627e-56 3.389696e-57 -2.947388e-59 2.286048e-61 4.258825e-64 -1.015047e-63 -7.811513e-65 -4.771095e-66 -1.857339e-67 -6.883203e-69 -1.472722e-70 -2.313200e-72 -1.106466e-74 1.401919e-77 2.851236e-79 6.605613e-81 2.952224e-82 1.246940e-83 6.814466e-85 3.199140e-86 1.641285e-87 6.844771e-89 2.895766e-90 9.837201e-92 3.296913e-93 8.930966e-95 2.364868e-96 5.124436e-98 1.083684e-99 1.901468e-101 3.261358e-103 4.705242e-105 6.654032e-107 8.017301e-109 9.494836e-111 9.691707e-113 9.744872e-115 8.527149e-117 1.083122e-118 -3.622780e-118 1.133855e-117 -4.404366e-117 -3.375371e-116 1.092965e-114 -3.407730e-113 1.232843e-111 -4.376578e-110 1.913612e-108 -8.477087e-107 4.633352e-105 -2.608121e-103 2.523943e-101 4.221028e-99 3.068844e-96 6.488376e-94 1.246883e-91 1.319221e-89 1.377930e-87 9.482572e-86 6.729155e-84 3.384505e-82 1.791315e-80 6.938601e-79 2.858788e-77 8.705637e-76 2.839310e-74 6.800629e-73 
7.936691e-70 1.469170e-68 2.908635e-67 4.000598e-66 5.929986e-65 5.696784e-64 5.972212e-63 3.581816e-62 2.392482e-61 7.129283e-61 2.435797e-60 2.486919e-60 3.319672e-60 1.801317e-60 1.768898e-60 7.978882e-61 7.174655e-61 3.104875e-61 2.790311e-61 1.265057e-61 1.196884e-61 6.116159e-62 6.295438e-62 3.855879e-62 4.738264e-62 6.416392e-62 3.280203e-61 1.078197e-60 4.317760e-60 7.071326e-60 1.611948e-59 -7.630969e-60 6.387070e-59 5.931369e-58 5.625629e-57 3.184955e-56 1.776807e-55 4.176854e-55 1.151491e-54 5.111087e-55 4.339272e-55 -4.244629e-56 2.606177e-57 -1.459384e-58 -3.587279e-58 -4.369177e-57 -5.526063e-57 -2.012997e-56 3.340361e-57 -5.746420e-59 -2.661510e-59 2.583446e-60 -3.599840e-62 3.284653e-64 -1.988738e-63 4.379093e-61 1.637248e-61 -1.641366e-57 -1.629538e-55 9.873629e-56 -2.193041e-54 4.218298e-55 -3.921346e-56 7.172613e-59 -3.580127e-60 5.845777e-62 1.609372e-62 9.796874e-64 4.810633e-65 1.604096e-66 4.536618e-68 8.124741e-70 7.246424e-72 3.080881e-74 -1.153388e-76 -1.409590e-78 -1.578695e-80 -4.456017e-82 -1.147304e-83 -4.127459e-85 -1.284411e-86 -4.591633e-88 -1.405135e-89 -4.576435e-91 -1.299508e-92 -3.808033e-94 -9.869559e-96 -2.574430e-97 -5.904085e-99 -1.331028e-100 -2.610606e-102 -4.970446e-104 -8.210596e-106 -1.313002e-107 -1.829175e-109 -2.471311e-111 -2.929432e-113 -3.376697e-115 -3.642954e-117 1.958774e-117 -2.079066e-116 7.115939e-116 -2.926985e-115 -1.359551e-114 4.482702e-113 -1.491277e-111 5.514765e-110 -2.094522e-108 9.415082e-107 -4.458572e-105 2.459824e-103 -1.421935e-101 9.276523e-100 -1.879432e-98 5.795858e-95 1.571772e-92 3.859311e-90 4.493926e-88 5.139318e-86 3.719495e-84 2.763360e-82 1.433788e-80 7.777164e-79 3.072604e-77 1.280151e-75 3.943608e-74 1.287595e-72 3.098815e-71 
3.549490e-68 6.550780e-67 1.278589e-65 1.744342e-64 2.529213e-63 2.398852e-62 2.439832e-61 1.439306e-60 9.234463e-60 2.702772e-59 8.711886e-59 8.757234e-59 1.078116e-58 5.713896e-59 5.141643e-59 2.256207e-59 1.854539e-59 7.811969e-60 6.415813e-60 2.844930e-60 2.461983e-60 1.241090e-60 1.171738e-60 7.272441e-61 9.574779e-61 2.297746e-60 1.545002e-59 5.300159e-59 1.866112e-58 2.535048e-58 5.844807e-58 -3.111595e-58 2.247907e-57 2.104486e-56 1.989198e-55 1.159650e-54 6.483502e-54 1.618481e-53 4.457157e-53 2.315861e-53 1.850079e-53 -1.476461e-54 7.204046e-56 -1.868022e-58 3.426209e-56 2.399581e-55 4.240458e-55 6.602637e-55 -7.579651e-56 7.467041e-58 3.061788e-58 -2.083334e-59 2.021294e-61 -1.301978e-63 1.415642e-62 1.727182e-59 2.399074e-57 1.960796e-55 1.588829e-53 -7.877355e-54 5.229890e-53 -6.941902e-54 4.912139e-55 1.830387e-57 4.604115e-59 -1.679991e-60 -2.449327e-61 -1.183888e-62 -4.908304e-64 -1.335905e-65 -3.171099e-67 -4.679999e-69 -4.364321e-71 -2.394046e-73 -2.325336e-76 -2.601120e-78 -3.179509e-80 -8.686093e-82 -2.355498e-83 -9.011964e-85 -3.108375e-86 -1.259004e-87 -4.390967e-89 -1.650754e-90 -5.242173e-92 -1.718150e-93 -4.729335e-95 -1.313582e-96 -3.068952e-98 -7.153721e-100 -1.410748e-101 -2.761394e-103 -4.608857e-105 -7.619428e-107 -1.083287e-108 -1.524443e-110 -1.860307e-112 -2.244180e-114 -3.512463e-116 1.167580e-115 -1.224633e-114 4.545932e-114 -1.935787e-113 -5.333398e-113 1.797513e-111 -6.425936e-110 2.438065e-108 -9.877515e-107 4.562252e-105 -2.285417e-103 1.266330e-101 -7.464467e-100 4.568760e-98 -3.447539e-96 8.675605e-94 3.120187e-91 1.165715e-88 1.486988e-86 1.903955e-84 1.439858e-82 1.128186e-80 6.008805e-79 3.352127e-77 1.345752e-75 5.681860e-74 1.765584e-72 5.779724e-71 1.394509e-69 