# vtk DataFile Version 2.0
Comment goes here
ASCII

DATASET STRUCTURED_POINTS
DIMENSIONS    128   128   1

ORIGIN    0.000   0.000   0.000
SPACING   0.0156250.015625   1.000

POINT_DATA   16384
SCALARS Concentration double
LOOKUP_TABLE default

1.067038e-98 2.118150e-97 5.405743e-96 8.703913e-95 1.913988e-93 2.317215e-92 4.172591e-91 3.325525e-90 4.500265e-89 1.804229e-88 1.565083e-87 1.952700e-87 8.221609e-87 5.875655e-87 1.944402e-86 1.219885e-86 3.821218e-86 2.314858e-86 7.312157e-86 4.458439e-86 1.475073e-85 9.303921e-86 3.315580e-85 2.194863e-85 8.518758e-85 5.766393e-85 2.281961e-84 1.279267e-84 2.727807e-84 3.231137e-85 -2.180308e-86 6.173862e-88 -1.372477e-87 2.896261e-88 1.417996e-85 7.258738e-86 2.203486e-83 8.587632e-84 6.862519e-82 1.425796e-82 1.567036e-81 1.467964e-82 1.681937e-83 9.369000e-85 3.828274e-86 2.252391e-88 -4.446117e-88 1.385329e-86 -3.292719e-85 7.320898e-84 -8.470491e-83 7.266283e-82 -1.675150e-81 1.385098e-81 -1.131390e-83 -3.976781e-84 3.178865e-85 -2.759834e-83 2.001879e-81 -5.810488e-80 1.377866e-78 -1.009225e-77 3.887349e-78 -6.653372e-81 -7.637188e-81 4.960906e-82 -2.691721e-83 1.177395e-84 -5.492990e-86 1.634858e-87 -4.476124e-89 6.124247e-91 -6.701629e-93 1.158737e-94 -1.704090e-97 1.113948e-96 -1.110400e-96 1.948839e-97 -1.495104e-98 9.832851e-100 -3.630242e-101 1.300756e-102 -3.007268e-104 6.845626e-106 -1.092002e-107 1.722524e-109 -2.034789e-111 2.412320e-113 -2.291302e-115 2.217306e-117 -1.780101e-119 1.421085e-121 -9.182156e-124 5.654662e-126 -2.714803e-128 1.213623e-130 -4.112752e-133 1.287390e-135 -2.974670e-138 6.329721e-141 -8.711195e-144 4.597324e-143 2.617643e-141 1.547654e-139 9.379494e-138 5.725518e-136 3.494501e-134 2.093774e-132 1.247015e-130 7.121166e-129 4.050816e-127 2.159237e-125 1.155230e-123 5.663506e-122 2.823280e-120 1.261782e-118 5.838013e-117 2.368895e-115 1.017059e-113 3.740792e-112 1.491845e-110 4.963747e-109 1.838835e-107 5.507629e-106 1.890147e-104 5.044689e-103 1.592777e-101 3.720395e-100 
8.326752e-97 1.659452e-95 4.202610e-94 6.756714e-93 1.459425e-91 1.756758e-90 3.072420e-89 2.428407e-88 3.151074e-87 1.253019e-86 1.026506e-85 1.277304e-85 5.023418e-85 3.568079e-85 1.100429e-84 6.847645e-85 1.994983e-84 1.199115e-84 3.517828e-84 2.134085e-84 6.550398e-84 4.132893e-84 1.364621e-83 9.109331e-84 3.268454e-83 2.250176e-83 8.195351e-83 4.629672e-83 8.974895e-83 8.920393e-84 -1.204125e-84 2.981252e-86 -4.688096e-86 9.442725e-86 9.089013e-84 1.976180e-83 1.382140e-81 1.220920e-81 4.426696e-80 1.193686e-80 1.140758e-79 1.029779e-80 1.326046e-81 8.788327e-83 5.779040e-84 2.065575e-85 1.854632e-86 -4.276343e-85 1.008805e-83 -2.313838e-82 2.683708e-81 -2.571815e-80 6.042809e-80 -8.397032e-80 1.323379e-81 -8.689224e-82 -1.013735e-82 1.783049e-81 -9.248726e-80 2.289029e-78 -4.810295e-77 3.296114e-76 -1.112114e-76 1.272026e-78 1.960478e-79 -1.196822e-80 6.020479e-82 -2.708885e-83 1.393197e-84 -4.740848e-86 1.590259e-87 -2.709329e-89 3.880191e-91 1.669933e-92 2.509508e-95 -7.618684e-95 4.523368e-95 -7.617384e-96 5.233943e-97 -3.385760e-98 1.203108e-99 -4.301492e-101 9.672699e-103 -2.183992e-104 3.299977e-106 -4.934337e-108 4.994485e-110 -4.822880e-112 2.892529e-114 -1.312246e-116 -1.645379e-119 7.502097e-121 -7.374832e-123 5.127427e-125 -2.456145e-127 1.034961e-129 -3.104848e-132 8.526158e-135 -1.632856e-137 2.900414e-140 -2.336260e-143 7.118566e-142 4.686668e-140 3.181404e-138 2.136145e-136 1.445249e-134 9.646565e-133 6.333625e-131 4.101122e-129 2.548552e-127 1.566789e-125 9.019524e-124 5.177241e-122 2.717055e-120 1.441022e-118 6.829116e-117 3.332241e-115 1.420335e-113 6.375389e-112 2.441331e-110 1.009302e-108 3.467393e-107 1.320521e-105 4.052244e-104 1.417741e-102 3.848604e-101 1.228203e-99 2.898133e-98 
6.148021e-95 1.231782e-93 3.090540e-92 4.969461e-91 1.052484e-89 1.261860e-88 2.139763e-87 1.680151e-86 2.087252e-85 8.245026e-85 6.369237e-84 7.914757e-84 2.901304e-83 2.050364e-83 5.878329e-83 3.630856e-83 9.809991e-83 5.852766e-83 1.589456e-82 9.593616e-83 2.721842e-82 1.717059e-82 5.231362e-82 3.517943e-82 1.161541e-81 8.120233e-82 2.707192e-81 1.538622e-81 2.685547e-81 2.123546e-82 -4.783547e-83 1.796811e-84 -1.095778e-84 9.815019e-84 5.233283e-82 1.955783e-81 7.531295e-80 1.052948e-79 2.370983e-78 8.078161e-79 6.404625e-78 5.190520e-79 6.921419e-80 4.823463e-81 3.900598e-82 1.653211e-83 -1.028098e-85 1.147062e-83 -2.718329e-82 6.032295e-81 -7.174733e-80 7.066069e-79 -1.732213e-78 3.686319e-78 -7.922859e-80 -8.843204e-80 -3.081901e-80 -1.440073e-80 2.699007e-78 -6.948440e-77 1.311630e-75 -9.021016e-75 2.649371e-75 -5.693734e-77 -4.056759e-78 2.317552e-79 -9.684685e-81 4.477654e-82 -2.393727e-83 9.182276e-85 -3.223711e-86 4.450406e-88 2.153041e-90 1.879324e-90 5.594478e-93 3.818806e-93 -1.479368e-93 2.317138e-94 -1.537488e-95 9.578842e-97 -3.487008e-98 1.232828e-99 -2.913671e-101 6.669147e-103 -1.097448e-104 1.740815e-106 -2.071905e-108 2.362799e-110 -2.065960e-112 1.715149e-114 -1.097472e-116 6.593200e-119 -3.032419e-121 1.294163e-123 -4.156051e-126 1.222947e-128 -2.624703e-131 5.081741e-134 -6.789583e-137 7.996107e-140 7.871085e-143 1.005588e-140 7.406100e-139 5.579197e-137 4.180701e-135 3.132366e-133 2.322894e-131 1.681537e-129 1.201804e-127 8.180247e-126 5.503477e-124 3.440298e-122 2.139031e-120 1.206595e-118 6.854920e-117 3.454114e-115 1.785486e-113 8.007794e-112 3.768062e-110 1.503806e-108 6.453710e-107 2.290939e-105 8.972639e-104 2.823006e-102 1.006501e-100 2.781399e-99 8.963191e-98 2.138968e-96 
4.398958e-93 8.846062e-92 2.201028e-90 3.533129e-89 7.348273e-88 8.756963e-87 1.442834e-85 1.122930e-84 1.339190e-83 5.242246e-83 3.829276e-82 4.741063e-82 1.622766e-81 1.138172e-81 3.037776e-81 1.857103e-81 4.659921e-81 2.750267e-81 6.924903e-81 4.141950e-81 1.088197e-80 6.830975e-81 1.924784e-80 1.296406e-80 3.950667e-80 2.785429e-80 8.530205e-80 4.847409e-80 7.613050e-80 4.415119e-81 -1.591700e-81 8.979928e-83 -1.091654e-84 7.597805e-82 2.881827e-80 1.440920e-79 3.867621e-78 7.204893e-78 1.174270e-76 4.812024e-77 3.238349e-76 2.119864e-77 3.064274e-78 2.013089e-79 2.294914e-80 1.456968e-81 9.152183e-83 -1.948516e-82 4.802970e-81 -1.121763e-79 1.377776e-78 -1.481854e-77 3.709674e-77 -1.270290e-76 4.198877e-78 -3.303493e-78 -1.744025e-78 3.023815e-78 -9.561266e-77 1.850282e-75 -3.164935e-74 2.000678e-73 -5.467829e-74 1.582108e-75 6.925820e-77 -3.492992e-78 1.103224e-79 -5.425513e-81 3.265619e-82 -1.455931e-83 6.874823e-85 -1.867068e-86 6.682689e-88 7.465417e-89 9.169059e-91 -1.543037e-91 3.640685e-92 -5.160832e-93 3.118113e-94 -1.854769e-95 6.395812e-97 -2.184211e-98 4.861472e-100 -1.060773e-101 1.603143e-103 -2.358312e-105 2.493906e-107 -2.557316e-109 1.929800e-111 -1.407173e-113 7.620716e-116 -3.956665e-118 1.510350e-120 -5.450234e-123 1.399300e-125 -3.338152e-128 5.330676e-131 -7.761146e-134 6.746955e-137 -5.155193e-140 1.514493e-141 1.231380e-139 1.020632e-137 8.696159e-136 7.307297e-134 6.167895e-132 5.104374e-130 4.133709e-128 3.274263e-126 2.470353e-124 1.825225e-122 1.250423e-120 8.444279e-119 5.153252e-117 3.141594e-115 1.690063e-113 9.263226e-112 4.380954e-110 2.161751e-108 8.998962e-107 4.009088e-105 1.470396e-103 5.922179e-102 1.909035e-100 6.936305e-99 1.949130e-97 6.344167e-96 1.528984e-94 
2.999381e-91 6.059148e-90 1.493233e-88 2.395438e-87 4.885794e-86 5.794081e-85 9.263324e-84 7.153980e-83 8.180253e-82 3.176171e-81 2.191094e-80 2.704638e-80 8.628235e-80 6.008073e-80 1.489623e-79 9.013544e-80 2.095473e-79 1.223090e-79 2.847774e-79 1.686891e-79 4.092259e-79 2.553693e-79 6.634118e-79 4.469091e-79 1.252769e-78 8.890940e-79 2.491422e-78 1.412807e-78 1.979734e-78 7.130739e-80 -4.369078e-80 3.514780e-81 1.970012e-81 4.881710e-80 1.438591e-78 8.650203e-78 1.759785e-76 4.002123e-76 4.972101e-75 2.361374e-75 1.319470e-74 5.842375e-76 9.880405e-77 4.793835e-78 8.659953e-79 6.018553e-80 5.337603e-81 3.061382e-81 -7.490631e-80 1.719508e-78 -2.256184e-77 2.423620e-76 -6.066897e-76 2.749894e-75 -1.030179e-76 -8.221853e-77 -7.180228e-77 3.200470e-78 1.516840e-75 -3.228388e-74 5.897335e-73 -3.731180e-72 9.591630e-73 -3.474035e-74 -9.685142e-76 4.189211e-77 -5.722199e-79 4.712811e-80 -2.925748e-81 1.334226e-82 -6.113903e-84 6.437743e-86 9.305494e-87 1.882398e-87 2.419807e-89 3.610620e-90 -6.880479e-91 8.539181e-92 -5.098680e-93 2.819920e-94 -9.832482e-96 3.181787e-97 -7.160472e-99 1.481494e-100 -2.234700e-102 3.070290e-104 -3.143301e-106 2.901763e-108 -2.004331e-110 1.233140e-112 -5.613112e-115 2.239976e-117 -6.426572e-120 1.579803e-122 -2.635886e-125 3.618842e-128 -2.958590e-131 1.906254e-134 4.957483e-138 4.799519e-140 1.299725e-140 1.114802e-138 1.092291e-136 1.061898e-134 1.036588e-132 9.981121e-131 9.493122e-129 8.695664e-127 7.820007e-125 6.599478e-123 5.458137e-121 4.126698e-119 3.070498e-117 2.036942e-115 1.345984e-113 7.752111e-112 4.535221e-110 2.264883e-108 1.176803e-106 5.112705e-105 2.370042e-103 8.983394e-102 3.724752e-100 1.230482e-98 4.556990e-97 1.302645e-95 4.280434e-94 1.042497e-92 
1.988692e-89 4.030651e-88 9.843123e-87 1.575701e-85 3.154883e-84 3.717021e-83 5.775378e-82 4.417936e-81 4.853689e-80 1.865727e-79 1.218043e-78 1.496357e-78 4.453685e-78 3.073037e-78 7.082401e-78 4.232487e-78 9.121928e-78 5.252285e-78 1.131662e-77 6.619180e-78 1.484170e-77 9.174678e-78 2.200623e-77 1.476430e-77 3.815027e-77 2.711890e-77 6.971657e-77 3.930474e-77 4.901898e-77 7.163931e-79 -9.928569e-79 1.090267e-79 1.641962e-79 2.788266e-78 6.876151e-77 4.589056e-76 7.624130e-75 1.966985e-74 1.979957e-73 1.043460e-73 4.944394e-73 9.937225e-75 2.944753e-75 5.632841e-77 3.208505e-77 1.891284e-78 4.434770e-79 5.993562e-82 6.372510e-79 -1.653083e-77 2.428492e-76 -3.053297e-75 6.464459e-75 -3.959835e-74 1.951789e-75 -1.083970e-75 -1.289848e-75 1.317136e-75 -2.677535e-74 3.840617e-73 -9.517353e-72 5.540003e-71 -1.428617e-71 5.690215e-73 1.102338e-74 -3.951100e-76 -4.320807e-78 -4.992476e-79 2.340063e-80 -1.120273e-81 7.073369e-83 -3.033517e-84 2.229152e-85 2.527141e-86 2.115825e-88 -8.055515e-89 8.532679e-90 -8.673595e-91 4.488482e-92 -2.213124e-93 6.830662e-95 -1.974523e-96 3.870321e-98 -7.012357e-100 8.884848e-102 -1.029325e-103 8.378955e-106 -6.184644e-108 3.165403e-110 -1.458506e-112 4.491849e-115 -1.239786e-117 2.068290e-120 -3.309653e-123 1.500234e-126 -3.567616e-129 4.562114e-132 8.936748e-134 9.465288e-136 5.346337e-138 1.597732e-139 8.143620e-138 1.040296e-135 1.136322e-133 1.298245e-131 1.456248e-129 1.597098e-127 1.687529e-125 1.728785e-123 1.658639e-121 1.540410e-119 1.301598e-117 1.069580e-115 7.781813e-114 5.580122e-112 3.459710e-110 2.160641e-108 1.142808e-106 6.249027e-105 2.837348e-103 1.367440e-101 5.358445e-100 2.285265e-98 7.734466e-97 2.917583e-95 8.477946e-94 2.811302e-92 6.912018e-91 
1.264776e-87 2.572887e-86 6.220963e-85 9.943294e-84 1.952424e-82 2.286810e-81 3.449802e-80 2.615468e-79 2.758402e-78 1.050126e-77 6.482069e-77 7.925571e-77 2.197689e-76 1.502185e-76 3.212761e-76 1.895140e-76 3.779556e-76 2.145012e-76 4.268485e-76 2.462691e-76 5.093369e-76 3.115015e-76 6.883859e-76 4.592655e-76 1.091518e-75 7.756986e-76 1.824962e-75 1.021110e-75 1.124714e-75 -7.070640e-78 -1.467542e-77 2.334200e-78 9.678169e-78 1.424915e-76 3.018395e-75 2.149494e-74 2.997160e-73 8.410647e-73 6.993101e-72 3.957271e-72 1.575847e-71 -9.408067e-74 7.753376e-74 -1.391246e-75 9.399241e-76 2.114379e-77 2.314273e-77 -6.421882e-79 2.217708e-77 1.374299e-76 -2.683832e-75 3.877627e-74 -5.826969e-74 3.519418e-73 -1.370345e-74 -1.246242e-74 -1.825585e-74 1.114522e-75 -8.818807e-74 1.780851e-72 1.300665e-70 -7.212480e-70 1.873172e-70 -8.043121e-72 -1.063588e-73 3.116739e-75 1.515682e-76 8.381778e-78 -2.487905e-80 4.654846e-81 -2.109351e-82 5.659576e-84 4.204094e-85 3.000893e-85 4.749527e-87 7.147913e-88 -7.416266e-89 5.952848e-90 -2.718815e-91 1.040856e-92 -2.645762e-94 5.539365e-96 -8.066829e-98 9.572304e-100 -8.083117e-102 5.444788e-104 -2.735587e-106 9.559685e-109 -4.106662e-111 -1.481454e-114 -1.047798e-115 -4.957200e-118 -3.910123e-120 -1.747351e-122 -7.998888e-125 -1.975665e-127 4.537688e-130 8.967144e-132 8.683379e-134 5.244409e-136 5.313277e-138 -5.835522e-138 9.238064e-135 8.136975e-133 1.225486e-130 1.613870e-128 2.154349e-126 2.674375e-124 3.249409e-122 3.595618e-120 3.864862e-118 3.687358e-116 3.419650e-114 2.746000e-112 2.168006e-110 1.451407e-108 9.765264e-107 5.475580e-105 3.168715e-103 1.503571e-101 7.558344e-100 3.060974e-98 1.345064e-96 4.662598e-95 1.792671e-93 5.294796e-92 1.771737e-90 4.398218e-89 
7.845943e-86 1.600476e-84 3.831327e-83 6.107670e-82 1.176727e-80 1.368484e-79 2.006497e-78 1.505697e-77 1.526678e-76 5.748711e-76 3.359683e-75 4.083780e-75 1.055277e-74 7.136720e-75 1.416223e-74 8.234681e-75 1.519337e-74 8.485997e-75 1.559401e-74 8.859062e-75 1.690177e-74 1.020613e-74 2.078996e-74 1.375976e-74 3.011058e-74 2.133604e-74 4.600762e-74 2.553248e-74 2.471651e-74 -5.721164e-76 1.177123e-76 4.261576e-78 4.985654e-76 6.763517e-75 1.276890e-73 9.357646e-73 1.138798e-71 3.347312e-71 2.381852e-70 1.408091e-70 4.785726e-70 -1.410291e-71 2.223951e-72 -1.015373e-73 2.681840e-74 -4.584396e-76 1.202406e-75 -1.494990e-76 3.719084e-75 -4.744560e-76 2.228404e-74 -4.986486e-73 3.666352e-73 -2.229170e-72 -4.847678e-74 -7.299139e-74 -1.609544e-73 -2.230745e-74 2.594268e-73 -1.031546e-70 -1.680353e-69 7.687089e-69 -2.073008e-69 8.726492e-71 8.363774e-73 -2.333046e-74 -1.955084e-75 -1.151107e-76 -3.457436e-78 -9.559885e-80 2.235088e-82 -7.339407e-84 8.240657e-84 1.876928e-84 1.093168e-85 -8.868443e-87 3.595089e-88 -1.655577e-89 4.196607e-91 -9.344983e-93 1.217809e-94 -1.375263e-96 6.079088e-99 -1.089343e-100 -2.160461e-102 -3.027288e-104 -6.417703e-106 -6.388554e-108 -8.566822e-110 -6.861365e-112 -6.298787e-114 -4.019048e-116 -2.605181e-118 -1.245831e-120 -4.949536e-123 -9.876321e-126 6.234508e-128 8.370626e-130 7.143508e-132 4.313529e-134 2.864447e-136 -3.221927e-135 2.156534e-133 2.585706e-132 1.123712e-129 1.575342e-127 2.604940e-125 3.882859e-123 5.611628e-121 7.321656e-119 9.135360e-117 1.001275e-114 1.050359e-112 9.420507e-111 8.194007e-109 5.964742e-107 4.319672e-105 2.577147e-103 1.575731e-101 7.827386e-100 4.096497e-98 1.715661e-96 7.754234e-95 2.753079e-93 1.077313e-91 3.232908e-90 1.090501e-88 2.731348e-87 
4.697425e-84 9.608033e-83 2.276180e-81 3.619368e-80 6.838172e-79 7.897421e-78 1.124784e-76 8.355218e-76 8.140705e-75 3.031662e-74 1.676597e-73 2.025004e-73 4.871610e-73 3.256937e-73 5.989832e-73 3.429290e-73 5.846354e-73 3.209525e-73 5.439640e-73 3.038764e-73 5.341549e-73 3.180185e-73 5.964404e-73 3.910337e-73 7.870616e-73 5.552261e-73 1.096130e-72 6.026283e-73 5.088704e-73 -1.658467e-74 2.295511e-74 -3.183126e-75 2.314827e-74 2.978948e-73 5.065948e-72 3.758908e-71 4.047198e-70 1.219604e-69 7.523169e-69 4.547563e-69 1.319519e-68 -6.619628e-70 6.222546e-71 -3.683243e-72 6.260496e-73 -2.978210e-74 4.486685e-74 -7.898771e-75 1.490470e-73 7.276719e-74 5.178871e-73 1.122841e-71 -5.776191e-72 8.780604e-72 7.994988e-73 -3.541229e-73 -2.003622e-72 -1.079319e-72 2.337907e-71 2.038587e-69 2.590673e-68 -8.091013e-68 2.153042e-68 -8.351694e-70 -5.893958e-72 2.061672e-73 1.921925e-74 1.200155e-75 5.585037e-77 1.973637e-78 2.083153e-80 -3.931837e-82 1.074042e-82 1.029371e-83 -1.042288e-85 5.131917e-87 2.835745e-88 7.490236e-90 1.434469e-91 1.958627e-93 -8.336568e-96 -1.787065e-96 -1.830174e-97 -4.625058e-99 -1.292191e-100 -2.124346e-102 -3.439986e-104 -4.092492e-106 -4.524527e-108 -4.060785e-110 -3.253662e-112 -2.216558e-114 -1.272681e-116 -6.074848e-119 -1.850158e-121 1.305873e-126 6.979508e-126 6.814745e-128 5.038324e-130 3.007685e-132 1.371595e-134 -2.114804e-133 1.038386e-131 -1.887511e-130 1.432981e-128 7.961153e-127 2.312975e-124 4.132143e-122 7.728336e-120 1.220473e-117 1.864196e-115 2.389132e-113 2.935305e-111 2.969223e-109 2.906827e-107 2.309222e-105 1.822675e-103 1.157506e-101 7.531492e-100 3.913579e-98 2.141162e-96 9.264404e-95 4.316461e-93 1.568302e-91 6.252796e-90 1.905347e-88 6.480863e-87 1.637293e-85 
2.750841e-82 5.638383e-81 1.321213e-79 2.094049e-78 3.879853e-77 4.446290e-76 6.154581e-75 4.521990e-74 4.237591e-73 1.559669e-72 8.167653e-72 9.797457e-72 2.193317e-71 1.448836e-71 2.467116e-71 1.390047e-71 2.187331e-71 1.179696e-71 1.842105e-71 1.011487e-71 1.636682e-71 9.604033e-72 1.657414e-71 1.076034e-71 1.991881e-71 1.398804e-71 2.528981e-71 1.381136e-71 1.009328e-71 -2.105767e-73 1.371112e-72 -2.471673e-73 1.021058e-72 1.253361e-71 1.963864e-70 1.454458e-69 1.420121e-68 4.322686e-68 2.367065e-67 1.454473e-67 3.637271e-67 -2.331735e-68 1.756366e-69 -1.075246e-70 1.381423e-71 -7.888397e-73 1.708601e-72 -6.890356e-73 6.108606e-72 -4.422386e-71 3.631176e-71 -2.208744e-70 8.629722e-71 -3.077905e-71 -2.489405e-72 -1.203087e-72 -2.509948e-71 -7.385121e-71 -2.100121e-69 -3.749684e-68 -3.903570e-67 8.294422e-67 -2.170283e-67 7.787011e-69 3.533167e-71 -1.773160e-72 -1.806216e-73 -1.191021e-74 -7.964762e-76 -3.667690e-77 -1.948701e-78 -3.396375e-80 1.611753e-81 3.364614e-83 -1.367492e-84 -6.254919e-86 -1.448808e-87 5.882954e-89 3.757628e-90 1.787506e-91 -1.000249e-93 -1.591782e-94 -9.023999e-96 -2.449358e-97 -5.480866e-99 -9.240042e-101 -1.321360e-102 -1.574039e-104 -1.596487e-106 -1.402336e-108 -1.031901e-110 -6.555404e-113 -3.171512e-115 -1.048867e-117 1.626150e-120 5.576761e-122 5.845441e-124 4.371051e-126 2.798614e-128 1.576096e-130 3.392840e-133 -1.178308e-131 5.656670e-130 -1.337633e-128 6.006414e-127 -9.064279e-126 2.383671e-123 3.808895e-121 9.710974e-119 1.895770e-116 3.563468e-114 5.470807e-112 7.898136e-110 9.159525e-108 1.009705e-105 8.829306e-104 7.579464e-102 5.144529e-100 3.551198e-98 1.933988e-96 1.102672e-94 4.933167e-93 2.362833e-91 8.787378e-90 3.561594e-88 1.101870e-86 3.772971e-85 9.610448e-84 
1.563962e-80 3.210789e-79 7.441439e-78 1.175202e-76 2.134977e-75 2.427115e-74 3.264687e-73 2.371706e-72 2.137518e-71 7.770988e-71 3.852998e-70 4.585641e-70 9.548026e-70 6.223149e-70 9.805663e-70 5.428415e-70 7.879512e-70 4.167968e-70 5.993240e-70 3.229340e-70 4.808301e-70 2.776752e-70 4.408572e-70 2.830624e-70 4.819433e-70 3.365543e-70 5.573396e-70 3.020853e-70 1.895156e-70 7.724785e-72 6.513868e-71 -1.393688e-71 4.284677e-71 5.048808e-70 7.342473e-69 5.399532e-68 4.834040e-67 1.473569e-66 7.263003e-66 4.502995e-66 9.794560e-66 -7.125433e-67 4.589977e-68 -2.716338e-69 2.728446e-70 -1.233787e-71 6.903316e-71 -6.831747e-71 4.374194e-70 4.776034e-69 -3.184896e-69 3.167715e-69 -6.744372e-70 1.077606e-70 4.202377e-72 -4.233487e-72 -1.819041e-70 1.146068e-70 3.749430e-68 5.568276e-67 6.321277e-66 -8.563585e-66 2.075579e-66 -6.455734e-68 -1.436307e-70 1.624287e-71 1.460648e-72 9.225338e-74 6.444216e-75 3.399581e-76 2.266878e-77 8.734738e-79 4.872586e-80 -1.403735e-83 -2.708251e-84 -4.599644e-85 -3.762757e-86 -3.412177e-87 -1.991568e-88 -1.112019e-89 -4.190682e-91 -1.467567e-92 -3.636033e-94 -8.411031e-96 -1.433331e-97 -2.303114e-99 -2.798335e-101 -3.217962e-103 -2.802412e-105 -2.262511e-107 -1.270676e-109 -5.179666e-112 1.029017e-114 3.920863e-116 4.663072e-118 4.107494e-120 2.954759e-122 1.933719e-124 1.100345e-126 5.945943e-129 -1.901424e-131 -5.913787e-130 3.001767e-128 -8.245979e-127 3.393691e-125 -9.685703e-124 5.360389e-122 5.438810e-121 8.901624e-118 2.095874e-115 5.508460e-113 1.048013e-110 1.895182e-108 2.563970e-106 3.292224e-104 3.184414e-102 3.024388e-100 2.193337e-98 1.620627e-96 9.234523e-95 5.513612e-93 2.546018e-91 1.256988e-89 4.777995e-88 1.971478e-86 6.185675e-85 2.133669e-83 5.475484e-82 
8.719424e-79 1.792506e-77 4.104878e-76 6.457406e-75 1.149737e-73 1.296187e-72 1.694240e-71 1.216662e-70 1.054895e-69 3.787948e-69 1.778162e-68 2.100068e-68 4.062097e-68 2.612858e-68 3.802970e-68 2.069311e-68 2.765309e-68 1.435487e-68 1.896950e-68 1.003988e-68 1.372886e-68 7.813200e-69 1.139243e-68 7.247271e-69 1.133405e-68 7.890805e-69 1.195546e-68 6.463708e-69 3.440477e-69 8.098700e-70 2.874904e-69 -7.099774e-70 1.759743e-69 1.992114e-68 2.732806e-67 1.994620e-66 1.666345e-65 5.098882e-65 2.300944e-64 1.463173e-64 2.781205e-64 -2.051762e-65 1.126263e-66 -6.083835e-68 5.026487e-69 1.114784e-70 4.004591e-69 -3.145590e-68 4.428945e-68 -1.737045e-67 7.944536e-68 -3.134433e-68 3.766821e-69 -2.992597e-70 -1.055595e-71 -3.085423e-71 -2.785753e-69 -3.414829e-68 -5.316385e-67 -9.060917e-66 -1.166489e-64 1.015680e-64 -2.064414e-65 5.104105e-67 -2.057382e-70 -1.577284e-70 -1.109252e-71 -6.081181e-73 -3.868774e-74 -1.990371e-75 -1.222870e-76 -4.818840e-78 -2.034978e-79 -2.012224e-81 4.434176e-83 2.095062e-84 9.070155e-86 5.998787e-87 3.092414e-88 1.679594e-89 6.921980e-91 2.723031e-92 8.205389e-94 2.298696e-95 5.051576e-97 1.031127e-98 1.694920e-100 2.606813e-102 3.307139e-104 3.962474e-106 3.998521e-108 3.845260e-110 3.169891e-112 2.509799e-114 1.728672e-116 1.150538e-118 6.740656e-121 3.831782e-123 1.934519e-125 9.518860e-128 -3.692804e-129 -2.523271e-128 1.542352e-126 -4.796074e-125 1.934674e-123 -6.192828e-122 2.949272e-120 -9.774530e-119 1.167573e-116 1.922802e-114 7.906128e-112 1.909901e-109 4.373868e-107 7.068524e-105 1.059688e-102 1.145544e-100 1.199417e-98 9.332133e-97 7.344293e-95 4.386677e-93 2.729969e-91 1.302320e-89 6.601544e-88 2.565785e-86 1.074426e-84 3.419151e-83 1.185306e-81 3.064145e-80 
4.747109e-77 9.763001e-76 2.209892e-74 3.460190e-73 6.039718e-72 6.747556e-71 8.573030e-70 6.080763e-69 5.074018e-68 1.797800e-67 7.992431e-67 9.353003e-67 1.680645e-66 1.064814e-66 1.431523e-66 7.639964e-67 9.399712e-67 4.778435e-67 5.804364e-67 3.011717e-67 3.783965e-67 2.118892e-67 2.839584e-67 1.787724e-67 2.571152e-67 1.783384e-67 2.475117e-67 1.330562e-67 5.951007e-68 4.665672e-68 1.219514e-67 -3.410813e-68 7.111373e-68 7.755412e-67 1.011980e-65 7.336507e-65 5.792872e-64 1.779067e-63 7.482212e-63 4.899849e-63 8.299365e-63 -5.788432e-64 2.592545e-65 -1.228223e-66 8.467180e-68 2.647220e-68 5.176179e-67 8.881596e-66 -5.210504e-66 4.326562e-66 -1.170549e-66 2.619760e-67 -1.889084e-68 9.049636e-70 1.565390e-71 1.093315e-72 -1.902590e-68 -1.812461e-67 7.845119e-66 1.447773e-64 2.418531e-63 -1.304515e-63 2.155685e-64 -3.769389e-66 1.572205e-68 1.477074e-69 7.547999e-71 3.173994e-72 1.655799e-73 7.736521e-75 4.284026e-76 1.504730e-77 4.725757e-79 2.044160e-81 -1.191177e-83 -3.425382e-85 -8.379690e-87 -2.318733e-88 -2.324593e-90 2.423223e-91 1.543139e-92 7.328633e-94 1.752689e-95 3.030878e-97 -2.294642e-99 -2.877132e-100 -1.058912e-101 -2.836890e-103 -5.622609e-105 -1.001999e-106 -1.425176e-108 -1.910015e-110 -2.113205e-112 -2.248750e-114 -2.020646e-116 -1.766932e-118 -1.327529e-120 -9.777530e-123 -6.274888e-125 -3.770724e-127 -3.266928e-127 -7.989783e-127 7.627547e-125 -2.692548e-123 1.078059e-121 -3.770360e-120 1.746376e-118 -6.945401e-117 3.820449e-115 -6.995568e-114 8.242085e-111 2.507767e-108 8.581397e-106 1.714528e-103 3.194334e-101 3.886363e-99 4.595587e-97 3.830680e-95 3.245725e-93 2.026431e-91 1.321666e-89 6.496642e-88 3.391341e-86 1.344915e-84 5.725317e-83 1.844954e-81 6.434224e-80 1.673506e-78 
2.540427e-75 5.227388e-74 1.167839e-72 1.820224e-71 3.111832e-70 3.445680e-69 4.253199e-68 2.980563e-67 2.392794e-66 8.370430e-66 3.521409e-65 4.086607e-65 6.808387e-65 4.252733e-65 5.267368e-65 2.760494e-65 3.117951e-65 1.554774e-65 1.730765e-65 8.824107e-66 1.015553e-65 5.612353e-66 6.892301e-66 4.310923e-66 5.686928e-66 3.949501e-66 5.005283e-66 2.678856e-66 9.941694e-67 2.320775e-66 5.155113e-66 -1.622991e-66 2.868380e-66 3.023844e-65 3.801186e-64 2.762397e-63 2.089203e-62 6.539931e-62 2.595295e-61 1.810948e-61 2.740368e-61 -1.617020e-62 4.932872e-64 -1.713646e-65 8.922740e-67 1.589207e-66 2.797913e-65 -7.443919e-64 2.446731e-64 -7.386757e-65 1.260425e-65 -1.756775e-66 7.077025e-68 -1.874832e-69 -5.814436e-71 1.734560e-69 -3.663017e-67 -1.155485e-65 -7.389386e-65 -2.305790e-63 -5.688520e-62 1.995027e-62 -2.465043e-63 2.585700e-65 -2.919150e-67 -1.398152e-68 -4.171468e-70 -8.260899e-72 -1.438951e-73 -5.540726e-75 -3.824150e-76 -1.735382e-77 -4.190895e-79 -2.996581e-81 2.616708e-83 5.652747e-85 1.235922e-86 5.603763e-88 2.256240e-89 1.124535e-90 4.584084e-92 1.956927e-93 6.686311e-95 2.254950e-96 6.126678e-98 1.608284e-99 3.446235e-101 7.084569e-103 1.205857e-104 1.968525e-106 2.699228e-108 3.560861e-110 4.001682e-112 4.346002e-114 4.074633e-116 3.708665e-118 2.949543e-120 2.286162e-122 1.564582e-124 2.553792e-126 -2.468798e-125 2.482386e-126 3.556582e-123 -1.441113e-121 5.812900e-120 -2.173705e-118 1.000192e-116 -4.213924e-115 2.188223e-113 -1.009100e-111 1.178831e-109 2.732348e-107 1.603805e-104 4.081813e-102 9.607053e-100 1.331108e-97 1.768414e-95 1.584810e-93 1.434859e-91 9.378500e-90 6.368756e-88 3.228486e-86 1.726566e-84 6.989929e-83 3.012965e-81 9.834420e-80 3.440033e-78 9.003577e-77 
1.335314e-73 2.745326e-72 6.058048e-71 9.388054e-70 1.573075e-68 1.724420e-67 2.069472e-66 1.431081e-65 1.106232e-64 3.815188e-64 1.519957e-63 1.745728e-63 2.698043e-63 1.657336e-63 1.892194e-63 9.711687e-64 1.007694e-63 4.916134e-64 5.019981e-64 2.509103e-64 2.648494e-64 1.442000e-64 1.625514e-64 1.008987e-64 1.223723e-64 8.504571e-65 9.852539e-65 5.152470e-65 1.624999e-65 1.083832e-64 2.187244e-64 -7.675418e-65 1.170429e-64 1.195553e-63 1.463633e-62 1.070433e-61 7.880445e-61 2.527020e-60 9.686274e-60 7.273945e-60 1.017410e-59 -4.510595e-61 5.119975e-63 3.792650e-65 -2.503961e-65 6.051323e-63 -1.689140e-62 4.357531e-62 -6.933166e-63 8.122888e-64 -8.742357e-65 9.520063e-66 -2.901973e-67 5.525702e-69 2.901796e-70 1.086362e-67 -5.186518e-66 -3.443702e-64 1.499056e-62 2.910237e-63 1.455910e-60 -3.261398e-61 3.047245e-62 -1.249315e-64 4.513551e-66 1.224966e-67 4.262157e-70 -1.168407e-70 -8.035453e-72 -2.668922e-73 -7.978965e-75 -1.264162e-76 -1.512501e-78 -5.587328e-81 5.461626e-84 1.099184e-85 2.630890e-87 1.182961e-88 4.774673e-90 2.373734e-91 9.613629e-93 4.148616e-94 1.418833e-95 4.890611e-97 1.338392e-98 3.613987e-100 7.841048e-102 1.666990e-103 2.891103e-105 4.910516e-107 6.911948e-109 9.548688e-111 1.109829e-112 1.269723e-114 1.239167e-116 1.193574e-118 9.927423e-121 8.167291e-123 5.551652e-125 1.139376e-124 -1.837531e-123 3.401104e-123 1.547805e-121 -7.517144e-120 3.063426e-118 -1.214349e-116 5.565418e-115 -2.460108e-113 1.255103e-111 -6.235590e-110 3.726713e-108 -1.218662e-106 2.298101e-103 7.661393e-101 2.690163e-98 4.285518e-96 6.630224e-94 6.367303e-92 6.237740e-90 4.250643e-88 3.022860e-86 1.574804e-84 8.655187e-83 3.567287e-81 1.559917e-79 5.146282e-78 1.807834e-76 4.753363e-75 
6.914668e-72 1.421075e-70 3.091381e-69 4.765751e-68 7.815753e-67 8.487698e-66 9.892582e-65 6.756441e-64 5.023921e-63 1.710356e-62 6.442576e-62 7.334145e-62 1.048618e-61 6.344418e-62 6.654023e-62 3.351071e-62 3.182044e-62 1.522707e-62 1.420462e-62 6.984479e-63 6.733213e-63 3.628050e-63 3.738197e-63 2.315810e-63 2.572186e-63 1.801526e-63 1.894638e-63 9.389225e-64 3.055914e-64 4.994515e-63 9.439935e-63 -3.696513e-63 4.832753e-63 4.813143e-62 5.796830e-61 4.334170e-60 3.137076e-59 1.056285e-58 3.944084e-58 3.334756e-58 4.324482e-58 -9.658838e-60 -3.792961e-61 2.436401e-62 -5.709202e-62 -1.580388e-60 2.321605e-60 -2.045008e-60 1.366460e-61 3.366552e-63 -2.626308e-64 -1.668159e-65 4.835249e-67 -6.523577e-69 -2.498816e-68 7.412723e-66 4.179660e-65 -3.536304e-62 -4.426494e-60 3.392350e-60 -4.034522e-59 6.233741e-60 -4.152189e-61 -6.516076e-64 -6.782372e-65 -9.262194e-67 4.630071e-68 3.331892e-69 1.503415e-70 4.240077e-72 9.930095e-74 1.434729e-75 1.040620e-77 3.637122e-80 -1.001337e-82 -9.998952e-85 -8.795189e-87 -1.912013e-88 -3.705380e-90 -9.786166e-92 -2.161090e-93 -5.180996e-95 -1.004891e-96 -1.823873e-98 -2.716479e-100 -3.206869e-102 -4.693971e-104 -7.946912e-106 -2.860959e-107 -7.780439e-109 -1.950780e-110 -3.990058e-112 -7.023568e-114 -1.106171e-115 -1.508540e-117 -1.917083e-119 -2.132188e-121 -2.101650e-123 -2.659286e-124 8.480890e-123 -1.362443e-121 4.323550e-121 5.693522e-120 -3.727948e-118 1.544759e-116 -6.413297e-115 2.947951e-113 -1.350627e-111 6.857346e-110 -3.540184e-108 2.116169e-106 -1.569174e-104 3.707600e-102 1.231849e-99 7.634248e-97 1.413896e-94 2.529253e-92 2.608402e-90 2.734156e-88 1.944469e-86 1.435511e-84 7.691263e-83 4.315944e-81 1.811994e-79 7.999230e-78 2.668605e-76 9.380579e-75 2.478877e-73 
3.537582e-70 7.254576e-69 1.557600e-67 2.384960e-66 3.832611e-65 4.116850e-64 4.665727e-63 3.141996e-62 2.250302e-61 7.548094e-61 2.691406e-60 3.028991e-60 4.010843e-60 2.382607e-60 2.298098e-60 1.131836e-60 9.848439e-61 4.607827e-61 3.933307e-61 1.897337e-61 1.673899e-61 8.907563e-62 8.410664e-62 5.193586e-62 5.301959e-62 3.741422e-62 3.574782e-62 1.540240e-62 1.044016e-62 2.301167e-61 4.185009e-61 -1.815451e-61 2.065531e-61 2.009154e-60 2.413008e-59 1.853899e-58 1.345917e-57 4.793248e-57 1.797528e-56 1.730652e-56 2.195887e-56 1.065091e-58 -4.530829e-59 2.403071e-60 1.144768e-59 2.204392e-58 -1.761939e-58 8.507721e-59 -6.761873e-61 -5.581124e-61 2.527302e-62 -5.221356e-64 4.618209e-67 1.274439e-68 3.161324e-67 3.416642e-64 5.506716e-62 5.504588e-60 5.015235e-58 -2.442927e-58 1.145051e-57 -1.227989e-58 6.134360e-60 3.803193e-62 1.005492e-63 1.791430e-66 -1.274635e-66 -5.970094e-68 -2.191029e-69 -5.045797e-71 -1.001660e-72 -1.221506e-74 -9.519077e-77 -4.481355e-79 -4.454781e-82 -4.119471e-84 -4.128942e-86 -9.223414e-88 -2.042959e-89 -6.388414e-91 -1.802207e-92 -5.977720e-94 -1.708800e-95 -5.270716e-97 -1.374069e-98 -3.699996e-100 -8.370841e-102 -1.912418e-103 -3.676799e-105 -7.058895e-107 -1.147158e-108 -1.852232e-110 -2.551882e-112 -3.486327e-114 -4.099723e-116 -4.777665e-118 -4.838601e-120 -3.763485e-122 -1.961161e-122 6.384602e-121 -1.021417e-119 4.197662e-119 1.363425e-118 -1.812299e-116 7.638291e-115 -3.305497e-113 1.524876e-111 -7.223442e-110 3.675750e-108 -1.994044e-106 1.241549e-104 -9.996398e-103 1.000228e-100 -3.326523e-99 2.000014e-95 4.340283e-93 9.504592e-91 1.046029e-88 1.189463e-86 8.778540e-85 6.766510e-83 3.712188e-81 2.133530e-79 9.093256e-78 4.060913e-76 1.366285e-74 4.813118e-73 1.275565e-71 