# vtk DataFile Version 2.0
Comment goes here
ASCII

DATASET STRUCTURED_POINTS
DIMENSIONS    128   128   1

ORIGIN    0.000   0.000   0.000
SPACING   0.0156250.015625   1.000

POINT_DATA   16384
SCALARS Concentration double
LOOKUP_TABLE default

1.086557e-91 1.678653e-90 3.518129e-89 4.378970e-88 8.042778e-87 7.468741e-86 1.146357e-84 6.962351e-84 8.224966e-83 2.539341e-82 1.984747e-81 2.119000e-81 8.440002e-81 5.366736e-81 1.637119e-80 9.215328e-81 2.635655e-80 1.453897e-80 4.219958e-80 2.390704e-80 7.397485e-80 4.437971e-80 1.517520e-79 9.771556e-80 3.742379e-79 2.489903e-79 9.985738e-79 6.007870e-79 3.047959e-78 3.732002e-78 3.340384e-77 -9.642191e-78 5.195470e-76 -3.143882e-76 7.222296e-74 -2.723990e-75 2.836951e-72 5.316168e-73 1.699540e-71 2.529417e-72 3.945472e-72 4.677875e-73 5.217004e-74 2.678704e-75 6.719926e-77 -4.930421e-76 1.258404e-74 -2.927188e-73 4.000583e-72 -4.990496e-71 3.167179e-70 -1.631982e-69 3.912662e-69 -1.021000e-69 2.090448e-71 -2.185511e-69 1.386825e-70 -1.125195e-68 5.256658e-67 -1.010481e-65 1.619781e-64 -9.232454e-64 8.177055e-64 -7.137259e-65 -7.405702e-66 2.699357e-67 -1.643432e-68 8.953481e-70 -5.391872e-71 2.334727e-72 -9.649933e-74 2.174172e-75 -3.854322e-77 4.471300e-79 1.514918e-81 1.028980e-81 -2.348225e-81 6.678480e-82 -8.325568e-83 9.182837e-84 -5.743973e-85 3.629423e-86 -1.499283e-87 6.260589e-89 -1.846942e-90 5.450207e-92 -1.200405e-93 2.638476e-95 -4.555614e-97 7.899114e-99 -1.122802e-100 1.597192e-102 -1.881580e-104 2.164359e-106 -2.025198e-108 1.803869e-110 -1.280809e-112 8.543497e-115 -4.476149e-117 2.193616e-119 -8.335457e-122 2.960527e-124 -8.019957e-127 1.565774e-128 3.034010e-127 5.231906e-126 1.300982e-124 3.177020e-123 1.168685e-121 4.609860e-120 2.030239e-118 8.692265e-117 3.749992e-115 1.513697e-113 6.125185e-112 2.259383e-110 8.468176e-109 2.819064e-107 9.747713e-106 2.911401e-104 9.296378e-103 2.483773e-101 7.343279e-100 1.748396e-98 4.792267e-97 1.008377e-95 2.555882e-94 4.675113e-93 
6.246778e-90 9.702090e-89 2.013542e-87 2.503519e-86 4.492416e-85 4.148141e-84 6.128471e-83 3.691923e-82 4.130462e-81 1.264421e-80 9.205868e-80 9.756620e-80 3.589800e-79 2.252164e-79 6.349071e-79 3.517821e-79 9.299241e-79 5.056577e-79 1.357003e-78 7.617598e-79 2.179346e-78 1.307692e-78 4.128665e-78 2.695322e-78 9.500417e-78 6.533245e-78 2.506102e-77 1.814578e-77 1.235639e-76 1.659302e-76 1.302223e-75 -1.982502e-76 2.350538e-74 3.146431e-74 3.176787e-72 2.283308e-72 1.249575e-70 4.393601e-71 7.924134e-70 1.198705e-70 2.130155e-70 2.544641e-71 3.541976e-72 2.576080e-73 1.578133e-74 1.065636e-74 -2.335906e-73 5.161264e-72 -6.574217e-71 7.858206e-70 -4.593595e-69 2.388877e-68 -6.316607e-68 2.412253e-68 -1.562509e-69 -2.177973e-67 -3.078076e-68 4.585870e-67 -1.524067e-65 2.485078e-64 -3.550044e-63 1.932977e-62 -1.482978e-62 1.386755e-63 1.158177e-64 -3.660008e-66 2.114691e-67 -1.130523e-68 7.145712e-70 -3.480596e-71 1.779085e-72 -4.952086e-74 1.128658e-75 -1.357068e-78 -5.793987e-80 -6.086983e-80 7.067068e-80 -1.841374e-80 1.950729e-81 -2.024752e-82 1.171270e-83 -7.137540e-85 2.796902e-86 -1.138456e-87 3.177342e-89 -9.002346e-91 1.792784e-92 -3.532930e-94 4.836811e-96 -6.243600e-98 4.938284e-100 -2.520603e-102 -1.879132e-104 5.601943e-106 -7.273128e-108 7.207747e-110 -5.140589e-112 3.275963e-114 -1.551742e-116 6.803287e-119 -2.207695e-121 6.724797e-124 -1.486532e-126 7.753972e-129 2.456231e-127 1.317459e-125 6.906902e-124 3.633858e-122 1.877221e-120 9.522462e-119 4.745006e-117 2.266241e-115 1.066512e-113 4.689360e-112 2.048001e-110 8.138299e-109 3.260219e-107 1.156469e-105 4.229877e-104 1.331160e-102 4.448885e-101 1.238894e-99 3.793788e-98 9.319082e-97 2.618032e-95 5.629717e-94 1.446835e-92 2.681154e-91 
3.373105e-88 5.273008e-87 1.082001e-85 1.345804e-84 2.355801e-83 2.166224e-82 3.076783e-81 1.840857e-80 1.949093e-79 5.921055e-79 4.013841e-78 4.225521e-78 1.434318e-77 8.880531e-78 2.309749e-77 1.259381e-77 3.071229e-77 1.644977e-77 4.073066e-77 2.262648e-77 5.971037e-77 3.576665e-77 1.039930e-76 6.865192e-77 2.223208e-76 1.592969e-76 6.120487e-76 5.992202e-76 4.873001e-75 6.706397e-75 4.619621e-74 2.133931e-75 9.714918e-73 3.045155e-72 1.236426e-70 1.814433e-70 4.677069e-69 2.477902e-69 2.965730e-68 4.450840e-69 8.308523e-69 8.955879e-70 1.463009e-70 1.222332e-71 9.246594e-73 -1.451722e-73 3.713360e-72 -7.257453e-71 8.544160e-70 -8.678278e-69 4.216144e-68 -1.548332e-67 5.637010e-67 8.408238e-69 -6.338024e-68 -1.104318e-65 -3.365403e-66 -2.369514e-66 2.635262e-64 -4.514790e-63 5.918120e-62 -3.374516e-61 2.225031e-61 -2.271812e-62 -1.471690e-63 3.543576e-65 -1.820795e-66 8.695862e-68 -4.968695e-69 2.559275e-70 -1.450907e-71 4.874975e-73 -1.474091e-74 2.906516e-76 3.059737e-78 2.637615e-78 -1.748644e-78 4.066610e-79 -3.981543e-80 3.808434e-81 -2.166589e-82 1.252520e-83 -4.967473e-85 1.975924e-86 -5.773099e-88 1.661330e-89 -3.644485e-91 7.755925e-93 -1.284713e-94 2.038546e-96 -2.541724e-98 3.002394e-100 -2.790630e-102 2.434047e-104 -1.662991e-106 1.057533e-108 -5.215121e-111 2.375655e-113 -8.251391e-116 2.626205e-118 -6.203983e-121 1.329584e-123 -2.022929e-126 5.048736e-128 2.772653e-126 1.638715e-124 9.608107e-123 5.620155e-121 3.241036e-119 1.823041e-117 1.008191e-115 5.308326e-114 2.749762e-112 1.321739e-110 6.287352e-109 2.702111e-107 1.164666e-105 4.413779e-104 1.714825e-102 5.694731e-101 1.996646e-99 5.799776e-98 1.841229e-96 4.668592e-95 1.344166e-93 2.955635e-92 7.695775e-91 1.446037e-89 
1.763610e-86 2.769610e-85 5.625004e-84 6.983370e-83 1.194662e-81 1.091056e-80 1.493986e-79 8.849819e-79 8.900966e-78 2.674038e-77 1.694510e-76 1.766338e-76 5.545666e-76 3.377257e-76 8.121549e-76 4.341278e-76 9.788877e-76 5.141740e-76 1.177701e-75 6.440797e-76 1.572751e-75 9.346395e-76 2.512614e-75 1.665241e-75 4.992891e-75 3.793791e-75 1.594004e-74 2.235096e-74 1.904551e-73 2.561375e-73 1.581106e-72 4.813552e-73 3.895811e-71 1.777160e-70 4.605036e-69 9.734604e-69 1.646979e-67 1.149207e-67 1.023186e-66 1.467148e-67 2.895638e-67 2.434886e-68 5.552187e-69 5.224637e-70 5.401217e-71 5.027714e-72 -3.095725e-71 5.780854e-70 -5.884296e-69 4.153047e-68 -1.458617e-72 -2.056003e-66 1.666590e-66 -2.140241e-65 -5.111140e-66 -2.384007e-64 -1.116506e-64 2.781038e-64 -5.649084e-63 7.275625e-62 -8.596098e-61 4.790485e-60 -2.884214e-60 2.979676e-61 1.557835e-62 -2.125860e-64 1.049740e-65 -3.078712e-67 7.595096e-69 -2.832842e-70 3.907086e-71 -1.842362e-72 -5.564200e-74 2.774412e-75 5.520809e-77 -9.533719e-77 3.368302e-77 -6.838834e-78 5.865055e-79 -5.147484e-80 2.667277e-81 -1.433509e-82 5.183788e-84 -1.914290e-85 5.052280e-87 -1.334950e-88 2.600963e-90 -4.993129e-92 7.210322e-94 -1.015047e-95 1.088272e-97 -1.127450e-99 8.916133e-102 -6.744478e-104 3.857166e-106 -2.086845e-108 8.359896e-111 -3.137199e-113 8.435948e-116 -2.107586e-118 3.586448e-121 -5.607033e-124 5.562483e-127 4.116347e-127 2.714001e-125 1.810753e-123 1.195538e-121 7.908578e-120 5.113203e-118 3.234260e-116 1.992922e-114 1.170227e-112 6.696355e-111 3.550762e-109 1.845047e-107 8.631019e-106 4.010349e-104 1.630022e-102 6.733588e-101 2.363867e-99 8.697788e-98 2.636214e-96 8.676663e-95 2.269527e-93 6.696775e-92 1.503909e-90 3.967896e-89 7.547705e-88 
8.737806e-85 1.379433e-83 2.769636e-82 3.435115e-81 5.735990e-80 5.207783e-79 6.867799e-78 4.030812e-77 3.848709e-76 1.143833e-75 6.772316e-75 6.990247e-75 2.027411e-74 1.213896e-74 2.694930e-74 1.410999e-74 2.937043e-74 1.510914e-74 3.195997e-74 1.717735e-74 3.874355e-74 2.279192e-74 5.654870e-74 3.755031e-74 1.046523e-73 8.886809e-74 4.483183e-73 8.681470e-73 6.976592e-72 8.975168e-72 5.006774e-71 3.189886e-71 1.429175e-69 8.108412e-69 1.537586e-67 4.082636e-67 5.045463e-66 4.283826e-66 2.933299e-65 3.835209e-66 7.736603e-66 3.696500e-67 1.571377e-67 1.332848e-68 1.614458e-69 1.066007e-70 1.992086e-70 -2.999539e-69 1.544628e-68 2.666603e-67 -5.974755e-66 6.793101e-65 -1.299038e-64 6.973664e-64 -8.722081e-65 -3.485032e-63 -2.873624e-63 7.985960e-64 4.875357e-62 -7.345688e-61 9.122462e-60 -5.721365e-59 3.173635e-59 -3.387902e-60 -1.370322e-61 -6.107027e-65 -3.200523e-65 -2.416482e-66 2.959544e-67 -1.978809e-68 1.023991e-69 2.403650e-71 -6.437292e-72 4.903962e-74 1.528730e-75 2.097289e-75 -4.995465e-76 8.666803e-77 -7.187638e-78 5.685208e-79 -2.888079e-80 1.415625e-81 -5.000381e-83 1.692852e-84 -4.345861e-86 1.052380e-87 -1.967532e-89 3.405149e-91 -4.561438e-93 5.563152e-95 -5.225027e-97 4.406732e-99 -2.830137e-101 1.611449e-103 -6.852669e-106 2.547237e-108 -6.840132e-111 1.579723e-113 -2.446320e-116 3.479884e-119 -4.131880e-123 1.347282e-124 5.320537e-127 2.570061e-126 2.103777e-124 1.557841e-122 1.202317e-120 9.099040e-119 6.792048e-117 4.887083e-115 3.437108e-113 2.272708e-111 1.464409e-109 8.631448e-108 4.970474e-106 2.544331e-104 1.287237e-102 5.628340e-101 2.487870e-99 9.244637e-98 3.582812e-96 1.133485e-94 3.874846e-93 1.045601e-91 3.163747e-90 7.257233e-89 1.939598e-87 3.736463e-86 
4.210397e-83 6.671566e-82 1.324869e-80 1.638546e-79 2.673932e-78 2.408145e-77 3.064978e-76 1.777830e-75 1.616195e-74 4.738815e-74 2.629268e-73 2.680785e-73 7.193645e-73 4.223894e-73 8.666340e-73 4.431694e-73 8.525529e-73 4.281215e-73 8.375567e-73 4.406862e-73 9.199371e-73 5.332538e-73 1.224544e-72 8.116683e-73 2.139383e-72 2.225590e-72 1.430689e-71 3.429786e-71 2.484007e-70 3.006468e-70 1.547620e-69 1.569080e-69 5.055400e-68 3.228070e-67 4.931354e-66 1.498026e-65 1.472082e-64 1.421725e-64 7.886535e-64 8.940431e-65 1.885594e-64 6.365260e-67 4.457554e-66 2.522028e-67 4.615429e-68 3.160485e-69 1.245154e-68 2.888978e-70 1.929076e-67 -6.491091e-66 8.619114e-65 -9.486720e-64 1.780847e-63 -1.118114e-62 5.174576e-64 -2.945589e-62 -3.312650e-62 4.568016e-62 -6.241289e-61 5.685274e-60 -7.862751e-59 5.449720e-58 -2.962512e-58 3.077990e-59 9.957366e-61 1.460625e-62 3.028042e-64 4.269394e-65 -2.965256e-66 2.013407e-67 -1.782582e-68 1.069699e-69 -8.903844e-71 1.543720e-72 -2.101760e-74 -3.312597e-74 4.936046e-75 -7.010773e-76 4.927388e-77 -3.399102e-78 1.484772e-79 -6.303314e-81 1.880814e-82 -5.422418e-84 1.150795e-85 -2.330152e-87 3.507571e-89 -4.950009e-91 5.150589e-93 -4.949329e-95 3.450232e-97 -2.198548e-99 9.924465e-102 -4.061161e-104 1.152930e-106 -2.727853e-109 7.471134e-112 1.418376e-114 2.655125e-116 1.728525e-118 1.602068e-120 9.557533e-123 4.831339e-125 9.044894e-126 1.691309e-123 1.168884e-121 1.082561e-119 9.466725e-118 8.189374e-116 6.824520e-114 5.495932e-112 4.156635e-110 3.025767e-108 2.007166e-106 1.284423e-104 7.258444e-103 4.004438e-101 1.893510e-99 8.957992e-98 3.532226e-96 1.441101e-94 4.762497e-93 1.689547e-91 4.702169e-90 1.457737e-88 3.412645e-87 9.233869e-86 1.799230e-84 
1.937979e-81 3.082797e-80 6.049950e-79 7.464020e-78 1.189311e-76 1.062916e-75 1.304658e-74 7.481026e-74 6.472123e-73 1.872034e-72 9.729426e-72 9.794505e-72 2.429010e-71 1.397299e-71 2.646190e-71 1.319771e-71 2.343616e-71 1.146795e-71 2.072570e-71 1.065386e-71 2.056022e-71 1.171716e-71 2.488042e-71 1.649363e-71 4.230290e-71 6.141439e-71 4.854689e-70 1.301207e-69 8.293029e-69 9.396426e-69 4.505694e-68 6.494923e-68 1.645094e-66 1.128187e-65 1.440309e-64 4.763275e-64 3.842487e-63 4.036694e-63 1.837873e-62 1.672569e-63 3.761611e-63 -1.757507e-64 1.044088e-64 1.197926e-66 1.040174e-66 5.700041e-68 8.110229e-67 9.537202e-68 -2.219174e-66 6.715869e-65 -9.310337e-64 1.060103e-62 -1.633616e-62 9.598799e-62 -1.191470e-62 -2.339357e-61 -2.682803e-61 -2.044187e-62 -1.881669e-61 2.070026e-60 4.781928e-58 -4.565139e-57 2.453911e-57 -2.514005e-58 -6.307493e-60 -1.955366e-61 -6.605829e-63 -5.460973e-64 3.781210e-66 -5.899529e-67 3.880431e-68 -1.601940e-69 9.219882e-71 1.767275e-71 6.557543e-73 3.146357e-73 -3.921471e-74 4.235062e-75 -2.650709e-76 1.419796e-77 -5.197416e-79 1.621221e-80 -3.692492e-82 7.198890e-84 -1.063104e-85 1.342556e-87 -1.318800e-89 1.084187e-91 -7.525262e-94 3.802255e-96 -2.531434e-98 4.388082e-101 -5.472650e-103 2.213516e-105 7.198081e-107 1.013283e-108 1.545795e-110 1.442040e-112 1.539210e-114 1.180120e-116 9.944981e-119 6.554431e-121 3.481305e-123 -2.811183e-124 2.152021e-122 4.839223e-121 7.738599e-119 7.380935e-117 7.872911e-115 7.728262e-113 7.424195e-111 6.524277e-109 5.532293e-107 4.178652e-105 3.037842e-103 1.909462e-101 1.165675e-99 5.982259e-98 3.056019e-96 1.279947e-94 5.525099e-93 1.906937e-91 7.039014e-90 2.019463e-88 6.421534e-87 1.533662e-85 4.201662e-84 8.280154e-83 
8.709836e-80 1.389207e-78 2.694031e-77 3.310672e-76 5.154292e-75 4.563446e-74 5.409848e-73 3.060634e-72 2.525273e-71 7.191131e-71 3.508086e-70 3.481122e-70 7.983049e-70 4.491519e-70 7.851364e-70 3.812120e-70 6.248968e-70 2.973519e-70 4.965917e-70 2.488110e-70 4.442208e-70 2.482248e-70 4.883082e-70 3.259843e-70 8.657984e-70 1.940624e-69 1.725685e-68 4.812000e-68 2.699505e-67 2.851168e-67 1.294501e-66 2.405310e-66 5.162810e-65 3.652146e-64 4.072720e-63 1.406833e-62 9.720808e-62 1.070910e-61 4.127798e-61 2.819152e-62 7.114089e-62 -6.767763e-63 2.385712e-63 -7.734260e-65 2.742574e-65 2.044289e-66 3.931644e-65 6.785556e-66 1.764502e-64 -4.665405e-64 5.642660e-63 -1.026188e-61 8.018367e-62 -5.402683e-61 -9.235682e-62 -9.038607e-61 -1.442080e-60 -2.066227e-61 1.778838e-60 -2.895374e-58 -2.599214e-57 3.114645e-56 -1.717752e-56 1.641273e-57 3.373265e-59 1.398155e-60 7.649435e-62 5.451491e-63 2.211965e-64 8.156635e-66 -4.071778e-68 1.969485e-69 -6.078429e-70 9.669488e-71 3.882095e-72 -2.560948e-72 1.255494e-73 -9.361063e-75 3.504727e-76 -1.164161e-77 2.396919e-79 -4.424033e-81 5.596261e-83 -6.459834e-85 4.683251e-87 -9.962530e-89 -2.559903e-90 -5.438843e-92 -1.415865e-93 -1.795259e-95 -2.705874e-97 -2.250075e-99 -1.266621e-101 6.369738e-104 3.550912e-105 5.411202e-107 7.717708e-109 7.750494e-111 7.899327e-113 6.386240e-115 5.232108e-117 3.590014e-119 1.946733e-121 -1.590977e-122 6.591455e-121 -5.251823e-120 7.496567e-118 4.870964e-116 6.947929e-114 8.039612e-112 9.254590e-110 9.639795e-108 9.550024e-106 8.352877e-104 6.917514e-102 4.894441e-100 3.309854e-98 1.856037e-96 1.023069e-94 4.565024e-93 2.081418e-91 7.510009e-90 2.878866e-88 8.513915e-87 2.772027e-85 6.750177e-84 1.869947e-82 3.723521e-81 
3.767188e-78 6.023107e-77 1.153666e-75 1.412059e-74 2.146811e-73 1.882869e-72 2.154819e-71 1.202597e-70 9.460863e-70 2.651107e-69 1.213632e-68 1.186018e-68 2.512840e-68 1.380756e-68 2.225751e-68 1.050133e-68 1.587771e-68 7.331901e-69 1.130768e-68 5.510403e-69 9.096957e-69 4.974196e-69 9.071891e-69 6.229858e-69 1.897240e-68 6.637505e-68 6.053298e-67 1.691451e-66 8.346270e-66 8.233497e-66 3.563518e-65 8.102628e-65 1.513135e-63 1.085019e-62 1.072749e-61 3.786079e-61 2.276322e-60 2.563155e-60 8.449870e-60 3.781631e-61 1.187464e-60 -1.653937e-61 4.561008e-62 -3.164151e-63 6.202336e-64 7.979349e-65 1.121429e-63 7.526184e-64 5.867372e-63 5.013223e-62 6.031228e-62 1.766050e-60 -9.768172e-61 1.814112e-60 2.004618e-61 -3.046631e-60 -1.119825e-59 -5.216752e-60 5.761310e-59 3.794848e-57 2.585239e-56 -2.134593e-55 1.151834e-55 -9.851501e-57 -1.730434e-58 -7.867876e-60 -5.427924e-61 -4.185000e-62 -2.676895e-63 -1.289831e-64 -1.589655e-66 6.344646e-68 -4.964378e-69 3.001310e-70 1.040642e-71 8.394727e-72 5.274424e-73 3.601159e-74 4.000103e-76 9.633707e-78 -2.406512e-79 -4.136501e-81 -1.229655e-83 7.419823e-85 1.131929e-86 -1.324243e-87 -7.804324e-89 -2.083143e-90 -4.648260e-92 -7.268185e-94 -9.305520e-96 -8.686939e-98 -3.681941e-100 4.007801e-102 1.546112e-103 2.444779e-105 3.255313e-107 3.447858e-109 3.368639e-111 2.859608e-113 2.275875e-115 1.631745e-117 8.597417e-120 -6.717733e-121 2.468296e-119 -4.150675e-118 1.658723e-116 6.990670e-117 5.032917e-113 5.973337e-111 9.140968e-109 1.156757e-106 1.414121e-104 1.461448e-102 1.428989e-100 1.151787e-98 8.818774e-97 5.428594e-95 3.268082e-93 1.554329e-91 7.534193e-90 2.839124e-88 1.134016e-86 3.453087e-85 1.152943e-83 2.859934e-82 8.014876e-81 1.611693e-79 
1.596722e-76 2.556762e-75 4.834086e-74 5.886731e-73 8.741262e-72 7.585112e-71 8.387481e-70 4.611515e-69 3.464020e-68 9.539713e-68 4.102837e-67 3.945305e-67 7.719825e-67 4.139524e-67 6.147149e-67 2.816256e-67 3.923155e-67 1.756898e-67 2.499844e-67 1.184161e-67 1.806423e-67 9.662214e-68 1.637931e-67 1.213846e-67 4.808540e-67 2.381161e-66 2.115874e-65 5.807533e-65 2.538759e-64 2.349026e-64 9.767167e-64 2.556402e-63 4.313675e-62 3.085402e-61 2.776039e-60 9.847576e-60 5.290141e-59 6.006196e-59 1.728460e-58 4.609535e-60 1.979431e-59 -3.428823e-60 8.326511e-61 -7.744174e-62 1.370650e-62 3.249723e-63 3.286212e-62 5.830690e-62 2.049737e-61 -5.730114e-60 3.989328e-60 -2.582644e-59 1.195194e-59 -5.212221e-60 2.076448e-62 -7.360217e-60 -8.974625e-59 -2.010817e-58 -3.896986e-57 -4.578753e-56 -2.582782e-55 1.418041e-54 -7.477044e-55 5.759886e-56 8.356229e-58 4.305701e-59 3.639431e-60 3.042534e-61 2.823394e-62 1.789556e-63 1.294860e-64 3.249931e-66 -7.131696e-68 1.543039e-69 -1.134622e-70 -2.787448e-71 -3.153969e-72 -3.344134e-73 -1.770498e-74 -8.026595e-76 -1.816098e-77 -3.224899e-79 1.101068e-81 1.204500e-82 3.163972e-84 1.777932e-86 -1.068055e-87 -4.344535e-89 -9.948876e-91 -1.627875e-92 -1.895184e-94 -1.464401e-96 2.540971e-99 2.768747e-100 6.095218e-102 8.881853e-104 1.100823e-105 1.158110e-107 1.103956e-109 9.435824e-112 7.447384e-114 5.401584e-116 2.536258e-118 -2.427041e-119 9.240744e-118 -2.000810e-116 6.603545e-115 -1.074117e-113 6.756998e-112 3.399752e-110 8.510591e-108 1.297970e-105 1.971321e-103 2.461432e-101 2.851449e-99 2.661732e-97 2.309929e-95 1.573874e-93 1.032763e-91 5.252007e-90 2.697812e-88 1.062793e-86 4.409014e-85 1.382424e-83 4.720404e-82 1.192320e-80 3.373263e-79 6.845519e-78 
6.559879e-75 1.051255e-73 1.961780e-72 2.375610e-71 3.444697e-70 2.955929e-69 3.157846e-68 1.709398e-67 1.226107e-66 3.315568e-66 1.339590e-65 1.265843e-65 2.286129e-65 1.193998e-65 1.632404e-65 7.245922e-66 9.296310e-66 4.028161e-66 5.287221e-66 2.429322e-66 3.424647e-66 1.789632e-66 2.838653e-66 2.490057e-66 1.394434e-65 8.529699e-65 7.180548e-64 1.917531e-63 7.452642e-63 6.521405e-63 2.607753e-62 7.617014e-62 1.175041e-60 8.337404e-60 6.891718e-59 2.435926e-58 1.184104e-57 1.339726e-57 3.408576e-57 4.060698e-59 3.153286e-58 -6.208654e-59 1.362912e-59 -1.461314e-60 2.713956e-61 1.191377e-61 9.354724e-61 4.628057e-60 2.381984e-59 3.527116e-58 -2.543301e-58 2.873782e-58 -7.420022e-59 1.486105e-59 9.708322e-61 -1.812603e-59 -3.979045e-58 3.793877e-58 4.808389e-56 4.782637e-55 3.282287e-54 -9.645165e-54 4.687137e-54 -3.101476e-55 -3.820179e-57 -2.063716e-58 -1.904067e-59 -1.697629e-60 -1.706800e-61 -1.241297e-62 -1.109716e-63 -5.291519e-65 -3.609258e-66 1.889209e-68 1.017988e-70 7.568954e-71 8.981480e-72 1.123900e-72 8.597484e-74 6.254991e-75 2.936792e-76 1.264570e-77 3.629696e-79 9.328743e-81 1.554659e-82 1.972534e-84 4.793327e-87 -3.874836e-88 -1.030458e-89 -1.658242e-91 -1.169816e-93 7.891670e-96 5.218841e-97 1.143103e-98 1.825944e-100 2.467998e-102 2.814953e-104 2.954728e-106 2.713256e-108 2.358844e-110 1.826419e-112 1.357801e-114 4.084200e-117 -6.876810e-118 3.258952e-116 -8.948229e-115 2.752604e-113 -5.645861e-112 2.098870e-110 -2.906495e-109 6.665171e-107 1.004690e-104 2.204155e-102 3.446781e-100 5.052951e-98 5.581182e-96 5.685353e-94 4.315464e-92 3.138226e-90 1.705875e-88 9.359807e-87 3.847328e-85 1.664186e-83 5.362810e-82 1.876197e-80 4.818573e-79 1.377304e-77 2.817765e-76 
2.649964e-73 4.247737e-72 7.815180e-71 9.404477e-70 1.331170e-68 1.128775e-67 1.165339e-66 6.206207e-66 4.253597e-65 1.128836e-64 4.285690e-64 3.979521e-64 6.624649e-64 3.370486e-64 4.233583e-64 1.821510e-64 2.147300e-64 9.010322e-65 1.088424e-64 4.857275e-65 6.313751e-65 3.233121e-65 4.861409e-65 5.811768e-65 4.506900e-64 3.045667e-63 2.414323e-62 6.252722e-62 2.173331e-61 1.823323e-61 6.987628e-61 2.184317e-60 3.157828e-59 2.216869e-58 1.714294e-57 6.034332e-57 2.704432e-56 3.066786e-56 6.994048e-56 4.679848e-58 5.290867e-57 -1.107608e-57 2.207704e-58 -2.448552e-59 5.942635e-60 5.902070e-60 3.075761e-59 -1.752420e-57 2.346692e-57 -9.004862e-57 4.701609e-57 -2.175724e-57 3.177838e-58 -3.140294e-59 2.070836e-60 -9.372452e-59 -4.171106e-57 -3.946536e-56 -5.105464e-55 -5.681298e-54 -4.513660e-53 7.567762e-53 -3.072610e-53 1.656371e-54 1.743729e-56 9.721716e-58 9.547245e-59 8.714402e-60 8.597737e-61 6.288662e-62 5.236191e-63 2.743102e-64 1.576630e-65 2.230659e-67 -7.081449e-69 -4.465391e-70 -2.498432e-71 -2.176111e-72 -1.456558e-73 -1.033373e-74 -5.487612e-76 -2.772201e-77 -1.049637e-78 -3.633233e-80 -9.472763e-82 -2.181420e-83 -3.615893e-85 -4.402345e-87 -7.138330e-90 1.248994e-90 4.091316e-92 9.159818e-94 1.571155e-95 2.410459e-97 3.118991e-99 3.778672e-101 3.989117e-103 4.012776e-105 3.581777e-107 3.073348e-109 2.368678e-111 1.768896e-113 -1.070464e-115 -6.718076e-117 1.046389e-114 -3.780004e-113 1.129002e-111 -2.569411e-110 8.855322e-109 -2.112234e-107 1.102534e-105 5.611088e-104 2.348151e-101 4.620381e-99 8.657912e-97 1.158178e-94 1.389382e-92 1.186360e-90 9.526590e-89 5.550232e-87 3.235955e-85 1.388836e-83 6.234027e-82 2.064788e-80 7.372838e-79 1.924865e-77 5.542629e-76 1.142688e-74 
1.044947e-71 1.673501e-70 3.036419e-69 3.627660e-68 5.013384e-67 4.197101e-66 4.188373e-65 2.192284e-64 1.436238e-63 3.735885e-63 1.333009e-62 1.214178e-62 1.862510e-62 9.209299e-63 1.062494e-62 4.419576e-63 4.787424e-63 1.940519e-63 2.158043e-63 9.334755e-64 1.119502e-63 5.625842e-64 8.303913e-64 1.574456e-63 1.526604e-62 1.067903e-61 7.950583e-61 1.990500e-60 6.215371e-60 5.082257e-60 1.855560e-59 6.096803e-59 8.330140e-58 5.787361e-57 4.228046e-56 1.480346e-55 6.204971e-55 7.041885e-55 1.464878e-54 9.748521e-57 9.144584e-56 -1.941214e-56 3.531042e-57 -3.800227e-58 1.699545e-58 4.752905e-58 1.267562e-56 1.836462e-55 -1.593243e-55 1.713940e-55 -5.445819e-56 1.426944e-56 -1.263889e-57 7.777848e-59 2.608873e-60 -1.624099e-58 -1.241451e-56 -1.932964e-56 5.136387e-54 6.552353e-53 6.661927e-52 -6.436527e-52 2.126604e-52 -8.599846e-54 -7.940973e-56 -4.692288e-57 -4.976026e-58 -4.410084e-59 -4.069208e-60 -2.684604e-61 -1.928590e-62 -7.937766e-64 -3.092634e-65 -1.314265e-67 1.124360e-69 3.874605e-71 5.608344e-73 -6.996606e-74 -9.613028e-75 -9.374995e-76 -5.268317e-77 -2.543244e-78 -6.393529e-80 7.803286e-83 1.291069e-82 9.142505e-84 3.892372e-85 1.416703e-86 3.911891e-88 1.003218e-89 2.062504e-91 4.041288e-93 6.538814e-95 1.021773e-96 1.346397e-98 1.727813e-100 1.900890e-102 2.048126e-104 1.917668e-106 1.764925e-108 1.427443e-110 1.161926e-112 -9.373775e-114 9.991172e-115 2.788601e-113 -1.533822e-111 4.500742e-110 -1.114948e-108 3.711395e-107 -9.913629e-106 3.749826e-104 -8.064421e-103 1.958185e-100 4.381428e-98 1.252737e-95 2.113565e-93 3.188490e-91 3.091475e-89 2.805632e-87 1.748963e-85 1.093661e-83 4.885823e-82 2.285482e-80 7.759520e-79 2.833822e-77 7.505420e-76 2.179444e-74 4.521036e-73 
4.064776e-70 6.502600e-69 1.161666e-67 1.377561e-66 1.857129e-65 1.534642e-64 1.479819e-63 7.611732e-63 4.766300e-62 1.215434e-61 4.073055e-61 3.642068e-61 5.136284e-61 2.470802e-61 2.609947e-61 1.051268e-61 1.042612e-61 4.092081e-62 4.173426e-62 1.755641e-62 1.935170e-62 9.644833e-63 1.494566e-62 4.879265e-62 5.289589e-61 3.716702e-60 2.608572e-59 6.326367e-59 1.780139e-58 1.455117e-58 4.985183e-58 1.672803e-57 2.201931e-56 1.523294e-55 1.066223e-54 3.753251e-54 1.492376e-53 1.731705e-53 3.315865e-53 6.008638e-55 1.748534e-54 -3.641557e-55 5.848606e-56 -5.334385e-57 7.449922e-57 -3.400403e-55 5.837204e-55 -8.501544e-54 4.977180e-54 -2.426696e-54 4.956334e-55 -7.778840e-56 3.735203e-57 -1.226477e-58 1.480145e-59 -1.306005e-57 -2.044811e-55 -4.742788e-54 -5.872717e-53 -9.019968e-52 -1.078980e-50 6.521610e-51 -1.620193e-51 4.587436e-53 3.754497e-55 2.669200e-56 3.029796e-57 2.558827e-58 2.088208e-59 1.247017e-60 7.312817e-62 2.733206e-63 7.077468e-65 5.505700e-67 -7.157102e-69 -2.085057e-70 -6.314403e-72 -4.052516e-73 -2.282102e-74 -1.581251e-75 -8.798939e-77 -5.097305e-78 -2.334205e-79 -1.051869e-80 -3.795522e-82 -1.321587e-83 -3.749235e-85 -1.018584e-86 -2.287534e-88 -4.899964e-90 -8.763833e-92 -1.488371e-93 -2.118845e-95 -2.834877e-97 -3.147308e-99 -3.170221e-101 -2.462477e-103 -1.356680e-105 1.265027e-108 1.607121e-109 2.681149e-111 1.476043e-112 -4.648220e-112 1.141933e-112 3.568195e-112 -5.920929e-110 1.733353e-108 -4.578701e-107 1.504655e-105 -4.280893e-104 1.566479e-102 -4.796817e-101 2.989775e-99 3.285167e-97 1.759250e-94 3.808150e-92 7.364742e-90 8.192746e-88 8.354609e-86 5.580278e-84 3.712665e-82 1.726695e-80 8.361648e-79 2.909935e-77 1.081459e-75 2.905358e-74 8.476873e-73 1.769020e-71 
1.554380e-68 2.480022e-67 4.365058e-66 5.131100e-65 6.751883e-64 5.500151e-63 5.128004e-62 2.588339e-61 1.550172e-60 3.868904e-60 1.218146e-59 1.066959e-59 1.383401e-59 6.455810e-60 6.244389e-60 2.428215e-60 2.205838e-60 8.360335e-61 7.825284e-61 3.195277e-61 3.241365e-61 1.624800e-61 3.008452e-61 1.638915e-60 1.841528e-59 1.280806e-58 8.499692e-58 1.991219e-57 5.072742e-57 4.255073e-57 1.351526e-56 4.587932e-56 5.869949e-55 4.056436e-54 2.753735e-53 9.776514e-53 3.754561e-52 4.477643e-52 8.088079e-52 2.827282e-53 3.729657e-53 -7.367579e-54 1.057797e-54 -5.031249e-56 3.222581e-54 6.948686e-53 -1.137891e-52 2.923772e-52 -1.040115e-52 2.943601e-53 -3.856733e-54 4.043477e-55 -1.375167e-56 3.332368e-58 9.967506e-59 1.249116e-56 -1.276398e-54 -4.384226e-53 1.013501e-51 9.476926e-51 1.854288e-49 -7.006665e-50 1.335330e-50 -2.296455e-52 -1.830190e-54 -1.822743e-55 -2.168161e-56 -1.618606e-57 -1.153743e-58 -5.719865e-60 -2.760549e-61 -7.935211e-63 -1.640336e-64 -9.643749e-67 1.761189e-69 4.081417e-71 9.390756e-73 3.453181e-74 8.612069e-76 3.231406e-78 -1.560921e-78 -1.539165e-79 -7.108448e-81 -2.662782e-82 -2.965481e-84 2.360628e-85 2.221814e-86 1.185360e-87 4.495679e-89 1.509796e-90 4.027118e-92 1.009167e-93 2.081630e-95 4.121418e-97 6.859801e-99 1.108002e-100 1.527837e-102 2.057644e-104 2.394647e-106 2.732584e-108 2.535028e-110 5.503740e-111 -2.145414e-110 8.606410e-111 -2.416502e-110 -2.217896e-108 6.495584e-107 -1.819647e-105 5.941043e-104 -1.789829e-102 6.489106e-101 -2.190635e-99 9.800162e-98 -3.288646e-96 1.964486e-93 5.348516e-91 1.593071e-88 2.059158e-86 2.440142e-84 1.739243e-82 1.243953e-80 5.995852e-79 3.018885e-77 1.073116e-75 4.067355e-74 1.105475e-72 3.244876e-71 6.798966e-70 
5.882163e-67 9.361666e-66 1.620002e-64 1.888118e-63 2.421678e-62 1.945329e-61 1.751920e-60 8.681622e-60 4.968652e-59 1.214830e-58 3.587620e-58 3.082826e-58 3.662869e-58 1.661385e-58 1.465094e-58 5.515165e-59 4.566139e-59 1.677744e-59 1.433257e-59 5.711362e-60 5.305553e-60 2.781476e-60 7.217402e-60 5.725775e-59 6.419915e-58 4.409977e-57 2.777501e-56 6.308791e-56 1.454188e-55 1.299656e-55 3.734454e-55 1.256170e-54 1.587990e-53 1.109600e-52 7.388329e-52 2.695670e-51 1.010765e-50 1.280411e-50 2.195004e-50 1.446544e-51 9.318425e-52 -1.699396e-52 2.000806e-53 -3.837838e-53 -6.019666e-52 -6.028763e-51 7.668687e-51 -7.996489e-51 1.820177e-51 -3.048017e-52 2.541269e-53 -1.761184e-54 2.682736e-56 -4.406317e-58 -5.339056e-57 7.980833e-55 -7.478529e-54 -2.453598e-51 -1.671862e-49 1.029275e-50 -3.462505e-48 8.874391e-49 -1.227164e-49 1.001380e-51 1.036613e-53 1.642745e-54 1.849442e-55 1.219416e-56 7.207317e-58 3.065970e-59 1.125388e-60 2.682489e-62 3.170148e-64 1.705531e-66 -9.345567e-69 -1.473636e-70 -2.183230e-72 -8.269941e-74 -2.918214e-75 -1.474547e-76 -6.544546e-78 -3.375017e-79 -1.463076e-80 -6.689099e-82 -2.544016e-83 -9.811943e-85 -3.179931e-86 -1.029578e-87 -2.840006e-89 -7.763069e-91 -1.825585e-92 -4.225887e-94 -8.467451e-96 -1.661937e-97 -2.838836e-99 -4.738437e-101 -6.924780e-103 -9.882909e-105 -1.242941e-106 -1.516894e-108 -9.618293e-110 2.471914e-109 -1.010922e-108 5.734551e-109 -3.028357e-108 -7.894196e-107 2.327899e-105 -6.862689e-104 2.252434e-102 -7.124718e-101 2.609282e-99 -9.528318e-98 4.429431e-96 -2.397562e-94 3.101822e-92 6.247215e-90 3.544902e-87 5.361037e-85 7.312934e-83 5.556713e-81 4.221391e-79 2.107595e-77 1.093646e-75 3.970219e-74 1.525102e-72 4.193554e-71 1.232883e-69 2.593893e-68 
2.204075e-65 3.492342e-64 5.947889e-63 6.861703e-62 8.586822e-61 6.790564e-60 5.913068e-59 2.871489e-58 1.572012e-57 3.757508e-57 1.041446e-56 8.755808e-57 9.536920e-57 4.189821e-57 3.370254e-57 1.223795e-57 9.241817e-58 3.282104e-58 2.561740e-58 9.944617e-59 8.490793e-59 4.994684e-59 2.078357e-58 2.046412e-57 2.253112e-56 1.523140e-55 9.142430e-55 2.003373e-54 4.192952e-54 4.134979e-54 1.059788e-53 3.515867e-53 4.437600e-52 3.149265e-51 2.088466e-50 7.873462e-50 2.949122e-49 4.002410e-49 6.745189e-49 7.002616e-50 2.883883e-50 -4.671593e-51 6.385311e-52 4.905729e-51 5.024843e-50 3.652656e-49 -3.160346e-49 1.910052e-49 -2.618712e-50 2.672814e-51 -1.467221e-52 7.300634e-54 -9.307585e-56 1.023178e-57 1.546005e-56 2.656475e-53 3.095725e-51 1.878288e-49 1.276583e-47 -5.713720e-48 6.497132e-47 -1.141934e-47 1.216580e-48 -9.653430e-52 -8.222199e-53 -1.723082e-53 -1.770236e-54 -9.777475e-56 -4.928692e-57 -1.701247e-58 -5.178752e-60 -9.942920e-62 -1.189875e-63 -7.956752e-66 -7.082466e-69 -1.040404e-70 -1.703948e-72 -6.225185e-74 -2.256760e-75 -1.149080e-76 -5.236077e-78 -2.787481e-79 -1.266424e-80 -6.177579e-82 -2.527239e-83 -1.065250e-84 -3.753959e-86 -1.334820e-87 -3.981590e-89 -1.185626e-90 -2.981132e-92 -7.444359e-94 -1.582428e-95 -3.333092e-97 -6.027294e-99 -1.078956e-100 -1.671848e-102 -2.562926e-104 -3.426978e-106 -4.092213e-108 -3.536799e-108 1.186783e-107 -4.873634e-107 3.594853e-107 -2.298939e-106 -2.748254e-105 8.144798e-104 -2.531955e-102 8.385559e-101 -2.787338e-99 1.041096e-97 -4.134180e-96 2.033368e-94 -1.238048e-92 9.262695e-91 -4.001730e-89 7.384734e-86 1.320315e-83 2.179431e-81 1.751838e-79 1.428525e-77 7.343329e-76 3.943234e-74 1.455613e-72 5.679337e-71 1.574857e-69 4.644129e-68 9.787363e-67 