# vtk DataFile Version 2.0
Comment goes here
ASCII

DATASET STRUCTURED_POINTS
DIMENSIONS    128   128   1

ORIGIN    0.000   0.000   0.000
SPACING   0.0156250.015625   1.000

POINT_DATA   16384
SCALARS Concentration double
LOOKUP_TABLE default

2.683732e-152 3.466539e-150 4.223049e-148 4.341939e-146 4.166818e-144 3.181355e-142 2.233684e-140 1.115786e-138 4.973003e-137 1.198975e-135 2.234293e-134 5.136321e-134 1.211717e-133 1.485741e-133 3.152901e-133 2.364777e-133 3.411822e-133 2.723515e-133 4.646984e-133 3.520921e-133 6.040987e-133 4.323902e-133 7.492888e-133 5.021321e-133 8.713372e-133 5.295826e-133 8.746397e-133 4.218840e-133 4.628197e-133 2.268792e-134 1.678586e-135 3.604751e-137 1.189388e-138 1.738611e-140 3.673581e-142 4.182605e-144 6.550387e-146 6.236849e-148 7.787669e-150 6.470989e-152 6.641516e-154 4.911812e-156 4.118544e-158 2.690875e-160 1.786658e-162 9.969026e-165 5.077069e-167 2.332704e-169 8.925364e-172 3.710740e-174 1.638917e-176 9.981922e-179 6.049625e-181 2.750572e-183 1.170163e-185 1.369443e-186 5.444860e-189 5.886833e-191 9.986646e-194 1.448407e-196 5.926550e-199 1.320911e-201 -1.689491e-203 -1.313584e-205 -3.117974e-208 -1.844365e-211 6.880820e-215 -9.826653e-219 4.164726e-221 -1.378595e-224 2.034379e-227 -2.417579e-231 1.227764e-233 -8.425372e-237 2.262954e-239 4.581515e-243 2.530141e-245 -1.397561e-248 8.066140e-252 -7.032264e-255 6.476261e-258 -6.109675e-261 1.797851e-263 1.561020e-267 2.616967e-264 1.197879e-261 5.389189e-259 2.496843e-256 1.165757e-253 5.511954e-251 2.658107e-248 1.276467e-245 6.282803e-243 3.035165e-240 1.504397e-237 7.236416e-235 3.567240e-232 1.692534e-229 8.209392e-227 3.810454e-224 1.801968e-221 8.122990e-219 3.715834e-216 1.616112e-213 7.101325e-211 2.961623e-208 1.242015e-205 4.937353e-203 1.963919e-200 7.396219e-198 2.772832e-195 9.828177e-193 3.449527e-190 1.142494e-187 3.727683e-185 1.144839e-182 3.447040e-180 9.737298e-178 2.684663e-175 6.913366e-173 1.730081e-170 4.019074e-168 9.032590e-166 1.868659e-163 3.721624e-161 6.744404e-159 1.169990e-156 1.817197e-154 
1.432472e-149 1.828279e-147 2.307893e-145 2.349166e-143 2.352878e-141 1.781831e-139 1.315026e-137 6.523367e-136 3.070597e-134 7.353892e-133 1.441205e-131 3.389122e-131 7.962463e-131 8.227848e-131 1.492290e-130 1.314538e-130 2.238216e-130 1.819729e-130 3.048318e-130 2.335667e-130 3.920143e-130 2.839937e-130 4.803813e-130 3.261045e-130 5.513160e-130 3.397046e-130 5.458124e-130 2.677450e-130 2.850095e-130 1.409190e-131 1.029362e-132 2.194248e-134 7.200904e-136 1.038036e-137 2.186921e-139 2.444215e-141 3.821756e-143 3.558492e-145 4.440588e-147 3.598092e-149 3.693813e-151 2.661456e-153 2.234501e-155 1.426951e-157 9.537591e-160 5.256560e-162 2.757919e-164 1.261773e-166 4.922074e-169 1.686643e-171 4.081837e-174 9.172712e-177 1.416018e-179 2.473053e-182 2.616857e-185 2.343184e-183 1.167935e-185 1.110226e-187 2.063024e-190 1.970913e-193 -3.570678e-196 8.484801e-201 1.770795e-200 9.580029e-203 1.861033e-205 8.795012e-209 -3.355623e-212 2.345398e-215 -2.648270e-218 1.869737e-221 -1.353552e-224 3.493803e-228 -9.189021e-232 -1.865064e-233 -9.943941e-237 5.039969e-241 -1.882483e-242 2.878819e-245 -4.019223e-249 -6.701388e-252 1.183058e-254 -9.341194e-258 2.954598e-260 1.637955e-265 1.345483e-261 6.115723e-259 2.787738e-256 1.300224e-253 6.191381e-251 2.959737e-248 1.457297e-245 7.073152e-243 3.548781e-240 1.728581e-237 8.709116e-235 4.209868e-232 2.102791e-229 9.988715e-227 4.893587e-224 2.265228e-221 1.078836e-218 4.831193e-216 2.219985e-213 9.555525e-211 4.208624e-208 1.730873e-205 7.263529e-203 2.838142e-200 1.128432e-197 4.165848e-195 1.560715e-192 5.412890e-190 1.900249e-187 6.154492e-185 2.012689e-182 6.047630e-180 1.830455e-177 5.064810e-175 1.408375e-172 3.557444e-170 9.009579e-168 2.055849e-165 4.692602e-163 9.548683e-161 1.938964e-158 3.460866e-156 6.148816e-154 9.420272e-152 
9.824320e-147 1.253362e-144 1.577753e-142 1.604704e-140 1.601064e-138 1.211296e-136 8.893421e-135 4.408467e-133 2.060041e-131 4.938848e-130 9.551056e-129 2.268272e-128 5.235610e-128 5.467962e-128 9.727290e-128 8.665614e-128 1.444528e-127 1.188776e-127 1.945583e-127 1.510686e-127 2.471394e-127 1.817016e-127 2.987807e-127 2.062129e-127 3.378678e-127 2.121241e-127 3.291447e-127 1.649508e-127 1.688816e-127 8.459979e-129 6.045531e-130 1.283166e-131 4.150170e-133 5.911624e-135 1.229341e-136 1.349907e-138 2.082325e-140 1.895005e-142 2.328496e-144 1.835287e-146 1.848516e-148 1.291414e-150 1.057273e-152 6.556899e-155 4.249917e-157 2.307412e-159 1.194437e-161 5.610066e-164 2.283626e-166 8.513947e-169 2.153707e-171 4.799426e-174 2.608020e-177 -2.420840e-180 -1.393171e-183 2.972920e-180 2.044473e-182 1.426216e-184 4.214686e-187 7.492156e-190 8.301035e-193 -5.322989e-196 -1.174343e-197 -4.861942e-200 -7.457854e-203 -2.612258e-206 1.319209e-209 -1.080339e-212 1.343294e-215 -1.243999e-218 1.074790e-221 -2.227810e-225 -8.532565e-229 -1.199466e-230 -1.196678e-233 -2.681346e-237 5.631745e-239 -1.362715e-241 8.145383e-245 -4.220432e-248 2.199917e-251 -1.031391e-254 3.891898e-257 5.283974e-261 5.736120e-259 2.664129e-256 1.248346e-253 5.997469e-251 2.952203e-248 1.452078e-245 7.382584e-243 3.672175e-240 1.895700e-237 9.423093e-235 4.864974e-232 2.391029e-229 1.219089e-226 5.870154e-224 2.925648e-221 1.369516e-218 6.616531e-216 2.990708e-213 1.390815e-210 6.033650e-208 2.684290e-205 1.111371e-202 4.703458e-200 1.848454e-197 7.402049e-195 2.746358e-192 1.035116e-189 3.605706e-187 1.272183e-184 4.135923e-182 1.358118e-179 4.093976e-177 1.243147e-174 3.448968e-172 9.613517e-170 2.433483e-167 6.172652e-165 1.410748e-162 3.222472e-160 6.564130e-158 1.332777e-155 2.380145e-153 4.224681e-151 6.472623e-149 
6.585937e-144 8.395497e-142 1.054241e-139 1.070992e-137 1.064839e-135 8.045137e-134 5.878478e-132 2.910781e-130 1.350788e-128 3.240937e-127 6.186326e-126 1.483232e-125 3.364335e-125 3.549799e-125 6.195385e-125 5.579031e-125 9.106942e-125 7.581775e-125 1.212533e-124 9.534407e-125 1.520545e-124 1.133607e-124 1.812240e-124 1.270355e-124 2.017280e-124 1.288847e-124 1.931306e-124 9.872501e-125 9.720914e-125 4.926388e-126 3.441888e-127 7.258007e-129 2.312254e-130 3.243375e-132 6.653320e-134 7.140342e-136 1.085715e-137 9.580166e-140 1.157592e-141 8.767789e-144 8.644767e-146 5.748572e-148 4.568526e-150 2.678147e-152 1.666038e-154 8.605303e-157 4.340760e-159 2.026577e-161 8.795993e-164 3.607743e-166 1.151354e-168 3.118753e-171 6.576692e-174 1.355738e-176 6.506099e-180 2.199223e-177 1.588856e-179 9.386954e-182 3.127976e-184 6.517982e-187 8.795405e-190 1.366698e-192 6.017229e-195 1.747544e-197 2.140997e-200 5.299761e-204 -3.359341e-207 2.966063e-210 -4.233940e-213 4.989235e-216 -7.034546e-219 4.331945e-222 -1.751792e-225 8.443062e-228 -9.556252e-231 1.236690e-233 -7.173511e-236 2.279372e-238 -1.654309e-241 9.245538e-245 8.276039e-249 -9.944264e-253 4.550069e-254 1.613668e-257 2.091160e-256 1.014298e-253 4.993877e-251 2.514954e-248 1.298798e-245 6.653543e-243 3.524971e-240 1.811620e-237 9.673808e-235 4.934320e-232 2.618174e-229 1.313306e-226 6.845706e-224 3.350478e-221 1.700081e-218 8.063582e-216 3.953263e-213 1.806223e-210 8.501766e-208 3.721245e-205 1.672209e-202 6.975258e-200 2.976859e-197 1.177303e-194 4.747757e-192 1.771011e-189 6.714592e-187 2.349625e-184 8.331013e-182 2.718863e-179 8.964098e-177 2.710776e-174 8.257811e-172 2.296872e-169 6.417675e-167 1.627661e-164 4.135388e-162 9.464024e-160 2.163650e-157 4.410679e-155 8.956077e-153 1.599749e-150 2.837442e-148 4.345837e-146 
4.305928e-141 5.487474e-139 6.870070e-137 6.974972e-135 6.906364e-133 5.214083e-131 3.788795e-129 1.875325e-127 8.635022e-126 2.075077e-124 3.905546e-123 9.461060e-123 2.106487e-122 2.247403e-122 3.843066e-122 3.501475e-122 5.588398e-122 4.711335e-122 7.349358e-122 5.858705e-122 9.088612e-122 6.879160e-122 1.066359e-121 7.602436e-122 1.166309e-121 7.594788e-122 1.094759e-121 5.718439e-122 5.389043e-122 2.768781e-123 1.879838e-124 3.944397e-126 1.229467e-127 1.699204e-129 3.411950e-131 3.575658e-133 5.309550e-135 4.528340e-137 5.317991e-139 3.843622e-141 3.652546e-143 2.280435e-145 1.719710e-147 9.294758e-150 5.335058e-152 2.520049e-154 1.159387e-156 5.139568e-159 2.190648e-161 9.667922e-164 3.572844e-166 1.114474e-168 2.430083e-172 8.875559e-175 -6.068977e-177 1.108925e-174 8.929274e-177 4.056464e-179 1.553574e-181 3.614920e-184 6.347391e-187 2.142052e-190 -1.608583e-192 -4.199215e-195 -4.048328e-198 -8.675405e-202 4.689614e-205 -3.497051e-208 4.923633e-211 -6.114163e-214 1.027571e-216 -8.669197e-220 9.203482e-223 2.100600e-224 6.903987e-228 -3.345381e-231 5.289590e-233 -2.065354e-235 2.455678e-238 -2.291484e-241 7.845930e-245 3.545561e-249 4.389397e-251 2.828485e-254 5.967817e-254 3.135378e-251 1.682201e-248 9.092723e-246 5.054068e-243 2.734398e-240 1.536046e-237 8.222529e-235 4.596316e-232 2.417147e-229 1.329257e-226 6.824895e-224 3.659195e-221 1.823695e-218 9.463477e-216 4.553698e-213 2.273087e-210 1.050726e-207 5.018507e-205 2.217742e-202 1.008565e-199 4.240730e-197 1.827715e-194 7.277178e-192 2.958591e-189 1.109950e-186 4.236435e-184 1.489698e-181 5.310816e-179 1.740401e-176 5.763136e-174 1.748860e-171 5.345446e-169 1.491059e-166 4.176260e-164 1.061588e-161 2.701286e-159 6.192491e-157 1.416637e-154 2.891178e-152 5.869357e-150 1.049051e-147 1.858625e-145 2.847084e-143 
2.750751e-138 3.503737e-136 4.374141e-134 4.437129e-132 4.376319e-130 3.300742e-128 2.385732e-126 1.180145e-124 5.392828e-123 1.297821e-121 2.408832e-120 5.894501e-120 1.288376e-119 1.389520e-119 2.328253e-119 2.145586e-119 3.348325e-119 2.857414e-119 4.347788e-119 3.512101e-119 5.299575e-119 4.070080e-119 6.117195e-119 4.432366e-119 6.568371e-119 4.355641e-119 6.038370e-119 3.219595e-119 2.903083e-119 1.511125e-120 9.959739e-122 2.077646e-123 6.327738e-125 8.603357e-127 1.688124e-128 1.722822e-130 2.492605e-132 2.044794e-134 2.326492e-136 1.590471e-138 1.450010e-140 8.360582e-143 5.934487e-145 2.865105e-147 1.483930e-149 6.062664e-152 2.404724e-154 9.436906e-157 3.706797e-159 1.669299e-161 7.282431e-164 3.650761e-166 1.285687e-168 -3.887946e-172 4.424728e-174 3.089015e-172 2.174787e-174 8.197889e-177 3.233689e-179 8.782331e-182 2.336325e-184 4.431983e-187 7.188467e-190 7.478368e-193 4.479065e-196 6.717984e-200 -3.249785e-203 1.063023e-206 -2.080504e-209 2.718478e-212 -6.455941e-215 1.010249e-217 1.572714e-220 1.354905e-221 5.500985e-225 -6.250382e-228 -1.096041e-230 7.035084e-233 -1.137388e-235 1.483585e-238 -6.818448e-242 4.837824e-245 3.736445e-248 3.311406e-251 1.408505e-251 8.393658e-249 5.035079e-246 3.009128e-243 1.823856e-240 1.060589e-237 6.352738e-235 3.580450e-232 2.098873e-229 1.146041e-226 6.531697e-224 3.449390e-221 1.900722e-218 9.680221e-216 5.131623e-213 2.511635e-210 1.275141e-207 5.975171e-205 2.892965e-202 1.292700e-199 5.944196e-197 2.522333e-194 1.096998e-191 4.401164e-189 1.802720e-186 6.806365e-184 2.613813e-181 9.240397e-179 3.310729e-176 1.089789e-173 3.623157e-171 1.103490e-168 3.383270e-166 9.464923e-164 2.656915e-161 6.768956e-159 1.724835e-156 3.960420e-154 9.065584e-152 1.852038e-149 3.759045e-147 6.721666e-145 1.189671e-142 1.822235e-140 
1.714311e-135 2.183187e-133 2.716861e-131 2.754678e-129 2.705126e-127 2.039158e-125 1.465283e-123 7.247439e-122 3.284656e-120 7.920576e-119 1.448711e-117 3.582705e-117 7.681764e-117 8.379118e-117 1.374535e-116 1.281864e-116 1.953993e-116 1.688893e-116 2.503531e-116 2.050518e-116 3.005196e-116 2.343429e-116 3.408824e-116 2.512178e-116 3.588303e-116 2.425214e-116 3.224996e-116 1.756966e-116 1.510866e-116 7.978096e-118 5.082704e-119 1.054971e-120 3.124913e-122 4.179146e-124 7.972183e-126 7.909933e-128 1.108572e-129 8.709938e-132 9.535781e-134 6.109296e-136 5.300579e-138 2.766706e-140 1.829076e-142 7.531925e-145 3.434198e-147 1.089587e-149 3.436807e-152 1.001249e-154 3.233959e-157 1.187429e-159 4.848377e-162 2.628379e-164 1.370879e-166 1.511417e-168 -1.166463e-171 5.966527e-170 2.985254e-172 6.308782e-175 1.851748e-177 3.409019e-180 7.081860e-183 1.012095e-185 1.367952e-188 1.258060e-191 8.312005e-195 3.961925e-198 1.813198e-201 5.056734e-204 2.352408e-207 3.399684e-210 -3.632839e-213 1.345705e-216 2.164085e-217 5.149273e-219 3.607149e-222 3.058326e-225 -2.731712e-228 -3.660984e-231 1.068868e-233 -9.862959e-237 1.441179e-239 1.283111e-242 2.899776e-245 2.902652e-248 2.504461e-249 1.765479e-246 1.267525e-243 8.561606e-241 5.883941e-238 3.708754e-235 2.424542e-232 1.443031e-229 9.003781e-227 5.108911e-224 3.048282e-221 1.655821e-218 9.444834e-216 4.914155e-213 2.675385e-210 1.331478e-207 6.902682e-205 3.277889e-202 1.613694e-199 7.289196e-197 3.397033e-194 1.454426e-191 6.394672e-189 2.584756e-186 1.068123e-183 4.058170e-181 1.569659e-178 5.578441e-176 2.010245e-173 6.646448e-171 2.219753e-168 6.785491e-166 2.087579e-163 5.857631e-161 1.648307e-158 4.209265e-156 1.074175e-153 2.470791e-151 5.658964e-149 1.157489e-146 2.348553e-144 4.202435e-142 7.428710e-140 1.138119e-137 
1.043443e-132 1.328464e-130 1.647990e-128 1.669963e-126 1.632898e-124 1.230105e-122 8.788242e-121 4.345985e-119 1.953602e-117 4.720381e-116 8.508145e-115 2.126226e-114 4.472032e-114 4.932890e-114 7.921853e-114 7.475061e-114 1.112894e-113 9.740512e-114 1.406461e-113 1.167742e-113 1.661913e-113 1.315468e-113 1.851525e-113 1.387366e-113 1.909472e-113 1.314826e-113 1.676475e-113 9.327940e-114 7.646354e-114 4.097105e-115 2.519699e-116 5.207599e-118 1.497410e-119 1.971515e-121 3.647372e-123 3.521369e-125 4.765278e-127 3.587648e-129 3.763950e-131 2.257712e-133 1.854939e-135 8.710603e-138 5.336182e-140 1.823616e-142 7.247763e-145 1.583504e-147 3.744233e-150 5.926482e-153 1.784915e-155 2.975515e-158 1.331011e-160 4.776709e-163 1.624103e-165 -8.322826e-167 -3.182346e-169 7.381307e-168 9.007332e-171 8.358192e-174 8.153089e-177 6.554624e-180 8.624076e-183 3.837434e-186 2.933744e-189 -1.182693e-192 -2.879091e-194 -2.103889e-196 -6.768609e-199 -2.000308e-201 -3.005296e-204 -3.809903e-207 -9.693974e-211 -6.571232e-215 7.090343e-215 1.156643e-216 1.843229e-219 -3.588156e-222 1.538756e-225 -4.148303e-229 3.697168e-233 1.076813e-234 5.663716e-237 9.594866e-240 1.630129e-242 1.749242e-245 3.782852e-247 3.326338e-244 2.925655e-241 2.314437e-238 1.809571e-235 1.258420e-232 8.950779e-230 5.685247e-227 3.758355e-224 2.231894e-221 1.387861e-218 7.794381e-216 4.584128e-213 2.446191e-210 1.363208e-207 6.919412e-205 3.653042e-202 1.762180e-199 8.801289e-197 4.026522e-194 1.898397e-191 8.213213e-189 3.645184e-186 1.486192e-183 6.188579e-181 2.368223e-178 9.216848e-176 3.295251e-173 1.193371e-170 3.965220e-168 1.329434e-165 4.080405e-163 1.259011e-160 3.544207e-158 9.993358e-156 2.558422e-153 6.536558e-151 1.506297e-148 3.451131e-146 7.067616e-144 1.433344e-141 2.566470e-139 4.530846e-137 6.942543e-135 
6.197182e-130 7.889057e-128 9.753949e-126 9.880271e-124 9.617314e-122 7.242000e-120 5.142572e-118 2.543345e-116 1.133556e-114 2.745272e-113 4.874317e-112 1.231109e-111 2.539177e-111 2.832740e-111 4.451699e-111 4.250800e-111 6.178119e-111 5.476283e-111 7.697842e-111 6.479609e-111 8.948485e-111 7.190633e-111 9.784410e-111 7.455368e-111 9.876900e-111 6.930073e-111 8.461987e-111 4.809497e-111 3.752524e-111 2.041339e-112 1.209218e-113 2.489035e-115 6.932830e-117 8.981449e-119 1.608430e-120 1.508438e-122 1.968303e-124 1.414768e-126 1.421970e-128 7.925075e-131 6.181688e-133 2.565314e-135 1.472749e-137 3.935217e-140 1.420918e-142 1.436426e-145 3.387681e-148 -2.980016e-151 1.857167e-153 -4.723876e-156 1.880757e-158 -3.226443e-161 2.213279e-164 8.535508e-165 6.270667e-167 6.466321e-166 -1.545679e-168 -4.139587e-172 -3.120241e-175 -6.421093e-179 -1.377787e-180 7.428176e-184 5.260205e-188 1.063273e-189 8.747773e-192 5.610714e-194 1.993898e-196 6.232414e-199 1.280720e-201 2.042819e-204 1.016065e-207 2.987714e-211 2.936110e-212 1.817519e-214 -4.235531e-218 2.321780e-220 3.242140e-223 3.259621e-226 -4.333677e-230 2.845136e-232 1.860280e-234 4.159652e-237 6.260942e-240 7.279968e-243 4.474657e-245 4.861041e-242 5.903652e-239 5.509982e-236 5.148392e-233 3.931160e-230 3.120313e-227 2.103323e-224 1.496146e-221 9.256232e-219 6.061883e-216 3.507416e-213 2.143108e-210 1.169733e-207 6.710549e-205 3.466803e-202 1.872020e-199 9.158743e-197 4.656687e-194 2.155022e-191 1.030635e-188 4.501406e-186 2.020905e-183 8.304788e-181 3.490392e-178 1.344536e-175 5.271978e-173 1.895302e-170 6.904686e-168 2.304804e-165 7.763186e-163 2.391791e-160 7.405420e-158 2.091081e-155 5.910225e-153 1.516735e-150 3.880611e-148 8.958656e-146 2.053525e-143 4.210655e-141 8.535638e-139 1.529456e-136 2.696440e-134 4.132818e-132 
3.592803e-127 4.573334e-125 5.634932e-123 5.705974e-121 5.528525e-119 4.161588e-117 2.937018e-115 1.452820e-113 6.419364e-112 1.558507e-110 2.725527e-109 6.957547e-109 1.406987e-108 1.587559e-108 2.440958e-108 2.358674e-108 3.345777e-108 3.003527e-108 4.108901e-108 3.506459e-108 4.697398e-108 3.832017e-108 5.038898e-108 3.904460e-108 4.976665e-108 3.558425e-108 4.158828e-108 2.415012e-108 1.792456e-108 9.911745e-110 5.646931e-111 1.160455e-112 3.124084e-114 3.996395e-116 6.907987e-118 6.325270e-120 7.929590e-122 5.482313e-124 5.255628e-126 2.752772e-128 2.029500e-130 7.575354e-133 4.078448e-135 8.666887e-138 2.983439e-140 4.117408e-144 5.730909e-146 -1.529079e-148 5.319411e-151 -1.685429e-153 5.553111e-156 -1.647752e-158 2.476116e-161 -7.592140e-163 -5.448869e-165 5.507348e-164 -2.902706e-166 2.894910e-169 -4.874382e-172 -7.825698e-176 5.717258e-178 -4.533471e-181 1.000010e-184 -3.069567e-187 -2.432468e-189 -1.442780e-191 -5.705286e-194 -1.874740e-196 -5.315997e-199 -1.080462e-201 -1.957141e-204 -4.611087e-208 1.155454e-209 2.058619e-212 -1.970198e-215 -6.017453e-218 -1.329864e-220 -2.703760e-223 -3.194142e-226 -1.848415e-229 2.263839e-232 7.772949e-235 1.188371e-237 1.395612e-240 5.004776e-243 7.246024e-240 1.209887e-236 1.354034e-233 1.475525e-230 1.247649e-227 1.084126e-224 7.808749e-222 5.894656e-219 3.821132e-216 2.609103e-213 1.562718e-210 9.846184e-208 5.518529e-205 3.240643e-202 1.709496e-199 9.400416e-197 4.676855e-194 2.412438e-191 1.131790e-188 5.475700e-186 2.418639e-183 1.096024e-180 4.546273e-178 1.925179e-175 7.473776e-173 2.948254e-170 1.066769e-167 3.904900e-165 1.310431e-162 4.430110e-160 1.370847e-157 4.255786e-155 1.205920e-152 3.414447e-150 8.786352e-148 2.250064e-145 5.204961e-143 1.193192e-140 2.449998e-138 4.962840e-136 8.900023e-134 1.566599e-131 2.401917e-129 
2.032721e-124 2.587261e-122 3.176865e-120 3.215887e-118 3.101423e-116 2.333851e-114 1.636893e-112 8.098915e-111 3.547458e-109 8.634213e-108 1.487197e-106 3.836352e-106 7.607250e-106 8.679530e-106 1.305786e-105 1.276515e-105 1.767373e-105 1.606312e-105 2.138758e-105 1.849719e-105 2.403859e-105 1.989955e-105 2.528864e-105 1.991716e-105 2.442769e-105 1.778955e-105 1.990419e-105 1.180193e-105 8.335627e-106 4.684021e-107 2.566623e-108 5.263942e-110 1.370439e-111 1.729701e-113 2.890529e-115 2.580612e-117 3.118579e-119 2.069815e-121 1.904826e-123 9.351133e-126 6.600577e-128 2.206608e-130 1.148159e-132 1.894990e-135 6.981158e-138 -3.742515e-141 1.649399e-143 -4.830270e-146 1.401360e-148 -4.484437e-151 1.269288e-153 -4.331429e-156 1.290223e-158 8.617729e-161 5.075102e-163 6.462722e-162 -2.346255e-164 4.596362e-167 -1.179560e-169 1.620482e-172 -2.189950e-175 1.256827e-178 -3.007383e-182 9.720766e-185 6.556853e-187 3.499295e-189 1.405714e-191 4.605600e-194 1.421558e-196 3.340548e-199 8.706433e-202 1.564267e-204 3.826404e-207 1.962597e-210 -3.795368e-214 -9.228026e-217 -1.833752e-219 -4.129268e-222 -6.257877e-225 -7.609460e-228 -3.519249e-231 6.372405e-234 1.886019e-236 3.127130e-239 3.176036e-241 8.568077e-238 2.422141e-234 3.114399e-231 4.138996e-228 3.775737e-225 3.667771e-222 2.778243e-219 2.255541e-216 1.516194e-213 1.089794e-210 6.709030e-208 4.390725e-205 2.514246e-202 1.519896e-199 8.156488e-197 4.588052e-194 2.314744e-191 1.215688e-188 5.769463e-186 2.831897e-183 1.262907e-180 5.789913e-178 2.420959e-175 1.034844e-172 4.044430e-170 1.607478e-167 5.849036e-165 2.153793e-162 7.261531e-160 2.466150e-157 7.660381e-155 2.386229e-152 6.782393e-150 1.924804e-147 4.964946e-145 1.273119e-142 2.950294e-140 6.765757e-138 1.390924e-135 2.815972e-133 5.053612e-131 8.882423e-129 1.362234e-126 
1.121947e-121 1.428155e-119 1.747129e-117 1.768340e-115 1.697096e-113 1.276935e-111 8.898487e-110 4.404868e-108 1.912155e-106 4.667214e-105 7.915806e-104 2.063781e-103 4.011729e-103 4.629169e-103 6.812165e-103 6.738544e-103 9.102865e-103 8.377935e-103 1.085215e-102 9.514096e-103 1.198852e-102 1.007389e-102 1.236532e-102 9.902835e-103 1.167932e-102 8.667749e-103 9.278103e-103 5.621825e-103 3.775882e-103 2.160751e-104 1.136932e-105 2.336253e-107 5.867717e-109 7.350377e-111 1.183820e-112 1.039712e-114 1.206507e-116 7.795364e-119 6.854576e-121 3.229691e-123 2.170450e-125 6.809738e-128 3.401869e-130 4.973764e-133 1.920562e-135 -1.219153e-138 5.142952e-141 -1.290044e-143 3.143305e-146 -8.737220e-149 1.873366e-151 -5.097098e-154 -3.690978e-157 -2.563733e-158 -1.179115e-160 1.128917e-159 -1.538374e-162 1.826010e-165 -3.544200e-168 4.234707e-171 -5.359147e-174 2.982484e-177 -4.570557e-180 -3.211072e-182 -1.902043e-184 -9.081591e-187 -3.432945e-189 -1.047915e-191 -3.008019e-194 -6.494395e-197 -1.404852e-199 -1.798528e-202 -2.054643e-205 -4.873985e-209 2.313346e-213 -1.233381e-215 -4.192850e-218 -1.227871e-220 -2.232196e-223 -3.821566e-226 -4.458384e-229 -4.809911e-232 -4.083818e-235 -3.998036e-238 3.905305e-239 1.394771e-235 5.804556e-232 8.289648e-229 1.246096e-225 1.221198e-222 1.275052e-219 1.018241e-216 8.683789e-214 6.077904e-211 4.528322e-208 2.877311e-205 1.935076e-202 1.136406e-199 7.017211e-197 3.843649e-194 2.198835e-191 1.128138e-188 6.005726e-186 2.890127e-183 1.434227e-180 6.470503e-178 2.992904e-175 1.263584e-172 5.440014e-170 2.143313e-167 8.567487e-165 3.138402e-162 1.160827e-159 3.935524e-157 1.341088e-154 4.184650e-152 1.306643e-149 3.727445e-147 1.059395e-144 2.740470e-142 7.031579e-140 1.632980e-137 3.744113e-135 7.708912e-133 1.559127e-130 2.800718e-128 4.913617e-126 7.539237e-124 
6.043504e-119 7.692226e-117 9.377217e-115 9.488218e-113 9.063168e-111 6.817531e-109 4.721178e-107 2.337793e-105 1.005969e-103 2.461794e-102 4.112687e-101 1.083168e-100 2.065103e-100 2.408617e-100 3.468941e-100 3.469936e-100 4.576270e-100 4.261902e-100 5.374466e-100 4.772245e-100 5.835456e-100 4.972539e-100 5.901279e-100 4.800306e-100 5.450952e-100 4.117397e-100 4.223241e-100 2.611371e-100 1.671420e-100 9.729339e-102 4.926425e-103 1.013253e-104 2.462689e-106 3.058233e-108 4.769741e-110 4.115967e-112 4.620771e-114 2.904075e-116 2.468835e-118 1.117680e-120 7.288824e-123 2.163682e-125 1.070971e-127 1.455716e-130 6.084918e-133 -3.052903e-136 1.805892e-138 -3.352933e-141 7.841263e-144 -1.848957e-146 3.056709e-149 -6.078496e-152 5.886785e-154 8.920784e-156 4.170041e-158 2.829919e-157 -5.275102e-161 4.694992e-164 -7.742393e-167 8.638897e-170 -1.054318e-172 1.023064e-175 1.400622e-177 1.049743e-179 5.955036e-182 2.500881e-184 8.873828e-187 2.471382e-189 6.667167e-192 1.366735e-194 2.920175e-197 4.199571e-200 5.792343e-203 2.945403e-206 6.836805e-210 1.013539e-212 1.456317e-215 2.939230e-218 4.675519e-221 7.798388e-224 9.530017e-227 1.060420e-229 7.493432e-233 2.207359e-236 1.056081e-236 2.125499e-233 1.554249e-229 2.230791e-226 3.864937e-223 3.901628e-220 4.433260e-217 3.646748e-214 3.299349e-211 2.369758e-208 1.844910e-205 1.198180e-202 8.335463e-200 4.985900e-197 3.161880e-194 1.758867e-191 1.027849e-188 5.342619e-186 2.893472e-183 1.407822e-180 7.084341e-178 3.225946e-175 1.509114e-172 6.421579e-170 2.790020e-167 1.106523e-164 4.455624e-162 1.641199e-159 6.105573e-157 2.079444e-154 7.117417e-152 2.229184e-149 6.983061e-147 1.998006e-144 5.690870e-142 1.475539e-139 3.790390e-137 8.817657e-135 2.022189e-132 4.168401e-130 8.424945e-128 1.514420e-125 2.652753e-123 4.071274e-121 
3.173592e-116 4.040250e-114 4.906058e-112 4.964211e-110 4.717815e-108 3.549141e-106 2.441531e-104 1.209851e-102 5.158551e-101 1.266292e-99 2.082953e-98 5.543498e-98 1.036193e-97 1.221966e-97 1.721638e-97 1.742054e-97 2.241856e-97 2.113508e-97 2.593190e-97 2.333236e-97 2.766789e-97 2.392200e-97 2.742859e-97 2.267821e-97 2.477462e-97 1.906494e-97 1.872236e-97 1.182934e-97 7.209193e-98 4.280750e-99 2.082255e-100 4.308183e-102 1.010618e-103 1.253519e-105 1.886884e-107 1.617976e-109 1.749955e-111 1.088814e-113 8.901151e-116 3.988031e-118 2.503356e-120 7.446754e-123 3.581738e-125 5.339696e-128 2.164144e-130 -6.261449e-135 7.315390e-136 -5.170873e-139 2.484990e-141 -4.151120e-144 3.753757e-147 -1.267659e-149 -3.819802e-151 -6.010474e-153 -5.775912e-155 1.048588e-154 7.748146e-158 1.985499e-162 -7.337743e-165 4.986704e-168 2.450359e-175 -2.396853e-173 -6.512202e-175 -4.098251e-177 -2.111804e-179 -7.846217e-182 -2.487429e-184 -6.163458e-187 -1.419668e-189 -2.455518e-192 -3.958596e-195 -4.138644e-198 -3.326120e-201 -1.382652e-204 -2.967803e-208 -3.785700e-211 -4.775456e-214 -8.585731e-217 -1.196692e-219 -1.813755e-222 -2.031437e-225 -2.182597e-228 -1.603439e-231 -8.937396e-235 5.363174e-234 8.545552e-231 5.294657e-227 7.468062e-224 1.325317e-220 1.372178e-217 1.610576e-214 1.366903e-211 1.273880e-208 9.422280e-206 7.522840e-203 5.013239e-200 3.561833e-197 2.178148e-194 1.405684e-191 7.967957e-189 4.724372e-186 2.495194e-183 1.367677e-180 6.745115e-178 3.427987e-175 1.578951e-172 7.446495e-170 3.199386e-167 1.399200e-164 5.594456e-162 2.264492e-159 8.397843e-157 3.136785e-154 1.074345e-151 3.688193e-149 1.160464e-146 3.642608e-144 1.046086e-141 2.982966e-139 7.756728e-137 1.993205e-134 4.647008e-132 1.065211e-129 2.199203e-127 4.439291e-125 7.988013e-123 1.396330e-120 2.144218e-118 
1.626299e-113 2.070140e-111 2.504860e-109 2.533755e-107 2.396685e-105 1.802534e-103 1.232291e-101 6.108522e-100 2.582001e-98 6.354761e-97 1.029938e-95 2.767592e-95 5.076499e-95 6.047582e-95 8.343675e-95 8.531577e-95 1.072574e-94 1.022408e-94 1.222148e-94 1.112783e-94 1.281630e-94 1.122654e-94 1.245930e-94 1.045285e-94 1.101071e-94 8.615436e-95 8.123566e-95 5.233305e-95 3.047955e-95 1.842481e-96 8.643905e-98 1.795864e-99 4.087130e-101 5.054111e-103 7.395988e-105 6.290727e-107 6.623178e-109 4.074611e-111 3.251580e-113 1.442316e-115 8.905832e-118 2.666673e-120 1.284630e-122 2.116901e-125 8.672743e-128 4.299219e-131 4.058020e-133 3.131202e-136 2.143313e-138 -1.312664e-141 6.147827e-145 1.317395e-146 3.517544e-148 8.799963e-150 7.075685e-151 4.932100e-152 4.322152e-155 1.693224e-158 -1.017621e-161 4.740945e-165 -3.799749e-168 1.722045e-170 3.455996e-172 1.796562e-174 8.532163e-177 2.755299e-179 8.065152e-182 1.781948e-184 3.761233e-187 5.883165e-190 8.851743e-193 9.005131e-196 7.724091e-199 4.042004e-202 1.583499e-205 1.455203e-208 1.351848e-211 1.906531e-214 2.344521e-217 3.392718e-220 4.003162e-223 4.971079e-226 4.833568e-229 4.336391e-232 3.117448e-231 3.874404e-228 2.011619e-224 2.605968e-221 4.752226e-218 4.853802e-215 5.926517e-212 5.067044e-209 4.899867e-206 3.673992e-203 3.028517e-200 2.048495e-197 1.495175e-194 9.274961e-192 6.122119e-189 3.515734e-186 2.124071e-183 1.134878e-180 6.318303e-178 3.147688e-175 1.620468e-172 7.529352e-170 3.588726e-167 1.553439e-164 6.852525e-162 2.757221e-159 1.123799e-156 4.189707e-154 1.573483e-151 5.412780e-149 1.865892e-146 5.891796e-144 1.854907e-141 5.341969e-139 1.526238e-136 3.977326e-134 1.023028e-131 2.388865e-129 5.476277e-127 1.131796e-124 2.282812e-122 4.110042e-120 7.172540e-118 1.101619e-115 
8.117903e-111 1.033646e-108 1.245635e-106 1.260169e-104 1.185812e-102 8.920496e-101 6.057493e-99 3.005435e-97 1.258706e-95 3.107941e-94 4.960631e-93 1.346488e-92 2.422454e-92 2.916553e-92 3.938156e-92 4.071308e-92 4.996940e-92 4.818883e-92 5.607854e-92 5.170450e-92 5.779046e-92 5.132639e-92 5.508459e-92 4.693856e-92 4.762747e-92 3.794013e-92 3.431264e-92 2.257577e-92 1.255228e-92 7.749613e-94 3.499737e-95 7.341959e-97 1.616403e-98 2.009062e-100 2.847550e-102 2.431050e-104 2.479951e-106 1.535272e-108 1.188537e-110 5.362731e-113 3.225715e-115 1.015794e-117 4.803214e-120 9.369353e-123 3.708678e-125 4.510931e-128 2.637183e-130 7.264877e-133 2.830255e-135 3.163919e-138 -1.373734e-141 -4.650459e-143 -7.107068e-145 1.114509e-145 1.844729e-147 3.160674e-149 3.573892e-152 1.887515e-155 -1.010378e-159 5.388338e-163 3.039248e-166 -1.333269e-167 -2.022874e-169 -9.136326e-172 -3.824216e-174 -1.101261e-176 -2.862278e-179 -5.672446e-182 -1.025845e-184 -1.386578e-187 -1.639487e-190 -1.350786e-193 -8.150508e-197 -3.693492e-200 -1.236537e-203 -9.318085e-207 -7.288348e-210 -8.751748e-213 -9.001438e-216 -1.103471e-218 -1.098840e-221 -1.291903e-224 -1.912836e-227 -5.208260e-230 1.999179e-228 2.589437e-225 8.809981e-222 1.083024e-218 1.848873e-215 1.875750e-212 2.271604e-209 1.965136e-206 1.916043e-203 1.462587e-200 1.221495e-197 8.420730e-195 6.231712e-192 3.936402e-189 2.632325e-186 1.536779e-183 9.393267e-181 5.092616e-178 2.864014e-175 1.445109e-172 7.503577e-170 3.524990e-167 1.692132e-164 7.393738e-162 3.280492e-159 1.330486e-156 5.447825e-154 2.044610e-151 7.705690e-149 2.665437e-146 9.211453e-144 2.921806e-141 9.213551e-139 2.663074e-136 7.614519e-134 1.989980e-131 5.118485e-129 1.197800e-126 2.743750e-124 5.679440e-122 1.143791e-119 2.061466e-117 3.589269e-115 5.516102e-113 