# vtk DataFile Version 2.0
Comment goes here
ASCII

DATASET STRUCTURED_POINTS
DIMENSIONS    128   128   1

ORIGIN    0.000   0.000   0.000
SPACING   0.0156250.015625   1.000

POINT_DATA   16384
SCALARS Concentration double
LOOKUP_TABLE default

8.331973e-84 9.309384e-83 1.159331e-81 1.065693e-80 1.117584e-79 7.963808e-79 6.695722e-78 3.364566e-77 2.108107e-76 6.406177e-76 2.709379e-75 4.248655e-75 1.170613e-74 1.237005e-74 2.814089e-74 2.593894e-74 5.598681e-74 4.878849e-74 1.051180e-73 8.915222e-74 1.965328e-73 1.643821e-73 3.761507e-73 3.103385e-73 7.361834e-73 5.773001e-73 1.334698e-72 8.365109e-73 1.374471e-72 4.394285e-73 2.639243e-73 5.053669e-74 1.231324e-74 1.695211e-75 2.407671e-76 2.576474e-77 4.989200e-78 3.388207e-78 4.536421e-77 2.027535e-77 1.197595e-76 1.883328e-77 8.493576e-78 8.153001e-79 6.047410e-80 2.403048e-81 3.992240e-83 -2.953299e-84 2.901496e-86 -1.683861e-83 2.088966e-82 -2.036819e-81 6.339087e-81 -4.770728e-81 -1.213596e-83 1.199396e-83 4.961698e-85 1.655184e-85 4.873973e-86 -1.773122e-84 5.268117e-83 -2.434359e-82 -7.136454e-82 -3.824412e-82 -4.359451e-83 -2.424196e-84 1.048142e-85 -3.965445e-87 1.661195e-88 -3.952021e-90 8.357185e-92 -7.002046e-94 3.694911e-96 -3.290698e-96 5.632330e-100 -8.182062e-99 8.660948e-99 -1.278900e-99 7.877421e-101 -4.198777e-102 1.194967e-103 -3.322313e-105 5.691438e-107 -9.626063e-109 1.104762e-110 -1.284066e-112 1.157469e-114 -1.137347e-116 9.555819e-119 -8.225355e-121 5.407596e-123 -3.266883e-125 1.357784e-127 -5.004856e-130 1.777400e-131 5.632100e-130 1.913262e-128 6.670036e-127 2.327776e-125 8.183626e-124 2.877230e-122 1.000161e-120 3.477017e-119 1.173745e-117 3.969503e-116 1.281985e-114 4.163252e-113 1.272016e-111 3.929561e-110 1.127257e-108 3.291962e-107 8.824759e-106 2.426557e-104 6.061017e-103 1.565070e-101 3.634521e-100 8.792698e-99 1.893626e-97 4.279182e-96 8.512580e-95 1.788761e-93 3.265484e-92 6.338012e-91 1.051284e-89 1.867593e-88 2.775305e-87 4.459545e-86 5.824014e-85 
4.188772e-82 4.685203e-81 5.826557e-80 5.344732e-79 5.562505e-78 3.943613e-77 3.270171e-76 1.631071e-75 1.001471e-74 3.017598e-74 1.241345e-73 1.931915e-73 5.143911e-73 5.385313e-73 1.180301e-72 1.075959e-72 2.231823e-72 1.921874e-72 3.971243e-72 3.328983e-72 7.027216e-72 5.817460e-72 1.273302e-71 1.042444e-71 2.363208e-71 1.844176e-71 4.068276e-71 2.530484e-71 3.957748e-71 1.217758e-71 7.030675e-72 1.246999e-72 2.901001e-73 3.659787e-74 4.886652e-75 4.850569e-76 1.570180e-76 1.879008e-76 2.250016e-75 1.171277e-75 6.589704e-75 1.046258e-75 5.630041e-76 5.638699e-77 4.941274e-78 2.598231e-79 1.052338e-80 3.718216e-82 8.526303e-84 5.587788e-82 -6.798195e-81 7.292895e-80 -2.314291e-79 3.122189e-79 -2.346273e-81 1.474181e-81 1.038747e-82 2.191968e-83 -2.716334e-84 9.924305e-83 -2.506542e-81 1.038965e-80 2.266027e-80 1.085358e-80 1.164756e-81 7.273361e-83 -2.802996e-84 1.152984e-85 -5.572080e-87 1.581455e-88 -4.303103e-90 5.918783e-92 -9.050384e-94 -5.531343e-94 -1.272960e-96 7.322119e-97 -4.313990e-97 6.194821e-98 -3.439120e-99 1.827678e-100 -5.071049e-102 1.428449e-103 -2.391797e-105 4.010949e-107 -4.109775e-109 3.963183e-111 -1.876535e-113 1.566742e-116 1.167481e-117 -1.486906e-119 1.031809e-121 -5.771579e-124 2.016553e-126 -6.162794e-129 2.384770e-130 8.271755e-129 3.003524e-127 1.124746e-125 4.201241e-124 1.585047e-122 5.955844e-121 2.214170e-119 8.197502e-118 2.944355e-116 1.055259e-114 3.604175e-113 1.233520e-111 3.960527e-110 1.282138e-108 3.841598e-107 1.169273e-105 3.255469e-104 9.282310e-103 2.395487e-101 6.383062e-100 1.523891e-98 3.786504e-97 8.341968e-96 1.927530e-94 3.903387e-93 8.353301e-92 1.545441e-90 3.044672e-89 5.099177e-88 9.168361e-87 1.371613e-85 2.223411e-84 2.915366e-83 
2.029519e-80 2.275055e-79 2.814693e-78 2.579323e-77 2.656927e-76 1.876434e-75 1.531597e-74 7.593240e-74 4.560462e-73 1.364516e-72 5.449091e-72 8.428048e-72 2.163692e-71 2.246978e-71 4.732187e-71 4.270730e-71 8.487622e-71 7.228455e-71 1.427479e-70 1.183446e-70 2.382498e-70 1.952883e-70 4.069528e-70 3.306590e-70 7.125358e-70 5.533102e-70 1.157427e-69 7.142316e-70 1.055042e-69 3.114254e-70 1.713115e-70 2.777370e-71 6.131227e-72 6.917397e-73 8.648340e-74 7.860762e-75 5.386237e-75 9.370769e-75 9.618256e-74 5.801017e-74 2.967340e-73 4.680561e-74 2.791378e-74 2.719766e-75 2.463315e-76 1.470214e-77 6.844586e-79 1.343054e-80 -2.057621e-82 -1.488992e-80 1.818867e-79 -1.952887e-78 6.541344e-78 -1.387075e-77 2.105616e-79 9.989087e-80 1.195282e-80 1.549753e-81 2.076175e-82 -4.262517e-81 9.383294e-80 -3.663033e-79 -5.797226e-79 -2.521215e-79 -2.513394e-80 -1.837209e-81 5.201238e-83 -2.465732e-84 1.302872e-85 -4.313557e-87 1.204617e-88 -6.379949e-91 -7.069456e-92 -5.166731e-92 -2.871054e-94 -4.553876e-95 1.695508e-95 -2.286114e-96 1.246354e-97 -6.444986e-99 1.878821e-100 -5.338392e-102 9.809935e-104 -1.748607e-105 2.172460e-107 -2.608889e-109 2.273795e-111 -1.898035e-113 1.153122e-115 -6.558208e-118 2.617941e-120 -9.466018e-123 2.217362e-125 -4.439171e-128 2.574956e-129 9.945804e-128 3.941887e-126 1.602974e-124 6.527738e-123 2.668197e-121 1.088527e-119 4.363138e-118 1.742963e-116 6.705665e-115 2.573847e-113 9.346147e-112 3.398625e-110 1.151370e-108 3.929867e-107 1.233555e-105 3.930582e-104 1.139149e-102 3.378625e-101 9.025278e-100 2.487201e-98 6.115828e-97 1.563362e-95 3.531430e-94 8.353036e-93 1.727133e-91 3.765518e-90 7.084846e-89 1.415338e-87 2.401391e-86 4.357774e-85 6.580037e-84 1.071475e-82 1.412900e-81 
9.574525e-79 1.074641e-77 1.323505e-76 1.210408e-75 1.235046e-74 8.680084e-74 6.980593e-73 3.436406e-72 2.021042e-71 5.998337e-71 2.327818e-70 3.574024e-70 8.853894e-70 9.108242e-70 1.844341e-69 1.645164e-69 3.134225e-69 2.634646e-69 4.974665e-69 4.069037e-69 7.816028e-69 6.325103e-69 1.255572e-68 1.009022e-68 2.068317e-68 1.591898e-68 3.160285e-68 1.926607e-68 2.688076e-68 7.565987e-69 3.961176e-69 5.769987e-70 1.213825e-70 1.183840e-71 1.408822e-72 1.184915e-73 1.996587e-73 4.307342e-73 3.848802e-72 2.622409e-72 1.225604e-71 1.859149e-72 1.234130e-72 1.053622e-73 1.023960e-74 6.906856e-76 4.365570e-77 2.072065e-78 6.698213e-80 2.696568e-79 -3.306505e-78 3.775038e-77 -1.336112e-76 4.609755e-76 -1.343035e-77 2.712170e-78 3.780752e-79 4.416462e-80 -3.875074e-81 1.613670e-79 -3.172271e-78 1.024637e-77 1.247459e-77 4.628320e-78 4.517809e-79 3.709817e-80 -6.057731e-82 4.171780e-83 -2.596523e-84 1.019526e-85 -4.048304e-87 9.528028e-89 -4.854136e-90 -2.069942e-90 -2.726657e-92 2.282447e-93 -4.922561e-94 6.056327e-95 -3.035895e-96 1.512621e-97 -4.208007e-99 1.163520e-100 -2.005975e-102 3.386556e-104 -3.742608e-106 4.008012e-108 -2.873883e-110 1.991586e-112 -9.320347e-115 4.222204e-117 -1.251074e-119 3.536292e-122 -5.078460e-125 1.004718e-127 2.394200e-128 1.034902e-126 4.519326e-125 2.035351e-123 9.105888e-122 4.098593e-120 1.826776e-118 7.999262e-117 3.465044e-115 1.442731e-113 5.952944e-112 2.316135e-110 8.972854e-109 3.225433e-107 1.162792e-105 3.838559e-104 1.281805e-102 3.876737e-101 1.196691e-99 3.313918e-98 9.447143e-97 2.394413e-95 6.296979e-94 1.458768e-92 3.531950e-91 7.455402e-90 1.655873e-88 3.167067e-87 6.415519e-86 1.102056e-84 2.018679e-83 3.074108e-82 5.029823e-81 6.664368e-80 
4.350837e-77 4.893288e-76 5.993313e-75 5.474984e-74 5.527459e-73 3.869615e-72 3.062305e-71 1.498384e-70 8.617481e-70 2.539494e-69 9.562131e-69 1.458598e-68 3.480274e-68 3.548894e-68 6.894515e-68 6.081284e-68 1.107822e-67 9.193878e-68 1.655064e-67 1.335670e-67 2.440004e-67 1.949036e-67 3.672025e-67 2.917443e-67 5.665200e-67 4.318853e-67 8.098611e-67 4.872858e-67 6.382961e-67 1.705801e-67 8.442782e-68 1.081445e-68 2.177387e-69 1.735277e-70 2.053451e-71 1.743356e-72 7.091961e-72 1.748805e-71 1.352057e-70 1.023439e-70 4.245322e-70 6.016561e-71 4.227622e-71 2.651585e-72 2.910731e-73 1.946069e-74 1.325366e-75 7.078343e-77 3.149394e-78 -3.788754e-78 4.892711e-77 -5.352218e-76 2.030986e-75 -9.111813e-75 2.992135e-76 5.269925e-77 8.833058e-78 8.230464e-79 2.126239e-79 -3.897873e-78 8.483179e-77 -2.384996e-76 -2.202496e-76 -7.084914e-77 -6.762885e-78 -6.391062e-79 -5.542672e-82 -6.410765e-82 3.755206e-83 -1.480407e-84 5.544108e-86 -1.717606e-88 -1.328978e-88 -5.549543e-89 -8.223909e-91 -5.980339e-92 1.091945e-92 -1.180092e-93 5.936156e-95 -2.771189e-96 7.956084e-98 -2.115836e-99 3.795292e-101 -6.214186e-103 7.111287e-105 -7.300700e-107 5.233792e-109 -3.279293e-111 1.375433e-113 -4.789522e-116 1.027667e-118 -1.297559e-121 4.449975e-124 2.388880e-126 1.940814e-127 8.379386e-126 4.171823e-124 2.109834e-122 1.067271e-120 5.350811e-119 2.667947e-117 1.288125e-115 6.166168e-114 2.798529e-112 1.259730e-110 5.279505e-109 2.203330e-107 8.435183e-106 3.238173e-104 1.127011e-102 3.967114e-101 1.254111e-99 4.045601e-98 1.162591e-96 3.437924e-95 8.987557e-94 2.435999e-92 5.790349e-91 1.436543e-89 3.096909e-88 7.010473e-87 1.363584e-85 2.801038e-84 4.873757e-83 9.008654e-82 1.384336e-80 2.274621e-79 3.030254e-78 
1.928553e-75 2.171893e-74 2.646286e-73 2.412907e-72 2.411498e-71 1.680345e-70 1.309414e-69 6.363271e-69 3.581433e-68 1.047126e-67 3.828292e-67 5.796839e-67 1.332762e-66 1.345770e-66 2.508842e-66 2.185498e-66 3.807286e-66 3.114767e-66 5.346030e-66 4.248947e-66 7.382342e-66 5.808006e-66 1.038720e-65 8.138115e-66 1.497608e-65 1.127616e-65 1.998359e-65 1.183560e-65 1.455001e-65 3.678256e-66 1.717303e-66 1.892588e-67 3.698529e-68 2.216350e-69 2.906449e-70 3.266993e-71 2.464331e-70 6.584178e-70 4.501164e-69 3.687123e-69 1.368776e-68 1.762493e-69 1.309797e-69 4.185747e-71 8.011340e-72 4.466935e-73 3.499583e-74 2.144254e-75 1.334851e-76 3.824368e-77 -4.208207e-76 5.025572e-75 -1.895270e-74 1.141314e-73 -5.131037e-75 5.272833e-76 9.447987e-77 8.161229e-78 -2.879046e-78 5.631771e-77 -1.982275e-75 4.336131e-75 3.240882e-75 8.706440e-76 8.502590e-77 8.778805e-78 1.751349e-79 1.177431e-80 -4.266261e-82 1.741220e-83 -9.310969e-85 3.305979e-86 -2.851114e-87 -8.022958e-88 -6.757849e-90 1.776113e-90 -1.591547e-91 1.393762e-92 -6.084308e-94 2.535180e-95 -6.441343e-97 1.529240e-98 -2.366586e-100 3.351805e-102 -3.100150e-104 2.567657e-106 -1.312105e-108 5.976950e-111 -1.229900e-113 4.490907e-116 2.554879e-118 2.167634e-120 2.497167e-122 1.844643e-124 2.656195e-126 5.810205e-125 3.324785e-123 1.939719e-121 1.116628e-119 6.372836e-118 3.572640e-116 1.934882e-114 1.027464e-112 5.150424e-111 2.535933e-109 1.155994e-107 5.205194e-106 2.136935e-104 8.741353e-103 3.222541e-101 1.195783e-99 3.963364e-98 1.335619e-96 3.990694e-95 1.223418e-93 3.302586e-92 9.219403e-91 2.249791e-89 5.715549e-88 1.258581e-86 2.902113e-85 5.739643e-84 1.195066e-82 2.105472e-81 3.926044e-80 6.084714e-79 1.003919e-77 1.343879e-76 
8.265296e-74 9.324729e-73 1.129484e-71 1.028495e-70 1.016727e-69 7.055726e-69 5.409052e-68 2.612255e-67 1.437370e-66 4.171833e-66 1.479191e-65 2.224240e-65 4.920565e-65 4.920873e-65 8.788551e-65 7.560627e-65 1.257147e-64 1.013595e-64 1.655097e-64 1.294902e-64 2.134660e-64 1.653030e-64 2.798950e-64 2.160678e-64 3.757377e-64 2.791443e-64 4.660520e-64 2.713776e-64 3.117834e-64 7.421008e-65 3.253074e-65 2.974668e-66 5.795103e-67 2.136136e-68 4.059967e-69 8.417711e-70 7.935214e-69 2.238538e-68 1.353011e-67 1.176684e-67 3.852157e-67 4.367545e-68 3.341685e-68 -1.693973e-70 2.087541e-70 5.034440e-72 7.018697e-73 3.250380e-74 2.240646e-75 -5.505099e-77 3.058639e-75 -3.745833e-74 1.360574e-73 -8.409328e-73 2.914348e-74 4.948836e-75 5.753546e-76 2.628752e-77 -3.444705e-77 8.689193e-76 3.936795e-74 -6.855767e-74 -4.144345e-74 -9.410517e-75 -9.472920e-76 -1.064966e-76 -4.367956e-78 -2.443252e-79 -2.376862e-82 -1.037888e-82 3.938670e-84 -8.065677e-86 -1.727069e-86 -9.996085e-87 -1.793506e-88 -1.678543e-89 1.546909e-90 -1.079104e-91 4.157698e-93 -1.329783e-94 2.723958e-96 -4.483936e-98 4.830492e-100 -3.981890e-102 2.269115e-104 -5.920720e-107 8.083659e-109 6.872318e-111 1.297983e-112 1.310054e-114 1.673478e-116 1.493563e-118 1.475702e-120 1.149846e-122 9.628500e-125 2.830547e-124 1.978026e-122 1.363197e-120 9.378740e-119 6.200697e-117 4.058831e-115 2.497219e-113 1.513632e-111 8.454916e-110 4.650416e-108 2.319210e-106 1.143906e-104 5.053694e-103 2.226463e-101 8.710876e-100 3.432866e-98 1.194059e-96 4.225244e-95 1.313121e-93 4.188078e-92 1.167538e-90 3.364726e-89 8.429365e-88 2.196129e-86 4.939512e-85 1.161186e-83 2.335182e-82 4.930160e-81 8.795930e-80 1.654638e-78 2.586954e-77 4.284716e-76 5.765290e-75 
3.460896e-72 3.909666e-71 4.707841e-70 4.279081e-69 4.184946e-68 2.890938e-67 2.181087e-66 1.046291e-65 5.630918e-65 1.621658e-64 5.578428e-64 8.325887e-64 1.772395e-63 1.754407e-63 3.001208e-63 2.547800e-63 4.042180e-63 3.208873e-63 4.983066e-63 3.833426e-63 5.993748e-63 4.562533e-63 7.312318e-63 5.553786e-63 9.126239e-63 6.680158e-63 1.050891e-62 6.012014e-63 6.449564e-63 1.445096e-63 5.924996e-64 4.346408e-65 8.771146e-66 1.069176e-67 6.273716e-68 2.673503e-68 2.482039e-67 7.227735e-67 3.934223e-66 3.567360e-66 1.039264e-65 1.036214e-66 8.045620e-67 -3.301634e-68 6.205533e-69 -7.067620e-71 1.998094e-71 1.958243e-73 5.818006e-74 1.137239e-75 4.566055e-76 1.299925e-73 -5.143130e-73 4.154613e-72 1.658756e-73 1.868381e-74 4.356388e-76 -8.808487e-78 -6.526604e-78 -3.980948e-74 -6.734929e-73 8.688660e-73 4.617246e-73 8.742841e-74 9.276997e-75 1.057571e-75 6.251999e-77 3.633805e-78 1.094209e-79 2.962241e-81 5.394212e-85 1.968353e-85 -2.343692e-85 -6.784075e-86 -3.595958e-87 2.688867e-88 -8.944728e-90 3.533656e-91 -7.115453e-93 1.226787e-94 -1.054572e-96 9.418210e-99 1.225180e-100 2.950269e-102 1.082958e-103 1.707286e-105 3.662123e-107 4.748870e-109 7.051167e-111 7.588949e-113 8.588540e-115 7.773604e-117 7.054038e-119 5.413282e-121 4.033000e-123 1.192513e-123 1.004630e-121 8.480480e-120 6.997928e-118 5.515987e-116 4.227873e-114 3.021641e-112 2.094884e-110 1.325853e-108 8.155395e-107 4.502815e-105 2.432940e-103 1.166082e-101 5.528660e-100 2.307876e-98 9.646965e-97 3.533634e-95 1.310983e-93 4.247149e-92 1.407072e-90 4.056410e-89 1.205063e-87 3.101693e-86 8.276236e-85 1.902044e-83 4.553329e-82 9.311647e-81 1.991585e-79 3.597670e-78 6.822684e-77 1.075760e-75 1.787810e-74 2.417062e-73 
1.406229e-70 1.590868e-69 1.903708e-68 1.727530e-67 1.670692e-66 1.149123e-65 8.527316e-65 4.064280e-64 2.138017e-63 6.110634e-63 2.037864e-62 3.018844e-62 6.178302e-62 6.051473e-62 9.904622e-62 8.293176e-62 1.253836e-61 9.793434e-62 1.444279e-61 1.091546e-61 1.616282e-61 1.208220e-61 1.830009e-61 1.366015e-61 2.117825e-61 1.525631e-61 2.257873e-61 1.267630e-61 1.266833e-61 2.660663e-62 1.017242e-62 5.569998e-64 1.258951e-64 -1.960440e-66 1.067178e-66 8.619274e-67 7.335027e-66 2.177852e-65 1.071935e-64 9.994102e-65 2.584270e-64 2.252541e-65 1.736052e-65 -1.281436e-66 1.650227e-67 -6.571648e-69 5.905220e-70 -1.669900e-71 1.876822e-72 -2.909608e-73 1.045854e-72 4.480124e-72 2.760029e-72 -1.165724e-71 -1.674672e-72 3.641285e-74 -3.492634e-75 -7.846511e-76 9.350275e-75 8.743500e-73 1.202939e-71 -1.066828e-71 -5.174162e-72 -8.128862e-73 -8.991032e-74 -9.887587e-75 -6.790146e-76 -4.193155e-77 -1.884201e-78 -6.496012e-80 -6.385710e-82 1.119542e-83 -3.290214e-84 -3.867867e-85 3.003907e-87 -2.489397e-88 -1.272413e-89 -4.770558e-91 -7.635474e-93 -1.180890e-94 2.385029e-96 1.298141e-97 7.457231e-99 1.926499e-100 5.103556e-102 9.328636e-104 1.628472e-105 2.271382e-107 2.939803e-109 3.269914e-111 3.329375e-113 3.032132e-115 2.498254e-117 1.874998e-119 1.241688e-121 3.295687e-123 3.155002e-121 3.457634e-119 3.786779e-117 3.689524e-115 3.547743e-113 3.011784e-111 2.503374e-109 1.819503e-107 1.292055e-105 7.957601e-104 4.810906e-102 2.510654e-100 1.299100e-98 5.793889e-97 2.592789e-95 1.000309e-93 3.915285e-92 1.321761e-90 4.567768e-89 1.361000e-87 4.179655e-86 1.104653e-84 3.024390e-83 7.098572e-82 1.732516e-80 3.601531e-79 7.808723e-78 1.427893e-76 2.730667e-75 4.341639e-74 7.239984e-73 9.835071e-72 
5.590488e-69 6.332311e-68 7.527892e-67 6.818632e-66 6.520064e-65 4.464302e-64 3.258636e-63 1.542876e-62 7.934535e-62 2.250364e-61 7.276081e-61 1.069723e-60 2.104104e-60 2.038950e-60 3.191120e-60 2.634680e-60 3.793102e-60 2.914111e-60 4.077890e-60 3.026740e-60 4.240887e-60 3.112192e-60 4.451651e-60 3.265138e-60 4.773665e-60 3.384927e-60 4.711427e-60 2.599974e-60 2.417121e-60 4.780950e-61 1.693453e-61 6.399935e-63 1.793419e-63 -7.657035e-65 2.025691e-65 2.742974e-65 2.140732e-64 6.427963e-64 2.904624e-63 2.774365e-63 6.423388e-63 5.237242e-64 3.773143e-64 -3.652322e-65 4.131204e-66 -2.270921e-67 1.671174e-68 -7.583129e-70 6.782152e-71 -9.428030e-71 9.981799e-71 -2.505818e-70 3.580296e-72 2.435633e-71 3.849460e-72 1.750033e-74 -2.950106e-74 -4.929559e-74 -9.174866e-73 -1.803417e-71 -2.081300e-70 1.276274e-70 5.675127e-71 7.366554e-72 8.551585e-73 9.001603e-74 7.108984e-75 4.646854e-76 2.977766e-77 1.322383e-78 6.388992e-80 1.022637e-81 -5.248699e-83 -1.450832e-84 4.961502e-86 2.448621e-87 8.416839e-89 1.684556e-90 5.231076e-92 1.630373e-93 1.902501e-94 8.261455e-96 3.122538e-97 8.120344e-99 1.802157e-100 3.241702e-102 5.057365e-104 6.834373e-106 8.099784e-108 8.595106e-110 8.016772e-112 6.779572e-114 4.948192e-116 3.194777e-118 1.580468e-120 9.102537e-123 8.452912e-121 1.246633e-118 1.812178e-116 2.266461e-114 2.730878e-112 2.835218e-110 2.823862e-108 2.407629e-106 1.972045e-104 1.374595e-102 9.281644e-101 5.323382e-99 2.998274e-97 1.437023e-95 6.864340e-94 2.799603e-92 1.152685e-90 4.064505e-89 1.461230e-87 4.506617e-86 1.427269e-84 3.876953e-83 1.086878e-81 2.606695e-80 6.474967e-79 1.368576e-77 3.003751e-76 5.560272e-75 1.071082e-73 1.717106e-72 2.870767e-71 3.917765e-70 
2.164201e-67 2.453939e-66 2.898000e-65 2.619848e-64 2.476595e-63 1.687948e-62 1.211701e-61 5.698699e-61 2.864403e-60 8.060094e-60 2.525923e-59 3.684018e-59 6.961628e-59 6.669637e-59 9.976302e-59 8.114515e-59 1.111754e-58 8.391954e-59 1.113586e-58 8.107340e-59 1.074243e-58 7.729155e-59 1.043583e-58 7.511673e-59 1.035364e-58 7.218294e-59 9.449200e-59 5.120876e-59 4.426647e-59 8.221813e-60 2.691457e-60 5.569066e-62 2.499138e-62 -1.747349e-63 4.063026e-64 8.422620e-64 6.087172e-63 1.839554e-62 7.701099e-62 7.497820e-62 1.568116e-61 1.255621e-62 8.116094e-63 -9.041730e-64 9.289965e-65 -5.856978e-66 3.891361e-67 -2.093234e-68 2.498893e-69 2.424743e-68 -1.263924e-68 6.309159e-69 -4.403883e-70 -2.946861e-71 -4.577030e-72 5.321276e-73 -2.382439e-73 -4.112360e-73 1.837401e-71 2.989007e-70 3.704435e-69 -1.503530e-69 -6.357925e-70 -6.833891e-71 -8.107259e-72 -7.830002e-73 -6.310144e-74 -4.140495e-75 -2.830316e-76 -1.423409e-77 -8.635241e-79 -3.055429e-80 -1.551363e-81 -1.882978e-84 1.117753e-85 1.495846e-86 1.124488e-87 9.457413e-89 5.246284e-90 2.793506e-91 1.029116e-92 3.540513e-94 8.871070e-96 2.086981e-97 3.740241e-99 6.358713e-101 8.501947e-103 1.084118e-104 1.101248e-106 1.055635e-108 7.785312e-111 4.912981e-113 1.397485e-115 -1.238660e-117 -3.138272e-119 -4.160934e-121 1.151202e-120 1.609399e-118 4.728850e-116 8.357709e-114 1.494240e-111 1.996820e-109 2.613991e-107 2.682051e-105 2.673138e-103 2.134059e-101 1.660779e-99 1.051510e-97 6.568443e-96 3.385928e-94 1.746424e-92 7.524518e-91 3.282931e-89 1.207666e-87 4.538430e-86 1.446990e-84 4.741191e-83 1.322103e-81 3.803358e-80 9.311513e-79 2.357355e-77 5.062045e-76 1.125683e-74 2.108109e-73 4.092665e-72 6.612602e-71 1.108687e-69 1.519557e-68 
8.207726e-66 9.316540e-65 1.092305e-63 9.855860e-63 9.207117e-62 6.247003e-61 4.409178e-60 2.060163e-59 1.011939e-58 2.825925e-58 8.581212e-58 1.241997e-57 2.253281e-57 2.134924e-57 3.048999e-57 2.443853e-57 3.182655e-57 2.361137e-57 2.967234e-57 2.119874e-57 2.652803e-57 1.872601e-57 2.383671e-57 1.685578e-57 2.188099e-57 1.502624e-57 1.848493e-57 9.876639e-58 7.922898e-58 1.396712e-58 4.181054e-59 2.525070e-61 3.519538e-61 -3.237666e-62 8.680894e-63 2.566304e-62 1.746061e-61 5.330372e-61 2.093717e-60 2.103577e-60 4.006946e-60 3.572019e-61 1.892880e-61 -2.186427e-62 2.016230e-63 -1.279273e-64 7.716453e-66 -4.001869e-67 1.535189e-68 -1.215145e-66 4.258297e-67 -9.267751e-68 4.608694e-69 -3.649252e-71 8.151585e-72 3.653970e-72 -2.505754e-72 -2.627335e-71 -2.943604e-70 -5.534923e-69 -7.606709e-68 1.990558e-68 7.822811e-69 7.194765e-70 8.202989e-71 7.132851e-72 5.448500e-73 3.395122e-74 2.201564e-75 1.081167e-76 5.958872e-78 2.094322e-79 7.911662e-81 8.380875e-83 -1.418810e-84 -6.445673e-86 -2.710116e-87 -1.701732e-88 -8.427000e-90 -4.383006e-91 -1.756343e-92 -6.739791e-94 -2.020650e-95 -5.668806e-97 -1.276953e-98 -2.693628e-100 -4.696411e-102 -7.730999e-104 -1.079896e-105 -1.438139e-107 -1.662454e-109 -1.849113e-111 -1.820020e-113 -1.737334e-115 -1.491548e-117 -1.305382e-119 1.968531e-119 -3.988289e-118 1.262016e-115 2.742868e-113 7.482004e-111 1.334467e-108 2.292255e-106 2.911213e-104 3.521843e-102 3.279082e-100 2.929696e-98 2.069390e-96 1.426638e-94 7.957615e-93 4.409639e-91 2.014413e-89 9.270340e-88 3.565956e-86 1.395199e-84 4.605570e-83 1.555916e-81 4.458527e-80 1.312378e-78 3.281967e-77 8.448224e-76 1.843768e-74 4.146220e-73 7.857232e-72 1.534972e-70 2.499804e-69 4.198174e-68 5.779059e-67 
3.041412e-64 3.454307e-63 4.021763e-62 3.620482e-61 3.342989e-60 2.257182e-59 1.566698e-58 7.269720e-58 3.490227e-57 9.667953e-57 2.845212e-56 4.083381e-56 7.113403e-56 6.658205e-56 9.079598e-56 7.162130e-56 8.866341e-56 6.455158e-56 7.683414e-56 5.378042e-56 6.357866e-56 4.396150e-56 5.278749e-56 3.661822e-56 4.481473e-56 3.027897e-56 3.505863e-56 1.845540e-56 1.375758e-56 2.299653e-57 6.273492e-58 -5.315185e-60 4.926758e-60 -5.421801e-61 1.988367e-61 7.762084e-61 5.041923e-60 1.556035e-59 5.818604e-59 6.049260e-59 1.070364e-58 1.110685e-59 4.820406e-60 -5.414133e-61 4.454427e-62 -2.733151e-63 1.516692e-64 4.390133e-66 -1.368734e-65 4.031845e-65 -8.441265e-66 1.064690e-66 -3.363207e-68 3.163852e-70 -1.116358e-71 3.697599e-71 -2.000311e-71 -2.793284e-70 5.076087e-69 1.052855e-67 1.793469e-66 -2.793885e-67 -1.057489e-67 -8.288263e-69 -8.894467e-70 -6.712532e-71 -4.721042e-72 -2.653658e-73 -1.565939e-74 -6.960011e-76 -3.390218e-77 -1.022052e-78 -2.942278e-80 -1.786205e-82 5.006162e-85 1.600884e-86 4.803952e-88 2.066786e-89 7.499495e-91 3.009195e-92 1.098377e-93 4.251752e-95 1.483499e-96 5.081565e-98 1.454620e-99 3.933857e-101 8.712548e-103 1.825873e-104 3.168072e-106 5.257297e-108 7.355688e-110 9.944210e-112 1.153906e-113 1.304000e-115 1.285159e-117 -9.135154e-120 7.445240e-118 -2.436630e-116 9.265518e-115 -1.993751e-113 1.852636e-110 4.840708e-108 1.449844e-105 2.418770e-103 3.968907e-101 4.408257e-99 4.762677e-97 3.777705e-95 2.950342e-93 1.781326e-91 1.075753e-89 5.201858e-88 2.546465e-86 1.022124e-84 4.185757e-83 1.427687e-81 4.990377e-80 1.466875e-78 4.428413e-77 1.129511e-75 2.961048e-74 6.559721e-73 1.493359e-71 2.860782e-70 5.628073e-69 9.231210e-68 1.553655e-66 2.146691e-65 
1.105309e-62 1.256436e-61 1.451333e-60 1.303932e-59 1.189226e-58 7.993863e-58 5.453499e-57 2.514356e-56 1.179328e-55 3.242543e-55 9.242307e-55 1.316272e-54 2.199472e-54 2.035315e-54 2.646518e-54 2.056105e-54 2.415606e-54 1.727483e-54 1.944012e-54 1.334712e-54 1.487857e-54 1.009335e-54 1.141221e-54 7.783536e-55 8.966155e-55 5.980354e-55 6.508313e-55 3.395870e-55 2.346544e-55 3.782830e-56 9.253315e-57 -1.844713e-58 6.908687e-59 -8.303749e-60 4.965240e-60 2.384510e-59 1.497543e-58 4.734465e-58 1.702892e-57 1.878551e-57 3.111213e-57 4.115124e-58 1.424740e-58 -1.453436e-59 9.997630e-61 -5.443266e-62 2.412976e-63 -1.645617e-63 1.021345e-63 -9.724461e-64 1.293211e-64 -9.445382e-66 1.220059e-67 1.572696e-69 6.362948e-71 5.784519e-70 -2.904685e-70 -1.184174e-68 -9.190432e-68 -2.364127e-66 -4.902921e-65 4.513057e-66 1.623157e-66 1.130968e-67 1.076397e-68 7.069104e-70 4.368648e-71 2.181585e-72 1.100750e-73 4.289045e-75 1.653941e-76 4.204655e-78 7.737011e-80 5.742424e-82 -2.595751e-84 -5.369935e-86 -1.106829e-87 -4.418663e-89 -1.580694e-90 -6.968386e-92 -2.597189e-93 -1.024989e-94 -3.356150e-96 -1.094946e-97 -2.971891e-99 -7.849400e-101 -1.745032e-102 -3.747539e-104 -6.875909e-106 -1.218770e-107 -1.874742e-109 -2.794788e-111 -3.670282e-113 -4.690097e-115 -5.328071e-117 -8.410872e-118 2.718023e-116 -9.369552e-115 3.503538e-113 -1.373399e-111 8.852155e-110 1.303787e-107 8.658232e-105 1.951494e-102 4.378804e-100 5.942188e-98 7.731146e-96 6.968789e-94 6.118361e-92 4.022450e-90 2.627067e-88 1.349214e-86 6.979180e-85 2.929432e-83 1.248732e-81 4.407236e-80 1.586720e-78 4.789046e-77 1.477361e-75 3.845924e-74 1.023697e-72 2.303167e-71 5.295153e-70 1.025792e-68 2.028288e-67 3.351549e-66 5.644336e-65 7.829924e-64 
3.937775e-61 4.476506e-60 5.133125e-59 4.599499e-58 4.145732e-57 2.772490e-56 1.860122e-55 8.515461e-55 3.904505e-54 1.064694e-53 2.941222e-53 4.152078e-53 6.659576e-53 6.083656e-53 7.547880e-53 5.765620e-53 6.432890e-53 4.510135e-53 4.802603e-53 3.227860e-53 3.396749e-53 2.256334e-53 2.406026e-53 1.610643e-53 1.750262e-53 1.150931e-53 1.180863e-53 6.102498e-54 3.921168e-54 6.100133e-55 1.329546e-55 -4.141637e-57 9.576345e-58 -1.178390e-58 1.360258e-58 7.479920e-58 4.611891e-57 1.499665e-56 5.292930e-56 6.236864e-56 9.970632e-56 1.676947e-56 5.028262e-57 -4.410218e-58 2.562975e-59 -1.267418e-60 6.405542e-62 1.020768e-61 -3.308214e-62 1.931000e-62 -1.599900e-63 7.225509e-65 -3.771037e-67 -5.128406e-68 6.691926e-70 1.128610e-68 -1.535146e-69 -3.335540e-67 1.849025e-66 3.758247e-65 1.486041e-63 -7.439214e-65 -2.776115e-65 -1.695300e-66 -1.437196e-67 -7.975941e-69 -4.355919e-70 -1.864988e-71 -8.135149e-73 -2.670493e-74 -8.648645e-76 -1.788444e-77 -2.822585e-79 -1.965051e-81 -4.158314e-84 -7.733515e-86 -1.642800e-87 -6.366435e-89 -2.309623e-90 -1.040166e-91 -4.008088e-93 -1.665354e-94 -5.743261e-96 -2.012806e-97 -5.826943e-99 -1.671362e-100 -3.986635e-102 -9.332357e-104 -1.838467e-105 -3.547520e-107 -5.841864e-109 -9.437051e-111 -1.319823e-112 -1.815662e-114 -2.111370e-116 -2.790045e-116 9.690432e-115 -3.500853e-113 1.308948e-111 -5.223198e-110 2.184656e-108 -1.339050e-106 2.694414e-104 8.000951e-102 3.763413e-99 6.543740e-97 1.140244e-94 1.180694e-92 1.211777e-90 8.673394e-89 6.236133e-87 3.392357e-85 1.871984e-83 8.191684e-82 3.655443e-80 1.331280e-78 4.954739e-77 1.531858e-75 4.840695e-74 1.283561e-72 3.474972e-71 7.926638e-70 1.842711e-68 3.604920e-67 7.170803e-66 1.192358e-64 2.010786e-63 2.797914e-62 
1.377134e-59 1.566458e-58 1.780980e-57 1.592541e-56 1.417234e-55 9.436336e-55 6.221086e-54 2.830323e-53 1.267629e-52 3.431848e-52 9.179250e-52 1.285957e-51 1.976990e-51 1.784991e-51 2.109250e-51 1.586127e-51 1.677093e-51 1.154406e-51 1.160465e-51 7.648891e-52 7.579794e-52 4.941875e-52 4.957835e-52 3.268009e-52 3.342520e-52 2.176914e-52 2.101479e-52 1.083803e-52 6.456507e-53 9.906978e-54 1.880256e-54 -7.311391e-56 1.289182e-56 -1.442123e-57 4.010083e-57 2.422443e-56 1.479192e-55 5.044365e-55 1.760190e-54 2.288437e-54 3.553797e-54 8.013979e-55 2.142463e-55 -1.483703e-56 6.424865e-58 -2.565087e-59 4.931733e-61 -5.167434e-60 4.720914e-61 -3.022447e-61 1.485343e-62 -3.643204e-64 -6.211805e-66 2.092514e-66 -1.153560e-67 4.109653e-67 2.963176e-67 -1.846496e-65 -4.161625e-63 1.322832e-63 -4.928081e-62 1.299560e-63 5.345194e-64 2.995774e-65 2.156467e-66 1.032910e-67 4.803540e-69 1.783435e-70 6.393910e-72 1.777809e-73 4.363217e-75 7.341464e-77 7.199204e-79 4.482708e-81 7.282882e-85 1.991107e-86 6.470269e-88 2.741172e-89 9.251706e-91 3.799229e-92 1.288003e-93 4.809762e-95 1.492015e-96 4.812371e-98 1.293816e-99 3.498057e-101 7.911404e-103 1.764394e-104 3.304255e-106 6.027104e-108 9.249341e-110 1.366535e-111 1.687747e-113 1.969541e-115 2.757908e-116 -9.176404e-115 3.265638e-113 -1.224845e-111 4.610431e-110 -1.894006e-108 7.917523e-107 -4.100037e-105 2.433775e-103 1.000108e-101 3.167338e-98 7.183270e-96 1.704417e-93 2.054827e-91 2.439849e-89 1.911443e-87 1.496241e-85 8.645402e-84 5.043360e-82 2.304984e-80 1.069072e-78 4.022749e-77 1.538977e-75 4.878516e-74 1.572044e-72 4.248918e-71 1.165734e-69 2.697533e-68 6.322368e-67 1.249638e-65 2.494808e-64 4.176309e-63 7.039265e-62 9.829229e-61 
4.736360e-58 5.384913e-57 6.075686e-56 5.416432e-55 4.763433e-54 3.154812e-53 2.045765e-52 9.240677e-52 4.046977e-51 1.086554e-50 2.817187e-50 3.910950e-50 5.770183e-50 5.139711e-50 5.791622e-50 4.278252e-50 4.292570e-50 2.894030e-50 2.750590e-50 1.773532e-50 1.658198e-50 1.058548e-50 1.001610e-50 6.486982e-51 6.265664e-51 4.034671e-51 3.680722e-51 1.892108e-51 1.050060e-51 1.590386e-52 2.596767e-53 -1.204240e-54 1.679631e-55 -1.179278e-56 1.271729e-55 8.177792e-55 5.030460e-54 1.807680e-53 6.393826e-53 9.230430e-53 1.452066e-52 4.315751e-53 1.160469e-53 -5.736545e-55 1.832665e-56 -5.293344e-58 -7.685305e-59 2.114196e-58 2.894050e-59 2.018647e-60 -5.844567e-62 1.876970e-63 1.558980e-64 -1.995586e-64 -2.729229e-65 1.341062e-65 5.175774e-65 5.889237e-63 8.363876e-61 -1.981193e-61 1.692411e-60 -2.026181e-62 -1.123012e-62 -5.646371e-64 -3.540291e-65 -1.431498e-66 -5.823607e-68 -1.833986e-69 -5.662168e-71 -1.321308e-72 -2.799425e-74 -4.061435e-76 -4.204369e-78 -3.111662e-80 -1.219222e-82 -1.436368e-84 -1.798062e-86 -4.345768e-88 -1.034572e-89 -3.348027e-91 -9.849205e-93 -3.360978e-94 -1.000945e-95 -3.197308e-97 -8.758737e-99 -2.471117e-100 -5.953163e-102 -1.446473e-103 -3.010923e-105 -6.257029e-107 -1.122310e-108 -2.000388e-110 -3.097314e-112 -4.682603e-114 7.565803e-115 -3.023147e-113 1.089308e-111 -4.215651e-110 1.596875e-108 -6.739795e-107 2.836614e-105 -1.457448e-103 7.739812e-102 -8.336269e-100 1.701468e-97 4.668870e-95 2.246173e-92 3.208802e-90 4.707115e-88 4.032214e-86 3.513780e-84 2.147972e-82 1.338484e-80 6.363496e-79 3.085573e-77 1.195387e-75 4.718027e-74 1.528879e-72 5.036279e-71 1.383990e-69 3.854869e-68 9.030001e-67 2.136633e-65 4.259243e-64 8.543562e-63 1.437705e-61 2.424320e-60 3.392862e-59 