# vtk DataFile Version 2.0
Comment goes here
ASCII

DATASET STRUCTURED_POINTS
DIMENSIONS    128   128   1

ORIGIN    0.000   0.000   0.000
SPACING   0.0156250.015625   1.000

POINT_DATA   16384
SCALARS Concentration double
LOOKUP_TABLE default

1.068758e-79 1.036633e-78 1.150722e-77 9.218164e-77 8.694693e-76 5.426547e-75 4.153253e-74 1.844567e-73 1.071787e-72 2.947279e-72 1.194775e-71 1.796106e-71 4.950510e-71 5.147298e-71 1.173012e-70 1.064957e-70 2.288310e-70 1.966063e-70 4.199195e-70 3.522352e-70 7.686409e-70 6.392793e-70 1.450241e-69 1.197401e-69 2.822257e-69 2.217106e-69 5.054489e-69 3.128070e-69 4.890813e-69 1.591490e-69 8.598838e-70 1.721060e-70 3.834141e-71 5.518282e-72 9.916475e-73 4.739061e-73 7.931533e-72 7.060242e-72 9.023517e-71 2.871322e-71 1.128367e-70 1.732832e-71 3.483413e-72 3.224089e-73 2.321419e-74 7.351332e-76 -1.809295e-77 -9.471216e-78 -5.127637e-77 8.308332e-76 -6.970509e-75 4.580256e-74 -1.331082e-73 5.307729e-74 1.116697e-76 -7.971304e-77 -3.586321e-78 -2.815588e-78 1.924094e-76 -5.645755e-75 1.313031e-73 -7.634006e-73 -1.530028e-72 -8.278416e-73 -1.089227e-73 -6.990992e-75 4.537601e-76 -2.386183e-77 1.355149e-78 -4.404479e-80 1.276563e-81 -1.489946e-83 1.103187e-85 -6.246017e-86 2.059548e-89 -1.040317e-88 2.301706e-88 -5.219361e-89 4.817619e-90 -3.830522e-91 1.617632e-92 -6.718089e-94 1.725355e-95 -4.397105e-97 7.600132e-99 -1.313643e-100 1.691661e-102 -2.270079e-104 2.523595e-106 -2.945129e-108 2.794018e-110 -2.553641e-112 1.733415e-114 -1.074855e-116 4.622394e-119 -1.774440e-121 2.083241e-122 6.099570e-121 1.823874e-119 5.559770e-118 1.690936e-116 5.145690e-115 1.559934e-113 4.643254e-112 1.376690e-110 3.935140e-109 1.122723e-107 3.035948e-106 8.232004e-105 2.083243e-103 5.323910e-102 1.252454e-100 3.002259e-99 6.542088e-98 1.467443e-96 2.956448e-95 6.197614e-94 1.152737e-92 2.255276e-91 3.863091e-90 7.035627e-89 1.104657e-87 1.864045e-86 2.660994e-85 4.129623e-84 5.292831e-83 7.474046e-82 8.444113e-81 
4.532264e-78 4.401672e-77 4.868181e-76 3.889714e-75 3.631659e-74 2.252825e-73 1.695404e-72 7.463261e-72 4.233775e-71 1.152141e-70 4.523877e-70 6.729320e-70 1.784835e-69 1.831956e-69 4.004853e-69 3.581893e-69 7.365498e-69 6.229422e-69 1.271037e-68 1.050157e-68 2.186845e-68 1.795344e-68 3.884596e-68 3.177498e-68 7.140127e-68 5.575614e-68 1.209903e-67 7.397172e-68 1.098304e-67 3.387696e-68 1.744771e-68 3.169888e-69 6.639704e-70 8.646519e-71 1.929567e-71 2.081071e-71 3.216211e-70 3.604559e-70 3.782470e-69 1.361214e-69 5.300761e-69 7.939769e-70 1.820373e-70 1.901450e-71 1.852597e-72 1.054651e-73 4.730028e-75 4.325484e-76 1.195154e-75 -1.792078e-74 1.345559e-73 -8.566833e-73 2.854584e-72 -1.708015e-72 2.812144e-74 -7.878901e-75 -7.821710e-76 4.571923e-77 -9.301428e-75 2.209977e-73 -4.390677e-72 2.370953e-71 3.586073e-71 1.734853e-71 2.162414e-72 1.586297e-73 -9.141536e-75 5.156468e-76 -3.344884e-77 1.289865e-78 -4.792785e-80 9.176896e-82 -1.858259e-83 -6.874107e-84 -2.621767e-86 6.869740e-87 -8.121621e-87 1.778914e-87 -1.467340e-88 1.154606e-89 -4.724768e-91 1.974656e-92 -4.953276e-94 1.257012e-95 -2.018112e-97 3.173203e-99 -2.997030e-101 2.332085e-103 -9.487438e-107 -1.895210e-107 2.944622e-109 -2.969886e-111 1.906116e-113 -1.054458e-115 3.728163e-118 -1.169071e-120 2.302502e-121 7.352198e-120 2.360655e-118 7.762045e-117 2.535792e-115 8.309882e-114 2.700655e-112 8.624394e-111 2.730931e-109 8.330800e-108 2.525611e-106 7.243262e-105 2.074922e-103 5.532520e-102 1.484818e-100 3.656694e-99 9.151637e-98 2.074977e-96 4.832323e-95 1.007261e-93 2.180510e-92 4.173316e-91 8.387616e-90 1.470581e-88 2.737472e-87 4.376895e-86 7.513203e-85 1.087045e-83 1.708391e-82 2.209794e-81 3.145209e-80 3.572005e-79 
1.839667e-76 1.791137e-75 1.969159e-74 1.571294e-73 1.449459e-72 8.949219e-72 6.611164e-71 2.888838e-70 1.597211e-69 4.307652e-69 1.635198e-68 2.409997e-68 6.137615e-68 6.225536e-68 1.302243e-67 1.148361e-67 2.253198e-67 1.876951e-67 3.646146e-67 2.968100e-67 5.875228e-67 4.761123e-67 9.781883e-67 7.924562e-67 1.689044e-66 1.310294e-66 2.690117e-66 1.622903e-66 2.270300e-66 6.595832e-67 3.208396e-67 5.175227e-68 1.015750e-68 1.160552e-69 4.195058e-70 8.753577e-70 1.148190e-68 1.558175e-68 1.343503e-67 5.451694e-68 1.982551e-67 2.773859e-68 6.761910e-69 7.340144e-70 8.005395e-71 5.342801e-72 2.222217e-73 -6.692470e-75 -2.249136e-74 2.672837e-73 -1.570894e-72 5.514904e-72 -3.295926e-71 3.000229e-72 -1.123349e-72 -3.737193e-73 -8.741394e-74 -1.146335e-74 2.507716e-73 -6.416259e-72 1.124331e-70 -6.088535e-70 -6.751179e-70 -2.971209e-70 -3.469421e-71 -3.035542e-72 1.296083e-73 -8.150703e-75 5.692114e-76 -2.523311e-77 9.515618e-79 -6.764939e-81 -8.794594e-82 -4.337253e-82 -3.552765e-84 -3.104454e-85 2.254750e-85 -4.623512e-86 3.721394e-87 -2.831616e-88 1.207855e-89 -5.039711e-91 1.362595e-92 -3.583320e-94 6.599367e-96 -1.175832e-97 1.533293e-99 -1.919301e-101 1.783218e-103 -1.565071e-105 1.004242e-107 -5.950231e-110 2.469674e-112 -9.195773e-115 2.198030e-117 -4.407356e-120 2.087323e-120 7.312442e-119 2.572443e-117 9.214522e-116 3.291310e-114 1.171735e-112 4.144705e-111 1.430822e-109 4.899863e-108 1.605237e-106 5.223130e-105 1.596611e-103 4.869051e-102 1.372996e-100 3.891426e-99 1.005938e-97 2.638786e-96 6.237228e-95 1.512050e-93 3.265554e-92 7.312349e-91 1.442033e-89 2.980196e-88 5.356370e-87 1.019481e-85 1.662955e-84 2.902512e-83 4.264591e-82 6.777165e-81 8.862511e-80 1.268415e-78 1.450097e-77 
7.265876e-75 7.084483e-74 7.747319e-73 6.166994e-72 5.625648e-71 3.453104e-70 2.506898e-69 1.086065e-68 5.859989e-68 1.564353e-67 5.748448e-67 8.382782e-67 2.051958e-66 2.053563e-66 4.113549e-66 3.569634e-66 6.687845e-66 5.474359e-66 1.013190e-65 8.103319e-66 1.525922e-65 1.216510e-65 2.375567e-65 1.898526e-65 3.843075e-65 2.948352e-65 5.735191e-65 3.397617e-65 4.479420e-65 1.214831e-65 5.572710e-66 7.751712e-67 1.442582e-67 1.394588e-68 1.114116e-68 3.453328e-68 3.884422e-67 6.083551e-67 4.457083e-66 1.995844e-66 6.776933e-66 8.287716e-67 2.210142e-67 2.283527e-68 2.972089e-69 2.560571e-70 2.048542e-71 1.094892e-72 2.535603e-73 -1.678645e-72 -2.900161e-72 1.949029e-70 -1.407772e-70 2.143979e-69 2.254136e-72 -4.807575e-72 -2.474150e-72 1.230087e-75 -9.386188e-72 1.654231e-70 -2.552075e-69 1.244694e-68 1.065276e-68 4.016333e-69 4.639557e-70 4.632560e-71 -1.207427e-72 1.007147e-73 -8.230108e-75 4.326732e-76 -2.310756e-77 7.563365e-79 -4.520639e-80 -1.219316e-80 -2.337459e-82 1.226790e-83 -4.673546e-84 8.726309e-85 -6.423273e-86 4.684912e-87 -1.900922e-88 7.694893e-90 -1.955278e-91 4.887930e-93 -8.118411e-95 1.312950e-96 -1.454174e-98 1.561496e-100 -1.166962e-102 8.444130e-105 -4.223227e-107 2.018391e-109 -6.211488e-112 1.775360e-114 -2.410188e-117 5.044325e-120 1.629374e-119 6.365579e-118 2.473079e-116 9.828877e-115 3.863988e-113 1.517362e-111 5.874042e-110 2.219375e-108 8.256292e-107 2.933128e-105 1.027835e-103 3.373225e-102 1.097800e-100 3.290654e-99 9.864751e-98 2.685802e-96 7.391093e-95 1.825030e-93 4.607325e-92 1.032099e-90 2.390844e-89 4.860020e-88 1.032767e-86 1.902669e-85 3.702431e-84 6.158596e-83 1.092945e-81 1.629620e-80 2.618938e-79 3.459456e-78 4.979968e-77 5.725506e-76 
2.755796e-73 2.692975e-72 2.926399e-71 2.325881e-70 2.095746e-69 1.280143e-68 9.121575e-68 3.921949e-67 2.062285e-66 5.454574e-66 1.937304e-65 2.797425e-65 6.569694e-65 6.490295e-65 1.242349e-64 1.061136e-64 1.893725e-64 1.523125e-64 2.678358e-64 2.103887e-64 3.757203e-64 2.944959e-64 5.447080e-64 4.290665e-64 8.216787e-64 6.226654e-64 1.142462e-63 6.633958e-64 8.192979e-64 2.056016e-64 8.833842e-65 1.014167e-65 1.835131e-66 1.447743e-67 3.181648e-67 1.214271e-66 1.173467e-65 2.056445e-65 1.279144e-64 6.214684e-65 1.898284e-64 1.851858e-65 5.393136e-66 4.429731e-67 7.151690e-68 6.563514e-69 6.123545e-70 3.591471e-71 -9.865517e-74 -1.472672e-71 4.680196e-70 -6.898353e-69 1.277352e-68 -8.528864e-68 1.561783e-69 -4.442338e-72 -5.643076e-71 -4.502672e-72 1.288999e-70 -2.694929e-69 4.438678e-68 -2.123687e-67 -1.371913e-67 -4.521958e-68 -5.179785e-69 -6.043305e-70 1.438987e-72 -1.081040e-72 8.516056e-74 -4.481237e-75 2.171774e-76 4.217462e-79 -8.771729e-79 -2.269046e-79 -4.013154e-81 -1.953028e-82 7.357384e-83 -1.212911e-83 8.954230e-85 -6.100029e-86 2.546574e-87 -9.861527e-89 2.590366e-90 -6.235772e-92 1.062733e-93 -1.636707e-95 1.802879e-97 -1.761612e-99 1.206848e-101 -7.120994e-104 2.779439e-106 -8.735167e-109 1.738492e-111 -8.307507e-115 1.573683e-116 9.825817e-119 9.918605e-119 4.352001e-117 1.928915e-115 8.617429e-114 3.832445e-112 1.678344e-110 7.273840e-109 3.034977e-107 1.249026e-105 4.845799e-104 1.854771e-102 6.569381e-101 2.305770e-99 7.373345e-98 2.355789e-96 6.770970e-95 1.965147e-93 5.076250e-92 1.339325e-90 3.114636e-89 7.481233e-88 1.568405e-86 3.431743e-85 6.483025e-84 1.290655e-82 2.190054e-81 3.952386e-80 5.982888e-79 9.720942e-78 1.297738e-76 1.877912e-75 2.172658e-74 
1.019315e-71 9.975019e-71 1.077479e-69 8.543311e-69 7.608003e-68 4.620511e-67 3.233882e-66 1.378719e-65 7.071897e-65 1.851465e-64 6.361628e-64 9.086700e-64 2.048589e-63 1.995361e-63 3.651069e-63 3.064916e-63 5.211340e-63 4.111051e-63 6.870026e-63 5.288715e-63 8.959904e-63 6.887000e-63 1.207202e-62 9.344287e-63 1.694401e-62 1.264065e-62 2.190015e-62 1.242555e-62 1.437078e-62 3.312270e-63 1.329239e-63 1.190315e-64 2.219768e-65 1.548859e-66 9.410345e-66 3.968081e-65 3.387489e-64 6.408692e-64 3.472819e-63 1.787526e-63 4.931418e-63 3.371145e-64 1.192744e-64 5.495260e-66 1.683171e-66 1.404189e-67 1.615285e-68 1.385296e-69 1.112253e-70 4.504755e-70 -8.347315e-69 1.202089e-67 -2.154077e-67 1.622112e-66 -5.950865e-68 8.900717e-70 -5.736487e-70 7.138791e-71 -2.551892e-69 2.970925e-68 -6.697776e-67 2.831353e-66 1.460121e-66 4.078956e-67 4.854598e-68 6.254860e-69 1.461145e-70 1.402587e-71 -7.237704e-73 4.019901e-74 -2.943267e-75 1.442484e-76 -1.360312e-77 -2.330445e-78 -2.542040e-80 6.135243e-81 -8.115927e-82 1.055449e-82 -6.682905e-84 4.047387e-85 -1.490205e-86 5.143411e-88 -1.168535e-89 2.445507e-91 -3.431602e-93 4.357699e-95 -3.617165e-97 2.681801e-99 -1.171373e-101 4.979826e-104 -1.799999e-107 7.946199e-109 9.837020e-111 8.078708e-113 8.377160e-115 5.626644e-117 5.363404e-118 2.582382e-116 1.314214e-114 6.763692e-113 3.420926e-111 1.704615e-109 8.307021e-108 3.889745e-106 1.777102e-104 7.623478e-103 3.195173e-101 1.232572e-99 4.672578e-98 1.604181e-96 5.465689e-95 1.665322e-93 5.097106e-92 1.380966e-90 3.806190e-89 9.202511e-88 2.290468e-86 4.955916e-85 1.115749e-83 2.161825e-82 4.400248e-81 7.615582e-80 1.396894e-78 2.145849e-77 3.523685e-76 4.751338e-75 6.910424e-74 8.039712e-73 
3.636826e-70 3.565596e-69 3.825809e-68 3.027843e-67 2.662640e-66 1.608749e-65 1.104948e-64 4.673815e-64 2.336175e-63 6.057220e-63 2.011149e-62 2.842401e-62 6.143129e-62 5.899340e-62 1.030167e-61 8.496800e-62 1.373908e-61 1.062443e-61 1.683749e-61 1.269272e-61 2.035310e-61 1.532548e-61 2.539623e-61 1.929273e-61 3.303884e-61 2.422860e-61 3.952130e-61 2.186468e-61 2.358044e-61 4.936969e-62 1.842192e-62 1.145509e-63 2.514932e-64 2.288083e-65 2.641602e-64 1.175972e-63 8.915211e-63 1.779767e-62 8.409846e-62 4.492152e-62 1.097560e-61 3.911490e-63 2.168544e-63 -9.664105e-66 3.441337e-65 1.433442e-66 2.632738e-67 1.880886e-68 6.727630e-70 -5.393950e-69 1.174326e-67 -1.749220e-66 2.425424e-66 -1.640892e-65 5.058856e-67 2.058863e-68 -5.904377e-69 -3.038350e-70 -1.152253e-68 1.972149e-67 8.545069e-66 -3.294048e-65 -1.341977e-65 -3.239701e-66 -4.047198e-67 -5.731769e-68 -2.977896e-69 -2.176249e-70 1.053900e-73 -1.642934e-73 8.673746e-75 -2.579366e-76 -3.144809e-77 -2.192261e-77 -5.027675e-79 -3.623685e-80 5.972473e-81 -6.269222e-82 3.561375e-83 -1.680103e-84 5.133161e-86 -1.273320e-87 2.119277e-89 -2.780754e-91 2.516785e-93 -1.518476e-95 1.232390e-97 4.921667e-100 1.878885e-101 2.205563e-103 3.737390e-105 3.970592e-107 4.838304e-109 4.322363e-111 3.835078e-113 2.565399e-115 2.950356e-117 1.088160e-115 6.744112e-114 4.091000e-112 2.465127e-110 1.421948e-108 8.078582e-107 4.299801e-105 2.241584e-103 1.073023e-101 5.025591e-100 2.124327e-98 8.825066e-97 3.264630e-95 1.198165e-93 3.877329e-92 1.260131e-90 3.583862e-89 1.036622e-87 2.606431e-86 6.742613e-85 1.505715e-83 3.494609e-82 6.943999e-81 1.446669e-79 2.553608e-78 4.763147e-77 7.425598e-76 1.232435e-74 1.678779e-73 2.453436e-72 2.871170e-71 
1.267987e-68 1.244781e-67 1.326689e-66 1.047414e-65 9.097703e-65 5.465183e-64 3.685306e-63 1.545697e-62 7.533386e-62 1.933275e-61 6.206054e-61 8.673365e-61 1.797314e-60 1.700389e-60 2.833417e-60 2.293966e-60 3.526573e-60 2.670144e-60 4.011930e-60 2.957412e-60 4.487741e-60 3.304995e-60 5.177767e-60 3.853420e-60 6.234468e-60 4.486249e-60 6.894139e-60 3.715864e-60 3.733088e-60 7.067206e-61 2.438817e-61 8.479976e-63 2.901824e-63 5.761953e-64 7.242499e-63 3.304567e-62 2.273294e-61 4.682928e-61 1.968887e-60 1.074682e-60 2.336966e-60 1.233959e-62 3.889844e-62 -2.184261e-63 7.609995e-64 -7.727285e-66 5.581234e-66 1.259453e-67 -1.090708e-67 2.542370e-68 -1.080322e-66 2.284512e-65 -1.604051e-65 1.095871e-64 2.672465e-66 7.460123e-68 -5.083796e-68 -6.925027e-69 8.684778e-69 -7.892414e-66 -9.929391e-65 3.056395e-64 1.071811e-64 2.216056e-65 2.958999e-66 4.268701e-67 3.253465e-68 2.452179e-69 9.591006e-71 3.360850e-72 -3.237845e-75 5.367294e-76 -4.162894e-76 -1.086556e-76 -8.355323e-78 5.957880e-79 -3.228927e-80 1.721215e-81 -5.287722e-83 1.422635e-84 -2.194572e-86 2.708925e-88 5.486838e-91 7.828455e-92 4.223603e-93 8.513042e-95 2.603232e-96 4.231233e-98 8.375274e-100 1.119692e-101 1.612054e-103 1.769366e-105 1.928906e-107 1.687435e-109 1.316124e-111 7.486685e-114 1.691776e-116 3.958451e-115 2.998571e-113 2.213204e-111 1.592216e-109 1.091316e-107 7.244253e-106 4.474601e-104 2.667054e-102 1.447292e-100 7.584216e-99 3.552809e-97 1.617764e-95 6.497339e-94 2.566870e-92 8.864762e-91 3.055274e-89 9.148247e-88 2.772672e-86 7.262510e-85 1.949605e-83 4.497657e-82 1.074514e-80 2.190597e-79 4.665066e-78 8.399026e-77 1.591394e-75 2.517307e-74 4.219314e-73 5.804003e-72 8.518341e-71 1.002267e-69 
4.282679e-67 4.210187e-66 4.455536e-65 3.509706e-64 3.009563e-63 1.797946e-62 1.189629e-61 4.948564e-61 2.350194e-60 5.970240e-60 1.851603e-59 2.558561e-59 5.078785e-59 4.731568e-59 7.515158e-59 5.968018e-59 8.711806e-59 6.452083e-59 9.178462e-59 6.608342e-59 9.476218e-59 6.816324e-59 1.008169e-58 7.339823e-59 1.120425e-58 7.899182e-59 1.142059e-58 5.985906e-59 5.587863e-59 9.443539e-60 3.002879e-60 1.583883e-62 3.442252e-62 1.691082e-62 1.876244e-61 8.659608e-61 5.433065e-60 1.138593e-59 4.279117e-59 2.351387e-59 4.524285e-59 -1.028432e-60 6.457608e-61 -6.436518e-62 1.440152e-62 -7.932769e-64 1.167030e-64 -4.659276e-66 -4.050316e-66 -7.062750e-67 -2.233340e-65 -5.191687e-64 2.650593e-64 -4.286432e-64 -4.149399e-65 -1.455680e-67 -5.170353e-67 -2.245644e-67 1.708630e-66 1.323079e-64 1.337977e-63 -2.771089e-63 -8.817513e-64 -1.533136e-64 -2.150267e-65 -2.995942e-66 -2.663033e-67 -2.135866e-68 -1.262546e-69 -5.698071e-71 -6.767271e-73 2.139050e-74 -4.162781e-75 -4.825602e-76 5.881763e-78 5.855128e-79 3.309669e-80 3.095643e-81 3.119714e-83 5.176315e-85 -2.951420e-86 -7.744540e-89 9.751063e-89 4.023582e-90 1.679334e-91 4.109770e-93 9.770035e-95 1.757785e-96 2.949797e-98 4.132497e-100 5.245217e-102 5.800526e-104 5.572137e-106 4.604113e-108 2.775674e-110 7.678733e-113 -1.458315e-114 7.507191e-115 8.401908e-113 7.954904e-111 7.513362e-109 6.341125e-107 5.251019e-105 3.851152e-103 2.746053e-101 1.713678e-99 1.036224e-97 5.424211e-96 2.763156e-94 1.209737e-92 5.213297e-91 1.924276e-89 7.093881e-88 2.236621e-86 7.142911e-85 1.948240e-83 5.447098e-82 1.297378e-80 3.198025e-79 6.685163e-78 1.457386e-76 2.674958e-75 5.152670e-74 8.267228e-73 1.399906e-71 1.944274e-70 2.865816e-69 3.390025e-68 
1.416060e-65 1.393632e-64 1.463913e-63 1.150200e-62 9.736150e-62 5.782737e-61 3.754835e-60 1.548698e-59 7.169046e-59 1.802395e-58 5.401471e-58 7.378292e-58 1.402642e-57 1.286449e-57 1.946493e-57 1.515628e-57 2.099235e-57 1.520052e-57 2.045651e-57 1.437788e-57 1.946888e-57 1.367129e-57 1.907945e-57 1.358303e-57 1.955897e-57 1.351109e-57 1.837915e-57 9.385303e-58 8.125344e-58 1.226564e-58 3.551512e-59 -8.331845e-61 4.512386e-61 4.882684e-61 4.771019e-60 2.205664e-59 1.282969e-58 2.712574e-58 9.261604e-58 5.130037e-58 8.766673e-58 -3.695629e-59 1.114603e-59 -1.387171e-60 2.597613e-61 -2.096485e-62 2.421150e-63 -1.827971e-64 -1.416641e-64 1.078693e-63 -9.342509e-64 9.865277e-63 -3.966459e-63 1.460243e-63 1.332491e-64 -2.891232e-66 -5.049605e-66 -9.811757e-66 -1.387082e-64 -2.060583e-63 -1.743464e-62 2.439662e-62 7.086934e-63 1.031569e-63 1.529899e-64 2.043248e-65 2.094127e-66 1.780488e-67 1.508021e-68 8.820367e-70 5.685944e-71 1.267850e-72 -5.310587e-74 -1.243138e-75 5.251589e-77 8.890579e-80 -2.924734e-79 -4.559614e-80 -2.519823e-81 -1.186655e-82 -1.843310e-84 1.240765e-86 3.919457e-87 1.642388e-88 5.336793e-90 1.287853e-91 2.657503e-93 4.626060e-95 6.979338e-97 9.252082e-99 1.049176e-100 1.039736e-102 8.020349e-105 4.228569e-107 -1.197079e-109 -6.486640e-111 -1.150513e-112 -4.780243e-115 2.130661e-112 2.554968e-110 3.175156e-108 3.406105e-106 3.511349e-104 3.140840e-102 2.677907e-100 1.961133e-98 1.367853e-96 8.113741e-95 4.617691e-93 2.223252e-91 1.042637e-89 4.134722e-88 1.625763e-86 5.414056e-85 1.816659e-83 5.169029e-82 1.501170e-80 3.695286e-79 9.376138e-78 2.010829e-76 4.478447e-75 8.381832e-74 1.638694e-72 2.666830e-71 4.556146e-70 6.387991e-69 9.447038e-68 1.123237e-66 
4.554577e-64 4.486371e-63 4.677399e-62 3.665158e-61 3.062108e-60 1.808007e-59 1.151837e-58 4.710012e-58 2.124654e-57 5.285318e-57 1.530076e-56 2.065068e-56 3.758038e-56 3.390364e-56 4.884103e-56 3.724656e-56 4.891748e-56 3.458435e-56 4.400240e-56 3.014549e-56 3.852438e-56 2.636760e-56 3.470954e-56 2.412633e-56 3.276913e-56 2.214856e-56 2.835275e-56 1.408651e-56 1.130045e-56 1.503510e-57 3.932254e-58 -2.144512e-59 6.453259e-60 1.325351e-59 1.172440e-58 5.405711e-58 2.935840e-57 6.224234e-57 1.949499e-56 1.084005e-56 1.655166e-56 -9.157112e-58 1.872346e-58 -2.542605e-59 4.182046e-60 -3.959579e-61 4.105642e-62 -4.546579e-63 -8.657440e-63 -1.320188e-61 1.126806e-61 -1.368809e-61 2.995369e-62 -4.891419e-63 -2.149171e-64 -1.732408e-66 -3.299815e-65 -5.391696e-65 2.102627e-63 2.614226e-62 2.428485e-61 -2.141321e-61 -5.998273e-62 -7.173777e-63 -1.088288e-63 -1.332154e-64 -1.390585e-65 -1.186893e-66 -1.069543e-67 -7.066726e-69 -5.664971e-70 -2.556984e-71 -1.642544e-72 1.943361e-75 1.576034e-76 3.608871e-77 3.715588e-78 4.204294e-79 3.083488e-80 2.173803e-81 1.047470e-82 4.724265e-84 1.534710e-85 4.693290e-87 1.081202e-88 2.366202e-90 4.012934e-92 6.469101e-94 8.069618e-96 9.259461e-98 7.256364e-100 3.243332e-102 -4.491134e-104 -1.378003e-105 -2.382119e-107 -3.304872e-109 -3.920192e-111 -5.603021e-113 5.428637e-112 2.667177e-110 7.616058e-108 1.115850e-105 1.678066e-103 1.927808e-101 2.146385e-99 1.896038e-97 1.606631e-95 1.094621e-93 7.175253e-92 3.819151e-90 1.984128e-88 8.462786e-87 3.587070e-85 1.260902e-83 4.474632e-82 1.326585e-80 4.018568e-79 1.021058e-77 2.673978e-76 5.876627e-75 1.339430e-73 2.553778e-72 5.072849e-71 8.367433e-70 1.443204e-68 2.041565e-67 3.030176e-66 3.619951e-65 
1.436440e-62 1.416108e-61 1.464384e-60 1.144359e-59 9.432592e-59 5.536762e-58 3.460183e-57 1.402924e-56 6.166459e-56 1.518129e-55 4.244623e-55 5.661889e-55 9.857012e-55 8.749349e-55 1.198807e-54 8.955837e-55 1.113908e-54 7.691211e-55 9.238967e-55 6.171954e-55 7.433926e-55 4.962500e-55 6.154385e-55 4.181282e-55 5.352129e-55 3.546666e-55 4.269866e-55 2.074022e-55 1.537246e-55 1.820317e-56 4.176878e-57 -3.532304e-58 1.030668e-58 3.480068e-58 2.871852e-57 1.321795e-56 6.791874e-56 1.450667e-55 4.224217e-55 2.406127e-55 3.290521e-55 -1.892567e-56 3.212963e-57 -4.470148e-58 6.569319e-59 -6.371150e-60 6.137779e-61 -1.934807e-61 1.245873e-61 4.634099e-60 -2.859265e-60 1.309085e-60 -1.584779e-61 1.253941e-62 5.530107e-64 -5.771716e-66 -3.213353e-64 -2.744388e-63 -2.671643e-62 -3.765771e-61 -3.878518e-60 2.136585e-60 5.647252e-61 5.681745e-62 8.241999e-63 9.069285e-64 8.965655e-65 7.282681e-66 6.241292e-67 4.065721e-68 3.005677e-69 1.427585e-70 7.365639e-72 1.065335e-73 -2.558852e-75 -1.512984e-76 -8.136657e-78 -6.604634e-79 -4.226256e-80 -2.862443e-81 -1.498116e-82 -7.540073e-84 -2.966335e-85 -1.093753e-86 -3.235080e-88 -8.965029e-90 -2.050743e-91 -4.428513e-93 -8.103443e-95 -1.412685e-96 -2.134501e-98 -3.099220e-100 -3.975528e-102 -4.936742e-104 -5.503791e-106 -5.975324e-108 -5.901027e-110 -1.028848e-111 1.264703e-110 -2.403122e-109 2.360565e-107 3.218792e-105 7.431018e-103 1.127190e-100 1.634802e-98 1.789155e-96 1.838466e-94 1.464581e-92 1.102370e-90 6.552079e-89 3.753832e-87 1.731267e-85 7.872012e-84 2.929441e-82 1.094493e-80 3.386754e-79 1.065891e-77 2.798367e-76 7.538509e-75 1.698800e-73 3.951522e-72 7.677596e-71 1.546037e-69 2.585056e-68 4.493221e-67 6.413258e-66 9.540228e-65 1.145097e-63 
4.424586e-61 4.363237e-60 4.476369e-59 3.487091e-58 2.836331e-57 1.654451e-56 1.014440e-55 4.076382e-55 1.746203e-54 4.252146e-54 1.148413e-53 1.512695e-53 2.519545e-53 2.197734e-53 2.864030e-53 2.092847e-53 2.465109e-53 1.659449e-53 1.882166e-53 1.223810e-53 1.389709e-53 9.031722e-54 1.055970e-53 7.001046e-54 8.455335e-54 5.486483e-54 6.222529e-54 2.952490e-54 2.023202e-54 2.108178e-55 4.120467e-56 -4.883105e-57 1.836945e-57 8.909033e-57 6.984096e-56 3.210345e-55 1.577186e-54 3.394770e-54 9.333191e-54 5.473667e-54 6.825923e-54 -3.624899e-55 5.560342e-56 -7.782217e-57 1.041383e-57 -9.931102e-59 1.045921e-59 5.892610e-59 1.908126e-59 -1.140611e-58 4.338403e-59 -1.096876e-59 7.697185e-61 -3.575293e-62 -7.471216e-64 1.195246e-65 -2.005731e-63 -1.737986e-62 3.390178e-61 5.510407e-60 7.050707e-59 -2.288561e-59 -5.901381e-60 -4.956832e-61 -6.688673e-62 -6.358624e-63 -5.763035e-64 -4.213590e-65 -3.273952e-66 -1.918046e-67 -1.236969e-68 -4.873691e-70 -1.827779e-71 -1.316396e-73 5.483620e-76 1.914763e-77 4.481092e-79 -3.933848e-81 -2.015021e-81 -2.386168e-82 -1.585694e-83 -9.783657e-85 -4.309893e-86 -1.815721e-87 -5.853191e-89 -1.815130e-90 -4.498382e-92 -1.077783e-93 -2.133911e-95 -4.107442e-97 -6.720244e-99 -1.075517e-100 -1.500267e-102 -2.060277e-104 -2.522818e-106 -3.059683e-108 -3.310099e-110 -1.523093e-110 3.992273e-109 -9.657182e-108 2.840463e-106 -5.237020e-105 1.767622e-102 3.660060e-100 9.000456e-98 1.300454e-95 1.802063e-93 1.722885e-91 1.565957e-89 1.047595e-87 6.784808e-86 3.385815e-84 1.673269e-82 6.581486e-81 2.608346e-79 8.406569e-78 2.761444e-76 7.476045e-75 2.077784e-73 4.792795e-72 1.139920e-70 2.253756e-69 4.606566e-68 7.798889e-67 1.367213e-65 1.967192e-64 2.934550e-63 3.536458e-62 
1.338322e-59 1.320428e-58 1.342648e-57 1.042908e-56 8.364862e-56 4.850491e-55 2.916540e-54 1.162101e-53 4.849484e-53 1.168780e-52 3.047361e-52 3.966790e-52 6.314467e-52 5.416813e-52 6.703883e-52 4.795553e-52 5.339671e-52 3.507845e-52 3.749268e-52 2.375783e-52 2.538402e-52 1.608904e-52 1.770041e-52 1.148062e-52 1.306111e-52 8.330932e-53 8.888982e-53 4.151545e-53 2.619908e-53 2.462761e-54 3.784905e-55 -5.800751e-56 3.680714e-56 2.272293e-55 1.719777e-54 7.964954e-54 3.782570e-53 8.331139e-53 2.186339e-52 1.366553e-52 1.558446e-52 -5.903217e-54 9.890023e-55 -1.429939e-55 1.694929e-56 -1.478082e-57 -2.509177e-58 -4.327984e-57 -1.136021e-57 2.102438e-57 -5.383418e-58 7.979501e-59 -2.799416e-60 6.429557e-62 1.579088e-63 4.478262e-64 -2.653352e-62 -6.208273e-61 -5.564123e-60 -1.016604e-58 -1.477852e-57 2.892382e-58 7.016194e-59 5.147724e-60 6.052675e-61 4.978615e-62 3.948654e-63 2.565966e-64 1.708436e-65 8.861039e-67 4.584051e-68 1.574239e-69 3.888925e-71 3.737562e-73 -2.696184e-75 -7.372083e-77 -2.050422e-78 -1.138304e-79 -5.704618e-81 -3.538131e-82 -1.824195e-83 -9.876795e-85 -4.337663e-86 -1.885852e-87 -6.702178e-89 -2.312397e-90 -6.635771e-92 -1.839666e-93 -4.321959e-95 -9.818279e-97 -1.923880e-98 -3.656820e-100 -6.092669e-102 -9.883296e-104 -1.425465e-105 -2.008535e-107 -2.360275e-109 -4.559538e-109 1.216906e-107 -3.113081e-106 8.965956e-105 -2.493270e-103 1.058646e-101 8.751220e-100 4.728112e-97 9.224028e-95 1.733082e-92 2.037017e-90 2.228907e-88 1.697479e-86 1.233813e-84 6.695212e-83 3.569168e-81 1.487550e-79 6.212575e-78 2.088546e-76 7.121804e-75 1.990093e-73 5.681044e-72 1.342187e-70 3.252431e-69 6.546168e-68 1.354212e-66 2.322025e-65 4.096359e-64 5.942755e-63 8.874188e-62 1.073941e-60 
3.969186e-58 3.914790e-57 3.947594e-56 3.055258e-55 2.417790e-54 1.392762e-53 8.217089e-53 3.244158e-52 1.319640e-51 3.145087e-51 7.921350e-51 1.017799e-50 1.549323e-50 1.305031e-50 1.534694e-50 1.072660e-50 1.129724e-50 7.227288e-51 7.284981e-51 4.488876e-51 4.517709e-51 2.786792e-51 2.889614e-51 1.830334e-51 1.966103e-51 1.231218e-51 1.239738e-51 5.695994e-52 3.317198e-52 2.797377e-53 2.974963e-54 -5.951774e-55 8.228422e-55 5.829131e-54 4.314383e-53 2.019732e-52 9.405590e-52 2.128852e-51 5.448255e-51 3.660587e-51 3.943863e-51 -6.753668e-53 1.971569e-53 -2.988863e-54 3.244362e-55 -2.247250e-56 3.395707e-56 2.147873e-55 3.458067e-56 -3.429585e-56 5.904671e-57 -5.747938e-58 1.272315e-59 -2.011171e-61 -2.296025e-63 1.384155e-62 -2.594529e-61 -1.057077e-59 4.342162e-59 1.589697e-57 3.401098e-56 -3.824354e-57 -9.282718e-58 -5.887845e-59 -6.033015e-60 -4.153190e-61 -2.885450e-62 -1.597382e-63 -9.130034e-65 -3.954105e-66 -1.696763e-67 -4.636120e-69 -9.531033e-71 -8.101635e-73 -1.672170e-75 -4.246968e-77 -1.259771e-78 -6.878688e-80 -3.492715e-81 -2.188579e-82 -1.156413e-83 -6.544506e-85 -3.035489e-86 -1.425284e-87 -5.481514e-89 -2.085766e-90 -6.564520e-92 -2.026792e-93 -5.245942e-95 -1.329532e-96 -2.865991e-98 -6.056579e-100 -1.104350e-101 -1.978680e-103 -3.100532e-105 -4.787668e-107 -1.302670e-109 -1.339731e-107 3.610561e-106 -9.692052e-105 2.775801e-103 -8.040159e-102 2.516269e-100 -9.388280e-99 1.364020e-96 3.485112e-94 1.298585e-91 1.985856e-89 2.897176e-87 2.545059e-85 2.153384e-83 1.270725e-81 7.425234e-80 3.270043e-78 1.451166e-76 5.073145e-75 1.804481e-73 5.190259e-72 1.526487e-70 3.685215e-69 9.116883e-68 1.864385e-66 3.909068e-65 6.777913e-64 1.204469e-62 1.759597e-61 2.632311e-60 3.195722e-59 
1.157429e-56 1.141713e-55 1.140242e-54 8.798184e-54 6.862539e-53 3.929930e-52 2.273139e-51 8.900294e-51 3.526303e-50 8.319789e-50 2.022193e-49 2.567861e-49 3.732401e-49 3.090913e-49 3.447025e-49 2.357203e-49 2.342692e-49 1.461781e-49 1.385947e-49 8.321136e-50 7.866916e-50 4.735663e-50 4.615630e-50 2.865746e-50 2.899421e-50 1.792265e-50 1.699375e-50 7.756540e-51 4.148794e-51 3.283703e-52 1.646664e-53 -4.459089e-54 1.981345e-53 1.516160e-52 1.108278e-51 5.319167e-51 2.450210e-50 5.828617e-50 1.466824e-49 1.104050e-49 1.129331e-49 1.804761e-51 4.729340e-52 -7.530540e-53 6.618561e-54 -9.865226e-55 -2.777900e-54 -8.576312e-54 -9.995909e-55 5.232495e-55 -6.480352e-56 3.994453e-57 -2.521293e-59 6.604794e-61 -2.084450e-62 6.056653e-61 -7.490691e-61 -4.176049e-58 -3.925425e-56 -6.808947e-57 -8.636706e-55 5.764123e-56 1.383236e-56 7.974974e-58 6.772373e-59 3.980194e-60 2.332416e-61 1.114478e-62 5.217501e-64 1.917921e-65 6.253277e-67 1.404521e-68 1.793111e-70 1.391523e-72 -1.139939e-75 -1.504758e-77 -5.534649e-80 3.379020e-81 2.409719e-82 1.359019e-83 5.453461e-85 2.217338e-86 7.193818e-88 2.321254e-89 6.619657e-91 1.895630e-92 5.234312e-94 1.378406e-95 3.217025e-97 5.923816e-99 5.669454e-101 -1.379916e-102 -9.536877e-104 -3.453116e-105 -9.207136e-107 -2.679642e-108 1.387488e-107 -3.724491e-106 1.015585e-104 -2.830880e-103 8.133808e-102 -2.438738e-100 7.680026e-99 -2.778747e-97 1.238051e-95 6.161736e-94 9.587322e-91 1.941682e-88 3.836982e-86 3.937432e-84 3.837785e-82 2.472184e-80 1.565770e-78 7.298755e-77 3.410720e-75 1.241216e-73 4.572807e-72 1.354854e-70 4.082641e-69 1.007707e-67 2.534008e-66 5.267386e-65 1.115495e-63 1.956567e-62 3.492806e-61 5.140164e-60 7.686906e-59 9.365581e-58 
3.322068e-55 3.273671e-54 3.240980e-53 2.490682e-52 1.916592e-51 1.090073e-50 6.187628e-50 2.400256e-49 9.272546e-49 2.163201e-48 5.079665e-48 6.365237e-48 8.844135e-48 7.186673e-48 7.608944e-48 5.079010e-48 4.768927e-48 2.894883e-48 2.585382e-48 1.508458e-48 1.342162e-48 7.864756e-49 7.223436e-49 4.386950e-49 4.194815e-49 2.555789e-49 2.292056e-49 1.038426e-49 5.118576e-50 3.809147e-51 -4.941949e-53 2.080428e-54 5.082787e-52 4.050867e-51 2.962012e-50 1.463541e-49 6.788788e-49 1.706815e-48 4.341928e-48 3.687985e-48 3.762197e-48 2.120896e-49 1.841671e-50 -2.636878e-51 2.081820e-52 3.116698e-53 1.975101e-52 3.122199e-52 2.463382e-53 -7.492924e-54 7.529975e-55 -3.048351e-56 1.239512e-58 -3.792919e-59 -4.465321e-60 2.003600e-59 4.552272e-58 4.304982e-56 6.011957e-54 -1.388436e-54 2.246039e-53 -8.534936e-55 -2.230784e-55 -1.146989e-56 -8.288414e-58 -4.052615e-59 -2.049235e-60 -8.207801e-62 -3.269684e-63 -9.949107e-65 -2.757666e-66 -5.228001e-68 -6.919273e-70 -6.328797e-72 -2.801221e-74 -4.267441e-76 -6.959072e-78 -2.227909e-79 -7.032893e-81 -3.032146e-82 -1.189518e-83 -5.424717e-85 -2.159305e-86 -9.224007e-88 -3.376172e-89 -1.272158e-90 -4.086866e-92 -1.322888e-93 -3.661087e-95 -1.010146e-96 -2.399843e-98 -5.657278e-100 -1.158783e-101 -2.350802e-103 -4.181843e-105 -8.710407e-107 3.652805e-106 -1.020301e-104 2.810066e-103 -8.092074e-102 2.336553e-100 -7.246852e-99 2.315765e-97 -8.670782e-96 3.515928e-94 -2.524114e-92 4.574005e-90 1.172319e-87 4.521608e-85 5.542552e-83 6.603963e-81 4.638192e-79 3.246160e-77 1.594907e-75 7.917406e-74 2.987093e-72 1.145385e-70 3.483484e-69 1.078743e-67 2.714365e-66 6.952147e-65 1.465409e-63 3.139137e-62 5.558806e-61 9.980355e-60 1.477158e-58 2.210442e-57 2.699170e-56 