# vtk DataFile Version 2.0
Comment goes here
ASCII

DATASET STRUCTURED_POINTS
DIMENSIONS    128   128   1

ORIGIN    0.000   0.000   0.000
SPACING   0.0156250.015625   1.000

POINT_DATA   16384
SCALARS Concentration double
LOOKUP_TABLE default

1.663820e-82 1.783758e-81 2.825583e-80 2.387868e-79 3.402078e-78 2.091234e-77 2.568317e-76 1.008843e-75 9.828647e-75 1.970374e-74 1.286993e-73 1.023785e-73 3.315502e-73 1.683190e-73 3.899251e-73 1.801006e-73 3.884199e-73 1.812449e-73 4.096115e-73 2.059486e-73 7.905062e-73 1.795839e-72 9.686583e-71 3.295370e-70 1.333574e-68 2.528644e-68 4.777150e-67 2.656282e-67 6.498170e-66 -3.091830e-66 4.359740e-64 -6.560674e-64 3.096316e-62 -1.281733e-62 6.736533e-61 6.304677e-62 2.868130e-60 5.689687e-61 1.028427e-60 1.944547e-61 3.990642e-62 5.009329e-63 -1.431880e-62 2.822635e-61 -3.811876e-60 4.920180e-59 -3.881544e-58 2.417636e-57 -1.385911e-57 -1.130735e-55 9.067791e-55 -4.459788e-54 7.534719e-54 -4.819240e-55 4.347701e-55 -3.388705e-53 5.756414e-53 -1.675830e-51 4.605973e-50 -5.421327e-49 5.580379e-48 -2.270272e-47 4.032017e-47 -1.016708e-47 -1.260728e-48 5.772381e-50 -4.183036e-51 2.329554e-52 -7.912018e-54 4.394166e-56 2.110136e-56 -3.118983e-58 1.323027e-59 2.494344e-60 -2.274289e-62 3.427310e-62 -5.770190e-61 3.292240e-61 -7.607920e-62 1.507880e-62 -1.551954e-63 1.640356e-64 -1.074527e-65 7.273315e-67 -3.382393e-68 1.607935e-69 -5.616503e-71 1.988470e-72 -5.444898e-74 1.506949e-75 -3.368385e-77 7.604279e-79 -1.429106e-80 2.690181e-82 -4.253185e-84 6.618717e-86 -8.595867e-88 1.080670e-89 -1.124083e-91 1.120747e-93 -9.191975e-96 7.195854e-98 -4.617045e-100 2.823358e-102 -1.409995e-104 6.705488e-107 6.558491e-110 2.939243e-108 3.596382e-107 2.853765e-106 3.383787e-105 2.585896e-104 3.450797e-103 3.983950e-102 8.762527e-101 2.005501e-99 5.401052e-98 1.325394e-96 3.384491e-95 7.553964e-94 1.778146e-92 3.519741e-91 7.626072e-90 1.325400e-88 2.655506e-87 4.014513e-86 7.465239e-85 9.650800e-84 
6.668156e-81 7.194627e-80 1.124145e-78 9.494335e-78 1.309156e-76 8.012755e-76 9.322786e-75 3.643094e-74 3.289284e-73 6.550977e-73 3.895586e-72 3.052344e-72 8.991263e-72 4.438142e-72 9.426609e-72 4.220448e-72 8.393132e-72 3.811426e-72 7.984617e-72 4.080214e-72 1.938610e-71 8.476902e-71 3.171906e-69 1.470081e-68 3.855018e-67 8.834602e-67 1.187058e-65 8.571118e-66 1.733166e-64 1.131738e-64 1.238983e-62 6.811487e-64 8.647258e-61 1.823052e-61 1.879853e-59 4.672216e-60 8.271400e-59 1.661977e-59 3.205292e-59 5.876727e-60 1.383144e-60 1.720948e-61 1.291647e-61 -2.092611e-60 2.720035e-59 -3.270546e-58 1.992293e-57 -1.380596e-57 -1.650809e-55 2.727115e-54 -1.637232e-53 8.396025e-53 -1.390957e-52 2.337449e-53 -1.185955e-53 -2.225586e-51 -1.386677e-51 3.758704e-50 -7.793920e-49 7.857160e-48 -7.201902e-47 2.766179e-46 -4.367369e-46 1.099130e-46 1.170884e-47 -4.314448e-49 2.749843e-50 -9.579591e-52 -8.046551e-53 1.302509e-53 -1.350336e-54 5.990638e-56 -1.783635e-57 2.229390e-58 6.194426e-61 -1.840735e-60 1.071435e-59 -5.839299e-60 1.139598e-60 -2.177243e-61 2.093734e-62 -2.166702e-63 1.355860e-64 -9.014544e-66 3.994917e-67 -1.845903e-68 5.999375e-70 -1.997433e-71 4.796696e-73 -1.156724e-74 2.001958e-76 -3.350954e-78 3.690367e-80 -3.161064e-82 -5.201122e-85 6.342740e-86 -1.334501e-87 1.998969e-89 -2.209919e-91 2.192911e-93 -1.698340e-95 1.232172e-97 -7.056872e-100 3.845093e-102 -1.654083e-104 6.812559e-107 -2.255589e-109 -2.826423e-110 2.149967e-109 2.569688e-107 1.029939e-105 3.753720e-104 1.302342e-102 4.297456e-101 1.397729e-99 4.223043e-98 1.270915e-96 3.446922e-95 9.470139e-94 2.266046e-92 5.648692e-91 1.179351e-89 2.670765e-88 4.830907e-87 9.985240e-86 1.551449e-84 2.936095e-83 3.856825e-82 
2.488353e-79 2.704477e-78 4.161969e-77 3.517059e-76 4.688325e-75 2.859589e-74 3.151684e-73 1.225146e-72 1.026413e-71 2.028941e-71 1.100339e-70 8.485790e-71 2.274044e-70 1.089855e-70 2.122136e-70 9.190193e-71 1.685309e-70 7.428082e-71 1.444472e-70 7.808211e-71 5.078755e-70 3.438894e-69 9.726016e-68 5.354039e-67 1.028030e-65 2.628494e-65 2.679894e-64 2.464043e-64 4.352502e-63 8.345470e-63 3.268008e-61 5.060644e-61 2.163515e-59 1.796608e-59 4.518571e-58 1.857648e-58 1.953135e-57 3.891958e-58 7.531047e-58 1.223296e-58 3.233561e-59 4.480921e-60 -2.103511e-61 1.529753e-59 -1.769036e-58 1.547159e-57 -7.995802e-58 -2.083877e-55 3.309525e-54 -3.971344e-53 2.240773e-52 -1.157257e-51 2.001021e-51 -6.846556e-52 -1.904181e-52 -8.470448e-50 -4.693398e-50 -3.387909e-50 7.580099e-48 -8.292189e-47 6.990971e-46 -2.801580e-45 3.904136e-45 -1.010574e-45 -8.861298e-47 1.970608e-48 -8.871435e-50 -5.884085e-51 2.277839e-51 -2.623473e-52 2.167607e-53 8.176569e-56 -7.313957e-56 8.970721e-57 3.563285e-59 5.911342e-59 -1.638651e-58 8.206039e-59 -1.483579e-59 2.650772e-60 -2.556012e-61 2.534775e-62 -1.622711e-63 1.051173e-64 -4.834974e-66 2.216988e-67 -7.649272e-69 2.602286e-70 -6.910503e-72 1.792885e-73 -3.711897e-75 7.443157e-77 -1.205324e-78 1.875349e-80 -2.369434e-82 2.856745e-84 -2.801371e-86 2.607011e-88 -1.970948e-90 1.407796e-92 -8.139096e-95 4.428262e-97 -1.937482e-99 7.944140e-102 -2.591802e-104 7.878811e-107 -1.823531e-109 1.998324e-109 8.142050e-108 3.306697e-106 1.325332e-104 5.164474e-103 1.980857e-101 7.213789e-100 2.588599e-98 8.583417e-97 2.821264e-95 8.306993e-94 2.460046e-92 6.304415e-91 1.669268e-89 3.678767e-88 8.719817e-87 1.641823e-85 3.501309e-84 5.591722e-83 1.076149e-81 1.437041e-80 
8.989738e-78 9.817367e-77 1.490004e-75 1.255910e-74 1.622606e-73 9.822860e-73 1.029880e-71 3.961888e-71 3.098157e-70 6.043388e-70 3.007600e-69 2.272083e-69 5.560610e-69 2.574893e-69 4.611549e-69 1.921189e-69 3.261027e-69 1.386616e-69 2.521556e-69 1.550573e-69 1.448305e-68 1.255968e-67 2.890518e-66 1.730997e-65 2.638840e-64 7.073807e-64 5.779488e-63 6.685107e-63 1.091002e-61 3.429687e-61 8.504362e-60 2.357241e-59 5.251079e-58 7.190453e-58 1.036650e-56 5.813429e-57 4.328202e-56 8.268236e-57 1.624813e-56 2.076595e-57 7.187633e-58 1.018284e-58 2.202774e-59 -4.634959e-59 4.556031e-58 -2.769794e-58 -9.960130e-56 2.639801e-54 -3.232595e-53 3.688608e-52 -2.072564e-51 1.175546e-50 -2.196781e-50 1.803431e-50 -3.257696e-50 -1.305921e-48 -1.391725e-48 9.245445e-48 -1.045618e-46 8.245178e-46 -5.978611e-45 2.311804e-44 -3.008186e-44 7.479464e-45 5.587693e-46 -1.566769e-48 -4.085024e-50 1.105553e-49 -2.648448e-50 3.315047e-51 -3.807175e-52 3.046269e-53 -2.609978e-54 1.287411e-55 2.488643e-57 -1.757396e-57 1.985337e-57 -8.895567e-58 1.399797e-58 -2.335261e-59 2.084944e-60 -1.966909e-61 1.172204e-62 -7.200844e-64 3.046424e-65 -1.304469e-66 4.057231e-68 -1.262051e-69 2.957623e-71 -6.878037e-73 1.236766e-74 -2.193304e-76 3.058858e-78 -4.179688e-80 4.527393e-82 -4.768272e-84 3.982230e-86 -3.209515e-88 2.040910e-90 -1.244982e-92 5.940873e-95 -2.708507e-97 9.544294e-100 -3.204080e-102 8.171448e-105 -1.979171e-107 6.858710e-110 1.571027e-108 7.241412e-107 3.326855e-105 1.496031e-103 6.561542e-102 2.809015e-100 1.143425e-98 4.544630e-97 1.667688e-95 6.005258e-94 1.930624e-92 6.175617e-91 1.700174e-89 4.786696e-88 1.114377e-86 2.765824e-85 5.416861e-84 1.192050e-82 1.953639e-81 3.824404e-80 5.180617e-79 
3.059499e-76 3.358515e-75 5.020948e-74 4.223748e-73 5.283705e-72 3.175814e-71 3.166575e-70 1.205191e-69 8.802429e-69 1.692746e-68 7.737337e-68 5.719303e-68 1.277852e-67 5.705347e-68 9.395786e-68 3.754636e-68 5.900367e-68 2.412821e-68 4.130920e-68 3.273980e-68 4.181843e-67 4.146127e-66 8.008202e-65 5.005220e-64 6.262056e-63 1.700517e-62 1.140441e-61 1.694391e-61 2.589983e-60 1.112268e-59 2.044653e-58 7.637763e-58 1.151726e-56 2.097612e-56 2.088121e-55 1.444917e-55 8.082769e-55 1.412770e-55 2.767225e-55 2.158298e-56 1.259356e-56 1.550545e-57 3.559764e-58 1.574818e-58 -6.441032e-59 -3.985878e-56 1.097789e-54 -2.134447e-53 2.494643e-52 -2.638200e-51 1.566724e-50 -8.799838e-50 1.871911e-49 -2.581055e-49 -3.919475e-49 -1.443601e-47 -2.872870e-47 4.002991e-47 5.101664e-46 -4.945936e-45 3.558980e-44 -1.584346e-43 1.956642e-43 -4.832844e-44 -2.936997e-45 -7.315743e-47 8.949393e-49 -9.001290e-49 1.760625e-49 -2.201912e-50 2.076547e-51 1.435136e-52 -4.668481e-53 2.029689e-54 4.690808e-56 2.970562e-56 -1.918974e-56 7.326116e-57 -1.125227e-57 1.692105e-58 -1.517157e-59 1.321889e-60 -7.906252e-62 4.521743e-63 -1.904450e-64 7.578051e-66 -2.309531e-67 6.590359e-69 -1.473222e-70 3.061192e-72 -5.044710e-74 7.678735e-76 -9.321296e-78 1.039124e-79 -9.245977e-82 7.515062e-84 -4.862224e-86 2.859643e-88 -1.331582e-90 5.613511e-93 -1.861367e-95 5.576272e-98 -1.312778e-100 2.775517e-103 -4.963071e-106 6.020503e-109 1.695876e-109 9.843574e-108 5.279721e-106 2.767105e-104 1.433403e-102 7.151195e-101 3.492643e-99 1.603772e-97 7.185299e-96 2.939659e-94 1.175146e-92 4.146406e-91 1.445458e-89 4.286489e-88 1.289899e-86 3.174723e-85 8.271665e-84 1.684803e-82 3.829110e-81 6.438080e-80 1.281565e-78 1.761100e-77 
1.014245e-74 1.116777e-73 1.645604e-72 1.377933e-71 1.671967e-70 9.944150e-70 9.459531e-69 3.547134e-68 2.430537e-67 4.587173e-67 1.934362e-66 1.393967e-66 2.849723e-66 1.222067e-66 1.853918e-66 7.075098e-67 1.031836e-66 4.040922e-67 6.619716e-67 7.747903e-67 1.216940e-65 1.272210e-64 2.138698e-63 1.343632e-62 1.429292e-61 3.800264e-61 2.158412e-60 4.162263e-60 6.095709e-59 3.169772e-58 4.789114e-57 2.092940e-56 2.449721e-55 5.257845e-55 4.048858e-54 3.205077e-54 1.435588e-53 2.181983e-54 4.399102e-54 8.084469e-56 2.273919e-55 1.912149e-56 7.530156e-57 9.637199e-58 -4.631247e-57 1.681755e-55 -3.883837e-54 7.652548e-53 -9.368125e-52 1.079557e-50 -6.989391e-50 4.488891e-49 -1.144958e-48 3.249169e-48 -1.089491e-48 -8.714406e-47 -2.300858e-46 6.797031e-46 -4.880518e-45 2.378974e-44 -1.565560e-43 8.546755e-43 -1.065448e-42 2.495680e-43 1.269343e-44 6.687833e-46 1.995470e-47 5.475406e-48 -8.081787e-49 1.143224e-49 -2.085143e-50 2.682583e-51 -4.134283e-52 2.308091e-53 1.668188e-55 -4.281551e-55 1.349736e-55 -4.110902e-56 5.368923e-57 -7.103405e-58 5.581428e-59 -4.313544e-60 2.245799e-61 -1.128764e-62 4.078199e-64 -1.405514e-65 3.602951e-67 -8.735328e-69 1.602928e-70 -2.765966e-72 3.644167e-74 -4.499706e-76 4.259419e-78 -3.772886e-80 2.564297e-82 -1.631112e-84 7.940163e-87 -3.635246e-89 1.248506e-91 -4.261635e-94 8.132107e-97 -3.939339e-99 -1.616390e-101 -1.464000e-103 -1.463004e-105 -9.351066e-108 4.341499e-109 5.483821e-107 3.510014e-105 2.104246e-103 1.260152e-101 7.261140e-100 4.058355e-98 2.131772e-96 1.080229e-94 4.983345e-93 2.218154e-91 8.658709e-90 3.295115e-88 1.057057e-86 3.400707e-85 8.859866e-84 2.421936e-82 5.128122e-81 1.202713e-79 2.071896e-78 4.191189e-77 5.832443e-76 
3.200254e-73 3.534243e-72 5.128275e-71 4.274657e-70 5.027065e-69 2.958314e-68 2.683986e-67 9.910431e-67 6.372890e-66 1.179098e-65 4.588697e-65 3.218987e-65 6.017320e-65 2.471819e-65 3.453475e-65 1.254092e-65 1.698480e-65 6.354775e-66 1.024172e-65 1.982890e-65 3.396799e-64 3.609747e-63 5.342161e-62 3.317205e-61 3.033679e-60 7.738570e-60 3.782651e-59 9.739035e-59 1.354655e-57 8.023527e-57 1.034965e-55 4.968252e-55 4.757952e-54 1.132254e-53 7.048481e-53 6.078259e-53 2.224865e-52 2.703189e-53 5.826230e-53 -2.903079e-54 3.515426e-54 9.109508e-56 1.322115e-55 1.747026e-56 -7.637487e-56 -2.763358e-55 8.102780e-54 -1.923013e-52 2.836959e-51 -3.462599e-50 2.686356e-49 -1.772445e-48 5.570725e-48 -1.723670e-47 -2.300793e-47 -4.848274e-46 -5.833196e-46 -4.904395e-46 2.757153e-45 -1.758745e-44 2.707593e-43 -3.944922e-42 5.119874e-42 -1.168242e-42 -4.822233e-44 -4.125987e-45 -3.072905e-46 -4.104992e-47 8.349304e-49 -1.578816e-49 2.215119e-50 -2.304948e-51 6.015830e-52 1.556351e-52 6.375227e-54 2.684676e-54 -7.729691e-55 1.730103e-55 -2.128126e-56 2.243647e-57 -1.594150e-58 9.663033e-60 -4.255935e-61 1.598214e-62 -4.541235e-64 1.101004e-65 -2.078765e-67 3.356230e-69 -4.352093e-71 4.864450e-73 -4.579390e-75 3.767806e-77 -2.807262e-79 1.752135e-81 -1.195093e-83 3.610412e-86 -6.114936e-88 -3.327684e-90 -7.362330e-92 -7.075608e-94 -9.636864e-96 -8.709340e-98 -9.666954e-100 -7.835475e-102 -7.346912e-104 -5.318015e-106 -1.276758e-107 1.819540e-106 1.944795e-104 1.229766e-102 9.018138e-101 6.077311e-99 4.032609e-97 2.458475e-95 1.448697e-93 7.621228e-92 3.854348e-90 1.676857e-88 7.057750e-87 2.456939e-85 8.512207e-84 2.348098e-82 6.758706e-81 1.486392e-79 3.602484e-78 6.353034e-77 1.306092e-75 1.839708e-74 
9.890380e-72 1.093574e-70 1.562596e-69 1.293751e-68 1.476250e-67 8.572064e-67 7.434402e-66 2.694243e-65 1.631182e-64 2.948526e-64 1.062115e-63 7.234447e-64 1.237536e-63 4.856248e-64 6.250767e-64 2.153122e-64 2.710861e-64 9.690765e-65 1.617294e-64 5.324331e-64 9.223134e-63 9.675827e-62 1.286930e-60 7.748445e-60 6.208145e-59 1.485173e-58 6.424793e-58 2.219762e-57 2.951454e-56 1.883204e-55 2.166849e-54 1.087317e-53 8.991283e-53 2.261799e-52 1.196198e-51 1.082054e-51 3.350925e-51 2.982294e-52 7.442632e-52 -8.783303e-53 5.460147e-53 -1.701769e-54 2.603162e-54 2.427744e-55 -3.534836e-54 2.181046e-54 -6.116306e-53 1.447293e-52 -3.188835e-51 4.608536e-50 -4.159779e-49 4.122797e-48 -1.314257e-47 9.334064e-47 -1.769290e-46 -1.193727e-45 -2.154726e-45 -2.203509e-46 4.890247e-46 -2.492565e-44 5.853942e-43 1.490314e-41 -2.052155e-41 4.366768e-42 1.548244e-43 1.639092e-44 1.917045e-45 2.449091e-46 1.769661e-47 1.040977e-48 -1.535369e-50 1.575574e-51 1.481526e-54 4.625222e-52 5.768446e-53 -1.944897e-53 2.200905e-54 -2.937640e-55 2.322670e-56 -1.619627e-57 7.527877e-59 -2.983909e-60 8.715054e-62 -2.157275e-63 4.464117e-65 -7.700073e-67 1.268011e-68 -1.581959e-70 2.035825e-72 -1.943996e-74 5.227298e-77 -4.044415e-78 -1.029115e-79 -2.048977e-81 -4.981950e-83 -7.549868e-85 -1.415667e-86 -1.830697e-88 -2.753889e-90 -3.092564e-92 -3.856996e-94 -3.790179e-96 -4.005599e-98 -3.464913e-100 -3.152180e-102 -2.408856e-104 -5.269745e-106 -1.148399e-105 1.534802e-103 6.175239e-102 6.086817e-100 4.731602e-98 3.747560e-96 2.695417e-94 1.852650e-92 1.128336e-90 6.503224e-89 3.187454e-87 1.485619e-85 5.641953e-84 2.103189e-82 6.151171e-81 1.860933e-79 4.249051e-78 1.062176e-76 1.915430e-75 3.995857e-74 5.688782e-73 
2.937064e-70 3.249679e-69 4.569794e-68 3.756853e-67 4.157148e-66 2.380754e-65 1.973352e-64 7.012974e-64 3.998256e-63 7.051511e-63 2.351188e-62 1.552138e-62 2.427727e-62 9.071052e-63 1.075584e-62 3.499240e-63 4.100888e-63 1.405083e-63 2.644294e-63 1.424570e-62 2.376631e-61 2.436259e-60 2.923776e-59 1.693425e-58 1.192355e-57 2.634320e-57 1.035650e-56 4.849803e-56 6.074813e-55 4.066990e-54 4.225988e-53 2.169573e-52 1.578518e-51 4.093356e-51 1.873675e-50 1.730658e-50 4.590754e-50 2.446769e-51 8.444526e-51 -1.548736e-51 7.242513e-52 -5.903871e-53 4.386562e-53 1.923280e-55 -8.113378e-53 -2.195559e-54 -1.429817e-51 -9.846826e-52 -1.518885e-50 -5.177382e-49 -2.807480e-49 -2.364694e-47 8.438604e-48 -1.117730e-46 -7.726342e-47 -2.879965e-45 -9.466711e-45 -2.207774e-45 3.367770e-45 1.331883e-43 -3.671774e-42 -6.012578e-41 8.063693e-41 -1.526506e-41 -4.889185e-43 -5.514412e-44 -7.717609e-45 -1.060437e-45 -1.202082e-46 -9.826928e-48 -1.573248e-49 1.890469e-50 9.175252e-52 1.079329e-51 2.331291e-53 2.040838e-53 1.974298e-54 1.763299e-55 6.153246e-58 7.073372e-59 -5.695576e-60 -5.317546e-62 -1.554210e-63 7.994889e-65 9.150607e-66 2.900740e-67 1.071761e-68 2.104195e-70 2.521610e-72 -1.915020e-74 -3.418356e-75 -1.084206e-76 -3.420618e-78 -7.227180e-80 -1.568184e-81 -2.651674e-83 -4.516277e-85 -6.401185e-87 -8.988486e-89 -1.090349e-90 -1.295054e-92 -1.361121e-94 -1.389624e-96 -1.276511e-98 -1.133363e-100 -9.148080e-103 -1.680597e-104 -7.562459e-104 2.578856e-102 1.138386e-102 3.674029e-99 2.725944e-97 2.846237e-95 2.456907e-93 2.067553e-91 1.485099e-89 1.007310e-87 5.626651e-86 2.960349e-84 1.231031e-82 4.985789e-81 1.545007e-79 4.935052e-78 1.167855e-76 3.016622e-75 5.554286e-74 1.176223e-72 1.690876e-71 
8.586779e-69 9.493870e-68 1.313174e-66 1.070111e-65 1.148897e-64 6.475482e-64 5.137243e-63 1.785897e-62 9.608444e-62 1.649395e-61 5.098496e-61 3.257289e-61 4.655460e-61 1.653755e-61 1.804288e-61 5.534615e-62 6.035726e-62 2.009643e-62 4.756276e-62 3.739714e-61 5.922360e-60 5.862784e-59 6.433088e-58 3.548489e-57 2.220221e-56 4.458647e-56 1.666121e-55 1.031430e-54 1.219792e-53 8.334747e-53 8.016938e-52 4.129914e-51 2.723518e-50 7.143461e-50 2.913948e-49 2.710217e-49 6.295169e-49 1.417308e-50 9.664217e-50 -2.297809e-50 9.363841e-51 -1.085983e-51 7.600939e-52 -2.639041e-53 -1.742031e-51 -5.164829e-52 -3.612457e-50 -1.330654e-49 -4.885721e-49 1.867107e-47 4.896722e-49 1.939278e-46 -1.248986e-46 2.406103e-46 5.901931e-46 -4.540633e-45 -4.509400e-44 -3.675824e-44 -1.179874e-43 -8.922303e-43 1.901197e-41 2.346356e-40 -3.067089e-40 5.208176e-41 1.479292e-42 1.814320e-43 2.975920e-44 4.378453e-45 7.109264e-46 7.738805e-47 9.666180e-48 4.059699e-49 -2.156323e-51 2.173111e-51 -2.318196e-52 -5.192278e-53 -7.208730e-54 -1.078663e-54 -8.211119e-56 -5.592375e-57 -1.906897e-58 -5.815272e-60 -1.791067e-63 4.130837e-63 3.057928e-64 1.055928e-65 2.932779e-67 5.778083e-69 4.561437e-71 -1.271523e-72 -1.012058e-73 -3.227480e-75 -9.052122e-77 -1.963708e-78 -4.011603e-80 -6.963622e-82 -1.147306e-83 -1.668479e-85 -2.303941e-87 -2.867026e-89 -3.385210e-91 -3.649703e-93 -3.731663e-95 -3.515997e-97 -3.142129e-99 -2.599789e-101 -4.683055e-103 -2.697104e-102 7.212426e-101 -8.101100e-100 4.171580e-98 1.196992e-96 2.111355e-94 2.125828e-92 2.208418e-90 1.905200e-88 1.526236e-86 9.859000e-85 5.861528e-83 2.684679e-81 1.178505e-79 3.872706e-78 1.301581e-76 3.190214e-75 8.487614e-74 1.593983e-72 3.418073e-71 4.955645e-70 
2.434084e-67 2.686763e-66 3.654400e-65 2.949789e-64 3.072014e-63 1.702678e-62 1.292812e-61 4.391130e-61 2.229796e-60 3.719637e-60 1.065699e-59 6.574768e-60 8.578760e-60 2.886277e-60 2.897700e-60 8.339811e-61 8.482147e-61 2.819150e-61 9.386027e-61 9.485501e-60 1.409331e-58 1.343718e-57 1.350022e-56 7.063545e-56 3.930891e-55 7.117452e-55 2.693863e-54 2.118619e-53 2.335333e-52 1.611474e-51 1.443044e-50 7.407996e-50 4.472172e-49 1.174448e-48 4.322861e-48 3.996147e-48 8.228946e-48 -4.886841e-50 1.049498e-48 -2.932215e-49 1.080598e-49 -1.485033e-50 1.213933e-50 3.393253e-52 -3.157254e-50 4.175204e-51 -7.309217e-49 -1.026828e-47 -5.721772e-47 -5.078567e-46 5.283212e-46 -1.353470e-45 5.897388e-46 -1.920609e-46 1.656066e-46 -6.615617e-45 -1.440303e-43 -1.974186e-43 2.781554e-42 1.738354e-41 3.873075e-42 -9.808889e-40 1.149831e-39 -1.675300e-40 -4.389340e-42 -5.475441e-43 -9.325553e-44 -1.412245e-44 -2.431596e-45 -3.022493e-46 -4.702845e-47 -3.605433e-48 -3.840608e-49 7.337031e-51 -9.205104e-53 1.852539e-53 4.183473e-54 9.277613e-55 1.175690e-55 1.494908e-56 1.160276e-57 8.803947e-59 4.311061e-60 2.081200e-61 6.679951e-63 2.100425e-64 4.019151e-66 6.032154e-68 -6.812232e-70 -6.261938e-71 -2.578253e-72 -7.598986e-74 -1.871418e-75 -4.100142e-77 -7.859359e-79 -1.404794e-80 -2.231617e-82 -3.364720e-84 -4.547747e-86 -5.882949e-88 -6.863487e-90 -7.698800e-92 -7.827510e-94 -7.672630e-96 -6.848313e-98 -5.886105e-100 -1.143411e-101 -8.758896e-101 2.122261e-99 -3.164284e-98 9.613652e-97 -8.870243e-96 1.473467e-93 1.336504e-91 1.970417e-89 2.096961e-87 2.100002e-85 1.600052e-83 1.107509e-81 5.610179e-80 2.703213e-78 9.399372e-77 3.341351e-75 8.458312e-74 2.322610e-72 4.439305e-71 9.645185e-70 1.408306e-68 
6.826149e-66 7.514824e-65 1.004050e-63 8.018344e-63 8.099757e-62 4.408218e-61 3.205671e-60 1.062009e-59 5.095375e-59 8.247741e-59 2.190545e-58 1.304564e-58 1.550785e-58 4.940669e-59 4.551556e-59 1.229142e-59 1.164307e-59 4.085446e-60 2.020416e-59 2.326959e-58 3.253395e-57 2.973429e-56 2.761260e-55 1.365083e-54 6.817240e-54 1.116676e-53 4.640583e-53 4.255796e-52 4.373649e-51 3.009879e-50 2.552838e-49 1.299868e-48 7.327978e-48 1.921681e-47 6.512650e-47 6.011764e-47 1.113977e-46 -2.633004e-48 1.197899e-47 -3.668493e-48 1.241876e-48 -1.766712e-49 2.180822e-49 8.374631e-50 -6.764649e-49 3.073961e-48 1.339174e-48 2.001384e-46 1.498226e-47 7.119664e-45 -6.999295e-45 6.411260e-45 -1.573051e-45 4.865497e-46 1.612253e-45 -2.335312e-44 -6.139344e-43 -3.684210e-42 -3.171379e-41 -2.186604e-40 -7.820594e-40 4.779623e-39 -4.506218e-39 5.444509e-40 1.342316e-41 1.666037e-42 2.803736e-43 4.173644e-44 6.921832e-45 8.680831e-46 1.275891e-46 1.185520e-47 1.235413e-48 3.144913e-50 -1.815112e-51 -1.911237e-52 -1.562378e-53 -2.124313e-54 -2.142737e-55 -2.391751e-56 -2.005204e-57 -1.666663e-58 -1.062621e-59 -6.489721e-61 -3.141356e-62 -1.449654e-63 -5.496185e-65 -1.994495e-66 -6.131976e-68 -1.811479e-69 -4.634324e-71 -1.140826e-72 -2.465924e-74 -5.128126e-76 -9.447050e-78 -1.674194e-79 -2.645810e-81 -4.024740e-83 -5.491731e-85 -7.220732e-87 -8.562976e-89 -9.796848e-91 -1.016104e-92 -1.017778e-94 -9.286501e-97 -8.137315e-99 -2.378888e-100 -2.673082e-99 6.215581e-98 -1.053177e-96 2.898450e-95 -4.917420e-94 2.087068e-92 6.029638e-91 1.740521e-88 2.254085e-86 2.848729e-84 2.611037e-82 2.109684e-80 1.188120e-78 6.254884e-77 2.300261e-75 8.600660e-74 2.246096e-72 6.335788e-71 1.231255e-69 2.701082e-68 3.968154e-67 
1.872457e-64 2.053285e-63 2.695169e-62 2.127301e-61 2.084619e-60 1.112802e-59 7.751805e-59 2.501070e-58 1.133963e-57 1.777704e-57 4.374756e-57 2.508658e-57 2.714116e-57 8.152849e-58 6.893314e-58 1.737264e-58 1.539237e-58 6.237411e-59 4.541241e-58 5.524755e-57 7.251210e-56 6.350442e-55 5.457494e-54 2.546648e-53 1.147236e-52 1.755703e-52 8.708169e-52 8.374514e-51 7.936152e-50 5.430604e-49 4.385325e-48 2.213407e-47 1.175385e-46 3.070147e-46 9.701041e-46 8.912076e-46 1.508893e-45 -5.350332e-47 1.372700e-46 -4.382026e-47 1.370640e-47 -1.839764e-48 4.268222e-48 5.190704e-48 -2.251121e-47 2.999271e-46 -1.842024e-45 -4.615797e-45 2.097543e-44 -8.192507e-44 5.233753e-44 -2.672907e-44 4.178791e-45 -4.653372e-46 1.560045e-46 -2.449060e-44 -9.006851e-43 2.041000e-42 2.506717e-40 1.975454e-39 1.062096e-38 -2.504583e-38 1.860920e-38 -1.751188e-39 -4.288671e-41 -5.136596e-42 -8.352264e-43 -1.158089e-43 -1.760738e-44 -1.980898e-45 -2.472544e-46 -1.747593e-47 -1.161878e-48 -6.823094e-51 -6.829684e-54 -2.108054e-53 -3.757393e-54 -7.716962e-55 -1.038435e-55 -1.499274e-56 -1.543604e-57 -1.608069e-58 -1.243078e-59 -9.484044e-61 -5.537938e-62 -3.164530e-63 -1.420416e-64 -6.231653e-66 -2.195498e-67 -7.574630e-69 -2.139030e-70 -5.933118e-72 -1.369736e-73 -3.115904e-75 -5.987303e-77 -1.136808e-78 -1.847109e-80 -2.971794e-82 -4.138313e-84 -5.713422e-86 -6.894401e-88 -8.251802e-90 -8.704973e-92 -9.105564e-94 -8.456965e-96 -7.633148e-98 -4.806065e-99 -7.820603e-98 1.778440e-96 -3.335431e-95 8.789127e-94 -1.738847e-92 5.344607e-91 -7.467474e-90 1.361215e-87 1.855804e-85 3.413013e-83 3.894171e-81 3.873857e-79 2.433324e-77 1.422463e-75 5.507438e-74 2.177960e-72 5.843799e-71 1.696872e-69 3.343175e-68 7.410911e-67 1.093363e-65 
5.105202e-63 5.573347e-62 7.176102e-61 5.594990e-60 5.315621e-59 2.781155e-58 1.855788e-57 5.825872e-57 2.496069e-56 3.787756e-56 8.625277e-56 4.765789e-56 4.676258e-56 1.326086e-56 1.024244e-56 2.414421e-57 1.999598e-57 1.054852e-57 1.038097e-56 1.272236e-55 1.576300e-54 1.321713e-53 1.059233e-52 4.677600e-52 1.931288e-51 2.982060e-51 1.806944e-50 1.629999e-49 1.418744e-48 9.616460e-48 7.497551e-47 3.766932e-46 1.913179e-45 5.018884e-45 1.501646e-44 1.399981e-44 2.187667e-44 -7.298201e-46 1.703277e-45 -5.504741e-46 1.559685e-46 -1.835288e-47 1.025843e-46 4.899767e-46 -2.411809e-45 -5.642884e-44 7.667518e-44 1.060512e-43 -4.649997e-43 7.019643e-43 -3.042484e-43 9.344553e-44 -8.244872e-45 7.549195e-46 4.616119e-45 -1.624232e-43 -1.080429e-41 -1.838312e-40 -2.314723e-39 -1.964564e-38 -1.181394e-37 1.526234e-37 -8.363743e-38 5.958015e-39 1.497907e-40 1.760721e-41 2.691911e-42 3.469588e-43 4.654609e-44 4.826766e-45 5.042037e-46 3.470199e-47 1.662748e-48 2.319833e-50 -5.684057e-52 -2.964900e-53 -1.854365e-54 -2.765750e-55 -3.391376e-56 -4.898143e-57 -5.143070e-58 -5.563797e-59 -4.454961e-60 -3.542380e-61 -2.153257e-62 -1.283161e-63 -6.024597e-65 -2.762488e-66 -1.024553e-67 -3.711805e-69 -1.112464e-70 -3.263086e-72 -8.071988e-74 -1.958665e-75 -4.073809e-77 -8.326561e-79 -1.478477e-80 -2.582338e-82 -3.960825e-84 -5.976115e-86 -7.986010e-88 -1.048961e-89 -1.228507e-91 -1.412316e-93 -1.458418e-95 -1.060384e-97 -1.016808e-97 -2.182781e-96 4.963749e-95 -1.004845e-93 2.617397e-92 -5.651127e-91 1.662481e-89 -3.635010e-88 1.828264e-86 1.311118e-84 4.092204e-82 5.890880e-80 7.323500e-78 5.136029e-76 3.306509e-74 1.344312e-72 5.575098e-71 1.534416e-69 4.557187e-68 9.094100e-67 2.028000e-65 3.002811e-64 
1.373283e-61 1.490231e-60 1.883199e-59 1.448578e-58 1.335033e-57 6.837128e-57 4.372181e-56 1.333118e-55 5.398288e-55 7.912299e-55 1.665860e-54 8.843033e-55 7.860572e-55 2.094124e-55 1.477900e-55 3.240281e-56 2.535577e-56 1.978115e-56 2.370826e-55 2.862780e-54 3.348555e-53 2.689480e-52 2.014895e-51 8.454279e-51 3.271462e-50 5.753884e-50 4.062839e-49 3.167282e-48 2.504686e-47 1.682604e-46 1.275232e-45 6.392848e-45 3.137036e-44 8.278881e-44 2.381125e-43 2.259061e-43 3.324510e-43 -8.179032e-45 2.239268e-44 -7.109329e-45 1.845059e-45 -2.920859e-46 2.225114e-45 8.632791e-44 5.629529e-43 3.122588e-42 -1.649132e-42 -2.191145e-42 6.015526e-42 -5.360157e-42 1.554209e-42 -3.269703e-43 2.221559e-44 -8.270563e-46 2.149497e-45 1.933583e-43 -1.529522e-42 2.058680e-40 1.666121e-38 1.549765e-37 1.259422e-36 -9.633784e-37 4.023931e-37 -2.010713e-38 -5.735003e-40 -6.518196e-41 -9.416578e-42 -1.068662e-42 -1.248390e-43 -1.075374e-44 -9.134993e-46 -4.751094e-47 -1.725287e-48 -1.420067e-50 3.485724e-53 1.279149e-55 -1.482552e-55 -3.802885e-56 -5.960426e-57 -9.936627e-58 -1.158641e-58 -1.386322e-59 -1.216723e-60 -1.072754e-61 -7.212652e-63 -4.825841e-64 -2.538855e-65 -1.323764e-66 -5.558030e-68 -2.309125e-69 -7.872035e-71 -2.654670e-72 -7.459733e-74 -2.074355e-75 -4.869362e-77 -1.131821e-78 -2.245764e-80 -4.414590e-82 -7.479508e-84 -1.255645e-85 -1.831813e-87 -2.647159e-89 -3.347512e-91 -4.190032e-93 -4.682603e-95 6.067808e-97 -2.308255e-96 -5.923413e-95 1.356038e-93 -2.943257e-92 7.655127e-91 -1.786155e-89 5.192160e-88 -1.286304e-86 4.386624e-85 -3.985960e-84 4.206619e-81 7.665056e-79 1.356775e-76 1.059490e-74 7.662253e-73 3.245712e-71 1.419061e-69 3.984771e-68 1.212761e-66 2.442720e-65 5.484708e-64 8.131826e-63 
3.688059e-60 3.978302e-59 4.924416e-58 3.737759e-57 3.338041e-56 1.673554e-55 1.024862e-54 3.034988e-54 1.160202e-53 1.643184e-53 3.189047e-53 1.629144e-53 1.305378e-53 3.276168e-54 2.098291e-54 4.301181e-55 3.205247e-55 4.038217e-55 5.343670e-54 6.284667e-53 6.975390e-52 5.377158e-51 3.793592e-50 1.530945e-49 5.766369e-49 1.290033e-48 9.583192e-48 6.178043e-47 4.390418e-46 2.926169e-45 2.182613e-44 1.102860e-43 5.294541e-43 1.428347e-42 3.998246e-42 3.978817e-42 5.553400e-42 -1.272871e-45 3.297516e-43 -1.016408e-43 2.350522e-44 -1.623399e-44 -3.566309e-43 -5.657620e-42 -2.688343e-41 -9.084720e-41 1.787807e-41 3.636510e-41 -6.751573e-41 3.745033e-41 -7.342417e-42 1.027325e-42 -3.393691e-44 -1.093725e-45 -6.008528e-44 3.940415e-42 -2.452365e-40 -1.429840e-38 -3.748065e-37 -1.195905e-36 -1.388592e-35 7.050064e-36 -2.142435e-36 7.165151e-38 2.538580e-39 2.876567e-40 3.807085e-41 3.879292e-42 3.815275e-43 2.882869e-44 1.921521e-45 8.713645e-47 2.003820e-48 1.774136e-50 -2.066327e-52 -5.739575e-54 -1.640836e-55 -1.390032e-56 -1.314597e-57 -1.818545e-58 -1.999928e-59 -2.362362e-60 -2.071817e-61 -1.840131e-62 -1.236611e-63 -8.287448e-65 -4.311349e-66 -2.223954e-67 -9.107584e-69 -3.691202e-70 -1.210736e-71 -3.931162e-73 -1.050657e-74 -2.784387e-76 -6.168733e-78 -1.359112e-79 -2.540932e-81 -4.744034e-83 -7.631751e-85 -1.232975e-86 -1.744513e-88 -2.494377e-90 -3.174692e-92 -4.065203e-94 -1.928249e-95 2.947713e-95 -5.186263e-95 -1.536348e-93 3.584158e-92 -8.250485e-91 2.176921e-89 -5.421928e-88 1.591822e-86 -4.264434e-85 1.424182e-83 -4.047775e-82 5.276475e-80 9.503378e-78 2.674336e-75 2.299448e-73 1.839989e-71 8.079857e-70 3.678916e-68 1.051901e-66 3.253918e-65 6.609870e-64 1.486316e-62 2.206008e-61 
9.855531e-59 1.054930e-57 1.280370e-56 9.576936e-56 8.296499e-55 4.066464e-54 2.386775e-53 6.851734e-53 2.473052e-52 3.376397e-52 6.032600e-52 2.955510e-52 2.132049e-52 5.012987e-53 2.914190e-53 5.556242e-54 4.075470e-54 8.717632e-54 1.194962e-52 1.362516e-51 1.436695e-50 1.063906e-49 7.104109e-49 2.794870e-48 1.077453e-47 3.217785e-47 2.328070e-46 1.226779e-45 7.745882e-45 5.130982e-44 3.800584e-43 1.942916e-42 9.240805e-42 2.558469e-41 7.102747e-41 7.455860e-41 1.014902e-40 3.093320e-42 5.553664e-42 -1.611896e-42 4.004550e-43 1.930792e-42 2.307261e-41 2.331384e-40 8.333118e-40 2.041446e-39 4.235442e-41 -5.338839e-40 6.676071e-40 -2.577030e-40 3.520548e-41 -3.538183e-42 1.001298e-43 -8.272151e-45 -9.563415e-44 1.171206e-40 9.148656e-39 2.827407e-37 1.211438e-35 2.698923e-36 1.487554e-34 -5.132987e-35 1.214259e-35 -2.363391e-37 -1.280802e-38 -1.401115e-39 -1.720875e-40 -1.494576e-41 -1.256649e-42 -7.702590e-44 -4.225493e-45 -1.513946e-46 -3.311361e-48 -3.309479e-50 -1.474547e-53 -5.179361e-55 -2.342456e-56 -2.232938e-57 -2.143935e-58 -2.829684e-59 -3.046613e-60 -3.606864e-61 -3.217383e-62 -2.951677e-63 -2.060240e-64 -1.452744e-65 -8.004685e-67 -4.433910e-68 -1.971785e-69 -8.809573e-71 -3.236886e-72 -1.195367e-73 -3.703063e-75 -1.152605e-76 -3.055379e-78 -8.124892e-80 -1.860513e-81 -4.263339e-83 -8.481131e-85 -1.683803e-86 -2.920341e-88 -5.041911e-90 -7.646385e-92 -1.084428e-93 -3.277414e-94 7.602521e-94 -1.053666e-93 -3.914360e-92 9.335822e-91 -2.275246e-89 6.117901e-88 -1.624183e-86 4.849884e-85 -1.400598e-83 4.755885e-82 -1.643488e-80 9.170551e-79 4.797922e-77 5.325355e-74 4.942188e-72 4.470206e-70 2.012345e-68 9.581919e-67 2.771929e-65 8.728515e-64 1.781041e-62 4.014659e-61 5.949382e-60 