# vtk DataFile Version 2.0
Comment goes here
ASCII

DATASET STRUCTURED_POINTS
DIMENSIONS    128   128   1

ORIGIN    0.000   0.000   0.000
SPACING   0.0156250.015625   1.000

POINT_DATA   16384
SCALARS Concentration double
LOOKUP_TABLE default

2.660232e-135 1.841437e-133 1.310165e-131 7.250580e-130 4.182494e-128 1.723218e-126 7.560110e-125 2.033149e-123 5.997386e-122 7.712633e-121 1.096354e-119 2.120400e-119 6.380337e-119 5.899801e-119 1.415187e-118 1.073645e-118 2.397718e-118 1.720527e-118 3.912907e-118 2.661494e-118 6.206369e-118 4.025123e-118 9.713919e-118 5.980481e-118 1.487946e-117 8.475537e-118 2.077407e-117 9.647195e-118 1.641205e-117 1.265698e-118 2.336965e-119 8.848324e-121 6.679293e-122 1.826532e-123 8.233930e-125 1.808923e-126 5.593421e-128 1.034236e-129 2.327068e-131 3.682803e-133 6.268545e-135 8.532307e-137 1.207465e-138 1.537822e-140 3.256361e-142 4.318076e-144 4.577271e-146 3.905853e-148 3.993212e-150 1.002111e-151 2.706385e-153 5.502174e-155 1.273985e-156 -4.479616e-157 -7.558317e-160 1.841343e-157 8.248569e-160 4.047376e-161 9.304809e-164 1.277340e-165 1.547697e-166 2.217991e-166 2.771807e-167 1.071849e-168 8.743944e-171 5.694928e-174 -8.091082e-176 3.100200e-178 -1.317455e-180 3.366981e-183 -7.575176e-186 7.207715e-189 -4.470386e-192 1.246739e-192 -2.545946e-196 2.599600e-197 -1.564599e-198 1.302956e-200 -4.491911e-203 1.223795e-205 -1.552071e-208 1.864981e-211 -1.840365e-214 3.438955e-217 -6.171147e-220 9.173514e-223 -7.657198e-226 5.057914e-227 1.011455e-224 2.135700e-222 4.555566e-220 9.961156e-218 2.219917e-215 4.968585e-213 1.140611e-210 2.579855e-208 6.014136e-206 1.358436e-203 3.173745e-201 7.084385e-199 1.639484e-196 3.583778e-194 8.131634e-192 1.726904e-189 3.807887e-187 7.802212e-185 1.659042e-182 3.259605e-180 6.638194e-178 1.243606e-175 2.410200e-173 4.281592e-171 7.847433e-169 1.314059e-166 2.262523e-164 3.546771e-162 5.694724e-160 8.289418e-158 1.230989e-155 1.647786e-153 2.242387e-151 2.728571e-149 3.367127e-147 3.672960e-145 4.059825e-143 3.902093e-141 3.805599e-139 3.151727e-137 
9.002259e-133 6.209596e-131 4.515589e-129 2.492851e-127 1.464414e-125 6.020424e-124 2.671453e-122 7.168967e-121 2.117788e-119 2.722978e-118 3.817936e-117 7.469924e-117 2.185593e-116 2.002305e-116 4.599208e-116 3.604627e-116 7.898719e-116 5.740481e-116 1.259915e-115 8.686875e-116 1.949367e-115 1.283478e-115 2.971703e-115 1.861045e-115 4.427812e-115 2.571904e-115 6.006682e-115 2.852917e-115 4.605500e-115 3.570901e-116 6.400862e-117 2.374124e-118 1.759254e-119 4.659609e-121 2.063281e-122 4.356957e-124 1.318042e-125 2.330237e-127 5.088742e-129 7.685629e-131 1.259677e-132 1.645361e-134 2.364828e-136 3.202205e-138 1.087863e-139 1.574788e-141 1.836230e-143 1.482355e-145 9.050044e-148 4.273077e-150 1.839887e-152 2.138060e-154 -2.427615e-154 4.144194e-154 2.403249e-158 2.218476e-154 1.935943e-156 5.850110e-158 1.027540e-160 -6.822246e-163 -7.585306e-164 -8.888234e-164 -8.519386e-165 -2.830687e-166 -1.916040e-168 1.621773e-171 1.792873e-173 -6.717188e-176 3.199246e-178 -1.046429e-180 3.207324e-183 -4.115563e-186 6.118474e-189 1.955677e-189 5.824126e-193 -3.314244e-194 1.111473e-195 -1.041248e-197 3.511434e-200 -1.082947e-202 1.418152e-205 -1.630874e-208 9.884011e-213 1.917578e-214 -3.726437e-217 4.640176e-220 -3.122877e-223 8.601969e-225 1.757721e-222 3.852090e-220 8.563764e-218 1.953663e-215 4.546791e-213 1.060441e-210 2.536621e-208 5.953717e-206 1.440392e-203 3.359184e-201 8.108248e-199 1.859522e-196 4.426650e-194 9.896663e-192 2.300693e-189 4.976555e-187 1.120217e-184 2.328619e-182 5.037922e-180 1.000202e-177 2.066095e-175 3.894856e-173 7.635517e-171 1.358957e-168 2.513843e-166 4.199482e-164 7.288032e-162 1.135610e-159 1.837674e-157 2.651924e-155 3.974171e-153 5.267061e-151 7.251196e-149 8.735969e-147 1.094146e-144 1.182961e-142 1.331609e-140 1.270739e-138 1.265695e-136 1.042772e-134 
3.203925e-130 2.212025e-128 1.602877e-126 8.847958e-125 5.167536e-123 2.122760e-121 9.339317e-120 2.504230e-118 7.306203e-117 9.407875e-116 1.290902e-114 2.557628e-114 7.260961e-114 6.740857e-114 1.498250e-113 1.190333e-113 2.516527e-113 1.855341e-113 3.916238e-113 2.742390e-113 5.898012e-113 3.950394e-113 8.732808e-113 5.575163e-113 1.261145e-112 7.487361e-113 1.654792e-112 8.058836e-113 1.224301e-112 9.568507e-114 1.648581e-114 5.994322e-116 4.315747e-117 1.105381e-118 4.753740e-120 9.605476e-122 2.804674e-123 4.701966e-125 9.786014e-127 1.392329e-128 2.138374e-130 2.636774e-132 3.901017e-134 6.037876e-136 3.362318e-137 5.061046e-139 5.689644e-141 4.893745e-143 3.259765e-145 1.564695e-147 2.109915e-150 -2.831501e-152 9.538938e-152 -2.381733e-151 4.839773e-154 1.485817e-151 2.347697e-153 4.085022e-155 2.553380e-157 8.128205e-160 3.031939e-161 2.932684e-161 2.079735e-162 5.971341e-164 3.100260e-166 -1.165734e-168 -3.455920e-171 6.724630e-174 -3.038934e-176 1.693713e-178 -7.068189e-181 8.157391e-184 4.492089e-186 1.578461e-186 7.671471e-190 2.619044e-191 -5.944306e-193 5.792222e-195 -2.149846e-197 7.261521e-200 -1.245023e-202 2.031504e-205 -2.041805e-208 2.197102e-211 -1.775217e-214 1.477131e-217 -7.564157e-221 1.160269e-222 2.489560e-220 5.787419e-218 1.369143e-215 3.313505e-213 8.191265e-211 2.015330e-208 5.090760e-206 1.250983e-203 3.173619e-201 7.692060e-199 1.933705e-196 4.579665e-194 1.128612e-191 2.592193e-189 6.206535e-187 1.373491e-184 3.170687e-182 6.720933e-180 1.485907e-177 3.000358e-175 6.314658e-173 1.208134e-170 2.406952e-168 4.339943e-166 8.140346e-164 1.375520e-161 2.415526e-159 3.801603e-157 6.212814e-155 9.043027e-153 1.366029e-150 1.823580e-148 2.525907e-146 3.061126e-144 3.850259e-142 4.181921e-140 4.718618e-138 4.517801e-136 4.502018e-134 3.716752e-132 
1.112628e-127 7.683828e-126 5.551004e-124 3.061883e-122 1.778932e-120 7.296965e-119 3.185144e-117 8.528288e-116 2.458945e-114 3.169235e-113 4.257939e-112 8.537465e-112 2.352702e-111 2.211746e-111 4.758543e-111 3.829092e-111 7.812550e-111 5.837142e-111 1.185207e-110 8.418787e-111 1.735537e-110 1.180712e-110 2.492178e-110 1.618897e-110 3.481706e-110 2.107912e-110 4.408131e-110 2.195047e-110 3.137382e-110 2.465016e-111 4.076509e-112 1.446768e-113 1.010991e-114 2.486559e-116 1.037796e-117 1.985039e-119 5.589146e-121 8.742297e-123 1.728762e-124 2.263245e-126 3.224103e-128 3.650025e-130 6.081433e-132 1.181595e-133 1.009361e-134 1.429000e-136 1.426203e-138 1.243504e-140 9.727594e-143 6.786178e-145 2.956173e-147 6.763435e-150 -2.452388e-149 8.559948e-149 -2.248196e-151 4.579163e-149 7.991662e-151 1.163206e-152 8.999480e-155 3.968162e-157 -1.045489e-158 -7.779833e-159 -4.247740e-160 -9.774083e-162 -3.536877e-164 3.838383e-166 8.411373e-169 1.398584e-171 -8.340145e-174 6.028128e-177 8.613114e-179 -3.578466e-181 2.253012e-183 5.015312e-184 8.346901e-187 -1.303890e-188 2.000169e-190 -1.999418e-192 7.463448e-195 -2.683453e-197 4.639186e-200 -7.568068e-203 5.878205e-206 -3.687603e-209 7.155964e-214 1.054117e-215 -8.310575e-219 1.277196e-220 2.995000e-218 7.578844e-216 1.938801e-213 5.078150e-211 1.348359e-208 3.551176e-206 9.541463e-204 2.480613e-201 6.628497e-199 1.682169e-196 4.415978e-194 1.085834e-191 2.774412e-189 6.571911e-187 1.621962e-184 3.682629e-182 8.721881e-180 1.889135e-177 4.268681e-175 8.779235e-173 1.882526e-170 3.658991e-168 7.407584e-166 1.353970e-163 2.574761e-161 4.402129e-159 7.821366e-157 1.243383e-154 2.051965e-152 3.012158e-150 4.586401e-148 6.165465e-146 8.592720e-144 1.047111e-141 1.322836e-139 1.442711e-137 1.632121e-135 1.566979e-133 1.562768e-131 1.292078e-129 
3.755075e-125 2.595972e-123 1.868156e-121 1.030563e-119 5.950462e-118 2.439542e-116 1.055301e-114 2.824471e-113 8.037519e-112 1.038118e-110 1.363524e-109 2.769890e-109 7.396873e-109 7.049545e-109 1.465286e-108 1.195626e-108 2.348904e-108 1.780695e-108 3.468665e-108 2.502444e-108 4.929133e-108 3.410600e-108 6.847663e-108 4.532355e-108 9.225855e-108 5.704351e-108 1.122704e-107 5.725348e-108 7.649453e-108 6.052112e-109 9.530024e-110 3.300427e-111 2.220788e-112 5.228470e-114 2.100914e-115 3.775288e-117 1.016376e-118 1.461623e-120 2.716522e-122 3.187698e-124 4.131946e-126 4.159605e-128 9.178451e-130 2.393944e-131 2.544683e-132 3.086545e-134 2.152150e-136 1.710028e-138 1.235770e-140 1.135584e-142 8.515588e-145 4.994494e-147 4.913751e-147 -1.809572e-146 1.036875e-148 8.956136e-147 1.790495e-148 1.996114e-150 1.886165e-152 1.002725e-154 3.912658e-156 1.696617e-156 6.930690e-158 1.267880e-159 1.911677e-162 -8.999091e-164 -2.505806e-166 -1.020546e-168 4.111098e-171 -1.016562e-173 1.702353e-176 9.346483e-180 -1.958180e-181 6.139754e-182 2.945969e-184 3.204021e-186 -4.817795e-188 4.625348e-190 -1.922565e-192 7.169431e-195 -1.474941e-197 2.698288e-200 -2.895545e-203 2.712716e-206 -1.527671e-209 6.809840e-213 -2.472350e-216 1.012040e-218 2.845131e-216 8.030022e-214 2.303172e-211 6.638390e-209 1.944944e-206 5.541878e-204 1.615182e-201 4.471661e-199 1.276631e-196 3.405795e-194 9.434758e-192 2.414628e-189 6.446720e-187 1.577524e-184 4.036801e-182 9.414439e-180 2.297701e-177 5.089648e-175 1.179325e-172 2.472051e-170 5.414072e-168 1.069604e-165 2.204351e-163 4.086180e-161 7.887840e-159 1.365072e-156 2.455866e-154 3.945109e-152 6.577627e-150 9.741606e-148 1.495380e-145 2.025168e-143 2.839720e-141 3.481328e-139 4.416261e-137 4.838955e-135 5.486281e-133 5.285101e-131 5.272182e-129 4.368390e-127 
1.236835e-122 8.555908e-121 6.135068e-119 3.383245e-117 1.942086e-115 7.954433e-114 3.411389e-112 9.123139e-111 2.563289e-109 3.316730e-108 4.260115e-107 8.764107e-107 2.268399e-106 2.190579e-106 4.399379e-106 3.637938e-106 6.882043e-106 5.289850e-106 9.885123e-106 7.236810e-106 1.361844e-105 9.573512e-106 1.828002e-105 1.231211e-105 2.371424e-105 1.495065e-105 2.768372e-105 1.443086e-105 1.801366e-105 1.433493e-106 2.145113e-107 7.235340e-109 4.678247e-110 1.050193e-111 4.055492e-113 6.795399e-115 1.746951e-116 2.276874e-118 3.971105e-120 4.062901e-122 4.761428e-124 4.172344e-126 1.537131e-127 5.120088e-129 5.787764e-130 5.278600e-132 1.333200e-134 1.006891e-136 -8.085880e-140 7.932739e-142 3.343274e-143 4.315104e-145 -6.405076e-145 2.139517e-144 -7.238610e-147 9.072208e-145 1.644597e-146 1.542987e-148 1.560526e-150 1.049241e-152 -8.976608e-154 -2.938259e-154 -9.335149e-156 -1.252542e-157 2.204138e-160 1.610970e-161 6.598929e-164 3.335755e-166 -6.774175e-169 2.084039e-171 -6.861142e-174 1.057916e-176 -2.349467e-178 -6.964512e-180 1.361109e-182 -5.814392e-184 6.212729e-186 -5.592397e-188 2.310511e-190 -8.603534e-193 1.779202e-195 -3.312543e-198 3.372203e-201 -3.067075e-204 1.044756e-207 -5.967898e-211 -4.535595e-214 2.529119e-217 2.259962e-214 7.417223e-212 2.422574e-209 7.910585e-207 2.579422e-204 8.107789e-202 2.573310e-199 7.685781e-197 2.347248e-194 6.641871e-192 1.941269e-189 5.204141e-187 1.450655e-184 3.684171e-182 9.764491e-180 2.347225e-177 5.896783e-175 1.339316e-172 3.178913e-170 6.804701e-168 1.520658e-165 3.057939e-163 6.409866e-161 1.206228e-158 2.361848e-156 4.140135e-154 7.537257e-152 1.223986e-149 2.060653e-147 3.079661e-145 4.764056e-143 6.499957e-141 9.167583e-139 1.130526e-136 1.439861e-134 1.584686e-132 1.800562e-130 1.739859e-128 1.736167e-126 1.441112e-124 
3.964567e-120 2.745601e-118 1.960596e-116 1.081437e-114 6.167393e-113 2.525239e-111 1.072834e-109 2.868836e-108 7.951028e-107 1.031491e-105 1.294210e-104 2.698058e-104 6.760801e-104 6.619612e-104 1.282808e-103 1.075681e-103 1.956408e-103 1.525642e-103 2.729941e-103 2.029304e-103 3.640389e-103 2.601619e-103 4.712102e-103 3.231625e-103 5.871639e-103 3.777028e-103 6.556134e-103 3.495854e-103 4.059479e-103 3.252242e-104 4.598959e-105 1.509617e-106 9.331835e-108 1.989732e-109 7.355406e-111 1.138506e-112 2.790375e-114 3.228377e-116 5.298089e-118 4.506140e-120 4.830472e-122 3.612427e-124 2.710278e-125 1.046519e-126 1.112509e-127 6.168597e-130 -2.739009e-132 1.273807e-135 -2.791144e-136 -1.783233e-138 -1.416511e-140 3.705022e-143 8.189662e-143 -1.550121e-142 8.971707e-145 6.438648e-143 8.150355e-145 4.115146e-147 3.057466e-149 1.334221e-151 2.124953e-151 4.333133e-152 1.050052e-153 9.539172e-156 -7.907190e-158 -2.416052e-159 -1.382269e-161 -8.310029e-164 -5.575371e-167 -2.756557e-169 7.153750e-172 -8.580554e-175 -7.734666e-176 -2.918454e-177 -1.399925e-180 1.931964e-182 -3.523374e-184 3.026907e-186 -1.180243e-188 3.385454e-191 -5.423075e-194 5.409289e-197 -5.247219e-200 -2.225013e-203 -9.232059e-206 -1.203423e-208 -2.125119e-211 -2.133618e-214 1.349901e-212 5.324821e-210 2.107838e-207 7.936808e-205 3.001200e-202 1.049042e-199 3.725507e-197 1.204043e-194 4.006638e-192 1.203454e-189 3.759559e-187 1.055592e-184 3.101212e-182 8.170861e-180 2.258779e-177 5.594035e-175 1.454277e-172 3.385349e-170 8.264080e-168 1.805823e-165 4.130236e-163 8.451736e-161 1.806002e-158 3.449438e-156 6.862464e-154 1.218275e-151 2.247042e-149 3.688521e-147 6.275491e-145 9.464213e-143 1.476129e-140 2.029173e-138 2.879355e-136 3.572318e-134 4.568048e-132 5.051124e-130 5.750763e-128 5.575800e-126 5.564073e-124 4.628657e-122 
1.240358e-117 8.597867e-116 6.114435e-114 3.372679e-112 1.911130e-110 7.820975e-109 3.292057e-107 8.800971e-106 2.406453e-104 3.129869e-103 3.836362e-102 8.102877e-102 1.965642e-101 1.950842e-101 3.647514e-101 3.100549e-101 5.420571e-101 4.286835e-101 7.343120e-101 5.539858e-101 9.470359e-101 6.876560e-101 1.180923e-100 8.241281e-101 1.411824e-100 9.259511e-101 1.505837e-100 8.206908e-101 8.859533e-101 7.149879e-102 9.532009e-103 3.048606e-104 1.796330e-105 3.640288e-107 1.284595e-108 1.834097e-110 4.280412e-112 4.358087e-114 6.762386e-116 4.607465e-118 4.682566e-120 3.311938e-122 4.997361e-123 2.091181e-124 1.977560e-125 4.651812e-128 -9.533386e-130 3.215270e-132 -6.981480e-134 -5.106989e-137 -2.304479e-138 -4.159811e-140 -9.480765e-141 7.427360e-141 3.304748e-143 2.822050e-141 6.213288e-144 1.158391e-146 2.183179e-149 -6.031245e-151 -3.991083e-149 -5.304816e-150 -1.030095e-151 -4.981798e-154 1.351356e-155 2.995999e-157 2.172103e-159 1.412480e-161 4.398320e-164 1.162805e-166 2.924125e-170 3.921020e-174 -1.328803e-173 -3.758817e-175 -1.032723e-177 2.263718e-180 7.004070e-183 -5.312876e-185 9.652459e-188 -1.550300e-190 -7.281691e-193 -2.112954e-195 -8.165305e-198 -1.551349e-200 -3.374924e-203 -4.954387e-206 -7.690206e-209 -9.155715e-212 6.719384e-211 3.394948e-208 1.650194e-205 7.445805e-203 3.274210e-200 1.301788e-197 5.161429e-195 1.830524e-192 6.610974e-190 2.127784e-187 7.075086e-185 2.094742e-182 6.461221e-180 1.775086e-177 5.101087e-175 1.306638e-172 3.505061e-170 8.387903e-168 2.100827e-165 4.697189e-163 1.097317e-160 2.289060e-158 4.977831e-156 9.662943e-154 1.950426e-151 3.510188e-149 6.551601e-147 1.087859e-144 1.868580e-142 2.845056e-140 4.470501e-138 6.193451e-136 8.836412e-134 1.103100e-131 1.415600e-129 1.572662e-127 1.793548e-125 1.744751e-123 1.740814e-121 1.451122e-119 
3.781299e-115 2.624107e-113 1.857987e-111 1.025156e-109 5.769808e-108 2.360740e-106 9.840930e-105 2.631196e-103 7.094161e-102 9.254011e-101 1.107458e-99 2.370211e-99 5.563354e-99 5.597336e-99 1.009064e-98 8.695718e-99 1.460152e-98 1.171098e-98 1.918521e-98 1.468904e-98 2.390214e-98 1.763264e-98 2.867298e-98 2.035951e-98 3.283520e-98 2.195404e-98 3.339233e-98 1.859946e-98 1.862907e-98 1.514891e-99 1.898501e-100 5.911162e-102 3.313569e-103 6.360016e-105 2.143326e-106 2.797415e-108 6.254174e-110 5.468599e-112 8.208111e-114 4.094397e-116 4.433273e-118 3.743423e-120 9.015527e-121 4.000274e-122 3.237855e-123 -7.727495e-127 -1.695466e-127 1.215648e-129 -1.374093e-131 6.772063e-134 -5.194139e-136 1.455631e-137 2.226580e-138 -2.186602e-139 -2.112550e-141 8.825624e-140 -7.204206e-142 4.371770e-146 1.335683e-148 1.374038e-148 7.300172e-147 6.306358e-148 1.012091e-149 8.337690e-153 -1.882595e-153 -3.435260e-155 -2.781219e-157 -1.899682e-159 -8.454925e-162 -2.826263e-164 -3.045490e-167 -2.011884e-171 -2.708029e-171 -2.986104e-173 1.994398e-176 -1.415938e-178 -2.129262e-181 1.166513e-183 2.090813e-186 -1.669586e-188 -1.932967e-190 -7.414170e-193 -2.178170e-195 -4.791063e-198 -8.959442e-201 -1.426792e-203 -2.010038e-206 -2.545439e-209 2.237892e-209 1.550198e-206 1.046459e-203 5.785662e-201 3.156494e-198 1.432531e-195 6.576214e-193 2.553302e-190 1.023576e-187 3.517687e-185 1.263928e-182 3.932996e-180 1.287438e-177 3.677903e-175 1.107464e-172 2.927512e-170 8.151944e-168 2.001951e-165 5.168027e-163 1.180674e-160 2.827108e-158 6.005326e-156 1.332585e-153 2.626742e-151 5.390233e-149 9.827439e-147 1.858938e-144 3.120615e-142 5.417502e-140 8.324299e-138 1.318774e-135 1.840818e-133 2.642020e-131 3.318117e-129 4.274474e-127 4.770843e-125 5.450742e-123 5.320314e-121 5.307233e-119 4.433742e-117 
1.125126e-112 7.817137e-111 5.509603e-109 3.040889e-107 1.699715e-105 6.953318e-104 2.870296e-102 7.676042e-101 2.040550e-99 2.670214e-98 3.119446e-97 6.765393e-97 1.536095e-96 1.566719e-96 2.722342e-96 2.378302e-96 3.834079e-96 3.118489e-96 4.883422e-96 3.794396e-96 5.873579e-96 4.401992e-96 6.773611e-96 4.893838e-96 7.425024e-96 5.061766e-96 7.195407e-96 4.097573e-96 3.804849e-96 3.125220e-97 3.672505e-98 1.118335e-99 5.941702e-101 1.087059e-102 3.484306e-104 4.190276e-106 8.953856e-108 6.758018e-110 9.918413e-112 3.418356e-114 4.586638e-116 6.332321e-118 1.636361e-118 7.837959e-120 5.315833e-121 -6.554297e-124 -2.626872e-125 2.431707e-127 -2.302889e-129 1.517490e-131 -1.021835e-133 -5.932256e-135 -4.842410e-136 5.164901e-138 -6.393889e-141 2.645786e-138 -4.655168e-140 1.837388e-142 -9.843817e-145 -2.924947e-146 -1.327179e-144 -7.406957e-146 -9.616556e-148 3.125239e-150 2.387618e-151 3.775328e-153 3.415902e-155 2.444321e-157 1.521146e-159 6.500290e-162 2.651585e-164 2.118818e-167 -5.163003e-169 -1.561916e-171 3.723110e-174 2.037386e-176 7.308593e-179 1.417735e-181 -7.462398e-184 -7.986105e-186 -3.742365e-188 -1.296046e-190 -3.333701e-193 -7.313104e-196 -1.317223e-198 -2.121033e-201 -2.944403e-204 -3.757124e-207 6.212942e-208 6.561324e-205 6.236780e-202 4.423494e-199 2.967634e-196 1.570520e-193 8.238867e-191 3.545741e-188 1.559391e-185 5.771912e-183 2.219835e-180 7.307647e-178 2.519625e-175 7.523667e-173 2.359730e-170 6.464081e-168 1.859650e-165 4.702183e-163 1.246366e-160 2.917158e-158 7.137416e-156 1.547097e-153 3.494175e-151 7.005465e-149 1.458429e-146 2.697141e-144 5.161589e-142 8.768560e-140 1.536341e-137 2.384053e-135 3.803552e-133 5.352000e-131 7.719957e-129 9.757510e-127 1.260876e-124 1.414161e-122 1.617685e-120 1.584500e-118 1.579617e-116 1.322608e-114 
3.265979e-110 2.271656e-108 1.593786e-106 8.799246e-105 4.884304e-103 1.997863e-101 8.165959e-100 2.184408e-98 5.724781e-97 7.515132e-96 8.569911e-95 1.882836e-94 4.135655e-94 4.274352e-94 7.159000e-94 6.337270e-94 9.808388e-94 8.085697e-94 1.210294e-93 9.536908e-94 1.404319e-93 1.068431e-93 1.555694e-93 1.142682e-93 1.631079e-93 1.132733e-93 1.505200e-93 8.755912e-94 7.540997e-94 6.254346e-95 6.891267e-96 2.050884e-97 1.034073e-98 1.799172e-100 5.509320e-102 6.067880e-104 1.254290e-105 8.002328e-108 1.194231e-109 2.336065e-112 5.284493e-114 1.297418e-115 3.017852e-116 1.583399e-117 9.098787e-119 -9.900804e-122 -4.445818e-123 4.281310e-125 -3.481808e-127 2.451446e-129 -1.564684e-131 1.561959e-132 5.823212e-134 1.262635e-136 3.253565e-138 1.115082e-136 -1.457952e-138 1.012014e-140 -8.111015e-143 6.212944e-144 2.381316e-142 8.796177e-144 9.530816e-146 -6.419921e-148 -2.838811e-149 -3.912304e-151 -3.611760e-153 -2.580126e-155 -1.747158e-157 -8.667167e-160 -4.881215e-162 -1.772387e-164 -8.984175e-167 -6.087840e-170 6.317901e-173 3.617236e-175 1.494230e-177 5.854904e-180 5.091864e-183 -9.229042e-185 -7.116964e-187 -3.519442e-189 -1.114084e-191 -3.070164e-194 -6.221526e-197 -1.163452e-199 -1.708901e-202 -2.391675e-205 7.009107e-207 1.433088e-203 2.871652e-200 2.706294e-197 2.505374e-194 1.536571e-191 9.667225e-189 4.563379e-186 2.260332e-183 8.931021e-181 3.738630e-178 1.293175e-175 4.751731e-173 1.475418e-170 4.861679e-168 1.374633e-165 4.112429e-163 1.067359e-160 2.919458e-158 6.983587e-156 1.752702e-153 3.869307e-151 8.921352e-149 1.816447e-146 3.845338e-144 7.204398e-142 1.397342e-139 2.399837e-137 4.249372e-135 6.654036e-133 1.070147e-130 1.516995e-128 2.200753e-126 2.798060e-124 3.628714e-122 4.088308e-120 4.684013e-118 4.602916e-116 4.586766e-114 3.848621e-112 
9.252182e-108 6.444037e-106 4.498601e-104 2.485020e-102 1.369360e-100 5.602025e-99 2.266508e-97 6.066679e-96 1.566932e-94 2.064483e-93 2.297184e-92 5.114150e-92 1.086208e-91 1.137908e-91 1.836016e-91 1.647305e-91 2.446159e-91 2.044458e-91 2.922912e-91 2.336665e-91 3.270276e-91 2.527054e-91 3.478569e-91 2.599395e-91 3.487462e-91 2.469684e-91 3.064890e-91 1.823930e-91 1.455676e-91 1.224053e-92 1.261364e-93 3.697533e-95 1.761583e-96 2.950794e-98 8.583135e-100 8.829850e-102 1.754096e-103 9.775371e-106 1.479987e-107 1.476664e-110 6.970449e-112 2.956911e-113 5.833359e-114 3.490663e-115 1.706988e-116 1.177995e-119 -8.873569e-121 7.341572e-123 -4.753175e-125 2.903846e-127 -1.238606e-129 -2.326498e-130 -7.585620e-132 -5.082029e-134 -3.798382e-136 7.044361e-135 -5.013848e-137 2.600364e-139 -1.239995e-141 -1.694372e-141 -4.924130e-140 -1.270511e-141 -1.094383e-143 1.022655e-145 3.541639e-147 4.280583e-149 3.740600e-151 2.505891e-153 1.594047e-155 7.420689e-158 3.573385e-160 1.006300e-162 2.703235e-165 1.578627e-168 -1.472810e-171 -5.331512e-174 -1.631252e-176 -6.249895e-179 -1.262493e-181 1.817466e-184 3.511206e-186 2.190176e-188 8.376868e-191 2.700242e-193 6.503949e-196 1.414767e-198 2.456206e-201 3.977292e-204 1.355399e-205 1.986991e-202 1.364351e-198 1.774824e-195 2.204227e-192 1.583064e-189 1.157089e-186 6.036908e-184 3.292500e-181 1.398209e-178 6.270265e-176 2.292473e-173 8.874208e-171 2.879849e-168 9.884183e-166 2.896997e-163 8.953246e-161 2.393697e-158 6.721402e-156 1.647990e-153 4.225127e-151 9.522128e-149 2.233836e-146 4.627691e-144 9.934668e-142 1.888495e-139 3.703992e-137 6.438715e-135 1.150059e-132 1.818928e-130 2.944380e-128 4.207844e-126 6.131815e-124 7.846489e-122 1.020205e-119 1.155118e-117 1.324402e-115 1.306152e-113 1.300149e-111 1.093520e-109 
2.559685e-105 1.784620e-103 1.240001e-101 6.851646e-100 3.749100e-98 1.533598e-96 6.143427e-95 1.644965e-93 4.188573e-92 5.536811e-91 6.014376e-90 1.355747e-89 2.786268e-89 2.955950e-89 4.598005e-89 4.177071e-89 5.955792e-89 5.040835e-89 6.889477e-89 5.580367e-89 7.430624e-89 5.823375e-89 7.587732e-89 5.759313e-89 7.274221e-89 5.244189e-89 6.090696e-89 3.701811e-89 2.745450e-89 2.338123e-90 2.259622e-91 6.519051e-93 2.947498e-94 4.747759e-96 1.322087e-97 1.267985e-99 2.456692e-101 1.188594e-103 1.888252e-105 4.587299e-109 1.027935e-109 7.045927e-111 1.220395e-111 8.422470e-113 3.692722e-114 1.264960e-116 -2.075719e-118 1.391072e-120 -7.292086e-123 4.124429e-125 -2.478551e-127 4.078039e-128 9.953231e-130 1.095520e-131 2.944057e-134 6.568278e-133 -2.228742e-135 8.095284e-138 5.101622e-139 6.603518e-139 1.178887e-137 2.081801e-139 1.405267e-141 -1.582046e-143 -4.673707e-145 -4.876937e-147 -3.999384e-149 -2.442284e-151 -1.452335e-153 -6.377483e-156 -2.956326e-158 -8.772142e-161 -2.467845e-163 -1.847469e-166 -7.172989e-172 -4.364822e-174 -2.332473e-176 -1.501728e-178 -6.532440e-181 -2.766289e-183 -7.517437e-186 -1.444480e-188 7.122800e-192 1.747415e-193 7.646768e-196 2.501242e-198 5.879061e-201 1.265445e-203 2.121780e-203 -2.479679e-200 4.538909e-197 8.160364e-194 1.800444e-190 1.467927e-187 1.327627e-184 7.490949e-182 4.631747e-179 2.083348e-176 1.018821e-173 3.897412e-171 1.609026e-168 5.417425e-166 1.954249e-163 5.904938e-161 1.898192e-158 5.205713e-156 1.508566e-153 3.778719e-151 9.937429e-149 2.280297e-146 5.460447e-144 1.148505e-141 2.506661e-139 4.826099e-137 9.590846e-135 1.685040e-132 3.040725e-130 4.851681e-128 7.914245e-126 1.139142e-123 1.668978e-121 2.147800e-119 2.801766e-117 3.185969e-115 3.657573e-113 3.618312e-111 3.599293e-109 3.033271e-107 
6.909543e-103 4.824423e-101 3.334267e-99 1.843708e-97 1.001201e-95 4.097169e-94 1.624186e-92 4.353074e-91 1.092131e-89 1.449505e-88 1.536180e-87 3.508046e-87 6.971518e-87 7.493900e-87 1.122911e-86 1.033472e-86 1.413627e-86 1.212401e-86 1.582475e-86 1.299692e-86 1.644720e-86 1.308508e-86 1.611926e-86 1.244335e-86 1.477745e-86 1.086421e-86 1.179470e-86 7.339157e-87 5.052718e-87 4.381478e-88 3.960907e-89 1.136185e-90 4.851849e-92 7.642983e-94 2.022458e-95 1.863595e-97 3.475334e-99 1.564740e-101 2.506926e-103 2.545031e-107 1.676119e-107 1.793826e-108 2.771045e-109 2.299992e-110 9.198200e-112 7.226986e-114 -5.129514e-116 2.589413e-118 -9.654411e-121 3.471138e-123 1.375405e-125 -7.181169e-126 -1.713035e-127 -2.603868e-129 -6.135274e-133 9.460107e-131 -5.809831e-134 1.386012e-136 1.709711e-135 -3.723489e-136 -3.163273e-135 -4.275101e-137 -2.097181e-139 2.694265e-141 6.804487e-143 6.214459e-145 4.557497e-147 2.475233e-149 1.256803e-151 4.685557e-154 1.647747e-156 3.638800e-159 5.880812e-162 4.073560e-165 -1.847771e-169 6.103728e-173 1.440147e-174 8.749417e-177 3.434512e-179 1.417486e-181 4.280414e-184 1.279997e-186 2.818740e-189 5.801935e-192 8.522176e-195 1.040276e-197 6.391490e-201 2.492298e-203 3.401943e-201 -2.737283e-198 2.247850e-195 4.406793e-192 1.686204e-188 1.539187e-185 1.616275e-182 9.880447e-180 6.680605e-177 3.198839e-174 1.667745e-171 6.711612e-169 2.910147e-166 1.021667e-163 3.831202e-161 1.198654e-158 3.975030e-156 1.122376e-153 3.335515e-151 8.561868e-149 2.298092e-146 5.382867e-144 1.310449e-141 2.804279e-139 6.201980e-137 1.211449e-134 2.432746e-132 4.325830e-130 7.868794e-128 1.268012e-125 2.080508e-123 3.018761e-121 4.439871e-119 5.750250e-117 7.516053e-115 8.588798e-113 9.862240e-111 9.791545e-109 9.724926e-107 8.215636e-105 
1.823148e-100 1.274101e-98 8.763553e-97 4.846855e-95 2.613571e-93 1.069418e-91 4.197805e-90 1.125512e-88 2.784302e-87 3.707727e-86 3.837501e-85 8.867223e-85 1.706185e-84 1.855749e-84 2.682434e-84 2.497272e-84 3.282023e-84 2.847410e-84 3.555538e-84 2.955257e-84 3.561365e-84 2.870151e-84 3.350890e-84 2.624665e-84 2.939580e-84 2.198445e-84 2.239524e-84 1.423026e-84 9.139050e-85 8.053114e-86 6.846099e-87 1.949785e-88 7.919853e-90 1.218743e-91 3.096921e-93 2.742636e-95 4.999885e-97 2.113565e-99 3.473675e-101 5.939691e-105 3.100931e-105 4.891993e-106 7.113820e-107 7.112531e-108 2.793468e-109 3.772973e-111 -1.340683e-113 5.053017e-116 -1.454389e-118 7.865425e-121 -7.623205e-123 1.572466e-123 3.341241e-125 9.226342e-127 -5.716094e-129 1.775821e-128 4.298660e-132 1.471238e-134 8.715096e-132 2.178079e-133 9.757665e-133 9.864004e-135 3.510804e-137 -5.002564e-139 -1.099560e-140 -8.645303e-143 -5.816020e-145 -2.789933e-147 -1.276266e-149 -4.217013e-152 -1.338185e-154 -2.719580e-157 -4.373548e-160 -3.520675e-163 -1.456154e-166 -2.530284e-169 -4.640293e-172 -1.450547e-174 -4.030769e-177 -1.361778e-179 -3.768423e-182 -1.107677e-184 -2.573348e-187 -5.932803e-190 -1.054725e-192 -1.750546e-195 -2.073034e-198 1.382622e-200 5.433509e-199 -3.595310e-196 1.471381e-193 -2.235109e-191 1.555423e-186 1.466162e-183 1.929485e-180 1.235986e-177 9.423292e-175 4.711968e-172 2.667334e-169 1.115150e-166 5.142674e-164 1.865944e-161 7.341471e-159 2.362720e-156 8.140233e-154 2.354501e-151 7.214900e-149 1.890283e-146 5.200531e-144 1.239427e-141 3.077919e-139 6.683501e-137 1.501809e-134 2.969666e-132 6.038756e-130 1.084776e-127 1.992422e-125 3.237614e-123 5.350381e-121 7.815747e-119 1.155190e-116 1.504071e-114 1.971620e-112 2.262037e-110 2.599910e-108 2.588570e-106 2.568615e-104 2.173841e-102 
4.692016e-98 3.284007e-96 2.246127e-94 1.243350e-92 6.652336e-91 2.723701e-89 1.057863e-87 2.839852e-86 6.921686e-85 9.257208e-84 9.349676e-83 2.187645e-82 4.072102e-82 4.484933e-82 6.247501e-82 5.888253e-82 7.426920e-82 6.524058e-82 7.783634e-82 6.554353e-82 7.511162e-82 6.140112e-82 6.783604e-82 5.400503e-82 5.695318e-82 4.342714e-82 4.144710e-82 2.697708e-82 1.613999e-82 1.454031e-83 1.159273e-84 3.315423e-86 1.274407e-87 1.952120e-89 4.722813e-91 4.159339e-93 7.282243e-95 3.142219e-97 4.981279e-99 4.026307e-102 6.392923e-103 1.444135e-103 1.997687e-104 2.500775e-105 9.714150e-107 2.167419e-108 -1.961215e-111 4.719786e-114 -4.811990e-117 -8.355209e-119 1.195008e-120 -4.541112e-121 -9.808700e-123 -6.509784e-124 2.647931e-125 5.084995e-126 5.713350e-129 -1.166403e-132 -1.628862e-128 -1.323037e-130 -3.072465e-130 -2.653132e-132 -6.450184e-135 1.056753e-136 1.948290e-138 1.353965e-140 8.038917e-143 3.420479e-145 1.319093e-147 3.707794e-150 8.992274e-153 1.455822e-155 1.524201e-158 1.112966e-161 3.559009e-165 5.339789e-168 8.426089e-171 2.381668e-173 5.801929e-176 1.780491e-178 4.444028e-181 1.221260e-183 2.675218e-186 6.035765e-189 1.076121e-191 1.896844e-194 2.717999e-197 8.206062e-198 8.457711e-197 -5.240876e-194 2.257961e-191 -1.724028e-188 1.782117e-184 1.705630e-181 2.510790e-178 1.687905e-175 1.380999e-172 7.247871e-170 4.331174e-167 1.891601e-164 9.110709e-162 3.434157e-159 1.399710e-156 4.654844e-154 1.650565e-151 4.909492e-149 1.540111e-146 4.131876e-144 1.158587e-141 2.817085e-139 7.103689e-137 1.568714e-134 3.568087e-132 7.155560e-130 1.468895e-127 2.669682e-125 4.938388e-123 8.102146e-121 1.345662e-118 1.981071e-116 2.937215e-114 3.847966e-112 5.050944e-110 5.822563e-108 6.689980e-106 6.684207e-104 6.619304e-102 5.615578e-100 