# vtk DataFile Version 2.0
Comment goes here
ASCII

DATASET STRUCTURED_POINTS
DIMENSIONS    128   128   1

ORIGIN    0.000   0.000   0.000
SPACING   0.0156250.015625   1.000

POINT_DATA   16384
SCALARS Concentration double
LOOKUP_TABLE default

4.130949e-53 3.185468e-52 3.968530e-52 2.278362e-51 1.265300e-51 4.014295e-51 1.070758e-51 1.279363e-51 2.078592e-52 9.501051e-53 1.138343e-53 2.957806e-54 2.869091e-55 5.328784e-56 4.498386e-57 5.952289e-58 3.837177e-57 -1.598209e-56 3.954139e-55 -1.038554e-54 1.788038e-53 -1.793801e-53 2.996023e-52 9.224449e-52 -4.197765e-51 9.635399e-50 -5.073309e-49 4.118751e-48 -2.092708e-47 4.779654e-47 -4.817734e-46 -2.123749e-45 -3.925078e-44 -4.350631e-42 -5.549632e-40 -4.190642e-38 -3.109308e-36 -1.430823e-34 -6.413271e-33 -1.838305e-31 -5.100216e-30 -9.121994e-29 -1.567742e-27 -1.719041e-26 -1.798081e-25 -1.170931e-24 -7.268140e-24 -2.735695e-23 -1.019323e-22 -2.335902e-22 -6.093611e-22 -9.700434e-22 -2.286065e-21 -4.172676e-21 8.543218e-21 -1.028911e-19 8.119681e-19 -6.105116e-18 4.581793e-17 -2.040972e-16 8.122998e-16 -1.908099e-15 3.617503e-15 -1.661717e-15 -5.911925e-16 2.617383e-17 3.334627e-18 -2.303173e-18 9.506700e-19 -2.267658e-19 4.806258e-20 -6.003607e-21 7.442278e-22 -9.405682e-23 -1.662815e-23 -5.237502e-23 -4.415434e-23 -1.834470e-23 -1.005658e-23 -3.222631e-24 -1.131170e-24 -2.415236e-25 -5.190932e-26 -6.921223e-27 -9.020437e-28 -7.477885e-29 -6.023465e-30 -3.142713e-31 -1.595362e-32 -5.274597e-34 -1.702409e-35 -3.538066e-37 -7.206295e-39 -9.145985e-41 -1.146030e-42 -8.440601e-45 -6.253704e-47 -2.480565e-49 -1.033817e-51 -1.955670e-54 -4.351969e-57 -2.186964e-60 -4.627995e-63 3.477474e-65 -1.798900e-67 6.368966e-69 -9.682077e-71 3.100660e-72 1.701119e-73 3.846713e-72 4.428588e-71 7.778418e-70 8.906412e-69 1.542003e-67 1.720246e-66 2.894549e-65 3.061709e-64 4.918542e-63 4.769886e-62 7.173296e-61 6.123325e-60 8.445377e-59 6.031407e-58 7.470096e-57 4.173387e-56 4.540976e-55 1.804636e-54 1.683157e-53 
7.860806e-55 6.530634e-54 7.379418e-54 4.663752e-53 2.311445e-53 8.162096e-53 1.968440e-53 2.573391e-53 3.909862e-54 1.914273e-54 2.204386e-55 6.097909e-56 5.891135e-57 1.171468e-57 5.810557e-58 -1.725155e-57 8.588393e-56 -3.449016e-55 8.290608e-54 -2.548212e-53 3.850479e-52 -9.259664e-52 9.723692e-51 -3.113340e-50 2.294420e-49 -1.497478e-48 8.285873e-48 -5.491309e-47 2.746378e-46 -5.320767e-46 5.176481e-45 2.367285e-44 4.189641e-44 -1.069074e-42 -3.077176e-40 -2.955694e-38 -2.983182e-36 -1.593665e-34 -8.636539e-33 -2.660264e-31 -8.145117e-30 -1.474077e-28 -2.615235e-27 -2.775530e-26 -2.850795e-25 -1.736119e-24 -1.017901e-23 -3.519197e-23 -1.234520e-22 -2.713729e-22 -7.056811e-22 -1.073065e-21 -2.503951e-21 -3.166053e-21 -2.552256e-20 1.511093e-19 -1.500932e-18 1.374730e-17 -1.392972e-16 5.996954e-16 -2.364956e-15 5.501310e-15 -1.091634e-14 5.164477e-15 1.555045e-15 -1.131514e-17 -1.830183e-17 7.461553e-18 -2.928493e-18 7.028759e-19 -1.544622e-19 1.440494e-20 -1.479800e-21 1.293867e-22 -6.260502e-23 -5.301824e-23 -7.548860e-23 -2.855781e-23 -1.556175e-23 -4.907247e-24 -1.775131e-24 -3.885268e-25 -8.776702e-26 -1.195329e-26 -1.620554e-27 -1.335779e-28 -1.091262e-29 -5.426675e-31 -2.686963e-32 -7.954981e-34 -2.366413e-35 -4.032171e-37 -7.027937e-39 -6.514753e-41 -6.399037e-43 -3.000080e-45 -1.558936e-47 -4.185742e-50 -5.985312e-53 -1.038760e-54 3.182206e-57 -5.121010e-59 1.659071e-61 -1.606540e-63 5.099863e-66 -5.193802e-68 3.873214e-70 -6.720927e-72 5.677556e-74 1.112755e-73 1.195445e-72 2.050847e-71 2.204572e-70 3.773483e-69 3.985231e-68 6.699150e-67 6.749904e-66 1.093056e-64 1.013412e-63 1.548508e-62 1.264806e-61 1.785985e-60 1.217858e-59 1.557138e-58 8.261080e-58 9.375298e-57 3.504473e-56 3.456609e-55 
1.368152e-56 1.226585e-55 1.255603e-55 8.749438e-55 3.866412e-55 1.521329e-54 3.356791e-55 4.773858e-55 8.532869e-56 4.238787e-56 1.837997e-56 5.230933e-57 2.548297e-57 6.612114e-58 1.101070e-56 -1.474318e-56 1.664307e-54 -3.730917e-54 1.383608e-52 -2.398282e-52 5.360855e-51 -4.283455e-51 8.319547e-50 1.804521e-49 -8.225110e-49 1.829924e-47 -9.967019e-47 6.653964e-46 -3.271855e-45 5.042418e-45 -5.018869e-44 -2.627112e-43 -3.893956e-43 -3.615175e-42 -5.928496e-41 -3.480764e-39 -7.854306e-37 -5.117563e-35 -3.708540e-33 -1.371706e-31 -4.978242e-30 -1.015787e-28 -1.965057e-27 -2.202654e-26 -2.301867e-25 -1.395180e-24 -7.874089e-24 -2.603507e-23 -8.743375e-23 -1.861874e-22 -4.297860e-22 -3.068201e-22 7.204257e-22 -5.517131e-21 2.460060e-20 -1.698165e-19 1.739629e-18 -2.632431e-17 3.246502e-16 -1.452958e-15 5.388985e-15 -1.330762e-14 2.856423e-14 -1.445686e-14 -3.547127e-15 -1.541050e-16 5.401448e-17 -1.711594e-17 6.637075e-18 -1.748745e-18 3.730966e-19 -2.570609e-20 1.606999e-21 -1.605984e-22 -2.238567e-23 4.552392e-23 -7.793879e-23 -2.803662e-23 -1.536600e-23 -4.663154e-24 -1.675455e-24 -3.655792e-25 -8.261475e-26 -1.114816e-26 -1.467627e-27 -1.152847e-28 -8.722743e-30 -3.899068e-31 -1.686787e-32 -4.158457e-34 -1.018707e-35 -1.290842e-37 -1.822895e-39 -7.765257e-42 -1.139953e-43 1.272186e-45 -1.299621e-47 3.090486e-49 -2.217837e-51 3.493493e-53 -2.076523e-55 2.206012e-57 -1.052653e-59 7.914909e-62 -2.983212e-64 1.700329e-66 -6.451734e-69 5.808302e-71 -5.949257e-73 1.159515e-74 2.925573e-74 4.901561e-73 4.947458e-72 8.354419e-71 8.358771e-70 1.401968e-68 1.347190e-67 2.198055e-66 1.951232e-65 3.029958e-64 2.371813e-63 3.431424e-62 2.237342e-61 2.956559e-60 1.491027e-59 1.767485e-58 6.216738e-58 6.495203e-57 
2.331646e-58 2.140301e-57 2.524550e-57 1.623278e-56 1.746539e-56 4.246258e-56 1.224781e-55 9.591760e-56 4.423348e-55 1.762587e-55 3.212715e-55 8.747789e-56 4.554444e-56 1.269164e-56 2.647252e-55 -1.494585e-55 3.592630e-53 -6.596407e-53 2.770794e-51 -5.121442e-51 1.084424e-49 -1.859171e-49 2.369658e-48 -6.069998e-48 4.764408e-47 -2.542660e-46 1.411697e-45 -7.547695e-45 3.556338e-44 -4.021346e-44 4.264191e-43 2.701321e-42 2.649970e-42 2.020958e-41 5.463807e-40 -3.102097e-38 5.236489e-37 -3.301555e-35 -2.762574e-34 -3.514553e-32 -1.132079e-30 -2.954034e-29 -6.728060e-28 -8.507920e-27 -1.008751e-25 -6.384776e-25 -3.649412e-24 -1.164205e-23 -3.406642e-23 -5.692619e-23 9.829078e-23 1.242354e-21 1.118361e-20 8.989212e-21 -3.642648e-20 7.160508e-20 1.504547e-18 3.435446e-17 -8.416078e-16 3.025405e-15 -1.006666e-14 2.574733e-14 -6.738992e-14 3.516894e-14 7.249617e-15 7.360462e-16 -8.308883e-17 2.611236e-17 -1.283217e-17 4.070882e-18 -1.075387e-18 8.737369e-20 3.012083e-21 1.299123e-22 -5.762836e-23 3.774070e-22 -1.499319e-23 -1.030823e-23 -7.772793e-24 -2.603979e-24 -9.204697e-25 -1.985887e-25 -4.394965e-26 -5.458716e-27 -6.668202e-28 -4.431479e-29 -2.926079e-30 -1.079207e-31 -3.652457e-33 -9.952293e-35 -7.061307e-37 -8.017253e-38 1.214272e-39 -6.765770e-41 1.089524e-42 -3.263793e-44 4.156149e-46 -8.166667e-48 8.021513e-50 -1.092509e-51 8.243151e-54 -8.051701e-56 4.660687e-58 -3.335069e-60 1.473579e-62 -7.794194e-65 2.610404e-67 -1.060301e-69 3.285762e-72 -1.853135e-74 7.723319e-76 1.071453e-74 1.016167e-73 1.696277e-72 1.614725e-71 2.695801e-70 2.486010e-69 4.058652e-68 3.473978e-67 5.428359e-66 4.104349e-65 6.016755e-64 3.788052e-63 5.113085e-62 2.487172e-61 3.036549e-60 1.032548e-59 1.117296e-58 
5.622574e-58 2.012224e-57 1.605263e-56 3.939748e-56 2.904892e-55 4.292456e-55 2.766450e-54 2.113992e-54 9.754709e-54 3.879195e-54 6.575939e-54 1.697576e-54 8.043779e-55 2.698149e-55 5.674715e-54 5.644871e-54 6.832195e-52 -3.468413e-52 4.691719e-50 -3.900462e-50 1.615568e-48 -9.389571e-49 2.558614e-47 2.405459e-47 -2.746785e-47 2.660562e-45 -1.366533e-44 7.820224e-44 -3.492572e-43 2.325254e-43 -3.193997e-42 -2.612624e-41 -1.683559e-41 -1.814487e-41 -1.017765e-38 4.334328e-37 -1.046950e-35 3.279684e-34 -4.931640e-33 1.087503e-31 -1.040572e-30 1.104151e-29 -1.704946e-28 -1.118080e-27 -2.362236e-26 -1.496497e-25 -6.453077e-25 -1.232195e-24 5.066391e-24 2.965523e-23 3.287836e-22 1.620657e-21 2.325793e-20 1.052424e-20 -1.165697e-19 8.076074e-19 -1.634105e-18 -3.623089e-17 1.333273e-15 -3.229195e-15 1.007577e-14 -3.280212e-14 1.371483e-13 -7.852460e-14 -1.315554e-14 -2.325236e-15 -7.566694e-17 -3.158212e-17 2.356954e-17 -8.852842e-18 1.200987e-18 2.950343e-19 -3.296675e-21 2.286103e-21 -2.726440e-22 1.028431e-21 8.396700e-23 2.976171e-23 4.017552e-24 1.462442e-25 -3.106880e-26 -2.825988e-26 -7.578058e-27 -1.120324e-27 -1.382732e-28 -4.829782e-30 -6.887983e-31 4.360506e-32 -3.459184e-33 3.368784e-34 -1.402811e-35 8.727700e-37 -2.609439e-38 1.022583e-39 -2.235025e-41 5.828695e-43 -9.372664e-45 1.692843e-46 -2.018932e-48 2.597955e-50 -2.316767e-52 2.168115e-54 -1.454618e-56 1.003270e-58 -5.066292e-61 2.582447e-63 -9.695557e-66 3.597196e-68 -9.690017e-71 2.512827e-73 -3.398872e-76 2.070440e-75 3.644161e-74 5.570194e-73 9.141626e-72 1.233513e-70 1.845278e-69 2.166500e-68 2.929493e-67 2.958054e-66 3.610931e-65 3.104025e-64 3.432077e-63 2.482160e-62 2.500496e-61 1.492593e-60 1.380041e-59 6.568857e-59 
1.413793e-56 5.119898e-56 4.008070e-55 9.998685e-55 7.056216e-54 1.067000e-53 6.431637e-53 5.056226e-53 2.151844e-52 8.709072e-53 1.372295e-52 3.449886e-53 1.500677e-53 5.803665e-54 1.214166e-52 1.984983e-52 1.344437e-50 -9.734721e-52 8.684569e-49 -6.595070e-49 3.001012e-47 -3.283814e-47 5.992276e-46 -1.088492e-45 9.515603e-45 -3.503900e-44 1.852545e-43 -7.700600e-43 3.174958e-42 -4.029761e-43 1.950052e-41 2.381675e-40 9.701493e-41 -1.388543e-39 1.319142e-37 -4.869657e-36 1.210980e-34 -3.164492e-33 5.104938e-32 -9.122268e-31 8.832941e-30 -1.041197e-28 5.066892e-28 -3.914163e-27 3.048779e-27 -4.465725e-26 -8.421339e-26 -2.277974e-25 4.275171e-25 -1.413751e-23 1.024240e-22 -2.076194e-21 3.448795e-20 4.380717e-21 4.417333e-19 -3.986425e-18 -1.387584e-17 1.908665e-16 -5.004549e-16 -8.481842e-16 8.102584e-16 1.089935e-14 -2.429398e-13 1.506649e-13 2.155332e-14 5.220382e-15 8.623778e-16 1.385509e-16 -6.208884e-17 2.484670e-17 -1.044415e-17 1.089469e-18 -1.736428e-19 -1.542778e-20 4.435874e-21 1.969422e-21 2.520869e-23 8.140418e-23 2.233475e-24 5.205879e-25 -5.811836e-27 -3.338862e-27 -6.891585e-28 -4.375302e-28 3.769598e-29 -2.401515e-29 2.580495e-30 -4.472991e-31 3.346707e-32 -3.122232e-33 1.599952e-34 -9.219769e-36 3.294314e-37 -1.249987e-38 3.169670e-40 -8.240531e-42 1.505969e-43 -2.758073e-45 3.680642e-47 -4.847154e-49 4.775785e-51 -4.593531e-53 3.370252e-55 -2.393409e-57 1.313089e-59 -6.909418e-62 2.818843e-64 -1.087315e-66 3.214278e-69 -8.744060e-72 1.929722e-74 3.185749e-74 5.983829e-73 9.526421e-72 1.633900e-70 2.295355e-69 3.562103e-68 4.345681e-67 6.066801e-66 6.339852e-65 7.955151e-64 7.036694e-63 7.962785e-62 5.886252e-61 6.040969e-60 3.662468e-59 3.427868e-58 1.650662e-57 
3.254773e-55 1.194386e-54 9.144656e-54 2.313604e-53 1.570448e-52 2.421365e-52 1.378690e-51 1.110344e-51 4.417826e-51 1.806301e-51 2.709487e-51 6.550123e-52 2.714495e-52 1.258301e-52 2.356505e-51 6.494221e-51 2.393101e-49 2.210457e-49 1.428749e-47 1.411689e-49 4.619714e-46 -1.513859e-46 8.052068e-45 9.958079e-46 4.949283e-44 2.950456e-43 -1.162142e-42 6.918278e-42 -2.480162e-41 -1.498199e-41 -7.662621e-41 -2.083591e-39 -3.457309e-40 1.650412e-38 -1.186016e-36 3.860093e-35 -9.719747e-34 2.207362e-32 -3.680368e-31 5.614330e-30 -5.829074e-29 5.660649e-28 -3.214339e-27 1.752406e-26 -3.372773e-26 3.458448e-26 1.630879e-25 -3.486806e-25 1.894781e-23 -1.718196e-22 1.813502e-21 -1.301265e-20 4.084387e-20 7.796426e-21 1.078341e-18 7.585802e-18 5.308198e-17 6.526494e-17 -1.639582e-15 3.165059e-15 -9.984444e-15 8.544470e-14 3.765869e-13 -2.703591e-13 -3.298661e-14 -1.029077e-14 -2.883298e-15 -7.505830e-16 3.885445e-17 -9.673323e-18 1.115968e-17 -2.078445e-18 -3.812968e-19 -1.318384e-19 -2.369859e-20 3.570329e-21 -5.797957e-22 2.061005e-22 -3.560279e-23 3.705873e-24 -5.810893e-25 -2.208614e-26 2.577916e-27 8.369679e-28 -3.818945e-28 1.290589e-28 -1.875723e-29 2.745780e-30 -2.468945e-31 2.133637e-32 -1.275649e-33 7.095049e-35 -2.911380e-36 1.089889e-37 -3.138226e-39 8.142487e-41 -1.673515e-42 3.072552e-44 -4.567252e-46 6.022669e-48 -6.538554e-50 6.256667e-52 -4.993240e-54 3.486858e-56 -2.049512e-58 1.043212e-60 -4.484124e-63 1.638366e-65 -5.011093e-68 1.254643e-70 -2.298985e-73 4.492173e-73 8.982891e-72 1.484448e-70 2.691694e-69 3.918336e-68 6.378621e-67 8.044603e-66 1.168842e-64 1.258923e-63 1.630578e-62 1.481485e-61 1.715441e-60 1.297698e-59 1.350042e-58 8.343701e-58 7.834985e-57 3.832113e-56 
7.324846e-54 2.737270e-53 2.038696e-52 5.257347e-52 3.422444e-51 5.409026e-51 2.907775e-50 2.417729e-50 8.995002e-50 3.777784e-50 5.391904e-50 1.285231e-50 5.100206e-51 2.574665e-51 4.417382e-50 1.455263e-49 4.208783e-48 5.693572e-48 2.403501e-46 4.612708e-47 7.852838e-45 -4.358119e-45 1.591236e-43 -1.893698e-43 2.155883e-42 -4.273415e-42 2.180950e-41 -6.072805e-41 1.831050e-40 3.085904e-40 -2.839022e-40 1.761728e-38 -2.788746e-39 -9.903597e-38 7.296883e-36 -2.202640e-34 5.344500e-33 -1.122850e-31 1.829561e-30 -2.576196e-29 2.678519e-28 -2.392031e-27 1.421670e-26 -7.044893e-26 1.552362e-25 -2.273896e-25 8.312617e-25 -2.846868e-23 2.890528e-22 -1.827044e-21 8.075583e-21 -2.366898e-20 4.813811e-20 2.586353e-19 -2.026468e-18 -2.336556e-17 1.458836e-16 -4.140919e-16 -4.282592e-16 -2.192097e-15 -4.440951e-14 -1.953936e-13 -5.469683e-13 4.138032e-13 4.694263e-14 1.595790e-14 5.734415e-15 1.864009e-15 4.459742e-16 3.244989e-17 4.484063e-18 3.257636e-18 -2.764265e-18 4.295736e-19 4.023578e-20 -1.321326e-21 -1.081690e-21 4.389627e-22 -1.384467e-22 3.384499e-23 -6.389652e-24 9.104946e-25 -9.697844e-26 8.442770e-28 1.687589e-27 -5.578556e-28 9.029028e-29 -1.271365e-29 1.248201e-30 -1.083018e-31 7.039473e-33 -4.019630e-34 1.786775e-35 -6.950609e-37 2.160248e-38 -5.862352e-40 1.295230e-41 -2.493950e-43 3.964946e-45 -5.480907e-47 6.322495e-49 -6.320715e-51 5.315474e-53 -3.855315e-55 2.365792e-57 -1.242837e-59 5.539344e-62 -2.086425e-64 6.636964e-67 -1.735852e-69 4.113410e-72 7.193580e-72 1.461505e-70 2.515978e-69 4.653374e-68 7.060720e-67 1.173366e-65 1.539571e-64 2.278404e-63 2.544864e-62 3.342974e-61 3.137699e-60 3.663933e-59 2.851578e-58 2.971265e-57 1.881433e-56 1.755331e-55 8.763186e-55 
1.540172e-52 5.818582e-52 4.250332e-51 1.111259e-50 6.994567e-50 1.128586e-49 5.779697e-49 4.941237e-49 1.738451e-48 7.458202e-49 1.031102e-48 2.399375e-49 9.378142e-50 5.080552e-50 7.641776e-49 3.163303e-48 6.847336e-47 1.464226e-46 3.729864e-45 3.072476e-45 1.201487e-43 1.594495e-45 2.438301e-42 -4.794720e-43 2.677836e-41 2.219940e-41 3.331042e-41 4.730442e-40 -6.811479e-40 -4.278061e-39 1.174875e-38 -1.467274e-37 8.381281e-38 3.482772e-38 -2.679412e-35 7.501251e-34 -1.815623e-32 3.553977e-31 -5.855973e-30 7.740415e-29 -8.384788e-28 7.192314e-27 -4.811410e-26 2.479111e-25 -8.369997e-25 1.607511e-24 7.472428e-24 -6.272260e-23 4.527663e-22 -1.673129e-21 8.488460e-21 -1.709723e-20 1.145224e-19 -8.134033e-19 -6.887874e-18 -1.463744e-17 7.703452e-17 -8.244137e-16 -3.385314e-15 1.877401e-14 8.448946e-14 3.024325e-13 8.976504e-13 -6.166804e-13 -6.759980e-14 -2.321400e-14 -8.664813e-15 -2.927751e-15 -9.437708e-16 -2.108497e-16 3.451975e-17 6.292491e-18 -3.143617e-18 8.151243e-20 1.375832e-19 2.439412e-20 -1.494697e-21 1.975712e-22 -1.261327e-22 2.822829e-23 -8.455610e-24 1.513585e-24 -3.159904e-25 5.472438e-26 -1.062476e-26 1.928866e-27 -3.028898e-28 3.982415e-29 -4.212120e-30 3.629582e-31 -2.560028e-32 1.470711e-33 -7.076334e-35 2.781639e-36 -9.322892e-38 2.557673e-39 -6.062316e-41 1.176032e-42 -1.990138e-44 2.748924e-46 -3.333833e-48 3.280108e-50 -2.841923e-52 1.975302e-54 -1.206368e-56 5.795010e-59 -2.418670e-61 7.660488e-64 -2.044401e-66 3.846246e-69 -5.045833e-73 1.000857e-70 2.154230e-69 3.831631e-68 7.455170e-67 1.165410e-65 2.021897e-64 2.724046e-63 4.176346e-62 4.772818e-61 6.445004e-60 6.167912e-59 7.345842e-58 5.810420e-57 6.124728e-56 3.930187e-55 3.676740e-54 1.856263e-53 
3.170548e-51 1.216390e-50 8.667970e-50 2.308503e-49 1.400158e-48 2.318443e-48 1.129216e-47 1.000177e-47 3.321839e-47 1.478450e-47 1.971738e-47 4.583917e-48 1.762039e-48 9.329696e-49 1.256273e-47 5.784384e-47 1.073501e-45 2.752418e-45 5.692459e-44 6.253672e-44 1.880574e-42 2.334041e-44 4.276355e-41 -3.025046e-41 6.058500e-40 -5.443557e-40 3.649632e-39 -3.856662e-39 2.693354e-39 5.190749e-38 -1.930456e-37 1.214613e-36 -1.183431e-36 2.823801e-36 6.663053e-35 -1.772708e-33 4.136992e-32 -7.819317e-31 1.260663e-29 -1.626224e-28 1.760418e-27 -1.506650e-26 1.066616e-25 -6.001326e-25 2.887500e-24 -1.238440e-23 5.576456e-23 -2.503534e-22 1.205797e-21 -4.553188e-21 1.903990e-20 -4.027589e-20 -1.009344e-20 2.700892e-18 1.110691e-17 -5.407291e-17 7.922721e-16 -3.937811e-16 -1.879978e-14 -6.401028e-14 -1.887275e-13 -5.081385e-13 -1.422070e-12 9.246514e-13 9.644061e-14 3.435463e-14 1.401819e-14 5.056002e-15 2.179701e-15 7.605051e-16 2.017420e-16 -7.492063e-19 -1.133615e-17 8.938674e-19 -1.377106e-19 -4.807184e-20 1.840900e-21 4.985578e-22 -3.031272e-22 7.659606e-23 -2.226510e-23 4.283605e-24 -7.903523e-25 7.155588e-26 1.239839e-28 -2.530471e-27 5.912745e-28 -9.319591e-29 1.076444e-29 -9.740920e-31 7.173970e-32 -4.251857e-33 2.123102e-34 -8.626565e-36 3.006375e-37 -8.573253e-39 2.121344e-40 -4.305528e-42 7.648164e-44 -1.114456e-45 1.431448e-47 -1.504845e-49 1.402869e-51 -1.064640e-53 7.193651e-56 -3.912778e-58 1.893617e-60 -7.211172e-63 2.417782e-65 -6.096643e-68 2.075638e-70 1.559648e-69 3.415211e-68 6.300196e-67 1.250104e-65 2.024064e-64 3.577765e-63 4.977066e-62 7.750541e-61 9.110984e-60 1.244306e-58 1.220203e-57 1.462317e-56 1.180996e-55 1.245375e-54 8.134541e-54 7.561291e-53 3.877576e-52 
6.211545e-50 2.403721e-49 1.682853e-48 4.541092e-48 2.673745e-47 4.522987e-47 2.112888e-46 1.930040e-46 6.113658e-46 2.808876e-46 3.664988e-46 8.442794e-47 3.263616e-47 1.639369e-47 1.934009e-46 1.017880e-45 1.585092e-44 5.107710e-44 8.228465e-43 1.387361e-42 2.783265e-41 1.505340e-41 6.803285e-40 -8.749118e-41 1.026597e-38 -3.147469e-41 5.857611e-38 2.413792e-38 1.883190e-37 -5.694348e-37 2.680045e-36 -1.024384e-35 1.435599e-35 -2.823687e-35 -7.723736e-35 2.085922e-33 -5.045054e-32 9.613172e-31 -1.629286e-29 2.103121e-28 -2.384966e-27 2.008555e-26 -1.450381e-25 7.382739e-25 -2.982490e-24 6.569430e-24 2.103683e-24 -1.272422e-22 9.210441e-22 -5.315177e-21 3.124463e-20 -1.425720e-19 9.274890e-19 -2.972758e-18 -3.904462e-17 -3.334266e-16 1.981631e-15 8.704052e-15 3.647801e-14 5.952846e-14 1.611122e-13 6.051915e-13 2.439148e-12 -1.311380e-12 -1.362409e-13 -4.676187e-14 -1.815715e-14 -6.309683e-15 -2.611230e-15 -9.734160e-16 -4.749377e-16 -1.027793e-16 -2.254588e-17 3.803004e-18 4.416414e-19 4.544403e-20 -1.542936e-20 2.598578e-21 -6.281259e-22 1.288430e-22 -2.946575e-23 7.430793e-24 -1.921774e-24 4.632563e-25 -9.998936e-26 1.710802e-26 -2.562993e-27 2.953621e-28 -3.005237e-29 2.361683e-30 -1.653466e-31 9.013785e-33 -4.406445e-34 1.686887e-35 -5.816534e-37 1.573726e-38 -3.845345e-40 7.357041e-42 -1.272326e-43 1.710723e-45 -2.075413e-47 1.929863e-49 -1.607034e-51 9.975716e-54 -5.412651e-56 2.046770e-58 -6.058650e-61 8.256944e-64 1.450519e-66 -1.168978e-68 1.083686e-69 2.206832e-68 5.092597e-67 9.649202e-66 2.002485e-64 3.317025e-63 6.085859e-62 8.626487e-61 1.384048e-59 1.651666e-58 2.307535e-57 2.289973e-56 2.788129e-55 2.273107e-54 2.418338e-53 1.591872e-52 1.481625e-51 7.652932e-51 
1.194358e-48 4.683684e-48 3.202632e-47 8.799769e-47 5.008168e-46 8.703516e-46 3.887648e-45 3.691023e-45 1.111034e-44 5.347296e-45 6.778500e-45 1.581578e-45 6.115947e-46 2.715010e-46 2.808465e-45 1.592874e-44 2.227861e-43 8.142084e-43 1.146593e-41 2.366395e-41 4.041044e-40 3.079967e-40 1.092272e-38 -2.227139e-39 1.892959e-37 -7.972690e-38 1.228997e-36 -1.992006e-37 -2.788303e-37 6.598848e-36 -3.434439e-35 9.075954e-35 -1.714664e-34 1.569000e-34 6.899344e-35 -3.048934e-33 6.047838e-32 -1.105057e-30 1.819126e-29 -2.320397e-28 2.639346e-27 -2.246028e-26 1.655611e-25 -8.432843e-25 3.205296e-24 -3.461485e-24 -4.656779e-23 4.094910e-22 -2.534921e-21 1.049287e-20 -4.940238e-20 1.551292e-19 -7.293277e-19 1.465757e-18 -5.622357e-18 -4.422275e-17 -1.549973e-16 -4.213171e-15 -6.831305e-15 3.583065e-14 8.002535e-14 -3.713306e-13 -4.474747e-12 1.913206e-12 2.019830e-13 6.529942e-14 2.378436e-14 7.470207e-15 2.694768e-15 7.784180e-16 3.269573e-16 6.015596e-17 1.775685e-18 5.155748e-19 6.584001e-20 -2.467411e-20 1.304996e-20 -3.020839e-21 1.065488e-21 -2.652567e-22 7.998244e-23 -1.928480e-23 4.927184e-24 -9.899944e-25 1.919414e-25 -2.857973e-26 3.938725e-27 -4.176451e-28 4.044177e-29 -3.047282e-30 2.089926e-31 -1.127606e-32 5.536122e-34 -2.154521e-35 7.632936e-37 -2.151481e-38 5.522637e-40 -1.127863e-41 2.098248e-43 -3.094564e-45 4.158555e-47 -4.397358e-49 4.237226e-51 -3.173099e-53 2.163939e-55 -1.124149e-57 5.303328e-60 -1.843513e-62 5.773970e-65 -1.249508e-67 1.614976e-68 3.469827e-67 8.146061e-66 1.591546e-64 3.359828e-63 5.721479e-62 1.065279e-60 1.546293e-59 2.508720e-58 3.053923e-57 4.297056e-56 4.335409e-55 5.293030e-54 4.375564e-53 4.645256e-52 3.094976e-51 2.858091e-50 1.493572e-49 
2.216584e-47 8.748584e-47 5.881745e-46 1.636147e-45 9.066063e-45 1.610223e-44 6.935312e-44 6.807825e-44 1.966630e-43 9.865722e-44 1.229669e-43 2.887017e-44 1.138576e-44 4.352229e-45 3.865001e-44 2.395114e-43 2.990451e-42 1.267866e-41 1.541173e-40 4.114432e-40 5.699705e-39 7.777455e-39 1.696664e-37 4.948036e-38 3.384989e-36 -2.710144e-37 2.867404e-35 6.624449e-37 8.641146e-35 -6.337158e-35 4.666135e-34 -8.804844e-34 2.130361e-33 -2.268869e-34 9.983032e-34 2.629076e-33 -7.204405e-33 2.857082e-31 -5.822214e-30 8.820138e-29 -1.229801e-27 1.201416e-26 -1.067602e-25 6.307987e-25 -3.136414e-24 7.350766e-24 1.428059e-23 -2.670413e-22 1.977443e-21 -8.072966e-21 3.548508e-20 -9.403889e-20 3.144890e-19 -4.754221e-19 -5.991329e-19 -2.781097e-18 -1.173611e-18 -4.400218e-16 -4.302320e-14 -1.613598e-13 -5.670814e-13 -8.104626e-13 8.127584e-12 -2.745915e-12 -3.022104e-13 -9.024217e-14 -3.016452e-14 -8.606929e-15 -2.717311e-15 -6.890205e-16 -2.076748e-16 -1.967851e-17 3.072831e-19 2.210383e-20 6.053489e-21 8.918379e-21 -6.307626e-21 2.084262e-21 -8.977575e-22 2.495097e-22 -8.231830e-23 1.906732e-23 -4.773117e-24 8.514738e-25 -1.532976e-25 1.981193e-26 -2.488582e-27 2.268846e-28 -1.971030e-29 1.252595e-30 -7.480943e-32 3.256817e-33 -1.307534e-34 3.700254e-36 -9.088041e-38 1.273048e-39 -4.185101e-42 -5.216890e-43 1.984331e-44 -4.329663e-46 7.579992e-48 -9.515746e-50 1.059836e-51 -8.583180e-54 6.347490e-56 -3.350730e-58 1.636727e-60 -5.473189e-63 1.704017e-65 -2.493576e-68 2.312547e-67 5.162726e-66 1.267737e-64 2.523799e-63 5.530151e-62 9.550912e-61 1.832221e-59 2.685901e-58 4.459193e-57 5.463751e-56 7.818414e-55 7.920997e-54 9.778395e-53 8.105731e-52 8.651104e-51 5.777803e-50 5.330219e-49 2.795015e-48 
4.048850e-46 1.616476e-45 1.061475e-44 3.005571e-44 1.612877e-43 2.945722e-43 1.217936e-42 1.246216e-42 3.436406e-42 1.822245e-42 2.213290e-42 5.341922e-43 2.132067e-43 6.768975e-44 5.004806e-43 3.282803e-42 3.800353e-41 1.782338e-40 1.978135e-39 6.252578e-39 7.720556e-38 1.405158e-37 2.524412e-36 1.342549e-36 5.723819e-35 -6.558930e-36 5.607255e-34 -7.191282e-36 8.686429e-34 9.685548e-34 -5.652053e-33 9.645765e-33 -2.820486e-32 -1.142604e-32 -2.230186e-32 2.822120e-32 -1.123870e-31 -1.898509e-31 1.824694e-30 -2.549143e-29 3.615395e-28 -3.852921e-27 3.851540e-26 -2.647073e-25 1.635646e-24 -5.985554e-24 1.295897e-23 4.138843e-23 -5.828615e-22 2.781720e-21 -1.248440e-20 3.139469e-20 -8.170731e-20 1.108414e-19 -6.537316e-20 -5.980661e-19 2.438177e-17 -3.126851e-16 1.730536e-14 9.394103e-14 1.043288e-12 5.340752e-12 -1.540851e-11 4.083603e-12 4.812627e-13 1.299032e-13 3.835739e-14 9.223321e-15 2.209284e-15 3.401811e-16 4.762776e-17 1.017571e-18 -2.560689e-20 1.028046e-21 5.018900e-22 -2.355280e-21 1.895395e-21 -8.263430e-22 3.950016e-22 -1.166391e-22 3.920411e-23 -8.781606e-24 2.095909e-24 -3.446158e-25 5.717562e-26 -6.703903e-27 7.689320e-28 -6.394727e-29 5.133071e-30 -3.072009e-31 1.776086e-32 -7.929554e-34 3.463693e-35 -1.215096e-36 4.201333e-38 -1.186447e-39 3.237845e-41 -7.094286e-43 1.457787e-44 -2.342532e-46 3.468705e-48 -3.926284e-50 4.072795e-52 -3.156598e-54 2.242338e-56 -1.155025e-58 5.460430e-61 -1.787069e-63 5.369622e-66 1.257031e-67 3.703700e-66 8.487349e-65 2.113845e-63 4.305009e-62 9.546519e-61 1.679735e-59 3.250405e-58 4.834637e-57 8.067803e-56 9.996230e-55 1.432790e-53 1.464299e-52 1.804310e-51 1.506602e-50 1.598713e-49 1.075223e-48 9.815851e-48 5.189471e-47 
7.218114e-45 2.894398e-44 1.868509e-43 5.351567e-43 2.801535e-42 5.230436e-42 2.093780e-41 2.219806e-41 5.899871e-41 3.289028e-41 3.935650e-41 9.715483e-42 3.989110e-42 1.047149e-42 6.204676e-42 4.329923e-41 4.660682e-40 2.440810e-39 2.479110e-38 9.450733e-38 1.030326e-36 2.629293e-36 3.718136e-35 4.246573e-35 9.826524e-34 1.659421e-34 1.291866e-32 -2.091245e-34 5.339045e-32 -2.729257e-33 1.059057e-31 -9.408500e-32 3.595642e-31 1.410595e-31 6.346121e-31 -1.468732e-30 2.833976e-30 1.137224e-31 -7.478719e-31 8.032042e-30 -5.871819e-29 7.052350e-28 -8.417933e-27 6.653143e-26 -5.037858e-25 2.323584e-24 -9.287925e-24 1.317182e-23 5.888696e-23 -4.905323e-22 2.434419e-21 -5.813390e-21 1.027943e-20 -1.091702e-20 2.737534e-20 3.549034e-19 3.918318e-18 2.893514e-16 1.232320e-13 6.298081e-13 5.838559e-13 -1.666247e-11 2.883998e-11 -6.204088e-12 -7.873292e-13 -1.922628e-13 -5.192930e-14 -1.134067e-14 -2.451169e-15 -3.395043e-16 -3.727811e-17 -8.446413e-20 -3.265068e-22 -3.190293e-23 1.790595e-23 2.873798e-22 -2.959824e-22 1.951735e-22 -1.068122e-22 3.379764e-23 -1.168390e-23 2.508315e-24 -5.776588e-25 8.624908e-26 -1.334242e-26 1.382046e-27 -1.446286e-28 1.035995e-29 -7.345478e-31 3.558394e-32 -1.640723e-33 4.642802e-35 -9.043302e-37 -1.832758e-38 2.160987e-39 -1.035830e-40 3.688506e-42 -9.486474e-44 2.142974e-45 -3.592860e-47 5.479406e-49 -6.144218e-51 6.366806e-53 -4.739844e-55 3.298581e-57 -1.588634e-59 7.229289e-62 -2.141893e-64 6.875153e-67 2.068409e-66 5.882772e-65 1.367284e-63 3.526915e-62 7.245853e-61 1.651936e-59 2.917977e-58 5.766029e-57 8.577338e-56 1.453103e-54 1.796173e-53 2.600574e-52 2.648197e-51 3.281131e-50 2.729649e-49 2.899095e-48 1.944748e-47 1.767894e-46 9.345902e-46 
1.270071e-43 5.143367e-43 3.240086e-42 9.442621e-42 4.791647e-41 9.206948e-41 3.547890e-40 3.930966e-40 1.000094e-39 5.940615e-40 6.932377e-40 1.787333e-40 7.468938e-41 1.640154e-41 7.249495e-41 5.278612e-40 5.400098e-39 3.085157e-38 2.952922e-37 1.301310e-36 1.306502e-35 4.222572e-35 5.149871e-34 8.829972e-34 1.548566e-32 6.454931e-33 2.522182e-31 -4.501556e-33 1.343713e-30 4.036973e-31 -1.073125e-30 1.881231e-31 -2.565166e-30 4.619018e-30 -2.548388e-29 4.531419e-29 -8.062519e-29 2.378870e-29 9.129894e-30 -8.766631e-29 -5.466131e-29 -1.390130e-28 2.419591e-27 -8.500242e-27 9.242300e-26 -4.794156e-25 2.490080e-24 -6.645397e-24 8.322503e-24 4.463565e-23 -3.351217e-22 9.592738e-22 -2.140842e-21 5.474680e-21 -1.001030e-19 2.741903e-18 8.032228e-18 1.399128e-15 -3.857729e-13 -2.838196e-12 -1.096400e-11 4.723719e-11 -5.498110e-11 9.871916e-12 1.355522e-12 2.980782e-13 7.096475e-14 1.350361e-14 2.328174e-15 2.338865e-16 1.443374e-17 -2.060130e-20 -1.417516e-22 -1.976558e-23 1.536410e-24 -1.541852e-23 2.835446e-23 -3.501412e-23 2.039085e-23 -6.987289e-24 2.371924e-24 -4.941027e-25 1.064867e-25 -1.477986e-26 2.092038e-27 -1.987977e-28 1.897842e-29 -1.263288e-30 8.409237e-32 -4.097585e-33 2.040194e-34 -8.157197e-36 3.497287e-37 -1.310879e-38 5.059459e-40 -1.628312e-41 4.930830e-43 -1.170703e-44 2.531498e-46 -4.159878e-48 6.215106e-50 -6.894418e-52 6.999546e-54 -5.132165e-56 3.473878e-58 -1.631562e-60 7.140457e-63 -2.029248e-65 1.420591e-66 3.553482e-65 1.021078e-63 2.415446e-62 6.281631e-61 1.307566e-59 2.994965e-58 5.336183e-57 1.055638e-55 1.578193e-54 2.668348e-53 3.306751e-52 4.765264e-51 4.858887e-50 5.976059e-49 4.977806e-48 5.232083e-47 3.518279e-46 3.153433e-45 1.675635e-44 
2.200481e-42 8.932922e-42 5.526797e-41 1.627767e-40 8.066139e-40 1.584617e-39 5.929522e-39 6.820041e-39 1.676926e-38 1.054855e-38 1.213163e-38 3.252663e-39 1.401431e-39 2.641359e-40 8.204787e-40 6.206643e-39 6.082089e-38 3.796929e-37 3.458558e-36 1.761325e-35 1.642791e-34 6.711194e-34 7.116742e-33 1.825582e-32 2.467504e-31 2.332998e-31 5.243422e-30 3.286864e-31 5.030087e-29 -2.451368e-31 1.182860e-28 4.116224e-29 -7.257883e-29 -3.601825e-28 1.213558e-27 -1.459693e-27 2.812905e-27 -1.350843e-27 -7.783848e-28 3.630162e-27 1.894567e-26 -6.844710e-27 1.715228e-25 1.401442e-25 1.749326e-25 4.278060e-25 -1.442787e-24 4.405425e-24 -1.097172e-23 9.975135e-24 -2.529715e-23 1.494584e-22 -3.234828e-21 4.812069e-20 1.462304e-18 3.293808e-17 6.690214e-16 4.608562e-14 1.342707e-12 7.008950e-12 4.684355e-11 -1.166025e-10 1.060113e-10 -1.665457e-11 -2.405209e-12 -4.811352e-13 -1.077705e-13 -1.961217e-14 -3.390812e-15 -3.654268e-16 -3.030808e-17 -7.424151e-19 -8.808428e-21 -1.887612e-22 -7.612754e-24 -1.816275e-25 -1.101016e-24 3.971509e-24 -2.541548e-24 9.530666e-25 -3.267909e-25 6.501062e-26 -1.341953e-26 1.691938e-27 -2.230969e-28 1.878402e-29 -1.639931e-30 9.412483e-32 -5.521690e-33 2.103313e-34 -7.659629e-36 1.211964e-37 2.180017e-39 -3.901758e-40 2.232100e-41 -8.911549e-43 2.933650e-44 -7.299073e-46 1.602814e-47 -2.629514e-49 3.900409e-51 -4.214557e-53 4.190297e-55 -2.928814e-57 1.916167e-59 -8.364456e-62 3.484891e-64 -1.672451e-67 2.318851e-65 6.088414e-64 1.804659e-62 4.283977e-61 1.141003e-59 2.370327e-58 5.522963e-57 9.777224e-56 1.956195e-54 2.897330e-53 4.931222e-52 6.046010e-51 8.736914e-50 8.813990e-49 1.083252e-47 8.938186e-47 9.354024e-46 6.246016e-45 5.551916e-44 2.940676e-43 