# vtk DataFile Version 2.0
Comment goes here
ASCII

DATASET STRUCTURED_POINTS
DIMENSIONS    128   128   1

ORIGIN    0.000   0.000   0.000
SPACING   0.0156250.015625   1.000

POINT_DATA   16384
SCALARS Concentration double
LOOKUP_TABLE default

1.022548e-120 4.136144e-119 1.559215e-117 5.049794e-116 1.504054e-114 3.657376e-113 8.017828e-112 1.307111e-110 1.850290e-109 1.579260e-108 1.049228e-107 2.283821e-107 4.850049e-107 6.439106e-107 1.132845e-106 9.860137e-107 1.288206e-106 1.129698e-106 1.684585e-106 1.421992e-106 2.118830e-106 1.701564e-106 2.535870e-106 1.921565e-106 2.836179e-106 1.965331e-106 2.724216e-106 1.507728e-106 1.416476e-106 2.159149e-107 4.140650e-108 2.959663e-109 2.775017e-110 1.340725e-111 8.268718e-113 3.076564e-114 1.416989e-115 4.339986e-117 1.584919e-118 4.136690e-120 1.220947e-121 2.742908e-123 6.476319e-125 1.238151e-126 2.289819e-128 3.652627e-130 5.256957e-132 7.201986e-134 9.212790e-136 1.521237e-137 2.836881e-139 5.641150e-141 9.507675e-143 1.198947e-144 1.333706e-146 1.254669e-147 2.080312e-149 6.074667e-151 4.541479e-153 2.640091e-155 1.468344e-157 1.163388e-159 7.686982e-162 4.792976e-165 -1.414319e-166 5.152873e-169 8.435837e-171 2.258970e-173 5.637082e-176 1.008711e-178 4.787865e-181 8.143452e-184 7.698493e-186 2.042301e-188 2.766883e-190 7.733806e-193 4.800539e-195 1.805052e-198 1.804741e-200 -1.203660e-203 4.109411e-206 -1.684805e-209 9.456081e-212 2.053953e-212 2.938536e-210 4.345125e-208 6.248441e-206 9.160404e-204 1.338027e-201 1.969626e-199 2.926972e-197 4.332611e-195 6.514440e-193 9.654715e-191 1.455945e-188 2.145368e-186 3.213520e-184 4.671583e-182 6.886157e-180 9.801713e-178 1.409877e-175 1.951150e-173 2.718026e-171 3.633401e-169 4.868448e-167 6.247813e-165 8.001260e-163 9.798707e-161 1.191988e-158 1.384501e-156 1.589741e-154 1.739846e-152 1.873095e-150 1.917817e-148 1.922095e-146 1.827103e-144 1.692016e-142 1.481137e-140 1.257297e-138 1.004435e-136 7.745150e-135 5.587883e-133 3.871874e-131 2.490655e-129 1.530131e-127 8.635097e-126 4.623618e-124 2.241133e-122 
1.647533e-118 6.638818e-117 2.591850e-115 8.383917e-114 2.601980e-112 6.332184e-111 1.454352e-109 2.374748e-108 3.533532e-107 3.020202e-106 2.104512e-105 4.633517e-105 9.760476e-105 1.103739e-104 1.794475e-104 1.734682e-104 2.627586e-104 2.354007e-104 3.480062e-104 2.953340e-104 4.336405e-104 3.500462e-104 5.130725e-104 3.907163e-104 5.664278e-104 3.941898e-104 5.366270e-104 2.990530e-104 2.758045e-104 4.211228e-105 7.995657e-106 5.664908e-107 5.281290e-108 2.516474e-109 1.545348e-110 5.649011e-112 2.592323e-113 7.774593e-115 2.830146e-116 7.213848e-118 2.123370e-119 4.653950e-121 1.097030e-122 2.050884e-124 3.805428e-126 5.954410e-128 8.631654e-130 1.099896e-131 1.186101e-133 1.130905e-135 7.850237e-138 5.070174e-140 2.203736e-142 1.079291e-144 4.612822e-147 5.477429e-145 1.030731e-146 2.677972e-148 2.099608e-150 1.169438e-152 2.847603e-155 3.952179e-158 1.495886e-159 2.670277e-161 1.860943e-163 4.593785e-166 -6.161346e-170 1.256952e-172 -3.251077e-175 3.362463e-178 -3.221928e-181 6.561183e-184 -4.389796e-186 -2.088694e-186 -3.653032e-189 -1.944183e-192 -6.861916e-195 2.105369e-197 -2.847736e-201 -2.561829e-203 1.563012e-205 -1.609845e-208 1.439541e-209 3.107109e-210 4.447946e-208 6.564494e-206 9.586275e-204 1.418654e-201 2.115431e-199 3.154213e-197 4.786947e-195 7.171020e-193 1.098807e-190 1.643478e-188 2.517824e-186 3.730899e-184 5.658093e-182 8.239586e-180 1.225586e-177 1.740634e-175 2.518617e-173 3.464319e-171 4.841171e-169 6.408105e-167 8.592965e-165 1.088127e-162 1.391925e-160 1.676748e-158 2.034750e-156 2.318895e-154 2.654994e-152 2.846526e-150 3.057907e-148 3.066111e-146 3.072301e-144 2.862381e-142 2.657953e-140 2.284157e-138 1.951043e-136 1.533343e-134 1.194294e-132 8.495913e-131 5.970836e-129 3.796235e-127 2.376057e-125 1.328658e-123 7.283784e-122 3.507577e-120 
3.513645e-116 1.416538e-114 5.522993e-113 1.786680e-111 5.532635e-110 1.346150e-108 3.081462e-107 5.030661e-106 7.448234e-105 6.371340e-104 4.400651e-103 9.737570e-103 2.025711e-102 2.303387e-102 3.693673e-102 3.591058e-102 5.357845e-102 4.829336e-102 7.021699e-102 5.998804e-102 8.648277e-102 7.033317e-102 1.010289e-101 7.758911e-102 1.099990e-101 7.729876e-102 1.026536e-101 5.785511e-102 5.190528e-102 7.969514e-103 1.485312e-103 1.045618e-104 9.612369e-106 4.523045e-107 2.740799e-108 9.845520e-110 4.454516e-111 1.306733e-112 4.680873e-114 1.162038e-115 3.355159e-117 7.142737e-119 1.644167e-120 2.992322e-122 5.414818e-124 8.370790e-126 1.207111e-127 1.579952e-129 1.778544e-131 1.828838e-133 1.320975e-135 8.662799e-138 2.463608e-140 7.801208e-143 6.932857e-145 2.034933e-142 4.478171e-144 8.944271e-146 8.633746e-148 5.393328e-150 2.256325e-152 3.931271e-155 -3.845763e-157 -5.842650e-159 -3.194671e-161 -6.479669e-164 3.208413e-167 -4.718793e-170 1.197032e-172 -1.944723e-175 2.166218e-178 2.731221e-181 -3.193765e-183 -9.793916e-184 -1.891641e-186 -5.996252e-191 8.242920e-192 -4.481133e-194 5.368572e-197 -5.582615e-200 1.145959e-202 -4.157422e-206 6.744317e-207 4.085023e-208 5.741909e-206 8.644650e-204 1.296974e-201 1.976132e-199 3.044895e-197 4.673423e-195 7.320686e-193 1.124816e-190 1.772624e-188 2.708190e-186 4.249956e-184 6.409250e-182 9.919455e-180 1.465749e-177 2.217835e-175 3.188580e-173 4.680832e-171 6.505359e-169 9.202873e-167 1.229015e-164 1.665380e-162 2.125205e-160 2.743107e-158 3.326916e-156 4.068743e-154 4.664922e-152 5.377110e-150 5.795988e-148 6.262645e-146 6.309401e-144 6.353562e-142 5.944305e-140 5.542747e-138 4.780604e-136 4.097222e-134 3.229999e-132 2.522360e-130 1.798908e-128 1.266590e-126 8.069062e-125 5.055884e-123 2.831349e-121 1.552643e-119 7.484126e-118 
7.336535e-114 2.958342e-112 1.152194e-110 3.726518e-109 1.151678e-107 2.800756e-106 6.391521e-105 1.042970e-103 1.536906e-102 1.315452e-101 9.007760e-101 2.002684e-100 4.115029e-100 4.703530e-100 7.440314e-100 7.272358e-100 1.068842e-99 9.688587e-100 1.385525e-99 1.190939e-99 1.685794e-99 1.380283e-99 1.942944e-99 1.503528e-99 2.084240e-99 1.477354e-99 1.913479e-99 1.089185e-99 9.502345e-100 1.464990e-100 2.678218e-101 1.869391e-102 1.693232e-103 7.842671e-105 4.684835e-106 1.645781e-107 7.331743e-109 2.088593e-110 7.348525e-112 1.757626e-113 4.964029e-115 1.010009e-116 2.258698e-118 3.909929e-120 6.829954e-122 1.012722e-123 1.437691e-125 1.882576e-127 2.261576e-129 2.538783e-131 2.228697e-133 1.671833e-135 9.173528e-138 5.768742e-140 2.194539e-142 4.786674e-140 1.053053e-141 1.768144e-143 1.821815e-145 1.247490e-147 6.279871e-150 2.370151e-152 1.318650e-154 9.156217e-157 3.857625e-159 6.198132e-162 -4.950467e-165 7.532182e-168 -2.194714e-170 5.155695e-173 -1.515146e-175 1.682722e-178 -1.188485e-180 -2.911220e-181 -8.268200e-184 1.899255e-187 -5.211208e-189 3.445636e-191 -5.177617e-194 6.383312e-197 5.003078e-200 3.833218e-203 2.905841e-204 4.918020e-206 6.370090e-204 9.984500e-202 1.570486e-199 2.504672e-197 4.044851e-195 6.466021e-193 1.055067e-190 1.676046e-188 2.731883e-186 4.286442e-184 6.913592e-182 1.065073e-179 1.685510e-177 2.533819e-175 3.904420e-173 5.693009e-171 8.484038e-169 1.192977e-166 1.708999e-164 2.304931e-162 3.156613e-160 4.062246e-158 5.290980e-156 6.463897e-154 7.966850e-152 9.192231e-150 1.066681e-147 1.156151e-145 1.256463e-143 1.271957e-141 1.287186e-139 1.209294e-137 1.132283e-135 9.800495e-134 8.428066e-132 6.663670e-130 5.217630e-128 3.729859e-126 2.631239e-124 1.679252e-122 1.053456e-120 5.906641e-119 3.240611e-117 1.563129e-115 
1.496814e-111 6.039199e-110 2.348577e-108 7.597511e-107 2.342225e-105 5.695841e-104 1.295100e-102 2.113471e-101 3.097589e-100 2.654368e-99 1.800552e-98 4.024662e-98 8.160695e-98 9.382483e-98 1.462515e-97 1.438131e-97 2.079523e-97 1.897030e-97 2.664269e-97 2.305916e-97 3.199090e-97 2.639303e-97 3.632787e-97 2.835244e-97 3.832817e-97 2.743200e-97 3.453933e-97 1.987950e-97 1.679717e-97 2.603646e-98 4.645553e-99 3.217660e-100 2.855170e-101 1.301702e-102 7.613871e-104 2.612393e-105 1.136536e-106 3.133738e-108 1.071768e-109 2.453459e-111 6.684482e-113 1.283764e-114 2.732072e-116 4.399487e-118 7.157789e-120 9.832256e-122 1.296513e-123 1.631815e-125 1.951193e-127 2.363031e-129 2.395871e-131 2.071509e-133 3.762752e-136 -1.004600e-138 1.756301e-140 8.056562e-138 1.847268e-139 2.394148e-141 2.627797e-143 1.832155e-145 1.056056e-147 2.935225e-150 -2.435994e-153 -7.378043e-155 -2.939921e-157 -4.204991e-160 2.816361e-163 -3.779268e-166 1.100902e-168 -2.745496e-171 9.750994e-174 -1.502189e-176 -3.061387e-178 -6.175676e-179 -2.052393e-181 -9.425100e-185 2.291461e-186 -1.504956e-188 3.458171e-191 -6.891681e-194 6.670854e-197 4.521286e-200 1.025183e-201 6.385903e-204 5.637480e-202 9.512365e-200 1.621140e-197 2.766682e-195 4.792287e-193 8.087562e-191 1.396332e-188 2.312071e-186 3.939617e-184 6.379998e-182 1.065514e-179 1.682096e-177 2.736426e-175 4.193679e-173 6.606589e-171 9.783457e-169 1.484385e-166 2.113953e-164 3.073331e-162 4.189224e-160 5.807897e-158 7.541749e-156 9.924430e-154 1.221861e-151 1.519086e-149 1.764531e-147 2.062685e-145 2.248809e-143 2.459135e-141 2.502183e-139 2.545330e-137 2.401898e-135 2.258570e-133 1.962335e-131 1.693299e-129 1.343093e-127 1.054358e-125 7.556918e-124 5.340544e-122 3.415379e-120 2.144703e-118 1.204369e-116 6.608865e-115 3.191147e-113 
2.988785e-109 1.206368e-107 4.684988e-106 1.515584e-104 4.661563e-103 1.133350e-101 2.567994e-100 4.190252e-99 6.109125e-98 5.240521e-97 3.521752e-96 7.913006e-96 1.583419e-95 1.830794e-95 2.812167e-95 2.781296e-95 3.956640e-95 3.631359e-95 5.008303e-95 4.362978e-95 5.931682e-95 4.928757e-95 6.632274e-95 5.217478e-95 6.876422e-95 4.965834e-95 6.075853e-95 3.532904e-95 2.889637e-95 4.499939e-96 7.828364e-97 5.375103e-98 4.666478e-99 2.090624e-100 1.195364e-101 3.994731e-103 1.693389e-104 4.498373e-106 1.490848e-107 3.240229e-109 8.477551e-111 1.514571e-112 3.041659e-114 4.433780e-116 6.568181e-118 7.972511e-120 9.262256e-122 1.052701e-123 1.177096e-125 1.464975e-127 1.751593e-129 2.334632e-131 2.194564e-133 5.803643e-136 7.019774e-138 7.893693e-136 1.577826e-137 1.679514e-139 1.833788e-141 1.387583e-143 1.026243e-145 5.519688e-148 2.584784e-150 8.239883e-153 1.711460e-155 1.628553e-158 -7.922090e-162 1.012082e-164 -2.557223e-167 7.084144e-170 -3.274711e-172 9.824718e-175 -5.349909e-176 -7.659487e-177 -1.826808e-179 1.193823e-181 -5.422680e-184 2.965972e-186 -7.580096e-189 1.881093e-191 -1.000989e-194 4.953654e-197 3.248627e-199 1.248649e-201 4.152611e-200 7.877859e-198 1.490942e-195 2.797766e-193 5.267575e-191 9.537913e-189 1.753727e-186 3.056984e-184 5.460532e-182 9.185937e-180 1.589982e-177 2.583439e-175 4.320290e-173 6.770753e-171 1.090039e-168 1.643125e-166 2.536721e-164 3.665011e-162 5.404262e-160 7.454579e-158 1.045651e-155 1.371408e-153 1.822400e-151 2.262719e-149 2.836391e-147 3.318587e-145 3.906434e-143 4.285464e-141 4.713915e-139 4.822083e-137 4.929474e-135 4.672918e-133 4.411971e-131 3.848034e-129 3.331305e-127 2.650726e-125 2.086059e-123 1.498957e-121 1.061167e-119 6.799627e-118 4.274090e-116 2.403481e-114 1.319201e-112 6.375418e-111 
5.832240e-107 2.355611e-105 9.132985e-104 2.955377e-102 9.065890e-101 2.204370e-99 4.975331e-98 8.120377e-97 1.177104e-95 1.011217e-94 6.728519e-94 1.520281e-93 3.000284e-93 3.489978e-93 5.278664e-93 5.253000e-93 7.345494e-93 6.785357e-93 9.180268e-93 8.053072e-93 1.071562e-92 8.971678e-93 1.178433e-92 9.349084e-93 1.199036e-92 8.741659e-93 1.036987e-92 6.095375e-93 4.812466e-93 7.534763e-94 1.273458e-94 8.670905e-96 7.335586e-97 3.228009e-98 1.796020e-99 5.835969e-101 2.397735e-102 6.112869e-104 1.950808e-105 3.993550e-107 9.955712e-109 1.626788e-110 3.048446e-112 3.869980e-114 5.079297e-116 4.995518e-118 4.710752e-120 4.176947e-122 3.818798e-124 4.000748e-126 4.498042e-128 6.596757e-130 9.282113e-132 2.015143e-133 -3.860024e-136 5.585474e-134 7.968907e-136 4.894491e-138 4.003198e-140 2.113175e-142 1.247941e-144 5.264370e-147 2.129851e-149 6.262807e-152 1.423197e-154 2.257842e-157 8.742130e-161 -2.778506e-163 -6.547866e-166 -2.142279e-168 7.216501e-171 -1.682975e-174 -6.888763e-174 -6.864837e-175 -2.335986e-177 -4.150803e-180 3.160305e-182 -1.533221e-184 3.348534e-187 -3.664577e-190 3.321554e-192 1.327986e-194 8.438213e-197 2.987537e-199 2.347512e-198 5.241479e-196 1.168880e-193 2.464781e-191 5.218195e-189 1.023288e-186 2.044293e-184 3.766460e-182 7.142491e-180 1.250303e-177 2.262029e-175 3.785683e-173 6.546983e-171 1.049570e-168 1.734376e-166 2.661541e-164 4.194815e-162 6.148668e-160 9.218913e-158 1.286849e-155 1.829815e-153 2.423873e-151 3.257424e-149 4.078764e-147 5.160956e-145 6.082155e-143 7.215679e-141 7.965215e-139 8.818717e-137 9.069569e-135 9.321436e-133 8.877030e-131 8.417855e-129 7.370640e-127 6.402737e-125 5.111358e-123 4.032772e-121 2.905541e-119 2.060456e-117 1.323064e-115 8.323883e-114 4.688236e-112 2.573423e-110 1.245037e-108 
1.113371e-104 4.499425e-103 1.741614e-101 5.636953e-100 1.724658e-98 4.193592e-97 9.428627e-96 1.539181e-94 2.218387e-93 1.908537e-92 1.257353e-91 2.856678e-91 5.559792e-91 6.505806e-91 9.688527e-91 9.700036e-91 1.333085e-90 1.239254e-90 1.644445e-90 1.452332e-90 1.890917e-90 1.594907e-90 2.044257e-90 1.635148e-90 2.039918e-90 1.500996e-90 1.725518e-90 1.024971e-90 7.806967e-91 1.229046e-91 2.015779e-92 1.361613e-93 1.120770e-94 4.846332e-96 2.618571e-97 8.276155e-99 3.287000e-100 8.042324e-102 2.463210e-103 4.743723e-105 1.122314e-106 1.668240e-108 2.902637e-110 3.140265e-112 3.597063e-114 2.639798e-116 1.845537e-118 1.063768e-120 6.795455e-123 4.602527e-125 3.567096e-127 3.752551e-129 3.698112e-131 -1.913128e-132 2.450014e-136 2.552917e-132 1.052751e-134 3.069109e-137 9.482254e-140 2.619452e-142 7.847516e-145 2.249945e-147 6.483946e-150 1.960029e-152 7.578827e-155 6.078310e-157 4.900784e-159 4.169569e-161 1.992293e-163 8.122652e-166 9.918799e-169 8.587729e-172 -6.134672e-172 -4.016625e-173 -2.498633e-175 1.828464e-177 -2.938626e-180 5.698095e-183 -7.847592e-187 5.970701e-188 7.922968e-190 3.721078e-192 1.811051e-194 6.111445e-197 1.113566e-196 3.132487e-194 8.420480e-192 2.059355e-189 4.927730e-187 1.062945e-184 2.304886e-182 4.528976e-180 9.092894e-178 1.666141e-175 3.141411e-173 5.437997e-171 9.699402e-169 1.595604e-166 2.700066e-164 4.228366e-162 6.790216e-160 1.011660e-157 1.539820e-155 2.178322e-153 3.135738e-151 4.200213e-149 5.702254e-147 7.207167e-145 9.196841e-143 1.092478e-140 1.305268e-138 1.450625e-136 1.615544e-134 1.671087e-132 1.725860e-130 1.651613e-128 1.572365e-126 1.382400e-124 1.204587e-122 9.648843e-121 7.630273e-119 5.512438e-117 3.915107e-115 2.519280e-113 1.586191e-111 8.947648e-110 4.911483e-108 2.378644e-106 
2.077317e-102 8.400785e-101 3.245926e-99 1.050962e-97 3.206456e-96 7.798149e-95 1.746135e-93 2.851607e-92 4.085302e-91 3.520570e-90 2.295694e-89 5.245376e-89 1.006454e-88 1.184863e-88 1.736655e-88 1.749468e-88 2.361889e-88 2.209797e-88 2.874368e-88 2.556020e-88 3.254056e-88 2.765199e-88 3.455711e-88 2.787070e-88 3.378841e-88 2.509429e-88 2.792315e-88 1.676348e-88 1.230072e-88 1.947611e-89 3.094065e-90 2.073381e-91 1.657359e-92 7.038441e-94 3.686710e-95 1.131772e-96 4.338970e-98 1.015957e-99 2.984489e-101 5.376077e-103 1.208983e-104 1.612702e-106 2.625940e-108 2.317004e-110 2.369887e-112 1.039977e-114 5.474738e-117 3.761550e-120 8.149867e-122 -3.105952e-124 2.893151e-126 -8.158326e-129 1.590053e-132 9.567476e-131 1.425894e-132 8.436969e-131 -4.111274e-133 -5.990509e-136 -1.344845e-138 -2.582367e-141 -1.047315e-143 -2.132094e-146 -5.188613e-149 -2.670556e-151 -2.780129e-153 -4.203241e-155 -4.324836e-157 -4.046398e-159 -2.565048e-161 -1.289384e-163 -2.002005e-166 -2.141731e-169 -7.098492e-170 -1.749574e-171 9.088711e-175 -3.125661e-176 -1.942876e-178 -1.074695e-180 -8.013313e-185 1.702565e-185 1.495102e-187 7.203422e-190 2.809622e-192 9.219587e-195 4.016514e-195 1.509344e-192 5.379661e-190 1.540576e-187 4.336566e-185 1.026898e-182 2.466667e-180 5.151202e-178 1.108481e-175 2.119655e-173 4.199518e-171 7.501613e-169 1.388222e-166 2.339198e-164 4.071726e-162 6.498159e-160 1.066916e-157 1.614021e-155 2.500635e-153 3.582251e-151 5.231556e-149 7.081390e-147 9.728095e-145 1.240497e-142 1.598486e-140 1.913204e-138 2.304387e-136 2.577588e-134 2.889812e-132 3.005705e-130 3.121157e-128 3.000953e-126 2.869451e-124 2.532809e-122 2.214508e-120 1.779705e-118 1.410881e-116 1.022025e-114 7.270535e-113 4.688346e-111 2.954217e-109 1.669121e-107 9.161694e-106 4.441974e-104 
3.789751e-100 1.533696e-98 5.914786e-97 1.915818e-95 5.828259e-94 1.417769e-92 3.161432e-91 5.165328e-90 7.354936e-89 6.349604e-88 4.097678e-87 9.416448e-87 1.780963e-86 2.109514e-86 3.042469e-86 3.083999e-86 4.089075e-86 3.850585e-86 4.908089e-86 4.394706e-86 5.468698e-86 4.682202e-86 5.702759e-86 4.637941e-86 5.461300e-86 4.094605e-86 4.407714e-86 2.675132e-86 1.889923e-86 3.012604e-87 4.630469e-88 3.084118e-89 2.390260e-90 9.996999e-92 5.065975e-93 1.516684e-94 5.599033e-96 1.262255e-97 3.546735e-99 6.032919e-101 1.286864e-102 1.564114e-104 2.391118e-106 1.753059e-108 1.660807e-110 3.572312e-113 2.229649e-115 -9.923672e-118 7.635630e-120 -5.433557e-122 3.975101e-124 -2.481073e-126 6.654072e-129 -3.546404e-129 -5.445600e-131 2.690364e-129 -3.102833e-131 5.223493e-134 -1.992550e-136 -1.308097e-139 8.964684e-142 -3.229308e-145 3.515156e-148 1.361005e-149 2.185291e-151 3.442276e-153 3.970609e-155 3.906672e-157 3.386362e-159 2.156853e-161 1.233331e-163 9.799593e-167 -8.008981e-168 -5.833772e-170 1.688138e-172 1.952498e-174 1.707343e-176 1.488850e-178 9.147207e-181 4.966812e-183 2.071201e-185 7.761809e-188 2.420483e-190 6.987318e-193 1.383730e-193 7.407699e-191 3.479601e-188 1.182056e-185 3.839480e-183 1.003962e-180 2.630980e-178 5.866150e-176 1.338215e-173 2.681008e-171 5.537453e-169 1.024146e-166 1.954889e-164 3.383624e-162 6.031691e-160 9.832970e-158 1.645058e-155 2.531825e-153 3.982287e-151 5.786132e-149 8.554856e-147 1.171728e-144 1.626086e-142 2.094230e-140 2.721382e-138 3.284674e-136 3.983958e-134 4.488185e-132 5.060891e-130 5.295792e-128 5.525109e-126 5.339519e-124 5.124745e-122 4.542880e-120 3.983471e-118 3.212644e-116 2.552169e-114 1.854024e-112 1.320651e-110 8.535069e-109 5.381053e-107 3.045322e-105 1.671189e-103 8.111973e-102 
6.757547e-98 2.736670e-96 1.053422e-94 3.413408e-93 1.035395e-91 2.519320e-90 5.594111e-89 9.144505e-88 1.294072e-86 1.119215e-85 7.147820e-85 1.651833e-84 3.079529e-84 3.669457e-84 5.207583e-84 5.310570e-84 6.915004e-84 6.552483e-84 8.183921e-84 7.376628e-84 8.971646e-84 7.736901e-84 9.183121e-84 7.528449e-84 8.609917e-84 6.514092e-84 6.783631e-84 4.160500e-84 2.830218e-84 4.540812e-85 6.752573e-86 4.469070e-87 3.359635e-88 1.383147e-89 6.789646e-91 1.980950e-92 7.061064e-94 1.531321e-95 4.137934e-97 6.641065e-99 1.358572e-100 1.503733e-102 2.215549e-104 1.339565e-106 1.289004e-108 4.494895e-112 1.763053e-113 -1.245615e-115 8.266284e-118 -6.189375e-120 4.024253e-122 -3.239544e-124 1.951235e-126 1.992330e-127 9.774360e-130 1.179092e-127 -8.186888e-130 3.293683e-132 -1.906619e-134 5.188710e-137 -1.419403e-139 1.105068e-142 -6.439596e-146 -1.205251e-147 -1.865246e-149 -2.708206e-151 -3.163078e-153 -3.098388e-155 -2.908104e-157 -2.119170e-159 -1.726085e-161 -9.926547e-164 -7.955643e-166 -1.696713e-168 3.030442e-172 1.355200e-174 2.791566e-177 -2.873644e-179 -2.771002e-181 -2.124900e-183 -7.882322e-186 -3.075242e-188 -9.345889e-191 -4.717451e-193 4.024947e-192 3.157937e-189 2.220167e-186 8.655403e-184 3.346376e-181 9.460652e-179 2.744712e-176 6.449933e-174 1.574611e-171 3.277767e-169 7.106692e-167 1.353302e-164 2.678756e-162 4.744098e-160 8.697573e-158 1.444301e-155 2.470523e-153 3.860211e-151 6.181007e-149 9.094530e-147 1.364318e-144 1.888541e-142 2.652317e-140 3.446695e-138 4.523150e-136 5.501260e-134 6.726790e-132 7.627721e-130 8.658484e-128 9.110815e-126 9.556802e-124 9.279359e-122 8.944435e-120 7.960291e-118 7.003119e-116 5.666497e-114 4.512272e-112 3.286660e-110 2.344696e-108 1.518494e-106 9.580119e-105 5.430247e-103 2.979554e-101 1.447879e-99 
1.177491e-95 4.772567e-94 1.833251e-92 5.943424e-91 1.797243e-89 4.374838e-88 9.671627e-87 1.582078e-85 2.224619e-84 1.927992e-83 1.218251e-82 2.831727e-82 5.202466e-82 6.237247e-82 8.707302e-82 8.934869e-82 1.142146e-81 1.089282e-81 1.332543e-81 1.209393e-81 1.436914e-81 1.248513e-81 1.443337e-81 1.193278e-81 1.324644e-81 1.011924e-81 1.018807e-81 6.319761e-82 4.136943e-82 6.692895e-83 9.618744e-84 6.346256e-85 4.620316e-86 1.881600e-87 8.930302e-89 2.558105e-90 8.785315e-92 1.854524e-93 4.808633e-95 7.429690e-97 1.455257e-98 1.525711e-100 2.169208e-102 1.198213e-104 1.184781e-106 -3.174858e-111 2.010885e-111 -1.247694e-113 7.223596e-116 -4.785266e-118 2.383406e-120 -1.447837e-122 9.412594e-126 -1.783903e-125 1.495308e-128 7.519892e-126 -5.868306e-129 3.473443e-131 -1.939435e-133 4.484985e-136 -8.630050e-139 2.853652e-142 5.498554e-144 1.184780e-145 1.735855e-147 2.277161e-149 2.496809e-151 2.285908e-153 2.003844e-155 1.355553e-157 9.269079e-160 3.883536e-162 1.450082e-164 1.143852e-167 6.765694e-171 1.326117e-172 1.235559e-174 1.220247e-176 8.270272e-179 5.432122e-181 2.555166e-183 1.093528e-185 3.250368e-188 7.390668e-191 1.899410e-190 1.809643e-187 1.673151e-184 7.232352e-182 3.125030e-179 9.475422e-177 2.944038e-174 7.286678e-172 1.866467e-169 4.043676e-167 9.086403e-165 1.785675e-162 3.633340e-160 6.599609e-158 1.236561e-155 2.096252e-153 3.649079e-151 5.799878e-149 9.420540e-147 1.406012e-144 2.134219e-142 2.989938e-140 4.240311e-138 5.566550e-136 7.364422e-134 9.034486e-132 1.112133e-129 1.270346e-127 1.449957e-125 1.535194e-123 1.617513e-121 1.578784e-119 1.527138e-117 1.365056e-115 1.204094e-113 9.777934e-112 7.800574e-110 5.698374e-108 4.069570e-106 2.641623e-104 1.667125e-102 9.466097e-101 5.191738e-99 2.526007e-97 
2.005249e-93 8.133174e-92 3.118028e-90 1.011273e-88 3.048921e-87 7.423818e-86 1.634221e-84 2.674744e-83 3.737696e-82 3.245449e-81 2.029429e-80 4.743159e-80 8.590203e-80 1.035813e-79 1.422915e-79 1.468534e-79 1.843600e-79 1.768724e-79 2.120203e-79 1.936369e-79 2.248674e-79 1.967221e-79 2.216456e-79 1.846504e-79 1.991284e-79 1.534614e-79 1.495420e-79 9.373264e-80 5.913471e-80 9.639674e-81 1.341224e-81 8.816275e-83 6.232259e-84 2.509170e-85 1.156080e-86 3.250261e-88 1.082348e-89 2.224986e-91 5.592491e-93 8.342007e-95 1.590872e-96 1.595680e-98 2.253269e-100 1.185670e-102 1.257169e-104 2.758533e-108 2.694941e-109 -1.213819e-111 6.916314e-114 -3.931881e-116 1.521393e-118 -9.037545e-121 1.064746e-122 2.670599e-123 -3.471124e-125 6.753449e-124 1.483647e-126 3.021724e-129 -1.522655e-131 3.813140e-134 -9.667010e-137 6.972932e-140 -7.568337e-142 -1.287847e-143 -1.753560e-145 -2.017520e-147 -2.059940e-149 -1.720645e-151 -1.416951e-153 -9.116789e-156 -6.170431e-158 -2.923240e-160 -1.365210e-162 -2.829565e-165 -3.426568e-168 -1.799385e-170 -9.537727e-173 -7.077337e-175 -4.400394e-177 -2.961076e-179 -1.604998e-181 -8.706722e-184 -3.838276e-186 -1.658096e-188 1.440837e-188 1.123222e-185 1.409227e-182 6.217803e-180 3.018920e-177 9.469939e-175 3.169594e-172 8.100840e-170 2.189652e-167 4.877598e-165 1.141813e-162 2.297295e-160 4.826638e-158 8.942342e-156 1.718994e-153 2.963141e-151 5.266353e-149 8.489624e-147 1.402589e-144 2.118708e-142 3.261448e-140 4.616330e-138 6.623249e-136 8.771557e-134 1.171656e-131 1.448205e-129 1.796901e-127 2.065749e-125 2.373167e-123 2.526433e-121 2.675889e-119 2.623897e-117 2.548586e-115 2.286904e-113 2.023599e-111 1.648517e-109 1.318089e-107 9.653524e-106 6.903754e-104 4.490382e-102 2.835484e-100 1.612454e-98 8.841477e-97 4.306352e-95 
3.334824e-91 1.353820e-89 5.178407e-88 1.680592e-86 5.050352e-85 1.230395e-83 2.696178e-82 4.416713e-81 6.131707e-80 5.336219e-79 3.301122e-78 7.760016e-78 1.384925e-77 1.680073e-77 2.270157e-77 2.357244e-77 2.904908e-77 2.804551e-77 3.292485e-77 3.027269e-77 3.434010e-77 3.026425e-77 3.321061e-77 2.789920e-77 2.920718e-77 2.272922e-77 2.142162e-77 1.358557e-77 8.254775e-78 1.359248e-78 1.828864e-79 1.202800e-80 8.242769e-82 3.301835e-83 1.474070e-84 4.106761e-86 1.323258e-87 2.689124e-89 6.536485e-91 9.652207e-93 1.786286e-94 1.797654e-96 2.498767e-98 1.412365e-100 1.515477e-102 2.149009e-105 4.170864e-107 -7.043973e-110 8.417401e-112 -3.292114e-114 6.586229e-117 7.615521e-120 -3.263372e-120 -7.776777e-121 5.005999e-122 8.689793e-122 3.895956e-124 8.771704e-127 -1.781189e-129 2.251199e-132 -3.077352e-135 6.671668e-138 1.150180e-139 1.660466e-141 2.000086e-143 2.021711e-145 1.827135e-147 1.359244e-149 9.596474e-152 5.274939e-154 2.732458e-156 9.562915e-159 2.638515e-161 3.990981e-164 4.158141e-167 1.850872e-169 8.862780e-172 5.846516e-174 3.131362e-176 1.824378e-178 8.327386e-181 3.769691e-183 1.311181e-185 4.187104e-188 2.089926e-186 1.295567e-183 1.495407e-180 6.507019e-178 3.224836e-175 1.035550e-172 3.571826e-170 9.403483e-168 2.615675e-165 5.994347e-163 1.438890e-160 2.969016e-158 6.372723e-156 1.206789e-153 2.362091e-151 4.148879e-149 7.486806e-147 1.226474e-144 2.052413e-142 3.143263e-140 4.891032e-138 7.004853e-136 1.014144e-133 1.356677e-131 1.825902e-129 2.276351e-127 2.842153e-125 3.291382e-123 3.800562e-121 4.071188e-119 4.329726e-117 4.267845e-115 4.158565e-113 3.747893e-111 3.324167e-109 2.717781e-107 2.176436e-105 1.598651e-103 1.144221e-101 7.459509e-100 4.710795e-98 2.683631e-96 1.470552e-94 7.171824e-93 
5.419283e-89 2.201445e-87 8.403811e-86 2.728404e-84 8.174697e-83 1.992162e-81 4.346929e-80 7.125085e-79 9.830817e-78 8.571807e-77 5.248554e-76 1.240255e-75 2.182605e-75 2.662102e-75 3.540676e-75 3.696275e-75 4.474864e-75 4.344000e-75 4.999061e-75 4.622984e-75 5.128054e-75 4.547955e-75 4.867129e-75 4.117993e-75 4.191901e-75 3.289656e-75 3.004978e-75 1.925417e-75 1.129907e-75 1.876826e-76 2.450014e-77 1.610369e-78 1.074523e-79 4.278270e-81 1.862114e-82 5.137565e-84 1.616005e-85 3.247159e-87 7.731851e-89 1.132685e-90 2.072665e-92 2.105991e-94 2.958338e-96 1.817224e-98 2.040089e-100 5.661565e-103 8.103105e-105 1.222046e-107 2.629456e-109 -2.324611e-112 1.581795e-115 -4.492542e-117 1.486224e-117 6.544547e-118 9.282912e-119 1.372869e-119 6.354936e-122 1.911983e-124 -1.352343e-127 7.048558e-131 -1.517694e-133 -1.263503e-135 -2.091942e-137 -2.386229e-139 -2.567663e-141 -2.233084e-143 -1.835208e-145 -1.214240e-147 -7.836544e-150 -3.922045e-152 -1.916179e-154 -6.705929e-157 -2.061374e-159 -4.355697e-162 -7.459774e-165 -2.518696e-167 -8.794503e-170 -4.502109e-172 -2.108492e-174 -1.158486e-176 -5.491366e-179 -2.771305e-181 -1.188859e-183 -5.168195e-186 3.577241e-184 1.719669e-181 1.770425e-178 7.172771e-176 3.609749e-173 1.147623e-170 4.085726e-168 1.085628e-165 3.118630e-163 7.256087e-161 1.793148e-158 3.760604e-156 8.278070e-154 1.592130e-151 3.184239e-149 5.672667e-147 1.042543e-144 1.729547e-142 2.939327e-140 4.551772e-138 7.175455e-136 1.037643e-133 1.518751e-131 2.048811e-129 2.782628e-127 3.494220e-125 4.395717e-123 5.122036e-121 5.950993e-119 6.408293e-117 6.849146e-115 6.781183e-113 6.633320e-111 6.000327e-109 5.337562e-107 4.377114e-105 3.512441e-103 2.586258e-101 1.853362e-99 1.210553e-97 7.648176e-96 4.363163e-94 2.390074e-92 1.166789e-90 
8.593301e-87 3.494163e-85 1.330666e-83 4.323291e-82 1.290962e-80 3.148175e-79 6.837586e-78 1.121896e-76 1.537778e-75 1.344055e-74 8.142294e-74 1.934919e-73 3.356144e-73 4.117344e-73 5.387600e-73 5.657180e-73 6.724421e-73 6.566993e-73 7.403224e-73 6.890040e-73 7.468166e-73 6.670041e-73 6.955767e-73 5.932725e-73 5.867238e-73 4.648802e-73 4.112209e-73 2.666449e-73 1.510033e-73 2.537531e-74 3.209769e-75 2.118551e-76 1.373994e-77 5.475623e-79 2.318681e-80 6.399857e-82 1.960329e-83 3.953836e-85 9.193354e-87 1.367166e-88 2.460733e-90 2.617834e-92 3.670389e-94 2.589320e-96 2.944665e-98 1.371499e-100 1.754977e-102 9.829577e-105 1.165069e-106 4.972484e-109 1.001815e-111 -7.723603e-114 -1.612588e-114 1.169732e-114 5.966575e-116 2.844831e-117 1.439917e-119 4.416124e-122 2.993874e-125 1.035848e-128 3.701008e-131 3.515925e-133 4.208698e-135 3.961443e-137 3.635667e-139 2.776683e-141 1.992326e-143 1.175505e-145 6.477682e-148 2.809531e-150 1.085223e-152 3.059323e-155 6.543403e-158 1.034109e-160 1.289333e-163 3.135881e-166 9.269687e-169 3.955092e-171 1.507129e-173 6.317333e-176 1.857085e-178 1.169014e-181 -7.669349e-183 -6.787699e-185 7.024181e-182 3.087864e-179 2.422785e-176 9.263866e-174 4.395717e-171 1.383089e-168 4.882229e-166 1.309287e-163 3.790399e-161 8.963922e-159 2.244299e-156 4.792574e-154 1.070032e-151 2.094568e-149 4.246534e-147 7.689053e-145 1.430746e-142 2.408415e-140 4.138148e-138 6.491193e-136 1.033050e-133 1.510762e-131 2.229265e-129 3.036678e-127 4.152635e-125 5.258353e-123 6.652659e-121 7.807477e-119 9.113097e-117 9.873071e-115 1.059109e-112 1.053968e-110 1.033882e-108 9.392155e-107 8.371534e-105 6.889302e-103 5.535350e-101 4.087387e-99 2.930725e-97 1.918592e-95 1.211981e-93 6.926298e-92 3.790926e-90 1.853094e-88 