# vtk DataFile Version 2.0
Comment goes here
ASCII

DATASET STRUCTURED_POINTS
DIMENSIONS    128   128   1

ORIGIN    0.000   0.000   0.000
SPACING   0.0156250.015625   1.000

POINT_DATA   16384
SCALARS Concentration double
LOOKUP_TABLE default

3.076895e-68 1.633075e-67 1.613899e-66 6.186355e-66 5.715912e-65 1.413901e-64 1.155723e-63 1.624151e-63 1.009850e-62 7.524366e-63 2.466469e-62 1.110573e-62 1.402083e-62 5.109880e-63 5.615672e-63 -4.926581e-63 7.470033e-61 -3.734277e-60 2.385260e-58 -9.476465e-58 4.345301e-56 -1.095939e-55 4.088978e-54 -8.058499e-54 2.273481e-52 -6.206074e-52 1.086565e-50 -2.619440e-50 3.359265e-49 -3.499894e-49 3.961052e-48 -6.892546e-49 1.294699e-47 2.529343e-48 8.079761e-48 2.152957e-48 1.412594e-48 -1.044797e-47 1.724885e-46 -3.260353e-45 4.232021e-44 -6.905583e-43 6.913793e-42 -9.878582e-41 7.018116e-40 -8.890089e-39 3.617552e-38 -4.048728e-37 6.220441e-37 -4.373308e-36 2.769286e-36 -9.432490e-40 -1.350354e-35 -4.070956e-33 9.941861e-33 -1.689156e-31 2.221066e-30 -2.782462e-29 3.446786e-28 -2.174063e-27 1.318269e-26 -3.862749e-26 8.045209e-26 -3.434769e-26 -8.712254e-27 9.215898e-28 -1.424144e-28 1.906137e-29 -2.485392e-30 2.444953e-31 -2.256148e-32 1.597048e-33 -1.938601e-34 1.756014e-35 -1.532274e-36 -8.300125e-37 -2.929497e-39 4.957199e-41 1.998131e-40 -3.324123e-40 3.042318e-41 -1.768326e-41 8.611041e-43 -1.117633e-43 4.784031e-46 6.809188e-46 -8.495423e-47 1.045964e-47 -6.931446e-49 5.368860e-50 -2.734884e-51 1.582338e-52 -6.632199e-54 3.063844e-55 -1.094936e-56 4.236285e-58 -1.337718e-59 4.516441e-61 -1.288471e-62 3.843431e-64 -9.758674e-66 2.514353e-67 -5.481734e-69 1.184766e-70 -2.156626e-72 3.838539e-74 -5.743946e-76 8.331614e-78 -1.013809e-79 1.186271e-81 -1.059967e-83 4.243653e-84 2.779872e-83 1.031427e-82 7.192317e-82 3.073109e-81 2.639973e-80 1.606683e-79 1.946382e-78 2.171596e-77 3.021771e-76 3.318579e-75 4.223602e-74 4.058113e-73 4.797178e-72 3.938117e-71 4.355884e-70 2.949168e-69 
8.598201e-67 4.611402e-66 4.464565e-65 1.719058e-64 1.513464e-63 3.755682e-63 2.832244e-62 3.968455e-62 2.206438e-61 1.599758e-61 4.570848e-61 1.932912e-61 2.159676e-61 7.322174e-62 8.806293e-62 6.857166e-62 1.571600e-59 -7.194605e-60 4.655987e-57 -3.586011e-57 7.893751e-55 -4.082910e-55 6.909410e-53 -4.701330e-53 3.628483e-51 -5.775482e-51 1.727848e-49 -2.572159e-49 5.404751e-48 -3.193933e-48 6.479026e-47 -1.917176e-48 2.185722e-46 4.623464e-47 1.434727e-46 3.800777e-47 1.480166e-47 5.641989e-47 -9.001608e-46 1.816682e-44 -2.468201e-43 4.328704e-42 -4.583929e-41 7.123639e-40 -5.381728e-39 7.482222e-38 -3.197968e-37 4.057286e-36 -5.877425e-36 5.851534e-35 -2.788553e-35 2.614037e-35 -4.755202e-33 -1.255184e-31 -2.087004e-32 3.557151e-31 -8.502632e-30 1.826075e-28 -2.902094e-27 1.715165e-26 -9.593080e-26 2.606386e-25 -5.170248e-25 2.145045e-25 4.755086e-26 -4.091173e-27 5.651304e-28 -6.422029e-29 5.658937e-30 -3.053754e-31 -6.065250e-33 -9.340196e-34 1.540429e-33 -1.294022e-34 1.178662e-35 -3.221837e-35 -1.214978e-36 6.175775e-39 -2.810304e-39 6.220735e-39 -4.411375e-40 2.736309e-40 -1.418525e-41 2.216636e-42 -7.395736e-44 1.805122e-45 2.900002e-46 -5.124624e-47 3.720032e-48 -2.986411e-49 1.496790e-50 -8.537327e-52 3.387349e-53 -1.486376e-54 4.755938e-56 -1.626057e-57 4.109479e-59 -1.065766e-60 1.985407e-62 -3.466943e-64 3.275617e-66 8.392160e-69 -1.612594e-69 5.152011e-71 -1.086986e-72 2.004951e-74 -2.893845e-76 3.928781e-78 -4.280963e-80 4.451160e-82 -3.741763e-84 -4.219084e-86 1.379993e-85 1.502032e-83 3.270308e-82 6.138934e-81 1.117673e-79 1.804419e-78 2.972428e-77 4.175219e-76 6.196244e-75 7.461783e-74 9.994012e-73 1.019333e-71 1.243719e-70 1.058845e-69 1.190280e-68 8.237397e-68 
2.230710e-65 1.210409e-64 1.146130e-63 4.445244e-63 3.728807e-62 9.302901e-62 6.489830e-61 9.068739e-61 4.532933e-60 3.192921e-60 7.971263e-60 3.151340e-60 3.108921e-60 9.815484e-61 1.446308e-60 5.110592e-60 3.325369e-58 1.163401e-57 9.043747e-56 1.875925e-55 1.403607e-53 1.791259e-53 1.129756e-51 6.036150e-52 5.634395e-50 -2.050140e-50 2.662403e-48 -1.266659e-48 8.201779e-47 -8.898338e-48 9.700417e-46 1.236855e-46 3.261789e-45 7.571599e-46 2.139041e-45 5.479387e-46 2.486860e-46 -1.964019e-46 4.436577e-45 -9.029301e-44 1.355981e-42 -2.441587e-41 2.929862e-40 -4.660242e-39 4.081037e-38 -5.660770e-37 2.930959e-36 -3.556360e-35 6.680817e-35 -6.995183e-34 4.314085e-34 4.327584e-34 -1.580552e-31 -2.116701e-30 -7.190228e-31 4.508108e-30 -2.590449e-29 -6.082509e-28 1.549935e-26 -1.017292e-25 5.055701e-25 -1.396372e-24 2.653024e-24 -1.127141e-24 -2.050459e-25 1.109312e-26 -1.079578e-27 1.007680e-29 3.473390e-29 -8.052533e-30 1.058554e-30 3.111615e-32 -1.799602e-32 2.077998e-33 -2.620619e-34 -5.322351e-34 -3.971616e-35 1.141789e-37 6.258248e-38 -9.489956e-38 7.061779e-39 -3.305494e-39 2.012964e-40 -2.854988e-41 1.275084e-42 -7.572329e-44 1.038388e-45 1.317495e-46 -1.559690e-47 1.348427e-48 -7.293801e-50 4.073146e-51 -1.685763e-52 7.286721e-54 -2.490186e-55 8.771250e-57 -2.522153e-58 7.341489e-60 -1.771027e-61 4.249992e-63 -8.512567e-65 1.672484e-66 -2.753811e-68 4.401457e-70 -5.909337e-72 7.637066e-74 -8.289818e-76 8.589906e-78 -7.444156e-80 6.094269e-82 -4.107899e-84 4.384042e-85 9.401055e-84 2.031916e-82 4.370453e-81 8.630191e-80 1.703630e-78 2.980238e-77 5.288973e-76 7.976819e-75 1.257807e-73 1.604462e-72 2.249987e-71 2.397795e-70 3.019107e-69 2.651575e-68 3.029825e-67 2.139159e-66 
5.554088e-64 3.038415e-63 2.824233e-62 1.099061e-61 8.836143e-61 2.204947e-60 1.435812e-59 1.987653e-59 9.033574e-59 6.136453e-59 1.348688e-58 4.930706e-59 4.300587e-59 1.265730e-59 2.598439e-59 1.754492e-58 7.090224e-57 4.511564e-56 1.760063e-54 7.378329e-54 2.477225e-52 6.595685e-52 1.827702e-50 2.869113e-50 8.774634e-49 7.151968e-49 4.114266e-47 1.989652e-47 1.228196e-45 4.268742e-46 1.415126e-44 3.929543e-45 4.709525e-44 1.170290e-44 3.086985e-44 7.459670e-45 3.200401e-45 1.330067e-45 -1.361474e-44 3.168549e-43 -5.275885e-42 1.059781e-40 -1.409209e-39 2.457814e-38 -2.389300e-37 3.519033e-36 -2.088519e-35 2.567636e-34 -6.225031e-34 6.841839e-33 -4.385805e-33 -3.099959e-33 -2.483452e-30 -1.980542e-29 3.269764e-30 -4.655426e-29 1.173168e-27 1.623995e-26 -1.273570e-25 5.891995e-25 -2.345701e-24 5.861973e-24 -1.166987e-23 4.757283e-24 7.305648e-25 -6.105601e-27 -6.359392e-28 8.444523e-28 -3.857112e-28 9.342614e-29 -1.866451e-29 3.012799e-30 2.758519e-31 -7.399114e-33 3.595089e-34 -5.137752e-33 -6.294535e-34 -7.893047e-37 -7.496191e-37 1.089514e-36 -8.395347e-38 3.037882e-38 -1.974089e-39 2.603664e-40 -1.253419e-41 8.420037e-43 -2.519008e-44 5.510185e-46 2.376794e-47 -3.452685e-48 2.035126e-49 -1.129197e-50 4.353231e-52 -1.727668e-53 5.192000e-55 -1.607226e-56 3.927103e-58 -9.799586e-60 1.983316e-61 -4.061022e-63 6.866920e-65 -1.162530e-66 1.641347e-68 -2.292884e-70 2.679530e-72 -3.060088e-74 2.917621e-76 -2.684018e-78 2.046928e-80 -1.484587e-82 1.020486e-84 3.622843e-84 9.219327e-83 2.219019e-81 5.266617e-80 1.147766e-78 2.477774e-77 4.729454e-76 9.062827e-75 1.469313e-73 2.464297e-72 3.325052e-71 4.886010e-70 5.424654e-69 7.056083e-68 6.370224e-67 7.410667e-66 5.318674e-65 
1.301096e-62 7.188058e-62 6.550115e-61 2.563624e-60 1.975429e-59 4.941583e-59 3.009994e-58 4.135222e-58 1.715641e-57 1.124767e-57 2.178647e-57 7.317266e-58 5.619546e-58 1.566683e-58 4.931819e-58 4.831298e-57 1.460383e-55 1.230518e-54 3.298753e-53 1.896324e-52 4.190121e-51 1.567575e-50 2.835266e-49 7.054305e-49 1.325691e-47 2.564234e-47 6.123322e-46 8.306797e-46 1.736669e-44 1.341902e-44 1.907527e-43 8.085757e-44 6.114947e-43 1.610386e-43 3.844530e-43 8.410357e-44 3.505466e-44 5.121625e-45 3.824521e-44 -8.928957e-43 1.755469e-41 -3.734326e-40 5.903220e-39 -1.054533e-37 1.231661e-36 -1.763243e-35 1.331140e-34 -1.466975e-33 5.653324e-33 -4.947902e-32 6.795717e-32 3.198586e-32 -1.353330e-29 -1.027430e-28 4.614743e-29 1.501482e-27 -1.377664e-26 9.431396e-26 3.317788e-25 -1.913811e-24 6.642768e-24 -1.768120e-23 4.116906e-23 -1.732029e-23 -2.107634e-24 -1.206033e-25 5.707409e-27 -3.708271e-27 1.508000e-27 -4.173173e-28 4.760015e-29 2.410363e-29 -3.162574e-30 2.791274e-31 7.761678e-33 -2.794908e-32 -3.466269e-33 1.644398e-35 1.340181e-35 -8.444849e-36 8.850029e-37 -2.052999e-37 1.589169e-38 -1.735207e-39 9.371916e-41 -5.871929e-42 2.150047e-43 -7.570233e-45 1.182652e-46 2.933539e-48 -3.764686e-49 2.259669e-50 -9.157194e-52 3.390149e-53 -9.950503e-55 2.770003e-56 -6.348390e-58 1.379398e-59 -2.507147e-61 4.296645e-63 -6.223396e-65 8.458012e-67 -9.803843e-69 1.062293e-70 -9.905188e-73 8.602063e-75 -6.482217e-77 4.521565e-79 -2.750346e-81 1.531239e-83 9.230188e-85 2.876602e-83 8.231516e-82 2.212068e-80 5.865528e-79 1.416188e-77 3.374236e-76 7.045128e-75 1.465722e-73 2.556119e-72 4.570049e-71 6.517631e-70 1.003767e-68 1.159666e-67 1.556866e-66 1.443887e-65 1.707515e-64 1.246341e-63 
2.949986e-61 1.641605e-60 1.470286e-59 5.771551e-59 4.282082e-58 1.070336e-57 6.141349e-57 8.345903e-57 3.188510e-56 2.012301e-56 3.453240e-56 1.054615e-56 7.115312e-57 1.938491e-57 9.729432e-57 1.159752e-55 2.921130e-54 2.816473e-53 6.004107e-52 4.021654e-51 6.888930e-50 3.075469e-49 4.305865e-48 1.387908e-47 1.988460e-46 5.678063e-46 9.013093e-45 1.836896e-44 2.411434e-43 2.694740e-43 2.511771e-42 1.374093e-42 7.729396e-42 2.104344e-42 4.657737e-42 8.879800e-43 3.670273e-43 6.709511e-44 -2.540858e-44 1.373148e-42 -3.253622e-41 8.158003e-40 -1.492445e-38 2.969940e-37 -3.944371e-36 5.971207e-35 -5.258694e-34 5.781420e-33 -3.024076e-32 2.526155e-31 -6.818652e-31 5.897947e-30 -4.987804e-30 -3.594210e-28 7.914595e-29 -1.651473e-26 -1.634982e-25 5.462102e-25 -2.006617e-24 4.196985e-24 -1.177124e-23 3.574852e-23 -1.180276e-22 5.002092e-23 4.995245e-24 6.108667e-25 3.703132e-26 1.021286e-26 -3.859566e-27 1.349557e-27 -5.597579e-28 1.236606e-28 -3.475965e-29 -3.280593e-30 2.482440e-32 -1.048135e-31 -2.175543e-34 1.275906e-33 -1.336204e-34 3.942165e-35 -4.774382e-36 8.588471e-37 -7.213211e-38 7.154961e-39 -3.927359e-40 2.346794e-41 -8.740542e-43 3.287043e-44 -7.780717e-46 1.454282e-47 5.895349e-51 -1.190441e-50 5.469880e-52 -1.875406e-53 4.725788e-55 -1.104117e-56 2.092357e-58 -3.779971e-60 5.749965e-62 -8.346072e-64 1.038584e-65 -1.222770e-67 1.243697e-69 -1.183182e-71 9.753978e-74 -7.438885e-76 4.919860e-78 -2.985808e-80 1.552068e-82 -5.599890e-85 6.588514e-84 2.147507e-82 6.931274e-81 2.103281e-79 6.246770e-78 1.686300e-76 4.444368e-75 1.020897e-73 2.308338e-72 4.338602e-71 8.267964e-70 1.245087e-68 2.008949e-67 2.409199e-66 3.337944e-65 3.171021e-64 3.813689e-63 2.823252e-62 
6.367397e-60 3.572899e-59 3.142334e-58 1.239400e-57 8.856135e-57 2.216727e-56 1.200488e-55 1.618268e-55 5.713224e-55 3.483209e-55 5.304464e-55 1.461463e-55 8.616560e-56 2.437648e-56 1.892795e-55 2.526773e-54 5.521985e-53 5.762560e-52 1.032989e-50 7.576591e-50 1.072874e-48 5.371523e-48 6.241630e-47 2.420214e-46 2.868514e-45 1.045912e-44 1.264683e-43 3.279198e-43 3.164229e-42 4.468503e-42 3.091019e-41 2.030898e-41 8.976825e-41 2.474688e-41 5.040806e-41 7.666881e-42 3.292804e-42 4.876917e-43 1.988884e-43 -1.030731e-42 3.259715e-41 -8.993059e-40 2.071632e-38 -4.262721e-37 7.029487e-36 -1.019583e-34 1.125218e-33 -1.068544e-32 8.431820e-32 -6.622982e-31 6.139505e-30 -4.878811e-29 2.604600e-28 -1.072476e-27 6.146442e-28 1.296310e-26 1.540188e-25 -2.866537e-25 2.531744e-25 2.527806e-25 6.605053e-25 -3.042589e-23 2.824569e-22 -1.292220e-22 -1.040640e-23 -2.028327e-24 -3.321232e-25 -5.931763e-26 3.941260e-27 -9.252441e-28 3.923300e-28 -1.558221e-28 4.132882e-29 4.321040e-30 -2.420425e-31 -3.393422e-31 9.208793e-32 -1.206891e-32 1.145087e-33 -2.389049e-35 6.058412e-36 -9.333849e-37 1.341546e-37 -1.227182e-38 7.887464e-40 -4.129404e-41 1.624288e-42 -5.389271e-44 1.357045e-45 -2.728094e-47 3.471636e-49 -6.715005e-52 -1.230938e-52 4.204073e-54 -9.609536e-56 1.688702e-57 -2.659732e-59 3.567654e-61 -4.724216e-63 5.423075e-65 -6.370308e-67 6.256493e-69 -6.375696e-71 4.950720e-73 -4.694713e-75 2.029230e-77 -3.649839e-79 -1.312317e-81 -5.403472e-83 4.758845e-85 3.913052e-83 1.425932e-81 5.305840e-80 1.824910e-78 6.182990e-77 1.874899e-75 5.539544e-74 1.403736e-72 3.476540e-71 7.041244e-70 1.435041e-68 2.277304e-67 3.853009e-66 4.785732e-65 6.839945e-64 6.647033e-63 8.120550e-62 6.096551e-61 
1.339501e-58 7.565195e-58 6.544245e-57 2.588847e-56 1.787826e-55 4.473560e-55 2.299250e-54 3.072556e-54 1.009345e-53 5.958194e-54 8.092388e-54 1.995103e-54 1.022850e-54 3.256516e-55 3.596999e-54 5.052099e-53 9.968936e-52 1.074191e-50 1.701463e-49 1.299629e-48 1.608519e-47 8.589162e-47 8.807238e-46 3.865409e-45 4.057580e-44 1.711971e-43 1.734296e-42 5.159963e-42 4.065632e-41 6.626433e-41 3.734652e-40 2.776860e-40 1.026328e-39 2.825642e-40 5.391865e-40 6.037871e-41 2.988102e-41 3.411101e-42 1.665302e-42 1.092353e-43 4.351252e-42 -1.425054e-40 3.593644e-39 -1.042108e-37 2.367039e-36 -6.391341e-35 1.297063e-33 -2.592721e-32 3.437003e-31 -4.010525e-30 2.811351e-29 -1.701699e-28 5.677419e-28 -2.190601e-27 5.130953e-27 1.678002e-26 -1.417713e-25 4.345226e-26 -9.523644e-26 1.273889e-24 1.357837e-23 -2.844121e-24 -5.683509e-22 2.630093e-22 1.881109e-23 4.334099e-24 1.062370e-24 2.339336e-25 3.219730e-26 1.772529e-27 -1.141951e-28 3.176245e-29 -9.846744e-29 1.244770e-29 3.159259e-30 -1.267587e-30 3.219526e-31 -8.890660e-32 1.383633e-32 -1.833138e-33 1.493373e-34 -1.061542e-35 5.147148e-37 -2.333792e-38 7.937656e-40 -2.712880e-41 7.263372e-43 -1.934433e-44 3.875246e-46 -7.165827e-48 9.698994e-50 -1.130257e-51 1.238018e-53 -1.456669e-55 3.227551e-57 -5.396303e-59 9.864914e-61 -1.358215e-62 1.425304e-64 -2.639140e-66 -1.652606e-68 -8.810435e-70 -2.401528e-71 -4.510757e-73 -1.245982e-74 -1.983699e-76 -4.539554e-78 -6.572031e-80 -1.252277e-81 -1.140629e-83 2.315614e-82 9.024031e-81 3.878895e-79 1.524616e-77 5.907117e-76 2.035262e-74 6.754476e-73 1.902400e-71 5.160185e-70 1.128690e-68 2.456153e-67 4.102246e-66 7.265308e-65 9.323916e-64 1.372835e-62 1.361450e-61 1.688351e-60 1.282791e-59 
2.708914e-57 1.540641e-56 1.310184e-55 5.204992e-55 3.476065e-54 8.712084e-54 4.258357e-53 5.660127e-53 1.736218e-52 9.985369e-53 1.214350e-52 2.661776e-53 1.181019e-53 4.630587e-54 6.502842e-53 9.387382e-52 1.691605e-50 1.853990e-49 2.639254e-48 2.064864e-47 2.282287e-46 1.278644e-45 1.187021e-44 5.761827e-44 5.489672e-43 2.572123e-42 2.262299e-41 7.411521e-41 4.967288e-40 8.990466e-40 4.282289e-39 3.499052e-39 1.106768e-38 2.982879e-39 5.373692e-39 3.445331e-40 2.557476e-40 1.612985e-41 1.532844e-41 1.435895e-42 9.028312e-42 -6.085291e-42 1.256916e-40 -5.012716e-39 1.672746e-37 -6.118043e-36 1.308341e-34 -2.307361e-33 1.342591e-32 -9.250901e-32 -2.243016e-30 4.283236e-30 -9.215738e-29 -1.157958e-28 3.666823e-27 -1.729058e-26 -1.380695e-25 -6.405570e-26 1.725376e-25 -7.345550e-24 -3.500288e-23 -5.371422e-24 1.207002e-21 -5.047367e-22 -3.440661e-23 -8.111993e-24 -2.181261e-24 -5.174632e-25 -1.078251e-25 -1.402563e-26 3.577173e-28 -9.778517e-30 -1.711107e-28 -1.377247e-29 2.428830e-30 -5.039232e-33 -6.066037e-32 3.219412e-33 -1.210173e-33 -2.427162e-35 4.335646e-36 -8.929811e-37 5.533804e-38 -2.954437e-39 1.073604e-40 -3.448928e-42 8.640383e-44 -1.910909e-45 3.217495e-47 -4.528700e-49 4.540494e-51 -3.698131e-53 6.945817e-56 -1.317984e-57 -3.102823e-58 -5.581436e-60 -5.417884e-61 -1.398405e-62 -7.263539e-64 -1.885695e-65 -7.036057e-67 -1.669627e-68 -4.906780e-70 -1.037788e-71 -2.506976e-73 -4.693534e-75 -9.562612e-77 -1.585279e-78 -2.775486e-80 -3.869166e-82 1.483376e-81 5.010038e-80 2.620792e-78 1.157404e-76 5.277027e-75 2.074450e-73 7.883536e-72 2.474818e-70 7.428024e-69 1.751364e-67 4.086473e-66 7.154762e-65 1.328124e-63 1.754923e-62 2.661377e-61 2.687710e-60 3.380221e-59 2.597426e-58 
5.370826e-56 3.072350e-55 2.570667e-54 1.024608e-53 6.634024e-53 1.664593e-52 7.770622e-52 1.028732e-51 2.962741e-51 1.670828e-51 1.830850e-51 3.561593e-52 1.361345e-52 6.956574e-53 1.122965e-51 1.625168e-50 2.728642e-49 2.979775e-48 3.906977e-47 3.065640e-46 3.112729e-45 1.791591e-44 1.554303e-43 8.099072e-43 7.228964e-42 3.609792e-41 2.874609e-40 9.980544e-40 5.958498e-39 1.156920e-38 4.865220e-38 4.270413e-38 1.194607e-37 3.175328e-38 5.436689e-38 1.103021e-39 2.384211e-39 3.207732e-41 1.609864e-40 1.608260e-41 1.942028e-40 -8.420849e-42 9.248934e-40 -2.361736e-38 1.791200e-37 -3.816034e-36 3.461005e-36 -9.276747e-35 -2.691258e-34 6.576979e-33 -3.225051e-31 4.949596e-30 4.405597e-29 6.778582e-28 1.436804e-27 6.880553e-27 -4.310114e-25 -2.605321e-25 5.795067e-24 3.074912e-23 1.003950e-22 -7.373453e-24 -2.506918e-21 9.696259e-22 6.173188e-23 1.540376e-23 4.633361e-24 1.180038e-24 3.395496e-25 6.521323e-26 1.206399e-26 -3.710412e-29 -5.104888e-28 7.880252e-30 8.009959e-31 4.135123e-31 2.704877e-32 2.957825e-33 -1.824515e-34 4.630865e-36 -1.824260e-37 -3.878876e-38 2.464585e-39 -1.781710e-40 6.006979e-42 -2.060800e-43 4.269000e-45 -8.637609e-47 9.913173e-49 -1.126185e-50 -1.959458e-52 -6.980228e-54 -1.244088e-54 -4.686778e-56 -3.886462e-57 -1.474847e-58 -8.037509e-60 -2.765723e-61 -1.134491e-62 -3.427820e-64 -1.127684e-65 -2.967058e-67 -8.102136e-69 -1.855913e-70 -4.294290e-72 -8.587090e-74 -1.707443e-75 -2.993814e-77 -5.174312e-79 -8.000027e-81 1.429582e-80 2.518767e-79 1.829107e-77 8.518579e-76 4.626048e-74 2.092188e-72 9.131871e-71 3.222793e-69 1.068736e-67 2.719220e-66 6.779596e-65 1.241475e-63 2.407321e-62 3.266748e-61 5.088729e-60 5.222757e-59 6.649105e-58 5.159624e-57 
1.032251e-54 5.938862e-54 4.888631e-53 1.956359e-52 1.229258e-51 3.092893e-51 1.382064e-50 1.828583e-50 4.962648e-50 2.766357e-50 2.750663e-50 4.751519e-51 1.565609e-51 1.067127e-51 1.831988e-50 2.643367e-49 4.148421e-48 4.499707e-47 5.468348e-46 4.288594e-45 4.038128e-44 2.379973e-43 1.951866e-42 1.081493e-41 9.117112e-41 4.782239e-40 3.497124e-39 1.270219e-38 6.878792e-38 1.412764e-37 5.348001e-37 4.977156e-37 1.253141e-36 3.258830e-37 5.373450e-37 -1.318368e-38 2.252920e-38 -8.475592e-40 1.641113e-39 2.734686e-40 3.178681e-39 -1.408391e-40 -3.149989e-40 5.867077e-37 -1.902997e-36 5.578003e-35 2.116523e-36 7.841253e-35 4.976563e-34 -6.111919e-33 -8.138419e-32 1.485291e-30 2.586352e-30 -9.033835e-29 -5.908827e-28 2.849939e-26 -7.831711e-25 -3.770504e-24 -2.597273e-23 -8.567620e-23 -3.033283e-22 -3.128373e-22 5.308094e-21 -1.769943e-21 -1.097853e-22 -2.716750e-23 -8.174800e-24 -2.105080e-24 -6.237061e-25 -1.394297e-25 -4.061233e-26 -6.131529e-27 -1.247200e-27 4.082574e-29 -1.024342e-30 -2.098627e-31 -1.314307e-33 3.977014e-34 -2.620494e-35 9.786448e-38 -2.078458e-38 -1.425568e-39 7.182657e-41 -6.886598e-42 1.848737e-43 -5.835989e-45 3.552923e-47 4.340723e-50 -5.333791e-49 -2.058551e-50 -3.748281e-51 -2.081045e-52 -1.724397e-53 -9.105130e-55 -5.179220e-56 -2.371995e-57 -1.045059e-58 -4.075441e-60 -1.467177e-61 -4.878840e-63 -1.476626e-64 -4.212049e-66 -1.089559e-67 -2.681958e-69 -5.990476e-71 -1.279145e-72 -2.485446e-74 -4.627786e-76 -7.875540e-78 -1.324019e-79 2.094840e-79 3.486285e-79 1.432326e-76 5.462059e-75 3.863621e-73 1.985146e-71 1.026921e-69 4.081345e-68 1.515537e-66 4.138561e-65 1.107848e-63 2.107724e-62 4.275100e-61 5.929007e-60 9.484899e-59 9.865179e-58 1.270353e-56 9.942600e-56 
1.954872e-53 1.130522e-52 9.155719e-52 3.677995e-51 2.246480e-50 5.670724e-50 2.433182e-49 3.226111e-49 8.285224e-49 4.606694e-49 4.188449e-49 6.495757e-50 1.849131e-50 1.624709e-50 2.841785e-49 4.040229e-48 6.000966e-47 6.400633e-46 7.318284e-45 5.681566e-44 5.047582e-43 3.016346e-42 2.381897e-41 1.379329e-40 1.117718e-39 6.044540e-39 4.157692e-38 1.556854e-37 7.852908e-37 1.686633e-36 5.897367e-36 5.809297e-36 1.342403e-35 3.544906e-36 5.568165e-36 -3.319368e-37 2.330194e-37 -1.775815e-38 1.836770e-38 6.720851e-39 5.337745e-38 1.283896e-38 3.324540e-37 -1.548556e-35 6.962228e-36 -7.701151e-34 -6.445499e-35 -1.143048e-33 -2.171311e-33 3.164775e-32 -3.799627e-32 6.304889e-31 3.025033e-30 -8.179503e-29 -5.632393e-28 9.805463e-27 7.397917e-25 5.330022e-24 4.531765e-23 1.738318e-22 8.329574e-22 2.217899e-21 -1.185510e-20 3.286504e-21 2.026640e-22 4.856226e-23 1.402143e-23 3.423790e-24 9.249631e-25 1.817750e-25 4.280214e-26 5.568634e-27 8.438374e-28 1.179688e-29 -8.882901e-31 -1.591734e-31 5.235355e-33 3.923652e-34 -9.743453e-36 -8.183272e-38 -3.110128e-39 -3.237400e-41 -5.508111e-42 7.341672e-43 -1.015542e-43 1.071890e-45 -1.029530e-45 -5.734559e-47 -8.492957e-48 -6.081258e-49 -5.013472e-50 -3.281866e-51 -2.002762e-52 -1.114796e-53 -5.469425e-55 -2.563481e-56 -1.048471e-57 -4.163141e-59 -1.448285e-60 -4.914535e-62 -1.471688e-63 -4.298928e-65 -1.115980e-66 -2.820779e-68 -6.375734e-70 -1.399968e-71 -2.764961e-73 -5.294486e-75 -9.173405e-77 -1.659332e-78 3.889641e-78 -2.396866e-77 1.650666e-75 2.907392e-74 3.358088e-72 1.881772e-70 1.169964e-68 5.270011e-67 2.185465e-65 6.388729e-64 1.825678e-62 3.594731e-61 7.586290e-60 1.072392e-58 1.754352e-57 1.846159e-56 2.397476e-55 1.890751e-54 
3.615104e-52 2.100148e-51 1.673920e-50 6.751633e-50 4.014051e-49 1.017727e-48 4.203760e-48 5.602413e-48 1.366761e-47 7.641933e-48 6.412991e-48 9.048498e-49 2.254951e-49 2.411555e-49 4.177000e-48 5.851535e-47 8.233664e-46 8.644009e-45 9.327453e-44 7.175795e-43 6.047871e-42 3.667663e-41 2.804810e-40 1.690494e-39 1.321438e-38 7.337304e-38 4.787096e-37 1.842305e-36 8.762094e-36 1.958994e-35 6.427027e-35 6.670174e-35 1.441043e-34 3.902563e-35 5.903391e-35 -5.204658e-36 2.457431e-36 -2.587681e-37 2.033600e-37 1.218214e-37 7.830694e-37 9.979275e-37 7.638171e-36 4.445936e-34 3.857232e-34 1.144712e-32 2.483815e-33 1.304539e-32 3.074095e-32 -1.897950e-31 1.375670e-31 1.614376e-32 2.837354e-30 -6.666565e-29 -3.890534e-28 -7.324347e-27 -5.732693e-25 -5.939084e-24 -3.471749e-23 -1.222085e-22 -1.410114e-21 -9.407040e-21 2.732181e-20 -6.090054e-21 -3.858549e-22 -8.750570e-23 -2.406771e-23 -5.516613e-24 -1.377675e-24 -2.480192e-25 -4.927228e-26 -4.186150e-27 -3.332417e-28 1.021233e-30 -1.034979e-31 -2.639292e-32 1.247769e-33 8.032833e-35 -1.956052e-36 -2.686112e-37 -9.575777e-39 -3.174997e-39 -1.419155e-40 -2.955935e-41 -1.648814e-42 -2.336088e-43 -1.434145e-44 -1.538498e-45 -9.297614e-47 -7.960291e-48 -4.430466e-49 -3.100135e-50 -1.538127e-51 -8.932292e-53 -3.900246e-54 -1.904727e-55 -7.294360e-57 -3.029305e-58 -1.017166e-59 -3.622015e-61 -1.066290e-62 -3.273274e-64 -8.445500e-66 -2.242783e-67 -5.070695e-69 -1.168063e-70 -2.315750e-72 -4.641138e-74 -8.083399e-76 -1.720051e-77 7.660038e-77 -7.983520e-76 2.683033e-74 -3.790726e-74 3.116008e-71 1.636855e-69 1.322999e-67 6.711972e-66 3.167049e-64 9.790342e-63 3.001576e-61 6.057933e-60 1.331481e-58 1.906962e-57 3.188848e-56 3.383489e-55 4.427936e-54 3.512491e-53 
6.616200e-51 3.861083e-50 3.026675e-49 1.226318e-48 7.102596e-48 1.811190e-47 7.216867e-47 9.702371e-47 2.255129e-46 1.280531e-46 9.994867e-47 1.317689e-47 2.915243e-48 3.439090e-48 5.844632e-47 8.018952e-46 1.078414e-44 1.109051e-43 1.141196e-42 8.664824e-42 7.009028e-41 4.292949e-40 3.214631e-39 1.996324e-38 1.522620e-37 8.618587e-37 5.419632e-36 2.137490e-35 9.754141e-35 2.273075e-34 7.117459e-34 7.875641e-34 1.610433e-33 4.757083e-34 6.756357e-34 -6.968228e-35 2.777819e-35 -3.460525e-36 2.389635e-36 2.246196e-36 1.182555e-35 -2.634588e-35 -1.830067e-34 -9.581585e-33 -1.325667e-32 -1.368026e-31 -5.499292e-32 -9.633552e-32 -3.814105e-31 9.304279e-31 -7.626771e-31 6.705027e-31 -3.365697e-30 1.457210e-28 1.314135e-27 -3.147520e-26 -3.611943e-25 -9.126372e-24 -2.611249e-22 -1.614254e-21 -2.169327e-21 3.745453e-20 -6.574060e-20 1.170963e-20 7.784290e-22 1.663481e-22 4.205451e-23 8.854981e-24 1.910971e-24 3.002432e-25 4.578912e-26 3.659978e-27 1.866390e-28 3.791486e-30 -1.038128e-31 -1.063209e-32 4.552155e-34 1.740742e-35 -7.718860e-37 -2.487869e-37 -1.652630e-38 -4.381905e-39 -3.091572e-40 -5.500803e-41 -3.974813e-42 -5.270048e-43 -3.725348e-44 -3.904146e-45 -2.574997e-46 -2.199112e-47 -1.308613e-48 -9.265889e-50 -4.882025e-51 -2.900944e-52 -1.341377e-53 -6.751667e-55 -2.729477e-56 -1.171918e-57 -4.135457e-59 -1.522262e-60 -4.685879e-62 -1.484332e-63 -3.985707e-65 -1.089834e-66 -2.554441e-68 -6.047114e-70 -1.239069e-71 -2.547784e-73 -4.570171e-75 -1.509739e-76 1.531732e-75 -2.000962e-74 5.260305e-73 -5.535450e-72 3.702158e-70 1.342517e-68 1.571749e-66 8.892697e-65 4.763431e-63 1.542442e-61 5.028731e-60 1.034845e-58 2.350671e-57 3.402586e-56 5.782053e-55 6.178883e-54 8.115846e-53 6.472846e-52 
1.190068e-49 6.968486e-49 5.376267e-48 2.187527e-47 1.236388e-46 3.173035e-46 1.223094e-45 1.662650e-45 3.696661e-45 2.146237e-45 1.573594e-45 1.986078e-46 3.999547e-47 4.713578e-47 7.797147e-46 1.049621e-44 1.350019e-43 1.363245e-42 1.340887e-41 1.007337e-40 7.853626e-40 4.867759e-39 3.581820e-38 2.288392e-37 1.708201e-36 9.858889e-36 6.019505e-35 2.434741e-34 1.078189e-33 2.617243e-33 7.948129e-33 9.369982e-33 1.853191e-32 6.066368e-33 8.221866e-33 -8.748839e-34 3.309261e-34 -4.468866e-35 2.808051e-35 3.491162e-35 2.188096e-34 3.223722e-33 1.557117e-32 2.053661e-31 3.162956e-31 1.753476e-30 9.921349e-31 6.909778e-31 3.845530e-30 -5.578371e-30 4.582847e-30 -4.219579e-30 -1.058263e-29 -2.846928e-28 -2.175631e-27 -1.012693e-25 9.113779e-25 8.763701e-23 2.206585e-21 1.221853e-20 3.776690e-20 -1.344250e-19 1.644669e-19 -2.295561e-20 -1.663379e-21 -3.295753e-22 -7.800060e-23 -1.497388e-23 -2.930960e-24 -4.077158e-25 -5.364161e-26 -3.459713e-27 -1.395739e-28 -8.437501e-31 -1.331031e-32 -2.019920e-33 7.659584e-36 -4.346025e-36 -6.567553e-37 -2.073501e-37 -2.040761e-38 -4.682101e-39 -4.287799e-40 -7.479137e-41 -6.326443e-42 -8.710330e-43 -6.723512e-44 -7.485777e-45 -5.184383e-46 -4.733204e-47 -2.897519e-48 -2.189860e-49 -1.173628e-50 -7.403578e-52 -3.457837e-53 -1.835124e-54 -7.459916e-56 -3.355408e-57 -1.187829e-58 -4.557849e-60 -1.406924e-61 -4.631200e-63 -1.248432e-64 -3.541808e-66 -8.351161e-68 -2.050046e-69 -4.235576e-71 -9.029541e-73 -1.628382e-74 -1.775929e-75 3.036799e-74 -4.610313e-73 1.078236e-71 -1.633742e-70 5.682105e-69 6.754049e-68 1.940465e-65 1.177054e-63 7.356239e-62 2.441769e-60 8.499445e-59 1.762520e-57 4.137843e-56 6.013294e-55 1.037591e-53 1.112373e-52 1.465459e-51 1.172453e-50 
2.126398e-48 1.250045e-47 9.478512e-47 3.877408e-46 2.138605e-45 5.535179e-45 2.066320e-44 2.852109e-44 6.076566e-44 3.641271e-44 2.523365e-44 3.157117e-45 5.893338e-46 6.157489e-46 9.931611e-45 1.307906e-43 1.619681e-42 1.603258e-41 1.519021e-40 1.128151e-39 8.546217e-39 5.348915e-38 3.892780e-37 2.545186e-36 1.874691e-35 1.102617e-34 6.613001e-34 2.753696e-33 1.198035e-32 3.056188e-32 9.108273e-32 1.166878e-31 2.250152e-31 8.684961e-32 1.100556e-31 -1.030511e-32 4.384791e-33 -6.258127e-34 3.389943e-34 4.190994e-34 -1.183498e-33 -7.616282e-32 -3.414088e-31 -2.952482e-30 -4.867944e-30 -1.769405e-29 -1.480893e-29 -3.840408e-30 -3.539307e-29 2.804953e-29 -3.026931e-29 1.433018e-29 2.345979e-29 9.804153e-28 1.259585e-26 -5.272084e-25 -2.353761e-23 -7.114999e-22 -1.054977e-20 -6.271109e-20 -2.476669e-19 4.875437e-19 -4.258523e-19 4.739821e-20 3.796944e-21 7.059168e-22 1.517475e-22 2.682275e-23 4.557473e-24 5.818765e-25 6.367609e-26 4.514281e-27 1.633554e-28 3.085840e-30 -5.448270e-32 -3.075296e-33 -2.871807e-35 -5.259877e-36 -3.986443e-37 -1.017830e-37 -1.073573e-38 -2.359708e-39 -2.376911e-40 -4.118351e-41 -3.744184e-42 -5.146886e-43 -4.165172e-44 -4.617354e-45 -3.292719e-46 -2.982073e-47 -1.859048e-48 -1.390275e-49 -7.545408e-51 -4.707886e-52 -2.223824e-53 -1.169841e-54 -4.821444e-56 -2.160431e-57 -7.799396e-59 -3.004965e-60 -9.541375e-62 -3.185920e-63 -8.927370e-65 -2.598822e-66 -6.440112e-68 -1.640794e-69 -3.598542e-71 -8.041899e-73 -1.374383e-74 -3.001626e-74 5.935492e-73 -9.987996e-72 2.221702e-70 -3.941654e-69 1.080032e-67 -5.916335e-67 2.688881e-64 1.653617e-62 1.201472e-60 4.024306e-59 1.475156e-57 3.066894e-56 7.364207e-55 1.072631e-53 1.865397e-52 2.005354e-51 2.636418e-50 2.116157e-49 
3.755560e-47 2.212804e-46 1.650869e-45 6.784085e-45 3.659127e-44 9.552084e-44 3.464228e-43 4.862575e-43 9.969429e-43 6.194626e-43 4.095327e-43 5.205344e-44 9.226348e-45 7.724330e-45 1.214539e-43 1.568195e-42 1.871800e-41 1.821113e-40 1.666492e-39 1.227071e-38 9.069065e-38 5.742371e-37 4.145243e-36 2.772616e-35 2.022691e-34 1.214516e-33 7.211324e-33 3.097122e-32 1.339665e-31 3.593136e-31 1.069409e-30 1.488122e-30 2.869518e-30 1.309812e-30 1.607587e-30 -1.064586e-31 6.764767e-32 -9.636591e-33 4.272513e-33 2.515397e-32 1.830862e-31 1.982031e-30 7.303909e-30 4.323323e-29 6.684889e-29 1.880424e-28 1.904223e-28 2.856951e-29 3.044930e-28 -1.608585e-28 2.363435e-28 -7.906948e-29 -8.688228e-29 -9.945031e-28 -3.628221e-27 5.390654e-25 8.381720e-23 2.842189e-21 4.926189e-20 2.366706e-19 1.317098e-18 -1.698815e-18 1.149840e-18 -1.010796e-19 -9.265016e-21 -1.587843e-21 -3.186631e-22 -5.105239e-23 -7.929773e-24 -8.986564e-25 -8.883775e-26 -5.400935e-27 -1.928430e-28 -2.317121e-30 -1.163827e-32 -7.375054e-34 -2.737895e-35 -3.079150e-36 -2.497370e-37 -4.860587e-38 -5.536966e-39 -1.108223e-39 -1.216990e-40 -2.056925e-41 -2.005895e-42 -2.774387e-43 -2.370607e-44 -2.690436e-45 -2.008351e-46 -1.885855e-47 -1.229104e-48 -9.642090e-50 -5.495414e-51 -3.639732e-52 -1.819834e-53 -1.028111e-54 -4.524513e-56 -2.198984e-57 -8.535082e-59 -3.589607e-60 -1.229042e-61 -4.487103e-63 -1.353367e-64 -4.293922e-66 -1.138341e-67 -3.138629e-69 -7.297432e-71 -1.749875e-72 -1.812671e-75 -5.813027e-73 1.141613e-71 -2.091380e-70 4.537579e-69 -8.971799e-68 2.227704e-66 -3.655257e-65 4.147965e-63 2.349238e-61 2.047537e-59 6.738418e-58 2.603154e-56 5.361899e-55 1.315170e-53 1.907176e-52 3.339093e-51 3.584396e-50 4.700037e-49 3.774525e-48 