# vtk DataFile Version 2.0
Comment goes here
ASCII

DATASET STRUCTURED_POINTS
DIMENSIONS    128   128   1

ORIGIN    0.000   0.000   0.000
SPACING   0.0156250.015625   1.000

POINT_DATA   16384
SCALARS Concentration double
LOOKUP_TABLE default

2.405512e-47 1.409962e-46 2.142097e-46 9.170108e-46 6.792081e-46 1.697343e-45 6.329925e-46 6.885154e-46 1.557409e-46 7.363438e-47 1.200517e-47 3.349346e-48 4.313870e-49 8.635374e-50 9.368885e-51 1.506451e-51 1.432369e-52 1.972390e-53 1.364436e-54 2.137851e-53 -6.600222e-53 3.800149e-51 -1.258790e-50 7.714410e-49 -2.149145e-48 1.020253e-46 -3.030694e-46 -7.182865e-45 -1.341635e-42 -1.021022e-40 -8.154214e-39 -4.198335e-37 -2.216717e-35 -7.601008e-34 -2.624218e-32 -5.922845e-31 -1.326996e-29 -1.944083e-28 -2.797366e-27 -2.631715e-26 -2.499545e-25 -1.739833e-24 -1.654518e-23 -1.497947e-22 -1.766347e-21 -1.372348e-20 -1.163414e-19 -5.731707e-19 -3.257280e-18 -9.777206e-18 -3.905378e-17 -6.212446e-17 -2.577631e-16 -5.077588e-16 6.868587e-16 -7.270094e-15 5.131896e-14 -3.337158e-13 1.964319e-12 -6.661064e-12 2.052247e-11 -3.876983e-11 6.264013e-11 -2.550610e-11 -1.144099e-11 5.515112e-13 9.743472e-14 -6.860021e-14 3.410373e-14 -1.084572e-14 3.157477e-15 -5.343540e-16 8.141330e-17 -1.066193e-17 3.460981e-18 6.757757e-18 4.174492e-18 9.871427e-19 6.068420e-19 1.503659e-19 5.049052e-20 9.211808e-21 1.997482e-21 2.600441e-22 3.707771e-23 3.172374e-24 2.457989e-25 4.938454e-27 -1.290938e-27 -2.140600e-28 -2.430525e-29 -1.636012e-30 -1.049163e-31 -4.353870e-33 -1.792959e-34 -4.830428e-36 -1.315932e-37 -2.333673e-39 -4.266877e-41 -5.025665e-43 -6.262440e-45 -4.964068e-47 -4.314132e-49 -2.351955e-51 -1.477498e-53 -5.730814e-56 -2.736181e-58 -7.991837e-61 -3.061009e-63 3.785074e-66 1.408723e-64 2.258413e-63 2.638471e-62 3.969411e-61 4.336655e-60 6.150266e-59 6.230858e-58 8.290977e-57 7.645193e-56 9.435732e-55 7.696175e-54 8.662868e-53 6.003940e-52 6.030620e-51 3.357599e-50 2.928990e-49 1.208671e-48 8.849372e-48 
9.626043e-49 5.880349e-48 8.467345e-48 3.855862e-47 2.691253e-47 7.253577e-47 2.581088e-47 3.013202e-47 6.691089e-48 3.366382e-48 5.510475e-49 1.635372e-49 2.150694e-50 4.587258e-51 5.151441e-52 8.841716e-53 8.840883e-54 -1.468177e-55 7.716609e-54 -2.724856e-52 1.456679e-51 -4.990559e-50 2.903923e-49 -9.429332e-48 4.493070e-47 -1.049673e-45 2.736499e-45 -2.512554e-44 -2.020209e-43 -1.323061e-41 -1.318631e-39 -8.360866e-38 -5.218164e-36 -2.078552e-34 -8.672527e-33 -2.211861e-31 -5.848189e-30 -9.415163e-29 -1.536964e-27 -1.554373e-26 -1.680168e-25 -1.403978e-24 -1.821561e-23 -2.005806e-22 -2.667969e-21 -2.133548e-20 -1.876967e-19 -9.298317e-19 -5.373350e-18 -1.623537e-17 -6.598792e-17 -1.088744e-16 -5.077503e-16 -6.119035e-16 -1.700378e-15 1.002747e-14 -9.849822e-14 7.104166e-13 -5.006341e-12 1.557660e-11 -4.634856e-11 8.730873e-11 -1.488686e-10 6.462023e-11 2.348121e-11 -4.415990e-14 -3.685110e-13 1.523730e-13 -7.166375e-14 2.388431e-14 -7.703671e-15 1.115420e-15 -1.525644e-16 1.719445e-17 3.049904e-18 1.354438e-17 9.003299e-18 1.874619e-18 1.078712e-18 2.545600e-19 8.238389e-20 1.431283e-20 2.985477e-21 3.644873e-22 5.009872e-23 4.057311e-24 3.299033e-25 1.136210e-26 -3.649605e-28 -1.100878e-28 -1.268880e-29 -7.674442e-31 -4.488334e-32 -1.573602e-33 -5.715215e-35 -1.276444e-36 -2.967887e-38 -4.591525e-40 -6.473958e-42 -8.856106e-44 -5.317975e-46 -1.258571e-47 5.401632e-51 -1.394085e-51 3.363375e-54 -9.096973e-56 1.766238e-58 -2.848649e-60 2.781629e-63 -3.648266e-65 1.099373e-65 1.648254e-64 1.797913e-63 2.563897e-62 2.631791e-61 3.577423e-60 3.423813e-59 4.410326e-58 3.860243e-57 4.656308e-56 3.619627e-55 4.020560e-54 2.664010e-53 2.668152e-52 1.422760e-51 1.252377e-50 4.949029e-50 3.709356e-49 
3.640073e-50 2.315151e-49 3.164129e-49 1.531060e-48 1.007908e-48 2.926577e-48 9.945618e-49 1.243945e-48 2.712923e-49 1.448955e-49 2.381324e-50 7.495775e-51 1.006440e-51 2.280091e-52 2.650343e-53 4.921427e-54 -2.077292e-56 2.008020e-53 -1.246745e-52 3.552973e-51 -2.373244e-50 6.367719e-49 -4.679681e-48 1.093837e-46 -6.210493e-46 9.794692e-45 -2.368838e-44 3.897386e-44 1.013472e-42 3.090113e-41 -1.489934e-39 7.215957e-38 -1.718002e-36 1.397022e-35 -1.917040e-33 -3.656511e-32 -1.552940e-30 -2.713501e-29 -5.333853e-28 -6.029865e-27 -7.302132e-26 -7.091500e-25 -1.114567e-23 -1.438700e-22 -2.135023e-21 -1.848633e-20 -1.721915e-19 -8.900473e-19 -5.263986e-18 -1.600603e-17 -6.412287e-17 -1.025728e-16 -4.546217e-16 -8.764267e-16 2.269497e-15 -1.866242e-14 1.741627e-13 -1.508251e-12 9.944631e-12 -2.943945e-11 8.047275e-11 -1.636607e-10 3.080965e-10 -1.488286e-10 -4.217929e-11 -2.581448e-12 7.435401e-13 -2.147691e-13 1.051545e-13 -4.178777e-14 1.467584e-14 -1.818225e-15 2.142098e-16 -2.257261e-17 1.152733e-17 1.452051e-17 1.166030e-17 2.292038e-18 1.234759e-18 2.751891e-19 8.427260e-20 1.367210e-20 2.628762e-21 2.930623e-22 3.630951e-23 2.649226e-24 1.937058e-25 6.060351e-27 -1.371945e-28 -4.203525e-29 -4.267706e-30 -2.117512e-31 -1.139421e-32 -2.240706e-34 -1.284258e-35 2.183376e-37 -1.286090e-38 6.590148e-40 -1.307704e-41 5.667510e-43 -7.641985e-45 2.212387e-46 -2.142150e-48 4.121730e-50 -2.808714e-52 3.641535e-54 -1.671632e-56 1.466815e-58 -4.169158e-61 2.462366e-63 -2.724663e-66 1.107769e-65 1.131918e-64 1.529146e-63 1.481198e-62 1.928901e-61 1.751238e-60 2.183069e-59 1.820854e-58 2.145973e-57 1.595623e-56 1.748435e-55 1.111144e-54 1.109165e-53 5.680612e-53 5.042363e-52 1.912764e-51 1.466388e-50 
1.268367e-51 8.443302e-51 1.089695e-50 5.635283e-50 3.480158e-50 1.095161e-49 3.537835e-50 4.765505e-50 1.016286e-50 5.788581e-51 9.510690e-52 3.189147e-52 4.353561e-53 1.052145e-53 1.292376e-54 -9.306888e-55 9.170354e-54 -2.662612e-52 1.858899e-51 -4.440913e-50 3.416031e-49 -7.716661e-48 6.340156e-47 -1.175471e-45 6.939545e-45 -7.932563e-44 1.069833e-43 1.568005e-42 -6.791663e-42 -8.547296e-40 3.038268e-38 -1.179283e-36 1.969128e-35 -5.426428e-34 5.440991e-33 -1.195302e-31 4.574011e-31 -1.540986e-29 -7.674226e-29 -1.786737e-27 -1.740839e-26 -1.698173e-25 -2.586533e-24 -3.770941e-23 -7.013253e-22 -6.961700e-21 -7.301080e-20 -3.934086e-19 -2.091087e-18 -5.412917e-18 -3.053429e-18 3.812161e-17 7.645622e-16 1.813693e-15 -1.002207e-15 3.554962e-15 -6.365374e-14 1.764572e-12 -1.800460e-11 4.064316e-11 -1.043702e-10 2.359711e-10 -5.727935e-10 2.987184e-10 6.871835e-11 9.022021e-12 -4.795031e-13 1.287911e-13 -1.346889e-13 7.126035e-14 -2.938516e-14 6.999987e-15 -3.101171e-16 -1.313696e-17 1.174262e-17 -3.520412e-18 1.054876e-18 1.111283e-18 5.852240e-19 1.497123e-19 4.282142e-20 6.637445e-21 1.134116e-21 1.064597e-22 1.107040e-23 6.348328e-25 3.725031e-26 4.715989e-28 -8.761551e-29 -1.287379e-29 -6.267829e-31 -1.234670e-31 4.568992e-33 -1.128830e-33 5.329793e-35 -5.327410e-36 1.898320e-37 -1.131013e-38 2.909097e-40 -1.116544e-41 2.058928e-43 -5.275979e-45 6.926677e-47 -1.206870e-48 1.113597e-50 -1.325745e-52 8.390070e-55 -6.758375e-57 2.797922e-59 -1.477600e-61 3.617682e-64 -4.778003e-67 6.552522e-66 8.428942e-65 7.667598e-64 9.611217e-63 8.241556e-62 9.985722e-61 7.904640e-60 9.140165e-59 6.475177e-58 7.028147e-57 4.267403e-56 4.263309e-55 2.088921e-54 1.878024e-53 6.810430e-53 5.365862e-52 
4.159350e-53 2.896559e-52 3.533269e-52 1.951499e-51 1.131033e-51 3.854616e-51 1.184268e-51 1.715547e-51 3.584082e-52 2.166560e-52 3.588359e-53 1.248239e-53 1.749112e-54 4.691175e-55 -3.276692e-55 1.660901e-53 -1.219716e-52 3.341140e-51 -2.417594e-50 5.233519e-49 -4.375910e-48 8.663412e-47 -7.442296e-46 1.140908e-44 -6.437466e-44 5.161711e-43 7.078964e-43 -2.970181e-41 -4.885350e-41 1.417817e-38 -4.627137e-37 1.416583e-35 -2.561462e-34 5.477482e-33 -6.497146e-32 9.947044e-31 -7.480150e-30 8.267892e-29 -3.768991e-28 2.840249e-27 -9.219365e-27 1.539145e-26 -3.159402e-25 -3.359635e-24 -3.334288e-23 -1.164369e-22 9.582123e-21 1.086652e-19 1.751118e-18 9.402231e-18 8.889014e-17 3.262616e-16 3.299692e-15 5.716224e-15 -2.654926e-15 5.925700e-14 4.590059e-13 -4.985487e-12 1.848974e-11 -1.717675e-11 5.476298e-11 -2.008087e-10 9.142880e-10 -5.532510e-10 -1.010872e-10 -2.196848e-11 -2.355477e-12 -1.259672e-13 3.088380e-13 -1.786131e-13 4.673622e-14 1.101377e-14 -1.835874e-15 -1.230292e-16 1.062640e-17 -5.459869e-17 -2.952888e-17 -2.706802e-18 -7.808246e-19 -8.136267e-20 -1.704632e-20 -1.047887e-21 -1.070121e-22 2.479726e-24 5.341887e-25 5.189847e-26 2.410731e-27 -2.172999e-28 -2.835891e-29 1.077628e-29 -2.382826e-30 7.115950e-31 -7.161935e-32 1.068965e-32 -7.061404e-34 6.131093e-35 -2.792333e-36 1.536952e-37 -4.914213e-39 1.796142e-40 -4.063630e-42 1.011759e-43 -1.621281e-45 2.783084e-47 -3.139003e-49 3.716913e-51 -2.902384e-53 2.339862e-55 -1.222510e-57 6.483899e-60 -2.112991e-62 6.830126e-65 2.318528e-67 4.280789e-66 3.669072e-65 4.428196e-64 3.597612e-63 4.238432e-62 3.193575e-61 3.624605e-60 2.453109e-59 2.638422e-58 1.534295e-57 1.534478e-56 7.207959e-56 6.563796e-55 2.279439e-54 1.845367e-53 
1.263945e-54 9.209018e-54 1.073688e-53 6.284715e-53 3.650849e-53 1.282954e-52 5.596545e-53 6.776764e-53 6.346011e-53 2.627941e-53 2.920767e-53 1.000244e-53 4.166745e-54 4.129832e-55 1.091837e-53 -2.284225e-52 1.919632e-51 -4.055923e-50 3.051149e-49 -5.908397e-48 5.148463e-47 -9.132818e-46 7.756399e-45 -1.004281e-43 4.870137e-43 -2.076175e-42 -2.461358e-41 3.731541e-40 1.716765e-39 -1.747737e-37 5.229142e-36 -1.381647e-34 2.464226e-33 -4.543960e-32 5.482781e-31 -7.192879e-30 5.792582e-29 -5.499089e-28 2.842200e-27 -2.006986e-26 5.698376e-26 -3.201167e-25 3.512691e-25 -3.139666e-24 -1.901863e-24 -6.253814e-23 4.016603e-21 3.069750e-20 1.222179e-18 6.497397e-18 8.852301e-17 4.013993e-16 5.883115e-15 1.108140e-14 3.365649e-15 -1.891506e-13 -7.675071e-13 8.074200e-14 1.574297e-11 -3.547515e-11 6.277803e-11 -4.456907e-11 -1.263681e-09 8.860460e-10 1.377425e-10 3.946034e-11 1.015495e-11 1.784714e-12 -9.009676e-13 4.050141e-13 -2.734924e-13 5.306789e-14 -3.941618e-15 -3.053839e-16 -8.059208e-18 -1.279068e-16 -6.311356e-17 -4.395101e-18 -1.100547e-18 -8.328563e-20 -1.620305e-20 -4.078443e-22 -5.474924e-23 9.421593e-25 2.737452e-26 4.684589e-26 -4.564196e-27 2.224344e-27 -1.618547e-28 -3.280163e-29 1.446170e-29 -4.867368e-30 6.163960e-31 -8.999388e-32 7.032127e-33 -6.035583e-34 3.178095e-35 -1.761505e-36 6.449040e-38 -2.411591e-39 6.225041e-41 -1.606137e-42 2.937087e-44 -5.280004e-46 6.820036e-48 -8.536400e-50 7.693337e-52 -6.618720e-54 4.051829e-56 -2.321272e-58 9.143323e-61 -3.258004e-63 7.353241e-66 1.864154e-67 1.611052e-66 1.880134e-65 1.442455e-64 1.658753e-63 1.186226e-62 1.326069e-61 8.552248e-61 9.143349e-60 5.081111e-59 5.101681e-58 2.293362e-57 2.120705e-56 7.045945e-56 5.872607e-55 
2.659508e-55 7.762150e-55 5.387159e-54 8.884056e-54 6.960036e-53 5.418373e-53 4.686616e-52 1.546654e-52 1.116087e-51 1.681648e-52 4.805108e-52 3.087314e-53 3.691752e-53 1.056345e-53 1.432167e-53 2.808392e-51 -1.561599e-50 4.545442e-49 -3.234205e-48 6.224168e-47 -5.457282e-46 8.798899e-45 -7.140003e-44 7.741702e-43 -2.682747e-42 -7.359676e-42 3.820285e-40 -4.096198e-39 -1.760519e-38 1.495155e-36 -4.313250e-35 9.981398e-34 -1.747770e-32 2.820420e-31 -3.423004e-30 3.958769e-29 -3.391356e-28 2.922767e-27 -1.781072e-26 1.179585e-25 -4.462585e-25 2.221267e-24 -4.356802e-24 2.755764e-23 -2.727369e-23 -9.936952e-23 2.375049e-20 -8.227943e-20 1.227843e-18 -3.770612e-18 -1.182911e-19 -3.180024e-16 5.613791e-15 2.163956e-14 3.976422e-14 -1.500151e-13 -1.370389e-12 2.737328e-12 -1.559329e-11 1.662307e-11 -5.401919e-11 5.741547e-10 1.517835e-09 -1.335613e-09 -1.782357e-10 -6.392393e-11 -2.360550e-11 -7.906735e-12 1.248502e-13 -3.943785e-14 9.116365e-14 -4.409993e-14 2.462842e-14 2.884707e-15 -8.691426e-17 -2.600185e-16 -5.965128e-17 2.766593e-18 -2.077841e-19 4.244124e-20 -1.566927e-20 1.076181e-21 -3.174022e-22 9.107199e-25 4.729070e-25 -4.573117e-25 6.703933e-26 -2.480708e-26 3.178595e-27 -1.937505e-28 -6.039378e-29 2.793062e-29 -4.347782e-30 6.358541e-31 -5.677357e-32 4.851433e-33 -2.878130e-34 1.605618e-35 -6.603426e-37 2.512404e-38 -7.290586e-40 1.930666e-41 -3.979031e-43 7.391864e-45 -1.080457e-46 1.405179e-48 -1.442029e-50 1.295518e-52 -9.123422e-55 5.491087e-57 -2.535653e-59 9.593036e-62 -2.642347e-64 5.499515e-67 5.635242e-68 6.679863e-67 5.962478e-66 6.593742e-65 6.079916e-64 6.009058e-63 5.439218e-62 4.625578e-61 3.944134e-60 2.803879e-59 2.198710e-58 1.259479e-57 9.051263e-57 3.918577e-56 
8.541699e-54 2.289471e-53 1.839109e-52 3.189104e-52 2.414225e-51 2.358978e-51 1.607548e-50 7.968641e-51 3.834167e-50 1.154307e-50 1.810009e-50 4.515956e-51 1.982889e-51 2.381762e-52 4.947168e-51 -3.941263e-50 4.008563e-49 -5.206453e-48 3.888484e-47 -6.326252e-46 5.417478e-45 -7.928955e-44 5.840556e-43 -5.112627e-42 4.059979e-42 2.930109e-40 -4.649651e-39 4.258769e-38 6.827490e-38 -9.327698e-36 2.594607e-34 -5.425358e-33 8.907881e-32 -1.288334e-30 1.495013e-29 -1.580483e-28 1.406860e-27 -1.207472e-26 8.873149e-26 -6.308451e-25 3.076622e-24 -1.512566e-23 3.192580e-23 -2.367530e-22 3.251053e-21 -2.627815e-20 2.568132e-19 -1.048610e-18 6.571394e-18 -1.722437e-17 1.017003e-16 -5.123215e-16 6.081837e-15 4.457724e-14 -1.411194e-13 -2.829474e-13 -2.755874e-13 -3.258781e-12 7.360142e-12 -1.695608e-11 -3.169436e-10 -9.286301e-10 -1.779428e-09 1.744458e-09 2.194641e-10 8.409325e-11 3.737645e-11 1.489273e-11 5.284128e-12 4.854912e-13 -1.192465e-13 4.411538e-14 -1.152083e-14 2.036401e-15 1.381685e-15 -3.778050e-16 -5.880022e-17 5.162124e-18 -1.176619e-18 2.038082e-19 -8.268011e-20 1.335308e-20 -3.346057e-21 3.557158e-22 -4.580925e-23 3.837490e-24 -5.321632e-25 2.049262e-25 -3.276864e-26 3.149332e-27 1.631235e-28 -1.504521e-28 2.680227e-29 -3.996834e-30 3.846489e-31 -3.344201e-32 2.131548e-33 -1.225678e-34 5.434157e-36 -2.157384e-37 6.779797e-39 -1.892821e-40 4.245440e-42 -8.388812e-44 1.341668e-45 -1.871557e-47 2.115627e-49 -2.057447e-51 1.611336e-53 -1.062844e-55 5.546165e-58 -2.348498e-60 7.551456e-63 -1.817905e-65 7.273273e-67 7.938451e-66 9.812508e-65 1.009217e-63 1.226212e-62 1.088893e-61 1.248995e-60 9.318470e-60 9.923958e-59 6.078730e-58 5.988419e-57 2.927475e-56 2.675466e-55 1.000946e-54 
2.267833e-52 5.810038e-52 4.838251e-51 7.970877e-51 6.216437e-50 5.700639e-50 4.011552e-49 1.793993e-49 9.230871e-49 2.233424e-49 4.165727e-49 6.798961e-50 3.707113e-50 6.291150e-51 8.417446e-50 3.313088e-49 1.806816e-48 4.846848e-47 -2.563237e-46 5.908685e-45 -4.729453e-44 6.469815e-43 -4.077289e-42 2.514851e-41 1.524509e-40 -4.258434e-39 4.937032e-38 -4.255421e-37 8.944878e-37 3.049921e-35 -9.634038e-34 1.772494e-32 -2.641951e-31 3.085733e-30 -3.123584e-29 2.562895e-28 -2.565716e-27 2.473687e-26 -3.042564e-25 2.740228e-24 -2.024424e-23 1.056651e-22 -5.419416e-23 -1.970303e-21 3.826208e-20 -1.930376e-19 1.306145e-18 -3.916908e-18 1.840033e-17 -3.631912e-17 1.620367e-16 2.215497e-16 4.916905e-15 1.114297e-14 1.278334e-13 -5.034269e-13 -3.079994e-12 3.625140e-13 4.128575e-12 9.502845e-11 3.922575e-10 1.224698e-09 2.488042e-09 -2.241320e-09 -2.722887e-10 -1.055420e-10 -4.736344e-11 -1.909482e-11 -7.596114e-12 -1.928390e-12 -1.604819e-13 -3.023063e-15 3.305990e-14 5.493668e-15 -1.260217e-15 -1.773974e-16 -5.855089e-17 -2.802680e-18 -2.045404e-18 4.648030e-19 -2.376492e-19 5.008239e-20 -1.678693e-20 2.492488e-21 -5.015281e-22 2.445958e-23 1.215202e-24 -1.504150e-24 2.555807e-25 -1.905161e-26 -1.188097e-27 8.939443e-28 -1.591228e-28 2.231493e-29 -2.222754e-30 1.883731e-31 -1.265188e-32 7.252649e-34 -3.428972e-35 1.377564e-36 -4.656222e-38 1.328891e-39 -3.226778e-41 6.563066e-43 -1.142471e-44 1.648086e-46 -2.037907e-48 2.056026e-50 -1.771540e-52 1.215355e-54 -7.037042e-57 3.109831e-59 -1.127829e-61 2.866993e-64 5.511186e-66 7.820831e-65 1.597825e-63 1.633979e-62 2.558608e-61 2.193265e-60 2.935789e-59 2.101869e-58 2.487241e-57 1.461906e-56 1.555817e-55 7.301015e-55 7.076784e-54 2.538867e-53 
6.558075e-51 1.813794e-50 1.376549e-49 2.480667e-49 1.737871e-48 1.788366e-48 1.105393e-47 5.806239e-48 2.547437e-47 7.722837e-48 1.219262e-47 2.718023e-48 1.223666e-48 1.847604e-49 2.640304e-48 -7.192876e-48 1.343313e-46 -6.530754e-46 5.413896e-45 -5.564509e-44 4.120205e-43 -4.890419e-42 2.274887e-41 -3.256890e-41 -2.930604e-39 4.911665e-38 -4.793065e-37 3.952313e-36 -1.719387e-35 1.830090e-35 1.548211e-33 -2.153721e-32 1.052508e-31 3.437033e-30 -9.722261e-29 1.632425e-27 -1.660932e-26 1.296768e-25 -2.057116e-25 -4.958708e-24 1.137848e-22 -1.034869e-21 8.651979e-21 -4.906042e-20 2.687922e-19 -1.070685e-18 4.173908e-18 -1.220206e-17 3.608737e-17 -9.870288e-17 3.304764e-16 -1.320612e-15 7.254960e-15 -2.741516e-14 -4.057622e-14 6.710846e-14 -4.190351e-12 -4.877693e-12 -1.001560e-11 -2.144169e-10 -7.633638e-10 -1.737106e-09 -3.203732e-09 2.886843e-09 3.338655e-10 1.345753e-10 6.550135e-11 2.820434e-11 1.455270e-11 4.814144e-12 2.736986e-14 1.194865e-13 3.380840e-14 -5.756437e-16 1.600133e-16 2.625496e-16 -6.580309e-17 1.354029e-17 -3.839162e-18 1.249677e-18 -4.812194e-19 1.603464e-19 -5.444246e-20 1.395314e-20 -3.537022e-21 6.616667e-22 -1.197804e-22 1.454070e-23 -1.506041e-24 2.484382e-27 2.263519e-26 -6.204542e-27 9.368025e-28 -1.155638e-28 1.114458e-29 -9.088570e-31 6.153929e-32 -3.529224e-33 1.718389e-34 -7.065395e-36 2.493444e-37 -7.396473e-39 1.894107e-40 -4.051221e-42 7.498925e-44 -1.148948e-45 1.522488e-47 -1.647640e-49 1.534753e-51 -1.143021e-53 7.241710e-56 -3.537843e-58 1.433208e-60 -4.146956e-63 3.970085e-64 4.579595e-63 6.396725e-62 6.675632e-61 8.681054e-60 7.791317e-59 9.262618e-58 7.006658e-57 7.568977e-56 4.723235e-55 4.636617e-54 2.319750e-53 2.076808e-52 7.983714e-52 
1.626131e-49 4.471127e-49 3.379345e-48 6.089864e-48 4.208804e-47 4.364508e-47 2.643692e-46 1.396443e-46 6.085333e-46 1.777736e-46 3.010303e-46 5.924839e-47 2.950249e-47 4.831709e-48 5.315588e-47 1.149750e-47 2.307038e-45 2.449488e-45 3.185034e-44 4.304491e-43 -2.369361e-42 3.232839e-41 -6.018249e-41 -1.277917e-39 3.725976e-38 -4.919475e-37 4.328577e-36 -3.417699e-35 1.864822e-34 -1.181591e-33 7.032478e-33 -1.204730e-31 2.913773e-30 -6.128867e-29 1.078815e-27 -1.498526e-26 1.804584e-25 -1.770523e-24 1.529053e-23 -1.103068e-22 7.021038e-22 -3.843991e-21 1.823418e-20 -7.718090e-20 2.600335e-19 -8.123817e-19 1.194276e-18 -3.289554e-19 -2.885926e-17 1.270849e-16 -7.186595e-16 1.918588e-15 -7.142983e-15 6.097464e-15 2.143526e-13 1.395647e-12 -6.260720e-12 -3.664583e-12 1.393738e-10 2.210063e-10 7.161977e-10 2.060485e-09 4.650206e-09 -3.561674e-09 -4.048267e-10 -1.603248e-10 -7.506222e-11 -3.256779e-11 -1.673532e-11 -7.300702e-12 -3.461286e-12 1.247218e-13 2.938707e-14 -7.032948e-15 -1.045012e-15 -9.846033e-17 7.509425e-17 -1.954343e-17 7.298182e-18 -1.205681e-18 2.510390e-19 2.788861e-20 -1.987537e-20 1.083528e-20 -3.289166e-21 9.690166e-22 -2.320969e-22 5.181141e-23 -1.019956e-23 1.787724e-24 -2.808531e-25 3.777068e-26 -4.554481e-27 4.590671e-28 -4.150094e-29 3.098363e-30 -2.078126e-31 1.143409e-32 -5.663092e-34 2.289039e-35 -8.342827e-37 2.467436e-38 -6.587895e-40 1.416582e-41 -2.750820e-43 4.256101e-45 -5.940966e-47 6.502781e-49 -6.399441e-51 4.816775e-53 -3.233230e-55 1.591807e-57 -6.864341e-60 2.041880e-62 7.215648e-63 8.694703e-62 1.405305e-60 1.446123e-59 2.042300e-58 1.797772e-57 2.251846e-56 1.672171e-55 1.870747e-54 1.148975e-53 1.154431e-52 5.701513e-52 5.174850e-51 1.969975e-50 
4.104873e-48 1.176916e-47 8.410364e-47 1.600055e-46 1.033825e-45 1.155789e-45 6.448448e-45 3.778817e-45 1.500285e-44 4.977389e-45 7.921078e-45 1.777141e-45 8.428352e-46 1.451034e-46 1.110555e-45 -1.207577e-45 5.430710e-44 -1.130348e-43 1.540319e-42 -4.924702e-42 3.081835e-41 -1.858915e-40 -6.919876e-40 2.377325e-38 -4.108015e-37 4.668245e-36 -3.791029e-35 2.894833e-34 -1.708103e-33 1.175871e-32 -6.391365e-32 5.695133e-31 -8.224673e-30 1.479221e-28 -2.450043e-27 3.268891e-26 -3.905046e-25 3.778043e-24 -3.328895e-23 2.401151e-22 -1.604560e-21 8.864720e-21 -4.618309e-20 1.994285e-19 -8.192598e-19 2.731067e-18 -8.489257e-18 1.996052e-17 -3.705163e-17 3.286169e-17 1.347639e-16 -4.017892e-16 3.436671e-16 1.267067e-14 5.100314e-14 8.963622e-13 -1.198815e-11 -3.034830e-11 -2.281338e-11 5.925165e-11 -2.893648e-10 -2.046030e-09 -6.966713e-09 4.426341e-09 5.016208e-10 1.912036e-10 8.667465e-11 3.579326e-11 1.747839e-11 7.341261e-12 4.060186e-12 8.170904e-13 6.796167e-14 -5.513492e-16 -1.026598e-15 -4.694462e-17 -3.372450e-17 7.548150e-18 -2.023520e-18 -4.466768e-19 5.038269e-19 -2.625483e-19 1.094556e-19 -3.478403e-20 1.039417e-20 -2.570589e-21 6.131629e-22 -1.245085e-22 2.421858e-23 -3.986691e-24 6.160450e-25 -7.934402e-26 9.437139e-27 -9.264008e-28 8.323727e-29 -6.145115e-30 4.134468e-31 -2.280126e-32 1.143357e-33 -4.687619e-35 1.744840e-36 -5.289774e-38 1.454016e-39 -3.235846e-41 6.518205e-43 -1.053441e-44 1.536889e-46 -1.774190e-48 1.839864e-50 -1.477222e-52 1.055562e-54 -5.631647e-57 2.624677e-59 -6.958058e-62 2.454265e-61 2.897889e-60 4.178407e-59 4.343062e-58 5.707587e-57 5.119124e-56 6.078042e-55 4.619472e-54 4.938314e-53 3.114732e-52 2.997579e-51 1.525663e-50 1.324643e-49 5.220723e-49 
9.546941e-47 2.745512e-46 1.933520e-45 3.729925e-45 2.352873e-44 2.708495e-44 1.463281e-43 8.934450e-44 3.457435e-43 1.179465e-43 1.952119e-43 4.281198e-44 2.201102e-44 3.793128e-45 2.002602e-44 2.246944e-45 9.941443e-43 -6.960652e-43 2.878956e-41 1.507146e-42 3.192037e-40 6.421629e-40 1.816986e-38 -2.947491e-37 4.115545e-36 -4.176670e-35 3.239335e-34 -2.480344e-33 1.604293e-32 -1.133475e-31 5.335056e-31 -2.672799e-30 1.175526e-29 -1.379947e-28 2.203564e-27 -2.972081e-26 3.760328e-25 -3.701295e-24 3.468827e-23 -2.531093e-22 1.793937e-21 -9.879898e-21 5.424954e-20 -2.296068e-19 9.980231e-19 -3.252241e-18 1.115910e-17 -2.686134e-17 6.876763e-17 -1.088081e-16 1.697070e-16 -1.244735e-16 -1.656739e-16 3.552591e-15 8.925744e-14 9.012188e-13 -7.457976e-12 -4.489273e-11 -2.538923e-10 -5.167804e-10 -7.044382e-10 1.244062e-09 1.039736e-08 -5.384781e-09 -6.194477e-10 -2.233389e-10 -9.454379e-11 -3.692719e-11 -1.664300e-11 -6.789137e-12 -3.653053e-12 -1.249846e-12 -2.963699e-13 2.955841e-14 1.908021e-15 2.238688e-16 -3.555362e-17 5.191964e-18 -3.087393e-18 1.583291e-18 -9.353495e-19 3.544996e-19 -1.450245e-19 4.229943e-20 -1.313342e-20 3.119652e-21 -7.712239e-22 1.500069e-22 -2.944358e-23 4.563718e-24 -6.942443e-25 8.330667e-26 -9.629255e-27 8.783864e-28 -7.631261e-29 5.238043e-30 -3.399996e-31 1.743707e-32 -8.416092e-34 3.202965e-35 -1.143077e-36 3.201380e-38 -8.382714e-40 1.708485e-41 -3.245954e-43 4.738972e-45 -6.425396e-47 6.563809e-49 -6.189164e-51 4.261269e-53 -2.676322e-55 1.163110e-57 -4.465209e-60 3.478850e-61 5.707114e-60 6.625376e-59 1.000753e-57 1.018344e-56 1.376279e-55 1.210283e-54 1.462813e-53 1.093365e-52 1.181659e-51 7.355887e-51 7.115892e-50 3.589063e-49 3.114590e-48 1.222570e-47 
2.211671e-45 6.542204e-45 4.411499e-44 8.873811e-44 5.307423e-43 6.507196e-43 3.294121e-42 2.197245e-42 7.924136e-42 3.001100e-42 4.824628e-42 1.152127e-42 5.976837e-43 1.076821e-43 3.397714e-43 2.090779e-44 1.733312e-41 -2.407223e-41 6.047002e-40 -1.077825e-39 1.063296e-38 -3.032536e-39 -1.922776e-37 3.270100e-36 -4.031085e-35 3.731357e-34 -2.861318e-33 2.321059e-32 -1.657840e-31 1.172197e-30 -5.039434e-30 2.067936e-29 -3.804184e-29 9.475921e-29 -8.707438e-28 1.307636e-26 -1.820822e-25 1.907391e-24 -1.899876e-23 1.461142e-22 -1.091348e-21 6.244352e-21 -3.565875e-20 1.539497e-19 -6.867585e-19 2.250535e-18 -7.933156e-18 1.935538e-17 -5.310992e-17 9.062510e-17 -1.826206e-16 1.850902e-16 -4.158594e-17 -1.386193e-15 -1.051812e-14 -6.083668e-13 1.044166e-11 9.763184e-11 4.493631e-10 1.059175e-09 2.411341e-09 1.869176e-09 -1.580168e-08 6.602846e-09 7.895551e-10 2.618579e-10 1.008461e-10 3.502205e-11 1.332463e-11 4.321639e-12 1.740031e-12 5.700974e-13 8.300097e-14 -4.102726e-15 7.770123e-17 -7.162981e-17 2.371211e-17 -5.258257e-18 3.142473e-18 -1.315970e-18 7.237962e-19 -2.576657e-19 1.050796e-19 -3.019342e-20 9.462253e-21 -2.216232e-21 5.435546e-22 -1.023005e-22 1.943946e-23 -2.866528e-24 4.153617e-25 -4.705957e-26 5.147563e-27 -4.432159e-28 3.644057e-29 -2.371653e-30 1.464107e-31 -7.185391e-33 3.332742e-34 -1.232591e-35 4.302509e-37 -1.199474e-38 3.156119e-40 -6.627219e-42 1.313117e-43 -2.064864e-45 3.055910e-47 -3.541610e-49 3.837444e-51 -3.177080e-53 2.431109e-55 -1.364153e-57 7.759831e-60 1.041218e-59 1.630700e-58 1.881106e-57 2.692904e-56 2.742140e-55 3.557376e-54 3.143170e-53 3.670094e-52 2.764709e-51 2.894751e-50 1.821685e-49 1.707914e-48 8.740791e-48 7.339013e-47 2.938585e-46 
4.894590e-44 1.453800e-43 9.621041e-43 1.969755e-42 1.146439e-41 1.458147e-41 7.126252e-41 5.023109e-41 1.753634e-40 7.041244e-41 1.158466e-40 2.820970e-41 1.585564e-41 2.831237e-42 5.482974e-42 5.079487e-42 2.762913e-40 -2.054343e-40 1.121697e-38 -1.750138e-38 2.968838e-37 -3.506863e-37 5.494926e-36 -3.250558e-35 3.768727e-34 -3.187342e-33 2.666336e-32 -2.452034e-31 1.840527e-30 -1.251712e-29 4.566007e-29 -1.470300e-28 1.005372e-28 8.243971e-28 -1.199202e-27 3.543468e-27 6.300019e-26 -6.075296e-25 6.176212e-24 -5.184867e-23 4.491497e-22 -2.579139e-21 1.594270e-20 -6.744326e-20 3.237633e-19 -1.039885e-18 3.873688e-18 -9.291745e-18 2.643957e-17 -4.460367e-17 9.245071e-17 -9.734570e-17 8.110234e-17 1.480150e-16 1.389957e-15 4.477512e-14 -1.947369e-12 -3.637569e-11 -2.176662e-10 -8.507271e-10 -3.537198e-09 -8.155299e-09 2.323065e-08 -8.096232e-09 -1.015649e-09 -3.087881e-10 -1.093853e-10 -3.479756e-11 -1.176195e-11 -3.224929e-12 -9.041652e-13 -1.681945e-13 -1.132970e-14 3.099044e-16 2.471246e-17 1.437386e-17 -6.145395e-18 2.166784e-18 -1.475533e-18 6.349082e-19 -3.599912e-19 1.255700e-19 -5.243218e-20 1.458835e-20 -4.611722e-21 1.026652e-21 -2.482092e-22 4.355970e-23 -7.999711e-24 1.086550e-24 -1.503581e-25 1.560093e-26 -1.619393e-27 1.272853e-28 -9.879979e-30 5.836112e-31 -3.367711e-32 1.475540e-33 -6.236625e-35 1.970493e-36 -5.867730e-38 1.238676e-39 -2.262102e-41 2.061421e-43 1.167669e-45 -1.125908e-46 3.024382e-48 -5.067453e-50 7.107995e-52 -7.001840e-54 6.189964e-56 -3.755500e-58 2.297669e-59 2.598296e-58 4.142302e-57 4.635882e-56 6.708215e-55 6.646908e-54 8.672658e-53 7.483377e-52 8.758525e-51 6.467843e-50 6.768181e-49 4.192365e-48 3.916183e-47 1.982141e-46 1.652085e-45 6.582885e-45 
1.071530e-42 3.250743e-42 2.067876e-41 4.389850e-41 2.434662e-40 3.283154e-40 1.513760e-39 1.160743e-39 3.804614e-39 1.693946e-39 2.725879e-39 7.177056e-40 4.170565e-40 7.788314e-41 8.608661e-41 1.075399e-40 3.965110e-39 -2.475604e-39 1.840056e-37 -4.094597e-37 6.477128e-36 -1.220255e-35 7.924930e-35 3.846613e-34 -3.376439e-33 2.587944e-32 -3.050411e-31 3.282622e-30 -2.256095e-29 1.362477e-28 -3.318241e-28 -4.345804e-29 5.749358e-27 -4.551629e-26 3.308887e-26 -1.823757e-25 -5.291384e-25 1.725320e-24 2.681205e-23 -1.819237e-22 1.634244e-21 -2.398595e-21 1.388005e-20 3.294425e-20 -1.312506e-20 4.489267e-19 -1.169693e-18 3.358992e-18 -9.154803e-18 1.588364e-17 -3.097798e-17 3.457163e-17 -2.699261e-17 1.818914e-17 -1.486719e-16 -2.806587e-15 2.444547e-13 -1.560969e-11 -2.825448e-10 -5.779233e-10 1.948970e-09 2.143878e-08 -3.415861e-08 1.013805e-08 1.344283e-09 3.686720e-10 1.162206e-10 3.244820e-11 8.797815e-12 1.642414e-12 2.304656e-13 1.691951e-14 -9.273928e-17 4.466049e-19 1.812325e-18 -1.752767e-18 9.139523e-19 -6.111862e-19 4.602486e-19 -2.219791e-19 1.270856e-19 -4.540707e-20 1.885097e-20 -5.226850e-21 1.618931e-21 -3.523899e-22 8.224601e-23 -1.394736e-23 2.452583e-24 -3.210716e-25 4.254531e-26 -4.278626e-27 4.283432e-28 -3.305314e-29 2.510952e-30 -1.489694e-31 8.647611e-33 -3.971459e-34 1.783005e-35 -6.422268e-37 2.266246e-38 -6.483690e-40 1.812842e-41 -4.097005e-43 8.934973e-45 -1.544852e-46 2.533952e-48 -3.202429e-50 3.787736e-52 -3.334919e-54 2.721895e-56 -1.204903e-58 6.137088e-58 7.493288e-57 1.140337e-55 1.261591e-54 1.757703e-53 1.728278e-52 2.182386e-51 1.874288e-50 2.129248e-49 1.569386e-48 1.596088e-47 9.898843e-47 8.985578e-46 4.572609e-45 3.697655e-44 1.490483e-43 
2.287942e-41 6.962628e-41 4.331532e-40 9.364498e-40 5.041708e-39 7.071626e-39 3.142452e-38 2.563144e-38 8.089805e-38 3.888768e-38 6.312025e-38 1.737847e-38 1.087757e-38 2.059244e-39 1.440452e-39 2.390416e-39 5.385099e-38 1.355772e-38 2.804203e-36 -5.855341e-36 1.356319e-34 -4.323738e-34 4.697862e-33 -6.074770e-33 5.602557e-32 -2.153785e-31 4.480432e-30 -5.545862e-29 2.810841e-28 -1.274415e-27 -2.066706e-27 5.542942e-26 -3.179092e-25 1.970628e-24 -4.965278e-25 7.145770e-24 3.282380e-23 -2.793689e-22 3.615389e-21 -1.068662e-20 6.015428e-20 -1.184881e-20 4.373768e-19 4.714375e-19 1.294876e-18 1.031247e-18 1.572606e-18 -3.342251e-19 2.772208e-18 -3.877110e-18 6.444060e-18 -6.414206e-18 -6.173555e-18 5.633412e-17 1.932811e-15 2.576355e-14 8.809039e-13 3.319635e-11 5.330886e-10 2.014895e-09 6.230789e-09 -4.284429e-08 4.979476e-08 -1.312420e-08 -1.808788e-09 -4.506982e-10 -1.335122e-10 -3.552879e-11 -9.383082e-12 -1.667705e-12 -2.341850e-13 -9.577234e-15 -1.755217e-16 -2.251470e-18 -1.876572e-20 9.466938e-20 -5.889363e-20 1.125516e-19 -9.692013e-20 5.361801e-20 -3.255340e-20 1.179571e-20 -5.003683e-21 1.348413e-21 -4.152898e-22 8.559661e-23 -1.944831e-23 3.067085e-24 -5.167624e-25 6.199031e-26 -7.755389e-27 7.017123e-28 -6.497059e-29 4.367290e-30 -2.949685e-31 1.420374e-32 -6.650405e-34 2.007136e-35 -4.785559e-37 -2.710831e-39 7.304853e-40 -4.152973e-41 1.643313e-42 -4.732760e-44 1.199622e-45 -2.285669e-47 3.997509e-49 -5.188126e-51 6.273556e-53 -5.465262e-55 4.550285e-57 1.028136e-57 1.720462e-56 2.017264e-55 3.052693e-54 3.257152e-53 4.511630e-52 4.298623e-51 5.394414e-50 4.507855e-49 5.085197e-48 3.661265e-47 3.692700e-46 2.246510e-45 2.018574e-44 1.012797e-43 8.085543e-43 3.236035e-42 