# vtk DataFile Version 2.0
Comment goes here
ASCII

DATASET STRUCTURED_POINTS
DIMENSIONS    128   128   1

ORIGIN    0.000   0.000   0.000
SPACING   0.0156250.015625   1.000

POINT_DATA   16384
SCALARS Concentration double
LOOKUP_TABLE default

1.724224e-39 7.575331e-39 1.169350e-38 3.579665e-38 2.873487e-38 5.153999e-38 2.185734e-38 1.857397e-38 4.743858e-39 1.897935e-39 3.273656e-40 7.551569e-41 9.413129e-42 1.449880e-42 1.392722e-43 1.716515e-44 1.526277e-45 2.183292e-45 2.278203e-44 2.874736e-43 2.368621e-42 2.125387e-41 1.048904e-40 4.621570e-40 -6.591041e-39 -3.104376e-37 -1.246298e-35 -3.916930e-34 -1.258046e-32 -3.117728e-31 -7.621653e-30 -1.352748e-28 -2.137158e-27 -1.850938e-26 6.405349e-26 6.707177e-24 1.889026e-22 3.060959e-21 4.794816e-20 5.159639e-19 5.805809e-18 4.402951e-17 3.512032e-16 1.711735e-15 8.395826e-15 2.043203e-14 3.326753e-14 -1.100655e-14 -1.804335e-13 8.026556e-14 2.849313e-12 -7.643063e-12 3.947221e-11 -3.791070e-10 1.853563e-09 -1.206803e-08 6.072065e-08 -2.769625e-07 1.074674e-06 -2.568328e-06 5.914928e-06 -9.361311e-06 1.317928e-05 -5.537158e-06 -2.341058e-06 2.094752e-07 -1.634536e-08 -2.219735e-09 3.275712e-09 -1.716386e-09 7.892865e-10 -1.864669e-10 3.448194e-11 -5.349891e-12 5.990211e-13 -4.608286e-13 -6.151625e-14 3.629786e-14 -5.803835e-14 -4.347974e-15 4.698020e-15 2.237278e-15 7.839983e-16 2.087376e-17 -3.517209e-17 -1.185808e-17 -2.963409e-18 -4.175514e-19 -5.910847e-20 -5.494444e-21 -5.202608e-22 -3.264667e-23 -1.845828e-24 -4.279606e-26 2.750417e-27 4.627104e-28 4.147767e-29 2.362761e-30 1.232904e-31 4.621672e-33 1.663071e-34 4.385528e-36 1.102906e-37 1.975102e-39 3.026922e-41 2.158941e-43 -3.407032e-45 -1.776460e-46 -4.926245e-48 -9.187195e-50 -1.602182e-51 -2.188257e-53 3.821367e-55 1.423425e-53 2.283393e-52 4.062768e-51 5.430396e-50 8.179683e-49 9.014421e-48 1.147329e-46 1.028761e-45 1.101485e-44 7.869419e-44 7.018886e-43 3.857816e-42 2.815191e-41 1.123736e-40 6.513859e-40 
1.351414e-40 6.079319e-40 9.136313e-40 2.914158e-39 2.280040e-39 4.321240e-39 1.810033e-39 1.628159e-39 4.213082e-40 1.783732e-40 3.193073e-41 7.854837e-42 1.039807e-42 1.728845e-43 1.798747e-44 2.364862e-45 2.190095e-46 1.805231e-46 1.754967e-45 2.389866e-44 2.004317e-43 1.976599e-42 9.807313e-42 4.970466e-41 -1.122728e-39 -4.694167e-38 -2.414083e-36 -7.906529e-35 -2.976737e-33 -7.898429e-32 -2.126651e-30 -3.880398e-29 -5.567577e-28 -9.786068e-28 2.288064e-25 7.567121e-24 2.012394e-22 3.396273e-21 5.830172e-20 6.743247e-19 8.064157e-18 6.143521e-17 4.558101e-16 1.786462e-15 3.575408e-15 -1.714412e-14 -2.255608e-13 -6.170604e-13 -1.562469e-12 2.544786e-13 1.037791e-11 8.041242e-12 -3.788871e-11 6.596694e-10 -2.362801e-09 1.403640e-08 -1.046359e-07 4.933290e-07 -2.114735e-06 4.595017e-06 -1.037428e-05 1.698449e-05 -2.586022e-05 1.182341e-05 3.952406e-06 -1.239370e-07 -1.941163e-08 1.010217e-08 -6.510015e-09 3.407260e-09 -1.802027e-09 4.106877e-10 -7.683337e-11 8.102499e-12 -1.373926e-12 -6.811060e-13 -5.533830e-13 -1.929146e-13 -3.820668e-13 -6.832609e-14 -8.929612e-15 6.305631e-15 3.997820e-15 6.954488e-16 9.931523e-17 -1.039567e-18 -2.448578e-18 -4.727530e-19 -7.237731e-20 -6.645254e-21 -6.069027e-22 -3.629484e-23 -2.128247e-24 -7.245458e-26 -1.295155e-27 1.005858e-28 1.201057e-29 6.857717e-31 3.384951e-32 1.115256e-33 3.661101e-35 7.145599e-37 1.644374e-38 -1.065774e-42 -5.754054e-43 -2.607552e-43 -3.994629e-45 -1.498175e-46 -1.914232e-48 -3.879630e-50 -4.485532e-52 -5.644156e-54 5.785927e-56 2.199699e-54 3.192496e-53 5.180118e-52 6.396983e-51 8.993968e-50 9.315022e-49 1.128276e-47 9.632535e-47 9.975634e-46 6.850922e-45 5.994827e-44 3.188435e-43 2.313388e-42 8.973258e-42 5.243638e-41 
1.028622e-41 4.729454e-41 6.932938e-41 2.300521e-40 1.757424e-40 3.513813e-40 1.456402e-40 1.383706e-40 3.633353e-41 1.623239e-41 3.018197e-42 7.886750e-43 1.108189e-43 1.977469e-44 2.225592e-45 3.121994e-46 3.082885e-47 1.528104e-47 1.278920e-46 1.816468e-45 1.676463e-44 3.784610e-44 1.617911e-42 -1.458314e-40 4.217906e-40 -1.492601e-37 -7.094940e-38 -9.127346e-35 -4.806147e-34 -3.614482e-32 -4.334515e-31 -1.078556e-29 -9.545217e-29 1.416955e-27 1.453523e-25 4.796199e-24 1.378999e-22 2.670096e-21 4.978156e-20 6.271839e-19 7.254433e-18 4.925348e-17 1.881278e-16 -9.696939e-16 -2.409303e-14 -1.542870e-13 -8.571440e-13 -1.711367e-12 -1.201704e-12 7.990075e-12 5.148276e-11 3.389348e-11 1.613078e-10 -5.688023e-10 2.210073e-09 -2.855786e-08 2.018496e-07 -9.450792e-07 3.225901e-06 -6.377675e-06 1.367789e-05 -2.543491e-05 4.438694e-05 -2.306168e-05 -5.928045e-06 -2.605801e-07 5.294594e-08 -6.357480e-09 6.336528e-09 -5.012521e-09 3.175233e-09 -7.699295e-10 1.456721e-10 -1.955613e-11 -1.169707e-12 -3.139331e-12 -2.473107e-12 -1.458563e-12 -1.695195e-12 -4.238337e-13 -1.439351e-13 -4.575729e-15 6.816204e-15 2.087069e-15 4.641726e-16 4.461824e-17 2.886068e-18 -1.211960e-19 -4.581641e-20 -5.171522e-21 -4.647233e-22 -2.682204e-23 -1.432241e-24 -4.883718e-26 -1.275777e-27 7.502957e-30 2.377557e-30 1.915322e-31 6.746685e-33 6.259596e-34 5.332294e-36 1.844693e-36 -4.365797e-39 3.485789e-39 -1.264274e-41 3.441828e-42 -7.540995e-45 1.672358e-45 -3.487835e-51 3.826068e-49 9.328003e-52 3.957991e-53 2.129469e-55 3.224092e-55 4.257966e-54 6.316175e-53 7.262728e-52 9.531298e-51 9.323569e-50 1.073267e-48 8.754106e-48 8.751485e-47 5.792437e-46 4.961720e-45 2.559336e-44 1.842283e-43 6.958392e-43 4.090969e-42 
7.455261e-43 3.513532e-42 5.009004e-42 1.735195e-41 1.290420e-41 2.731951e-41 1.117751e-41 1.125204e-41 2.991449e-42 1.414434e-42 2.723796e-43 7.582595e-44 1.125883e-44 2.162290e-45 2.616068e-46 3.947544e-47 4.197322e-48 1.097968e-48 -3.550338e-48 1.841291e-45 -3.099931e-44 2.176296e-42 -3.504903e-41 2.312914e-39 -3.515656e-38 2.037578e-36 -2.167081e-35 9.945734e-34 -6.324079e-33 2.407810e-31 -8.198013e-31 2.736971e-29 -4.762790e-29 1.740450e-27 3.014961e-26 1.208559e-24 4.091220e-23 9.128958e-22 1.870026e-20 2.244003e-19 1.464971e-18 -1.413308e-17 -6.069400e-16 -7.279016e-15 -7.433196e-14 -3.566014e-13 -1.460486e-12 -1.462892e-12 9.783297e-12 4.305646e-11 1.933533e-10 2.054198e-10 3.525012e-10 6.693308e-10 -9.270269e-10 3.405928e-09 -1.232491e-07 1.005131e-06 -3.331188e-06 4.942330e-06 -1.170145e-05 2.798347e-05 -6.839455e-05 3.941782e-05 8.202646e-06 1.029200e-06 3.730773e-08 -1.962965e-08 -9.724368e-09 1.085032e-08 -6.528672e-09 2.365452e-09 -7.505967e-10 -2.858021e-11 1.229469e-11 -1.001536e-11 -9.103398e-12 -4.961607e-12 -5.079540e-12 -1.460116e-12 -5.882639e-13 -7.616948e-14 -2.795334e-15 2.579993e-15 8.505350e-16 1.100394e-16 1.217800e-17 6.455911e-19 2.302137e-20 -6.226450e-22 -1.223912e-22 -7.759887e-24 -3.866650e-25 -1.191067e-26 -2.599599e-28 -2.289093e-29 9.000100e-31 -4.675892e-31 1.460417e-32 -4.470148e-33 1.240084e-34 -2.040136e-35 4.738591e-37 -4.671592e-38 8.387859e-40 -5.359004e-41 6.889566e-43 -2.999571e-44 2.488844e-46 -7.743522e-48 3.316498e-50 -8.300930e-52 4.994575e-55 1.298636e-56 5.404930e-55 7.393341e-54 7.886261e-53 9.711501e-52 8.936553e-51 9.808595e-50 7.613346e-49 7.363075e-48 4.679725e-47 3.930883e-46 1.959950e-45 1.402192e-44 5.141694e-44 3.047975e-43 
5.219013e-44 2.518007e-43 3.495406e-43 1.262715e-42 9.150358e-43 2.048838e-42 8.282579e-43 8.818637e-43 2.375035e-43 1.185639e-43 2.364076e-44 6.987257e-45 1.094898e-45 2.251728e-46 2.922439e-47 4.758072e-48 3.753846e-49 -7.026089e-48 4.521285e-46 -2.975557e-44 7.014234e-43 -3.239739e-41 7.475213e-40 -3.427978e-38 7.387482e-37 -2.789035e-35 4.262513e-34 -1.214096e-32 1.201215e-31 -2.643699e-30 1.580902e-29 -2.841140e-28 8.909928e-28 -1.430727e-26 2.000216e-26 -1.321390e-25 5.655017e-24 1.264371e-22 1.036645e-21 -4.935485e-20 -2.988297e-18 -6.800580e-17 -1.232730e-15 -1.243665e-14 -1.040264e-13 -4.428247e-13 -1.028525e-12 2.864706e-12 3.940363e-11 1.318987e-10 4.927183e-10 6.248293e-10 1.177446e-09 -2.707398e-10 4.920076e-09 -1.825684e-09 6.799069e-07 -1.391688e-06 -3.171709e-09 1.632643e-06 1.742230e-07 -1.443502e-05 9.031516e-05 -6.276664e-05 -1.046939e-05 -2.299389e-06 -4.263447e-07 -6.205386e-09 5.391318e-08 -3.686631e-08 2.171954e-08 -1.376236e-10 -1.832631e-09 -6.483507e-12 -6.319331e-11 -7.309377e-12 -2.551834e-11 -1.318506e-11 -1.076527e-11 -3.454307e-12 -1.352136e-12 -2.391096e-13 -3.512426e-14 -3.435087e-16 6.766652e-16 1.279152e-16 1.570794e-17 1.043363e-18 5.637578e-20 1.607147e-21 2.856925e-23 -4.614605e-25 -4.329028e-26 2.873631e-27 -2.824800e-28 2.183514e-28 -1.411195e-29 4.577203e-30 -2.666337e-31 4.597421e-32 -2.201355e-33 2.329587e-34 -8.693678e-36 6.041439e-37 -1.690655e-38 7.966704e-40 -1.610030e-41 5.201253e-43 -7.221008e-45 1.590022e-46 -1.388965e-48 2.039131e-50 -9.042283e-53 8.771166e-55 6.448704e-56 8.207165e-55 8.179118e-54 9.457927e-53 8.226643e-52 8.606814e-51 6.378377e-50 5.962278e-49 3.647557e-48 3.000780e-47 1.449061e-46 1.028942e-45 3.669132e-45 2.190125e-44 
3.466669e-45 1.716220e-44 2.314039e-44 8.741967e-44 6.156874e-44 1.462258e-43 5.827717e-44 6.578210e-44 1.790540e-44 9.457410e-45 1.946432e-45 6.120233e-46 1.007512e-46 2.223076e-47 3.084835e-48 2.919025e-49 -5.297308e-49 2.321983e-46 -9.699064e-45 4.585734e-43 -1.142664e-41 4.382042e-40 -1.165857e-38 4.523178e-37 -1.102041e-35 3.402289e-34 -5.869372e-33 1.336044e-31 -1.547262e-30 2.636529e-29 -1.985172e-28 2.603854e-27 -1.177798e-26 1.231583e-25 -2.741495e-25 2.386508e-24 -1.003173e-24 1.170309e-23 -5.893796e-22 -4.072999e-20 -1.951288e-18 -4.514824e-17 -8.763338e-16 -9.163787e-15 -7.401317e-14 -2.586195e-13 4.059178e-13 9.774203e-12 7.773824e-11 2.594883e-10 9.533493e-10 1.402756e-09 3.105756e-09 2.866085e-09 -1.147874e-08 -4.702884e-08 2.201465e-08 -1.343967e-06 5.416416e-06 -6.047442e-06 1.184336e-05 -1.647841e-05 -1.030812e-04 8.743195e-05 1.265533e-05 3.692369e-06 1.221665e-06 2.717381e-07 -1.309755e-07 6.023646e-08 -5.318116e-08 2.083651e-08 -5.801807e-09 1.886439e-10 1.375986e-10 -5.073974e-11 -5.392269e-11 -2.492349e-11 -1.719745e-11 -5.490158e-12 -2.000355e-12 -3.835770e-13 -6.773746e-14 -4.949304e-15 -3.426382e-17 5.480424e-17 7.818532e-18 5.011839e-19 2.464757e-20 6.117787e-22 1.174517e-23 -9.853856e-26 1.897434e-26 -3.494018e-26 4.030561e-27 -1.814295e-27 1.779735e-28 -4.013855e-29 3.170359e-30 -4.350995e-31 2.670537e-32 -2.423519e-33 1.128165e-34 -7.032291e-36 2.431175e-37 -1.056319e-38 2.648692e-40 -8.009838e-42 1.409113e-43 -2.912660e-45 3.400073e-47 -4.599582e-49 3.181029e-51 -2.556330e-53 8.249549e-56 8.619539e-56 8.032135e-55 8.769590e-54 7.190766e-53 7.197609e-52 5.078643e-51 4.600236e-50 2.701696e-49 2.181082e-48 1.017524e-47 7.183642e-47 2.485361e-46 1.496635e-45 
2.211978e-46 1.122910e-45 1.471474e-45 5.809757e-45 3.977543e-45 1.001307e-44 3.934502e-45 4.702384e-45 1.292940e-45 7.211607e-46 1.529813e-46 5.096585e-47 8.777845e-48 2.054987e-48 2.054608e-49 1.396686e-48 5.242640e-47 -4.421592e-45 1.584525e-43 -5.938171e-42 1.456248e-40 -4.759827e-39 1.369329e-37 -4.739384e-36 1.253840e-34 -3.382871e-33 6.269072e-32 -1.226909e-30 1.550690e-29 -2.234788e-28 1.909843e-27 -2.059193e-26 1.133686e-25 -9.197749e-25 2.824728e-24 -1.674055e-23 1.540132e-23 -1.249439e-23 -1.756928e-22 -2.289781e-21 -2.893580e-19 -1.029077e-17 -2.294158e-16 -3.156978e-15 -2.321438e-14 -5.405381e-14 1.077754e-12 1.209697e-11 8.715249e-11 3.621635e-10 1.388771e-09 2.806741e-09 5.641085e-09 -8.647419e-09 2.761651e-08 -7.112551e-08 -3.539757e-07 7.735607e-07 -9.001336e-07 -1.198993e-06 3.458787e-07 5.920780e-05 1.019390e-04 -1.163433e-04 -1.473577e-05 -5.427140e-06 -2.288351e-06 -9.316993e-07 -5.379755e-08 1.738976e-08 -4.777055e-09 -8.390619e-09 6.168184e-09 1.139495e-09 -3.418449e-10 8.175995e-11 -8.487442e-11 -4.230167e-11 -2.102327e-11 -6.304835e-12 -1.779684e-12 -3.492008e-13 -5.531041e-14 -5.151460e-15 -3.039979e-16 1.507622e-18 1.117653e-18 8.414984e-20 2.912759e-21 3.792131e-23 2.028138e-24 7.977203e-25 -2.650825e-25 2.478165e-25 -4.095532e-26 1.327892e-26 -1.660106e-27 3.068816e-28 -2.925426e-29 3.533943e-30 -2.551201e-31 2.128531e-32 -1.152923e-33 6.799144e-35 -2.730221e-36 1.144794e-37 -3.351440e-39 9.921090e-41 -2.064483e-42 4.221685e-44 -5.985977e-46 8.078562e-48 -7.206926e-50 5.819408e-52 -2.704941e-54 1.851509e-56 7.471715e-56 7.714172e-55 5.988798e-54 5.738962e-53 3.867072e-52 3.394640e-51 1.917901e-50 1.518967e-49 6.856667e-49 4.810447e-48 1.616702e-47 9.815152e-47 
1.334250e-47 6.957422e-47 8.844100e-47 3.656921e-46 2.428703e-46 6.494438e-46 2.511760e-46 3.185661e-46 8.844760e-47 5.289590e-47 1.173839e-47 4.838594e-48 1.048481e-48 4.064497e-49 8.748132e-49 4.341356e-48 -1.208263e-45 6.890692e-44 -2.154435e-42 6.668540e-41 -1.423468e-39 3.908534e-38 -1.133656e-36 3.796597e-35 -1.068791e-33 2.727452e-32 -5.207800e-31 9.414473e-30 -1.223717e-28 1.608409e-27 -1.442444e-26 1.397419e-25 -8.398514e-25 5.922947e-24 -2.116497e-23 9.879521e-23 -1.016882e-22 -2.544894e-22 2.640037e-21 -2.216797e-20 1.960409e-22 -7.774751e-19 -1.064312e-17 -2.569150e-16 -1.189239e-15 1.560185e-15 4.886589e-13 6.785151e-12 6.228596e-11 3.543553e-10 1.620573e-09 4.961397e-09 1.267402e-08 1.695720e-08 -5.854703e-08 -9.554241e-08 1.880433e-07 -8.503119e-07 1.654688e-06 -3.593083e-06 -3.624719e-05 -7.487970e-05 -1.039801e-04 1.362124e-04 1.657577e-05 6.478047e-06 3.168648e-06 1.431442e-06 6.627989e-07 8.264334e-08 -2.681322e-08 1.000722e-08 -5.820326e-09 7.055694e-10 7.333792e-10 -2.479220e-10 -1.678780e-10 -6.649265e-11 -2.138478e-11 -5.185868e-12 -1.020440e-12 -1.584266e-13 -1.811113e-14 -1.451393e-15 -8.273179e-17 -1.552349e-18 5.790983e-21 6.724254e-21 -4.377807e-24 1.888967e-22 -2.228810e-23 -2.857986e-24 2.142381e-24 -1.515917e-24 3.083354e-25 -8.480296e-26 1.207147e-26 -2.034255e-27 2.144198e-28 -2.464934e-29 1.945782e-30 -1.589631e-31 9.391084e-33 -5.536726e-34 2.430456e-35 -1.035629e-36 3.333748e-38 -1.017147e-39 2.350271e-41 -5.023431e-43 8.040908e-45 -1.154136e-46 1.200156e-48 -1.062265e-50 6.260460e-53 -2.753577e-55 7.125683e-57 6.405696e-56 4.700884e-55 4.328649e-54 2.780653e-53 2.371770e-52 1.286864e-51 1.001788e-50 4.368346e-50 3.050284e-49 9.942685e-49 6.094874e-48 
7.672216e-49 4.108531e-48 5.058282e-48 2.188024e-47 1.399122e-47 3.940602e-47 1.436972e-47 1.682882e-47 3.056763e-48 -6.108244e-48 -3.309072e-48 -8.377272e-48 -3.332799e-48 -2.334482e-48 -4.580901e-48 -2.732494e-46 2.037582e-44 -9.282594e-43 2.577739e-41 -6.399344e-40 9.616626e-39 -1.574427e-37 4.296490e-36 -1.638337e-34 5.981603e-33 -1.546368e-31 3.234918e-30 -5.530523e-29 7.529639e-28 -9.150767e-27 8.597311e-26 -7.605683e-25 4.888433e-24 -3.072856e-23 1.205195e-22 -4.516308e-22 3.113585e-22 4.228505e-21 -2.930959e-20 1.760873e-19 -2.576215e-19 1.331954e-18 1.111256e-19 -1.735191e-17 -3.006628e-16 -1.296042e-14 -1.548840e-13 -8.226127e-13 -3.095129e-13 7.585816e-11 3.778482e-10 3.261677e-09 7.127137e-09 3.243734e-08 6.590354e-08 -1.396293e-07 -3.161894e-07 1.033536e-07 1.764671e-06 9.593474e-06 3.329716e-05 9.138325e-05 1.349304e-04 -1.591823e-04 -1.873521e-05 -7.461258e-06 -3.603635e-06 -1.650543e-06 -7.156104e-07 -2.115626e-07 -4.315242e-08 4.149239e-10 2.934997e-09 1.802575e-09 -8.021139e-10 -4.281059e-10 -8.174756e-11 -3.717549e-11 -3.179019e-12 -6.708380e-13 7.271445e-14 8.521496e-15 2.032822e-15 7.278015e-17 2.928722e-18 7.889558e-21 -1.583528e-21 -1.005327e-20 2.232652e-21 -1.388501e-21 2.214923e-22 -5.560166e-24 -1.170173e-23 7.447205e-24 -1.793819e-24 4.410069e-25 -6.967821e-26 1.091725e-26 -1.253646e-27 1.377543e-28 -1.178497e-29 9.389314e-31 -6.015706e-32 3.512630e-33 -1.678934e-34 7.175053e-36 -2.531310e-37 7.831758e-39 -2.002058e-40 4.386694e-42 -7.880232e-44 1.174738e-45 -1.405436e-47 1.319999e-49 -9.454309e-52 4.686167e-54 -1.465573e-56 4.921818e-57 3.443244e-56 3.064001e-55 1.886988e-54 1.568157e-53 8.194399e-53 6.278883e-52 2.648863e-51 1.842133e-50 5.828059e-50 3.607957e-49 
6.192672e-50 3.457265e-49 5.051216e-49 2.503995e-48 2.666873e-48 1.156543e-47 1.079833e-47 4.331850e-47 2.727554e-47 1.064880e-46 4.073651e-47 9.005482e-47 3.408934e-47 2.393815e-47 -1.462355e-47 5.717260e-45 -3.081889e-43 1.243281e-41 -3.112832e-40 6.501797e-39 -4.533976e-38 -7.774673e-37 3.753753e-35 -5.416430e-34 -8.757988e-33 4.653462e-31 -1.326993e-29 2.385617e-28 -3.451436e-27 4.083883e-26 -3.912400e-25 3.297307e-24 -2.163524e-23 1.263533e-22 -5.021579e-22 1.472799e-21 1.122631e-21 -3.785986e-20 2.307162e-19 -1.204024e-18 2.800740e-18 -1.011447e-17 1.576215e-18 -1.705556e-17 4.754433e-17 -9.878577e-16 1.846596e-14 4.312029e-14 7.265973e-13 -9.783181e-12 -1.192688e-10 -6.533845e-10 1.876904e-09 -2.636432e-08 2.039624e-08 -4.193402e-08 -2.775608e-07 -1.688652e-06 7.284155e-07 -1.711375e-05 -5.948249e-05 -1.116355e-04 -1.502497e-04 1.838968e-04 2.085147e-05 8.678697e-06 4.532218e-06 2.190253e-06 1.246458e-06 4.155404e-07 -2.077660e-08 3.353239e-08 -1.927786e-09 6.030484e-10 -3.742606e-10 2.869409e-10 -1.229439e-11 1.052864e-11 1.218423e-12 1.951778e-13 8.976110e-15 1.627111e-16 1.448297e-16 3.402314e-18 9.140030e-19 1.012987e-19 -3.130400e-20 6.610685e-20 -2.011609e-20 9.120676e-21 -1.668129e-21 1.788330e-22 3.636923e-23 -2.803327e-23 7.778718e-24 -1.837854e-24 3.086585e-25 -4.714684e-26 5.668496e-27 -6.177847e-28 5.521784e-29 -4.427937e-30 2.971467e-31 -1.768645e-32 8.897091e-34 -3.920785e-35 1.465122e-36 -4.727530e-38 1.290543e-39 -2.985847e-41 5.791792e-43 -9.264390e-45 1.217802e-46 -1.259915e-48 1.025799e-50 -5.956886e-53 2.430865e-55 1.200862e-57 8.236207e-57 5.657506e-56 2.702011e-55 1.892977e-54 8.455399e-54 5.852194e-53 2.264220e-52 1.496995e-51 4.587749e-51 2.818032e-50 
-2.492622e-49 -1.433432e-48 -2.770496e-48 -1.524819e-47 -2.177825e-47 -1.092308e-46 -1.065691e-46 -4.860621e-46 -2.606180e-46 -1.179568e-45 -3.830896e-46 -9.312281e-46 -3.315536e-46 -2.374845e-46 9.601274e-46 -9.524306e-44 4.608736e-42 -1.766865e-40 4.443174e-39 -9.329116e-38 6.256147e-37 1.272962e-35 -8.275364e-34 1.853464e-32 -2.592803e-31 2.359273e-30 8.602185e-30 -4.706265e-28 1.002969e-26 -1.231432e-25 1.274227e-24 -1.027255e-23 6.934274e-23 -3.716425e-22 1.425230e-21 -2.448696e-21 -1.863928e-20 2.195955e-19 -1.322495e-18 6.346051e-18 -1.992765e-17 6.367740e-17 -7.441011e-17 1.210608e-16 1.140582e-15 -3.181471e-15 7.848606e-15 3.369462e-14 -1.295665e-12 4.951326e-12 -8.086530e-11 7.490968e-10 -5.075004e-09 1.307897e-08 1.252190e-08 -1.592501e-08 -1.169373e-07 -6.697616e-07 8.400666e-06 2.079433e-05 5.117308e-05 1.252411e-04 1.992991e-04 -2.064847e-04 -2.300009e-05 -9.545629e-06 -4.800670e-06 -2.360482e-06 -1.285673e-06 -6.903494e-07 -2.150374e-07 1.811475e-08 -8.171015e-09 -5.545384e-10 4.712865e-12 -1.841507e-10 4.929513e-11 -9.848687e-12 5.256569e-13 -7.958589e-14 1.804771e-14 -3.787031e-15 1.553638e-15 -1.589688e-16 3.708165e-17 -9.465039e-19 5.556970e-20 -3.446687e-19 1.275621e-19 -4.998361e-20 1.028287e-20 -1.490710e-21 1.151402e-23 6.861526e-23 -2.374384e-23 5.568311e-24 -1.001833e-24 1.488103e-25 -1.881328e-26 2.007559e-27 -1.882206e-28 1.491695e-29 -1.052457e-30 6.246887e-32 -3.318551e-33 1.470589e-34 -5.837520e-36 1.909420e-37 -5.578887e-39 1.319508e-40 -2.767496e-42 4.571665e-44 -6.599067e-46 7.158973e-48 -6.584234e-50 4.138260e-52 -2.050562e-54 -1.129386e-56 -7.326188e-56 -4.508830e-55 -1.894442e-54 -1.154885e-53 -4.499005e-53 -2.708062e-52 -9.494210e-52 -5.637605e-51 -1.708806e-50 -1.001155e-49 
3.111489e-48 1.806897e-47 3.327258e-47 1.868932e-46 2.466490e-46 1.300591e-45 1.093905e-45 5.633407e-45 2.267253e-45 1.309818e-44 3.190457e-45 9.488899e-45 3.003217e-45 2.230171e-45 -2.145392e-44 1.574703e-42 -7.363906e-41 2.859143e-39 -7.751910e-38 1.850154e-36 -2.396599e-35 2.007742e-34 5.341144e-33 -1.687321e-31 3.459681e-30 -4.552535e-29 3.994662e-28 -2.497916e-27 -3.069221e-27 1.742685e-25 -2.631577e-24 2.199503e-23 -1.514655e-22 7.475239e-22 -2.346430e-21 -2.658975e-21 1.030489e-19 -8.825088e-19 5.222445e-18 -2.443293e-17 9.042795e-17 -2.961850e-16 7.511290e-16 -1.903741e-15 2.851247e-15 -8.661396e-17 -9.121273e-14 4.859602e-13 -3.902234e-12 1.193258e-11 -6.068529e-11 1.461648e-11 2.434969e-11 -6.044417e-09 -4.684308e-09 -4.583858e-08 -7.024377e-07 -9.592406e-07 -8.100301e-06 -2.162894e-06 -3.729634e-05 -1.256113e-04 -2.559807e-04 2.289931e-04 2.539756e-05 1.039447e-05 5.256265e-06 2.505780e-06 1.401014e-06 6.836698e-07 3.449191e-07 2.261907e-08 3.379297e-10 4.692642e-10 -3.805295e-10 9.733295e-11 -1.101725e-11 4.180779e-12 -9.078170e-13 1.101184e-13 -3.494781e-14 -1.060329e-15 1.991888e-15 -9.371413e-16 3.098457e-16 -4.299302e-17 5.000249e-18 1.966522e-18 -8.207643e-19 2.485463e-19 -5.185264e-20 7.708331e-21 -6.354367e-22 -8.937479e-23 4.861227e-23 -1.227896e-23 2.306279e-24 -3.441039e-25 4.436401e-26 -4.748337e-27 4.533765e-28 -3.626460e-29 2.614512e-30 -1.578404e-31 8.612377e-33 -3.914330e-34 1.606048e-35 -5.437457e-37 1.654694e-38 -4.094400e-40 9.031010e-42 -1.582518e-43 2.434986e-45 -2.861510e-47 2.868619e-49 -2.034136e-51 1.155886e-53 1.662914e-55 9.243561e-55 5.711282e-54 2.432059e-53 1.486582e-52 5.823989e-52 3.514719e-51 1.227936e-50 7.317735e-50 2.184932e-49 1.287361e-48 
-3.948408e-47 -2.340617e-46 -4.050390e-46 -2.362883e-45 -2.793030e-45 -1.601606e-44 -1.070512e-44 -6.747393e-44 -1.575949e-44 -1.495992e-43 -1.961675e-44 -9.733880e-44 -2.397484e-44 -1.942734e-44 3.920645e-43 -2.558433e-41 1.224453e-39 -4.843060e-38 1.437189e-36 -3.741931e-35 6.587367e-34 -1.044739e-32 6.637102e-32 2.578430e-32 -2.193891e-29 3.606324e-28 -4.505927e-27 3.837157e-26 -2.155235e-25 9.314354e-25 3.671425e-25 -2.049880e-23 2.107196e-22 -9.429260e-22 1.744278e-21 2.183111e-20 -3.069253e-19 2.275668e-18 -1.363597e-17 6.087468e-17 -2.381571e-16 7.120755e-16 -1.987980e-15 4.735562e-15 -2.083298e-14 8.189651e-14 -5.456366e-13 2.110232e-12 -1.157569e-11 3.941700e-11 -1.926574e-10 5.879627e-10 -3.115598e-09 9.040044e-09 2.344654e-08 1.834663e-07 -4.950899e-07 1.468332e-06 -7.886052e-06 -2.525263e-05 -4.284656e-06 1.096533e-04 3.304739e-04 -2.471267e-04 -2.765109e-05 -1.105164e-05 -5.328951e-06 -2.491368e-06 -1.330093e-06 -6.341000e-07 -4.063828e-07 -9.399869e-08 -8.934538e-09 1.298120e-09 3.476525e-10 -6.052638e-11 1.150985e-11 -1.917394e-12 1.693524e-13 1.012882e-13 -1.178937e-13 3.496017e-14 -1.371217e-14 1.510641e-15 -3.195955e-17 -1.760655e-16 7.335770e-17 -2.025698e-17 4.992446e-18 -8.772665e-19 1.511533e-19 -1.605844e-20 9.621679e-22 2.600434e-22 -1.027942e-22 2.276365e-23 -4.090432e-24 5.697784e-25 -7.243350e-26 7.389378e-27 -7.037627e-28 5.424570e-29 -3.925771e-30 2.300213e-31 -1.265795e-32 5.614541e-34 -2.333737e-35 7.749721e-37 -2.401450e-38 5.859327e-40 -1.324862e-41 2.304256e-43 -3.670640e-45 4.322934e-47 -4.562722e-49 3.300866e-51 -2.082197e-53 -2.479800e-54 -1.182710e-53 -7.365806e-53 -3.178958e-52 -1.955661e-51 -7.685687e-51 -4.669710e-50 -1.617924e-49 -9.728371e-49 -2.842595e-48 -1.696901e-47 
5.027949e-46 3.103038e-45 4.890811e-45 3.058010e-44 3.058102e-44 2.020695e-43 9.143943e-44 8.284924e-43 2.234357e-44 1.749084e-42 -3.262092e-44 1.002783e-42 1.251518e-43 1.482848e-43 -6.717106e-42 4.178157e-40 -2.029341e-38 8.131418e-37 -2.543369e-35 6.885134e-34 -1.376929e-32 2.475779e-31 -2.856670e-30 3.032652e-29 -8.100459e-29 -7.369979e-28 2.971692e-26 -2.976494e-25 2.265694e-24 -1.223131e-23 3.867818e-23 -1.036500e-22 -8.350719e-23 6.004516e-22 1.977883e-22 -4.753813e-20 5.365417e-19 -3.795146e-18 2.195479e-17 -9.309728e-17 3.067475e-16 -5.375264e-16 -1.376190e-15 1.494766e-14 -8.435264e-14 2.930917e-13 -9.461642e-13 2.328819e-12 -5.368621e-12 8.725901e-12 2.507471e-12 -4.952697e-11 3.893607e-10 -4.666155e-10 -9.107384e-09 3.184726e-07 -1.318455e-06 4.271621e-06 3.696241e-05 6.580093e-05 7.199369e-05 -4.629094e-05 -4.132422e-04 2.596603e-04 3.012596e-05 1.152964e-05 5.363254e-06 2.365009e-06 1.175882e-06 5.205150e-07 2.967619e-07 1.066333e-07 9.603341e-09 -1.058278e-09 -4.765378e-10 3.853073e-11 -2.117011e-11 4.764145e-12 -1.759468e-12 5.126856e-13 -2.193024e-13 8.570757e-14 -3.913994e-14 1.261030e-14 -4.319490e-15 9.564746e-16 -2.228346e-16 2.995516e-17 -3.789947e-18 -1.099790e-19 1.205521e-19 -4.012453e-20 8.999057e-21 -1.704086e-21 2.992817e-22 -4.494185e-23 6.493294e-24 -7.854067e-25 9.091562e-26 -8.688004e-27 7.886915e-28 -5.873356e-29 4.134207e-30 -2.377515e-31 1.287271e-32 -5.666047e-34 2.338625e-35 -7.786971e-37 2.419047e-38 -5.988825e-40 1.373020e-41 -2.459421e-43 4.030501e-45 -4.989831e-47 5.529907e-49 -4.345409e-51 3.428067e-53 3.219750e-53 1.533709e-52 9.679394e-52 4.224637e-51 2.630407e-50 1.031738e-49 6.353833e-49 2.164184e-48 1.324896e-47 3.737662e-47 2.290240e-46 
-6.805037e-45 -4.401881e-44 -6.246318e-44 -4.227105e-43 -3.414289e-43 -2.717853e-42 -5.694056e-43 -1.082972e-41 2.285602e-42 -2.175919e-41 4.483587e-42 -1.087333e-41 8.932840e-43 -7.437952e-43 1.041161e-40 -6.254990e-39 3.123626e-37 -1.248660e-35 4.088169e-34 -1.120384e-32 2.416092e-31 -4.533794e-30 6.182571e-29 -7.686884e-28 5.682063e-27 -4.000482e-26 -3.617123e-27 1.076103e-24 -1.757371e-23 1.048769e-22 -4.476141e-22 1.446033e-21 -1.835110e-21 3.415506e-21 -4.558252e-21 1.012779e-19 -1.035319e-18 7.177629e-18 -4.487956e-17 2.069345e-16 -8.614589e-16 2.472944e-15 -4.508616e-15 -4.250202e-15 8.790643e-14 -3.627232e-13 1.316270e-12 -2.562431e-12 4.197008e-12 3.830364e-12 -5.710131e-11 2.726768e-10 -1.780234e-09 7.778450e-09 9.991902e-08 5.372619e-07 -2.324535e-06 -1.796848e-05 -5.549462e-05 -8.771103e-05 -1.378374e-04 -4.895537e-05 4.680449e-04 -2.609747e-04 -3.203667e-05 -1.184849e-05 -5.268534e-06 -2.231371e-06 -1.054983e-06 -4.447149e-07 -2.290188e-07 -9.867674e-08 -2.690197e-08 5.947431e-09 6.221238e-10 3.058355e-11 1.806106e-12 -1.855833e-12 1.392221e-12 -4.683675e-13 2.311424e-13 -5.493583e-14 1.579708e-14 1.161581e-15 -1.967158e-15 1.163319e-15 -4.530852e-16 1.315572e-16 -3.447141e-17 7.035962e-18 -1.380940e-18 2.177088e-19 -3.413701e-20 4.437894e-21 -5.906785e-22 6.663722e-23 -7.773905e-24 7.632258e-25 -7.606278e-26 6.216742e-27 -5.026036e-28 3.257734e-29 -2.048804e-30 1.015304e-31 -4.808361e-33 1.758954e-34 -6.029077e-36 1.536292e-37 -3.485739e-39 5.121235e-41 -4.325131e-43 -6.130116e-45 3.214150e-46 -6.665577e-48 1.049103e-49 -1.059695e-51 -5.574361e-53 -4.246183e-52 -2.061695e-51 -1.332845e-50 -5.859243e-50 -3.735923e-49 -1.453325e-48 -9.185942e-48 -3.053572e-47 -1.926145e-46 -5.209443e-46 -3.307771e-45 
9.072859e-44 6.490676e-43 7.599105e-43 6.097354e-42 3.154345e-42 3.842135e-41 -4.122993e-42 1.496512e-40 -6.986446e-41 2.890865e-40 -1.236462e-40 1.285538e-40 -5.035521e-41 -3.222993e-42 -1.436363e-39 8.449070e-38 -4.294469e-36 1.718464e-34 -5.827967e-33 1.615031e-31 -3.684455e-30 7.095826e-29 -1.065635e-27 1.405468e-26 -1.295964e-25 1.115177e-24 -4.880608e-24 2.139433e-23 7.067232e-23 -6.260715e-22 4.637641e-21 -1.532449e-20 2.867920e-20 -4.751666e-20 -2.668429e-20 8.449837e-21 5.209660e-19 -6.633437e-18 5.626522e-17 -2.691303e-16 1.343932e-15 -4.361847e-15 1.437197e-14 -2.834837e-14 3.761553e-14 4.465206e-14 -3.068722e-13 3.090792e-13 4.455638e-12 -2.521860e-11 1.423493e-10 -4.375374e-10 2.329381e-09 -6.142701e-09 -2.470829e-08 -6.344261e-07 4.909217e-06 1.684110e-05 3.923103e-05 7.937189e-05 1.714795e-04 1.822179e-04 -4.648462e-04 2.452387e-04 3.333279e-05 1.181346e-05 4.995085e-06 1.981704e-06 8.328571e-07 2.965413e-07 1.201271e-07 4.880391e-08 1.896159e-08 -2.595677e-09 -5.064005e-11 -2.464091e-11 9.685478e-12 -1.901896e-12 8.124851e-13 -3.407114e-13 2.087088e-13 -1.072178e-13 5.837222e-14 -2.360840e-14 9.694716e-15 -2.938156e-15 8.973172e-16 -2.066054e-16 4.778887e-17 -8.564126e-18 1.542092e-18 -2.213613e-19 3.216588e-20 -3.846837e-21 4.739497e-22 -4.963218e-23 5.439342e-24 -5.138362e-25 5.040751e-26 -4.213394e-27 3.566707e-28 -2.526723e-29 1.770923e-30 -1.024504e-31 5.763355e-33 -2.645050e-34 1.164875e-35 -4.132699e-37 1.391615e-38 -3.716291e-40 9.323712e-42 -1.815498e-43 3.281696e-45 -4.453351e-47 5.509597e-49 -4.673236e-51 8.961813e-52 5.853232e-51 2.893850e-50 1.935158e-49 8.450579e-49 5.591466e-48 2.108185e-47 1.394176e-46 4.375441e-46 2.925003e-45 7.265561e-45 4.970391e-44 
-1.085043e-42 -1.076721e-41 -6.496624e-42 -9.901427e-41 -7.503020e-42 -6.075368e-40 2.146612e-40 -2.300374e-39 1.507140e-39 -4.306428e-39 2.961940e-39 -1.836952e-39 1.231948e-39 2.182944e-40 1.469900e-38 -8.455601e-37 4.573399e-35 -1.842028e-33 6.732459e-32 -1.901098e-30 4.730423e-29 -9.404672e-28 1.569489e-26 -2.177832e-25 2.328713e-24 -2.199537e-23 1.335697e-22 -8.071520e-22 1.550687e-21 -3.727872e-21 -4.346755e-20 1.479770e-19 -4.894743e-19 7.743309e-19 -6.972250e-20 -5.904106e-19 1.773282e-17 -6.502707e-17 3.837775e-16 -8.455522e-16 2.939673e-15 -3.366362e-15 5.859241e-15 1.597118e-14 -2.594642e-14 2.469003e-13 5.230645e-14 1.892964e-12 -3.277511e-12 2.188023e-11 -8.865011e-11 2.417125e-10 -9.539213e-10 1.967730e-09 9.998493e-10 8.485816e-08 -7.670704e-07 -1.276948e-06 -3.459361e-06 -3.315989e-05 -1.130674e-04 -2.073254e-04 2.912547e-04 -2.019247e-04 -3.231077e-05 -1.144743e-05 -4.803387e-06 -1.863764e-06 -7.527251e-07 -2.409761e-07 -8.090236e-08 -2.094718e-08 -6.092827e-09 6.717121e-10 4.456145e-11 1.472468e-11 -8.549544e-12 2.899169e-12 -1.748789e-12 7.439250e-13 -4.225519e-13 1.713470e-13 -8.111486e-14 2.726965e-14 -1.006790e-14 2.675288e-15 -7.574124e-16 1.581745e-16 -3.462337e-17 5.744532e-18 -9.910508e-19 1.332190e-19 -1.864340e-20 2.093412e-21 -2.472269e-22 2.400576e-23 -2.459844e-24 2.063634e-25 -1.778752e-26 1.195075e-27 -7.723404e-29 3.350074e-30 -9.653539e-32 -3.394018e-33 6.414298e-34 -5.058042e-35 3.040536e-36 -1.350234e-37 5.355614e-39 -1.617634e-40 4.500229e-42 -9.442653e-44 1.837237e-45 -2.617958e-47 3.435831e-49 -5.166484e-51 -1.228123e-50 -8.811681e-50 -4.447299e-49 -3.122493e-48 -1.342858e-47 -9.396167e-47 -3.377978e-46 -2.389680e-45 -6.827662e-45 -5.017055e-44 -1.039976e-43 -8.408806e-43 