# vtk DataFile Version 2.0
Comment goes here
ASCII

DATASET STRUCTURED_POINTS
DIMENSIONS    128   128   1

ORIGIN    0.000   0.000   0.000
SPACING   0.0156250.015625   1.000

POINT_DATA   16384
SCALARS Concentration double
LOOKUP_TABLE default

4.136549e-38 1.733413e-37 2.632553e-37 7.608203e-37 6.048937e-37 1.016946e-36 4.298626e-37 3.442912e-37 8.747398e-38 3.331344e-38 5.643999e-39 1.230804e-39 1.477552e-40 2.109064e-41 1.908033e-42 2.189436e-43 2.460533e-44 1.121819e-43 1.115297e-42 1.199744e-41 8.310131e-41 6.185494e-40 2.337324e-39 9.564172e-40 -4.654362e-37 -1.645489e-35 -5.517952e-34 -1.423481e-32 -3.466976e-31 -5.870434e-30 -6.742655e-29 4.191978e-28 4.942856e-26 1.467411e-24 3.634059e-23 6.148656e-22 1.016591e-20 1.186631e-19 1.358221e-18 1.028129e-17 6.863073e-17 2.090082e-16 -5.762090e-16 -1.066421e-14 -7.734445e-14 -1.425207e-13 7.331197e-13 6.270931e-12 3.894012e-11 7.016368e-11 2.130435e-10 1.594565e-10 5.175586e-10 -6.032086e-09 2.846586e-08 -1.761319e-07 8.222940e-07 -3.498095e-06 1.181917e-05 -2.462030e-05 4.978598e-05 -7.206207e-05 9.108991e-05 -3.369527e-05 -1.675602e-05 1.459142e-06 -1.197819e-07 5.264481e-09 5.866477e-09 -7.137930e-09 5.730042e-09 -2.153659e-09 5.739564e-10 -1.241408e-10 1.840584e-11 -4.804570e-12 -1.128186e-12 -3.899498e-12 -4.284520e-12 -1.582780e-12 -1.030864e-12 -2.257667e-13 -6.108833e-14 -6.070818e-15 -1.776172e-16 9.882116e-17 2.222970e-17 1.036433e-18 -2.412190e-19 -6.701202e-20 -1.100216e-20 -1.083668e-21 -9.928159e-23 -6.189910e-24 -3.615155e-25 -1.324499e-26 -2.894764e-28 1.247056e-29 1.826697e-30 1.150899e-31 6.020836e-33 2.263752e-34 8.042895e-36 2.162001e-37 5.607414e-39 1.109653e-40 2.090543e-42 2.900617e-44 3.422730e-46 1.838739e-48 -2.784305e-50 -1.149406e-51 -1.388874e-53 2.786111e-52 4.917118e-51 9.355473e-50 1.331929e-48 2.084567e-47 2.383114e-46 3.078473e-45 2.805517e-44 2.993514e-43 2.141568e-42 1.876928e-41 1.022528e-40 7.251218e-40 2.850985e-39 1.590881e-38 
3.507094e-39 1.502591e-38 2.226893e-38 6.690446e-38 5.199085e-38 9.210418e-38 3.856117e-38 3.261219e-38 8.411987e-39 3.384172e-39 5.961436e-40 1.385296e-40 1.771165e-41 2.734521e-42 2.692186e-43 3.289690e-44 3.396112e-45 9.891685e-45 9.781909e-44 1.131582e-42 7.975972e-42 6.451934e-41 2.346653e-40 -3.858425e-40 -9.033961e-38 -3.306368e-36 -1.268024e-34 -3.467099e-33 -9.023164e-32 -1.426416e-30 -4.112910e-30 8.085939e-28 4.343249e-26 1.230915e-24 3.234972e-23 5.797647e-22 1.015071e-20 1.190326e-19 1.267045e-18 7.245237e-18 4.110877e-18 -4.776179e-16 -7.125781e-15 -4.029226e-14 -1.502430e-13 2.927203e-13 7.095894e-12 3.319569e-11 1.724382e-10 3.106619e-10 9.506634e-10 1.064733e-09 -8.184097e-10 9.109195e-09 -2.751812e-08 1.128543e-07 -9.460425e-07 4.425942e-06 -1.908619e-05 3.637244e-05 -7.361015e-05 1.107072e-04 -1.529922e-04 6.109752e-05 2.403178e-05 -4.278517e-07 -1.360754e-07 3.160083e-09 8.308264e-09 3.442844e-09 -7.374464e-09 2.743132e-09 -6.902676e-10 8.732896e-11 -1.468880e-11 -1.894751e-12 -9.724841e-12 -1.493366e-11 -1.629403e-11 -5.845935e-12 -3.674742e-12 -8.710685e-13 -2.640166e-13 -3.463005e-14 -3.994918e-15 -1.763676e-17 5.833427e-17 8.339349e-18 7.451785e-19 3.447748e-21 -6.277489e-21 -8.694610e-22 -8.708585e-23 -5.437068e-24 -3.155938e-25 -1.183927e-26 -3.711584e-28 -2.783092e-30 3.987202e-31 3.052039e-32 1.580072e-33 5.368987e-35 1.764350e-36 3.855533e-38 9.147680e-40 1.089227e-41 1.763486e-43 -1.256005e-45 -3.984396e-47 -1.682726e-48 -2.960109e-50 -5.055410e-52 -5.063640e-54 4.639726e-53 7.365798e-52 1.273432e-50 1.672855e-49 2.442424e-48 2.627549e-47 3.232676e-46 2.811588e-45 2.904838e-44 2.002682e-43 1.723359e-42 9.106582e-42 6.422259e-41 2.458913e-40 1.382453e-39 
2.895002e-40 1.265301e-39 1.834126e-39 5.717600e-39 4.352799e-39 8.109856e-39 3.372204e-39 3.003531e-39 7.888924e-40 3.341471e-40 6.137406e-41 1.513144e-41 2.064537e-42 3.425550e-43 3.676387e-44 4.787917e-45 4.896514e-46 8.402791e-46 8.064566e-45 9.916889e-44 7.215059e-43 3.672517e-42 1.384786e-41 -3.471101e-39 -2.303128e-38 -3.349183e-36 -2.812738e-35 -1.816899e-33 -2.025843e-32 -5.184725e-31 7.346166e-31 3.047098e-28 1.779140e-26 5.708175e-25 1.646749e-23 3.249885e-22 5.631331e-21 5.808436e-20 2.351078e-19 -5.916973e-18 -1.715311e-16 -1.950056e-15 -1.713645e-14 -6.292507e-14 1.041300e-13 3.361940e-12 3.193648e-11 1.306608e-10 5.882829e-10 1.169112e-09 3.265731e-09 3.036420e-09 2.459673e-09 -7.068539e-09 2.212379e-08 -3.382263e-07 2.317957e-06 -9.666992e-06 2.608998e-05 -4.281862e-05 8.007972e-05 -1.362743e-04 2.165191e-04 -9.809677e-05 -2.984266e-05 -2.043381e-06 1.396248e-07 1.426770e-07 -6.682539e-08 1.196787e-08 5.268045e-09 -2.386382e-09 1.417020e-09 -1.316788e-10 -1.122395e-10 -2.153329e-11 -3.580454e-11 -4.639723e-11 -4.868962e-11 -1.868496e-11 -1.037623e-11 -2.713009e-12 -8.274866e-13 -1.298863e-13 -1.938264e-14 -1.257387e-15 6.421771e-18 1.477342e-17 2.228445e-18 1.490209e-19 6.335171e-21 -9.844216e-23 -3.303965e-23 -2.540977e-24 -1.453399e-25 -5.273287e-27 -1.576508e-28 -1.626792e-30 7.299598e-32 1.013257e-32 3.463670e-34 3.146409e-35 4.082157e-37 6.505303e-38 2.965189e-40 8.185316e-41 2.255205e-43 5.436751e-44 1.915518e-46 1.779332e-47 9.370472e-50 2.781341e-51 2.049133e-53 7.638639e-54 1.069856e-52 1.678340e-51 2.050302e-50 2.783560e-49 2.831809e-48 3.305163e-47 2.752963e-46 2.743194e-45 1.827686e-44 1.538581e-43 7.905825e-43 5.526740e-42 2.065610e-41 1.166885e-40 
2.289547e-41 1.023871e-40 1.447396e-40 4.698363e-40 3.494022e-40 6.872603e-40 2.830890e-40 2.664932e-40 7.107867e-41 3.181545e-41 6.069657e-42 1.594011e-42 2.306723e-43 4.129381e-44 4.787769e-45 6.718030e-46 7.075314e-47 8.970625e-47 2.913600e-46 4.311056e-44 -3.464295e-43 3.594190e-41 -4.512172e-40 4.313952e-38 -4.616098e-37 3.377644e-35 -2.192095e-34 1.278021e-32 -4.303825e-32 2.330298e-30 -2.184642e-30 2.687172e-28 3.696191e-27 1.378351e-25 3.967061e-24 7.239990e-23 6.018177e-22 -1.674192e-20 -9.515198e-19 -1.951261e-17 -3.252453e-16 -2.885074e-15 -1.833151e-14 -1.045701e-15 1.137292e-12 1.068199e-11 8.200857e-11 3.167480e-10 1.383575e-09 2.880511e-09 8.159941e-09 8.207518e-09 7.923395e-09 4.753676e-09 1.099082e-08 -9.689022e-08 5.916484e-08 7.283824e-06 -1.853621e-05 2.018448e-05 -4.769763e-05 1.171544e-04 -2.778370e-04 1.394328e-04 3.456874e-05 5.814442e-06 7.997631e-07 -3.932113e-07 4.965896e-08 4.014913e-08 -2.785250e-08 1.811526e-08 -5.565895e-09 -1.077406e-09 4.382461e-10 -2.228438e-10 -1.219404e-10 -1.111133e-10 -1.091048e-10 -4.042773e-11 -2.082580e-11 -5.465321e-12 -1.680360e-12 -2.836438e-13 -4.772319e-14 -4.178990e-15 -2.634340e-16 3.673136e-18 2.322268e-18 2.181480e-19 1.480643e-20 5.053223e-22 1.067935e-23 -2.389857e-25 -2.683260e-26 -1.191419e-27 -3.117433e-29 -3.600483e-30 4.873200e-32 -3.793194e-32 7.435215e-34 -2.277082e-34 4.206051e-36 -6.893034e-37 1.056335e-38 -1.059660e-39 1.195904e-41 -8.084621e-43 5.759459e-45 -2.906280e-46 9.036314e-49 -4.495231e-50 -3.741596e-53 -1.569310e-54 1.481851e-53 2.136109e-52 2.414920e-51 3.070442e-50 2.938581e-49 3.268212e-48 2.594126e-47 2.500503e-46 1.602951e-45 1.323133e-44 6.586139e-44 4.574039e-43 1.663322e-42 9.464565e-42 
1.754685e-42 8.014620e-42 1.106715e-41 3.735441e-41 2.717724e-41 5.634849e-41 2.303506e-41 2.286622e-41 6.204974e-42 2.926156e-42 5.807238e-43 1.617846e-43 2.485172e-44 4.770741e-45 5.978139e-46 9.004636e-47 1.345012e-47 -3.903345e-46 9.640408e-45 -5.008339e-43 9.245306e-42 -4.565541e-40 1.108100e-38 -5.619818e-37 1.091147e-35 -4.083581e-34 4.991272e-33 -1.391489e-31 1.029844e-30 -2.301870e-29 9.484430e-29 -1.874232e-27 3.776461e-27 -5.763742e-26 4.197615e-25 1.079640e-24 -4.669330e-22 -2.392201e-20 -8.346857e-19 -1.639760e-17 -2.505489e-16 -2.006293e-15 -4.245455e-15 1.437984e-13 2.642781e-12 2.127718e-11 1.497680e-10 6.209721e-10 2.641502e-09 6.322644e-09 1.685346e-08 1.904380e-08 1.651472e-08 -7.280279e-09 1.379268e-08 -9.142419e-07 8.773978e-06 -9.993707e-06 -9.537943e-06 1.914735e-05 -2.013018e-05 -2.330701e-05 2.840065e-04 -1.779216e-04 -3.580031e-05 -1.018687e-05 -3.146445e-06 4.443322e-08 3.499522e-07 -2.738975e-07 1.974707e-07 9.611657e-09 -3.974102e-08 1.213632e-10 -1.538564e-09 4.903931e-11 -2.533646e-10 -2.513537e-10 -2.130134e-10 -8.105397e-11 -3.506264e-11 -9.121290e-12 -2.521540e-12 -4.401220e-13 -7.234755e-14 -7.108961e-15 -5.644271e-16 -1.889463e-17 5.016077e-19 1.159830e-19 8.516260e-21 3.210426e-22 8.849951e-24 1.073693e-25 -1.919913e-27 9.457920e-28 -5.386670e-29 2.816061e-29 -1.464569e-30 3.632220e-31 -1.690405e-32 2.389205e-33 -9.092196e-35 8.144022e-36 -2.392086e-37 1.428980e-38 -3.084562e-40 1.257014e-41 -1.879468e-43 5.248306e-45 -4.914620e-47 9.351603e-49 -4.246544e-51 5.756762e-53 1.973987e-54 2.606747e-53 2.748297e-52 3.266007e-51 2.955641e-50 3.124252e-49 2.371649e-48 2.205274e-47 1.363904e-46 1.100925e-45 5.320788e-45 3.661986e-44 1.298312e-43 7.425341e-43 
1.282906e-43 6.000094e-43 8.072853e-43 2.841493e-42 2.017193e-42 4.422268e-42 1.789588e-42 1.878546e-42 5.170678e-43 2.576421e-43 5.296320e-44 1.569884e-44 2.543481e-45 5.250422e-46 7.049082e-47 1.300487e-47 -1.035709e-46 7.207447e-45 -1.781120e-43 6.706046e-42 -1.288248e-40 5.093637e-39 -1.548711e-37 6.477969e-36 -1.517007e-34 4.476616e-33 -6.593809e-32 1.397586e-30 -1.313427e-29 2.108185e-28 -1.235802e-27 1.578547e-26 -5.206182e-26 5.633528e-25 -7.630752e-25 7.444545e-24 -1.195512e-22 -6.447030e-21 -2.636018e-19 -5.786081e-18 -8.952032e-17 -5.060494e-16 8.125497e-15 2.124505e-13 3.099836e-12 2.442532e-11 1.722999e-10 7.570402e-10 3.265016e-09 8.491993e-09 2.326900e-08 2.880696e-08 2.610980e-08 -6.154442e-08 -1.500647e-07 -9.166780e-07 2.490406e-06 -1.579625e-05 3.412405e-05 -2.683676e-05 5.808111e-05 -1.024628e-04 -2.312800e-04 1.888272e-04 3.516198e-05 1.313607e-05 6.535943e-06 1.854585e-06 -8.174434e-07 3.771089e-07 -4.138766e-07 2.334527e-07 -9.083797e-08 1.789701e-08 1.837276e-09 6.189501e-10 -4.091850e-10 -3.708451e-10 -2.865757e-10 -1.040258e-10 -4.010762e-11 -9.923931e-12 -2.486033e-12 -4.200154e-13 -6.612275e-14 -6.508647e-15 -5.420375e-16 -2.386335e-17 -6.168766e-19 1.534266e-20 1.785619e-21 6.529308e-23 1.627010e-24 -1.051489e-25 1.159847e-26 -8.165210e-27 7.590415e-28 -2.317405e-28 1.851018e-29 -3.233265e-30 2.082141e-31 -2.333486e-32 1.166422e-33 -8.846303e-35 3.336032e-36 -1.752274e-37 4.846045e-39 -1.769787e-40 3.459296e-42 -8.663792e-44 1.126982e-45 -1.863516e-47 1.426358e-49 -1.432116e-51 4.647024e-54 3.009178e-54 2.971300e-53 3.325278e-52 2.834966e-51 2.862683e-50 2.070537e-49 1.863829e-48 1.108301e-47 8.771450e-47 4.103516e-46 2.805075e-45 9.670102e-45 5.571228e-44 
9.045764e-45 4.326722e-44 5.677626e-44 2.081995e-43 1.443242e-43 3.341824e-43 1.340006e-43 1.484653e-43 4.148410e-44 2.178335e-44 4.639986e-45 1.457614e-45 2.489448e-46 5.487396e-47 8.038878e-48 -4.565137e-47 2.373411e-45 -1.207829e-43 2.845122e-42 -8.064618e-41 1.291410e-39 -4.038819e-38 1.514637e-36 -5.840387e-35 1.607553e-33 -4.084552e-32 6.800327e-31 -1.200129e-29 1.294277e-28 -1.673555e-27 1.184950e-26 -1.154488e-25 5.073317e-25 -3.744749e-24 8.380097e-24 -4.223634e-23 6.671668e-24 -1.624252e-22 -2.218124e-20 -7.109998e-19 -1.130726e-17 -6.370651e-17 2.999711e-15 8.017056e-14 1.231784e-12 1.231609e-11 9.401153e-11 5.359869e-10 2.533099e-09 8.821190e-09 2.869768e-08 5.642573e-08 9.335170e-08 -4.445786e-07 9.086448e-07 -1.643650e-06 -3.495487e-06 9.103555e-06 5.114717e-06 -2.293478e-05 4.559819e-05 1.875874e-04 1.257039e-04 -1.779372e-04 -3.177339e-05 -1.545941e-05 -9.207160e-06 -5.089359e-06 -9.506532e-07 3.065201e-07 -1.857948e-07 -9.262524e-08 6.845657e-08 2.602899e-08 -1.147618e-08 5.190368e-09 -1.247414e-09 -7.013140e-10 -3.507908e-10 -1.054651e-10 -2.945053e-11 -6.373200e-12 -1.160280e-12 -1.786332e-13 -2.148622e-14 -2.017041e-15 -1.321902e-16 -5.441399e-18 -1.182184e-19 1.654403e-21 1.543609e-22 4.730088e-24 -3.587624e-25 7.188299e-25 -1.273945e-25 5.466656e-26 -7.333999e-27 1.672833e-27 -1.738139e-28 2.513883e-29 -2.002262e-30 1.971809e-31 -1.189572e-32 8.228806e-34 -3.709694e-35 1.821398e-36 -6.028494e-38 2.091849e-39 -4.952260e-41 1.190629e-42 -1.931148e-44 3.078924e-46 -3.154609e-48 3.032004e-50 -1.616860e-52 1.053665e-54 3.075120e-54 3.238741e-53 2.614244e-52 2.518265e-51 1.741518e-50 1.515136e-49 8.684339e-49 6.727392e-48 3.052523e-47 2.069082e-46 6.947036e-46 4.025859e-45 
6.056676e-46 2.968661e-45 3.791674e-45 1.451776e-44 9.804674e-45 2.403422e-44 9.526817e-45 1.116454e-44 3.157617e-45 1.753991e-45 3.861877e-46 1.317105e-46 2.436841e-47 6.612914e-48 -8.822335e-48 1.032983e-45 -4.548205e-44 1.983951e-42 -4.282364e-41 9.770249e-40 -7.915944e-39 1.147583e-37 -6.549709e-36 3.338209e-34 -1.145514e-32 2.884364e-31 -5.152763e-30 8.456364e-29 -9.564154e-28 1.118316e-26 -8.427683e-26 7.201811e-25 -3.495120e-24 2.112990e-23 -5.368731e-23 1.572572e-22 2.062827e-22 -4.285191e-21 7.237561e-21 -1.411862e-19 -9.819677e-19 -1.121608e-17 3.989447e-16 1.406079e-14 2.802658e-13 3.912687e-12 3.778651e-11 2.845242e-10 1.564770e-09 7.267884e-09 2.605018e-08 8.459061e-08 1.980217e-07 3.243588e-07 -1.021124e-06 -1.792433e-06 3.703737e-06 -8.493384e-06 1.140227e-05 -3.463415e-05 -1.414131e-04 -1.271841e-04 -5.374602e-05 1.161873e-04 2.694955e-05 1.413807e-05 9.905204e-06 5.699666e-06 3.986521e-06 8.024493e-07 -2.712463e-07 1.249990e-07 -7.947677e-08 2.483185e-08 1.384253e-08 -4.101621e-09 -2.557301e-09 -1.078642e-09 -3.317827e-10 -8.862641e-11 -1.818467e-11 -3.201391e-12 -4.114384e-13 -4.733069e-14 -3.731376e-15 -2.869609e-16 -1.320293e-17 -4.518648e-19 -5.564940e-21 9.371892e-22 -5.722341e-23 2.291808e-23 1.491340e-24 -3.452946e-24 8.775405e-25 -3.163758e-25 5.080328e-26 -1.039907e-26 1.223317e-27 -1.662758e-28 1.465588e-29 -1.398819e-30 9.256523e-32 -6.344009e-33 3.132337e-34 -1.549863e-35 5.637343e-37 -1.999879e-38 5.245625e-40 -1.307418e-41 2.385941e-43 -4.009829e-45 4.770267e-47 -4.969935e-49 3.352379e-51 -1.748572e-53 3.419185e-55 2.989141e-54 2.278815e-53 2.105028e-52 1.388278e-51 1.171719e-50 6.457346e-50 4.909741e-49 2.155810e-48 1.452131e-47 4.738996e-47 2.767736e-46 
3.891405e-47 1.953245e-46 2.428810e-46 9.704331e-46 6.382024e-46 1.653728e-45 6.462509e-46 7.897864e-46 2.216392e-46 9.827393e-47 1.616936e-47 -2.175337e-47 -1.122386e-47 -1.244735e-47 2.670491e-46 -2.042780e-44 8.648361e-43 -3.423019e-41 7.381309e-40 -1.536599e-38 6.252842e-38 1.589094e-36 -5.386319e-35 -1.476408e-35 4.525190e-32 -1.371777e-30 2.961658e-29 -4.652149e-28 5.675743e-27 -6.045814e-26 4.830765e-25 -3.637328e-24 1.875541e-23 -9.210400e-23 2.194251e-22 -1.110489e-23 -4.559552e-21 4.061589e-20 -1.191474e-19 6.476901e-19 -5.200037e-19 1.860028e-18 1.949007e-18 1.394189e-16 -1.531507e-14 -3.203204e-13 -7.189950e-12 -5.596802e-11 -4.572473e-10 -1.211771e-09 -4.790042e-09 2.477030e-08 5.040419e-08 4.362221e-07 1.005775e-06 -1.788938e-06 -2.375470e-06 3.612442e-06 1.114985e-05 5.112312e-05 8.025246e-05 1.231877e-04 -2.305612e-05 -3.775378e-05 -1.927910e-05 -1.276277e-05 -9.475458e-06 -6.045067e-06 -3.375793e-06 -1.579005e-06 -4.198901e-07 -2.515925e-08 3.683674e-08 2.559794e-08 -1.379953e-08 -6.444459e-09 -7.985883e-10 -3.591643e-10 4.884252e-11 1.441604e-11 5.718551e-12 7.952229e-13 1.028193e-13 5.168136e-15 2.537086e-16 -8.556917e-18 -1.400921e-19 -3.627329e-20 3.800732e-21 -5.063365e-21 9.267361e-22 -2.813043e-22 1.777976e-23 1.027442e-23 -4.313528e-24 1.464887e-24 -2.791113e-25 5.301257e-26 -7.017656e-27 9.038833e-28 -8.806332e-29 8.117928e-30 -5.904248e-31 3.969122e-32 -2.154832e-33 1.059318e-34 -4.255841e-36 1.517123e-37 -4.433076e-39 1.122730e-40 -2.315748e-42 4.007911e-44 -5.533536e-46 6.068721e-48 -5.045426e-50 2.945287e-52 -1.087816e-54 2.628128e-55 1.891847e-54 1.676417e-53 1.058245e-52 8.661752e-52 4.600694e-51 3.431148e-50 1.460340e-49 9.767663e-49 3.102052e-48 1.824453e-47 
2.442122e-48 1.260516e-47 1.552527e-47 6.593436e-47 4.538012e-47 1.401192e-46 7.084148e-47 2.013593e-46 9.067354e-47 3.816595e-46 1.304637e-46 3.114434e-46 1.207417e-46 1.574262e-46 -5.759750e-45 3.876321e-43 -1.619684e-41 6.270698e-40 -1.445192e-38 3.226246e-37 -2.608903e-36 5.723968e-37 1.232995e-33 -2.369449e-32 1.939503e-31 1.132090e-30 -9.188174e-29 1.705065e-27 -2.350770e-26 2.460444e-25 -2.008506e-24 1.403801e-23 -7.046168e-23 2.775273e-22 -2.968130e-22 -4.763901e-21 4.302358e-20 -2.916289e-19 9.952543e-19 -4.384387e-18 6.648831e-18 -2.454987e-17 1.086145e-18 -4.934521e-17 4.987542e-16 -9.742997e-15 4.405509e-13 2.636251e-12 5.308547e-11 -1.934931e-11 -8.660828e-11 -4.776352e-09 8.717608e-08 -4.055922e-07 4.774642e-07 -1.087665e-06 -2.642897e-06 -1.235831e-05 1.733099e-06 -7.225879e-05 -1.149900e-04 -2.719917e-05 1.915423e-04 -1.002108e-04 7.974501e-06 9.174524e-06 9.002482e-06 6.317364e-06 5.241303e-06 2.637677e-06 -2.153911e-07 3.273443e-07 -4.604486e-09 1.545778e-08 -7.254476e-09 5.193313e-09 -1.022805e-09 8.567484e-11 -4.606123e-12 -5.045946e-13 -9.279282e-13 -4.704180e-14 -7.401568e-15 1.420985e-16 1.040679e-17 -1.800462e-19 -4.542144e-21 1.297779e-19 -4.093324e-20 3.507844e-20 -8.006822e-21 2.315562e-21 -2.844796e-22 2.048663e-24 1.288145e-23 -5.116155e-24 1.110827e-24 -2.115475e-25 2.985370e-26 -3.843250e-27 3.934457e-28 -3.656658e-29 2.787447e-30 -1.908310e-31 1.088100e-32 -5.502630e-34 2.332608e-35 -8.643033e-37 2.683110e-38 -7.145944e-40 1.581536e-41 -2.922619e-43 4.399572e-45 -5.281963e-47 4.942477e-49 -3.347530e-51 1.571290e-53 -6.108084e-57 1.896761e-55 1.502852e-54 8.532588e-54 6.587648e-53 3.285830e-52 2.377934e-51 9.703737e-51 6.420477e-50 1.977506e-49 1.171104e-48 
-7.849645e-49 -4.454524e-48 -8.370672e-48 -4.808052e-47 -6.281070e-47 -3.536349e-46 -2.825941e-46 -1.602380e-45 -6.362941e-46 -3.894576e-45 -1.073979e-45 -2.956584e-45 -1.043171e-45 -2.186571e-45 1.170362e-43 -7.233908e-42 3.098117e-40 -1.174741e-38 2.970691e-37 -7.050045e-36 9.123532e-35 -1.077698e-33 -4.860736e-33 2.202767e-31 -4.640450e-30 4.865616e-29 -1.902127e-28 -1.634175e-27 5.962320e-26 -6.806015e-25 6.152732e-24 -3.898122e-23 1.799397e-22 -3.703072e-22 -2.736642e-21 4.008340e-20 -2.823125e-19 1.593111e-18 -6.196923e-18 2.348115e-17 -5.186349e-17 1.386533e-16 -3.533948e-17 7.852517e-17 -2.769348e-15 3.468968e-14 -6.823863e-13 3.277921e-12 -4.782938e-11 1.820381e-10 -2.365569e-09 1.578630e-08 -1.126549e-07 1.741769e-07 2.477350e-07 1.687723e-07 -1.680969e-07 -6.837175e-07 3.346915e-05 3.521860e-05 1.576204e-05 -5.137778e-05 -3.928143e-04 2.747173e-04 6.688082e-06 -4.575055e-06 -6.642044e-06 -5.501654e-06 -4.067623e-06 -3.328777e-06 -1.479937e-06 1.037697e-07 -4.958298e-08 -5.207121e-09 -1.873041e-09 -2.535029e-09 1.315537e-09 -1.781182e-10 2.167709e-11 -7.876958e-13 1.342510e-13 -2.234780e-16 -6.072500e-16 -3.539589e-16 1.639618e-16 -1.148267e-17 1.457852e-18 -5.724558e-19 2.954892e-19 -2.092462e-19 5.621826e-20 -1.439499e-20 2.315022e-21 -2.311119e-22 -1.205751e-23 1.244629e-23 -3.343176e-24 6.492979e-25 -9.932708e-26 1.262950e-26 -1.373935e-27 1.262581e-28 -1.019241e-29 6.943684e-31 -4.200869e-32 2.130036e-33 -9.626656e-35 3.605320e-36 -1.202023e-37 3.264967e-39 -7.844136e-41 1.495204e-42 -2.485053e-44 3.131659e-46 -3.339196e-48 2.463687e-50 -1.429593e-52 3.188174e-55 -4.947840e-55 -2.822528e-54 -1.085330e-53 -6.103292e-53 -2.164271e-52 -1.195669e-51 -3.826511e-51 -2.093170e-50 -5.912596e-50 -3.267942e-49 
1.079614e-47 6.157093e-47 1.037207e-46 6.014432e-46 6.861626e-46 4.082865e-45 2.647806e-45 1.774088e-44 4.582361e-45 4.106512e-44 7.514588e-45 2.777209e-44 8.001128e-45 3.304940e-44 -2.140569e-42 1.275370e-40 -5.513637e-39 2.081064e-37 -5.573406e-36 1.372847e-34 -2.186933e-33 3.342728e-32 -2.261105e-31 1.011311e-30 3.009651e-29 -4.719794e-28 5.134686e-27 -3.438542e-26 7.938117e-26 4.326786e-25 -1.008362e-23 6.223849e-23 -2.097706e-22 -9.651376e-22 1.994726e-20 -1.813652e-19 1.164122e-18 -6.105944e-18 2.509556e-17 -9.148983e-17 2.573791e-16 -6.887366e-16 9.093487e-16 1.503796e-15 -6.213391e-14 3.453049e-13 -2.903277e-12 1.002867e-11 -5.290470e-11 1.013892e-10 8.149259e-11 -1.997223e-09 3.840064e-08 -1.190226e-07 4.387322e-08 -5.170642e-07 -2.247103e-06 -8.635581e-06 -3.207345e-05 2.786650e-05 -3.398791e-06 1.772016e-04 8.362551e-04 -5.435496e-04 -2.852096e-05 -2.450793e-06 4.496303e-06 4.573655e-06 4.311368e-06 2.806930e-06 2.016843e-06 2.624526e-07 2.639603e-08 8.329898e-09 -4.012083e-09 1.556695e-09 -4.839935e-10 3.334419e-11 -7.494360e-12 5.758109e-13 -2.718188e-13 6.200183e-14 -2.511820e-14 2.157951e-15 -9.396210e-17 -1.614158e-16 4.890559e-17 -3.934941e-19 -1.870159e-18 1.143405e-18 -3.031493e-19 6.511343e-20 -1.069859e-20 1.168277e-21 -4.487166e-23 -2.310899e-23 7.460866e-24 -1.511836e-24 2.372778e-25 -3.033827e-26 3.353245e-27 -3.103524e-28 2.549599e-29 -1.760560e-30 1.088534e-31 -5.637012e-33 2.618249e-34 -1.010045e-35 3.484945e-37 -9.848616e-39 2.470422e-40 -4.962984e-42 8.718663e-44 -1.180472e-45 1.357315e-47 -1.115921e-49 7.292861e-52 -1.352256e-54 6.083824e-54 3.523019e-53 1.389474e-52 7.971438e-52 2.899046e-51 1.646356e-50 5.366041e-50 3.026379e-49 8.468266e-49 4.778602e-48 
-1.306145e-46 -7.641647e-46 -1.197278e-45 -7.293431e-45 -7.282100e-45 -4.833261e-44 -2.304044e-44 -2.046759e-43 -1.940209e-44 -4.510764e-43 -2.838997e-44 -2.663780e-43 -4.692241e-44 -5.160856e-43 3.711602e-41 -2.109576e-39 9.298019e-38 -3.423062e-36 9.594735e-35 -2.362068e-33 4.182061e-32 -6.818672e-31 6.933291e-30 -6.792213e-29 1.834805e-28 6.890294e-28 -3.798798e-26 3.306032e-25 -2.080448e-24 8.990032e-24 -1.464036e-23 2.671238e-23 -2.738174e-22 6.743520e-21 -7.398704e-20 5.566014e-19 -3.450934e-18 1.654603e-17 -6.828437e-17 2.224105e-16 -7.231415e-16 2.387238e-15 -1.487064e-14 7.558021e-14 -4.835434e-13 1.995880e-12 -9.271254e-12 2.937372e-11 -1.034607e-10 3.016415e-10 -1.227439e-09 4.777411e-09 -3.452386e-08 1.046994e-07 2.106833e-07 1.008318e-06 9.059146e-07 4.607875e-06 -1.905337e-05 -7.588138e-05 -1.646288e-05 -2.250988e-04 -1.556494e-03 8.906312e-04 5.805122e-05 1.105795e-05 -7.940009e-07 -3.243349e-06 -3.169137e-06 -2.079061e-06 -1.965589e-06 -4.674187e-07 -5.311054e-08 9.866196e-09 9.600299e-10 -1.064212e-09 3.501581e-10 -3.942491e-11 8.430441e-12 -1.000277e-12 2.596706e-14 9.446267e-14 -7.721186e-14 2.466192e-14 -8.577985e-15 1.132156e-15 -9.503681e-17 -5.980988e-17 2.510664e-17 -6.385195e-18 1.365004e-18 -1.938979e-19 2.574191e-20 -1.290833e-21 -1.645889e-22 9.039934e-23 -2.028593e-23 3.425542e-24 -4.976762e-25 5.851297e-26 -6.313358e-27 5.550891e-28 -4.545216e-29 3.029459e-30 -1.887227e-31 9.526401e-33 -4.492263e-34 1.702340e-35 -6.006984e-37 1.680400e-38 -4.349206e-40 8.729182e-42 -1.602295e-43 2.196728e-45 -2.694979e-47 2.299503e-49 -1.678412e-51 -1.040816e-53 -7.546366e-53 -4.406727e-52 -1.758228e-51 -1.014237e-50 -3.691810e-50 -2.108157e-49 -6.797319e-49 -3.865101e-48 -1.054927e-47 -6.038106e-47 
1.603107e-45 9.768071e-45 1.390044e-44 9.110110e-44 7.567282e-44 5.899751e-43 1.660394e-43 2.438702e-42 -2.111351e-43 5.131062e-42 -4.288710e-43 2.633199e-42 1.129150e-45 7.447485e-42 -5.549808e-40 3.082558e-38 -1.362725e-36 4.965312e-35 -1.424310e-33 3.516967e-32 -6.586213e-31 1.105473e-29 -1.298990e-28 1.437046e-27 -9.025401e-27 5.604640e-26 1.871114e-26 -1.219521e-24 1.622342e-23 -8.248747e-23 2.834237e-22 -8.338551e-22 2.022687e-21 -1.801297e-20 1.577114e-19 -1.103259e-18 6.319863e-18 -2.698381e-17 7.924525e-17 -6.086012e-17 -1.173952e-15 8.328377e-15 -3.997409e-14 1.251744e-13 -2.524010e-13 2.248532e-14 4.349174e-12 -2.330613e-11 1.312213e-10 -4.392949e-10 2.033803e-09 -5.938388e-09 3.361512e-08 -7.095402e-08 -6.653750e-08 3.117313e-07 4.605704e-07 -1.084989e-06 9.672605e-05 3.734797e-05 -1.336762e-04 8.515017e-05 2.847852e-03 -1.393424e-03 -1.012820e-04 -2.298647e-05 -2.709216e-06 1.919169e-06 2.558042e-06 1.736397e-06 1.444300e-06 4.869324e-07 2.953697e-08 2.689071e-09 -2.508426e-09 7.843306e-10 -3.322004e-10 4.870574e-11 -1.280029e-11 2.300105e-12 -3.961702e-13 1.029216e-13 -4.088029e-14 3.242973e-14 -1.745824e-14 6.459529e-15 -2.155265e-15 4.674971e-16 -9.813341e-17 1.105480e-17 -8.273907e-19 -2.232262e-19 8.000978e-20 -1.915671e-20 3.443162e-21 -5.259242e-22 7.294988e-23 -8.785693e-24 1.009857e-24 -9.992077e-26 9.488712e-27 -7.612250e-28 5.812197e-29 -3.689511e-30 2.210348e-31 -1.088218e-32 5.024103e-34 -1.886285e-35 6.601666e-37 -1.854591e-38 4.819512e-40 -9.858572e-42 1.842830e-43 -2.624549e-45 3.341711e-47 -3.050476e-49 2.415360e-51 2.056583e-52 9.533116e-52 5.651143e-51 2.271528e-50 1.326918e-49 4.803455e-49 2.779913e-48 8.789652e-48 5.086241e-47 1.338579e-46 7.860810e-46 
-2.075396e-44 -1.342496e-43 -1.681519e-43 -1.223382e-42 -7.836880e-43 -7.746168e-42 -5.577594e-43 -3.129516e-41 8.573793e-42 -6.321776e-41 1.554350e-41 -2.897726e-41 6.587000e-42 -9.420576e-41 7.344799e-39 -3.945318e-37 1.786205e-35 -6.382915e-34 1.900527e-32 -4.660604e-31 9.230373e-30 -1.564515e-28 2.017467e-27 -2.331168e-26 1.815331e-25 -1.358932e-24 4.763243e-24 -1.731815e-23 -6.876644e-23 4.648885e-22 -2.624245e-21 7.373390e-21 -1.308449e-20 5.188863e-20 -3.589273e-19 2.561838e-18 -1.622032e-17 7.584779e-17 -3.017523e-16 7.445200e-16 -1.348365e-16 -9.659440e-15 7.136674e-14 -2.590599e-13 8.344746e-13 -1.488633e-12 1.153905e-12 9.040907e-12 -6.801935e-11 2.668714e-10 -1.167732e-09 3.397032e-09 -1.719557e-08 4.961733e-08 2.642551e-07 -1.433052e-06 4.797140e-06 -4.455260e-05 -9.176700e-05 9.899005e-05 5.631790e-04 6.633744e-04 -4.998659e-03 2.056954e-03 1.635020e-04 3.790266e-05 7.542069e-06 -4.647521e-07 -1.765113e-06 -1.321584e-06 -9.876040e-07 -5.175358e-07 -8.890547e-08 2.196318e-08 3.528730e-09 -2.536962e-10 2.233002e-10 -5.256498e-11 2.111078e-11 -5.998040e-12 2.349185e-12 -7.650456e-13 3.197711e-13 -9.502918e-14 3.030469e-14 -4.655683e-15 1.822808e-16 4.233580e-16 -2.062892e-16 6.514621e-17 -1.702478e-17 3.437629e-18 -6.441170e-19 9.662866e-20 -1.392832e-20 1.642108e-21 -1.899085e-22 1.827559e-23 -1.751663e-24 1.409070e-25 -1.133103e-26 7.594354e-28 -5.033337e-29 2.729138e-30 -1.437720e-31 6.063181e-33 -2.439038e-34 7.667154e-36 -2.247736e-37 4.961759e-39 -9.743554e-41 1.302223e-42 -1.202091e-44 -7.848798e-48 2.428254e-48 -4.269786e-50 5.303231e-53 -2.851856e-51 -1.278968e-50 -7.736017e-50 -3.127791e-49 -1.861094e-48 -6.665289e-48 -3.939227e-47 -1.210141e-46 -7.199655e-46 -1.802075e-45 -1.100793e-44 
2.781304e-43 1.945900e-42 2.077707e-42 1.731741e-41 7.729555e-42 1.072768e-40 -1.399350e-41 4.249021e-40 -1.904049e-40 8.326314e-40 -3.321752e-40 3.674464e-40 -1.619441e-40 8.554570e-40 -7.208441e-38 3.862194e-36 -1.812859e-34 6.535254e-33 -2.043406e-31 5.099261e-30 -1.075368e-28 1.871755e-27 -2.624883e-26 3.158465e-25 -2.806268e-24 2.269167e-23 -1.118875e-22 5.640975e-22 -7.403654e-22 9.482413e-22 2.012239e-20 -5.484850e-20 1.230872e-19 -1.615048e-19 1.913815e-19 -2.105261e-18 1.678160e-17 -9.864234e-17 5.384170e-16 -1.908574e-15 6.328315e-15 -1.139773e-14 8.304804e-15 3.468782e-14 -5.918328e-14 -9.444858e-13 8.513414e-12 -3.872824e-11 1.823942e-10 -5.758702e-10 2.400218e-09 -6.484302e-09 2.990623e-08 -6.865882e-08 -5.558109e-07 -4.386573e-06 2.043404e-05 5.851751e-05 1.542563e-05 -2.132798e-04 -1.199107e-03 -2.799330e-03 8.404416e-03 -2.988785e-03 -2.537853e-04 -5.805195e-05 -1.235178e-05 -8.081016e-07 1.202563e-06 9.205998e-07 5.761395e-07 3.409446e-07 1.355915e-07 -2.302132e-08 -1.689269e-09 1.285841e-11 -8.129484e-11 2.893685e-11 -1.493849e-11 4.675548e-12 -2.025137e-12 5.647486e-13 -1.766536e-13 1.444687e-14 1.161237e-14 -9.998262e-15 4.932127e-15 -1.669917e-15 5.149488e-16 -1.201492e-16 2.690256e-17 -4.719897e-18 8.055704e-19 -1.101659e-19 1.475161e-20 -1.613028e-21 1.742295e-22 -1.568332e-23 1.415423e-24 -1.087767e-25 8.510744e-27 -5.740694e-28 3.944465e-29 -2.318398e-30 1.363453e-31 -6.717126e-33 3.235901e-34 -1.277375e-35 4.837598e-37 -1.470144e-38 4.221321e-40 -9.499263e-42 1.989608e-43 -3.159447e-45 4.576843e-47 -4.741922e-49 1.042752e-50 3.920165e-50 1.792291e-49 1.116541e-48 4.513787e-48 2.758823e-47 9.697398e-47 5.905584e-46 1.743185e-45 1.077792e-44 2.527608e-44 1.628037e-43 
-4.082468e-42 -3.119307e-41 -2.784736e-41 -2.705385e-40 -7.306982e-41 -1.636905e-39 4.961428e-40 -6.366937e-39 3.671966e-39 -1.224673e-38 6.242897e-39 -5.699115e-39 3.429666e-39 -1.673636e-39 3.302680e-37 -1.882458e-35 1.096402e-33 -4.194041e-32 1.557818e-30 -4.100738e-29 1.002595e-27 -1.835352e-26 2.956130e-25 -3.748868e-24 3.861944e-23 -3.333575e-22 2.021751e-21 -1.144916e-20 3.122859e-20 -1.067663e-19 -9.226059e-20 2.371575e-19 -1.902469e-18 1.983307e-18 -1.106732e-18 -1.304581e-18 7.952862e-17 -2.625508e-16 1.516045e-15 -2.773884e-15 8.932245e-15 -5.364659e-15 2.244984e-15 1.109724e-13 -4.706908e-13 2.977419e-12 -1.217037e-11 5.418408e-11 -2.000969e-10 6.310939e-10 -2.280887e-09 5.640439e-09 -2.182416e-08 4.439692e-08 2.038691e-07 2.933535e-06 -1.283570e-05 -1.691323e-05 -2.976505e-05 4.881832e-05 1.553203e-03 7.646356e-03 -1.385852e-02 4.257660e-03 3.894534e-04 8.399625e-05 1.852556e-05 2.057479e-06 -7.895540e-07 -6.946526e-07 -3.852306e-07 -1.649813e-07 -8.221675e-08 1.661153e-08 1.476659e-09 1.155984e-10 -2.769165e-11 2.222120e-12 5.215095e-13 -7.018351e-14 -1.129447e-13 2.226560e-13 -1.892200e-13 1.066314e-13 -5.603086e-14 2.079244e-14 -7.703094e-15 2.090385e-15 -5.736500e-16 1.187198e-16 -2.484310e-17 4.011051e-18 -6.527171e-19 8.346364e-20 -1.073637e-20 1.102650e-21 -1.141169e-22 9.559460e-24 -8.090930e-25 5.559333e-26 -3.817537e-27 2.058615e-28 -1.041851e-29 3.443453e-31 -4.959908e-33 -5.579755e-34 6.201847e-35 -3.786930e-36 1.886445e-37 -6.963615e-39 2.325013e-40 -5.844666e-42 1.353387e-43 -2.309832e-45 3.619196e-47 -4.142817e-49 -8.441489e-50 -6.021715e-49 -2.736029e-48 -1.784630e-47 -7.092259e-47 -4.524475e-46 -1.539951e-45 -9.806550e-45 -2.748649e-44 -1.788815e-43 -3.886815e-43 -2.667978e-42 