# vtk DataFile Version 2.0
Comment goes here
ASCII

DATASET STRUCTURED_POINTS
DIMENSIONS    128   128   1

ORIGIN    0.000   0.000   0.000
SPACING   0.0156250.015625   1.000

POINT_DATA   16384
SCALARS Concentration double
LOOKUP_TABLE default

1.432545e-100 2.836604e-99 5.691140e-98 9.121742e-97 1.496205e-95 1.824156e-94 2.307722e-93 1.922612e-92 1.695406e-91 7.836112e-91 3.984463e-90 7.164680e-90 1.807356e-89 1.945352e-89 3.921363e-89 3.594466e-89 6.856135e-89 5.894713e-89 1.125536e-88 9.270257e-89 1.801559e-88 1.432091e-88 2.859569e-88 2.185622e-88 4.466033e-88 3.188060e-88 6.348143e-88 3.690492e-88 5.340290e-88 1.324395e-88 6.265408e-89 8.559012e-90 1.887819e-90 1.827726e-91 2.416099e-92 1.811576e-93 1.606764e-94 9.696013e-96 6.184820e-97 3.067366e-98 1.516208e-99 6.472965e-101 3.608326e-102 1.712124e-103 1.061826e-104 4.179679e-106 1.525223e-107 1.029926e-108 1.082599e-109 1.208711e-110 9.535559e-112 5.628226e-113 3.882319e-114 -2.466864e-114 -1.330308e-116 1.018461e-113 2.507381e-115 3.211323e-116 2.889157e-118 3.348219e-120 1.214282e-121 -1.707103e-122 -1.679716e-123 8.542383e-125 7.212268e-126 1.890935e-127 -1.218903e-129 1.204822e-131 -1.529318e-133 9.490105e-136 -5.004341e-138 6.580926e-141 3.988260e-143 1.694335e-142 4.289017e-146 1.648333e-146 -3.998253e-147 1.260098e-148 -1.609294e-150 1.730587e-152 -8.921485e-155 4.337624e-157 -1.232898e-159 4.416205e-162 -1.919190e-164 1.004118e-166 -3.490662e-169 1.263662e-169 7.389078e-168 4.541812e-166 2.783155e-164 1.752365e-162 1.108350e-160 7.081796e-159 4.568534e-157 2.928334e-155 1.903256e-153 1.210849e-151 7.841249e-150 4.906713e-148 3.135270e-146 1.914859e-144 1.196924e-142 7.086516e-141 4.299859e-139 2.452839e-137 1.434719e-135 7.841927e-134 4.394151e-132 2.289598e-130 1.221923e-128 6.039735e-127 3.052432e-125 1.423735e-123 6.772050e-122 2.962224e-120 1.316711e-118 5.359837e-117 2.208003e-115 8.284507e-114 3.132819e-112 1.070973e-110 3.677692e-109 1.129823e-107 3.480448e-106 9.450926e-105 2.574711e-103 6.053180e-102 
1.345746e-98 2.668495e-97 5.459437e-96 8.762473e-95 1.457617e-93 1.777263e-92 2.262577e-91 1.882124e-90 1.655451e-89 7.637608e-89 3.835001e-88 6.904764e-88 1.704443e-87 1.821911e-87 3.592673e-87 3.307796e-87 6.178006e-87 5.315405e-87 9.875654e-87 8.138754e-87 1.535968e-86 1.222337e-86 2.365599e-86 1.811802e-86 3.581087e-86 2.565056e-86 4.929775e-86 2.878877e-86 4.010142e-86 9.874451e-87 4.545768e-87 6.048476e-88 1.306591e-88 1.219330e-89 1.576524e-90 1.131898e-91 9.757095e-93 5.619292e-94 3.453271e-95 1.636312e-96 7.836364e-98 3.303872e-99 2.501673e-100 1.380136e-101 1.169340e-102 4.751215e-104 1.584619e-105 3.528084e-107 5.702637e-109 9.069730e-111 2.445173e-112 -2.351674e-113 -2.304071e-112 6.385988e-112 6.382542e-114 2.977761e-111 1.089044e-112 9.446954e-114 1.104327e-115 1.705465e-118 -9.825941e-120 1.877740e-120 1.062794e-121 -1.096312e-122 -6.695317e-124 -1.787786e-125 1.038494e-127 -1.257317e-129 1.957157e-131 -1.515539e-133 1.084340e-135 -4.029969e-138 5.647307e-140 7.786171e-140 8.559259e-143 -6.640191e-144 8.416257e-145 -2.774213e-146 3.332623e-148 -3.835137e-150 2.033479e-152 -1.051669e-154 2.316773e-157 -1.851649e-160 -2.507865e-162 1.508964e-164 -4.428026e-167 5.159472e-168 3.065648e-166 1.953886e-164 1.248030e-162 8.223793e-161 5.450920e-159 3.651682e-157 2.468498e-155 1.654706e-153 1.123408e-151 7.439650e-150 5.010084e-148 3.246309e-146 2.146873e-144 1.350818e-142 8.699410e-141 5.281425e-139 3.287963e-137 1.914907e-135 1.144795e-133 6.361190e-132 3.629822e-130 1.914235e-128 1.036692e-126 5.161634e-125 2.638685e-123 1.233714e-121 5.920859e-120 2.584477e-118 1.157662e-116 4.686560e-115 1.946471e-113 7.250816e-112 2.770748e-110 9.405977e-109 3.275812e-107 1.001161e-105 3.140307e-104 8.505655e-103 2.366545e-101 5.563508e-100 
1.318473e-96 2.617606e-95 5.340484e-94 8.570278e-93 1.418270e-91 1.727063e-90 2.181329e-89 1.811030e-88 1.574809e-87 7.256239e-87 3.581091e-86 6.464499e-86 1.559210e-85 1.670955e-85 3.211712e-85 2.962906e-85 5.381155e-85 4.637878e-85 8.358623e-85 6.901350e-85 1.260224e-84 1.005269e-84 1.877497e-84 1.442698e-84 2.744200e-84 1.974737e-84 3.640941e-84 2.138554e-84 2.846710e-84 6.966407e-85 3.094057e-85 4.006416e-86 8.400398e-87 7.530782e-88 9.428876e-89 6.439383e-90 5.327259e-91 2.897073e-92 1.683718e-93 7.509942e-95 3.416479e-96 1.443010e-97 1.733478e-98 1.095422e-99 1.146780e-100 4.838887e-102 1.681887e-103 4.169884e-105 7.090100e-107 5.847489e-109 -1.057096e-110 3.655268e-111 2.351383e-110 -1.014873e-109 2.007083e-111 5.307932e-109 2.877119e-110 1.586541e-111 3.585101e-113 4.409507e-115 1.290495e-117 -1.653036e-118 -4.076304e-120 1.004394e-120 4.835475e-122 1.397375e-123 -5.176445e-126 9.920410e-128 -1.792855e-129 1.714811e-131 -1.271747e-133 1.064725e-137 2.804152e-137 2.183998e-137 4.578111e-140 1.690145e-141 -1.358345e-142 4.389674e-144 -5.494910e-146 6.515280e-148 -4.055345e-150 2.430394e-152 -8.841303e-155 3.205885e-157 -8.121388e-160 2.125286e-162 -3.806685e-165 1.662299e-166 1.023700e-164 6.902778e-163 4.694465e-161 3.290814e-159 2.327470e-157 1.655951e-155 1.190310e-153 8.426624e-152 6.045523e-150 4.198449e-148 2.966847e-146 2.001929e-144 1.379952e-142 8.986318e-141 5.996494e-139 3.748414e-137 2.405783e-135 1.436640e-133 8.817180e-132 5.006622e-130 2.922527e-128 1.570639e-126 8.675392e-125 4.391661e-123 2.283695e-121 1.083392e-119 5.276170e-118 2.332491e-116 1.057811e-114 4.329400e-113 1.816567e-111 6.829583e-110 2.630894e-108 8.998821e-107 3.152658e-105 9.692173e-104 3.051710e-102 8.301131e-101 2.313493e-99 5.453562e-98 
1.261472e-94 2.506058e-93 5.100908e-92 8.179735e-91 1.347309e-89 1.637561e-88 2.053099e-87 1.700284e-86 1.462511e-85 6.726544e-85 3.264356e-84 5.904756e-84 1.392041e-83 1.494620e-83 2.800823e-83 2.586827e-83 4.569168e-83 3.940885e-83 6.889974e-83 5.692130e-83 1.005670e-82 8.028507e-83 1.446811e-82 1.113262e-82 2.037352e-82 1.469454e-82 2.598263e-82 1.530825e-82 1.946093e-82 4.719073e-83 2.019345e-83 2.532808e-84 5.149304e-85 4.401494e-86 5.332581e-87 3.424608e-88 2.714632e-89 1.370729e-90 7.487418e-92 3.073864e-93 1.332008e-94 5.926679e-96 1.288151e-96 8.638265e-98 1.055608e-98 4.233004e-100 1.513575e-101 4.210297e-103 1.002847e-104 1.769959e-106 2.216278e-108 -3.498003e-109 -1.635354e-108 1.079756e-107 2.086885e-109 4.482510e-107 2.612798e-108 1.218573e-109 3.288344e-111 5.409145e-113 6.590488e-115 1.186141e-116 8.376245e-120 -6.755863e-119 -2.846392e-120 -8.731941e-122 5.349264e-125 -6.778303e-126 1.424432e-127 -1.630832e-129 1.830882e-131 -1.111615e-133 5.246945e-135 2.910732e-135 1.228936e-137 -3.102022e-139 1.497840e-140 -4.622454e-142 5.547070e-144 -6.646346e-146 4.075523e-148 -2.438262e-150 7.824813e-153 -2.314106e-155 3.126550e-158 -2.720885e-161 -4.200036e-164 4.161810e-165 2.845924e-163 2.085017e-161 1.534772e-159 1.169399e-157 8.934789e-156 6.863866e-154 5.292829e-152 4.006034e-150 3.055553e-148 2.245211e-146 1.671586e-144 1.182194e-142 8.516157e-141 5.766519e-139 3.993744e-137 2.579200e-135 1.708357e-133 1.048563e-131 6.610638e-130 3.842412e-128 2.295225e-126 1.258491e-124 7.090542e-123 3.652009e-121 1.931781e-119 9.302287e-118 4.596941e-116 2.058420e-114 9.451031e-113 3.910306e-111 1.657498e-109 6.287811e-108 2.441846e-106 8.412530e-105 2.965065e-103 9.165403e-102 2.897357e-100 7.911156e-99 2.209054e-97 5.218687e-96 
1.173012e-92 2.333303e-91 4.734688e-90 7.592126e-89 1.243617e-87 1.509834e-86 1.877221e-85 1.552012e-84 1.319032e-83 6.061083e-83 2.888533e-82 5.240260e-82 1.205631e-81 1.298029e-81 2.367253e-81 2.190726e-81 3.755409e-81 3.243945e-81 5.488178e-81 4.540171e-81 7.738306e-81 6.186995e-81 1.072091e-80 8.266074e-81 1.449515e-80 1.048548e-80 1.769484e-80 1.046411e-80 1.263117e-80 3.036092e-81 1.243058e-81 1.507823e-82 2.952005e-83 2.394131e-84 2.787869e-85 1.666555e-86 1.256296e-87 5.782350e-89 2.932690e-90 1.076574e-91 4.527590e-93 2.405649e-94 9.064814e-95 6.046650e-96 7.858150e-97 2.662885e-98 8.807934e-100 2.485808e-101 6.484098e-103 1.475331e-104 1.806577e-106 2.717718e-107 8.703018e-107 -6.766658e-106 3.208133e-107 2.522271e-105 1.622065e-106 5.852801e-108 1.811516e-109 3.218970e-111 3.892951e-113 -5.054440e-116 1.284747e-116 3.607489e-117 1.360710e-118 4.605602e-120 1.863676e-122 4.791831e-124 -8.075881e-126 9.359971e-128 -1.071982e-129 2.159472e-132 6.295994e-133 2.582410e-133 1.639386e-135 2.918759e-137 -1.249229e-138 3.441482e-140 -4.319999e-142 5.052052e-144 -3.431959e-146 2.130661e-148 -8.187249e-151 2.796444e-153 -5.932279e-156 1.016640e-158 -1.319537e-161 7.138006e-164 6.093921e-162 4.972044e-160 4.110849e-158 3.468099e-156 2.946412e-154 2.476397e-152 2.093536e-150 1.709337e-148 1.408510e-146 1.101591e-144 8.743339e-143 6.506752e-141 4.941366e-139 3.488529e-137 2.523971e-135 1.687209e-133 1.158944e-131 7.321493e-130 4.758791e-128 2.834301e-126 1.737174e-124 9.725489e-123 5.600198e-121 2.936503e-119 1.582213e-117 7.737381e-116 3.883376e-114 1.762069e-112 8.195141e-111 3.429040e-109 1.468718e-107 5.624223e-106 2.201886e-104 7.643875e-103 2.709933e-101 8.426564e-100 2.673501e-98 7.331383e-97 2.050116e-95 4.856514e-94 
1.065665e-90 2.121655e-89 4.292933e-88 6.880637e-87 1.121177e-85 1.359099e-84 1.676327e-83 1.383054e-82 1.161800e-81 5.331910e-81 2.496003e-80 4.539694e-80 1.019410e-79 1.100033e-79 1.952419e-79 1.809364e-79 3.009925e-79 2.602067e-79 4.259157e-79 3.525060e-79 5.794431e-79 4.634703e-79 7.719477e-79 5.956029e-79 1.000324e-78 7.245899e-79 1.166415e-78 6.911484e-79 7.915337e-79 1.883207e-79 7.364093e-80 8.618188e-81 1.622054e-81 1.242241e-82 1.388864e-83 7.656535e-85 5.486177e-86 2.261011e-87 1.061653e-88 3.385121e-90 1.497891e-91 1.141145e-92 6.182770e-93 3.905822e-94 5.249205e-95 1.233010e-96 3.895729e-98 1.008323e-99 2.704757e-101 7.716999e-103 2.090867e-104 -1.135352e-105 -2.974872e-105 2.536563e-104 2.246964e-106 7.504039e-104 4.509708e-105 1.385908e-106 4.551109e-108 9.930297e-110 2.137435e-111 2.720182e-113 -8.054804e-115 -1.499366e-115 -5.415467e-117 -1.953426e-118 -1.888803e-120 -3.408378e-122 2.921820e-124 -3.608459e-126 5.600242e-128 -5.552963e-130 4.151969e-131 1.215636e-131 5.164368e-134 -2.779409e-135 6.332577e-137 -1.453045e-138 1.655040e-140 -1.788584e-142 1.120774e-144 -6.467217e-147 2.140541e-149 -6.360069e-152 7.537803e-155 -1.621800e-157 -5.911659e-160 -1.455547e-162 1.059202e-160 1.004698e-158 9.496997e-157 9.157332e-155 8.751817e-153 8.230832e-151 7.681784e-149 6.871681e-147 6.140038e-145 5.165841e-143 4.378621e-141 3.454351e-139 2.767161e-137 2.047601e-135 1.547567e-133 1.074916e-131 7.654438e-130 4.990992e-128 3.342777e-126 2.044232e-124 1.284845e-122 7.355210e-121 4.326052e-119 2.311694e-117 1.268020e-115 6.301378e-114 3.210420e-112 1.476681e-110 6.953659e-109 2.942953e-107 1.273253e-105 4.921676e-104 1.941965e-102 6.792226e-101 2.421702e-99 7.573328e-98 2.411388e-96 6.639081e-95 1.859266e-93 4.414934e-92 
9.423996e-89 1.878660e-87 3.788545e-86 6.072220e-85 9.836844e-84 1.191208e-82 1.456504e-81 1.199863e-80 9.954054e-80 4.565221e-79 2.097204e-78 3.826059e-78 8.376334e-78 9.063454e-78 1.563517e-77 1.451573e-77 2.339710e-77 2.024981e-77 3.201021e-77 2.651269e-77 4.194127e-77 3.356824e-77 5.360732e-77 4.139724e-77 6.639802e-77 4.816752e-77 7.371486e-77 4.377197e-77 4.737108e-77 1.115566e-77 4.146075e-78 4.673037e-79 8.419156e-80 6.055432e-81 6.483306e-82 3.254118e-83 2.217733e-84 7.952604e-86 3.475055e-87 9.107513e-89 5.118294e-90 6.130392e-91 3.787828e-91 2.210085e-92 2.922514e-93 2.767812e-95 1.317298e-96 2.117109e-98 5.936848e-100 1.425864e-101 3.713260e-103 9.708544e-104 9.259310e-104 -5.877669e-103 2.345795e-104 1.682101e-102 6.960103e-104 1.168860e-105 2.828422e-107 4.011473e-109 6.698242e-111 2.814365e-112 5.009290e-113 5.376057e-114 1.875540e-115 7.239842e-117 1.147562e-118 2.212663e-120 4.701208e-123 1.006417e-124 -1.082292e-126 5.193841e-129 1.802127e-129 4.318718e-130 2.814990e-132 7.535769e-134 -1.770136e-135 3.279835e-137 -3.230974e-139 2.559285e-141 -1.181092e-143 3.783361e-146 -9.874820e-149 -1.160742e-151 -2.157261e-153 -1.142782e-155 -8.340396e-158 -3.921195e-160 1.309766e-159 1.503011e-157 1.735627e-155 1.960236e-153 2.207551e-151 2.356839e-149 2.506310e-147 2.475467e-145 2.450576e-143 2.226655e-141 2.045701e-139 1.714164e-137 1.463834e-135 1.136396e-133 9.041404e-132 6.528374e-130 4.846896e-128 3.262679e-126 2.261354e-124 1.420082e-122 9.182061e-121 5.375048e-119 3.236751e-117 1.762659e-115 9.859894e-114 4.979303e-112 2.578302e-110 1.202215e-108 5.736639e-107 2.455878e-105 1.073794e-103 4.190233e-102 1.666752e-100 5.874363e-99 2.106457e-97 6.626522e-96 2.117208e-94 5.854094e-93 1.641423e-91 3.908291e-90 
8.145038e-87 1.625455e-85 3.267005e-84 5.235159e-83 8.432167e-82 1.019845e-80 1.236327e-79 1.016757e-78 8.331449e-78 3.818067e-77 1.721325e-76 3.149456e-76 6.721657e-76 7.291240e-76 1.222246e-75 1.136449e-75 1.774312e-75 1.536815e-75 2.345167e-75 1.942938e-75 2.956470e-75 2.366426e-75 3.621338e-75 2.797138e-75 4.281790e-75 3.108637e-75 4.519804e-75 2.688103e-75 2.746601e-75 6.404985e-76 2.257810e-76 2.452612e-77 4.220164e-78 2.849556e-79 2.918085e-80 1.327625e-81 8.628193e-83 2.643348e-84 1.090754e-85 2.245682e-87 2.091211e-88 3.625923e-89 2.217716e-89 1.206559e-90 1.521886e-91 -7.119308e-94 6.195645e-95 -2.588112e-98 2.020308e-98 1.826911e-100 5.624305e-102 -4.262867e-102 -2.515596e-102 9.400563e-102 6.878682e-103 2.250670e-101 1.680871e-103 1.050244e-105 7.044665e-108 4.782123e-110 -6.691673e-111 -8.456849e-111 -1.795965e-111 -1.627084e-112 -5.713177e-114 -2.221127e-115 -4.740113e-117 -9.812776e-119 -1.087441e-120 -1.065007e-122 -1.358371e-125 -4.360109e-128 6.405832e-128 9.301847e-129 1.526838e-130 -3.839401e-132 2.941474e-134 -3.049833e-136 1.302177e-138 -4.052975e-141 -2.952358e-143 -3.061429e-145 -4.510838e-147 -3.126608e-149 -2.642593e-151 -1.515411e-153 -9.444315e-156 -4.614029e-158 1.267679e-158 1.909590e-156 2.744819e-154 3.796332e-152 5.084100e-150 6.339074e-148 7.703411e-146 8.550841e-144 9.374128e-142 9.303611e-140 9.247480e-138 8.293535e-136 7.532841e-134 6.168586e-132 5.154797e-130 3.884741e-128 3.000819e-126 2.091649e-124 1.497462e-122 9.678360e-121 6.427360e-119 3.853926e-117 2.372738e-115 1.318453e-113 7.511885e-112 3.858450e-110 2.028453e-108 9.593887e-107 4.634863e-105 2.007823e-103 8.865603e-102 3.493234e-100 1.399953e-98 4.972181e-97 1.792383e-95 5.671664e-94 1.817820e-92 5.047184e-91 1.416624e-89 3.381647e-88 
6.862623e-85 1.371238e-83 2.746172e-82 4.400554e-81 7.044851e-80 8.512188e-79 1.022674e-77 8.398568e-77 6.794128e-76 3.111988e-75 1.376109e-74 2.525541e-74 5.251168e-74 5.710759e-74 9.295331e-74 8.655783e-74 1.307805e-73 1.133520e-73 1.667985e-73 1.382058e-73 2.020300e-73 1.616847e-73 2.367529e-73 1.828600e-73 2.667182e-73 1.937391e-73 2.671399e-73 1.590894e-73 1.531588e-73 3.536138e-74 1.179267e-74 1.232892e-75 2.023116e-76 1.276399e-77 1.252508e-78 5.096945e-80 3.194125e-81 8.015886e-83 3.266724e-84 4.769902e-86 9.833949e-87 2.143266e-87 1.216180e-87 6.291213e-89 7.285072e-90 -1.285069e-91 3.812377e-93 -5.085691e-95 1.324492e-96 -1.420330e-98 2.949252e-100 3.908319e-100 1.551321e-100 -9.567998e-101 -4.392430e-102 2.225198e-100 -5.508862e-102 -2.845401e-105 -1.945805e-107 -2.344017e-109 4.407764e-109 3.292723e-109 6.493051e-110 4.843260e-111 1.698227e-112 6.353633e-114 1.537043e-115 3.371571e-117 5.283215e-119 6.467523e-121 2.591793e-123 -4.208814e-126 2.885616e-126 1.537746e-127 -3.974911e-130 2.072192e-131 3.546365e-133 5.681132e-135 2.402134e-137 3.152062e-141 -3.633741e-141 -4.466882e-143 -4.571895e-145 -3.481914e-147 -2.417549e-149 -1.440726e-151 -7.933739e-154 -3.940965e-156 5.526094e-158 1.541376e-155 3.188446e-153 5.645636e-151 9.766285e-149 1.448612e-146 2.109650e-144 2.647568e-142 3.307004e-140 3.588424e-138 3.929416e-136 3.768906e-134 3.685884e-132 3.180071e-130 2.815551e-128 2.211990e-126 1.789159e-124 1.289994e-122 9.585045e-121 6.370342e-119 4.360663e-117 2.676313e-115 1.689164e-113 9.571551e-112 5.565688e-110 2.906277e-108 1.553518e-106 7.450002e-105 3.647742e-103 1.598531e-101 7.133242e-100 2.837370e-98 1.146187e-96 4.101827e-95 1.486836e-93 4.732273e-92 1.521633e-90 4.242525e-89 1.191935e-87 2.852850e-86 
5.652413e-83 1.130802e-81 2.256103e-80 3.615148e-79 5.751705e-78 6.942856e-77 8.266111e-76 6.779130e-75 5.413750e-74 2.478771e-73 1.074938e-72 1.979020e-72 4.007595e-72 4.369690e-72 6.903204e-72 6.437932e-72 9.408246e-72 8.159891e-72 1.157136e-71 9.588728e-72 1.345596e-71 1.076728e-71 1.507460e-71 1.164358e-71 1.616944e-71 1.175426e-71 1.535828e-71 9.165118e-72 8.305937e-72 1.903252e-72 5.991799e-73 6.055209e-74 9.449144e-75 5.602219e-76 5.257785e-77 1.923360e-78 1.167864e-79 2.368599e-81 1.000285e-82 1.030973e-84 5.145571e-85 1.297295e-85 6.665848e-86 3.531115e-87 3.573471e-88 -9.070961e-90 2.289288e-91 -4.077681e-93 8.676606e-95 -1.458884e-96 2.562182e-98 -2.743272e-98 -9.282516e-99 8.903026e-100 -4.948215e-102 2.059210e-99 -1.122121e-100 1.342016e-102 -2.275884e-104 9.422725e-108 -2.663951e-107 -1.262939e-107 -2.320552e-108 -1.412940e-109 -4.966099e-111 -1.773663e-112 -4.852056e-114 -1.122346e-115 -2.461024e-117 -3.830956e-119 -6.072912e-121 -2.601827e-123 1.315910e-124 1.856266e-126 -1.893771e-128 -4.785633e-130 -9.630576e-132 -1.991465e-133 -2.984903e-135 -3.952014e-137 -4.107559e-139 -3.807450e-141 -2.988995e-143 -2.135197e-145 -1.343759e-147 -7.785410e-150 -4.050387e-152 -1.961371e-154 -5.467170e-157 1.061346e-154 3.260660e-152 7.874358e-150 1.768687e-147 3.225088e-145 5.600933e-143 8.085951e-141 1.142065e-138 1.368938e-136 1.639526e-134 1.693553e-132 1.772456e-130 1.619404e-128 1.511517e-126 1.242786e-124 1.048309e-122 7.842155e-121 6.027585e-119 4.129165e-117 2.905542e-115 1.828612e-113 1.180490e-111 6.830898e-110 4.046194e-108 2.150189e-106 1.166803e-104 5.677835e-103 2.813869e-101 1.248090e-99 5.622394e-98 2.258497e-96 9.188098e-95 3.313867e-93 1.207016e-91 3.864568e-90 1.245949e-88 3.488609e-87 9.806718e-86 2.353437e-84 
4.544861e-81 9.102810e-80 1.809248e-78 2.898987e-77 4.583448e-76 5.527275e-75 6.520704e-74 5.340448e-73 4.209589e-72 1.926651e-71 8.192536e-71 1.512751e-70 2.983100e-70 3.260085e-70 4.997636e-70 4.665919e-70 6.593293e-70 5.719369e-70 7.813335e-70 6.471370e-70 8.714639e-70 6.967681e-70 9.323483e-70 7.196634e-70 9.512140e-70 6.915347e-70 8.560866e-70 5.116181e-70 4.364706e-70 9.923398e-71 2.948887e-71 2.878571e-72 4.277655e-73 2.376662e-74 2.145515e-75 6.984672e-77 4.190522e-78 6.504753e-80 3.133083e-81 2.529862e-83 2.799505e-83 7.904078e-84 3.683611e-84 2.102096e-85 1.842195e-86 -5.333354e-88 1.196737e-89 -2.337308e-91 4.483306e-93 -8.951199e-95 2.484950e-96 9.138513e-97 3.352201e-97 -7.457677e-99 -1.640937e-100 2.719587e-98 -1.059545e-99 2.134908e-101 -5.181045e-103 6.448935e-105 1.580308e-105 4.865764e-106 8.349727e-107 4.133526e-108 1.427920e-109 4.670466e-111 1.297388e-112 3.013374e-114 7.125275e-116 1.273220e-117 2.668303e-119 3.588582e-121 6.854831e-123 1.739104e-125 -7.776029e-128 -2.223568e-129 -4.881609e-131 -1.257141e-132 -2.265639e-134 -3.947669e-136 -4.945713e-138 -5.799831e-140 -5.129403e-142 -4.266694e-144 -2.803621e-146 -1.755148e-148 -9.023356e-151 -4.474889e-153 -1.825756e-155 2.139047e-154 1.933208e-151 7.221212e-149 2.569711e-146 5.935007e-144 1.330439e-141 2.215544e-139 3.675910e-137 4.850423e-135 6.492498e-133 7.192532e-131 8.167827e-129 7.874149e-127 7.822278e-125 6.711434e-123 5.944729e-121 4.603412e-119 3.678910e-117 2.592893e-115 1.882814e-113 1.213286e-111 8.035021e-110 4.742180e-108 2.867786e-106 1.549367e-104 8.549576e-103 4.218120e-101 2.118528e-99 9.504550e-98 4.326244e-96 1.754068e-94 7.191167e-93 2.612863e-91 9.567027e-90 3.080440e-88 9.960734e-87 2.800200e-85 7.877165e-84 1.895155e-82 
3.572792e-79 7.165255e-78 1.418196e-76 2.272673e-75 3.569639e-74 4.301392e-73 5.026865e-72 4.112535e-71 3.198842e-70 1.463995e-69 6.102028e-69 1.130442e-68 2.169708e-68 2.377325e-68 3.534149e-68 3.304236e-68 4.511417e-68 3.915445e-68 5.148557e-68 4.263965e-68 5.504991e-68 4.400361e-68 5.622081e-68 4.340168e-68 5.454623e-68 3.970594e-68 4.652749e-68 2.790103e-68 2.238607e-68 5.071646e-69 1.419577e-69 1.349182e-70 1.902818e-71 1.003449e-72 8.680585e-74 2.566343e-75 1.520929e-76 1.836888e-78 1.053287e-79 1.200742e-81 1.593098e-81 5.083070e-82 2.148406e-82 1.440310e-83 1.076370e-84 -2.923541e-86 5.435307e-88 -9.842578e-90 1.631052e-91 -2.811955e-93 -1.748382e-94 -1.335445e-95 -1.159528e-95 -5.979893e-98 -4.441879e-99 5.236805e-97 -1.071117e-98 1.601140e-100 -3.263895e-102 3.708304e-104 -1.129823e-103 -2.230901e-104 -3.320541e-105 -1.366960e-106 -4.389609e-108 -1.279808e-109 -3.331627e-111 -7.288912e-113 -1.628246e-114 -2.778727e-116 -5.103534e-118 -5.842885e-120 -6.787246e-122 -2.251672e-124 8.129667e-127 1.247015e-128 1.783954e-130 3.694959e-132 6.113345e-134 1.053609e-135 1.416954e-137 1.823820e-139 1.866064e-141 1.793855e-143 1.413702e-145 1.050654e-147 6.609044e-150 3.963710e-152 2.340290e-154 -3.563396e-154 1.016269e-150 6.353929e-148 3.744709e-145 1.130232e-142 3.210532e-140 6.238030e-138 1.192296e-135 1.743863e-133 2.570440e-131 3.070276e-129 3.742209e-127 3.823336e-125 4.009863e-123 3.603139e-121 3.330759e-119 2.677813e-117 2.214424e-115 1.609597e-113 1.201527e-111 7.943041e-110 5.379542e-108 3.243200e-106 1.997270e-104 1.098343e-102 6.150123e-101 3.079243e-99 1.564571e-97 7.104739e-96 3.262892e-94 1.335979e-92 5.512896e-91 2.018691e-89 7.423143e-88 2.404323e-86 7.791253e-85 2.199591e-83 6.188117e-82 1.492804e-80 
2.745340e-77 5.511414e-76 1.086540e-74 1.740979e-73 2.717115e-72 3.270856e-71 3.787396e-70 3.094412e-69 2.375634e-68 1.086868e-67 4.441727e-67 8.251333e-67 1.541987e-66 1.692787e-66 2.441236e-66 2.283832e-66 3.013969e-66 2.614751e-66 3.310743e-66 2.738884e-66 3.391743e-66 2.707459e-66 3.305092e-66 2.548883e-66 3.048878e-66 2.219732e-66 2.465606e-66 1.482133e-66 1.120650e-66 2.528621e-67 6.682279e-68 6.182209e-69 8.308509e-70 4.156658e-71 3.474418e-72 9.302928e-74 5.556440e-75 5.011742e-77 3.741076e-78 8.052650e-80 9.520179e-80 3.433399e-80 1.351704e-80 1.090616e-81 7.393371e-83 -1.646509e-84 2.311966e-86 -3.717499e-88 5.420889e-90 -1.268955e-91 2.855686e-92 -6.781184e-94 3.926594e-94 9.122791e-96 3.346403e-98 1.483313e-95 -1.241004e-97 1.118825e-99 -1.831061e-101 5.140082e-103 8.870919e-102 1.146041e-102 1.450080e-103 4.888840e-105 1.433100e-106 3.585306e-108 8.518693e-110 1.691968e-111 3.509419e-113 5.621766e-115 9.691015e-117 1.086842e-118 1.166904e-120 3.730671e-123 1.359455e-126 1.764252e-128 2.431927e-130 5.037589e-132 8.598278e-134 1.600374e-135 2.338392e-137 3.404828e-139 3.909137e-141 4.351520e-143 3.898198e-145 3.371373e-147 2.407169e-149 1.678059e-151 3.555611e-153 -1.969011e-152 2.827234e-150 -4.282548e-149 3.971150e-144 1.644036e-141 6.986755e-139 1.573659e-136 3.651812e-134 5.861951e-132 9.759610e-130 1.246918e-127 1.656231e-125 1.782580e-123 1.994017e-121 1.868037e-119 1.815364e-117 1.510008e-115 1.299118e-113 9.711964e-112 7.483220e-110 5.063903e-108 3.518272e-106 2.162799e-104 1.359587e-102 7.599030e-101 4.325639e-99 2.195133e-97 1.129929e-95 5.188168e-94 2.406587e-92 9.942377e-91 4.132796e-89 1.524064e-87 5.631696e-86 1.833863e-84 5.958179e-83 1.688447e-81 4.752137e-80 1.149067e-78 
2.062452e-75 4.146072e-74 8.136657e-73 1.304055e-71 2.021254e-70 2.431770e-69 2.788647e-68 2.276533e-67 1.724216e-66 7.890483e-66 3.159989e-65 5.889850e-65 1.070943e-64 1.178602e-64 1.647480e-64 1.543140e-64 1.966475e-64 1.706480e-64 2.078309e-64 1.718844e-64 2.039263e-64 1.627337e-64 1.895707e-64 1.462552e-64 1.663031e-64 1.213380e-64 1.276145e-64 7.712798e-65 5.490083e-65 1.240910e-65 3.089678e-66 2.812606e-67 3.588028e-68 1.735446e-69 1.392525e-70 3.507576e-72 2.080440e-73 1.579425e-75 1.420651e-76 6.217679e-78 6.041621e-78 2.523367e-78 9.322362e-79 9.576471e-80 6.081409e-81 -8.560259e-83 5.647920e-85 -5.285646e-87 6.041804e-89 1.986346e-90 -3.015407e-90 8.173966e-92 -1.610761e-92 -7.067755e-94 6.596726e-96 6.430942e-94 1.376714e-97 -4.685673e-99 6.120269e-101 -4.840054e-101 -8.057481e-100 -7.327240e-101 -7.207554e-102 -2.053870e-103 -5.153060e-105 -1.091321e-106 -2.217779e-108 -3.878318e-110 -6.907507e-112 -9.656169e-114 -1.307691e-115 -1.166624e-117 -7.761017e-120 -2.447707e-122 -1.642780e-126 -5.291490e-128 -9.388433e-130 -1.954389e-131 -3.072767e-133 -5.301778e-135 -7.140788e-137 -9.760839e-139 -1.053407e-140 -1.110873e-142 -9.363953e-145 -7.581915e-147 -4.954862e-149 -1.826476e-151 2.616342e-151 -9.523500e-151 1.714970e-148 -6.236063e-146 4.888318e-143 2.682500e-140 1.657353e-137 4.305961e-135 1.166309e-132 2.057615e-130 3.774775e-128 5.175578e-126 7.371162e-124 8.387475e-122 9.895111e-120 9.696635e-118 9.825556e-116 8.480065e-114 7.543299e-112 5.813931e-110 4.601629e-108 3.193842e-106 2.267573e-104 1.423653e-102 9.106598e-101 5.179842e-99 2.989723e-97 1.539345e-95 8.010029e-94 3.721841e-92 1.740620e-90 7.260425e-89 3.035604e-87 1.127965e-85 4.183263e-84 1.370086e-82 4.458456e-81 1.268686e-79 3.569242e-78 8.653430e-77 
1.516263e-73 3.050652e-72 5.962455e-71 9.553812e-70 1.471342e-68 1.768351e-67 2.009330e-66 1.638194e-65 1.224764e-64 5.603091e-64 2.200508e-63 4.111718e-63 7.280412e-63 8.024029e-63 1.088131e-62 1.019265e-62 1.255465e-62 1.088330e-62 1.276339e-62 1.053729e-62 1.199302e-62 9.552265e-63 1.063632e-62 8.195765e-63 8.877942e-63 6.481006e-63 6.472518e-63 3.927200e-63 2.641795e-63 5.975414e-64 1.408151e-64 1.260932e-65 1.536666e-66 7.190239e-68 5.593811e-69 1.330767e-70 7.955933e-72 5.255734e-74 5.729120e-75 4.753771e-76 4.154985e-76 2.008767e-76 7.263073e-77 9.459530e-78 6.196379e-79 -2.605226e-81 -4.556731e-83 8.539095e-85 -1.093966e-86 -1.530586e-88 3.064804e-88 -6.999464e-90 7.654431e-91 7.507153e-92 -5.405935e-93 3.501236e-92 1.071530e-94 -2.717293e-97 3.845822e-99 1.120523e-98 8.354056e-98 5.255146e-99 4.037661e-100 9.441289e-102 2.007130e-103 3.439563e-105 5.866606e-107 8.795959e-109 1.395567e-110 1.759577e-112 2.165908e-114 1.768484e-116 1.145200e-118 4.013335e-121 7.931428e-124 5.569408e-126 4.241692e-128 5.430443e-130 6.419055e-132 9.244843e-134 1.138461e-135 1.505085e-137 1.657490e-139 1.855714e-141 1.726280e-143 1.596220e-145 1.242834e-147 2.569688e-149 2.967812e-149 -3.323073e-149 8.905468e-147 -2.319088e-144 4.288623e-142 2.049234e-139 3.616470e-136 1.046706e-133 3.564851e-131 6.786123e-129 1.412936e-126 2.055108e-124 3.190923e-122 3.808403e-120 4.790156e-118 4.881978e-116 5.197612e-114 4.634182e-112 4.286077e-110 3.394091e-108 2.771108e-106 1.967216e-104 1.431849e-102 9.160106e-101 5.977028e-99 3.453209e-97 2.024828e-95 1.056055e-93 5.563351e-92 2.612329e-90 1.233207e-88 5.187544e-87 2.183594e-85 8.167514e-84 3.042373e-82 1.001366e-80 3.265753e-79 9.324977e-78 2.623715e-76 6.374257e-75 
1.089686e-71 2.195336e-70 4.269989e-69 6.844097e-68 1.046573e-66 1.257323e-65 1.414691e-64 1.152725e-63 8.501533e-63 3.891379e-62 1.497603e-61 2.807560e-61 4.836731e-61 5.342868e-61 7.021695e-61 6.583316e-61 7.828349e-61 6.785663e-61 7.652509e-61 6.313990e-61 6.883710e-61 5.480242e-61 5.823761e-61 4.490353e-61 4.626700e-61 3.388088e-61 3.208497e-61 1.961616e-61 1.245535e-61 2.838001e-62 6.316731e-63 5.632205e-64 6.529087e-65 3.021123e-66 2.258785e-67 5.323963e-69 3.121026e-70 2.242018e-72 2.455126e-73 3.739182e-74 3.061954e-74 1.758400e-74 6.261131e-75 1.074878e-75 7.407802e-77 7.279683e-79 -1.368061e-80 1.568321e-82 -7.386666e-85 1.116220e-86 -3.807569e-86 6.624935e-88 -5.236559e-89 -1.439631e-89 5.550070e-90 2.984999e-90 1.632457e-92 6.889553e-96 -6.834436e-96 -3.348358e-96 -9.154421e-96 -4.503039e-97 -2.525024e-98 -5.007577e-100 -8.371047e-102 -1.119566e-103 -1.391312e-105 -1.681198e-107 -2.204012e-109 -2.546748e-111 -2.605425e-113 -1.868861e-115 -8.592733e-118 -2.821170e-120 -4.203262e-123 -2.486889e-125 -1.594442e-127 -1.832643e-129 -1.897378e-131 -2.466297e-133 -2.712326e-135 -3.277517e-137 -3.290219e-139 -3.411773e-141 -2.933188e-143 -2.525667e-145 -1.097228e-147 2.308187e-147 3.611936e-147 1.181756e-147 3.287620e-145 -7.436627e-143 9.958535e-141 3.194318e-139 9.402062e-135 2.945959e-132 1.172427e-129 2.401185e-127 5.471317e-125 8.459536e-123 1.401736e-120 1.760378e-118 2.327884e-116 2.475351e-114 2.741787e-112 2.532604e-110 2.417644e-108 1.971816e-106 1.651284e-104 1.201422e-102 8.924445e-101 5.827287e-99 3.864539e-97 2.270909e-95 1.348688e-93 7.133135e-92 3.794887e-90 1.802380e-88 8.570622e-87 3.638526e-85 1.539235e-83 5.799090e-82 2.166456e-80 7.169904e-79 2.340584e-77 6.709638e-76 1.886103e-74 4.593974e-73 