# vtk DataFile Version 2.0
Comment goes here
ASCII

DATASET STRUCTURED_POINTS
DIMENSIONS    128   128   1

ORIGIN    0.000   0.000   0.000
SPACING   0.0156250.015625   1.000

POINT_DATA   16384
SCALARS Concentration double
LOOKUP_TABLE default

2.061409e-112 6.190411e-111 1.780083e-109 4.292217e-108 9.874957e-107 1.794574e-105 3.097425e-104 3.795965e-103 4.371105e-102 2.857161e-101 1.686516e-100 3.394648e-100 7.757216e-100 9.180198e-100 1.673049e-99 1.494672e-99 2.354880e-99 2.040375e-99 3.368633e-99 2.784349e-99 4.622027e-99 3.645938e-99 6.122122e-99 4.577043e-99 7.720635e-99 5.306936e-99 8.555641e-99 4.736575e-99 5.347103e-99 1.001033e-99 2.868324e-100 2.707296e-101 3.759873e-102 2.459501e-103 2.198949e-104 1.117748e-105 7.234470e-107 3.016906e-108 1.483705e-109 5.194043e-111 1.968991e-112 5.801196e-114 1.706886e-115 4.210924e-117 9.762853e-119 2.033507e-120 3.860438e-122 8.202252e-124 2.148286e-125 8.743523e-127 3.401205e-128 1.117445e-129 2.738305e-131 4.733431e-133 6.714959e-135 3.960555e-134 7.971343e-136 4.110572e-137 3.253758e-139 1.765275e-141 1.420441e-143 -1.247413e-146 -1.413859e-146 -3.696799e-148 -3.530447e-150 -9.296309e-153 7.919025e-156 -2.070425e-158 8.710082e-161 -1.787533e-163 3.382931e-166 3.200966e-170 -1.521275e-172 -9.858546e-172 -8.869493e-175 -1.155998e-178 1.607753e-178 -1.554528e-180 5.109822e-183 -1.162904e-185 1.120422e-188 -5.698643e-191 4.303265e-193 -1.826164e-195 1.168566e-195 1.190024e-193 1.177160e-191 1.197926e-189 1.206676e-187 1.235050e-185 1.270161e-183 1.308946e-181 1.367922e-179 1.413849e-177 1.490023e-175 1.535484e-173 1.617622e-171 1.650711e-169 1.722807e-167 1.728538e-165 1.771795e-163 1.735714e-161 1.733366e-159 1.647095e-157 1.590802e-155 1.457228e-153 1.351964e-151 1.186833e-149 1.050891e-147 8.788376e-146 7.378801e-144 5.841167e-142 4.618614e-140 3.436513e-138 2.540168e-136 1.762519e-134 1.208288e-132 7.750186e-131 4.885724e-129 2.868834e-127 1.647356e-125 8.756730e-124 4.530620e-122 2.151412e-120 9.899591e-119 4.131184e-117 1.663512e-115 5.973251e-114 
2.709607e-110 8.130641e-109 2.417942e-107 5.838655e-106 1.391046e-104 2.534039e-103 4.520786e-102 5.551667e-101 6.567483e-100 4.300111e-99 2.575387e-98 5.212304e-98 1.171678e-97 1.288202e-97 2.261957e-97 2.129638e-97 3.508649e-97 3.067576e-97 4.973358e-97 4.130219e-97 6.715236e-97 5.325274e-97 8.742897e-97 6.576653e-97 1.082696e-96 7.495414e-97 1.177127e-96 6.573195e-97 7.213310e-97 1.351900e-97 3.805221e-98 3.545801e-99 4.865802e-100 3.119889e-101 2.760033e-102 1.367918e-103 8.757216e-105 3.545910e-106 1.722044e-107 5.839587e-109 2.180796e-110 6.232674e-112 1.809000e-113 4.365228e-115 1.014804e-116 2.085206e-118 3.929951e-120 6.682750e-122 9.410225e-124 1.162982e-125 1.019039e-127 8.866675e-130 8.230860e-132 3.125627e-133 3.287167e-134 1.584683e-131 3.873808e-133 1.601168e-134 1.493531e-136 8.471398e-139 -3.753203e-142 2.782687e-143 2.812846e-144 5.687307e-146 4.479991e-148 8.835011e-151 -1.445975e-153 4.221224e-156 -1.970369e-158 5.734172e-161 -1.684357e-163 1.990431e-166 -8.029997e-169 -5.173442e-169 -7.935932e-172 8.755724e-175 -1.027520e-175 1.268667e-177 -4.417165e-180 1.391963e-182 -6.999047e-186 -3.356341e-188 2.111021e-190 -6.502862e-193 1.097118e-193 1.091175e-191 1.094865e-189 1.132534e-187 1.171931e-185 1.230482e-183 1.305581e-181 1.382238e-179 1.489282e-177 1.577699e-175 1.709113e-173 1.798407e-171 1.940148e-169 2.013184e-167 2.143252e-165 2.177413e-163 2.268123e-161 2.240380e-159 2.265552e-157 2.161333e-155 2.106648e-153 1.928818e-151 1.800268e-149 1.572461e-147 1.396886e-145 1.157235e-143 9.727938e-142 7.599458e-140 6.010486e-138 4.401172e-136 3.255725e-134 2.220201e-132 1.526280e-130 9.622812e-129 6.103127e-127 3.527399e-125 2.046537e-123 1.073295e-121 5.638217e-120 2.649437e-118 1.244256e-116 5.155386e-115 2.129651e-113 7.618102e-112 
4.221499e-108 1.267682e-106 3.763259e-105 9.087794e-104 2.158366e-102 3.930046e-101 6.978085e-100 8.564152e-99 1.006045e-97 6.589771e-97 3.900985e-96 7.933249e-96 1.754489e-95 1.939104e-95 3.344214e-95 3.165133e-95 5.112777e-95 4.494586e-95 7.130997e-95 5.957399e-95 9.459210e-95 7.551519e-95 1.208012e-94 9.157028e-95 1.465145e-94 1.023462e-94 1.557632e-94 8.790061e-95 9.316580e-95 1.751267e-95 4.806046e-96 4.425630e-97 5.951738e-98 3.739849e-99 3.242942e-100 1.564419e-101 9.794730e-103 3.836268e-104 1.813571e-105 5.918280e-107 2.134978e-108 5.861551e-110 1.631207e-111 3.808527e-113 8.573556e-115 1.754448e-116 3.341468e-118 6.012997e-120 9.157983e-122 1.266639e-123 1.129949e-125 8.064139e-128 -4.288160e-130 -1.867614e-130 1.139751e-131 4.508526e-129 1.403507e-130 4.173087e-132 5.534684e-134 4.443157e-136 2.048555e-138 -6.358176e-141 -4.056048e-142 -6.426750e-144 -4.042684e-146 -6.083152e-149 1.286048e-151 -4.408546e-154 2.294551e-156 -8.814023e-159 3.100924e-161 -1.777162e-164 -4.240031e-166 -1.923577e-166 -3.786817e-169 -9.261614e-172 4.579659e-173 -6.156151e-175 2.683505e-177 -1.085655e-179 1.941495e-182 -3.739637e-185 7.544127e-188 -1.519225e-190 8.638000e-192 8.194503e-190 8.480497e-188 9.117774e-186 9.857268e-184 1.080743e-181 1.200113e-179 1.323041e-177 1.486566e-175 1.630859e-173 1.832576e-171 1.985599e-169 2.210021e-167 2.349651e-165 2.568417e-163 2.662794e-161 2.836439e-159 2.849989e-157 2.937313e-155 2.843289e-153 2.816787e-151 2.611665e-149 2.471990e-147 2.183074e-145 1.962990e-143 1.642088e-141 1.394981e-139 1.099180e-137 8.773106e-136 6.473236e-134 4.826075e-132 3.313181e-130 2.292691e-128 1.453885e-126 9.270866e-125 5.384624e-123 3.137259e-121 1.651974e-119 8.704616e-118 4.103370e-116 1.930694e-114 8.018216e-113 3.314589e-111 1.187481e-109 
6.433711e-106 1.932688e-104 5.729032e-103 1.383025e-101 3.275544e-100 5.959144e-99 1.053460e-97 1.291636e-96 1.507240e-95 9.873365e-95 5.778697e-94 1.180431e-93 2.568914e-93 2.852925e-93 4.833293e-93 4.596136e-93 7.280028e-93 6.430840e-93 9.985109e-93 8.384942e-93 1.300151e-92 1.043867e-92 1.626871e-92 1.241190e-92 1.929711e-92 1.358081e-92 2.002328e-92 1.139808e-92 1.166190e-92 2.194180e-93 5.864770e-94 5.321173e-95 7.005158e-96 4.294426e-97 3.645579e-98 1.700349e-99 1.039575e-100 3.899365e-102 1.790309e-103 5.539562e-105 1.920930e-106 4.958586e-108 1.307736e-109 2.870083e-111 6.142688e-113 1.211057e-114 2.300852e-116 4.275038e-118 7.275803e-120 1.178811e-121 1.433217e-123 1.479004e-125 1.668061e-127 6.827693e-128 3.103988e-129 7.237120e-127 2.323164e-128 5.804707e-130 8.614780e-132 8.145024e-134 5.460071e-136 3.459336e-138 4.617577e-140 5.113470e-142 2.606690e-144 2.916709e-147 -7.469533e-150 2.799297e-152 -1.691967e-154 8.341636e-157 -4.947651e-159 1.359118e-161 -1.236467e-163 -4.044274e-164 -1.356532e-166 5.256053e-169 -1.215301e-170 1.686886e-172 -7.662608e-175 3.451576e-177 -5.907236e-180 7.838270e-183 7.198616e-186 -1.482587e-188 6.629984e-190 5.147209e-188 5.624872e-186 6.432126e-184 7.396766e-182 8.619616e-180 1.014403e-177 1.179298e-175 1.393261e-173 1.596839e-171 1.870981e-169 2.100194e-167 2.419460e-165 2.646971e-163 2.976661e-161 3.158939e-159 3.445001e-157 3.528914e-155 3.709309e-153 3.649134e-151 3.675741e-149 3.455235e-147 3.317180e-145 2.964302e-143 2.698170e-141 2.280328e-139 1.957678e-137 1.556381e-135 1.253555e-133 9.321367e-132 7.003709e-130 4.840442e-128 3.371576e-126 2.150241e-124 1.378543e-122 8.044625e-121 4.707088e-119 2.487991e-117 1.315109e-115 6.217290e-114 2.931277e-112 1.219794e-110 5.046992e-109 1.810209e-107 
9.564913e-104 2.875730e-102 8.507463e-101 2.054156e-99 4.848434e-98 8.818267e-97 1.550941e-95 1.900961e-94 2.201658e-93 1.443380e-92 8.343747e-92 1.713275e-91 3.664723e-91 4.092608e-91 6.801843e-91 6.503790e-91 1.008535e-90 8.959379e-91 1.358828e-90 1.147933e-90 1.734279e-90 1.401597e-90 2.122337e-90 1.631186e-90 2.456130e-90 1.743235e-90 2.479956e-90 1.425514e-90 1.401065e-90 2.641415e-91 6.835288e-92 6.112184e-93 7.824806e-94 4.674784e-95 3.856137e-96 1.733441e-97 1.025907e-98 3.661284e-100 1.614920e-101 4.680109e-103 1.535809e-104 3.646877e-106 8.865674e-108 1.765924e-109 3.435023e-111 6.227539e-113 1.111039e-114 2.023805e-116 3.550413e-118 6.525546e-120 9.869496e-122 1.182171e-123 -2.471037e-126 -1.269301e-125 4.893075e-127 7.986078e-125 2.738626e-126 5.279358e-128 8.653328e-130 8.632251e-132 6.683532e-134 1.498326e-136 -2.145683e-138 -2.652406e-140 -1.118221e-142 -1.152531e-145 2.306748e-148 -8.567029e-151 5.148777e-153 -2.639050e-155 1.767022e-157 -5.451225e-160 -1.863566e-161 -5.829451e-162 -2.603321e-164 -9.971697e-167 2.343954e-168 -3.019870e-170 1.606286e-172 -7.892406e-175 1.959178e-177 -4.176959e-180 5.831518e-183 -1.348759e-186 6.478914e-188 2.485208e-186 2.993059e-184 3.743148e-182 4.730723e-180 5.970288e-178 7.622233e-176 9.455666e-174 1.193912e-171 1.440031e-169 1.779519e-167 2.078961e-165 2.499221e-163 2.821987e-161 3.284287e-159 3.574964e-157 4.009176e-155 4.192866e-153 4.509757e-151 4.513711e-149 4.634483e-147 4.420297e-145 4.312443e-143 3.901936e-141 3.600220e-139 3.075561e-137 2.671007e-135 2.143403e-133 1.743300e-131 1.306870e-129 9.900232e-128 6.890494e-126 4.832219e-124 3.100333e-122 1.998545e-120 1.172169e-118 6.887461e-117 3.655511e-115 1.937979e-113 9.191729e-112 4.341247e-110 1.810859e-108 7.496612e-107 2.693096e-105 
1.390851e-101 4.184125e-100 1.235546e-98 2.983065e-97 7.018282e-96 1.275797e-94 2.232875e-93 2.735241e-92 3.144798e-91 2.062968e-90 1.178000e-89 2.430909e-89 5.111085e-89 5.738097e-89 9.355518e-89 8.991810e-89 1.364995e-88 1.218941e-88 1.805581e-88 1.533700e-88 2.257171e-88 1.834978e-88 2.698864e-88 2.087921e-88 3.043620e-88 2.176325e-88 2.985892e-88 1.731042e-88 1.633225e-88 3.082101e-89 7.711197e-90 6.786161e-91 8.434234e-92 4.898864e-93 3.918933e-94 1.691053e-95 9.665625e-97 3.259210e-98 1.376919e-99 3.690611e-101 1.139690e-102 2.431990e-104 5.358457e-106 9.309337e-108 1.588607e-109 2.513142e-111 4.007173e-113 6.680026e-115 1.123948e-116 2.206914e-118 4.184342e-120 9.184810e-122 1.383113e-123 1.253211e-123 1.926809e-125 4.895618e-123 1.501386e-124 2.407656e-126 4.034694e-128 4.588274e-130 5.117384e-132 4.034852e-134 2.731135e-136 1.187114e-138 3.031990e-141 2.427515e-144 -2.219941e-147 2.308403e-149 -9.890012e-152 5.872750e-154 -4.838595e-156 2.606002e-158 -2.204099e-159 -4.692918e-160 -1.471041e-162 2.588089e-164 -2.591424e-166 2.804058e-168 -1.449204e-170 7.127019e-173 -1.787185e-175 4.330160e-178 -6.812163e-182 1.419740e-183 1.018876e-185 9.780808e-185 1.338671e-182 1.906012e-180 2.699743e-178 3.788039e-176 5.304024e-174 7.137777e-172 9.684477e-170 1.242229e-167 1.622882e-165 1.987081e-163 2.494636e-161 2.921376e-159 3.518556e-157 3.942178e-155 4.544401e-153 4.864766e-151 5.351189e-149 5.459554e-147 5.710538e-145 5.534474e-143 5.483736e-141 5.029277e-139 4.701359e-137 4.062803e-135 3.567583e-133 2.891302e-131 2.373667e-129 1.794556e-127 1.370186e-125 9.605469e-124 6.780131e-122 4.376633e-120 2.836111e-118 1.671791e-116 9.862994e-115 5.255915e-113 2.794497e-111 1.329516e-109 6.290248e-108 2.629615e-106 1.089256e-104 3.918383e-103 
1.974081e-99 5.944050e-98 1.751384e-96 4.229704e-95 9.914886e-94 1.802102e-92 3.136944e-91 3.842224e-90 4.382599e-89 2.878146e-88 1.622265e-87 3.365863e-87 6.950548e-87 7.847972e-87 1.254058e-86 1.212057e-86 1.799182e-86 1.615764e-86 2.334388e-86 1.994593e-86 2.854935e-86 2.335682e-86 3.330260e-86 2.594477e-86 3.652918e-86 2.632727e-86 3.473757e-86 2.032151e-86 1.834293e-86 3.466814e-87 8.350597e-88 7.231515e-89 8.686140e-90 4.898100e-91 3.781945e-92 1.560981e-93 8.574553e-95 2.711324e-96 1.091762e-97 2.663681e-99 7.698035e-101 1.424998e-102 2.806783e-104 3.947763e-106 5.801379e-108 7.135749e-110 1.006369e-111 1.227809e-113 1.804074e-115 2.938649e-117 5.283837e-119 1.260768e-120 3.122872e-122 -7.183652e-122 1.284759e-123 2.178210e-121 4.707662e-123 4.249701e-125 5.302737e-127 4.080901e-129 3.558905e-131 2.114828e-133 1.198039e-135 4.609420e-138 1.243086e-140 1.050157e-143 -1.287543e-145 -1.569250e-147 -3.350400e-150 -2.512608e-152 1.419347e-154 -2.285293e-157 -1.829247e-157 -2.743404e-158 -1.247575e-160 -9.932992e-163 1.203974e-164 -1.094882e-166 4.903194e-169 -1.662238e-171 3.826903e-174 3.577568e-177 6.886216e-179 3.016498e-181 1.788937e-183 2.744577e-183 4.644314e-181 7.810432e-179 1.310109e-176 2.082488e-174 3.307793e-172 4.870187e-170 7.251195e-168 9.927806e-166 1.390096e-163 1.786614e-161 2.364557e-159 2.873684e-157 3.606177e-155 4.159789e-153 4.953892e-151 5.428783e-149 6.130312e-147 6.375714e-145 6.813294e-143 6.709785e-141 6.767027e-139 6.290709e-137 5.967836e-135 5.217085e-133 4.637901e-131 3.796089e-129 3.148633e-127 2.400753e-125 1.848684e-123 1.305439e-121 9.278684e-120 6.026457e-118 3.926740e-116 2.326594e-114 1.378325e-112 7.375745e-111 3.932864e-109 1.877250e-107 8.896151e-106 3.728041e-104 1.544848e-102 5.566362e-101 
2.739958e-97 8.256649e-96 2.427467e-94 5.863449e-93 1.369501e-91 2.488545e-90 4.308695e-89 5.276312e-88 5.971073e-87 3.925580e-86 2.184059e-85 4.555721e-85 9.238958e-85 1.049044e-84 1.642669e-84 1.596297e-84 2.316560e-84 2.091749e-84 2.946758e-84 2.532054e-84 3.523540e-84 2.900093e-84 4.006845e-84 3.142322e-84 4.271013e-84 3.101301e-84 3.932947e-84 2.320663e-84 2.002514e-84 3.791077e-85 8.778572e-86 7.484560e-87 8.671455e-88 4.749723e-89 3.531516e-90 1.394557e-91 7.343039e-93 2.175410e-94 8.329570e-96 1.840672e-97 4.972554e-99 7.825784e-101 1.375431e-102 1.464950e-104 1.987805e-106 1.695657e-108 2.727443e-110 9.917079e-113 2.992172e-114 1.835080e-116 3.493033e-118 5.360395e-120 -1.949015e-122 2.789080e-120 1.048068e-121 6.078866e-120 3.151158e-122 1.212683e-124 4.991212e-127 1.769923e-129 9.382817e-132 3.131656e-134 1.441703e-136 1.582343e-138 2.696357e-140 6.435276e-142 8.977422e-144 1.196686e-145 8.584071e-148 5.308533e-150 7.270234e-153 1.049020e-155 -1.059831e-155 -1.018496e-156 -9.830311e-159 1.284733e-160 -4.344150e-163 1.971653e-165 -3.053568e-168 1.029315e-170 2.405158e-172 1.568889e-174 1.192568e-176 5.546553e-179 2.723559e-181 6.336985e-182 1.364653e-179 2.879250e-177 5.819833e-175 1.081802e-172 1.957859e-170 3.207386e-168 5.235344e-166 7.727250e-164 1.156556e-161 1.570599e-159 2.184931e-157 2.768730e-155 3.610266e-153 4.302800e-151 5.281205e-149 5.940758e-147 6.872916e-145 7.302105e-143 7.958881e-141 7.977657e-139 8.177872e-137 7.715671e-135 7.419538e-133 6.567880e-131 5.905191e-129 4.885021e-127 4.090269e-125 3.147023e-123 2.442359e-121 1.737885e-119 1.243130e-117 8.125889e-116 5.321469e-114 3.169632e-112 1.884913e-110 1.012938e-108 5.415279e-107 2.593294e-105 1.230725e-103 5.169714e-102 2.142865e-100 7.732983e-99 
3.713985e-95 1.120223e-93 3.285675e-92 7.939132e-91 1.847177e-89 3.356401e-88 5.778527e-87 7.076396e-86 7.942388e-85 5.228545e-84 2.870218e-83 6.019962e-83 1.198436e-82 1.368572e-82 2.098915e-82 2.050947e-82 2.907961e-82 2.640234e-82 3.623999e-82 3.131665e-82 4.233030e-82 3.505091e-82 4.687574e-82 3.700537e-82 4.849376e-82 3.547605e-82 4.317696e-82 2.569664e-82 2.116175e-82 4.013398e-83 8.914581e-84 7.480926e-85 8.343205e-86 4.433816e-87 3.169864e-88 1.194341e-89 6.026984e-91 1.663026e-92 6.072149e-94 1.197974e-95 3.058931e-97 3.910999e-99 6.370061e-101 4.294679e-103 7.864022e-105 3.268874e-107 1.274615e-108 -1.037652e-110 1.897994e-112 -1.420180e-114 1.876701e-116 -4.828147e-119 1.276135e-119 -6.574440e-119 -1.703095e-120 1.230016e-118 -1.234382e-120 -1.596693e-123 -5.103665e-126 -8.492016e-129 -2.721783e-130 1.722710e-133 -1.228148e-135 -5.720189e-137 -1.308649e-138 -3.209189e-140 -5.038663e-142 -7.131614e-144 -6.957666e-146 -5.342341e-148 -1.310744e-150 -3.377651e-154 -7.980773e-154 -2.831231e-155 3.435309e-158 -1.302848e-159 -1.302904e-161 -1.200825e-163 -1.815158e-166 1.918964e-168 3.546951e-170 2.578162e-172 1.514785e-174 7.181167e-177 3.015615e-179 9.720383e-181 2.977375e-178 8.354004e-176 2.236218e-173 4.932271e-171 1.063569e-168 1.939811e-166 3.555031e-164 5.642089e-162 9.158794e-160 1.310514e-157 1.935142e-155 2.550928e-153 3.480653e-151 4.278274e-149 5.440574e-147 6.273318e-145 7.465696e-143 8.094120e-141 9.026339e-139 9.201181e-137 9.610507e-135 9.196592e-133 8.981359e-131 8.046424e-129 7.327644e-127 6.124016e-125 5.182113e-123 4.021960e-121 3.148499e-119 2.256972e-117 1.625733e-115 1.069314e-113 7.041047e-112 4.215543e-110 2.517110e-108 1.358336e-106 7.281830e-105 3.498561e-103 1.662815e-101 7.001637e-100 2.902886e-98 1.049282e-96 
4.921629e-93 1.485885e-91 4.347298e-90 1.050809e-88 2.435257e-87 4.424942e-86 7.574583e-85 9.276770e-84 1.032548e-82 6.807355e-82 3.686568e-81 7.775388e-81 1.519169e-80 1.744877e-80 2.620226e-80 2.574623e-80 3.565317e-80 3.255045e-80 4.351387e-80 3.781742e-80 4.962725e-80 4.134372e-80 5.348945e-80 4.251083e-80 5.367676e-80 3.956942e-80 4.618733e-80 2.773690e-80 2.178316e-80 4.144501e-81 8.817855e-82 7.302473e-83 7.823885e-84 4.049704e-85 2.777183e-86 1.004084e-87 4.843577e-89 1.255193e-90 4.363801e-92 7.774210e-94 1.885867e-95 1.966385e-97 3.121876e-99 1.172742e-101 4.950030e-103 1.164921e-105 9.468526e-107 -1.261171e-108 1.787924e-110 -1.890668e-112 2.075990e-114 -1.782505e-116 -1.625128e-117 1.470295e-117 1.606708e-119 2.375817e-117 -5.391132e-119 2.253814e-121 -1.605189e-123 -7.807219e-127 2.507280e-128 -6.078435e-131 1.045309e-133 2.909963e-135 6.666375e-137 1.576376e-138 2.777711e-140 4.143792e-142 5.591180e-144 5.444572e-146 5.028787e-148 9.692161e-151 -5.930089e-152 -5.916267e-154 3.115926e-156 5.206380e-158 6.764734e-160 8.895119e-162 8.285057e-164 6.804988e-166 4.288592e-168 2.415579e-170 1.131299e-172 4.874689e-175 1.844773e-177 1.626636e-179 5.861183e-177 2.369518e-174 8.453845e-172 2.267386e-169 5.752214e-167 1.179887e-164 2.396616e-162 4.115621e-160 7.171960e-158 1.086486e-155 1.689714e-153 2.326124e-151 3.301642e-149 4.198854e-147 5.507125e-145 6.526421e-143 7.961225e-141 8.827132e-139 1.004337e-136 1.043022e-134 1.107531e-132 1.076487e-130 1.065720e-128 9.674206e-127 8.910063e-125 7.529823e-123 6.431413e-121 5.038761e-119 3.974704e-117 2.871892e-115 2.081400e-113 1.378105e-111 9.117760e-110 5.488629e-108 3.288805e-106 1.782535e-104 9.578022e-103 4.617369e-101 2.197082e-99 9.274315e-98 3.845059e-96 1.392166e-94 
6.372258e-91 1.925615e-89 5.619729e-88 1.358870e-86 3.136648e-85 5.699496e-84 9.699849e-83 1.188117e-81 1.311320e-80 8.658062e-80 4.625301e-79 9.808568e-79 1.880767e-78 2.172277e-78 3.193780e-78 3.154908e-78 4.266536e-78 3.915658e-78 5.097285e-78 4.453675e-78 5.673164e-78 4.753010e-78 5.947847e-78 4.756609e-78 5.786066e-78 4.295957e-78 4.808810e-78 2.912470e-78 2.181460e-78 4.162552e-79 8.483221e-80 6.930647e-81 7.138271e-82 3.596342e-83 2.370453e-84 8.214592e-86 3.805074e-87 9.242820e-89 3.090103e-90 4.946370e-92 1.169135e-93 9.654673e-96 1.663208e-97 2.670002e-100 4.107818e-101 1.063767e-103 8.013173e-105 -1.215708e-106 1.500916e-108 -1.711081e-110 1.743308e-112 -1.961644e-114 1.032452e-115 -4.870037e-116 -6.833708e-118 6.394675e-116 -9.795709e-118 7.796494e-120 -8.234935e-122 4.362694e-124 -2.284099e-126 4.392505e-129 -7.989553e-132 -1.444852e-133 -3.324399e-135 -7.297535e-137 -1.310836e-138 -1.961421e-140 -2.869739e-142 -3.210053e-144 -4.086032e-146 -3.517359e-148 -4.239696e-150 -1.039993e-152 1.335799e-155 1.914662e-157 2.288280e-159 3.253368e-161 3.420404e-163 3.500983e-165 2.678074e-167 1.922043e-169 1.073016e-171 5.633946e-174 2.397690e-176 1.004804e-178 7.770701e-176 5.077358e-173 2.927966e-170 9.477440e-168 2.980350e-165 6.773497e-163 1.560162e-160 2.866588e-158 5.434679e-156 8.648471e-154 1.429594e-151 2.044005e-149 3.038448e-147 3.982359e-145 5.415247e-143 6.576849e-141 8.257276e-139 9.342903e-137 1.088113e-134 1.149354e-132 1.243944e-130 1.226497e-128 1.233423e-126 1.133317e-124 1.057365e-122 9.028245e-121 7.793400e-119 6.159436e-117 4.900761e-115 3.567245e-113 2.603211e-111 1.734277e-109 1.153562e-107 6.979556e-106 4.198590e-104 2.284997e-102 1.230978e-100 5.953290e-99 2.836517e-97 1.200181e-95 4.976274e-94 1.804623e-92 
8.062853e-89 2.439101e-87 7.098550e-86 1.717346e-84 3.947400e-83 7.174138e-82 1.213610e-80 1.487071e-79 1.627095e-78 1.076219e-77 5.669890e-77 1.209234e-76 2.274770e-76 2.642645e-76 3.802435e-76 3.777088e-76 4.985793e-76 4.601019e-76 5.829109e-76 5.122007e-76 6.329119e-76 5.334856e-76 6.452612e-76 5.195475e-76 6.083888e-76 4.553131e-76 4.883939e-76 2.986843e-76 2.132061e-76 4.090747e-77 7.974940e-78 6.457044e-79 6.380639e-80 3.151102e-81 1.991467e-82 6.688250e-84 2.966831e-85 6.880522e-87 2.206664e-88 3.284886e-90 7.568744e-92 5.369606e-94 1.028991e-95 2.101433e-98 3.908540e-99 2.189956e-101 7.879873e-103 -1.107779e-104 1.111201e-106 -1.109577e-108 8.570328e-111 -4.686561e-113 -2.630104e-114 2.272598e-114 1.642751e-116 2.518453e-114 -1.436743e-116 7.280295e-119 -6.025780e-121 2.983901e-123 -1.564895e-125 3.909908e-128 2.055555e-130 8.045717e-132 1.788862e-133 3.554598e-135 6.026942e-137 8.492963e-139 1.169970e-140 1.231333e-142 1.342129e-144 9.018138e-147 5.795766e-149 1.039059e-151 -8.468039e-155 -2.996272e-157 1.508818e-159 5.566523e-161 7.277757e-163 8.367511e-165 6.264977e-167 4.175095e-169 1.731298e-171 4.510158e-174 -1.583056e-176 -1.797079e-177 1.192746e-174 1.251614e-171 1.155970e-168 4.435809e-166 1.644241e-163 4.120817e-161 1.043452e-158 2.052398e-156 4.151291e-154 6.955777e-152 1.206240e-149 1.796273e-147 2.771041e-145 3.753314e-143 5.256368e-141 6.558721e-139 8.433021e-137 9.758406e-135 1.158869e-132 1.247339e-130 1.371844e-128 1.374216e-126 1.400440e-124 1.304139e-122 1.230145e-120 1.062328e-118 9.253129e-117 7.383463e-115 5.917664e-113 4.342221e-111 3.187148e-109 2.137559e-107 1.428115e-105 8.688324e-104 5.243104e-102 2.866076e-100 1.547079e-98 7.507795e-97 3.580142e-95 1.518695e-93 6.294898e-92 2.286839e-90 
9.971385e-87 3.019093e-85 8.763650e-84 2.120933e-82 4.855277e-81 8.824560e-80 1.484065e-78 1.818827e-77 1.973259e-76 1.307236e-75 6.793506e-75 1.456550e-74 2.689087e-74 3.140594e-74 4.424184e-74 4.416630e-74 5.692939e-74 5.279058e-74 6.512110e-74 5.750237e-74 6.896470e-74 5.843436e-74 6.836080e-74 5.536541e-74 6.246938e-74 4.707748e-74 4.845187e-74 2.989005e-74 2.037026e-74 3.926973e-75 7.338960e-76 5.885815e-77 5.598204e-78 2.709055e-79 1.650113e-80 5.371658e-82 2.301137e-83 5.104298e-85 1.592716e-86 2.220415e-88 5.115670e-90 3.226911e-92 7.224662e-94 3.283253e-96 4.208435e-97 4.285038e-99 1.006181e-100 -1.137375e-102 9.080789e-105 -7.963498e-107 5.193309e-109 -1.273313e-110 -9.043210e-113 -1.869771e-112 -2.559944e-115 1.423448e-112 -4.850935e-116 3.187254e-118 -2.569956e-120 1.205471e-122 -6.397282e-125 -2.264375e-127 -1.956792e-128 -5.028648e-130 -1.029956e-131 -1.790645e-133 -2.827075e-135 -3.651609e-137 -4.725207e-139 -4.720580e-141 -4.986694e-143 -3.555970e-145 -2.460046e-147 -6.401580e-150 -7.048927e-153 -5.557332e-155 -4.476906e-157 -5.209215e-159 -5.044217e-161 -5.311563e-163 -4.451151e-165 -3.722853e-167 -2.489133e-169 -1.619247e-171 -8.610262e-174 -1.511172e-175 2.264564e-173 1.649807e-170 4.778760e-167 2.009300e-164 9.167793e-162 2.445799e-159 6.923823e-157 1.429475e-154 3.117535e-152 5.433204e-150 9.962606e-148 1.532675e-145 2.468940e-143 3.436416e-141 4.981211e-139 6.359500e-137 8.407922e-135 9.919893e-133 1.205182e-130 1.318723e-128 1.477759e-126 1.501197e-124 1.553617e-122 1.464137e-120 1.398694e-118 1.220187e-116 1.073893e-114 8.642909e-113 6.985422e-111 5.162858e-109 3.814774e-107 2.573928e-105 1.728453e-103 1.056750e-101 6.400736e-100 3.512742e-98 1.900679e-96 9.252083e-95 4.416977e-93 1.877907e-91 7.783256e-90 2.831837e-88 
1.204553e-84 3.651297e-83 1.056693e-81 2.559006e-80 5.832197e-79 1.060414e-77 1.772271e-76 2.173326e-75 2.337041e-74 1.551390e-73 7.949706e-73 1.714157e-72 3.104425e-72 3.646421e-72 5.026283e-72 5.044947e-72 6.345900e-72 5.916001e-72 7.100609e-72 6.304359e-72 7.332782e-72 6.250156e-72 7.066029e-72 5.761897e-72 6.258528e-72 4.755596e-72 4.691965e-72 2.925247e-72 1.901832e-72 3.696746e-73 6.614239e-74 5.286045e-75 4.829892e-76 2.311616e-77 1.353686e-78 4.334568e-80 1.787461e-81 3.888208e-83 1.174452e-84 1.611788e-86 3.662066e-88 2.401949e-90 5.752562e-92 5.936760e-94 5.120741e-95 8.957247e-97 1.661337e-98 -1.168743e-100 6.448002e-103 -4.271264e-105 2.495923e-107 1.835914e-108 5.685115e-110 2.667130e-110 -2.211432e-112 1.187325e-110 4.316882e-113 1.708390e-116 -1.508323e-118 4.694293e-121 1.244493e-124 4.229897e-125 1.709444e-126 3.651573e-128 6.539102e-130 9.923176e-132 1.384241e-133 1.600160e-135 1.788056e-137 1.544642e-139 1.265958e-141 6.911088e-144 2.915480e-146 6.512500e-149 6.159800e-152 4.176495e-154 2.960102e-156 3.079162e-158 2.621208e-160 2.488654e-162 1.880434e-164 1.442319e-166 8.812756e-169 5.250920e-171 2.515411e-173 -8.801818e-174 2.044114e-171 4.014113e-169 2.683432e-165 1.150896e-162 5.762460e-160 1.610943e-157 4.849087e-155 1.047418e-152 2.395516e-150 4.345383e-148 8.279970e-146 1.318652e-143 2.192295e-141 3.143133e-139 4.676769e-137 6.123756e-135 8.274216e-133 9.974898e-131 1.234019e-128 1.375308e-126 1.564596e-124 1.614460e-122 1.691900e-120 1.615794e-118 1.559619e-116 1.375998e-114 1.221305e-112 9.923307e-111 8.074983e-109 6.015990e-107 4.468885e-105 3.035349e-103 2.046471e-101 1.258005e-99 7.640876e-98 4.211708e-96 2.282558e-94 1.114901e-92 5.325217e-91 2.269855e-89 9.401931e-88 3.426939e-86 
1.422559e-82 4.315555e-81 1.245604e-79 3.017451e-78 6.849025e-77 1.245357e-75 2.069247e-74 2.538102e-73 2.706426e-72 1.799481e-71 9.097511e-71 1.971524e-70 3.505151e-70 4.137430e-70 5.585018e-70 5.631161e-70 6.918668e-70 6.477843e-70 7.572760e-70 6.752734e-70 7.626597e-70 6.530884e-70 7.145918e-70 5.858541e-70 6.137666e-70 4.695281e-70 4.451891e-70 2.800623e-70 1.742786e-70 3.411068e-71 5.866181e-72 4.667197e-73 4.118597e-74 1.948298e-75 1.105301e-76 3.481903e-78 1.397600e-79 2.988289e-81 8.879273e-83 1.209937e-84 2.770174e-86 1.963941e-88 5.163972e-90 9.854982e-92 7.344576e-93 1.928858e-94 3.665061e-96 -8.224381e-99 5.245175e-101 -1.988045e-103 -1.610116e-105 -5.017911e-106 -1.472877e-107 -8.008751e-108 1.711080e-108 1.235098e-108 5.504572e-111 1.113163e-113 -3.046345e-116 6.525260e-119 -3.953660e-121 -5.195788e-123 -1.704246e-124 -2.889820e-126 -4.512175e-128 -5.817081e-130 -7.291006e-132 -7.515168e-134 -7.676450e-136 -6.037791e-138 -4.597339e-140 -2.407497e-142 -1.058132e-144 -2.891518e-147 -5.712382e-150 -2.720011e-152 -1.366808e-154 -1.066579e-156 -7.606772e-159 -6.456430e-161 -4.679049e-163 -3.613354e-165 -2.335082e-167 -1.534124e-169 -8.442551e-172 -8.283863e-172 2.378705e-169 -8.421677e-169 1.736044e-163 6.800538e-161 3.781935e-158 1.060755e-155 3.426999e-153 7.566004e-151 1.828970e-148 3.403917e-146 6.785183e-144 1.107997e-141 1.911897e-139 2.804732e-137 4.304119e-135 5.752034e-133 7.974192e-131 9.786634e-129 1.236892e-126 1.400058e-124 1.621307e-122 1.695483e-120 1.803161e-118 1.741870e-116 1.701828e-114 1.516167e-112 1.359104e-110 1.113433e-108 9.132929e-107 6.851352e-105 5.121448e-103 3.498557e-101 2.370035e-99 1.463724e-97 8.920624e-96 4.935439e-94 2.680500e-92 1.313027e-90 6.277424e-89 2.681328e-87 1.110371e-85 4.052887e-84 
1.640055e-80 4.981298e-79 1.433171e-77 3.474395e-76 7.850202e-75 1.428148e-73 2.358002e-72 2.894540e-71 3.059099e-70 2.038503e-69 1.016259e-68 2.214631e-68 3.863030e-68 4.584917e-68 6.056808e-68 6.138249e-68 7.360683e-68 6.926218e-68 7.879388e-68 7.062303e-68 7.737376e-68 6.663160e-68 7.048644e-68 5.817331e-68 5.871715e-68 4.529767e-68 4.123108e-68 2.623310e-68 1.561023e-68 3.088997e-69 5.098916e-70 4.065883e-71 3.458029e-72 1.633392e-73 8.952537e-75 2.818215e-76 1.096795e-77 2.364035e-79 6.861256e-81 9.712570e-83 2.199434e-84 1.862225e-86 5.144141e-88 1.693168e-89 1.176583e-90 4.547320e-92 9.260408e-94 3.875584e-96 1.419052e-98 -7.883845e-101 7.546999e-103 1.783386e-103 5.315964e-105 9.727040e-105 1.626775e-105 1.809530e-106 9.766537e-109 2.491239e-111 -9.069050e-115 1.112123e-117 4.366186e-119 8.235598e-121 1.863059e-122 2.586471e-124 3.287811e-126 3.607838e-128 3.849670e-130 3.547268e-132 3.126339e-134 2.178616e-136 1.334753e-138 5.841824e-141 1.829785e-143 4.285278e-146 6.853767e-149 2.694742e-151 1.168308e-153 8.051677e-156 4.981218e-158 3.712470e-160 2.322099e-162 1.562438e-164 8.612840e-167 4.753686e-169 2.143059e-171 -6.428477e-170 2.967825e-167 4.722582e-165 1.453557e-161 5.262767e-159 2.813168e-156 7.868196e-154 2.575915e-151 5.802827e-149 1.437248e-146 2.746783e-144 5.618515e-142 9.426217e-140 1.666523e-137 2.507422e-135 3.932412e-133 5.376374e-131 7.595941e-129 9.511471e-127 1.221794e-124 1.407334e-122 1.652288e-120 1.754093e-118 1.887071e-116 1.846573e-114 1.821353e-112 1.640533e-110 1.482006e-108 1.225410e-106 1.011356e-104 7.646067e-103 5.742756e-101 3.948299e-99 2.684038e-97 1.666400e-95 1.017933e-93 5.655706e-92 3.075409e-90 1.511469e-88 7.227228e-87 3.094754e-85 1.280412e-83 4.681914e-82 