# vtk DataFile Version 2.0
Comment goes here
ASCII

DATASET STRUCTURED_POINTS
DIMENSIONS    128   128   1

ORIGIN    0.000   0.000   0.000
SPACING   0.0156250.015625   1.000

POINT_DATA   16384
SCALARS Concentration double
LOOKUP_TABLE default

5.168149e-81 5.246147e-80 6.042429e-79 5.059701e-78 4.936911e-77 3.215721e-76 2.535915e-75 1.172039e-74 6.975097e-74 1.981178e-73 8.142653e-73 1.242068e-72 3.427908e-72 3.587829e-72 8.187553e-72 7.481401e-72 1.613608e-71 1.395043e-71 2.995503e-71 2.525916e-71 5.544216e-71 4.627252e-71 1.055239e-70 8.724811e-71 2.065597e-70 1.624666e-70 3.731139e-70 2.323245e-70 3.708931e-70 1.201923e-70 6.785917e-71 1.340052e-71 3.071007e-72 4.357111e-73 6.456091e-74 1.022847e-74 6.562819e-74 6.771489e-74 9.166331e-73 3.253263e-73 1.520036e-72 2.319024e-73 5.976716e-74 5.708040e-75 4.251655e-76 1.496302e-77 -5.802968e-80 -1.134090e-79 -1.474837e-80 3.304460e-79 -8.572041e-78 9.304711e-77 -1.874164e-76 1.773548e-76 1.937694e-79 5.379317e-79 3.405367e-80 1.266922e-80 1.799503e-79 -5.771224e-78 1.456496e-76 -8.363784e-76 -1.829562e-75 -9.823059e-76 -1.230606e-76 -7.517656e-78 4.301982e-79 -2.039198e-80 1.051331e-81 -3.094405e-83 8.111837e-85 -8.504349e-87 5.627838e-89 -3.854291e-89 1.109711e-92 -8.348953e-92 1.381187e-91 -2.704358e-92 2.180037e-93 -1.518552e-94 5.637966e-96 -2.054797e-97 4.631410e-99 -1.034223e-100 1.566817e-102 -2.379647e-104 2.718727e-106 -3.276742e-108 3.313068e-110 -3.507336e-112 2.973116e-114 -2.392812e-116 1.398558e-118 -7.398108e-121 2.641325e-123 -4.968827e-127 2.395261e-124 7.527807e-123 2.366217e-121 7.555283e-120 2.408336e-118 7.652940e-117 2.425134e-115 7.518941e-114 2.325803e-112 6.914079e-111 2.056052e-109 5.780197e-108 1.633683e-106 4.301527e-105 1.146809e-103 2.811347e-102 7.038953e-101 1.601359e-99 3.756358e-98 7.915770e-97 1.736901e-95 3.384338e-94 6.933412e-93 1.245513e-91 2.374777e-90 3.912344e-89 6.905361e-88 1.034257e-86 1.676393e-85 2.252987e-84 3.316536e-83 3.925556e-82 
2.314455e-79 2.352204e-78 2.700992e-77 2.256186e-76 2.180819e-75 1.412315e-74 1.096212e-73 5.024023e-73 2.922698e-72 8.220502e-72 3.277116e-71 4.951186e-71 1.316786e-70 1.362138e-70 2.986138e-70 2.691462e-70 5.562972e-70 4.740243e-70 9.735829e-70 8.095218e-70 1.697446e-69 1.399581e-69 3.046900e-69 2.496883e-69 5.639855e-69 4.410794e-69 9.649336e-69 5.945320e-69 9.020100e-69 2.785674e-69 1.504581e-69 2.714559e-70 5.877630e-71 7.560994e-72 1.094636e-72 2.716111e-73 2.800461e-72 3.627822e-72 4.062371e-71 1.655520e-71 7.517410e-71 1.127490e-71 3.413114e-72 3.587314e-73 3.460595e-74 1.928363e-75 8.202028e-77 5.795395e-78 1.576824e-78 -2.786152e-77 4.071515e-76 -4.303711e-75 1.027661e-74 -1.424090e-74 8.934228e-77 3.276354e-77 3.808447e-78 1.398075e-78 -9.658921e-78 2.525631e-76 -5.430215e-75 2.860860e-74 4.720753e-74 2.266521e-74 2.684161e-75 1.863988e-76 -9.486522e-78 4.842607e-79 -2.860317e-80 1.000872e-81 -3.369208e-83 5.812264e-85 -1.077686e-86 -4.887673e-87 -1.582015e-89 6.093913e-90 -5.463251e-90 1.033973e-90 -7.465941e-92 5.155237e-93 -1.857355e-94 6.823219e-96 -1.502229e-97 3.336715e-99 -4.650039e-101 6.288757e-103 -4.908487e-105 2.819957e-107 9.210739e-110 -3.419559e-111 3.915440e-113 -3.245322e-115 1.716599e-117 -7.893715e-120 2.255921e-122 3.437667e-125 2.980481e-123 1.008637e-121 3.401625e-120 1.169955e-118 4.000419e-117 1.366282e-115 4.632735e-114 1.537266e-112 5.066809e-111 1.603063e-109 5.052636e-108 1.502185e-106 4.473958e-105 1.237723e-103 3.456983e-102 8.849023e-101 2.308105e-99 5.451235e-98 1.325008e-96 2.882995e-95 6.521308e-94 1.305135e-92 2.742629e-91 5.034498e-90 9.799582e-89 1.641622e-87 2.945217e-86 4.465668e-85 7.327926e-84 9.931427e-83 1.473776e-81 1.752835e-80 
9.940353e-78 1.012680e-76 1.156223e-75 9.646364e-75 9.217784e-74 5.943152e-73 4.532365e-72 2.062832e-71 1.171017e-70 3.266284e-70 1.260578e-69 1.888883e-69 4.830228e-69 4.943883e-69 1.038496e-68 9.241169e-69 1.824979e-68 1.533703e-68 3.002700e-68 2.462878e-68 4.914044e-68 4.003239e-68 8.282013e-68 6.725896e-68 1.441925e-67 1.120845e-67 2.321542e-67 1.414156e-67 2.023059e-67 5.923616e-68 3.033347e-68 4.906164e-69 9.989353e-70 1.128133e-70 1.695082e-71 8.921386e-72 1.061209e-70 1.657137e-70 1.534297e-69 7.150575e-70 2.988422e-69 4.259357e-70 1.412517e-70 1.506976e-71 1.591912e-72 1.037223e-73 4.629794e-75 -3.744756e-77 -6.334871e-77 9.907244e-76 -1.261598e-74 1.266809e-73 -3.402764e-73 6.937485e-73 -9.346246e-75 6.377927e-76 1.893026e-76 5.062838e-77 3.003484e-76 -8.290691e-75 1.563284e-73 -8.091824e-73 -9.794219e-73 -4.275958e-73 -4.730162e-74 -3.895871e-75 1.466553e-76 -8.424317e-78 5.381933e-79 -2.175587e-80 7.461793e-82 -4.819610e-84 -6.012735e-85 -3.509833e-85 -2.529541e-87 -3.075450e-88 1.703816e-88 -3.016871e-89 2.128318e-90 -1.422942e-91 5.353171e-93 -1.968426e-94 4.692753e-96 -1.087383e-97 1.763147e-99 -2.764967e-101 3.166598e-103 -3.478798e-105 2.821464e-107 -2.156241e-109 1.191400e-111 -6.047311e-114 2.105601e-116 -6.509345e-119 1.238773e-121 6.653983e-124 3.049431e-122 1.123453e-120 4.145816e-119 1.551113e-117 5.787596e-116 2.142868e-114 7.888544e-113 2.822150e-111 1.003031e-109 3.397704e-108 1.145808e-106 3.619445e-105 1.144084e-103 3.337155e-102 9.815566e-101 2.630138e-99 7.172738e-98 1.761896e-96 4.448507e-95 1.000899e-93 2.337709e-92 4.812836e-91 1.038448e-89 1.951536e-88 3.879372e-87 6.623058e-86 1.207104e-84 1.857174e-83 3.079692e-82 4.217399e-81 6.291088e-80 7.529587e-79 
4.155000e-76 4.238823e-75 4.815231e-74 4.008163e-73 3.789676e-72 2.429912e-71 1.822672e-70 8.228776e-70 4.563868e-69 1.260916e-68 4.716833e-68 7.000685e-68 1.722927e-67 1.742215e-67 3.509174e-67 3.077338e-67 5.810260e-67 4.805136e-67 8.973075e-67 7.240799e-67 1.375630e-66 1.103711e-66 2.171713e-66 1.741202e-66 3.546773e-66 2.728374e-66 5.357007e-66 3.211309e-66 4.332775e-66 1.193486e-66 5.787321e-67 8.187450e-68 1.580537e-68 1.493927e-69 2.750114e-70 3.330931e-70 3.818518e-69 6.851411e-69 5.416127e-68 2.819898e-68 1.087095e-67 1.395144e-68 5.182984e-69 5.082252e-70 6.246517e-71 5.024667e-72 3.769489e-73 1.928046e-74 1.742904e-75 -2.021038e-74 2.426310e-73 -2.508508e-72 7.345575e-72 -2.378921e-71 6.780834e-73 -5.864954e-75 3.295374e-76 1.001472e-75 -1.237976e-74 2.411908e-73 -4.014925e-72 1.820422e-71 1.705073e-71 6.368463e-72 6.945249e-73 6.498217e-74 -1.471810e-75 1.148778e-76 -8.605379e-78 4.126195e-79 -2.008005e-80 5.927562e-82 -3.375542e-83 -1.106242e-83 -1.878843e-85 1.301115e-86 -3.957685e-87 6.371445e-88 -4.114345e-89 2.638980e-90 -9.447747e-92 3.371773e-93 -7.548115e-95 1.660345e-96 -2.418183e-98 3.424968e-100 -3.302855e-102 3.085320e-104 -1.989615e-106 1.241819e-108 -5.280904e-111 2.140753e-113 -5.358661e-116 1.263640e-118 -8.610436e-122 7.235220e-123 2.688500e-121 1.101244e-119 4.481892e-118 1.856697e-116 7.609406e-115 3.099271e-113 1.245365e-111 4.860207e-110 1.870648e-108 6.846566e-107 2.478274e-105 8.373906e-104 2.815487e-102 8.699754e-101 2.698441e-99 7.592573e-98 2.166563e-96 5.545478e-95 1.454881e-93 3.388306e-92 8.171917e-91 1.731305e-89 3.835374e-88 7.378242e-87 1.497753e-85 2.604830e-84 4.822809e-83 7.524163e-82 1.261000e-80 1.743414e-79 2.614884e-78 3.146491e-77 
1.669518e-74 1.706884e-73 1.927298e-72 1.602020e-71 1.497003e-70 9.555014e-70 7.040589e-69 3.156175e-68 1.707878e-67 4.678335e-67 1.693674e-66 2.491833e-66 5.891277e-66 5.888693e-66 1.134898e-65 9.810900e-66 1.766640e-65 1.437829e-65 2.553808e-65 2.027007e-65 3.655220e-65 2.886970e-65 5.383588e-65 4.258278e-65 8.208955e-65 6.242915e-65 1.156668e-64 6.813156e-65 8.617391e-65 2.217557e-65 1.011520e-65 1.208691e-66 2.246233e-67 1.622456e-68 5.047865e-69 1.201969e-68 1.231762e-67 2.465244e-67 1.662253e-66 9.502289e-67 3.266717e-66 3.534244e-67 1.438925e-67 1.077425e-68 1.627673e-69 1.362075e-70 1.164984e-71 6.701701e-73 6.241720e-75 2.998668e-73 -3.571311e-72 3.426558e-71 -1.098068e-70 4.565701e-70 -1.602809e-71 -5.030267e-73 -1.070104e-73 6.089469e-76 1.998607e-73 -4.461959e-72 8.003242e-71 -3.415194e-70 -2.427464e-70 -7.902495e-71 -8.505881e-72 -9.258756e-73 1.152840e-75 -1.378589e-75 9.888621e-77 -4.751440e-78 2.127405e-79 -6.565246e-83 -7.272862e-82 -2.324791e-82 -3.908783e-84 -2.594829e-85 7.002710e-86 -9.912531e-87 6.413833e-88 -3.843369e-89 1.415772e-90 -4.838616e-92 1.120987e-93 -2.377996e-95 3.559899e-97 -4.806453e-99 4.610983e-101 -3.907818e-103 2.292195e-105 -1.147410e-107 3.709486e-110 -9.275176e-113 1.631588e-115 1.553529e-118 3.198569e-120 6.258601e-122 1.856786e-120 8.581817e-119 3.974788e-117 1.846285e-115 8.533036e-114 3.863345e-112 1.731405e-110 7.433514e-109 3.151909e-107 1.254543e-105 4.938848e-104 1.793490e-102 6.476978e-101 2.126917e-99 7.005998e-98 2.074201e-96 6.223535e-95 1.661991e-93 4.545806e-92 1.096691e-90 2.737129e-89 5.970440e-88 1.359690e-86 2.678612e-85 5.556026e-84 9.847148e-83 1.852318e-81 2.931650e-80 4.964265e-79 6.932960e-78 1.044952e-76 1.264970e-75 
6.542456e-73 6.698252e-72 7.519909e-71 6.236910e-70 5.763067e-69 3.658609e-68 2.650170e-67 1.178631e-66 6.228063e-66 1.689997e-65 5.926033e-65 8.634423e-65 1.962084e-64 1.936424e-64 3.571904e-64 3.039641e-64 5.221062e-64 4.174696e-64 7.053737e-64 5.495610e-64 9.408388e-64 7.297245e-64 1.290172e-63 1.003889e-63 1.832791e-63 1.373598e-63 2.403686e-63 1.387097e-63 1.644178e-63 3.929837e-64 1.682147e-64 1.629069e-65 3.021306e-66 1.414404e-67 1.166374e-67 4.137146e-67 3.798013e-66 8.187386e-66 4.828856e-65 2.955230e-65 9.115983e-65 7.678559e-66 3.610951e-66 1.418486e-67 4.150499e-68 3.040158e-69 3.151300e-70 2.437408e-71 2.040442e-72 -2.329900e-72 2.956349e-71 -2.949067e-70 9.638282e-70 -5.295075e-69 2.871159e-70 -7.271237e-72 -2.182405e-72 7.625203e-74 -4.199304e-72 5.367976e-71 -1.393378e-69 5.006619e-69 2.864837e-69 7.859776e-70 8.745178e-71 1.048156e-71 2.323588e-73 1.994185e-74 -9.204639e-76 4.633170e-77 -3.069678e-78 1.358001e-79 -1.249504e-80 -2.681735e-81 -2.619225e-83 7.292928e-84 -8.419137e-85 9.525481e-86 -5.307798e-87 2.830033e-88 -9.198981e-90 2.801855e-91 -5.606936e-93 1.031939e-94 -1.264432e-96 1.397875e-98 -9.946120e-101 6.304741e-103 -2.235712e-105 8.320385e-108 8.673883e-111 1.792987e-112 2.333570e-114 1.873835e-116 1.888315e-118 1.524832e-120 1.089203e-119 5.842307e-118 3.099495e-116 1.653095e-114 8.661346e-113 4.443906e-111 2.230745e-109 1.069792e-107 5.013481e-106 2.195427e-104 9.420729e-103 3.707689e-101 1.439952e-99 5.054317e-98 1.768737e-96 5.530888e-95 1.744647e-93 4.872451e-92 1.388680e-90 3.475239e-89 8.969678e-88 2.015761e-86 4.715974e-85 9.515812e-84 2.015552e-82 3.639813e-81 6.952626e-80 1.115864e-78 1.908506e-77 2.690849e-76 4.075041e-75 4.959400e-74 
2.475043e-71 2.538623e-70 2.831789e-69 2.344690e-68 2.140638e-67 1.352435e-66 9.621692e-66 4.247834e-65 2.189676e-64 5.888970e-64 1.997808e-63 2.883653e-63 6.289419e-63 6.129020e-63 1.080273e-62 9.047724e-63 1.479625e-62 1.161793e-62 1.863444e-62 1.424107e-62 2.309258e-62 1.757256e-62 2.938267e-62 2.246584e-62 3.873920e-62 2.857403e-62 4.708498e-62 2.657344e-62 2.939434e-62 6.471597e-63 2.588112e-63 1.879389e-64 3.757614e-65 6.526731e-67 3.019294e-66 1.304558e-65 1.070768e-64 2.433172e-64 1.256414e-63 8.065407e-64 2.193650e-63 1.255255e-64 7.387236e-65 -5.401350e-67 9.370129e-67 3.222475e-68 5.610890e-69 3.506645e-70 2.744370e-71 1.701353e-71 -2.018576e-70 1.706576e-69 -6.137283e-69 3.329685e-68 -1.459882e-69 -9.533599e-71 -2.507206e-71 -8.975826e-73 -2.513258e-71 4.793424e-70 2.068743e-68 -6.398503e-68 -2.928034e-68 -6.879524e-69 -7.987433e-70 -1.049562e-70 -5.050389e-72 -3.390985e-73 -1.927975e-77 -2.132810e-76 1.013200e-77 -2.670179e-79 -4.241453e-80 -2.769889e-80 -5.930543e-82 -5.351315e-83 6.839309e-84 -6.187998e-85 3.071613e-86 -1.268487e-87 3.386489e-89 -7.324976e-91 1.055681e-92 -1.191014e-94 9.216988e-97 -4.465348e-99 3.740318e-101 2.135491e-103 5.967911e-105 6.758105e-107 1.046058e-108 1.057862e-110 1.213350e-112 1.050296e-114 9.245503e-117 6.577742e-119 4.550674e-119 2.892317e-117 1.858461e-115 1.162437e-113 7.213723e-112 4.261053e-110 2.478118e-108 1.342894e-106 7.135046e-105 3.465336e-103 1.651290e-101 7.080151e-100 2.996386e-98 1.127599e-96 4.230754e-95 1.399485e-93 4.670131e-92 1.364914e-90 4.070694e-89 1.056931e-87 2.828996e-86 6.550009e-85 1.577031e-83 3.259060e-82 7.056305e-81 1.298349e-79 2.519591e-78 4.100978e-77 7.084909e-76 1.008655e-74 1.534404e-73 1.877955e-72 
9.148955e-70 9.396344e-69 1.041413e-67 8.603519e-67 7.762472e-66 4.877981e-65 3.409837e-64 1.493559e-63 7.514648e-63 2.001988e-62 6.573869e-62 9.394622e-62 1.966925e-61 1.891270e-61 3.184772e-61 2.622869e-61 4.082669e-61 3.144536e-61 4.786298e-61 3.583373e-61 5.502267e-61 4.101773e-61 6.485805e-61 4.864748e-61 7.924824e-61 5.743310e-61 8.915949e-61 4.917302e-61 5.071137e-61 1.025950e-61 3.815804e-62 1.859524e-63 4.606133e-64 -4.618061e-66 8.290581e-65 3.910460e-64 2.924571e-63 6.854094e-63 3.160882e-62 2.092738e-62 5.053960e-62 1.641142e-63 1.443916e-63 -7.906159e-65 2.291356e-65 -2.650388e-67 1.319937e-67 2.392098e-69 2.411117e-70 -2.435059e-72 2.712971e-70 3.887344e-69 1.530049e-68 -1.222165e-67 -6.491743e-69 -2.396902e-70 -1.280331e-70 -1.435885e-71 1.220494e-71 -1.977322e-68 -2.743365e-67 6.536037e-67 2.603595e-67 5.181089e-68 6.402498e-69 8.560235e-70 6.012434e-71 4.171459e-72 1.500624e-73 4.847606e-75 -2.552631e-78 5.862523e-79 -5.380362e-79 -1.522465e-79 -1.026352e-80 8.032364e-82 -3.619105e-83 1.769135e-84 -4.714753e-86 1.092875e-87 -1.395621e-89 1.514009e-91 7.526967e-94 4.216025e-95 2.031750e-96 3.799514e-98 1.037023e-99 1.574758e-101 2.846513e-103 3.563926e-105 4.766040e-107 4.945097e-109 5.127397e-111 4.363198e-113 3.465551e-115 2.234991e-117 1.673694e-118 1.245826e-116 9.722473e-115 7.357849e-113 5.421531e-111 3.780644e-109 2.553274e-107 1.594405e-105 9.621746e-104 5.259156e-102 2.785480e-100 1.314540e-98 6.061616e-97 2.462284e-95 9.896081e-94 3.477846e-92 1.226081e-90 3.760067e-89 1.171629e-87 3.161259e-86 8.761230e-85 2.091743e-83 5.175461e-82 1.095858e-80 2.422323e-79 4.541546e-78 8.944645e-77 1.476189e-75 2.574014e-74 3.699023e-73 5.649457e-72 6.950366e-71 
3.278037e-68 3.371456e-67 3.711276e-66 3.059774e-65 2.726888e-64 1.704823e-63 1.170262e-62 5.086787e-62 2.496488e-61 6.589206e-61 2.092756e-60 2.960769e-60 5.944968e-60 5.638124e-60 9.060560e-60 7.332744e-60 1.085013e-59 8.190334e-60 1.181396e-59 8.655382e-60 1.256678e-59 9.166166e-60 1.368619e-59 1.005701e-59 1.545556e-59 1.099024e-59 1.605043e-59 8.636890e-60 8.283939e-60 1.526586e-60 5.263892e-61 1.238190e-62 5.519917e-63 -1.496607e-64 2.228092e-63 1.096474e-62 7.504049e-62 1.789810e-61 7.405346e-61 4.982421e-61 1.063747e-60 1.031810e-62 2.534695e-62 -2.484783e-63 4.834308e-64 -2.438237e-65 3.083302e-66 -1.039734e-67 -3.567295e-69 2.576311e-69 -3.679612e-68 -5.794487e-67 1.037824e-67 1.486455e-67 4.934312e-68 3.588959e-70 -1.272795e-69 -5.176641e-70 4.395328e-69 3.608790e-67 4.038805e-66 -6.508626e-66 -2.363693e-66 -3.932251e-67 -5.093533e-68 -6.576338e-69 -5.382057e-70 -3.971794e-71 -2.151497e-72 -8.916234e-74 -9.982733e-76 2.626262e-77 -6.016183e-78 -7.291259e-79 7.288350e-81 1.406127e-83 -2.321524e-84 7.073416e-85 -1.441298e-87 -1.069441e-88 -6.398826e-90 3.908054e-91 6.791932e-92 2.372211e-93 8.510644e-95 1.902593e-96 4.104462e-98 6.826823e-100 1.056954e-101 1.379785e-103 1.639141e-105 1.713662e-107 1.585796e-109 1.298069e-111 8.642510e-114 4.373984e-116 3.168469e-118 3.113128e-116 3.356274e-114 3.226172e-112 3.076755e-110 2.613196e-108 2.174989e-106 1.596296e-104 1.139772e-102 7.096173e-101 4.294354e-99 2.245472e-97 1.148916e-95 5.053015e-94 2.201372e-92 8.227312e-91 3.088061e-89 9.936613e-88 3.251499e-86 9.112474e-85 2.623749e-83 6.455632e-82 1.645016e-80 3.566838e-79 8.060171e-78 1.539131e-76 3.078866e-75 5.150559e-74 9.067654e-73 1.315125e-71 2.016616e-70 2.493850e-69 
1.149571e-66 1.183696e-65 1.293713e-64 1.064132e-63 9.366669e-63 5.824450e-62 3.926576e-61 1.693369e-60 8.108324e-60 2.119907e-59 6.513004e-59 9.120729e-59 1.755895e-58 1.642096e-58 2.516905e-58 2.000982e-58 2.812476e-58 2.079831e-58 2.840661e-58 2.035683e-58 2.792541e-58 1.992077e-58 2.806972e-58 2.020099e-58 2.927776e-58 2.042939e-58 2.806582e-58 1.476184e-58 1.314556e-58 2.213401e-59 7.010823e-60 -2.531634e-63 6.869724e-62 -7.232283e-64 5.961297e-62 2.988793e-61 1.901549e-60 4.577801e-60 1.726787e-59 1.179361e-59 2.239996e-59 -1.136194e-61 4.527535e-61 -5.789896e-62 9.679310e-63 -6.997878e-64 7.047157e-65 -4.158667e-66 -3.992962e-67 4.165815e-66 -3.963039e-66 2.018324e-65 -4.583417e-66 5.615403e-67 -4.811514e-68 3.594629e-69 -1.341658e-68 -2.522567e-68 -3.786123e-67 -6.139785e-66 -5.749969e-65 6.300512e-65 2.097708e-65 2.904040e-66 3.970425e-67 4.912381e-68 4.632920e-69 3.622966e-70 2.808714e-71 1.505649e-72 8.861813e-74 1.780098e-75 -8.164470e-77 -2.155477e-78 8.729910e-80 2.905390e-81 -6.997338e-83 -2.402111e-83 -1.274169e-84 -5.640790e-86 -3.662473e-88 3.121014e-89 2.741610e-90 9.730565e-92 2.794408e-93 6.152170e-95 1.163609e-96 1.872880e-98 2.623687e-100 3.251075e-102 3.484804e-104 3.316548e-106 2.584440e-108 1.604623e-110 3.876620e-113 -6.607156e-115 -1.467744e-116 6.403556e-116 1.016641e-113 1.276144e-111 1.572268e-109 1.679766e-107 1.720791e-105 1.522598e-103 1.285893e-101 9.290151e-100 6.419063e-98 3.765474e-96 2.133957e-94 1.024028e-92 4.823226e-91 1.925922e-89 7.674017e-88 2.598198e-86 8.902949e-85 2.596031e-83 7.745501e-82 1.965974e-80 5.147686e-79 1.143595e-77 2.636802e-76 5.129455e-75 1.040527e-73 1.764456e-72 3.132424e-71 4.584529e-70 7.051544e-69 8.763621e-68 
3.922957e-65 4.043201e-64 4.387227e-63 3.599860e-62 3.129121e-61 1.935144e-60 1.280974e-59 5.480328e-59 2.559654e-58 6.627514e-58 1.969105e-57 2.728183e-57 5.033609e-57 4.638265e-57 6.776844e-57 5.287069e-57 7.054381e-57 5.104145e-57 6.596726e-57 4.617486e-57 5.981316e-57 4.166816e-57 5.538584e-57 3.898132e-57 5.327353e-57 3.642982e-57 4.708449e-57 2.417819e-57 1.997621e-57 3.049167e-58 8.829035e-59 -2.239964e-60 8.722702e-61 6.096994e-62 1.554910e-60 7.854116e-60 4.677164e-59 1.130160e-58 3.923873e-58 2.707450e-58 4.608890e-58 -6.628742e-60 7.917543e-60 -1.159107e-60 1.738462e-61 -1.464258e-62 1.321971e-63 -9.766800e-65 -4.297098e-65 -7.832131e-64 5.004336e-64 -4.171443e-64 6.081618e-65 -5.755133e-66 -8.988868e-68 3.344325e-69 -8.837995e-68 -1.652915e-67 6.253332e-66 8.456984e-65 8.616069e-64 -6.060156e-64 -1.937273e-64 -2.210306e-65 -3.091288e-66 -3.506794e-67 -3.370806e-68 -2.646353e-69 -2.184767e-70 -1.324171e-71 -9.721513e-73 -4.067645e-74 -2.430341e-75 5.194670e-79 2.173620e-79 4.139920e-80 3.863153e-81 3.984157e-82 2.678547e-83 1.729407e-84 7.664096e-86 3.175596e-87 9.514177e-89 2.680199e-90 5.710183e-92 1.154872e-93 1.819708e-95 2.728636e-97 3.201920e-99 3.494085e-101 2.749493e-103 1.562787e-105 -4.577036e-108 -2.546153e-109 -4.539318e-111 -6.061277e-113 -6.728145e-115 -1.320754e-115 1.678316e-113 2.286681e-111 4.888065e-109 7.094736e-107 1.022181e-104 1.137828e-102 1.226349e-100 1.050949e-98 8.669937e-97 5.763765e-95 3.714026e-93 1.951437e-91 1.009243e-89 4.307104e-88 1.839186e-86 6.546159e-85 2.362921e-83 7.159879e-82 2.222131e-80 5.811232e-79 1.567458e-77 3.563887e-76 8.398077e-75 1.662803e-73 3.423992e-72 5.881337e-71 1.053497e-69 1.555121e-68 2.400027e-67 2.996507e-66 
1.312279e-63 1.353746e-62 1.457415e-61 1.192934e-60 1.023590e-59 6.295932e-59 4.091333e-58 1.736677e-57 7.911139e-57 2.029078e-56 5.828618e-56 7.992029e-56 1.412266e-55 1.282570e-55 1.784508e-55 1.366530e-55 1.728729e-55 1.224155e-55 1.495109e-55 1.022619e-55 1.249179e-55 8.503912e-56 1.065004e-55 7.338409e-56 9.448018e-56 6.344018e-56 7.708759e-56 3.882210e-56 2.968387e-56 4.154534e-57 1.078909e-57 -5.210744e-59 1.149852e-59 3.079487e-60 4.057243e-59 2.057982e-58 1.161934e-57 2.830256e-57 9.165422e-57 6.495853e-57 9.964419e-57 -1.301961e-58 1.471162e-58 -2.270246e-59 3.057846e-60 -2.623475e-61 2.153447e-62 -1.999073e-63 -1.120488e-63 3.687823e-62 -1.662477e-62 5.528958e-63 -4.803740e-64 2.583649e-65 6.600834e-67 1.802866e-68 -9.293617e-67 -8.549748e-66 -8.532100e-65 -1.315976e-63 -1.484901e-62 6.610595e-63 1.980219e-63 1.914807e-64 2.564662e-65 2.616402e-66 2.382226e-67 1.778581e-68 1.395303e-69 8.311684e-71 5.599943e-72 2.418627e-73 1.131044e-74 1.482708e-76 -3.192817e-78 -1.737985e-79 -8.664589e-81 -6.496636e-82 -3.841451e-83 -2.397437e-84 -1.154839e-85 -5.340501e-87 -1.929702e-88 -6.530037e-90 -1.772755e-91 -4.507292e-93 -9.461414e-95 -1.874611e-96 -3.147783e-98 -5.035889e-100 -6.983757e-102 -9.309068e-104 -1.096418e-105 -1.250631e-107 -1.280942e-109 -1.278397e-111 -1.135824e-113 -5.894466e-114 1.839636e-112 -3.248365e-112 1.476625e-108 2.759217e-106 5.639038e-104 8.153501e-102 1.119234e-99 1.165965e-97 1.145978e-95 8.767696e-94 6.399865e-92 3.713325e-90 2.098634e-88 9.617185e-87 4.379680e-85 1.643216e-83 6.220894e-82 1.962052e-80 6.310329e-79 1.702038e-77 4.714128e-76 1.097668e-74 2.636492e-73 5.315093e-72 1.108603e-70 1.929225e-69 3.480835e-68 5.182736e-67 8.014956e-66 1.005312e-64 
4.287977e-62 4.425221e-61 4.727952e-60 3.858860e-59 3.269089e-58 1.999101e-57 1.275547e-56 5.369724e-56 2.386171e-55 6.059115e-55 1.683060e-54 2.282016e-54 3.862508e-54 3.453183e-54 4.575370e-54 3.434135e-54 4.118956e-54 2.849900e-54 3.289517e-54 2.194717e-54 2.528912e-54 1.679443e-54 1.982933e-54 1.335615e-54 1.621754e-54 1.067971e-54 1.222057e-54 6.031178e-55 4.271766e-55 5.454234e-56 1.253436e-56 -9.098181e-58 1.540633e-58 1.043988e-58 1.054754e-57 5.362343e-57 2.900032e-56 7.124400e-56 2.184792e-55 1.596668e-55 2.249490e-55 -1.285883e-57 2.900292e-57 -4.511429e-58 5.492469e-59 -4.597052e-60 3.567339e-61 3.208686e-61 4.543840e-61 -1.194569e-60 3.292436e-61 -6.160475e-62 3.204911e-63 -1.079335e-64 -1.591814e-66 2.854172e-67 -6.492502e-66 -6.549387e-65 1.187426e-63 2.090124e-62 2.924375e-61 -7.720354e-62 -2.238128e-62 -1.823573e-63 -2.280175e-64 -2.012304e-65 -1.681786e-66 -1.130821e-67 -8.051713e-69 -4.321881e-70 -2.550565e-71 -9.235888e-73 -3.186662e-74 -2.176676e-76 8.135342e-79 2.839759e-80 8.101005e-82 2.300665e-83 -8.228973e-86 -7.594560e-86 -5.511893e-87 -3.329816e-88 -1.313527e-89 -4.890695e-91 -1.329697e-92 -3.439033e-94 -6.794329e-96 -1.264802e-97 -1.826059e-99 -2.383957e-101 -2.284241e-103 -1.471158e-105 2.908261e-108 2.926819e-109 5.280442e-111 7.562012e-113 8.877622e-114 -2.007844e-112 5.892309e-111 -1.606475e-109 6.006167e-108 1.869078e-106 1.794072e-103 3.698811e-101 7.877648e-99 1.046856e-96 1.335418e-94 1.197568e-92 1.031663e-90 6.641178e-89 4.187428e-87 2.059797e-85 1.011813e-83 3.994313e-82 1.596656e-80 5.230735e-79 1.750691e-77 4.860789e-76 1.386220e-74 3.300062e-73 8.094049e-72 1.659114e-70 3.509470e-69 6.180595e-68 1.124156e-66 1.686815e-65 2.615381e-64 3.293377e-63 
1.375286e-60 1.420193e-59 1.504385e-58 1.224679e-57 1.023631e-56 6.225729e-56 3.898369e-55 1.628398e-54 7.055757e-54 1.774955e-53 4.764688e-53 6.393096e-53 1.035369e-52 9.119260e-53 1.148950e-52 8.459172e-53 9.602919e-53 6.498124e-53 7.075011e-53 4.610132e-53 5.001060e-53 3.245402e-53 3.605868e-53 2.379872e-53 2.720927e-53 1.763790e-53 1.897993e-53 9.244391e-54 6.045077e-54 7.201733e-55 1.407912e-55 -1.333530e-56 2.113038e-57 3.130149e-57 2.777938e-56 1.425528e-55 7.463792e-55 1.876362e-54 5.508295e-54 4.278833e-54 5.566584e-54 7.308072e-56 6.487469e-56 -9.850034e-57 1.027537e-57 -7.705423e-59 3.156018e-60 -3.204130e-59 -3.076445e-59 2.894180e-59 -5.263383e-60 5.790381e-61 -1.528548e-62 2.737060e-64 4.997455e-66 4.864829e-66 -9.078327e-65 -2.397207e-63 -2.057034e-62 -4.118326e-61 -6.660769e-60 1.058433e-60 2.877155e-61 2.064248e-62 2.261482e-63 1.729678e-64 1.266333e-65 7.564828e-67 4.611106e-68 2.183600e-69 1.028932e-70 3.210844e-72 7.220273e-74 6.389044e-76 -3.996801e-78 -1.000979e-79 -2.531977e-81 -1.263456e-82 -5.671064e-84 -3.145256e-85 -1.459770e-86 -7.137910e-88 -2.855266e-89 -1.133277e-90 -3.700642e-92 -1.173992e-93 -3.110923e-95 -7.962166e-97 -1.731743e-98 -3.639996e-100 -6.612459e-102 -1.164568e-103 -1.800616e-105 -2.709502e-107 -3.630008e-109 -4.758867e-111 1.918777e-112 -6.558387e-111 1.939749e-109 -5.626623e-108 1.851925e-106 -5.932008e-105 7.024260e-103 1.496104e-100 5.303470e-98 9.263009e-96 1.537674e-93 1.649024e-91 1.668205e-89 1.202337e-87 8.393530e-86 4.450979e-84 2.341190e-82 9.747568e-81 4.088561e-79 1.393326e-77 4.828105e-76 1.381252e-74 4.039019e-73 9.837109e-72 2.455429e-70 5.119822e-69 1.095306e-67 1.952720e-66 3.572641e-65 5.403785e-64 8.385983e-63 1.060375e-61 
4.324792e-59 4.465131e-58 4.692081e-57 3.807117e-56 3.141310e-55 1.898897e-54 1.167551e-53 4.835707e-53 2.044320e-52 5.090387e-52 1.321403e-51 1.752522e-51 2.717368e-51 2.354301e-51 2.822218e-51 2.034495e-51 2.187298e-51 1.444596e-51 1.484788e-51 9.429010e-52 9.640291e-52 6.100806e-52 6.388874e-52 4.124614e-52 4.450410e-52 2.836216e-52 2.878999e-52 1.383013e-52 8.370810e-53 9.295881e-54 1.487177e-54 -1.784927e-55 3.093227e-56 8.966861e-56 7.462389e-55 3.874524e-54 1.991633e-53 5.145353e-53 1.476552e-52 1.228661e-52 1.524134e-52 5.770854e-54 1.759203e-54 -2.482084e-55 2.270368e-56 -1.548580e-57 8.564127e-59 1.993648e-57 1.226190e-57 -6.227595e-58 7.350452e-59 -5.249789e-60 8.760574e-62 -1.255421e-63 -5.630651e-66 1.091128e-64 -9.219330e-64 -4.826608e-62 1.654909e-61 6.663810e-60 1.671903e-58 -1.511735e-59 -4.118730e-60 -2.570704e-61 -2.471980e-62 -1.586967e-63 -1.020326e-64 -5.201765e-66 -2.727316e-67 -1.081270e-68 -4.242276e-70 -1.060473e-71 -2.003667e-73 -1.599604e-75 -3.337910e-78 -7.638988e-80 -2.024434e-81 -9.854288e-83 -4.475332e-84 -2.515329e-85 -1.199814e-86 -6.147745e-88 -2.596016e-89 -1.111499e-90 -3.912015e-92 -1.362897e-93 -3.935865e-95 -1.114997e-96 -2.651773e-98 -6.174654e-100 -1.224303e-101 -2.379795e-103 -3.995730e-105 -6.593303e-107 -9.525686e-109 -1.382790e-110 7.273277e-111 -2.091918e-109 6.268440e-108 -1.928594e-106 6.378932e-105 -2.222758e-103 8.238295e-102 -3.042503e-100 2.145742e-97 5.330787e-95 1.473213e-92 1.961779e-90 2.511513e-88 2.040680e-86 1.623284e-84 9.267874e-83 5.290701e-81 2.316373e-79 1.026996e-77 3.629834e-76 1.307992e-74 3.845545e-73 1.156312e-71 2.874767e-70 7.316698e-69 1.549027e-67 3.356164e-66 6.047939e-65 1.114143e-63 1.696620e-62 2.637316e-61 3.345291e-60 
1.336449e-57 1.380213e-56 1.436975e-55 1.162790e-54 9.461845e-54 5.688834e-53 3.431767e-52 1.410576e-51 5.813606e-51 1.434432e-50 3.597227e-50 4.721461e-50 6.998829e-50 5.972047e-50 6.798308e-50 4.804790e-50 4.881012e-50 3.151134e-50 3.049773e-50 1.891163e-50 1.817534e-50 1.124591e-50 1.107122e-50 7.016271e-51 7.127491e-51 4.488578e-51 4.288874e-51 2.050324e-51 1.144024e-51 1.225349e-52 1.469347e-53 -2.141220e-54 5.089042e-55 2.541652e-54 2.050855e-53 1.091692e-52 5.555648e-52 1.506852e-51 4.261470e-51 3.944478e-51 4.692811e-51 3.640335e-52 6.100042e-53 -7.488700e-54 5.347766e-55 -4.225760e-56 1.205974e-56 -1.017086e-55 -4.476930e-56 1.265183e-56 -1.003305e-57 4.425570e-59 -2.138301e-61 1.127116e-62 -5.219691e-64 4.386906e-63 5.765310e-63 -2.054084e-60 -2.501845e-58 1.276744e-59 -4.620365e-57 2.428491e-58 6.643930e-59 3.785555e-60 3.041415e-61 1.672498e-62 9.094102e-64 4.005988e-65 1.721430e-66 5.786016e-68 1.722339e-69 3.525345e-71 4.131668e-73 2.989121e-75 -1.361932e-78 -1.290757e-80 1.652427e-82 1.540551e-83 7.228918e-85 3.686135e-86 1.483118e-87 6.461280e-89 2.333882e-90 8.783932e-92 2.797905e-93 9.004424e-95 2.459601e-96 6.606032e-98 1.494544e-99 3.246624e-101 5.842421e-103 9.760732e-105 1.270595e-106 1.314529e-108 4.256282e-111 -7.676257e-111 2.131907e-109 -6.319252e-108 1.933512e-106 -6.235977e-105 2.083477e-103 -7.484392e-102 2.760999e-100 -1.257959e-98 1.162454e-96 2.574256e-94 1.401067e-91 2.376042e-89 3.856650e-87 3.565263e-85 3.195020e-83 1.970553e-81 1.208062e-79 5.571629e-78 2.589278e-76 9.502338e-75 3.537394e-73 1.069669e-71 3.290228e-70 8.355201e-69 2.159392e-67 4.644104e-66 1.015696e-64 1.850833e-63 3.424142e-62 5.251713e-61 8.160275e-60 1.038783e-58 
4.063953e-56 4.193567e-55 4.329546e-54 3.490487e-53 2.803617e-52 1.674984e-51 9.923237e-51 4.043804e-50 1.626548e-49 3.972171e-49 9.634113e-49 1.249543e-48 1.772827e-48 1.487026e-48 1.609332e-48 1.112611e-48 1.069292e-48 6.731031e-49 6.143224e-49 3.710133e-49 3.358030e-49 2.026458e-49 1.880134e-49 1.167176e-49 1.120068e-49 6.959418e-50 6.287185e-50 2.988197e-50 1.543232e-50 1.597498e-51 1.252657e-52 -2.327678e-53 1.027460e-53 7.317511e-53 5.863008e-52 3.211935e-51 1.646597e-50 4.713872e-50 1.349293e-49 1.399345e-49 1.672516e-49 2.120728e-50 2.940552e-51 -2.942237e-52 1.812325e-53 1.474117e-54 -4.325376e-55 4.698417e-54 1.415765e-54 -2.488621e-55 1.416094e-56 -3.892177e-58 1.495363e-60 -8.131250e-61 -1.074433e-61 1.454980e-61 2.995426e-60 3.011616e-58 4.207560e-56 -1.025066e-56 1.312521e-55 -3.791867e-57 -1.163354e-57 -5.926655e-59 -4.084587e-60 -1.877313e-61 -8.843368e-63 -3.276365e-64 -1.202023e-65 -3.358188e-67 -8.538501e-69 -1.485300e-70 -1.816248e-72 -1.553725e-74 -6.621104e-77 -9.283496e-79 -1.389749e-80 -4.067138e-82 -1.173510e-83 -4.618703e-85 -1.653885e-86 -6.880216e-88 -2.498735e-89 -9.737433e-91 -3.253165e-92 -1.119010e-93 -3.283973e-95 -9.713061e-97 -2.458121e-98 -6.204153e-100 -1.349454e-101 -2.913658e-103 -5.471252e-105 -1.017758e-106 -1.651193e-108 -2.344990e-109 6.085862e-108 -1.892356e-106 5.901552e-105 -1.979732e-103 6.660719e-102 -2.450755e-100 8.983035e-99 -3.870048e-97 1.662086e-95 -1.462595e-93 9.524524e-91 2.186564e-88 5.461227e-86 5.801488e-84 6.108824e-82 4.059058e-80 2.714431e-78 1.313223e-76 6.446108e-75 2.446747e-73 9.451421e-72 2.929759e-70 9.244803e-69 2.391248e-67 6.287965e-66 1.370581e-64 3.030194e-63 5.572929e-62 1.036608e-60 1.598762e-59 2.485633e-58 3.171288e-57 