# vtk DataFile Version 2.0
Comment goes here
ASCII

DATASET STRUCTURED_POINTS
DIMENSIONS    128   128   1

ORIGIN    0.000   0.000   0.000
SPACING   0.0156250.015625   1.000

POINT_DATA   16384
SCALARS Concentration double
LOOKUP_TABLE default

1.435962e-78 1.289220e-77 1.797344e-76 1.251095e-75 1.586724e-74 7.881881e-74 8.727735e-73 2.726291e-72 2.415034e-71 3.863415e-71 2.263987e-70 1.549897e-70 4.282548e-70 1.956603e-70 3.700125e-70 1.568412e-70 2.772754e-70 1.222530e-70 3.870668e-70 7.422468e-70 5.729124e-68 1.530370e-67 9.428784e-66 1.749326e-65 5.217237e-64 4.042145e-64 1.091513e-62 -1.892865e-62 1.131106e-60 -2.422604e-60 8.969419e-59 -9.496590e-59 3.027161e-57 -5.092270e-58 2.782733e-56 4.838384e-57 4.220475e-56 9.725438e-57 5.107154e-57 9.913820e-58 3.505357e-58 -3.276163e-57 6.377621e-56 -1.251295e-54 1.768188e-53 -2.585265e-52 2.544663e-51 -2.646600e-50 1.666848e-49 -1.115010e-48 3.779153e-48 -1.154154e-47 1.464029e-47 2.610056e-49 -9.778836e-49 -5.681207e-48 1.778273e-46 -4.193974e-45 9.981045e-44 -9.857051e-43 9.143106e-42 -3.366776e-41 7.223609e-41 -2.373357e-41 -3.546847e-42 2.187670e-43 -2.051464e-44 1.470438e-45 -7.433054e-47 1.711220e-48 1.610932e-49 -6.816924e-51 3.370047e-52 -9.641761e-54 1.046731e-54 2.640899e-55 -1.283869e-53 8.426672e-54 -2.287679e-54 5.606469e-55 -6.971042e-56 9.231881e-57 -7.437582e-58 6.370745e-59 -3.703655e-60 2.249863e-61 -9.962203e-63 4.544749e-64 -1.593469e-65 5.710722e-67 -1.643204e-68 4.813184e-70 -1.169938e-71 2.872944e-73 -5.945245e-75 1.224375e-76 -2.124318e-78 3.608533e-80 -5.136274e-82 7.077383e-84 -8.139256e-86 9.008942e-88 -8.307493e-90 7.353063e-92 -5.415992e-94 3.821679e-96 -2.238671e-98 1.326866e-100 7.734301e-101 5.361785e-100 5.335566e-99 3.315725e-98 3.280394e-97 1.955778e-96 2.132624e-95 1.864583e-94 3.369710e-93 5.937149e-92 1.271497e-90 2.388663e-89 4.882207e-88 8.389189e-87 1.583464e-85 2.382317e-84 4.148305e-83 5.377702e-82 8.696260e-81 9.538937e-80 
5.045043e-77 4.558410e-76 6.254326e-75 4.350314e-74 5.312671e-73 2.629346e-72 2.734941e-71 8.511527e-71 6.909803e-70 1.098221e-69 5.795286e-69 3.883463e-69 9.705497e-69 4.266677e-69 7.389795e-69 3.004873e-69 4.914868e-69 2.152966e-69 8.703032e-69 3.676729e-68 1.620608e-66 7.175394e-66 2.353317e-64 6.121895e-64 1.138539e-62 1.211912e-62 2.529343e-61 4.150970e-62 2.683764e-59 -1.050279e-59 2.103542e-57 -1.847030e-58 7.016601e-56 1.173055e-56 6.498931e-55 1.499625e-55 1.022742e-54 2.213154e-55 1.261004e-55 2.523731e-56 5.863950e-57 2.481778e-56 -4.801103e-55 1.001637e-53 -1.443107e-52 2.210170e-51 -2.205147e-50 2.411009e-49 -1.544438e-48 1.115429e-47 -3.872507e-47 1.406694e-46 -1.780574e-46 7.887645e-48 2.856757e-47 1.098821e-46 -2.165162e-45 7.983074e-44 -1.519842e-42 1.298686e-41 -1.047172e-40 3.563742e-40 -6.849514e-40 2.217209e-40 2.872044e-41 -1.494346e-42 1.279578e-43 -7.120983e-45 -1.499499e-46 6.225515e-47 -9.147272e-48 4.945492e-49 -5.530578e-51 -2.436642e-53 -2.552988e-53 -1.899065e-53 1.855440e-52 -1.225676e-52 2.806665e-53 -6.719957e-54 7.730546e-55 -1.003758e-55 7.657465e-57 -6.430325e-58 3.540166e-59 -2.088522e-60 8.597992e-62 -3.708996e-63 1.154037e-64 -3.684142e-66 8.545663e-68 -1.976337e-69 3.191672e-71 -4.691854e-73 3.207496e-75 2.580118e-77 -1.718165e-78 4.154899e-80 -6.938644e-82 1.005844e-83 -1.141883e-85 1.208528e-87 -1.024844e-89 8.276018e-92 -5.389321e-94 3.368970e-96 -1.697135e-98 8.203643e-101 -1.852022e-102 -7.238629e-102 -3.773406e-102 2.358763e-99 8.229118e-98 2.492672e-96 7.132534e-95 1.897702e-93 5.012737e-92 1.198125e-90 2.892460e-89 6.093159e-88 1.331902e-86 2.434962e-85 4.817242e-84 7.565617e-83 1.362065e-81 1.818734e-80 2.996477e-79 3.342806e-78 
1.647255e-75 1.498944e-74 2.021056e-73 1.406176e-72 1.652045e-71 8.149554e-71 7.967083e-70 2.467760e-69 1.840266e-68 2.899960e-68 1.381823e-67 9.050769e-68 2.047237e-67 8.639769e-68 1.371208e-67 5.332143e-68 8.085196e-68 3.646040e-68 2.071991e-67 1.401564e-66 4.322834e-65 2.452462e-64 5.477741e-63 1.717266e-62 2.318552e-61 3.265298e-61 5.838635e-60 1.225480e-59 6.030561e-58 8.035356e-58 4.542424e-56 3.908507e-56 1.444987e-54 7.318128e-55 1.294997e-53 3.749611e-54 2.001811e-53 3.863183e-54 2.310856e-54 4.339238e-55 1.400616e-55 -1.938731e-55 4.253227e-54 -8.358202e-53 1.218693e-51 -1.801743e-50 1.856137e-49 -1.991237e-48 1.340134e-47 -9.708084e-47 3.600562e-46 -1.417038e-45 1.858951e-45 -2.156226e-46 -5.743048e-46 -1.461910e-44 -3.214358e-44 2.552199e-43 1.316946e-41 -1.257419e-40 9.006719e-40 -3.127089e-39 5.347138e-39 -1.767593e-39 -1.887750e-40 6.511585e-42 -4.238507e-43 -9.720054e-45 9.986106e-45 -1.472987e-45 1.420854e-46 6.184233e-48 -4.732803e-49 2.785195e-50 5.370581e-52 4.774706e-52 -2.305254e-51 1.473862e-51 -3.123427e-52 7.010907e-53 -8.040534e-54 9.923482e-55 -7.691737e-56 6.226650e-57 -3.528188e-58 2.039968e-59 -8.812432e-61 3.821906e-62 -1.290840e-63 4.322950e-65 -1.156988e-66 3.037982e-68 -6.472881e-70 1.340620e-71 -2.272313e-73 3.715485e-75 -4.994610e-77 6.438503e-79 -6.838067e-81 6.932304e-83 -5.791675e-85 4.601276e-87 -3.007605e-89 1.862526e-91 -9.449749e-94 4.521176e-96 -1.757461e-98 6.397796e-101 6.526426e-103 2.847015e-101 9.825415e-100 3.323146e-98 1.109638e-96 3.538127e-95 1.112828e-93 3.253205e-92 9.422017e-91 2.456286e-89 6.421122e-88 1.455718e-86 3.393804e-85 6.575373e-84 1.365843e-82 2.238978e-81 4.167811e-80 5.728516e-79 9.608375e-78 1.090097e-76 
5.207954e-74 4.759120e-73 6.315870e-72 4.379771e-71 4.965335e-70 2.429397e-69 2.243620e-68 6.871654e-68 4.740741e-67 7.354185e-67 3.187084e-66 2.029058e-66 4.171547e-66 1.680244e-66 2.452881e-66 9.063780e-67 1.282652e-66 6.351805e-67 5.287640e-66 4.613555e-65 1.120121e-63 7.161634e-63 1.235754e-61 4.279638e-61 4.657529e-60 8.581847e-60 1.392725e-58 5.047570e-58 1.353100e-56 3.755608e-56 9.651347e-55 1.603871e-54 2.880307e-53 2.330213e-53 2.459412e-52 8.391047e-53 3.674487e-52 5.882801e-53 3.915980e-53 6.319482e-54 2.455480e-54 1.187580e-54 -1.621037e-53 3.557618e-52 -5.526009e-51 8.886103e-50 -9.648566e-49 1.118543e-47 -7.924990e-47 6.263563e-46 -2.478128e-45 1.135986e-44 -1.607036e-44 5.928207e-45 1.280059e-44 -3.933231e-43 -1.825361e-42 2.311429e-41 -1.878306e-40 1.183411e-39 -6.798601e-39 2.177276e-38 -3.544423e-38 1.113955e-38 1.016910e-39 -9.463596e-42 2.166704e-43 3.556600e-43 -1.182797e-43 1.941497e-44 -2.833444e-45 3.374513e-46 -2.334058e-47 4.154156e-49 -1.399953e-50 -1.263022e-50 2.356984e-50 -1.402681e-50 2.560983e-51 -5.401553e-52 5.685046e-53 -6.665053e-54 4.773275e-55 -3.655180e-56 1.895192e-57 -1.022149e-58 3.971647e-60 -1.576366e-61 4.700359e-63 -1.414338e-64 3.294716e-66 -7.676344e-68 1.414117e-69 -2.584691e-71 3.783382e-73 -5.449653e-75 6.321774e-77 -7.159091e-79 6.533121e-81 -5.781584e-83 4.113645e-85 -2.824621e-87 1.552782e-89 -8.207975e-92 3.450465e-94 -1.389532e-96 4.400870e-99 -1.312415e-101 5.987433e-102 2.360850e-100 9.193604e-99 3.510003e-97 1.311173e-95 4.686621e-94 1.638279e-92 5.322656e-91 1.696592e-89 4.854423e-88 1.377622e-86 3.372310e-85 8.396520e-84 1.725318e-82 3.765048e-81 6.435513e-80 1.238997e-78 1.749493e-77 2.988405e-76 3.439586e-75 
1.549966e-72 1.422912e-71 1.856293e-70 1.283635e-69 1.403069e-68 6.808962e-68 5.941085e-67 1.797504e-66 1.148705e-65 1.751067e-65 6.911118e-65 4.269064e-65 7.976355e-65 3.056426e-65 4.105914e-65 1.435773e-65 1.907244e-65 1.161506e-65 1.349019e-64 1.352291e-63 2.712210e-62 1.851400e-61 2.603605e-60 9.636406e-60 8.979982e-59 2.186036e-58 3.202857e-57 1.513799e-56 2.849814e-55 1.123507e-54 1.887942e-53 4.373155e-53 5.161546e-52 5.524546e-52 4.069581e-51 1.559023e-51 5.617063e-51 6.564168e-52 5.246599e-52 5.989682e-53 3.563755e-53 2.499538e-54 7.380366e-53 -1.511359e-51 2.537205e-50 -4.099776e-49 4.832476e-48 -5.602505e-47 4.369242e-46 -3.451788e-45 1.550307e-44 -7.276422e-44 1.208081e-43 -8.708833e-44 -3.156600e-43 -8.459389e-42 -5.494576e-41 9.541080e-41 9.152991e-40 -6.554893e-39 3.452067e-38 -1.219438e-37 1.954926e-37 -6.107153e-38 -4.517084e-39 -1.271439e-40 2.848265e-42 -2.732264e-42 7.308226e-43 -1.282962e-43 1.608683e-44 1.724036e-45 -6.899590e-46 1.335186e-47 3.665657e-49 2.081300e-49 -2.095741e-49 1.062532e-49 -1.900095e-50 3.539436e-51 -3.733848e-52 3.981196e-53 -2.849690e-54 2.006533e-55 -1.031501e-56 5.123006e-58 -1.946776e-59 7.057422e-61 -2.012252e-62 5.421507e-64 -1.167746e-65 2.358734e-67 -3.844864e-69 5.841093e-71 -7.197952e-73 8.225659e-75 -7.644986e-77 6.564381e-79 -4.590967e-81 2.959638e-83 -1.557042e-85 7.550379e-88 -3.002108e-90 1.103440e-92 -3.363889e-95 9.477557e-98 -2.296119e-100 1.254762e-102 3.614861e-101 1.623629e-99 7.290635e-98 3.168849e-96 1.353673e-94 5.474584e-93 2.165596e-91 7.880739e-90 2.803192e-88 8.853835e-87 2.753688e-85 7.301372e-84 1.952147e-82 4.257776e-81 9.786431e-80 1.743631e-78 3.474509e-77 5.037662e-76 8.759822e-75 1.022751e-73 
4.498067e-71 4.138470e-70 5.311794e-69 3.651712e-68 3.856791e-67 1.848928e-66 1.530021e-65 4.549261e-65 2.707049e-64 4.032570e-64 1.456636e-63 8.692346e-64 1.479394e-63 5.366980e-64 6.649437e-64 2.189017e-64 2.762170e-64 2.351913e-64 3.433046e-63 3.643043e-62 6.325211e-61 4.413476e-60 5.325229e-59 2.059591e-58 1.755937e-57 5.483073e-57 7.280578e-56 3.890080e-55 5.888389e-54 2.785493e-53 3.603666e-52 9.982701e-52 8.977788e-51 1.136268e-50 6.481632e-50 2.663886e-50 8.158341e-50 5.491547e-51 6.783574e-51 3.602068e-52 5.210717e-52 6.553632e-53 6.494828e-53 2.314931e-51 -4.401258e-50 8.225096e-49 -1.102000e-47 1.462238e-46 -1.287768e-45 1.151426e-44 -5.891562e-44 3.157010e-43 -6.585477e-43 1.390481e-42 -1.678420e-42 -5.427748e-41 -4.335433e-40 1.457766e-39 -7.268938e-39 2.573891e-38 -1.196308e-37 5.112003e-37 -8.770312e-37 2.620876e-37 1.615746e-38 1.077116e-39 3.812224e-41 1.342693e-41 -2.852661e-42 5.759894e-43 -1.464131e-43 2.693069e-44 -5.878274e-45 1.359246e-46 3.245996e-48 -3.147669e-48 1.324930e-48 -5.376884e-49 8.453679e-50 -1.386033e-50 1.294980e-51 -1.225281e-52 7.664748e-54 -4.746878e-55 2.100620e-56 -9.062200e-58 2.915362e-59 -9.041394e-61 2.141164e-62 -4.849971e-64 8.508664e-66 -1.420763e-67 1.855414e-69 -2.300033e-71 2.246811e-73 -2.080958e-75 1.528021e-77 -1.063736e-79 5.889500e-82 -3.103345e-84 1.282779e-86 -5.290550e-89 1.392947e-91 -6.777697e-94 -1.477292e-96 -2.176779e-98 -2.159429e-100 2.137702e-102 2.057336e-100 1.021097e-98 5.313855e-97 2.663231e-95 1.305011e-93 6.055010e-92 2.719856e-90 1.121665e-88 4.467330e-87 1.570956e-85 5.366552e-84 1.548464e-82 4.448130e-81 1.031027e-79 2.494934e-78 4.629824e-77 9.542025e-76 1.418243e-74 2.509041e-73 2.965566e-72 
1.242817e-69 1.145906e-68 1.445631e-67 9.881156e-67 1.007683e-65 4.770779e-65 3.743969e-64 1.092837e-63 6.059019e-63 8.804590e-63 2.912034e-62 1.675060e-62 2.595291e-62 8.876755e-63 1.014955e-62 3.130571e-63 3.824625e-63 5.122124e-63 8.330598e-62 9.035830e-61 1.381225e-59 9.705145e-59 1.029122e-57 4.177425e-57 3.394018e-56 1.309550e-55 1.551827e-54 8.849960e-54 1.133575e-52 5.994294e-52 6.344829e-51 1.962586e-50 1.423157e-49 2.007393e-49 9.222803e-49 3.915493e-49 1.024342e-48 1.076500e-50 7.599400e-50 -1.426338e-51 6.387710e-51 4.698844e-52 3.177001e-51 -1.112415e-51 4.127677e-50 -9.621523e-49 1.700132e-47 -2.599535e-46 2.899381e-45 -2.790119e-44 1.787101e-43 -9.847193e-43 2.822725e-42 -6.108089e-42 -1.322569e-41 -2.551113e-40 -1.692265e-40 -8.438926e-40 3.441693e-39 -1.517351e-38 1.224658e-37 -1.730826e-36 3.409326e-36 -1.012510e-36 -5.048576e-38 -5.649935e-39 -5.403757e-40 -8.592299e-41 2.958627e-42 -6.081276e-43 1.215624e-43 -1.994071e-44 6.419448e-45 8.469695e-46 3.579632e-47 1.711538e-47 -6.619671e-48 1.928280e-48 -2.947071e-49 3.859406e-50 -3.348885e-51 2.501450e-52 -1.356426e-53 6.354628e-55 -2.271704e-56 7.030459e-58 -1.719717e-59 3.650313e-61 -6.349630e-63 9.651500e-65 -1.263081e-66 1.461447e-68 -1.544006e-70 1.428447e-72 -1.271948e-74 8.936186e-77 -7.482815e-79 2.298174e-81 -5.048058e-83 -2.809840e-85 -6.782458e-87 -6.736061e-89 -9.843761e-91 -9.370510e-93 -1.119295e-94 -9.620202e-97 -9.767929e-99 -6.800757e-101 1.129240e-99 4.876764e-98 3.176145e-96 1.835390e-94 1.071948e-92 5.785706e-91 3.037002e-89 1.436238e-87 6.542780e-86 2.582890e-84 9.828809e-83 3.097924e-81 9.635266e-80 2.373990e-78 6.070103e-77 1.171881e-75 2.501267e-74 3.806838e-73 6.851497e-72 8.193379e-71 
3.369373e-68 3.107272e-67 3.853865e-66 2.612662e-65 2.576490e-64 1.200790e-63 8.961363e-63 2.557461e-62 1.325990e-61 1.871638e-61 5.684924e-61 3.142227e-61 4.434521e-61 1.424573e-61 1.504335e-61 4.334274e-62 5.295002e-62 1.169005e-61 1.954443e-60 2.104268e-59 2.905847e-58 2.023705e-57 1.951686e-56 8.356887e-56 6.729931e-55 3.005997e-54 3.200296e-53 1.857791e-52 2.117398e-51 1.183420e-50 1.086516e-49 3.558642e-49 2.202641e-48 3.305191e-48 1.282130e-47 5.473823e-48 1.250473e-47 -5.785801e-49 8.786014e-49 -7.380334e-50 7.975289e-50 4.080539e-51 6.142124e-50 7.156403e-51 -4.663016e-51 2.422622e-49 -6.207187e-48 8.574247e-47 -1.413900e-45 1.951263e-44 -1.807329e-43 1.510519e-42 -7.309660e-42 4.290995e-41 -9.968491e-41 -5.273481e-40 -1.285199e-39 -1.076683e-41 -5.004713e-40 2.044657e-38 4.897030e-37 4.835317e-36 -1.087702e-35 3.071880e-36 1.321857e-37 1.837437e-38 2.781127e-39 4.380011e-40 4.007497e-41 2.725467e-42 -6.212316e-44 8.732263e-45 -2.882292e-45 2.179833e-45 3.367427e-46 -1.260484e-46 1.849200e-47 -3.072483e-48 3.069474e-49 -2.675154e-50 1.567789e-51 -7.755756e-53 2.889134e-54 -9.037648e-56 2.431657e-57 -5.462782e-59 1.176935e-60 -2.040132e-62 3.408003e-64 -4.650554e-66 4.646815e-68 -8.380194e-70 -6.789063e-72 -2.982220e-73 -7.776811e-75 -1.459609e-76 -3.471016e-78 -5.385205e-80 -1.036635e-81 -1.401309e-83 -2.216925e-85 -2.628488e-87 -3.489933e-89 -3.642572e-91 -4.128317e-93 -3.811414e-95 -3.739940e-97 -3.257795e-99 1.198929e-98 1.769452e-97 1.903800e-95 1.172427e-93 8.266349e-92 5.253817e-90 3.233822e-88 1.780626e-86 9.310443e-85 4.174274e-83 1.772920e-81 6.139827e-80 2.066398e-78 5.417903e-77 1.461200e-75 2.932148e-74 6.468918e-73 1.006655e-71 1.840351e-70 2.222923e-69 
8.786792e-67 8.101330e-66 9.872019e-65 6.636263e-64 6.325669e-63 2.900635e-62 2.058453e-61 5.736632e-61 2.782207e-60 3.807302e-60 1.061781e-59 5.624678e-60 7.223314e-60 2.168216e-60 2.116855e-60 5.675792e-61 7.327918e-61 2.659722e-60 4.334133e-59 4.593743e-58 5.776992e-57 3.989431e-56 3.566932e-55 1.638398e-54 1.321321e-53 6.490727e-53 6.177350e-52 3.593013e-51 3.699537e-50 2.136411e-49 1.734760e-48 5.872440e-48 3.167214e-47 4.924430e-47 1.641506e-46 6.865218e-47 1.380449e-46 -1.436344e-47 9.507951e-48 -1.290655e-48 8.576427e-49 5.843369e-50 9.328999e-49 8.948366e-50 2.811012e-49 -1.052326e-48 -4.258229e-47 3.823390e-48 -1.334123e-46 -2.373142e-44 6.184644e-45 -1.339973e-42 -2.922059e-42 -2.806703e-41 -4.507787e-41 -1.191914e-39 -4.286317e-39 -2.327367e-40 -2.743543e-39 -1.747169e-37 -2.312554e-36 -1.579601e-35 3.450490e-35 -8.698618e-36 -3.433495e-37 -5.025656e-38 -8.928883e-39 -1.515609e-39 -2.155377e-40 -2.154272e-41 -3.371598e-43 6.410301e-44 -3.737534e-45 3.701582e-45 1.773920e-46 9.347696e-47 1.034490e-47 9.205982e-49 -6.415745e-51 6.579198e-53 -6.025611e-53 -8.130366e-55 -5.712752e-56 6.115722e-58 4.646834e-59 3.323199e-60 8.982433e-62 1.983151e-63 -7.841881e-65 -4.476210e-66 -2.965296e-67 -9.240290e-69 -3.377226e-70 -8.268737e-72 -2.223242e-73 -4.525762e-75 -9.671159e-77 -1.671164e-78 -2.941309e-80 -4.363530e-82 -6.462391e-84 -8.299458e-86 -1.050097e-87 -1.175943e-89 -1.286561e-91 -1.265089e-93 -1.209471e-95 -1.131744e-97 2.433246e-97 -1.180628e-96 1.335618e-94 5.243673e-93 5.282119e-91 3.934070e-89 2.993552e-87 1.954495e-85 1.213870e-83 6.260793e-82 3.030995e-80 1.158619e-78 4.263374e-77 1.188375e-75 3.395970e-74 7.067388e-73 1.614332e-71 2.563935e-70 4.762226e-69 5.804080e-68 
2.261233e-65 2.081318e-64 2.491096e-63 1.657547e-62 1.528506e-61 6.879845e-61 4.651323e-60 1.261983e-59 5.738417e-59 7.589727e-59 1.945649e-58 9.858555e-59 1.150746e-58 3.218943e-59 2.903431e-59 7.262746e-60 1.067846e-59 5.921453e-59 9.241619e-58 9.539784e-57 1.112759e-55 7.609113e-55 6.496790e-54 3.222836e-53 2.615448e-52 1.340508e-51 1.151487e-50 6.568500e-50 6.266912e-49 3.655228e-48 2.707082e-47 9.274445e-47 4.498195e-46 7.113651e-46 2.096203e-45 8.541382e-46 1.530887e-45 -2.365012e-46 1.076814e-46 -1.794973e-47 9.301556e-48 1.378609e-48 1.449507e-47 1.848586e-48 7.671643e-48 -4.650817e-47 -8.927907e-46 -1.792430e-45 -8.619820e-45 6.093244e-43 5.291215e-43 8.686744e-42 3.445413e-42 6.611483e-41 2.343321e-40 -1.545553e-39 -1.677086e-38 -1.707063e-39 1.740682e-37 1.025402e-36 9.999339e-36 4.994197e-35 -1.064128e-34 2.418447e-35 8.605564e-37 1.357533e-37 2.788322e-38 5.055550e-39 1.019327e-39 1.366333e-40 2.073263e-41 9.584698e-43 -4.443044e-44 7.194551e-45 -8.445982e-46 -2.174055e-46 -3.371853e-47 -5.887950e-48 -4.991853e-49 -3.883775e-50 -1.460493e-51 -5.280068e-53 -2.461879e-55 2.719871e-56 2.861009e-57 1.087096e-58 2.937775e-60 4.080315e-62 -2.056469e-63 -1.376817e-64 -7.197811e-66 -2.398772e-67 -7.819648e-69 -2.006248e-70 -5.037152e-72 -1.064683e-73 -2.181614e-75 -3.894931e-77 -6.687809e-79 -1.022279e-80 -1.494788e-82 -1.975077e-84 -2.488602e-86 -2.864906e-88 -3.140841e-90 -3.172922e-92 -3.052633e-94 -2.976652e-96 6.229162e-96 -6.211551e-95 2.157667e-93 7.046939e-93 3.630519e-90 2.767864e-88 2.666753e-86 2.091528e-84 1.550572e-82 9.342365e-81 5.167221e-79 2.194314e-77 8.809499e-76 2.611027e-74 7.878112e-73 1.698080e-71 4.002538e-70 6.478848e-69 1.219504e-67 1.497678e-66 
5.651200e-64 5.188938e-63 6.098574e-62 4.014798e-61 3.581361e-60 1.581245e-59 1.018572e-58 2.686820e-58 1.145534e-57 1.461315e-57 3.440546e-57 1.662439e-57 1.761445e-57 4.563210e-58 3.808884e-58 8.918171e-59 1.646151e-58 1.269927e-57 1.873754e-56 1.884746e-55 2.052777e-54 1.402485e-53 1.164196e-52 6.272287e-52 5.055446e-51 2.621499e-50 2.032203e-49 1.132208e-48 1.006458e-47 5.888792e-47 4.012657e-46 1.379598e-45 6.086078e-45 9.677592e-45 2.553674e-44 1.000975e-44 1.615259e-44 -3.215736e-45 1.160650e-45 -2.126185e-46 9.210906e-47 2.750394e-47 2.061559e-46 3.125950e-47 1.655023e-46 -5.023275e-46 -1.655331e-44 -3.393814e-43 -1.502609e-42 -1.170997e-41 1.138146e-41 -4.301089e-41 2.416671e-41 2.343161e-42 5.901509e-41 -1.616203e-39 -5.212265e-38 -1.310809e-37 -3.339144e-37 -1.401206e-36 -2.298777e-35 -1.773584e-34 3.265846e-34 -6.376101e-35 -2.126715e-36 -3.385738e-37 -7.147473e-38 -1.328137e-38 -2.821587e-39 -4.331435e-40 -8.390076e-41 -7.880145e-42 -1.024825e-42 2.582114e-44 -5.063365e-46 3.148465e-47 1.139144e-47 3.193385e-48 4.697352e-49 7.211711e-50 6.353149e-51 5.698865e-52 3.116703e-53 1.750370e-54 6.057606e-56 2.098642e-57 3.149225e-59 -1.403932e-61 -6.450152e-62 -3.420838e-63 -1.420489e-64 -4.785127e-66 -1.408292e-67 -3.739345e-69 -8.827132e-71 -1.941251e-72 -3.819243e-74 -7.102380e-76 -1.186411e-77 -1.889002e-79 -2.712188e-81 -3.732221e-83 -4.650110e-85 -5.574058e-87 -6.075384e-89 -6.387778e-91 -6.133984e-93 -6.418186e-95 1.608781e-94 -2.019860e-93 5.327498e-92 -5.999642e-91 3.314294e-89 1.251790e-87 2.013877e-85 1.899056e-83 1.794122e-81 1.288997e-79 8.425986e-78 3.995120e-76 1.773967e-74 5.573412e-73 1.784750e-71 3.970050e-70 9.673718e-69 1.591902e-67 3.037678e-66 3.753692e-65 
1.400989e-62 1.282112e-61 1.478565e-60 9.620358e-60 8.304585e-59 3.591740e-58 2.206824e-57 5.648471e-57 2.260418e-56 2.775779e-56 5.997927e-56 2.761367e-56 2.648082e-56 6.344589e-57 4.889239e-57 1.091146e-57 2.735526e-57 2.616874e-56 3.661846e-55 3.580336e-54 3.700146e-53 2.543872e-52 2.100833e-51 1.219140e-50 9.676452e-50 4.942752e-49 3.485144e-48 1.874024e-47 1.576661e-46 9.184664e-46 5.875378e-45 2.016884e-44 8.265349e-44 1.319608e-43 3.180447e-43 1.221923e-43 1.777992e-43 -4.102520e-44 1.279392e-44 -2.410383e-45 9.378185e-46 5.317146e-46 3.365470e-45 4.499756e-46 4.098955e-45 8.556843e-44 4.523615e-43 6.926406e-42 5.494037e-42 1.409716e-40 -1.570452e-40 1.839002e-40 -4.289977e-41 8.484965e-41 4.599082e-40 -5.391206e-39 -1.093572e-37 -4.418194e-37 -2.706760e-36 -1.770038e-35 -1.197046e-35 7.461352e-34 -1.049717e-33 1.706066e-34 5.432747e-36 8.536531e-37 1.765885e-37 3.209789e-38 6.530835e-39 1.003340e-39 1.817753e-40 2.055233e-41 2.640644e-42 8.008906e-44 -5.653622e-45 -7.173630e-46 -6.339401e-47 -9.926440e-48 -1.110618e-48 -1.414256e-49 -1.334831e-50 -1.274457e-51 -9.353436e-53 -6.677141e-54 -3.825304e-55 -2.112611e-56 -9.764799e-58 -4.345711e-59 -1.667557e-60 -6.145269e-62 -1.982564e-63 -6.120362e-65 -1.665080e-66 -4.327245e-68 -9.954431e-70 -2.189543e-71 -4.283865e-73 -8.034468e-75 -1.347807e-76 -2.173724e-78 -3.153664e-80 -4.410024e-82 -5.578249e-84 -6.813992e-86 -7.568087e-88 -8.128031e-90 -7.974940e-92 -9.530337e-94 4.136991e-93 -5.944006e-92 1.446758e-90 -2.153148e-89 6.714797e-88 -1.796948e-87 1.664425e-84 1.659784e-82 2.059018e-80 1.791603e-78 1.393239e-76 7.412906e-75 3.625079e-73 1.205025e-71 4.071250e-70 9.327905e-69 2.337968e-67 3.906027e-66 7.529251e-65 9.352269e-64 
3.403315e-61 3.101191e-60 3.509916e-59 2.255920e-58 1.885185e-57 7.981737e-57 4.679562e-56 1.160633e-55 4.359268e-55 5.141839e-55 1.018066e-54 4.450110e-55 3.855886e-55 8.481173e-56 6.048819e-56 1.321519e-56 4.772468e-56 5.187865e-55 6.873685e-54 6.561338e-53 6.487076e-52 4.544905e-51 3.775687e-50 2.336113e-49 1.801241e-48 8.952726e-48 5.753089e-47 2.985400e-46 2.385846e-45 1.383265e-44 8.361963e-44 2.861775e-43 1.100371e-42 1.757993e-42 3.923213e-42 1.479007e-42 1.961060e-42 -4.941538e-43 1.369767e-43 -2.559325e-44 9.359502e-45 9.137640e-45 6.017510e-44 -9.561008e-45 -9.995910e-44 9.670814e-42 -2.438664e-41 -1.857537e-40 3.292491e-40 -1.516478e-39 1.104768e-39 -6.843066e-40 1.234346e-40 -1.218264e-41 3.873083e-41 -5.767272e-39 -2.227767e-37 -1.728448e-37 3.127649e-35 2.066991e-34 7.895276e-34 -3.331232e-33 3.544533e-33 -4.532327e-34 -1.448115e-35 -2.172629e-36 -4.308534e-37 -7.297454e-38 -1.363654e-38 -1.890166e-39 -2.917046e-40 -2.500407e-41 -2.025389e-42 -1.319957e-44 -2.390583e-46 -1.215538e-46 -2.121232e-47 -4.856285e-48 -7.278996e-49 -1.216590e-49 -1.438581e-50 -1.764227e-51 -1.593239e-52 -1.446178e-53 -9.970695e-55 -6.824146e-56 -3.641637e-57 -1.921792e-58 -8.086958e-60 -3.365321e-61 -1.138688e-62 -3.816316e-64 -1.058012e-65 -2.911511e-67 -6.729827e-69 -1.547187e-70 -3.028718e-72 -5.905855e-74 -9.924391e-76 -1.662548e-77 -2.425391e-79 -3.527220e-81 -4.507366e-83 -5.737511e-85 -6.467139e-87 -7.251315e-89 -7.245087e-91 -1.225351e-92 1.041628e-91 -1.671460e-90 3.900386e-89 -6.683544e-88 1.819634e-86 -3.067044e-85 1.724493e-83 9.689303e-82 2.103744e-79 2.254320e-77 2.231288e-75 1.335760e-73 7.323681e-72 2.559180e-70 9.171048e-69 2.153379e-67 5.561051e-66 9.402716e-65 1.831732e-63 2.282893e-62 
8.239708e-60 7.474002e-59 8.292024e-58 5.263802e-57 4.257999e-56 1.764396e-55 9.875128e-55 2.371702e-54 8.359324e-54 9.464546e-54 1.712312e-53 7.108199e-54 5.538166e-54 1.118453e-54 7.352432e-55 1.657518e-55 8.562976e-55 9.882095e-54 1.248949e-52 1.167011e-51 1.121075e-50 8.080391e-50 6.827792e-49 4.430934e-48 3.302132e-47 1.581653e-46 9.310389e-46 4.628632e-45 3.553258e-44 2.052570e-43 1.190599e-42 4.081219e-42 1.496140e-41 2.417259e-41 5.070799e-41 1.953799e-41 2.339918e-41 -6.042918e-42 1.494471e-42 -2.688546e-43 9.796909e-44 1.569278e-43 1.499721e-42 -1.085951e-42 -6.624160e-41 -7.559633e-40 1.055846e-40 4.124897e-39 -7.741237e-39 1.218782e-38 -5.996626e-39 2.193395e-39 -2.198260e-40 9.528855e-41 1.138635e-39 -3.179638e-38 -1.647170e-36 -2.474371e-35 -2.854338e-34 -1.955576e-33 -8.843772e-33 1.693427e-32 -1.292324e-32 1.274834e-33 4.196445e-35 6.068204e-36 1.120182e-36 1.764143e-37 2.916319e-38 3.752268e-39 4.883763e-40 4.188297e-41 2.510903e-42 4.393948e-44 -1.350733e-45 -9.268413e-47 -7.971011e-48 -1.606712e-48 -2.429207e-49 -4.297742e-50 -5.342269e-51 -6.953323e-52 -6.588712e-53 -6.299784e-54 -4.554794e-55 -3.270862e-56 -1.835763e-57 -1.016780e-58 -4.527309e-60 -1.985822e-61 -7.173033e-63 -2.553552e-64 -7.641171e-66 -2.256058e-67 -5.696112e-69 -1.420207e-70 -3.070638e-72 -6.556392e-74 -1.227343e-75 -2.266953e-77 -3.701945e-79 -5.955238e-81 -8.524459e-83 -1.199653e-84 -1.509891e-86 -1.864517e-88 -2.061263e-90 -1.474516e-91 2.568276e-90 -4.487115e-89 1.036905e-87 -1.958769e-86 5.192119e-85 -1.055388e-83 3.656754e-82 1.956977e-82 2.279881e-78 2.843522e-76 3.718846e-74 2.497689e-72 1.523383e-70 5.568492e-69 2.097271e-67 5.034086e-66 1.330352e-64 2.273745e-63 4.456017e-62 5.568961e-61 
1.971335e-58 1.777996e-57 1.934988e-56 1.212543e-55 9.503387e-55 3.852353e-54 2.060092e-53 4.785954e-53 1.582846e-52 1.716689e-52 2.830796e-52 1.111360e-52 7.768992e-53 1.427993e-53 8.684153e-54 2.163568e-54 1.544439e-53 1.824038e-52 2.203529e-51 2.029321e-50 1.913496e-49 1.433772e-48 1.233752e-47 8.280016e-47 5.926895e-46 2.727470e-45 1.476319e-44 7.044157e-44 5.217329e-43 3.010230e-42 1.687895e-41 5.806480e-41 2.052747e-40 3.358361e-40 6.733504e-40 2.675918e-40 2.939128e-40 -7.449782e-41 1.651479e-41 -2.786338e-42 1.086466e-42 1.474901e-42 5.651832e-41 1.139783e-39 5.427043e-39 2.856536e-38 1.403302e-38 -7.633197e-38 9.696552e-38 -8.729317e-38 2.859205e-38 -7.169296e-39 5.886179e-40 -1.863099e-41 7.306813e-41 1.819254e-38 1.266756e-36 5.613386e-35 1.797446e-33 1.364325e-32 8.229630e-32 -8.760170e-32 5.011505e-32 -3.584690e-33 -1.321785e-34 -1.800872e-35 -3.106980e-36 -4.324740e-37 -6.258291e-38 -6.753678e-39 -7.197134e-40 -4.714435e-41 -2.133427e-42 -1.943219e-44 2.350493e-47 -4.727624e-48 -1.120856e-48 -2.982796e-49 -5.375197e-50 -1.072902e-50 -1.482052e-51 -2.140274e-52 -2.242648e-53 -2.395166e-54 -1.933372e-55 -1.571112e-56 -9.960088e-58 -6.316819e-59 -3.202479e-60 -1.619115e-61 -6.670300e-63 -2.736575e-64 -9.292817e-66 -3.141325e-67 -8.906814e-69 -2.514158e-70 -6.021303e-72 -1.435824e-73 -2.933931e-75 -5.968318e-77 -1.049258e-78 -1.835408e-80 -2.794746e-82 -4.230215e-84 -5.607981e-86 -7.381126e-88 -8.424770e-90 -3.104352e-90 6.209125e-89 -1.174092e-87 2.715330e-86 -5.592679e-85 1.470735e-83 -3.329028e-82 1.037440e-80 -2.454104e-79 2.558886e-77 2.836633e-75 6.146493e-73 4.585342e-71 3.181470e-69 1.203503e-67 4.786301e-66 1.167030e-64 3.160173e-63 5.439462e-62 1.072965e-60 1.341819e-59 
4.719815e-57 4.234554e-56 4.513474e-55 2.794326e-54 2.121020e-53 8.420317e-53 4.302029e-52 9.676980e-52 2.999261e-51 3.119024e-51 4.663771e-51 1.733693e-51 1.079987e-51 1.810084e-52 1.012414e-52 3.025601e-53 2.747202e-52 3.244875e-51 3.777335e-50 3.450902e-49 3.240823e-48 2.539953e-47 2.227459e-46 1.526595e-45 1.049553e-44 4.637641e-44 2.314498e-43 1.054963e-42 7.602478e-42 4.410008e-41 2.420557e-40 8.450472e-40 2.918667e-39 4.928405e-39 9.557866e-39 4.126558e-39 4.115059e-39 -9.665547e-40 1.859131e-40 -2.794427e-41 1.537333e-41 -2.845856e-40 -4.119373e-39 -4.278828e-38 -1.518488e-37 -6.160314e-37 -5.562739e-37 1.054739e-36 -9.873987e-37 5.545342e-37 -1.245827e-37 2.101264e-38 -8.788202e-40 -9.594421e-42 -1.088406e-39 3.126982e-38 -3.126864e-35 -1.148435e-33 -2.101456e-32 -9.749526e-32 -7.452572e-31 5.156958e-31 -2.131245e-31 1.080742e-32 4.734923e-34 6.230745e-35 9.757985e-36 1.225173e-36 1.504213e-37 1.442578e-38 1.228534e-39 7.241863e-41 2.207469e-42 2.445503e-44 -3.767678e-46 -1.348888e-47 -5.471549e-49 -7.280684e-50 -1.049435e-50 -2.000281e-51 -2.799687e-52 -4.147565e-53 -4.441702e-54 -4.854414e-55 -3.957876e-56 -3.250006e-57 -2.049966e-58 -1.293485e-59 -6.420966e-61 -3.177505e-62 -1.261810e-63 -4.988206e-65 -1.609276e-66 -5.167912e-68 -1.374285e-69 -3.640169e-71 -8.087595e-73 -1.791897e-74 -3.369041e-76 -6.328645e-78 -1.020311e-79 -1.648761e-81 -2.315401e-83 -3.276651e-85 -4.091862e-87 -5.217886e-89 1.407929e-90 -6.922694e-89 1.457366e-87 -2.950163e-86 6.940038e-85 -1.535672e-83 4.086754e-82 -1.002541e-80 3.119896e-79 -9.012544e-78 4.687168e-76 1.961527e-74 1.104643e-71 8.927474e-70 6.936329e-68 2.694787e-66 1.116542e-64 2.758325e-63 7.586498e-62 1.313920e-60 2.594206e-59 3.246002e-58 
1.125505e-55 1.003241e-54 1.048553e-53 6.410787e-53 4.719981e-52 1.835039e-51 8.970831e-51 1.953160e-50 5.673800e-50 5.649308e-50 7.632200e-50 2.672787e-50 1.479565e-50 2.237430e-51 1.157647e-51 4.490594e-52 4.817182e-51 5.638007e-50 6.352524e-49 5.809220e-48 5.493870e-47 4.523364e-46 4.025617e-45 2.788217e-44 1.840128e-43 7.811562e-43 3.615436e-42 1.578965e-41 1.113660e-40 6.518169e-40 3.534334e-39 1.256691e-38 4.300188e-38 7.522635e-38 1.441045e-37 6.809294e-38 6.355072e-38 -1.321036e-38 2.211242e-39 -2.687109e-40 1.440143e-39 2.313687e-38 1.709485e-37 1.155373e-36 2.842269e-36 1.049926e-35 1.138529e-35 -1.224976e-35 8.437622e-36 -3.368273e-36 5.411952e-37 -6.706440e-38 2.522283e-39 -7.487513e-40 -9.482897e-39 6.153223e-36 4.130497e-34 1.136969e-32 3.942000e-31 3.945082e-31 6.420929e-30 -2.994674e-30 9.597303e-31 -3.159622e-32 -1.895471e-33 -2.338357e-34 -3.376178e-35 -3.636053e-36 -3.839207e-37 -3.014287e-38 -2.127353e-39 -9.953813e-41 -2.830550e-42 -3.273322e-44 -7.586500e-48 -6.314845e-49 -5.795345e-50 -9.550597e-51 -1.503689e-51 -2.966436e-52 -4.334744e-53 -6.735179e-54 -7.544279e-55 -8.680047e-56 -7.426829e-57 -6.455084e-58 -4.313833e-59 -2.915074e-60 -1.559714e-61 -8.425464e-63 -3.696074e-64 -1.636450e-65 -6.009930e-67 -2.226546e-68 -6.958481e-70 -2.190553e-71 -5.891490e-73 -1.592198e-74 -3.710668e-76 -8.664267e-78 -1.756776e-79 -3.558117e-81 -6.291821e-83 -1.108189e-84 -1.713319e-86 -2.672776e-88 1.286699e-89 -1.567571e-87 3.372904e-86 -7.303440e-85 1.754493e-83 -4.157790e-82 1.125812e-80 -2.974514e-79 9.352558e-78 -2.967119e-76 1.236681e-74 -3.834649e-73 2.058169e-70 1.729310e-68 1.540283e-66 6.059196e-65 2.623686e-63 6.520610e-62 1.823134e-60 3.164134e-59 6.256836e-58 7.814517e-57 