# vtk DataFile Version 2.0
Comment goes here
ASCII

DATASET STRUCTURED_POINTS
DIMENSIONS    128   128   1

ORIGIN    0.000   0.000   0.000
SPACING   0.0156250.015625   1.000

POINT_DATA   16384
SCALARS Omega double
LOOKUP_TABLE default

8.362479e-06 7.223854e-06 6.126956e-06 5.203986e-06 4.286280e-06 3.520872e-06 2.733032e-06 2.081206e-06 1.389829e-06 8.234720e-07 2.112544e-07 -2.829298e-07 -8.196834e-07 -1.243607e-06 -1.699715e-06 -2.049328e-06 -2.417275e-06 -2.689551e-06 -2.967370e-06 -3.168375e-06 -3.368291e-06 -3.521744e-06 -3.678935e-06 -3.834590e-06 -4.015371e-06 -4.256526e-06 -4.565237e-06 -5.014684e-06 -5.598656e-06 -6.422498e-06 -7.474562e-06 -8.883454e-06 -1.064160e-05 -1.288913e-05 -1.563305e-05 -1.901109e-05 -2.305539e-05 -2.788615e-05 -3.356991e-05 -4.019428e-05 -4.786633e-05 -5.662760e-05 -6.662631e-05 -7.784765e-05 -9.047356e-05 -1.044269e-04 -1.199057e-04 -1.367694e-04 -1.552028e-04 -1.750052e-04 -1.963079e-04 -2.188566e-04 -2.426796e-04 -2.674775e-04 -2.931232e-04 -3.192790e-04 -3.456142e-04 -3.717584e-04 -3.971414e-04 -4.213644e-04 -4.436018e-04 -4.634327e-04 -4.797876e-04 -4.922379e-04 -4.995148e-04 -5.012139e-04 -4.959513e-04 -4.834079e-04 -4.622165e-04 -4.322429e-04 -3.923260e-04 -3.426582e-04 -2.825330e-04 -2.126403e-04 -1.330177e-04 -4.501242e-05 5.032990e-05 1.509288e-04 2.546128e-04 3.586728e-04 4.599866e-04 5.555716e-04 6.419090e-04 7.163319e-04 7.757834e-04 8.185995e-04 8.430896e-04 8.491448e-04 8.370226e-04 8.083165e-04 7.651622e-04 7.104206e-04 6.473318e-04 5.791533e-04 5.091524e-04 4.401310e-04 3.745623e-04 3.142794e-04 2.606080e-04 2.142850e-04 1.755701e-04 1.442808e-04 1.198886e-04 1.015428e-04 8.821691e-05 7.874067e-05 7.202509e-05 6.708363e-05 6.318098e-05 5.977325e-05 5.653842e-05 5.329103e-05 4.996088e-05 4.654586e-05 4.307024e-05 3.959764e-05 3.616015e-05 3.283552e-05 2.962915e-05 2.661789e-05 2.377137e-05 2.116535e-05 1.873457e-05 1.655819e-05 1.454034e-05 1.276873e-05 1.112194e-05 9.700508e-06 
4.792977e-03 2.782855e-03 1.082013e-03 -3.418193e-04 -1.510981e-03 -2.450934e-03 -3.176821e-03 -3.709158e-03 -4.057922e-03 -4.240309e-03 -4.262983e-03 -4.141129e-03 -3.879736e-03 -3.492990e-03 -2.985611e-03 -2.371547e-03 -1.656463e-03 -8.546756e-04 2.615896e-05 9.708011e-04 1.968668e-03 3.003011e-03 4.059473e-03 5.119107e-03 6.163026e-03 7.169295e-03 8.113860e-03 8.970962e-03 9.710961e-03 1.030352e-02 1.071333e-02 1.090502e-02 1.083808e-02 1.047215e-02 9.762761e-03 8.665511e-03 7.134134e-03 5.122377e-03 2.585581e-03 -5.206855e-04 -4.234686e-03 -8.593616e-03 -1.362316e-02 -1.934614e-02 -2.576832e-02 -3.288974e-02 -4.068833e-02 -4.913253e-02 -5.816523e-02 -6.771564e-02 -7.768665e-02 -8.796380e-02 -9.840925e-02 -1.088657e-01 -1.191595e-01 -1.290980e-01 -1.384830e-01 -1.471001e-01 -1.547420e-01 -1.611909e-01 -1.662471e-01 -1.697075e-01 -1.713944e-01 -1.711341e-01 -1.687800e-01 -1.641982e-01 -1.572791e-01 -1.479375e-01 -1.361089e-01 -1.217715e-01 -1.049255e-01 -8.563987e-02 -6.401590e-02 -4.025550e-02 -1.461023e-02 1.254255e-02 4.076063e-02 6.947849e-02 9.806954e-02 1.258333e-01 1.520445e-01 1.759995e-01 1.970354e-01 2.146233e-01 2.283527e-01 2.380403e-01 2.436999e-01 2.456347e-01 2.444044e-01 2.408543e-01 2.360294e-01 2.310894e-01 2.271296e-01 2.250500e-01 2.253835e-01 2.282867e-01 2.334838e-01 2.403884e-01 2.481184e-01 2.556482e-01 2.618452e-01 2.656058e-01 2.659613e-01 2.622559e-01 2.543040e-01 2.424584e-01 2.275035e-01 2.104507e-01 1.922978e-01 1.739049e-01 1.559054e-01 1.387405e-01 1.226653e-01 1.078208e-01 9.424859e-02 8.194262e-02 7.085270e-02 6.091427e-02 5.204560e-02 4.416426e-02 3.718341e-02 3.102074e-02 2.559600e-02 2.083495e-02 1.666889e-02 1.303477e-02 9.876980e-03 7.144009e-03 
9.269056e-03 5.254979e-03 1.859446e-03 -9.833985e-04 -3.316106e-03 -5.191073e-03 -6.636362e-03 -7.694676e-03 -8.383684e-03 -8.739635e-03 -8.773560e-03 -8.517833e-03 -7.980170e-03 -7.191021e-03 -6.157662e-03 -4.910051e-03 -3.457507e-03 -1.830607e-03 -4.287374e-05 1.873488e-03 3.898829e-03 5.998216e-03 8.144137e-03 1.029760e-02 1.242168e-02 1.447176e-02 1.640021e-02 1.815508e-02 1.967718e-02 2.090564e-02 2.176960e-02 2.219821e-02 2.210986e-02 2.142374e-02 2.004994e-02 1.789947e-02 1.487850e-02 1.089402e-02 5.855157e-03 -3.278664e-04 -7.733349e-03 -1.643709e-02 -2.649233e-02 -3.794661e-02 -5.081324e-02 -6.509451e-02 -8.074776e-02 -9.771210e-02 -1.158741e-01 -1.350939e-01 -1.551771e-01 -1.758954e-01 -1.969717e-01 -2.180906e-01 -2.389019e-01 -2.590183e-01 -2.780390e-01 -2.955327e-01 -3.110803e-01 -3.242429e-01 -3.346180e-01 -3.417966e-01 -3.454212e-01 -3.451424e-01 -3.406660e-01 -3.317214e-01 -3.180873e-01 -2.995876e-01 -2.760877e-01 -2.475328e-01 -2.139113e-01 -1.753441e-01 -1.320171e-01 -8.431362e-02 -3.272264e-02 2.201631e-02 7.901795e-02 1.371496e-01 1.951301e-01 2.515333e-01 3.048527e-01 3.536375e-01 3.964944e-01 4.323154e-01 4.602207e-01 4.797945e-01 4.910278e-01 4.944979e-01 4.913433e-01 4.833082e-01 4.726048e-01 4.617135e-01 4.529914e-01 4.483760e-01 4.489874e-01 4.551362e-01 4.662064e-01 4.809430e-01 4.974857e-01 5.136957e-01 5.272083e-01 5.356910e-01 5.370429e-01 5.297977e-01 5.135247e-01 4.890345e-01 4.581125e-01 4.230012e-01 3.858384e-01 3.484005e-01 3.119469e-01 2.773224e-01 2.449940e-01 2.152052e-01 1.880119e-01 1.633817e-01 1.412030e-01 1.213375e-01 1.036181e-01 8.787558e-02 7.393547e-02 6.163051e-02 5.080071e-02 4.129574e-02 3.297936e-02 2.572397e-02 1.941993e-02 1.396295e-02 
1.312562e-02 7.117990e-03 2.034787e-03 -2.219515e-03 -5.710241e-03 -8.512635e-03 -1.067047e-02 -1.224444e-02 -1.326298e-02 -1.377718e-02 -1.380576e-02 -1.339415e-02 -1.255628e-02 -1.133492e-02 -9.743449e-03 -7.824145e-03 -5.593446e-03 -3.094865e-03 -3.509952e-04 2.591866e-03 5.702209e-03 8.929264e-03 1.223010e-02 1.554743e-02 1.882461e-02 2.199546e-02 2.498766e-02 2.772349e-02 3.011359e-02 3.206626e-02 3.347473e-02 3.423169e-02 3.421411e-02 3.329902e-02 3.135056e-02 2.823264e-02 2.380291e-02 1.791839e-02 1.044032e-02 1.229659e-03 -9.834405e-03 -2.287071e-02 -3.796333e-02 -5.518920e-02 -7.457296e-02 -9.612355e-02 -1.197815e-01 -1.454599e-01 -1.729918e-01 -2.021699e-01 -2.327032e-01 -2.642486e-01 -2.963874e-01 -3.286420e-01 -3.604808e-01 -3.913138e-01 -4.205314e-01 -4.474754e-01 -4.715077e-01 -4.919594e-01 -5.082187e-01 -5.196636e-01 -5.257527e-01 -5.259560e-01 -5.198278e-01 -5.069557e-01 -4.869995e-01 -4.596816e-01 -4.247813e-01 -3.821892e-01 -3.318534e-01 -2.739134e-01 -2.085995e-01 -1.364414e-01 -5.812564e-02 2.526045e-02 1.124047e-01 2.015726e-01 2.907978e-01 3.778311e-01 4.603045e-01 5.358824e-01 6.023341e-01 6.578416e-01 7.009469e-01 7.309024e-01 7.475755e-01 7.517726e-01 7.452006e-01 7.306334e-01 7.116946e-01 6.925526e-01 6.772149e-01 6.689581e-01 6.696204e-01 6.796291e-01 6.978905e-01 7.222957e-01 7.498038e-01 7.770062e-01 8.001229e-01 8.153495e-01 8.190859e-01 8.086515e-01 7.831885e-01 7.442224e-01 6.950822e-01 6.397527e-01 5.818066e-01 5.240221e-01 4.682348e-01 4.155969e-01 3.666867e-01 3.217732e-01 2.808692e-01 2.438821e-01 2.106141e-01 1.808417e-01 1.543014e-01 1.307338e-01 1.098711e-01 9.146098e-02 7.525953e-02 6.104205e-02 4.860146e-02 3.774826e-02 2.831606e-02 2.015101e-02 
1.604237e-02 8.055369e-03 1.298674e-03 -4.356431e-03 -8.992048e-03 -1.271029e-02 -1.556435e-02 -1.763757e-02 -1.896263e-02 -1.961072e-02 -1.960167e-02 -1.899970e-02 -1.781847e-02 -1.611902e-02 -1.391463e-02 -1.126587e-02 -8.190489e-03 -4.750611e-03 -9.726976e-04 3.077763e-03 7.361858e-03 1.180868e-02 1.636344e-02 2.094720e-02 2.548621e-02 2.989027e-02 3.406395e-02 3.790218e-02 4.128590e-02 4.409169e-02 4.617622e-02 4.739514e-02 4.758231e-02 4.657196e-02 4.417949e-02 4.022069e-02 3.450083e-02 2.682505e-02 1.700186e-02 4.839909e-03 -9.829851e-03 -2.717379e-02 -4.731306e-02 -7.035986e-02 -9.635642e-02 -1.253251e-01 -1.571950e-01 -1.918600e-01 -2.291031e-01 -2.686544e-01 -3.101265e-01 -3.530630e-01 -3.968992e-01 -4.409919e-01 -4.846181e-01 -5.269780e-01 -5.672380e-01 -6.045024e-01 -6.378983e-01 -6.665153e-01 -6.895187e-01 -7.060650e-01 -7.154201e-01 -7.168676e-01 -7.098058e-01 -6.936745e-01 -6.680078e-01 -6.324127e-01 -5.865635e-01 -5.302655e-01 -4.633868e-01 -3.860320e-01 -2.984168e-01 -2.011480e-01 -9.505310e-02 1.848962e-02 1.377512e-01 2.603964e-01 3.836877e-01 5.044681e-01 6.193152e-01 7.248558e-01 8.177840e-01 8.954057e-01 9.554798e-01 9.967593e-01 1.018829e+00 1.022562e+00 1.010215e+00 9.857184e-01 9.545404e-01 9.231960e-01 8.980545e-01 8.843171e-01 8.846974e-01 8.996268e-01 9.272662e-01 9.643151e-01 1.006216e+00 1.048094e+00 1.084560e+00 1.110010e+00 1.118702e+00 1.105820e+00 1.069559e+00 1.012727e+00 9.413842e-01 8.622427e-01 7.807553e-01 7.007340e-01 6.244207e-01 5.530654e-01 4.871849e-01 4.269487e-01 3.722517e-01 3.228902e-01 2.785560e-01 2.389200e-01 2.036157e-01 1.722832e-01 1.445601e-01 1.201025e-01 9.858421e-02 7.970106e-02 6.317847e-02 4.876121e-02 3.623045e-02 2.537948e-02 
1.769420e-02 7.746639e-03 -6.717496e-04 -7.714837e-03 -1.348661e-02 -1.810764e-02 -2.164621e-02 -2.419967e-02 -2.581129e-02 -2.656363e-02 -2.648456e-02 -2.564849e-02 -2.407617e-02 -2.183871e-02 -1.895672e-02 -1.550142e-02 -1.149918e-02 -7.023812e-03 -2.112406e-03 3.156352e-03 8.730254e-03 1.452319e-02 2.046375e-02 2.645512e-02 3.240285e-02 3.819529e-02 4.371151e-02 4.882028e-02 5.337149e-02 5.720974e-02 6.015445e-02 6.202255e-02 6.260419e-02 6.168766e-02 5.903862e-02 5.441999e-02 4.758271e-02 3.827377e-02 2.624549e-02 1.124637e-02 -6.946092e-03 -2.855491e-02 -5.374535e-02 -8.267471e-02 -1.154112e-01 -1.520001e-01 -1.923676e-01 -2.363960e-01 -2.838249e-01 -3.343259e-01 -3.874174e-01 -4.425276e-01 -4.989422e-01 -5.558424e-01 -6.123036e-01 -6.672983e-01 -7.197540e-01 -7.685155e-01 -8.124586e-01 -8.504104e-01 -8.813008e-01 -9.040501e-01 -9.177253e-01 -9.214176e-01 -9.143666e-01 -8.958610e-01 -8.653026e-01 -8.221695e-01 -7.660067e-01 -6.964942e-01 -6.133646e-01 -5.166126e-01 -4.063481e-01 -2.831598e-01 -1.479097e-01 -2.202731e-03 1.518813e-01 3.113607e-01 4.726819e-01 6.315694e-01 7.833667e-01 9.233356e-01 1.046853e+00 1.150048e+00 1.229677e+00 1.283761e+00 1.311322e+00 1.313047e+00 1.291497e+00 1.251897e+00 1.202165e+00 1.152278e+00 1.112268e+00 1.090288e+00 1.090123e+00 1.111758e+00 1.152209e+00 1.206377e+00 1.267589e+00 1.329414e+00 1.384776e+00 1.426032e+00 1.444363e+00 1.430672e+00 1.380698e+00 1.299864e+00 1.199635e+00 1.091220e+00 9.824293e-01 8.778663e-01 7.797265e-01 6.889703e-01 6.057840e-01 5.300827e-01 4.615529e-01 3.998379e-01 3.444904e-01 2.950655e-01 2.510797e-01 2.120710e-01 1.775724e-01 1.471500e-01 1.203875e-01 9.690520e-02 7.635500e-02 5.842137e-02 4.282797e-02 2.932194e-02 
1.773411e-02 5.846120e-03 -4.214049e-03 -1.263118e-02 -1.952081e-02 -2.502875e-02 -2.922750e-02 -3.223640e-02 -3.409803e-02 -3.491550e-02 -3.471327e-02 -3.358604e-02 -3.155031e-02 -2.869785e-02 -2.504575e-02 -2.068647e-02 -1.564485e-02 -1.001648e-02 -3.839969e-03 2.783782e-03 9.797079e-03 1.709103e-02 2.458396e-02 3.215522e-02 3.969446e-02 4.706430e-02 5.412136e-02 6.070556e-02 6.663697e-02 7.172669e-02 7.575632e-02 7.850317e-02 7.971130e-02 7.912209e-02 7.644724e-02 7.139512e-02 6.365625e-02 5.291620e-02 3.886325e-02 2.118030e-02 -4.181903e-04 -2.621997e-02 -5.644533e-02 -9.130746e-02 -1.309119e-01 -1.753398e-01 -2.245248e-01 -2.783508e-01 -3.365210e-01 -3.986590e-01 -4.641903e-01 -5.324318e-01 -6.025110e-01 -6.734292e-01 -7.440404e-01 -8.130749e-01 -8.791924e-01 -9.409565e-01 -9.969594e-01 -1.045744e+00 -1.085979e+00 -1.116334e+00 -1.135664e+00 -1.142865e+00 -1.137018e+00 -1.117263e+00 -1.082871e+00 -1.033184e+00 -9.675986e-01 -8.856301e-01 -7.868111e-01 -6.709326e-01 -5.378781e-01 -3.880704e-01 -2.222584e-01 -4.211910e-02 1.499993e-01 3.505260e-01 5.549744e-01 7.578081e-01 9.527527e-01 1.133390e+00 1.293276e+00 1.427068e+00 1.530145e+00 1.599546e+00 1.633344e+00 1.631438e+00 1.596159e+00 1.533844e+00 1.455757e+00 1.377265e+00 1.314333e+00 1.280238e+00 1.279690e+00 1.310857e+00 1.369352e+00 1.447122e+00 1.534125e+00 1.622774e+00 1.704632e+00 1.770309e+00 1.807245e+00 1.796805e+00 1.727575e+00 1.611200e+00 1.470965e+00 1.325500e+00 1.184918e+00 1.053566e+00 9.326024e-01 8.220601e-01 7.214598e-01 6.303017e-01 5.480050e-01 4.740287e-01 4.077810e-01 3.486880e-01 2.961492e-01 2.495887e-01 2.084363e-01 1.721581e-01 1.402514e-01 1.122538e-01 8.774926e-02 6.635631e-02 4.774872e-02 3.162246e-02 
1.581413e-02 2.008226e-03 -9.682241e-03 -1.946044e-02 -2.746103e-02 -3.384196e-02 -3.868863e-02 -4.212880e-02 -4.421430e-02 -4.505506e-02 -4.468311e-02 -4.319992e-02 -4.062951e-02 -3.707130e-02 -3.255097e-02 -2.717007e-02 -2.096377e-02 -1.403844e-02 -6.445232e-03 1.702332e-03 1.033147e-02 1.931851e-02 2.856373e-02 3.792892e-02 4.728209e-02 5.646452e-02 6.530668e-02 7.362201e-02 8.119876e-02 8.781484e-02 9.321312e-02 9.712943e-02 9.926110e-02 9.929852e-02 9.689818e-02 9.170736e-02 8.335328e-02 7.145110e-02 5.561965e-02 3.546460e-02 1.062884e-02 -1.925424e-02 -5.447179e-02 -9.530890e-02 -1.419230e-01 -1.944474e-01 -2.528387e-01 -3.169966e-01 -3.866012e-01 -4.612362e-01 -5.402403e-01 -6.228171e-01 -7.079313e-01 -7.943872e-01 -8.807995e-01 -9.656243e-01 -1.047225e+00 -1.123842e+00 -1.193753e+00 -1.255179e+00 -1.306502e+00 -1.346119e+00 -1.372670e+00 -1.384851e+00 -1.381600e+00 -1.361918e+00 -1.324962e+00 -1.269937e+00 -1.196084e+00 -1.102706e+00 -9.890668e-01 -8.546281e-01 -6.988869e-01 -5.218956e-01 -3.240550e-01 -1.069095e-01 1.271324e-01 3.739368e-01 6.280822e-01 8.824266e-01 1.128742e+00 1.358253e+00 1.562213e+00 1.733242e+00 1.865110e+00 1.953637e+00 1.995507e+00 1.988871e+00 1.934295e+00 1.838316e+00 1.716657e+00 1.593360e+00 1.494317e+00 1.443083e+00 1.444214e+00 1.489096e+00 1.573844e+00 1.685039e+00 1.805502e+00 1.929205e+00 2.046981e+00 2.149421e+00 2.223542e+00 2.227486e+00 2.127203e+00 1.951895e+00 1.753208e+00 1.560671e+00 1.384155e+00 1.224819e+00 1.080971e+00 9.508899e-01 8.331364e-01 7.267389e-01 6.308551e-01 5.447862e-01 4.678028e-01 3.992119e-01 3.382873e-01 2.843409e-01 2.366873e-01 1.946959e-01 1.577673e-01 1.253624e-01 9.698931e-02 7.220948e-02 5.064004e-02 3.193629e-02 
1.154436e-02 -4.159754e-03 -1.746142e-02 -2.859002e-02 -3.768415e-02 -4.492353e-02 -5.039046e-02 -5.423285e-02 -5.649505e-02 -5.730751e-02 -5.669287e-02 -5.477455e-02 -5.156729e-02 -4.719426e-02 -4.167353e-02 -3.513190e-02 -2.759982e-02 -1.920977e-02 -1.001188e-02 -1.460391e-04 1.031162e-02 2.121116e-02 3.244445e-02 4.384687e-02 5.527216e-02 6.653409e-02 7.744198e-02 8.777902e-02 9.730421e-02 1.057603e-01 1.128516e-01 1.182714e-01 1.216679e-01 1.226796e-01 1.209027e-01 1.159212e-01 1.072914e-01 9.455330e-02 7.724587e-02 5.488936e-02 2.704166e-02 -6.755281e-03 -4.687165e-02 -9.368177e-02 -1.474130e-01 -2.082723e-01 -2.762569e-01 -3.513054e-01 -4.330887e-01 -5.211705e-01 -6.148074e-01 -7.130994e-01 -8.148371e-01 -9.186208e-01 -1.022794e+00 -1.125512e+00 -1.224791e+00 -1.318506e+00 -1.404563e+00 -1.480815e+00 -1.545316e+00 -1.596165e+00 -1.631770e+00 -1.650639e+00 -1.651582e+00 -1.633495e+00 -1.595455e+00 -1.536564e+00 -1.455912e+00 -1.352576e+00 -1.225477e+00 -1.073625e+00 -8.959275e-01 -6.917952e-01 -4.609520e-01 -2.044408e-01 7.557688e-02 3.746616e-01 6.864180e-01 1.001927e+00 1.310311e+00 1.599766e+00 1.858147e+00 2.075536e+00 2.243627e+00 2.357260e+00 2.411477e+00 2.401129e+00 2.321659e+00 2.176533e+00 1.987176e+00 1.792732e+00 1.634057e+00 1.560905e+00 1.572411e+00 1.634332e+00 1.758901e+00 1.920251e+00 2.080271e+00 2.247826e+00 2.411042e+00 2.562989e+00 2.716219e+00 2.768314e+00 2.607638e+00 2.321610e+00 2.035316e+00 1.786067e+00 1.572822e+00 1.387201e+00 1.222201e+00 1.073765e+00 9.395748e-01 8.183679e-01 7.091975e-01 6.112828e-01 5.238019e-01 4.459452e-01 3.768660e-01 3.157505e-01 2.617989e-01 2.142718e-01 1.724779e-01 1.357930e-01 1.036581e-01 7.557123e-02 5.110418e-02 2.986583e-02 
4.549578e-03 -1.303520e-02 -2.794593e-02 -4.042059e-02 -5.061184e-02 -5.870259e-02 -6.478408e-02 -6.900510e-02 -7.141664e-02 -7.215006e-02 -7.123453e-02 -6.879604e-02 -6.485730e-02 -5.954656e-02 -5.289221e-02 -4.502882e-02 -3.599977e-02 -2.594781e-02 -1.493851e-02 -3.124165e-03 9.401383e-03 2.247370e-02 3.596472e-02 4.969284e-02 6.348916e-02 7.714691e-02 9.044899e-02 1.031528e-01 1.149853e-01 1.256560e-01 1.348296e-01 1.421558e-01 1.472336e-01 1.496450e-01 1.489252e-01 1.445872e-01 1.361130e-01 1.229566e-01 1.045693e-01 8.037121e-02 4.982254e-02 1.235441e-02 -3.250455e-02 -8.524143e-02 -1.461769e-01 -2.156176e-01 -2.936279e-01 -3.802101e-01 -4.750504e-01 -5.777099e-01 -6.873778e-01 -8.030517e-01 -9.233438e-01 -1.046626e+00 -1.170941e+00 -1.294089e+00 -1.413685e+00 -1.527165e+00 -1.631999e+00 -1.725604e+00 -1.805661e+00 -1.869933e+00 -1.916595e+00 -1.943979e+00 -1.950814e+00 -1.935949e+00 -1.898448e+00 -1.837368e+00 -1.751700e+00 -1.640287e+00 -1.501667e+00 -1.334235e+00 -1.136082e+00 -9.055951e-01 -6.413620e-01 -3.433945e-01 -1.304603e-02 3.452793e-01 7.244589e-01 1.113371e+00 1.497888e+00 1.861706e+00 2.188064e+00 2.463199e+00 2.676817e+00 2.823729e+00 2.898570e+00 2.891171e+00 2.784476e+00 2.568808e+00 2.272381e+00 1.964810e+00 1.696391e+00 1.601185e+00 1.657525e+00 1.723744e+00 1.913853e+00 2.163064e+00 2.353775e+00 2.576797e+00 2.792631e+00 2.981390e+00 3.316685e+00 3.528114e+00 3.219548e+00 2.697231e+00 2.286736e+00 1.982240e+00 1.741220e+00 1.536385e+00 1.354323e+00 1.189581e+00 1.039915e+00 9.043846e-01 7.822410e-01 6.727596e-01 5.750608e-01 4.882300e-01 4.112815e-01 3.432725e-01 2.832706e-01 2.304300e-01 1.839558e-01 1.431471e-01 1.073699e-01 7.607123e-02 4.877076e-02 2.504580e-02 
-5.620308e-03 -2.507763e-02 -4.159018e-02 -5.541423e-02 -6.669572e-02 -7.563360e-02 -8.230596e-02 -8.687860e-02 -8.938600e-02 -8.997966e-02 -8.867164e-02 -8.561217e-02 -8.080846e-02 -7.441697e-02 -6.645380e-02 -5.708463e-02 -4.634472e-02 -3.440924e-02 -2.134026e-02 -7.322220e-03 7.549749e-03 2.308043e-02 3.913540e-02 5.550377e-02 7.200468e-02 8.840247e-02 1.044614e-01 1.199081e-01 1.344427e-01 1.477389e-01 1.594237e-01 1.691028e-01 1.763242e-01 1.806135e-01 1.814395e-01 1.782426e-01 1.704219e-01 1.573395e-01 1.383474e-01 1.127538e-01 7.990456e-02 3.910199e-02 -1.024865e-02 -6.877314e-02 -1.369125e-01 -2.151066e-01 -3.035168e-01 -4.022474e-01 -5.110272e-01 -6.294505e-01 -7.566545e-01 -8.915554e-01 -1.032577e+00 -1.177855e+00 -1.325082e+00 -1.471658e+00 -1.614705e+00 -1.751141e+00 -1.877891e+00 -1.991849e+00 -2.090236e+00 -2.170437e+00 -2.230375e+00 -2.268235e+00 -2.282726e+00 -2.272747e+00 -2.237462e+00 -2.176005e+00 -2.087367e+00 -1.970233e+00 -1.822739e+00 -1.642574e+00 -1.426737e+00 -1.172177e+00 -8.757084e-01 -5.355276e-01 -1.513210e-01 2.733790e-01 7.311628e-01 1.208748e+00 1.687652e+00 2.145467e+00 2.557921e+00 2.905675e+00 3.175606e+00 3.365959e+00 3.475810e+00 3.491278e+00 3.368119e+00 3.053591e+00 2.579323e+00 2.106273e+00 1.593650e+00 1.498276e+00 1.740581e+00 1.694888e+00 2.015333e+00 2.469710e+00 2.599987e+00 2.917658e+00 3.206098e+00 3.257979e+00 4.046132e+00 4.812799e+00 4.051328e+00 2.965538e+00 2.438151e+00 2.121738e+00 1.881095e+00 1.670605e+00 1.477028e+00 1.297949e+00 1.133451e+00 9.838606e-01 8.489832e-01 7.282308e-01 6.206703e-01 5.252438e-01 4.408057e-01 3.662538e-01 3.005185e-01 2.426321e-01 1.917031e-01 1.469467e-01 1.076667e-01 7.325416e-02 4.319257e-02 1.702238e-02 
-1.936642e-02 -4.069826e-02 -5.883438e-02 -7.402603e-02 -8.642502e-02 -9.622150e-02 -1.034962e-01 -1.084060e-01 -1.109878e-01 -1.113867e-01 -1.096197e-01 -1.058347e-01 -1.000478e-01 -9.241801e-02 -8.297466e-02 -7.189058e-02 -5.921825e-02 -4.514345e-02 -2.974843e-02 -1.323050e-02 4.293311e-03 2.261345e-02 4.157276e-02 6.094453e-02 8.052428e-02 1.000580e-01 1.192841e-01 1.379063e-01 1.555942e-01 1.719904e-01 1.866839e-01 1.992370e-01 2.091478e-01 2.158823e-01 2.188430e-01 2.173908e-01 2.108382e-01 1.984441e-01 1.794515e-01 1.530396e-01 1.184231e-01 7.475057e-02 2.127792e-02 -4.279206e-02 -1.180565e-01 -2.051286e-01 -3.043099e-01 -4.158501e-01 -5.395648e-01 -6.751183e-01 -8.216282e-01 -9.779437e-01 -1.142302e+00 -1.312572e+00 -1.486052e+00 -1.659649e+00 -1.829899e+00 -1.993058e+00 -2.145385e+00 -2.283106e+00 -2.402897e+00 -2.501685e+00 -2.577148e+00 -2.627363e+00 -2.651131e+00 -2.647540e+00 -2.616035e+00 -2.556012e+00 -2.466652e+00 -2.346610e+00 -2.193718e+00 -2.004855e+00 -1.775713e+00 -1.501220e+00 -1.175639e+00 -7.942018e-01 -3.536059e-01 1.447655e-01 6.943854e-01 1.279862e+00 1.877644e+00 2.456041e+00 2.979296e+00 3.417361e+00 3.753021e+00 3.993562e+00 4.158544e+00 4.245124e+00 4.160571e+00 3.714238e+00 2.899803e+00 2.298469e+00 1.080367e+00 1.074645e+00 1.877422e+00 1.860265e+00 1.382735e+00 2.499700e+00 2.410430e+00 2.121583e+00 2.172211e+00 1.759979e+00 2.780751e+00 3.174316e+00 3.311141e+00 2.678571e+00 2.384660e+00 2.192658e+00 1.999134e+00 1.796416e+00 1.593830e+00 1.400035e+00 1.220026e+00 1.056040e+00 9.084641e-01 7.767381e-01 6.597475e-01 5.562119e-01 4.647604e-01 3.841082e-01 3.130222e-01 2.504166e-01 1.952930e-01 1.467966e-01 1.041636e-01 6.674734e-02 3.398974e-02 5.414478e-03 
-3.721826e-02 -6.044612e-02 -8.022760e-02 -9.682044e-02 -1.103551e-01 -1.210293e-01 -1.288973e-01 -1.341280e-01 -1.367304e-01 -1.368690e-01 -1.345340e-01 -1.299009e-01 -1.229631e-01 -1.139144e-01 -1.027669e-01 -8.973346e-02 -7.485539e-02 -5.836017e-02 -4.032484e-02 -2.098708e-02 -4.637857e-04 2.099871e-02 4.323895e-02 6.599779e-02 8.906203e-02 1.121484e-01 1.349812e-01 1.572351e-01 1.785578e-01 1.985587e-01 2.167937e-01 2.327822e-01 2.459735e-01 2.557749e-01 2.615201e-01 2.624888e-01 2.579003e-01 2.469037e-01 2.286210e-01 2.020887e-01 1.663707e-01 1.204382e-01 6.336928e-02 -5.841355e-03 -8.798567e-02 -1.839010e-01 -2.940774e-01 -4.189724e-01 -5.585407e-01 -7.125816e-01 -8.802337e-01 -1.060326e+00 -1.250912e+00 -1.449594e+00 -1.653206e+00 -1.858085e+00 -2.060022e+00 -2.254456e+00 -2.436763e+00 -2.602325e+00 -2.747090e+00 -2.867437e+00 -2.960761e+00 -3.025108e+00 -3.059507e+00 -3.063457e+00 -3.036939e+00 -2.979896e+00 -2.891990e+00 -2.772137e+00 -2.618055e+00 -2.425924e+00 -2.189928e+00 -1.902510e+00 -1.554376e+00 -1.136366e+00 -6.402278e-01 -6.295805e-02 5.919210e-01 1.308409e+00 2.057285e+00 2.794444e+00 3.464593e+00 4.017458e+00 4.422296e+00 4.702995e+00 4.934434e+00 5.191153e+00 5.337792e+00 4.767097e+00 3.023406e+00 3.150311e+00 3.283877e+00 1.887900e+00 -4.236877e-01 8.999166e-01 7.984303e-01 -6.469581e-01 -9.283655e-01 -1.740765e+00 -2.004133e+00 -2.301585e+00 -2.256970e+00 -2.558340e+00 1.989534e-02 1.799822e+00 2.234914e+00 2.272139e+00 2.134664e+00 1.930651e+00 1.710505e+00 1.496746e+00 1.298663e+00 1.119381e+00 9.591255e-01 8.168894e-01 6.911151e-01 5.801465e-01 4.823198e-01 3.961253e-01 3.201622e-01 2.532175e-01 1.942008e-01 1.421862e-01 9.636267e-02 5.604480e-02 2.065504e-02 -1.030305e-02 
-5.959448e-02 -8.476253e-02 -1.062570e-01 -1.243123e-01 -1.390528e-01 -1.506516e-01 -1.591565e-01 -1.647147e-01 -1.673320e-01 -1.671571e-01 -1.641832e-01 -1.585781e-01 -1.503460e-01 -1.396813e-01 -1.266147e-01 -1.113667e-01 -9.400347e-02 -7.476489e-02 -5.375632e-02 -3.122999e-02 -7.331714e-03 1.767772e-02 4.360958e-02 7.019110e-02 9.718425e-02 1.242920e-01 1.512151e-01 1.776113e-01 2.031028e-01 2.272748e-01 2.496503e-01 2.697111e-01 2.868603e-01 3.004473e-01 3.097388e-01 3.139294e-01 3.121427e-01 3.034088e-01 2.867183e-01 2.609475e-01 2.249887e-01 1.776071e-01 1.176679e-01 4.391464e-02 -4.469160e-02 -1.492714e-01 -2.705726e-01 -4.093337e-01 -5.657278e-01 -7.397642e-01 -9.306731e-01 -1.137313e+00 -1.357579e+00 -1.588786e+00 -1.827241e+00 -2.068569e+00 -2.307640e+00 -2.538805e+00 -2.756305e+00 -2.954373e+00 -3.128031e+00 -3.272944e+00 -3.386236e+00 -3.466006e+00 -3.511750e+00 -3.523669e+00 -3.502631e+00 -3.449526e+00 -3.364921e+00 -3.248429e+00 -3.098112e+00 -2.909689e+00 -2.675918e+00 -2.386165e+00 -2.026561e+00 -1.581503e+00 -1.035187e+00 -3.768290e-01 3.968453e-01 1.272195e+00 2.215996e+00 3.167743e+00 4.042155e+00 4.747137e+00 5.213182e+00 5.470886e+00 5.708311e+00 6.279920e+00 7.278027e+00 7.148747e+00 3.348310e-01 -5.322717e+00 -2.400307e+00 -4.686226e-01 -1.181674e+00 -3.676251e+00 -3.670624e+00 -3.893881e+00 -4.218568e+00 -3.790372e+00 -3.952208e+00 -3.382160e+00 -4.461690e+00 -3.979759e+00 -1.176643e+00 1.759249e+00 2.492629e+00 2.535990e+00 2.346263e+00 2.090448e+00 1.830032e+00 1.586694e+00 1.366987e+00 1.171625e+00 9.990951e-01 8.472149e-01 7.136295e-01 5.961602e-01 4.927778e-01 4.017354e-01 3.214565e-01 2.506191e-01 1.880446e-01 1.327601e-01 8.391018e-02 4.079537e-02 2.817688e-03 -3.051388e-02 
-8.712685e-02 -1.143132e-01 -1.375967e-01 -1.572017e-01 -1.732120e-01 -1.857962e-01 -1.949580e-01 -2.008507e-01 -2.034361e-01 -2.028823e-01 -1.991434e-01 -1.924205e-01 -1.826864e-01 -1.701809e-01 -1.549128e-01 -1.371559e-01 -1.169638e-01 -9.463204e-02 -7.026109e-02 -4.415546e-02 -1.646127e-02 1.251592e-02 4.258421e-02 7.343538e-02 1.048265e-01 1.364332e-01 1.679490e-01 1.990087e-01 2.292216e-01 2.581481e-01 2.852879e-01 3.100879e-01 3.319109e-01 3.500521e-01 3.637128e-01 3.720039e-01 3.739504e-01 3.684582e-01 3.543772e-01 3.304090e-01 2.952547e-01 2.474451e-01 1.855987e-01 1.081599e-01 1.379008e-02 -9.898754e-02 -2.312543e-01 -3.841293e-01 -5.580994e-01 -7.535018e-01 -9.697545e-01 -1.205850e+00 -1.459576e+00 -1.727988e+00 -2.006796e+00 -2.290789e+00 -2.573646e+00 -2.848318e+00 -3.107475e+00 -3.343796e+00 -3.550985e+00 -3.723771e+00 -3.858943e+00 -3.954821e+00 -4.011689e+00 -4.030887e+00 -4.014660e+00 -3.965347e+00 -3.884985e+00 -3.774539e+00 -3.633088e+00 -3.456602e+00 -3.236739e+00 -2.959728e+00 -2.605997e+00 -2.151505e+00 -1.569379e+00 -8.363638e-01 6.376679e-02 1.126577e+00 2.320702e+00 3.570003e+00 4.747013e+00 5.683765e+00 6.205014e+00 6.271130e+00 6.180752e+00 6.983326e+00 1.061023e+01 1.264868e+00 -4.448033e+00 -1.966593e+00 -2.455206e+00 -8.019770e+00 -6.497986e+00 -2.497027e+00 -3.400853e+00 -1.551631e+00 -8.986529e-01 1.441299e-01 -1.520437e-01 9.972820e-01 1.748809e-01 1.264925e+00 2.452798e+00 3.685451e+00 3.453353e+00 3.043559e+00 2.633326e+00 2.264046e+00 1.941436e+00 1.661704e+00 1.419288e+00 1.208839e+00 1.025650e+00 8.657916e-01 7.259013e-01 6.032082e-01 4.953190e-01 4.002623e-01 3.163190e-01 2.420777e-01 1.763046e-01 1.179934e-01 6.627390e-02 2.043929e-02 -2.010080e-02 -5.583196e-02 
-1.202352e-01 -1.495591e-01 -1.747762e-01 -1.960641e-01 -2.134840e-01 -2.271592e-01 -2.370747e-01 -2.433450e-01 -2.459215e-01 -2.449447e-01 -2.403699e-01 -2.323844e-01 -2.209758e-01 -2.063839e-01 -1.886454e-01 -1.680449e-01 -1.446737e-01 -1.188447e-01 -9.070042e-02 -6.056385e-02 -2.862208e-02 4.804116e-03 3.948782e-02 7.511080e-02 1.114034e-01 1.480359e-01 1.846824e-01 2.209729e-01 2.565008e-01 2.908162e-01 3.233988e-01 3.536718e-01 3.809636e-01 4.045228e-01 4.234909e-01 4.368978e-01 4.436706e-01 4.425877e-01 4.323499e-01 4.114703e-01 3.784370e-01 3.315168e-01 2.690389e-01 1.890970e-01 8.998181e-02 -3.022263e-02 -1.730363e-01 -3.400778e-01 -5.322864e-01 -7.504729e-01 -9.943922e-01 -1.263305e+00 -1.554992e+00 -1.866284e+00 -2.192233e+00 -2.526602e+00 -2.861557e+00 -3.188139e+00 -3.496888e+00 -3.778255e+00 -4.024145e+00 -4.227965e+00 -4.386199e+00 -4.497628e+00 -4.563846e+00 -4.587929e+00 -4.574058e+00 -4.526643e+00 -4.449836e+00 -4.346860e+00 -4.218986e+00 -4.063658e+00 -3.872570e+00 -3.628946e+00 -3.306790e+00 -2.870846e+00 -2.279289e+00 -1.490010e+00 -4.654298e-01 8.106013e-01 2.322574e+00 3.989747e+00 5.640613e+00 6.991769e+00 7.644982e+00 7.246690e+00 5.791915e+00 5.145745e+00 -2.402401e+00 -8.730688e+00 -2.825736e+00 -8.331163e+00 -8.794512e+00 1.685448e+00 1.777032e+00 1.127780e+00 2.517323e+00 4.177146e+00 3.417366e+00 4.518058e+00 4.192264e+00 4.443913e+00 4.677672e+00 4.598794e+00 7.523370e+00 6.503034e+00 4.602728e+00 3.561427e+00 2.888529e+00 2.400109e+00 2.018861e+00 1.708075e+00 1.447934e+00 1.226584e+00 1.036104e+00 8.709359e-01 7.268333e-01 6.005490e-01 4.894144e-01 3.913100e-01 3.044276e-01 2.273163e-01 1.587174e-01 9.762786e-02 4.317753e-02 -5.316680e-03 -4.843303e-02 -8.662127e-02 
-1.596823e-01 -1.913163e-01 -2.186324e-01 -2.417764e-01 -2.607436e-01 -2.756374e-01 -2.863752e-01 -2.930690e-01 -2.956063e-01 -2.941470e-01 -2.885917e-01 -2.791700e-01 -2.658285e-01 -2.488686e-01 -2.283020e-01 -2.044872e-01 -1.775048e-01 -1.477442e-01 -1.153480e-01 -8.070888e-02 -4.401868e-02 -5.653965e-03 3.415383e-02 7.504837e-02 1.167588e-01 1.589340e-01 2.012501e-01 2.433272e-01 2.847609e-01 3.250938e-01 3.638006e-01 4.002886e-01 4.338647e-01 4.637393e-01 4.890039e-01 5.086137e-01 5.214027e-01 5.260218e-01 5.210199e-01 5.047111e-01 4.753549e-01 4.309259e-01 3.694292e-01 2.885516e-01 1.861473e-01 5.976457e-02 -9.266623e-02 -2.734141e-01 -4.840371e-01 -7.260269e-01 -9.996848e-01 -1.304768e+00 -1.639230e+00 -1.999820e+00 -2.380921e+00 -2.775118e+00 -3.172637e+00 -3.561983e+00 -3.930647e+00 -4.265893e+00 -4.556872e+00 -4.795115e+00 -4.976690e+00 -5.101343e+00 -5.172842e+00 -5.196943e+00 -5.180597e+00 -5.130830e+00 -5.054581e+00 -4.958291e+00 -4.846954e+00 -4.721588e+00 -4.575877e+00 -4.391551e+00 -4.135791e+00 -3.760368e+00 -3.204016e+00 -2.399442e+00 -1.277110e+00 2.162791e-01 2.107372e+00 4.343726e+00 6.744886e+00 8.907498e+00 1.011270e+01 9.299201e+00 4.641641e+00 2.647804e+00 -3.540699e+00 -5.103843e+00 -1.052383e+01 -6.384275e+00 1.131098e+00 3.858457e+00 4.262516e+00 6.038597e+00 6.565215e+00 5.825119e+00 6.168908e+00 4.552117e+00 5.063541e+00 3.544987e+00 4.395620e+00 3.185592e+00 8.270744e+00 7.004105e+00 4.895918e+00 3.717738e+00 2.967079e+00 2.437130e+00 2.034046e+00 1.711857e+00 1.445611e+00 1.220803e+00 1.028088e+00 8.611842e-01 7.154635e-01 5.874954e-01 4.745267e-01 3.744103e-01 2.853400e-01 2.058827e-01 1.348077e-01 7.114398e-02 1.405927e-02 -3.709240e-02 -8.284428e-02 -1.236072e-01 