# vtk DataFile Version 2.0
Comment goes here
ASCII

DATASET STRUCTURED_POINTS
DIMENSIONS    128   128   1

ORIGIN    0.000   0.000   0.000
SPACING   0.0156250.015625   1.000

POINT_DATA   16384
SCALARS Omega double
LOOKUP_TABLE default

-1.716066e-07 -1.247875e-07 -9.179855e-08 -6.526774e-08 -4.798926e-08 -3.313416e-08 -2.475645e-08 -1.635726e-08 -1.282143e-08 -7.880348e-09 -6.857698e-09 -3.737053e-09 -3.924977e-09 -1.777243e-09 -2.454204e-09 -8.697070e-10 -1.631385e-09 -4.311325e-10 -1.043227e-09 -1.621930e-10 -4.851803e-10 8.810415e-11 1.277335e-10 3.727858e-10 7.748568e-10 6.247560e-10 1.267341e-09 5.474461e-10 1.081991e-09 -6.218284e-10 -9.602074e-10 -4.539824e-09 -7.245085e-09 -1.445921e-08 -2.223089e-08 -3.628744e-08 -5.370051e-08 -8.005203e-08 -1.144122e-07 -1.617278e-07 -2.240273e-07 -3.051979e-07 -4.109555e-07 -5.438234e-07 -7.134047e-07 -9.206867e-07 -1.178470e-06 -1.486107e-06 -1.857655e-06 -2.290651e-06 -2.796975e-06 -3.371872e-06 -4.020136e-06 -4.733749e-06 -5.504511e-06 -6.319635e-06 -7.152055e-06 -7.982444e-06 -8.760546e-06 -9.459130e-06 -1.000367e-05 -1.035905e-05 -1.043002e-05 -1.017605e-05 -9.490072e-06 -8.332027e-06 -6.597214e-06 -4.256188e-06 -1.225699e-06 2.498297e-06 6.954500e-06 1.210302e-05 1.791355e-05 2.428430e-05 3.109708e-05 3.818012e-05 4.532612e-05 5.230764e-05 5.885748e-05 6.473688e-05 6.968150e-05 7.350904e-05 7.603993e-05 7.721775e-05 7.702149e-05 7.556789e-05 7.303494e-05 6.972085e-05 6.598747e-05 6.226055e-05 5.898197e-05 5.655461e-05 5.529376e-05 5.535477e-05 5.670398e-05 5.908942e-05 6.206556e-05 6.503525e-05 6.732749e-05 6.828494e-05 6.736302e-05 6.422962e-05 5.885017e-05 5.153376e-05 4.290088e-05 3.375603e-05 2.490922e-05 1.700451e-05 1.043746e-05 5.345622e-06 1.665744e-06 -7.918459e-07 -2.273128e-06 -3.026603e-06 -3.274809e-06 -3.196909e-06 -2.930328e-06 -2.570636e-06 -2.183687e-06 -1.807769e-06 -1.466780e-06 -1.168887e-06 -9.187484e-07 -7.118007e-07 -5.462676e-07 -4.136332e-07 -3.115473e-07 -2.311447e-07 
3.075975e-04 2.273931e-04 1.668716e-04 1.213256e-04 8.752272e-05 6.238514e-05 4.406788e-05 3.057545e-05 2.096188e-05 1.392395e-05 9.067463e-06 5.521673e-06 3.208809e-06 1.528756e-06 5.674115e-07 -9.878418e-08 -3.153423e-07 -3.806959e-07 -1.282101e-07 2.404199e-07 8.720033e-07 1.640954e-06 2.655406e-06 3.840066e-06 5.247649e-06 6.809460e-06 8.495265e-06 1.016744e-05 1.165848e-05 1.263926e-05 1.270553e-05 1.115321e-05 7.180390e-06 -5.419184e-07 -1.344115e-05 -3.377361e-05 -6.386734e-05 -1.072115e-04 -1.672957e-04 -2.490513e-04 -3.572592e-04 -4.982510e-04 -6.779266e-04 -9.035313e-04 -1.181414e-03 -1.518620e-03 -1.920625e-03 -2.392463e-03 -2.936749e-03 -3.554119e-03 -4.241921e-03 -4.993856e-03 -5.799688e-03 -6.644175e-03 -7.507987e-03 -8.366201e-03 -9.190335e-03 -9.946785e-03 -1.059955e-02 -1.110896e-02 -1.143444e-02 -1.153377e-02 -1.136516e-02 -1.088737e-02 -1.006063e-02 -8.847987e-03 -7.215223e-03 -5.133945e-03 -2.581202e-03 4.552447e-04 3.976901e-03 7.967273e-03 1.239149e-02 1.718873e-02 2.227293e-02 2.752849e-02 3.281464e-02 3.796863e-02 4.281559e-02 4.718101e-02 5.090417e-02 5.385585e-02 5.594914e-02 5.715400e-02 5.749980e-02 5.708146e-02 5.605522e-02 5.463764e-02 5.309654e-02 5.173881e-02 5.088439e-02 5.083218e-02 5.181059e-02 5.393784e-02 5.717993e-02 6.134396e-02 6.607895e-02 7.091516e-02 7.530304e-02 7.866819e-02 8.046279e-02 8.024020e-02 7.774914e-02 7.303560e-02 6.648915e-02 5.877158e-02 5.063503e-02 4.273314e-02 3.551272e-02 2.920061e-02 2.384797e-02 1.939741e-02 1.573736e-02 1.274353e-02 1.029814e-02 8.300907e-03 6.668957e-03 5.336241e-03 4.249487e-03 3.365940e-03 2.650493e-03 2.074115e-03 1.612534e-03 1.245216e-03 9.550036e-04 7.272411e-04 5.499264e-04 4.127563e-04 
6.158628e-04 4.550358e-04 3.337944e-04 2.425190e-04 1.748879e-04 1.245472e-04 8.797502e-05 6.098223e-05 4.186055e-05 2.780451e-05 1.821647e-05 1.115769e-05 6.662648e-06 3.341208e-06 1.546926e-06 2.570058e-07 -5.305407e-08 -1.345744e-07 4.910619e-07 1.293264e-06 2.685473e-06 4.320797e-06 6.507371e-06 9.032051e-06 1.206363e-05 1.543366e-05 1.911724e-05 2.283360e-05 2.625613e-05 2.873485e-05 2.944121e-05 2.696998e-05 1.966291e-05 4.831461e-06 -2.048082e-05 -6.088818e-05 -1.212165e-04 -2.086618e-04 -3.304683e-04 -4.968775e-04 -7.178382e-04 -1.006585e-03 -1.375436e-03 -1.839641e-03 -2.412524e-03 -3.109054e-03 -3.940828e-03 -4.918752e-03 -6.048562e-03 -7.332087e-03 -8.764143e-03 -1.033211e-02 -1.201499e-02 -1.378143e-02 -1.559142e-02 -1.739325e-02 -1.912780e-02 -2.072512e-02 -2.211051e-02 -2.320140e-02 -2.391380e-02 -2.416011e-02 -2.385425e-02 -2.291093e-02 -2.124866e-02 -1.879109e-02 -1.546808e-02 -1.122050e-02 -6.000607e-03 2.185723e-04 7.441898e-03 1.563830e-02 2.473846e-02 3.461990e-02 4.510653e-02 5.596043e-02 6.688857e-02 7.755110e-02 8.757941e-02 9.660524e-02 1.042868e-01 1.103496e-01 1.146074e-01 1.169949e-01 1.175706e-01 1.165297e-01 1.141939e-01 1.110098e-01 1.075345e-01 1.044142e-01 1.023331e-01 1.019421e-01 1.037484e-01 1.080268e-01 1.147231e-01 1.234396e-01 1.334361e-01 1.437200e-01 1.531327e-01 1.604608e-01 1.645279e-01 1.643373e-01 1.592819e-01 1.494062e-01 1.355656e-01 1.192734e-01 1.022314e-01 8.586279e-02 7.108068e-02 5.829609e-02 4.754803e-02 3.866536e-02 3.138593e-02 2.543929e-02 2.058053e-02 1.660698e-02 1.335450e-02 1.069352e-02 8.520178e-03 6.750830e-03 5.316764e-03 4.160622e-03 3.234438e-03 2.497198e-03 1.914766e-03 1.457647e-03 1.101906e-03 8.267087e-04 
9.251628e-04 6.830589e-04 5.005036e-04 3.632087e-04 2.613894e-04 1.857137e-04 1.306214e-04 9.006264e-05 6.120945e-05 4.010443e-05 2.559275e-05 1.502021e-05 8.189833e-06 3.262134e-06 5.349052e-07 -1.297798e-06 -1.730582e-06 -1.687123e-06 -6.239713e-07 8.360751e-07 3.179290e-06 6.025324e-06 9.747255e-06 1.413142e-05 1.938607e-05 2.533053e-05 3.191923e-05 3.876675e-05 4.539450e-05 5.081846e-05 5.379594e-05 5.214461e-05 4.331791e-05 2.310408e-05 -1.311861e-05 -7.261646e-05 -1.630312e-04 -2.957499e-04 -4.823558e-04 -7.391417e-04 -1.082146e-03 -1.532554e-03 -2.110389e-03 -2.840252e-03 -3.744016e-03 -4.846108e-03 -6.165894e-03 -7.721597e-03 -9.523394e-03 -1.157521e-02 -1.386977e-02 -1.638793e-02 -1.909690e-02 -2.194738e-02 -2.487574e-02 -2.779979e-02 -3.062487e-02 -3.323945e-02 -3.552378e-02 -3.734644e-02 -3.857328e-02 -3.906557e-02 -3.868680e-02 -3.730298e-02 -3.478561e-02 -3.101528e-02 -2.588119e-02 -1.928984e-02 -1.116367e-02 -1.456876e-03 9.843887e-03 2.269617e-02 3.699850e-02 5.256423e-02 6.912059e-02 8.629186e-02 1.036107e-01 1.205272e-01 1.364413e-01 1.507469e-01 1.628804e-01 1.723855e-01 1.789530e-01 1.824712e-01 1.830305e-01 1.809383e-01 1.766995e-01 1.710167e-01 1.647754e-01 1.590255e-01 1.549106e-01 1.535499e-01 1.558435e-01 1.623087e-01 1.729045e-01 1.870000e-01 2.033802e-01 2.204098e-01 2.362006e-01 2.487799e-01 2.561844e-01 2.566375e-01 2.489087e-01 2.328782e-01 2.100331e-01 1.832283e-01 1.556018e-01 1.295962e-01 1.065964e-01 8.707045e-02 7.089050e-02 5.764746e-02 4.684988e-02 3.804135e-02 3.083547e-02 2.492674e-02 2.007475e-02 1.609290e-02 1.283203e-02 1.017188e-02 8.012545e-03 6.270094e-03 4.873389e-03 3.761476e-03 2.882992e-03 2.193753e-03 1.657445e-03 1.242813e-03 
1.234814e-03 9.105207e-04 6.663171e-04 4.826514e-04 3.467147e-04 2.456178e-04 1.722735e-04 1.181876e-04 7.996788e-05 5.191315e-05 3.288719e-05 1.893005e-05 1.018630e-05 3.796616e-06 5.512636e-07 -1.667886e-06 -1.822428e-06 -1.474379e-06 4.253791e-07 2.777288e-06 6.506780e-06 1.090965e-05 1.670946e-05 2.350075e-05 3.173539e-05 4.112323e-05 5.172386e-05 6.302592e-05 7.444855e-05 8.469287e-05 9.207069e-05 9.362377e-05 8.578402e-05 6.271275e-05 1.784301e-05 -5.907053e-05 -1.789857e-04 -3.581755e-04 -6.133803e-04 -9.681571e-04 -1.445870e-03 -2.077498e-03 -2.892477e-03 -3.927236e-03 -5.214317e-03 -6.790517e-03 -8.685229e-03 -1.092686e-02 -1.353188e-02 -1.650833e-02 -1.984749e-02 -2.352384e-02 -2.749131e-02 -3.167992e-02 -3.599813e-02 -4.032718e-02 -4.452969e-02 -4.844343e-02 -5.189445e-02 -5.469168e-02 -5.664128e-02 -5.754295e-02 -5.720151e-02 -5.542547e-02 -5.203322e-02 -4.685514e-02 -3.973478e-02 -3.053737e-02 -1.914974e-02 -5.499132e-03 1.044332e-02 2.863167e-02 4.893638e-02 7.110717e-02 9.476513e-02 1.193777e-01 1.442675e-01 1.686265e-01 1.915582e-01 2.121494e-01 2.295407e-01 2.430358e-01 2.521585e-01 2.567365e-01 2.568968e-01 2.530812e-01 2.460038e-01 2.366537e-01 2.262921e-01 2.164664e-01 2.089349e-01 2.054935e-01 2.076412e-01 2.162989e-01 2.314989e-01 2.523287e-01 2.769403e-01 3.028353e-01 3.272130e-01 3.471992e-01 3.598444e-01 3.621958e-01 3.518224e-01 3.279362e-01 2.929168e-01 2.520824e-01 2.110262e-01 1.736003e-01 1.415426e-01 1.150581e-01 9.354654e-02 7.615197e-02 6.204170e-02 5.052868e-02 4.107813e-02 3.329070e-02 2.686354e-02 2.156503e-02 1.721031e-02 1.364826e-02 1.075179e-02 8.411927e-03 6.535561e-03 5.041573e-03 3.861619e-03 2.936136e-03 2.216534e-03 1.660423e-03 
1.544342e-03 1.136967e-03 8.302359e-04 5.998544e-04 4.292398e-04 3.025792e-04 2.105268e-04 1.428462e-04 9.484827e-05 5.982430e-05 3.592420e-05 1.862189e-05 7.686989e-06 -4.520132e-08 -3.968899e-06 -6.351120e-06 -6.231274e-06 -5.219757e-06 -2.280975e-06 1.508946e-06 7.107550e-06 1.388796e-05 2.264135e-05 3.307062e-05 4.571270e-05 6.037035e-05 7.715849e-05 9.554778e-05 1.148782e-04 1.335449e-04 1.494479e-04 1.587393e-04 1.567777e-04 1.358056e-04 8.703904e-05 -3.314311e-06 -1.501930e-04 -3.757414e-04 -7.031100e-04 -1.164690e-03 -1.793193e-03 -2.631688e-03 -3.721901e-03 -5.115142e-03 -6.858245e-03 -9.003970e-03 -1.159566e-02 -1.467546e-02 -1.826948e-02 -2.239234e-02 -2.703537e-02 -3.216666e-02 -3.772501e-02 -4.361600e-02 -4.971370e-02 -5.585454e-02 -6.184726e-02 -6.746677e-02 -7.247026e-02 -7.659310e-02 -7.956626e-02 -8.111501e-02 -8.097197e-02 -7.887853e-02 -7.458962e-02 -6.787876e-02 -5.853530e-02 -4.637672e-02 -3.124426e-02 -1.302876e-02 8.327222e-03 3.278540e-02 6.019911e-02 9.025663e-02 1.224664e-01 1.561121e-01 1.902610e-01 2.237729e-01 2.553630e-01 2.836988e-01 3.075174e-01 3.257847e-01 3.377999e-01 3.433105e-01 3.425037e-01 3.359968e-01 3.247505e-01 3.100591e-01 2.935897e-01 2.774870e-01 2.643598e-01 2.570272e-01 2.579422e-01 2.687085e-01 2.895442e-01 3.191725e-01 3.548410e-01 3.927593e-01 4.289661e-01 4.596172e-01 4.806728e-01 4.874168e-01 4.750774e-01 4.406452e-01 3.876633e-01 3.266481e-01 2.677298e-01 2.165893e-01 1.747627e-01 1.414597e-01 1.150653e-01 9.398141e-02 7.691659e-02 6.293332e-02 5.136952e-02 4.176326e-02 3.377676e-02 2.715399e-02 2.168725e-02 1.720267e-02 1.354952e-02 1.059600e-02 8.226887e-03 6.341183e-03 4.852516e-03 3.685907e-03 2.779410e-03 2.079629e-03 
1.850524e-03 1.359241e-03 9.899634e-04 7.126667e-04 5.077919e-04 3.556287e-04 2.454896e-04 1.643954e-04 1.073495e-04 6.560536e-05 3.762099e-05 1.726708e-05 4.954234e-06 -3.795533e-06 -7.588734e-06 -9.778429e-06 -8.588421e-06 -6.503648e-06 -1.716387e-06 4.039261e-06 1.241109e-05 2.233616e-05 3.519523e-05 5.046370e-05 6.915123e-05 9.098719e-05 1.164035e-04 1.448258e-04 1.756569e-04 2.070375e-04 2.364696e-04 2.592431e-04 2.694898e-04 2.573802e-04 2.115038e-04 1.139677e-04 -5.496262e-05 -3.245362e-04 -7.257424e-04 -1.302028e-03 -2.097721e-03 -3.171455e-03 -4.580523e-03 -6.395923e-03 -8.683019e-03 -1.151639e-02 -1.495810e-02 -1.907005e-02 -2.389226e-02 -2.945060e-02 -3.573852e-02 -4.271890e-02 -5.031327e-02 -5.839817e-02 -6.680533e-02 -7.531463e-02 -8.366663e-02 -9.155516e-02 -9.864981e-02 -1.045907e-01 -1.090142e-01 -1.115507e-01 -1.118452e-01 -1.095563e-01 -1.043659e-01 -9.598035e-02 -8.412862e-02 -6.857096e-02 -4.909419e-02 -2.553797e-02 2.199877e-03 3.410984e-02 7.004663e-02 1.096518e-01 1.523196e-01 1.971280e-01 2.428306e-01 2.878634e-01 3.304154e-01 3.685762e-01 4.005015e-01 4.246761e-01 4.400721e-01 4.463443e-01 4.437880e-01 4.332889e-01 4.161074e-01 3.938326e-01 3.684787e-01 3.428477e-01 3.207304e-01 3.065824e-01 3.044020e-01 3.169774e-01 3.448919e-01 3.863819e-01 4.373755e-01 4.917984e-01 5.442223e-01 5.900495e-01 6.245892e-01 6.406497e-01 6.292523e-01 5.803083e-01 4.981661e-01 4.060336e-01 3.227744e-01 2.556517e-01 2.042092e-01 1.651354e-01 1.349615e-01 1.110294e-01 9.154621e-02 7.538558e-02 6.183945e-02 5.045004e-02 4.089148e-02 3.291120e-02 2.629487e-02 2.085291e-02 1.641453e-02 1.282491e-02 9.946759e-03 7.657465e-03 5.852197e-03 4.438926e-03 3.342267e-03 2.496512e-03 
2.150842e-03 1.575372e-03 1.142982e-03 8.188028e-04 5.791850e-04 4.015713e-04 2.728153e-04 1.783431e-04 1.117048e-04 6.331168e-05 3.076571e-05 7.531566e-06 -6.489702e-06 -1.593362e-05 -1.971306e-05 -2.119309e-05 -1.877265e-05 -1.485286e-05 -7.697237e-06 1.120776e-06 1.327863e-05 2.794451e-05 4.663238e-05 6.910670e-05 9.660004e-05 1.291441e-04 1.674220e-04 2.110596e-04 2.595852e-04 3.109964e-04 3.624894e-04 4.084317e-04 4.416939e-04 4.500464e-04 4.190642e-04 3.259807e-04 1.452207e-04 -1.610562e-04 -6.337436e-04 -1.329883e-03 -2.308873e-03 -3.648834e-03 -5.427723e-03 -7.741702e-03 -1.068134e-02 -1.434984e-02 -1.883557e-02 -2.422739e-02 -3.058625e-02 -3.795497e-02 -4.633314e-02 -5.567993e-02 -6.589755e-02 -7.682782e-02 -8.824922e-02 -9.987036e-02 -1.113430e-01 -1.222570e-01 -1.321664e-01 -1.405892e-01 -1.470382e-01 -1.510249e-01 -1.520829e-01 -1.497730e-01 -1.436895e-01 -1.334649e-01 -1.187591e-01 -9.926952e-02 -7.471615e-02 -4.487205e-02 -9.564734e-03 3.125490e-02 7.747844e-02 1.287291e-01 1.843027e-01 2.430524e-01 3.033581e-01 3.631042e-01 4.197712e-01 4.706237e-01 5.129789e-01 5.445974e-01 5.639847e-01 5.706886e-01 5.652514e-01 5.490221e-01 5.236922e-01 4.910452e-01 4.531611e-01 4.133177e-01 3.769561e-01 3.513190e-01 3.428875e-01 3.565583e-01 3.935628e-01 4.514357e-01 5.245139e-01 6.016244e-01 6.756514e-01 7.420591e-01 7.978586e-01 8.325337e-01 8.321400e-01 7.637529e-01 6.281992e-01 4.849043e-01 3.689578e-01 2.853875e-01 2.268825e-01 1.848509e-01 1.529905e-01 1.274861e-01 1.062454e-01 8.818292e-02 7.271954e-02 5.951301e-02 4.831182e-02 3.889910e-02 3.106713e-02 2.461553e-02 1.935254e-02 1.509904e-02 1.169244e-02 8.987001e-03 6.856757e-03 5.191981e-03 3.901939e-03 2.908715e-03 
2.437887e-03 1.778517e-03 1.284049e-03 9.134382e-04 6.402138e-04 4.375980e-04 2.914129e-04 1.840266e-04 1.090594e-04 5.453897e-05 1.877805e-05 -6.737538e-06 -2.106122e-05 -3.052569e-05 -3.286194e-05 -3.288330e-05 -2.779393e-05 -2.117796e-05 -1.015993e-05 2.804287e-06 2.044631e-05 4.138342e-05 6.809395e-05 1.001265e-04 1.395838e-04 1.865626e-04 2.424804e-04 3.071513e-04 3.805645e-04 4.606999e-04 5.446268e-04 6.259013e-04 6.960911e-04 7.404225e-04 7.410436e-04 6.695622e-04 4.935127e-04 1.646320e-04 -3.699529e-04 -1.184350e-03 -2.356598e-03 -3.989965e-03 -6.188549e-03 -9.081852e-03 -1.279316e-02 -1.746473e-02 -2.322025e-02 -3.018697e-02 -3.845565e-02 -4.809589e-02 -5.911916e-02 -7.148509e-02 -8.507507e-02 -9.969011e-02 -1.150428e-01 -1.307506e-01 -1.463511e-01 -1.612969e-01 -1.749916e-01 -1.867907e-01 -1.960471e-01 -2.021166e-01 -2.043949e-01 -2.023213e-01 -1.953913e-01 -1.831548e-01 -1.652021e-01 -1.411633e-01 -1.106857e-01 -7.345669e-02 -2.920374e-02 2.222773e-02 8.082235e-02 1.462460e-01 2.177412e-01 2.939487e-01 3.728186e-01 4.515443e-01 5.266410e-01 5.942040e-01 6.502865e-01 6.915446e-01 7.157433e-01 7.223281e-01 7.123518e-01 6.881024e-01 6.520202e-01 6.059155e-01 5.510578e-01 4.903095e-01 4.312653e-01 3.866333e-01 3.664908e-01 3.798519e-01 4.287489e-01 5.092928e-01 6.166197e-01 7.245838e-01 8.258408e-01 9.168335e-01 1.005313e+00 1.073180e+00 1.116936e+00 1.027550e+00 7.774802e-01 5.461300e-01 3.910316e-01 2.972320e-01 2.394230e-01 2.000366e-01 1.696960e-01 1.441452e-01 1.217089e-01 1.018297e-01 8.433729e-02 6.914563e-02 5.614121e-02 4.516430e-02 3.601808e-02 2.848648e-02 2.235141e-02 1.740265e-02 1.344822e-02 1.031465e-02 7.853008e-03 5.933051e-03 4.448397e-03 3.307094e-03 
2.706189e-03 1.964409e-03 1.408353e-03 9.922114e-04 6.852463e-04 4.580643e-04 2.939263e-04 1.738599e-04 8.993106e-05 2.955516e-05 -9.931077e-06 -3.725266e-05 -5.210692e-05 -6.081844e-05 -6.155571e-05 -5.899387e-05 -5.061514e-05 -3.976554e-05 -2.368605e-05 -4.489988e-06 2.062747e-05 5.075069e-05 8.865156e-05 1.344832e-04 1.908657e-04 2.586081e-04 3.397992e-04 4.349410e-04 5.446360e-04 6.672032e-04 7.998128e-04 9.353735e-04 1.064225e-03 1.168874e-03 1.227617e-03 1.205632e-03 1.062157e-03 7.366093e-04 1.611236e-04 -7.590868e-04 -2.126017e-03 -4.074109e-03 -6.741833e-03 -1.030101e-02 -1.491897e-02 -2.078892e-02 -2.808359e-02 -3.698223e-02 -4.761928e-02 -6.010343e-02 -7.446782e-02 -9.067854e-02 -1.085960e-01 -1.279737e-01 -1.484421e-01 -1.695033e-01 -1.905451e-01 -2.108414e-01 -2.295943e-01 -2.459466e-01 -2.590375e-01 -2.680236e-01 -2.721229e-01 -2.706309e-01 -2.629290e-01 -2.484856e-01 -2.268244e-01 -1.975160e-01 -1.601321e-01 -1.142594e-01 -5.948594e-02 4.512500e-03 7.790380e-02 1.605000e-01 2.515905e-01 3.496591e-01 4.522054e-01 5.555678e-01 6.549743e-01 7.448284e-01 8.192816e-01 8.732077e-01 9.031730e-01 9.084682e-01 8.912332e-01 8.557195e-01 8.060862e-01 7.439823e-01 6.678375e-01 5.768518e-01 4.807232e-01 4.055242e-01 3.638035e-01 3.744975e-01 4.396908e-01 5.486331e-01 7.177504e-01 8.654089e-01 9.989103e-01 1.108189e+00 1.248827e+00 1.354562e+00 1.552484e+00 1.468887e+00 9.216717e-01 5.418634e-01 3.607496e-01 2.808668e-01 2.405178e-01 2.124858e-01 1.873098e-01 1.627900e-01 1.391387e-01 1.170568e-01 9.709989e-02 7.955373e-02 6.446767e-02 5.173145e-02 4.114020e-02 3.244514e-02 2.538631e-02 1.971242e-02 1.519345e-02 1.162392e-02 8.827444e-03 6.652128e-03 4.973423e-03 3.685689e-03 
2.942192e-03 2.120542e-03 1.505726e-03 1.045583e-03 7.070357e-04 4.562850e-04 2.761281e-04 1.442454e-04 5.335784e-05 -1.190606e-05 -5.292462e-05 -8.088795e-05 -9.389661e-05 -1.004918e-04 -9.713566e-05 -9.044721e-05 -7.621055e-05 -5.936938e-05 -3.552726e-05 -7.960743e-06 2.771000e-05 6.991727e-05 1.229757e-04 1.869364e-04 2.659598e-04 3.612638e-04 4.764487e-04 6.127522e-04 7.720836e-04 9.533873e-04 1.154480e-03 1.367941e-03 1.583194e-03 1.780036e-03 1.932755e-03 1.999283e-03 1.929498e-03 1.648111e-03 1.069632e-03 7.367604e-05 -1.470790e-03 -3.737890e-03 -6.908927e-03 -1.121100e-02 -1.686797e-02 -2.414153e-02 -3.326955e-02 -4.450401e-02 -5.804049e-02 -7.404664e-02 -9.259125e-02 -1.136587e-01 -1.370910e-01 -1.625887e-01 -1.896823e-01 -2.177272e-01 -2.459180e-01 -2.732912e-01 -2.987824e-01 -3.212469e-01 -3.395416e-01 -3.525569e-01 -3.592858e-01 -3.588457e-01 -3.504961e-01 -3.336290e-01 -3.077252e-01 -2.723182e-01 -2.269230e-01 -1.710188e-01 -1.040161e-01 -2.533621e-02 6.550413e-02 1.686361e-01 2.835853e-01 4.088395e-01 5.415084e-01 6.769579e-01 8.087314e-01 9.288349e-01 1.028482e+00 1.099621e+00 1.136631e+00 1.138422e+00 1.109130e+00 1.057238e+00 9.911698e-01 9.131887e-01 8.146555e-01 6.813881e-01 5.193857e-01 3.986588e-01 3.151346e-01 3.207495e-01 4.137421e-01 5.355826e-01 8.504412e-01 1.032626e+00 1.210140e+00 1.283988e+00 1.544905e+00 1.563162e+00 2.291888e+00 2.396712e+00 9.141932e-01 3.498875e-01 2.381858e-01 2.330189e-01 2.367721e-01 2.290344e-01 2.106422e-01 1.863180e-01 1.601136e-01 1.346451e-01 1.113439e-01 9.084169e-02 7.328473e-02 5.854686e-02 4.636630e-02 3.642519e-02 2.839895e-02 2.197876e-02 1.688776e-02 1.288137e-02 9.753208e-03 7.326453e-03 5.458476e-03 4.028072e-03 
3.136870e-03 2.239570e-03 1.568003e-03 1.065839e-03 6.959226e-04 4.223985e-04 2.256055e-04 8.233542e-05 -1.624859e-05 -8.578925e-05 -1.287355e-04 -1.562394e-04 -1.671997e-04 -1.699620e-04 -1.615985e-04 -1.484259e-04 -1.266467e-04 -1.007825e-04 -6.660461e-05 -2.679495e-05 2.319692e-05 8.264310e-05 1.564553e-04 2.458359e-04 3.560175e-04 4.896935e-04 6.519550e-04 8.457124e-04 1.074517e-03 1.338773e-03 1.637452e-03 1.963489e-03 2.305757e-03 2.641675e-03 2.941267e-03 3.154755e-03 3.221048e-03 3.048165e-03 2.529028e-03 1.513067e-03 -1.673414e-04 -2.734528e-03 -6.425059e-03 -1.153511e-02 -1.836324e-02 -2.725939e-02 -3.855021e-02 -5.258495e-02 -6.964669e-02 -8.998719e-02 -1.137332e-01 -1.409045e-01 -1.713319e-01 -2.046595e-01 -2.402961e-01 -2.774141e-01 -3.149548e-01 -3.516434e-01 -3.860557e-01 -4.166632e-01 -4.419388e-01 -4.604234e-01 -4.708151e-01 -4.720199e-01 -4.631662e-01 -4.435973e-01 -4.127940e-01 -3.703093e-01 -3.156443e-01 -2.481872e-01 -1.671364e-01 -7.155356e-02 3.954389e-02 1.668759e-01 3.105266e-01 4.693101e-01 6.401693e-01 8.174752e-01 9.926773e-01 1.154409e+00 1.289395e+00 1.384634e+00 1.430381e+00 1.424206e+00 1.373580e+00 1.295584e+00 1.209553e+00 1.122801e+00 1.014241e+00 8.294155e-01 5.271722e-01 3.614711e-01 1.819856e-01 1.902540e-01 4.552000e-01 4.302410e-01 7.068207e-01 9.657669e-01 8.928186e-01 5.149760e-01 5.492502e-01 1.795609e-01 9.973580e-01 1.049332e+00 -5.003310e-01 -2.849341e-01 1.708996e-02 1.843721e-01 2.525944e-01 2.640220e-01 2.471278e-01 2.182635e-01 1.861538e-01 1.551391e-01 1.271704e-01 1.029301e-01 8.245440e-02 6.546913e-02 5.157144e-02 4.032509e-02 3.130936e-02 2.414125e-02 1.848550e-02 1.405385e-02 1.060545e-02 7.938355e-03 5.889757e-03 4.324213e-03 
3.267965e-03 2.300317e-03 1.576795e-03 1.035147e-03 6.369560e-04 3.420545e-04 1.313009e-04 -2.208975e-05 -1.254052e-04 -1.975635e-04 -2.389154e-04 -2.637395e-04 -2.685975e-04 -2.647885e-04 -2.469973e-04 -2.241934e-04 -1.902340e-04 -1.518189e-04 -1.024256e-04 -4.626043e-05 2.352870e-05 1.055001e-04 2.069795e-04 3.293726e-04 4.805456e-04 6.643199e-04 8.886680e-04 1.158368e-03 1.479912e-03 1.855768e-03 2.287297e-03 2.768541e-03 3.288895e-03 3.823860e-03 4.339765e-03 4.778579e-03 5.067668e-03 5.095696e-03 4.731207e-03 3.787149e-03 2.052768e-03 -7.543168e-04 -4.938078e-03 -1.088311e-02 -1.898217e-02 -2.970151e-02 -4.348400e-02 -6.081211e-02 -8.208944e-02 -1.076904e-01 -1.378311e-01 -1.725962e-01 -2.118206e-01 -2.550940e-01 -3.016841e-01 -3.505337e-01 -4.002601e-01 -4.491736e-01 -4.953693e-01 -5.367927e-01 -5.713971e-01 -5.972441e-01 -6.126478e-01 -6.162486e-01 -6.070487e-01 -5.843893e-01 -5.478419e-01 -4.970824e-01 -4.317001e-01 -3.510541e-01 -2.541262e-01 -1.395126e-01 -5.489891e-03 1.496346e-01 3.270323e-01 5.264354e-01 7.451678e-01 9.768769e-01 1.210652e+00 1.430620e+00 1.616743e+00 1.747675e+00 1.805540e+00 1.783622e+00 1.693455e+00 1.568353e+00 1.453507e+00 1.378213e+00 1.312681e+00 1.114322e+00 4.084904e-01 4.155449e-01 8.197906e-01 5.449248e-01 -3.490647e-02 -3.423166e-01 -8.592587e-01 -1.966814e+00 -2.456132e+00 -2.951862e+00 -3.255776e+00 -3.415752e+00 -3.573547e+00 -3.719731e+00 -2.748497e+00 -8.884785e-01 -6.349473e-02 2.432963e-01 3.342939e-01 3.362291e-01 3.038133e-01 2.608529e-01 2.176140e-01 1.782432e-01 1.441230e-01 1.153811e-01 9.161283e-02 7.221329e-02 5.654006e-02 4.398329e-02 3.399783e-02 2.610990e-02 1.991908e-02 1.508855e-02 1.134286e-02 8.453291e-03 6.238679e-03 4.548319e-03 
3.322421e-03 2.291148e-03 1.518639e-03 9.399373e-04 5.133312e-04 1.976572e-04 -2.827213e-05 -1.913906e-04 -3.004160e-04 -3.740490e-04 -4.137945e-04 -4.335895e-04 -4.310182e-04 -4.169947e-04 -3.870974e-04 -3.498406e-04 -2.997471e-04 -2.428923e-04 -1.730270e-04 -9.341990e-05 3.098761e-06 1.165066e-04 2.552354e-04 4.227584e-04 6.289810e-04 8.805479e-04 1.188407e-03 1.560843e-03 2.007968e-03 2.535976e-03 3.149661e-03 3.845832e-03 4.615422e-03 5.433424e-03 6.262817e-03 7.037881e-03 7.673084e-03 8.036386e-03 7.967385e-03 7.237572e-03 5.583259e-03 2.651057e-03 -1.947925e-03 -8.706406e-03 -1.813897e-02 -3.085905e-02 -4.746461e-02 -6.861368e-02 -9.487822e-02 -1.268044e-01 -1.647451e-01 -2.088924e-01 -2.591135e-01 -3.149549e-01 -3.755228e-01 -4.394810e-01 -5.050263e-01 -5.699244e-01 -6.316157e-01 -6.873311e-01 -7.343016e-01 -7.699395e-01 -7.920381e-01 -7.989164e-01 -7.894589e-01 -7.630998e-01 -7.196461e-01 -6.590795e-01 -5.812554e-01 -4.856405e-01 -3.710540e-01 -2.355339e-01 -7.633841e-02 1.097386e-01 3.257375e-01 5.733182e-01 8.512288e-01 1.153217e+00 1.466166e+00 1.768611e+00 2.030761e+00 2.217528e+00 2.295263e+00 2.245182e+00 2.080040e+00 1.859798e+00 1.685186e+00 1.651409e+00 1.774387e+00 1.962971e+00 -3.833377e-01 -1.792729e+00 -1.242905e+00 -1.911398e+00 -2.766753e+00 -4.339243e+00 -4.788212e+00 -4.773560e+00 -4.675457e+00 -4.268810e+00 -4.267668e+00 -3.809057e+00 -4.424946e+00 -4.342594e+00 -2.010691e+00 -2.238729e-01 3.830801e-01 5.294977e-01 5.165044e-01 4.535175e-01 3.806748e-01 3.122021e-01 2.525502e-01 2.023974e-01 1.610503e-01 1.273758e-01 1.001857e-01 7.838013e-02 6.099443e-02 4.720743e-02 3.633019e-02 2.779190e-02 2.112328e-02 1.594041e-02 1.193292e-02 8.848421e-03 6.487260e-03 4.686712e-03 
3.265000e-03 2.176902e-03 1.360936e-03 7.475106e-04 2.955775e-04 -3.988082e-05 -2.779705e-04 -4.493759e-04 -5.599495e-04 -6.323140e-04 -6.647525e-04 -6.752902e-04 -6.582124e-04 -6.284913e-04 -5.784790e-04 -5.204102e-04 -4.456821e-04 -3.634058e-04 -2.642228e-04 -1.534179e-04 -2.054904e-05 1.336573e-04 3.213155e-04 5.467327e-04 8.241654e-04 1.162739e-03 1.578582e-03 2.083977e-03 2.694908e-03 3.422480e-03 4.277307e-03 5.260556e-03 6.367128e-03 7.572974e-03 8.839796e-03 1.009460e-02 1.123977e-02 1.212040e-02 1.254517e-02 1.223710e-02 1.087230e-02 8.011384e-03 3.164667e-03 -4.295544e-03 -1.503404e-02 -2.985388e-02 -4.955219e-02 -7.502210e-02 -1.070633e-01 -1.464656e-01 -1.937845e-01 -2.493866e-01 -3.132202e-01 -3.848175e-01 -4.631154e-01 -5.464415e-01 -6.324625e-01 -7.182208e-01 -8.002758e-01 -8.748636e-01 -9.382133e-01 -9.868190e-01 -1.017765e+00 -1.028949e+00 -1.019173e+00 -9.881071e-01 -9.360434e-01 -8.635678e-01 -7.711126e-01 -6.585195e-01 -5.246115e-01 -3.668683e-01 -1.812475e-01 3.761191e-02 2.957471e-01 5.982924e-01 9.473258e-01 1.338519e+00 1.757835e+00 2.177889e+00 2.556070e+00 2.835850e+00 2.954396e+00 2.862428e+00 2.558924e+00 2.136955e+00 1.803638e+00 1.797851e+00 2.334660e+00 -4.557786e-01 -2.499493e+00 -2.477241e+00 -3.976265e+00 -6.487445e+00 -5.952451e+00 -3.688865e+00 -2.447169e+00 -8.459069e-01 -2.021446e-01 4.330948e-01 7.098396e-01 1.113795e+00 1.211991e+00 1.790806e+00 2.161790e+00 1.755814e+00 1.307881e+00 9.916958e-01 7.634589e-01 5.936416e-01 4.643537e-01 3.643215e-01 2.861372e-01 2.246415e-01 1.761057e-01 1.377418e-01 1.074172e-01 8.347377e-02 6.460457e-02 4.977311e-02 3.815117e-02 2.907581e-02 2.201605e-02 1.654513e-02 1.232384e-02 9.078434e-03 6.595619e-03 4.701243e-03 
3.077180e-03 1.938802e-03 1.080750e-03 4.332681e-04 -4.647976e-05 -4.028151e-04 -6.560974e-04 -8.360591e-04 -9.497096e-04 -1.018799e-03 -1.042889e-03 -1.039339e-03 -1.003860e-03 -9.509241e-04 -8.743159e-04 -7.857562e-04 -6.778121e-04 -5.588077e-04 -4.199320e-04 -2.651013e-04 -8.340072e-05 1.267285e-04 3.792853e-04 6.821193e-04 1.053108e-03 1.506463e-03 2.063817e-03 2.744158e-03 3.570619e-03 4.562202e-03 5.737325e-03 7.104822e-03 8.665804e-03 1.040057e-02 1.227124e-02 1.420028e-02 1.607784e-02 1.772681e-02 1.892075e-02 1.933034e-02 1.856028e-02 1.607298e-02 1.125541e-02 3.319294e-03 -8.589364e-03 -2.550819e-02 -4.849374e-02 -7.874302e-02 -1.173660e-01 -1.654871e-01 -2.239596e-01 -2.934208e-01 -3.739790e-01 -4.652100e-01 -5.658869e-01 -6.739523e-01 -7.864014e-01 -8.993318e-01 -1.008096e+00 -1.107555e+00 -1.192512e+00 -1.258168e+00 -1.300604e+00 -1.317181e+00 -1.306665e+00 -1.269212e+00 -1.205972e+00 -1.118598e+00 -1.008582e+00 -8.765854e-01 -7.217946e-01 -5.412913e-01 -3.295737e-01 -7.838209e-02 2.227628e-01 5.848075e-01 1.016162e+00 1.517883e+00 2.078137e+00 2.665439e+00 3.222636e+00 3.663465e+00 3.875122e+00 3.741160e+00 3.198591e+00 2.355642e+00 1.612662e+00 1.528874e+00 -1.864698e+00 -4.835360e+00 -3.525370e+00 -7.461372e+00 -8.457363e+00 -2.244487e+00 9.827037e-01 2.767703e+00 3.874292e+00 4.599408e+00 4.601925e+00 4.804814e+00 4.898130e+00 4.850781e+00 5.142877e+00 5.919227e+00 5.913827e+00 3.610309e+00 2.128688e+00 1.388831e+00 9.705909e-01 7.086371e-01 5.315307e-01 4.052375e-01 3.119157e-01 2.413407e-01 1.871679e-01 1.452037e-01 1.125203e-01 8.699892e-02 6.705275e-02 5.147417e-02 3.932466e-02 2.987146e-02 2.253594e-02 1.686094e-02 1.248504e-02 9.120885e-03 6.544198e-03 4.574962e-03 
2.702238e-03 1.517606e-03 6.201179e-04 -6.244037e-05 -5.693276e-04 -9.478859e-04 -1.214093e-03 -1.401602e-03 -1.512684e-03 -1.573958e-03 -1.580255e-03 -1.554513e-03 -1.487961e-03 -1.400877e-03 -1.282884e-03 -1.151122e-03 -9.942042e-04 -8.248375e-04 -6.301950e-04 -4.169387e-04 -1.696713e-04 1.125710e-04 4.492360e-04 8.501497e-04 1.340132e-03 1.938237e-03 2.674950e-03 3.576998e-03 4.678320e-03 6.007992e-03 7.596416e-03 9.463132e-03 1.162014e-02 1.405542e-02 1.673627e-02 1.958315e-02 2.247771e-02 2.522047e-02 2.755056e-02 2.908033e-02 2.933709e-02 2.766859e-02 2.332044e-02 1.531009e-02 2.556812e-03 -1.627084e-02 -4.255461e-02 -7.788800e-02 -1.237916e-01 -1.818510e-01 -2.533476e-01 -3.393316e-01 -4.401989e-01 -5.556717e-01 -6.844084e-01 -8.239276e-01 -9.704088e-01 -1.118709e+00 -1.262552e+00 -1.394859e+00 -1.508401e+00 -1.596488e+00 -1.653764e+00 -1.676836e+00 -1.664534e+00 -1.617870e+00 -1.539454e+00 -1.432715e+00 -1.300936e+00 -1.146294e+00 -9.689664e-01 -7.661394e-01 -5.309824e-01 -2.517874e-01 8.809933e-02 5.084922e-01 1.028742e+00 1.660949e+00 2.402024e+00 3.222282e+00 4.053973e+00 4.776888e+00 5.206297e+00 5.094184e+00 4.195337e+00 2.498653e+00 7.579825e-01 -2.213670e+00 -4.737500e+00 -4.400957e+00 -1.108552e+01 -8.160079e+00 2.005454e+00 6.269763e+00 6.618264e+00 6.142985e+00 6.038422e+00 5.042328e+00 4.853808e+00 4.088372e+00 3.851130e+00 3.394335e+00 3.037438e+00 3.425589e+00 5.235846e+00 3.608305e+00 2.245239e+00 1.492610e+00 1.043257e+00 7.561061e-01 5.618840e-01 4.246240e-01 3.243745e-01 2.494272e-01 1.924685e-01 1.487101e-01 1.148531e-01 8.855245e-02 6.807881e-02 5.213603e-02 3.972860e-02 3.008747e-02 2.261048e-02 1.682479e-02 1.235937e-02 8.919605e-03 6.278036e-03 4.250847e-03 