# vtk DataFile Version 2.0
Comment goes here
ASCII

DATASET STRUCTURED_POINTS
DIMENSIONS    128   128   1

ORIGIN    0.000   0.000   0.000
SPACING   0.0156250.015625   1.000

POINT_DATA   16384
SCALARS Omega double
LOOKUP_TABLE default

-7.124429e-06 -5.072040e-06 -3.465270e-06 -2.401206e-06 -1.831294e-06 -1.832991e-06 -2.331702e-06 -3.386934e-06 -4.908657e-06 -6.940014e-06 -9.385725e-06 -1.227434e-05 -1.551444e-05 -1.912231e-05 -2.301787e-05 -2.720839e-05 -3.163056e-05 -3.628694e-05 -4.113410e-05 -4.617524e-05 -5.138755e-05 -5.678095e-05 -6.235180e-05 -6.812300e-05 -7.410707e-05 -8.034569e-05 -8.686381e-05 -9.372650e-05 -1.009681e-04 -1.086799e-04 -1.169046e-04 -1.257601e-04 -1.353002e-04 -1.456672e-04 -1.569332e-04 -1.692599e-04 -1.827487e-04 -1.975736e-04 -2.138789e-04 -2.318407e-04 -2.516580e-04 -2.734965e-04 -2.976148e-04 -3.241515e-04 -3.534160e-04 -3.854987e-04 -4.207323e-04 -4.591314e-04 -5.010027e-04 -5.462524e-04 -5.950917e-04 -6.472830e-04 -7.028613e-04 -7.614123e-04 -8.227163e-04 -8.861601e-04 -9.512073e-04 -1.017044e-03 -1.082787e-03 -1.147449e-03 -1.209806e-03 -1.268757e-03 -1.322797e-03 -1.370805e-03 -1.411090e-03 -1.442649e-03 -1.463748e-03 -1.473661e-03 -1.470788e-03 -1.454858e-03 -1.424600e-03 -1.380344e-03 -1.321334e-03 -1.248576e-03 -1.161969e-03 -1.063144e-03 -9.527272e-04 -8.328006e-04 -7.047249e-04 -5.708004e-04 -4.331091e-04 -2.939859e-04 -1.562234e-04 -2.210308e-05 1.049783e-04 2.229216e-04 3.281656e-04 4.192005e-04 4.932085e-04 5.499145e-04 5.882410e-04 6.094706e-04 6.145271e-04 6.057279e-04 5.852268e-04 5.554569e-04 5.188189e-04 4.773347e-04 4.330553e-04 3.874311e-04 3.419010e-04 2.973579e-04 2.546483e-04 2.142276e-04 1.765613e-04 1.418363e-04 1.103481e-04 8.212323e-05 5.732259e-05 3.584435e-05 1.768079e-05 2.632458e-06 -9.459581e-06 -1.884933e-05 -2.579016e-05 -3.055369e-05 -3.342944e-05 -3.468290e-05 -3.459636e-05 -3.341633e-05 -3.139051e-05 -2.874043e-05 -2.566419e-05 -2.235632e-05 -1.895889e-05 -1.563960e-05 -1.248413e-05 -9.634666e-06 
-2.575910e-03 -4.274577e-03 -5.849593e-03 -7.297918e-03 -8.619085e-03 -9.807339e-03 -1.085997e-02 -1.177117e-02 -1.253823e-02 -1.315705e-02 -1.362647e-02 -1.394534e-02 -1.411514e-02 -1.413844e-02 -1.402022e-02 -1.376733e-02 -1.338884e-02 -1.289636e-02 -1.230363e-02 -1.162742e-02 -1.088667e-02 -1.010382e-02 -9.303637e-03 -8.514769e-03 -7.768545e-03 -7.100494e-03 -6.549222e-03 -6.157866e-03 -5.972972e-03 -6.045854e-03 -6.431404e-03 -7.189270e-03 -8.382546e-03 -1.007860e-02 -1.234767e-02 -1.526302e-02 -1.889962e-02 -2.333322e-02 -2.863933e-02 -3.489079e-02 -4.215743e-02 -5.050156e-02 -5.997907e-02 -7.063218e-02 -8.249266e-02 -9.557180e-02 -1.098661e-01 -1.253451e-01 -1.419593e-01 -1.596273e-01 -1.782456e-01 -1.976762e-01 -2.177584e-01 -2.382979e-01 -2.590792e-01 -2.798586e-01 -3.003749e-01 -3.203472e-01 -3.394817e-01 -3.574751e-01 -3.740150e-01 -3.887887e-01 -4.014762e-01 -4.117647e-01 -4.193323e-01 -4.238728e-01 -4.250671e-01 -4.226264e-01 -4.162464e-01 -4.056804e-01 -3.906702e-01 -3.710587e-01 -3.466935e-01 -3.175786e-01 -2.837534e-01 -2.454652e-01 -2.030407e-01 -1.570369e-01 -1.081408e-01 -5.724177e-02 -5.399766e-03 4.620349e-02 9.621579e-02 1.432871e-01 1.859900e-01 2.230740e-01 2.534474e-01 2.764382e-01 2.918605e-01 3.001604e-01 3.024226e-01 3.002513e-01 2.955517e-01 2.901674e-01 2.855881e-01 2.827165e-01 2.818056e-01 2.824760e-01 2.838172e-01 2.845960e-01 2.834425e-01 2.790788e-01 2.705290e-01 2.573329e-01 2.396977e-01 2.185168e-01 1.951450e-01 1.711048e-01 1.477228e-01 1.259999e-01 1.065085e-01 8.949443e-02 7.492448e-02 6.262067e-02 5.230754e-02 4.369483e-02 3.648970e-02 3.043612e-02 2.530440e-02 2.091044e-02 1.709653e-02 1.374422e-02 1.075354e-02 8.054707e-03 5.588498e-03 3.318006e-03 1.210988e-03 -7.485889e-04 
-5.211410e-03 -8.590364e-03 -1.172591e-02 -1.461126e-02 -1.724512e-02 -1.961534e-02 -2.171639e-02 -2.353596e-02 -2.506868e-02 -2.630564e-02 -2.724467e-02 -2.788265e-02 -2.822281e-02 -2.826942e-02 -2.803273e-02 -2.752552e-02 -2.676631e-02 -2.577731e-02 -2.458642e-02 -2.322609e-02 -2.173472e-02 -2.015596e-02 -1.853994e-02 -1.694269e-02 -1.542746e-02 -1.406402e-02 -1.293024e-02 -1.211113e-02 -1.170054e-02 -1.179989e-02 -1.251988e-02 -1.397882e-02 -1.630398e-02 -1.962946e-02 -2.409704e-02 -2.985316e-02 -3.704929e-02 -4.583752e-02 -5.637071e-02 -6.879585e-02 -8.325478e-02 -9.987424e-02 -1.187684e-01 -1.400244e-01 -1.637084e-01 -1.898462e-01 -2.184330e-01 -2.494111e-01 -2.826834e-01 -3.180896e-01 -3.554234e-01 -3.944107e-01 -4.347287e-01 -4.759897e-01 -5.177595e-01 -5.595505e-01 -6.008357e-01 -6.410525e-01 -6.796086e-01 -7.158970e-01 -7.492897e-01 -7.791619e-01 -8.048722e-01 -8.257968e-01 -8.412919e-01 -8.507463e-01 -8.535205e-01 -8.490339e-01 -8.366716e-01 -8.159292e-01 -7.862756e-01 -7.473757e-01 -6.989010e-01 -6.408292e-01 -5.732130e-01 -4.965120e-01 -4.113620e-01 -3.188455e-01 -2.203389e-01 -1.176018e-01 -1.278561e-02 9.173978e-02 1.932027e-01 2.888444e-01 3.756983e-01 4.511229e-01 5.127915e-01 5.591756e-01 5.898252e-01 6.055764e-01 6.087406e-01 6.027576e-01 5.917823e-01 5.798285e-01 5.700662e-01 5.643739e-01 5.632097e-01 5.656880e-01 5.697797e-01 5.728018e-01 5.717953e-01 5.639894e-01 5.472277e-01 5.204533e-01 4.840924e-01 4.401610e-01 3.917165e-01 3.421327e-01 2.942480e-01 2.501100e-01 2.108078e-01 1.767344e-01 1.477248e-01 1.233397e-01 1.029723e-01 8.600424e-02 7.183197e-02 5.993300e-02 4.984754e-02 4.120757e-02 3.370219e-02 2.709726e-02 2.119742e-02 1.586570e-02 1.098706e-02 6.489529e-03 2.310859e-03 -1.579779e-03 
-7.999251e-03 -1.301098e-02 -1.766832e-02 -2.195940e-02 -2.588141e-02 -2.941505e-02 -3.255119e-02 -3.527070e-02 -3.756459e-02 -3.941906e-02 -4.082973e-02 -4.179167e-02 -4.230837e-02 -4.238614e-02 -4.203876e-02 -4.128545e-02 -4.015216e-02 -3.867236e-02 -3.688584e-02 -3.484153e-02 -3.259479e-02 -3.021143e-02 -2.776423e-02 -2.533765e-02 -2.302406e-02 -2.092867e-02 -1.916582e-02 -1.786374e-02 -1.716094e-02 -1.721068e-02 -1.817717e-02 -2.023950e-02 -2.358756e-02 -2.842488e-02 -3.496425e-02 -4.342870e-02 -5.404708e-02 -6.705205e-02 -8.267637e-02 -1.011463e-01 -1.226799e-01 -1.474742e-01 -1.757075e-01 -2.075182e-01 -2.430134e-01 -2.822395e-01 -3.251975e-01 -3.718069e-01 -4.219290e-01 -4.753265e-01 -5.316942e-01 -5.906198e-01 -6.516197e-01 -7.141062e-01 -7.774248e-01 -8.408339e-01 -9.035369e-01 -9.646783e-01 -1.023364e+00 -1.078672e+00 -1.129659e+00 -1.175381e+00 -1.214876e+00 -1.247207e+00 -1.271412e+00 -1.286568e+00 -1.291718e+00 -1.285974e+00 -1.268402e+00 -1.238210e+00 -1.194566e+00 -1.136912e+00 -1.064693e+00 -9.778092e-01 -8.762595e-01 -7.606765e-01 -6.319366e-01 -4.916428e-01 -3.418084e-01 -1.851049e-01 -2.475995e-02 1.355764e-01 2.916537e-01 4.391426e-01 5.733371e-01 6.899357e-01 7.850076e-01 8.558584e-01 9.014431e-01 9.229656e-01 9.241271e-01 9.107892e-01 8.901142e-01 8.690415e-01 8.528436e-01 8.444518e-01 8.444518e-01 8.511691e-01 8.609739e-01 8.693122e-01 8.711753e-01 8.618782e-01 8.376215e-01 7.963863e-01 7.388036e-01 6.685361e-01 5.912154e-01 5.128157e-01 4.380765e-01 3.701321e-01 3.104219e-01 2.592526e-01 2.161046e-01 1.801124e-01 1.502203e-01 1.254191e-01 1.047546e-01 8.742843e-02 7.274420e-02 6.015820e-02 4.920969e-02 3.955947e-02 3.092120e-02 2.309928e-02 1.592609e-02 9.300509e-03 3.132288e-03 -2.620412e-03 
-1.093602e-02 -1.752149e-02 -2.365436e-02 -2.931591e-02 -3.450075e-02 -3.918072e-02 -4.334265e-02 -4.695871e-02 -5.001621e-02 -5.249437e-02 -5.438683e-02 -5.568449e-02 -5.639159e-02 -5.651387e-02 -5.606935e-02 -5.508086e-02 -5.358274e-02 -5.161665e-02 -4.923545e-02 -4.650128e-02 -4.348780e-02 -4.027950e-02 -3.697336e-02 -3.367862e-02 -3.051849e-02 -2.762988e-02 -2.516554e-02 -2.329328e-02 -2.219855e-02 -2.208304e-02 -2.316723e-02 -2.568830e-02 -2.990205e-02 -3.607989e-02 -4.450967e-02 -5.549108e-02 -6.933532e-02 -8.635779e-02 -1.068771e-01 -1.312035e-01 -1.596383e-01 -1.924560e-01 -2.299070e-01 -2.721903e-01 -3.194628e-01 -3.718017e-01 -4.292225e-01 -4.916321e-01 -5.588567e-01 -6.305907e-01 -7.064327e-01 -7.858372e-01 -8.681559e-01 -9.526020e-01 -1.038290e+00 -1.124219e+00 -1.209307e+00 -1.292399e+00 -1.372280e+00 -1.447708e+00 -1.517406e+00 -1.580111e+00 -1.634533e+00 -1.679423e+00 -1.713498e+00 -1.735531e+00 -1.744237e+00 -1.738422e+00 -1.716808e+00 -1.678291e+00 -1.621691e+00 -1.546167e+00 -1.450866e+00 -1.335517e+00 -1.199983e+00 -1.044963e+00 -8.715152e-01 -6.816653e-01 -4.780691e-01 -2.642430e-01 -4.458119e-02 1.759968e-01 3.915733e-01 5.961186e-01 7.828457e-01 9.453575e-01 1.077572e+00 1.174897e+00 1.235228e+00 1.259765e+00 1.253984e+00 1.227056e+00 1.190660e+00 1.156160e+00 1.131540e+00 1.120736e+00 1.124394e+00 1.139547e+00 1.160064e+00 1.178859e+00 1.188215e+00 1.180892e+00 1.150616e+00 1.093558e+00 1.010296e+00 9.072246e-01 7.943785e-01 6.817817e-01 5.766242e-01 4.830180e-01 4.023287e-01 3.343108e-01 2.777166e-01 2.309892e-01 1.924710e-01 1.606716e-01 1.342547e-01 1.121316e-01 9.337863e-02 7.728398e-02 6.325383e-02 5.085393e-02 3.972098e-02 2.960827e-02 2.030528e-02 1.168664e-02 3.640188e-03 -3.883802e-03 
-1.407271e-02 -2.214128e-02 -2.967588e-02 -3.664871e-02 -4.305043e-02 -4.884288e-02 -5.400722e-02 -5.850649e-02 -6.232227e-02 -6.542685e-02 -6.780935e-02 -6.945692e-02 -7.037147e-02 -7.055894e-02 -7.003797e-02 -6.883607e-02 -6.699182e-02 -6.455642e-02 -6.159121e-02 -5.817310e-02 -5.438902e-02 -5.034391e-02 -4.615356e-02 -4.195393e-02 -3.789347e-02 -3.414299e-02 -3.088794e-02 -2.833830e-02 -2.672103e-02 -2.628939e-02 -2.731549e-02 -3.009848e-02 -3.495687e-02 -4.223497e-02 -5.229460e-02 -6.551858e-02 -8.230229e-02 -1.030521e-01 -1.281778e-01 -1.580835e-01 -1.931633e-01 -2.337806e-01 -2.802709e-01 -3.329064e-01 -3.919091e-01 -4.573995e-01 -5.294230e-01 -6.078844e-01 -6.925883e-01 -7.831653e-01 -8.791263e-01 -9.797891e-01 -1.084343e+00 -1.191786e+00 -1.300998e+00 -1.410696e+00 -1.519501e+00 -1.625930e+00 -1.728437e+00 -1.825435e+00 -1.915311e+00 -1.996464e+00 -2.067283e+00 -2.126202e+00 -2.171631e+00 -2.202033e+00 -2.215811e+00 -2.211442e+00 -2.187300e+00 -2.141919e+00 -2.073723e+00 -1.981496e+00 -1.863989e+00 -1.720645e+00 -1.551051e+00 -1.355878e+00 -1.136215e+00 -8.944909e-01 -6.338768e-01 -3.588111e-01 -7.477686e-02 2.118859e-01 4.935745e-01 7.623040e-01 1.008905e+00 1.224305e+00 1.399379e+00 1.526609e+00 1.601647e+00 1.625151e+00 1.604469e+00 1.553634e+00 1.491538e+00 1.436988e+00 1.401484e+00 1.388892e+00 1.400429e+00 1.430992e+00 1.469962e+00 1.507140e+00 1.531164e+00 1.531611e+00 1.498387e+00 1.423831e+00 1.307334e+00 1.160168e+00 1.000813e+00 8.459070e-01 7.056186e-01 5.843996e-01 4.825924e-01 3.985898e-01 3.298458e-01 2.737863e-01 2.279661e-01 1.903484e-01 1.591832e-01 1.331079e-01 1.109817e-01 9.195426e-02 7.531337e-02 6.055420e-02 4.724734e-02 3.511197e-02 2.390133e-02 1.347672e-02 3.707879e-03 -5.456101e-03 
-1.728525e-02 -2.674529e-02 -3.561062e-02 -4.384160e-02 -5.142370e-02 -5.830586e-02 -6.446320e-02 -6.984639e-02 -7.443141e-02 -7.817994e-02 -8.107710e-02 -8.310219e-02 -8.425569e-02 -8.453920e-02 -8.397329e-02 -8.258522e-02 -8.041949e-02 -7.753157e-02 -7.399325e-02 -6.989062e-02 -6.532615e-02 -6.041931e-02 -5.530717e-02 -5.014624e-02 -4.511290e-02 -4.040547e-02 -3.624517e-02 -3.287781e-02 -3.057532e-02 -2.963676e-02 -3.038987e-02 -3.319124e-02 -3.842694e-02 -4.651156e-02 -5.788698e-02 -7.301941e-02 -9.239601e-02 -1.165181e-01 -1.458962e-01 -1.810369e-01 -2.224383e-01 -2.705662e-01 -3.258545e-01 -3.886663e-01 -4.593037e-01 -5.379508e-01 -6.246981e-01 -7.194686e-01 -8.220575e-01 -9.320493e-01 -1.048872e+00 -1.171717e+00 -1.299604e+00 -1.431319e+00 -1.565480e+00 -1.700516e+00 -1.834714e+00 -1.966247e+00 -2.093195e+00 -2.213611e+00 -2.325511e+00 -2.426953e+00 -2.515987e+00 -2.590742e+00 -2.649322e+00 -2.689903e+00 -2.710581e+00 -2.709518e+00 -2.684725e+00 -2.634345e+00 -2.556341e+00 -2.449037e+00 -2.310656e+00 -2.140198e+00 -1.936812e+00 -1.700941e+00 -1.433583e+00 -1.137382e+00 -8.160243e-01 -4.747193e-01 -1.201747e-01 2.399856e-01 5.962502e-01 9.387212e-01 1.255407e+00 1.533972e+00 1.761034e+00 1.924247e+00 2.015158e+00 2.032105e+00 1.984321e+00 1.892490e+00 1.787829e+00 1.703666e+00 1.655370e+00 1.641385e+00 1.667591e+00 1.725128e+00 1.793635e+00 1.860704e+00 1.909800e+00 1.927465e+00 1.897957e+00 1.804980e+00 1.642262e+00 1.430770e+00 1.206991e+00 9.984790e-01 8.179377e-01 6.681117e-01 5.463934e-01 4.485178e-01 3.699254e-01 3.066764e-01 2.554174e-01 2.135360e-01 1.789012e-01 1.499099e-01 1.252528e-01 1.039731e-01 8.527701e-02 6.861046e-02 5.350186e-02 3.964917e-02 2.678408e-02 1.476210e-02 3.443527e-03 -7.219113e-03 
-2.053631e-02 -3.126165e-02 -4.135527e-02 -5.076345e-02 -5.946439e-02 -6.739325e-02 -7.451650e-02 -8.077233e-02 -8.612782e-02 -9.053449e-02 -9.396936e-02 -9.640477e-02 -9.783482e-02 -9.825811e-02 -9.769141e-02 -9.616346e-02 -9.371820e-02 -9.041748e-02 -8.633639e-02 -8.157260e-02 -7.623633e-02 -7.046422e-02 -6.440629e-02 -5.824243e-02 -5.216824e-02 -4.641259e-02 -4.122367e-02 -3.688646e-02 -3.370955e-02 -3.204166e-02 -3.225908e-02 -3.478064e-02 -4.005507e-02 -4.857357e-02 -6.085655e-02 -7.746210e-02 -9.897221e-02 -1.259945e-01 -1.591490e-01 -1.990593e-01 -2.463429e-01 -3.015857e-01 -3.653419e-01 -4.380855e-01 -5.202252e-01 -6.120299e-01 -7.136633e-01 -8.250843e-01 -9.461043e-01 -1.076271e+00 -1.214946e+00 -1.361189e+00 -1.513854e+00 -1.671487e+00 -1.832438e+00 -1.994797e+00 -2.156496e+00 -2.315305e+00 -2.468907e+00 -2.614942e+00 -2.751038e+00 -2.874883e+00 -2.984199e+00 -3.076802e+00 -3.150530e+00 -3.203284e+00 -3.232901e+00 -3.237225e+00 -3.213928e+00 -3.160710e+00 -3.075034e+00 -2.954618e+00 -2.797027e+00 -2.600605e+00 -2.363836e+00 -2.086745e+00 -1.769977e+00 -1.416349e+00 -1.029838e+00 -6.165644e-01 -1.842720e-01 2.579527e-01 6.989449e-01 1.126819e+00 1.526859e+00 1.882853e+00 2.175736e+00 2.385548e+00 2.495929e+00 2.499735e+00 2.406430e+00 2.244824e+00 2.067003e+00 1.940250e+00 1.883399e+00 1.864405e+00 1.916472e+00 2.022636e+00 2.134207e+00 2.247942e+00 2.335668e+00 2.385524e+00 2.374919e+00 2.267609e+00 2.035239e+00 1.720335e+00 1.402900e+00 1.126642e+00 9.023018e-01 7.256810e-01 5.878070e-01 4.800769e-01 3.952169e-01 3.277601e-01 2.734511e-01 2.292093e-01 1.926066e-01 1.618988e-01 1.356666e-01 1.129104e-01 9.278764e-02 7.473345e-02 5.825181e-02 4.304205e-02 2.882378e-02 1.546002e-02 2.806684e-03 -9.172605e-03 
-2.353239e-02 -3.540704e-02 -4.664100e-02 -5.716281e-02 -6.694276e-02 -7.589806e-02 -8.398672e-02 -9.112959e-02 -9.728554e-02 -1.023903e-01 -1.064140e-01 -1.093156e-01 -1.110845e-01 -1.117093e-01 -1.112053e-01 -1.095951e-01 -1.069247e-01 -1.032546e-01 -9.866620e-02 -9.326041e-02 -8.715855e-02 -8.050574e-02 -7.346849e-02 -6.624093e-02 -5.904154e-02 -5.212042e-02 -4.575647e-02 -4.026471e-02 -3.599432e-02 -3.333534e-02 -3.271708e-02 -3.461394e-02 -3.954277e-02 -4.806760e-02 -6.079433e-02 -7.837347e-02 -1.014911e-01 -1.308672e-01 -1.672437e-01 -2.113742e-01 -2.640114e-01 -3.258823e-01 -3.976809e-01 -4.800205e-01 -5.734396e-01 -6.783255e-01 -7.949399e-01 -9.233131e-01 -1.063295e+00 -1.214426e+00 -1.376015e+00 -1.547007e+00 -1.726082e+00 -1.911547e+00 -2.101442e+00 -2.293498e+00 -2.485225e+00 -2.673950e+00 -2.856877e+00 -3.031191e+00 -3.194066e+00 -3.342801e+00 -3.474760e+00 -3.587475e+00 -3.678532e+00 -3.745620e+00 -3.786360e+00 -3.798347e+00 -3.778934e+00 -3.725394e+00 -3.634623e+00 -3.503643e+00 -3.329161e+00 -3.108634e+00 -2.839590e+00 -2.521305e+00 -2.153839e+00 -1.739873e+00 -1.283686e+00 -7.920963e-01 -2.741485e-01 2.599461e-01 7.972115e-01 1.324605e+00 1.824852e+00 2.278287e+00 2.658570e+00 2.934004e+00 3.073695e+00 3.058090e+00 2.893779e+00 2.613281e+00 2.298964e+00 2.114771e+00 2.084842e+00 2.029986e+00 2.128011e+00 2.332597e+00 2.491815e+00 2.680315e+00 2.818916e+00 2.922741e+00 2.966262e+00 2.870116e+00 2.521847e+00 2.019818e+00 1.563017e+00 1.206777e+00 9.421237e-01 7.468663e-01 6.009488e-01 4.900235e-01 4.039988e-01 3.361510e-01 2.816521e-01 2.372069e-01 2.002935e-01 1.691558e-01 1.423686e-01 1.189508e-01 9.806534e-02 7.916637e-02 6.176254e-02 4.557010e-02 3.031248e-02 1.586869e-02 2.098842e-03 -1.101714e-02 
-2.609468e-02 -3.896558e-02 -5.121631e-02 -6.275666e-02 -7.354622e-02 -8.348430e-02 -9.251675e-02 -1.005478e-01 -1.075232e-01 -1.133642e-01 -1.180278e-01 -1.214614e-01 -1.236424e-01 -1.245517e-01 -1.241943e-01 -1.225899e-01 -1.197772e-01 -1.158182e-01 -1.107905e-01 -1.048018e-01 -9.797361e-02 -9.046309e-02 -8.244163e-02 -7.412123e-02 -6.573120e-02 -5.754633e-02 -4.986416e-02 -4.303315e-02 -3.743160e-02 -3.349455e-02 -3.169443e-02 -3.256574e-02 -3.668650e-02 -4.469981e-02 -5.729482e-02 -7.522341e-02 -9.928008e-02 -1.303104e-01 -1.691909e-01 -2.168235e-01 -2.741190e-01 -3.419694e-01 -4.212419e-01 -5.127189e-01 -6.171109e-01 -7.349566e-01 -8.666629e-01 -1.012363e+00 -1.171988e+00 -1.345094e+00 -1.530965e+00 -1.728432e+00 -1.936004e+00 -2.151711e+00 -2.373262e+00 -2.597947e+00 -2.822799e+00 -3.044600e+00 -3.260005e+00 -3.465645e+00 -3.658196e+00 -3.834506e+00 -3.991588e+00 -4.126696e+00 -4.237239e+00 -4.320751e+00 -4.374755e+00 -4.396661e+00 -4.383611e+00 -4.332435e+00 -4.239482e+00 -4.100895e+00 -3.912367e+00 -3.670098e+00 -3.370314e+00 -3.011157e+00 -2.591672e+00 -2.114312e+00 -1.583352e+00 -1.006668e+00 -3.944334e-01 2.416004e-01 8.873236e-01 1.529184e+00 2.149426e+00 2.726446e+00 3.226985e+00 3.601847e+00 3.793414e+00 3.756511e+00 3.492821e+00 3.014857e+00 2.405600e+00 2.144203e+00 2.323889e+00 2.059163e+00 2.253988e+00 2.709812e+00 2.843296e+00 3.185835e+00 3.361027e+00 3.543812e+00 3.720970e+00 3.744654e+00 3.176230e+00 2.281998e+00 1.628306e+00 1.199537e+00 9.160833e-01 7.212898e-01 5.810762e-01 4.762941e-01 3.953789e-01 3.314533e-01 2.798010e-01 2.373745e-01 2.018164e-01 1.715430e-01 1.452222e-01 1.219726e-01 1.010044e-01 8.183061e-02 6.398399e-02 4.721866e-02 3.127150e-02 1.604883e-02 1.420000e-03 -1.261293e-02 
-2.771199e-02 -4.144688e-02 -5.461783e-02 -6.711134e-02 -7.887715e-02 -8.979107e-02 -9.978810e-02 -1.087489e-01 -1.166080e-01 -1.232639e-01 -1.286625e-01 -1.327306e-01 -1.354361e-01 -1.367424e-01 -1.366477e-01 -1.351578e-01 -1.323081e-01 -1.281515e-01 -1.227659e-01 -1.162545e-01 -1.087435e-01 -1.003904e-01 -9.137595e-02 -8.191779e-02 -7.226038e-02 -6.269065e-02 -5.352873e-02 -4.514411e-02 -3.794794e-02 -3.240879e-02 -2.904605e-02 -2.844500e-02 -3.124948e-02 -3.817616e-02 -5.000378e-02 -6.758606e-02 -9.183508e-02 -1.237306e-01 -1.642970e-01 -2.146035e-01 -2.757381e-01 -3.487887e-01 -4.348217e-01 -5.348315e-01 -6.497345e-01 -7.802743e-01 -9.270426e-01 -1.090334e+00 -1.270201e+00 -1.466269e+00 -1.677826e+00 -1.903620e+00 -2.141989e+00 -2.390683e+00 -2.647020e+00 -2.907802e+00 -3.169470e+00 -3.428162e+00 -3.679835e+00 -3.920464e+00 -4.146086e+00 -4.353050e+00 -4.537963e+00 -4.697843e+00 -4.829977e+00 -4.931880e+00 -5.001114e+00 -5.035079e+00 -5.030830e+00 -4.984884e+00 -4.893026e+00 -4.750474e+00 -4.551632e+00 -4.291117e+00 -3.963320e+00 -3.564690e+00 -3.092772e+00 -2.549300e+00 -1.938604e+00 -1.269514e+00 -5.541673e-01 1.942524e-01 9.599267e-01 1.730991e+00 2.491767e+00 3.225127e+00 3.894794e+00 4.430273e+00 4.721701e+00 4.668122e+00 4.298498e+00 3.542137e+00 2.165909e+00 1.747771e+00 3.025744e+00 1.647267e+00 2.146053e+00 3.435046e+00 3.012387e+00 3.885112e+00 3.922801e+00 4.198424e+00 4.659318e+00 5.238197e+00 4.173821e+00 2.310763e+00 1.474719e+00 1.051851e+00 8.057744e-01 6.443360e-01 5.283318e-01 4.403146e-01 3.709235e-01 3.150282e-01 2.690336e-01 2.306482e-01 1.979767e-01 1.697615e-01 1.448703e-01 1.225773e-01 1.021862e-01 8.329331e-02 6.547811e-02 4.854481e-02 3.225492e-02 1.654887e-02 1.310385e-03 -1.343171e-02 
-2.801270e-02 -4.243836e-02 -5.639125e-02 -6.973628e-02 -8.240946e-02 -9.426520e-02 -1.052223e-01 -1.151403e-01 -1.239351e-01 -1.314850e-01 -1.377164e-01 -1.425382e-01 -1.458985e-01 -1.477465e-01 -1.480617e-01 -1.468405e-01 -1.441019e-01 -1.398941e-01 -1.342819e-01 -1.273685e-01 -1.192704e-01 -1.101501e-01 -1.001826e-01 -8.959534e-02 -7.863223e-02 -6.759594e-02 -5.681335e-02 -4.667780e-02 -3.761809e-02 -3.013860e-02 -2.479243e-02 -2.221813e-02 -2.311578e-02 -2.827953e-02 -3.857417e-02 -5.496227e-02 -7.847889e-02 -1.102502e-01 -1.514657e-01 -2.033821e-01 -2.672961e-01 -3.445220e-01 -4.363734e-01 -5.440984e-01 -6.688836e-01 -8.117285e-01 -9.734860e-01 -1.154666e+00 -1.355522e+00 -1.575789e+00 -1.814820e+00 -2.071292e+00 -2.343387e+00 -2.628529e+00 -2.923596e+00 -3.224777e+00 -3.527800e+00 -3.827973e+00 -4.120397e+00 -4.400191e+00 -4.662634e+00 -4.903451e+00 -5.118837e+00 -5.305586e+00 -5.461004e+00 -5.582736e+00 -5.668627e+00 -5.716279e+00 -5.722937e+00 -5.684934e+00 -5.597664e+00 -5.455247e+00 -5.250659e+00 -4.976298e+00 -4.624161e+00 -4.188160e+00 -3.663587e+00 -3.051147e+00 -2.354826e+00 -1.585337e+00 -7.572197e-01 1.130893e-01 1.007882e+00 1.917675e+00 2.834702e+00 3.757417e+00 4.665483e+00 5.473305e+00 5.969980e+00 5.880723e+00 5.484703e+00 4.683405e+00 9.678209e-01 -3.849792e-01 4.467243e+00 3.954161e+00 8.010391e-01 4.043688e+00 3.148409e+00 3.033175e+00 2.957673e+00 2.310238e+00 3.470435e+00 3.301731e+00 3.281791e+00 1.318600e+00 9.159078e-01 7.335036e-01 6.162063e-01 5.255756e-01 4.503654e-01 3.872979e-01 3.340066e-01 2.890462e-01 2.507421e-01 2.179375e-01 1.893712e-01 1.642173e-01 1.415961e-01 1.209796e-01 1.017876e-01 8.372018e-02 6.641527e-02 4.973707e-02 3.347840e-02 1.761805e-02 2.058070e-03 -1.314502e-02 
-2.621847e-02 -4.119139e-02 -5.582790e-02 -6.996558e-02 -8.353022e-02 -9.634715e-02 -1.083222e-01 -1.192841e-01 -1.291334e-01 -1.377168e-01 -1.449442e-01 -1.506940e-01 -1.548983e-01 -1.574783e-01 -1.584001e-01 -1.576357e-01 -1.551937e-01 -1.511026e-01 -1.454203e-01 -1.382352e-01 -1.296604e-01 -1.198475e-01 -1.089720e-01 -9.725518e-02 -8.494541e-02 -7.234463e-02 -5.979037e-02 -4.768338e-02 -3.647277e-02 -2.668328e-02 -1.890349e-02 -1.381230e-02 -1.216785e-02 -1.483361e-02 -2.276367e-02 -3.702890e-02 -5.879384e-02 -8.934149e-02 -1.300388e-01 -1.823546e-01 -2.478155e-01 -3.280041e-01 -4.245146e-01 -5.389106e-01 -6.726965e-01 -8.272099e-01 -1.003627e+00 -1.202771e+00 -1.425166e+00 -1.670756e+00 -1.939020e+00 -2.228635e+00 -2.537646e+00 -2.863152e+00 -3.201521e+00 -3.548231e+00 -3.898099e+00 -4.245399e+00 -4.584079e+00 -4.908166e+00 -5.211898e+00 -5.490241e+00 -5.738857e+00 -5.954400e+00 -6.134317e+00 -6.276667e+00 -6.379883e+00 -6.442155e+00 -6.461251e+00 -6.433689e+00 -6.354625e+00 -6.217208e+00 -6.012629e+00 -5.730637e+00 -5.359807e+00 -4.890499e+00 -4.314588e+00 -3.630802e+00 -2.842714e+00 -1.963107e+00 -1.011252e+00 -8.808830e-03 1.020543e+00 2.069825e+00 3.142034e+00 4.271227e+00 5.496916e+00 6.790088e+00 7.761559e+00 7.383327e+00 7.075159e+00 8.131534e+00 6.828612e+00 6.885955e+00 3.902227e-01 2.589008e+00 2.716592e+00 -3.217858e-01 1.412496e-01 -1.575804e+00 -1.524006e+00 -2.266100e+00 -1.833842e+00 -3.323253e+00 -8.009759e-01 -4.830564e-01 1.488762e-01 3.577022e-01 4.065152e-01 3.954593e-01 3.633613e-01 3.262491e-01 2.899917e-01 2.569231e-01 2.272849e-01 2.009863e-01 1.773887e-01 1.560794e-01 1.364384e-01 1.181365e-01 1.007183e-01 8.399240e-02 6.765997e-02 5.164978e-02 3.578698e-02 2.009233e-02 4.484600e-03 -1.094849e-02 
-2.171680e-02 -3.704533e-02 -5.221545e-02 -6.704335e-02 -8.143907e-02 -9.520407e-02 -1.082236e-01 -1.203000e-01 -1.313086e-01 -1.410687e-01 -1.494613e-01 -1.563387e-01 -1.616028e-01 -1.651518e-01 -1.669219e-01 -1.668670e-01 -1.649678e-01 -1.612398e-01 -1.557157e-01 -1.484757e-01 -1.396106e-01 -1.292680e-01 -1.176039e-01 -1.048389e-01 -9.120572e-02 -7.700924e-02 -6.257728e-02 -4.831964e-02 -3.468597e-02 -2.222094e-02 -1.153094e-02 -3.333505e-03 1.568585e-03 2.243961e-03 -2.344649e-03 -1.337781e-02 -3.215457e-02 -6.012240e-02 -9.884644e-02 -1.500259e-01 -2.154587e-01 -2.970298e-01 -3.966807e-01 -5.163450e-01 -6.579400e-01 -8.232183e-01 -1.013801e+00 -1.230918e+00 -1.475499e+00 -1.747791e+00 -2.047517e+00 -2.373409e+00 -2.723426e+00 -3.094302e+00 -3.481821e+00 -3.880548e+00 -4.284164e+00 -4.685550e+00 -5.077162e+00 -5.451524e+00 -5.801540e+00 -6.121156e+00 -6.405451e+00 -6.650963e+00 -6.855540e+00 -7.017966e+00 -7.137725e+00 -7.214077e+00 -7.245884e+00 -7.230341e+00 -7.162885e+00 -7.035746e+00 -6.838321e+00 -6.556647e+00 -6.174897e+00 -5.677921e+00 -5.052654e+00 -4.294710e+00 -3.406320e+00 -2.403901e+00 -1.313102e+00 -1.666206e-01 9.995818e-01 2.173956e+00 3.366730e+00 4.657891e+00 6.225332e+00 8.383754e+00 1.085162e+01 9.138879e+00 2.309914e+00 -1.183843e+00 1.465510e+00 2.413009e+00 -1.074561e+00 -5.144976e+00 -3.589139e+00 -3.799297e+00 -4.409346e+00 -3.663171e+00 -4.000805e+00 -3.089804e+00 -4.462740e+00 -4.438474e+00 -2.902782e+00 -1.097007e+00 -1.795513e-01 1.517604e-01 2.638501e-01 2.907073e-01 2.843864e-01 2.659457e-01 2.438148e-01 2.216759e-01 2.006225e-01 1.811441e-01 1.629986e-01 1.460782e-01 1.299743e-01 1.145292e-01 9.940509e-02 8.450974e-02 6.960979e-02 5.469209e-02 3.961748e-02 2.444234e-02 9.105178e-03 -6.281707e-03 
-1.340924e-02 -2.893785e-02 -4.454472e-02 -6.001711e-02 -7.525666e-02 -9.003032e-02 -1.042087e-01 -1.175542e-01 -1.299219e-01 -1.410876e-01 -1.509087e-01 -1.591931e-01 -1.658185e-01 -1.706407e-01 -1.735734e-01 -1.745325e-01 -1.734793e-01 -1.703963e-01 -1.653003e-01 -1.582435e-01 -1.493035e-01 -1.386037e-01 -1.262890e-01 -1.125585e-01 -9.763576e-02 -8.180739e-02 -6.539518e-02 -4.879644e-02 -3.246209e-02 -1.693597e-02 -2.840322e-03 9.086912e-03 1.800178e-02 2.291793e-02 2.271791e-02 1.611527e-02 1.676230e-03 -2.222127e-02 -5.734761e-02 -1.056621e-01 -1.692525e-01 -2.503616e-01 -3.513147e-01 -4.745024e-01 -6.223178e-01 -7.970507e-01 -1.000864e+00 -1.235550e+00 -1.502573e+00 -1.802659e+00 -2.135913e+00 -2.501273e+00 -2.896698e+00 -3.318603e+00 -3.762117e+00 -4.220735e+00 -4.686660e+00 -5.150964e+00 -5.604019e+00 -6.036300e+00 -6.438773e+00 -6.804025e+00 -7.126315e+00 -7.402229e+00 -7.630320e+00 -7.810667e+00 -7.944435e+00 -8.032651e+00 -8.075986e+00 -8.073089e+00 -8.020297e+00 -7.909515e+00 -7.728070e+00 -7.457798e+00 -7.076418e+00 -6.561295e+00 -5.891546e+00 -5.057478e+00 -4.058863e+00 -2.915282e+00 -1.662466e+00 -3.505261e-01 9.588046e-01 2.234494e+00 3.471304e+00 4.747546e+00 6.344726e+00 9.647750e+00 1.778596e+01 2.426723e+00 2.527113e+00 3.391952e+00 -2.748931e+00 -1.460672e+01 -9.997217e+00 1.057329e-01 -4.837731e+00 -8.439351e-01 -1.373570e+00 7.602524e-01 -4.855718e-01 1.387749e+00 -6.893037e-02 2.209204e+00 -6.339745e-02 -5.611790e-02 8.967401e-02 1.735883e-01 2.115763e-01 2.225607e-01 2.198073e-01 2.105686e-01 1.985056e-01 1.856559e-01 1.726780e-01 1.600500e-01 1.476515e-01 1.355409e-01 1.234505e-01 1.113589e-01 9.902190e-02 8.643761e-02 7.342486e-02 6.002735e-02 4.613053e-02 3.182749e-02 1.706595e-02 1.985489e-03 
-4.002157e-04 -1.591261e-02 -3.179165e-02 -4.780745e-02 -6.384521e-02 -7.964697e-02 -9.505757e-02 -1.098072e-01 -1.237162e-01 -1.365238e-01 -1.480460e-01 -1.580531e-01 -1.663780e-01 -1.728422e-01 -1.773142e-01 -1.796806e-01 -1.798599e-01 -1.778114e-01 -1.735119e-01 -1.669954e-01 -1.583021e-01 -1.475403e-01 -1.348192e-01 -1.203236e-01 -1.042426e-01 -8.684852e-02 -6.843150e-02 -4.937636e-02 -3.010979e-02 -1.117032e-02 6.827677e-03 2.313419e-02 3.688354e-02 4.704475e-02 5.243166e-02 5.166103e-02 4.316281e-02 2.514326e-02 -4.394279e-03 -4.767924e-02 -1.071382e-01 -1.854037e-01 -2.852713e-01 -4.096538e-01 -5.615540e-01 -7.439092e-01 -9.596106e-01 -1.211174e+00 -1.500830e+00 -1.829975e+00 -2.199337e+00 -2.608224e+00 -3.054753e+00 -3.535035e+00 -4.043477e+00 -4.572210e+00 -5.111539e+00 -5.650042e+00 -6.175261e+00 -6.674758e+00 -7.136850e+00 -7.552212e+00 -7.914136e+00 -8.219377e+00 -8.467722e+00 -8.661203e+00 -8.803423e+00 -8.898075e+00 -8.948544e+00 -8.956211e+00 -8.919581e+00 -8.831270e+00 -8.677033e+00 -8.432971e+00 -8.068404e+00 -7.548548e+00 -6.841498e+00 -5.928914e+00 -4.805603e+00 -3.494806e+00 -2.042014e+00 -5.251877e-01 9.492858e-01 2.311072e+00 3.518591e+00 4.512831e+00 4.780974e+00 6.195886e+00 6.071888e+00 3.644667e-01 4.907812e+00 -1.130783e+01 -1.482359e+01 9.599716e+00 7.946972e+00 1.951327e+00 2.961956e+00 4.083764e+00 3.094160e+00 4.664493e+00 3.799703e+00 4.362783e+00 4.598872e+00 3.705552e+00 3.372660e+00 9.790218e-01 4.243477e-01 2.457669e-01 1.886924e-01 1.702015e-01 1.630098e-01 1.586948e-01 1.544489e-01 1.498228e-01 1.445107e-01 1.386999e-01 1.322403e-01 1.252549e-01 1.175762e-01 1.092728e-01 1.001860e-01 9.037653e-02 7.971637e-02 6.828509e-02 5.599567e-02 4.295987e-02 2.913791e-02 1.468063e-02 
1.878713e-02 3.467796e-03 -1.258557e-02 -2.911562e-02 -4.600360e-02 -6.295170e-02 -7.978860e-02 -9.619292e-02 -1.119581e-01 -1.267635e-01 -1.403913e-01 -1.525488e-01 -1.630326e-01 -1.716028e-01 -1.780935e-01 -1.823350e-01 -1.842154e-01 -1.836441e-01 -1.805719e-01 -1.749885e-01 -1.669106e-01 -1.564056e-01 -1.435587e-01 -1.285147e-01 -1.114365e-01 -9.255555e-02 -7.213384e-02 -5.051587e-02 -2.810230e-02 -5.398264e-03 1.699704e-02 3.834791e-02 5.777844e-02 7.423441e-02 8.647411e-02 9.302905e-02 9.220386e-02 8.202849e-02 6.028363e-02 2.444064e-02 -2.827645e-02 -1.009536e-01 -1.968922e-01 -3.196384e-01 -4.728814e-01 -6.603787e-01 -8.858908e-01 -1.152902e+00 -1.464634e+00 -1.823469e+00 -2.231048e+00 -2.687381e+00 -3.191007e+00 -3.737934e+00 -4.321855e+00 -4.933336e+00 -5.560225e+00 -6.187767e+00 -6.799442e+00 -7.378603e+00 -7.909562e+00 -8.380236e+00 -8.782514e+00 -9.113777e+00 -9.375957e+00 -9.574308e+00 -9.716118e+00 -9.808694e+00 -9.859264e+00 -9.873225e+00 -9.853055e+00 -9.793966e+00 -9.680800e+00 -9.483734e+00 -9.159403e+00 -8.656705e+00 -7.925572e+00 -6.934877e+00 -5.671586e+00 -4.157419e+00 -2.446130e+00 -6.496896e-01 1.050090e+00 2.502973e+00 3.748503e+00 4.945216e+00 2.146005e+00 1.413667e+01 1.028891e+01 4.666497e+00 -1.238368e+01 -1.104696e+01 5.877628e+00 8.988588e+00 3.018130e+00 2.945703e+00 5.033071e+00 4.686477e+00 5.758548e+00 3.060095e+00 4.558585e+00 1.976360e+00 3.547351e+00 -2.282393e+00 2.608344e+00 8.461588e-01 3.803300e-01 1.961705e-01 1.278295e-01 1.070602e-01 1.039169e-01 1.069533e-01 1.110802e-01 1.147705e-01 1.171837e-01 1.183446e-01 1.180779e-01 1.165654e-01 1.137066e-01 1.096505e-01 1.042944e-01 9.775709e-02 8.993840e-02 8.095220e-02 7.071609e-02 5.936104e-02 4.683870e-02 3.331402e-02 