# vtk DataFile Version 2.0
Comment goes here
ASCII

DATASET STRUCTURED_POINTS
DIMENSIONS    128   128   1

ORIGIN    0.000   0.000   0.000
SPACING   0.0156250.015625   1.000

POINT_DATA   16384
SCALARS Omega double
LOOKUP_TABLE default

-1.316535e-06 -1.056194e-06 -8.557639e-07 -6.790404e-07 -5.509487e-07 -4.337540e-07 -3.562353e-07 -2.799033e-07 -2.363165e-07 -1.870244e-07 -1.649199e-07 -1.325761e-07 -1.225893e-07 -9.975976e-08 -9.470447e-08 -7.583033e-08 -7.016127e-08 -5.118179e-08 -4.090368e-08 -1.935594e-08 -2.442414e-09 2.189944e-08 4.451362e-08 6.839000e-08 9.117327e-08 1.059127e-07 1.163951e-07 1.052560e-07 8.094920e-08 1.571869e-08 -7.967156e-08 -2.427550e-07 -4.636849e-07 -7.884826e-07 -1.212176e-06 -1.787246e-06 -2.517946e-06 -3.460405e-06 -4.632226e-06 -6.089530e-06 -7.866219e-06 -1.001378e-05 -1.258283e-05 -1.561438e-05 -1.917201e-05 -2.327883e-05 -2.800160e-05 -3.333611e-05 -3.933520e-05 -4.595575e-05 -5.321176e-05 -6.100817e-05 -6.928914e-05 -7.789523e-05 -8.666816e-05 -9.537614e-05 -1.037320e-04 -1.114339e-04 -1.180554e-04 -1.232431e-04 -1.264481e-04 -1.273050e-04 -1.251928e-04 -1.197967e-04 -1.105096e-04 -9.714850e-05 -7.923427e-05 -5.680625e-05 -2.964115e-05 1.915473e-06 3.771242e-05 7.704267e-05 1.193024e-04 1.634268e-04 2.083616e-04 2.527804e-04 2.953012e-04 3.345442e-04 3.690562e-04 3.976998e-04 4.192978e-04 4.332518e-04 4.389887e-04 4.366365e-04 4.264149e-04 4.091939e-04 3.859836e-04 3.582616e-04 3.276424e-04 2.959434e-04 2.649895e-04 2.364732e-04 2.118084e-04 1.919416e-04 1.772518e-04 1.675016e-04 1.618455e-04 1.589837e-04 1.572908e-04 1.550897e-04 1.508497e-04 1.434523e-04 1.323731e-04 1.177876e-04 1.005462e-04 8.194339e-05 6.342006e-05 4.623279e-05 3.126502e-05 1.896904e-05 9.409950e-06 2.389738e-06 -2.457435e-06 -5.544436e-06 -7.290066e-06 -8.053304e-06 -8.144631e-06 -7.793820e-06 -7.187666e-06 -6.444288e-06 -5.662337e-06 -4.886872e-06 -4.166499e-06 -3.504900e-06 -2.927323e-06 -2.416026e-06 -1.988384e-06 -1.616104e-06 
2.494201e-03 1.944213e-03 1.490386e-03 1.116979e-03 8.130197e-04 5.664051e-04 3.698499e-04 2.140903e-04 9.467036e-05 4.498202e-06 -5.880354e-05 -1.006737e-04 -1.220406e-04 -1.270711e-04 -1.157653e-04 -9.129795e-05 -5.317942e-05 -3.825013e-06 5.735046e-05 1.284451e-04 2.097476e-04 2.995469e-04 3.974038e-04 5.013443e-04 6.096963e-04 7.195984e-04 8.275494e-04 9.289952e-04 1.017925e-03 1.087139e-03 1.127402e-03 1.127851e-03 1.075378e-03 9.545463e-04 7.479597e-04 4.350403e-04 -5.838023e-06 -6.002839e-04 -1.373321e-03 -2.354412e-03 -3.570039e-03 -5.050883e-03 -6.821542e-03 -8.909522e-03 -1.133265e-02 -1.410908e-02 -1.724359e-02 -2.073737e-02 -2.457518e-02 -2.873325e-02 -3.316970e-02 -3.782913e-02 -4.263855e-02 -4.750758e-02 -5.233161e-02 -5.698729e-02 -6.134323e-02 -6.525156e-02 -6.856453e-02 -7.112425e-02 -7.278133e-02 -7.338620e-02 -7.280467e-02 -7.091466e-02 -6.761411e-02 -6.282643e-02 -5.649804e-02 -4.861473e-02 -3.918889e-02 -2.828609e-02 -1.600478e-02 -2.508657e-03 1.199776e-02 2.723953e-02 4.289745e-02 5.859290e-02 7.391476e-02 8.842887e-02 1.017035e-01 1.133446e-01 1.230124e-01 1.304692e-01 1.355760e-01 1.383316e-01 1.388474e-01 1.373668e-01 1.342355e-01 1.299099e-01 1.249338e-01 1.199315e-01 1.155584e-01 1.124503e-01 1.111212e-01 1.118999e-01 1.148376e-01 1.197131e-01 1.260184e-01 1.330413e-01 1.399135e-01 1.457125e-01 1.495286e-01 1.505786e-01 1.483332e-01 1.426654e-01 1.339398e-01 1.229503e-01 1.107028e-01 9.815722e-02 8.605034e-02 7.484520e-02 6.475635e-02 5.583032e-02 4.800757e-02 4.118684e-02 3.525035e-02 3.008949e-02 2.560503e-02 2.171379e-02 1.834267e-02 1.542989e-02 1.292042e-02 1.076610e-02 8.923543e-03 7.353773e-03 6.022017e-03 4.896480e-03 3.949654e-03 3.155933e-03 
4.946173e-03 3.846709e-03 2.939966e-03 2.193799e-03 1.586952e-03 1.094517e-03 7.027025e-04 3.922283e-04 1.550243e-04 -2.389843e-05 -1.484131e-04 -2.302363e-04 -2.703312e-04 -2.778730e-04 -2.519850e-04 -1.998226e-04 -1.195767e-04 -1.680750e-05 1.104087e-04 2.576495e-04 4.261421e-04 6.119812e-04 8.148115e-04 1.030346e-03 1.255617e-03 1.484698e-03 1.710799e-03 1.924715e-03 2.114455e-03 2.265579e-03 2.359452e-03 2.374295e-03 2.283519e-03 2.056095e-03 1.656632e-03 1.043622e-03 1.729834e-04 -1.007151e-03 -2.547885e-03 -4.509173e-03 -6.945238e-03 -9.918884e-03 -1.348070e-02 -1.768752e-02 -2.257639e-02 -2.818562e-02 -3.452598e-02 -4.160178e-02 -4.938313e-02 -5.782390e-02 -6.684002e-02 -7.632093e-02 -8.611908e-02 -9.605227e-02 -1.059082e-01 -1.154368e-01 -1.243709e-01 -1.324095e-01 -1.392518e-01 -1.445758e-01 -1.480772e-01 -1.494503e-01 -1.484218e-01 -1.447414e-01 -1.382009e-01 -1.286415e-01 -1.159524e-01 -1.000996e-01 -8.110421e-02 -5.909180e-02 -3.425598e-02 -6.920203e-03 2.250635e-02 5.347215e-02 8.532964e-02 1.173092e-01 1.485651e-01 1.782041e-01 2.053266e-01 2.291139e-01 2.488506e-01 2.640401e-01 2.743862e-01 2.798850e-01 2.807618e-01 2.775131e-01 2.708407e-01 2.616692e-01 2.511104e-01 2.404554e-01 2.310849e-01 2.243613e-01 2.214008e-01 2.229297e-01 2.290728e-01 2.393705e-01 2.527487e-01 2.677072e-01 2.824249e-01 2.949704e-01 3.034189e-01 3.060674e-01 3.017087e-01 2.899983e-01 2.717258e-01 2.486979e-01 2.231850e-01 1.972834e-01 1.725241e-01 1.498032e-01 1.294818e-01 1.115848e-01 9.594160e-02 8.231793e-02 7.046263e-02 6.015225e-02 5.118825e-02 4.340548e-02 3.666025e-02 3.083033e-02 2.580723e-02 2.149485e-02 1.780714e-02 1.466567e-02 1.200126e-02 9.749652e-03 7.856180e-03 6.268947e-03 
7.310602e-03 5.663288e-03 4.304585e-03 3.187152e-03 2.278218e-03 1.541452e-03 9.552743e-04 4.918906e-04 1.382654e-04 -1.269106e-04 -3.104183e-04 -4.286511e-04 -4.840420e-04 -4.891975e-04 -4.437665e-04 -3.573800e-04 -2.282129e-04 -6.358490e-05 1.386271e-04 3.727023e-04 6.398845e-04 9.350935e-04 1.257382e-03 1.600929e-03 1.961038e-03 2.329224e-03 2.695173e-03 3.045225e-03 3.361292e-03 3.621537e-03 3.797802e-03 3.856837e-03 3.758284e-03 3.454515e-03 2.891525e-03 2.005358e-03 7.283474e-04 -1.019704e-03 -3.317758e-03 -6.258903e-03 -9.927584e-03 -1.442189e-02 -1.982153e-02 -2.621615e-02 -3.366554e-02 -4.223163e-02 -5.193454e-02 -6.278450e-02 -7.473946e-02 -8.773223e-02 -1.016371e-01 -1.162872e-01 -1.314580e-01 -1.468711e-01 -1.622005e-01 -1.770614e-01 -1.910412e-01 -2.036750e-01 -2.144965e-01 -2.230072e-01 -2.287344e-01 -2.312043e-01 -2.299917e-01 -2.247077e-01 -2.150262e-01 -2.006977e-01 -1.815428e-01 -1.575000e-01 -1.285877e-01 -9.498406e-02 -5.696743e-02 -1.501739e-02 3.025577e-02 7.801436e-02 1.272683e-01 1.768215e-01 2.253521e-01 2.714409e-01 3.136553e-01 3.506701e-01 3.813318e-01 4.048268e-01 4.206771e-01 4.288689e-01 4.297579e-01 4.241167e-01 4.130220e-01 3.978888e-01 3.804321e-01 3.626949e-01 3.469329e-01 3.354377e-01 3.301345e-01 3.322990e-01 3.421838e-01 3.590418e-01 3.811048e-01 4.059102e-01 4.305112e-01 4.518071e-01 4.666542e-01 4.721357e-01 4.659987e-01 4.474062e-01 4.176871e-01 3.802233e-01 3.391898e-01 2.982129e-01 2.597028e-01 2.248814e-01 1.940834e-01 1.671582e-01 1.437175e-01 1.233341e-01 1.055957e-01 9.015675e-02 7.672005e-02 6.504360e-02 5.491694e-02 4.616151e-02 3.861669e-02 3.214028e-02 2.660298e-02 2.188766e-02 1.788945e-02 1.451219e-02 1.167264e-02 9.293364e-03 
9.535723e-03 7.343077e-03 5.535858e-03 4.049655e-03 2.842234e-03 1.863846e-03 1.087438e-03 4.745215e-04 9.604134e-06 -3.373027e-04 -5.732636e-04 -7.218261e-04 -7.842312e-04 -7.790160e-04 -7.037395e-04 -5.729110e-04 -3.822069e-04 -1.428899e-04 1.496274e-04 4.864670e-04 8.708598e-04 1.295089e-03 1.759222e-03 2.254868e-03 2.776787e-03 3.313290e-03 3.851251e-03 4.372210e-03 4.852168e-03 5.261696e-03 5.562714e-03 5.710241e-03 5.649114e-03 5.314513e-03 4.632084e-03 3.514200e-03 1.867130e-03 -4.198089e-04 -3.456682e-03 -7.373046e-03 -1.228754e-02 -1.833817e-02 -2.563828e-02 -3.431614e-02 -4.445893e-02 -5.615875e-02 -6.944916e-02 -8.435256e-02 -1.008172e-01 -1.187594e-01 -1.380113e-01 -1.583505e-01 -1.794707e-01 -2.009927e-01 -2.224669e-01 -2.433626e-01 -2.631067e-01 -2.810535e-01 -2.965528e-01 -3.089086e-01 -3.174612e-01 -3.215473e-01 -3.205730e-01 -3.139916e-01 -3.013457e-01 -2.822783e-01 -2.565303e-01 -2.239965e-01 -1.846803e-01 -1.387957e-01 -8.669307e-02 -2.899393e-02 3.349470e-02 9.964761e-02 1.681084e-01 2.372173e-01 3.051020e-01 3.697318e-01 4.290154e-01 4.810084e-01 5.239874e-01 5.567427e-01 5.785512e-01 5.893950e-01 5.897839e-01 5.808126e-01 5.639601e-01 5.411392e-01 5.146924e-01 4.875225e-01 4.630029e-01 4.447293e-01 4.358124e-01 4.383694e-01 4.528559e-01 4.781414e-01 5.115272e-01 5.492703e-01 5.870297e-01 6.203534e-01 6.446319e-01 6.552582e-01 6.481808e-01 6.213077e-01 5.766177e-01 5.203409e-01 4.599103e-01 4.011498e-01 3.473520e-01 2.997466e-01 2.582836e-01 2.223673e-01 1.912328e-01 1.641837e-01 1.406231e-01 1.200827e-01 1.021771e-01 8.659665e-02 7.307342e-02 6.137646e-02 5.129709e-02 4.264676e-02 3.525425e-02 2.896185e-02 2.362964e-02 1.912740e-02 1.534425e-02 1.217516e-02 
1.156899e-02 8.834619e-03 6.580903e-03 4.728900e-03 3.224452e-03 2.007285e-03 1.042277e-03 2.833906e-04 -2.901037e-04 -7.135822e-04 -9.973228e-04 -1.168688e-03 -1.230725e-03 -1.204614e-03 -1.088765e-03 -8.994290e-04 -6.325257e-04 -3.003661e-04 1.017006e-04 5.642038e-04 1.090418e-03 1.672144e-03 2.309047e-03 2.991842e-03 3.713841e-03 4.461282e-03 5.217756e-03 5.960518e-03 6.659441e-03 7.277314e-03 7.765924e-03 8.067566e-03 8.111731e-03 7.814496e-03 7.079921e-03 5.793747e-03 3.833873e-03 1.054993e-03 -2.687741e-03 -7.565744e-03 -1.373707e-02 -2.138623e-02 -3.066686e-02 -4.175335e-02 -5.476791e-02 -6.984044e-02 -8.702551e-02 -1.063643e-01 -1.278012e-01 -1.512395e-01 -1.764712e-01 -2.032168e-01 -2.310840e-01 -2.595838e-01 -2.881304e-01 -3.160308e-01 -3.425305e-01 -3.667793e-01 -3.879165e-01 -4.050221e-01 -4.172206e-01 -4.236342e-01 -4.234739e-01 -4.160155e-01 -4.006478e-01 -3.768914e-01 -3.443866e-01 -3.029705e-01 -2.526082e-01 -1.935315e-01 -1.261360e-01 -5.116746e-02 3.039038e-02 1.171215e-01 2.072891e-01 2.987085e-01 3.888747e-01 4.749985e-01 5.541721e-01 6.236264e-01 6.809006e-01 7.242342e-01 7.526010e-01 7.659836e-01 7.651275e-01 7.515361e-01 7.271266e-01 6.942676e-01 6.558648e-01 6.157496e-01 5.787801e-01 5.504899e-01 5.358662e-01 5.383666e-01 5.587733e-01 5.953381e-01 6.440593e-01 6.993030e-01 7.549438e-01 8.051195e-01 8.436333e-01 8.635656e-01 8.576674e-01 8.204417e-01 7.543429e-01 6.715231e-01 5.855058e-01 5.052370e-01 4.344701e-01 3.736362e-01 3.216277e-01 2.769993e-01 2.384212e-01 2.048703e-01 1.755682e-01 1.499481e-01 1.275609e-01 1.080491e-01 9.109846e-02 7.643357e-02 6.379879e-02 5.296128e-02 4.370530e-02 3.583305e-02 2.916632e-02 2.354160e-02 1.881733e-02 1.486236e-02 
1.334091e-02 1.006950e-02 7.375199e-03 5.161462e-03 3.365847e-03 1.914197e-03 7.674099e-04 -1.318476e-04 -8.051234e-04 -1.297295e-03 -1.617234e-03 -1.800479e-03 -1.847202e-03 -1.785648e-03 -1.610481e-03 -1.343952e-03 -9.778587e-04 -5.294370e-04 1.002505e-05 6.271648e-04 1.328799e-03 2.103663e-03 2.953906e-03 3.867523e-03 4.838572e-03 5.850099e-03 6.883814e-03 7.912117e-03 8.899284e-03 9.800029e-03 1.055556e-02 1.109507e-02 1.133117e-02 1.115988e-02 1.046095e-02 9.091429e-03 6.896800e-03 3.693432e-03 -7.037788e-04 -6.513932e-03 -1.394138e-02 -2.322539e-02 -3.456796e-02 -4.820022e-02 -6.428805e-02 -8.301137e-02 -1.044539e-01 -1.286877e-01 -1.556590e-01 -1.852676e-01 -2.172656e-01 -2.513197e-01 -2.869438e-01 -3.235323e-01 -3.603456e-01 -3.965083e-01 -4.310572e-01 -4.629062e-01 -4.909497e-01 -5.140053e-01 -5.309468e-01 -5.406439e-01 -5.420840e-01 -5.343341e-01 -5.166094e-01 -4.882842e-01 -4.488835e-01 -3.981632e-01 -3.360309e-01 -2.627050e-01 -1.785955e-01 -8.453281e-02 1.835420e-02 1.283841e-01 2.434306e-01 3.607441e-01 4.770710e-01 5.887039e-01 6.916609e-01 7.820870e-01 8.564692e-01 9.122939e-01 9.480847e-01 9.638845e-01 9.608123e-01 9.409859e-01 9.068239e-01 8.610046e-01 8.066899e-01 7.485372e-01 6.933764e-01 6.498584e-01 6.260583e-01 6.277324e-01 6.560507e-01 7.080994e-01 7.781619e-01 8.573278e-01 9.370969e-01 1.010632e+00 1.070620e+00 1.107314e+00 1.108195e+00 1.058070e+00 9.581321e-01 8.348222e-01 7.137670e-01 6.076420e-01 5.188672e-01 4.452524e-01 3.835149e-01 3.308687e-01 2.852917e-01 2.454613e-01 2.104902e-01 1.797780e-01 1.528604e-01 1.293591e-01 1.089298e-01 9.125650e-02 7.603958e-02 6.299816e-02 5.187167e-02 4.241754e-02 3.441935e-02 2.767624e-02 2.201723e-02 1.728170e-02 
1.478252e-02 1.098004e-02 7.848112e-03 5.276715e-03 3.191471e-03 1.509021e-03 1.823050e-04 -8.522481e-04 -1.621361e-03 -2.174127e-03 -2.522684e-03 -2.705392e-03 -2.724376e-03 -2.609678e-03 -2.356991e-03 -1.989534e-03 -1.499453e-03 -9.042553e-04 -1.950917e-04 6.149330e-04 1.533001e-03 2.548314e-03 3.663194e-03 4.865734e-03 6.149287e-03 7.495715e-03 8.884129e-03 1.028316e-02 1.165123e-02 1.293502e-02 1.406493e-02 1.495587e-02 1.550288e-02 1.557934e-02 1.503887e-02 1.370559e-02 1.138904e-02 7.861109e-03 2.890625e-03 -3.797466e-03 -1.246228e-02 -2.340828e-02 -3.689698e-02 -5.322851e-02 -7.262562e-02 -9.533150e-02 -1.214726e-01 -1.511642e-01 -1.843658e-01 -2.209817e-01 -2.607296e-01 -3.032220e-01 -3.478739e-01 -3.939500e-01 -4.405373e-01 -4.865505e-01 -5.307827e-01 -5.718709e-01 -6.084191e-01 -6.389358e-01 -6.619963e-01 -6.761765e-01 -6.801995e-01 -6.728955e-01 -6.532773e-01 -6.205574e-01 -5.741229e-01 -5.136336e-01 -4.389090e-01 -3.501224e-01 -2.476461e-01 -1.323409e-01 -5.414418e-03 1.312330e-01 2.751157e-01 4.228737e-01 5.704026e-01 7.128341e-01 8.448035e-01 9.609238e-01 1.056217e+00 1.127018e+00 1.171249e+00 1.189080e+00 1.182376e+00 1.154297e+00 1.107977e+00 1.046037e+00 9.710113e-01 8.876297e-01 8.053361e-01 7.381363e-01 6.993792e-01 6.990095e-01 7.385240e-01 8.120754e-01 9.128865e-01 1.024898e+00 1.136175e+00 1.240863e+00 1.332591e+00 1.398946e+00 1.422072e+00 1.357762e+00 1.197120e+00 1.007064e+00 8.375881e-01 7.023793e-01 5.969850e-01 5.130144e-01 4.435310e-01 3.840912e-01 3.321161e-01 2.862093e-01 2.455607e-01 2.096594e-01 1.780930e-01 1.504969e-01 1.265068e-01 1.057696e-01 8.793567e-02 7.267353e-02 5.967016e-02 4.863666e-02 3.931231e-02 3.145944e-02 2.487306e-02 1.936526e-02 
1.579558e-02 1.146901e-02 7.907493e-03 4.983371e-03 2.615925e-03 7.078254e-04 -7.897172e-04 -1.952013e-03 -2.804256e-03 -3.405928e-03 -3.765432e-03 -3.930578e-03 -3.898358e-03 -3.707382e-03 -3.347410e-03 -2.849186e-03 -2.198584e-03 -1.419349e-03 -4.964245e-04 5.522783e-04 1.739661e-03 3.051439e-03 4.494604e-03 6.054585e-03 7.727552e-03 9.492533e-03 1.132848e-02 1.319947e-02 1.505930e-02 1.684629e-02 1.847994e-02 1.986044e-02 2.086359e-02 2.133889e-02 2.111042e-02 1.996654e-02 1.767536e-02 1.395899e-02 8.532467e-03 1.056132e-03 -8.793997e-03 -2.140019e-02 -3.709587e-02 -5.626686e-02 -7.920689e-02 -1.062423e-01 -1.375568e-01 -1.733296e-01 -2.135450e-01 -2.581295e-01 -3.067710e-01 -3.590357e-01 -4.142312e-01 -4.714841e-01 -5.296818e-01 -5.874984e-01 -6.434385e-01 -6.958105e-01 -7.428696e-01 -7.827517e-01 -8.136756e-01 -8.338634e-01 -8.417315e-01 -8.358313e-01 -8.149539e-01 -7.781281e-01 -7.245972e-01 -6.539079e-01 -5.657738e-01 -4.602819e-01 -3.377086e-01 -1.988582e-01 -4.491363e-02 1.221165e-01 2.994698e-01 4.832056e-01 6.682695e-01 8.484037e-01 1.016401e+00 1.164773e+00 1.286324e+00 1.375651e+00 1.429643e+00 1.448788e+00 1.436318e+00 1.397492e+00 1.336778e+00 1.256206e+00 1.155445e+00 1.036825e+00 9.127751e-01 8.078781e-01 7.440891e-01 7.402157e-01 7.972251e-01 8.994031e-01 1.047702e+00 1.204996e+00 1.354329e+00 1.497169e+00 1.633829e+00 1.748358e+00 1.838559e+00 1.769024e+00 1.480139e+00 1.172367e+00 9.398164e-01 7.789124e-01 6.642584e-01 5.757901e-01 5.020027e-01 4.373714e-01 3.795188e-01 3.275249e-01 2.809861e-01 2.396436e-01 2.032110e-01 1.713560e-01 1.436957e-01 1.198277e-01 9.934344e-02 8.184782e-02 6.696999e-02 5.436575e-02 4.372891e-02 3.477916e-02 2.727923e-02 2.100962e-02 
1.628719e-02 1.144442e-02 7.456034e-03 4.182938e-03 1.533276e-03 -5.973441e-04 -2.264922e-03 -3.549090e-03 -4.479717e-03 -5.118947e-03 -5.478243e-03 -5.607049e-03 -5.504350e-03 -5.209637e-03 -4.713854e-03 -4.047920e-03 -3.198141e-03 -2.187688e-03 -1.001193e-03 3.447390e-04 1.863961e-03 3.543984e-03 5.393020e-03 7.398169e-03 9.556303e-03 1.184689e-02 1.424776e-02 1.672053e-02 1.921412e-02 2.165925e-02 2.396438e-02 2.601414e-02 2.766434e-02 2.873781e-02 2.902680e-02 2.827874e-02 2.621559e-02 2.250169e-02 1.679012e-02 8.665380e-03 -2.273727e-03 -1.650212e-02 -3.444193e-02 -5.658312e-02 -8.331112e-02 -1.150566e-01 -1.520831e-01 -1.946553e-01 -2.428033e-01 -2.964927e-01 -3.553939e-01 -4.190323e-01 -4.866041e-01 -5.570828e-01 -6.291279e-01 -7.011313e-01 -7.712535e-01 -8.374075e-01 -8.974246e-01 -9.489898e-01 -9.898883e-01 -1.017923e+00 -1.031145e+00 -1.027795e+00 -1.006416e+00 -9.658522e-01 -9.051992e-01 -8.238949e-01 -7.215298e-01 -5.980674e-01 -4.536110e-01 -2.887876e-01 -1.045930e-01 9.704409e-02 3.132702e-01 5.396671e-01 7.702179e-01 9.969891e-01 1.210407e+00 1.399960e+00 1.555177e+00 1.667756e+00 1.732878e+00 1.751424e+00 1.729335e+00 1.676159e+00 1.599740e+00 1.500993e+00 1.371934e+00 1.204688e+00 1.013376e+00 8.476418e-01 7.396371e-01 7.310702e-01 8.220546e-01 9.524822e-01 1.186112e+00 1.406317e+00 1.593122e+00 1.774741e+00 1.973424e+00 2.139490e+00 2.433601e+00 2.418955e+00 1.800086e+00 1.278834e+00 9.854653e-01 8.228823e-01 7.177374e-01 6.349564e-01 5.611746e-01 4.925675e-01 4.287147e-01 3.700764e-01 3.170541e-01 2.697871e-01 2.281406e-01 1.918014e-01 1.603370e-01 1.332708e-01 1.101099e-01 9.038206e-02 7.364356e-02 5.949045e-02 4.756249e-02 3.753750e-02 2.914042e-02 2.212378e-02 
1.611741e-02 1.076625e-02 6.359202e-03 2.740694e-03 -1.841960e-04 -2.533191e-03 -4.360598e-03 -5.757947e-03 -6.750226e-03 -7.410964e-03 -7.744726e-03 -7.812106e-03 -7.604003e-03 -7.170607e-03 -6.494154e-03 -5.615274e-03 -4.511315e-03 -3.213552e-03 -1.697671e-03 1.368854e-05 1.942999e-03 4.073888e-03 6.422338e-03 8.973216e-03 1.172941e-02 1.466860e-02 1.777143e-02 2.099613e-02 2.428924e-02 2.757365e-02 3.074758e-02 3.367979e-02 3.620493e-02 3.811780e-02 3.917528e-02 3.908035e-02 3.750239e-02 3.404099e-02 2.827754e-02 1.970892e-02 7.843129e-03 -7.905131e-03 -2.806441e-02 -5.325319e-02 -8.397018e-02 -1.207811e-01 -1.640529e-01 -2.141704e-01 -2.712313e-01 -3.352725e-01 -4.059606e-01 -4.827995e-01 -5.648684e-01 -6.509812e-01 -7.395338e-01 -8.285915e-01 -9.158999e-01 -9.988927e-01 -1.074880e+00 -1.140989e+00 -1.194474e+00 -1.232624e+00 -1.253065e+00 -1.253675e+00 -1.232741e+00 -1.188928e+00 -1.121216e+00 -1.028958e+00 -9.116384e-01 -7.690776e-01 -6.011277e-01 -4.080914e-01 -1.905398e-01 4.998182e-02 3.108771e-01 5.875559e-01 8.731876e-01 1.158017e+00 1.429463e+00 1.672838e+00 1.872597e+00 2.015624e+00 2.093650e+00 2.107778e+00 2.068544e+00 1.994572e+00 1.902517e+00 1.793997e+00 1.644001e+00 1.412722e+00 1.102474e+00 8.414837e-01 6.467784e-01 6.338079e-01 8.198072e-01 9.148932e-01 1.351721e+00 1.655687e+00 1.852580e+00 2.051887e+00 2.363541e+00 2.422113e+00 3.359419e+00 3.697956e+00 2.044781e+00 1.176639e+00 9.177460e-01 8.251287e-01 7.629679e-01 6.976805e-01 6.262804e-01 5.527626e-01 4.812391e-01 4.144535e-01 3.538396e-01 2.999103e-01 2.525998e-01 2.115236e-01 1.761335e-01 1.458257e-01 1.199922e-01 9.805841e-02 7.949690e-02 6.383236e-02 5.064947e-02 3.957812e-02 3.030890e-02 2.256211e-02 
1.516237e-02 9.309641e-03 4.482752e-03 5.185505e-04 -2.686827e-03 -5.254690e-03 -7.244848e-03 -8.750328e-03 -9.799710e-03 -1.046710e-02 -1.075968e-02 -1.073827e-02 -1.039582e-02 -9.782509e-03 -8.882098e-03 -7.734681e-03 -6.318365e-03 -4.663005e-03 -2.743919e-03 -5.811727e-04 1.849399e-03 4.535092e-03 7.494690e-03 1.071722e-02 1.420862e-02 1.794988e-02 2.192327e-02 2.608733e-02 3.038620e-02 3.473699e-02 3.902801e-02 4.311227e-02 4.680280e-02 4.986409e-02 5.201514e-02 5.290915e-02 5.215701e-02 4.928440e-02 4.379025e-02 3.506991e-02 2.252373e-02 5.436396e-03 -1.685097e-02 -4.511136e-02 -7.998779e-02 -1.222129e-01 -1.722941e-01 -2.307712e-01 -2.978474e-01 -3.736632e-01 -4.579095e-01 -5.500871e-01 -6.491627e-01 -7.537773e-01 -8.620270e-01 -9.715903e-01 -1.079711e+00 -1.183234e+00 -1.278820e+00 -1.362905e+00 -1.432082e+00 -1.483018e+00 -1.512827e+00 -1.518993e+00 -1.499543e+00 -1.453005e+00 -1.378303e+00 -1.274781e+00 -1.141872e+00 -9.792569e-01 -7.864773e-01 -5.633172e-01 -3.096185e-01 -2.606446e-02 2.855709e-01 6.211212e-01 9.733982e-01 1.330865e+00 1.677360e+00 1.992412e+00 2.252837e+00 2.437167e+00 2.530320e+00 2.531904e+00 2.459691e+00 2.350148e+00 2.242816e+00 2.150569e+00 2.019896e+00 1.719932e+00 1.159068e+00 7.819990e-01 3.822257e-01 3.602026e-01 1.027286e+00 8.703962e-01 9.129621e-01 1.620823e+00 1.490673e+00 1.083795e+00 1.117191e+00 6.578385e-01 1.751644e+00 2.026932e+00 4.948630e-01 4.883497e-01 7.037025e-01 8.148606e-01 8.273698e-01 7.807552e-01 7.060228e-01 6.219096e-01 5.385592e-01 4.609339e-01 3.911031e-01 3.295935e-01 2.761381e-01 2.301088e-01 1.907252e-01 1.571909e-01 1.287374e-01 1.046665e-01 8.434975e-02 6.723683e-02 5.284973e-02 4.077378e-02 3.066076e-02 2.220506e-02 
1.322430e-02 6.873470e-03 1.629867e-03 -2.683026e-03 -6.166760e-03 -8.954213e-03 -1.109838e-02 -1.270393e-02 -1.378985e-02 -1.444286e-02 -1.465899e-02 -1.451265e-02 -1.398498e-02 -1.314001e-02 -1.194947e-02 -1.046647e-02 -8.657002e-03 -6.561837e-03 -4.144080e-03 -1.431603e-03 1.612036e-03 4.969864e-03 8.672658e-03 1.270827e-02 1.709341e-02 2.180950e-02 2.684660e-02 3.216259e-02 3.770366e-02 4.338136e-02 4.907658e-02 5.462682e-02 5.982362e-02 6.440014e-02 6.803466e-02 7.032675e-02 7.082229e-02 6.896459e-02 6.415895e-02 5.568425e-02 4.281624e-02 2.468616e-02 4.809677e-04 -3.076057e-02 -6.985724e-02 -1.177536e-01 -1.751353e-01 -2.427521e-01 -3.209529e-01 -4.100386e-01 -5.097578e-01 -6.196502e-01 -7.385778e-01 -8.650125e-01 -9.967082e-01 -1.130895e+00 -1.264204e+00 -1.392752e+00 -1.512384e+00 -1.618656e+00 -1.707330e+00 -1.774284e+00 -1.816030e+00 -1.829595e+00 -1.812780e+00 -1.764045e+00 -1.682388e+00 -1.567287e+00 -1.418261e+00 -1.234940e+00 -1.016536e+00 -7.621607e-01 -4.705284e-01 -1.408381e-01 2.268718e-01 6.299031e-01 1.061767e+00 1.509783e+00 1.954024e+00 2.366570e+00 2.712920e+00 2.957500e+00 3.071155e+00 3.046416e+00 2.908812e+00 2.726860e+00 2.593979e+00 2.574188e+00 2.595081e+00 2.317546e+00 1.051561e+00 8.465366e-01 1.788083e+00 1.049416e+00 -3.752994e-01 -1.198812e-01 -6.003055e-01 -2.073354e+00 -2.610436e+00 -3.327173e+00 -3.698355e+00 -3.903664e+00 -4.095925e+00 -4.104263e+00 -2.570011e+00 -3.169197e-01 6.154432e-01 9.233945e-01 9.687388e-01 9.076678e-01 8.088410e-01 7.021958e-01 6.004677e-01 5.085348e-01 4.277378e-01 3.578334e-01 2.979202e-01 2.468811e-01 2.035728e-01 1.669308e-01 1.359899e-01 1.099058e-01 8.794280e-02 6.946885e-02 5.394714e-02 4.091577e-02 2.999510e-02 2.085104e-02 
1.014187e-02 3.290532e-03 -2.383141e-03 -7.056719e-03 -1.083645e-02 -1.385342e-02 -1.616308e-02 -1.786754e-02 -1.898755e-02 -1.960765e-02 -1.972586e-02 -1.941526e-02 -1.865941e-02 -1.752159e-02 -1.597607e-02 -1.407503e-02 -1.178628e-02 -9.148546e-03 -6.125055e-03 -2.739689e-03 1.046319e-03 5.222237e-03 9.823770e-03 1.484675e-02 2.031459e-02 2.621685e-02 3.254995e-02 3.927732e-02 4.634764e-02 5.367126e-02 6.112282e-02 6.852652e-02 7.565274e-02 8.220268e-02 8.781173e-02 9.202145e-02 9.430609e-02 9.401727e-02 9.045359e-02 8.276166e-02 7.007097e-02 5.133518e-02 2.555482e-02 -8.454190e-03 -5.173072e-02 -1.054777e-01 -1.706156e-01 -2.481610e-01 -3.386725e-01 -4.426726e-01 -5.600255e-01 -6.903583e-01 -8.324546e-01 -9.846210e-01 -1.144229e+00 -1.307980e+00 -1.471757e+00 -1.630765e+00 -1.779806e+00 -1.913313e+00 -2.025973e+00 -2.112682e+00 -2.169216e+00 -2.192110e+00 -2.178983e+00 -2.128381e+00 -2.039580e+00 -1.912428e+00 -1.746785e+00 -1.542406e+00 -1.298289e+00 -1.012714e+00 -6.828960e-01 -3.056607e-01 1.219470e-01 6.004518e-01 1.125940e+00 1.686238e+00 2.258348e+00 2.805595e+00 3.277666e+00 3.615983e+00 3.763879e+00 3.691933e+00 3.425364e+00 3.080493e+00 2.861845e+00 2.992186e+00 3.513652e+00 4.010408e+00 -5.313077e-01 -3.792923e+00 -2.175789e+00 -2.089865e+00 -2.973867e+00 -5.201120e+00 -5.539345e+00 -5.726589e+00 -5.648190e+00 -5.180276e+00 -5.223947e+00 -4.585062e+00 -5.581395e+00 -5.201612e+00 -2.147303e+00 3.915075e-01 1.180031e+00 1.319021e+00 1.237086e+00 1.090000e+00 9.345993e-01 7.905892e-01 6.637688e-01 5.546191e-01 4.617322e-01 3.831469e-01 3.168605e-01 2.610477e-01 2.140900e-01 1.746076e-01 1.414135e-01 1.135132e-01 9.005956e-02 7.034593e-02 5.377648e-02 3.985173e-02 2.815983e-02 1.834884e-02 
5.637650e-03 -1.726717e-03 -7.843205e-03 -1.289695e-02 -1.698364e-02 -2.024268e-02 -2.271527e-02 -2.451445e-02 -2.564477e-02 -2.620513e-02 -2.617679e-02 -2.565014e-02 -2.459233e-02 -2.308547e-02 -2.108803e-02 -1.867044e-02 -1.578502e-02 -1.248588e-02 -8.720490e-03 -4.523287e-03 1.610561e-04 5.317111e-03 1.099804e-02 1.720055e-02 2.396560e-02 3.128739e-02 3.917785e-02 4.760531e-02 5.652836e-02 6.585727e-02 7.546573e-02 8.516608e-02 9.471026e-02 1.037675e-01 1.119295e-01 1.186765e-01 1.234057e-01 1.253679e-01 1.237435e-01 1.175295e-01 1.056896e-01 8.697091e-02 6.015748e-02 2.379851e-02 -2.340855e-02 -8.298748e-02 -1.561524e-01 -2.442693e-01 -3.481786e-01 -4.687205e-01 -6.059483e-01 -7.596646e-01 -9.286197e-01 -1.110990e+00 -1.303731e+00 -1.502937e+00 -1.703573e+00 -1.899699e+00 -2.084770e+00 -2.251741e+00 -2.393897e+00 -2.504845e+00 -2.579453e+00 -2.613697e+00 -2.605128e+00 -2.552591e+00 -2.455974e+00 -2.315889e+00 -2.132932e+00 -1.907382e+00 -1.638284e+00 -1.323186e+00 -9.574496e-01 -5.346389e-01 -4.705977e-02 5.115338e-01 1.143101e+00 1.839343e+00 2.577133e+00 3.311541e+00 3.972877e+00 4.467745e+00 4.689693e+00 4.553263e+00 4.049372e+00 3.337204e+00 2.812127e+00 3.055906e+00 4.720950e+00 -2.526121e-01 -4.343230e+00 -3.107873e+00 -4.243630e+00 -8.536767e+00 -7.396028e+00 -4.279910e+00 -3.421700e+00 -1.313033e+00 -5.031018e-01 4.107610e-01 5.928958e-01 1.297671e+00 1.122597e+00 1.977934e+00 3.019061e+00 2.979844e+00 2.428721e+00 1.963071e+00 1.593046e+00 1.299681e+00 1.065090e+00 8.755778e-01 7.211781e-01 5.945174e-01 4.900422e-01 4.035060e-01 3.315787e-01 2.716413e-01 2.215787e-01 1.796951e-01 1.445946e-01 1.151432e-01 9.039874e-02 6.958798e-02 5.207082e-02 3.731455e-02 2.488844e-02 1.442325e-02 
-4.942836e-04 -8.399519e-03 -1.499962e-02 -2.047087e-02 -2.490678e-02 -2.843715e-02 -3.110084e-02 -3.300259e-02 -3.414604e-02 -3.462431e-02 -3.442007e-02 -3.362074e-02 -3.219714e-02 -3.023049e-02 -2.768421e-02 -2.462827e-02 -2.101953e-02 -1.691009e-02 -1.224945e-02 -7.066706e-03 -1.304277e-03 5.032056e-03 1.200289e-02 1.961865e-02 2.793225e-02 3.695387e-02 4.670942e-02 5.718191e-02 6.834119e-02 8.010548e-02 9.235027e-02 1.048817e-01 1.174355e-01 1.296514e-01 1.410767e-01 1.511285e-01 1.591206e-01 1.641955e-01 1.654009e-01 1.615681e-01 1.514694e-01 1.336182e-01 1.065412e-01 6.847804e-02 1.780261e-02 -4.739347e-02 -1.287006e-01 -2.279228e-01 -3.462869e-01 -4.850613e-01 -6.446017e-01 -8.249967e-01 -1.025047e+00 -1.242854e+00 -1.474939e+00 -1.716700e+00 -1.961976e+00 -2.203370e+00 -2.432571e+00 -2.640570e+00 -2.818772e+00 -2.959093e+00 -3.055251e+00 -3.102637e+00 -3.098896e+00 -3.043537e+00 -2.937534e+00 -2.782806e+00 -2.581317e+00 -2.334436e+00 -2.041916e+00 -1.700897e+00 -1.304939e+00 -8.433358e-01 -3.016310e-01 3.358343e-01 1.081734e+00 1.937681e+00 2.886428e+00 3.879643e+00 4.828154e+00 5.593738e+00 5.988213e+00 5.808769e+00 4.915921e+00 3.436705e+00 2.006047e+00 1.921244e+00 -3.864166e+00 -8.315974e+00 -3.799044e+00 -9.091854e+00 -1.072740e+01 -1.668679e+00 1.206386e+00 2.877456e+00 4.343269e+00 5.683577e+00 5.336770e+00 5.909545e+00 5.916595e+00 5.908174e+00 6.322238e+00 6.920574e+00 8.254471e+00 5.720361e+00 3.625789e+00 2.540356e+00 1.896190e+00 1.470727e+00 1.167447e+00 9.398512e-01 7.630982e-01 6.226660e-01 5.093133e-01 4.168192e-01 3.407286e-01 2.777707e-01 2.254293e-01 1.817631e-01 1.452150e-01 1.145503e-01 8.875608e-02 6.701700e-02 4.866040e-02 3.313806e-02 2.000481e-02 8.889495e-03 
-8.642576e-03 -1.713807e-02 -2.426902e-02 -3.021037e-02 -3.503329e-02 -3.887077e-02 -4.173691e-02 -4.374615e-02 -4.487690e-02 -4.523919e-02 -4.479167e-02 -4.364492e-02 -4.174799e-02 -3.920891e-02 -3.597151e-02 -3.213252e-02 -2.763044e-02 -2.253991e-02 -1.679164e-02 -1.042970e-02 -3.375538e-03 4.359756e-03 1.286083e-02 2.214255e-02 3.228459e-02 4.330909e-02 5.526906e-02 6.816241e-02 8.198181e-02 9.665633e-02 1.120729e-01 1.280352e-01 1.442694e-01 1.603885e-01 1.758982e-01 1.901511e-01 2.023753e-01 2.115968e-01 2.167208e-01 2.163951e-01 2.091800e-01 1.933232e-01 1.670592e-01 1.282655e-01 7.493628e-02 4.697391e-03 -8.450340e-02 -1.950266e-01 -3.286068e-01 -4.870986e-01 -6.713096e-01 -8.817906e-01 -1.117528e+00 -1.376674e+00 -1.655335e+00 -1.948145e+00 -2.247585e+00 -2.544390e+00 -2.827914e+00 -3.086469e+00 -3.308879e+00 -3.484727e+00 -3.606254e+00 -3.668189e+00 -3.668600e+00 -3.608177e+00 -3.489714e+00 -3.317198e+00 -3.094775e+00 -2.825832e+00 -2.511781e+00 -2.150422e+00 -1.734105e+00 -1.247522e+00 -6.672751e-01 3.604421e-02 8.928149e-01 1.923619e+00 3.128714e+00 4.468312e+00 5.845774e+00 7.078356e+00 7.872622e+00 7.811898e+00 6.429454e+00 3.517622e+00 -1.683582e-01 -3.745992e+00 -6.055807e+00 -4.714636e+00 -1.336858e+01 -9.951639e+00 1.889309e+00 7.093525e+00 7.497720e+00 7.815728e+00 7.815513e+00 6.608463e+00 6.622306e+00 5.395760e+00 5.356403e+00 4.452625e+00 4.449225e+00 4.481302e+00 7.845008e+00 5.889471e+00 3.846763e+00 2.705731e+00 2.005239e+00 1.540185e+00 1.211438e+00 9.679075e-01 7.811265e-01 6.342826e-01 5.167062e-01 4.213294e-01 3.431775e-01 2.786682e-01 2.250912e-01 1.803863e-01 1.429213e-01 1.114153e-01 8.482724e-02 6.232497e-02 4.322883e-02 2.698666e-02 1.315779e-02 1.372757e-03 