# vtk DataFile Version 2.0
Comment goes here
ASCII

DATASET STRUCTURED_POINTS
DIMENSIONS    128   128   1

ORIGIN    0.000   0.000   0.000
SPACING   0.0156250.015625   1.000

POINT_DATA   16384
SCALARS Omega double
LOOKUP_TABLE default

-6.198172e-06 -4.129888e-06 -2.543299e-06 -1.534693e-06 -1.042619e-06 -1.144257e-06 -1.752965e-06 -2.928638e-06 -4.570828e-06 -6.723588e-06 -9.283267e-06 -1.227952e-05 -1.561470e-05 -1.930600e-05 -2.326907e-05 -2.751156e-05 -3.196750e-05 -3.663911e-05 -4.148140e-05 -4.649657e-05 -5.166083e-05 -5.698270e-05 -6.245760e-05 -6.810713e-05 -7.394246e-05 -8.000460e-05 -8.631659e-05 -9.294388e-05 -9.991841e-05 -1.073331e-04 -1.152282e-04 -1.237244e-04 -1.328740e-04 -1.428221e-04 -1.536416e-04 -1.654962e-04 -1.784919e-04 -1.928018e-04 -2.085805e-04 -2.259982e-04 -2.452720e-04 -2.665547e-04 -2.901314e-04 -3.161197e-04 -3.448649e-04 -3.764276e-04 -4.111838e-04 -4.491117e-04 -4.905657e-04 -5.354117e-04 -5.839083e-04 -6.357782e-04 -6.910979e-04 -7.494192e-04 -8.105513e-04 -8.738587e-04 -9.388162e-04 -1.004603e-03 -1.070326e-03 -1.135009e-03 -1.197397e-03 -1.256418e-03 -1.310515e-03 -1.358612e-03 -1.398951e-03 -1.430584e-03 -1.451698e-03 -1.461629e-03 -1.458694e-03 -1.442680e-03 -1.412236e-03 -1.367748e-03 -1.308389e-03 -1.235213e-03 -1.148069e-03 -1.048632e-03 -9.375097e-04 -8.168259e-04 -6.879653e-04 -5.532689e-04 -4.148905e-04 -2.752009e-04 -1.371009e-04 -2.892746e-06 1.239117e-04 2.412258e-04 3.454074e-04 4.350067e-04 5.071908e-04 5.617873e-04 5.977689e-04 6.165354e-04 6.190954e-04 6.078650e-04 5.850785e-04 5.532262e-04 5.147524e-04 4.716873e-04 4.260827e-04 3.793672e-04 3.329612e-04 2.877339e-04 2.445177e-04 2.037567e-04 1.659114e-04 1.311655e-04 9.980905e-05 7.186362e-05 4.747570e-05 2.653165e-05 9.000280e-06 -5.335022e-06 -1.666018e-05 -2.524718e-05 -3.137407e-05 -3.532787e-05 -3.741733e-05 -3.791967e-05 -3.713007e-05 -3.530333e-05 -3.269386e-05 -2.952855e-05 -2.600650e-05 -2.232514e-05 -1.862248e-05 -1.506718e-05 -1.173674e-05 -8.773035e-06 
-2.929677e-03 -4.699820e-03 -6.341053e-03 -7.848470e-03 -9.220012e-03 -1.044887e-02 -1.153151e-02 -1.246176e-02 -1.323672e-02 -1.385248e-02 -1.430818e-02 -1.460324e-02 -1.473982e-02 -1.472133e-02 -1.455360e-02 -1.424447e-02 -1.380399e-02 -1.324475e-02 -1.258145e-02 -1.183180e-02 -1.101561e-02 -1.015611e-02 -9.278786e-03 -8.412878e-03 -7.590198e-03 -6.846658e-03 -6.221076e-03 -5.756709e-03 -5.500024e-03 -5.502179e-03 -5.817679e-03 -6.505742e-03 -7.628761e-03 -9.253426e-03 -1.144897e-02 -1.428778e-02 -1.784358e-02 -2.219106e-02 -2.740434e-02 -3.355512e-02 -4.071177e-02 -4.893554e-02 -5.828089e-02 -6.878914e-02 -8.049089e-02 -9.339684e-02 -1.075028e-01 -1.227779e-01 -1.391729e-01 -1.566064e-01 -1.749759e-01 -1.941443e-01 -2.139525e-01 -2.342080e-01 -2.546979e-01 -2.751812e-01 -2.953998e-01 -3.150764e-01 -3.339212e-01 -3.516348e-01 -3.679090e-01 -3.824355e-01 -3.948983e-01 -4.049885e-01 -4.123878e-01 -4.167933e-01 -4.178885e-01 -4.153865e-01 -4.089842e-01 -3.984354e-01 -3.834816e-01 -3.639647e-01 -3.397305e-01 -3.107814e-01 -2.771552e-01 -2.390985e-01 -1.969386e-01 -1.512358e-01 -1.026821e-01 -5.217558e-02 -7.861819e-04 5.029227e-02 9.969794e-02 1.460731e-01 1.879904e-01 2.242066e-01 2.536471e-01 2.756651e-01 2.901051e-01 2.974439e-01 2.987914e-01 2.957687e-01 2.902885e-01 2.841961e-01 2.789814e-01 2.755484e-01 2.741521e-01 2.744181e-01 2.754422e-01 2.760021e-01 2.747417e-01 2.704013e-01 2.620218e-01 2.491553e-01 2.320075e-01 2.114537e-01 1.888148e-01 1.655692e-01 1.429991e-01 1.220657e-01 1.033118e-01 8.696297e-02 7.297550e-02 6.116773e-02 5.126600e-02 4.298507e-02 3.603907e-02 3.017986e-02 2.518582e-02 2.088081e-02 1.711464e-02 1.377590e-02 1.077110e-02 8.036390e-03 5.517960e-03 3.183708e-03 1.005784e-03 -1.028085e-03 
-5.952570e-03 -9.475374e-03 -1.274389e-02 -1.574766e-02 -1.848223e-02 -2.093338e-02 -2.309395e-02 -2.495093e-02 -2.649859e-02 -2.772843e-02 -2.863888e-02 -2.922804e-02 -2.950044e-02 -2.946207e-02 -2.912492e-02 -2.850378e-02 -2.761908e-02 -2.649509e-02 -2.516158e-02 -2.365297e-02 -2.200933e-02 -2.027599e-02 -1.850445e-02 -1.675201e-02 -1.508285e-02 -1.356757e-02 -1.228444e-02 -1.131873e-02 -1.076414e-02 -1.072181e-02 -1.130164e-02 -1.262110e-02 -1.480607e-02 -1.798929e-02 -2.231053e-02 -2.791445e-02 -3.495005e-02 -4.356728e-02 -5.391620e-02 -6.614152e-02 -8.038213e-02 -9.676258e-02 -1.153942e-01 -1.363624e-01 -1.597307e-01 -1.855238e-01 -2.137355e-01 -2.443076e-01 -2.771427e-01 -3.120812e-01 -3.489182e-01 -3.873817e-01 -4.271518e-01 -4.678447e-01 -5.090310e-01 -5.502287e-01 -5.909171e-01 -6.305408e-01 -6.685155e-01 -7.042419e-01 -7.371007e-01 -7.664757e-01 -7.917339e-01 -8.122593e-01 -8.274156e-01 -8.365979e-01 -8.391721e-01 -8.345615e-01 -8.221539e-01 -8.014456e-01 -7.719050e-01 -7.331942e-01 -6.849820e-01 -6.272413e-01 -5.600216e-01 -4.837802e-01 -3.991534e-01 -3.072297e-01 -2.093954e-01 -1.074285e-01 -3.500970e-03 9.999058e-02 2.002527e-01 2.945080e-01 3.797875e-01 4.534630e-01 5.132426e-01 5.576519e-01 5.863051e-01 6.001063e-01 6.014202e-01 5.937211e-01 5.811753e-01 5.677965e-01 5.567527e-01 5.499259e-01 5.477784e-01 5.494344e-01 5.528769e-01 5.554451e-01 5.542078e-01 5.464343e-01 5.300068e-01 5.038991e-01 4.685381e-01 4.259010e-01 3.789700e-01 3.310224e-01 2.848015e-01 2.422717e-01 2.044626e-01 1.717280e-01 1.438842e-01 1.204868e-01 1.009347e-01 8.462105e-02 7.095739e-02 5.943775e-02 4.961885e-02 4.114885e-02 3.373197e-02 2.714814e-02 2.121495e-02 1.580718e-02 1.082056e-02 6.192642e-03 1.869881e-03 -2.171096e-03 
-9.191483e-03 -1.442137e-02 -1.927978e-02 -2.374937e-02 -2.782270e-02 -3.147740e-02 -3.470200e-02 -3.747633e-02 -3.979094e-02 -4.163262e-02 -4.299801e-02 -4.388397e-02 -4.429606e-02 -4.424315e-02 -4.374172e-02 -4.281397e-02 -4.148883e-02 -3.980282e-02 -3.779870e-02 -3.552828e-02 -3.304955e-02 -3.043080e-02 -2.774698e-02 -2.508445e-02 -2.253706e-02 -2.021124e-02 -1.822200e-02 -1.669799e-02 -1.577755e-02 -1.561349e-02 -1.636890e-02 -1.822160e-02 -2.135942e-02 -2.598384e-02 -3.230467e-02 -4.054223e-02 -5.092166e-02 -6.367240e-02 -7.902295e-02 -9.719610e-02 -1.184055e-01 -1.428448e-01 -1.706878e-01 -2.020704e-01 -2.370958e-01 -2.758084e-01 -3.182070e-01 -3.642102e-01 -4.136788e-01 -4.663766e-01 -5.220001e-01 -5.801403e-01 -6.403177e-01 -7.019508e-01 -7.643917e-01 -8.269076e-01 -8.887115e-01 -9.489584e-01 -1.006766e+00 -1.061226e+00 -1.111406e+00 -1.156375e+00 -1.195186e+00 -1.226912e+00 -1.250603e+00 -1.265347e+00 -1.270193e+00 -1.264261e+00 -1.246619e+00 -1.216478e+00 -1.173004e+00 -1.115635e+00 -1.043811e+00 -9.574229e-01 -8.564643e-01 -7.415618e-01 -6.135911e-01 -4.741622e-01 -3.253033e-01 -1.697141e-01 -1.065689e-02 1.481726e-01 3.024837e-01 4.479108e-01 5.797373e-01 6.936776e-01 7.858550e-01 8.536634e-01 8.961684e-01 9.146892e-01 9.130191e-01 8.970710e-01 8.740150e-01 8.507774e-01 8.326238e-01 8.224949e-01 8.209834e-01 8.264295e-01 8.352207e-01 8.428336e-01 8.443040e-01 8.350130e-01 8.112352e-01 7.710156e-01 7.149977e-01 6.467795e-01 5.718578e-01 4.960376e-01 4.238980e-01 3.584406e-01 3.010156e-01 2.518751e-01 2.104778e-01 1.759567e-01 1.472696e-01 1.234284e-01 1.035040e-01 8.672466e-02 7.241971e-02 6.007015e-02 4.923813e-02 3.960551e-02 3.090528e-02 2.295925e-02 1.561576e-02 8.787779e-03 2.397939e-03 -3.584584e-03 
-1.267855e-02 -1.955901e-02 -2.596261e-02 -3.186353e-02 -3.725031e-02 -4.209087e-02 -4.636894e-02 -5.005546e-02 -5.313715e-02 -5.559418e-02 -5.742153e-02 -5.861265e-02 -5.917452e-02 -5.911646e-02 -5.846010e-02 -5.723238e-02 -5.547162e-02 -5.322369e-02 -5.054543e-02 -4.750292e-02 -4.417340e-02 -4.064478e-02 -3.701693e-02 -3.340174e-02 -2.992445e-02 -2.672365e-02 -2.395306e-02 -2.178112e-02 -2.039304e-02 -1.999003e-02 -2.079106e-02 -2.303168e-02 -2.696494e-02 -3.285955e-02 -4.099939e-02 -5.168053e-02 -6.520917e-02 -8.189640e-02 -1.020551e-01 -1.259908e-01 -1.539989e-01 -1.863491e-01 -2.232861e-01 -2.650048e-01 -3.116572e-01 -3.633178e-01 -4.199983e-01 -4.816049e-01 -5.479626e-01 -6.187673e-01 -6.936191e-01 -7.719773e-01 -8.531987e-01 -9.365044e-01 -1.021018e+00 -1.105750e+00 -1.189632e+00 -1.271522e+00 -1.350222e+00 -1.424507e+00 -1.493117e+00 -1.554806e+00 -1.608304e+00 -1.652376e+00 -1.685756e+00 -1.707229e+00 -1.715524e+00 -1.709452e+00 -1.687742e+00 -1.649293e+00 -1.592922e+00 -1.517782e+00 -1.423010e+00 -1.308324e+00 -1.173574e+00 -1.019448e+00 -8.469994e-01 -6.582597e-01 -4.559022e-01 -2.434831e-01 -2.544775e-02 1.932117e-01 4.065093e-01 6.083489e-01 7.919135e-01 9.508172e-01 1.079051e+00 1.172157e+00 1.228204e+00 1.248583e+00 1.238917e+00 1.208450e+00 1.168842e+00 1.131405e+00 1.104110e+00 1.090919e+00 1.092493e+00 1.105882e+00 1.124975e+00 1.142718e+00 1.151456e+00 1.144045e+00 1.114347e+00 1.058661e+00 9.776169e-01 8.775048e-01 7.681256e-01 6.592206e-01 5.577311e-01 4.675795e-01 3.900161e-01 3.247343e-01 2.704711e-01 2.256799e-01 1.887306e-01 1.581682e-01 1.326943e-01 1.112583e-01 9.297264e-02 7.715906e-02 6.325441e-02 5.085242e-02 3.961519e-02 2.931890e-02 1.977389e-02 1.087322e-02 2.521527e-03 -5.316507e-03 
-1.649520e-02 -2.493917e-02 -3.281657e-02 -4.009095e-02 -4.674563e-02 -5.273764e-02 -5.804451e-02 -6.262782e-02 -6.646861e-02 -6.954037e-02 -7.183412e-02 -7.334022e-02 -7.406420e-02 -7.401651e-02 -7.322050e-02 -7.170885e-02 -6.952535e-02 -6.672649e-02 -6.337876e-02 -5.956407e-02 -5.537402e-02 -5.091787e-02 -4.631521e-02 -4.170538e-02 -3.723952e-02 -3.309059e-02 -2.944544e-02 -2.651483e-02 -2.452562e-02 -2.373044e-02 -2.439968e-02 -2.683044e-02 -3.133790e-02 -3.826294e-02 -4.796250e-02 -6.081480e-02 -7.720897e-02 -9.754587e-02 -1.222281e-01 -1.516538e-01 -1.862093e-01 -2.262521e-01 -2.721101e-01 -3.240504e-01 -3.822882e-01 -4.469406e-01 -5.180480e-01 -5.955139e-01 -6.791409e-01 -7.685613e-01 -8.632876e-01 -9.626431e-01 -1.065823e+00 -1.171836e+00 -1.279572e+00 -1.387764e+00 -1.495048e+00 -1.599959e+00 -1.700972e+00 -1.796522e+00 -1.885018e+00 -1.964882e+00 -2.034527e+00 -2.092405e+00 -2.136949e+00 -2.166639e+00 -2.179892e+00 -2.175196e+00 -2.150933e+00 -2.105638e+00 -2.037734e+00 -1.945996e+00 -1.829163e+00 -1.686655e+00 -1.518043e+00 -1.323974e+00 -1.105523e+00 -8.651203e-01 -6.059541e-01 -3.325131e-01 -5.035256e-02 2.340782e-01 5.130645e-01 7.785051e-01 1.021161e+00 1.231954e+00 1.401845e+00 1.523511e+00 1.592873e+00 1.610899e+00 1.585184e+00 1.529858e+00 1.463720e+00 1.405419e+00 1.366432e+00 1.350737e+00 1.359554e+00 1.387803e+00 1.424884e+00 1.460611e+00 1.483694e+00 1.483839e+00 1.451186e+00 1.378341e+00 1.264852e+00 1.121820e+00 9.672986e-01 8.174567e-01 6.820931e-01 5.654105e-01 4.676233e-01 3.870748e-01 3.212253e-01 2.675348e-01 2.236081e-01 1.874630e-01 1.574037e-01 1.321190e-01 1.105151e-01 9.178436e-02 7.525301e-02 6.045070e-02 4.697929e-02 3.458580e-02 2.304900e-02 1.225252e-02 2.086644e-03 -7.482056e-03 
-2.055653e-02 -3.047613e-02 -3.975861e-02 -4.835428e-02 -5.624008e-02 -6.335950e-02 -6.968346e-02 -7.516111e-02 -7.976791e-02 -8.346725e-02 -8.624663e-02 -8.808943e-02 -8.900059e-02 -8.898735e-02 -8.807605e-02 -8.630041e-02 -8.371126e-02 -8.037072e-02 -7.635684e-02 -7.176197e-02 -6.669429e-02 -6.127868e-02 -5.565691e-02 -4.998974e-02 -4.445688e-02 -3.925946e-02 -3.462042e-02 -3.078674e-02 -2.803028e-02 -2.664949e-02 -2.697013e-02 -2.934642e-02 -3.416046e-02 -4.182278e-02 -5.276941e-02 -6.746101e-02 -8.637721e-02 -1.100126e-01 -1.388690e-01 -1.734455e-01 -2.142308e-01 -2.616834e-01 -3.162278e-01 -3.782205e-01 -4.479552e-01 -5.256113e-01 -6.112731e-01 -7.048612e-01 -8.061683e-01 -9.147800e-01 -1.030126e+00 -1.151404e+00 -1.277640e+00 -1.407632e+00 -1.540011e+00 -1.673223e+00 -1.805576e+00 -1.935264e+00 -2.060393e+00 -2.179042e+00 -2.289256e+00 -2.389120e+00 -2.476716e+00 -2.550195e+00 -2.607689e+00 -2.647396e+00 -2.667430e+00 -2.665967e+00 -2.641026e+00 -2.590756e+00 -2.513116e+00 -2.406418e+00 -2.268869e+00 -2.099438e+00 -1.897244e+00 -1.662692e+00 -1.396750e+00 -1.102051e+00 -7.822877e-01 -4.427289e-01 -9.017689e-02 2.675855e-01 6.208704e-01 9.595821e-01 1.271588e+00 1.544494e+00 1.765013e+00 1.921063e+00 2.004602e+00 2.014488e+00 1.960386e+00 1.863151e+00 1.753706e+00 1.664913e+00 1.612150e+00 1.594265e+00 1.617035e+00 1.671651e+00 1.737766e+00 1.802899e+00 1.850607e+00 1.867537e+00 1.838360e+00 1.747321e+00 1.588628e+00 1.382908e+00 1.165820e+00 9.641257e-01 7.900063e-01 6.459195e-01 5.291525e-01 4.354342e-01 3.602564e-01 2.997529e-01 2.506523e-01 2.104213e-01 1.770020e-01 1.488572e-01 1.247360e-01 1.037330e-01 8.510002e-02 6.832367e-02 5.296880e-02 3.876573e-02 2.547575e-02 1.298031e-02 1.163522e-03 -1.000177e-02 
-2.485587e-02 -3.612959e-02 -4.671773e-02 -5.655519e-02 -6.561074e-02 -7.381334e-02 -8.112500e-02 -8.748227e-02 -9.285203e-02 -9.718785e-02 -1.004699e-01 -1.026754e-01 -1.038040e-01 -1.038610e-01 -1.028702e-01 -1.008681e-01 -9.790631e-02 -9.405463e-02 -8.939581e-02 -8.403494e-02 -7.808926e-02 -7.170187e-02 -6.502863e-02 -5.825448e-02 -5.157927e-02 -4.523523e-02 -3.947290e-02 -3.457870e-02 -3.086141e-02 -2.866912e-02 -2.837603e-02 -3.039823e-02 -3.518001e-02 -4.320782e-02 -5.499530e-02 -7.109400e-02 -9.207710e-02 -1.185442e-01 -1.511050e-01 -1.903741e-01 -2.369578e-01 -2.914329e-01 -3.543423e-01 -4.261519e-01 -5.072599e-01 -5.979291e-01 -6.983152e-01 -8.083739e-01 -9.279125e-01 -1.056479e+00 -1.193438e+00 -1.337854e+00 -1.488587e+00 -1.644200e+00 -1.803054e+00 -1.963262e+00 -2.122778e+00 -2.279400e+00 -2.430840e+00 -2.574771e+00 -2.708857e+00 -2.830819e+00 -2.938414e+00 -3.029493e+00 -3.101923e+00 -3.153633e+00 -3.182480e+00 -3.186330e+00 -3.162864e+00 -3.109788e+00 -3.024563e+00 -2.904893e+00 -2.748320e+00 -2.553147e+00 -2.317813e+00 -2.042281e+00 -1.727141e+00 -1.375167e+00 -9.903270e-01 -5.787973e-01 -1.484376e-01 2.914441e-01 7.294122e-01 1.153256e+00 1.547989e+00 1.897243e+00 2.182016e+00 2.382691e+00 2.483524e+00 2.478229e+00 2.377125e+00 2.209414e+00 2.026421e+00 1.894033e+00 1.831222e+00 1.807542e+00 1.855335e+00 1.957915e+00 2.066628e+00 2.177843e+00 2.263627e+00 2.311923e+00 2.300905e+00 2.195348e+00 1.968435e+00 1.661836e+00 1.353758e+00 1.086599e+00 8.704473e-01 7.008616e-01 5.688615e-01 4.659312e-01 3.849244e-01 3.205034e-01 2.685353e-01 2.260467e-01 1.907033e-01 1.608406e-01 1.351089e-01 1.125675e-01 9.242643e-02 7.416616e-02 5.733184e-02 4.165887e-02 2.690007e-02 1.294746e-02 -3.163311e-04 -1.290487e-02 
-2.914241e-02 -4.165866e-02 -5.346695e-02 -6.448339e-02 -7.466793e-02 -8.393117e-02 -9.222634e-02 -9.947281e-02 -1.056295e-01 -1.106348e-01 -1.144627e-01 -1.170782e-01 -1.184771e-01 -1.186563e-01 -1.176392e-01 -1.154577e-01 -1.121669e-01 -1.078368e-01 -1.025576e-01 -9.643928e-02 -8.961140e-02 -8.222686e-02 -7.445903e-02 -6.650824e-02 -5.859800e-02 -5.098263e-02 -4.394388e-02 -3.779872e-02 -3.289674e-02 -2.962749e-02 -2.841805e-02 -2.973984e-02 -3.410476e-02 -4.207145e-02 -5.423817e-02 -7.124784e-02 -9.377639e-02 -1.225346e-01 -1.582522e-01 -2.016723e-01 -2.535343e-01 -3.145545e-01 -3.854131e-01 -4.667139e-01 -5.589825e-01 -6.625984e-01 -7.778133e-01 -9.046530e-01 -1.042961e+00 -1.192279e+00 -1.351915e+00 -1.520821e+00 -1.697684e+00 -1.880824e+00 -2.068301e+00 -2.257866e+00 -2.447057e+00 -2.633232e+00 -2.813633e+00 -2.985482e+00 -3.145998e+00 -3.292521e+00 -3.422457e+00 -3.533379e+00 -3.622912e+00 -3.688774e+00 -3.728615e+00 -3.740053e+00 -3.720454e+00 -3.667099e+00 -3.576886e+00 -3.446821e+00 -3.273584e+00 -3.054579e+00 -2.787269e+00 -2.470838e+00 -2.105248e+00 -1.693094e+00 -1.238599e+00 -7.486142e-01 -2.323109e-01 2.998060e-01 8.343633e-01 1.357796e+00 1.852347e+00 2.297995e+00 2.668362e+00 2.932144e+00 3.059311e+00 3.031716e+00 2.857680e+00 2.571042e+00 2.252382e+00 2.061223e+00 2.022139e+00 1.962556e+00 2.055102e+00 2.255386e+00 2.411641e+00 2.596803e+00 2.733098e+00 2.833800e+00 2.875179e+00 2.779163e+00 2.438755e+00 1.949445e+00 1.505983e+00 1.161760e+00 9.072635e-01 7.203195e-01 5.810879e-01 4.754661e-01 3.935948e-01 3.289476e-01 2.768626e-01 2.341800e-01 1.984907e-01 1.681307e-01 1.417529e-01 1.184420e-01 9.741800e-02 7.818453e-02 6.029488e-02 4.350440e-02 2.757259e-02 1.241003e-02 -2.094032e-03 -1.593472e-02 
-3.326804e-02 -4.687874e-02 -5.978660e-02 -7.188799e-02 -8.313155e-02 -9.340950e-02 -1.026629e-01 -1.107946e-01 -1.177509e-01 -1.234564e-01 -1.278728e-01 -1.309546e-01 -1.326870e-01 -1.330603e-01 -1.320895e-01 -1.298047e-01 -1.262555e-01 -1.215148e-01 -1.156708e-01 -1.088418e-01 -1.011588e-01 -9.278825e-02 -8.390967e-02 -7.474232e-02 -6.552167e-02 -5.652749e-02 -4.806100e-02 -4.047305e-02 -3.414283e-02 -2.950500e-02 -2.702983e-02 -2.724856e-02 -3.073394e-02 -3.812296e-02 -5.009636e-02 -6.739734e-02 -9.080902e-02 -1.211662e-01 -1.593315e-01 -2.061947e-01 -2.626509e-01 -3.295797e-01 -4.078319e-01 -4.981782e-01 -6.013136e-01 -7.177673e-01 -8.479333e-01 -9.919384e-01 -1.149706e+00 -1.320791e+00 -1.504476e+00 -1.699597e+00 -1.904671e+00 -2.117743e+00 -2.336538e+00 -2.558375e+00 -2.780316e+00 -2.999179e+00 -3.211664e+00 -3.414450e+00 -3.604262e+00 -3.778002e+00 -3.932735e+00 -4.065763e+00 -4.174540e+00 -4.256636e+00 -4.309610e+00 -4.330895e+00 -4.317653e+00 -4.266726e+00 -4.174468e+00 -4.037007e+00 -3.850011e+00 -3.609616e+00 -3.311961e+00 -2.955052e+00 -2.537782e+00 -2.062437e+00 -1.533158e+00 -9.577944e-01 -3.466235e-01 2.882373e-01 9.321166e-01 1.570652e+00 2.185255e+00 2.753620e+00 3.242210e+00 3.602184e+00 3.776985e+00 3.723499e+00 3.446820e+00 2.964332e+00 2.355660e+00 2.085240e+00 2.245918e+00 1.981424e+00 2.167510e+00 2.618201e+00 2.750294e+00 3.087298e+00 3.261634e+00 3.437957e+00 3.609951e+00 3.626822e+00 3.071733e+00 2.199013e+00 1.564545e+00 1.151187e+00 8.797751e-01 6.943207e-01 5.613349e-01 4.621185e-01 3.854559e-01 3.247312e-01 2.754328e-01 2.346704e-01 2.002131e-01 1.705777e-01 1.445161e-01 1.212161e-01 9.994828e-02 8.027753e-02 6.178370e-02 4.426207e-02 2.748781e-02 1.140076e-02 -4.098586e-03 -1.898141e-02 
-3.676639e-02 -5.134359e-02 -6.525650e-02 -7.837747e-02 -9.064473e-02 -1.019268e-01 -1.121539e-01 -1.212056e-01 -1.290175e-01 -1.354922e-01 -1.405816e-01 -1.442207e-01 -1.463865e-01 -1.470535e-01 -1.462311e-01 -1.439379e-01 -1.402214e-01 -1.351472e-01 -1.288058e-01 -1.213123e-01 -1.128043e-01 -1.034497e-01 -9.343922e-02 -8.299882e-02 -7.238025e-02 -6.187646e-02 -5.181205e-02 -4.255958e-02 -3.453156e-02 -2.819642e-02 -2.407151e-02 -2.273870e-02 -2.483621e-02 -3.107401e-02 -4.222161e-02 -5.912298e-02 -8.267753e-02 -1.138527e-01 -1.536571e-01 -2.031460e-01 -2.633893e-01 -3.354603e-01 -4.204064e-01 -5.192079e-01 -6.327627e-01 -7.618026e-01 -9.069034e-01 -1.068351e+00 -1.246188e+00 -1.440036e+00 -1.649179e+00 -1.872370e+00 -2.107952e+00 -2.353692e+00 -2.606924e+00 -2.864480e+00 -3.122834e+00 -3.378170e+00 -3.626493e+00 -3.863837e+00 -4.086302e+00 -4.290300e+00 -4.472503e+00 -4.629988e+00 -4.760096e+00 -4.860386e+00 -4.928455e+00 -4.961735e+00 -4.957299e+00 -4.911687e+00 -4.820691e+00 -4.679527e+00 -4.482576e+00 -4.224388e+00 -3.899248e+00 -3.503423e+00 -3.034227e+00 -2.493112e+00 -1.884141e+00 -1.215986e+00 -5.008051e-01 2.478154e-01 1.013306e+00 1.782588e+00 2.538600e+00 3.262917e+00 3.918529e+00 4.435068e+00 4.703692e+00 4.625608e+00 4.234873e+00 3.478928e+00 2.122343e+00 1.692750e+00 2.912899e+00 1.567593e+00 2.041551e+00 3.324703e+00 2.910083e+00 3.766324e+00 3.814871e+00 4.073787e+00 4.529358e+00 5.072866e+00 4.039595e+00 2.217534e+00 1.407936e+00 1.003289e+00 7.703611e-01 6.186490e-01 5.099368e-01 4.273958e-01 3.620957e-01 3.092051e-01 2.653539e-01 2.284167e-01 1.966300e-01 1.688386e-01 1.439956e-01 1.214451e-01 1.005522e-01 8.096587e-02 6.231377e-02 4.444255e-02 2.715346e-02 1.042193e-02 -5.835609e-03 -2.156213e-02 
-3.929495e-02 -5.466985e-02 -6.945183e-02 -8.349081e-02 -9.671112e-02 -1.089595e-01 -1.201504e-01 -1.301424e-01 -1.388534e-01 -1.461668e-01 -1.520159e-01 -1.563191e-01 -1.590355e-01 -1.601266e-01 -1.595856e-01 -1.574227e-01 -1.536715e-01 -1.483946e-01 -1.416711e-01 -1.336182e-01 -1.243655e-01 -1.140875e-01 -1.029707e-01 -9.125240e-02 -7.918510e-02 -6.707850e-02 -5.526507e-02 -4.414187e-02 -3.413981e-02 -2.576342e-02 -1.956409e-02 -1.617679e-02 -1.629584e-02 -2.070807e-02 -3.026838e-02 -4.592844e-02 -6.870939e-02 -9.972334e-02 -1.401424e-01 -1.912068e-01 -2.541932e-01 -3.303981e-01 -4.211137e-01 -5.275708e-01 -6.509343e-01 -7.921889e-01 -9.521682e-01 -1.131371e+00 -1.330035e+00 -1.547892e+00 -1.784286e+00 -2.037897e+00 -2.306911e+00 -2.588765e+00 -2.880357e+00 -3.177906e+00 -3.477178e+00 -3.773531e+00 -4.062128e+00 -4.338154e+00 -4.596970e+00 -4.834379e+00 -5.046656e+00 -5.230668e+00 -5.383784e+00 -5.503701e+00 -5.588302e+00 -5.635219e+00 -5.641720e+00 -5.604163e+00 -5.517962e+00 -5.377252e+00 -5.175003e+00 -4.903559e+00 -4.554800e+00 -4.122406e+00 -3.601342e+00 -2.991869e+00 -2.297493e+00 -1.528535e+00 -6.993446e-01 1.732758e-01 1.070697e+00 1.981662e+00 2.896188e+00 3.810451e+00 4.702623e+00 5.486895e+00 5.953050e+00 5.826375e+00 5.383158e+00 4.589708e+00 9.619984e-01 -3.891043e-01 4.251536e+00 3.803556e+00 7.223367e-01 3.901171e+00 3.046091e+00 2.926154e+00 2.865656e+00 2.216727e+00 3.367667e+00 3.136991e+00 3.134503e+00 1.230103e+00 8.541989e-01 6.894543e-01 5.846364e-01 5.030938e-01 4.346046e-01 3.765051e-01 3.268554e-01 2.844972e-01 2.479742e-01 2.162861e-01 1.882987e-01 1.632825e-01 1.404406e-01 1.193117e-01 9.937617e-02 8.038571e-02 6.202657e-02 4.420579e-02 2.675677e-02 9.694313e-03 -7.045677e-03 -2.337721e-02 
-4.011908e-02 -5.615169e-02 -7.170544e-02 -8.660244e-02 -1.007565e-01 -1.139853e-01 -1.261905e-01 -1.372005e-01 -1.469188e-01 -1.551980e-01 -1.619565e-01 -1.670836e-01 -1.705241e-01 -1.722136e-01 -1.721333e-01 -1.702716e-01 -1.666535e-01 -1.613242e-01 -1.543577e-01 -1.458586e-01 -1.359547e-01 -1.248120e-01 -1.126189e-01 -9.960798e-02 -8.603783e-02 -7.221869e-02 -5.849474e-02 -4.527141e-02 -3.300063e-02 -2.220779e-02 -1.348014e-02 -7.492975e-03 -4.998626e-03 -6.852645e-03 -1.399866e-02 -2.749544e-02 -4.849243e-02 -7.825678e-02 -1.181361e-01 -1.695804e-01 -2.340936e-01 -3.132378e-01 -4.085821e-01 -5.216702e-01 -6.539809e-01 -8.068336e-01 -9.813812e-01 -1.178432e+00 -1.398490e+00 -1.641492e+00 -1.906905e+00 -2.193407e+00 -2.499038e+00 -2.820914e+00 -3.155418e+00 -3.498057e+00 -3.843694e+00 -4.186657e+00 -4.520968e+00 -4.840737e+00 -5.140301e+00 -5.414728e+00 -5.659782e+00 -5.872208e+00 -6.049530e+00 -6.189862e+00 -6.291676e+00 -6.353186e+00 -6.372179e+00 -6.345203e+00 -6.267446e+00 -6.132101e+00 -5.930392e+00 -5.652045e+00 -5.285540e+00 -4.820970e+00 -4.249783e+00 -3.570051e+00 -2.784554e+00 -1.905293e+00 -9.509311e-01 5.675206e-02 1.093089e+00 2.148646e+00 3.222897e+00 4.346019e+00 5.554796e+00 6.819885e+00 7.754075e+00 7.328109e+00 6.882091e+00 7.963104e+00 6.727413e+00 6.631618e+00 2.020569e-01 2.423349e+00 2.605199e+00 -3.721874e-01 9.027396e-02 -1.593051e+00 -1.548887e+00 -2.274215e+00 -1.852232e+00 -3.374592e+00 -9.062341e-01 -5.470617e-01 1.010199e-01 3.228231e-01 3.815408e-01 3.779084e-01 3.513444e-01 3.182978e-01 2.849663e-01 2.539107e-01 2.255544e-01 1.999378e-01 1.765326e-01 1.550109e-01 1.348278e-01 1.157154e-01 9.727553e-02 7.936636e-02 6.173660e-02 4.435758e-02 2.709534e-02 1.000739e-02 -6.952798e-03 -2.366704e-02 
-3.865017e-02 -5.515193e-02 -7.132837e-02 -8.697950e-02 -1.020035e-01 -1.161941e-01 -1.294329e-01 -1.415224e-01 -1.523420e-01 -1.617179e-01 -1.695414e-01 -1.756770e-01 -1.800415e-01 -1.825491e-01 -1.831538e-01 -1.818276e-01 -1.785702e-01 -1.734157e-01 -1.664158e-01 -1.576684e-01 -1.472817e-01 -1.354193e-01 -1.222522e-01 -1.080140e-01 -9.294940e-02 -7.737283e-02 -6.162026e-02 -4.610705e-02 -3.128680e-02 -1.770533e-02 -5.968344e-03 3.210169e-03 9.033102e-03 1.057751e-02 6.817050e-03 -3.415602e-03 -2.140320e-02 -4.857553e-02 -8.647636e-02 -1.367836e-01 -2.012695e-01 -2.817954e-01 -3.802741e-01 -4.986155e-01 -6.387069e-01 -8.022788e-01 -9.909239e-01 -1.205853e+00 -1.447971e+00 -1.717512e+00 -2.014182e+00 -2.336708e+00 -2.683041e+00 -3.049924e+00 -3.433156e+00 -3.827331e+00 -4.226176e+00 -4.622634e+00 -5.009250e+00 -5.378650e+00 -5.723868e+00 -6.038976e+00 -6.319190e+00 -6.561165e+00 -6.762841e+00 -6.923064e+00 -7.041346e+00 -7.116958e+00 -7.148764e+00 -7.133983e+00 -7.068101e+00 -6.943434e+00 -6.749477e+00 -6.472326e+00 -6.096124e+00 -5.605456e+00 -4.986749e+00 -4.234694e+00 -3.350316e+00 -2.348624e+00 -1.253925e+00 -9.842455e-02 1.081212e+00 2.270187e+00 3.473255e+00 4.763595e+00 6.314184e+00 8.439448e+00 1.086714e+01 9.166132e+00 2.190513e+00 -1.562549e+00 1.102302e+00 2.183410e+00 -1.073660e+00 -5.074777e+00 -3.556314e+00 -3.753177e+00 -4.372993e+00 -3.625918e+00 -3.970091e+00 -3.064042e+00 -4.424491e+00 -4.412618e+00 -2.955907e+00 -1.136816e+00 -2.111066e-01 1.283443e-01 2.471241e-01 2.791954e-01 2.768274e-01 2.612781e-01 2.411666e-01 2.203145e-01 1.999418e-01 1.806320e-01 1.622300e-01 1.446958e-01 1.276854e-01 1.110953e-01 9.464019e-02 7.827465e-02 6.181123e-02 4.527891e-02 2.857933e-02 1.180625e-02 -5.066590e-03 -2.189536e-02 
-3.382691e-02 -5.064443e-02 -6.734636e-02 -8.370335e-02 -9.960514e-02 -1.148110e-01 -1.291886e-01 -1.425011e-01 -1.546088e-01 -1.652958e-01 -1.744313e-01 -1.818375e-01 -1.874088e-01 -1.910195e-01 -1.926033e-01 -1.920967e-01 -1.894823e-01 -1.847641e-01 -1.779800e-01 -1.692024e-01 -1.585286e-01 -1.461004e-01 -1.320795e-01 -1.166802e-01 -1.001397e-01 -8.275582e-02 -6.485992e-02 -4.685616e-02 -2.920049e-02 -1.243865e-02 2.807010e-03 1.580194e-02 2.570752e-02 3.154631e-02 3.221203e-02 2.643275e-02 1.279194e-02 -1.031264e-02 -4.462815e-02 -9.208954e-02 -1.547562e-01 -2.348434e-01 -3.346441e-01 -4.565206e-01 -6.028315e-01 -7.758399e-01 -9.776743e-01 -1.210104e+00 -1.474561e+00 -1.771754e+00 -2.101762e+00 -2.463512e+00 -2.854948e+00 -3.272488e+00 -3.711265e+00 -4.164801e+00 -4.625346e+00 -5.084041e+00 -5.531361e+00 -5.957911e+00 -6.354823e+00 -6.714855e+00 -7.032450e+00 -7.304349e+00 -7.529223e+00 -7.707214e+00 -7.839495e+00 -7.927069e+00 -7.970568e+00 -7.968646e+00 -7.917696e+00 -7.809767e+00 -7.632387e+00 -7.367593e+00 -6.993223e+00 -6.486464e+00 -5.825904e+00 -5.000668e+00 -4.008800e+00 -2.867605e+00 -1.610259e+00 -2.850668e-01 1.046594e+00 2.350041e+00 3.611512e+00 4.897000e+00 6.478211e+00 9.735405e+00 1.780071e+01 2.392337e+00 2.132405e+00 3.039386e+00 -2.776704e+00 -1.433013e+01 -9.841715e+00 9.654652e-02 -4.768934e+00 -8.634589e-01 -1.352028e+00 7.395432e-01 -4.757027e-01 1.371608e+00 -3.881818e-02 2.180371e+00 -1.321342e-01 -8.011767e-02 7.356529e-02 1.620676e-01 2.035925e-01 2.174392e-01 2.169135e-01 2.092761e-01 1.982355e-01 1.858750e-01 1.729179e-01 1.598965e-01 1.467503e-01 1.335880e-01 1.201944e-01 1.065944e-01 9.259136e-02 7.822718e-02 6.336485e-02 4.808962e-02 3.232760e-02 1.620985e-02 -2.801314e-04 -1.697029e-02 
-2.476616e-02 -4.168428e-02 -5.874627e-02 -7.570482e-02 -9.243371e-02 -1.086670e-01 -1.242477e-01 -1.389073e-01 -1.524727e-01 -1.646927e-01 -1.753972e-01 -1.843724e-01 -1.914707e-01 -1.965338e-01 -1.994533e-01 -2.001388e-01 -1.985330e-01 -1.946190e-01 -1.883976e-01 -1.799257e-01 -1.692658e-01 -1.565467e-01 -1.418970e-01 -1.255188e-01 -1.076166e-01 -8.847617e-02 -6.839870e-02 -4.777720e-02 -2.704490e-02 -6.743070e-03 1.251272e-02 2.997554e-02 4.478445e-02 5.591770e-02 6.220042e-02 6.226494e-02 5.455944e-02 3.731204e-02 8.551335e-03 -3.392475e-02 -9.251106e-02 -1.698088e-01 -2.685764e-01 -3.916941e-01 -5.421240e-01 -7.227718e-01 -9.364873e-01 -1.185758e+00 -1.472773e+00 -1.798907e+00 -2.164849e+00 -2.569890e+00 -3.012119e+00 -3.487640e+00 -3.990853e+00 -4.513909e+00 -5.047153e+00 -5.579240e+00 -6.097833e+00 -6.590657e+00 -7.046248e+00 -7.455514e+00 -7.812003e+00 -8.112684e+00 -8.357501e+00 -8.548550e+00 -8.689402e+00 -8.783658e+00 -8.834585e+00 -8.843506e+00 -8.808974e+00 -8.723816e+00 -8.574141e+00 -8.336498e+00 -7.980592e+00 -7.471706e+00 -6.777503e+00 -5.878230e+00 -4.766419e+00 -3.461861e+00 -2.005778e+00 -4.719281e-01 1.036463e+00 2.446391e+00 3.704043e+00 4.726267e+00 4.982950e+00 6.345313e+00 5.799412e+00 -1.963855e-01 4.414496e+00 -1.122176e+01 -1.447841e+01 9.485242e+00 7.740987e+00 1.841098e+00 2.898092e+00 4.044111e+00 3.071269e+00 4.620433e+00 3.783352e+00 4.324512e+00 4.592316e+00 3.624918e+00 3.270762e+00 9.845329e-01 4.257267e-01 2.459516e-01 1.890016e-01 1.710800e-01 1.644665e-01 1.605053e-01 1.563010e-01 1.513660e-01 1.454049e-01 1.386233e-01 1.309066e-01 1.224121e-01 1.130134e-01 1.028188e-01 9.171214e-02 7.979575e-02 6.698402e-02 5.339790e-02 3.899092e-02 2.391368e-02 8.162614e-03 -8.077754e-03 
-1.001365e-02 -2.685612e-02 -4.417857e-02 -6.170568e-02 -7.930745e-02 -9.667823e-02 -1.136456e-01 -1.298902e-01 -1.452137e-01 -1.593064e-01 -1.719664e-01 -1.829191e-01 -1.919830e-01 -1.989412e-01 -2.036534e-01 -2.059760e-01 -2.058239e-01 -2.031339e-01 -1.978831e-01 -1.900875e-01 -1.797882e-01 -1.670762e-01 -1.520586e-01 -1.348997e-01 -1.157803e-01 -9.494676e-02 -7.267443e-02 -4.931748e-02 -2.528473e-02 -1.085122e-03 2.267963e-02 4.527643e-02 6.583320e-02 8.330525e-02 9.646182e-02 1.038513e-01 1.037970e-01 9.435320e-02 7.332754e-02 3.822244e-02 -1.370333e-02 -8.549945e-02 -1.804260e-01 -3.019902e-01 -4.538354e-01 -6.396807e-01 -8.632384e-01 -1.127957e+00 -1.437011e+00 -1.792747e+00 -2.196760e+00 -2.649032e+00 -3.148056e+00 -3.689818e+00 -4.267984e+00 -4.873127e+00 -5.493120e+00 -6.113287e+00 -6.717246e+00 -7.288554e+00 -7.811815e+00 -8.275273e+00 -8.671187e+00 -8.997247e+00 -9.255605e+00 -9.451581e+00 -9.592354e+00 -9.685017e+00 -9.736531e+00 -9.752112e+00 -9.734236e+00 -9.678393e+00 -9.569997e+00 -9.380022e+00 -9.065958e+00 -8.577221e+00 -7.863658e+00 -6.892675e+00 -5.648458e+00 -4.148053e+00 -2.438743e+00 -6.245475e-01 1.121764e+00 2.653333e+00 3.995707e+00 5.255354e+00 2.447865e+00 1.400217e+01 9.696108e+00 4.052700e+00 -1.224948e+01 -1.066851e+01 5.644675e+00 8.610629e+00 2.965193e+00 3.021270e+00 5.084788e+00 4.714543e+00 5.762840e+00 3.091106e+00 4.559077e+00 1.986461e+00 3.523448e+00 -2.320708e+00 2.555552e+00 8.729792e-01 3.946642e-01 2.053664e-01 1.347535e-01 1.128362e-01 1.089509e-01 1.112822e-01 1.145771e-01 1.172196e-01 1.183441e-01 1.179691e-01 1.159370e-01 1.124520e-01 1.074468e-01 1.011045e-01 9.336171e-02 8.437718e-02 7.409217e-02 6.266232e-02 5.004598e-02 3.641408e-02 2.175515e-02 6.269158e-03 