# vtk DataFile Version 2.0
Comment goes here
ASCII

DATASET STRUCTURED_POINTS
DIMENSIONS    128   128   1

ORIGIN    0.000   0.000   0.000
SPACING   0.0156250.015625   1.000

POINT_DATA   16384
SCALARS Omega double
LOOKUP_TABLE default

-1.303361e-08 -8.306234e-09 -5.605927e-09 -3.364305e-09 -2.404940e-09 -1.284122e-09 -1.103773e-09 -4.562042e-10 -6.035748e-10 -1.459961e-10 -4.171284e-10 -3.794913e-11 -3.400456e-10 -4.105501e-12 -2.915071e-10 4.534466e-12 -2.418236e-10 5.420067e-12 -1.823201e-10 3.720999e-12 -1.130137e-10 1.317242e-13 -3.802315e-11 -6.036645e-12 3.636777e-11 -1.590665e-11 1.020432e-10 -3.096435e-11 1.485303e-10 -5.495081e-11 1.597731e-10 -1.000559e-10 1.049237e-10 -2.022420e-10 -8.261627e-11 -4.534856e-10 -5.484424e-10 -1.063602e-09 -1.596608e-09 -2.466318e-09 -3.820108e-09 -5.481547e-09 -8.289641e-09 -1.153075e-08 -1.678448e-08 -2.286809e-08 -3.200315e-08 -4.273322e-08 -5.762694e-08 -7.526121e-08 -9.803745e-08 -1.249260e-07 -1.574517e-07 -1.952921e-07 -2.382793e-07 -2.869482e-07 -3.386650e-07 -3.947080e-07 -4.494264e-07 -5.044218e-07 -5.508322e-07 -5.898895e-07 -6.097078e-07 -6.102854e-07 -5.771859e-07 -5.083188e-07 -3.873672e-07 -2.096407e-07 4.202238e-08 3.744729e-07 8.036972e-07 1.336492e-06 1.983830e-06 2.747948e-06 3.628979e-06 4.618585e-06 5.699942e-06 6.849438e-06 8.030741e-06 9.205797e-06 1.032418e-05 1.134287e-05 1.221258e-05 1.290280e-05 1.338757e-05 1.366959e-05 1.376790e-05 1.373373e-05 1.363998e-05 1.358189e-05 1.366458e-05 1.398655e-05 1.462388e-05 1.560650e-05 1.690796e-05 1.843399e-05 2.003110e-05 2.149808e-05 2.261260e-05 2.315832e-05 2.295874e-05 2.191246e-05 2.002487e-05 1.742813e-05 1.436850e-05 1.115724e-05 8.098600e-06 5.423841e-06 3.262701e-06 1.644335e-06 5.252217e-07 -1.803190e-07 -5.712818e-07 -7.414650e-07 -7.693895e-07 -7.147397e-07 -6.198418e-07 -5.118770e-07 -4.073975e-07 -3.144988e-07 -2.368945e-07 -1.743943e-07 -1.261152e-07 -8.938689e-08 -6.258088e-08 -4.289303e-08 -2.927222e-08 -1.940593e-08 
2.629419e-05 1.737287e-05 1.138212e-05 7.347110e-06 4.710021e-06 2.945332e-06 1.830890e-06 1.073350e-06 6.193748e-07 2.904087e-07 1.116034e-07 -3.963088e-08 -1.065594e-07 -1.826826e-07 -2.033864e-07 -2.439276e-07 -2.435912e-07 -2.630581e-07 -2.511033e-07 -2.549640e-07 -2.349678e-07 -2.258294e-07 -1.991161e-07 -1.788602e-07 -1.457538e-07 -1.164894e-07 -7.754576e-08 -4.357338e-08 -3.318236e-09 2.264491e-08 4.501954e-08 2.527173e-08 -2.992882e-08 -1.956320e-07 -4.828830e-07 -1.031723e-06 -1.900637e-06 -3.336038e-06 -5.493676e-06 -8.779740e-06 -1.351416e-05 -2.031775e-05 -2.974129e-05 -4.264987e-05 -5.985389e-05 -8.242255e-05 -1.113612e-04 -1.477800e-04 -1.926661e-04 -2.468493e-04 -3.109168e-04 -3.849601e-04 -4.686707e-04 -5.609076e-04 -6.599955e-04 -7.631916e-04 -8.671737e-04 -9.674792e-04 -1.059126e-03 -1.136034e-03 -1.191679e-03 -1.218436e-03 -1.208155e-03 -1.151365e-03 -1.037726e-03 -8.551586e-04 -5.902917e-04 -2.278326e-04 2.487077e-04 8.568245e-04 1.613674e-03 2.534522e-03 3.630662e-03 4.906536e-03 6.357439e-03 7.966455e-03 9.703345e-03 1.152352e-02 1.336982e-02 1.517569e-02 1.687044e-02 1.838662e-02 1.966711e-02 2.067383e-02 2.139349e-02 2.184400e-02 2.207694e-02 2.217925e-02 2.227033e-02 2.249482e-02 2.300826e-02 2.395635e-02 2.544823e-02 2.753183e-02 3.017128e-02 3.324008e-02 3.652319e-02 3.973735e-02 4.255475e-02 4.463238e-02 4.564321e-02 4.532263e-02 4.353206e-02 4.032844e-02 3.599554e-02 3.099291e-02 2.582905e-02 2.093296e-02 1.658470e-02 1.291095e-02 9.920263e-03 7.550263e-03 5.706540e-03 4.289899e-03 3.209811e-03 2.390619e-03 1.771558e-03 1.305423e-03 9.557828e-04 6.948081e-04 5.011444e-04 3.584195e-04 2.540700e-04 1.784181e-04 1.241060e-04 8.546498e-05 5.828808e-05 3.933252e-05 
5.307978e-05 3.504965e-05 2.297158e-05 1.482014e-05 9.524038e-06 5.963077e-06 3.746799e-06 2.222281e-06 1.341751e-06 6.834512e-07 3.582018e-07 5.822314e-08 -4.371704e-08 -1.937050e-07 -2.069089e-07 -2.875634e-07 -2.644895e-07 -3.056361e-07 -2.663978e-07 -2.793214e-07 -2.316710e-07 -2.216328e-07 -1.681886e-07 -1.387248e-07 -7.942072e-08 -3.414352e-08 3.143697e-08 8.504388e-08 1.501762e-07 1.880669e-07 2.166791e-07 1.634980e-07 3.544356e-08 -3.155557e-07 -9.209558e-07 -2.068266e-06 -3.889542e-06 -6.904448e-06 -1.145222e-05 -1.840467e-05 -2.845354e-05 -4.294735e-05 -6.307762e-05 -9.074047e-05 -1.276950e-04 -1.763034e-04 -2.387584e-04 -3.175361e-04 -4.148041e-04 -5.324478e-04 -6.717790e-04 -8.330801e-04 -1.015721e-03 -1.217285e-03 -1.434168e-03 -1.660438e-03 -1.888921e-03 -2.109938e-03 -2.312767e-03 -2.484290e-03 -2.610601e-03 -2.675426e-03 -2.661634e-03 -2.549269e-03 -2.316841e-03 -1.939106e-03 -1.388325e-03 -6.325057e-04 3.627935e-04 1.634494e-03 3.218889e-03 5.148715e-03 7.448408e-03 1.012822e-02 1.317883e-02 1.656499e-02 2.022246e-02 2.405605e-02 2.794273e-02 3.173896e-02 3.529152e-02 3.845409e-02 4.110213e-02 4.315199e-02 4.457268e-02 4.539953e-02 4.573909e-02 4.577358e-02 4.575618e-02 4.599802e-02 4.683890e-02 4.860322e-02 5.154040e-02 5.576955e-02 6.122738e-02 6.765212e-02 7.458822e-02 8.143381e-02 8.749400e-02 9.203884e-02 9.435774e-02 9.384841e-02 9.016025e-02 8.337597e-02 7.412171e-02 6.345546e-02 5.253591e-02 4.230277e-02 3.332901e-02 2.583722e-02 1.979961e-02 1.505163e-02 1.137673e-02 8.560618e-03 6.414963e-03 4.786224e-03 3.553209e-03 2.622664e-03 1.923038e-03 1.399637e-03 1.010488e-03 7.232055e-04 5.129152e-04 3.602881e-04 2.506582e-04 1.726040e-04 1.177145e-04 7.940549e-05 
8.087919e-05 5.340789e-05 3.496841e-05 2.255613e-05 1.444905e-05 9.027531e-06 5.606360e-06 3.281670e-06 1.890232e-06 8.812472e-07 3.343863e-07 -1.296825e-07 -3.333357e-07 -5.671455e-07 -6.288107e-07 -7.532633e-07 -7.500090e-07 -8.092904e-07 -7.698328e-07 -7.803078e-07 -7.151948e-07 -6.840307e-07 -5.962394e-07 -5.274535e-07 -4.156559e-07 -3.124531e-07 -1.742672e-07 -4.485294e-08 1.113145e-07 2.330180e-07 3.515578e-07 3.481215e-07 2.350298e-07 -2.290636e-07 -1.102328e-06 -2.852456e-06 -5.718324e-06 -1.054995e-05 -1.795222e-05 -2.936516e-05 -4.601129e-05 -7.014341e-05 -1.038578e-04 -1.503590e-04 -2.127382e-04 -2.950354e-04 -4.011113e-04 -5.352583e-04 -7.013158e-04 -9.026297e-04 -1.141573e-03 -1.418793e-03 -1.733297e-03 -2.081127e-03 -2.456121e-03 -2.848303e-03 -3.245343e-03 -3.630921e-03 -3.986719e-03 -4.290796e-03 -4.519756e-03 -4.646849e-03 -4.643888e-03 -4.478729e-03 -4.116709e-03 -3.517616e-03 -2.636982e-03 -1.423619e-03 1.781861e-04 2.228483e-03 4.787137e-03 7.908797e-03 1.163531e-02 1.598553e-02 2.094629e-02 2.646085e-02 3.242360e-02 3.867555e-02 4.500987e-02 5.118310e-02 5.693476e-02 6.201473e-02 6.620980e-02 6.937498e-02 7.145311e-02 7.249585e-02 7.267141e-02 7.227304e-02 7.171593e-02 7.152223e-02 7.227752e-02 7.455726e-02 7.882109e-02 8.531254e-02 9.396113e-02 1.043505e-01 1.157268e-01 1.270909e-01 1.373019e-01 1.451613e-01 1.494645e-01 1.491065e-01 1.433343e-01 1.321456e-01 1.166376e-01 9.882592e-02 8.086883e-02 6.439150e-02 5.026060e-02 3.870278e-02 2.954408e-02 2.242989e-02 1.696554e-02 1.279265e-02 9.613613e-03 7.195143e-03 5.357746e-03 3.965414e-03 2.914306e-03 2.125082e-03 1.536426e-03 1.100793e-03 7.812634e-04 5.490529e-04 3.820648e-04 2.631309e-04 1.794320e-04 1.210408e-04 
1.099820e-04 7.255380e-05 4.749869e-05 3.060764e-05 1.964278e-05 1.227928e-05 7.700834e-06 4.554279e-06 2.739606e-06 1.382303e-06 7.142975e-07 9.553925e-08 -1.117794e-07 -4.216080e-07 -4.455902e-07 -6.121951e-07 -5.606502e-07 -6.448711e-07 -5.587631e-07 -5.829165e-07 -4.770952e-07 -4.500962e-07 -3.273181e-07 -2.524392e-07 -1.071383e-07 1.564950e-08 1.938390e-07 3.607744e-07 5.711372e-07 7.455794e-07 9.235159e-07 9.503053e-07 8.300655e-07 2.303107e-07 -9.570212e-07 -3.408179e-06 -7.512799e-06 -1.454330e-05 -2.546103e-05 -4.247572e-05 -6.752131e-05 -1.041198e-04 -1.555956e-04 -2.270360e-04 -3.233718e-04 -4.511089e-04 -6.164567e-04 -8.264432e-04 -1.087321e-03 -1.404733e-03 -1.782668e-03 -2.222546e-03 -2.723025e-03 -3.278173e-03 -3.878393e-03 -4.508104e-03 -5.147892e-03 -5.772111e-03 -6.352072e-03 -6.853606e-03 -7.240729e-03 -7.472705e-03 -7.507433e-03 -7.297362e-03 -6.792129e-03 -5.933365e-03 -4.656969e-03 -2.888400e-03 -5.461668e-04 2.459077e-03 6.217490e-03 1.081344e-02 1.631334e-02 2.275054e-02 3.011000e-02 3.831034e-02 4.719315e-02 5.651579e-02 6.595747e-02 7.513779e-02 8.364605e-02 9.108712e-02 9.712220e-02 1.015198e-01 1.041823e-01 1.051767e-01 1.047413e-01 1.033011e-01 1.014722e-01 1.000564e-01 9.998762e-02 1.022200e-01 1.075500e-01 1.164459e-01 1.288703e-01 1.442198e-01 1.613340e-01 1.786709e-01 1.945274e-01 2.071396e-01 2.146684e-01 2.152160e-01 2.072101e-01 1.902086e-01 1.659912e-01 1.383582e-01 1.111979e-01 8.709084e-02 6.710522e-02 5.124118e-02 3.896128e-02 2.957290e-02 2.242306e-02 1.697587e-02 1.281708e-02 9.637603e-03 7.207075e-03 5.353481e-03 3.945977e-03 2.883810e-03 2.088413e-03 1.497910e-03 1.063841e-03 7.478539e-04 5.204342e-04 3.583306e-04 2.442727e-04 1.646697e-04 
1.408670e-04 9.289223e-05 6.072801e-05 3.911094e-05 2.500948e-05 1.559441e-05 9.660326e-06 5.632795e-06 3.225582e-06 1.479568e-06 5.363609e-07 -2.668884e-07 -6.153872e-07 -1.020039e-06 -1.121456e-06 -1.335628e-06 -1.322658e-06 -1.421796e-06 -1.343334e-06 -1.354234e-06 -1.226592e-06 -1.158208e-06 -9.816538e-07 -8.333157e-07 -5.950627e-07 -3.576030e-07 -3.451903e-08 3.017659e-07 7.229078e-07 1.128465e-06 1.577004e-06 1.859880e-06 1.981917e-06 1.485447e-06 1.959207e-07 -2.833690e-06 -8.222101e-06 -1.778587e-05 -3.303686e-05 -5.719168e-05 -9.327787e-05 -1.465167e-04 -2.221103e-04 -3.277295e-04 -4.711125e-04 -6.622340e-04 -9.108998e-04 -1.228089e-03 -1.623791e-03 -2.107091e-03 -2.684573e-03 -3.359010e-03 -4.128744e-03 -4.985294e-03 -5.914123e-03 -6.891867e-03 -7.888719e-03 -8.865960e-03 -9.779749e-03 -1.057903e-02 -1.120990e-02 -1.161309e-02 -1.172773e-02 -1.148710e-02 -1.082105e-02 -9.649666e-03 -7.884834e-03 -5.423953e-03 -2.153075e-03 2.054494e-03 7.329543e-03 1.379752e-02 2.156129e-02 3.067833e-02 4.113708e-02 5.282796e-02 6.552541e-02 7.887326e-02 9.239289e-02 1.055084e-01 1.175939e-01 1.280435e-01 1.363384e-01 1.421231e-01 1.452444e-01 1.457847e-01 1.440638e-01 1.406576e-01 1.364236e-01 1.325307e-01 1.304182e-01 1.316291e-01 1.375095e-01 1.489331e-01 1.659742e-01 1.877952e-01 2.126312e-01 2.381149e-01 2.618328e-01 2.814062e-01 2.942925e-01 2.973553e-01 2.873629e-01 2.623211e-01 2.249411e-01 1.828362e-01 1.431142e-01 1.095842e-01 8.310377e-02 6.291998e-02 4.774678e-02 3.634347e-02 2.771356e-02 2.112622e-02 1.606160e-02 1.215323e-02 9.136337e-03 6.815101e-03 5.039258e-03 3.691211e-03 2.677178e-03 1.921997e-03 1.365624e-03 9.601160e-04 6.680069e-04 4.598013e-04 3.132651e-04 2.110890e-04 
1.734160e-04 1.141739e-04 7.458458e-05 4.795224e-05 3.069413e-05 1.912728e-05 1.194877e-05 7.020532e-06 4.186762e-06 2.063606e-06 1.026950e-06 5.823573e-08 -2.569980e-07 -7.426447e-07 -7.696088e-07 -1.029635e-06 -9.359773e-07 -1.063763e-06 -9.120029e-07 -9.395598e-07 -7.490649e-07 -6.839011e-07 -4.496990e-07 -2.829641e-07 2.315892e-08 3.185471e-07 7.483504e-07 1.211573e-06 1.817924e-06 2.451001e-06 3.190681e-06 3.790784e-06 4.246563e-06 3.976662e-06 2.712583e-06 -8.198576e-07 -7.539837e-06 -1.999062e-05 -4.041053e-05 -7.343209e-05 -1.235579e-04 -1.984710e-04 -3.059674e-04 -4.575395e-04 -6.648958e-04 -9.432361e-04 -1.307575e-03 -1.774970e-03 -2.360977e-03 -3.080161e-03 -3.943187e-03 -4.955327e-03 -6.114874e-03 -7.410051e-03 -8.819522e-03 -1.030872e-02 -1.183300e-02 -1.333444e-02 -1.474751e-02 -1.599650e-02 -1.700245e-02 -1.767994e-02 -1.794333e-02 -1.770071e-02 -1.685794e-02 -1.530877e-02 -1.293718e-02 -9.606390e-03 -5.162847e-03 5.685189e-04 7.772589e-03 1.663310e-02 2.730743e-02 3.989456e-02 5.439769e-02 7.068002e-02 8.843196e-02 1.071461e-01 1.261219e-01 1.445032e-01 1.613474e-01 1.757380e-01 1.868906e-01 1.942752e-01 1.976650e-01 1.971716e-01 1.932098e-01 1.865143e-01 1.781977e-01 1.698869e-01 1.637566e-01 1.622914e-01 1.677327e-01 1.816926e-01 2.045001e-01 2.350409e-01 2.705946e-01 3.073134e-01 3.419329e-01 3.715704e-01 3.933400e-01 4.022749e-01 3.920755e-01 3.556653e-01 2.965626e-01 2.317818e-01 1.746152e-01 1.298490e-01 9.681820e-02 7.292450e-02 5.553796e-02 4.264354e-02 3.286662e-02 2.531934e-02 1.942779e-02 1.481060e-02 1.119792e-02 8.387533e-03 6.219551e-03 4.563834e-03 3.313296e-03 2.379459e-03 1.690483e-03 1.187923e-03 8.259342e-04 5.679523e-04 3.865666e-04 2.601427e-04 
2.079196e-04 1.367653e-04 8.917441e-05 5.727287e-05 3.650812e-05 2.267451e-05 1.397327e-05 8.073309e-06 4.556487e-06 2.000833e-06 6.296387e-07 -5.470474e-07 -1.045701e-06 -1.637273e-06 -1.770058e-06 -2.078265e-06 -2.037804e-06 -2.170691e-06 -2.026404e-06 -2.019042e-06 -1.788865e-06 -1.644054e-06 -1.313044e-06 -1.006215e-06 -5.222271e-07 7.142095e-09 7.407494e-07 1.588114e-06 2.690446e-06 3.927136e-06 5.415150e-06 6.863567e-06 8.271406e-06 8.904804e-06 8.371716e-06 4.994009e-06 -2.588207e-06 -1.783629e-05 -4.407431e-05 -8.777839e-05 -1.556603e-04 -2.587054e-04 -4.085983e-04 -6.220997e-04 -9.168940e-04 -1.315571e-03 -1.841053e-03 -2.519222e-03 -3.374221e-03 -4.428855e-03 -5.700320e-03 -7.198062e-03 -8.920845e-03 -1.085275e-02 -1.296277e-02 -1.520058e-02 -1.749966e-02 -1.977461e-02 -2.192772e-02 -2.384822e-02 -2.542067e-02 -2.652381e-02 -2.703787e-02 -2.683915e-02 -2.580356e-02 -2.379474e-02 -2.066404e-02 -1.623543e-02 -1.030690e-02 -2.642398e-03 7.015712e-03 1.893311e-02 3.334969e-02 5.043375e-02 7.022581e-02 9.256938e-02 1.170558e-01 1.429762e-01 1.693215e-01 1.948278e-01 2.180845e-01 2.377076e-01 2.525213e-01 2.617504e-01 2.650971e-01 2.627470e-01 2.552514e-01 2.434733e-01 2.287073e-01 2.130563e-01 1.997673e-01 1.928922e-01 1.960625e-01 2.122955e-01 2.423915e-01 2.850335e-01 3.360319e-01 3.882061e-01 4.375540e-01 4.809751e-01 5.172329e-01 5.386411e-01 5.351430e-01 4.830024e-01 3.837420e-01 2.813991e-01 2.005462e-01 1.440032e-01 1.060593e-01 8.031095e-02 6.209463e-02 4.855076e-02 3.806160e-02 2.973599e-02 2.306179e-02 1.771574e-02 1.346352e-02 1.011712e-02 7.515532e-03 5.519023e-03 4.006816e-03 2.876152e-03 2.041631e-03 1.433215e-03 9.952699e-04 6.835896e-04 4.646501e-04 3.123458e-04 
2.435286e-04 1.598159e-04 1.040430e-04 6.663905e-05 4.246877e-05 2.630508e-05 1.630522e-05 9.440535e-06 5.516038e-06 2.560620e-06 1.141336e-06 -2.085383e-07 -6.208966e-07 -1.295960e-06 -1.302199e-06 -1.657053e-06 -1.488818e-06 -1.649915e-06 -1.390737e-06 -1.395616e-06 -1.061966e-06 -9.035571e-07 -4.620653e-07 -8.831319e-08 5.572708e-07 1.263757e-06 2.293205e-06 3.527413e-06 5.190664e-06 7.164100e-06 9.632551e-06 1.228690e-05 1.514986e-05 1.734191e-05 1.834508e-05 1.599262e-05 8.404797e-06 -9.098412e-06 -4.120654e-05 -9.695269e-05 -1.859507e-04 -3.238843e-04 -5.277213e-04 -8.218618e-04 -1.232344e-03 -1.792669e-03 -2.537114e-03 -3.504869e-03 -4.732792e-03 -6.256521e-03 -8.103448e-03 -1.029021e-02 -1.281730e-02 -1.566381e-02 -1.878569e-02 -2.211016e-02 -2.553951e-02 -2.894793e-02 -3.219128e-02 -3.510709e-02 -3.752793e-02 -3.928119e-02 -4.020118e-02 -4.012244e-02 -3.888563e-02 -3.632003e-02 -3.224279e-02 -2.643427e-02 -1.863740e-02 -8.540444e-03 4.209202e-03 1.999233e-02 3.917239e-02 6.203314e-02 8.869432e-02 1.190062e-01 1.524544e-01 1.880750e-01 2.244321e-01 2.596737e-01 2.916850e-01 3.183692e-01 3.379488e-01 3.493077e-01 3.521113e-01 3.467695e-01 3.340830e-01 3.149735e-01 2.905871e-01 2.632456e-01 2.377258e-01 2.210079e-01 2.184880e-01 2.362148e-01 2.754358e-01 3.352655e-01 4.101277e-01 4.830832e-01 5.515661e-01 6.111963e-01 6.706372e-01 7.152235e-01 7.422322e-01 6.717292e-01 4.860084e-01 3.191346e-01 2.098383e-01 1.457941e-01 1.082877e-01 8.453420e-02 6.768587e-02 5.454194e-02 4.373540e-02 3.470349e-02 2.718441e-02 2.100736e-02 1.601573e-02 1.205034e-02 8.952026e-03 6.568836e-03 4.762963e-03 3.413490e-03 2.418843e-03 1.694834e-03 1.174750e-03 8.052743e-04 5.463430e-04 3.664994e-04 
2.802593e-04 1.836567e-04 1.192733e-04 7.625870e-05 4.834384e-05 2.978564e-05 1.814616e-05 1.025092e-05 5.567374e-06 2.146357e-06 3.366615e-07 -1.238250e-06 -1.872523e-06 -2.655441e-06 -2.787686e-06 -3.177341e-06 -3.063264e-06 -3.200421e-06 -2.928689e-06 -2.850874e-06 -2.430108e-06 -2.114314e-06 -1.482977e-06 -8.326714e-07 1.713140e-07 1.368002e-06 3.052586e-06 5.159992e-06 7.986482e-06 1.146752e-05 1.588248e-05 2.094340e-05 2.672652e-05 3.222842e-05 3.677586e-05 3.766940e-05 3.230598e-05 1.455046e-05 -2.222984e-05 -9.029524e-05 -2.034241e-04 -3.834735e-04 -6.550478e-04 -1.052913e-03 -1.615299e-03 -2.390939e-03 -3.430908e-03 -4.793515e-03 -6.534818e-03 -8.709567e-03 -1.136119e-02 -1.451801e-02 -1.818452e-02 -2.233422e-02 -2.690525e-02 -3.179363e-02 -3.685635e-02 -4.190969e-02 -4.674096e-02 -5.111335e-02 -5.478328e-02 -5.750652e-02 -5.905351e-02 -5.920622e-02 -5.776332e-02 -5.451938e-02 -4.925811e-02 -4.171761e-02 -3.158101e-02 -1.844764e-02 -1.842345e-03 1.877432e-02 4.394948e-02 7.415437e-02 1.096615e-01 1.503844e-01 1.957201e-01 2.443940e-01 2.943942e-01 3.430168e-01 3.870858e-01 4.233844e-01 4.491913e-01 4.628860e-01 4.642322e-01 4.542446e-01 4.343653e-01 4.054790e-01 3.677013e-01 3.223052e-01 2.760544e-01 2.428695e-01 2.279236e-01 2.458178e-01 2.957294e-01 3.795231e-01 4.969563e-01 5.951021e-01 6.888430e-01 7.576605e-01 8.565145e-01 9.282559e-01 1.066601e+00 9.941258e-01 5.837081e-01 3.098210e-01 1.819424e-01 1.275807e-01 1.022958e-01 8.663326e-02 7.371913e-02 6.176565e-02 5.067407e-02 4.071049e-02 3.207946e-02 2.484105e-02 1.893439e-02 1.422494e-02 1.054421e-02 7.717529e-03 5.580899e-03 3.989072e-03 2.819344e-03 1.970631e-03 1.362687e-03 9.321279e-04 6.310803e-04 4.226074e-04 
3.161706e-04 2.065335e-04 1.337781e-04 8.514801e-05 5.383532e-05 3.292552e-05 2.004834e-05 1.118718e-05 6.174019e-06 2.358652e-06 5.873104e-07 -1.150181e-06 -1.608303e-06 -2.459865e-06 -2.377682e-06 -2.796439e-06 -2.472822e-06 -2.617724e-06 -2.154753e-06 -2.059630e-06 -1.453471e-06 -1.066186e-06 -2.061276e-07 6.426765e-07 2.030289e-06 3.703116e-06 6.141210e-06 9.277202e-06 1.359049e-05 1.908523e-05 2.623536e-05 3.483002e-05 4.510557e-05 5.597818e-05 6.671338e-05 7.400083e-05 7.449848e-05 6.020672e-05 2.219399e-05 -5.612880e-05 -1.938158e-04 -4.212300e-04 -7.730827e-04 -1.298726e-03 -2.053077e-03 -3.106745e-03 -4.534512e-03 -6.422793e-03 -8.855670e-03 -1.191696e-02 -1.567476e-02 -2.017668e-02 -2.543560e-02 -3.141967e-02 -3.804406e-02 -4.516139e-02 -5.256485e-02 -5.998647e-02 -6.711451e-02 -7.360256e-02 -7.909717e-02 -8.325034e-02 -8.574508e-02 -8.629435e-02 -8.465041e-02 -8.057559e-02 -7.383076e-02 -6.412102e-02 -5.107556e-02 -3.419580e-02 -1.285633e-02 1.369619e-02 4.627657e-02 8.565412e-02 1.323797e-01 1.865458e-01 2.475299e-01 3.137219e-01 3.823593e-01 4.495278e-01 5.104330e-01 5.600688e-01 5.941272e-01 6.101688e-01 6.082992e-01 5.910649e-01 5.616665e-01 5.212360e-01 4.668443e-01 3.943904e-01 3.110941e-01 2.543051e-01 2.111970e-01 2.298746e-01 2.895020e-01 3.990153e-01 6.147411e-01 7.257417e-01 8.674127e-01 8.924620e-01 1.090193e+00 1.097276e+00 1.627809e+00 1.679887e+00 5.611987e-01 1.648013e-01 8.809990e-02 8.666606e-02 9.238666e-02 9.115071e-02 8.340690e-02 7.217244e-02 5.996142e-02 4.831815e-02 3.801638e-02 2.933227e-02 2.225869e-02 1.664482e-02 1.228209e-02 8.950963e-03 6.447114e-03 4.591235e-03 3.233988e-03 2.253335e-03 1.553681e-03 1.059803e-03 7.156738e-04 4.779462e-04 
3.511391e-04 2.289120e-04 1.477709e-04 9.372672e-05 5.876261e-05 3.553586e-05 2.101849e-05 1.114023e-05 5.329846e-06 1.046251e-06 -1.152136e-06 -3.105203e-06 -3.800069e-06 -4.726320e-06 -4.756343e-06 -5.151552e-06 -4.839509e-06 -4.878256e-06 -4.330096e-06 -4.041297e-06 -3.232534e-06 -2.523880e-06 -1.274862e-06 1.324394e-07 2.257524e-06 4.961417e-06 8.809683e-06 1.388842e-05 2.085209e-05 2.991402e-05 4.180308e-05 5.654079e-05 7.461149e-05 9.502068e-05 1.170024e-04 1.367450e-04 1.499599e-04 1.466163e-04 1.146958e-04 3.239596e-05 -1.265605e-04 -4.033704e-04 -8.467911e-04 -1.525497e-03 -2.517962e-03 -3.924736e-03 -5.854708e-03 -8.434012e-03 -1.178809e-02 -1.604346e-02 -2.130629e-02 -2.765485e-02 -3.511787e-02 -4.366012e-02 -5.316732e-02 -6.343334e-02 -7.416065e-02 -8.496114e-02 -9.537789e-02 -1.049058e-01 -1.130297e-01 -1.192540e-01 -1.231384e-01 -1.243085e-01 -1.224655e-01 -1.173527e-01 -1.087298e-01 -9.629613e-02 -7.964661e-02 -5.818885e-02 -3.112156e-02 2.588049e-03 4.413627e-02 9.475511e-02 1.554752e-01 2.267792e-01 3.081912e-01 3.978081e-01 4.919487e-01 5.850075e-01 6.697435e-01 7.382203e-01 7.833578e-01 8.011315e-01 7.923513e-01 7.630163e-01 7.211684e-01 6.701280e-01 6.009464e-01 4.910772e-01 3.295683e-01 2.591656e-01 1.378189e-01 1.813372e-01 2.939312e-01 3.224270e-01 6.085013e-01 6.811282e-01 6.430628e-01 3.502045e-01 3.752463e-01 1.105766e-01 6.911843e-01 7.149540e-01 -4.622583e-01 -2.924753e-01 -7.533194e-02 4.441233e-02 9.532716e-02 1.078729e-01 1.018221e-01 8.820108e-02 7.268610e-02 5.796234e-02 4.513205e-02 3.449167e-02 2.595303e-02 1.926399e-02 1.412304e-02 1.023475e-02 7.335442e-03 5.201330e-03 3.649710e-03 2.534481e-03 1.742228e-03 1.185293e-03 7.984094e-04 5.320722e-04 
3.818201e-04 2.477816e-04 1.591777e-04 1.000890e-04 6.217568e-05 3.683416e-05 2.132129e-05 1.057583e-05 4.610091e-06 -7.274107e-09 -2.000823e-06 -4.053086e-06 -4.397353e-06 -5.316683e-06 -4.954860e-06 -5.295080e-06 -4.602428e-06 -4.559545e-06 -3.656143e-06 -3.245653e-06 -2.072810e-06 -1.133726e-06 6.029357e-07 2.520583e-06 5.515970e-06 9.369123e-06 1.498022e-05 2.252222e-05 3.304366e-05 4.701513e-05 6.566273e-05 8.937853e-05 1.191980e-04 1.543843e-04 1.944846e-04 2.352364e-04 2.716408e-04 2.912433e-04 2.786771e-04 2.054760e-04 3.662720e-05 -2.834160e-04 -8.214022e-04 -1.672281e-03 -2.945944e-03 -4.784670e-03 -7.344450e-03 -1.080832e-02 -1.536099e-02 -2.119247e-02 -2.846645e-02 -3.731031e-02 -4.778178e-02 -5.984766e-02 -7.335897e-02 -8.803077e-02 -1.034402e-01 -1.190266e-01 -1.341239e-01 -1.479930e-01 -1.598827e-01 -1.690806e-01 -1.749728e-01 -1.770686e-01 -1.750192e-01 -1.685728e-01 -1.575349e-01 -1.416528e-01 -1.205391e-01 -9.353672e-02 -5.966016e-02 -1.752965e-02 3.457758e-02 9.858708e-02 1.763270e-01 2.690345e-01 3.767314e-01 4.974364e-01 6.264764e-01 7.560065e-01 8.751425e-01 9.711478e-01 1.031858e+00 1.049772e+00 1.026351e+00 9.745918e-01 9.146765e-01 8.600310e-01 7.962882e-01 6.561900e-01 2.662013e-01 3.670786e-01 4.654712e-01 3.596190e-01 1.562451e-01 -2.276523e-01 -6.733121e-01 -1.449536e+00 -1.834458e+00 -2.170644e+00 -2.397477e+00 -2.517298e+00 -2.629710e+00 -2.757273e+00 -2.040129e+00 -7.186667e-01 -1.391019e-01 7.645874e-02 1.431617e-01 1.497812e-01 1.339093e-01 1.115174e-01 8.923945e-02 6.958233e-02 5.324043e-02 4.012778e-02 2.985842e-02 2.196130e-02 1.597925e-02 1.150665e-02 8.202782e-03 5.789417e-03 4.046025e-03 2.799595e-03 1.918268e-03 1.301028e-03 8.738193e-04 5.804506e-04 
4.084809e-04 2.641618e-04 1.686358e-04 1.050820e-04 6.404404e-05 3.671424e-05 1.969267e-05 8.026248e-06 1.273776e-06 -3.759890e-06 -6.164095e-06 -8.344709e-06 -8.856465e-06 -9.707007e-06 -9.330013e-06 -9.454317e-06 -8.599054e-06 -8.221907e-06 -7.019072e-06 -6.148090e-06 -4.496903e-06 -2.883681e-06 -3.366153e-07 2.714702e-06 7.220249e-06 1.320434e-05 2.177510e-05 3.347586e-05 4.976865e-05 7.169006e-05 1.011138e-04 1.391997e-04 1.877813e-04 2.468876e-04 3.166234e-04 3.928033e-04 4.697101e-04 5.326851e-04 5.622124e-04 5.223367e-04 3.667154e-04 2.226717e-05 -6.017207e-04 -1.633953e-03 -3.227141e-03 -5.579283e-03 -8.912173e-03 -1.348764e-02 -1.957580e-02 -2.745841e-02 -3.738609e-02 -4.956275e-02 -6.409663e-02 -8.096841e-02 -9.999009e-02 -1.207747e-01 -1.427257e-01 -1.650391e-01 -1.867442e-01 -2.067611e-01 -2.239889e-01 -2.373999e-01 -2.461295e-01 -2.495353e-01 -2.472226e-01 -2.389936e-01 -2.247786e-01 -2.044720e-01 -1.778000e-01 -1.441157e-01 -1.022731e-01 -5.049000e-02 1.365189e-02 9.308808e-02 1.909107e-01 3.097139e-01 4.506594e-01 6.122245e-01 7.889301e-01 9.701978e-01 1.139948e+00 1.277700e+00 1.361920e+00 1.377038e+00 1.323117e+00 1.225189e+00 1.130921e+00 1.085512e+00 1.094222e+00 1.107927e+00 -1.554987e-01 -8.198629e-01 -6.456978e-01 -1.311623e+00 -2.070285e+00 -3.168294e+00 -3.562252e+00 -3.490779e+00 -3.431289e+00 -3.123634e+00 -3.112849e+00 -2.801854e+00 -3.191678e+00 -3.193584e+00 -1.473352e+00 -2.489103e-01 1.642468e-01 2.648933e-01 2.596003e-01 2.224127e-01 1.798945e-01 1.410888e-01 1.085264e-01 8.231010e-02 6.171681e-02 4.581050e-02 3.368470e-02 2.454369e-02 1.772297e-02 1.268304e-02 8.994500e-03 6.320527e-03 4.400635e-03 3.035192e-03 2.073710e-03 1.402918e-03 9.398918e-04 6.228756e-04 
4.260076e-04 2.732241e-04 1.724401e-04 1.051607e-04 6.207320e-05 3.310181e-05 1.549807e-05 3.155902e-06 -3.453275e-06 -8.664210e-06 -1.053679e-05 -1.260968e-05 -1.238815e-05 -1.296861e-05 -1.178506e-05 -1.156083e-05 -9.913125e-06 -9.154524e-06 -7.202642e-06 -5.897166e-06 -3.471030e-06 -1.228371e-06 2.363465e-06 6.609283e-06 1.299036e-05 2.152468e-05 3.392613e-05 5.105314e-05 7.518444e-05 1.080631e-04 1.527182e-04 2.114123e-04 2.874739e-04 3.821859e-04 4.971048e-04 6.285958e-04 7.711234e-04 9.078350e-04 1.015383e-03 1.048908e-03 9.492249e-04 6.211394e-04 -5.551393e-05 -1.253587e-03 -3.181116e-03 -6.111259e-03 -1.035436e-02 -1.628204e-02 -2.428424e-02 -3.477589e-02 -4.813656e-02 -6.468941e-02 -8.462871e-02 -1.079722e-01 -1.344958e-01 -1.636840e-01 -1.947070e-01 -2.264173e-01 -2.574073e-01 -2.860946e-01 -3.108615e-01 -3.302090e-01 -3.429074e-01 -3.481046e-01 -3.453740e-01 -3.346522e-01 -3.161314e-01 -2.900196e-01 -2.563314e-01 -2.145796e-01 -1.635511e-01 -1.010546e-01 -2.380652e-02 7.252318e-02 1.929572e-01 3.423681e-01 5.241900e-01 7.384751e-01 9.797530e-01 1.234666e+00 1.480340e+00 1.684407e+00 1.808495e+00 1.818578e+00 1.704484e+00 1.506669e+00 1.328299e+00 1.286792e+00 1.491946e+00 -2.375406e-01 -1.380787e+00 -1.692315e+00 -3.036576e+00 -4.616647e+00 -4.352040e+00 -2.744399e+00 -1.687608e+00 -5.730878e-01 -9.437893e-02 3.329268e-01 5.692488e-01 8.227978e-01 9.604143e-01 1.363130e+00 1.499398e+00 1.120529e+00 7.919809e-01 5.722013e-01 4.199475e-01 3.109373e-01 2.311269e-01 1.718848e-01 1.275970e-01 9.439343e-02 6.950630e-02 5.089632e-02 3.703511e-02 2.676392e-02 1.919909e-02 1.366551e-02 9.647866e-03 6.753847e-03 4.686794e-03 3.222874e-03 2.195774e-03 1.481174e-03 9.892355e-04 6.529125e-04 
4.359146e-04 2.771019e-04 1.719420e-04 1.017160e-04 5.628465e-05 2.575489e-05 6.793154e-06 -6.352098e-06 -1.370084e-05 -1.917576e-05 -2.129652e-05 -2.318809e-05 -2.280121e-05 -2.284300e-05 -2.117092e-05 -2.015394e-05 -1.778938e-05 -1.607179e-05 -1.322729e-05 -1.080571e-05 -7.243744e-06 -3.558755e-06 1.725705e-06 8.253734e-06 1.766208e-05 3.046278e-05 4.883693e-05 7.444963e-05 1.104980e-04 1.600377e-04 2.276078e-04 3.174254e-04 4.349227e-04 5.838232e-04 7.679220e-04 9.855901e-04 1.232144e-03 1.489836e-03 1.731281e-03 1.902757e-03 1.929578e-03 1.691051e-03 1.029679e-03 -2.819130e-04 -2.524271e-03 -6.067867e-03 -1.134282e-02 -1.886906e-02 -2.920460e-02 -4.295306e-02 -6.068438e-02 -8.290365e-02 -1.099477e-01 -1.419133e-01 -1.785544e-01 -2.192028e-01 -2.627178e-01 -3.074758e-01 -3.514377e-01 -3.922863e-01 -4.276297e-01 -4.552676e-01 -4.734265e-01 -4.809665e-01 -4.774556e-01 -4.631008e-01 -4.385715e-01 -4.046571e-01 -3.619373e-01 -3.103499e-01 -2.488173e-01 -1.748373e-01 -8.415036e-02 2.940744e-02 1.736599e-01 3.571385e-01 5.873468e-01 8.679708e-01 1.195454e+00 1.554793e+00 1.915519e+00 2.228816e+00 2.428045e+00 2.439962e+00 2.216876e+00 1.804697e+00 1.415394e+00 1.324035e+00 -7.413532e-01 -2.716983e+00 -2.748017e+00 -5.575060e+00 -6.038214e+00 -1.883443e+00 7.367219e-01 2.116628e+00 2.905631e+00 3.321168e+00 3.420400e+00 3.496145e+00 3.582992e+00 3.546950e+00 3.730361e+00 4.434736e+00 4.110519e+00 2.360300e+00 1.336948e+00 8.326715e-01 5.534883e-01 3.834772e-01 2.724101e-01 1.962755e-01 1.424393e-01 1.036386e-01 7.536937e-02 5.466614e-02 3.948332e-02 2.836524e-02 2.025098e-02 1.435812e-02 1.010387e-02 7.053683e-03 4.883098e-03 3.350723e-03 2.278116e-03 1.533493e-03 1.021464e-03 6.718957e-04 
4.303627e-04 2.678663e-04 1.603743e-04 8.800555e-05 4.150167e-05 9.748871e-06 -9.387291e-06 -2.302060e-05 -2.978286e-05 -3.508993e-05 -3.599323e-05 -3.717368e-05 -3.512972e-05 -3.409058e-05 -3.055562e-05 -2.828381e-05 -2.406174e-05 -2.106190e-05 -1.646885e-05 -1.274351e-05 -7.433807e-06 -2.161790e-06 5.349377e-06 1.449501e-05 2.775113e-05 4.583026e-05 7.199819e-05 1.087350e-04 1.608570e-04 2.330789e-04 3.324172e-04 4.657870e-04 6.421425e-04 8.688192e-04 1.153818e-03 1.498993e-03 1.902859e-03 2.348034e-03 2.805055e-03 3.211048e-03 3.475550e-03 3.447815e-03 2.926961e-03 1.617619e-03 -8.507740e-04 -4.975074e-03 -1.134154e-02 -2.067036e-02 -3.374926e-02 -5.144870e-02 -7.461464e-02 -1.040282e-01 -1.402576e-01 -1.835525e-01 -2.336852e-01 -2.898192e-01 -3.504178e-01 -4.132004e-01 -4.752313e-01 -5.331070e-01 -5.832793e-01 -6.224764e-01 -6.481042e-01 -6.586028e-01 -6.535814e-01 -6.337363e-01 -6.005616e-01 -5.558455e-01 -5.011698e-01 -4.373160e-01 -3.637256e-01 -2.778787e-01 -1.746029e-01 -4.554168e-02 1.209934e-01 3.390499e-01 6.229631e-01 9.834525e-01 1.422703e+00 1.927532e+00 2.462015e+00 2.958637e+00 3.310035e+00 3.367804e+00 2.977121e+00 2.114176e+00 1.219799e+00 -8.602788e-01 -3.156765e+00 -3.679166e+00 -8.214416e+00 -5.808525e+00 1.571320e+00 4.637835e+00 4.961273e+00 4.404294e+00 4.307967e+00 3.594907e+00 3.377442e+00 2.885139e+00 2.649729e+00 2.399162e+00 2.028016e+00 2.474394e+00 3.557277e+00 2.326464e+00 1.401749e+00 8.953833e-01 5.980129e-01 4.124487e-01 2.907146e-01 2.077642e-01 1.496641e-01 1.082094e-01 7.828004e-02 5.653185e-02 4.068529e-02 2.914267e-02 2.075467e-02 1.468438e-02 1.031447e-02 7.188576e-03 4.968281e-03 3.403027e-03 2.308691e-03 1.549376e-03 1.027556e-03 6.710037e-04 