# vtk DataFile Version 2.0
Comment goes here
ASCII

DATASET STRUCTURED_POINTS
DIMENSIONS    128   128   1

ORIGIN    0.000   0.000   0.000
SPACING   0.0156250.015625   1.000

POINT_DATA   16384
SCALARS Omega double
LOOKUP_TABLE default

-1.006526e-06 -7.909937e-07 -6.265773e-07 -4.862754e-07 -3.847940e-07 -2.950529e-07 -2.352338e-07 -1.784041e-07 -1.452429e-07 -1.092558e-07 -9.244922e-08 -6.925355e-08 -6.175801e-08 -4.601374e-08 -4.294170e-08 -3.106926e-08 -2.895433e-08 -1.854496e-08 -1.496428e-08 -4.538038e-09 1.916119e-09 1.279947e-08 2.217958e-08 3.242074e-08 4.266706e-08 4.867851e-08 5.437650e-08 4.860937e-08 3.918667e-08 8.060521e-09 -3.462999e-08 -1.134348e-07 -2.181448e-07 -3.789937e-07 -5.886087e-07 -8.816377e-07 -1.256899e-06 -1.751722e-06 -2.374517e-06 -3.163082e-06 -4.138198e-06 -5.335369e-06 -6.788920e-06 -8.528592e-06 -1.060054e-05 -1.302426e-05 -1.585169e-05 -1.908617e-05 -2.277377e-05 -2.689402e-05 -3.146922e-05 -3.644585e-05 -4.179917e-05 -4.743293e-05 -5.324969e-05 -5.910288e-05 -6.480003e-05 -7.014281e-05 -7.483255e-05 -7.862862e-05 -8.113446e-05 -8.209181e-05 -8.104038e-05 -7.774603e-05 -7.174639e-05 -6.288855e-05 -5.079285e-05 -3.545433e-05 -1.667343e-05 5.340708e-06 3.051378e-05 5.837287e-05 8.850312e-05 1.201581e-04 1.525746e-04 1.847919e-04 2.157832e-04 2.445220e-04 2.699105e-04 2.910805e-04 3.071321e-04 3.175915e-04 3.220168e-04 3.204879e-04 3.131767e-04 3.007451e-04 2.839860e-04 2.640495e-04 2.422067e-04 2.198823e-04 1.985039e-04 1.793792e-04 1.635724e-04 1.517446e-04 1.440711e-04 1.401976e-04 1.392613e-04 1.400191e-04 1.409819e-04 1.406456e-04 1.376828e-04 1.311743e-04 1.207767e-04 1.068171e-04 9.025220e-05 7.244159e-05 5.484255e-05 3.869181e-05 2.482803e-05 1.364712e-05 5.162697e-06 -8.677071e-07 -4.836912e-06 -7.174938e-06 -8.301912e-06 -8.573578e-06 -8.286831e-06 -7.659412e-06 -6.859485e-06 -5.992644e-06 -5.139439e-06 -4.335997e-06 -3.615382e-06 -2.977169e-06 -2.433667e-06 -1.967594e-06 -1.585219e-06 -1.262474e-06 
1.754416e-03 1.370377e-03 1.057915e-03 8.043165e-04 6.006256e-04 4.372749e-04 3.083740e-04 2.067808e-04 1.289184e-04 6.946610e-05 2.651614e-05 -3.895725e-06 -2.253139e-05 -3.233417e-05 -3.333251e-05 -2.768346e-05 -1.500666e-05 3.151391e-06 2.731160e-05 5.637295e-05 9.074906e-05 1.295792e-04 1.729043e-04 2.198100e-04 2.696459e-04 3.210197e-04 3.721875e-04 4.207007e-04 4.632221e-04 4.955157e-04 5.120679e-04 5.060165e-04 4.690616e-04 3.908752e-04 2.598497e-04 6.153327e-05 -2.192322e-04 -6.012300e-04 -1.102871e-03 -1.746685e-03 -2.553179e-03 -3.546873e-03 -4.748048e-03 -6.179965e-03 -7.858969e-03 -9.802203e-03 -1.201702e-02 -1.450822e-02 -1.726820e-02 -2.028258e-02 -2.352293e-02 -2.694968e-02 -3.050914e-02 -3.413311e-02 -3.774142e-02 -4.123822e-02 -4.452000e-02 -4.746966e-02 -4.996839e-02 -5.188925e-02 -5.310999e-02 -5.350858e-02 -5.297306e-02 -5.140175e-02 -4.870686e-02 -4.482156e-02 -3.969587e-02 -3.331174e-02 -2.567199e-02 -1.682264e-02 -6.837465e-03 4.156061e-03 1.599403e-02 2.845331e-02 4.126974e-02 5.412776e-02 6.668023e-02 7.855848e-02 8.939333e-02 9.884596e-02 1.066244e-01 1.125233e-01 1.164259e-01 1.183345e-01 1.183539e-01 1.167043e-01 1.136987e-01 1.097464e-01 1.053331e-01 1.010105e-01 9.735328e-02 9.491091e-02 9.411999e-02 9.524628e-02 9.830645e-02 1.030694e-01 1.090472e-01 1.155674e-01 1.218218e-01 1.269587e-01 1.301505e-01 1.307001e-01 1.281632e-01 1.224857e-01 1.140772e-01 1.037371e-01 9.243484e-02 8.106337e-02 7.027966e-02 6.046907e-02 5.178229e-02 4.421750e-02 3.768407e-02 3.206178e-02 2.722490e-02 2.306267e-02 1.947885e-02 1.639506e-02 1.374487e-02 1.147322e-02 9.532201e-03 7.880254e-03 6.480449e-03 5.299670e-03 4.308615e-03 3.480535e-03 2.792398e-03 2.222878e-03 
3.488133e-03 2.720253e-03 2.095868e-03 1.589032e-03 1.182330e-03 8.560876e-04 5.990891e-04 3.964782e-04 2.417148e-04 1.235537e-04 3.882050e-05 -2.103529e-05 -5.688990e-05 -7.524739e-05 -7.553238e-05 -6.264386e-05 -3.522597e-05 3.104672e-06 5.392731e-05 1.146024e-04 1.864187e-04 2.673206e-04 3.577601e-04 4.556839e-04 5.600567e-04 6.679717e-04 7.760905e-04 8.794721e-04 9.714644e-04 1.043588e-03 1.084698e-03 1.081041e-03 1.015742e-03 8.680175e-04 6.142022e-04 2.250799e-04 -3.303108e-04 -1.090124e-03 -2.092034e-03 -3.382034e-03 -5.002197e-03 -7.002877e-03 -9.425847e-03 -1.231929e-02 -1.571715e-02 -1.965556e-02 -2.415033e-02 -2.921277e-02 -3.482836e-02 -4.096950e-02 -4.757913e-02 -5.457819e-02 -6.185791e-02 -6.928041e-02 -7.668249e-02 -8.386911e-02 -9.062910e-02 -9.672321e-02 -1.019088e-01 -1.059259e-01 -1.085248e-01 -1.094554e-01 -1.084890e-01 -1.054166e-01 -1.000590e-01 -9.227770e-02 -8.196948e-02 -6.909376e-02 -5.365318e-02 -3.573551e-02 -1.548588e-02 6.843423e-03 3.092373e-02 5.630626e-02 8.245361e-02 1.087223e-01 1.343962e-01 1.587141e-01 1.809049e-01 2.002620e-01 2.161693e-01 2.281965e-01 2.360944e-01 2.398661e-01 2.397255e-01 2.361235e-01 2.296983e-01 2.212829e-01 2.118732e-01 2.026143e-01 1.947189e-01 1.893676e-01 1.875117e-01 1.897437e-01 1.961169e-01 2.061530e-01 2.188229e-01 2.327088e-01 2.461140e-01 2.572514e-01 2.643631e-01 2.659242e-01 2.609084e-01 2.491313e-01 2.314856e-01 2.097915e-01 1.862365e-01 1.627662e-01 1.407366e-01 1.208782e-01 1.034203e-01 8.829052e-02 7.525831e-02 6.405402e-02 5.441304e-02 4.610986e-02 3.895338e-02 3.278933e-02 2.748809e-02 2.294148e-02 1.905560e-02 1.574790e-02 1.294530e-02 1.058137e-02 8.597805e-03 6.940630e-03 5.564022e-03 4.424790e-03 
5.178231e-03 4.027424e-03 3.091597e-03 2.332444e-03 1.723126e-03 1.234866e-03 8.501407e-04 5.474760e-04 3.163429e-04 1.407222e-04 1.511408e-05 -7.245259e-05 -1.240333e-04 -1.485490e-04 -1.458497e-04 -1.224904e-04 -7.708482e-05 -1.432527e-05 6.761204e-05 1.654220e-04 2.806237e-04 4.106921e-04 5.560353e-04 7.140154e-04 8.829429e-04 1.058758e-03 1.236410e-03 1.408608e-03 1.565350e-03 1.693808e-03 1.777151e-03 1.794334e-03 1.719703e-03 1.521269e-03 1.162802e-03 5.991541e-04 -2.174085e-04 -1.346058e-03 -2.845297e-03 -4.786758e-03 -7.236301e-03 -1.027280e-02 -1.396237e-02 -1.838115e-02 -2.358392e-02 -2.962890e-02 -3.654349e-02 -4.434813e-02 -5.302362e-02 -6.253047e-02 -7.278349e-02 -8.366318e-02 -9.500343e-02 -1.065927e-01 -1.181790e-01 -1.294608e-01 -1.401101e-01 -1.497553e-01 -1.580181e-01 -1.644941e-01 -1.687934e-01 -1.705264e-01 -1.693358e-01 -1.648961e-01 -1.569258e-01 -1.452073e-01 -1.295747e-01 -1.099586e-01 -8.635191e-02 -5.887862e-02 -2.774702e-02 6.667871e-03 4.387423e-02 8.318779e-02 1.237832e-01 1.646560e-01 2.046813e-01 2.426446e-01 2.773116e-01 3.075342e-01 3.323144e-01 3.509445e-01 3.630203e-01 3.685417e-01 3.678479e-01 3.616453e-01 3.509210e-01 3.369578e-01 3.213019e-01 3.057730e-01 2.923592e-01 2.830524e-01 2.795006e-01 2.827569e-01 2.929609e-01 3.093437e-01 3.302152e-01 3.532478e-01 3.756910e-01 3.946656e-01 4.072848e-01 4.109104e-01 4.035887e-01 3.847664e-01 3.559673e-01 3.206032e-01 2.826936e-01 2.455891e-01 2.113951e-01 1.810588e-01 1.547079e-01 1.320470e-01 1.126038e-01 9.590543e-02 8.152621e-02 6.912263e-02 5.841288e-02 4.917396e-02 4.121864e-02 3.439073e-02 2.855255e-02 2.358280e-02 1.937225e-02 1.582191e-02 1.284362e-02 1.035660e-02 8.291144e-03 6.582716e-03 
6.797194e-03 5.264966e-03 4.020002e-03 3.010146e-03 2.200639e-03 1.552053e-03 1.042251e-03 6.414797e-04 3.370566e-04 1.064139e-04 -5.635764e-05 -1.684926e-04 -2.312901e-04 -2.579272e-04 -2.467875e-04 -2.078307e-04 -1.378543e-04 -4.419709e-05 7.683018e-05 2.199404e-04 3.882870e-04 5.778647e-04 7.901807e-04 1.021326e-03 1.269801e-03 1.530006e-03 1.795689e-03 2.057048e-03 2.300876e-03 2.509928e-03 2.661418e-03 2.726862e-03 2.671081e-03 2.450420e-03 2.014786e-03 1.302061e-03 2.458151e-04 -1.236048e-03 -3.225469e-03 -5.822728e-03 -9.120784e-03 -1.323126e-02 -1.824850e-02 -2.428197e-02 -3.141143e-02 -3.972321e-02 -4.926009e-02 -6.005737e-02 -7.209368e-02 -8.532161e-02 -9.962770e-02 -1.148525e-01 -1.307684e-01 -1.470856e-01 -1.634541e-01 -1.794552e-01 -1.946301e-01 -2.084584e-01 -2.204091e-01 -2.299132e-01 -2.364229e-01 -2.393891e-01 -2.383102e-01 -2.327266e-01 -2.222424e-01 -2.065463e-01 -1.854001e-01 -1.586920e-01 -1.263957e-01 -8.865768e-02 -4.573978e-02 1.870949e-03 5.352127e-02 1.082874e-01 1.650322e-01 2.223530e-01 2.786468e-01 3.321646e-01 3.810942e-01 4.237406e-01 4.586052e-01 4.846301e-01 5.012012e-01 5.083207e-01 5.064801e-01 4.966891e-01 4.803173e-01 4.591181e-01 4.352220e-01 4.112315e-01 3.901315e-01 3.750566e-01 3.686818e-01 3.727760e-01 3.876392e-01 4.121303e-01 4.436796e-01 4.787481e-01 5.132761e-01 5.431108e-01 5.639909e-01 5.716937e-01 5.626176e-01 5.351496e-01 4.916381e-01 4.383788e-01 3.825166e-01 3.293893e-01 2.817909e-01 2.405371e-01 2.052894e-01 1.752672e-01 1.496084e-01 1.275718e-01 1.085558e-01 9.210506e-02 7.786190e-02 6.554724e-02 5.492754e-02 4.580437e-02 3.800113e-02 3.135853e-02 2.573272e-02 2.099095e-02 1.701576e-02 1.369786e-02 1.094430e-02 8.667558e-03 
8.317241e-03 6.405936e-03 4.853096e-03 3.594551e-03 2.585699e-03 1.778572e-03 1.144425e-03 6.475227e-04 2.709247e-04 -1.207956e-05 -2.100061e-04 -3.429174e-04 -4.135807e-04 -4.370405e-04 -4.123731e-04 -3.506738e-04 -2.489129e-04 -1.149926e-04 5.492676e-05 2.554123e-04 4.898938e-04 7.544257e-04 1.050659e-03 1.374613e-03 1.724421e-03 2.093757e-03 2.474938e-03 2.856036e-03 3.220589e-03 3.546832e-03 3.805943e-03 3.961304e-03 3.967829e-03 3.768790e-03 3.299224e-03 2.477765e-03 1.217307e-03 -5.904662e-04 -3.054193e-03 -6.307249e-03 -1.047441e-02 -1.570568e-02 -2.212973e-02 -2.989595e-02 -3.911617e-02 -4.991176e-02 -6.234800e-02 -7.648117e-02 -9.229322e-02 -1.097325e-01 -1.286590e-01 -1.488722e-01 -1.700789e-01 -1.919030e-01 -2.138848e-01 -2.354726e-01 -2.560569e-01 -2.749466e-01 -2.914318e-01 -3.047540e-01 -3.141795e-01 -3.189762e-01 -3.184731e-01 -3.120579e-01 -2.991995e-01 -2.794804e-01 -2.525715e-01 -2.183077e-01 -1.766241e-01 -1.276756e-01 -7.175612e-02 -9.451380e-03 5.843838e-02 1.307437e-01 2.059979e-01 2.823416e-01 3.576131e-01 4.293930e-01 4.951424e-01 5.524327e-01 5.991090e-01 6.336237e-01 6.551005e-01 6.635508e-01 6.596973e-01 6.449396e-01 6.210787e-01 5.903198e-01 5.553454e-01 5.196209e-01 4.874636e-01 4.637097e-01 4.526569e-01 4.572248e-01 4.780011e-01 5.132893e-01 5.592913e-01 6.106750e-01 6.617045e-01 7.068826e-01 7.404431e-01 7.559346e-01 7.467399e-01 7.081748e-01 6.434368e-01 5.648334e-01 4.853173e-01 4.129620e-01 3.507254e-01 2.984515e-01 2.546702e-01 2.177317e-01 1.862180e-01 1.590791e-01 1.355532e-01 1.151060e-01 9.733395e-02 8.192581e-02 6.861547e-02 5.717173e-02 4.738182e-02 3.905096e-02 3.199911e-02 2.606024e-02 2.108503e-02 1.693615e-02 1.349500e-02 1.065201e-02 
9.698306e-03 7.411225e-03 5.554850e-03 4.050557e-03 2.846572e-03 1.883777e-03 1.129831e-03 5.401584e-04 9.680345e-05 -2.341824e-04 -4.605402e-04 -6.084057e-04 -6.786008e-04 -6.912938e-04 -6.429178e-04 -5.488085e-04 -4.029565e-04 -2.166185e-04 1.706544e-05 2.901800e-04 6.089340e-04 9.676534e-04 1.370200e-03 1.811314e-03 2.290334e-03 2.799543e-03 3.330855e-03 3.869957e-03 4.397556e-03 4.887293e-03 5.304051e-03 5.602877e-03 5.727715e-03 5.608030e-03 5.161972e-03 4.287179e-03 2.872737e-03 7.808205e-04 -2.128318e-03 -6.026444e-03 -1.107594e-02 -1.747277e-02 -2.538702e-02 -3.501782e-02 -4.651698e-02 -6.005221e-02 -7.571901e-02 -9.360590e-02 -1.137039e-01 -1.359656e-01 -1.602257e-01 -1.862450e-01 -2.136583e-01 -2.419958e-01 -2.706723e-01 -2.989835e-01 -3.261435e-01 -3.512594e-01 -3.734102e-01 -3.916100e-01 -4.049061e-01 -4.123466e-01 -4.130633e-01 -4.062618e-01 -3.912578e-01 -3.675054e-01 -3.345728e-01 -2.922220e-01 -2.403341e-01 -1.790472e-01 -1.086623e-01 -2.983201e-02 5.652069e-02 1.489982e-01 2.457899e-01 3.445352e-01 4.424021e-01 5.361461e-01 6.222635e-01 6.973460e-01 7.582982e-01 8.028951e-01 8.298710e-01 8.393016e-01 8.322747e-01 8.107768e-01 7.771175e-01 7.338565e-01 6.839908e-01 6.317934e-01 5.833642e-01 5.462749e-01 5.274793e-01 5.318559e-01 5.603975e-01 6.104525e-01 6.765783e-01 7.503212e-01 8.237344e-01 8.903537e-01 9.433668e-01 9.734751e-01 9.689383e-01 9.159678e-01 8.173966e-01 7.000559e-01 5.883039e-01 4.931955e-01 4.159146e-01 3.535044e-01 3.022907e-01 2.593110e-01 2.225006e-01 1.905527e-01 1.626328e-01 1.382025e-01 1.168670e-01 9.831389e-02 8.226327e-02 6.845726e-02 5.665067e-02 4.661089e-02 3.812154e-02 3.097946e-02 2.500334e-02 2.002441e-02 1.589909e-02 1.249300e-02 
1.090108e-02 8.242815e-03 6.085301e-03 4.338477e-03 2.940537e-03 1.824654e-03 9.518271e-04 2.723614e-04 -2.360187e-04 -6.106230e-04 -8.619211e-04 -1.018205e-03 -1.081936e-03 -1.074567e-03 -9.933923e-04 -8.543393e-04 -6.516604e-04 -3.966078e-04 -8.210236e-05 2.844398e-04 7.097904e-04 1.189081e-03 1.726834e-03 2.318541e-03 2.963857e-03 3.655141e-03 4.383567e-03 5.133278e-03 5.882142e-03 6.599317e-03 7.243369e-03 7.760247e-03 8.082441e-03 8.123753e-03 7.783969e-03 6.936512e-03 5.443604e-03 3.133015e-03 -1.712934e-04 -4.686357e-03 -1.061986e-02 -1.822276e-02 -2.771685e-02 -3.936200e-02 -5.336230e-02 -6.994411e-02 -8.924604e-02 -1.114005e-01 -1.364187e-01 -1.642653e-01 -1.947553e-01 -2.276111e-01 -2.623908e-01 -2.985192e-01 -3.352666e-01 -3.717505e-01 -4.069746e-01 -4.398052e-01 -4.690650e-01 -4.934960e-01 -5.118786e-01 -5.230007e-01 -5.257569e-01 -5.191432e-01 -5.022942e-01 -4.745222e-01 -4.352728e-01 -3.842236e-01 -3.211770e-01 -2.462286e-01 -1.596437e-01 -6.209737e-02 4.541920e-02 1.613154e-01 2.834547e-01 4.089252e-01 5.341173e-01 6.547321e-01 7.660050e-01 8.631390e-01 9.417130e-01 9.984672e-01 1.031607e+00 1.041343e+00 1.029471e+00 9.989616e-01 9.528546e-01 8.937795e-01 8.243290e-01 7.489746e-01 6.762041e-01 6.183024e-01 5.867017e-01 5.897592e-01 6.289803e-01 6.995157e-01 7.946930e-01 8.991957e-01 1.002013e+00 1.097398e+00 1.179687e+00 1.236538e+00 1.250700e+00 1.180369e+00 1.020667e+00 8.395700e-01 6.838062e-01 5.639884e-01 4.738788e-01 4.042487e-01 3.478679e-01 3.002336e-01 2.588222e-01 2.223242e-01 1.900344e-01 1.615415e-01 1.365322e-01 1.147302e-01 9.585480e-02 7.962596e-02 6.576182e-02 5.398965e-02 4.405026e-02 3.570157e-02 2.872502e-02 2.292039e-02 1.811523e-02 1.415176e-02 
1.186498e-02 8.841358e-03 6.389376e-03 4.404223e-03 2.818195e-03 1.553054e-03 5.677493e-04 -1.967341e-04 -7.620453e-04 -1.173503e-03 -1.439163e-03 -1.594408e-03 -1.638157e-03 -1.598136e-03 -1.467436e-03 -1.267350e-03 -9.876032e-04 -6.437372e-04 -2.240779e-04 2.608686e-04 8.222863e-04 1.453380e-03 2.162571e-03 2.944278e-03 3.801033e-03 4.724297e-03 5.706320e-03 6.729380e-03 7.769505e-03 8.791370e-03 9.747278e-03 1.057393e-02 1.119129e-02 1.149657e-02 1.136874e-02 1.065459e-02 9.185295e-03 6.749464e-03 3.128534e-03 -1.947709e-03 -8.740845e-03 -1.756853e-02 -2.871529e-02 -4.251737e-02 -5.924424e-02 -7.919966e-02 -1.025791e-01 -1.295788e-01 -1.602415e-01 -1.945611e-01 -2.323375e-01 -2.732626e-01 -3.168105e-01 -3.622923e-01 -4.088097e-01 -4.552714e-01 -5.004283e-01 -5.428546e-01 -5.810605e-01 -6.134521e-01 -6.384861e-01 -6.546299e-01 -6.604981e-01 -6.548358e-01 -6.365766e-01 -6.048709e-01 -5.590370e-01 -4.986555e-01 -4.234363e-01 -3.333999e-01 -2.287268e-01 -1.100404e-01 2.168629e-02 1.647622e-01 3.167876e-01 4.743100e-01 6.328339e-01 7.867745e-01 9.296711e-01 1.054796e+00 1.155719e+00 1.227601e+00 1.267750e+00 1.276683e+00 1.257488e+00 1.215080e+00 1.153811e+00 1.075964e+00 9.818352e-01 8.740144e-01 7.637846e-01 6.728189e-01 6.197509e-01 6.199017e-01 6.750000e-01 7.730357e-01 9.132598e-01 1.060117e+00 1.198822e+00 1.329338e+00 1.454032e+00 1.555550e+00 1.630804e+00 1.548000e+00 1.258480e+00 9.658509e-01 7.544559e-01 6.151423e-01 5.204796e-01 4.499120e-01 3.920004e-01 3.414072e-01 2.959631e-01 2.549293e-01 2.180679e-01 1.852628e-01 1.563584e-01 1.311358e-01 1.093163e-01 9.058700e-02 7.462110e-02 6.109383e-02 4.969761e-02 4.014338e-02 3.217357e-02 2.555128e-02 2.007612e-02 1.556316e-02 
1.253349e-02 9.151807e-03 6.408658e-03 4.189069e-03 2.415694e-03 1.004002e-03 -9.332245e-05 -9.391305e-04 -1.559152e-03 -2.001024e-03 -2.275484e-03 -2.419273e-03 -2.433053e-03 -2.345207e-03 -2.149843e-03 -1.868278e-03 -1.490563e-03 -1.031601e-03 -4.793264e-04 1.570759e-04 8.898782e-04 1.714171e-03 2.639966e-03 3.663761e-03 4.789680e-03 6.010714e-03 7.319778e-03 8.698917e-03 1.012245e-02 1.155127e-02 1.293160e-02 1.419046e-02 1.523485e-02 1.594351e-02 1.617274e-02 1.573885e-02 1.443787e-02 1.201292e-02 8.195578e-03 2.653062e-03 -4.941417e-03 -1.498522e-02 -2.784126e-02 -4.393896e-02 -6.363277e-02 -8.732373e-02 -1.152861e-01 -1.478004e-01 -1.849617e-01 -2.268097e-01 -2.731424e-01 -3.236270e-01 -3.776510e-01 -4.343983e-01 -4.927753e-01 -5.514427e-01 -6.088442e-01 -6.631974e-01 -7.126243e-01 -7.551185e-01 -7.887331e-01 -8.115491e-01 -8.218403e-01 -8.180661e-01 -7.989311e-01 -7.634229e-01 -7.107292e-01 -6.403405e-01 -5.518629e-01 -4.452121e-01 -3.204185e-01 -1.779505e-01 -1.862061e-02 1.559393e-01 3.432204e-01 5.393032e-01 7.387658e-01 9.344474e-01 1.117675e+00 1.278930e+00 1.408782e+00 1.499768e+00 1.547691e+00 1.553480e+00 1.522741e+00 1.464317e+00 1.385705e+00 1.288428e+00 1.166404e+00 1.013626e+00 8.431030e-01 6.991554e-01 6.087752e-01 6.040035e-01 6.876208e-01 8.144713e-01 1.036101e+00 1.240925e+00 1.416513e+00 1.580841e+00 1.766451e+00 1.916912e+00 2.186433e+00 2.140235e+00 1.515804e+00 1.025517e+00 7.662421e-01 6.335295e-01 5.536742e-01 4.924546e-01 4.373033e-01 3.849368e-01 3.353153e-01 2.891721e-01 2.471310e-01 2.095143e-01 1.763498e-01 1.474631e-01 1.225472e-01 1.012324e-01 8.312252e-02 6.782701e-02 5.497584e-02 4.422782e-02 3.527854e-02 2.785425e-02 2.172175e-02 1.667138e-02 
1.281580e-02 9.084183e-03 6.058122e-03 3.608464e-03 1.654257e-03 9.981155e-05 -1.101811e-03 -2.023086e-03 -2.686738e-03 -3.149297e-03 -3.416839e-03 -3.534551e-03 -3.497445e-03 -3.341796e-03 -3.055510e-03 -2.666880e-03 -2.159458e-03 -1.553760e-03 -8.310762e-04 -4.478628e-06 9.449454e-04 2.010237e-03 3.207760e-03 4.533514e-03 5.997128e-03 7.591817e-03 9.314170e-03 1.114569e-02 1.306100e-02 1.501744e-02 1.695603e-02 1.879417e-02 2.042536e-02 2.170894e-02 2.247613e-02 2.250984e-02 2.156611e-02 1.933636e-02 1.549444e-02 9.634160e-03 1.351871e-03 -9.846106e-03 -2.441706e-02 -4.290674e-02 -6.577484e-02 -9.354902e-02 -1.266055e-01 -1.653423e-01 -2.099289e-01 -2.604821e-01 -3.168128e-01 -3.785817e-01 -4.450871e-01 -5.153786e-01 -5.881352e-01 -6.617253e-01 -7.342179e-01 -8.033902e-01 -8.668804e-01 -9.221613e-01 -9.667847e-01 -9.983460e-01 -1.014713e+00 -1.014004e+00 -9.946851e-01 -9.555811e-01 -8.957807e-01 -8.147108e-01 -7.118941e-01 -5.871275e-01 -4.402249e-01 -2.713682e-01 -8.099970e-02 1.295772e-01 3.580438e-01 6.002662e-01 8.499890e-01 1.098290e+00 1.333637e+00 1.542610e+00 1.711109e+00 1.827287e+00 1.883919e+00 1.882236e+00 1.832165e+00 1.750767e+00 1.653497e+00 1.542714e+00 1.397894e+00 1.185597e+00 9.082625e-01 6.820565e-01 5.214548e-01 5.091610e-01 6.673338e-01 7.717211e-01 1.187758e+00 1.464138e+00 1.659596e+00 1.826558e+00 2.130826e+00 2.177688e+00 3.078835e+00 3.334467e+00 1.659629e+00 8.714764e-01 6.667931e-01 6.127473e-01 5.804592e-01 5.398055e-01 4.894499e-01 4.341981e-01 3.786330e-01 3.258182e-01 2.774441e-01 2.342392e-01 1.963283e-01 1.634916e-01 1.353275e-01 1.113573e-01 9.108424e-02 7.402765e-02 5.974350e-02 4.782725e-02 3.792552e-02 2.972205e-02 2.295295e-02 1.738011e-02 
1.263263e-02 8.559708e-03 5.252904e-03 2.575571e-03 4.385733e-04 -1.257649e-03 -2.565192e-03 -3.558416e-03 -4.263477e-03 -4.737800e-03 -4.989940e-03 -5.065488e-03 -4.961341e-03 -4.713802e-03 -4.312094e-03 -3.784007e-03 -3.113636e-03 -2.320190e-03 -1.384430e-03 -3.170753e-04 9.025974e-04 2.271067e-03 3.807730e-03 5.512773e-03 7.399545e-03 9.465329e-03 1.170994e-02 1.411727e-02 1.666269e-02 1.930185e-02 2.197120e-02 2.457906e-02 2.700532e-02 2.908865e-02 3.063328e-02 3.138489e-02 3.105446e-02 2.927453e-02 2.565158e-02 1.969434e-02 1.090675e-02 -1.318550e-03 -1.755573e-02 -3.849082e-02 -6.471850e-02 -9.692360e-02 -1.356197e-01 -1.813573e-01 -2.344170e-01 -2.950257e-01 -3.630356e-01 -4.381215e-01 -5.194976e-01 -6.060698e-01 -6.962554e-01 -7.880749e-01 -8.791370e-01 -9.666723e-01 -1.047706e+00 -1.119057e+00 -1.177636e+00 -1.220442e+00 -1.244840e+00 -1.248568e+00 -1.229836e+00 -1.187350e+00 -1.120152e+00 -1.027682e+00 -9.094347e-01 -7.650994e-01 -5.942212e-01 -3.965221e-01 -1.717946e-01 7.941386e-02 3.554779e-01 6.525590e-01 9.639314e-01 1.278872e+00 1.582367e+00 1.855532e+00 2.077166e+00 2.227805e+00 2.294193e+00 2.276475e+00 2.191463e+00 2.072387e+00 1.955034e+00 1.851578e+00 1.717350e+00 1.440646e+00 9.366811e-01 6.101213e-01 2.941855e-01 2.632007e-01 8.265917e-01 6.977656e-01 8.119163e-01 1.411343e+00 1.291675e+00 8.792158e-01 9.148243e-01 4.641663e-01 1.508268e+00 1.699816e+00 5.910225e-02 1.549468e-01 4.342388e-01 5.858847e-01 6.295896e-01 6.092838e-01 5.574318e-01 4.933604e-01 4.275687e-01 3.653063e-01 3.089069e-01 2.591351e-01 2.159428e-01 1.788909e-01 1.473683e-01 1.207211e-01 9.830730e-02 7.953382e-02 6.386534e-02 5.082919e-02 4.001572e-02 3.106799e-02 2.368743e-02 1.761203e-02 
1.185041e-02 7.443575e-03 3.862605e-03 9.587972e-04 -1.356646e-03 -3.193346e-03 -4.599304e-03 -5.658534e-03 -6.390782e-03 -6.863460e-03 -7.077413e-03 -7.088611e-03 -6.885603e-03 -6.514992e-03 -5.957352e-03 -5.249884e-03 -4.367819e-03 -3.337968e-03 -2.131934e-03 -7.654691e-04 7.916829e-04 2.533922e-03 4.490425e-03 6.662042e-03 9.071603e-03 1.171881e-02 1.461144e-02 1.773563e-02 2.107118e-02 2.457276e-02 2.817462e-02 3.177672e-02 3.524606e-02 3.840017e-02 4.101468e-02 4.279504e-02 4.340242e-02 4.240310e-02 3.932716e-02 3.358456e-02 2.457219e-02 1.154689e-02 -6.204138e-03 -2.953968e-02 -5.921921e-02 -9.612840e-02 -1.409558e-01 -1.944571e-01 -2.570658e-01 -3.291738e-01 -4.107099e-01 -5.014049e-01 -6.004001e-01 -7.064617e-01 -8.177088e-01 -9.317523e-01 -1.045637e+00 -1.155908e+00 -1.258813e+00 -1.350322e+00 -1.426533e+00 -1.483669e+00 -1.518488e+00 -1.528273e+00 -1.510999e+00 -1.465309e+00 -1.390329e+00 -1.285648e+00 -1.150874e+00 -9.856747e-01 -7.893124e-01 -5.608981e-01 -2.992061e-01 -3.447391e-03 3.262721e-01 6.873394e-01 1.073455e+00 1.472568e+00 1.865847e+00 2.227228e+00 2.524867e+00 2.726326e+00 2.805825e+00 2.757656e+00 2.606611e+00 2.415236e+00 2.266903e+00 2.217292e+00 2.206307e+00 1.949210e+00 8.042850e-01 6.286713e-01 1.497111e+00 8.908588e-01 -3.413717e-01 -2.640853e-01 -7.629700e-01 -2.178100e+00 -2.716375e+00 -3.388549e+00 -3.750595e+00 -3.945915e+00 -4.138116e+00 -4.197766e+00 -2.848761e+00 -6.131354e-01 3.481881e-01 6.847567e-01 7.584945e-01 7.242242e-01 6.497646e-01 5.647990e-01 4.821315e-01 4.068589e-01 3.405905e-01 2.833494e-01 2.344828e-01 1.930900e-01 1.582192e-01 1.289660e-01 1.045056e-01 8.410933e-02 6.714305e-02 5.305872e-02 4.139251e-02 3.174410e-02 2.378563e-02 1.722899e-02 
1.036129e-02 5.625068e-03 1.765313e-03 -1.369345e-03 -3.872809e-03 -5.854693e-03 -7.366036e-03 -8.489856e-03 -9.248154e-03 -9.707334e-03 -9.870412e-03 -9.792697e-03 -9.465008e-03 -8.933479e-03 -8.180762e-03 -7.243250e-03 -6.097425e-03 -4.768239e-03 -3.226950e-03 -1.485746e-03 4.882127e-04 2.694935e-03 5.168649e-03 7.917646e-03 1.097179e-02 1.433908e-02 1.803487e-02 2.205245e-02 2.637707e-02 3.096627e-02 3.575367e-02 4.063322e-02 4.545987e-02 5.003030e-02 5.409014e-02 5.730184e-02 5.927127e-02 5.949135e-02 5.740413e-02 5.230758e-02 4.347156e-02 2.999551e-02 1.099751e-02 -1.458625e-02 -4.772292e-02 -8.954373e-02 -1.409673e-01 -2.030113e-01 -2.763249e-01 -3.615273e-01 -4.586826e-01 -5.676281e-01 -6.874619e-01 -8.168193e-01 -9.534856e-01 -1.094591e+00 -1.236483e+00 -1.374845e+00 -1.504920e+00 -1.621584e+00 -1.719865e+00 -1.795001e+00 -1.842982e+00 -1.860580e+00 -1.845557e+00 -1.796634e+00 -1.713215e+00 -1.595280e+00 -1.442795e+00 -1.255585e+00 -1.032729e+00 -7.725768e-01 -4.725075e-01 -1.295668e-01 2.588327e-01 6.928881e-01 1.168381e+00 1.673307e+00 2.185408e+00 2.669929e+00 3.079888e+00 3.361469e+00 3.464104e+00 3.363299e+00 3.085929e+00 2.739729e+00 2.506827e+00 2.575321e+00 2.981020e+00 3.438594e+00 -5.722422e-01 -3.339619e+00 -2.019265e+00 -2.209747e+00 -3.075190e+00 -5.167063e+00 -5.545467e+00 -5.679632e+00 -5.576216e+00 -5.110967e+00 -5.139289e+00 -4.530520e+00 -5.441794e+00 -5.144335e+00 -2.240093e+00 1.426118e-01 9.122635e-01 1.068442e+00 1.013896e+00 8.952327e-01 7.661883e-01 6.456326e-01 5.393393e-01 4.480409e-01 3.706557e-01 3.055382e-01 2.509753e-01 2.053868e-01 1.673688e-01 1.357171e-01 1.093977e-01 8.754020e-02 6.940634e-02 5.437750e-02 4.193505e-02 3.164274e-02 2.314275e-02 1.612907e-02 
7.971308e-03 2.903992e-03 -1.237382e-03 -4.611964e-03 -7.307110e-03 -9.440258e-03 -1.105285e-02 -1.223729e-02 -1.300436e-02 -1.343196e-02 -1.351136e-02 -1.331116e-02 -1.281051e-02 -1.206958e-02 -1.105960e-02 -9.830203e-03 -8.346436e-03 -6.643999e-03 -4.682182e-03 -2.479983e-03 8.474125e-06 2.781177e-03 5.886696e-03 9.336051e-03 1.317436e-02 1.741593e-02 2.209088e-02 2.719995e-02 3.273999e-02 3.867310e-02 4.493710e-02 5.142195e-02 5.797361e-02 6.436866e-02 7.032319e-02 7.545431e-02 7.930919e-02 8.129966e-02 8.077077e-02 7.689259e-02 6.879109e-02 5.538095e-02 3.558348e-02 8.087107e-03 -2.832451e-02 -7.508984e-02 -1.334154e-01 -2.046624e-01 -2.897683e-01 -3.896747e-01 -5.046567e-01 -6.347458e-01 -7.790470e-01 -9.361013e-01 -1.103336e+00 -1.277324e+00 -1.453564e+00 -1.626645e+00 -1.790508e+00 -1.938579e+00 -2.064471e+00 -2.162107e+00 -2.226504e+00 -2.253817e+00 -2.241677e+00 -2.189077e+00 -2.096029e+00 -1.963298e+00 -1.791614e+00 -1.581341e+00 -1.331617e+00 -1.040087e+00 -7.023632e-01 -3.124379e-01 1.366289e-01 6.501755e-01 1.229051e+00 1.864242e+00 2.532424e+00 3.190084e+00 3.771060e+00 4.188563e+00 4.346398e+00 4.170834e+00 3.663019e+00 2.977487e+00 2.471918e+00 2.628110e+00 3.945786e+00 -4.198692e-01 -3.978320e+00 -3.091328e+00 -4.354735e+00 -8.219955e+00 -7.223465e+00 -4.277593e+00 -3.240749e+00 -1.201681e+00 -4.157277e-01 4.437957e-01 6.708969e-01 1.296434e+00 1.212983e+00 2.005209e+00 2.861344e+00 2.667073e+00 2.121616e+00 1.688220e+00 1.354118e+00 1.094106e+00 8.888791e-01 7.247798e-01 5.922700e-01 4.844654e-01 3.962734e-01 3.238390e-01 2.641692e-01 2.149187e-01 1.742067e-01 1.405254e-01 1.126408e-01 8.954903e-02 7.042085e-02 5.457392e-02 4.144674e-02 3.057080e-02 2.156902e-02 1.411808e-02 
4.536545e-03 -8.735669e-04 -5.319375e-03 -8.955136e-03 -1.186817e-02 -1.417013e-02 -1.590207e-02 -1.715129e-02 -1.792902e-02 -1.830968e-02 -1.828644e-02 -1.792621e-02 -1.721140e-02 -1.620170e-02 -1.487221e-02 -1.327207e-02 -1.136943e-02 -9.198034e-03 -6.717924e-03 -3.943293e-03 -8.252275e-04 2.642777e-03 6.516913e-03 1.082050e-02 1.561058e-02 2.091649e-02 2.678289e-02 3.322582e-02 4.025580e-02 4.784639e-02 5.594282e-02 6.443652e-02 7.316711e-02 8.189445e-02 9.030514e-02 9.797091e-02 1.043753e-01 1.088438e-01 1.106118e-01 1.087085e-01 1.020921e-01 8.946820e-02 6.952262e-02 4.065578e-02 1.343839e-03 -5.022050e-02 -1.156131e-01 -1.966261e-01 -2.945891e-01 -4.108768e-01 -5.460891e-01 -7.005652e-01 -8.735040e-01 -1.063417e+00 -1.267362e+00 -1.481286e+00 -1.699639e+00 -1.915625e+00 -2.121472e+00 -2.308671e+00 -2.468918e+00 -2.594384e+00 -2.678805e+00 -2.717637e+00 -2.708485e+00 -2.650960e+00 -2.546157e+00 -2.396192e+00 -2.203201e+00 -1.968652e+00 -1.692340e+00 -1.371462e+00 -9.998126e-01 -5.673024e-01 -6.063946e-02 5.341379e-01 1.227454e+00 2.018731e+00 2.888763e+00 3.788995e+00 4.632730e+00 5.289280e+00 5.585690e+00 5.342070e+00 4.450473e+00 3.059860e+00 1.783358e+00 1.716177e+00 -3.506443e+00 -7.633971e+00 -3.855332e+00 -8.888618e+00 -1.047446e+01 -1.956188e+00 1.174922e+00 2.989335e+00 4.395433e+00 5.589359e+00 5.340459e+00 5.808386e+00 5.850659e+00 5.821886e+00 6.222406e+00 6.886927e+00 7.821113e+00 5.233284e+00 3.251468e+00 2.236238e+00 1.642805e+00 1.257070e+00 9.862101e-01 7.856576e-01 6.317744e-01 5.108582e-01 4.142842e-01 3.362970e-01 2.728180e-01 2.208703e-01 1.781835e-01 1.430108e-01 1.139611e-01 8.993133e-02 7.002294e-02 5.351089e-02 3.980126e-02 2.840818e-02 1.893931e-02 1.106651e-02 
-2.241368e-04 -6.003996e-03 -1.078074e-02 -1.470968e-02 -1.786255e-02 -2.035521e-02 -2.221128e-02 -2.352682e-02 -2.429523e-02 -2.460467e-02 -2.443127e-02 -2.385982e-02 -2.285719e-02 -2.150312e-02 -1.975849e-02 -1.769191e-02 -1.525782e-02 -1.250584e-02 -9.381418e-03 -5.908501e-03 -2.021315e-03 2.284687e-03 7.085761e-03 1.241135e-02 1.834174e-02 2.491917e-02 3.221327e-02 4.025660e-02 4.908298e-02 5.868090e-02 6.901160e-02 7.997228e-02 9.140315e-02 1.030506e-01 1.145758e-01 1.255051e-01 1.352581e-01 1.430677e-01 1.480524e-01 1.490843e-01 1.449370e-01 1.340763e-01 1.149205e-01 8.553007e-02 4.402028e-02 -1.186620e-02 -8.415814e-02 -1.751974e-01 -2.868255e-01 -4.210080e-01 -5.788194e-01 -7.610815e-01 -9.672283e-01 -1.195866e+00 -1.443722e+00 -1.706058e+00 -1.976073e+00 -2.245200e+00 -2.503409e+00 -2.739549e+00 -2.942683e+00 -3.102533e+00 -3.211136e+00 -3.263071e+00 -3.256155e+00 -3.191102e+00 -3.070840e+00 -2.899664e+00 -2.681983e+00 -2.421303e+00 -2.118965e+00 -1.772620e+00 -1.374660e+00 -9.104022e-01 -3.579636e-01 3.095005e-01 1.118662e+00 2.085841e+00 3.206418e+00 4.437004e+00 5.679504e+00 6.756534e+00 7.391374e+00 7.203361e+00 5.791898e+00 3.047417e+00 -1.426195e-01 -3.730868e+00 -6.001545e+00 -4.648648e+00 -1.317011e+01 -9.877441e+00 2.021684e+00 7.185088e+00 7.557612e+00 7.612363e+00 7.568022e+00 6.370120e+00 6.323765e+00 5.203449e+00 5.093729e+00 4.305149e+00 4.181353e+00 4.317864e+00 7.275299e+00 5.346769e+00 3.448623e+00 2.391482e+00 1.747648e+00 1.324861e+00 1.029620e+00 8.135978e-01 6.499046e-01 5.227065e-01 4.220216e-01 3.412752e-01 2.758793e-01 2.225477e-01 1.788143e-01 1.428109e-01 1.130682e-01 8.843389e-02 6.797827e-02 5.095643e-02 3.676416e-02 2.490851e-02 1.499774e-02 6.702124e-03 