# vtk DataFile Version 2.0
Comment goes here
ASCII

DATASET STRUCTURED_POINTS
DIMENSIONS    128   128   1

ORIGIN    0.000   0.000   0.000
SPACING   0.0156250.015625   1.000

POINT_DATA   16384
SCALARS Omega double
LOOKUP_TABLE default

1.655285e-05 1.475678e-05 1.294074e-05 1.130127e-05 9.615222e-06 8.094262e-06 6.504437e-06 5.068612e-06 3.550260e-06 2.177275e-06 7.190902e-07 -5.995414e-07 -1.994835e-06 -3.254802e-06 -4.573603e-06 -5.762284e-06 -6.986516e-06 -8.090354e-06 -9.206368e-06 -1.022030e-05 -1.122930e-05 -1.216724e-05 -1.309618e-05 -1.400152e-05 -1.491338e-05 -1.586845e-05 -1.687104e-05 -1.800479e-05 -1.925724e-05 -2.075055e-05 -2.246731e-05 -2.455581e-05 -2.700808e-05 -2.998282e-05 -3.349781e-05 -3.770429e-05 -4.266295e-05 -4.849918e-05 -5.533282e-05 -6.324662e-05 -7.243223e-05 -8.291688e-05 -9.496968e-05 -1.085553e-04 -1.240148e-04 -1.412501e-04 -1.606538e-04 -1.820711e-04 -2.059077e-04 -2.319619e-04 -2.605946e-04 -2.915680e-04 -3.251239e-04 -3.609938e-04 -3.992166e-04 -4.394905e-04 -4.815676e-04 -5.251002e-04 -5.694829e-04 -6.143014e-04 -6.585469e-04 -7.017178e-04 -7.423923e-04 -7.799739e-04 -8.126653e-04 -8.397985e-04 -8.592958e-04 -8.704920e-04 -8.711964e-04 -8.608835e-04 -8.375000e-04 -8.008618e-04 -7.493887e-04 -6.834813e-04 -6.024325e-04 -5.074626e-04 -3.991327e-04 -2.796288e-04 -1.510414e-04 -1.647826e-05 1.204901e-04 2.561555e-04 3.859747e-04 5.062616e-04 6.124702e-04 7.017673e-04 7.708102e-04 8.184211e-04 8.434574e-04 8.468154e-04 8.298448e-04 7.952556e-04 7.462664e-04 6.865225e-04 6.198927e-04 5.499008e-04 4.798984e-04 4.125026e-04 3.498748e-04 2.934223e-04 2.440470e-04 2.020744e-04 1.674208e-04 1.396016e-04 1.178821e-04 1.013012e-04 8.888177e-05 7.962807e-05 7.271693e-05 6.742147e-05 6.322281e-05 5.970533e-05 5.660154e-05 5.372310e-05 5.094861e-05 4.822778e-05 4.550270e-05 4.280251e-05 4.008276e-05 3.741936e-05 3.475429e-05 3.219314e-05 2.965087e-05 2.725442e-05 2.488636e-05 2.269163e-05 2.052004e-05 1.853379e-05 
4.070953e-03 1.444634e-03 -7.898603e-04 -2.665054e-03 -4.207047e-03 -5.441530e-03 -6.388529e-03 -7.068792e-03 -7.498187e-03 -7.694337e-03 -7.670743e-03 -7.443483e-03 -7.025234e-03 -6.431794e-03 -5.676268e-03 -4.775127e-03 -3.742886e-03 -2.597383e-03 -1.355306e-03 -3.639620e-05 1.339869e-03 2.751383e-03 4.175334e-03 5.586776e-03 6.959064e-03 8.263899e-03 9.470357e-03 1.054626e-02 1.145608e-02 1.216334e-02 1.262784e-02 1.280867e-02 1.266133e-02 1.214089e-02 1.119966e-02 9.789899e-03 7.862819e-03 5.370293e-03 2.265734e-03 -1.495482e-03 -5.952986e-03 -1.114239e-02 -1.709015e-02 -2.381581e-02 -3.132522e-02 -3.961372e-02 -4.865866e-02 -5.842297e-02 -6.884832e-02 -7.985855e-02 -9.135500e-02 -1.032192e-01 -1.153119e-01 -1.274743e-01 -1.395320e-01 -1.512945e-01 -1.625627e-01 -1.731281e-01 -1.827817e-01 -1.913124e-01 -1.985149e-01 -2.041892e-01 -2.081425e-01 -2.101934e-01 -2.101632e-01 -2.078912e-01 -2.032106e-01 -1.959827e-01 -1.860552e-01 -1.733227e-01 -1.576673e-01 -1.390502e-01 -1.174360e-01 -9.291292e-02 -6.560458e-02 -3.580351e-02 -3.876559e-03 2.962027e-02 6.403046e-02 9.854394e-02 1.322617e-01 1.642366e-01 1.934970e-01 2.191781e-01 2.405020e-01 2.569587e-01 2.682632e-01 2.745238e-01 2.761865e-01 2.741118e-01 2.694535e-01 2.635812e-01 2.578562e-01 2.534770e-01 2.512648e-01 2.516295e-01 2.544887e-01 2.593890e-01 2.655169e-01 2.718793e-01 2.773461e-01 2.808076e-01 2.812662e-01 2.780088e-01 2.707447e-01 2.596900e-01 2.454799e-01 2.290037e-01 2.111719e-01 1.928049e-01 1.745303e-01 1.568110e-01 1.399394e-01 1.241004e-01 1.093825e-01 9.582206e-02 8.340988e-02 7.211399e-02 6.188351e-02 5.265805e-02 4.437174e-02 3.695568e-02 3.034242e-02 2.446489e-02 1.926114e-02 1.467125e-02 1.064210e-02 7.123096e-03 
7.713093e-03 2.470431e-03 -1.989243e-03 -5.732103e-03 -8.808227e-03 -1.127015e-02 -1.315590e-02 -1.450819e-02 -1.535684e-02 -1.573840e-02 -1.567809e-02 -1.520944e-02 -1.435617e-02 -1.315128e-02 -1.161949e-02 -9.795167e-03 -7.705979e-03 -5.388959e-03 -2.876297e-03 -2.086812e-04 2.575931e-03 5.432322e-03 8.315672e-03 1.117533e-02 1.395859e-02 1.660834e-02 1.906310e-02 2.125821e-02 2.312273e-02 2.458358e-02 2.556018e-02 2.597066e-02 2.572556e-02 2.473489e-02 2.290250e-02 2.013261e-02 1.632653e-02 1.138738e-02 5.220593e-03 -2.264192e-03 -1.114786e-02 -2.150328e-02 -3.338512e-02 -4.683458e-02 -6.186513e-02 -7.846981e-02 -9.660477e-02 -1.161982e-01 -1.371342e-01 -1.592623e-01 -1.823847e-01 -2.062654e-01 -2.306239e-01 -2.551423e-01 -2.794683e-01 -3.032192e-01 -3.259932e-01 -3.473702e-01 -3.669290e-01 -3.842449e-01 -3.989056e-01 -4.105097e-01 -4.186718e-01 -4.230292e-01 -4.232264e-01 -4.189409e-01 -4.098404e-01 -3.956426e-01 -3.760391e-01 -3.508073e-01 -3.196986e-01 -2.826139e-01 -2.394605e-01 -1.903855e-01 -1.356118e-01 -7.569537e-02 -1.135787e-02 5.630208e-02 1.259535e-01 1.959596e-01 2.644646e-01 3.295242e-01 3.891071e-01 4.414087e-01 4.847815e-01 5.181211e-01 5.407929e-01 5.529586e-01 5.555239e-01 5.502642e-01 5.396314e-01 5.265536e-01 5.139579e-01 5.044167e-01 4.996554e-01 5.005101e-01 5.067557e-01 5.173951e-01 5.306836e-01 5.445275e-01 5.565571e-01 5.644341e-01 5.660196e-01 5.597518e-01 5.449890e-01 5.222474e-01 4.929859e-01 4.591839e-01 4.227964e-01 3.855199e-01 3.486055e-01 3.129458e-01 2.790866e-01 2.473614e-01 2.179222e-01 1.908223e-01 1.660333e-01 1.434824e-01 1.230651e-01 1.046563e-01 8.812425e-02 7.332851e-02 6.013544e-02 4.840898e-02 3.802697e-02 2.886808e-02 2.082808e-02 1.380457e-02 
1.052806e-02 2.685985e-03 -3.986555e-03 -9.585355e-03 -1.418648e-02 -1.786547e-02 -2.068036e-02 -2.269222e-02 -2.394692e-02 -2.449659e-02 -2.438036e-02 -2.364617e-02 -2.233106e-02 -2.048249e-02 -1.813915e-02 -1.535079e-02 -1.216062e-02 -8.622659e-03 -4.786809e-03 -7.128205e-04 3.540915e-03 7.907638e-03 1.231892e-02 1.669962e-02 2.096978e-02 2.504434e-02 2.883043e-02 3.223135e-02 3.514024e-02 3.744732e-02 3.903131e-02 3.976869e-02 3.952466e-02 3.816280e-02 3.553782e-02 3.150374e-02 2.591073e-02 1.861021e-02 9.457532e-03 -1.687078e-03 -1.494882e-02 -3.044211e-02 -4.825379e-02 -6.845135e-02 -9.106031e-02 -1.160759e-01 -1.434373e-01 -1.730415e-01 -2.047183e-01 -2.382440e-01 -2.733234e-01 -3.096009e-01 -3.466536e-01 -3.839994e-01 -4.211039e-01 -4.573841e-01 -4.922294e-01 -5.249997e-01 -5.550554e-01 -5.817509e-01 -6.044630e-01 -6.225852e-01 -6.355389e-01 -6.427791e-01 -6.437741e-01 -6.380388e-01 -6.250719e-01 -6.044394e-01 -5.756626e-01 -5.383778e-01 -4.921738e-01 -4.368487e-01 -3.721998e-01 -2.983800e-01 -2.156479e-01 -1.247837e-01 -2.681512e-02 7.660619e-02 1.834734e-01 2.912341e-01 3.970007e-01 4.976699e-01 5.900095e-01 6.710848e-01 7.381989e-01 7.894833e-01 8.237795e-01 8.412156e-01 8.431154e-01 8.323154e-01 8.128412e-01 7.896140e-01 7.675946e-01 7.511150e-01 7.430022e-01 7.445182e-01 7.551710e-01 7.732141e-01 7.957160e-01 8.192765e-01 8.400775e-01 8.543267e-01 8.584345e-01 8.496426e-01 8.267829e-01 7.908704e-01 7.446627e-01 6.916970e-01 6.352527e-01 5.779890e-01 5.217391e-01 4.677382e-01 4.166911e-01 3.690093e-01 3.248538e-01 2.842637e-01 2.471680e-01 2.134435e-01 1.829212e-01 1.554102e-01 1.307068e-01 1.086007e-01 8.888798e-02 7.136655e-02 5.585081e-02 4.216173e-02 3.014133e-02 1.963941e-02 
1.209746e-02 1.679115e-03 -7.185207e-03 -1.462370e-02 -2.073261e-02 -2.561336e-02 -2.933847e-02 -3.199047e-02 -3.362612e-02 -3.431647e-02 -3.410978e-02 -3.307199e-02 -3.124906e-02 -2.870670e-02 -2.549352e-02 -2.167855e-02 -1.731684e-02 -1.248314e-02 -7.241833e-03 -1.675137e-03 4.140938e-03 1.011516e-02 1.615781e-02 2.216696e-02 2.803718e-02 3.365376e-02 3.889363e-02 4.362695e-02 4.771137e-02 5.099976e-02 5.332977e-02 5.453568e-02 5.443609e-02 5.284740e-02 4.957290e-02 4.441510e-02 3.716965e-02 2.763392e-02 1.560875e-02 9.012642e-04 -1.666354e-02 -3.724682e-02 -6.097386e-02 -8.794496e-02 -1.182043e-01 -1.517565e-01 -1.885301e-01 -2.283973e-01 -2.711380e-01 -3.164606e-01 -3.639726e-01 -4.132005e-01 -4.635746e-01 -5.144451e-01 -5.650862e-01 -6.147068e-01 -6.624738e-01 -7.075167e-01 -7.489635e-01 -7.859386e-01 -8.175981e-01 -8.431254e-01 -8.617460e-01 -8.727324e-01 -8.753794e-01 -8.690394e-01 -8.530422e-01 -8.267932e-01 -7.896279e-01 -7.410103e-01 -6.803228e-01 -6.071962e-01 -5.212427e-01 -4.225250e-01 -3.112483e-01 -1.883163e-01 -5.500792e-02 8.652532e-02 2.335541e-01 3.825609e-01 5.294356e-01 6.697480e-01 7.987622e-01 9.121630e-01 1.005879e+00 1.076984e+00 1.123522e+00 1.145329e+00 1.144097e+00 1.123847e+00 1.090686e+00 1.052287e+00 1.016498e+00 9.901506e-01 9.774372e-01 9.799905e-01 9.968127e-01 1.025032e+00 1.060075e+00 1.096934e+00 1.130089e+00 1.154000e+00 1.163115e+00 1.152716e+00 1.120612e+00 1.068744e+00 1.002212e+00 9.270239e-01 8.482094e-01 7.694308e-01 6.929501e-01 6.201492e-01 5.517321e-01 4.880697e-01 4.292640e-01 3.752926e-01 3.260217e-01 2.812588e-01 2.407675e-01 2.042806e-01 1.715247e-01 1.422131e-01 1.160752e-01 9.283825e-02 7.225823e-02 5.409462e-02 3.814144e-02 2.419750e-02 
1.199758e-02 -9.661232e-04 -1.200065e-02 -2.125840e-02 -2.885978e-02 -3.492422e-02 -3.954287e-02 -4.281227e-02 -4.480440e-02 -4.560234e-02 -4.526810e-02 -4.387927e-02 -4.149561e-02 -3.819532e-02 -3.404196e-02 -2.911867e-02 -2.349734e-02 -1.726890e-02 -1.051687e-02 -3.342039e-03 4.157837e-03 1.187036e-02 1.968116e-02 2.746414e-02 3.508591e-02 4.240402e-02 4.926355e-02 5.550261e-02 6.094242e-02 6.539859e-02 6.866708e-02 7.053896e-02 7.078551e-02 6.917357e-02 6.545363e-02 5.937278e-02 5.066953e-02 3.908162e-02 2.435099e-02 6.224347e-03 -1.552954e-02 -4.112741e-02 -7.074141e-02 -1.045145e-01 -1.425192e-01 -1.847795e-01 -2.312225e-01 -2.817041e-01 -3.359616e-01 -3.936390e-01 -4.542499e-01 -5.172001e-01 -5.817696e-01 -6.471304e-01 -7.123546e-01 -7.764254e-01 -8.382724e-01 -8.967735e-01 -9.508101e-01 -9.992588e-01 -1.041047e+00 -1.075138e+00 -1.100564e+00 -1.116417e+00 -1.121825e+00 -1.115984e+00 -1.098060e+00 -1.067287e+00 -1.022802e+00 -9.638528e-01 -8.895597e-01 -7.992968e-01 -6.923795e-01 -5.686524e-01 -4.281136e-01 -2.716725e-01 -1.007196e-01 8.211039e-02 2.733997e-01 4.684923e-01 6.619102e-01 8.475314e-01 1.018810e+00 1.169612e+00 1.294104e+00 1.387882e+00 1.447723e+00 1.472786e+00 1.464801e+00 1.429143e+00 1.374683e+00 1.313120e+00 1.256712e+00 1.216095e+00 1.197201e+00 1.201618e+00 1.227532e+00 1.270296e+00 1.322799e+00 1.378152e+00 1.428906e+00 1.467582e+00 1.486015e+00 1.475797e+00 1.432312e+00 1.359361e+00 1.266779e+00 1.164713e+00 1.060421e+00 9.583535e-01 8.607742e-01 7.688479e-01 6.830220e-01 6.034859e-01 5.301984e-01 4.630427e-01 4.017966e-01 3.461948e-01 2.959210e-01 2.506352e-01 2.099850e-01 1.736124e-01 1.411729e-01 1.123298e-01 8.677464e-02 6.421312e-02 4.438624e-02 2.705011e-02 
9.794616e-03 -5.680912e-03 -1.885559e-02 -2.991051e-02 -3.898036e-02 -4.620739e-02 -5.169190e-02 -5.554979e-02 -5.785934e-02 -5.872154e-02 -5.820384e-02 -5.640190e-02 -5.338158e-02 -4.924037e-02 -4.404976e-02 -3.791386e-02 -3.091506e-02 -2.316714e-02 -1.476709e-02 -5.840336e-03 3.498563e-03 1.311084e-02 2.286166e-02 3.259667e-02 4.215785e-02 5.137209e-02 6.005500e-02 6.801073e-02 7.502535e-02 8.087607e-02 8.531717e-02 8.809561e-02 8.893384e-02 8.754798e-02 8.363247e-02 7.687675e-02 6.695706e-02 5.354749e-02 3.632393e-02 1.496617e-02 -1.082238e-02 -4.132343e-02 -7.676689e-02 -1.173505e-01 -1.631871e-01 -2.143336e-01 -2.707276e-01 -3.322221e-01 -3.985203e-01 -4.692125e-01 -5.437203e-01 -6.213324e-01 -7.011711e-01 -7.822237e-01 -8.633418e-01 -9.432662e-01 -1.020661e+00 -1.094132e+00 -1.162282e+00 -1.223721e+00 -1.277127e+00 -1.321237e+00 -1.354882e+00 -1.376983e+00 -1.386514e+00 -1.382528e+00 -1.364043e+00 -1.330130e+00 -1.279714e+00 -1.211796e+00 -1.125170e+00 -1.018850e+00 -8.917159e-01 -7.432073e-01 -5.729183e-01 -3.815326e-01 -1.703836e-01 5.757922e-02 2.982310e-01 5.457376e-01 7.929116e-01 1.031634e+00 1.252940e+00 1.448430e+00 1.609869e+00 1.730839e+00 1.806181e+00 1.833531e+00 1.814023e+00 1.754197e+00 1.666741e+00 1.569493e+00 1.481720e+00 1.420608e+00 1.393936e+00 1.401702e+00 1.441393e+00 1.505445e+00 1.582167e+00 1.662956e+00 1.738385e+00 1.799335e+00 1.834897e+00 1.828883e+00 1.769915e+00 1.666052e+00 1.537759e+00 1.402197e+00 1.268862e+00 1.142002e+00 1.022935e+00 9.119968e-01 8.090634e-01 7.139969e-01 6.265694e-01 5.465477e-01 4.736272e-01 4.074620e-01 3.476636e-01 2.938102e-01 2.454771e-01 2.022264e-01 1.636476e-01 1.293325e-01 9.891755e-02 7.204882e-02 4.842425e-02 2.775240e-02 
5.053044e-03 -1.289587e-02 -2.818641e-02 -4.101575e-02 -5.153874e-02 -5.990829e-02 -6.624015e-02 -7.065800e-02 -7.325322e-02 -7.413395e-02 -7.338040e-02 -7.109637e-02 -6.736171e-02 -6.228413e-02 -5.595123e-02 -4.848002e-02 -3.997148e-02 -3.055508e-02 -2.034897e-02 -9.496924e-03 1.862892e-03 1.357074e-02 2.546577e-02 3.736984e-02 4.909624e-02 6.044468e-02 7.119868e-02 8.113077e-02 8.999044e-02 9.751745e-02 1.034236e-01 1.074112e-01 1.091528e-01 1.083112e-01 1.045230e-01 9.741473e-02 8.659660e-02 7.167120e-02 5.224154e-02 2.790976e-02 -1.696627e-03 -3.693786e-02 -7.811588e-02 -1.254990e-01 -1.792576e-01 -2.394982e-01 -3.061865e-01 -3.791874e-01 -4.581847e-01 -5.427232e-01 -6.321398e-01 -7.256030e-01 -8.220721e-01 -9.203317e-01 -1.018993e+00 -1.116522e+00 -1.211287e+00 -1.301579e+00 -1.385693e+00 -1.461937e+00 -1.528720e+00 -1.584537e+00 -1.628029e+00 -1.657951e+00 -1.673155e+00 -1.672578e+00 -1.655124e+00 -1.619716e+00 -1.565079e+00 -1.489929e+00 -1.392672e+00 -1.271828e+00 -1.125669e+00 -9.529853e-01 -7.526718e-01 -5.248975e-01 -2.706056e-01 7.091123e-03 3.035347e-01 6.114864e-01 9.218483e-01 1.223822e+00 1.505481e+00 1.755348e+00 1.962229e+00 2.117030e+00 2.211784e+00 2.241290e+00 2.204326e+00 2.107748e+00 1.969364e+00 1.816607e+00 1.680062e+00 1.590026e+00 1.555587e+00 1.568809e+00 1.629893e+00 1.726525e+00 1.835911e+00 1.950958e+00 2.059673e+00 2.152895e+00 2.220960e+00 2.229551e+00 2.146571e+00 1.991333e+00 1.810985e+00 1.633475e+00 1.468197e+00 1.316367e+00 1.176582e+00 1.047553e+00 9.283124e-01 8.183663e-01 7.173241e-01 6.248841e-01 5.406779e-01 4.643031e-01 3.952965e-01 3.331655e-01 2.774035e-01 2.275023e-01 1.829755e-01 1.433545e-01 1.082123e-01 7.714770e-02 4.980876e-02 2.586927e-02 
-2.686410e-03 -2.307320e-02 -4.044892e-02 -5.503287e-02 -6.698571e-02 -7.647782e-02 -8.362664e-02 -8.857137e-02 -9.140351e-02 -9.224704e-02 -9.118282e-02 -8.833242e-02 -8.377842e-02 -7.764910e-02 -7.003780e-02 -6.108502e-02 -5.090095e-02 -3.964099e-02 -2.743604e-02 -1.445760e-02 -8.599367e-04 1.316823e-02 2.744656e-02 4.176687e-02 5.591920e-02 6.967167e-02 8.277995e-02 9.498225e-02 1.059943e-01 1.155169e-01 1.232206e-01 1.287619e-01 1.317628e-01 1.318312e-01 1.285424e-01 1.214575e-01 1.101142e-01 9.403801e-02 7.274967e-02 4.576398e-02 1.261987e-02 -2.713600e-02 -7.389369e-02 -1.280116e-01 -1.897365e-01 -2.592479e-01 -3.365591e-01 -4.215710e-01 -5.139645e-01 -6.132585e-01 -7.187122e-01 -8.293821e-01 -9.440547e-01 -1.061302e+00 -1.179463e+00 -1.296696e+00 -1.411025e+00 -1.520377e+00 -1.622686e+00 -1.715911e+00 -1.798155e+00 -1.867652e+00 -1.922848e+00 -1.962356e+00 -1.984943e+00 -1.989484e+00 -1.974828e+00 -1.939801e+00 -1.882963e+00 -1.802747e+00 -1.697120e+00 -1.563992e+00 -1.400816e+00 -1.205436e+00 -9.756669e-01 -7.106944e-01 -4.106348e-01 -7.830760e-02 2.812659e-01 6.595297e-01 1.044961e+00 1.423554e+00 1.779235e+00 2.096728e+00 2.360892e+00 2.559612e+00 2.681172e+00 2.715363e+00 2.654901e+00 2.503728e+00 2.286650e+00 2.046943e+00 1.830961e+00 1.702327e+00 1.667856e+00 1.685443e+00 1.780312e+00 1.931670e+00 2.080604e+00 2.241012e+00 2.391547e+00 2.525435e+00 2.659117e+00 2.712890e+00 2.585826e+00 2.332120e+00 2.073196e+00 1.846069e+00 1.649708e+00 1.475991e+00 1.318337e+00 1.173284e+00 1.039139e+00 9.152730e-01 8.013283e-01 6.970380e-01 6.020394e-01 5.158906e-01 4.380729e-01 3.680156e-01 3.051399e-01 2.488569e-01 1.986152e-01 1.538775e-01 1.141664e-01 7.902677e-02 4.807128e-02 2.093316e-02 
-1.386952e-02 -3.665910e-02 -5.610384e-02 -7.242773e-02 -8.580500e-02 -9.640661e-02 -1.043602e-01 -1.098045e-01 -1.128406e-01 -1.135932e-01 -1.121543e-01 -1.086494e-01 -1.031752e-01 -9.586778e-02 -8.683843e-02 -7.623957e-02 -6.420281e-02 -5.089927e-02 -3.648408e-02 -2.114747e-02 -5.070023e-03 1.153852e-02 2.847003e-02 4.549315e-02 6.236861e-02 7.883874e-02 9.462756e-02 1.094435e-01 1.229665e-01 1.348614e-01 1.447567e-01 1.522639e-01 1.569538e-01 1.583775e-01 1.560473e-01 1.494532e-01 1.380558e-01 1.212944e-01 9.859810e-02 6.938069e-02 3.307723e-02 -1.087738e-02 -6.298303e-02 -1.237117e-01 -1.934139e-01 -2.723688e-01 -3.606680e-01 -4.582736e-01 -5.648918e-01 -6.800333e-01 -8.028958e-01 -9.324238e-01 -1.067226e+00 -1.205634e+00 -1.345682e+00 -1.485162e+00 -1.621694e+00 -1.752765e+00 -1.875878e+00 -1.988577e+00 -2.088615e+00 -2.173937e+00 -2.242804e+00 -2.293720e+00 -2.325435e+00 -2.336838e+00 -2.326825e+00 -2.294211e+00 -2.237479e+00 -2.154795e+00 -2.043684e+00 -1.901293e+00 -1.724056e+00 -1.508463e+00 -1.250752e+00 -9.485014e-01 -6.002753e-01 -2.080522e-01 2.233685e-01 6.839923e-01 1.159684e+00 1.631941e+00 2.079421e+00 2.481391e+00 2.818262e+00 3.074916e+00 3.236188e+00 3.284134e+00 3.197221e+00 2.966516e+00 2.626958e+00 2.252284e+00 1.892231e+00 1.716477e+00 1.723891e+00 1.719758e+00 1.869094e+00 2.133647e+00 2.307846e+00 2.534194e+00 2.732582e+00 2.889076e+00 3.166562e+00 3.363585e+00 3.136994e+00 2.663340e+00 2.291337e+00 2.018425e+00 1.802185e+00 1.615545e+00 1.445588e+00 1.287672e+00 1.140407e+00 1.003721e+00 8.776438e-01 7.621308e-01 6.568882e-01 5.614702e-01 4.752967e-01 3.977282e-01 3.280998e-01 2.657520e-01 2.100574e-01 1.604241e-01 1.163159e-01 7.724017e-02 4.276696e-02 1.250655e-02 
-2.899131e-02 -5.415964e-02 -7.565508e-02 -9.371374e-02 -1.085042e-01 -1.202068e-01 -1.289410e-01 -1.348553e-01 -1.380427e-01 -1.386410e-01 -1.367368e-01 -1.324729e-01 -1.259450e-01 -1.173117e-01 -1.066880e-01 -9.425371e-02 -8.014883e-02 -6.457512e-02 -4.770035e-02 -2.974705e-02 -1.091161e-02 8.563654e-03 2.845219e-02 4.849058e-02 6.841850e-02 8.794634e-02 1.067735e-01 1.245748e-01 1.410003e-01 1.556771e-01 1.681949e-01 1.781198e-01 1.849722e-01 1.882457e-01 1.873869e-01 1.818120e-01 1.708988e-01 1.539927e-01 1.304210e-01 9.948331e-02 6.049503e-02 1.275852e-02 -4.435789e-02 -1.114691e-01 -1.890574e-01 -2.775387e-01 -3.771149e-01 -4.878511e-01 -6.095090e-01 -7.416286e-01 -8.833648e-01 -1.033570e+00 -1.190668e+00 -1.352734e+00 -1.517450e+00 -1.682186e+00 -1.844062e+00 -2.000035e+00 -2.147064e+00 -2.282183e+00 -2.402712e+00 -2.506267e+00 -2.590919e+00 -2.655107e+00 -2.697651e+00 -2.717581e+00 -2.713988e+00 -2.685832e+00 -2.631657e+00 -2.549481e+00 -2.436416e+00 -2.288802e+00 -2.101815e+00 -1.870198e+00 -1.587973e+00 -1.250255e+00 -8.530720e-01 -3.964441e-01 1.158511e-01 6.729881e-01 1.257665e+00 1.845884e+00 2.408328e+00 2.916945e+00 3.345863e+00 3.679232e+00 3.901727e+00 3.987554e+00 3.884105e+00 3.538738e+00 3.001706e+00 2.439590e+00 1.764392e+00 1.542350e+00 1.785588e+00 1.591319e+00 1.833749e+00 2.417149e+00 2.473198e+00 2.845030e+00 3.104200e+00 3.118552e+00 3.738455e+00 4.416691e+00 3.912828e+00 2.870061e+00 2.392304e+00 2.120540e+00 1.915970e+00 1.732569e+00 1.557715e+00 1.390204e+00 1.231369e+00 1.082763e+00 9.452547e-01 8.191561e-01 7.042878e-01 6.001840e-01 5.062007e-01 4.216068e-01 3.456555e-01 2.776037e-01 2.167608e-01 1.624721e-01 1.141603e-01 7.128928e-02 3.340592e-02 9.178272e-05 
-4.850046e-02 -7.603239e-02 -9.958661e-02 -1.193887e-01 -1.356111e-01 -1.484215e-01 -1.579420e-01 -1.643098e-01 -1.676226e-01 -1.680109e-01 -1.655704e-01 -1.604426e-01 -1.527383e-01 -1.426215e-01 -1.302281e-01 -1.157498e-01 -9.935267e-02 -8.125524e-02 -6.165456e-02 -4.079317e-02 -1.889805e-02 3.767006e-03 2.694506e-02 5.035066e-02 7.369382e-02 9.666199e-02 1.189247e-01 1.401313e-01 1.598993e-01 1.778242e-01 1.934571e-01 2.063222e-01 2.158899e-01 2.215966e-01 2.228224e-01 2.189062e-01 2.091372e-01 1.927591e-01 1.689852e-01 1.369858e-01 9.593603e-02 4.498226e-02 -1.667006e-02 -8.981142e-02 -1.750978e-01 -2.731231e-01 -3.842497e-01 -5.086907e-01 -6.463140e-01 -7.967270e-01 -9.590786e-01 -1.132142e+00 -1.314156e+00 -1.502910e+00 -1.695674e+00 -1.889301e+00 -2.080298e+00 -2.264943e+00 -2.439513e+00 -2.600384e+00 -2.744347e+00 -2.868619e+00 -2.971098e+00 -3.050220e+00 -3.105013e+00 -3.134821e+00 -3.139148e+00 -3.117318e+00 -3.068186e+00 -2.989795e+00 -2.879018e+00 -2.731336e+00 -2.540545e+00 -2.299103e+00 -1.998095e+00 -1.628998e+00 -1.183876e+00 -6.592921e-01 -5.632365e-02 6.140434e-01 1.331673e+00 2.064759e+00 2.772914e+00 3.415455e+00 3.957941e+00 4.387193e+00 4.702076e+00 4.881997e+00 4.817202e+00 4.305967e+00 3.403744e+00 2.737980e+00 1.174796e+00 8.952584e-01 1.765001e+00 1.913075e+00 1.077035e+00 2.443737e+00 2.329645e+00 2.072342e+00 2.120229e+00 1.670277e+00 2.596648e+00 2.493028e+00 3.032915e+00 2.478451e+00 2.262973e+00 2.137848e+00 1.997084e+00 1.833691e+00 1.658536e+00 1.482376e+00 1.312147e+00 1.151856e+00 1.003348e+00 8.672511e-01 7.434089e-01 6.312820e-01 5.301076e-01 4.390512e-01 3.572600e-01 2.839170e-01 2.182573e-01 1.595826e-01 1.072672e-01 6.075366e-02 1.955918e-02 -1.674053e-02 
-7.293837e-02 -1.028411e-01 -1.284669e-01 -1.500395e-01 -1.677105e-01 -1.816458e-01 -1.919465e-01 -1.987519e-01 -2.021414e-01 -2.022545e-01 -1.991742e-01 -1.930597e-01 -1.840162e-01 -1.722341e-01 -1.578516e-01 -1.410936e-01 -1.221353e-01 -1.012331e-01 -7.859801e-02 -5.451171e-02 -2.921773e-02 -3.017524e-03 2.381455e-02 5.095862e-02 7.810701e-02 1.049160e-01 1.310361e-01 1.560867e-01 1.796624e-01 2.013257e-01 2.205966e-01 2.369575e-01 2.498339e-01 2.586051e-01 2.625859e-01 2.610352e-01 2.531506e-01 2.380657e-01 2.148708e-01 1.825903e-01 1.402418e-01 8.678798e-02 2.124357e-02 -5.739907e-02 -1.500097e-01 -2.574168e-01 -3.801950e-01 -5.187740e-01 -6.731856e-01 -8.431745e-01 -1.027930e+00 -1.226195e+00 -1.436030e+00 -1.654928e+00 -1.879681e+00 -2.106526e+00 -2.331194e+00 -2.549096e+00 -2.755599e+00 -2.946218e+00 -3.117026e+00 -3.264748e+00 -3.387081e+00 -3.482554e+00 -3.550581e+00 -3.591072e+00 -3.604243e+00 -3.590114e+00 -3.548183e+00 -3.476868e+00 -3.373068e+00 -3.231616e+00 -3.044835e+00 -2.802565e+00 -2.492075e+00 -2.099874e+00 -1.612149e+00 -1.019586e+00 -3.180714e-01 4.836969e-01 1.363439e+00 2.280334e+00 3.176486e+00 3.990022e+00 4.666733e+00 5.200284e+00 5.635183e+00 6.025424e+00 6.202515e+00 5.472596e+00 3.570476e+00 3.935069e+00 3.714569e+00 2.180283e+00 -7.905078e-01 8.618565e-01 9.484338e-01 -6.060921e-01 -7.491836e-01 -1.640358e+00 -1.848196e+00 -2.226806e+00 -2.037348e+00 -3.090767e+00 -5.028831e-01 1.449268e+00 2.012405e+00 2.148941e+00 2.086625e+00 1.937339e+00 1.755104e+00 1.566034e+00 1.382428e+00 1.209911e+00 1.050670e+00 9.052219e-01 7.732027e-01 6.538558e-01 5.462412e-01 4.493785e-01 3.623096e-01 2.841318e-01 2.140249e-01 1.512429e-01 9.513568e-02 4.512141e-02 7.127452e-04 -3.852503e-02 
-1.027423e-01 -1.350444e-01 -1.627966e-01 -1.861927e-01 -2.053746e-01 -2.204788e-01 -2.315988e-01 -2.388485e-01 -2.423061e-01 -2.420933e-01 -2.383005e-01 -2.310794e-01 -2.205524e-01 -2.069135e-01 -1.903273e-01 -1.710320e-01 -1.492365e-01 -1.252172e-01 -9.922257e-02 -7.155738e-02 -4.250271e-02 -1.238273e-02 1.849380e-02 4.978668e-02 8.115853e-02 1.122478e-01 1.426792e-01 1.720547e-01 1.999435e-01 2.258866e-01 2.493734e-01 2.698543e-01 2.867111e-01 2.992726e-01 3.067882e-01 3.084386e-01 3.033250e-01 2.904662e-01 2.688161e-01 2.372395e-01 1.945708e-01 1.395623e-01 7.099648e-02 -1.239432e-02 -1.117548e-01 -2.282090e-01 -3.626243e-01 -5.157239e-01 -6.877951e-01 -8.787988e-01 -1.088046e+00 -1.314299e+00 -1.555469e+00 -1.808727e+00 -2.070312e+00 -2.335688e+00 -2.599602e+00 -2.856310e+00 -3.099972e+00 -3.324921e+00 -3.526287e+00 -3.700137e+00 -3.843986e+00 -3.956576e+00 -4.037974e+00 -4.088992e+00 -4.110952e+00 -4.104994e+00 -4.071746e+00 -4.010486e+00 -3.918707e+00 -3.790927e+00 -3.618272e+00 -3.387511e+00 -3.081338e+00 -2.679438e+00 -2.159749e+00 -1.503787e+00 -6.981524e-01 2.544484e-01 1.333273e+00 2.487161e+00 3.634226e+00 4.672302e+00 5.501213e+00 6.102866e+00 6.617235e+00 7.395294e+00 8.522731e+00 7.977398e+00 4.958097e-01 -5.659116e+00 -2.664174e+00 -3.785388e-01 -9.744571e-01 -3.661394e+00 -3.408762e+00 -3.552178e+00 -4.018428e+00 -3.548262e+00 -3.731345e+00 -3.193515e+00 -4.167496e+00 -4.014572e+00 -1.865717e+00 1.252817e+00 2.157449e+00 2.336994e+00 2.248247e+00 2.064185e+00 1.852802e+00 1.641398e+00 1.440904e+00 1.255380e+00 1.085819e+00 9.319145e-01 7.927347e-01 6.671574e-01 5.539839e-01 4.520755e-01 3.603525e-01 2.778475e-01 2.036824e-01 1.370913e-01 7.739814e-02 2.402505e-02 -2.352362e-02 -6.566461e-02 
-1.385118e-01 -1.732791e-01 -2.032272e-01 -2.285295e-01 -2.492878e-01 -2.656225e-01 -2.775890e-01 -2.852938e-01 -2.887835e-01 -2.881844e-01 -2.835653e-01 -2.750966e-01 -2.628911e-01 -2.471751e-01 -2.281157e-01 -2.059941e-01 -1.810313e-01 -1.535531e-01 -1.238257e-01 -9.220367e-02 -5.898745e-02 -2.454637e-02 1.079366e-02 4.665528e-02 8.268796e-02 1.185016e-01 1.537111e-01 1.878958e-01 2.206149e-01 2.513873e-01 2.796857e-01 3.049301e-01 3.264710e-01 3.435880e-01 3.554739e-01 3.612301e-01 3.598643e-01 3.502733e-01 3.312699e-01 3.015412e-01 2.597223e-01 2.043222e-01 1.338586e-01 4.674892e-02 -5.848013e-02 -1.833307e-01 -3.290429e-01 -4.967448e-01 -6.870836e-01 -9.003657e-01 -1.136132e+00 -1.393278e+00 -1.669627e+00 -1.962050e+00 -2.266162e+00 -2.576507e+00 -2.886555e+00 -3.189042e+00 -3.476442e+00 -3.741448e+00 -3.977813e+00 -4.180703e+00 -4.347400e+00 -4.477063e+00 -4.570798e+00 -4.630810e+00 -4.660067e+00 -4.661357e+00 -4.637016e+00 -4.587885e+00 -4.512781e+00 -4.406765e+00 -4.260231e+00 -4.057092e+00 -3.774630e+00 -3.384156e+00 -2.852405e+00 -2.147535e+00 -1.241152e+00 -1.225193e-01 1.196665e+00 2.660127e+00 4.156495e+00 5.518079e+00 6.534298e+00 7.081095e+00 7.345643e+00 8.437653e+00 1.272885e+01 1.565091e+00 -4.054783e+00 -1.779402e+00 -2.481003e+00 -8.514126e+00 -6.734978e+00 -1.841125e+00 -3.413579e+00 -1.510632e+00 -8.969884e-01 2.282909e-01 -2.005021e-01 1.081197e+00 2.176504e-01 1.299609e+00 1.498337e+00 2.986956e+00 2.999790e+00 2.771583e+00 2.489110e+00 2.207558e+00 1.943845e+00 1.702283e+00 1.483117e+00 1.285124e+00 1.106591e+00 9.457479e-01 8.008481e-01 6.703023e-01 5.526373e-01 4.465516e-01 3.508723e-01 2.645761e-01 1.867609e-01 1.166471e-01 5.356575e-02 -3.055730e-03 -5.368980e-02 -9.873801e-02 
-1.806507e-01 -2.179870e-01 -2.502622e-01 -2.775956e-01 -3.000619e-01 -3.177301e-01 -3.306352e-01 -3.388410e-01 -3.423840e-01 -3.413611e-01 -3.358458e-01 -3.259951e-01 -3.119426e-01 -2.939178e-01 -2.721236e-01 -2.468588e-01 -2.183908e-01 -1.870720e-01 -1.532197e-01 -1.172178e-01 -7.941551e-02 -4.020806e-02 3.780585e-05 4.092652e-02 8.207794e-02 1.230923e-01 1.635660e-01 2.030746e-01 2.411653e-01 2.773534e-01 3.110977e-01 3.418056e-01 3.688007e-01 3.913290e-01 4.085298e-01 4.194360e-01 4.229602e-01 4.178806e-01 4.028568e-01 3.763905e-01 3.368901e-01 2.825952e-01 2.117083e-01 1.222809e-01 1.242819e-02 -1.198160e-01 -2.761868e-01 -4.583433e-01 -6.674526e-01 -9.043244e-01 -1.168901e+00 -1.460354e+00 -1.776532e+00 -2.114042e+00 -2.467806e+00 -2.831225e+00 -3.196125e+00 -3.553159e+00 -3.892473e+00 -4.204383e+00 -4.480711e+00 -4.715329e+00 -4.905312e+00 -5.050551e+00 -5.153786e+00 -5.219281e+00 -5.252241e+00 -5.257707e+00 -5.240370e+00 -5.203539e+00 -5.148639e+00 -5.072620e+00 -4.966512e+00 -4.811699e+00 -4.579745e+00 -4.231256e+00 -3.718839e+00 -2.992095e+00 -2.000540e+00 -7.095741e-01 8.934307e-01 2.762155e+00 4.765425e+00 6.650107e+00 8.003090e+00 8.330922e+00 7.258491e+00 6.540562e+00 -9.895078e-01 -8.383774e+00 -2.779867e+00 -8.744237e+00 -8.788171e+00 3.300075e+00 2.625710e+00 9.112438e-01 2.280299e+00 3.888137e+00 3.101286e+00 4.297594e+00 3.875336e+00 4.177820e+00 4.463866e+00 3.769154e+00 6.091869e+00 5.595922e+00 4.054264e+00 3.237913e+00 2.712383e+00 2.322018e+00 2.005765e+00 1.737022e+00 1.502699e+00 1.295530e+00 1.110846e+00 9.454155e-01 7.967082e-01 6.627380e-01 5.418063e-01 4.325103e-01 3.336164e-01 2.440933e-01 1.630325e-01 8.968007e-02 2.338060e-02 -3.639799e-02 -9.010556e-02 -1.380950e-01 
-2.298298e-01 -2.698955e-01 -3.046570e-01 -3.341903e-01 -3.585056e-01 -3.776372e-01 -3.915612e-01 -4.003206e-01 -4.039045e-01 -4.024082e-01 -3.958739e-01 -3.844792e-01 -3.683449e-01 -3.477429e-01 -3.228812e-01 -2.941175e-01 -2.617385e-01 -2.261638e-01 -1.877375e-01 -1.469095e-01 -1.040555e-01 -5.962686e-02 -1.400939e-02 3.236068e-02 7.909552e-02 1.257722e-01 1.719906e-01 2.173175e-01 2.613106e-01 3.034828e-01 3.433020e-01 3.801683e-01 4.133996e-01 4.422151e-01 4.657190e-01 4.828799e-01 4.925284e-01 4.933213e-01 4.837695e-01 4.621748e-01 4.267089e-01 3.753084e-01 3.058290e-01 2.158913e-01 1.031335e-01 -3.498449e-02 -2.008094e-01 -3.967014e-01 -6.245286e-01 -8.858354e-01 -1.181201e+00 -1.510325e+00 -1.871291e+00 -2.260594e+00 -2.672462e+00 -3.098973e+00 -3.529841e+00 -3.952916e+00 -4.354992e+00 -4.722911e+00 -5.045495e+00 -5.314689e+00 -5.527275e+00 -5.684473e+00 -5.791710e+00 -5.856390e+00 -5.886859e+00 -5.890899e+00 -5.876104e+00 -5.849164e+00 -5.815632e+00 -5.776587e+00 -5.725737e+00 -5.643697e+00 -5.496050e+00 -5.231645e+00 -4.785544e+00 -4.084589e+00 -3.048838e+00 -1.606064e+00 3.041474e-01 2.680409e+00 5.416300e+00 8.205201e+00 1.042486e+01 1.094532e+01 6.848626e+00 5.991322e+00 -2.346613e+00 -5.320717e+00 -1.025010e+01 -5.704713e+00 1.381314e+00 3.449151e+00 3.520943e+00 5.385699e+00 6.152599e+00 5.562592e+00 5.913924e+00 4.121133e+00 4.774391e+00 2.972270e+00 3.967600e+00 1.495511e+00 6.872225e+00 6.104769e+00 4.345248e+00 3.387724e+00 2.782727e+00 2.350475e+00 2.012653e+00 1.733047e+00 1.493206e+00 1.283115e+00 1.096618e+00 9.297429e-01 7.795726e-01 6.439480e-01 5.210966e-01 4.096039e-01 3.082541e-01 2.160482e-01 1.321226e-01 5.576658e-02 -1.362107e-02 -7.652622e-02 -1.333397e-01 -1.843672e-01 