# vtk DataFile Version 2.0
Comment goes here
ASCII

DATASET STRUCTURED_POINTS
DIMENSIONS    128   128   1

ORIGIN    0.000   0.000   0.000
SPACING   0.0156250.015625   1.000

POINT_DATA   16384
SCALARS Omega double
LOOKUP_TABLE default

-6.894667e-06 -5.675255e-06 -4.596035e-06 -3.740603e-06 -3.146379e-06 -2.875955e-06 -2.944353e-06 -3.394471e-06 -4.223642e-06 -5.457447e-06 -7.081116e-06 -9.106312e-06 -1.151216e-05 -1.430073e-05 -1.745098e-05 -2.096035e-05 -2.481303e-05 -2.900709e-05 -3.353632e-05 -3.840445e-05 -4.361788e-05 -4.919025e-05 -5.514197e-05 -6.149968e-05 -6.829762e-05 -7.557718e-05 -8.338493e-05 -9.177751e-05 -1.008116e-04 -1.105588e-04 -1.210837e-04 -1.324729e-04 -1.447967e-04 -1.581581e-04 -1.726324e-04 -1.883414e-04 -2.053657e-04 -2.238508e-04 -2.438822e-04 -2.656347e-04 -2.891969e-04 -3.147761e-04 -3.424584e-04 -3.724812e-04 -4.049154e-04 -4.400145e-04 -4.778144e-04 -5.185545e-04 -5.622079e-04 -6.089518e-04 -6.586630e-04 -7.113938e-04 -7.668895e-04 -8.250086e-04 -8.853344e-04 -9.474695e-04 -1.010815e-03 -1.074679e-03 -1.138274e-03 -1.200616e-03 -1.260737e-03 -1.317413e-03 -1.369531e-03 -1.415728e-03 -1.454806e-03 -1.485420e-03 -1.506381e-03 -1.516553e-03 -1.514883e-03 -1.500652e-03 -1.473085e-03 -1.432062e-03 -1.377220e-03 -1.309139e-03 -1.227954e-03 -1.134920e-03 -1.030692e-03 -9.170416e-04 -7.951141e-04 -6.669715e-04 -5.342374e-04 -3.990893e-04 -2.636809e-04 -1.302508e-04 -1.527573e-06 1.202456e-04 2.319825e-04 3.317636e-04 4.168588e-04 4.863321e-04 5.387911e-04 5.747728e-04 5.946787e-04 6.002212e-04 5.930966e-04 5.754330e-04 5.494278e-04 5.171115e-04 4.805793e-04 4.414445e-04 4.012743e-04 3.611067e-04 3.218763e-04 2.841064e-04 2.482940e-04 2.146366e-04 1.834418e-04 1.547188e-04 1.286597e-04 1.051528e-04 8.426915e-05 6.583604e-05 4.982380e-05 3.604358e-05 2.439810e-05 1.470069e-05 6.813460e-06 5.549095e-07 -4.233823e-06 -7.728982e-06 -1.009496e-05 -1.150079e-05 -1.210380e-05 -1.206214e-05 -1.151637e-05 -1.060977e-05 -9.459628e-06 -8.191064e-06 
3.021122e-03 1.662629e-03 4.071089e-04 -7.557866e-04 -1.837052e-03 -2.839399e-03 -3.767009e-03 -4.618256e-03 -5.393366e-03 -6.088841e-03 -6.703185e-03 -7.232954e-03 -7.676762e-03 -8.032776e-03 -8.301276e-03 -8.483362e-03 -8.582349e-03 -8.603424e-03 -8.554198e-03 -8.445012e-03 -8.288961e-03 -8.102586e-03 -7.905636e-03 -7.721900e-03 -7.578946e-03 -7.508864e-03 -7.548158e-03 -7.738197e-03 -8.125369e-03 -8.761070e-03 -9.702146e-03 -1.101025e-02 -1.275258e-02 -1.500039e-02 -1.783005e-02 -2.132045e-02 -2.555437e-02 -3.061465e-02 -3.658582e-02 -4.354874e-02 -5.158278e-02 -6.075864e-02 -7.114132e-02 -8.278098e-02 -9.571707e-02 -1.099674e-01 -1.255336e-01 -1.423890e-01 -1.604858e-01 -1.797423e-01 -2.000518e-01 -2.212711e-01 -2.432302e-01 -2.657233e-01 -2.885195e-01 -3.113565e-01 -3.339514e-01 -3.559983e-01 -3.771766e-01 -3.971532e-01 -4.155857e-01 -4.321303e-01 -4.464365e-01 -4.581634e-01 -4.669617e-01 -4.725043e-01 -4.744510e-01 -4.725032e-01 -4.663444e-01 -4.557313e-01 -4.404037e-01 -4.202207e-01 -3.950357e-01 -3.648751e-01 -3.297846e-01 -2.900250e-01 -2.459154e-01 -1.979961e-01 -1.469154e-01 -9.350025e-02 -3.873686e-02 1.629032e-02 7.030914e-02 1.220481e-01 1.701009e-01 2.131985e-01 2.501475e-01 2.801220e-01 3.027246e-01 3.181839e-01 3.273822e-01 3.317818e-01 3.331977e-01 3.334264e-01 3.339209e-01 3.355433e-01 3.385143e-01 3.424167e-01 3.463075e-01 3.488962e-01 3.487439e-01 3.444692e-01 3.349998e-01 3.197996e-01 2.990831e-01 2.738528e-01 2.456742e-01 2.163494e-01 1.874909e-01 1.603661e-01 1.357509e-01 1.140403e-01 9.528530e-02 7.934868e-02 6.595575e-02 5.479421e-02 4.553191e-02 3.786535e-02 3.151340e-02 2.623999e-02 2.183738e-02 1.813974e-02 1.500347e-02 1.231886e-02 9.990608e-03 7.949531e-03 6.134490e-03 4.504222e-03 
6.173064e-03 3.482444e-03 9.913373e-04 -1.319943e-03 -3.472818e-03 -5.471773e-03 -7.324926e-03 -9.028079e-03 -1.058165e-02 -1.197765e-02 -1.321321e-02 -1.428037e-02 -1.517659e-02 -1.589708e-02 -1.644269e-02 -1.681446e-02 -1.701937e-02 -1.706656e-02 -1.697166e-02 -1.675408e-02 -1.644044e-02 -1.606249e-02 -1.566022e-02 -1.527981e-02 -1.497695e-02 -1.481438e-02 -1.486576e-02 -1.521239e-02 -1.594782e-02 -1.717350e-02 -1.900406e-02 -2.156170e-02 -2.498194e-02 -2.940657e-02 -3.498970e-02 -4.188896e-02 -5.027161e-02 -6.030382e-02 -7.215672e-02 -8.599333e-02 -1.019748e-01 -1.202448e-01 -1.409359e-01 -1.641513e-01 -1.899730e-01 -2.184398e-01 -2.495579e-01 -2.832774e-01 -3.195049e-01 -3.580801e-01 -3.987908e-01 -4.413527e-01 -4.854252e-01 -5.305976e-01 -5.764053e-01 -6.223237e-01 -6.677822e-01 -7.121681e-01 -7.548348e-01 -7.951153e-01 -8.323203e-01 -8.657622e-01 -8.947377e-01 -9.185654e-01 -9.365458e-01 -9.480249e-01 -9.523200e-01 -9.488305e-01 -9.369164e-01 -9.160807e-01 -8.857880e-01 -8.457371e-01 -7.956136e-01 -7.354427e-01 -6.652950e-01 -5.856617e-01 -4.971698e-01 -4.008722e-01 -2.980719e-01 -1.904000e-01 -7.985545e-02 3.140233e-02 1.407781e-01 2.456941e-01 3.432441e-01 4.307624e-01 5.057200e-01 5.662600e-01 6.114834e-01 6.417459e-01 6.589340e-01 6.661917e-01 6.675163e-01 6.668527e-01 6.673044e-01 6.706642e-01 6.773183e-01 6.863092e-01 6.955497e-01 7.022515e-01 7.033150e-01 6.957489e-01 6.771722e-01 6.463402e-01 6.036707e-01 5.514095e-01 4.930766e-01 4.326557e-01 3.735945e-01 3.184935e-01 2.688505e-01 2.253482e-01 1.879767e-01 1.563639e-01 1.298932e-01 1.078925e-01 8.967341e-02 7.461399e-02 6.214935e-02 5.180589e-02 4.317239e-02 3.591967e-02 2.976565e-02 2.449373e-02 1.991735e-02 1.590039e-02 1.232337e-02 9.105407e-03 
9.540148e-03 5.579885e-03 1.902652e-03 -1.518945e-03 -4.715383e-03 -7.692106e-03 -1.045975e-02 -1.301127e-02 -1.534570e-02 -1.745062e-02 -1.931998e-02 -2.094166e-02 -2.230986e-02 -2.341738e-02 -2.426335e-02 -2.484935e-02 -2.518354e-02 -2.527976e-02 -2.515894e-02 -2.485035e-02 -2.439129e-02 -2.382960e-02 -2.322245e-02 -2.263945e-02 -2.216122e-02 -2.188237e-02 -2.191045e-02 -2.236819e-02 -2.339319e-02 -2.513879e-02 -2.777467e-02 -3.148588e-02 -3.647429e-02 -4.295514e-02 -5.115943e-02 -6.132717e-02 -7.371078e-02 -8.856430e-02 -1.061479e-01 -1.267123e-01 -1.505049e-01 -1.777482e-01 -2.086490e-01 -2.433701e-01 -2.820433e-01 -3.247350e-01 -3.714638e-01 -4.221617e-01 -4.766967e-01 -5.348324e-01 -5.962561e-01 -6.605406e-01 -7.271773e-01 -7.955442e-01 -8.649421e-01 -9.345732e-01 -1.003576e+00 -1.071019e+00 -1.135926e+00 -1.197282e+00 -1.254051e+00 -1.305192e+00 -1.349649e+00 -1.386394e+00 -1.414380e+00 -1.432619e+00 -1.440085e+00 -1.435862e+00 -1.418973e+00 -1.388641e+00 -1.344026e+00 -1.284624e+00 -1.209908e+00 -1.119857e+00 -1.014509e+00 -8.945590e-01 -7.608836e-01 -6.150569e-01 -4.589864e-01 -2.951488e-01 -1.265230e-01 4.359100e-02 2.112586e-01 3.724801e-01 5.226948e-01 6.576025e-01 7.729674e-01 8.655638e-01 9.335793e-01 9.773998e-01 9.999948e-01 1.006779e+00 1.004738e+00 1.000792e+00 1.000131e+00 1.005515e+00 1.017406e+00 1.034029e+00 1.051691e+00 1.065714e+00 1.070875e+00 1.062129e+00 1.035249e+00 9.878259e-01 9.204026e-01 8.370224e-01 7.441352e-01 6.487743e-01 5.566940e-01 4.719033e-01 3.964527e-01 3.310562e-01 2.753892e-01 2.286512e-01 1.897415e-01 1.575481e-01 1.309739e-01 1.090620e-01 9.095222e-02 7.594022e-02 6.341335e-02 5.289050e-02 4.395574e-02 3.629546e-02 2.963587e-02 2.378099e-02 1.855590e-02 1.384469e-02 
1.333134e-02 8.180753e-03 3.377449e-03 -1.110978e-03 -5.322662e-03 -9.261414e-03 -1.293983e-02 -1.634530e-02 -1.947545e-02 -2.231051e-02 -2.484159e-02 -2.704922e-02 -2.892502e-02 -3.045592e-02 -3.164022e-02 -3.247647e-02 -3.297504e-02 -3.315071e-02 -3.303096e-02 -3.265103e-02 -3.206025e-02 -3.131853e-02 -3.050175e-02 -2.969878e-02 -2.901690e-02 -2.857835e-02 -2.852659e-02 -2.902162e-02 -3.024740e-02 -3.240538e-02 -3.572310e-02 -4.044536e-02 -4.684384e-02 -5.520532e-02 -6.584192e-02 -7.907590e-02 -9.525001e-02 -1.147082e-01 -1.378062e-01 -1.648867e-01 -1.962911e-01 -2.323282e-01 -2.732874e-01 -3.194010e-01 -3.708599e-01 -4.277697e-01 -4.901702e-01 -5.579872e-01 -6.310573e-01 -7.090787e-01 -7.916410e-01 -8.781823e-01 -9.680217e-01 -1.060329e+00 -1.154160e+00 -1.248441e+00 -1.342002e+00 -1.433584e+00 -1.521862e+00 -1.605468e+00 -1.682997e+00 -1.753050e+00 -1.814209e+00 -1.865100e+00 -1.904321e+00 -1.930552e+00 -1.942417e+00 -1.938674e+00 -1.917994e+00 -1.879287e+00 -1.821366e+00 -1.743469e+00 -1.644784e+00 -1.525166e+00 -1.384548e+00 -1.223743e+00 -1.043839e+00 -8.468524e-01 -6.353196e-01 -4.124915e-01 -1.824064e-01 5.055554e-02 2.809902e-01 5.034370e-01 7.114200e-01 8.986345e-01 1.058614e+00 1.185967e+00 1.277398e+00 1.332745e+00 1.356322e+00 1.356651e+00 1.345371e+00 1.334058e+00 1.330603e+00 1.338562e+00 1.358371e+00 1.386953e+00 1.418161e+00 1.444831e+00 1.458977e+00 1.452832e+00 1.419352e+00 1.353917e+00 1.256778e+00 1.134927e+00 9.998070e-01 8.631850e-01 7.338040e-01 6.170111e-01 5.149588e-01 4.278716e-01 3.546815e-01 2.938444e-01 2.435872e-01 2.022414e-01 1.682545e-01 1.403097e-01 1.172569e-01 9.816580e-02 8.223992e-02 6.885644e-02 5.748173e-02 4.771391e-02 3.920371e-02 3.170155e-02 2.498475e-02 1.890679e-02 
1.765970e-02 1.143684e-02 5.600656e-03 1.164479e-04 -5.058890e-03 -9.926291e-03 -1.449748e-02 -1.875397e-02 -2.268876e-02 -2.627509e-02 -2.949752e-02 -3.232997e-02 -3.475732e-02 -3.676171e-02 -3.833590e-02 -3.947677e-02 -4.019176e-02 -4.049817e-02 -4.042440e-02 -4.001345e-02 -3.932068e-02 -3.841999e-02 -3.739967e-02 -3.636992e-02 -3.545817e-02 -3.481660e-02 -3.461802e-02 -3.506239e-02 -3.637383e-02 -3.880513e-02 -4.263629e-02 -4.817600e-02 -5.576179e-02 -6.575733e-02 -7.855421e-02 -9.456378e-02 -1.142206e-01 -1.379673e-01 -1.662602e-01 -1.995452e-01 -2.382666e-01 -2.828324e-01 -3.336279e-01 -3.909687e-01 -4.551211e-01 -5.262434e-01 -6.044142e-01 -6.895643e-01 -7.815148e-01 -8.799039e-01 -9.842356e-01 -1.093809e+00 -1.207777e+00 -1.325087e+00 -1.444544e+00 -1.564776e+00 -1.684296e+00 -1.801487e+00 -1.914661e+00 -2.022069e+00 -2.121930e+00 -2.212469e+00 -2.291904e+00 -2.358505e+00 -2.410527e+00 -2.446310e+00 -2.464137e+00 -2.462422e+00 -2.439470e+00 -2.393828e+00 -2.323917e+00 -2.228623e+00 -2.106764e+00 -1.957965e+00 -1.781937e+00 -1.579543e+00 -1.351965e+00 -1.101681e+00 -8.317526e-01 -5.462984e-01 -2.503142e-01 5.064077e-02 3.497789e-01 6.400515e-01 9.129124e-01 1.159594e+00 1.370553e+00 1.537159e+00 1.653224e+00 1.717204e+00 1.734485e+00 1.718206e+00 1.687702e+00 1.662727e+00 1.654619e+00 1.666188e+00 1.698384e+00 1.746002e+00 1.798577e+00 1.846050e+00 1.876751e+00 1.879606e+00 1.843149e+00 1.758126e+00 1.622920e+00 1.449801e+00 1.259779e+00 1.072354e+00 8.999689e-01 7.486674e-01 6.196659e-01 5.117850e-01 4.225492e-01 3.492771e-01 2.892892e-01 2.402668e-01 2.001519e-01 1.672763e-01 1.402052e-01 1.178124e-01 9.913226e-02 8.342782e-02 7.006021e-02 5.855937e-02 4.850917e-02 3.961978e-02 3.162641e-02 2.436024e-02 
2.286785e-02 1.569438e-02 8.916245e-03 2.500691e-03 -3.598691e-03 -9.375697e-03 -1.484069e-02 -1.996472e-02 -2.473647e-02 -2.911707e-02 -3.308539e-02 -3.660326e-02 -3.965000e-02 -4.219709e-02 -4.423338e-02 -4.574779e-02 -4.674681e-02 -4.724369e-02 -4.727003e-02 -4.686978e-02 -4.610678e-02 -4.506193e-02 -4.383853e-02 -4.256099e-02 -4.137963e-02 -4.046940e-02 -4.003548e-02 -4.031079e-02 -4.156301e-02 -4.408991e-02 -4.822801e-02 -5.434471e-02 -6.284843e-02 -7.417661e-02 -8.880663e-02 -1.072388e-01 -1.300076e-01 -1.576580e-01 -1.907570e-01 -2.298620e-01 -2.755327e-01 -3.282898e-01 -3.886289e-01 -4.569672e-01 -5.336625e-01 -6.189476e-01 -7.129560e-01 -8.156466e-01 -9.268382e-01 -1.046130e+00 -1.172947e+00 -1.306464e+00 -1.445660e+00 -1.589266e+00 -1.735816e+00 -1.883632e+00 -2.030869e+00 -2.175540e+00 -2.315548e+00 -2.448742e+00 -2.572928e+00 -2.685941e+00 -2.785613e+00 -2.869862e+00 -2.936598e+00 -2.983834e+00 -3.009519e+00 -3.011727e+00 -2.988384e+00 -2.937645e+00 -2.857467e+00 -2.746303e+00 -2.602473e+00 -2.425228e+00 -2.213917e+00 -1.969291e+00 -1.692558e+00 -1.386518e+00 -1.054825e+00 -7.023390e-01 -3.351625e-01 4.017929e-02 4.154069e-01 7.821420e-01 1.129555e+00 1.446066e+00 1.717993e+00 1.931522e+00 2.075454e+00 2.144423e+00 2.144204e+00 2.093946e+00 2.026731e+00 1.979022e+00 1.965679e+00 1.981775e+00 2.033402e+00 2.111524e+00 2.196397e+00 2.276386e+00 2.334527e+00 2.356946e+00 2.325437e+00 2.220556e+00 2.032997e+00 1.785697e+00 1.520112e+00 1.268544e+00 1.046828e+00 8.595114e-01 7.047250e-01 5.783958e-01 4.757922e-01 3.926577e-01 3.252371e-01 2.705022e-01 2.259109e-01 1.894703e-01 1.595113e-01 1.347448e-01 1.140776e-01 9.668292e-02 8.184519e-02 6.904207e-02 5.780890e-02 4.782565e-02 3.879666e-02 3.053749e-02 
2.914248e-02 2.117966e-02 1.358630e-02 6.334267e-03 -6.222049e-04 -7.268866e-03 -1.361039e-02 -1.960760e-02 -2.523980e-02 -3.045703e-02 -3.522665e-02 -3.949985e-02 -4.324381e-02 -4.642126e-02 -4.900974e-02 -5.099251e-02 -5.236700e-02 -5.314500e-02 -5.335258e-02 -5.303739e-02 -5.226253e-02 -5.111877e-02 -4.971476e-02 -4.819204e-02 -4.671389e-02 -4.548112e-02 -4.472133e-02 -4.470379e-02 -4.573029e-02 -4.814759e-02 -5.234049e-02 -5.874023e-02 -6.782012e-02 -8.009813e-02 -9.613503e-02 -1.165292e-01 -1.419173e-01 -1.729589e-01 -2.103404e-01 -2.547461e-01 -3.068669e-01 -3.673549e-01 -4.368387e-01 -5.158589e-01 -6.048933e-01 -7.042714e-01 -8.142129e-01 -9.347240e-01 -1.065651e+00 -1.206564e+00 -1.356831e+00 -1.515499e+00 -1.681383e+00 -1.852970e+00 -2.028517e+00 -2.205992e+00 -2.383172e+00 -2.557637e+00 -2.726853e+00 -2.888209e+00 -3.039074e+00 -3.176854e+00 -3.298998e+00 -3.403060e+00 -3.486631e+00 -3.547410e+00 -3.583048e+00 -3.591282e+00 -3.569674e+00 -3.515930e+00 -3.427505e+00 -3.302267e+00 -3.137909e+00 -2.933110e+00 -2.686654e+00 -2.399046e+00 -2.071319e+00 -1.706658e+00 -1.309166e+00 -8.846763e-01 -4.402255e-01 1.656966e-02 4.763686e-01 9.296693e-01 1.363838e+00 1.764255e+00 2.111999e+00 2.385394e+00 2.564100e+00 2.634796e+00 2.600170e+00 2.485570e+00 2.348458e+00 2.266097e+00 2.255507e+00 2.272639e+00 2.355262e+00 2.484942e+00 2.614857e+00 2.744411e+00 2.843800e+00 2.902874e+00 2.894227e+00 2.776054e+00 2.510246e+00 2.144479e+00 1.769566e+00 1.436957e+00 1.161145e+00 9.393996e-01 7.628983e-01 6.227024e-01 5.109539e-01 4.215755e-01 3.496988e-01 2.916809e-01 2.445733e-01 2.061640e-01 1.746109e-01 1.485346e-01 1.267520e-01 1.083918e-01 9.268417e-02 7.908210e-02 6.708547e-02 5.636083e-02 4.658953e-02 3.758132e-02 
3.700087e-02 2.839948e-02 2.010097e-02 1.208740e-02 4.314607e-03 -3.189186e-03 -1.042321e-02 -1.733140e-02 -2.388476e-02 -3.001475e-02 -3.567882e-02 -4.080937e-02 -4.536354e-02 -4.928651e-02 -5.254710e-02 -5.511367e-02 -5.697761e-02 -5.813964e-02 -5.862365e-02 -5.847113e-02 -5.774797e-02 -5.654468e-02 -5.497887e-02 -5.319892e-02 -5.138464e-02 -4.975240e-02 -4.855582e-02 -4.809049e-02 -4.869615e-02 -5.075940e-02 -5.471773e-02 -6.105887e-02 -7.032647e-02 -8.311472e-02 -1.000749e-01 -1.219035e-01 -1.493491e-01 -1.831919e-01 -2.242502e-01 -2.733489e-01 -3.313262e-01 -3.989874e-01 -4.771147e-01 -5.664015e-01 -6.674698e-01 -7.807821e-01 -9.066701e-01 -1.045227e+00 -1.196348e+00 -1.359615e+00 -1.534349e+00 -1.719495e+00 -1.913698e+00 -2.115209e+00 -2.321970e+00 -2.531578e+00 -2.741365e+00 -2.948436e+00 -3.149735e+00 -3.342142e+00 -3.522509e+00 -3.687785e+00 -3.834990e+00 -3.961327e+00 -4.064079e+00 -4.140681e+00 -4.188531e+00 -4.205089e+00 -4.187576e+00 -4.133260e+00 -4.039017e+00 -3.902034e+00 -3.719170e+00 -3.488300e+00 -3.207377e+00 -2.876374e+00 -2.496014e+00 -2.069679e+00 -1.602110e+00 -1.100034e+00 -5.718213e-01 -2.580635e-02 5.276080e-01 1.079039e+00 1.614755e+00 2.118220e+00 2.564306e+00 2.919837e+00 3.148702e+00 3.221277e+00 3.130265e+00 2.897176e+00 2.617892e+00 2.488754e+00 2.528706e+00 2.511833e+00 2.647237e+00 2.876229e+00 3.053048e+00 3.261613e+00 3.412611e+00 3.534481e+00 3.588978e+00 3.491902e+00 3.095608e+00 2.516492e+00 1.979255e+00 1.550287e+00 1.223290e+00 9.758651e-01 7.867766e-01 6.404595e-01 5.256834e-01 4.347704e-01 3.620632e-01 3.035654e-01 2.561428e-01 2.175064e-01 1.857610e-01 1.595082e-01 1.375406e-01 1.189796e-01 1.030377e-01 8.916375e-02 7.684316e-02 6.574102e-02 5.552754e-02 4.601445e-02 
4.674856e-02 3.769826e-02 2.884255e-02 2.017479e-02 1.165759e-02 3.332685e-03 -4.787759e-03 -1.263223e-02 -2.015633e-02 -2.727506e-02 -3.392767e-02 -4.003037e-02 -4.552080e-02 -5.032964e-02 -5.440652e-02 -5.770830e-02 -6.020897e-02 -6.190189e-02 -6.279665e-02 -6.293242e-02 -6.236514e-02 -6.118890e-02 -5.951695e-02 -5.750826e-02 -5.534552e-02 -5.326414e-02 -5.153016e-02 -5.046897e-02 -5.044528e-02 -5.188929e-02 -5.527988e-02 -6.116595e-02 -7.015332e-02 -8.291890e-02 -1.002012e-01 -1.228044e-01 -1.515927e-01 -1.874805e-01 -2.314311e-01 -2.844288e-01 -3.474830e-01 -4.215772e-01 -5.076824e-01 -6.066756e-01 -7.193682e-01 -8.463903e-01 -9.882371e-01 -1.145121e+00 -1.317040e+00 -1.503605e+00 -1.704132e+00 -1.917465e+00 -2.142090e+00 -2.375990e+00 -2.616773e+00 -2.861586e+00 -3.107266e+00 -3.350332e+00 -3.587133e+00 -3.813927e+00 -4.026991e+00 -4.222735e+00 -4.397747e+00 -4.548863e+00 -4.673121e+00 -4.767743e+00 -4.829994e+00 -4.857114e+00 -4.846100e+00 -4.793755e+00 -4.696391e+00 -4.550304e+00 -4.351348e+00 -4.096210e+00 -3.781670e+00 -3.406852e+00 -2.971838e+00 -2.480323e+00 -1.937603e+00 -1.351951e+00 -7.331073e-01 -9.061073e-02 5.649176e-01 1.225370e+00 1.878797e+00 2.509246e+00 3.086857e+00 3.562312e+00 3.872671e+00 3.958454e+00 3.793344e+00 3.350241e+00 2.740075e+00 2.551290e+00 2.870885e+00 2.615453e+00 2.867162e+00 3.341439e+00 3.482591e+00 3.859127e+00 4.034126e+00 4.255996e+00 4.457562e+00 4.524075e+00 3.873467e+00 2.849575e+00 2.082369e+00 1.562962e+00 1.207778e+00 9.559360e-01 7.700480e-01 6.286754e-01 5.185485e-01 4.315461e-01 3.619551e-01 3.059385e-01 2.604673e-01 2.233911e-01 1.928803e-01 1.676171e-01 1.464228e-01 1.284625e-01 1.129575e-01 9.938035e-02 8.721628e-02 7.614417e-02 6.583166e-02 5.610050e-02 
5.910963e-02 4.977663e-02 4.048042e-02 3.123231e-02 2.200079e-02 1.284875e-02 3.798008e-03 -5.055465e-03 -1.365426e-02 -2.188652e-02 -2.967619e-02 -3.691178e-02 -4.351486e-02 -4.938927e-02 -5.446942e-02 -5.868782e-02 -6.200551e-02 -6.439529e-02 -6.585727e-02 -6.641486e-02 -6.611892e-02 -6.505349e-02 -6.333217e-02 -6.111064e-02 -5.857877e-02 -5.597719e-02 -5.358807e-02 -5.175317e-02 -5.086553e-02 -5.138669e-02 -5.384033e-02 -5.882663e-02 -6.701782e-02 -7.916771e-02 -9.610804e-02 -1.187512e-01 -1.480858e-01 -1.851696e-01 -2.311243e-01 -2.871131e-01 -3.543362e-01 -4.339873e-01 -5.272525e-01 -6.352379e-01 -7.589786e-01 -8.993290e-01 -1.056988e+00 -1.232354e+00 -1.425564e+00 -1.636325e+00 -1.863975e+00 -2.107304e+00 -2.364643e+00 -2.633712e+00 -2.911737e+00 -3.195376e+00 -3.480852e+00 -3.764010e+00 -4.040439e+00 -4.305661e+00 -4.555215e+00 -4.784902e+00 -4.990784e+00 -5.169355e+00 -5.317442e+00 -5.432184e+00 -5.510845e+00 -5.550637e+00 -5.548460e+00 -5.500788e+00 -5.403340e+00 -5.251449e+00 -5.039637e+00 -4.763032e+00 -4.416681e+00 -3.998317e+00 -3.507018e+00 -2.946514e+00 -2.323099e+00 -1.646907e+00 -9.303840e-01 -1.844305e-01 5.795667e-01 1.357563e+00 2.143035e+00 2.928493e+00 3.684751e+00 4.344670e+00 4.796594e+00 4.926908e+00 4.719865e+00 3.957720e+00 2.439874e+00 2.123088e+00 3.805771e+00 2.230797e+00 2.893043e+00 4.164836e+00 3.702938e+00 4.683375e+00 4.634804e+00 5.024155e+00 5.489608e+00 6.296405e+00 5.035465e+00 2.925436e+00 1.938221e+00 1.412717e+00 1.091506e+00 8.726695e-01 7.117483e-01 5.882996e-01 4.909748e-01 4.132998e-01 3.506434e-01 2.999183e-01 2.585574e-01 2.247404e-01 1.968390e-01 1.736908e-01 1.542082e-01 1.376343e-01 1.232310e-01 1.105125e-01 9.898062e-02 8.833865e-02 7.825992e-02 6.858356e-02 
7.454300e-02 6.513229e-02 5.555364e-02 4.583413e-02 3.595461e-02 2.599613e-02 1.599803e-02 6.077194e-03 -3.686257e-03 -1.315759e-02 -2.223398e-02 -3.078054e-02 -3.868974e-02 -4.584328e-02 -5.214600e-02 -5.751109e-02 -6.187133e-02 -6.518423e-02 -6.742428e-02 -6.860445e-02 -6.875373e-02 -6.795113e-02 -6.629327e-02 -6.393697e-02 -6.106160e-02 -5.791652e-02 -5.478243e-02 -5.202011e-02 -5.003407e-02 -4.931933e-02 -5.042950e-02 -5.401848e-02 -6.081387e-02 -7.165035e-02 -8.744830e-02 -1.092354e-01 -1.381296e-01 -1.753448e-01 -2.221781e-01 -2.799929e-01 -3.502126e-01 -4.342724e-01 -5.336243e-01 -6.496458e-01 -7.836637e-01 -9.368099e-01 -1.110069e+00 -1.304080e+00 -1.519208e+00 -1.755301e+00 -2.011792e+00 -2.287433e+00 -2.580428e+00 -2.888198e+00 -3.207548e+00 -3.534527e+00 -3.864638e+00 -4.192847e+00 -4.513827e+00 -4.822137e+00 -5.112436e+00 -5.379744e+00 -5.619561e+00 -5.828011e+00 -6.001831e+00 -6.138211e+00 -6.234681e+00 -6.288647e+00 -6.297227e+00 -6.256694e+00 -6.162351e+00 -6.008329e+00 -5.787621e+00 -5.493050e+00 -5.117288e+00 -4.655830e+00 -4.106066e+00 -3.471795e+00 -2.760346e+00 -1.985381e+00 -1.163256e+00 -3.086572e-01 5.658317e-01 1.461675e+00 2.385039e+00 3.349924e+00 4.348312e+00 5.302895e+00 6.010623e+00 6.209286e+00 6.183925e+00 5.301717e+00 9.348515e-01 -3.474751e-01 6.017764e+00 4.969685e+00 1.304595e+00 4.991787e+00 3.810120e+00 3.733660e+00 3.535200e+00 2.903273e+00 4.100738e+00 4.271765e+00 4.141714e+00 1.873305e+00 1.333832e+00 1.060551e+00 8.765585e-01 7.347645e-01 6.194088e-01 5.247126e-01 4.465984e-01 3.824853e-01 3.297902e-01 2.866618e-01 2.512304e-01 2.221564e-01 1.980940e-01 1.780995e-01 1.612132e-01 1.467877e-01 1.341450e-01 1.228570e-01 1.124537e-01 1.026702e-01 9.319306e-02 8.388127e-02 
9.400268e-02 8.468612e-02 7.493844e-02 6.481023e-02 5.429061e-02 4.348854e-02 3.245661e-02 2.134467e-02 1.025110e-02 -6.523449e-04 -1.124080e-02 -2.134024e-02 -3.081928e-02 -3.952063e-02 -4.732549e-02 -5.411035e-02 -5.978621e-02 -6.427771e-02 -6.754056e-02 -6.955963e-02 -7.034877e-02 -6.996424e-02 -6.849172e-02 -6.607135e-02 -6.287685e-02 -5.914851e-02 -5.516888e-02 -5.130032e-02 -4.796066e-02 -4.566223e-02 -4.498945e-02 -4.663658e-02 -5.138743e-02 -6.014935e-02 -7.393364e-02 -9.388311e-02 -1.212510e-01 -1.574184e-01 -2.038698e-01 -2.621947e-01 -3.340609e-01 -4.211891e-01 -5.253300e-01 -6.481975e-01 -7.914581e-01 -9.566066e-01 -1.144977e+00 -1.357552e+00 -1.594997e+00 -1.857410e+00 -2.144385e+00 -2.454723e+00 -2.786530e+00 -3.136955e+00 -3.502321e+00 -3.877995e+00 -4.258561e+00 -4.637925e+00 -5.009524e+00 -5.366700e+00 -5.702898e+00 -6.012170e+00 -6.289270e+00 -6.529971e+00 -6.731008e+00 -6.889894e+00 -7.004752e+00 -7.073618e+00 -7.094219e+00 -7.063043e+00 -6.975126e+00 -6.823486e+00 -6.599099e+00 -6.291883e+00 -5.890915e+00 -5.388289e+00 -4.778557e+00 -4.064857e+00 -3.256137e+00 -2.370727e+00 -1.432609e+00 -4.635571e-01 5.177717e-01 1.518946e+00 2.564135e+00 3.711680e+00 5.019659e+00 6.468991e+00 7.682442e+00 7.691155e+00 8.488858e+00 9.256202e+00 7.360991e+00 8.621981e+00 1.774371e+00 3.744238e+00 3.407337e+00 -3.542662e-02 4.046143e-01 -1.544490e+00 -1.434214e+00 -2.311637e+00 -1.779536e+00 -3.165308e+00 -3.094270e-01 -1.106158e-01 4.692931e-01 6.234676e-01 6.248103e-01 5.745905e-01 5.106357e-01 4.480102e-01 3.916507e-01 3.432202e-01 3.023346e-01 2.683997e-01 2.402911e-01 2.171687e-01 1.980021e-01 1.820848e-01 1.686061e-01 1.570418e-01 1.467861e-01 1.374778e-01 1.286800e-01 1.201666e-01 1.116379e-01 1.029786e-01 
1.181213e-01 1.091126e-01 9.935790e-02 8.892420e-02 7.781709e-02 6.616640e-02 5.404854e-02 4.163955e-02 2.906918e-02 1.653962e-02 4.213308e-03 -7.703256e-03 -1.903716e-02 -2.959912e-02 -3.922742e-02 -4.776919e-02 -5.509332e-02 -6.109912e-02 -6.570249e-02 -6.886758e-02 -7.057161e-02 -7.085472e-02 -6.976977e-02 -6.744551e-02 -6.402775e-02 -5.975111e-02 -5.487767e-02 -4.977254e-02 -4.484528e-02 -4.062462e-02 -3.770632e-02 -3.682285e-02 -3.879922e-02 -4.461368e-02 -5.536109e-02 -7.230068e-02 -9.682521e-02 -1.304908e-01 -1.749905e-01 -2.321585e-01 -3.039495e-01 -3.924048e-01 -4.996433e-01 -6.277707e-01 -7.788924e-01 -9.549447e-01 -1.157739e+00 -1.388697e+00 -1.648931e+00 -1.938888e+00 -2.258457e+00 -2.606552e+00 -2.981257e+00 -3.379416e+00 -3.796834e+00 -4.228003e+00 -4.666395e+00 -5.104479e+00 -5.534125e+00 -5.946998e+00 -6.334988e+00 -6.690826e+00 -7.008380e+00 -7.283013e+00 -7.511658e+00 -7.692454e+00 -7.824624e+00 -7.907401e+00 -7.939810e+00 -7.919127e+00 -7.840708e+00 -7.696401e+00 -7.475024e+00 -7.162200e+00 -6.742106e+00 -6.201183e+00 -5.529433e+00 -4.728534e+00 -3.808679e+00 -2.795918e+00 -1.725455e+00 -6.342908e-01 4.442730e-01 1.517480e+00 2.627506e+00 3.894356e+00 5.522239e+00 7.825529e+00 1.048947e+01 8.762063e+00 3.176157e+00 1.690288e+00 4.158828e+00 4.041954e+00 -1.199344e+00 -5.782446e+00 -3.900274e+00 -4.206590e+00 -4.713897e+00 -4.001323e+00 -4.257899e+00 -3.337453e+00 -4.757775e+00 -4.705494e+00 -2.690350e+00 -8.666229e-01 4.194530e-02 3.470686e-01 4.315351e-01 4.332425e-01 4.052060e-01 3.687998e-01 3.323670e-01 2.994761e-01 2.709543e-01 2.470298e-01 2.271342e-01 2.108403e-01 1.974030e-01 1.863355e-01 1.769790e-01 1.689277e-01 1.616560e-01 1.548656e-01 1.481603e-01 1.413472e-01 1.341469e-01 1.264630e-01 
1.480987e-01 1.395739e-01 1.299187e-01 1.192256e-01 1.075079e-01 9.492906e-02 8.158120e-02 6.768275e-02 5.338747e-02 3.894715e-02 2.455453e-02 1.047003e-02 -3.099734e-03 -1.591067e-02 -2.776682e-02 -3.846267e-02 -4.783447e-02 -5.573302e-02 -6.204433e-02 -6.668895e-02 -6.961695e-02 -7.082981e-02 -7.035567e-02 -6.828935e-02 -6.475455e-02 -5.995757e-02 -5.414276e-02 -4.765553e-02 -4.089646e-02 -3.438940e-02 -2.873779e-02 -2.469394e-02 -2.311871e-02 -2.504872e-02 -3.165749e-02 -4.431790e-02 -6.456079e-02 -9.412913e-02 -1.349304e-01 -1.890753e-01 -2.588239e-01 -3.465956e-01 -4.549143e-01 -5.863668e-01 -7.435609e-01 -9.289998e-01 -1.145068e+00 -1.393791e+00 -1.676857e+00 -1.995248e+00 -2.349291e+00 -2.738193e+00 -3.160110e+00 -3.611678e+00 -4.088127e+00 -4.582976e+00 -5.088260e+00 -5.594643e+00 -6.091810e+00 -6.569181e+00 -7.016387e+00 -7.424385e+00 -7.785755e+00 -8.095471e+00 -8.350869e+00 -8.551253e+00 -8.697665e+00 -8.791392e+00 -8.833675e+00 -8.823554e+00 -8.757399e+00 -8.626483e+00 -8.416921e+00 -8.109183e+00 -7.679901e+00 -7.107276e+00 -6.373420e+00 -5.476198e+00 -4.426595e+00 -3.259361e+00 -2.027617e+00 -7.942711e-01 3.745172e-01 1.468427e+00 2.532397e+00 3.716992e+00 5.350747e+00 8.810393e+00 1.714963e+01 2.537602e+00 5.420544e+00 5.946427e+00 -2.596437e+00 -1.667914e+01 -1.115420e+01 9.292175e-02 -5.279097e+00 -7.159479e-01 -1.475093e+00 9.465717e-01 -4.989186e-01 1.556054e+00 -2.097071e-01 2.431546e+00 3.949986e-01 1.132057e-01 2.271045e-01 2.991566e-01 3.267073e-01 3.264652e-01 3.125760e-01 2.934179e-01 2.733155e-01 2.547282e-01 2.384132e-01 2.248346e-01 2.137117e-01 2.048977e-01 1.978661e-01 1.923189e-01 1.877276e-01 1.837996e-01 1.800776e-01 1.763276e-01 1.721840e-01 1.674902e-01 1.619765e-01 1.555702e-01 
1.847441e-01 1.769296e-01 1.675428e-01 1.566873e-01 1.443950e-01 1.308503e-01 1.161753e-01 1.006196e-01 8.437881e-02 6.774393e-02 5.095921e-02 3.432900e-02 1.811758e-02 2.613636e-03 -1.192680e-02 -2.525616e-02 -3.715125e-02 -4.742522e-02 -5.590695e-02 -6.248397e-02 -6.705194e-02 -6.958294e-02 -7.005305e-02 -6.853009e-02 -6.508808e-02 -5.990842e-02 -5.318992e-02 -4.525738e-02 -3.647502e-02 -2.735626e-02 -1.848662e-02 -1.062888e-02 -4.658524e-03 -1.659245e-03 -2.870315e-03 -9.768454e-03 -2.402339e-02 -4.756177e-02 -8.252663e-02 -1.313160e-01 -1.965450e-01 -2.810445e-01 -3.878322e-01 -5.200432e-01 -6.809248e-01 -8.736598e-01 -1.101399e+00 -1.366933e+00 -1.672769e+00 -2.020623e+00 -2.411520e+00 -2.845137e+00 -3.319898e+00 -3.832273e+00 -4.376911e+00 -4.946097e+00 -5.530079e+00 -6.117036e+00 -6.693758e+00 -7.246473e+00 -7.761756e+00 -8.228033e+00 -8.636235e+00 -8.980829e+00 -9.259923e+00 -9.474604e+00 -9.628610e+00 -9.726443e+00 -9.772836e+00 -9.770199e+00 -9.717465e+00 -9.606297e+00 -9.420403e+00 -9.132805e+00 -8.709846e+00 -8.115751e+00 -7.320604e+00 -6.314986e+00 -5.108134e+00 -3.746007e+00 -2.302310e+00 -8.829480e-01 3.835299e-01 1.441363e+00 2.322986e+00 3.120100e+00 3.417949e+00 5.014540e+00 7.833063e+00 4.504237e+00 8.596968e+00 -1.196387e+01 -1.742232e+01 1.024346e+01 9.520907e+00 2.965131e+00 3.508479e+00 4.437547e+00 3.312662e+00 5.043174e+00 3.972441e+00 4.682686e+00 4.711206e+00 4.257680e+00 4.067822e+00 9.705165e-01 4.568465e-01 3.006905e-01 2.534151e-01 2.374739e-01 2.292024e-01 2.226667e-01 2.164844e-01 2.111022e-01 2.066299e-01 2.034476e-01 2.013938e-01 2.004833e-01 2.003630e-01 2.008709e-01 2.016003e-01 2.023410e-01 2.027065e-01 2.025046e-01 2.014049e-01 1.992679e-01 1.958396e-01 1.910531e-01 
2.295146e-01 2.226018e-01 2.135891e-01 2.026033e-01 1.896791e-01 1.750387e-01 1.588213e-01 1.413293e-01 1.227888e-01 1.035564e-01 8.391686e-02 6.424786e-02 4.486001e-02 2.611754e-02 8.323996e-03 -8.199824e-03 -2.318515e-02 -3.637699e-02 -4.756165e-02 -5.656417e-02 -6.323976e-02 -6.750254e-02 -6.928821e-02 -6.860934e-02 -6.549799e-02 -6.008219e-02 -5.251756e-02 -4.307942e-02 -3.209170e-02 -2.002890e-02 -7.448589e-03 4.902187e-03 1.614800e-02 2.517859e-02 3.070534e-02 3.115746e-02 2.474031e-02 9.335955e-03 -1.742822e-02 -5.827035e-02 -1.161702e-01 -1.944380e-01 -2.966202e-01 -4.265148e-01 -5.880861e-01 -7.853705e-01 -1.022426e+00 -1.303058e+00 -1.630815e+00 -2.008471e+00 -2.438047e+00 -2.920047e+00 -3.453453e+00 -4.034831e+00 -4.658306e+00 -5.314845e+00 -5.992411e+00 -6.675976e+00 -7.348210e+00 -7.990844e+00 -8.585857e+00 -9.118042e+00 -9.575843e+00 -9.953290e+00 -1.024988e+01 -1.046966e+01 -1.062055e+01 -1.071167e+01 -1.075298e+01 -1.075215e+01 -1.071282e+01 -1.062911e+01 -1.048253e+01 -1.023782e+01 -9.845385e+00 -9.249773e+00 -8.400281e+00 -7.274664e+00 -5.877444e+00 -4.260809e+00 -2.520757e+00 -8.205374e-01 5.992528e-01 1.565260e+00 2.202144e+00 3.008017e+00 3.271343e-01 1.485694e+01 1.442591e+01 9.286270e+00 -1.341947e+01 -1.396288e+01 7.610702e+00 1.194736e+01 3.497037e+00 2.404477e+00 4.579580e+00 4.490886e+00 5.687015e+00 2.806669e+00 4.507588e+00 1.855361e+00 3.662177e+00 -2.100936e+00 2.908049e+00 6.822747e-01 3.270861e-01 1.942436e-01 1.514299e-01 1.438706e-01 1.477340e-01 1.550497e-01 1.626387e-01 1.701548e-01 1.773708e-01 1.846392e-01 1.918751e-01 1.992229e-01 2.064511e-01 2.135141e-01 2.200899e-01 2.260430e-01 2.310291e-01 2.348955e-01 2.373227e-01 2.381894e-01 2.372349e-01 2.344021e-01 