# vtk DataFile Version 2.0
Comment goes here
ASCII

DATASET STRUCTURED_POINTS
DIMENSIONS    128   128   1

ORIGIN    0.000   0.000   0.000
SPACING   0.0156250.015625   1.000

POINT_DATA   16384
SCALARS Omega double
LOOKUP_TABLE default

1.412956e-06 5.124039e-07 -1.118337e-07 -4.442982e-07 -6.468156e-07 -6.746769e-07 -7.020102e-07 -6.639324e-07 -7.359786e-07 -8.429452e-07 -1.152472e-06 -1.588928e-06 -2.305127e-06 -3.234008e-06 -4.509577e-06 -6.080442e-06 -8.061035e-06 -1.041993e-05 -1.325433e-05 -1.655360e-05 -2.040270e-05 -2.480896e-05 -2.985182e-05 -3.555047e-05 -4.198620e-05 -4.918176e-05 -5.722699e-05 -6.613951e-05 -7.602223e-05 -8.688095e-05 -9.883268e-05 -1.118693e-04 -1.261181e-04 -1.415620e-04 -1.583294e-04 -1.764072e-04 -1.959102e-04 -2.168505e-04 -2.393094e-04 -2.633516e-04 -2.890012e-04 -3.164027e-04 -3.454997e-04 -3.765367e-04 -4.093561e-04 -4.443056e-04 -4.811138e-04 -5.202098e-04 -5.612069e-04 -6.045631e-04 -6.497890e-04 -6.972902e-04 -7.465000e-04 -7.976701e-04 -8.501913e-04 -9.040565e-04 -9.586502e-04 -1.013619e-03 -1.068371e-03 -1.122157e-03 -1.174422e-03 -1.224034e-03 -1.270468e-03 -1.312286e-03 -1.348987e-03 -1.378961e-03 -1.401736e-03 -1.415720e-03 -1.420490e-03 -1.414703e-03 -1.398026e-03 -1.369594e-03 -1.329219e-03 -1.276695e-03 -1.212032e-03 -1.135758e-03 -1.048117e-03 -9.503195e-04 -8.428779e-04 -7.275373e-04 -6.051632e-04 -4.778856e-04 -3.471008e-04 -2.152586e-04 -8.449719e-05 4.246309e-05 1.627416e-04 2.736416e-04 3.720801e-04 4.561065e-04 5.235165e-04 5.739037e-04 6.068635e-04 6.236608e-04 6.256850e-04 6.152665e-04 5.948254e-04 5.669117e-04 5.339684e-04 4.979812e-04 4.606518e-04 4.231148e-04 3.862433e-04 3.505458e-04 3.164601e-04 2.841664e-04 2.540254e-04 2.259345e-04 2.002311e-04 1.765403e-04 1.551514e-04 1.355452e-04 1.179797e-04 1.019285e-04 8.763196e-05 7.462856e-05 6.313307e-05 5.276693e-05 4.370289e-05 3.564104e-05 2.869923e-05 2.264688e-05 1.754135e-05 1.321321e-05 9.660098e-06 6.767377e-06 4.478361e-06 2.727726e-06 
1.739112e-02 1.611874e-02 1.495522e-02 1.386865e-02 1.283800e-02 1.184347e-02 1.087549e-02 9.922759e-03 8.983819e-03 8.053175e-03 7.134624e-03 6.226366e-03 5.334881e-03 4.460202e-03 3.609143e-03 2.781820e-03 1.983189e-03 1.211718e-03 4.684588e-04 -2.515324e-04 -9.530509e-04 -1.646242e-03 -2.343621e-03 -3.062329e-03 -3.824428e-03 -4.655777e-03 -5.589736e-03 -6.662401e-03 -7.919996e-03 -9.409975e-03 -1.119257e-02 -1.332703e-02 -1.588796e-02 -1.894586e-02 -2.258876e-02 -2.689644e-02 -3.196765e-02 -3.788767e-02 -4.476089e-02 -5.267211e-02 -6.172361e-02 -7.199137e-02 -8.356494e-02 -9.650077e-02 -1.108627e-01 -1.266748e-01 -1.439607e-01 -1.626987e-01 -1.828574e-01 -2.043564e-01 -2.270970e-01 -2.509302e-01 -2.756827e-01 -3.011326e-01 -3.270315e-01 -3.530886e-01 -3.789882e-01 -4.043837e-01 -4.289067e-01 -4.521760e-01 -4.737896e-01 -4.933559e-01 -5.104583e-01 -5.247193e-01 -5.357228e-01 -5.431266e-01 -5.465293e-01 -5.456455e-01 -5.401073e-01 -5.297148e-01 -5.141692e-01 -4.933970e-01 -4.672259e-01 -4.357590e-01 -3.990227e-01 -3.573377e-01 -3.109940e-01 -2.605394e-01 -2.065606e-01 -1.498078e-01 -9.116025e-02 -3.154221e-02 2.790116e-02 8.607834e-02 1.416444e-01 1.934062e-01 2.400500e-01 2.806135e-01 3.143583e-01 3.412079e-01 3.616327e-01 3.768309e-01 3.883393e-01 3.978248e-01 4.065854e-01 4.154103e-01 4.244589e-01 4.333181e-01 4.410592e-01 4.463945e-01 4.478489e-01 4.439402e-01 4.334810e-01 4.158235e-01 3.911774e-01 3.606729e-01 3.261545e-01 2.897980e-01 2.536151e-01 2.192305e-01 1.877104e-01 1.596376e-01 1.351870e-01 1.142553e-01 9.657716e-02 8.179134e-02 6.952292e-02 5.939263e-02 5.106344e-02 4.422516e-02 3.861798e-02 3.401327e-02 3.022410e-02 2.709010e-02 2.448134e-02 2.228807e-02 2.042201e-02 1.880915e-02 
3.499288e-02 3.248951e-02 3.019428e-02 2.804519e-02 2.600037e-02 2.402223e-02 2.209112e-02 2.018669e-02 1.830498e-02 1.643755e-02 1.459054e-02 1.276313e-02 1.096659e-02 9.203873e-03 7.486860e-03 5.818638e-03 4.207446e-03 2.652957e-03 1.155756e-03 -2.914900e-04 -1.699677e-03 -3.086765e-03 -4.478859e-03 -5.908152e-03 -7.419633e-03 -9.063174e-03 -1.090621e-02 -1.301935e-02 -1.549570e-02 -1.842885e-02 -2.193999e-02 -2.614664e-02 -3.119893e-02 -3.723726e-02 -4.443898e-02 -5.296356e-02 -6.301021e-02 -7.475003e-02 -8.839406e-02 -1.041132e-01 -1.221147e-01 -1.425528e-01 -1.656098e-01 -1.914014e-01 -2.200590e-01 -2.516345e-01 -2.861785e-01 -3.236516e-01 -3.639942e-01 -4.070493e-01 -4.526217e-01 -5.004163e-01 -5.500866e-01 -6.011907e-01 -6.532291e-01 -7.056208e-01 -7.577289e-01 -8.088592e-01 -8.582682e-01 -9.051910e-01 -9.488169e-01 -9.883609e-01 -1.022984e+00 -1.051930e+00 -1.074364e+00 -1.089598e+00 -1.096827e+00 -1.095475e+00 -1.084800e+00 -1.064390e+00 -1.033634e+00 -9.923684e-01 -9.402309e-01 -8.774035e-01 -8.039273e-01 -7.204182e-01 -6.274582e-01 -5.261189e-01 -4.175919e-01 -3.033506e-01 -1.851799e-01 -6.489823e-02 5.517266e-02 1.728523e-01 2.853900e-01 3.903040e-01 4.848419e-01 5.668584e-01 6.347442e-01 6.881716e-01 7.281609e-01 7.572863e-01 7.790057e-01 7.970255e-01 8.141396e-01 8.319852e-01 8.508174e-01 8.697098e-01 8.866349e-01 8.988393e-01 9.031547e-01 8.963696e-01 8.758228e-01 8.399867e-01 7.892296e-01 7.260632e-01 6.546238e-01 5.797160e-01 5.056447e-01 4.357549e-01 3.721314e-01 3.158193e-01 2.670394e-01 2.254657e-01 1.904843e-01 1.613100e-01 1.371605e-01 1.172547e-01 1.009129e-01 8.751038e-02 7.653157e-02 6.752078e-02 6.011024e-02 5.398187e-02 4.888105e-02 4.459069e-02 4.093796e-02 3.777684e-02 
5.297081e-02 4.932382e-02 4.596724e-02 4.280935e-02 3.979165e-02 3.685737e-02 3.398158e-02 3.113220e-02 2.830814e-02 2.549445e-02 2.270549e-02 1.993734e-02 1.721223e-02 1.453184e-02 1.191925e-02 9.376615e-03 6.921294e-03 4.550774e-03 2.270546e-03 6.815124e-05 -2.068580e-03 -4.167483e-03 -6.263991e-03 -8.406801e-03 -1.066011e-02 -1.309881e-02 -1.582121e-02 -1.893322e-02 -2.257213e-02 -2.687858e-02 -3.203259e-02 -3.821130e-02 -4.563897e-02 -5.452799e-02 -6.514469e-02 -7.773127e-02 -9.258849e-02 -1.099775e-01 -1.302186e-01 -1.535745e-01 -1.803620e-01 -2.108200e-01 -2.452304e-01 -2.837754e-01 -3.266621e-01 -3.739774e-01 -4.258082e-01 -4.821036e-01 -5.427846e-01 -6.076212e-01 -6.763291e-01 -7.484665e-01 -8.235188e-01 -9.008175e-01 -9.796141e-01 -1.059025e+00 -1.138091e+00 -1.215753e+00 -1.290890e+00 -1.362336e+00 -1.428867e+00 -1.489291e+00 -1.542344e+00 -1.586879e+00 -1.621640e+00 -1.645586e+00 -1.657504e+00 -1.656509e+00 -1.641474e+00 -1.611749e+00 -1.566384e+00 -1.505085e+00 -1.427260e+00 -1.333139e+00 -1.222727e+00 -1.096932e+00 -9.565811e-01 -8.033026e-01 -6.388487e-01 -4.654672e-01 -2.857983e-01 -1.025929e-01 8.068939e-02 2.607329e-01 4.333043e-01 5.944699e-01 7.396967e-01 8.653170e-01 9.683289e-01 1.047946e+00 1.105645e+00 1.145934e+00 1.175015e+00 1.199543e+00 1.224251e+00 1.251581e+00 1.281794e+00 1.313216e+00 1.342348e+00 1.364651e+00 1.374815e+00 1.367414e+00 1.337661e+00 1.282546e+00 1.202406e+00 1.101720e+00 9.880382e-01 8.698393e-01 7.543187e-01 6.466735e-01 5.498391e-01 4.650334e-01 3.922254e-01 3.306309e-01 2.791078e-01 2.363425e-01 2.010719e-01 1.720874e-01 1.483456e-01 1.289126e-01 1.130161e-01 9.998660e-02 8.927928e-02 8.043090e-02 7.306648e-02 6.687074e-02 6.159021e-02 5.701252e-02 
7.163146e-02 6.695721e-02 6.262847e-02 5.852943e-02 5.458455e-02 5.072422e-02 4.691567e-02 4.312238e-02 3.934200e-02 3.556122e-02 3.179745e-02 2.805244e-02 2.435363e-02 2.071049e-02 1.715145e-02 1.368666e-02 1.033704e-02 7.106386e-03 4.000113e-03 1.008477e-03 -1.886224e-03 -4.714621e-03 -7.524961e-03 -1.037617e-02 -1.335444e-02 -1.655421e-02 -2.010693e-02 -2.414914e-02 -2.886441e-02 -3.443655e-02 -4.110670e-02 -4.910868e-02 -5.874380e-02 -7.029474e-02 -8.412065e-02 -1.005464e-01 -1.199795e-01 -1.427729e-01 -1.693633e-01 -2.001089e-01 -2.354451e-01 -2.757020e-01 -3.212711e-01 -3.724109e-01 -4.294150e-01 -4.924175e-01 -5.615522e-01 -6.367703e-01 -7.179826e-01 -8.048996e-01 -8.971527e-01 -9.941653e-01 -1.095252e+00 -1.199525e+00 -1.305977e+00 -1.413420e+00 -1.520555e+00 -1.625953e+00 -1.728087e+00 -1.825380e+00 -1.916173e+00 -1.998851e+00 -2.071708e+00 -2.133199e+00 -2.181637e+00 -2.215619e+00 -2.233515e+00 -2.234122e+00 -2.215906e+00 -2.177948e+00 -2.118921e+00 -2.038344e+00 -1.935341e+00 -1.810114e+00 -1.662590e+00 -1.493894e+00 -1.305107e+00 -1.098351e+00 -8.760072e-01 -6.410247e-01 -3.969881e-01 -1.474619e-01 1.028890e-01 3.497052e-01 5.871396e-01 8.095807e-01 1.010289e+00 1.183257e+00 1.323409e+00 1.428599e+00 1.500779e+00 1.547040e+00 1.578172e+00 1.605676e+00 1.636803e+00 1.674445e+00 1.718708e+00 1.766792e+00 1.813082e+00 1.850812e+00 1.871913e+00 1.868027e+00 1.831049e+00 1.755128e+00 1.639883e+00 1.492984e+00 1.327804e+00 1.158524e+00 9.961244e-01 8.476405e-01 7.163798e-01 6.031325e-01 5.071095e-01 4.266779e-01 3.599292e-01 3.048634e-01 2.596683e-01 2.226648e-01 1.924467e-01 1.677694e-01 1.476232e-01 1.311337e-01 1.175993e-01 1.064207e-01 9.711808e-02 8.928521e-02 8.259851e-02 7.678501e-02 
9.113843e-02 8.560105e-02 8.043236e-02 7.549243e-02 7.069714e-02 6.596049e-02 6.125172e-02 5.652375e-02 5.178414e-02 4.701343e-02 4.224422e-02 3.747529e-02 3.275193e-02 2.808269e-02 2.351389e-02 1.905558e-02 1.474418e-02 1.058280e-02 6.587752e-03 2.746397e-03 -9.546855e-04 -4.553053e-03 -8.101179e-03 -1.167099e-02 -1.536325e-02 -1.929369e-02 -2.362057e-02 -2.851226e-02 -3.419331e-02 -4.089202e-02 -4.890654e-02 -5.852947e-02 -7.013656e-02 -8.408429e-02 -1.008242e-01 -1.207693e-01 -1.444362e-01 -1.722778e-01 -2.048528e-01 -2.426259e-01 -2.861608e-01 -3.358920e-01 -3.923349e-01 -4.558390e-01 -5.268023e-01 -6.054212e-01 -6.918968e-01 -7.861953e-01 -8.882372e-01 -9.976816e-01 -1.114092e+00 -1.236756e+00 -1.364829e+00 -1.497190e+00 -1.632572e+00 -1.769462e+00 -1.906210e+00 -2.040980e+00 -2.171830e+00 -2.296731e+00 -2.413574e+00 -2.520290e+00 -2.614726e+00 -2.694913e+00 -2.758739e+00 -2.804421e+00 -2.829920e+00 -2.833687e+00 -2.813775e+00 -2.768940e+00 -2.697437e+00 -2.598516e+00 -2.470930e+00 -2.314777e+00 -2.129801e+00 -1.917334e+00 -1.678612e+00 -1.416346e+00 -1.133472e+00 -8.337804e-01 -5.216869e-01 -2.016267e-01 1.207280e-01 4.400177e-01 7.488493e-01 1.039719e+00 1.303018e+00 1.529398e+00 1.710050e+00 1.840191e+00 1.921265e+00 1.964251e+00 1.987938e+00 2.012907e+00 2.049561e+00 2.098949e+00 2.161558e+00 2.232827e+00 2.303665e+00 2.364941e+00 2.404916e+00 2.411709e+00 2.371898e+00 2.273762e+00 2.113903e+00 1.905737e+00 1.673830e+00 1.441719e+00 1.225159e+00 1.032390e+00 8.659312e-01 7.250773e-01 6.074828e-01 5.101734e-01 4.301675e-01 3.646445e-01 3.111622e-01 2.675701e-01 2.320929e-01 2.032083e-01 1.796809e-01 1.604649e-01 1.447148e-01 1.317206e-01 1.209080e-01 1.117973e-01 1.040025e-01 9.720044e-02 
1.119310e-01 1.057084e-01 9.983517e-02 9.415634e-02 8.857732e-02 8.300652e-02 7.740982e-02 7.174216e-02 6.601320e-02 6.021144e-02 5.437524e-02 4.851564e-02 4.268551e-02 3.690814e-02 3.123746e-02 2.569880e-02 2.033441e-02 1.516128e-02 1.019804e-02 5.442531e-03 8.784086e-04 -3.526849e-03 -7.835636e-03 -1.212241e-02 -1.650679e-02 -2.111680e-02 -2.614071e-02 -3.177115e-02 -3.827632e-02 -4.592287e-02 -5.506879e-02 -6.606097e-02 -7.935334e-02 -9.537381e-02 -1.146717e-01 -1.377484e-01 -1.652374e-01 -1.976953e-01 -2.358134e-01 -2.801708e-01 -3.314730e-01 -3.902722e-01 -4.572238e-01 -5.327862e-01 -6.174807e-01 -7.115885e-01 -8.153968e-01 -9.289130e-01 -1.052083e+00 -1.184542e+00 -1.325795e+00 -1.475015e+00 -1.631194e+00 -1.792992e+00 -1.958865e+00 -2.126968e+00 -2.295264e+00 -2.461495e+00 -2.623249e+00 -2.778020e+00 -2.923194e+00 -3.056224e+00 -3.174471e+00 -3.275531e+00 -3.356851e+00 -3.416273e+00 -3.451346e+00 -3.460179e+00 -3.440396e+00 -3.390399e+00 -3.307961e+00 -3.191975e+00 -3.040720e+00 -2.854042e+00 -2.631412e+00 -2.374225e+00 -2.083898e+00 -1.763641e+00 -1.417128e+00 -1.048904e+00 -6.644360e-01 -2.687528e-01 1.314492e-01 5.303305e-01 9.190530e-01 1.288308e+00 1.624956e+00 1.914581e+00 2.142361e+00 2.297451e+00 2.378795e+00 2.401682e+00 2.400240e+00 2.414776e+00 2.458385e+00 2.520960e+00 2.608385e+00 2.712831e+00 2.818146e+00 2.914563e+00 2.984818e+00 3.014407e+00 2.981522e+00 2.862008e+00 2.641396e+00 2.345068e+00 2.021644e+00 1.710224e+00 1.431275e+00 1.191815e+00 9.911170e-01 8.252065e-01 6.891435e-01 5.780445e-01 4.876152e-01 4.141105e-01 3.544626e-01 3.060648e-01 2.668254e-01 2.349765e-01 2.091064e-01 1.880241e-01 1.707767e-01 1.565618e-01 1.447356e-01 1.347565e-01 1.261922e-01 1.186783e-01 
1.342147e-01 1.275289e-01 1.211301e-01 1.148465e-01 1.085858e-01 1.022437e-01 9.579790e-02 8.919471e-02 8.246334e-02 7.558714e-02 6.862943e-02 6.159918e-02 5.457692e-02 4.758637e-02 4.070895e-02 3.397215e-02 2.744283e-02 2.114071e-02 1.510380e-02 9.331694e-03 3.820184e-03 -1.464366e-03 -6.581306e-03 -1.161138e-02 -1.668206e-02 -2.193551e-02 -2.758076e-02 -3.383547e-02 -4.100385e-02 -4.939158e-02 -5.941061e-02 -7.146378e-02 -8.607969e-02 -1.037613e-01 -1.251555e-01 -1.508588e-01 -1.816257e-01 -2.181269e-01 -2.611967e-01 -3.115431e-01 -3.700305e-01 -4.373475e-01 -5.143141e-01 -6.015203e-01 -6.996412e-01 -8.090673e-01 -9.302068e-01 -1.063131e+00 -1.207847e+00 -1.363980e+00 -1.531006e+00 -1.707985e+00 -1.893765e+00 -2.086764e+00 -2.285160e+00 -2.486734e+00 -2.689039e+00 -2.889327e+00 -3.084684e+00 -3.272048e+00 -3.448272e+00 -3.610262e+00 -3.754880e+00 -3.879249e+00 -3.980393e+00 -4.055768e+00 -4.102557e+00 -4.118510e+00 -4.100856e+00 -4.047575e+00 -3.955930e+00 -3.824308e+00 -3.650383e+00 -3.433582e+00 -3.172907e+00 -2.869765e+00 -2.525609e+00 -2.144357e+00 -1.730380e+00 -1.289361e+00 -8.277155e-01 -3.511976e-01 1.330280e-01 6.191407e-01 1.097807e+00 1.558330e+00 1.983705e+00 2.352447e+00 2.639586e+00 2.822735e+00 2.891489e+00 2.862988e+00 2.800332e+00 2.794716e+00 2.858747e+00 2.931168e+00 3.053726e+00 3.208569e+00 3.359198e+00 3.507843e+00 3.622572e+00 3.695127e+00 3.690978e+00 3.560826e+00 3.250043e+00 2.813548e+00 2.358103e+00 1.946335e+00 1.598335e+00 1.313311e+00 1.082764e+00 8.970581e-01 7.475478e-01 6.270809e-01 5.299467e-01 4.515565e-01 3.882818e-01 3.371764e-01 2.958940e-01 2.625085e-01 2.354724e-01 2.135081e-01 1.955800e-01 1.808312e-01 1.685635e-01 1.581973e-01 1.492645e-01 1.413719e-01 
1.585870e-01 1.516574e-01 1.448980e-01 1.381326e-01 1.312659e-01 1.241966e-01 1.169046e-01 1.093460e-01 1.015566e-01 9.353573e-02 8.535664e-02 7.704901e-02 6.870500e-02 6.037223e-02 5.214372e-02 4.407206e-02 3.623405e-02 2.867361e-02 2.143540e-02 1.454022e-02 7.985643e-03 1.753998e-03 -4.218727e-03 -1.000491e-02 -1.574511e-02 -2.158329e-02 -2.775250e-02 -3.448519e-02 -4.212370e-02 -5.100468e-02 -6.159596e-02 -7.435076e-02 -8.987519e-02 -1.087449e-01 -1.317092e-01 -1.594617e-01 -1.928860e-01 -2.327740e-01 -2.801153e-01 -3.357605e-01 -4.007505e-01 -4.759313e-01 -5.623100e-01 -6.606373e-01 -7.717697e-01 -8.962435e-01 -1.034618e+00 -1.187071e+00 -1.353698e+00 -1.534159e+00 -1.727920e+00 -1.933968e+00 -2.151000e+00 -2.377219e+00 -2.610490e+00 -2.848213e+00 -3.087466e+00 -3.324968e+00 -3.557207e+00 -3.780503e+00 -3.991070e+00 -4.185210e+00 -4.359213e+00 -4.509708e+00 -4.633287e+00 -4.727050e+00 -4.787852e+00 -4.813146e+00 -4.799795e+00 -4.745374e+00 -4.646571e+00 -4.501157e+00 -4.306006e+00 -4.059871e+00 -3.761064e+00 -3.410738e+00 -3.010384e+00 -2.564548e+00 -2.078746e+00 -1.559889e+00 -1.015999e+00 -4.532289e-01 1.208055e-01 7.018938e-01 1.281460e+00 1.849531e+00 2.385570e+00 2.859084e+00 3.229497e+00 3.452866e+00 3.495498e+00 3.355839e+00 3.147630e+00 3.115001e+00 3.264209e+00 3.307150e+00 3.485893e+00 3.728010e+00 3.922869e+00 4.154954e+00 4.322376e+00 4.470548e+00 4.541905e+00 4.450501e+00 3.988314e+00 3.300142e+00 2.648991e+00 2.117091e+00 1.702116e+00 1.381073e+00 1.131161e+00 9.348426e-01 7.793252e-01 6.553521e-01 5.561173e-01 4.764654e-01 4.124509e-01 3.609491e-01 3.195013e-01 2.861072e-01 2.591668e-01 2.373598e-01 2.196186e-01 2.050556e-01 1.929491e-01 1.826958e-01 1.738094e-01 1.658792e-01 
1.853260e-01 1.784096e-01 1.714976e-01 1.644035e-01 1.570461e-01 1.493144e-01 1.412120e-01 1.326874e-01 1.238081e-01 1.145690e-01 1.050809e-01 9.537251e-02 8.557653e-02 7.574309e-02 6.600543e-02 5.642180e-02 4.710577e-02 3.810921e-02 2.950748e-02 2.133023e-02 1.359762e-02 6.299758e-03 -6.145642e-04 -7.213644e-03 -1.363664e-02 -2.003046e-02 -2.664019e-02 -3.371226e-02 -4.161735e-02 -5.072160e-02 -6.154140e-02 -7.457968e-02 -9.051593e-02 -1.100002e-01 -1.338847e-01 -1.629656e-01 -1.982626e-01 -2.406998e-01 -2.914372e-01 -3.514858e-01 -4.220881e-01 -5.042728e-01 -5.992707e-01 -7.080254e-01 -8.316221e-01 -9.707801e-01 -1.126266e+00 -1.298400e+00 -1.487427e+00 -1.693068e+00 -1.914831e+00 -2.151635e+00 -2.402063e+00 -2.664070e+00 -2.935209e+00 -3.212419e+00 -3.492264e+00 -3.770809e+00 -4.043866e+00 -4.306991e+00 -4.555677e+00 -4.785498e+00 -4.992128e+00 -5.171645e+00 -5.320244e+00 -5.434693e+00 -5.511649e+00 -5.548317e+00 -5.541350e+00 -5.487881e+00 -5.384072e+00 -5.226840e+00 -5.012085e+00 -4.737490e+00 -4.400309e+00 -4.001211e+00 -3.541446e+00 -3.026580e+00 -2.463415e+00 -1.861138e+00 -1.229734e+00 -5.764622e-01 9.138301e-02 7.726659e-01 1.463034e+00 2.156831e+00 2.833447e+00 3.452056e+00 3.949934e+00 4.249314e+00 4.270328e+00 3.910338e+00 3.323933e+00 3.266047e+00 3.789931e+00 3.565571e+00 3.877117e+00 4.316047e+00 4.472386e+00 4.888807e+00 5.064411e+00 5.344037e+00 5.575543e+00 5.723364e+00 4.954386e+00 3.743948e+00 2.815129e+00 2.167319e+00 1.710826e+00 1.378249e+00 1.127655e+00 9.341689e-01 7.821998e-01 6.616572e-01 5.654429e-01 4.884333e-01 4.266981e-01 3.772018e-01 3.375119e-01 3.056864e-01 2.801351e-01 2.595679e-01 2.429153e-01 2.293014e-01 2.179979e-01 2.084014e-01 2.000193e-01 1.924343e-01 
2.151964e-01 2.085337e-01 2.016466e-01 1.943539e-01 1.865783e-01 1.782197e-01 1.692894e-01 1.597538e-01 1.496923e-01 1.391246e-01 1.281768e-01 1.169085e-01 1.054695e-01 9.394539e-02 8.248667e-02 7.118915e-02 6.018235e-02 4.955562e-02 3.939739e-02 2.977237e-02 2.070959e-02 1.222942e-02 4.283994e-03 -3.172119e-03 -1.028208e-02 -1.718032e-02 -2.412598e-02 -3.136705e-02 -3.930227e-02 -4.831786e-02 -5.897745e-02 -7.182774e-02 -8.762093e-02 -1.070799e-01 -1.311615e-01 -1.607685e-01 -1.970631e-01 -2.411127e-01 -2.942605e-01 -3.576980e-01 -4.328901e-01 -5.210788e-01 -6.237486e-01 -7.420786e-01 -8.774217e-01 -1.030736e+00 -1.203040e+00 -1.394866e+00 -1.606651e+00 -1.838255e+00 -2.089261e+00 -2.358588e+00 -2.644710e+00 -2.945375e+00 -3.257778e+00 -3.578389e+00 -3.903135e+00 -4.227350e+00 -4.545986e+00 -4.853700e+00 -5.145059e+00 -5.414771e+00 -5.657754e+00 -5.869483e+00 -6.045752e+00 -6.183096e+00 -6.278106e+00 -6.327956e+00 -6.329250e+00 -6.278859e+00 -6.172402e+00 -6.005867e+00 -5.773821e+00 -5.472421e+00 -5.097287e+00 -4.648004e+00 -4.125370e+00 -3.535841e+00 -2.888432e+00 -2.195366e+00 -1.470614e+00 -7.231475e-01 3.920540e-02 8.212972e-01 1.627104e+00 2.464055e+00 3.318769e+00 4.143926e+00 4.844751e+00 5.301179e+00 5.405548e+00 4.671412e+00 2.972795e+00 2.861611e+00 5.082097e+00 3.306604e+00 4.169186e+00 5.208901e+00 4.785603e+00 5.885326e+00 5.725136e+00 6.288256e+00 6.716744e+00 7.927515e+00 6.358546e+00 3.890530e+00 2.689784e+00 2.020714e+00 1.594306e+00 1.294416e+00 1.069577e+00 8.951767e-01 7.572480e-01 6.472774e-01 5.591995e-01 4.886391e-01 4.321214e-01 3.869450e-01 3.508832e-01 3.221506e-01 2.992552e-01 2.809817e-01 2.663079e-01 2.543915e-01 2.445255e-01 2.361196e-01 2.286890e-01 2.218207e-01 
2.485620e-01 2.424245e-01 2.357841e-01 2.284519e-01 2.203762e-01 2.114478e-01 2.017138e-01 1.911324e-01 1.798290e-01 1.678181e-01 1.552793e-01 1.422713e-01 1.290014e-01 1.155596e-01 1.021532e-01 8.888801e-02 7.594616e-02 6.343186e-02 5.147873e-02 4.017003e-02 2.957073e-02 1.972130e-02 1.059927e-02 2.177877e-03 -5.672284e-03 -1.307241e-02 -2.028143e-02 -2.754469e-02 -3.527753e-02 -4.388041e-02 -5.395567e-02 -6.608830e-02 -8.109846e-02 -9.977890e-02 -1.231922e-01 -1.523495e-01 -1.885646e-01 -2.330578e-01 -2.873758e-01 -3.529094e-01 -4.313811e-01 -5.242766e-01 -6.333863e-01 -7.601680e-01 -9.063125e-01 -1.073071e+00 -1.261802e+00 -1.473309e+00 -1.708318e+00 -1.966880e+00 -2.248744e+00 -2.552857e+00 -2.877645e+00 -3.220617e+00 -3.578612e+00 -3.947511e+00 -4.322531e+00 -4.698051e+00 -5.068010e+00 -5.425883e+00 -5.765120e+00 -6.079317e+00 -6.362500e+00 -6.609439e+00 -6.815580e+00 -6.977318e+00 -7.091479e+00 -7.155432e+00 -7.166178e+00 -7.120454e+00 -7.013640e+00 -6.840470e+00 -6.593972e+00 -6.267893e+00 -5.855428e+00 -5.354232e+00 -4.763889e+00 -4.092202e+00 -3.350772e+00 -2.557405e+00 -1.732119e+00 -8.887994e-01 -3.692788e-02 8.359869e-01 1.749542e+00 2.737195e+00 3.812740e+00 4.933801e+00 5.953712e+00 6.676688e+00 7.346696e+00 6.358488e+00 1.032804e+00 9.473586e-02 8.621708e+00 6.445290e+00 2.053255e+00 6.311042e+00 4.789808e+00 4.774526e+00 4.376617e+00 3.807334e+00 4.998604e+00 5.688077e+00 5.350112e+00 2.740469e+00 2.019537e+00 1.625520e+00 1.350611e+00 1.137122e+00 9.642863e-01 8.234196e-01 7.083835e-01 6.149617e-01 5.393167e-01 4.784717e-01 4.297220e-01 3.909254e-01 3.601724e-01 3.359380e-01 3.168761e-01 3.019023e-01 2.900644e-01 2.805861e-01 2.727935e-01 2.661270e-01 2.601186e-01 2.543653e-01 
2.863475e-01 2.809826e-01 2.747669e-01 2.675235e-01 2.592077e-01 2.497281e-01 2.391429e-01 2.274363e-01 2.147501e-01 2.011337e-01 1.867875e-01 1.718136e-01 1.564429e-01 1.408146e-01 1.251612e-01 1.096413e-01 9.446085e-02 7.977826e-02 6.574875e-02 5.250805e-02 4.013959e-02 2.873216e-02 1.827782e-02 8.791254e-03 1.522958e-04 -7.729039e-03 -1.511035e-02 -2.222051e-02 -2.948614e-02 -3.731193e-02 -4.633128e-02 -5.716169e-02 -7.068361e-02 -8.775937e-02 -1.095520e-01 -1.371885e-01 -1.721343e-01 -2.157795e-01 -2.698830e-01 -3.360647e-01 -4.163247e-01 -5.124370e-01 -6.265330e-01 -7.604110e-01 -9.161523e-01 -1.095384e+00 -1.299871e+00 -1.530792e+00 -1.789242e+00 -2.075584e+00 -2.389805e+00 -2.731000e+00 -3.097578e+00 -3.486895e+00 -3.895379e+00 -4.318314e+00 -4.750011e+00 -5.183749e+00 -5.612107e+00 -6.027097e+00 -6.420637e+00 -6.784898e+00 -7.112717e+00 -7.398015e+00 -7.635898e+00 -7.822822e+00 -7.956202e+00 -8.034144e+00 -8.054543e+00 -8.014596e+00 -7.909647e+00 -7.733305e+00 -7.476455e+00 -7.129624e+00 -6.682140e+00 -6.128240e+00 -5.465160e+00 -4.701356e+00 -3.852330e+00 -2.943501e+00 -2.006190e+00 -1.063931e+00 -1.337187e-01 8.050137e-01 1.793717e+00 2.912957e+00 4.241106e+00 5.797203e+00 7.313478e+00 8.082575e+00 1.090154e+01 1.114509e+01 7.998403e+00 1.098406e+01 3.950416e+00 5.340847e+00 4.193796e+00 2.854385e-01 6.274055e-01 -1.610462e+00 -1.432374e+00 -2.521535e+00 -1.814957e+00 -3.143407e+00 1.555916e-01 4.625938e-01 1.012128e+00 1.106598e+00 1.046650e+00 9.418199e-01 8.314146e-01 7.304009e-01 6.428765e-01 5.696082e-01 5.093355e-01 4.606191e-01 4.216570e-01 3.909324e-01 3.669300e-01 3.484220e-01 3.342561e-01 3.234985e-01 3.152962e-01 3.089494e-01 3.038341e-01 2.994278e-01 2.952863e-01 2.910243e-01 
3.289940e-01 3.246774e-01 3.191147e-01 3.121191e-01 3.036804e-01 2.936934e-01 2.822652e-01 2.693672e-01 2.552037e-01 2.398155e-01 2.234762e-01 2.062855e-01 1.885533e-01 1.704246e-01 1.522100e-01 1.340829e-01 1.163223e-01 9.910951e-02 8.266361e-02 6.715096e-02 5.270777e-02 3.945881e-02 2.743752e-02 1.669658e-02 7.145780e-03 -1.269583e-03 -8.789676e-03 -1.561722e-02 -2.217737e-02 -2.886618e-02 -3.633831e-02 -4.523037e-02 -5.647728e-02 -7.099985e-02 -9.006226e-02 -1.149015e-01 -1.471457e-01 -1.883579e-01 -2.405354e-01 -3.055426e-01 -3.857039e-01 -4.831145e-01 -6.003181e-01 -7.395089e-01 -9.032581e-01 -1.093648e+00 -1.312981e+00 -1.562912e+00 -1.845057e+00 -2.160198e+00 -2.508718e+00 -2.889939e+00 -3.302375e+00 -3.743220e+00 -4.208521e+00 -4.692791e+00 -5.189308e+00 -5.689869e+00 -6.185379e+00 -6.665846e+00 -7.121225e+00 -7.541749e+00 -7.918721e+00 -8.244980e+00 -8.515315e+00 -8.726475e+00 -8.877046e+00 -8.966514e+00 -8.994723e+00 -8.959980e+00 -8.858555e+00 -8.682725e+00 -8.421117e+00 -8.059206e+00 -7.580711e+00 -6.973870e+00 -6.231311e+00 -5.361824e+00 -4.384644e+00 -3.337558e+00 -2.268599e+00 -1.221362e+00 -2.310953e-01 7.256885e-01 1.714986e+00 2.883905e+00 4.436848e+00 6.672763e+00 9.353529e+00 7.930727e+00 4.715017e+00 6.377581e+00 8.180492e+00 6.139039e+00 -1.882923e+00 -7.152535e+00 -4.560074e+00 -4.957757e+00 -5.275145e+00 -4.682264e+00 -4.740090e+00 -3.873244e+00 -5.287621e+00 -5.283900e+00 -2.578959e+00 -4.907401e-01 4.567671e-01 7.417638e-01 7.910186e-01 7.561365e-01 6.944974e-01 6.291290e-01 5.686085e-01 5.163612e-01 4.727829e-01 4.376017e-01 4.097679e-01 3.883486e-01 3.722062e-01 3.604236e-01 3.520459e-01 3.463083e-01 3.424606e-01 3.398924e-01 3.380323e-01 3.364007e-01 3.345812e-01 3.322038e-01 
3.775668e-01 3.745507e-01 3.698189e-01 3.631973e-01 3.546812e-01 3.441867e-01 3.318325e-01 3.176230e-01 3.017821e-01 2.843963e-01 2.657661e-01 2.460485e-01 2.255852e-01 2.045874e-01 1.834000e-01 1.622684e-01 1.415054e-01 1.213670e-01 1.021046e-01 8.395839e-02 6.709540e-02 5.171075e-02 3.786730e-02 2.568215e-02 1.509273e-02 6.099461e-03 -1.514017e-03 -7.909668e-03 -1.349785e-02 -1.865586e-02 -2.404174e-02 -3.030593e-02 -3.841838e-02 -4.935961e-02 -6.447748e-02 -8.512951e-02 -1.130953e-01 -1.501340e-01 -1.984805e-01 -2.602842e-01 -3.382087e-01 -4.347314e-01 -5.528460e-01 -6.952282e-01 -8.650071e-01 -1.064836e+00 -1.297660e+00 -1.565762e+00 -1.871417e+00 -2.216019e+00 -2.600499e+00 -3.024620e+00 -3.487113e+00 -3.985188e+00 -4.514477e+00 -5.068751e+00 -5.639956e+00 -6.218138e+00 -6.791898e+00 -7.348642e+00 -7.875527e+00 -8.360133e+00 -8.791581e+00 -9.161247e+00 -9.463622e+00 -9.696106e+00 -9.859273e+00 -9.955146e+00 -9.986770e+00 -9.955088e+00 -9.858178e+00 -9.687814e+00 -9.429549e+00 -9.062516e+00 -8.561497e+00 -7.905182e+00 -7.077760e+00 -6.085406e+00 -4.951468e+00 -3.728272e+00 -2.490465e+00 -1.316513e+00 -2.819935e-01 6.219359e-01 1.482939e+00 2.502959e+00 3.983110e+00 7.119916e+00 1.469781e+01 2.354527e+00 9.876723e+00 9.458487e+00 -2.772920e+00 -1.995389e+01 -1.288013e+01 1.748030e-02 -5.724352e+00 -6.227385e-01 -1.515575e+00 1.264754e+00 -4.154888e-01 1.906156e+00 -3.000813e-01 2.808164e+00 1.144387e+00 4.909600e-01 5.604033e-01 6.134549e-01 6.223021e-01 6.014391e-01 5.667945e-01 5.285657e-01 4.919905e-01 4.599980e-01 4.333521e-01 4.123551e-01 3.964647e-01 3.852018e-01 3.777615e-01 3.735053e-01 3.716729e-01 3.716575e-01 3.728163e-01 3.746231e-01 3.765609e-01 3.781915e-01 3.791226e-01 3.790030e-01 
4.325528e-01 4.311225e-01 4.274635e-01 4.213810e-01 4.129099e-01 4.019419e-01 3.886566e-01 3.730359e-01 3.553857e-01 3.357756e-01 3.146047e-01 2.920228e-01 2.684787e-01 2.441886e-01 2.196044e-01 1.949900e-01 1.707577e-01 1.471957e-01 1.246427e-01 1.033840e-01 8.366004e-02 6.572166e-02 4.969276e-02 3.575298e-02 2.389047e-02 1.416979e-02 6.415741e-03 5.244466e-04 -3.885633e-03 -7.150300e-03 -9.919351e-03 -1.283212e-02 -1.688528e-02 -2.309550e-02 -3.289254e-02 -4.773621e-02 -6.956737e-02 -1.003332e-01 -1.425347e-01 -1.986140e-01 -2.716288e-01 -3.644706e-01 -4.806735e-01 -6.234613e-01 -7.966557e-01 -1.003595e+00 -1.248050e+00 -1.533103e+00 -1.861927e+00 -2.236738e+00 -2.659289e+00 -3.129993e+00 -3.648046e+00 -4.210764e+00 -4.813477e+00 -5.449006e+00 -6.107778e+00 -6.777429e+00 -7.443646e+00 -8.090172e+00 -8.700424e+00 -9.258259e+00 -9.749769e+00 -1.016435e+01 -1.049606e+01 -1.074341e+01 -1.090996e+01 -1.100175e+01 -1.102723e+01 -1.099197e+01 -1.089843e+01 -1.073862e+01 -1.049551e+01 -1.013854e+01 -9.629792e+00 -8.931480e+00 -8.013550e+00 -6.876331e+00 -5.543938e+00 -4.088443e+00 -2.616447e+00 -1.265343e+00 -1.906712e-01 5.698462e-01 1.127695e+00 1.731162e+00 1.985223e+00 3.192690e+00 9.843510e+00 1.058197e+01 1.420927e+01 -1.304782e+01 -2.130082e+01 1.090716e+01 1.221378e+01 5.167744e+00 4.532114e+00 5.083624e+00 3.732464e+00 5.769814e+00 4.343607e+00 5.294023e+00 5.004542e+00 5.153292e+00 5.235916e+00 1.173986e+00 6.716038e-01 5.284771e-01 4.847213e-01 4.646909e-01 4.481698e-01 4.321599e-01 4.169630e-01 4.040694e-01 3.939896e-01 3.872519e-01 3.836307e-01 3.829826e-01 3.847758e-01 3.886101e-01 3.938971e-01 4.001749e-01 4.068959e-01 4.136127e-01 4.198556e-01 4.252213e-01 4.293400e-01 4.318672e-01 
4.951324e-01 4.955623e-01 4.931685e-01 4.877633e-01 4.793782e-01 4.679253e-01 4.535923e-01 4.363990e-01 4.166725e-01 3.945394e-01 3.704318e-01 3.445735e-01 3.174547e-01 2.893787e-01 2.608433e-01 2.322076e-01 2.039306e-01 1.763995e-01 1.499993e-01 1.251139e-01 1.020303e-01 8.109567e-02 6.248218e-02 4.646139e-02 3.307353e-02 2.246788e-02 1.452460e-02 9.212338e-03 6.203276e-03 5.213020e-03 5.632775e-03 6.839516e-03 7.846740e-03 7.599925e-03 4.623870e-03 -2.656197e-03 -1.631187e-02 -3.850713e-02 -7.199092e-02 -1.195482e-01 -1.846335e-01 -2.706300e-01 -3.816459e-01 -5.215654e-01 -6.949843e-01 -9.060836e-01 -1.159612e+00 -1.459669e+00 -1.810563e+00 -2.215638e+00 -2.677777e+00 -3.198429e+00 -3.777561e+00 -4.412984e+00 -5.099824e+00 -5.830111e+00 -6.592330e+00 -7.371261e+00 -8.148494e+00 -8.902855e+00 -9.612280e+00 -1.025528e+01 -1.081351e+01 -1.127347e+01 -1.162886e+01 -1.187998e+01 -1.203513e+01 -1.210658e+01 -1.211090e+01 -1.206171e+01 -1.196850e+01 -1.182635e+01 -1.161521e+01 -1.129327e+01 -1.080265e+01 -1.008116e+01 -9.074103e+00 -7.768131e+00 -6.185703e+00 -4.413282e+00 -2.595564e+00 -9.521663e-01 2.113279e-01 7.070120e-01 7.713981e-01 1.344139e+00 -7.715372e-01 1.535067e+01 1.991715e+01 1.644335e+01 -1.494440e+01 -1.865016e+01 1.021174e+01 1.684590e+01 4.336038e+00 1.470693e+00 3.525790e+00 4.277986e+00 5.468665e+00 2.419604e+00 4.349557e+00 1.615503e+00 3.761815e+00 -1.883196e+00 3.361005e+00 6.241673e-01 4.098848e-01 3.392330e-01 3.241570e-01 3.277846e-01 3.343718e-01 3.406431e-01 3.458787e-01 3.512484e-01 3.572328e-01 3.645687e-01 3.732744e-01 3.834718e-01 3.948495e-01 4.072021e-01 4.200875e-01 4.331624e-01 4.459609e-01 4.580973e-01 4.691386e-01 4.787066e-01 4.864400e-01 4.920007e-01 