# vtk DataFile Version 2.0
Comment goes here
ASCII

DATASET STRUCTURED_POINTS
DIMENSIONS    128   128   1

ORIGIN    0.000   0.000   0.000
SPACING   0.0156250.015625   1.000

POINT_DATA   16384
SCALARS Omega double
LOOKUP_TABLE default

-7.984403e-06 -6.417751e-06 -5.088642e-06 -4.081855e-06 -3.417414e-06 -3.158517e-06 -3.300523e-06 -3.886908e-06 -4.894463e-06 -6.349522e-06 -8.217067e-06 -1.050962e-05 -1.318728e-05 -1.625283e-05 -1.966808e-05 -2.343075e-05 -2.751012e-05 -3.190388e-05 -3.659329e-05 -4.158100e-05 -4.686307e-05 -5.245172e-05 -5.835885e-05 -6.460998e-05 -7.123225e-05 -7.826706e-05 -8.575494e-05 -9.375466e-05 -1.023178e-04 -1.115209e-04 -1.214246e-04 -1.321237e-04 -1.436870e-04 -1.562276e-04 -1.698239e-04 -1.846081e-04 -2.006712e-04 -2.181661e-04 -2.371999e-04 -2.579472e-04 -2.805333e-04 -3.051533e-04 -3.319480e-04 -3.611258e-04 -3.928316e-04 -4.272707e-04 -4.645694e-04 -5.049001e-04 -5.483360e-04 -5.949724e-04 -6.447848e-04 -6.977360e-04 -7.536554e-04 -8.123140e-04 -8.733502e-04 -9.362934e-04 -1.000558e-03 -1.065405e-03 -1.130012e-03 -1.193381e-03 -1.254464e-03 -1.312060e-03 -1.364934e-03 -1.411785e-03 -1.451269e-03 -1.482135e-03 -1.503036e-03 -1.512958e-03 -1.510694e-03 -1.495666e-03 -1.466967e-03 -1.424623e-03 -1.368176e-03 -1.298348e-03 -1.215225e-03 -1.120187e-03 -1.013895e-03 -8.982200e-04 -7.743725e-04 -6.444785e-04 -5.102842e-04 -3.739951e-04 -2.379280e-04 -1.043098e-04 2.396142e-05 1.447059e-04 2.547151e-04 3.522011e-04 4.344096e-04 5.005996e-04 5.494581e-04 5.817331e-04 5.979552e-04 5.999951e-04 5.896520e-04 5.691159e-04 5.406160e-04 5.061585e-04 4.678138e-04 4.271414e-04 3.856742e-04 3.444125e-04 3.042719e-04 2.657609e-04 2.293707e-04 1.952967e-04 1.638481e-04 1.350411e-04 1.090729e-04 8.584017e-05 6.541327e-05 4.761869e-05 3.241235e-05 1.959116e-05 9.030629e-06 5.199916e-07 -6.112001e-06 -1.107430e-05 -1.455798e-05 -1.676473e-05 -1.788486e-05 -1.810786e-05 -1.760812e-05 -1.655844e-05 -1.510712e-05 -1.340681e-05 -1.157394e-05 -9.738960e-06 
9.060360e-04 -5.216080e-04 -1.843062e-03 -3.064711e-03 -4.194296e-03 -5.231889e-03 -6.179637e-03 -7.034433e-03 -7.795525e-03 -8.458926e-03 -9.023051e-03 -9.484784e-03 -9.843363e-03 -1.009792e-02 -1.024988e-02 -1.030176e-02 -1.025837e-02 -1.012657e-02 -9.915601e-03 -9.637564e-03 -9.307182e-03 -8.942651e-03 -8.565177e-03 -8.199973e-03 -7.875745e-03 -7.625660e-03 -7.486922e-03 -7.501540e-03 -7.716080e-03 -8.182069e-03 -8.955951e-03 -1.009897e-02 -1.167731e-02 -1.376129e-02 -1.642566e-02 -1.974786e-02 -2.380857e-02 -2.868869e-02 -3.447028e-02 -4.123190e-02 -4.905029e-02 -5.799361e-02 -6.812427e-02 -7.948990e-02 -9.212770e-02 -1.060532e-01 -1.212664e-01 -1.377390e-01 -1.554224e-01 -1.742345e-01 -1.940691e-01 -2.147839e-01 -2.362114e-01 -2.581484e-01 -2.803683e-01 -3.026139e-01 -3.246084e-01 -3.460532e-01 -3.666355e-01 -3.860310e-01 -4.039064e-01 -4.199271e-01 -4.337521e-01 -4.450487e-01 -4.534762e-01 -4.587134e-01 -4.604271e-01 -4.583208e-01 -4.520824e-01 -4.414667e-01 -4.262151e-01 -4.061805e-01 -3.812157e-01 -3.513389e-01 -3.165948e-01 -2.772385e-01 -2.335916e-01 -1.861976e-01 -1.357156e-01 -8.298952e-02 -2.902656e-02 2.506020e-02 7.797493e-02 1.284203e-01 1.749817e-01 2.163899e-01 2.514780e-01 2.794595e-01 2.999972e-01 3.133811e-01 3.205549e-01 3.230244e-01 3.226363e-01 3.212049e-01 3.201996e-01 3.204977e-01 3.223317e-01 3.252944e-01 3.284491e-01 3.305162e-01 3.300703e-01 3.257521e-01 3.165103e-01 3.018253e-01 2.819078e-01 2.577318e-01 2.308090e-01 2.028709e-01 1.754579e-01 1.497698e-01 1.265303e-01 1.060950e-01 8.849142e-02 7.356953e-02 6.105170e-02 5.062881e-02 4.197648e-02 3.480173e-02 2.883530e-02 2.385383e-02 1.966196e-02 1.610617e-02 1.305422e-02 1.040719e-02 8.079462e-03 6.010809e-03 4.147986e-03 2.456868e-03 
1.898707e-03 -9.327434e-04 -3.557532e-03 -5.987509e-03 -8.237640e-03 -1.030722e-02 -1.220033e-02 -1.390989e-02 -1.543438e-02 -1.676491e-02 -1.789843e-02 -1.882773e-02 -1.955151e-02 -2.006699e-02 -2.037732e-02 -2.048642e-02 -2.040428e-02 -2.014342e-02 -1.972279e-02 -1.916532e-02 -1.850094e-02 -1.776472e-02 -1.699960e-02 -1.625465e-02 -1.558783e-02 -1.506409e-02 -1.475848e-02 -1.475365e-02 -1.514347e-02 -1.602971e-02 -1.752619e-02 -1.975431e-02 -2.284757e-02 -2.694590e-02 -3.220017e-02 -3.876510e-02 -4.680373e-02 -5.647836e-02 -6.795514e-02 -8.139250e-02 -9.694625e-02 -1.147549e-01 -1.349458e-01 -1.576172e-01 -1.828462e-01 -2.106672e-01 -2.410828e-01 -2.740400e-01 -3.094436e-01 -3.471322e-01 -3.868945e-01 -4.284480e-01 -4.714565e-01 -5.155151e-01 -5.601671e-01 -6.048983e-01 -6.491503e-01 -6.923251e-01 -7.337917e-01 -7.729012e-01 -8.089825e-01 -8.413673e-01 -8.693707e-01 -8.923289e-01 -9.095596e-01 -9.204211e-01 -9.242448e-01 -9.204347e-01 -9.083598e-01 -8.875188e-01 -8.573799e-01 -8.176288e-01 -7.679493e-01 -7.083496e-01 -6.388964e-01 -5.600685e-01 -4.724957e-01 -3.772361e-01 -2.756129e-01 -1.692921e-01 -6.031553e-02 4.909592e-02 1.562952e-01 2.586459e-01 3.532197e-01 4.373463e-01 5.085485e-01 5.650532e-01 6.060888e-01 6.321470e-01 6.452432e-01 6.486125e-01 6.463095e-01 6.423081e-01 6.397432e-01 6.404403e-01 6.448115e-01 6.519182e-01 6.596830e-01 6.653360e-01 6.658041e-01 6.581435e-01 6.400224e-01 6.102377e-01 5.692052e-01 5.191101e-01 4.633549e-01 4.057692e-01 3.496481e-01 2.974524e-01 2.505760e-01 2.096256e-01 1.745480e-01 1.449491e-01 1.202093e-01 9.966515e-02 8.264541e-02 6.855009e-02 5.683850e-02 4.706275e-02 3.883646e-02 3.185505e-02 2.585896e-02 2.065309e-02 1.607007e-02 1.199157e-02 8.313741e-03 4.969844e-03 
3.020044e-03 -1.157190e-03 -5.039148e-03 -8.641595e-03 -1.198555e-02 -1.506874e-02 -1.789594e-02 -2.045581e-02 -2.274465e-02 -2.474871e-02 -2.646183e-02 -2.787297e-02 -2.897842e-02 -2.977390e-02 -3.026218e-02 -3.044917e-02 -3.034764e-02 -2.997652e-02 -2.936184e-02 -2.853821e-02 -2.754792e-02 -2.644389e-02 -2.528778e-02 -2.415356e-02 -2.312538e-02 -2.230117e-02 -2.179070e-02 -2.171868e-02 -2.222336e-02 -2.345853e-02 -2.559275e-02 -2.880989e-02 -3.330887e-02 -3.930209e-02 -4.701581e-02 -5.668562e-02 -6.855763e-02 -8.288004e-02 -9.990557e-02 -1.198779e-01 -1.430363e-01 -1.695956e-01 -1.997546e-01 -2.336683e-01 -2.714612e-01 -3.131928e-01 -3.588761e-01 -4.084377e-01 -4.617432e-01 -5.185537e-01 -5.785578e-01 -6.413307e-01 -7.063697e-01 -7.730614e-01 -8.407183e-01 -9.085583e-01 -9.757383e-01 -1.041348e+00 -1.104436e+00 -1.164016e+00 -1.219078e+00 -1.268611e+00 -1.311588e+00 -1.347009e+00 -1.373852e+00 -1.391149e+00 -1.397897e+00 -1.393184e+00 -1.376050e+00 -1.345710e+00 -1.301330e+00 -1.242385e+00 -1.168344e+00 -1.079157e+00 -9.748542e-01 -8.561070e-01 -7.237921e-01 -5.794865e-01 -4.251265e-01 -2.632407e-01 -9.687710e-02 7.056289e-02 2.350531e-01 3.924892e-01 5.382610e-01 6.680489e-01 7.776929e-01 8.641019e-01 9.256805e-01 9.630463e-01 9.793911e-01 9.802686e-01 9.727339e-01 9.637281e-01 9.584860e-01 9.598303e-01 9.682685e-01 9.820507e-01 9.974892e-01 1.009921e+00 1.014163e+00 1.005248e+00 9.790429e-01 9.332284e-01 8.683620e-01 7.883861e-01 6.995422e-01 6.085974e-01 5.210531e-01 4.407002e-01 3.694358e-01 3.078682e-01 2.556180e-01 2.118613e-01 1.755003e-01 1.454415e-01 1.206168e-01 1.001046e-01 8.308216e-02 6.888403e-02 5.693501e-02 4.679056e-02 3.806831e-02 3.048644e-02 2.379956e-02 1.783799e-02 1.244988e-02 7.540282e-03 
4.430325e-03 -1.019565e-03 -6.103049e-03 -1.083738e-02 -1.524832e-02 -1.932969e-02 -2.308644e-02 -2.650047e-02 -2.956589e-02 -3.226136e-02 -3.457794e-02 -3.649782e-02 -3.801542e-02 -3.912184e-02 -3.982023e-02 -4.011513e-02 -4.002312e-02 -3.956597e-02 -3.877797e-02 -3.770169e-02 -3.639317e-02 -3.491927e-02 -3.336191e-02 -3.181594e-02 -3.039340e-02 -2.922112e-02 -2.844556e-02 -2.822951e-02 -2.875785e-02 -3.023276e-02 -3.288034e-02 -3.694392e-02 -4.269126e-02 -5.040546e-02 -6.039232e-02 -7.296825e-02 -8.846756e-02 -1.072265e-01 -1.295905e-01 -1.558932e-01 -1.864647e-01 -2.216038e-01 -2.615886e-01 -3.066410e-01 -3.569418e-01 -4.125868e-01 -4.736081e-01 -5.399240e-01 -6.113668e-01 -6.876310e-01 -7.683074e-01 -8.528359e-01 -9.405436e-01 -1.030611e+00 -1.122108e+00 -1.213982e+00 -1.305088e+00 -1.394197e+00 -1.480015e+00 -1.561214e+00 -1.636426e+00 -1.704294e+00 -1.763439e+00 -1.812525e+00 -1.850187e+00 -1.875133e+00 -1.886015e+00 -1.881605e+00 -1.860590e+00 -1.821873e+00 -1.764274e+00 -1.687000e+00 -1.589234e+00 -1.470785e+00 -1.331572e+00 -1.172366e+00 -9.942485e-01 -7.992289e-01 -5.898755e-01 -3.695086e-01 -1.422635e-01 8.732552e-02 3.137076e-01 5.312458e-01 7.333634e-01 9.137002e-01 1.065880e+00 1.184711e+00 1.267233e+00 1.313670e+00 1.328690e+00 1.321019e+00 1.302336e+00 1.284178e+00 1.274493e+00 1.276972e+00 1.292128e+00 1.316906e+00 1.345142e+00 1.369663e+00 1.382529e+00 1.376085e+00 1.343465e+00 1.280232e+00 1.186708e+00 1.069724e+00 9.403636e-01 8.099566e-01 6.868633e-01 5.761280e-01 4.797098e-01 3.977140e-01 3.290214e-01 2.720753e-01 2.251204e-01 1.865226e-01 1.547740e-01 1.286080e-01 1.069264e-01 8.885114e-02 7.363536e-02 6.070461e-02 4.956910e-02 3.986866e-02 3.129100e-02 2.362094e-02 1.666584e-02 1.030656e-02 
6.206270e-03 -4.064042e-04 -6.604213e-03 -1.240332e-02 -1.783196e-02 -2.287879e-02 -2.754648e-02 -3.180980e-02 -3.565781e-02 -3.906180e-02 -4.200672e-02 -4.446860e-02 -4.643613e-02 -4.789674e-02 -4.884963e-02 -4.929915e-02 -4.926086e-02 -4.876083e-02 -4.783633e-02 -4.653955e-02 -4.493456e-02 -4.310402e-02 -4.114405e-02 -3.917244e-02 -3.732281e-02 -3.575319e-02 -3.464041e-02 -3.418800e-02 -3.462148e-02 -3.619460e-02 -3.918585e-02 -4.390208e-02 -5.067617e-02 -5.986716e-02 -7.185892e-02 -8.705544e-02 -1.058808e-01 -1.287679e-01 -1.561603e-01 -1.884921e-01 -2.261936e-01 -2.696597e-01 -3.192615e-01 -3.753010e-01 -4.380314e-01 -5.075980e-01 -5.840693e-01 -6.673653e-01 -7.573011e-01 -8.535090e-01 -9.554932e-01 -1.062554e+00 -1.173854e+00 -1.288350e+00 -1.404869e+00 -1.522062e+00 -1.638472e+00 -1.752522e+00 -1.862565e+00 -1.966900e+00 -2.063799e+00 -2.151538e+00 -2.228390e+00 -2.292673e+00 -2.342692e+00 -2.376823e+00 -2.393388e+00 -2.390816e+00 -2.367438e+00 -2.321790e+00 -2.252299e+00 -2.157816e+00 -2.037145e+00 -1.889849e+00 -1.715608e+00 -1.515220e+00 -1.289843e+00 -1.041928e+00 -7.745627e-01 -4.919474e-01 -1.992076e-01 9.787816e-02 3.922925e-01 6.767035e-01 9.423702e-01 1.180395e+00 1.381321e+00 1.536788e+00 1.641121e+00 1.693404e+00 1.699621e+00 1.673198e+00 1.633379e+00 1.599672e+00 1.583511e+00 1.588052e+00 1.614355e+00 1.657226e+00 1.706106e+00 1.750856e+00 1.779854e+00 1.782164e+00 1.746646e+00 1.664423e+00 1.534112e+00 1.367712e+00 1.185582e+00 1.006505e+00 8.423718e-01 6.988469e-01 5.769407e-01 4.753702e-01 3.916366e-01 3.230745e-01 2.670483e-01 2.212960e-01 1.838238e-01 1.530304e-01 1.275474e-01 1.063142e-01 8.842651e-02 7.320640e-02 6.006866e-02 4.859384e-02 3.841079e-02 2.927143e-02 2.094748e-02 1.330342e-02 
8.639962e-03 9.769689e-04 -6.250725e-03 -1.305435e-02 -1.946306e-02 -2.545650e-02 -3.103456e-02 -3.616072e-02 -4.081917e-02 -4.496921e-02 -4.859033e-02 -5.164733e-02 -5.412428e-02 -5.599945e-02 -5.726950e-02 -5.793281e-02 -5.800569e-02 -5.751241e-02 -5.649528e-02 -5.500971e-02 -5.313015e-02 -5.094839e-02 -4.857729e-02 -4.615069e-02 -4.382657e-02 -4.178716e-02 -4.024270e-02 -3.943064e-02 -3.962056e-02 -4.111162e-02 -4.423867e-02 -4.936716e-02 -5.690003e-02 -6.726935e-02 -8.094326e-02 -9.841341e-02 -1.202015e-01 -1.468410e-01 -1.788834e-01 -2.168719e-01 -2.613490e-01 -3.128194e-01 -3.717610e-01 -4.385743e-01 -5.136006e-01 -5.970561e-01 -6.890613e-01 -7.895605e-01 -8.983643e-01 -1.015063e+00 -1.139080e+00 -1.269589e+00 -1.405580e+00 -1.545794e+00 -1.688788e+00 -1.832911e+00 -1.976357e+00 -2.117184e+00 -2.253348e+00 -2.382759e+00 -2.503287e+00 -2.612836e+00 -2.709307e+00 -2.790681e+00 -2.854930e+00 -2.900117e+00 -2.924236e+00 -2.925386e+00 -2.901522e+00 -2.850788e+00 -2.771150e+00 -2.661014e+00 -2.518680e+00 -2.343316e+00 -2.134220e+00 -1.892044e+00 -1.617934e+00 -1.314635e+00 -9.857992e-01 -6.363716e-01 -2.726103e-01 9.865609e-02 4.688070e-01 8.290147e-01 1.168098e+00 1.474197e+00 1.733658e+00 1.933008e+00 2.061803e+00 2.115738e+00 2.101642e+00 2.039166e+00 1.960891e+00 1.902407e+00 1.878790e+00 1.886159e+00 1.930626e+00 2.003164e+00 2.083726e+00 2.160414e+00 2.216354e+00 2.237744e+00 2.206983e+00 2.105377e+00 1.924369e+00 1.686344e+00 1.431467e+00 1.190858e+00 9.796085e-01 8.018593e-01 6.555869e-01 5.366824e-01 4.404531e-01 3.627085e-01 2.997747e-01 2.487093e-01 2.070551e-01 1.729042e-01 1.446672e-01 1.211330e-01 1.012801e-01 8.435028e-02 6.969015e-02 5.683592e-02 4.537483e-02 3.503525e-02 2.556366e-02 1.681430e-02 
1.188806e-02 3.325520e-03 -4.812940e-03 -1.253107e-02 -1.985557e-02 -2.675612e-02 -3.322605e-02 -3.921759e-02 -4.470559e-02 -4.963809e-02 -5.398386e-02 -5.769769e-02 -6.075297e-02 -6.312039e-02 -6.478729e-02 -6.574807e-02 -6.601222e-02 -6.560450e-02 -6.456410e-02 -6.295221e-02 -6.084486e-02 -5.834572e-02 -5.557510e-02 -5.268583e-02 -4.985056e-02 -4.727888e-02 -4.520471e-02 -4.390289e-02 -4.367784e-02 -4.487817e-02 -4.788714e-02 -5.313387e-02 -6.108565e-02 -7.225424e-02 -8.718994e-02 -1.064809e-01 -1.307493e-01 -1.606409e-01 -1.968239e-01 -2.399658e-01 -2.907371e-01 -3.497706e-01 -4.176740e-01 -4.949670e-01 -5.821073e-01 -6.794039e-01 -7.870593e-01 -9.050613e-01 -1.033244e+00 -1.171166e+00 -1.318189e+00 -1.473359e+00 -1.635496e+00 -1.803102e+00 -1.974454e+00 -2.147555e+00 -2.320224e+00 -2.490095e+00 -2.654700e+00 -2.811504e+00 -2.957955e+00 -3.091547e+00 -3.209813e+00 -3.310391e+00 -3.390949e+00 -3.449247e+00 -3.482997e+00 -3.489962e+00 -3.467744e+00 -3.414037e+00 -3.326306e+00 -3.202364e+00 -3.039876e+00 -2.837413e+00 -2.593683e+00 -2.309039e+00 -1.984406e+00 -1.622846e+00 -1.228415e+00 -8.070039e-01 -3.658245e-01 8.710982e-02 5.419631e-01 9.885440e-01 1.413602e+00 1.801977e+00 2.134608e+00 2.390168e+00 2.549388e+00 2.600719e+00 2.548927e+00 2.420473e+00 2.271290e+00 2.175758e+00 2.151552e+00 2.158180e+00 2.232344e+00 2.355929e+00 2.481200e+00 2.606843e+00 2.703525e+00 2.760580e+00 2.751877e+00 2.636883e+00 2.380004e+00 2.027453e+00 1.667208e+00 1.348807e+00 1.085905e+00 8.754962e-01 7.087799e-01 5.769251e-01 4.722169e-01 3.887131e-01 3.216730e-01 2.675695e-01 2.235608e-01 1.875346e-01 1.577408e-01 1.328876e-01 1.118721e-01 9.389948e-02 7.826871e-02 6.449803e-02 5.214503e-02 4.093027e-02 3.058209e-02 2.095363e-02 
1.641854e-02 7.096441e-03 -1.850175e-03 -1.041255e-02 -1.861403e-02 -2.640893e-02 -3.378419e-02 -4.067469e-02 -4.704680e-02 -5.283041e-02 -5.798494e-02 -6.244758e-02 -6.618286e-02 -6.914576e-02 -7.131658e-02 -7.267709e-02 -7.323277e-02 -7.299986e-02 -7.201752e-02 -7.034339e-02 -6.805846e-02 -6.526863e-02 -6.210518e-02 -5.872994e-02 -5.533389e-02 -5.214385e-02 -4.942116e-02 -4.746817e-02 -4.662810e-02 -4.729000e-02 -4.989003e-02 -5.491378e-02 -6.289838e-02 -7.443116e-02 -9.015158e-02 -1.107448e-01 -1.369425e-01 -1.695092e-01 -2.092424e-01 -2.569473e-01 -3.134385e-01 -3.794987e-01 -4.558851e-01 -5.432665e-01 -6.422406e-01 -7.532446e-01 -8.765891e-01 -1.012343e+00 -1.160387e+00 -1.320283e+00 -1.491344e+00 -1.672508e+00 -1.862426e+00 -2.059356e+00 -2.261266e+00 -2.465785e+00 -2.670297e+00 -2.871970e+00 -3.067823e+00 -3.254833e+00 -3.429948e+00 -3.590228e+00 -3.732802e+00 -3.854978e+00 -3.954134e+00 -4.027784e+00 -4.073397e+00 -4.088468e+00 -4.070264e+00 -4.016041e+00 -3.922690e+00 -3.787335e+00 -3.606804e+00 -3.378836e+00 -3.101276e+00 -2.773885e+00 -2.397200e+00 -1.974386e+00 -1.510035e+00 -1.010869e+00 -4.854080e-01 5.751905e-02 6.068270e-01 1.152099e+00 1.678581e+00 2.168732e+00 2.596910e+00 2.930113e+00 3.133550e+00 3.180482e+00 3.067892e+00 2.820761e+00 2.530975e+00 2.385376e+00 2.404770e+00 2.376610e+00 2.501915e+00 2.725285e+00 2.897874e+00 3.101533e+00 3.249885e+00 3.367599e+00 3.420116e+00 3.323874e+00 2.940643e+00 2.381687e+00 1.864911e+00 1.454079e+00 1.142460e+00 9.078869e-01 7.295154e-01 5.921195e-01 4.847468e-01 3.999325e-01 3.321912e-01 2.776684e-01 2.333519e-01 1.970633e-01 1.670068e-01 1.418782e-01 1.205556e-01 1.022423e-01 8.622451e-02 7.202143e-02 5.918049e-02 4.742545e-02 3.647735e-02 2.619530e-02 
2.251618e-02 1.261315e-02 2.998404e-03 -6.305704e-03 -1.531469e-02 -2.396781e-02 -3.224032e-02 -4.005089e-02 -4.735104e-02 -5.405419e-02 -6.010287e-02 -6.541880e-02 -6.994894e-02 -7.363520e-02 -7.644103e-02 -7.833865e-02 -7.931879e-02 -7.939259e-02 -7.858771e-02 -7.696186e-02 -7.458878e-02 -7.158031e-02 -6.806590e-02 -6.422005e-02 -6.023881e-02 -5.636981e-02 -5.288850e-02 -5.012831e-02 -4.845858e-02 -4.831267e-02 -5.016863e-02 -5.457325e-02 -6.212561e-02 -7.349509e-02 -8.940738e-02 -1.106539e-01 -1.380800e-01 -1.725825e-01 -2.151009e-01 -2.665971e-01 -3.280534e-01 -4.004270e-01 -4.846596e-01 -5.815996e-01 -6.920290e-01 -8.165477e-01 -9.556242e-01 -1.109441e+00 -1.277975e+00 -1.460811e+00 -1.657252e+00 -1.866126e+00 -2.085924e+00 -2.314628e+00 -2.549873e+00 -2.788840e+00 -3.028420e+00 -3.265207e+00 -3.495641e+00 -3.716096e+00 -3.922970e+00 -4.112815e+00 -4.282352e+00 -4.428553e+00 -4.548574e+00 -4.639735e+00 -4.699383e+00 -4.724804e+00 -4.713040e+00 -4.660890e+00 -4.564682e+00 -4.420650e+00 -4.224613e+00 -3.973107e+00 -3.662766e+00 -3.292423e+00 -2.861876e+00 -2.374447e+00 -1.835125e+00 -1.252029e+00 -6.349642e-01 5.970342e-03 6.592532e-01 1.315277e+00 1.960461e+00 2.577115e+00 3.134150e+00 3.581823e+00 3.858297e+00 3.908099e+00 3.713645e+00 3.260144e+00 2.649884e+00 2.439003e+00 2.717874e+00 2.458290e+00 2.694932e+00 3.167351e+00 3.306721e+00 3.674535e+00 3.850706e+00 4.062712e+00 4.259845e+00 4.315832e+00 3.688098e+00 2.698403e+00 1.959932e+00 1.462766e+00 1.124868e+00 8.867145e-01 7.118698e-01 5.795003e-01 4.767423e-01 3.957446e-01 3.309945e-01 2.788075e-01 2.362826e-01 2.013817e-01 1.723765e-01 1.480449e-01 1.272960e-01 1.093793e-01 9.359244e-02 7.948149e-02 6.659681e-02 5.467936e-02 4.345050e-02 3.278262e-02 
3.086204e-02 2.053346e-02 1.035993e-02 3.834350e-04 -9.404572e-03 -1.892117e-02 -2.813156e-02 -3.692978e-02 -4.525452e-02 -5.299311e-02 -6.007361e-02 -6.639160e-02 -7.187943e-02 -7.645438e-02 -8.006668e-02 -8.266689e-02 -8.423513e-02 -8.476498e-02 -8.427712e-02 -8.281655e-02 -8.045451e-02 -7.729566e-02 -7.347222e-02 -6.915800e-02 -6.455839e-02 -5.992832e-02 -5.556120e-02 -5.180832e-02 -4.906868e-02 -4.780780e-02 -4.854926e-02 -5.189127e-02 -5.849925e-02 -6.911889e-02 -8.456821e-02 -1.057453e-01 -1.336185e-01 -1.692255e-01 -2.136614e-01 -2.680644e-01 -3.336035e-01 -4.114428e-01 -5.027345e-01 -6.085514e-01 -7.298940e-01 -8.675807e-01 -1.022279e+00 -1.194347e+00 -1.383897e+00 -1.590599e+00 -1.813774e+00 -2.052185e+00 -2.304157e+00 -2.567407e+00 -2.839180e+00 -3.116168e+00 -3.394652e+00 -3.670560e+00 -3.939590e+00 -4.197406e+00 -4.439700e+00 -4.662450e+00 -4.861893e+00 -5.034693e+00 -5.177826e+00 -5.288552e+00 -5.364229e+00 -5.402121e+00 -5.399171e+00 -5.351852e+00 -5.255899e+00 -5.106594e+00 -4.898432e+00 -4.626385e+00 -4.285330e+00 -3.872629e+00 -3.386941e+00 -2.831417e+00 -2.211779e+00 -1.537746e+00 -8.215980e-01 -7.478185e-02 6.902128e-01 1.467248e+00 2.247309e+00 3.020072e+00 3.753980e+00 4.380120e+00 4.786308e+00 4.861996e+00 4.605820e+00 3.845581e+00 2.368880e+00 2.019556e+00 3.587190e+00 2.062413e+00 2.680269e+00 3.967661e+00 3.513355e+00 4.464615e+00 4.441909e+00 4.799265e+00 5.269328e+00 6.015283e+00 4.810079e+00 2.765622e+00 1.816062e+00 1.314957e+00 1.011166e+00 8.055670e-01 6.551129e-01 5.401063e-01 4.496453e-01 3.775279e-01 3.193150e-01 2.720605e-01 2.333152e-01 2.013630e-01 1.746710e-01 1.521694e-01 1.328558e-01 1.160579e-01 1.011141e-01 8.761382e-02 7.512528e-02 6.341634e-02 5.221589e-02 4.141629e-02 
4.190870e-02 3.134968e-02 2.076835e-02 1.022431e-02 -2.782640e-04 -1.063700e-02 -2.079986e-02 -3.063931e-02 -4.007238e-02 -4.896358e-02 -5.721598e-02 -6.470264e-02 -7.132917e-02 -7.699232e-02 -8.161560e-02 -8.513247e-02 -8.749792e-02 -8.869284e-02 -8.871559e-02 -8.760350e-02 -8.540915e-02 -8.223497e-02 -7.819916e-02 -7.347925e-02 -6.827273e-02 -6.284551e-02 -5.749168e-02 -5.258323e-02 -4.853228e-02 -4.583886e-02 -4.505750e-02 -4.684039e-02 -5.190860e-02 -6.108817e-02 -7.528510e-02 -9.551146e-02 -1.228632e-01 -1.585319e-01 -2.037855e-01 -2.599591e-01 -3.284414e-01 -4.106336e-01 -5.079493e-01 -6.217274e-01 -7.532546e-01 -9.036199e-01 -1.073769e+00 -1.264294e+00 -1.475526e+00 -1.707264e+00 -1.958915e+00 -2.229190e+00 -2.516280e+00 -2.817588e+00 -3.129932e+00 -3.449389e+00 -3.771521e+00 -4.091391e+00 -4.403798e+00 -4.703475e+00 -4.985275e+00 -5.244447e+00 -5.476715e+00 -5.678425e+00 -5.846502e+00 -5.978282e+00 -6.071398e+00 -6.123307e+00 -6.131159e+00 -6.091221e+00 -5.998814e+00 -5.848040e+00 -5.631892e+00 -5.343058e+00 -4.974044e+00 -4.519896e+00 -3.977441e+00 -3.349598e+00 -2.642749e+00 -1.869679e+00 -1.046138e+00 -1.871710e-01 6.934258e-01 1.594270e+00 2.517872e+00 3.473900e+00 4.450506e+00 5.366729e+00 6.014838e+00 6.126478e+00 5.987704e+00 5.132009e+00 9.571575e-01 -3.601530e-01 5.567911e+00 4.688399e+00 1.171603e+00 4.732933e+00 3.632014e+00 3.543678e+00 3.382498e+00 2.745276e+00 3.936864e+00 4.025910e+00 3.931109e+00 1.735689e+00 1.227201e+00 9.736792e-01 8.039887e-01 6.732305e-01 5.667188e-01 4.792197e-01 4.069906e-01 3.476425e-01 2.987341e-01 2.585156e-01 2.252095e-01 1.975612e-01 1.743074e-01 1.545882e-01 1.375238e-01 1.225479e-01 1.090576e-01 9.669958e-02 8.507053e-02 7.397141e-02 6.314540e-02 5.250661e-02 
5.658089e-02 4.595361e-02 3.507124e-02 2.401822e-02 1.280752e-02 1.570193e-03 -9.628347e-03 -2.062766e-02 -3.132696e-02 -4.155467e-02 -5.119292e-02 -6.007744e-02 -6.809174e-02 -7.509615e-02 -8.099287e-02 -8.568179e-02 -8.909887e-02 -9.119562e-02 -9.195457e-02 -9.138854e-02 -8.953800e-02 -8.648602e-02 -8.234287e-02 -7.727238e-02 -7.146919e-02 -6.519261e-02 -5.874103e-02 -5.248985e-02 -4.686651e-02 -4.238946e-02 -3.964541e-02 -3.932722e-02 -4.221280e-02 -4.920026e-02 -6.128621e-02 -7.959642e-02 -1.053605e-01 -1.399350e-01 -1.847726e-01 -2.414313e-01 -3.115399e-01 -3.967814e-01 -4.988627e-01 -6.194540e-01 -7.601755e-01 -9.224721e-01 -1.107632e+00 -1.316579e+00 -1.549937e+00 -1.807743e+00 -2.089550e+00 -2.394103e+00 -2.719480e+00 -3.062791e+00 -3.420363e+00 -3.787576e+00 -4.159073e+00 -4.528864e+00 -4.890533e+00 -5.237638e+00 -5.563870e+00 -5.863583e+00 -6.131824e+00 -6.364664e+00 -6.559072e+00 -6.712747e+00 -6.823912e+00 -6.890642e+00 -6.910659e+00 -6.880429e+00 -6.794998e+00 -6.647387e+00 -6.428628e+00 -6.128580e+00 -5.736206e+00 -5.243124e+00 -4.643177e+00 -3.938277e+00 -3.135875e+00 -2.252714e+00 -1.311358e+00 -3.333904e-01 6.614385e-01 1.677020e+00 2.732155e+00 3.878841e+00 5.170027e+00 6.582378e+00 7.730278e+00 7.618378e+00 8.074972e+00 8.940868e+00 7.236867e+00 8.137360e+00 1.371122e+00 3.420064e+00 3.227781e+00 -1.043191e-01 3.460500e-01 -1.538037e+00 -1.445098e+00 -2.281173e+00 -1.781603e+00 -3.177402e+00 -4.036614e-01 -1.940686e-01 3.911549e-01 5.542396e-01 5.641549e-01 5.213977e-01 4.638264e-01 4.065974e-01 3.547529e-01 3.100083e-01 2.720340e-01 2.402777e-01 2.136678e-01 1.914211e-01 1.725713e-01 1.564825e-01 1.424157e-01 1.299224e-01 1.184681e-01 1.077652e-01 9.744240e-02 8.733993e-02 7.721490e-02 6.700846e-02 
7.552691e-02 6.503743e-02 5.401043e-02 4.254831e-02 3.068035e-02 1.855986e-02 6.275359e-03 -5.985710e-03 -1.809260e-02 -2.984326e-02 -4.108438e-02 -5.162005e-02 -6.129508e-02 -6.993954e-02 -7.741605e-02 -8.359761e-02 -8.838179e-02 -9.169778e-02 -9.349213e-02 -9.376027e-02 -9.250979e-02 -8.981101e-02 -8.574488e-02 -8.046704e-02 -7.414741e-02 -6.704235e-02 -5.943264e-02 -5.169853e-02 -4.426153e-02 -3.765789e-02 -3.248742e-02 -2.948171e-02 -2.946083e-02 -3.339340e-02 -4.235955e-02 -5.760008e-02 -8.048286e-02 -1.125371e-01 -1.554212e-01 -2.109347e-01 -2.809892e-01 -3.675838e-01 -4.727881e-01 -5.986586e-01 -7.472474e-01 -9.204333e-01 -1.119972e+00 -1.347219e+00 -1.603231e+00 -1.888377e+00 -2.202491e+00 -2.544408e+00 -2.912163e+00 -3.302540e+00 -3.711322e+00 -4.132998e+00 -4.561088e+00 -4.988173e+00 -5.406291e+00 -5.807379e+00 -6.183641e+00 -6.528211e+00 -6.835349e+00 -7.100823e+00 -7.321872e+00 -7.496859e+00 -7.625097e+00 -7.705819e+00 -7.737970e+00 -7.718757e+00 -7.643509e+00 -7.504136e+00 -7.289599e+00 -6.985625e+00 -6.576426e+00 -6.048022e+00 -5.389629e+00 -4.601263e+00 -3.690938e+00 -2.682010e+00 -1.606945e+00 -5.013968e-01 6.009604e-01 1.702689e+00 2.838030e+00 4.117062e+00 5.738164e+00 8.016326e+00 1.063989e+01 8.901919e+00 2.922532e+00 8.347791e-01 3.370453e+00 3.581045e+00 -1.138234e+00 -5.572332e+00 -3.797030e+00 -4.076428e+00 -4.618156e+00 -3.891506e+00 -4.176819e+00 -3.255149e+00 -4.668327e+00 -4.614518e+00 -2.719165e+00 -9.141317e-01 -1.012773e-02 2.967742e-01 3.845565e-01 3.898982e-01 3.654342e-01 3.323244e-01 2.987993e-01 2.683289e-01 2.416943e-01 2.190964e-01 1.999729e-01 1.839215e-01 1.702392e-01 1.584949e-01 1.480907e-01 1.386903e-01 1.298342e-01 1.212958e-01 1.127421e-01 1.040469e-01 9.498655e-02 8.552254e-02 
9.994074e-02 8.975687e-02 7.868545e-02 6.685569e-02 5.430485e-02 4.122065e-02 2.770751e-02 1.399529e-02 2.383085e-04 -1.331269e-02 -2.647525e-02 -3.900149e-02 -5.070442e-02 -6.136220e-02 -7.080580e-02 -7.885925e-02 -8.539060e-02 -9.028466e-02 -9.346154e-02 -9.487730e-02 -9.451604e-02 -9.241344e-02 -8.862938e-02 -8.328915e-02 -7.654411e-02 -6.862524e-02 -5.979888e-02 -5.042779e-02 -4.092746e-02 -3.183057e-02 -2.374703e-02 -1.742866e-02 -1.373304e-02 -1.368646e-02 -1.844831e-02 -2.937124e-02 -4.796041e-02 -7.592907e-02 -1.151475e-01 -1.676882e-01 -2.357637e-01 -3.217468e-01 -4.281061e-01 -5.573737e-01 -7.120967e-01 -8.947131e-01 -1.107543e+00 -1.352534e+00 -1.631305e+00 -1.944742e+00 -2.293101e+00 -2.675478e+00 -3.089959e+00 -3.533078e+00 -4.000014e+00 -4.484247e+00 -4.977841e+00 -5.471566e+00 -5.955302e+00 -6.418800e+00 -6.852106e+00 -7.246717e+00 -7.595762e+00 -7.894772e+00 -8.141497e+00 -8.335525e+00 -8.477950e+00 -8.569968e+00 -8.612604e+00 -8.604709e+00 -8.542561e+00 -8.417539e+00 -8.216059e+00 -7.918960e+00 -7.503220e+00 -6.946855e+00 -6.231247e+00 -5.352223e+00 -4.317737e+00 -3.158370e+00 -1.922394e+00 -6.691003e-01 5.369061e-01 1.680170e+00 2.792996e+00 4.007991e+00 5.644690e+00 9.090336e+00 1.743015e+01 2.531210e+00 4.573117e+00 5.210899e+00 -2.626966e+00 -1.606394e+01 -1.081380e+01 1.063383e-01 -5.162184e+00 -7.501169e-01 -1.454964e+00 8.867963e-01 -5.047616e-01 1.498750e+00 -1.823021e-01 2.362616e+00 2.739948e-01 7.549841e-02 1.955945e-01 2.669300e-01 2.935711e-01 2.933238e-01 2.801837e-01 2.621614e-01 2.432869e-01 2.257824e-01 2.102609e-01 1.970921e-01 1.859554e-01 1.766975e-01 1.688115e-01 1.620405e-01 1.559056e-01 1.501768e-01 1.444575e-01 1.385828e-01 1.322477e-01 1.253616e-01 1.177099e-01 1.092785e-01 
1.306793e-01 1.210224e-01 1.100706e-01 9.796654e-02 8.476551e-02 7.067817e-02 5.583807e-02 4.050769e-02 2.488159e-02 9.250421e-03 -6.154249e-03 -2.104112e-02 -3.516872e-02 -4.827227e-02 -6.012656e-02 -7.051627e-02 -7.925431e-02 -8.619136e-02 -9.119489e-02 -9.419194e-02 -9.511659e-02 -9.397929e-02 -9.079203e-02 -8.565705e-02 -7.867989e-02 -7.007013e-02 -6.005212e-02 -4.897080e-02 -3.720848e-02 -2.528931e-02 -1.380798e-02 -3.527643e-03 4.677574e-03 9.734566e-03 1.041739e-02 5.271075e-03 -7.347756e-03 -2.933321e-02 -6.278882e-02 -1.100701e-01 -1.737406e-01 -2.565796e-01 -3.615434e-01 -4.917062e-01 -6.502467e-01 -8.402747e-01 -1.064866e+00 -1.326722e+00 -1.628265e+00 -1.971095e+00 -2.356143e+00 -2.782940e+00 -3.249805e+00 -3.753055e+00 -4.287243e+00 -4.844564e+00 -5.415255e+00 -5.987590e+00 -6.548563e+00 -7.084823e+00 -7.583479e+00 -8.033707e+00 -8.427210e+00 -8.759244e+00 -9.028504e+00 -9.236434e+00 -9.386757e+00 -9.483719e+00 -9.531570e+00 -9.532317e+00 -9.484625e+00 -9.380326e+00 -9.203619e+00 -8.928376e+00 -8.521825e+00 -7.948536e+00 -7.178201e+00 -6.199014e+00 -5.016372e+00 -3.670032e+00 -2.225988e+00 -7.825150e-01 5.380637e-01 1.676354e+00 2.645554e+00 3.497619e+00 3.794862e+00 5.374768e+00 7.361037e+00 3.293201e+00 7.508184e+00 -1.176735e+01 -1.665453e+01 1.008324e+01 9.045759e+00 2.631906e+00 3.335232e+00 4.324488e+00 3.240177e+00 4.922887e+00 3.912573e+00 4.582252e+00 4.666381e+00 4.101232e+00 3.882090e+00 9.810559e-01 4.533587e-01 2.871390e-01 2.335234e-01 2.139180e-01 2.037440e-01 1.963250e-01 1.897771e-01 1.841826e-01 1.794233e-01 1.757302e-01 1.728626e-01 1.708032e-01 1.691988e-01 1.679158e-01 1.665870e-01 1.650586e-01 1.629994e-01 1.602833e-01 1.566378e-01 1.519892e-01 1.461367e-01 1.390731e-01 
1.692287e-01 1.602821e-01 1.495482e-01 1.371943e-01 1.232793e-01 1.080531e-01 9.166681e-02 7.443649e-02 5.658717e-02 3.847455e-02 2.037002e-02 2.636319e-03 -1.444058e-02 -3.052351e-02 -4.534250e-02 -5.861323e-02 -7.010661e-02 -7.961003e-02 -8.695248e-02 -9.200359e-02 -9.466139e-02 -9.488317e-02 -9.264509e-02 -8.799845e-02 -8.101129e-02 -7.184343e-02 -6.068038e-02 -4.782028e-02 -3.360935e-02 -1.853445e-02 -3.166144e-03 1.174772e-02 2.532992e-02 3.648172e-02 4.392585e-02 4.611566e-02 4.128258e-02 2.734504e-02 1.971818e-03 -3.750771e-02 -9.401757e-02 -1.708105e-01 -2.713653e-01 -3.994128e-01 -5.588405e-01 -7.536041e-01 -9.876774e-01 -1.264762e+00 -1.588310e+00 -1.960955e+00 -2.384601e+00 -2.859564e+00 -3.384678e+00 -3.956286e+00 -4.568356e+00 -5.211675e+00 -5.874134e+00 -6.540747e+00 -7.194396e+00 -7.817316e+00 -8.392198e+00 -8.904874e+00 -9.344908e+00 -9.707496e+00 -9.992983e+00 -1.020591e+01 -1.035403e+01 -1.044591e+01 -1.049057e+01 -1.049485e+01 -1.046184e+01 -1.038581e+01 -1.024909e+01 -1.001791e+01 -9.644472e+00 -9.074652e+00 -8.258131e+00 -7.170343e+00 -5.811155e+00 -4.224494e+00 -2.494891e+00 -7.718303e-01 7.199292e-01 1.813179e+00 2.609979e+00 3.515226e+00 7.851576e-01 1.469001e+01 1.325364e+01 7.914332e+00 -1.311041e+01 -1.308688e+01 7.101928e+00 1.105178e+01 3.343563e+00 2.563244e+00 4.727593e+00 4.545540e+00 5.715139e+00 2.885154e+00 4.530788e+00 1.899771e+00 3.640474e+00 -2.129193e+00 2.848963e+00 7.401504e-01 3.478803e-01 1.959493e-01 1.422696e-01 1.281802e-01 1.280496e-01 1.328311e-01 1.386923e-01 1.448426e-01 1.507745e-01 1.566581e-01 1.623045e-01 1.678085e-01 1.729252e-01 1.776279e-01 1.816263e-01 1.848360e-01 1.869633e-01 1.879195e-01 1.874399e-01 1.854686e-01 1.817966e-01 1.764272e-01 