# vtk DataFile Version 2.0
Comment goes here
ASCII

DATASET STRUCTURED_POINTS
DIMENSIONS    128   128   1

ORIGIN    0.000   0.000   0.000
SPACING   0.0156250.015625   1.000

POINT_DATA   16384
SCALARS Omega double
LOOKUP_TABLE default

-1.340956e-06 -1.099259e-06 -9.154225e-07 -7.437313e-07 -6.237265e-07 -5.059937e-07 -4.339216e-07 -3.557913e-07 -3.176321e-07 -2.668906e-07 -2.505207e-07 -2.168313e-07 -2.116938e-07 -1.862220e-07 -1.830986e-07 -1.583686e-07 -1.495122e-07 -1.197101e-07 -9.951174e-08 -6.138795e-08 -2.770187e-08 1.781461e-08 6.159126e-08 1.069890e-07 1.490293e-07 1.769882e-07 1.933399e-07 1.727150e-07 1.228737e-07 4.009467e-09 -1.740504e-07 -4.644292e-07 -8.594211e-07 -1.423313e-06 -2.155428e-06 -3.127947e-06 -4.352350e-06 -5.904273e-06 -7.811877e-06 -1.014860e-05 -1.296196e-05 -1.631621e-05 -2.027747e-05 -2.489230e-05 -3.023919e-05 -3.633672e-05 -4.326220e-05 -5.099385e-05 -5.958559e-05 -6.896102e-05 -7.911989e-05 -8.991625e-05 -1.012589e-04 -1.129195e-04 -1.246787e-04 -1.362203e-04 -1.471685e-04 -1.571264e-04 -1.655544e-04 -1.720028e-04 -1.757915e-04 -1.764707e-04 -1.732835e-04 -1.658579e-04 -1.534634e-04 -1.359038e-04 -1.126102e-04 -8.366834e-05 -4.881969e-05 -8.528038e-06 3.701747e-05 8.691598e-05 1.404398e-04 1.962623e-04 2.531181e-04 3.093733e-04 3.633628e-04 4.133916e-04 4.576890e-04 4.948447e-04 5.233865e-04 5.425378e-04 5.515189e-04 5.504113e-04 5.393706e-04 5.193637e-04 4.915014e-04 4.574893e-04 4.191927e-04 3.787534e-04 3.383453e-04 3.000246e-04 2.655675e-04 2.362497e-04 2.127410e-04 1.950415e-04 1.824784e-04 1.738700e-04 1.676354e-04 1.620917e-04 1.556383e-04 1.470396e-04 1.356027e-04 1.212871e-04 1.047018e-04 8.689464e-05 6.910179e-05 5.243785e-05 3.771812e-05 2.539073e-05 1.555719e-05 8.080592e-06 2.657812e-06 -1.063398e-06 -3.456227e-06 -4.842244e-06 -5.510950e-06 -5.675527e-06 -5.519868e-06 -5.157629e-06 -4.694844e-06 -4.176992e-06 -3.664952e-06 -3.163249e-06 -2.711299e-06 -2.290314e-06 -1.932339e-06 -1.605209e-06 
3.222086e-03 2.479508e-03 1.861062e-03 1.347865e-03 9.268802e-04 5.834556e-04 3.089583e-04 9.202295e-05 -7.260356e-05 -1.937818e-04 -2.742833e-04 -3.210666e-04 -3.351888e-04 -3.221528e-04 -2.819558e-04 -2.189853e-04 -1.327548e-04 -2.683700e-05 9.919536e-05 2.422481e-04 4.021347e-04 5.757959e-04 7.618243e-04 9.565876e-04 1.156773e-03 1.357372e-03 1.552402e-03 1.734496e-03 1.894197e-03 2.020671e-03 2.100225e-03 2.117471e-03 2.053900e-03 1.888703e-03 1.598374e-03 1.156333e-03 5.345540e-04 -2.987830e-04 -1.374766e-03 -2.728638e-03 -4.391803e-03 -6.399439e-03 -8.778984e-03 -1.156016e-02 -1.476057e-02 -1.839724e-02 -2.247077e-02 -2.697697e-02 -3.189177e-02 -3.718111e-02 -4.278949e-02 -4.864606e-02 -5.465978e-02 -6.072016e-02 -6.670112e-02 -7.245568e-02 -7.782914e-02 -8.264834e-02 -8.674234e-02 -8.992850e-02 -9.203648e-02 -9.289489e-02 -9.235277e-02 -9.027147e-02 -8.653790e-02 -8.106627e-02 -7.379912e-02 -6.472217e-02 -5.385226e-02 -4.126551e-02 -2.707445e-02 -1.146495e-02 5.333554e-03 2.301190e-02 4.121451e-02 5.951754e-02 7.746306e-02 9.456442e-02 1.103369e-01 1.243340e-01 1.361648e-01 1.455486e-01 1.523075e-01 1.564152e-01 1.579644e-01 1.571969e-01 1.544664e-01 1.502563e-01 1.451525e-01 1.398408e-01 1.350521e-01 1.315072e-01 1.298017e-01 1.303344e-01 1.332012e-01 1.382028e-01 1.448241e-01 1.523280e-01 1.597994e-01 1.662568e-01 1.707176e-01 1.723160e-01 1.704354e-01 1.648656e-01 1.559091e-01 1.443341e-01 1.311656e-01 1.174212e-01 1.039161e-01 9.119783e-02 7.955534e-02 6.909596e-02 5.980270e-02 5.160293e-02 4.439388e-02 3.807383e-02 3.254306e-02 2.771458e-02 2.350828e-02 1.985475e-02 1.669028e-02 1.395856e-02 1.160808e-02 9.592537e-03 7.870348e-03 6.403621e-03 5.159461e-03 4.107348e-03 
6.371529e-03 4.887267e-03 3.651706e-03 2.626281e-03 1.785822e-03 1.100170e-03 5.530697e-04 1.208536e-04 -2.058924e-04 -4.459037e-04 -6.035808e-04 -6.939089e-04 -7.178424e-04 -6.874694e-04 -6.016439e-04 -4.701869e-04 -2.910441e-04 -7.231910e-05 1.878270e-04 4.823810e-04 8.118210e-04 1.169369e-03 1.552897e-03 1.954660e-03 2.368525e-03 2.784169e-03 3.189902e-03 3.570821e-03 3.908053e-03 4.179845e-03 4.358603e-03 4.413466e-03 4.306955e-03 3.997275e-03 3.436688e-03 2.571661e-03 1.345159e-03 -3.071293e-04 -2.448605e-03 -5.150805e-03 -8.477960e-03 -1.250190e-02 -1.727903e-02 -2.287067e-02 -2.931349e-02 -3.664366e-02 -4.486361e-02 -5.396693e-02 -6.390617e-02 -7.461464e-02 -8.598100e-02 -9.786397e-02 -1.100798e-01 -1.224062e-01 -1.345878e-01 -1.463277e-01 -1.573119e-01 -1.671891e-01 -1.756121e-01 -1.822097e-01 -1.866357e-01 -1.885409e-01 -1.876186e-01 -1.835852e-01 -1.762105e-01 -1.653167e-01 -1.507849e-01 -1.325801e-01 -1.107313e-01 -8.538384e-02 -5.675808e-02 -2.521998e-02 8.773235e-03 4.460358e-02 8.155217e-02 1.187605e-01 1.552893e-01 1.901408e-01 2.223074e-01 2.508640e-01 2.749894e-01 2.940984e-01 3.078125e-01 3.160743e-01 3.190683e-01 3.172834e-01 3.114341e-01 3.024953e-01 2.916617e-01 2.803494e-01 2.700964e-01 2.624464e-01 2.586894e-01 2.597014e-01 2.656987e-01 2.762652e-01 2.903093e-01 3.062776e-01 3.222530e-01 3.361852e-01 3.460011e-01 3.498304e-01 3.462816e-01 3.348295e-01 3.161232e-01 2.919098e-01 2.645033e-01 2.361299e-01 2.084939e-01 1.826722e-01 1.591815e-01 1.381698e-01 1.195510e-01 1.031454e-01 8.872945e-02 7.609115e-02 6.502918e-02 5.536929e-02 4.695292e-02 3.964167e-02 3.330942e-02 2.784329e-02 2.314093e-02 1.910901e-02 1.566479e-02 1.273165e-02 1.024427e-02 8.140827e-03 
9.372258e-03 7.148663e-03 5.297397e-03 3.761811e-03 2.503100e-03 1.477398e-03 6.592484e-04 1.463172e-05 -4.717152e-04 -8.263610e-04 -1.057117e-03 -1.184920e-03 -1.212453e-03 -1.156341e-03 -1.016103e-03 -8.050361e-04 -5.212190e-04 -1.754808e-04 2.339198e-04 6.976459e-04 1.215591e-03 1.778589e-03 2.382841e-03 3.017506e-03 3.672981e-03 4.334282e-03 4.983618e-03 5.598794e-03 6.151286e-03 6.608215e-03 6.927871e-03 7.063220e-03 6.957441e-03 6.546511e-03 5.757755e-03 4.508860e-03 2.712562e-03 2.696259e-04 -2.917542e-03 -6.959793e-03 -1.195678e-02 -1.802050e-02 -2.523958e-02 -3.371069e-02 -4.349325e-02 -5.464618e-02 -6.717720e-02 -8.108065e-02 -9.628811e-02 -1.127016e-01 -1.301545e-01 -1.484338e-01 -1.672606e-01 -1.862963e-01 -2.051504e-01 -2.233675e-01 -2.404649e-01 -2.559023e-01 -2.691443e-01 -2.796182e-01 -2.867891e-01 -2.901180e-01 -2.891296e-01 -2.833848e-01 -2.725240e-01 -2.562685e-01 -2.344254e-01 -2.069296e-01 -1.738090e-01 -1.352683e-01 -9.162190e-02 -4.340920e-02 8.692067e-03 6.374854e-02 1.206674e-01 1.781210e-01 2.346492e-01 2.886732e-01 3.385962e-01 3.829257e-01 4.203434e-01 4.498918e-01 4.709617e-01 4.834494e-01 4.876401e-01 4.842859e-01 4.744720e-01 4.596804e-01 4.417443e-01 4.228999e-01 4.056565e-01 3.926076e-01 3.859721e-01 3.872751e-01 3.969147e-01 4.142039e-01 4.373386e-01 4.637685e-01 4.903952e-01 5.139387e-01 5.310310e-01 5.384986e-01 5.337914e-01 5.157599e-01 4.854714e-01 4.461921e-01 4.021782e-01 3.572954e-01 3.142593e-01 2.745949e-01 2.388856e-01 2.071691e-01 1.791792e-01 1.545645e-01 1.329472e-01 1.139931e-01 9.739610e-02 8.289739e-02 7.026158e-02 5.928443e-02 4.977751e-02 4.157294e-02 3.451625e-02 2.846789e-02 2.330224e-02 1.890475e-02 1.517598e-02 1.202379e-02 
1.213977e-02 9.180341e-03 6.717908e-03 4.675488e-03 3.003315e-03 1.641380e-03 5.580133e-04 -2.938549e-04 -9.321064e-04 -1.394101e-03 -1.687677e-03 -1.842866e-03 -1.860635e-03 -1.765354e-03 -1.553813e-03 -1.245900e-03 -8.365972e-04 -3.423226e-04 2.415184e-04 9.007898e-04 1.637371e-03 2.437716e-03 3.298452e-03 4.204173e-03 5.143345e-03 6.095345e-03 7.037195e-03 7.938818e-03 8.762266e-03 9.463158e-03 9.985149e-03 1.026463e-02 1.022414e-02 9.776712e-03 8.822602e-03 7.249389e-03 4.936601e-03 1.747820e-03 -2.452524e-03 -7.818051e-03 -1.448832e-02 -2.262028e-02 -3.233971e-02 -4.378465e-02 -5.704216e-02 -7.220070e-02 -8.927748e-02 -1.082740e-01 -1.291035e-01 -1.516412e-01 -1.756646e-01 -2.008900e-01 -2.269383e-01 -2.533502e-01 -2.795895e-01 -3.050319e-01 -3.290106e-01 -3.507798e-01 -3.695968e-01 -3.846680e-01 -3.952505e-01 -4.005945e-01 -4.000394e-01 -3.929715e-01 -3.788881e-01 -3.573915e-01 -3.282024e-01 -2.912074e-01 -2.464182e-01 -1.940780e-01 -1.345787e-01 -6.861306e-02 2.930467e-03 7.880809e-02 1.575343e-01 2.372804e-01 3.159919e-01 3.914250e-01 4.612613e-01 5.233239e-01 5.756508e-01 6.168259e-01 6.459282e-01 6.628050e-01 6.678520e-01 6.621189e-01 6.470748e-01 6.246987e-01 5.974781e-01 5.685776e-01 5.417457e-01 5.210467e-01 5.100570e-01 5.112849e-01 5.253884e-01 5.512993e-01 5.862484e-01 6.263582e-01 6.670720e-01 7.036993e-01 7.313351e-01 7.450319e-01 7.403087e-01 7.145663e-01 6.693052e-01 6.105279e-01 5.458223e-01 4.814405e-01 4.211836e-01 3.667489e-01 3.184424e-01 2.759200e-01 2.385680e-01 2.057761e-01 1.769798e-01 1.517142e-01 1.295743e-01 1.102214e-01 9.335041e-02 7.869299e-02 6.600172e-02 5.505227e-02 4.563931e-02 3.757452e-02 3.069028e-02 2.483152e-02 1.986596e-02 1.566879e-02 
1.458819e-02 1.089775e-02 7.826815e-03 5.281406e-03 3.197805e-03 1.503626e-03 1.577832e-04 -8.957774e-04 -1.681023e-03 -2.241853e-03 -2.589827e-03 -2.759753e-03 -2.754708e-03 -2.602540e-03 -2.301108e-03 -1.872811e-03 -1.313117e-03 -6.402638e-04 1.500135e-04 1.042122e-03 2.037291e-03 3.120405e-03 4.286519e-03 5.517837e-03 6.799541e-03 8.106819e-03 9.410698e-03 1.067386e-02 1.184846e-02 1.287836e-02 1.369217e-02 1.420844e-02 1.432836e-02 1.393966e-02 1.291411e-02 1.110560e-02 8.357988e-03 4.492811e-03 -6.673634e-04 -7.325048e-03 -1.566516e-02 -2.589687e-02 -3.819001e-02 -5.273203e-02 -6.964551e-02 -8.905643e-02 -1.109992e-01 -1.354894e-01 -1.624274e-01 -1.916656e-01 -2.229273e-01 -2.558562e-01 -2.899685e-01 -3.246751e-01 -3.592817e-01 -3.929777e-01 -4.248922e-01 -4.540496e-01 -4.794748e-01 -5.001259e-01 -5.150248e-01 -5.231863e-01 -5.237390e-01 -5.158747e-01 -4.989252e-01 -4.723581e-01 -4.357854e-01 -3.890283e-01 -3.320555e-01 -2.651255e-01 -1.886744e-01 -1.035236e-01 -1.074301e-02 8.811812e-02 1.911773e-01 2.960491e-01 4.000090e-01 4.999981e-01 5.928175e-01 6.753852e-01 7.449176e-01 7.993621e-01 8.374149e-01 8.588585e-01 8.642686e-01 8.550624e-01 8.331049e-01 8.008031e-01 7.612030e-01 7.184617e-01 6.779683e-01 6.459720e-01 6.282001e-01 6.287198e-01 6.485685e-01 6.860078e-01 7.369075e-01 7.954342e-01 8.551629e-01 9.099470e-01 9.532356e-01 9.777235e-01 9.756019e-01 9.405688e-01 8.741596e-01 7.880506e-01 6.960919e-01 6.080215e-01 5.284294e-01 4.584341e-01 3.973986e-01 3.441781e-01 2.976030e-01 2.567294e-01 2.207944e-01 1.892180e-01 1.615127e-01 1.372761e-01 1.161411e-01 9.778151e-02 8.189039e-02 6.818864e-02 5.641645e-02 4.633744e-02 3.773811e-02 3.042406e-02 2.422671e-02 1.899064e-02 
1.661034e-02 1.219479e-02 8.522638e-03 5.479240e-03 2.991641e-03 9.709820e-04 -6.279746e-04 -1.874910e-03 -2.794198e-03 -3.441436e-03 -3.825962e-03 -3.992891e-03 -3.941365e-03 -3.708383e-03 -3.286917e-03 -2.707398e-03 -1.960112e-03 -1.070200e-03 -2.852910e-05 1.143459e-03 2.450895e-03 3.873572e-03 5.408721e-03 7.033576e-03 8.732858e-03 1.047586e-02 1.222941e-02 1.394793e-02 1.557433e-02 1.704010e-02 1.825820e-02 1.912871e-02 1.952952e-02 1.932187e-02 1.834573e-02 1.641904e-02 1.334511e-02 8.899563e-03 2.856766e-03 -5.040721e-03 -1.503090e-02 -2.738360e-02 -4.232153e-02 -6.009235e-02 -8.086334e-02 -1.048105e-01 -1.319937e-01 -1.624549e-01 -1.960874e-01 -2.327304e-01 -2.720529e-01 -3.136298e-01 -3.568641e-01 -4.010303e-01 -4.452577e-01 -4.885307e-01 -5.297455e-01 -5.676671e-01 -6.010529e-01 -6.285762e-01 -6.489895e-01 -6.610354e-01 -6.636042e-01 -6.556627e-01 -6.363580e-01 -6.049983e-01 -5.610709e-01 -5.043054e-01 -4.346043e-01 -3.522042e-01 -2.575469e-01 -1.515326e-01 -3.536950e-02 8.912691e-02 2.196816e-01 3.533266e-01 4.865602e-01 6.153558e-01 7.353685e-01 8.423431e-01 9.323304e-01 1.002421e+00 1.050742e+00 1.077057e+00 1.082232e+00 1.068245e+00 1.037388e+00 9.922931e-01 9.361980e-01 8.741117e-01 8.135969e-01 7.644104e-01 7.358332e-01 7.346313e-01 7.622195e-01 8.154771e-01 8.884989e-01 9.720845e-01 1.057300e+00 1.137023e+00 1.203535e+00 1.246784e+00 1.253659e+00 1.207736e+00 1.108294e+00 9.806730e-01 8.513173e-01 7.344490e-01 6.338532e-01 5.482950e-01 4.750519e-01 4.116450e-01 3.561844e-01 3.073914e-01 2.643607e-01 2.264489e-01 1.931286e-01 1.639550e-01 1.385130e-01 1.164201e-01 9.731205e-02 8.085003e-02 6.671963e-02 5.463097e-02 4.432527e-02 3.556427e-02 2.814500e-02 2.187769e-02 
1.809941e-02 1.296585e-02 8.695644e-03 5.158896e-03 2.268974e-03 -7.339868e-05 -1.922522e-03 -3.355180e-03 -4.401597e-03 -5.122252e-03 -5.530161e-03 -5.673831e-03 -5.554634e-03 -5.211898e-03 -4.639870e-03 -3.870487e-03 -2.894690e-03 -1.738475e-03 -3.930491e-04 1.119693e-03 2.804475e-03 4.640581e-03 6.624170e-03 8.731137e-03 1.094356e-02 1.322740e-02 1.554399e-02 1.784086e-02 2.005102e-02 2.209355e-02 2.386525e-02 2.524618e-02 2.608997e-02 2.622816e-02 2.546680e-02 2.358280e-02 2.033510e-02 1.544624e-02 8.636237e-03 -4.166058e-04 -1.201216e-02 -2.649242e-02 -4.414435e-02 -6.528901e-02 -9.015174e-02 -1.189723e-01 -1.518501e-01 -1.888657e-01 -2.299169e-01 -2.748374e-01 -3.232473e-01 -3.746514e-01 -4.283346e-01 -4.834211e-01 -5.388441e-01 -5.933542e-01 -6.455813e-01 -6.939892e-01 -7.370244e-01 -7.730292e-01 -8.004417e-01 -8.176926e-01 -8.233961e-01 -8.162677e-01 -7.952426e-01 -7.594544e-01 -7.082425e-01 -6.412271e-01 -5.582095e-01 -4.593654e-01 -3.450811e-01 -2.162679e-01 -7.419043e-02 7.913494e-02 2.410925e-01 4.081050e-01 5.758114e-01 7.389800e-01 8.918160e-01 1.028421e+00 1.143246e+00 1.232076e+00 1.292287e+00 1.323652e+00 1.327692e+00 1.307355e+00 1.265544e+00 1.204665e+00 1.127114e+00 1.037886e+00 9.474037e-01 8.714041e-01 8.252831e-01 8.208744e-01 8.596972e-01 9.349029e-01 1.039672e+00 1.157549e+00 1.275817e+00 1.388558e+00 1.488791e+00 1.564218e+00 1.596777e+00 1.540644e+00 1.382539e+00 1.186494e+00 1.004980e+00 8.548392e-01 7.337618e-01 6.345392e-01 5.507757e-01 4.782504e-01 4.144283e-01 3.578866e-01 3.077432e-01 2.634042e-01 2.243620e-01 1.901613e-01 1.603457e-01 1.344797e-01 1.121339e-01 9.290754e-02 7.642310e-02 6.233629e-02 5.033631e-02 4.014247e-02 3.151229e-02 2.422481e-02 
1.891182e-02 1.306785e-02 8.208450e-03 4.183522e-03 8.999376e-04 -1.757814e-03 -3.845121e-03 -5.452686e-03 -6.608000e-03 -7.384166e-03 -7.788892e-03 -7.882482e-03 -7.659415e-03 -7.170022e-03 -6.400841e-03 -5.393793e-03 -4.131919e-03 -2.649879e-03 -9.313588e-04 9.945650e-04 3.139134e-03 5.475754e-03 8.005306e-03 1.069844e-02 1.353910e-02 1.648737e-02 1.950218e-02 2.252271e-02 2.547355e-02 2.826056e-02 3.076412e-02 3.284347e-02 3.432581e-02 3.501142e-02 3.466819e-02 3.302881e-02 2.980141e-02 2.464976e-02 1.723071e-02 7.149337e-03 -5.967334e-03 -2.254629e-02 -4.295216e-02 -6.759627e-02 -9.677688e-02 -1.308177e-01 -1.698720e-01 -2.140804e-01 -2.633563e-01 -3.175460e-01 -3.762243e-01 -4.388347e-01 -5.045337e-01 -5.722878e-01 -6.408062e-01 -7.085769e-01 -7.739165e-01 -8.349388e-01 -8.897208e-01 -9.362137e-01 -9.724847e-01 -9.965968e-01 -1.006849e+00 -1.001667e+00 -9.797566e-01 -9.400576e-01 -8.817558e-01 -8.043431e-01 -7.074981e-01 -5.912883e-01 -4.559753e-01 -3.023815e-01 -1.317036e-01 5.397640e-02 2.518158e-01 4.576913e-01 6.663150e-01 8.710488e-01 1.064193e+00 1.237630e+00 1.383406e+00 1.495370e+00 1.569623e+00 1.606109e+00 1.607587e+00 1.579070e+00 1.524679e+00 1.445931e+00 1.341846e+00 1.214611e+00 1.077887e+00 9.590292e-01 8.834376e-01 8.743127e-01 9.316248e-01 1.035792e+00 1.189306e+00 1.354481e+00 1.512260e+00 1.665438e+00 1.812351e+00 1.938555e+00 2.043214e+00 1.990304e+00 1.709147e+00 1.391527e+00 1.140318e+00 9.583323e-01 8.230780e-01 7.155555e-01 6.245097e-01 5.443997e-01 4.727286e-01 4.084449e-01 3.510041e-01 3.000167e-01 2.550666e-01 2.157038e-01 1.814326e-01 1.517501e-01 1.261539e-01 1.041675e-01 8.534559e-02 6.928012e-02 5.560813e-02 4.400028e-02 3.417744e-02 2.588277e-02 
1.891094e-02 1.236436e-02 6.917120e-03 2.406930e-03 -1.271667e-03 -4.241543e-03 -6.565947e-03 -8.339987e-03 -9.596162e-03 -1.041028e-02 -1.079332e-02 -1.080732e-02 -1.044894e-02 -9.769617e-03 -8.757333e-03 -7.454503e-03 -5.845007e-03 -3.963354e-03 -1.793517e-03 6.361552e-04 3.336964e-03 6.283258e-03 9.475784e-03 1.288551e-02 1.649502e-02 2.026269e-02 2.414325e-02 2.807008e-02 3.195854e-02 3.570203e-02 3.916400e-02 4.218159e-02 4.455446e-02 4.604805e-02 4.638945e-02 4.526093e-02 4.231457e-02 3.714618e-02 2.934080e-02 1.841771e-02 3.918041e-03 -1.468634e-02 -3.785489e-02 -6.610875e-02 -9.984004e-02 -1.394783e-01 -1.852536e-01 -2.373881e-01 -2.958318e-01 -3.604598e-01 -4.308141e-01 -5.062809e-01 -5.858841e-01 -6.684153e-01 -7.523318e-01 -8.358150e-01 -9.168148e-01 -9.930263e-01 -1.062086e+00 -1.121477e+00 -1.168824e+00 -1.201762e+00 -1.218222e+00 -1.216314e+00 -1.194496e+00 -1.151513e+00 -1.086397e+00 -9.985150e-01 -8.874038e-01 -7.529778e-01 -5.952882e-01 -4.149290e-01 -2.128448e-01 9.039945e-03 2.478822e-01 4.991648e-01 7.567149e-01 1.012240e+00 1.255645e+00 1.475650e+00 1.660803e+00 1.801735e+00 1.892509e+00 1.933200e+00 1.929162e+00 1.889756e+00 1.822478e+00 1.727320e+00 1.594509e+00 1.414738e+00 1.203560e+00 1.015195e+00 8.865285e-01 8.723722e-01 9.684581e-01 1.099469e+00 1.339862e+00 1.571752e+00 1.766892e+00 1.962860e+00 2.171862e+00 2.350659e+00 2.664762e+00 2.686366e+00 2.089656e+00 1.546428e+00 1.221822e+00 1.029352e+00 8.977886e-01 7.919575e-01 6.979782e-01 6.115934e-01 5.320455e-01 4.595454e-01 3.942844e-01 3.362259e-01 2.850721e-01 2.403671e-01 2.015443e-01 1.680105e-01 1.391643e-01 1.144412e-01 9.331287e-02 7.530419e-02 5.999118e-02 4.699797e-02 3.600290e-02 2.671830e-02 
1.790101e-02 1.065819e-02 4.630215e-03 -3.634682e-04 -4.430367e-03 -7.708370e-03 -1.025726e-02 -1.218593e-02 -1.351972e-02 -1.434806e-02 -1.467247e-02 -1.456876e-02 -1.402288e-02 -1.309988e-02 -1.177650e-02 -1.010795e-02 -8.066863e-03 -5.698928e-03 -2.977283e-03 6.072501e-05 3.436317e-03 7.117082e-03 1.111202e-02 1.538690e-02 1.992966e-02 2.469352e-02 2.963390e-02 3.467658e-02 3.973058e-02 4.467602e-02 4.936008e-02 5.359703e-02 5.715727e-02 5.976958e-02 6.111574e-02 6.082363e-02 5.848166e-02 5.361023e-02 4.571145e-02 3.420664e-02 1.853611e-02 -1.947426e-03 -2.781718e-02 -5.972864e-02 -9.819023e-02 -1.437680e-01 -1.967931e-01 -2.576036e-01 -3.262079e-01 -4.025424e-01 -4.861286e-01 -5.763147e-01 -6.719850e-01 -7.717500e-01 -8.737766e-01 -9.758968e-01 -1.075620e+00 -1.170142e+00 -1.256561e+00 -1.331792e+00 -1.392924e+00 -1.437075e+00 -1.461759e+00 -1.464724e+00 -1.444182e+00 -1.398696e+00 -1.327178e+00 -1.228898e+00 -1.103268e+00 -9.500260e-01 -7.689267e-01 -5.601765e-01 -3.242046e-01 -6.243869e-02 2.226832e-01 5.266263e-01 8.425665e-01 1.160499e+00 1.467354e+00 1.747567e+00 1.984314e+00 2.162982e+00 2.273591e+00 2.316028e+00 2.300026e+00 2.244372e+00 2.165827e+00 2.064845e+00 1.912297e+00 1.663223e+00 1.321319e+00 1.024141e+00 7.867303e-01 7.722216e-01 9.831084e-01 1.066282e+00 1.512236e+00 1.839485e+00 2.034914e+00 2.262262e+00 2.577585e+00 2.644827e+00 3.598165e+00 4.022928e+00 2.437887e+00 1.501577e+00 1.188885e+00 1.055752e+00 9.616289e-01 8.698633e-01 7.757828e-01 6.825029e-01 5.936239e-01 5.115593e-01 4.374878e-01 3.717136e-01 3.139824e-01 2.637453e-01 2.203013e-01 1.829150e-01 1.508573e-01 1.234504e-01 1.000740e-01 8.017455e-02 6.326759e-02 4.892459e-02 3.678643e-02 2.653008e-02 
1.570798e-02 7.772566e-03 1.157885e-03 -4.323534e-03 -8.788412e-03 -1.237727e-02 -1.515530e-02 -1.723193e-02 -1.863589e-02 -1.945646e-02 -1.969763e-02 -1.943501e-02 -1.865674e-02 -1.742771e-02 -1.572658e-02 -1.360816e-02 -1.104649e-02 -8.086153e-03 -4.700801e-03 -9.256838e-04 3.260970e-03 7.829692e-03 1.279074e-02 1.811283e-02 2.378474e-02 2.976091e-02 3.599513e-02 4.241004e-02 4.890751e-02 5.535666e-02 6.158817e-02 6.739322e-02 7.251200e-02 7.663353e-02 7.939134e-02 8.035228e-02 7.903474e-02 7.487300e-02 6.727499e-02 5.554853e-02 3.901575e-02 1.688904e-02 -1.154288e-02 -4.709716e-02 -9.042985e-02 -1.422765e-01 -2.031059e-01 -2.734081e-01 -3.532868e-01 -4.427720e-01 -5.413920e-01 -6.484740e-01 -7.627655e-01 -8.826798e-01 -1.006056e+00 -1.130313e+00 -1.252432e+00 -1.369000e+00 -1.476451e+00 -1.571001e+00 -1.649084e+00 -1.707202e+00 -1.742381e+00 -1.751988e+00 -1.733995e+00 -1.686838e+00 -1.609377e+00 -1.500861e+00 -1.360636e+00 -1.188268e+00 -9.831548e-01 -7.449076e-01 -4.731172e-01 -1.681885e-01 1.684749e-01 5.330164e-01 9.185432e-01 1.313510e+00 1.701442e+00 2.060933e+00 2.367211e+00 2.596641e+00 2.731491e+00 2.769272e+00 2.726538e+00 2.640711e+00 2.553272e+00 2.477113e+00 2.350484e+00 2.025956e+00 1.412368e+00 9.872292e-01 4.743125e-01 4.706841e-01 1.223296e+00 1.046378e+00 1.017061e+00 1.817869e+00 1.682898e+00 1.287149e+00 1.319025e+00 8.579810e-01 1.980121e+00 2.327564e+00 9.695816e-01 8.559448e-01 9.968111e-01 1.061747e+00 1.039946e+00 9.651397e-01 8.661402e-01 7.607736e-01 6.587063e-01 5.645880e-01 4.802313e-01 4.059422e-01 3.412485e-01 2.853414e-01 2.372721e-01 1.961000e-01 1.609236e-01 1.309337e-01 1.054006e-01 8.369082e-02 6.525183e-02 4.960785e-02 3.635765e-02 2.515116e-02 
1.206489e-02 3.434566e-03 -3.768933e-03 -9.746931e-03 -1.461123e-02 -1.851470e-02 -2.151242e-02 -2.372690e-02 -2.517354e-02 -2.595647e-02 -2.606469e-02 -2.559049e-02 -2.450641e-02 -2.289494e-02 -2.071928e-02 -1.805131e-02 -1.484993e-02 -1.117472e-02 -6.984660e-03 -2.326614e-03 2.835264e-03 8.463722e-03 1.458193e-02 2.115405e-02 2.817935e-02 3.560899e-02 4.340263e-02 5.147770e-02 5.973410e-02 6.802931e-02 7.618013e-02 8.395423e-02 9.106124e-02 9.714879e-02 1.017983e-01 1.045113e-01 1.047280e-01 1.017878e-01 9.499155e-02 8.351834e-02 6.655352e-02 4.314552e-02 1.241977e-02 -2.663632e-02 -7.485895e-02 -1.331980e-01 -2.022987e-01 -2.828572e-01 -3.751137e-01 -4.792477e-01 -5.948269e-01 -7.211999e-01 -8.569818e-01 -1.000393e+00 -1.148897e+00 -1.299437e+00 -1.448352e+00 -1.591479e+00 -1.724424e+00 -1.842520e+00 -1.941382e+00 -2.016750e+00 -2.065082e+00 -2.083325e+00 -2.069261e+00 -2.021279e+00 -1.938330e+00 -1.819792e+00 -1.665088e+00 -1.473707e+00 -1.244680e+00 -9.768722e-01 -6.686288e-01 -3.186811e-01 7.359028e-02 5.061676e-01 9.733287e-01 1.462852e+00 1.954927e+00 2.420863e+00 2.824316e+00 3.126683e+00 3.294541e+00 3.316519e+00 3.215474e+00 3.062077e+00 2.956564e+00 2.970163e+00 3.018346e+00 2.709018e+00 1.336203e+00 1.134335e+00 2.062186e+00 1.182406e+00 -3.963915e-01 4.500557e-02 -4.074385e-01 -1.912908e+00 -2.437041e+00 -3.188519e+00 -3.560216e+00 -3.777654e+00 -3.957073e+00 -3.942153e+00 -2.218643e+00 1.994440e-02 9.031280e-01 1.175309e+00 1.189818e+00 1.101046e+00 9.773052e-01 8.483944e-01 7.268895e-01 6.174695e-01 5.212526e-01 4.377762e-01 3.659235e-01 3.043845e-01 2.518351e-01 2.070562e-01 1.689409e-01 1.365269e-01 1.089718e-01 8.555616e-02 6.566571e-02 4.877505e-02 3.445039e-02 2.231201e-02 
6.754225e-03 -2.582569e-03 -1.039918e-02 -1.689538e-02 -2.218658e-02 -2.642123e-02 -2.965570e-02 -3.200753e-02 -3.349299e-02 -3.421222e-02 -3.415575e-02 -3.341343e-02 -3.196037e-02 -2.987790e-02 -2.713244e-02 -2.379505e-02 -1.982764e-02 -1.528808e-02 -1.013697e-02 -4.417651e-03 1.906369e-03 8.803485e-03 1.629988e-02 2.436670e-02 3.300748e-02 4.217968e-02 5.184588e-02 6.192568e-02 7.231645e-02 8.286893e-02 9.338648e-02 1.036153e-01 1.132343e-01 1.218482e-01 1.289837e-01 1.340711e-01 1.364656e-01 1.354006e-01 1.300564e-01 1.194655e-01 1.026545e-01 7.848206e-02 4.587757e-02 3.596892e-03 -4.942099e-02 -1.143881e-01 -1.921827e-01 -2.837653e-01 -3.895760e-01 -5.100058e-01 -6.447188e-01 -7.931311e-01 -9.537509e-01 -1.124603e+00 -1.302733e+00 -1.484518e+00 -1.665517e+00 -1.840625e+00 -2.004396e+00 -2.151034e+00 -2.275117e+00 -2.371438e+00 -2.435788e+00 -2.464682e+00 -2.455787e+00 -2.407615e+00 -2.319421e+00 -2.190961e+00 -2.021992e+00 -1.812120e+00 -1.560146e+00 -1.264056e+00 -9.205928e-01 -5.258987e-01 -7.601831e-02 4.307763e-01 9.920307e-01 1.596831e+00 2.223151e+00 2.834121e+00 3.377686e+00 3.791248e+00 4.011423e+00 4.001122e+00 3.778671e+00 3.462245e+00 3.272777e+00 3.466654e+00 4.092400e+00 4.573983e+00 -4.592475e-01 -4.202655e+00 -2.298339e+00 -1.898666e+00 -2.794566e+00 -5.124552e+00 -5.418587e+00 -5.648206e+00 -5.607924e+00 -5.143585e+00 -5.203084e+00 -4.549327e+00 -5.607152e+00 -5.166406e+00 -2.022034e+00 6.506827e-01 1.450036e+00 1.571751e+00 1.464139e+00 1.290213e+00 1.109427e+00 9.423290e-01 7.948754e-01 6.674447e-01 5.584250e-01 4.656323e-01 3.868366e-01 3.200095e-01 2.633415e-01 2.152912e-01 1.745230e-01 1.399206e-01 1.105263e-01 8.554426e-02 6.429906e-02 4.622775e-02 3.086343e-02 1.780978e-02 
-5.870894e-04 -1.065637e-02 -1.911132e-02 -2.615798e-02 -3.189646e-02 -3.648301e-02 -3.995437e-02 -4.243981e-02 -4.393378e-02 -4.455301e-02 -4.426582e-02 -4.318310e-02 -4.125853e-02 -3.859720e-02 -3.514537e-02 -3.099790e-02 -2.609760e-02 -2.052328e-02 -1.421689e-02 -7.237414e-03 4.703534e-04 8.865748e-03 1.799369e-02 2.782236e-02 3.837295e-02 4.960366e-02 6.149101e-02 7.395473e-02 8.689816e-02 1.001655e-01 1.135523e-01 1.267841e-01 1.395112e-01 1.512951e-01 1.616057e-01 1.697983e-01 1.751361e-01 1.767367e-01 1.736467e-01 1.647347e-01 1.488470e-01 1.246235e-01 9.076608e-02 4.575535e-02 -1.173948e-02 -8.325469e-02 -1.699618e-01 -2.731682e-01 -3.935873e-01 -5.319178e-01 -6.879939e-01 -8.613881e-01 -1.050543e+00 -1.253323e+00 -1.466311e+00 -1.685239e+00 -1.904700e+00 -2.118410e+00 -2.319552e+00 -2.500862e+00 -2.655550e+00 -2.777191e+00 -2.860770e+00 -2.902346e+00 -2.899621e+00 -2.851468e+00 -2.757795e+00 -2.619122e+00 -2.435950e+00 -2.208417e+00 -1.935394e+00 -1.614152e+00 -1.239533e+00 -8.042495e-01 -2.992340e-01 2.835908e-01 9.486015e-01 1.689980e+00 2.487103e+00 3.296267e+00 4.047077e+00 4.641666e+00 4.963810e+00 4.913601e+00 4.463907e+00 3.766356e+00 3.240857e+00 3.571456e+00 5.590068e+00 -5.926364e-02 -4.644136e+00 -3.062358e+00 -4.053424e+00 -8.701395e+00 -7.442462e+00 -4.185045e+00 -3.543290e+00 -1.406664e+00 -5.874967e-01 3.685690e-01 4.947045e-01 1.277262e+00 1.005607e+00 1.912698e+00 3.095973e+00 3.244273e+00 2.709652e+00 2.225200e+00 1.827421e+00 1.505598e+00 1.244438e+00 1.030948e+00 8.552105e-01 7.096841e-01 5.885684e-01 4.873695e-01 4.025136e-01 3.311687e-01 2.710223e-01 2.202129e-01 1.771934e-01 1.407065e-01 1.096988e-01 8.330803e-02 6.081500e-02 4.162447e-02 2.525240e-02 1.128660e-02 
-1.022532e-02 -2.107403e-02 -3.022900e-02 -3.788228e-02 -4.412886e-02 -4.911044e-02 -5.285878e-02 -5.549059e-02 -5.699747e-02 -5.748727e-02 -5.692880e-02 -5.542820e-02 -5.294314e-02 -4.957724e-02 -4.528320e-02 -4.015569e-02 -3.414439e-02 -2.732675e-02 -1.964950e-02 -1.116693e-02 -1.824334e-03 8.346769e-03 1.939605e-02 3.130482e-02 4.410339e-02 5.776464e-02 7.227544e-02 8.756725e-02 1.035495e-01 1.200688e-01 1.369149e-01 1.537983e-01 1.703426e-01 1.860676e-01 2.003854e-01 2.125732e-01 2.217953e-01 2.270447e-01 2.272191e-01 2.210053e-01 2.070437e-01 1.837265e-01 1.494870e-01 1.024860e-01 4.106283e-02 -3.670881e-02 -1.323772e-01 -2.476872e-01 -3.837320e-01 -5.416305e-01 -7.215018e-01 -9.231851e-01 -1.145139e+00 -1.385118e+00 -1.639216e+00 -1.902410e+00 -2.168108e+00 -2.428507e+00 -2.674995e+00 -2.898335e+00 -3.089922e+00 -3.241734e+00 -3.347780e+00 -3.403693e+00 -3.407434e+00 -3.358631e+00 -3.258319e+00 -3.108316e+00 -2.910482e+00 -2.666084e+00 -2.374798e+00 -2.033603e+00 -1.635642e+00 -1.169272e+00 -6.183527e-01 3.533528e-02 8.080528e-01 1.705621e+00 2.715662e+00 3.793820e+00 4.853128e+00 5.752443e+00 6.291841e+00 6.244844e+00 5.430817e+00 3.932059e+00 2.368923e+00 2.231394e+00 -4.086879e+00 -8.841441e+00 -3.703442e+00 -9.174614e+00 -1.075939e+01 -1.307133e+00 1.231819e+00 2.691027e+00 4.192923e+00 5.656107e+00 5.216972e+00 5.892716e+00 5.857899e+00 5.876839e+00 6.291640e+00 6.802590e+00 8.509809e+00 6.111433e+00 3.951538e+00 2.819971e+00 2.138204e+00 1.680454e+00 1.348972e+00 1.096618e+00 8.980856e-01 7.384801e-01 6.082268e-01 5.008215e-01 4.115504e-01 3.369242e-01 2.742277e-01 2.213550e-01 1.765994e-01 1.386052e-01 1.062501e-01 7.863289e-02 5.500380e-02 3.475572e-02 1.739253e-02 2.504372e-03 
-2.265445e-02 -3.435768e-02 -4.428384e-02 -5.261996e-02 -5.943106e-02 -6.485980e-02 -6.890504e-02 -7.169303e-02 -7.318196e-02 -7.349898e-02 -7.258128e-02 -7.056303e-02 -6.737360e-02 -6.315026e-02 -5.782093e-02 -5.151493e-02 -4.415965e-02 -3.586301e-02 -2.655006e-02 -1.629696e-02 -5.026017e-03 7.220446e-03 2.051748e-02 3.484660e-02 5.026521e-02 6.675440e-02 8.432690e-02 1.029246e-01 1.224761e-01 1.428324e-01 1.637875e-01 1.850403e-01 2.061940e-01 2.267287e-01 2.460009e-01 2.632075e-01 2.774104e-01 2.874691e-01 2.921213e-01 2.898541e-01 2.790799e-01 2.579116e-01 2.244778e-01 1.765677e-01 1.121330e-01 2.877687e-02 -7.551378e-02 -2.030407e-01 -3.554016e-01 -5.342966e-01 -7.402839e-01 -9.736490e-01 -1.233005e+00 -1.516116e+00 -1.818599e+00 -2.134600e+00 -2.456067e+00 -2.773250e+00 -3.075124e+00 -3.349752e+00 -3.586009e+00 -3.773690e+00 -3.905574e+00 -3.976905e+00 -3.986323e+00 -3.934778e+00 -3.825150e+00 -3.661265e+00 -3.447106e+00 -3.185998e+00 -2.879462e+00 -2.525440e+00 -2.116188e+00 -1.635631e+00 -1.058554e+00 -3.523644e-01 5.181617e-01 1.579871e+00 2.841162e+00 4.270706e+00 5.780216e+00 7.190108e+00 8.199718e+00 8.363382e+00 7.143508e+00 4.200890e+00 5.557432e-02 -3.455932e+00 -5.994173e+00 -4.810787e+00 -1.332877e+01 -9.778623e+00 1.742524e+00 6.822754e+00 7.264477e+00 7.859402e+00 7.918085e+00 6.730336e+00 6.806045e+00 5.484481e+00 5.523075e+00 4.506284e+00 4.631631e+00 4.524459e+00 8.266325e+00 6.340077e+00 4.194006e+00 2.992225e+00 2.248569e+00 1.749244e+00 1.391695e+00 1.123322e+00 9.148312e-01 7.488976e-01 6.144637e-01 5.041621e-01 4.127590e-01 3.364586e-01 2.723591e-01 2.182427e-01 1.723346e-01 1.332391e-01 9.981173e-02 7.113949e-02 4.647098e-02 2.520002e-02 6.840231e-03 -9.011775e-03 