# vtk DataFile Version 2.0
Comment goes here
ASCII

DATASET STRUCTURED_POINTS
DIMENSIONS    128   128   1

ORIGIN    0.000   0.000   0.000
SPACING   0.0156250.015625   1.000

POINT_DATA   16384
SCALARS Omega double
LOOKUP_TABLE default

-5.543222e-09 -3.341414e-09 -2.234720e-09 -1.227641e-09 -9.332910e-10 -4.158770e-10 -4.565865e-10 -1.241173e-10 -2.941543e-10 -2.720376e-11 -2.397181e-10 1.550745e-12 -2.148185e-10 8.343862e-12 -1.914443e-10 9.019798e-12 -1.607188e-10 8.283805e-12 -1.211221e-10 6.963192e-12 -7.436406e-11 4.611002e-12 -2.383444e-11 3.424148e-13 2.592051e-11 -6.558678e-12 6.961505e-11 -1.640531e-11 1.014595e-10 -2.925056e-11 1.148195e-10 -4.609794e-11 1.005250e-10 -7.285397e-11 4.190100e-11 -1.293625e-10 -9.745215e-11 -2.689440e-10 -3.988620e-10 -6.151241e-10 -1.035031e-09 -1.423039e-09 -2.344586e-09 -3.170013e-09 -4.935182e-09 -6.666568e-09 -9.796458e-09 -1.315492e-08 -1.837436e-08 -2.432682e-08 -3.251868e-08 -4.215636e-08 -5.418809e-08 -6.843180e-08 -8.480266e-08 -1.039044e-07 -1.241991e-07 -1.470666e-07 -1.692559e-07 -1.926843e-07 -2.123532e-07 -2.302524e-07 -2.398044e-07 -2.424252e-07 -2.302126e-07 -2.032655e-07 -1.525689e-07 -7.623632e-08 3.563748e-08 1.871502e-07 3.884536e-07 6.450352e-07 9.655166e-07 1.354325e-06 1.815159e-06 2.347401e-06 2.945446e-06 3.599595e-06 4.291837e-06 5.002121e-06 5.701494e-06 6.363843e-06 6.957595e-06 7.461255e-06 7.855159e-06 8.137176e-06 8.315792e-06 8.420979e-06 8.498059e-06 8.608486e-06 8.821545e-06 9.202965e-06 9.803522e-06 1.064205e-05 1.169773e-05 1.290151e-05 1.414206e-05 1.527384e-05 1.613603e-05 1.657201e-05 1.645380e-05 1.570826e-05 1.434091e-05 1.245172e-05 1.022572e-05 7.895962e-06 5.688545e-06 3.772817e-06 2.240632e-06 1.108247e-06 3.385606e-07 -1.353727e-07 -3.884582e-07 -4.901202e-07 -4.971629e-07 -4.517825e-07 -3.830309e-07 -3.089047e-07 -2.397939e-07 -1.802868e-07 -1.320791e-07 -9.440434e-08 -6.620763e-08 -4.540552e-08 -3.075146e-08 -2.031064e-08 -1.339503e-08 -8.505138e-09 
1.187676e-05 7.557380e-06 4.771267e-06 2.956635e-06 1.823309e-06 1.082390e-06 6.400644e-07 3.368360e-07 1.695403e-07 3.740779e-08 -2.460125e-08 -9.049609e-08 -1.123872e-07 -1.503973e-07 -1.556637e-07 -1.786951e-07 -1.753832e-07 -1.875445e-07 -1.784836e-07 -1.813941e-07 -1.678585e-07 -1.628093e-07 -1.456392e-07 -1.341762e-07 -1.140157e-07 -9.802476e-08 -7.545737e-08 -5.740282e-08 -3.370606e-08 -1.796191e-08 2.152969e-09 4.880300e-09 5.634007e-09 -3.331094e-08 -9.686221e-08 -2.501671e-07 -4.896599e-07 -9.250871e-07 -1.586993e-06 -2.654040e-06 -4.226162e-06 -6.580289e-06 -9.928483e-06 -1.467036e-05 -2.116354e-05 -2.992835e-05 -4.146182e-05 -5.634549e-05 -7.513311e-05 -9.832193e-05 -1.263393e-04 -1.593640e-04 -1.974299e-04 -2.401194e-04 -2.867927e-04 -3.362040e-04 -3.868485e-04 -4.365467e-04 -4.828812e-04 -5.227475e-04 -5.528258e-04 -5.690389e-04 -5.669912e-04 -5.412596e-04 -4.857621e-04 -3.928996e-04 -2.539050e-04 -5.806272e-05 2.067767e-04 5.544421e-04 9.994754e-04 1.556323e-03 2.237725e-03 3.052679e-03 4.004423e-03 5.087854e-03 6.288069e-03 7.578914e-03 8.923540e-03 1.027602e-02 1.158483e-02 1.279812e-02 1.386931e-02 1.476425e-02 1.546665e-02 1.598418e-02 1.635167e-02 1.663335e-02 1.692127e-02 1.732960e-02 1.798277e-02 1.899799e-02 2.046277e-02 2.241371e-02 2.481744e-02 2.756412e-02 3.046940e-02 3.329115e-02 3.574949e-02 3.755103e-02 3.841544e-02 3.811562e-02 3.653414e-02 3.372520e-02 2.994286e-02 2.559536e-02 2.113170e-02 1.692763e-02 1.322479e-02 1.012806e-02 7.638060e-03 5.693651e-03 4.206804e-03 3.086606e-03 2.251103e-03 1.632468e-03 1.176874e-03 8.430368e-04 5.996337e-04 4.232004e-04 2.961526e-04 2.053611e-04 1.410401e-04 9.588517e-05 6.452074e-05 4.294419e-05 2.828878e-05 1.841850e-05 
2.403868e-05 1.528267e-05 9.655655e-06 5.978160e-06 3.704129e-06 2.204833e-06 1.333676e-06 7.228012e-07 4.102106e-07 1.466281e-07 4.709619e-08 -8.257400e-08 -1.027130e-07 -1.770134e-07 -1.668543e-07 -2.125908e-07 -1.896366e-07 -2.155713e-07 -1.863798e-07 -1.960411e-07 -1.636396e-07 -1.597628e-07 -1.259479e-07 -1.116974e-07 -7.751747e-08 -5.662124e-08 -2.258212e-08 3.061982e-10 3.282187e-08 4.953538e-08 7.266860e-08 6.231667e-08 4.551258e-08 -5.047224e-08 -1.997325e-07 -5.345696e-07 -1.053258e-06 -1.987510e-06 -3.408203e-06 -5.702678e-06 -9.091660e-06 -1.418618e-05 -2.145195e-05 -3.178139e-05 -4.596161e-05 -6.516548e-05 -9.049172e-05 -1.232634e-04 -1.647116e-04 -2.159842e-04 -2.780400e-04 -3.513241e-04 -4.359278e-04 -5.309642e-04 -6.350329e-04 -7.453925e-04 -8.587334e-04 -9.702404e-04 -1.074622e-03 -1.165064e-03 -1.234390e-03 -1.273776e-03 -1.273887e-03 -1.223187e-03 -1.108933e-03 -9.151245e-04 -6.234400e-04 -2.113060e-04 3.468355e-04 1.080329e-03 2.020086e-03 3.197096e-03 4.638778e-03 6.364781e-03 8.382345e-03 1.068085e-02 1.322820e-02 1.596791e-02 1.881973e-02 2.168354e-02 2.444650e-02 2.699497e-02 2.922635e-02 3.106489e-02 3.247301e-02 3.346437e-02 3.411059e-02 3.454685e-02 3.496959e-02 3.562619e-02 3.679064e-02 3.872608e-02 4.163465e-02 4.560969e-02 5.059160e-02 5.635263e-02 6.250127e-02 6.852174e-02 7.381936e-02 7.776811e-02 7.975649e-02 7.926448e-02 7.599117e-02 7.001748e-02 6.190546e-02 5.259801e-02 4.312174e-02 3.430208e-02 2.663403e-02 2.029966e-02 1.525989e-02 1.135658e-02 8.388617e-03 6.159681e-03 4.499050e-03 3.268797e-03 2.361293e-03 1.694787e-03 1.207618e-03 8.535936e-04 5.980992e-04 4.151429e-04 2.853334e-04 1.940716e-04 1.306358e-04 8.695061e-05 5.728110e-05 3.727891e-05 
3.681200e-05 2.341348e-05 1.477302e-05 9.149157e-06 5.638361e-06 3.345412e-06 1.977253e-06 1.040236e-06 5.236896e-07 1.157415e-07 -7.522692e-08 -2.787134e-07 -3.456681e-07 -4.631274e-07 -4.785978e-07 -5.497670e-07 -5.385861e-07 -5.760755e-07 -5.470130e-07 -5.557651e-07 -5.127714e-07 -4.966385e-07 -4.421840e-07 -4.055790e-07 -3.412028e-07 -2.891590e-07 -2.156674e-07 -1.544346e-07 -7.421535e-08 -1.574225e-08 5.777831e-08 7.995904e-08 9.461426e-08 -1.772340e-08 -2.205092e-07 -7.292315e-07 -1.557818e-06 -3.085489e-06 -5.463012e-06 -9.332896e-06 -1.511862e-05 -2.385074e-05 -3.639241e-05 -5.427398e-05 -7.893248e-05 -1.124110e-04 -1.567027e-04 -2.141490e-04 -2.869798e-04 -3.772701e-04 -4.867625e-04 -6.163307e-04 -7.661606e-04 -9.348003e-04 -1.119760e-03 -1.316332e-03 -1.518628e-03 -1.718342e-03 -1.906147e-03 -2.070401e-03 -2.198708e-03 -2.276315e-03 -2.287562e-03 -2.213630e-03 -2.033689e-03 -1.721974e-03 -1.248775e-03 -5.775839e-04 3.333661e-04 1.532229e-03 3.070303e-03 4.999396e-03 7.365941e-03 1.020369e-02 1.352584e-02 1.731529e-02 2.151836e-02 2.603896e-02 3.073989e-02 3.544868e-02 3.997056e-02 4.410844e-02 4.768405e-02 5.056420e-02 5.267990e-02 5.404723e-02 5.477832e-02 5.509193e-02 5.531340e-02 5.586251e-02 5.721681e-02 5.984854e-02 6.413543e-02 7.027394e-02 7.819558e-02 8.753705e-02 9.764772e-02 1.076682e-01 1.166192e-01 1.234688e-01 1.271750e-01 1.267757e-01 1.216147e-01 1.117005e-01 9.802201e-02 8.238407e-02 6.670782e-02 5.242653e-02 4.028925e-02 3.047249e-02 2.279849e-02 1.693291e-02 1.251092e-02 9.204219e-03 6.742490e-03 4.915457e-03 3.563077e-03 2.565640e-03 1.833350e-03 1.299005e-03 9.119422e-04 6.339436e-04 4.361937e-04 2.969276e-04 1.999660e-04 1.331530e-04 8.772218e-05 5.710767e-05 
5.036587e-05 3.199298e-05 2.019037e-05 1.248711e-05 7.726024e-06 4.592992e-06 2.772996e-06 1.499621e-06 8.479809e-07 2.994015e-07 9.245867e-08 -1.775034e-07 -2.188836e-07 -3.738507e-07 -3.518908e-07 -4.474450e-07 -3.985139e-07 -4.527010e-07 -3.904062e-07 -4.103799e-07 -3.408975e-07 -3.319779e-07 -2.586015e-07 -2.264951e-07 -1.502416e-07 -1.008537e-07 -2.037426e-08 3.984910e-08 1.254832e-07 1.835843e-07 2.613561e-07 2.742785e-07 2.750462e-07 1.026808e-07 -2.053031e-07 -9.577010e-07 -2.199115e-06 -4.500138e-06 -8.124909e-06 -1.407549e-05 -2.305585e-05 -3.671577e-05 -5.647501e-05 -8.483224e-05 -1.241525e-04 -1.778266e-04 -2.491515e-04 -3.420771e-04 -4.603220e-04 -6.074707e-04 -7.864744e-04 -9.989877e-04 -1.245414e-03 -1.523577e-03 -1.829460e-03 -2.155487e-03 -2.492050e-03 -2.825671e-03 -3.141237e-03 -3.420064e-03 -3.642516e-03 -3.785557e-03 -3.825283e-03 -3.733348e-03 -3.479024e-03 -3.024379e-03 -2.325994e-03 -1.330004e-03 2.547698e-05 1.812836e-03 4.109923e-03 6.996688e-03 1.054578e-02 1.481159e-02 1.981706e-02 2.553839e-02 3.189358e-02 3.873300e-02 4.583968e-02 5.293918e-02 5.971913e-02 6.586286e-02 7.108241e-02 7.516135e-02 7.798227e-02 7.955790e-02 8.004477e-02 7.976208e-02 7.919850e-02 7.900757e-02 7.996103e-02 8.285179e-02 8.834382e-02 9.682460e-02 1.082522e-01 1.220980e-01 1.373549e-01 1.526903e-01 1.666373e-01 1.776717e-01 1.841942e-01 1.845367e-01 1.773097e-01 1.621297e-01 1.406085e-01 1.161678e-01 9.228628e-02 7.124893e-02 5.397501e-02 4.042713e-02 3.009280e-02 2.232783e-02 1.653081e-02 1.221061e-02 8.989717e-03 6.588150e-03 4.799316e-03 3.470977e-03 2.489440e-03 1.769068e-03 1.244772e-03 8.667273e-04 5.970477e-04 4.066826e-04 2.739755e-04 1.824140e-04 1.201548e-04 7.816457e-05 
6.503902e-05 4.131421e-05 2.602893e-05 1.609846e-05 9.905267e-06 5.869879e-06 3.463409e-06 1.819361e-06 9.129939e-07 1.984177e-07 -1.359630e-07 -4.924594e-07 -6.089340e-07 -8.147543e-07 -8.402027e-07 -9.645450e-07 -9.423443e-07 -1.007066e-06 -9.526126e-07 -9.661913e-07 -8.863257e-07 -8.549641e-07 -7.532875e-07 -6.831055e-07 -5.600654e-07 -4.561754e-07 -3.082331e-07 -1.747198e-07 2.325345e-09 1.540437e-07 3.457970e-07 4.620148e-07 5.727274e-07 4.558820e-07 1.462270e-07 -7.881106e-07 -2.457974e-06 -5.680249e-06 -1.093044e-05 -1.968212e-05 -3.312488e-05 -5.374751e-05 -8.389424e-05 -1.274204e-04 -1.881981e-04 -2.715654e-04 -3.829144e-04 -5.285876e-04 -7.146927e-04 -9.471342e-04 -1.230821e-03 -1.568710e-03 -1.961609e-03 -2.406422e-03 -2.896791e-03 -3.421009e-03 -3.963680e-03 -4.503779e-03 -5.017271e-03 -5.475342e-03 -5.847526e-03 -6.099404e-03 -6.195472e-03 -6.095204e-03 -5.754999e-03 -5.122151e-03 -4.136046e-03 -2.721445e-03 -7.905966e-04 1.760332e-03 5.045084e-03 9.182446e-03 1.428284e-02 2.043164e-02 2.766886e-02 3.596462e-02 4.520032e-02 5.515179e-02 6.548881e-02 7.578803e-02 8.556509e-02 9.432604e-02 1.016224e-01 1.071155e-01 1.106178e-01 1.121313e-01 1.118615e-01 1.102433e-01 1.079670e-01 1.060007e-01 1.055502e-01 1.079126e-01 1.142248e-01 1.252250e-01 1.409676e-01 1.607167e-01 1.829286e-01 2.055454e-01 2.264848e-01 2.436844e-01 2.549258e-01 2.574263e-01 2.482970e-01 2.257551e-01 1.922718e-01 1.547384e-01 1.195433e-01 9.006821e-02 6.702775e-02 4.969404e-02 3.687170e-02 2.741650e-02 2.041251e-02 1.518865e-02 1.126870e-02 8.318282e-03 6.097998e-03 4.433225e-03 3.192623e-03 2.275813e-03 1.604883e-03 1.119171e-03 7.716379e-04 5.258735e-04 3.542973e-04 2.358857e-04 1.553102e-04 1.010174e-04 
8.076614e-05 5.120378e-05 3.224168e-05 1.989803e-05 1.227956e-05 7.281164e-06 4.380504e-06 2.356353e-06 1.321629e-06 4.507407e-07 1.237119e-07 -3.057702e-07 -3.695042e-07 -6.169353e-07 -5.793339e-07 -7.321394e-07 -6.506510e-07 -7.369157e-07 -6.329560e-07 -6.634738e-07 -5.463096e-07 -5.282704e-07 -4.013510e-07 -3.406359e-07 -2.009993e-07 -9.992499e-08 6.425946e-08 2.087588e-07 4.157861e-07 6.030042e-07 8.532026e-07 1.031349e-06 1.218853e-06 1.138237e-06 8.123007e-07 -3.378929e-07 -2.512415e-06 -6.866722e-06 -1.415716e-05 -2.655000e-05 -4.589982e-05 -7.596905e-05 -1.204087e-04 -1.851735e-04 -2.763267e-04 -4.022646e-04 -5.715048e-04 -7.942064e-04 -1.080136e-03 -1.438990e-03 -1.878792e-03 -2.404779e-03 -3.018604e-03 -3.716017e-03 -4.487337e-03 -5.314644e-03 -6.173941e-03 -7.032605e-03 -7.853287e-03 -8.591710e-03 -9.201629e-03 -9.631897e-03 -9.831162e-03 -9.742361e-03 -9.305916e-03 -8.450644e-03 -7.095466e-03 -5.138561e-03 -2.459930e-03 1.085531e-03 5.659748e-03 1.143618e-02 1.858026e-02 2.722572e-02 3.744284e-02 4.920092e-02 6.233587e-02 7.652244e-02 9.126818e-02 1.059327e-01 1.197742e-01 1.320343e-01 1.420238e-01 1.492277e-01 1.533597e-01 1.544090e-01 1.526340e-01 1.485913e-01 1.431929e-01 1.378115e-01 1.342942e-01 1.347485e-01 1.410849e-01 1.546916e-01 1.758480e-01 2.035787e-01 2.354732e-01 2.681659e-01 2.988473e-01 3.250071e-01 3.441416e-01 3.518009e-01 3.423059e-01 3.092634e-01 2.559155e-01 1.977357e-01 1.467095e-01 1.070764e-01 7.815363e-02 5.753351e-02 4.279888e-02 3.209970e-02 2.417223e-02 1.819740e-02 1.364473e-02 1.016201e-02 7.502176e-03 5.483034e-03 3.963783e-03 2.832841e-03 2.000960e-03 1.396551e-03 9.631624e-04 6.562499e-04 4.419154e-04 2.939533e-04 1.933592e-04 1.255839e-04 
9.783098e-05 6.199078e-05 3.895420e-05 2.403485e-05 1.474934e-05 8.717558e-06 5.125600e-06 2.676645e-06 1.327856e-06 2.634856e-07 -2.330176e-07 -7.656760e-07 -9.368356e-07 -1.244849e-06 -1.278342e-06 -1.463309e-06 -1.423206e-06 -1.517020e-06 -1.426189e-06 -1.440925e-06 -1.308985e-06 -1.252080e-06 -1.081591e-06 -9.568035e-07 -7.404393e-07 -5.427366e-07 -2.574868e-07 3.192319e-08 4.246458e-07 8.286084e-07 1.352539e-06 1.834090e-06 2.375713e-06 2.628364e-06 2.591469e-06 1.504981e-06 -9.902097e-07 -6.474586e-06 -1.617705e-05 -3.316877e-05 -6.038309e-05 -1.033141e-04 -1.676903e-04 -2.624212e-04 -3.970233e-04 -5.843278e-04 -8.377757e-04 -1.173216e-03 -1.606220e-03 -2.152311e-03 -2.824552e-03 -3.631914e-03 -4.577616e-03 -5.656052e-03 -6.852609e-03 -8.140330e-03 -9.481965e-03 -1.082766e-02 -1.211948e-02 -1.329033e-02 -1.427002e-02 -1.498368e-02 -1.535728e-02 -1.531237e-02 -1.476889e-02 -1.363409e-02 -1.180253e-02 -9.141142e-03 -5.489791e-03 -6.506177e-04 5.603311e-03 1.352182e-02 2.335133e-02 3.530086e-02 4.949439e-02 6.591264e-02 8.433992e-02 1.043151e-01 1.251166e-01 1.457842e-01 1.651922e-01 1.821801e-01 1.957002e-01 2.049833e-01 2.096241e-01 2.096164e-01 2.052918e-01 1.973038e-01 1.867401e-01 1.754214e-01 1.661427e-01 1.623564e-01 1.671721e-01 1.832367e-01 2.112464e-01 2.500886e-01 2.959606e-01 3.425386e-01 3.864488e-01 4.249265e-01 4.570475e-01 4.758344e-01 4.721591e-01 4.244643e-01 3.342671e-01 2.417662e-01 1.691297e-01 1.187524e-01 8.535248e-02 6.306686e-02 4.763162e-02 3.642485e-02 2.795352e-02 2.138613e-02 1.623974e-02 1.220820e-02 9.072135e-03 6.659475e-03 4.827209e-03 3.454941e-03 2.441679e-03 1.703995e-03 1.174516e-03 7.995937e-04 5.378447e-04 3.573806e-04 2.347710e-04 1.523363e-04 
1.157253e-04 7.312726e-05 4.588790e-05 2.822303e-05 1.734987e-05 1.023864e-05 6.122837e-06 3.252847e-06 1.792743e-06 5.562770e-07 9.928019e-08 -5.143544e-07 -5.976853e-07 -9.533679e-07 -8.911391e-07 -1.110641e-06 -9.836184e-07 -1.105539e-06 -9.436233e-07 -9.819070e-07 -7.964997e-07 -7.577470e-07 -5.480274e-07 -4.309588e-07 -1.780887e-07 3.621147e-08 3.807839e-07 7.409930e-07 1.262289e-06 1.842026e-06 2.629454e-06 3.449064e-06 4.435705e-06 5.175141e-06 5.652338e-06 4.885001e-06 2.336854e-06 -4.158239e-06 -1.641797e-05 -3.882186e-05 -7.573566e-05 -1.352178e-04 -2.258780e-04 -3.610723e-04 -5.552673e-04 -8.280658e-04 -1.200169e-03 -1.696261e-03 -2.340718e-03 -3.158333e-03 -4.170127e-03 -5.391366e-03 -6.828254e-03 -8.473771e-03 -1.030653e-02 -1.228621e-02 -1.435602e-02 -1.643980e-02 -1.844880e-02 -2.028102e-02 -2.183087e-02 -2.298827e-02 -2.364767e-02 -2.370161e-02 -2.304546e-02 -2.156144e-02 -1.911800e-02 -1.554669e-02 -1.064077e-02 -4.136207e-03 4.279198e-03 1.496156e-02 2.827575e-02 4.454882e-02 6.399923e-02 8.664814e-02 1.122313e-01 1.401153e-01 1.692591e-01 1.982369e-01 2.253414e-01 2.487967e-01 2.670031e-01 2.788290e-01 2.837447e-01 2.818392e-01 2.735884e-01 2.596815e-01 2.411342e-01 2.200532e-01 2.006174e-01 1.887580e-01 1.890687e-01 2.069825e-01 2.435378e-01 2.982605e-01 3.657295e-01 4.309449e-01 4.921951e-01 5.451323e-01 5.982402e-01 6.379241e-01 6.616530e-01 5.965888e-01 4.269435e-01 2.754224e-01 1.767323e-01 1.193815e-01 8.626927e-02 6.574758e-02 5.156840e-02 4.078854e-02 3.212672e-02 2.503432e-02 1.924319e-02 1.457660e-02 1.087983e-02 8.003725e-03 5.805537e-03 4.153757e-03 2.932698e-03 2.043762e-03 1.406379e-03 9.556494e-04 6.415879e-04 4.254191e-04 2.789102e-04 1.805527e-04 
1.346364e-04 8.500036e-05 5.321762e-05 3.271654e-05 1.999638e-05 1.175615e-05 6.861081e-06 3.521800e-06 1.688604e-06 2.311291e-07 -4.419502e-07 -1.177111e-06 -1.404164e-06 -1.830081e-06 -1.863812e-06 -2.115891e-06 -2.042768e-06 -2.163374e-06 -2.014464e-06 -2.018766e-06 -1.805076e-06 -1.698029e-06 -1.414171e-06 -1.185233e-06 -7.968433e-07 -4.014430e-07 1.774995e-07 8.424717e-07 1.769511e-06 2.871268e-06 4.346637e-06 6.024422e-06 8.085658e-06 1.006496e-05 1.191745e-05 1.242954e-05 1.077901e-05 4.112363e-06 -1.030028e-05 -3.849363e-05 -8.701139e-05 -1.673295e-04 -2.924095e-04 -4.817677e-04 -7.573588e-04 -1.148467e-03 -1.686861e-03 -2.410223e-03 -3.356550e-03 -4.564713e-03 -6.068382e-03 -7.892960e-03 -1.005001e-02 -1.253144e-02 -1.530635e-02 -1.831529e-02 -2.147206e-02 -2.466157e-02 -2.774792e-02 -3.057727e-02 -3.299037e-02 -3.482632e-02 -3.593428e-02 -3.616932e-02 -3.539685e-02 -3.347339e-02 -3.024146e-02 -2.549731e-02 -1.898253e-02 -1.035426e-02 8.099094e-04 1.501144e-02 3.278747e-02 5.464841e-02 8.097535e-02 1.118861e-01 1.470923e-01 1.857540e-01 2.263968e-01 2.669164e-01 3.047262e-01 3.370844e-01 3.615275e-01 3.763845e-01 3.810606e-01 3.760023e-01 3.621129e-01 3.400263e-01 3.099910e-01 2.734523e-01 2.364834e-01 2.108108e-01 2.005577e-01 2.192737e-01 2.655858e-01 3.428951e-01 4.488008e-01 5.362681e-01 6.210014e-01 6.815817e-01 7.708690e-01 8.352402e-01 9.600806e-01 8.919908e-01 5.158132e-01 2.666179e-01 1.507591e-01 1.019233e-01 7.970395e-02 6.642896e-02 5.581779e-02 4.618528e-02 3.737466e-02 2.956770e-02 2.290363e-02 1.740485e-02 1.299737e-02 9.551348e-03 6.914586e-03 4.935325e-03 3.475296e-03 2.415392e-03 1.657643e-03 1.123527e-03 7.524168e-04 4.978148e-04 3.256560e-04 2.104663e-04 
1.533623e-04 9.648206e-05 6.026822e-05 3.687981e-05 2.253970e-05 1.317858e-05 7.786932e-06 4.012341e-06 2.113705e-06 4.770598e-07 -1.050979e-07 -9.262712e-07 -1.014436e-06 -1.492645e-06 -1.383898e-06 -1.675485e-06 -1.475619e-06 -1.629693e-06 -1.377496e-06 -1.409630e-06 -1.115355e-06 -1.024754e-06 -6.710661e-07 -4.294103e-07 5.031452e-08 5.310050e-07 1.293219e-06 2.207981e-06 3.544837e-06 5.227908e-06 7.558256e-06 1.039239e-05 1.401878e-05 1.794198e-05 2.215749e-05 2.517932e-05 2.593160e-05 2.064646e-05 5.537783e-06 -2.773093e-05 -8.848426e-05 -1.930664e-04 -3.603085e-04 -6.186639e-04 -1.000578e-03 -1.549630e-03 -2.313589e-03 -3.349716e-03 -4.716324e-03 -6.474076e-03 -8.676322e-03 -1.136506e-02 -1.456147e-02 -1.825761e-02 -2.241027e-02 -2.693264e-02 -3.169580e-02 -3.652621e-02 -4.121772e-02 -4.553755e-02 -4.924655e-02 -5.210788e-02 -5.390664e-02 -5.444726e-02 -5.356135e-02 -5.108126e-02 -4.683131e-02 -4.057890e-02 -3.201720e-02 -2.071511e-02 -6.114557e-03 1.248047e-02 3.585371e-02 6.479709e-02 9.996713e-02 1.416854e-01 1.897105e-01 2.429893e-01 2.994836e-01 3.561225e-01 4.089782e-01 4.537708e-01 4.866051e-01 5.049491e-01 5.082688e-01 4.980522e-01 4.764833e-01 4.443333e-01 3.994461e-01 3.391935e-01 2.706721e-01 2.252090e-01 1.897519e-01 2.104879e-01 2.640921e-01 3.680375e-01 5.622837e-01 6.589012e-01 7.907779e-01 8.081445e-01 9.896434e-01 9.952403e-01 1.478114e+00 1.521325e+00 4.940393e-01 1.345209e-01 6.492051e-02 6.374186e-02 6.939478e-02 6.910810e-02 6.321275e-02 5.433722e-02 4.465686e-02 3.548663e-02 2.746535e-02 2.080196e-02 1.546638e-02 1.131229e-02 8.151237e-03 5.791993e-03 4.061485e-03 2.811767e-03 1.922713e-03 1.298757e-03 8.670466e-04 5.718937e-04 3.730655e-04 2.403709e-04 
1.720993e-04 1.081583e-04 6.739922e-05 4.120710e-05 2.501249e-05 1.452968e-05 8.322996e-06 4.064274e-06 1.742623e-06 -1.361258e-07 -9.828132e-07 -1.940627e-06 -2.209268e-06 -2.760394e-06 -2.767823e-06 -3.080396e-06 -2.937006e-06 -3.064551e-06 -2.810597e-06 -2.770072e-06 -2.413624e-06 -2.197638e-06 -1.706943e-06 -1.259701e-06 -5.236731e-07 3.148238e-07 1.558056e-06 3.137385e-06 5.391512e-06 8.330511e-06 1.237532e-05 1.749309e-05 2.411678e-05 3.182406e-05 4.066252e-05 4.896670e-05 5.529307e-05 5.491886e-05 4.254845e-05 7.080859e-06 -6.478202e-05 -1.956643e-04 -4.128347e-04 -7.568183e-04 -1.275302e-03 -2.031865e-03 -3.097873e-03 -4.558867e-03 -6.503746e-03 -9.025774e-03 -1.220895e-02 -1.612158e-02 -2.080157e-02 -2.624399e-02 -3.238985e-02 -3.911435e-02 -4.622605e-02 -5.346565e-02 -6.052096e-02 -6.704159e-02 -7.266731e-02 -7.705002e-02 -7.988173e-02 -8.090082e-02 -7.990097e-02 -7.670004e-02 -7.112097e-02 -6.292322e-02 -5.176616e-02 -3.713177e-02 -1.830237e-02 5.670585e-03 3.591715e-02 7.365488e-02 1.199935e-01 1.756477e-01 2.405780e-01 3.135740e-01 3.919132e-01 4.711746e-01 5.454044e-01 6.078212e-01 6.520649e-01 6.740264e-01 6.734206e-01 6.542469e-01 6.224041e-01 5.803064e-01 5.208610e-01 4.267052e-01 2.916345e-01 2.367480e-01 1.279373e-01 1.767400e-01 2.654012e-01 3.008028e-01 5.777688e-01 6.211626e-01 5.890224e-01 3.187539e-01 3.406374e-01 1.006674e-01 6.261599e-01 6.448250e-01 -4.363706e-01 -2.806287e-01 -8.426303e-02 2.392976e-02 7.032187e-02 8.251764e-02 7.827826e-02 6.742411e-02 5.495395e-02 4.319267e-02 3.306438e-02 2.479094e-02 1.826730e-02 1.325595e-02 9.486049e-03 6.699927e-03 4.673275e-03 3.220286e-03 2.192951e-03 1.475946e-03 9.821137e-04 6.460046e-04 4.203224e-04 2.703017e-04 
1.887289e-04 1.180840e-04 7.331375e-05 4.448415e-05 2.688599e-05 1.537992e-05 8.802259e-06 4.141399e-06 1.848807e-06 -1.970202e-07 -8.656665e-07 -1.901188e-06 -1.946435e-06 -2.540896e-06 -2.327012e-06 -2.670019e-06 -2.330933e-06 -2.483556e-06 -2.068343e-06 -2.045295e-06 -1.555217e-06 -1.332055e-06 -7.032644e-07 -1.759182e-07 7.840531e-07 1.890541e-06 3.622026e-06 5.902379e-06 9.262621e-06 1.380123e-05 2.019085e-05 2.856761e-05 3.968555e-05 5.328040e-05 6.968057e-05 8.707460e-05 1.038594e-04 1.141465e-04 1.110773e-04 7.992144e-05 2.565840e-06 -1.521516e-04 -4.224798e-04 -8.657739e-04 -1.550466e-03 -2.568668e-03 -4.025028e-03 -6.046439e-03 -8.766476e-03 -1.232761e-02 -1.686066e-02 -2.247599e-02 -2.924018e-02 -3.715757e-02 -4.615115e-02 -5.604411e-02 -6.655642e-02 -7.730227e-02 -8.781259e-02 -9.755893e-02 -1.059996e-01 -1.126186e-01 -1.169732e-01 -1.187113e-01 -1.175880e-01 -1.134255e-01 -1.060826e-01 -9.535345e-02 -8.090503e-02 -6.215442e-02 -3.821490e-02 -7.825398e-03 3.061652e-02 7.895466e-02 1.390283e-01 2.122653e-01 2.991420e-01 3.984953e-01 5.068852e-01 6.181079e-01 7.232002e-01 8.113094e-01 8.716339e-01 8.968055e-01 8.865927e-01 8.502773e-01 8.033664e-01 7.562786e-01 6.971365e-01 5.714147e-01 2.415981e-01 3.486146e-01 4.024442e-01 3.296314e-01 1.847607e-01 -1.977654e-01 -6.207553e-01 -1.322388e+00 -1.680453e+00 -1.982247e+00 -2.190596e+00 -2.300933e+00 -2.402678e+00 -2.523979e+00 -1.865359e+00 -6.672231e-01 -1.438349e-01 5.062991e-02 1.112938e-01 1.183248e-01 1.054753e-01 8.697309e-02 6.865249e-02 5.266546e-02 3.956414e-02 2.922568e-02 2.127843e-02 1.529034e-02 1.085330e-02 7.613360e-03 5.279619e-03 3.619861e-03 2.454285e-03 1.645366e-03 1.091019e-03 7.152373e-04 4.639408e-04 2.973443e-04 
2.038607e-04 1.273901e-04 7.882809e-05 4.767593e-05 2.846597e-05 1.598600e-05 8.623715e-06 3.500345e-06 7.459752e-07 -1.550321e-06 -2.526444e-06 -3.695767e-06 -3.942331e-06 -4.582068e-06 -4.476361e-06 -4.788040e-06 -4.470967e-06 -4.525158e-06 -4.051020e-06 -3.865934e-06 -3.230547e-06 -2.763919e-06 -1.865626e-06 -9.434172e-07 5.229069e-07 2.355675e-06 5.095787e-06 8.824617e-06 1.424086e-05 2.170044e-05 3.218115e-05 4.621205e-05 6.498451e-05 8.870532e-05 1.181180e-04 1.516367e-04 1.875153e-04 2.189418e-04 2.370524e-04 2.231078e-04 1.525684e-04 -1.624559e-05 -3.365809e-04 -8.877763e-04 -1.767194e-03 -3.105788e-03 -5.055667e-03 -7.802097e-03 -1.154412e-02 -1.649645e-02 -2.286131e-02 -3.081464e-02 -4.047124e-02 -5.185662e-02 -6.487499e-02 -7.928110e-02 -9.466921e-02 -1.104707e-01 -1.259825e-01 -1.404106e-01 -1.529379e-01 -1.627982e-01 -1.693489e-01 -1.721165e-01 -1.708196e-01 -1.653232e-01 -1.555856e-01 -1.415170e-01 -1.228698e-01 -9.905753e-02 -6.904209e-02 -3.120097e-02 1.668757e-02 7.736633e-02 1.538080e-01 2.486766e-01 3.635280e-01 4.977288e-01 6.473154e-01 8.039271e-01 9.543221e-01 1.081117e+00 1.165438e+00 1.192694e+00 1.160784e+00 1.088242e+00 1.012798e+00 9.707012e-01 9.655093e-01 9.534673e-01 -1.069884e-01 -6.432565e-01 -5.267649e-01 -1.168687e+00 -1.898330e+00 -2.891509e+00 -3.264295e+00 -3.187263e+00 -3.135970e+00 -2.853358e+00 -2.840784e+00 -2.562473e+00 -2.905316e+00 -2.919337e+00 -1.346026e+00 -2.434387e-01 1.273904e-01 2.177437e-01 2.136759e-01 1.815795e-01 1.450907e-01 1.121361e-01 8.483783e-02 6.318216e-02 4.644890e-02 3.375526e-02 2.426634e-02 1.726263e-02 1.215364e-02 8.468521e-03 5.839760e-03 3.985042e-03 2.690932e-03 1.797826e-03 1.188509e-03 7.772156e-04 5.029846e-04 3.218250e-04 
2.142350e-04 1.329755e-04 8.165029e-05 4.858289e-05 2.847260e-05 1.521466e-05 7.714435e-06 2.271019e-06 -2.946271e-07 -2.712138e-06 -3.354711e-06 -4.549528e-06 -4.408643e-06 -5.027297e-06 -4.537088e-06 -4.810062e-06 -4.148217e-06 -4.161282e-06 -3.396837e-06 -3.164171e-06 -2.275042e-06 -1.714230e-06 -5.232500e-07 6.554311e-07 2.643253e-06 5.170088e-06 9.080556e-06 1.453386e-05 2.262240e-05 3.399700e-05 5.022411e-05 7.238344e-05 1.025192e-04 1.415790e-04 1.913075e-04 2.506509e-04 3.183935e-04 3.868813e-04 4.456413e-04 4.711307e-04 4.316107e-04 2.719103e-04 -7.984651e-05 -7.323033e-04 -1.820835e-03 -3.529798e-03 -6.076327e-03 -9.728447e-03 -1.477854e-02 -2.154760e-02 -3.034476e-02 -4.144832e-02 -5.505307e-02 -7.122775e-02 -8.986374e-02 -1.106286e-01 -1.329444e-01 -1.559787e-01 -1.786855e-01 -1.998706e-01 -2.183011e-01 -2.328290e-01 -2.425142e-01 -2.467105e-01 -2.451090e-01 -2.376821e-01 -2.246002e-01 -2.060265e-01 -1.819450e-01 -1.518902e-01 -1.147506e-01 -6.853435e-02 -1.025362e-02 6.406558e-02 1.591037e-01 2.795578e-01 4.290455e-01 6.084419e-01 8.139918e-01 1.035193e+00 1.253231e+00 1.440746e+00 1.564497e+00 1.593832e+00 1.517088e+00 1.364595e+00 1.219657e+00 1.178286e+00 1.333613e+00 -1.723596e-01 -1.151795e+00 -1.509778e+00 -2.795546e+00 -4.198444e+00 -3.976516e+00 -2.514550e+00 -1.521135e+00 -5.157162e-01 -7.469507e-02 3.070465e-01 5.298827e-01 7.529200e-01 8.924466e-01 1.255956e+00 1.350944e+00 9.899461e-01 6.897687e-01 4.913650e-01 3.553985e-01 2.591407e-01 1.895213e-01 1.385307e-01 1.009655e-01 7.324813e-02 5.283011e-02 3.784528e-02 2.690678e-02 1.897432e-02 1.326499e-02 9.189665e-03 6.306580e-03 4.285972e-03 2.883876e-03 1.920590e-03 1.265979e-03 8.254551e-04 5.326547e-04 3.395632e-04 
2.215942e-04 1.370575e-04 8.342933e-05 4.891793e-05 2.762641e-05 1.362685e-05 5.392021e-06 -4.830505e-07 -3.549258e-06 -6.200760e-06 -7.160151e-06 -8.418248e-06 -8.422525e-06 -8.951344e-06 -8.451791e-06 -8.510263e-06 -7.711716e-06 -7.418081e-06 -6.412699e-06 -5.795965e-06 -4.553435e-06 -3.491438e-06 -1.746582e-06 2.121155e-07 3.215542e-06 7.215090e-06 1.321672e-05 2.174122e-05 3.427599e-05 5.210655e-05 7.754109e-05 1.127082e-04 1.608264e-04 2.243330e-04 3.064515e-04 4.076692e-04 5.277928e-04 6.593663e-04 7.903382e-04 8.926913e-04 9.259221e-04 8.193385e-04 4.770754e-04 -2.461400e-04 -1.536369e-03 -3.648230e-03 -6.888293e-03 -1.163820e-02 -1.832318e-02 -2.741680e-02 -3.938743e-02 -5.467002e-02 -7.358973e-02 -9.629757e-02 -1.226881e-01 -1.523256e-01 -1.843986e-01 -2.177014e-01 -2.506828e-01 -2.815518e-01 -3.084415e-01 -3.296244e-01 -3.437087e-01 -3.498057e-01 -3.475972e-01 -3.372738e-01 -3.193965e-01 -2.946062e-01 -2.633512e-01 -2.255129e-01 -1.800789e-01 -1.247722e-01 -5.574183e-02 3.259619e-02 1.473817e-01 2.965349e-01 4.872905e-01 7.238188e-01 1.004244e+00 1.316944e+00 1.636931e+00 1.923084e+00 2.118209e+00 2.157992e+00 1.997900e+00 1.671120e+00 1.351523e+00 1.263600e+00 -5.254828e-01 -2.290410e+00 -2.548643e+00 -5.125365e+00 -5.483302e+00 -1.761901e+00 6.812015e-01 1.947816e+00 2.667408e+00 3.023882e+00 3.134060e+00 3.189385e+00 3.271768e+00 3.238904e+00 3.400187e+00 4.071874e+00 3.711059e+00 2.099234e+00 1.175917e+00 7.226603e-01 4.732590e-01 3.226759e-01 2.253505e-01 1.594735e-01 1.135533e-01 8.097957e-02 5.765614e-02 4.089390e-02 2.884826e-02 2.021726e-02 1.406267e-02 9.701930e-03 6.635036e-03 4.496086e-03 3.017676e-03 2.005463e-03 1.319409e-03 8.589276e-04 5.533113e-04 3.521821e-04 
2.210132e-04 1.346636e-04 8.009770e-05 4.465812e-05 2.310377e-05 8.598785e-06 4.997033e-07 -5.604300e-06 -8.243444e-06 -1.090128e-05 -1.121970e-05 -1.231010e-05 -1.154986e-05 -1.180132e-05 -1.051294e-05 -1.025394e-05 -8.727039e-06 -8.127562e-06 -6.496787e-06 -5.591642e-06 -3.794749e-06 -2.379840e-06 1.051165e-08 2.641481e-06 6.796422e-06 1.239849e-05 2.098246e-05 3.336440e-05 5.182067e-05 7.840799e-05 1.167308e-04 1.703560e-04 2.445459e-04 3.439287e-04 4.745179e-04 6.393414e-04 8.409488e-04 1.073103e-03 1.323849e-03 1.560839e-03 1.735099e-03 1.757616e-03 1.504620e-03 7.846098e-04 -6.521731e-04 -3.152934e-03 -7.142550e-03 -1.315830e-02 -2.180941e-02 -3.378776e-02 -4.979457e-02 -7.050322e-02 -9.644843e-02 -1.279304e-01 -1.648868e-01 -2.067706e-01 -2.524684e-01 -3.002511e-01 -3.478364e-01 -3.925371e-01 -4.315225e-01 -4.621671e-01 -4.823861e-01 -4.909303e-01 -4.875062e-01 -4.727034e-01 -4.477641e-01 -4.141591e-01 -3.731741e-01 -3.253980e-01 -2.702500e-01 -2.054209e-01 -1.262489e-01 -2.522615e-02 1.081679e-01 2.866858e-01 5.235672e-01 8.292250e-01 1.206972e+00 1.647081e+00 2.120256e+00 2.569799e+00 2.904117e+00 2.994960e+00 2.705574e+00 2.007655e+00 1.270981e+00 -5.889641e-01 -2.776876e+00 -3.477927e+00 -7.532042e+00 -5.254880e+00 1.444514e+00 4.238634e+00 4.553539e+00 4.005902e+00 3.911394e+00 3.265035e+00 3.048074e+00 2.611676e+00 2.384176e+00 2.172034e+00 1.810583e+00 2.253691e+00 3.196933e+00 2.062499e+00 1.230988e+00 7.770827e-01 5.119584e-01 3.477723e-01 2.411135e-01 1.692892e-01 1.196665e-01 8.480268e-02 6.005811e-02 4.240984e-02 2.980787e-02 2.082585e-02 1.444854e-02 9.946159e-03 6.788948e-03 4.592390e-03 3.077281e-03 2.041638e-03 1.340748e-03 8.707151e-04 5.591308e-04 3.540022e-04 