# vtk DataFile Version 2.0
Comment goes here
ASCII

DATASET STRUCTURED_POINTS
DIMENSIONS    128   128   1

ORIGIN    0.000   0.000   0.000
SPACING   0.0156250.015625   1.000

POINT_DATA   16384
SCALARS Omega double
LOOKUP_TABLE default

-1.714975e-07 -1.247044e-07 -9.173502e-08 -6.522012e-08 -4.795313e-08 -3.310752e-08 -2.473620e-08 -1.634266e-08 -1.281014e-08 -7.872387e-09 -6.851301e-09 -3.732594e-09 -3.921102e-09 -1.774524e-09 -2.451528e-09 -8.677180e-10 -1.629164e-09 -4.292587e-10 -1.041031e-09 -1.600954e-10 -4.827653e-10 9.056002e-11 1.304237e-10 3.756291e-10 7.778563e-10 6.281334e-10 1.270886e-09 5.517532e-10 1.086775e-09 -6.154766e-10 -9.523497e-10 -4.528621e-09 -7.229907e-09 -1.443708e-08 -2.219978e-08 -3.624251e-08 -5.363737e-08 -7.996314e-08 -1.142895e-07 -1.615598e-07 -2.238006e-07 -3.048958e-07 -4.105580e-07 -5.433070e-07 -7.127415e-07 -9.198458e-07 -1.177415e-06 -1.484800e-06 -1.856052e-06 -2.288710e-06 -2.794649e-06 -3.369119e-06 -4.016913e-06 -4.730022e-06 -5.500254e-06 -6.314835e-06 -7.146716e-06 -7.976588e-06 -8.754226e-06 -9.452419e-06 -9.996683e-06 -1.035192e-05 -1.042295e-05 -1.016925e-05 -9.483796e-06 -8.326561e-06 -6.592883e-06 -4.253324e-06 -1.224660e-06 2.497164e-06 6.950850e-06 1.209655e-05 1.790398e-05 2.427144e-05 3.108079e-05 3.816037e-05 4.530300e-05 5.228134e-05 5.882831e-05 6.470526e-05 6.964797e-05 7.347419e-05 7.600441e-05 7.718222e-05 7.698662e-05 7.553426e-05 7.300303e-05 6.969104e-05 6.595998e-05 6.223541e-05 5.895905e-05 5.653362e-05 5.527430e-05 5.533635e-05 5.668611e-05 5.907166e-05 6.204760e-05 6.501694e-05 6.730889e-05 6.826628e-05 6.734471e-05 6.421218e-05 5.883415e-05 5.151966e-05 4.288904e-05 3.374662e-05 2.490220e-05 1.699966e-05 1.043447e-05 5.344106e-06 1.665335e-06 -7.914845e-07 -2.272276e-06 -3.025478e-06 -3.273572e-06 -3.195671e-06 -2.929159e-06 -2.569577e-06 -2.182756e-06 -1.806970e-06 -1.466107e-06 -1.168329e-06 -9.182930e-07 -7.114334e-07 -5.459741e-07 -4.134014e-07 -3.113654e-07 -2.310037e-07 
3.073972e-04 2.272393e-04 1.667547e-04 1.212379e-04 8.745762e-05 6.233763e-05 4.403381e-05 3.055163e-05 2.094573e-05 1.391354e-05 9.061219e-06 5.518468e-06 3.207693e-06 1.529084e-06 5.686058e-07 -9.709706e-08 -3.135360e-07 -3.790090e-07 -1.269188e-07 2.411271e-07 8.718826e-07 1.639823e-06 2.653024e-06 3.836251e-06 5.242186e-06 6.802224e-06 8.486154e-06 1.015654e-05 1.164600e-05 1.262577e-05 1.269193e-05 1.114107e-05 7.171880e-06 -5.435446e-07 -1.343157e-05 -3.374690e-05 -6.381596e-05 -1.071257e-04 -1.671635e-04 -2.488578e-04 -3.569868e-04 -4.978789e-04 -6.774311e-04 -9.028852e-04 -1.180587e-03 -1.517581e-03 -1.919339e-03 -2.390894e-03 -2.934864e-03 -3.551883e-03 -4.239305e-03 -4.990833e-03 -5.796240e-03 -6.640291e-03 -7.503667e-03 -8.361457e-03 -9.185195e-03 -9.941289e-03 -1.059375e-02 -1.110295e-02 -1.142829e-02 -1.152759e-02 -1.135907e-02 -1.088151e-02 -1.005514e-02 -8.843014e-03 -7.210929e-03 -5.130487e-03 -2.578736e-03 4.565716e-04 3.976955e-03 7.965939e-03 1.238868e-02 1.718438e-02 2.226702e-02 2.752105e-02 3.280572e-02 3.795835e-02 4.280410e-02 4.716851e-02 5.089087e-02 5.384200e-02 5.593499e-02 5.713979e-02 5.748575e-02 5.706775e-02 5.604202e-02 5.462504e-02 5.308460e-02 5.172752e-02 5.087368e-02 5.082192e-02 5.180061e-02 5.392796e-02 5.716994e-02 6.133368e-02 6.606823e-02 7.090393e-02 7.529130e-02 7.865599e-02 8.045029e-02 8.022759e-02 7.773668e-02 7.302353e-02 6.647772e-02 5.876096e-02 5.062534e-02 4.272441e-02 3.550494e-02 2.919373e-02 2.384193e-02 1.939213e-02 1.573277e-02 1.273956e-02 1.029472e-02 8.297977e-03 6.666465e-03 5.334135e-03 4.247720e-03 3.364468e-03 2.649276e-03 2.073117e-03 1.611721e-03 1.244558e-03 9.544767e-04 7.268220e-04 5.495958e-04 4.124978e-04 
6.154631e-04 4.547292e-04 3.335615e-04 2.423443e-04 1.747585e-04 1.244529e-04 8.790754e-05 6.093524e-05 4.182883e-05 2.778425e-05 1.820448e-05 1.115174e-05 6.660816e-06 3.342216e-06 1.549596e-06 2.606008e-07 -4.930514e-08 -1.311443e-07 4.935957e-07 1.294520e-06 2.684935e-06 4.318082e-06 6.501965e-06 9.023558e-06 1.205157e-05 1.541774e-05 1.909721e-05 2.280954e-05 2.622843e-05 2.870458e-05 2.941013e-05 2.694114e-05 1.964067e-05 4.822325e-06 -2.046815e-05 -6.084174e-05 -1.211210e-04 -2.084973e-04 -3.302106e-04 -4.964962e-04 -7.172975e-04 -1.005842e-03 -1.374443e-03 -1.838342e-03 -2.410857e-03 -3.106953e-03 -3.938222e-03 -4.915570e-03 -6.044731e-03 -7.327537e-03 -8.758811e-03 -1.032594e-02 -1.200795e-02 -1.377349e-02 -1.558259e-02 -1.738354e-02 -1.911727e-02 -2.071385e-02 -2.209862e-02 -2.318904e-02 -2.390115e-02 -2.414738e-02 -2.384170e-02 -2.289883e-02 -2.123729e-02 -1.878076e-02 -1.545913e-02 -1.121324e-02 -5.995351e-03 2.215216e-04 7.442266e-03 1.563586e-02 2.473301e-02 3.461133e-02 4.509478e-02 5.594555e-02 6.687069e-02 7.753044e-02 8.755628e-02 9.658005e-02 1.042600e-01 1.103217e-01 1.145789e-01 1.169662e-01 1.175423e-01 1.165022e-01 1.141674e-01 1.109846e-01 1.075106e-01 1.043917e-01 1.023118e-01 1.019217e-01 1.037287e-01 1.080073e-01 1.147034e-01 1.234192e-01 1.334149e-01 1.436976e-01 1.531092e-01 1.604364e-01 1.645027e-01 1.643119e-01 1.592568e-01 1.493819e-01 1.355426e-01 1.192521e-01 1.022120e-01 8.584532e-02 7.106514e-02 5.828235e-02 4.753596e-02 3.865481e-02 3.137676e-02 2.543135e-02 2.057369e-02 1.660112e-02 1.334952e-02 1.068931e-02 8.516645e-03 6.747887e-03 5.314331e-03 4.158626e-03 3.232813e-03 2.495885e-03 1.913713e-03 1.456810e-03 1.101246e-03 8.261927e-04 
9.245660e-04 6.826015e-04 5.001567e-04 3.629489e-04 2.611975e-04 1.855743e-04 1.305222e-04 8.999408e-05 6.116377e-05 4.007585e-05 2.557652e-05 1.501295e-05 8.188672e-06 3.265121e-06 5.402731e-07 -1.291194e-06 -1.723907e-06 -1.681133e-06 -6.195574e-07 8.382842e-07 3.178472e-06 6.020829e-06 9.738233e-06 1.411718e-05 1.936578e-05 2.530360e-05 3.188514e-05 3.872548e-05 4.534643e-05 5.076504e-05 5.373967e-05 5.208993e-05 4.327129e-05 2.307531e-05 -1.311636e-05 -7.256493e-05 -1.629070e-04 -2.955224e-04 -4.819873e-04 -7.385854e-04 -1.081346e-03 -1.531445e-03 -2.108894e-03 -2.838284e-03 -3.741479e-03 -4.842898e-03 -6.161901e-03 -7.716706e-03 -9.517490e-03 -1.156818e-02 -1.386152e-02 -1.637837e-02 -1.908597e-02 -2.193504e-02 -2.486198e-02 -2.778465e-02 -3.060843e-02 -3.322184e-02 -3.550518e-02 -3.732707e-02 -3.855342e-02 -3.904557e-02 -3.866703e-02 -3.728385e-02 -3.476760e-02 -3.099884e-02 -2.586684e-02 -1.927807e-02 -1.115497e-02 -1.451709e-03 9.845090e-03 2.269304e-02 3.699074e-02 5.255165e-02 6.910310e-02 8.626952e-02 1.035837e-01 1.204959e-01 1.364062e-01 1.507086e-01 1.628396e-01 1.723430e-01 1.789096e-01 1.824276e-01 1.829876e-01 1.808966e-01 1.766595e-01 1.709787e-01 1.647396e-01 1.589919e-01 1.548790e-01 1.535199e-01 1.558145e-01 1.622800e-01 1.728754e-01 1.869699e-01 2.033486e-01 2.203764e-01 2.361654e-01 2.487430e-01 2.561464e-01 2.565990e-01 2.488705e-01 2.328413e-01 2.099982e-01 1.831960e-01 1.555726e-01 1.295700e-01 1.065731e-01 8.704994e-02 7.087248e-02 5.763170e-02 4.683615e-02 3.802945e-02 3.082522e-02 2.491796e-02 2.006728e-02 1.608659e-02 1.282673e-02 1.016747e-02 8.008897e-03 6.267102e-03 4.870953e-03 3.759509e-03 2.881416e-03 2.192501e-03 1.656458e-03 1.242042e-03 
1.234023e-03 9.099160e-04 6.658594e-04 4.823096e-04 3.464630e-04 2.454360e-04 1.721451e-04 1.180998e-04 7.991041e-05 5.187832e-05 3.286860e-05 1.892323e-05 1.018734e-05 3.802943e-06 5.604517e-07 -1.657363e-06 -1.812203e-06 -1.465479e-06 4.316703e-07 2.780076e-06 6.504846e-06 1.090202e-05 1.669484e-05 2.347803e-05 3.170324e-05 4.108064e-05 5.166981e-05 6.296008e-05 7.437110e-05 8.460542e-05 9.197624e-05 9.352800e-05 8.569539e-05 6.264429e-05 1.781251e-05 -5.903822e-05 -1.788585e-04 -3.579112e-04 -6.129267e-04 -9.674491e-04 -1.444830e-03 -2.076033e-03 -2.890480e-03 -3.924585e-03 -5.210876e-03 -6.786138e-03 -8.679755e-03 -1.092013e-02 -1.352373e-02 -1.649860e-02 -1.983604e-02 -2.351053e-02 -2.747606e-02 -3.166266e-02 -3.597886e-02 -4.030593e-02 -4.450657e-02 -4.841862e-02 -5.186819e-02 -5.466429e-02 -5.661315e-02 -5.751454e-02 -5.717335e-02 -5.539815e-02 -5.200737e-02 -4.683142e-02 -3.971388e-02 -3.051999e-02 -1.913657e-02 -5.490824e-03 1.044617e-02 2.862854e-02 4.892684e-02 7.109094e-02 9.474209e-02 1.193479e-01 1.442312e-01 1.685842e-01 1.915105e-01 2.120973e-01 2.294852e-01 2.429779e-01 2.520994e-01 2.566773e-01 2.568385e-01 2.530248e-01 2.459498e-01 2.366027e-01 2.262443e-01 2.164219e-01 2.088934e-01 2.054543e-01 2.076036e-01 2.162618e-01 2.314612e-01 2.522895e-01 2.768988e-01 3.027911e-01 3.271661e-01 3.471497e-01 3.597930e-01 3.621434e-01 3.517704e-01 3.278859e-01 2.928695e-01 2.520390e-01 2.109871e-01 1.735654e-01 1.415117e-01 1.150309e-01 9.352265e-02 7.613106e-02 6.202347e-02 5.051286e-02 4.106449e-02 3.327900e-02 2.685359e-02 2.155661e-02 1.720325e-02 1.364238e-02 1.074693e-02 8.407944e-03 6.532320e-03 5.038958e-03 3.859525e-03 2.934472e-03 2.215224e-03 1.659401e-03 
1.543364e-03 1.136220e-03 8.296725e-04 5.994352e-04 4.289330e-04 3.023594e-04 2.103733e-04 1.427433e-04 9.478302e-05 5.978706e-05 3.590701e-05 1.861908e-05 7.693695e-06 -3.229858e-08 -3.952859e-06 -6.333950e-06 -6.215070e-06 -5.205927e-06 -2.271224e-06 1.513338e-06 7.104888e-06 1.387680e-05 2.261980e-05 3.303698e-05 4.566492e-05 6.030671e-05 7.707722e-05 9.544793e-05 1.147594e-04 1.334086e-04 1.492971e-04 1.585808e-04 1.566216e-04 1.356682e-04 8.694272e-05 -3.337711e-06 -1.501020e-04 -3.754811e-04 -7.026122e-04 -1.163869e-03 -1.791945e-03 -2.629891e-03 -3.719412e-03 -5.111798e-03 -6.853864e-03 -8.998352e-03 -1.158860e-02 -1.466672e-02 -1.825885e-02 -2.237960e-02 -2.702032e-02 -3.214913e-02 -3.770486e-02 -4.359313e-02 -4.968810e-02 -5.582626e-02 -6.181642e-02 -6.743360e-02 -7.243507e-02 -7.655632e-02 -7.952840e-02 -8.107668e-02 -8.093386e-02 -7.884141e-02 -7.455432e-02 -6.784616e-02 -5.850631e-02 -4.635227e-02 -3.122524e-02 -1.301604e-02 8.332838e-03 3.278321e-02 6.018854e-02 9.023728e-02 1.224381e-01 1.560749e-01 1.902151e-01 2.237190e-01 2.553021e-01 2.836320e-01 3.074461e-01 3.257103e-01 3.377241e-01 3.432347e-01 3.424293e-01 3.359250e-01 3.246821e-01 3.099949e-01 2.935300e-01 2.774319e-01 2.643089e-01 2.569798e-01 2.578970e-01 2.686640e-01 2.894990e-01 3.191251e-01 3.547903e-01 3.927047e-01 4.289074e-01 4.595547e-01 4.806074e-01 4.873497e-01 4.750104e-01 4.405805e-01 3.876030e-01 3.265932e-01 2.676809e-01 2.165460e-01 1.747245e-01 1.414260e-01 1.150357e-01 9.395544e-02 7.689390e-02 6.291361e-02 5.135249e-02 4.174866e-02 3.376432e-02 2.714348e-02 2.167843e-02 1.719533e-02 1.354346e-02 1.059103e-02 8.222849e-03 6.337927e-03 4.849911e-03 3.683840e-03 2.777784e-03 2.078362e-03 
1.849366e-03 1.358361e-03 9.893015e-04 7.121771e-04 5.074363e-04 3.553768e-04 2.453169e-04 1.642829e-04 1.072816e-04 6.557058e-05 3.760969e-05 1.727249e-05 4.970365e-06 -3.772659e-06 -7.562943e-06 -9.752170e-06 -8.564388e-06 -6.483621e-06 -1.702637e-06 4.045025e-06 1.240652e-05 2.231924e-05 3.516324e-05 5.041413e-05 6.908102e-05 9.089359e-05 1.162836e-04 1.446776e-04 1.754789e-04 2.068305e-04 2.362364e-04 2.589908e-04 2.692300e-04 2.571320e-04 2.112943e-04 1.138360e-04 -5.496501e-05 -3.243406e-04 -7.252623e-04 -1.301155e-03 -2.096322e-03 -3.169373e-03 -4.577574e-03 -6.391895e-03 -8.677675e-03 -1.150947e-02 -1.494933e-02 -1.905913e-02 -2.387890e-02 -2.943451e-02 -3.571943e-02 -4.269656e-02 -5.028751e-02 -5.836885e-02 -6.677242e-02 -7.527817e-02 -8.362677e-02 -9.151218e-02 -9.860411e-02 -1.045428e-01 -1.089648e-01 -1.115005e-01 -1.117951e-01 -1.095073e-01 -1.043191e-01 -9.593683e-02 -8.408954e-02 -6.853750e-02 -4.906751e-02 -2.551917e-02 2.209747e-03 3.410986e-02 7.003605e-02 1.096301e-01 1.522864e-01 1.970834e-01 2.427749e-01 2.877974e-01 3.303403e-01 3.684935e-01 4.004131e-01 4.245839e-01 4.399782e-01 4.462507e-01 4.436964e-01 4.332007e-01 4.160239e-01 3.937547e-01 3.684069e-01 3.427823e-01 3.206711e-01 3.065280e-01 3.043509e-01 3.169273e-01 3.448408e-01 3.863276e-01 4.373166e-01 4.917338e-01 5.441519e-01 5.899736e-01 6.245088e-01 6.405665e-01 6.291686e-01 5.802275e-01 4.980916e-01 4.059670e-01 3.227157e-01 2.556003e-01 2.041640e-01 1.650955e-01 1.349264e-01 1.109985e-01 9.151911e-02 7.536199e-02 6.181904e-02 5.043253e-02 4.087657e-02 3.289860e-02 2.628431e-02 2.084413e-02 1.640728e-02 1.281897e-02 9.941938e-03 7.653580e-03 5.849093e-03 4.436466e-03 3.340335e-03 2.495009e-03 
2.149518e-03 1.574368e-03 1.142232e-03 8.182524e-04 5.787898e-04 4.012965e-04 2.726320e-04 1.782294e-04 1.116426e-04 6.328743e-05 3.076817e-05 7.552705e-06 -6.456931e-06 -1.589403e-05 -1.967123e-05 -2.115208e-05 -1.873577e-05 -1.482243e-05 -7.676163e-06 1.130147e-06 1.327317e-05 2.792134e-05 4.658772e-05 6.903687e-05 9.650056e-05 1.290108e-04 1.672501e-04 2.108455e-04 2.593258e-04 3.106909e-04 3.621396e-04 4.080446e-04 4.412817e-04 4.496307e-04 4.186766e-04 3.256676e-04 1.450442e-04 -1.610120e-04 -6.333722e-04 -1.329049e-03 -2.307412e-03 -3.646547e-03 -5.424377e-03 -7.737029e-03 -1.067504e-02 -1.434158e-02 -1.882498e-02 -2.421410e-02 -3.056988e-02 -3.793513e-02 -4.630949e-02 -5.565214e-02 -6.586536e-02 -7.679105e-02 -8.820780e-02 -9.982434e-02 -1.112926e-01 -1.222024e-01 -1.321082e-01 -1.405281e-01 -1.469749e-01 -1.509605e-01 -1.520184e-01 -1.497096e-01 -1.436287e-01 -1.334079e-01 -1.187075e-01 -9.922467e-02 -7.467955e-02 -4.484509e-02 -9.548728e-03 3.125877e-02 7.746918e-02 1.287060e-01 1.842653e-01 2.430006e-01 3.032923e-01 3.630254e-01 4.196808e-01 4.705237e-01 5.128716e-01 5.444855e-01 5.638710e-01 5.705755e-01 5.651412e-01 5.489166e-01 5.235928e-01 4.909531e-01 4.530771e-01 4.132423e-01 3.768893e-01 3.512594e-01 3.428326e-01 3.565050e-01 3.935079e-01 4.513765e-01 5.244479e-01 6.015505e-01 6.755695e-01 7.419695e-01 7.977624e-01 8.324325e-01 8.320367e-01 7.636531e-01 6.281091e-01 4.848261e-01 3.688903e-01 2.853288e-01 2.268308e-01 1.848052e-01 1.529499e-01 1.274503e-01 1.062138e-01 8.815543e-02 7.269574e-02 5.949259e-02 4.829443e-02 3.888442e-02 3.105483e-02 2.460532e-02 1.934412e-02 1.509215e-02 1.168685e-02 8.982506e-03 6.853170e-03 5.189144e-03 3.899715e-03 2.906990e-03 
2.436411e-03 1.777405e-03 1.283225e-03 9.128405e-04 6.397920e-04 4.373125e-04 2.912309e-04 1.839231e-04 1.090136e-04 5.453561e-05 1.880399e-05 -6.691521e-06 -2.100345e-05 -3.046175e-05 -3.279736e-05 -3.282172e-05 -2.773949e-05 -2.113354e-05 -1.012931e-05 2.818056e-06 2.043902e-05 4.135114e-05 6.803145e-05 1.000285e-04 1.394440e-04 1.863747e-04 2.422373e-04 3.068467e-04 3.801928e-04 4.602580e-04 5.441143e-04 6.253239e-04 6.954609e-04 7.397627e-04 7.403895e-04 6.689677e-04 4.930510e-04 1.644034e-04 -3.698197e-04 -1.183690e-03 -2.355209e-03 -3.987600e-03 -6.184920e-03 -9.076622e-03 -1.278595e-02 -1.745512e-02 -2.320778e-02 -3.017116e-02 -3.843601e-02 -4.807192e-02 -5.909041e-02 -7.145112e-02 -8.503554e-02 -9.964477e-02 -1.149915e-01 -1.306934e-01 -1.462882e-01 -1.612287e-01 -1.749187e-01 -1.867138e-01 -1.959673e-01 -2.020351e-01 -2.043130e-01 -2.022405e-01 -1.953133e-01 -1.830813e-01 -1.651349e-01 -1.411042e-01 -1.106365e-01 -7.341899e-02 -2.917925e-02 2.223751e-02 8.081614e-02 1.462227e-01 2.177004e-01 2.938900e-01 3.727425e-01 4.514518e-01 5.265339e-01 5.940848e-01 6.501583e-01 6.914108e-01 7.156075e-01 7.221936e-01 7.122215e-01 6.879783e-01 6.519038e-01 6.058082e-01 5.509609e-01 4.902245e-01 4.311925e-01 3.865710e-01 3.664354e-01 3.797988e-01 4.286933e-01 5.092312e-01 6.165482e-01 7.245012e-01 8.257477e-01 9.167300e-01 1.005200e+00 1.073058e+00 1.116809e+00 1.027425e+00 7.773727e-01 5.460412e-01 3.909571e-01 2.971674e-01 2.393658e-01 1.999854e-01 1.696502e-01 1.441044e-01 1.216729e-01 1.017983e-01 8.431008e-02 6.912228e-02 5.612135e-02 4.514755e-02 3.600408e-02 2.847486e-02 2.234185e-02 1.739484e-02 1.344190e-02 1.030957e-02 7.848963e-03 5.929858e-03 4.445901e-03 3.305163e-03 
2.704585e-03 1.963210e-03 1.407475e-03 9.915849e-04 6.848159e-04 4.577856e-04 2.937627e-04 1.737835e-04 8.991834e-05 2.958877e-05 -9.865999e-06 -3.716677e-05 -5.200981e-05 -6.071673e-05 -6.145592e-05 -5.890048e-05 -5.053316e-05 -3.969871e-05 -2.363911e-05 -4.467047e-06 2.062091e-05 5.070922e-05 8.856809e-05 1.343504e-04 1.906746e-04 2.583494e-04 3.394626e-04 4.345167e-04 5.441143e-04 6.665775e-04 7.990790e-04 9.345346e-04 1.063291e-03 1.167869e-03 1.226579e-03 1.204623e-03 1.061260e-03 7.359420e-04 1.608391e-04 -7.587900e-04 -2.124894e-03 -4.071861e-03 -6.738103e-03 -1.029538e-02 -1.491097e-02 -2.077803e-02 -2.806923e-02 -3.696380e-02 -4.759614e-02 -6.007495e-02 -7.443341e-02 -9.063764e-02 -1.085481e-01 -1.279186e-01 -1.483795e-01 -1.694332e-01 -1.904677e-01 -2.107572e-01 -2.295040e-01 -2.458511e-01 -2.589380e-01 -2.679217e-01 -2.720202e-01 -2.705291e-01 -2.628303e-01 -2.483921e-01 -2.267381e-01 -1.974392e-01 -1.600669e-01 -1.142079e-01 -5.945015e-02 4.530726e-03 7.790281e-02 1.604785e-01 2.515474e-01 3.495942e-01 4.521189e-01 5.554608e-01 6.548489e-01 7.446878e-01 8.191297e-01 8.730491e-01 9.030125e-01 9.083100e-01 8.910810e-01 8.555754e-01 8.059517e-01 7.438586e-01 6.677265e-01 5.767567e-01 4.806462e-01 4.054628e-01 3.637523e-01 3.744495e-01 4.396381e-01 5.485738e-01 7.176751e-01 8.653178e-01 9.988068e-01 1.108072e+00 1.248696e+00 1.354420e+00 1.552324e+00 1.468725e+00 9.215453e-01 5.417685e-01 3.606720e-01 2.807987e-01 2.404559e-01 2.124292e-01 1.872585e-01 1.627441e-01 1.390981e-01 1.170213e-01 9.706919e-02 7.952745e-02 6.444536e-02 5.171267e-02 4.112453e-02 3.243217e-02 2.537566e-02 1.970374e-02 1.518643e-02 1.161829e-02 8.822973e-03 6.648609e-03 4.970681e-03 3.683578e-03 
2.940488e-03 2.119283e-03 1.504819e-03 1.044954e-03 7.066211e-04 4.560370e-04 2.760063e-04 1.442186e-04 5.339996e-05 -1.181443e-05 -5.280044e-05 -8.074326e-05 -9.374261e-05 -1.003361e-04 -9.698617e-05 -9.030921e-05 -7.609027e-05 -5.927144e-05 -3.545773e-05 -7.924920e-06 2.770488e-05 6.986399e-05 1.228648e-04 1.867577e-04 2.657009e-04 3.609117e-04 4.759883e-04 6.121690e-04 7.713624e-04 9.525160e-04 1.153449e-03 1.366749e-03 1.581847e-03 1.778556e-03 1.931182e-03 1.997684e-03 1.927967e-03 1.646784e-03 1.068687e-03 7.334834e-05 -1.470208e-03 -3.736037e-03 -6.905371e-03 -1.120524e-02 -1.685941e-02 -2.412953e-02 -3.325340e-02 -4.448294e-02 -5.801371e-02 -7.401335e-02 -9.255068e-02 -1.136101e-01 -1.370338e-01 -1.625225e-01 -1.896067e-01 -2.176422e-01 -2.458238e-01 -2.731883e-01 -2.986717e-01 -3.211295e-01 -3.394189e-01 -3.524307e-01 -3.591582e-01 -3.587189e-01 -3.503726e-01 -3.335113e-01 -3.076157e-01 -2.722197e-01 -2.268380e-01 -1.709499e-01 -1.039656e-01 -2.530644e-02 6.551109e-02 1.686184e-01 2.835417e-01 4.087693e-01 5.414115e-01 6.768355e-01 8.085859e-01 9.286701e-01 1.028302e+00 1.099434e+00 1.136442e+00 1.138237e+00 1.108954e+00 1.057073e+00 9.910162e-01 9.130466e-01 8.145274e-01 6.812807e-01 5.193066e-01 3.986038e-01 3.150947e-01 3.207147e-01 4.136946e-01 5.355351e-01 8.503629e-01 1.032524e+00 1.210029e+00 1.283857e+00 1.544757e+00 1.563009e+00 2.291679e+00 2.396478e+00 9.140519e-01 3.498003e-01 2.381127e-01 2.329497e-01 2.367058e-01 2.289721e-01 2.105850e-01 1.862666e-01 1.600681e-01 1.346054e-01 1.113097e-01 9.081246e-02 7.326000e-02 5.852611e-02 4.634903e-02 3.641094e-02 2.838727e-02 2.196926e-02 1.688010e-02 1.287525e-02 9.748355e-03 7.322647e-03 5.455524e-03 4.025812e-03 
3.135105e-03 2.238287e-03 1.567103e-03 1.065240e-03 6.955574e-04 4.222143e-04 2.255580e-04 8.239057e-05 -1.611974e-05 -8.560848e-05 -1.285219e-04 -1.560068e-04 -1.669611e-04 -1.697264e-04 -1.613752e-04 -1.482215e-04 -1.264687e-04 -1.006369e-04 -6.649895e-05 -2.673622e-05 2.319940e-05 8.257970e-05 1.563135e-04 2.456019e-04 3.556744e-04 4.892232e-04 6.513364e-04 8.449241e-04 1.073536e-03 1.337580e-03 1.636030e-03 1.961827e-03 2.303858e-03 2.639555e-03 2.938965e-03 3.152340e-03 3.218625e-03 3.045887e-03 2.527099e-03 1.511763e-03 -1.676762e-04 -2.733461e-03 -6.422075e-03 -1.152959e-02 -1.835449e-02 -2.724659e-02 -3.853249e-02 -5.256137e-02 -6.961625e-02 -8.994889e-02 -1.136860e-01 -1.408476e-01 -1.712644e-01 -2.045808e-01 -2.402058e-01 -2.773121e-01 -3.148413e-01 -3.515189e-01 -3.859212e-01 -4.165201e-01 -4.417889e-01 -4.602687e-01 -4.706582e-01 -4.718635e-01 -4.630131e-01 -4.434506e-01 -4.126568e-01 -3.701845e-01 -3.155352e-01 -2.480966e-01 -1.670672e-01 -7.150856e-02 3.956213e-02 1.668650e-01 3.104847e-01 4.692359e-01 6.400625e-01 8.173366e-01 9.925094e-01 1.154216e+00 1.289184e+00 1.384413e+00 1.430159e+00 1.423992e+00 1.373380e+00 1.295399e+00 1.209380e+00 1.122638e+00 1.014089e+00 8.292881e-01 5.270953e-01 3.614317e-01 1.819671e-01 1.902493e-01 4.551338e-01 4.301978e-01 7.067978e-01 9.656691e-01 8.927337e-01 5.149116e-01 5.491844e-01 1.795248e-01 9.972520e-01 1.049210e+00 -5.003674e-01 -2.849747e-01 1.703036e-02 1.843020e-01 2.525218e-01 2.639521e-01 2.470634e-01 2.182058e-01 1.861031e-01 1.550950e-01 1.271326e-01 1.028980e-01 8.242735e-02 6.544653e-02 5.155269e-02 4.030965e-02 3.129675e-02 2.413102e-02 1.847727e-02 1.404729e-02 1.060027e-02 7.934311e-03 5.886638e-03 4.321845e-03 
3.266190e-03 2.299059e-03 1.575949e-03 1.034624e-03 6.366855e-04 3.419788e-04 1.313720e-04 -2.190917e-05 -1.251473e-04 -1.972525e-04 -2.385729e-04 -2.633815e-04 -2.682391e-04 -2.644403e-04 -2.466706e-04 -2.238961e-04 -1.899755e-04 -1.516065e-04 -1.022690e-04 -4.616843e-05 2.354408e-05 1.054263e-04 2.068001e-04 3.290694e-04 4.800958e-04 6.636989e-04 8.878468e-04 1.157316e-03 1.478597e-03 1.854159e-03 2.285365e-03 2.766267e-03 3.286268e-03 3.820891e-03 4.336488e-03 4.775062e-03 5.064023e-03 5.092093e-03 4.727877e-03 3.784408e-03 2.051018e-03 -7.545669e-04 -4.936214e-03 -1.087839e-02 -1.897375e-02 -2.968842e-02 -4.346516e-02 -6.078634e-02 -8.205552e-02 -1.076471e-01 -1.377771e-01 -1.725304e-01 -2.117419e-01 -2.550016e-01 -3.015774e-01 -3.504125e-01 -4.001245e-01 -4.490243e-01 -4.952074e-01 -5.366199e-01 -5.712154e-01 -5.970562e-01 -6.124565e-01 -6.160573e-01 -6.068608e-01 -5.842085e-01 -5.476717e-01 -4.969265e-01 -4.315619e-01 -3.509371e-01 -2.540337e-01 -1.394480e-01 -5.456289e-03 1.496342e-01 3.269953e-01 5.263595e-01 7.450520e-01 9.767215e-01 1.210459e+00 1.430395e+00 1.616494e+00 1.747414e+00 1.805278e+00 1.783373e+00 1.693228e+00 1.568149e+00 1.453320e+00 1.378028e+00 1.312490e+00 1.114149e+00 4.084283e-01 4.155296e-01 8.196546e-01 5.448519e-01 -3.482928e-02 -3.422942e-01 -8.592244e-01 -1.966680e+00 -2.455972e+00 -2.951651e+00 -3.255544e+00 -3.415508e+00 -3.573290e+00 -3.719476e+00 -2.748327e+00 -8.884661e-01 -6.355096e-02 2.432160e-01 3.342090e-01 3.361482e-01 3.037400e-01 2.607880e-01 2.175575e-01 1.781947e-01 1.440818e-01 1.153463e-01 9.158363e-02 7.218899e-02 5.651998e-02 4.396681e-02 3.398440e-02 2.609905e-02 1.991038e-02 1.508164e-02 1.133743e-02 8.449074e-03 6.235453e-03 4.545897e-03 
3.320699e-03 2.289977e-03 1.517907e-03 9.395518e-04 5.132158e-04 1.977506e-04 -2.802192e-05 -1.910243e-04 -2.999693e-04 -3.735490e-04 -4.132661e-04 -4.330511e-04 -4.304875e-04 -4.164849e-04 -3.866218e-04 -3.494091e-04 -2.993712e-04 -2.425814e-04 -1.727930e-04 -9.327424e-05 3.140933e-06 1.164290e-04 2.550167e-04 4.223748e-04 6.284024e-04 8.797412e-04 1.187333e-03 1.559459e-03 2.006229e-03 2.533836e-03 3.147077e-03 3.842768e-03 4.611853e-03 5.429348e-03 6.258257e-03 7.032903e-03 7.667802e-03 8.030981e-03 7.962117e-03 7.232798e-03 5.579441e-03 2.648789e-03 -1.947922e-03 -8.703254e-03 -1.813165e-02 -3.084640e-02 -4.744531e-02 -6.858631e-02 -9.484126e-02 -1.267563e-01 -1.646843e-01 -2.088174e-01 -2.590229e-01 -3.148476e-01 -3.753981e-01 -4.393384e-01 -5.048659e-01 -5.697469e-01 -6.314224e-01 -6.871241e-01 -7.340832e-01 -7.697129e-01 -7.918069e-01 -7.986845e-01 -7.892305e-01 -7.628791e-01 -7.194373e-01 -6.588868e-01 -5.810828e-01 -4.854918e-01 -3.709332e-01 -2.354447e-01 -7.628459e-02 1.097532e-01 3.257094e-01 5.732440e-01 8.511061e-01 1.153045e+00 1.465946e+00 1.768348e+00 2.030466e+00 2.217216e+00 2.294952e+00 2.244892e+00 2.079787e+00 1.859586e+00 1.684998e+00 1.651209e+00 1.774135e+00 1.962649e+00 -3.832669e-01 -1.792370e+00 -1.242699e+00 -1.911235e+00 -2.766573e+00 -4.338913e+00 -4.787880e+00 -4.773200e+00 -4.675108e+00 -4.268487e+00 -4.267341e+00 -3.808775e+00 -4.424589e+00 -4.342274e+00 -2.010550e+00 -2.239135e-01 3.829804e-01 5.293861e-01 5.163977e-01 4.534215e-01 3.805906e-01 3.121295e-01 2.524881e-01 2.023447e-01 1.610059e-01 1.273386e-01 1.001547e-01 7.835439e-02 6.097323e-02 4.719009e-02 3.631611e-02 2.778055e-02 2.111422e-02 1.593324e-02 1.192732e-02 8.844110e-03 6.483998e-03 4.684302e-03 
3.263414e-03 2.175900e-03 1.360399e-03 7.473436e-04 2.956986e-04 -3.953655e-05 -2.774596e-04 -4.487429e-04 -5.592343e-04 -6.315474e-04 -6.639632e-04 -6.744998e-04 -6.574422e-04 -6.277570e-04 -5.777971e-04 -5.197929e-04 -4.451436e-04 -3.629577e-04 -2.638801e-04 -1.531947e-04 -2.046461e-05 1.335824e-04 3.210540e-04 5.462537e-04 8.234300e-04 1.161704e-03 1.577194e-03 2.082179e-03 2.692638e-03 3.419673e-03 4.273899e-03 5.256490e-03 6.362358e-03 7.567478e-03 8.833581e-03 1.008772e-02 1.123234e-02 1.211261e-02 1.253730e-02 1.222954e-02 1.086559e-02 8.006195e-03 3.161844e-03 -4.294973e-03 -1.502887e-02 -2.984270e-02 -4.953344e-02 -7.499405e-02 -1.070241e-01 -1.464133e-01 -1.937171e-01 -2.493023e-01 -3.131172e-01 -3.846943e-01 -4.629711e-01 -5.462753e-01 -6.322745e-01 -7.180117e-01 -8.000470e-01 -8.746175e-01 -9.379529e-01 -9.865481e-01 -1.017488e+00 -1.028670e+00 -1.018897e+00 -9.878403e-01 -9.357899e-01 -8.633325e-01 -7.708998e-01 -6.583336e-01 -5.244568e-01 -3.667489e-01 -1.811678e-01 3.764738e-02 2.957335e-01 5.982248e-01 9.471999e-01 1.338332e+00 1.757586e+00 2.177583e+00 2.555718e+00 2.835471e+00 2.954018e+00 2.862084e+00 2.558644e+00 2.136751e+00 1.803487e+00 1.797677e+00 2.334344e+00 -4.557316e-01 -2.499109e+00 -2.477012e+00 -3.976031e+00 -6.486881e+00 -5.951993e+00 -3.688609e+00 -2.446932e+00 -8.458157e-01 -2.021022e-01 4.330721e-01 7.098126e-01 1.113716e+00 1.211938e+00 1.790697e+00 2.161581e+00 1.755588e+00 1.307689e+00 9.915348e-01 7.633242e-01 5.935285e-01 4.642586e-01 3.642416e-01 2.860700e-01 2.245852e-01 1.760586e-01 1.377026e-01 1.073847e-01 8.344692e-02 6.458254e-02 4.975515e-02 3.813664e-02 2.906414e-02 2.200677e-02 1.653784e-02 1.231819e-02 9.074125e-03 6.592411e-03 4.698932e-03 
3.075832e-03 1.938070e-03 1.080513e-03 4.334245e-04 -4.601500e-05 -4.021116e-04 -6.552164e-04 -8.350497e-04 -9.486167e-04 -1.017658e-03 -1.041734e-03 -1.038195e-03 -1.002754e-03 -9.498750e-04 -8.733439e-04 -7.848768e-04 -6.770429e-04 -5.581633e-04 -4.194307e-04 -2.647609e-04 -8.324494e-05 1.266736e-04 3.789854e-04 6.815350e-04 1.052190e-03 1.505153e-03 2.062047e-03 2.741853e-03 3.567693e-03 4.558566e-03 5.732888e-03 7.099499e-03 8.659520e-03 1.039327e-02 1.226291e-02 1.419097e-02 1.606763e-02 1.771590e-02 1.890944e-02 1.931906e-02 1.854963e-02 1.606372e-02 1.124852e-02 3.315965e-03 -8.587715e-03 -2.549990e-02 -4.847694e-02 -7.871562e-02 -1.173258e-01 -1.654316e-01 -2.238865e-01 -2.933276e-01 -3.738636e-01 -4.650704e-01 -5.657218e-01 -6.737606e-01 -7.861831e-01 -8.990875e-01 -1.007827e+00 -1.107265e+00 -1.192204e+00 -1.257846e+00 -1.300274e+00 -1.316849e+00 -1.306337e+00 -1.268893e+00 -1.205668e+00 -1.118314e+00 -1.008324e+00 -8.763565e-01 -7.216000e-01 -5.411356e-01 -3.294616e-01 -7.831892e-02 2.227709e-01 5.847537e-01 1.016039e+00 1.517684e+00 2.077859e+00 2.665083e+00 3.222213e+00 3.662997e+00 3.874647e+00 3.740733e+00 3.198274e+00 2.355475e+00 1.612625e+00 1.528831e+00 -1.864290e+00 -4.834630e+00 -3.525177e+00 -7.460845e+00 -8.456654e+00 -2.244442e+00 9.826332e-01 2.767544e+00 3.874036e+00 4.599041e+00 4.601605e+00 4.804441e+00 4.897761e+00 4.850412e+00 5.142475e+00 5.918823e+00 5.913257e+00 3.609881e+00 2.128406e+00 1.388626e+00 9.704321e-01 7.085100e-01 5.314270e-01 4.051520e-01 3.118448e-01 2.412818e-01 1.871190e-01 1.451632e-01 1.124868e-01 8.697139e-02 6.703023e-02 5.145586e-02 3.930989e-02 2.985966e-02 2.252660e-02 1.685365e-02 1.247945e-02 9.116693e-03 6.541152e-03 4.572853e-03 
2.701262e-03 1.517280e-03 6.203171e-04 -6.181977e-05 -5.683761e-04 -9.466778e-04 -1.212695e-03 -1.400070e-03 -1.511069e-03 -1.572301e-03 -1.578597e-03 -1.552885e-03 -1.486395e-03 -1.399398e-03 -1.281516e-03 -1.149884e-03 -9.931193e-04 -8.239231e-04 -6.294737e-04 -4.164323e-04 -1.694089e-04 1.125573e-04 4.489035e-04 8.494488e-04 1.339000e-03 1.936600e-03 2.672720e-03 3.574075e-03 4.674593e-03 6.003340e-03 7.590714e-03 9.456257e-03 1.161198e-02 1.404589e-02 1.672530e-02 1.957077e-02 2.246398e-02 2.520558e-02 2.753481e-02 2.906420e-02 2.932122e-02 2.765384e-02 2.330793e-02 1.530119e-02 2.553166e-03 -1.626729e-02 -4.254163e-02 -7.786309e-02 -1.237520e-01 -1.817939e-01 -2.532701e-01 -3.392306e-01 -4.400716e-01 -5.555157e-01 -6.842216e-01 -8.237087e-01 -9.701575e-01 -1.118426e+00 -1.262239e+00 -1.394519e+00 -1.508039e+00 -1.596109e+00 -1.653374e+00 -1.676443e+00 -1.664145e+00 -1.617491e+00 -1.539092e+00 -1.432376e+00 -1.300625e+00 -1.146016e+00 -9.687262e-01 -7.659412e-01 -5.308309e-01 -2.516884e-01 8.813843e-02 5.084623e-01 1.028632e+00 1.660748e+00 2.401722e+00 3.221874e+00 4.053463e+00 4.776299e+00 5.205678e+00 5.093618e+00 4.194942e+00 2.498550e+00 7.582017e-01 -2.213201e+00 -4.737042e+00 -4.400800e+00 -1.108471e+01 -8.159411e+00 2.005366e+00 6.269328e+00 6.617823e+00 6.142475e+00 6.037909e+00 5.041895e+00 4.853354e+00 4.088010e+00 3.850755e+00 3.394036e+00 3.037111e+00 3.425299e+00 5.235289e+00 3.607858e+00 2.244938e+00 1.492391e+00 1.043089e+00 7.559731e-01 5.617765e-01 4.245360e-01 3.243020e-01 2.493672e-01 1.924188e-01 1.486691e-01 1.148193e-01 8.852472e-02 6.805619e-02 5.211770e-02 3.971386e-02 3.007575e-02 2.260127e-02 1.681767e-02 1.235399e-02 8.915669e-03 6.275286e-03 4.249073e-03 