# vtk DataFile Version 2.0
Comment goes here
ASCII

DATASET STRUCTURED_POINTS
DIMENSIONS    128   128   1

ORIGIN    0.000   0.000   0.000
SPACING   0.0156250.015625   1.000

POINT_DATA   16384
SCALARS Omega double
LOOKUP_TABLE default

-4.093909e-07 -3.089430e-07 -2.350841e-07 -1.744157e-07 -1.323943e-07 -9.627357e-08 -7.361379e-08 -5.213495e-08 -4.084817e-08 -2.787350e-08 -2.301472e-08 -1.488898e-08 -1.345719e-08 -8.077356e-09 -8.258933e-09 -4.449377e-09 -5.132268e-09 -2.249693e-09 -2.734717e-09 -4.392492e-10 -2.962244e-10 1.550619e-09 2.507985e-09 3.830853e-09 5.450905e-09 5.820314e-09 7.374459e-09 5.700912e-09 5.453611e-09 -5.402946e-10 -6.013583e-09 -2.061134e-08 -3.742071e-08 -6.808240e-08 -1.063757e-07 -1.652865e-07 -2.409403e-07 -3.468780e-07 -4.833927e-07 -6.637008e-07 -8.939693e-07 -1.186166e-06 -1.553486e-06 -2.005688e-06 -2.562989e-06 -3.231875e-06 -4.037708e-06 -4.982340e-06 -6.091820e-06 -7.361460e-06 -8.810486e-06 -1.042497e-05 -1.220688e-05 -1.412955e-05 -1.616549e-05 -1.827153e-05 -2.037899e-05 -2.242543e-05 -2.429325e-05 -2.590083e-05 -2.708181e-05 -2.774048e-05 -2.767279e-05 -2.678091e-05 -2.484654e-05 -2.178918e-05 -1.741110e-05 -1.167580e-05 -4.449339e-06 4.229042e-06 1.438287e-05 2.586533e-05 3.854839e-05 5.215621e-05 6.638867e-05 8.084693e-05 9.507919e-05 1.086146e-04 1.209272e-04 1.315738e-04 1.400826e-04 1.461634e-04 1.495417e-04 1.501863e-04 1.481274e-04 1.436435e-04 1.371061e-04 1.290852e-04 1.202403e-04 1.113258e-04 1.031093e-04 9.628858e-05 9.141565e-05 8.878957e-05 8.840916e-05 8.993541e-05 9.272152e-05 9.588456e-05 9.841457e-05 9.931408e-05 9.774129e-05 9.316007e-05 8.546161e-05 7.502902e-05 6.269506e-05 4.956515e-05 3.677279e-05 2.523945e-05 1.555179e-05 7.941352e-06 2.352889e-06 -1.453891e-06 -3.811545e-06 -5.065268e-06 -5.533577e-06 -5.477895e-06 -5.104899e-06 -4.561506e-06 -3.953262e-06 -3.343731e-06 -2.775761e-06 -2.266285e-06 -1.827404e-06 -1.454537e-06 -1.148195e-06 -8.958177e-07 -6.957758e-07 -5.336141e-07 
7.123394e-04 5.441620e-04 4.124689e-04 3.096085e-04 2.301864e-04 1.688382e-04 1.222275e-04 8.663146e-05 6.015563e-05 4.021685e-05 2.588267e-05 1.534676e-05 8.283542e-06 3.418725e-06 7.818524e-07 -5.245499e-07 -2.881808e-07 8.745483e-07 3.242298e-06 6.414483e-06 1.065351e-05 1.571234e-05 2.176627e-05 2.863550e-05 3.632573e-05 4.458725e-05 5.313666e-05 6.144042e-05 6.874406e-05 7.391899e-05 7.547508e-05 7.127339e-05 5.873686e-05 3.421790e-05 -6.357736e-06 -6.866130e-05 -1.586555e-04 -2.844372e-04 -4.540858e-04 -6.782102e-04 -9.668583e-04 -1.332659e-03 -1.786844e-03 -2.342714e-03 -3.011019e-03 -3.803330e-03 -4.727243e-03 -5.789162e-03 -6.989987e-03 -8.326836e-03 -9.790014e-03 -1.136334e-02 -1.302315e-02 -1.473721e-02 -1.646614e-02 -1.816126e-02 -1.976838e-02 -2.122510e-02 -2.246616e-02 -2.342114e-02 -2.401982e-02 -2.419121e-02 -2.386731e-02 -2.298432e-02 -2.148364e-02 -1.931604e-02 -1.643971e-02 -1.282794e-02 -8.465125e-03 -3.357917e-03 2.469432e-03 8.961804e-03 1.603790e-02 2.357814e-02 3.143051e-02 3.940494e-02 4.728277e-02 5.482300e-02 6.177671e-02 6.790621e-02 7.300102e-02 7.690300e-02 7.951568e-02 8.082331e-02 8.088796e-02 7.985652e-02 7.795057e-02 7.546539e-02 7.275728e-02 7.023051e-02 6.830478e-02 6.737482e-02 6.774638e-02 6.958891e-02 7.288018e-02 7.740174e-02 8.273708e-02 8.832326e-02 9.349630e-02 9.756123e-02 9.985263e-02 9.982361e-02 9.715374e-02 9.186628e-02 8.438335e-02 7.544783e-02 6.591885e-02 5.655542e-02 4.788779e-02 4.019829e-02 3.356692e-02 2.794731e-02 2.322707e-02 1.927651e-02 1.597014e-02 1.320061e-02 1.087823e-02 8.931241e-03 7.300865e-03 5.939315e-03 4.806407e-03 3.868102e-03 3.095095e-03 2.461813e-03 1.946246e-03 1.528921e-03 1.193445e-03 9.251976e-04 
1.422161e-03 1.085520e-03 8.221141e-04 6.163319e-04 4.576329e-04 3.349810e-04 2.419890e-04 1.708967e-04 1.182251e-04 7.848504e-05 5.013401e-05 2.923406e-05 1.545680e-05 5.936685e-06 1.044120e-06 -1.311501e-06 -4.169105e-07 2.234001e-06 7.454637e-06 1.422891e-05 2.329726e-05 3.400492e-05 4.687219e-05 6.143602e-05 7.782827e-05 9.549958e-05 1.139521e-04 1.321102e-04 1.484793e-04 1.608125e-04 1.660831e-04 1.600078e-04 1.373131e-04 9.063516e-05 1.161384e-05 -1.112844e-04 -2.903154e-04 -5.420506e-04 -8.831273e-04 -1.335386e-03 -1.919569e-03 -2.661834e-03 -3.585449e-03 -4.718171e-03 -6.082402e-03 -7.702580e-03 -9.594763e-03 -1.177296e-02 -1.423957e-02 -1.698960e-02 -2.000367e-02 -2.324936e-02 -2.667845e-02 -3.022516e-02 -3.380877e-02 -3.732925e-02 -4.067512e-02 -4.371773e-02 -4.632274e-02 -4.834479e-02 -4.963950e-02 -5.006036e-02 -4.946797e-02 -4.773075e-02 -4.472886e-02 -4.036049e-02 -3.453988e-02 -2.721056e-02 -1.833924e-02 -7.936292e-03 3.951575e-03 1.721601e-02 3.169398e-02 4.714444e-02 6.325697e-02 7.964198e-02 9.584626e-02 1.113691e-01 1.256881e-01 1.383042e-01 1.487715e-01 1.567561e-01 1.620514e-01 1.646225e-01 1.645958e-01 1.622730e-01 1.581085e-01 1.527080e-01 1.468074e-01 1.412525e-01 1.369350e-01 1.347092e-01 1.352477e-01 1.389370e-01 1.457489e-01 1.552331e-01 1.665115e-01 1.783959e-01 1.894889e-01 1.983264e-01 2.034855e-01 2.037559e-01 1.983779e-01 1.873412e-01 1.715713e-01 1.527637e-01 1.328593e-01 1.135090e-01 9.579845e-02 8.024611e-02 6.694161e-02 5.572878e-02 4.633875e-02 3.848740e-02 3.191329e-02 2.639946e-02 2.176862e-02 1.788025e-02 1.462004e-02 1.189462e-02 9.625434e-03 7.745187e-03 6.195998e-03 4.926726e-03 3.893599e-03 3.057398e-03 2.385465e-03 1.848230e-03 
2.126130e-03 1.620759e-03 1.225294e-03 9.165931e-04 6.784070e-04 4.945358e-04 3.549823e-04 2.485081e-04 1.694841e-04 1.101010e-04 6.763640e-05 3.661109e-05 1.613218e-05 2.316688e-06 -4.657857e-06 -7.537615e-06 -5.591392e-06 -7.065412e-07 8.054967e-06 1.947810e-05 3.446205e-05 5.228355e-05 7.358935e-05 9.788886e-05 1.253206e-04 1.552033e-04 1.867874e-04 2.185287e-04 2.482025e-04 2.724096e-04 2.865876e-04 2.841419e-04 2.570149e-04 1.937838e-04 8.152569e-05 -9.773487e-05 -3.631272e-04 -7.405892e-04 -1.256309e-03 -1.944635e-03 -2.838483e-03 -3.979233e-03 -5.404155e-03 -7.157513e-03 -9.275668e-03 -1.179813e-02 -1.475173e-02 -1.816004e-02 -2.202869e-02 -2.635167e-02 -3.110035e-02 -3.622553e-02 -4.165277e-02 -4.727999e-02 -5.298077e-02 -5.859842e-02 -6.395720e-02 -6.885477e-02 -7.307882e-02 -7.640057e-02 -7.859198e-02 -7.942305e-02 -7.867413e-02 -7.613944e-02 -7.163042e-02 -6.498780e-02 -5.607536e-02 -4.480254e-02 -3.111204e-02 -1.501364e-02 3.429271e-03 2.405736e-02 4.662727e-02 7.077051e-02 9.600765e-02 1.217266e-01 1.472095e-01 1.716515e-01 1.942086e-01 2.140644e-01 2.304893e-01 2.429307e-01 2.510492e-01 2.547827e-01 2.543310e-01 2.501691e-01 2.430062e-01 2.337862e-01 2.236666e-01 2.140073e-01 2.062851e-01 2.019553e-01 2.021987e-01 2.077232e-01 2.185354e-01 2.339188e-01 2.524332e-01 2.721249e-01 2.907207e-01 3.058482e-01 3.151482e-01 3.164886e-01 3.083682e-01 2.905539e-01 2.646481e-01 2.338412e-01 2.017035e-01 1.710669e-01 1.435861e-01 1.198776e-01 9.986776e-02 8.315084e-02 6.921219e-02 5.756812e-02 4.780499e-02 3.959602e-02 3.268221e-02 2.686200e-02 2.197175e-02 1.787757e-02 1.446526e-02 1.163643e-02 9.305104e-03 7.395272e-03 5.840987e-03 4.583543e-03 3.573372e-03 2.766188e-03 
2.818876e-03 2.144496e-03 1.617352e-03 1.205889e-03 8.889029e-04 6.441410e-04 4.588617e-04 3.174256e-04 2.129892e-04 1.344671e-04 7.892645e-05 3.837771e-05 1.233345e-05 -5.055636e-06 -1.286871e-05 -1.539520e-05 -1.101602e-05 -2.797511e-06 1.109832e-05 2.860951e-05 5.145267e-05 7.834994e-05 1.106019e-04 1.473750e-04 1.892022e-04 2.351135e-04 2.843502e-04 3.348645e-04 3.837890e-04 4.265906e-04 4.570819e-04 4.663231e-04 4.431649e-04 3.718929e-04 2.344271e-04 5.734219e-06 -3.411634e-04 -8.427756e-04 -1.536304e-03 -2.470592e-03 -3.692768e-03 -5.262316e-03 -7.233123e-03 -9.669693e-03 -1.262537e-02 -1.615899e-02 -2.031115e-02 -2.511905e-02 -3.059379e-02 -3.673107e-02 -4.349342e-02 -5.081493e-02 -5.859238e-02 -6.668344e-02 -7.490964e-02 -8.304905e-02 -9.085150e-02 -9.802825e-02 -1.042762e-01 -1.092681e-01 -1.126791e-01 -1.141809e-01 -1.134622e-01 -1.102307e-01 -1.042205e-01 -9.520504e-02 -8.299117e-02 -6.744535e-02 -4.847942e-02 -2.609307e-02 -3.590043e-04 2.852061e-02 6.022435e-02 9.425396e-02 1.299448e-01 1.664346e-01 2.026906e-01 2.375412e-01 2.697350e-01 2.980531e-01 3.213906e-01 3.389112e-01 3.500952e-01 3.548477e-01 3.534572e-01 3.466066e-01 3.352916e-01 3.208247e-01 3.048304e-01 2.892854e-01 2.764349e-01 2.685922e-01 2.677003e-01 2.749864e-01 2.905599e-01 3.133785e-01 3.412554e-01 3.712125e-01 3.998839e-01 4.238249e-01 4.395142e-01 4.434595e-01 4.327725e-01 4.064200e-01 3.669461e-01 3.202709e-01 2.727435e-01 2.288345e-01 1.906496e-01 1.585513e-01 1.319602e-01 1.099850e-01 9.173809e-02 7.648529e-02 6.365317e-02 5.281555e-02 4.364803e-02 3.590188e-02 2.937546e-02 2.390090e-02 1.933318e-02 1.554436e-02 1.242188e-02 9.864387e-03 7.784160e-03 6.102006e-03 4.751709e-03 3.673258e-03 
3.495186e-03 2.651820e-03 1.992708e-03 1.478787e-03 1.082777e-03 7.774438e-04 5.461695e-04 3.700919e-04 2.399915e-04 1.427371e-04 7.400412e-05 2.452983e-05 -6.939613e-06 -2.701788e-05 -3.515921e-05 -3.606939e-05 -2.825611e-05 -1.494759e-05 5.731815e-06 3.175317e-05 6.497982e-05 1.043038e-04 1.512227e-04 2.051183e-04 2.666727e-04 3.350134e-04 4.093050e-04 4.871984e-04 5.652219e-04 6.377016e-04 6.968511e-04 7.311153e-04 7.260996e-04 6.611708e-04 5.125427e-04 2.470009e-04 -1.714767e-04 -7.917684e-04 -1.664186e-03 -2.854716e-03 -4.427889e-03 -6.464917e-03 -9.040619e-03 -1.224427e-02 -1.615139e-02 -2.084519e-02 -2.638542e-02 -3.282762e-02 -4.019269e-02 -4.848110e-02 -5.764808e-02 -6.761056e-02 -7.823346e-02 -8.932859e-02 -1.006562e-01 -1.119177e-01 -1.227728e-01 -1.328296e-01 -1.416743e-01 -1.488620e-01 -1.539496e-01 -1.564930e-01 -1.560705e-01 -1.522897e-01 -1.447931e-01 -1.332780e-01 -1.174823e-01 -9.722182e-02 -7.236477e-02 -4.289032e-02 -8.865253e-03 2.947643e-02 7.174619e-02 1.173137e-01 1.653162e-01 2.146004e-01 2.637572e-01 3.111472e-01 3.549955e-01 3.935371e-01 4.251629e-01 4.486392e-01 4.632101e-01 4.687404e-01 4.656552e-01 4.549076e-01 4.378267e-01 4.161021e-01 3.918370e-01 3.677220e-01 3.470487e-01 3.334189e-01 3.299835e-01 3.388272e-01 3.602872e-01 3.928810e-01 4.333691e-01 4.772471e-01 5.197531e-01 5.562945e-01 5.820655e-01 5.915788e-01 5.792976e-01 5.416357e-01 4.823135e-01 4.129828e-01 3.451278e-01 2.853754e-01 2.356897e-01 1.953658e-01 1.627089e-01 1.360063e-01 1.138630e-01 9.527109e-02 7.952131e-02 6.612420e-02 5.472154e-02 4.504148e-02 3.685901e-02 2.998182e-02 2.423792e-02 1.947244e-02 1.554576e-02 1.233164e-02 9.719075e-03 7.608486e-03 5.915498e-03 4.564736e-03 
4.144412e-03 3.132504e-03 2.342744e-03 1.727105e-03 1.253586e-03 8.884798e-04 6.128352e-04 4.029844e-04 2.489934e-04 1.340199e-04 5.406577e-05 -3.109853e-06 -3.781020e-05 -5.909165e-05 -6.512602e-05 -6.260984e-05 -4.863502e-05 -2.798580e-05 2.631327e-06 4.007165e-05 8.752769e-05 1.432027e-04 2.097543e-04 2.862280e-04 3.741889e-04 4.725975e-04 5.810405e-04 6.968279e-04 8.161329e-04 9.322067e-04 1.035627e-03 1.112210e-03 1.143915e-03 1.104834e-03 9.645775e-04 6.807162e-04 2.065966e-04 -5.211295e-04 -1.568392e-03 -3.021884e-03 -4.967182e-03 -7.512528e-03 -1.075855e-02 -1.482633e-02 -1.981948e-02 -2.585386e-02 -3.301459e-02 -4.138384e-02 -5.099747e-02 -6.186685e-02 -7.394191e-02 -8.712368e-02 -1.012415e-01 -1.160548e-01 -1.312512e-01 -1.464393e-01 -1.611693e-01 -1.749217e-01 -1.871463e-01 -1.972515e-01 -2.046500e-01 -2.087537e-01 -2.090094e-01 -2.049035e-01 -1.959733e-01 -1.818256e-01 -1.621214e-01 -1.366131e-01 -1.051151e-01 -6.756832e-02 -2.401521e-02 2.530235e-02 7.994788e-02 1.391729e-01 2.019078e-01 2.666745e-01 3.316049e-01 3.944719e-01 4.527954e-01 5.040679e-01 5.459550e-01 5.766619e-01 5.950865e-01 6.010689e-01 5.952572e-01 5.790131e-01 5.540676e-01 5.224508e-01 4.866236e-01 4.500136e-01 4.173435e-01 3.942810e-01 3.859400e-01 3.958726e-01 4.248182e-01 4.706507e-01 5.286505e-01 5.916310e-01 6.530295e-01 7.073814e-01 7.490510e-01 7.698333e-01 7.595120e-01 7.065229e-01 6.151862e-01 5.110843e-01 4.156339e-01 3.374597e-01 2.764256e-01 2.290518e-01 1.915766e-01 1.611002e-01 1.356687e-01 1.140690e-01 9.554856e-02 7.963064e-02 6.597726e-02 5.432507e-02 4.444454e-02 3.612655e-02 2.917620e-02 2.341108e-02 1.866458e-02 1.478314e-02 1.163208e-02 9.089253e-03 7.052235e-03 5.428479e-03 
4.756741e-03 3.577664e-03 2.657731e-03 1.941474e-03 1.390496e-03 9.663837e-04 6.461230e-04 4.031577e-04 2.250218e-04 9.315379e-05 2.002046e-06 -6.165382e-05 -9.905150e-05 -1.197496e-04 -1.224486e-04 -1.140147e-04 -9.177335e-05 -6.041535e-05 -1.663293e-05 3.675204e-05 1.031714e-04 1.813435e-04 2.743498e-04 3.818580e-04 5.059340e-04 6.460812e-04 8.022291e-04 9.717969e-04 1.150713e-03 1.331308e-03 1.502637e-03 1.647656e-03 1.744520e-03 1.761278e-03 1.660144e-03 1.387916e-03 8.854530e-04 7.225230e-05 -1.136617e-03 -2.852740e-03 -5.188054e-03 -8.283828e-03 -1.227393e-02 -1.731913e-02 -2.356039e-02 -3.115551e-02 -4.022509e-02 -5.088726e-02 -6.320172e-02 -7.719775e-02 -9.282450e-02 -1.099683e-01 -1.284194e-01 -1.478766e-01 -1.679398e-01 -1.881048e-01 -2.077851e-01 -2.263028e-01 -2.429350e-01 -2.569074e-01 -2.674502e-01 -2.737995e-01 -2.752390e-01 -2.711129e-01 -2.608335e-01 -2.439076e-01 -2.199069e-01 -1.885141e-01 -1.494732e-01 -1.026692e-01 -4.808931e-02 1.405070e-02 8.330755e-02 1.588435e-01 2.393958e-01 3.231266e-01 4.076253e-01 4.899041e-01 5.665443e-01 6.339798e-01 6.888377e-01 7.284733e-01 7.512988e-01 7.571527e-01 7.471309e-01 7.232854e-01 6.879243e-01 6.432551e-01 5.916569e-01 5.369586e-01 4.858464e-01 4.475361e-01 4.303602e-01 4.404440e-01 4.791949e-01 5.433220e-01 6.265876e-01 7.158486e-01 8.022805e-01 8.806977e-01 9.470106e-01 9.896045e-01 9.928770e-01 9.198395e-01 7.701152e-01 6.088980e-01 4.763539e-01 3.791100e-01 3.095361e-01 2.582575e-01 2.183164e-01 1.855016e-01 1.575219e-01 1.332180e-01 1.119927e-01 9.350927e-02 7.752100e-02 6.380994e-02 5.215651e-02 4.234023e-02 3.414157e-02 2.734890e-02 2.176431e-02 1.720524e-02 1.350978e-02 1.053261e-02 8.150694e-03 6.254778e-03 
5.312797e-03 3.968919e-03 2.921901e-03 2.106858e-03 1.481140e-03 9.995114e-04 6.372837e-04 3.626944e-04 1.632938e-04 1.630641e-05 -8.274643e-05 -1.506542e-04 -1.869673e-04 -2.043152e-04 -1.993964e-04 -1.816645e-04 -1.463195e-04 -1.001006e-04 -3.756492e-05 3.702735e-05 1.291843e-04 2.368307e-04 3.650017e-04 5.131602e-04 6.850902e-04 8.804665e-04 1.100469e-03 1.342617e-03 1.603181e-03 1.873750e-03 2.142065e-03 2.388319e-03 2.586571e-03 2.698433e-03 2.677709e-03 2.459014e-03 1.968642e-03 1.105862e-03 -2.368424e-04 -2.201380e-03 -4.931611e-03 -8.610231e-03 -1.341222e-02 -1.954964e-02 -2.721091e-02 -3.661007e-02 -4.791462e-02 -6.129392e-02 -7.684204e-02 -9.461893e-02 -1.145790e-01 -1.365990e-01 -1.604264e-01 -1.856915e-01 -2.118889e-01 -2.383757e-01 -2.643952e-01 -2.890681e-01 -3.114533e-01 -3.305418e-01 -3.453342e-01 -3.548424e-01 -3.581522e-01 -3.544336e-01 -3.429588e-01 -3.231216e-01 -2.944034e-01 -2.564102e-01 -2.088091e-01 -1.514057e-01 -8.409677e-02 -7.015856e-03 7.945314e-02 1.744544e-01 2.765806e-01 3.836410e-01 4.925989e-01 5.995212e-01 6.997144e-01 7.881204e-01 8.597948e-01 9.107922e-01 9.387312e-01 9.435249e-01 9.271188e-01 8.929306e-01 8.442764e-01 7.832888e-01 7.110068e-01 6.303242e-01 5.503778e-01 4.874302e-01 4.547265e-01 4.633268e-01 5.154416e-01 6.045642e-01 7.270646e-01 8.522740e-01 9.698521e-01 1.077297e+00 1.180693e+00 1.261321e+00 1.315514e+00 1.222365e+00 9.478019e-01 6.878762e-01 5.104460e-01 4.008126e-01 3.313071e-01 2.823932e-01 2.435809e-01 2.101296e-01 1.802151e-01 1.532827e-01 1.292094e-01 1.079582e-01 8.944616e-02 7.352415e-02 5.998680e-02 4.859542e-02 3.909925e-02 3.124870e-02 2.480971e-02 1.956473e-02 1.532265e-02 1.191132e-02 9.187057e-03 7.021399e-03 
5.795856e-03 4.291139e-03 3.118970e-03 2.207421e-03 1.507410e-03 9.695514e-04 5.651065e-04 2.599588e-04 3.909409e-05 -1.215358e-04 -2.280658e-04 -2.979113e-04 -3.317109e-04 -3.423099e-04 -3.270943e-04 -2.954231e-04 -2.428320e-04 -1.756697e-04 -8.845566e-05 1.525893e-05 1.414342e-04 2.890337e-04 4.639621e-04 6.669920e-04 9.030895e-04 1.173307e-03 1.480019e-03 1.821743e-03 2.195353e-03 2.592249e-03 2.999169e-03 3.393621e-03 3.745533e-03 4.009443e-03 4.129822e-03 4.027351e-03 3.611257e-03 2.757149e-03 1.330068e-03 -8.480393e-04 -3.960940e-03 -8.241668e-03 -1.391797e-02 -2.126566e-02 -3.053588e-02 -4.201458e-02 -5.593386e-02 -7.253145e-02 -9.195301e-02 -1.143040e-01 -1.395554e-01 -1.675810e-01 -1.980840e-01 -2.306166e-01 -2.645461e-01 -2.990600e-01 -3.331856e-01 -3.657896e-01 -3.956482e-01 -4.214537e-01 -4.419089e-01 -4.557462e-01 -4.618018e-01 -4.590429e-01 -4.465796e-01 -4.236940e-01 -3.897779e-01 -3.443708e-01 -2.870583e-01 -2.175486e-01 -1.355996e-01 -4.118501e-02 6.548006e-02 1.836452e-01 3.118760e-01 4.476864e-01 5.873751e-01 7.258387e-01 8.566933e-01 9.727194e-01 1.066608e+00 1.132283e+00 1.166057e+00 1.167936e+00 1.141567e+00 1.093152e+00 1.028336e+00 9.489069e-01 8.517594e-01 7.342725e-01 6.075892e-01 5.052158e-01 4.450739e-01 4.495643e-01 5.220126e-01 6.404285e-01 8.339457e-01 1.006655e+00 1.159111e+00 1.290776e+00 1.451215e+00 1.574675e+00 1.801775e+00 1.722290e+00 1.124364e+00 6.955655e-01 4.864490e-01 3.910313e-01 3.403268e-01 3.035525e-01 2.699468e-01 2.370337e-01 2.051192e-01 1.750844e-01 1.476423e-01 1.231872e-01 1.018265e-01 8.346973e-02 6.790212e-02 5.484621e-02 4.400066e-02 3.506606e-02 2.776121e-02 2.182872e-02 1.704245e-02 1.320239e-02 1.014087e-02 7.711143e-03 
6.173519e-03 4.513283e-03 3.221358e-03 2.216407e-03 1.446106e-03 8.541555e-04 4.112505e-04 7.773399e-05 -1.602934e-04 -3.316791e-04 -4.404359e-04 -5.083248e-04 -5.333078e-04 -5.321672e-04 -4.993446e-04 -4.476203e-04 -3.694759e-04 -2.739841e-04 -1.525652e-04 -1.061198e-05 1.609695e-04 3.603045e-04 5.964542e-04 8.703430e-04 1.190025e-03 1.557460e-03 1.977765e-03 2.450550e-03 2.974488e-03 3.541208e-03 4.137224e-03 4.737729e-03 5.308694e-03 5.797350e-03 6.138058e-03 6.235945e-03 5.980904e-03 5.220880e-03 3.788939e-03 1.463330e-03 -1.987338e-03 -6.858710e-03 -1.344308e-02 -2.209781e-02 -3.315302e-02 -4.698978e-02 -6.392472e-02 -8.429052e-02 -1.083051e-01 -1.361442e-01 -1.678110e-01 -2.031907e-01 -2.419433e-01 -2.835354e-01 -3.271836e-01 -3.718665e-01 -4.163406e-01 -4.591452e-01 -4.986935e-01 -5.332855e-01 -5.612413e-01 -5.809288e-01 -5.908761e-01 -5.898022e-01 -5.766448e-01 -5.505777e-01 -5.109320e-01 -4.572076e-01 -3.889309e-01 -3.057056e-01 -2.071039e-01 -9.283622e-02 3.721255e-02 1.826083e-01 3.421194e-01 5.131549e-01 6.914112e-01 8.704513e-01 1.041682e+00 1.194825e+00 1.318898e+00 1.404291e+00 1.444811e+00 1.440404e+00 1.397724e+00 1.328846e+00 1.245185e+00 1.149279e+00 1.028188e+00 8.605294e-01 6.508965e-01 4.886454e-01 3.773934e-01 3.741600e-01 4.896381e-01 6.087756e-01 9.711208e-01 1.192520e+00 1.381754e+00 1.489749e+00 1.774536e+00 1.801850e+00 2.614716e+00 2.762178e+00 1.147886e+00 4.956979e-01 3.590795e-01 3.458991e-01 3.440551e-01 3.295167e-01 3.028959e-01 2.695018e-01 2.340028e-01 1.994707e-01 1.676271e-01 1.392659e-01 1.146075e-01 9.354189e-02 7.578677e-02 6.098203e-02 4.874855e-02 3.871683e-02 3.054823e-02 2.393655e-02 1.861795e-02 1.436036e-02 1.097273e-02 8.287469e-03 
6.419906e-03 4.611251e-03 3.202904e-03 2.107698e-03 1.267433e-03 6.227598e-04 1.407010e-04 -2.198785e-04 -4.752855e-04 -6.550038e-04 -7.647451e-04 -8.264632e-04 -8.393907e-04 -8.202242e-04 -7.643248e-04 -6.841128e-04 -5.725717e-04 -4.380466e-04 -2.718935e-04 -7.827815e-05 1.526858e-04 4.209576e-04 7.372153e-04 1.104831e-03 1.534233e-03 2.030245e-03 2.600753e-03 3.248110e-03 3.973342e-03 4.769617e-03 5.623947e-03 6.510024e-03 7.390208e-03 8.204401e-03 8.876053e-03 9.293289e-03 9.323701e-03 8.783797e-03 7.468301e-03 5.104452e-03 1.402100e-03 -4.009264e-03 -1.150365e-02 -2.153842e-02 -3.454652e-02 -5.102921e-02 -7.141731e-02 -9.616855e-02 -1.256048e-01 -1.600023e-01 -1.994218e-01 -2.437797e-01 -2.926994e-01 -3.455568e-01 -4.013894e-01 -4.589213e-01 -5.165644e-01 -5.724409e-01 -6.244863e-01 -6.704912e-01 -7.082688e-01 -7.357207e-01 -7.509801e-01 -7.524772e-01 -7.389630e-01 -7.095371e-01 -6.635201e-01 -6.004397e-01 -5.198169e-01 -4.211687e-01 -3.038413e-01 -1.671512e-01 -1.042799e-02 1.665430e-01 3.631271e-01 5.770202e-01 8.035807e-01 1.034987e+00 1.259902e+00 1.463741e+00 1.629896e+00 1.742686e+00 1.791059e+00 1.773810e+00 1.702510e+00 1.600959e+00 1.495232e+00 1.394733e+00 1.269749e+00 1.044174e+00 6.578817e-01 4.284012e-01 2.066573e-01 1.927572e-01 5.666413e-01 5.019062e-01 7.333484e-01 1.121576e+00 1.028061e+00 6.224310e-01 6.586564e-01 2.441139e-01 1.169169e+00 1.250279e+00 -4.156246e-01 -2.070942e-01 1.187016e-01 2.994942e-01 3.700886e-01 3.765977e-01 3.508920e-01 3.115327e-01 2.685496e-01 2.270032e-01 1.892177e-01 1.560463e-01 1.275798e-01 1.035340e-01 8.345902e-02 6.685372e-02 5.322304e-02 4.210769e-02 3.309726e-02 2.583162e-02 2.000356e-02 1.534921e-02 1.165135e-02 8.723887e-03 
6.483781e-03 4.534644e-03 3.016909e-03 1.834925e-03 9.292147e-04 2.338801e-04 -2.828162e-04 -6.677634e-04 -9.345237e-04 -1.118096e-03 -1.220615e-03 -1.269460e-03 -1.259890e-03 -1.213797e-03 -1.122411e-03 -1.002799e-03 -8.437354e-04 -6.572669e-04 -4.304153e-04 -1.697266e-04 1.392586e-04 4.957134e-04 9.152330e-04 1.402074e-03 1.971909e-03 2.631888e-03 3.395179e-03 4.267198e-03 5.253523e-03 6.349745e-03 7.545191e-03 8.813016e-03 1.011317e-02 1.137852e-02 1.252171e-02 1.341243e-02 1.389412e-02 1.374726e-02 1.272321e-02 1.048861e-02 6.684733e-03 8.494952e-04 -7.489260e-03 -1.891474e-02 -3.398733e-02 -5.336448e-02 -7.762422e-02 -1.073940e-01 -1.431379e-01 -1.852797e-01 -2.339727e-01 -2.891998e-01 -3.505635e-01 -4.173506e-01 -4.883937e-01 -5.621072e-01 -6.364716e-01 -7.090676e-01 -7.772084e-01 -8.380034e-01 -8.885971e-01 -9.262668e-01 -9.486443e-01 -9.538029e-01 -9.403133e-01 -9.072547e-01 -8.540465e-01 -7.803704e-01 -6.858641e-01 -5.700368e-01 -4.320023e-01 -2.705565e-01 -8.417766e-02 1.284684e-01 3.679963e-01 6.331153e-01 9.195192e-01 1.218322e+00 1.515097e+00 1.789507e+00 2.016453e+00 2.169931e+00 2.229017e+00 2.187763e+00 2.063737e+00 1.902480e+00 1.764482e+00 1.689080e+00 1.635637e+00 1.409879e+00 5.194709e-01 4.497954e-01 1.052702e+00 6.619917e-01 -1.728718e-01 -3.693348e-01 -8.965513e-01 -2.156476e+00 -2.681170e+00 -3.256908e+00 -3.592148e+00 -3.770116e+00 -3.946181e+00 -4.085586e+00 -2.980742e+00 -8.926800e-01 3.282037e-02 3.744015e-01 4.711246e-01 4.661923e-01 4.219027e-01 3.655569e-01 3.090419e-01 2.572261e-01 2.117873e-01 1.729367e-01 1.402504e-01 1.130554e-01 9.061808e-02 7.223025e-02 5.724748e-02 4.510053e-02 3.529947e-02 2.742420e-02 2.112447e-02 1.610255e-02 1.211797e-02 8.964689e-03 
6.327525e-03 4.246488e-03 2.622106e-03 1.355429e-03 3.825927e-04 -3.634326e-04 -9.171461e-04 -1.325551e-03 -1.604212e-03 -1.787882e-03 -1.880407e-03 -1.908859e-03 -1.870080e-03 -1.785617e-03 -1.648068e-03 -1.473946e-03 -1.252904e-03 -9.959331e-04 -6.900708e-04 -3.399728e-04 7.005134e-05 5.421826e-04 1.094773e-03 1.736344e-03 2.486887e-03 3.358934e-03 4.371147e-03 5.534829e-03 6.861188e-03 8.350830e-03 9.996888e-03 1.177417e-02 1.364141e-02 1.552579e-02 1.732899e-02 1.890199e-02 2.006116e-02 2.054771e-02 2.006211e-02 1.820228e-02 1.452654e-02 8.465779e-03 -5.740749e-04 -1.332765e-02 -3.051812e-02 -5.299710e-02 -8.153736e-02 -1.169864e-01 -1.600072e-01 -2.112276e-01 -2.709484e-01 -3.392675e-01 -4.157963e-01 -4.997453e-01 -5.897152e-01 -6.837513e-01 -7.792878e-01 -8.732103e-01 -9.620037e-01 -1.041874e+00 -1.109056e+00 -1.160003e+00 -1.191683e+00 -1.201747e+00 -1.188594e+00 -1.151398e+00 -1.089850e+00 -1.004003e+00 -8.938298e-01 -7.589935e-01 -5.984502e-01 -4.103571e-01 -1.920109e-01 5.971057e-02 3.476267e-01 6.727085e-01 1.032267e+00 1.417366e+00 1.810660e+00 2.184693e+00 2.502121e+00 2.719857e+00 2.797526e+00 2.714704e+00 2.491340e+00 2.207915e+00 1.997659e+00 1.989507e+00 2.206930e+00 2.509542e+00 -4.975247e-01 -2.410960e+00 -1.587172e+00 -2.145309e+00 -3.019406e+00 -4.826722e+00 -5.267673e+00 -5.303314e+00 -5.191323e+00 -4.747681e+00 -4.754428e+00 -4.225150e+00 -4.962516e+00 -4.812473e+00 -2.215408e+00 -1.516463e-01 5.451295e-01 7.088417e-01 6.873079e-01 6.073682e-01 5.157836e-01 4.292475e-01 3.530856e-01 2.882067e-01 2.338960e-01 1.889017e-01 1.518836e-01 1.215868e-01 9.689580e-02 7.685082e-02 6.063455e-02 4.756074e-02 3.705522e-02 2.864031e-02 2.192223e-02 1.657384e-02 1.233116e-02 8.973071e-03 
5.871958e-03 3.666164e-03 1.940614e-03 5.901032e-04 -4.472111e-04 -1.243929e-03 -1.830537e-03 -2.259878e-03 -2.542421e-03 -2.719398e-03 -2.789111e-03 -2.785659e-03 -2.700273e-03 -2.561629e-03 -2.356791e-03 -2.108824e-03 -1.801841e-03 -1.452046e-03 -1.040674e-03 -5.755497e-04 -3.455845e-05 5.838765e-04 1.305494e-03 2.141018e-03 3.118949e-03 4.256648e-03 5.582175e-03 7.113485e-03 8.871145e-03 1.086250e-02 1.308800e-02 1.552620e-02 1.813764e-02 2.084537e-02 2.354203e-02 2.605943e-02 2.818659e-02 2.962107e-02 3.000809e-02 2.886590e-02 2.565881e-02 1.968970e-02 1.022146e-02 -3.666992e-03 -2.289663e-02 -4.856603e-02 -8.169459e-02 -1.234215e-01 -1.746764e-01 -2.363763e-01 -3.090426e-01 -3.929667e-01 -4.878223e-01 -5.927766e-01 -7.061860e-01 -8.256605e-01 -9.479583e-01 -1.069061e+00 -1.184362e+00 -1.288833e+00 -1.377478e+00 -1.445607e+00 -1.489307e+00 -1.505690e+00 -1.493027e+00 -1.450755e+00 -1.379132e+00 -1.278941e+00 -1.150859e+00 -9.950329e-01 -8.104629e-01 -5.946811e-01 -3.434670e-01 -5.113896e-02 2.887034e-01 6.811864e-01 1.127595e+00 1.621193e+00 2.143347e+00 2.659088e+00 3.115077e+00 3.441544e+00 3.561953e+00 3.418165e+00 3.013230e+00 2.469086e+00 2.054672e+00 2.093905e+00 2.889457e+00 -5.093896e-01 -3.130847e+00 -2.825566e+00 -4.297223e+00 -7.355758e+00 -6.639311e+00 -4.056287e+00 -2.817606e+00 -9.935623e-01 -2.751133e-01 4.626661e-01 7.389684e-01 1.229404e+00 1.278431e+00 1.946821e+00 2.479316e+00 2.112006e+00 1.612910e+00 1.247817e+00 9.784009e-01 7.745089e-01 6.169067e-01 4.931335e-01 3.948902e-01 3.163480e-01 2.532704e-01 2.024768e-01 1.615195e-01 1.284857e-01 1.018540e-01 8.040792e-02 6.316279e-02 4.932111e-02 3.823370e-02 2.937041e-02 2.230206e-02 1.667498e-02 1.220853e-02 8.667162e-03 
5.063295e-03 2.737073e-03 9.071102e-04 -5.309260e-04 -1.640597e-03 -2.492668e-03 -3.118802e-03 -3.569962e-03 -3.857928e-03 -4.022527e-03 -4.063837e-03 -4.015161e-03 -3.869956e-03 -3.656501e-03 -3.364173e-03 -3.015546e-03 -2.596509e-03 -2.122032e-03 -1.573801e-03 -9.569905e-04 -2.478363e-04 5.599027e-04 1.496321e-03 2.579197e-03 3.844350e-03 5.318590e-03 7.039919e-03 9.037511e-03 1.134325e-02 1.397582e-02 1.694580e-02 2.023998e-02 2.382347e-02 2.761909e-02 3.151179e-02 3.531656e-02 3.879316e-02 4.159443e-02 4.330268e-02 4.334927e-02 4.108765e-02 3.567541e-02 2.620199e-02 1.152730e-02 -9.516428e-03 -3.832856e-02 -7.624707e-02 -1.247826e-01 -1.852266e-01 -2.588886e-01 -3.466185e-01 -4.490095e-01 -5.658842e-01 -6.964328e-01 -8.387689e-01 -9.900118e-01 -1.146077e+00 -1.301788e+00 -1.451068e+00 -1.587218e+00 -1.703520e+00 -1.793709e+00 -1.852659e+00 -1.876808e+00 -1.864362e+00 -1.815313e+00 -1.730926e+00 -1.613252e+00 -1.464257e+00 -1.285088e+00 -1.075254e+00 -8.318552e-01 -5.490016e-01 -2.175539e-01 1.742022e-01 6.384101e-01 1.183993e+00 1.810695e+00 2.502480e+00 3.219237e+00 3.889640e+00 4.407209e+00 4.633451e+00 4.427017e+00 3.712665e+00 2.626926e+00 1.670159e+00 1.595095e+00 -2.547300e+00 -6.031592e+00 -3.796387e+00 -8.252240e+00 -9.528107e+00 -2.261429e+00 1.089859e+00 2.980775e+00 4.236492e+00 5.147510e+00 5.066325e+00 5.361648e+00 5.445576e+00 5.398223e+00 5.745164e+00 6.503248e+00 6.790750e+00 4.285128e+00 2.575571e+00 1.715267e+00 1.223692e+00 9.118150e-01 6.979231e-01 5.430508e-01 4.267432e-01 3.372663e-01 2.673243e-01 2.120885e-01 1.681740e-01 1.331231e-01 1.050813e-01 8.262775e-02 6.464494e-02 5.025126e-02 3.873947e-02 2.954271e-02 2.220452e-02 1.635509e-02 1.170033e-02 7.998282e-03 
3.778619e-03 1.330031e-03 -6.075990e-04 -2.141206e-03 -3.327417e-03 -4.240900e-03 -4.905266e-03 -5.377318e-03 -5.660434e-03 -5.802347e-03 -5.794993e-03 -5.681213e-03 -5.446912e-03 -5.130594e-03 -4.714644e-03 -4.231273e-03 -3.659542e-03 -3.022088e-03 -2.293279e-03 -1.482736e-03 -5.580771e-04 4.866466e-04 1.692207e-03 3.080765e-03 4.701376e-03 6.589859e-03 8.799962e-03 1.137363e-02 1.436000e-02 1.779221e-02 2.169710e-02 2.607369e-02 3.089772e-02 3.609554e-02 4.154969e-02 4.706020e-02 5.236055e-02 5.705642e-02 6.066546e-02 6.252178e-02 6.185781e-02 5.766242e-02 4.882751e-02 3.395061e-02 1.157155e-02 -2.008168e-02 -6.274160e-02 -1.183986e-01 -1.888187e-01 -2.758495e-01 -3.808131e-01 -5.047671e-01 -6.478232e-01 -8.093116e-01 -9.871551e-01 -1.177938e+00 -1.376567e+00 -1.576368e+00 -1.769313e+00 -1.946379e+00 -2.098438e+00 -2.216964e+00 -2.295130e+00 -2.328461e+00 -2.315224e+00 -2.256397e+00 -2.154954e+00 -2.015036e+00 -1.840745e+00 -1.635066e+00 -1.398767e+00 -1.129164e+00 -8.189026e-01 -4.547802e-01 -1.772966e-02 5.150731e-01 1.165774e+00 1.947499e+00 2.854952e+00 3.850346e+00 4.849854e+00 5.705611e+00 6.191165e+00 6.002656e+00 4.838585e+00 2.674343e+00 3.858674e-01 -2.954088e+00 -5.430052e+00 -4.616044e+00 -1.227699e+01 -9.143134e+00 2.111843e+00 6.889046e+00 7.246169e+00 6.915844e+00 6.820626e+00 5.707178e+00 5.559554e+00 4.644337e+00 4.436283e+00 3.851125e+00 3.551939e+00 3.856731e+00 6.108630e+00 4.317705e+00 2.724604e+00 1.842217e+00 1.311659e+00 9.692164e-01 7.347344e-01 5.666820e-01 4.420220e-01 3.472424e-01 2.738909e-01 2.164315e-01 1.710366e-01 1.349783e-01 1.062310e-01 8.326730e-02 6.490101e-02 5.020676e-02 3.844901e-02 2.904223e-02 2.151894e-02 1.550111e-02 1.069198e-02 6.845704e-03 