# vtk DataFile Version 2.0
Comment goes here
ASCII

DATASET STRUCTURED_POINTS
DIMENSIONS    128   128   1

ORIGIN    0.000   0.000   0.000
SPACING   0.0156250.015625   1.000

POINT_DATA   16384
SCALARS Omega double
LOOKUP_TABLE default

-3.829214e-07 -6.847207e-07 -7.748975e-07 -7.685638e-07 -6.851455e-07 -6.392086e-07 -6.299163e-07 -7.666704e-07 -1.032873e-06 -1.528968e-06 -2.228622e-06 -3.220864e-06 -4.476377e-06 -6.072049e-06 -7.982143e-06 -1.027256e-05 -1.292658e-05 -1.600203e-05 -1.949477e-05 -2.345875e-05 -2.790347e-05 -3.288399e-05 -3.842177e-05 -4.457809e-05 -5.138201e-05 -5.890591e-05 -6.717985e-05 -7.629187e-05 -8.626478e-05 -9.720700e-05 -1.091249e-04 -1.221530e-04 -1.362716e-04 -1.516492e-04 -1.682307e-04 -1.862288e-04 -2.055441e-04 -2.264464e-04 -2.487838e-04 -2.728963e-04 -2.985726e-04 -3.262325e-04 -3.555996e-04 -3.871738e-04 -4.206104e-04 -4.564731e-04 -4.943491e-04 -5.348271e-04 -5.774305e-04 -6.227091e-04 -6.701321e-04 -7.201233e-04 -7.721125e-04 -8.262982e-04 -8.820876e-04 -9.393594e-04 -9.975131e-04 -1.056038e-03 -1.114336e-03 -1.171482e-03 -1.226879e-03 -1.279225e-03 -1.327921e-03 -1.371388e-03 -1.409028e-03 -1.439145e-03 -1.461170e-03 -1.473495e-03 -1.475633e-03 -1.466303e-03 -1.445170e-03 -1.411500e-03 -1.365198e-03 -1.306228e-03 -1.234791e-03 -1.151596e-03 -1.057154e-03 -9.528274e-04 -8.394351e-04 -7.188131e-04 -5.921198e-04 -4.615053e-04 -3.285894e-04 -1.957774e-04 -6.530168e-05 6.022144e-05 1.780082e-04 2.855326e-04 3.800294e-04 4.597709e-04 5.230095e-04 5.695265e-04 5.992943e-04 6.136015e-04 6.139354e-04 6.024543e-04 5.814332e-04 5.532049e-04 5.200380e-04 4.838143e-04 4.461787e-04 4.082729e-04 3.710093e-04 3.349204e-04 3.004799e-04 2.678945e-04 2.374764e-04 2.092429e-04 1.833666e-04 1.597227e-04 1.383275e-04 1.190010e-04 1.016583e-04 8.614057e-05 7.232361e-05 6.009431e-05 4.932152e-05 3.992687e-05 3.178240e-05 2.482417e-05 1.893000e-05 1.403420e-05 1.002281e-05 6.819526e-06 4.322457e-06 2.441916e-06 1.092606e-06 1.725932e-07 
1.268500e-02 1.141920e-02 1.025845e-02 9.175976e-03 8.154344e-03 7.177608e-03 6.238690e-03 5.329082e-03 4.448775e-03 3.594144e-03 2.769461e-03 1.973926e-03 1.213629e-03 4.888104e-04 -1.948394e-04 -8.376867e-04 -1.436464e-03 -1.993741e-03 -2.510529e-03 -2.993193e-03 -3.448762e-03 -3.888988e-03 -4.328590e-03 -4.786287e-03 -5.286119e-03 -5.855276e-03 -6.528690e-03 -7.343334e-03 -8.346436e-03 -9.585683e-03 -1.112160e-02 -1.301289e-02 -1.533363e-02 -1.815284e-02 -2.155716e-02 -2.562388e-02 -3.044949e-02 -3.611574e-02 -4.272395e-02 -5.035437e-02 -5.910554e-02 -6.904802e-02 -8.026721e-02 -9.281349e-02 -1.067465e-01 -1.220842e-01 -1.388465e-01 -1.570061e-01 -1.765291e-01 -1.973313e-01 -2.193135e-01 -2.423261e-01 -2.661980e-01 -2.907113e-01 -3.156236e-01 -3.406531e-01 -3.654944e-01 -3.898151e-01 -4.132612e-01 -4.354689e-01 -4.560539e-01 -4.746424e-01 -4.908372e-01 -5.042746e-01 -5.145581e-01 -5.213522e-01 -5.242730e-01 -5.230320e-01 -5.172765e-01 -5.067933e-01 -4.912953e-01 -4.706884e-01 -4.448085e-01 -4.137356e-01 -3.775027e-01 -3.364131e-01 -2.907663e-01 -2.411090e-01 -1.880475e-01 -1.323566e-01 -7.494951e-02 -1.680224e-02 4.089781e-02 9.699899e-02 1.501311e-01 1.990718e-01 2.425380e-01 2.796090e-01 3.096527e-01 3.326986e-01 3.493562e-01 3.609261e-01 3.690447e-01 3.754342e-01 3.814441e-01 3.878858e-01 3.949295e-01 4.021499e-01 4.086039e-01 4.129942e-01 4.138574e-01 4.097460e-01 3.995209e-01 3.825822e-01 3.591588e-01 3.303548e-01 2.979369e-01 2.639630e-01 2.303102e-01 1.984726e-01 1.694049e-01 1.436094e-01 1.212067e-01 1.020712e-01 8.593014e-02 7.243702e-02 6.123408e-02 5.197106e-02 4.433477e-02 3.804429e-02 3.286145e-02 2.858150e-02 2.503428e-02 2.207718e-02 1.959247e-02 1.748319e-02 1.566988e-02 1.408778e-02 
2.557929e-02 2.308448e-02 2.079081e-02 1.864673e-02 1.661721e-02 1.467260e-02 1.279790e-02 1.097857e-02 9.213285e-03 7.497479e-03 5.838081e-03 4.236314e-03 2.702605e-03 1.240282e-03 -1.410236e-04 -1.439284e-03 -2.649590e-03 -3.774493e-03 -4.817437e-03 -5.788786e-03 -6.703780e-03 -7.583797e-03 -8.459215e-03 -9.365582e-03 -1.035172e-02 -1.147033e-02 -1.279191e-02 -1.438893e-02 -1.635645e-02 -1.878859e-02 -2.180716e-02 -2.552852e-02 -3.010183e-02 -3.566445e-02 -4.239106e-02 -5.043600e-02 -5.999413e-02 -7.122925e-02 -8.434646e-02 -9.950726e-02 -1.169118e-01 -1.367029e-01 -1.590549e-01 -1.840710e-01 -2.118744e-01 -2.425041e-01 -2.760037e-01 -3.123220e-01 -3.513944e-01 -3.930560e-01 -4.371103e-01 -4.832606e-01 -5.311649e-01 -5.803886e-01 -6.304444e-01 -6.807693e-01 -7.307469e-01 -7.797118e-01 -8.269493e-01 -8.717305e-01 -9.132805e-01 -9.508506e-01 -9.836417e-01 -1.010926e+00 -1.031908e+00 -1.045915e+00 -1.052176e+00 -1.050111e+00 -1.039005e+00 -1.018423e+00 -9.877765e-01 -9.468580e-01 -8.953218e-01 -8.333024e-01 -7.608514e-01 -6.785484e-01 -5.869905e-01 -4.872457e-01 -3.805407e-01 -2.683994e-01 -1.526739e-01 -3.529165e-02 8.133565e-02 1.948957e-01 3.025773e-01 4.018282e-01 4.899515e-01 5.648867e-01 6.252466e-01 6.709376e-01 7.032746e-01 7.250526e-01 7.399267e-01 7.517093e-01 7.632970e-01 7.763730e-01 7.912135e-01 8.068569e-01 8.212333e-01 8.315594e-01 8.346881e-01 8.274818e-01 8.073916e-01 7.730033e-01 7.247384e-01 6.650570e-01 5.979277e-01 5.279011e-01 4.589965e-01 3.942876e-01 3.356319e-01 2.839150e-01 2.392515e-01 2.012757e-01 1.693632e-01 1.427622e-01 1.207276e-01 1.025386e-01 8.756466e-02 7.524037e-02 6.509417e-02 5.671835e-02 4.977871e-02 4.399274e-02 3.913001e-02 3.499902e-02 3.144426e-02 2.833829e-02 
3.884755e-02 3.520310e-02 3.184014e-02 2.868238e-02 2.568145e-02 2.279234e-02 1.999692e-02 1.727185e-02 1.461974e-02 1.203161e-02 9.522670e-03 7.092337e-03 4.761147e-03 2.531702e-03 4.232432e-04 -1.563314e-03 -3.416063e-03 -5.140532e-03 -6.737699e-03 -8.224306e-03 -9.619415e-03 -1.095579e-02 -1.227560e-02 -1.363243e-02 -1.509648e-02 -1.674684e-02 -1.868655e-02 -2.102435e-02 -2.390056e-02 -2.745666e-02 -3.187362e-02 -3.732694e-02 -4.403942e-02 -5.221897e-02 -6.212788e-02 -7.400074e-02 -8.813169e-02 -1.047710e-01 -1.242301e-01 -1.467573e-01 -1.726589e-01 -2.021565e-01 -2.355199e-01 -2.729123e-01 -3.145284e-01 -3.604353e-01 -4.107089e-01 -4.652802e-01 -5.240623e-01 -5.868125e-01 -6.532439e-01 -7.229118e-01 -7.953073e-01 -8.697731e-01 -9.455774e-01 -1.021865e+00 -1.097706e+00 -1.172087e+00 -1.243929e+00 -1.312123e+00 -1.375500e+00 -1.432924e+00 -1.483191e+00 -1.525202e+00 -1.557761e+00 -1.579849e+00 -1.590306e+00 -1.588242e+00 -1.572572e+00 -1.542609e+00 -1.497434e+00 -1.436691e+00 -1.359806e+00 -1.266937e+00 -1.158098e+00 -1.034137e+00 -8.958977e-01 -7.449952e-01 -5.832297e-01 -4.129220e-01 -2.368165e-01 -5.783737e-02 1.204025e-01 2.943637e-01 4.596914e-01 6.123164e-01 7.477710e-01 8.625147e-01 9.539127e-01 1.021579e+00 1.067498e+00 1.096535e+00 1.115189e+00 1.130251e+00 1.146603e+00 1.166777e+00 1.191061e+00 1.217699e+00 1.243087e+00 1.262608e+00 1.270979e+00 1.262898e+00 1.233786e+00 1.180856e+00 1.104568e+00 1.009322e+00 9.023833e-01 7.917956e-01 6.842850e-01 5.846177e-01 4.953808e-01 4.175570e-01 3.509661e-01 2.947753e-01 2.478384e-01 2.089004e-01 1.767617e-01 1.503081e-01 1.285746e-01 1.107175e-01 9.603213e-02 8.392094e-02 7.389015e-02 6.552915e-02 5.849939e-02 5.252321e-02 4.737310e-02 4.286388e-02 
5.279074e-02 4.810150e-02 4.374851e-02 3.963642e-02 3.570263e-02 3.189319e-02 2.818404e-02 2.455022e-02 2.099418e-02 1.751041e-02 1.411743e-02 1.082121e-02 7.647047e-03 4.605277e-03 1.719447e-03 -1.002427e-03 -3.546367e-03 -5.913184e-03 -8.105703e-03 -1.014004e-02 -1.204266e-02 -1.385147e-02 -1.562326e-02 -1.742418e-02 -1.934802e-02 -2.149545e-02 -2.400389e-02 -2.701422e-02 -3.071373e-02 -3.528787e-02 -4.097874e-02 -4.801842e-02 -5.670601e-02 -6.731856e-02 -8.020962e-02 -9.569415e-02 -1.141706e-01 -1.359777e-01 -1.615399e-01 -1.911967e-01 -2.253687e-01 -2.643632e-01 -3.085555e-01 -3.581779e-01 -4.135075e-01 -4.746511e-01 -5.417276e-01 -6.146627e-01 -6.933562e-01 -7.774998e-01 -8.667212e-01 -9.604372e-01 -1.057970e+00 -1.158445e+00 -1.260877e+00 -1.364114e+00 -1.466898e+00 -1.567860e+00 -1.665533e+00 -1.758417e+00 -1.844928e+00 -1.923531e+00 -1.992606e+00 -2.050671e+00 -2.096124e+00 -2.127595e+00 -2.143528e+00 -2.142710e+00 -2.123668e+00 -2.085429e+00 -2.026709e+00 -1.946940e+00 -1.845266e+00 -1.721786e+00 -1.576433e+00 -1.410240e+00 -1.224294e+00 -1.020689e+00 -8.018532e-01 -5.708299e-01 -3.313400e-01 -8.720083e-02 1.566906e-01 3.956204e-01 6.235202e-01 8.345281e-01 1.021945e+00 1.179928e+00 1.303945e+00 1.392517e+00 1.448401e+00 1.479255e+00 1.496225e+00 1.510916e+00 1.530786e+00 1.558909e+00 1.595427e+00 1.637365e+00 1.678864e+00 1.712980e+00 1.731667e+00 1.726759e+00 1.690515e+00 1.617494e+00 1.507588e+00 1.368360e+00 1.212701e+00 1.054103e+00 9.028404e-01 7.653393e-01 6.444373e-01 5.406260e-01 4.529386e-01 3.797001e-01 3.190162e-01 2.689807e-01 2.278781e-01 1.941632e-01 1.665394e-01 1.438858e-01 1.252843e-01 1.099571e-01 9.727029e-02 8.669432e-02 7.779726e-02 7.022240e-02 6.367975e-02 5.793220e-02 
6.757972e-02 6.199480e-02 5.677134e-02 5.179419e-02 4.699501e-02 4.230703e-02 3.770994e-02 3.317107e-02 2.870352e-02 2.429772e-02 1.998715e-02 1.577619e-02 1.170683e-02 7.789091e-03 4.062521e-03 5.349146e-04 -2.766689e-03 -5.844576e-03 -8.693422e-03 -1.133356e-02 -1.378998e-02 -1.610923e-02 -1.835490e-02 -2.060806e-02 -2.297921e-02 -2.559217e-02 -2.861272e-02 -3.221509e-02 -3.662838e-02 -4.208346e-02 -4.887947e-02 -5.730737e-02 -6.773985e-02 -8.052688e-02 -9.611264e-02 -1.148982e-01 -1.373886e-01 -1.640191e-01 -1.953328e-01 -2.317712e-01 -2.738790e-01 -3.220624e-01 -3.768156e-01 -4.384554e-01 -5.073582e-01 -5.836854e-01 -6.676182e-01 -7.590896e-01 -8.580048e-01 -9.639972e-01 -1.076624e+00 -1.195162e+00 -1.318774e+00 -1.446354e+00 -1.576660e+00 -1.708226e+00 -1.839451e+00 -1.968577e+00 -2.093739e+00 -2.213010e+00 -2.324377e+00 -2.425882e+00 -2.515480e+00 -2.591292e+00 -2.651314e+00 -2.693810e+00 -2.716836e+00 -2.718834e+00 -2.697931e+00 -2.652816e+00 -2.581792e+00 -2.483999e+00 -2.358211e+00 -2.204384e+00 -2.022257e+00 -1.813026e+00 -1.577916e+00 -1.319572e+00 -1.040967e+00 -7.459903e-01 -4.392264e-01 -1.254502e-01 1.893264e-01 4.992121e-01 7.964242e-01 1.073016e+00 1.319324e+00 1.526165e+00 1.685513e+00 1.793658e+00 1.853383e+00 1.876536e+00 1.882227e+00 1.890903e+00 1.913263e+00 1.950835e+00 2.004145e+00 2.068280e+00 2.133569e+00 2.190531e+00 2.227454e+00 2.232724e+00 2.193536e+00 2.098908e+00 1.946047e+00 1.748197e+00 1.529082e+00 1.311158e+00 1.109181e+00 9.305976e-01 7.773561e-01 6.484145e-01 5.412455e-01 4.528582e-01 3.803183e-01 3.209437e-01 2.724297e-01 2.328026e-01 2.004315e-01 1.739511e-01 1.522431e-01 1.343815e-01 1.196056e-01 1.072910e-01 9.692242e-02 8.808000e-02 8.041927e-02 7.366012e-02 
8.364872e-02 7.732850e-02 7.135454e-02 6.560124e-02 5.999198e-02 5.445796e-02 4.897703e-02 4.352122e-02 3.810650e-02 3.273301e-02 2.744012e-02 2.224517e-02 1.719723e-02 1.232076e-02 7.661894e-03 3.242419e-03 -9.061845e-04 -4.774441e-03 -8.356319e-03 -1.166443e-02 -1.472832e-02 -1.759263e-02 -2.033240e-02 -2.303441e-02 -2.582928e-02 -2.885604e-02 -3.231134e-02 -3.639605e-02 -4.138320e-02 -4.754366e-02 -5.523594e-02 -6.480600e-02 -7.670343e-02 -9.134925e-02 -1.092832e-01 -1.309933e-01 -1.570982e-01 -1.881341e-01 -2.247731e-01 -2.675664e-01 -3.171966e-01 -3.741813e-01 -4.391503e-01 -5.125218e-01 -5.947907e-01 -6.861942e-01 -7.869954e-01 -8.971581e-01 -1.016610e+00 -1.144949e+00 -1.281673e+00 -1.425936e+00 -1.576738e+00 -1.732751e+00 -1.892462e+00 -2.054078e+00 -2.215623e+00 -2.374933e+00 -2.529694e+00 -2.677527e+00 -2.815946e+00 -2.942542e+00 -3.054818e+00 -3.150488e+00 -3.227137e+00 -3.282671e+00 -3.314755e+00 -3.321492e+00 -3.300590e+00 -3.250373e+00 -3.168669e+00 -3.054232e+00 -2.905355e+00 -2.721709e+00 -2.502733e+00 -2.249637e+00 -1.963782e+00 -1.648261e+00 -1.306740e+00 -9.438530e-01 -5.652410e-01 -1.763713e-01 2.155957e-01 6.040418e-01 9.794831e-01 1.331836e+00 1.647670e+00 1.912636e+00 2.112960e+00 2.239566e+00 2.293710e+00 2.292196e+00 2.269087e+00 2.263689e+00 2.289637e+00 2.338249e+00 2.415350e+00 2.512465e+00 2.612020e+00 2.703639e+00 2.770215e+00 2.797488e+00 2.764718e+00 2.648976e+00 2.437281e+00 2.154587e+00 1.847900e+00 1.554643e+00 1.293969e+00 1.071976e+00 8.873213e-01 7.357058e-01 6.120323e-01 5.114465e-01 4.297458e-01 3.633756e-01 3.094501e-01 2.655845e-01 2.298663e-01 2.007180e-01 1.768692e-01 1.572712e-01 1.410715e-01 1.275678e-01 1.161851e-01 1.064520e-01 9.798358e-02 9.046570e-02 
1.012194e-01 9.436570e-02 8.780309e-02 8.139256e-02 7.506205e-02 6.873324e-02 6.239725e-02 5.602009e-02 4.963769e-02 4.324723e-02 3.691238e-02 3.065001e-02 2.453519e-02 1.859370e-02 1.289670e-02 7.468212e-03 2.361371e-03 -2.412415e-03 -6.830889e-03 -1.090645e-02 -1.465960e-02 -1.813824e-02 -2.141709e-02 -2.459172e-02 -2.780276e-02 -3.120598e-02 -3.502015e-02 -3.947356e-02 -4.487574e-02 -5.153845e-02 -5.987367e-02 -7.028436e-02 -8.329329e-02 -9.939659e-02 -1.192290e-01 -1.433726e-01 -1.725635e-01 -2.074498e-01 -2.488417e-01 -2.974162e-01 -3.540093e-01 -4.192698e-01 -4.939864e-01 -5.787019e-01 -6.740589e-01 -7.803953e-01 -8.980887e-01 -1.027157e+00 -1.167582e+00 -1.318942e+00 -1.480700e+00 -1.651890e+00 -1.831363e+00 -2.017548e+00 -2.208653e+00 -2.402518e+00 -2.596769e+00 -2.788773e+00 -2.975732e+00 -3.154746e+00 -3.322824e+00 -3.477054e+00 -3.614476e+00 -3.732368e+00 -3.827924e+00 -3.898689e+00 -3.941983e+00 -3.955552e+00 -3.936721e+00 -3.883377e+00 -3.792840e+00 -3.663328e+00 -3.492528e+00 -3.279640e+00 -3.023613e+00 -2.725595e+00 -2.386924e+00 -2.011307e+00 -1.603029e+00 -1.167810e+00 -7.122138e-01 -2.425192e-01 2.335015e-01 7.089353e-01 1.173419e+00 1.614956e+00 2.015752e+00 2.354027e+00 2.606050e+00 2.752304e+00 2.786758e+00 2.729632e+00 2.642703e+00 2.613180e+00 2.655029e+00 2.711744e+00 2.823916e+00 2.973001e+00 3.118531e+00 3.262104e+00 3.372666e+00 3.441564e+00 3.436349e+00 3.309220e+00 3.009840e+00 2.591565e+00 2.157703e+00 1.768421e+00 1.442357e+00 1.177863e+00 9.659023e-01 7.965841e-01 6.611574e-01 5.525506e-01 4.651940e-01 3.947376e-01 3.377792e-01 2.916351e-01 2.541722e-01 2.236840e-01 1.987874e-01 1.783660e-01 1.614995e-01 1.474428e-01 1.355759e-01 1.253966e-01 1.164906e-01 1.085204e-01 
1.208890e-01 1.136996e-01 1.066938e-01 9.973199e-02 9.274081e-02 8.564806e-02 7.844822e-02 7.111960e-02 6.370544e-02 5.622046e-02 4.873827e-02 4.129704e-02 3.398298e-02 2.684513e-02 1.996534e-02 1.339091e-02 7.183666e-03 1.376385e-03 -4.003431e-03 -8.950677e-03 -1.348542e-02 -1.764381e-02 -2.150640e-02 -2.516482e-02 -2.877357e-02 -3.249445e-02 -3.657055e-02 -4.124866e-02 -4.687605e-02 -5.379834e-02 -6.248222e-02 -7.338291e-02 -8.709858e-02 -1.041987e-01 -1.254175e-01 -1.514332e-01 -1.831074e-01 -2.212071e-01 -2.666933e-01 -3.203818e-01 -3.832796e-01 -4.561877e-01 -5.400764e-01 -6.356412e-01 -7.437007e-01 -8.647279e-01 -9.992464e-01 -1.147367e+00 -1.309155e+00 -1.484209e+00 -1.671977e+00 -1.871403e+00 -2.081189e+00 -2.299535e+00 -2.524343e+00 -2.753071e+00 -2.982883e+00 -3.210630e+00 -3.432942e+00 -3.646340e+00 -3.847231e+00 -4.032150e+00 -4.197612e+00 -4.340449e+00 -4.457462e+00 -4.545870e+00 -4.602689e+00 -4.625370e+00 -4.610878e+00 -4.556680e+00 -4.459513e+00 -4.316958e+00 -4.125889e+00 -3.884794e+00 -3.591894e+00 -3.248006e+00 -2.854407e+00 -2.415314e+00 -1.936004e+00 -1.423317e+00 -8.853187e-01 -3.287402e-01 2.380724e-01 8.094376e-01 1.375243e+00 1.923414e+00 2.431697e+00 2.868313e+00 3.193612e+00 3.368042e+00 3.366646e+00 3.195946e+00 2.964808e+00 2.903199e+00 3.021561e+00 3.048823e+00 3.218296e+00 3.460715e+00 3.652159e+00 3.878514e+00 4.042252e+00 4.184137e+00 4.252684e+00 4.160175e+00 3.713729e+00 3.051134e+00 2.427425e+00 1.922085e+00 1.531979e+00 1.233742e+00 1.004267e+00 8.258564e-01 6.856557e-01 5.745181e-01 4.858091e-01 4.146450e-01 3.573403e-01 3.110640e-01 2.735983e-01 2.431863e-01 2.184107e-01 1.981286e-01 1.813983e-01 1.674546e-01 1.556601e-01 1.454963e-01 1.365342e-01 1.284242e-01 
1.429644e-01 1.356733e-01 1.284121e-01 1.210336e-01 1.134803e-01 1.056734e-01 9.763176e-02 8.932905e-02 8.084017e-02 7.217790e-02 6.345236e-02 5.470271e-02 4.605353e-02 3.755760e-02 2.933395e-02 2.143582e-02 1.395823e-02 6.941092e-03 4.389014e-04 -5.536237e-03 -1.098529e-02 -1.593941e-02 -2.046925e-02 -2.466580e-02 -2.868420e-02 -3.269298e-02 -3.694831e-02 -4.171461e-02 -4.736743e-02 -5.428509e-02 -6.298151e-02 -7.396405e-02 -8.790169e-02 -1.054397e-01 -1.274114e-01 -1.545979e-01 -1.879919e-01 -2.284914e-01 -2.772220e-01 -3.351573e-01 -4.034996e-01 -4.832278e-01 -5.755291e-01 -6.812849e-01 -8.015354e-01 -9.369267e-01 -1.088182e+00 -1.255541e+00 -1.439210e+00 -1.638833e+00 -1.853891e+00 -2.083245e+00 -2.325472e+00 -2.578516e+00 -2.839961e+00 -3.106809e+00 -3.375715e+00 -3.642901e+00 -3.904346e+00 -4.155856e+00 -4.393164e+00 -4.612143e+00 -4.808747e+00 -4.979323e+00 -5.120324e+00 -5.228675e+00 -5.301213e+00 -5.335147e+00 -5.327222e+00 -5.274448e+00 -5.173021e+00 -5.019646e+00 -4.810212e+00 -4.542100e+00 -4.212444e+00 -3.821476e+00 -3.370129e+00 -2.863440e+00 -2.307761e+00 -1.711989e+00 -1.085945e+00 -4.374399e-01 2.254421e-01 8.996878e-01 1.578811e+00 2.254000e+00 2.901386e+00 3.476679e+00 3.916024e+00 4.146923e+00 4.107165e+00 3.719290e+00 3.125029e+00 3.029087e+00 3.497761e+00 3.267301e+00 3.568426e+00 4.027758e+00 4.181303e+00 4.587619e+00 4.765380e+00 5.031180e+00 5.261471e+00 5.390831e+00 4.649629e+00 3.478760e+00 2.583328e+00 1.964104e+00 1.533306e+00 1.224145e+00 9.946207e-01 8.196749e-01 6.836031e-01 5.763783e-01 4.910616e-01 4.227996e-01 3.679366e-01 3.237455e-01 2.880532e-01 2.591751e-01 2.357176e-01 2.165776e-01 2.008205e-01 1.876985e-01 1.765732e-01 1.669296e-01 1.583364e-01 1.504401e-01 
1.682207e-01 1.610447e-01 1.536834e-01 1.459982e-01 1.379364e-01 1.294335e-01 1.205168e-01 1.111806e-01 1.015121e-01 9.155084e-02 8.142209e-02 7.119663e-02 6.101565e-02 5.096649e-02 4.118462e-02 3.175858e-02 2.279815e-02 1.437708e-02 6.561679e-03 -6.057031e-04 -7.118265e-03 -1.298253e-02 -1.826660e-02 -2.304458e-02 -2.747595e-02 -3.172265e-02 -3.605455e-02 -4.074305e-02 -4.619059e-02 -5.280002e-02 -6.113044e-02 -7.173623e-02 -8.535591e-02 -1.027095e-01 -1.247307e-01 -1.523076e-01 -1.865700e-01 -2.285586e-01 -2.795756e-01 -3.407727e-01 -4.135678e-01 -4.991486e-01 -5.989491e-01 -7.140789e-01 -8.458392e-01 -9.951032e-01 -1.162840e+00 -1.349484e+00 -1.555428e+00 -1.780431e+00 -2.024042e+00 -2.285098e+00 -2.562060e+00 -2.852640e+00 -3.154065e+00 -3.462857e+00 -3.775045e+00 -4.086138e+00 -4.391288e+00 -4.685458e+00 -4.963514e+00 -5.220550e+00 -5.451839e+00 -5.653211e+00 -5.820782e+00 -5.951290e+00 -6.041530e+00 -6.088673e+00 -6.089396e+00 -6.040413e+00 -5.937353e+00 -5.775969e+00 -5.550811e+00 -5.257721e+00 -4.892177e+00 -4.453245e+00 -3.941261e+00 -3.361923e+00 -2.723452e+00 -2.037443e+00 -1.317297e+00 -5.723682e-01 1.887978e-01 9.688357e-01 1.769010e+00 2.592483e+00 3.420600e+00 4.198482e+00 4.823712e+00 5.176622e+00 5.180367e+00 4.435747e+00 2.792703e+00 2.620470e+00 4.698592e+00 2.981428e+00 3.798338e+00 4.933321e+00 4.492508e+00 5.558788e+00 5.435801e+00 5.950424e+00 6.411725e+00 7.527610e+00 6.034246e+00 3.634964e+00 2.467311e+00 1.822385e+00 1.418227e+00 1.139703e+00 9.348757e-01 7.785155e-01 6.562755e-01 5.595322e-01 4.822975e-01 4.204207e-01 3.706885e-01 3.307031e-01 2.985021e-01 2.725617e-01 2.515926e-01 2.345709e-01 2.206131e-01 2.090085e-01 1.991420e-01 1.905146e-01 1.827039e-01 1.753637e-01 
1.970684e-01 1.902552e-01 1.829936e-01 1.751394e-01 1.666674e-01 1.575062e-01 1.477204e-01 1.372991e-01 1.263752e-01 1.149863e-01 1.033096e-01 9.141808e-02 7.950724e-02 6.767094e-02 5.609768e-02 4.488666e-02 3.419583e-02 2.411306e-02 1.474544e-02 6.151541e-03 -1.629862e-03 -8.588901e-03 -1.477137e-02 -2.023748e-02 -2.513490e-02 -2.961771e-02 -3.395612e-02 -3.842435e-02 -4.344054e-02 -4.942679e-02 -5.697846e-02 -6.669232e-02 -7.937092e-02 -9.580703e-02 -1.170346e-01 -1.440518e-01 -1.781334e-01 -2.204727e-01 -2.725682e-01 -3.357695e-01 -4.117438e-01 -5.019193e-01 -6.080276e-01 -7.314509e-01 -8.738200e-01 -1.036291e+00 -1.220163e+00 -1.426127e+00 -1.654852e+00 -1.906267e+00 -2.180074e+00 -2.475108e+00 -2.789766e+00 -3.121498e+00 -3.467158e+00 -3.822672e+00 -4.183357e+00 -4.543795e+00 -4.898153e+00 -5.240286e+00 -5.564019e+00 -5.863443e+00 -6.133046e+00 -6.368066e+00 -6.564355e+00 -6.718576e+00 -6.827766e+00 -6.889288e+00 -6.900151e+00 -6.856897e+00 -6.754847e+00 -6.588495e+00 -6.350847e+00 -6.035354e+00 -5.635093e+00 -5.147119e+00 -4.570445e+00 -3.911773e+00 -3.181490e+00 -2.396201e+00 -1.574724e+00 -7.309382e-01 1.252640e-01 1.003868e+00 1.921445e+00 2.906544e+00 3.966300e+00 5.045462e+00 5.974560e+00 6.531557e+00 6.978901e+00 6.024407e+00 9.948439e-01 -6.495458e-02 7.846286e+00 6.061149e+00 1.896092e+00 5.980089e+00 4.556850e+00 4.517544e+00 4.188842e+00 3.601655e+00 4.814593e+00 5.451226e+00 5.170068e+00 2.558543e+00 1.835228e+00 1.447239e+00 1.185186e+00 9.880000e-01 8.323669e-01 7.079037e-01 6.075593e-01 5.267013e-01 4.614210e-01 4.088745e-01 3.665802e-01 3.326727e-01 3.054993e-01 2.837885e-01 2.663969e-01 2.524282e-01 2.410698e-01 2.316754e-01 2.236643e-01 2.165669e-01 2.099798e-01 2.035663e-01 
2.304605e-01 2.242331e-01 2.172247e-01 2.093065e-01 2.004609e-01 1.906380e-01 1.799143e-01 1.683081e-01 1.559695e-01 1.429733e-01 1.295178e-01 1.157200e-01 1.017989e-01 8.789705e-02 7.422681e-02 6.093775e-02 4.821061e-02 3.618273e-02 2.498172e-02 1.471241e-02 5.431148e-03 -2.811283e-03 -1.004661e-02 -1.630160e-02 -2.171453e-02 -2.641623e-02 -3.067469e-02 -3.475497e-02 -3.908462e-02 -4.409620e-02 -5.041303e-02 -5.866922e-02 -6.972307e-02 -8.444019e-02 -1.039490e-01 -1.293651e-01 -1.621075e-01 -2.035398e-01 -2.553640e-01 -3.191578e-01 -3.968571e-01 -4.901759e-01 -6.011774e-01 -7.315794e-01 -8.833944e-01 -1.058144e+00 -1.257526e+00 -1.482587e+00 -1.734360e+00 -2.013050e+00 -2.318590e+00 -2.649920e+00 -3.005409e+00 -3.382304e+00 -3.777041e+00 -4.184911e+00 -4.600332e+00 -5.016794e+00 -5.427145e+00 -5.823860e+00 -6.199325e+00 -6.546365e+00 -6.858413e+00 -7.130029e+00 -7.356834e+00 -7.535640e+00 -7.664079e+00 -7.740208e+00 -7.761832e+00 -7.725855e+00 -7.627468e+00 -7.460015e+00 -7.214379e+00 -6.880867e+00 -6.448775e+00 -5.911755e+00 -5.266365e+00 -4.519620e+00 -3.685207e+00 -2.786548e+00 -1.852740e+00 -9.065597e-01 3.513385e-02 9.902432e-01 1.996923e+00 3.131582e+00 4.468147e+00 6.012239e+00 7.451254e+00 7.976434e+00 1.015100e+01 1.055577e+01 7.869168e+00 1.036885e+01 3.352530e+00 4.937632e+00 4.050726e+00 2.628259e-01 6.400061e-01 -1.514596e+00 -1.357225e+00 -2.372904e+00 -1.732519e+00 -2.937259e+00 2.739017e-01 3.957986e-01 8.818115e-01 9.573368e-01 8.981969e-01 8.030899e-01 7.059961e-01 6.189304e-01 5.444688e-01 4.826145e-01 4.318533e-01 3.907636e-01 3.577066e-01 3.314013e-01 3.105679e-01 2.942156e-01 2.813856e-01 2.713251e-01 2.633155e-01 2.567837e-01 2.511958e-01 2.461186e-01 2.411704e-01 2.360338e-01 
2.689090e-01 2.635193e-01 2.569695e-01 2.491216e-01 2.399953e-01 2.295298e-01 2.178516e-01 2.049707e-01 1.910994e-01 1.763085e-01 1.608676e-01 1.448956e-01 1.286868e-01 1.123927e-01 9.629926e-02 8.057209e-02 6.545936e-02 5.112098e-02 3.774285e-02 2.545765e-02 1.436973e-02 4.561025e-03 -3.962325e-03 -1.119557e-02 -1.724893e-02 -2.222545e-02 -2.637573e-02 -2.994643e-02 -3.336175e-02 -3.705282e-02 -4.166044e-02 -4.784381e-02 -5.650999e-02 -6.858752e-02 -8.529834e-02 -1.078710e-01 -1.378779e-01 -1.768571e-01 -2.267386e-01 -2.893448e-01 -3.669253e-01 -4.615140e-01 -5.755764e-01 -7.112219e-01 -8.709442e-01 -1.056710e+00 -1.270747e+00 -1.514559e+00 -1.789687e+00 -2.096728e+00 -2.435989e+00 -2.806594e+00 -3.206989e+00 -3.634210e+00 -4.084272e+00 -4.551666e+00 -5.029750e+00 -5.510550e+00 -5.985268e+00 -6.444485e+00 -6.878747e+00 -7.279142e+00 -7.637775e+00 -7.948346e+00 -8.206331e+00 -8.408947e+00 -8.554982e+00 -8.643808e+00 -8.674964e+00 -8.646335e+00 -8.553819e+00 -8.389437e+00 -8.141809e+00 -7.796390e+00 -7.337072e+00 -6.751614e+00 -6.032032e+00 -5.185207e+00 -4.227933e+00 -3.194769e+00 -2.130059e+00 -1.075367e+00 -6.479573e-02 9.218043e-01 1.946276e+00 3.152808e+00 4.752201e+00 7.052040e+00 9.774640e+00 8.232192e+00 4.270228e+00 4.981025e+00 7.058515e+00 5.627876e+00 -1.552621e+00 -6.627813e+00 -4.304597e+00 -4.680136e+00 -5.071101e+00 -4.428538e+00 -4.566060e+00 -3.668622e+00 -5.115544e+00 -5.019650e+00 -2.432552e+00 -5.159468e-01 3.616461e-01 6.187062e-01 6.611467e-01 6.303859e-01 5.780988e-01 5.238834e-01 4.744188e-01 4.320989e-01 3.969001e-01 3.684519e-01 3.458014e-01 3.281992e-01 3.147152e-01 3.046435e-01 2.972097e-01 2.918149e-01 2.878374e-01 2.847842e-01 2.821719e-01 2.796046e-01 2.767287e-01 2.732389e-01 
3.135326e-01 3.092086e-01 3.032677e-01 2.955889e-01 2.861981e-01 2.750606e-01 2.623159e-01 2.480115e-01 2.323803e-01 2.155427e-01 1.977956e-01 1.793172e-01 1.604335e-01 1.413618e-01 1.224216e-01 1.038474e-01 8.592045e-02 6.886931e-02 5.291136e-02 3.824509e-02 2.500488e-02 1.333345e-02 3.266045e-03 -5.138653e-03 -1.196275e-02 -1.726472e-02 -2.126995e-02 -2.419412e-02 -2.644401e-02 -2.844028e-02 -3.082297e-02 -3.427148e-02 -3.972188e-02 -4.816669e-02 -6.090346e-02 -7.928371e-02 -1.050211e-01 -1.398510e-01 -1.859294e-01 -2.453642e-01 -3.207317e-01 -4.144481e-01 -5.294171e-01 -6.682283e-01 -8.339226e-01 -1.029032e+00 -1.256417e+00 -1.518191e+00 -1.816548e+00 -2.152658e+00 -2.527364e+00 -2.940167e+00 -3.389710e+00 -3.872957e+00 -4.385479e+00 -4.920940e+00 -5.471344e+00 -6.026946e+00 -6.576679e+00 -7.108634e+00 -7.610718e+00 -8.071652e+00 -8.481632e+00 -8.833254e+00 -9.121923e+00 -9.345690e+00 -9.505287e+00 -9.602468e+00 -9.639648e+00 -9.617043e+00 -9.532069e+00 -9.376169e+00 -9.134952e+00 -8.787841e+00 -8.310184e+00 -7.680569e+00 -6.882771e+00 -5.920775e+00 -4.814644e+00 -3.611955e+00 -2.381385e+00 -1.197112e+00 -1.318431e-01 8.187570e-01 1.733128e+00 2.806282e+00 4.362960e+00 7.679954e+00 1.564024e+01 2.505561e+00 8.592431e+00 8.523418e+00 -2.601717e+00 -1.890134e+01 -1.234377e+01 4.482996e-02 -5.627966e+00 -6.516424e-01 -1.541739e+00 1.136956e+00 -4.890107e-01 1.758767e+00 -3.525518e-01 2.673027e+00 1.019333e+00 4.434246e-01 4.834781e-01 5.125511e-01 5.109314e-01 4.898406e-01 4.609042e-01 4.310031e-01 4.033206e-01 3.795856e-01 3.600141e-01 3.447107e-01 3.331638e-01 3.250256e-01 3.196640e-01 3.166228e-01 3.153023e-01 3.152458e-01 3.159267e-01 3.169280e-01 3.178132e-01 3.182243e-01 3.178277e-01 3.163370e-01 
3.649202e-01 3.619234e-01 3.568081e-01 3.494341e-01 3.398705e-01 3.280620e-01 3.142119e-01 2.983505e-01 2.807936e-01 2.616511e-01 2.413166e-01 2.199676e-01 1.980328e-01 1.757397e-01 1.535084e-01 1.315950e-01 1.103730e-01 9.010314e-02 7.108313e-02 5.355312e-02 3.771517e-02 2.376120e-02 1.178340e-02 1.894183e-03 -5.939814e-03 -1.172321e-02 -1.563983e-02 -1.785789e-02 -1.875253e-02 -1.871272e-02 -1.836495e-02 -1.838557e-02 -1.972958e-02 -2.343137e-02 -3.086013e-02 -4.347316e-02 -6.313295e-02 -9.176470e-02 -1.317767e-01 -1.855705e-01 -2.561026e-01 -3.462043e-01 -4.593071e-01 -5.985482e-01 -7.676517e-01 -9.698294e-01 -1.208762e+00 -1.487344e+00 -1.808659e+00 -2.174664e+00 -2.587003e+00 -3.045761e+00 -3.550003e+00 -4.096707e+00 -4.681068e+00 -5.295711e+00 -5.931036e+00 -6.574870e+00 -7.213220e+00 -7.830672e+00 -8.411579e+00 -8.941322e+00 -9.407495e+00 -9.801186e+00 -1.011778e+01 -1.035666e+01 -1.052149e+01 -1.061779e+01 -1.065274e+01 -1.063079e+01 -1.055307e+01 -1.041128e+01 -1.018840e+01 -9.854765e+00 -9.373705e+00 -8.708018e+00 -7.827927e+00 -6.731190e+00 -5.438073e+00 -4.013616e+00 -2.555491e+00 -1.192742e+00 -7.398741e-02 7.572591e-01 1.390980e+00 2.037816e+00 2.319372e+00 3.747928e+00 9.351758e+00 8.860049e+00 1.258768e+01 -1.264818e+01 -2.011766e+01 1.072058e+01 1.132243e+01 4.361469e+00 4.162945e+00 4.841295e+00 3.567869e+00 5.505050e+00 4.194737e+00 5.079578e+00 4.856499e+00 4.955371e+00 5.064798e+00 1.193850e+00 6.321588e-01 4.532110e-01 3.924478e-01 3.676380e-01 3.533765e-01 3.429926e-01 3.345488e-01 3.282083e-01 3.238400e-01 3.216975e-01 3.215300e-01 3.232753e-01 3.265403e-01 3.310742e-01 3.364296e-01 3.422729e-01 3.481626e-01 3.537458e-01 3.586292e-01 3.624807e-01 3.649889e-01 3.658692e-01 
4.243373e-01 4.229162e-01 4.187868e-01 4.118216e-01 4.020880e-01 3.895581e-01 3.744451e-01 3.568247e-01 3.370357e-01 3.152510e-01 2.918985e-01 2.672333e-01 2.417258e-01 2.156912e-01 1.895946e-01 1.637846e-01 1.386798e-01 1.146336e-01 9.198817e-02 7.107298e-02 5.213517e-02 3.545087e-02 2.116008e-02 9.453563e-03 3.504420e-04 -6.082871e-03 -9.973340e-03 -1.142926e-02 -1.076911e-02 -8.340950e-03 -4.725399e-03 -5.901266e-04 3.127407e-03 5.350406e-03 4.674604e-03 -4.742139e-04 -1.207577e-02 -3.227270e-02 -6.370508e-02 -1.091185e-01 -1.718488e-01 -2.552220e-01 -3.632271e-01 -4.996669e-01 -6.690260e-01 -8.753622e-01 -1.123324e+00 -1.416817e+00 -1.760052e+00 -2.156076e+00 -2.607654e+00 -3.115822e+00 -3.680385e+00 -4.298669e+00 -4.965602e+00 -5.672831e+00 -6.408732e+00 -7.158149e+00 -7.902981e+00 -8.623015e+00 -9.297368e+00 -9.906614e+00 -1.043449e+01 -1.086999e+01 -1.120872e+01 -1.145226e+01 -1.160888e+01 -1.168984e+01 -1.170951e+01 -1.167946e+01 -1.160708e+01 -1.148683e+01 -1.129886e+01 -1.100307e+01 -1.054390e+01 -9.861082e+00 -8.901275e+00 -7.648851e+00 -6.121657e+00 -4.396972e+00 -2.606250e+00 -9.541811e-01 2.701147e-01 8.787988e-01 1.071886e+00 1.660956e+00 -6.787071e-01 1.529217e+01 1.843133e+01 1.435785e+01 -1.444484e+01 -1.719901e+01 9.399964e+00 1.526669e+01 4.048894e+00 1.768233e+00 3.906780e+00 4.341740e+00 5.577291e+00 2.566720e+00 4.453584e+00 1.748685e+00 3.822955e+00 -1.715705e+00 3.461062e+00 7.337646e-01 4.106488e-01 2.881288e-01 2.494060e-01 2.443880e-01 2.503732e-01 2.599409e-01 2.699913e-01 2.803089e-01 2.906851e-01 3.015373e-01 3.128156e-01 3.246830e-01 3.369328e-01 3.494799e-01 3.619987e-01 3.742553e-01 3.858740e-01 3.965529e-01 4.059252e-01 4.136795e-01 4.195070e-01 4.231295e-01 