# vtk DataFile Version 2.0
Comment goes here
ASCII

DATASET STRUCTURED_POINTS
DIMENSIONS    128   128   1

ORIGIN    0.000   0.000   0.000
SPACING   0.0156250.015625   1.000

POINT_DATA   16384
SCALARS Omega double
LOOKUP_TABLE default

9.556486e-06 8.294432e-06 7.071984e-06 6.033697e-06 4.998253e-06 4.125407e-06 3.226964e-06 2.474334e-06 1.678278e-06 1.016307e-06 3.042370e-07 -2.815189e-07 -9.139590e-07 -1.426065e-06 -1.973869e-06 -2.408474e-06 -2.863976e-06 -3.218003e-06 -3.579026e-06 -3.858533e-06 -4.137362e-06 -4.366400e-06 -4.598837e-06 -4.828100e-06 -5.081870e-06 -5.396371e-06 -5.778131e-06 -6.303221e-06 -6.963539e-06 -7.868697e-06 -9.004483e-06 -1.050448e-05 -1.235856e-05 -1.471180e-05 -1.756943e-05 -2.107337e-05 -2.525569e-05 -3.023934e-05 -3.609347e-05 -4.290661e-05 -5.079205e-05 -5.979049e-05 -7.006081e-05 -8.158609e-05 -9.456402e-05 -1.089151e-04 -1.248585e-04 -1.422524e-04 -1.613077e-04 -1.818255e-04 -2.039665e-04 -2.274826e-04 -2.524331e-04 -2.785292e-04 -3.056724e-04 -3.335397e-04 -3.618221e-04 -3.901644e-04 -4.180058e-04 -4.449584e-04 -4.701870e-04 -4.932708e-04 -5.131057e-04 -5.292451e-04 -5.403549e-04 -5.459895e-04 -5.446662e-04 -5.359993e-04 -5.184909e-04 -4.919190e-04 -4.549672e-04 -4.077300e-04 -3.493371e-04 -2.803881e-04 -2.007731e-04 -1.117804e-04 -1.435749e-05 8.941718e-05 1.973857e-04 3.067623e-04 4.143272e-04 5.169355e-04 6.108578e-04 6.931978e-04 7.606107e-04 8.111818e-04 8.429243e-04 8.555179e-04 8.489937e-04 8.248241e-04 7.850435e-04 7.325064e-04 6.704912e-04 6.023558e-04 5.315173e-04 4.609474e-04 3.933206e-04 3.306566e-04 2.744711e-04 2.256583e-04 1.846155e-04 1.512600e-04 1.251305e-04 1.054074e-04 9.106306e-05 8.089732e-05 7.377412e-05 6.864507e-05 6.471646e-05 6.138545e-05 5.828608e-05 5.519448e-05 5.201674e-05 4.873281e-05 4.535770e-05 4.195093e-05 3.854257e-05 3.521415e-05 3.197140e-05 2.889911e-05 2.596682e-05 2.326036e-05 2.071258e-05 1.841367e-05 1.626344e-05 1.436104e-05 1.257817e-05 1.102707e-05 
4.733663e-03 2.632487e-03 8.537130e-04 -6.353325e-04 -1.857669e-03 -2.839048e-03 -3.595273e-03 -4.147102e-03 -4.505198e-03 -4.687007e-03 -4.699948e-03 -4.559527e-03 -4.271572e-03 -3.850705e-03 -3.302587e-03 -2.641738e-03 -1.874860e-03 -1.016989e-03 -7.689825e-05 9.293204e-04 1.989908e-03 3.087156e-03 4.205508e-03 5.324987e-03 6.425513e-03 7.484098e-03 8.475541e-03 9.373049e-03 1.014591e-02 1.076283e-02 1.118755e-02 1.138382e-02 1.131033e-02 1.092603e-02 1.018577e-02 9.044665e-03 7.455951e-03 5.373137e-03 2.751247e-03 -4.541106e-04 -4.281308e-03 -8.767208e-03 -1.393737e-02 -1.981402e-02 -2.640253e-02 -3.370209e-02 -4.169005e-02 -5.033382e-02 -5.957554e-02 -6.934335e-02 -7.953936e-02 -9.004817e-02 -1.007312e-01 -1.114307e-01 -1.219726e-01 -1.321641e-01 -1.418068e-01 -1.506872e-01 -1.585978e-01 -1.653218e-01 -1.706594e-01 -1.744080e-01 -1.763888e-01 -1.764271e-01 -1.743732e-01 -1.700893e-01 -1.634589e-01 -1.543891e-01 -1.428038e-01 -1.286686e-01 -1.119672e-01 -9.275188e-02 -7.110437e-02 -4.720860e-02 -2.129743e-02 6.265406e-03 3.504868e-02 6.448877e-02 9.395426e-02 1.227281e-01 1.500588e-01 1.752061e-01 1.974614e-01 2.162459e-01 2.310963e-01 2.417819e-01 2.482752e-01 2.508523e-01 2.500591e-01 2.467445e-01 2.419710e-01 2.369290e-01 2.327525e-01 2.303835e-01 2.303954e-01 2.329807e-01 2.378913e-01 2.445608e-01 2.521182e-01 2.595434e-01 2.657033e-01 2.694905e-01 2.699254e-01 2.663348e-01 2.585075e-01 2.467679e-01 2.318746e-01 2.148224e-01 1.966019e-01 1.780758e-01 1.598855e-01 1.424843e-01 1.261395e-01 1.110043e-01 9.713084e-02 8.452191e-02 7.313428e-02 6.290851e-02 5.376657e-02 4.562831e-02 3.840832e-02 3.202480e-02 2.639756e-02 2.145198e-02 1.711879e-02 1.333422e-02 1.004190e-02 7.189606e-03 
9.132947e-03 4.937291e-03 1.386346e-03 -1.586548e-03 -4.025264e-03 -5.982772e-03 -7.488435e-03 -8.585421e-03 -9.292767e-03 -9.647210e-03 -9.661286e-03 -9.368000e-03 -8.776758e-03 -7.918866e-03 -6.803497e-03 -5.461746e-03 -3.905021e-03 -2.165332e-03 -2.584533e-04 1.781707e-03 3.933140e-03 6.158988e-03 8.429336e-03 1.070313e-02 1.294106e-02 1.509639e-02 1.711922e-02 1.895551e-02 2.054397e-02 2.182180e-02 2.271622e-02 2.315469e-02 2.305397e-02 2.233189e-02 2.089718e-02 1.865991e-02 1.552524e-02 1.139970e-02 6.191771e-03 -1.882414e-04 -7.818858e-03 -1.677522e-02 -2.711035e-02 -3.887055e-02 -5.206844e-02 -6.670457e-02 -8.273516e-02 -1.000972e-01 -1.186759e-01 -1.383291e-01 -1.588609e-01 -1.800413e-01 -2.015914e-01 -2.231951e-01 -2.445011e-01 -2.651222e-01 -2.846572e-01 -3.026761e-01 -3.187601e-01 -3.324724e-01 -3.434101e-01 -3.511658e-01 -3.553800e-01 -3.557018e-01 -3.518308e-01 -3.434892e-01 -3.304426e-01 -3.124992e-01 -2.895016e-01 -2.613694e-01 -2.280584e-01 -1.896550e-01 -1.463051e-01 -9.835460e-02 -4.625343e-02 9.288301e-03 6.740932e-02 1.269830e-01 1.867198e-01 2.451616e-01 3.007490e-01 3.519562e-01 3.972954e-01 4.355549e-01 4.657440e-01 4.873474e-01 5.002692e-01 5.050294e-01 5.027384e-01 4.951479e-01 4.845090e-01 4.733675e-01 4.641630e-01 4.589221e-01 4.588498e-01 4.643306e-01 4.748045e-01 4.890563e-01 5.052456e-01 5.212432e-01 5.346833e-01 5.432268e-01 5.447536e-01 5.377629e-01 5.217697e-01 4.975217e-01 4.667477e-01 4.316553e-01 3.943689e-01 3.566719e-01 3.198419e-01 2.847486e-01 2.518849e-01 2.215187e-01 1.937271e-01 1.684950e-01 1.457249e-01 1.252884e-01 1.070259e-01 9.077252e-02 7.635683e-02 6.361247e-02 5.237968e-02 4.250732e-02 3.385810e-02 2.630298e-02 1.973086e-02 1.403600e-02 
1.288003e-02 6.601131e-03 1.285674e-03 -3.162985e-03 -6.812116e-03 -9.737769e-03 -1.198563e-02 -1.361706e-02 -1.466251e-02 -1.517379e-02 -1.517185e-02 -1.470307e-02 -1.378390e-02 -1.245840e-02 -1.074279e-02 -8.681075e-03 -6.292824e-03 -3.623723e-03 -6.997529e-04 2.430218e-03 5.731123e-03 9.149300e-03 1.263819e-02 1.613742e-02 1.958676e-02 2.291687e-02 2.605200e-02 2.891134e-02 3.140236e-02 3.343051e-02 3.488615e-02 3.565947e-02 3.562501e-02 3.465777e-02 3.261988e-02 2.937386e-02 2.477585e-02 1.868215e-02 1.095306e-02 1.449636e-03 -9.949307e-03 -2.336165e-02 -3.887118e-02 -5.655302e-02 -7.643084e-02 -9.851102e-02 -1.227324e-01 -1.490051e-01 -1.771600e-01 -2.069865e-01 -2.381913e-01 -2.704285e-01 -3.032774e-01 -3.362585e-01 -3.688391e-01 -4.004293e-01 -4.304190e-01 -4.581522e-01 -4.829914e-01 -5.042711e-01 -5.213798e-01 -5.336983e-01 -5.406830e-01 -5.418024e-01 -5.366024e-01 -5.246609e-01 -5.056183e-01 -4.791742e-01 -4.450739e-01 -4.031693e-01 -3.533584e-01 -2.957272e-01 -2.304433e-01 -1.579764e-01 -7.894973e-02 5.598652e-03 9.439869e-02 1.857296e-01 2.776176e-01 3.677666e-01 4.537290e-01 5.330513e-01 6.033537e-01 6.626506e-01 7.093047e-01 7.424060e-01 7.616795e-01 7.678384e-01 7.625435e-01 7.485838e-01 7.296478e-01 7.100142e-01 6.938280e-01 6.845131e-01 6.840451e-01 6.929679e-01 7.102742e-01 7.339132e-01 7.608679e-01 7.877393e-01 8.107449e-01 8.260749e-01 8.301094e-01 8.201189e-01 7.951552e-01 7.566310e-01 7.077758e-01 6.525178e-01 5.944132e-01 5.362567e-01 4.799165e-01 4.265857e-01 3.768825e-01 3.311133e-01 2.893226e-01 2.514433e-01 2.172983e-01 1.866788e-01 1.593322e-01 1.350060e-01 1.134363e-01 9.437275e-02 7.757151e-02 6.280690e-02 4.987027e-02 3.857016e-02 2.873795e-02 2.021782e-02 
1.563900e-02 7.292161e-03 2.272859e-04 -5.685760e-03 -1.053157e-02 -1.441323e-02 -1.738644e-02 -1.953532e-02 -2.089525e-02 -2.153829e-02 -2.148725e-02 -2.080755e-02 -1.951625e-02 -1.767609e-02 -1.530416e-02 -1.246332e-02 -9.175555e-03 -5.505882e-03 -1.485335e-03 2.817166e-03 7.357917e-03 1.206214e-02 1.687020e-02 2.169901e-02 2.647004e-02 3.108889e-02 3.545555e-02 3.946087e-02 4.298159e-02 4.589048e-02 4.804048e-02 4.928394e-02 4.945148e-02 4.837471e-02 4.586638e-02 4.174043e-02 3.580012e-02 2.784970e-02 1.769638e-02 5.148878e-03 -9.962355e-03 -2.780249e-02 -4.849236e-02 -7.214185e-02 -9.879202e-02 -1.284619e-01 -1.610785e-01 -1.965316e-01 -2.346016e-01 -2.750143e-01 -3.173791e-01 -3.612361e-01 -4.060177e-01 -4.510787e-01 -4.956941e-01 -5.390645e-01 -5.803559e-01 -6.186760e-01 -6.531528e-01 -6.828814e-01 -7.070282e-01 -7.247546e-01 -7.353250e-01 -7.380226e-01 -7.322361e-01 -7.173937e-01 -6.930055e-01 -6.586490e-01 -6.139538e-01 -5.586731e-01 -4.926066e-01 -4.157843e-01 -3.283335e-01 -2.307741e-01 -1.238404e-01 -8.834173e-03 1.125829e-01 2.381050e-01 3.649938e-01 4.900351e-01 6.096993e-01 7.204488e-01 8.187624e-01 9.017009e-01 9.667569e-01 1.012439e+00 1.038118e+00 1.044526e+00 1.033852e+00 1.010050e+00 9.786919e-01 9.464623e-01 9.199431e-01 9.045612e-01 9.032325e-01 9.165545e-01 9.428087e-01 9.787681e-01 1.019891e+00 1.061304e+00 1.097609e+00 1.123209e+00 1.132358e+00 1.120191e+00 1.084762e+00 1.028679e+00 9.578373e-01 8.788682e-01 7.972139e-01 7.167232e-01 6.396922e-01 5.674313e-01 5.005133e-01 4.391571e-01 3.832991e-01 3.327689e-01 2.872852e-01 2.465378e-01 2.101747e-01 1.778448e-01 1.491915e-01 1.238730e-01 1.015637e-01 8.195823e-02 6.478022e-02 4.977184e-02 3.671159e-02 2.539022e-02 
1.706882e-02 6.674376e-03 -2.126978e-03 -9.490655e-03 -1.552364e-02 -2.034757e-02 -2.403375e-02 -2.668040e-02 -2.833406e-02 -2.907835e-02 -2.894480e-02 -2.800931e-02 -2.629685e-02 -2.388064e-02 -2.078611e-02 -1.708736e-02 -1.281607e-02 -8.049720e-03 -2.831172e-03 2.756565e-03 8.655231e-03 1.477386e-02 2.103493e-02 2.733644e-02 3.357795e-02 3.964257e-02 4.540366e-02 5.072494e-02 5.545107e-02 5.942198e-02 6.245248e-02 6.435546e-02 6.491709e-02 6.392244e-02 6.113392e-02 5.631222e-02 4.920578e-02 3.956044e-02 2.712689e-02 1.165371e-02 -7.082383e-03 -2.930296e-02 -5.517309e-02 -8.484728e-02 -1.183925e-01 -1.558500e-01 -1.971436e-01 -2.421507e-01 -2.906076e-01 -3.421806e-01 -3.963846e-01 -4.526429e-01 -5.102379e-01 -5.683481e-01 -6.260465e-01 -6.823062e-01 -7.360547e-01 -7.861409e-01 -8.314428e-01 -8.707953e-01 -9.031312e-01 -9.273788e-01 -9.426053e-01 -9.479039e-01 -9.425052e-01 -9.256860e-01 -8.968207e-01 -8.553525e-01 -8.007718e-01 -7.326929e-01 -6.507610e-01 -5.548726e-01 -4.450197e-01 -3.216712e-01 -1.855580e-01 -3.817223e-02 1.185104e-01 2.815639e-01 4.474513e-01 6.118347e-01 7.699260e-01 9.167683e-01 1.047445e+00 1.157738e+00 1.244026e+00 1.303975e+00 1.336298e+00 1.341470e+00 1.321960e+00 1.283027e+00 1.232747e+00 1.181353e+00 1.139191e+00 1.114757e+00 1.112121e+00 1.131487e+00 1.170033e+00 1.222752e+00 1.282944e+00 1.344153e+00 1.399278e+00 1.440708e+00 1.459684e+00 1.447104e+00 1.398490e+00 1.318886e+00 1.219481e+00 1.111392e+00 1.002447e+00 8.973289e-01 7.983181e-01 7.064590e-01 6.220090e-01 5.449437e-01 4.749994e-01 4.118594e-01 3.551081e-01 3.043239e-01 2.590412e-01 2.188088e-01 1.831671e-01 1.516851e-01 1.239477e-01 9.957413e-02 7.821398e-02 5.954903e-02 4.329977e-02 2.921050e-02 
1.680807e-02 4.387821e-03 -6.128791e-03 -1.492816e-02 -2.212919e-02 -2.787875e-02 -3.225286e-02 -3.537166e-02 -3.728167e-02 -3.808702e-02 -3.781666e-02 -3.656689e-02 -3.435939e-02 -3.128836e-02 -2.737680e-02 -2.272054e-02 -1.735101e-02 -1.136813e-02 -4.817592e-03 2.194494e-03 9.603065e-03 1.729338e-02 2.517634e-02 3.312508e-02 4.102203e-02 4.872353e-02 5.607941e-02 6.292355e-02 6.906984e-02 7.432387e-02 7.846180e-02 8.125619e-02 8.244646e-02 8.177024e-02 7.893543e-02 7.364777e-02 6.559486e-02 5.446090e-02 3.993219e-02 2.169164e-02 -5.472981e-04 -2.707084e-02 -5.809924e-02 -9.384255e-02 -1.344051e-01 -1.798635e-01 -2.301488e-01 -2.851392e-01 -3.445344e-01 -4.079517e-01 -4.748123e-01 -5.444275e-01 -6.159209e-01 -6.882903e-01 -7.603870e-01 -8.309419e-01 -8.986148e-01 -9.619749e-01 -1.019618e+00 -1.070098e+00 -1.112088e+00 -1.144270e+00 -1.165504e+00 -1.174690e+00 -1.170904e+00 -1.153275e+00 -1.121046e+00 -1.073520e+00 -1.010033e+00 -9.300186e-01 -8.329044e-01 -7.183575e-01 -5.861101e-01 -4.364254e-01 -2.698743e-01 -8.797183e-02 1.070899e-01 3.118390e-01 5.218390e-01 7.315001e-01 9.343964e-01 1.123834e+00 1.292976e+00 1.436008e+00 1.547774e+00 1.624809e+00 1.664733e+00 1.667145e+00 1.634234e+00 1.572397e+00 1.493132e+00 1.412175e+00 1.345962e+00 1.308295e+00 1.304277e+00 1.332325e+00 1.388294e+00 1.464252e+00 1.550004e+00 1.637877e+00 1.719359e+00 1.785142e+00 1.822883e+00 1.814141e+00 1.747167e+00 1.632777e+00 1.493814e+00 1.348858e+00 1.208133e+00 1.076137e+00 9.541593e-01 8.423373e-01 7.402744e-01 6.475383e-01 5.636032e-01 4.879729e-01 4.200920e-01 3.594135e-01 3.053583e-01 2.573635e-01 2.148684e-01 1.773431e-01 1.442869e-01 1.152362e-01 8.977323e-02 6.751346e-02 4.812741e-02 3.130794e-02 
1.449407e-02 7.244942e-05 -1.214655e-02 -2.236751e-02 -3.072885e-02 -3.738935e-02 -4.243836e-02 -4.600438e-02 -4.814365e-02 -4.896717e-02 -4.851215e-02 -4.688183e-02 -4.410630e-02 -4.028779e-02 -3.545894e-02 -2.972527e-02 -2.312975e-02 -1.578386e-02 -7.747160e-03 8.606916e-04 9.958181e-03 1.941477e-02 2.912196e-02 3.893431e-02 4.871134e-02 5.828707e-02 6.748405e-02 7.610882e-02 8.394247e-02 9.075667e-02 9.628806e-02 1.002671e-01 1.023860e-01 1.023308e-01 9.975375e-02 9.429918e-02 8.559098e-02 7.324276e-02 5.687095e-02 3.608118e-02 1.051493e-02 -2.019278e-02 -5.632944e-02 -9.817678e-02 -1.458913e-01 -1.996013e-01 -2.592610e-01 -3.247637e-01 -3.957858e-01 -4.719037e-01 -5.524516e-01 -6.366263e-01 -7.233880e-01 -8.115363e-01 -8.996832e-01 -9.862848e-01 -1.069705e+00 -1.148191e+00 -1.220026e+00 -1.283444e+00 -1.336837e+00 -1.378620e+00 -1.407440e+00 -1.422007e+00 -1.421256e+00 -1.404185e+00 -1.369922e+00 -1.317634e+00 -1.246493e+00 -1.155713e+00 -1.044431e+00 -9.119600e-01 -7.576077e-01 -5.812201e-01 -3.829616e-01 -1.641501e-01 7.303485e-02 3.246235e-01 5.853048e-01 8.479100e-01 1.104056e+00 1.344630e+00 1.560379e+00 1.743279e+00 1.886356e+00 1.984710e+00 2.034380e+00 2.033070e+00 1.981140e+00 1.885219e+00 1.761379e+00 1.634179e+00 1.530185e+00 1.473843e+00 1.470245e+00 1.510892e+00 1.592364e+00 1.701519e+00 1.820562e+00 1.943374e+00 2.060516e+00 2.162731e+00 2.237579e+00 2.244093e+00 2.147761e+00 1.975622e+00 1.778736e+00 1.586837e+00 1.410130e+00 1.250037e+00 1.105040e+00 9.735332e-01 8.541588e-01 7.460118e-01 6.483061e-01 5.603905e-01 4.815757e-01 4.112001e-01 3.485619e-01 2.929897e-01 2.438094e-01 2.003963e-01 1.621539e-01 1.285428e-01 9.906948e-02 7.329282e-02 5.082649e-02 3.132289e-02 
9.724317e-03 -6.677108e-03 -2.057800e-02 -3.220889e-02 -4.171232e-02 -4.926853e-02 -5.496414e-02 -5.894750e-02 -6.126800e-02 -6.205693e-02 -6.134296e-02 -5.925126e-02 -5.580370e-02 -5.112645e-02 -4.524584e-02 -3.829308e-02 -3.030780e-02 -2.142834e-02 -1.171470e-02 -1.313798e-03 9.688028e-03 2.113294e-02 3.290266e-02 4.482426e-02 5.674177e-02 6.846067e-02 7.978133e-02 9.047914e-02 1.003051e-01 1.089950e-01 1.162463e-01 1.217464e-01 1.251379e-01 1.260545e-01 1.240877e-01 1.188185e-01 1.097994e-01 9.656866e-02 7.866258e-02 5.560118e-02 2.694056e-02 -7.775812e-03 -4.891891e-02 -9.685964e-02 -1.518250e-01 -2.140165e-01 -2.834298e-01 -3.599961e-01 -4.433832e-01 -5.331462e-01 -6.285375e-01 -7.286487e-01 -8.322656e-01 -9.379826e-01 -1.044140e+00 -1.148892e+00 -1.250255e+00 -1.346114e+00 -1.434378e+00 -1.512921e+00 -1.579809e+00 -1.633166e+00 -1.671414e+00 -1.693084e+00 -1.696992e+00 -1.682038e+00 -1.647278e+00 -1.591775e+00 -1.514553e+00 -1.414589e+00 -1.290665e+00 -1.141611e+00 -9.661104e-01 -7.633122e-01 -5.326360e-01 -2.748147e-01 8.315958e-03 3.125800e-01 6.317879e-01 9.570605e-01 1.277387e+00 1.580578e+00 1.853843e+00 2.086403e+00 2.268917e+00 2.395197e+00 2.459349e+00 2.455556e+00 2.378951e+00 2.233136e+00 2.040096e+00 1.839646e+00 1.673461e+00 1.593122e+00 1.598511e+00 1.654588e+00 1.774860e+00 1.934541e+00 2.093053e+00 2.259829e+00 2.421962e+00 2.572750e+00 2.725677e+00 2.781596e+00 2.628669e+00 2.347538e+00 2.063389e+00 1.814639e+00 1.600997e+00 1.414463e+00 1.248202e+00 1.098249e+00 9.623424e-01 8.392751e-01 7.281529e-01 6.282446e-01 5.387728e-01 4.589639e-01 3.880007e-01 3.250894e-01 2.694451e-01 2.203361e-01 1.770761e-01 1.390412e-01 1.056720e-01 7.646414e-02 5.098641e-02 2.884496e-02 
2.110921e-03 -1.625085e-02 -3.183020e-02 -4.486575e-02 -5.551415e-02 -6.395842e-02 -7.029436e-02 -7.467085e-02 -7.714438e-02 -7.784698e-02 -7.681455e-02 -7.417490e-02 -6.995881e-02 -6.429787e-02 -5.722989e-02 -4.889449e-02 -3.934558e-02 -2.873261e-02 -1.713250e-02 -4.705593e-03 8.442559e-03 2.213855e-02 3.624273e-02 5.056413e-02 6.492285e-02 7.910292e-02 9.287722e-02 1.059945e-01 1.181732e-01 1.291150e-01 1.384772e-01 1.459034e-01 1.509864e-01 1.533035e-01 1.523846e-01 1.477398e-01 1.388468e-01 1.251579e-01 1.061214e-01 8.115673e-02 4.972202e-02 1.124967e-02 -3.473326e-02 -8.871057e-02 -1.510034e-01 -2.219132e-01 -3.015032e-01 -3.897683e-01 -4.863921e-01 -5.909265e-01 -7.025563e-01 -8.202693e-01 -9.426725e-01 -1.068130e+00 -1.194680e+00 -1.320121e+00 -1.442068e+00 -1.557964e+00 -1.665289e+00 -1.761480e+00 -1.844236e+00 -1.911353e+00 -1.961032e+00 -1.991638e+00 -2.001918e+00 -1.990738e+00 -1.957151e+00 -1.900185e+00 -1.818769e+00 -1.711643e+00 -1.577192e+00 -1.413612e+00 -1.218729e+00 -9.906133e-01 -7.274678e-01 -4.288920e-01 -9.578576e-02 2.678485e-01 6.552470e-01 1.055444e+00 1.454263e+00 1.834981e+00 2.180051e+00 2.474562e+00 2.706781e+00 2.870045e+00 2.957632e+00 2.958364e+00 2.854671e+00 2.637074e+00 2.334851e+00 2.018383e+00 1.738083e+00 1.632837e+00 1.682465e+00 1.739943e+00 1.923691e+00 2.174077e+00 2.362616e+00 2.585975e+00 2.799999e+00 2.985662e+00 3.316273e+00 3.532861e+00 3.242507e+00 2.726609e+00 2.317495e+00 2.012684e+00 1.770807e+00 1.564882e+00 1.381523e+00 1.215272e+00 1.063890e+00 9.264706e-01 8.023129e-01 6.907458e-01 5.909406e-01 5.020259e-01 4.230518e-01 3.531007e-01 2.912592e-01 2.366922e-01 1.886118e-01 1.463196e-01 1.091818e-01 7.664421e-02 4.822394e-02 2.349626e-02 
-8.806278e-03 -2.911865e-02 -4.636813e-02 -6.081097e-02 -7.259707e-02 -8.192481e-02 -8.887709e-02 -9.361917e-02 -9.619165e-02 -9.674621e-02 -9.530256e-02 -9.201252e-02 -8.689260e-02 -8.010270e-02 -7.166979e-02 -6.176504e-02 -5.043590e-02 -3.786496e-02 -2.412735e-02 -9.416529e-03 6.159012e-03 2.239396e-02 3.914087e-02 5.617832e-02 7.331328e-02 9.029985e-02 1.068914e-01 1.228051e-01 1.377318e-01 1.513371e-01 1.632402e-01 1.730403e-01 1.802791e-01 1.844771e-01 1.850984e-01 1.815798e-01 1.733163e-01 1.596681e-01 1.399837e-01 1.135708e-01 7.977236e-02 3.789165e-02 -1.266853e-02 -7.253115e-02 -1.421389e-01 -2.219267e-01 -3.120562e-01 -4.126244e-01 -5.233585e-01 -6.438430e-01 -7.732113e-01 -9.103686e-01 -1.053732e+00 -1.201429e+00 -1.351145e+00 -1.500275e+00 -1.645940e+00 -1.785066e+00 -1.914585e+00 -2.031417e+00 -2.132806e+00 -2.216178e+00 -2.279493e+00 -2.320985e+00 -2.339399e+00 -2.333667e+00 -2.302961e+00 -2.246400e+00 -2.162924e+00 -2.051120e+00 -1.908970e+00 -1.733945e+00 -1.522749e+00 -1.271956e+00 -9.779153e-01 -6.382898e-01 -2.521557e-01 1.775483e-01 6.439918e-01 1.134261e+00 1.629993e+00 2.108414e+00 2.544328e+00 2.916900e+00 3.210980e+00 3.422697e+00 3.549136e+00 3.574904e+00 3.454785e+00 3.136150e+00 2.653344e+00 2.168478e+00 1.634835e+00 1.525116e+00 1.765484e+00 1.703646e+00 2.010609e+00 2.479944e+00 2.601524e+00 2.925294e+00 3.210301e+00 3.257380e+00 4.024956e+00 4.794714e+00 4.086545e+00 3.001699e+00 2.471578e+00 2.152953e+00 1.910841e+00 1.699227e+00 1.504514e+00 1.324109e+00 1.158034e+00 1.006630e+00 8.697567e-01 7.468876e-01 6.371532e-01 5.395489e-01 4.529740e-01 3.763582e-01 3.086563e-01 2.489150e-01 1.962531e-01 1.498897e-01 1.091310e-01 7.336784e-02 4.208211e-02 1.481298e-02 
-2.343807e-02 -4.570155e-02 -6.464209e-02 -8.051001e-02 -9.346090e-02 -1.036835e-01 -1.112635e-01 -1.163565e-01 -1.190061e-01 -1.193570e-01 -1.174346e-01 -1.133883e-01 -1.072446e-01 -9.916625e-02 -8.919480e-02 -7.750919e-02 -6.417569e-02 -4.938844e-02 -3.324445e-02 -1.595119e-02 2.359242e-03 2.146605e-02 4.119743e-02 6.131514e-02 8.160115e-02 1.017904e-01 1.216094e-01 1.407519e-01 1.588775e-01 1.756207e-01 1.905621e-01 2.032577e-01 2.131993e-01 2.198479e-01 2.226014e-01 2.208172e-01 2.138037e-01 2.008180e-01 1.810992e-01 1.538259e-01 1.182091e-01 7.339782e-02 1.864422e-02 -4.684682e-02 -1.236759e-01 -2.124520e-01 -3.134792e-01 -4.270001e-01 -5.528308e-01 -6.906256e-01 -8.394993e-01 -9.982881e-01 -1.165223e+00 -1.338160e+00 -1.514389e+00 -1.690808e+00 -1.863948e+00 -2.030070e+00 -2.185439e+00 -2.326308e+00 -2.449382e+00 -2.551639e+00 -2.630809e+00 -2.685038e+00 -2.713181e+00 -2.714387e+00 -2.688132e+00 -2.633819e+00 -2.550599e+00 -2.437042e+00 -2.290841e+00 -2.108646e+00 -1.885840e+00 -1.616922e+00 -1.295614e+00 -9.164827e-01 -4.754302e-01 2.699836e-02 5.851737e-01 1.184402e+00 1.801590e+00 2.404857e+00 2.957484e+00 3.427484e+00 3.794804e+00 4.063589e+00 4.250546e+00 4.350687e+00 4.269273e+00 3.814179e+00 2.987580e+00 2.377613e+00 1.113548e+00 1.082533e+00 1.880919e+00 1.889241e+00 1.367417e+00 2.511189e+00 2.423353e+00 2.140861e+00 2.193416e+00 1.780552e+00 2.788720e+00 3.143982e+00 3.369511e+00 2.723247e+00 2.418312e+00 2.222062e+00 2.027041e+00 1.823714e+00 1.620545e+00 1.425871e+00 1.244597e+00 1.078994e+00 9.295226e-01 7.957103e-01 6.765246e-01 5.707538e-01 4.770836e-01 3.942693e-01 3.211089e-01 2.565356e-01 1.995646e-01 1.493480e-01 1.051261e-01 6.625346e-02 3.217180e-02 2.404687e-03 
-4.232062e-02 -6.655573e-02 -8.720874e-02 -1.045353e-01 -1.186695e-01 -1.298064e-01 -1.380054e-01 -1.434333e-01 -1.461060e-01 -1.461871e-01 -1.436762e-01 -1.387499e-01 -1.314133e-01 -1.218639e-01 -1.101280e-01 -9.642466e-02 -8.081112e-02 -6.352399e-02 -4.465712e-02 -2.445941e-02 -3.064736e-03 1.926810e-02 4.236138e-02 6.594324e-02 8.978574e-02 1.135936e-01 1.370784e-01 1.599044e-01 1.817089e-01 2.020928e-01 2.206040e-01 2.367556e-01 2.499909e-01 2.597125e-01 2.652500e-01 2.658797e-01 2.608173e-01 2.492101e-01 2.301761e-01 2.027509e-01 1.659939e-01 1.188760e-01 6.047029e-02 -1.022782e-02 -9.401584e-02 -1.917284e-01 -3.038607e-01 -4.308647e-01 -5.726981e-01 -7.291506e-01 -8.993600e-01 -1.082141e+00 -1.275541e+00 -1.477145e+00 -1.683776e+00 -1.891754e+00 -2.096862e+00 -2.294534e+00 -2.480152e+00 -2.649122e+00 -2.797423e+00 -2.921498e+00 -3.018809e+00 -3.087493e+00 -3.126667e+00 -3.135916e+00 -3.115287e+00 -3.064762e+00 -2.984002e+00 -2.871865e+00 -2.725953e+00 -2.542233e+00 -2.314578e+00 -2.034976e+00 -1.693530e+00 -1.280292e+00 -7.860224e-01 -2.065832e-01 4.558117e-01 1.186372e+00 1.956911e+00 2.723613e+00 3.430389e+00 4.024622e+00 4.471495e+00 4.790101e+00 5.051092e+00 5.326882e+00 5.478381e+00 4.886206e+00 3.120199e+00 3.279689e+00 3.355284e+00 1.937259e+00 -4.538970e-01 9.220785e-01 8.517348e-01 -5.965980e-01 -8.557505e-01 -1.674005e+00 -1.927308e+00 -2.233337e+00 -2.167787e+00 -2.537304e+00 6.979107e-02 1.836128e+00 2.259901e+00 2.294944e+00 2.158037e+00 1.955000e+00 1.735388e+00 1.521503e+00 1.322646e+00 1.142051e+00 9.800748e-01 8.358351e-01 7.078849e-01 5.946560e-01 4.945548e-01 4.061219e-01 3.279945e-01 2.589841e-01 1.980176e-01 1.441790e-01 9.666376e-02 5.478949e-02 1.797997e-02 -1.426012e-02 
-6.587815e-02 -9.212843e-02 -1.145615e-01 -1.334084e-01 -1.487967e-01 -1.608955e-01 -1.697578e-01 -1.755276e-01 -1.782181e-01 -1.779762e-01 -1.748055e-01 -1.688746e-01 -1.602004e-01 -1.489816e-01 -1.352643e-01 -1.192762e-01 -1.011011e-01 -8.098927e-02 -5.906483e-02 -3.559251e-02 -1.073715e-02 1.522673e-02 4.209234e-02 6.957311e-02 9.741488e-02 1.253079e-01 1.529393e-01 1.799562e-01 2.059701e-01 2.305579e-01 2.532348e-01 2.734769e-01 2.906816e-01 3.041948e-01 3.132792e-01 3.171272e-01 3.148589e-01 3.055031e-01 2.880462e-01 2.613636e-01 2.243421e-01 1.757458e-01 1.144327e-01 3.914585e-02 -5.116246e-02 -1.576121e-01 -2.809602e-01 -4.219416e-01 -5.807366e-01 -7.573465e-01 -9.510035e-01 -1.160551e+00 -1.383878e+00 -1.618277e+00 -1.860039e+00 -2.104765e+00 -2.347304e+00 -2.581994e+00 -2.803071e+00 -3.004785e+00 -3.182193e+00 -3.331032e+00 -3.448514e+00 -3.532858e+00 -3.583683e+00 -3.601316e+00 -3.586731e+00 -3.540895e+00 -3.464416e+00 -3.356890e+00 -3.216305e+00 -3.038203e+00 -2.815065e+00 -2.535803e+00 -2.185920e+00 -1.748933e+00 -1.207874e+00 -5.505146e-01 2.282348e-01 1.116640e+00 2.083468e+00 3.069440e+00 3.989231e+00 4.748208e+00 5.271114e+00 5.580465e+00 5.857426e+00 6.457587e+00 7.474821e+00 7.289658e+00 3.769923e-01 -5.369708e+00 -2.419123e+00 -4.158149e-01 -1.103198e+00 -3.613231e+00 -3.576409e+00 -3.789064e+00 -4.139659e+00 -3.709101e+00 -3.876978e+00 -3.314131e+00 -4.383214e+00 -3.924454e+00 -1.189511e+00 1.758248e+00 2.497462e+00 2.547254e+00 2.362762e+00 2.110591e+00 1.852301e+00 1.609812e+00 1.389935e+00 1.193630e+00 1.019597e+00 8.658294e-01 7.301146e-01 6.103831e-01 5.046910e-01 4.113515e-01 3.288336e-01 2.558451e-01 1.912289e-01 1.340252e-01 8.338715e-02 3.862091e-02 -8.688450e-04 -3.557013e-02 
-9.474457e-02 -1.230882e-01 -1.473780e-01 -1.678335e-01 -1.845409e-01 -1.976638e-01 -2.072107e-01 -2.133303e-01 -2.159926e-01 -2.153627e-01 -2.114062e-01 -2.043242e-01 -1.941041e-01 -1.809896e-01 -1.650072e-01 -1.464382e-01 -1.253564e-01 -1.020683e-01 -7.669588e-02 -4.955732e-02 -2.081999e-02 9.195354e-03 4.027699e-02 7.210156e-02 1.044088e-01 1.368609e-01 1.691370e-01 2.008608e-01 2.316316e-01 2.610011e-01 2.884623e-01 3.134569e-01 3.353434e-01 3.534141e-01 3.668678e-01 3.748138e-01 3.762746e-01 3.701554e-01 3.553022e-01 3.304151e-01 2.941895e-01 2.451535e-01 1.819165e-01 1.029203e-01 6.813983e-03 -1.078819e-01 -2.422623e-01 -3.974467e-01 -5.739350e-01 -7.720587e-01 -9.912431e-01 -1.230465e+00 -1.487510e+00 -1.759403e+00 -2.041833e+00 -2.329553e+00 -2.616207e+00 -2.894715e+00 -3.157722e+00 -3.397914e+00 -3.609020e+00 -3.785855e+00 -3.925311e+00 -4.025873e+00 -4.087990e+00 -4.113179e+00 -4.103842e+00 -4.062439e+00 -3.991097e+00 -3.890811e+00 -3.760650e+00 -3.596468e+00 -3.389715e+00 -3.126218e+00 -2.785809e+00 -2.343544e+00 -1.771293e+00 -1.044090e+00 -1.433913e-01 9.291667e-01 2.145571e+00 3.432685e+00 4.664840e+00 5.672515e+00 6.272834e+00 6.411477e+00 6.370214e+00 7.210066e+00 1.093219e+01 1.332748e+00 -4.380720e+00 -1.905609e+00 -2.396171e+00 -8.011184e+00 -6.468279e+00 -2.371431e+00 -3.384393e+00 -1.548180e+00 -9.074758e-01 1.422323e-01 -1.805099e-01 9.906503e-01 1.433568e-01 1.240836e+00 2.351831e+00 3.638352e+00 3.434940e+00 3.042207e+00 2.642518e+00 2.279719e+00 1.960853e+00 1.682932e+00 1.440936e+00 1.229907e+00 1.045435e+00 8.838132e-01 7.418519e-01 6.169086e-01 5.066885e-01 4.092895e-01 3.230451e-01 2.465781e-01 1.786807e-01 1.183623e-01 6.476429e-02 1.718736e-02 -2.495406e-02 -6.214099e-02 
-1.293400e-01 -1.598965e-01 -1.861887e-01 -2.083874e-01 -2.265555e-01 -2.408096e-01 -2.511396e-01 -2.576537e-01 -2.603120e-01 -2.592508e-01 -2.544381e-01 -2.460602e-01 -2.341214e-01 -2.188649e-01 -2.003474e-01 -1.788618e-01 -1.545218e-01 -1.276526e-01 -9.842060e-02 -6.716411e-02 -3.409382e-02 4.527547e-04 3.622685e-02 7.289390e-02 1.101656e-01 1.476977e-01 1.851498e-01 2.221407e-01 2.582538e-01 2.930317e-01 3.259478e-01 3.564217e-01 3.837789e-01 4.072667e-01 4.260255e-01 4.390853e-01 4.453719e-01 4.436637e-01 4.326581e-01 4.108672e-01 3.767717e-01 3.286352e-01 2.647753e-01 1.832799e-01 8.242311e-02 -3.971768e-02 -1.846830e-01 -3.540969e-01 -5.489195e-01 -7.699617e-01 -1.016993e+00 -1.289261e+00 -1.584545e+00 -1.899643e+00 -2.229578e+00 -2.568057e+00 -2.907192e+00 -3.237963e+00 -3.550856e+00 -3.836305e+00 -4.086223e+00 -4.294110e+00 -4.456579e+00 -4.572626e+00 -4.644071e+00 -4.674233e+00 -4.667504e+00 -4.628462e+00 -4.561395e+00 -4.469617e+00 -4.354468e+00 -4.213374e+00 -4.037931e+00 -3.811067e+00 -3.506302e+00 -3.087546e+00 -2.511771e+00 -1.735056e+00 -7.171381e-01 5.618214e-01 2.091456e+00 3.796750e+00 5.511935e+00 6.955982e+00 7.724091e+00 7.436462e+00 6.031198e+00 5.361499e+00 -2.195230e+00 -8.660606e+00 -2.787402e+00 -8.310916e+00 -8.700874e+00 1.927244e+00 1.868741e+00 1.052150e+00 2.430162e+00 4.085228e+00 3.316507e+00 4.436158e+00 4.092904e+00 4.358002e+00 4.584859e+00 4.446394e+00 7.363549e+00 6.430762e+00 4.570340e+00 3.551716e+00 2.892417e+00 2.412245e+00 2.035813e+00 1.727512e+00 1.468224e+00 1.246573e+00 1.054986e+00 8.881591e-01 7.420381e-01 6.135182e-01 5.000380e-01 3.995547e-01 3.103174e-01 2.309141e-01 1.601151e-01 9.693630e-02 4.052150e-02 -9.802499e-03 -5.460741e-02 -9.433626e-02 
-1.704234e-01 -2.033666e-01 -2.318282e-01 -2.559451e-01 -2.757141e-01 -2.912294e-01 -3.024134e-01 -3.093700e-01 -3.119961e-01 -3.104455e-01 -3.046331e-01 -2.947863e-01 -2.808705e-01 -2.631902e-01 -2.417797e-01 -2.170058e-01 -1.889749e-01 -1.580897e-01 -1.245195e-01 -8.867408e-02 -5.077141e-02 -1.120664e-02 2.976499e-02 7.176918e-02 1.145154e-01 1.576368e-01 2.007953e-01 2.435993e-01 2.856354e-01 3.264390e-01 3.654812e-01 4.021662e-01 4.358007e-01 4.655956e-01 4.906437e-01 5.099019e-01 5.222050e-01 5.262052e-01 5.204488e-01 5.032489e-01 4.728575e-01 4.272443e-01 3.644004e-01 2.820032e-01 1.778859e-01 4.958398e-02 -1.050001e-01 -2.881488e-01 -5.014513e-01 -7.464077e-01 -1.023345e+00 -1.332015e+00 -1.670374e+00 -2.035135e+00 -2.420647e+00 -2.819417e+00 -3.221586e+00 -3.615558e+00 -3.988717e+00 -4.328267e+00 -4.623332e+00 -4.865530e+00 -5.051092e+00 -5.180051e+00 -5.256493e+00 -5.286507e+00 -5.277321e+00 -5.236166e+00 -5.170150e+00 -5.085856e+00 -4.988435e+00 -4.879014e+00 -4.751326e+00 -4.586970e+00 -4.352817e+00 -4.000021e+00 -3.466375e+00 -2.683021e+00 -1.577826e+00 -9.322144e-02 1.804264e+00 4.071528e+00 6.540139e+00 8.819414e+00 1.019793e+01 9.591041e+00 5.002851e+00 3.160253e+00 -3.344727e+00 -5.110871e+00 -1.036675e+01 -6.188466e+00 1.133310e+00 3.708297e+00 4.080791e+00 5.895136e+00 6.460799e+00 5.752648e+00 6.105644e+00 4.469942e+00 5.009688e+00 3.455554e+00 4.344166e+00 3.007734e+00 8.150521e+00 6.941496e+00 4.864403e+00 3.706467e+00 2.968937e+00 2.447339e+00 2.049305e+00 1.729829e+00 1.464625e+00 1.239661e+00 1.045941e+00 8.774455e-01 7.297419e-01 5.995471e-01 4.842195e-01 3.816921e-01 2.902193e-01 2.084098e-01 1.350649e-01 6.923457e-02 1.010331e-02 -4.296313e-02 -9.048915e-02 -1.328771e-01 