# vtk DataFile Version 2.0
Comment goes here
ASCII

DATASET STRUCTURED_POINTS
DIMENSIONS    128   128   1

ORIGIN    0.000   0.000   0.000
SPACING   0.0156250.015625   1.000

POINT_DATA   16384
SCALARS Omega double
LOOKUP_TABLE default

2.403553e-05 2.241467e-05 2.053573e-05 1.853453e-05 1.630252e-05 1.398760e-05 1.145966e-05 8.879115e-06 6.100857e-06 3.296322e-06 3.128524e-07 -2.671122e-06 -5.807938e-06 -8.918928e-06 -1.214822e-05 -1.532611e-05 -1.858101e-05 -2.176315e-05 -2.497855e-05 -2.810913e-05 -3.123321e-05 -3.427561e-05 -3.728372e-05 -4.023457e-05 -4.314413e-05 -4.604759e-05 -4.893267e-05 -5.189397e-05 -5.489875e-05 -5.809648e-05 -6.144714e-05 -6.514412e-05 -6.915929e-05 -7.371262e-05 -7.881266e-05 -8.468319e-05 -9.139833e-05 -9.915930e-05 -1.081354e-04 -1.184783e-04 -1.304773e-04 -1.442094e-04 -1.600974e-04 -1.781242e-04 -1.988383e-04 -2.221163e-04 -2.485970e-04 -2.780466e-04 -3.111255e-04 -3.474915e-04 -3.877263e-04 -4.313866e-04 -4.788522e-04 -5.295883e-04 -5.836446e-04 -6.404064e-04 -6.994825e-04 -7.601935e-04 -8.216360e-04 -8.830874e-04 -9.431173e-04 -1.000992e-03 -1.054804e-03 -1.103859e-03 -1.145880e-03 -1.180288e-03 -1.204607e-03 -1.218479e-03 -1.219448e-03 -1.207509e-03 -1.180495e-03 -1.138902e-03 -1.081149e-03 -1.008360e-03 -9.198587e-04 -8.174546e-04 -7.016633e-04 -5.749463e-04 -4.391962e-04 -2.973763e-04 -1.527427e-04 -8.494459e-06 1.310774e-04 2.629311e-04 3.824635e-04 4.873319e-04 5.736871e-04 6.405177e-04 6.858315e-04 7.104012e-04 7.146738e-04 7.010772e-04 6.721049e-04 6.310215e-04 5.811601e-04 5.255720e-04 4.672129e-04 4.082665e-04 3.507167e-04 2.958216e-04 2.446727e-04 1.979216e-04 1.561227e-04 1.196019e-04 8.857604e-05 6.307397e-05 4.293693e-05 2.783472e-05 1.722797e-05 1.051460e-05 6.956277e-06 5.889891e-06 6.611909e-06 8.572457e-06 1.124183e-05 1.425314e-05 1.727630e-05 2.011799e-05 2.260770e-05 2.468269e-05 2.627256e-05 2.739929e-05 2.803942e-05 2.826420e-05 2.805903e-05 2.752209e-05 2.662472e-05 2.548048e-05 
1.944965e-03 -1.238654e-03 -4.025930e-03 -6.430484e-03 -8.465432e-03 -1.014561e-02 -1.148475e-02 -1.249854e-02 -1.320132e-02 -1.360969e-02 -1.373896e-02 -1.360696e-02 -1.323040e-02 -1.262874e-02 -1.182059e-02 -1.082734e-02 -9.669925e-03 -8.371919e-03 -6.956876e-03 -5.450792e-03 -3.880104e-03 -2.273463e-03 -6.604499e-04 9.273107e-04 2.456795e-03 3.892971e-03 5.199039e-03 6.336051e-03 7.263124e-03 7.936923e-03 8.312347e-03 8.341453e-03 7.975173e-03 7.161278e-03 5.847658e-03 3.979020e-03 1.502138e-03 -1.638847e-03 -5.495046e-03 -1.011877e-02 -1.555423e-02 -2.184429e-02 -2.901992e-02 -3.710694e-02 -4.611537e-02 -5.604533e-02 -6.687759e-02 -7.857784e-02 -9.109005e-02 -1.043384e-01 -1.182249e-01 -1.326288e-01 -1.474092e-01 -1.624023e-01 -1.774288e-01 -1.922896e-01 -2.067763e-01 -2.206670e-01 -2.337364e-01 -2.457530e-01 -2.564847e-01 -2.657012e-01 -2.731686e-01 -2.786612e-01 -2.819417e-01 -2.827884e-01 -2.809560e-01 -2.762281e-01 -2.683554e-01 -2.571421e-01 -2.423612e-01 -2.238811e-01 -2.015589e-01 -1.754054e-01 -1.454615e-01 -1.119834e-01 -7.531400e-02 -3.604737e-02 5.083724e-03 4.712200e-02 8.895674e-02 1.293645e-01 1.670250e-01 2.006917e-01 2.291673e-01 2.515484e-01 2.671984e-01 2.759720e-01 2.781904e-01 2.747312e-01 2.669272e-01 2.564432e-01 2.450401e-01 2.343302e-01 2.255317e-01 2.193629e-01 2.159537e-01 2.149566e-01 2.155849e-01 2.168639e-01 2.177180e-01 2.172009e-01 2.145678e-01 2.094326e-01 2.017894e-01 1.920271e-01 1.807658e-01 1.687063e-01 1.564313e-01 1.443663e-01 1.327356e-01 1.216431e-01 1.110890e-01 1.010492e-01 9.147555e-02 8.233951e-02 7.361467e-02 6.529646e-02 5.738259e-02 4.988286e-02 4.280450e-02 3.615855e-02 2.995093e-02 2.418700e-02 1.886705e-02 1.398936e-02 9.548485e-03 5.536873e-03 
3.379713e-03 -2.972327e-03 -8.533323e-03 -1.333078e-02 -1.738964e-02 -2.073991e-02 -2.340783e-02 -2.542520e-02 -2.681955e-02 -2.762460e-02 -2.786990e-02 -2.759170e-02 -2.682251e-02 -2.560183e-02 -2.396615e-02 -2.195880e-02 -1.962103e-02 -1.700051e-02 -1.414389e-02 -1.110352e-02 -7.931975e-03 -4.686748e-03 -1.426855e-03 1.784482e-03 4.881203e-03 7.793477e-03 1.044753e-02 1.276586e-02 1.466637e-02 1.606286e-02 1.686460e-02 1.697614e-02 1.629864e-02 1.472786e-02 1.215867e-02 8.480347e-03 3.585313e-03 -2.638833e-03 -1.029561e-02 -1.949101e-02 -3.031490e-02 -4.285514e-02 -5.717509e-02 -7.332926e-02 -9.133897e-02 -1.112078e-01 -1.328981e-01 -1.563447e-01 -1.814357e-01 -2.080223e-01 -2.359076e-01 -2.648519e-01 -2.945711e-01 -3.247380e-01 -3.549904e-01 -3.849293e-01 -4.141339e-01 -4.421587e-01 -4.685496e-01 -4.928426e-01 -5.145723e-01 -5.332778e-01 -5.484928e-01 -5.597673e-01 -5.666295e-01 -5.686369e-01 -5.653006e-01 -5.561843e-01 -5.407857e-01 -5.187007e-01 -4.894618e-01 -4.527809e-01 -4.083471e-01 -3.561454e-01 -2.962268e-01 -2.290632e-01 -1.553186e-01 -7.615303e-02 6.960245e-03 9.210292e-02 1.769989e-01 2.591521e-01 3.358210e-01 4.044165e-01 4.624179e-01 5.078920e-01 5.394601e-01 5.567332e-01 5.603481e-01 5.521031e-01 5.348319e-01 5.120914e-01 4.876691e-01 4.650273e-01 4.467328e-01 4.342648e-01 4.278234e-01 4.265920e-01 4.288212e-01 4.323880e-01 4.349853e-01 4.345920e-01 4.296216e-01 4.192554e-01 4.035185e-01 3.833331e-01 3.601334e-01 3.354834e-01 3.106221e-01 2.863944e-01 2.631973e-01 2.411748e-01 2.202736e-01 2.004071e-01 1.814589e-01 1.633610e-01 1.460597e-01 1.295465e-01 1.138213e-01 9.890622e-02 8.482012e-02 7.158679e-02 5.922111e-02 4.773461e-02 3.713002e-02 2.740407e-02 1.854757e-02 1.054534e-02 
3.839642e-03 -5.652326e-03 -1.396383e-02 -2.113357e-02 -2.719896e-02 -3.220267e-02 -3.618419e-02 -3.918911e-02 -4.125902e-02 -4.244267e-02 -4.278477e-02 -4.233820e-02 -4.115221e-02 -3.928485e-02 -3.679136e-02 -3.373586e-02 -3.018069e-02 -2.619671e-02 -2.185423e-02 -1.723137e-02 -1.240713e-02 -7.467480e-03 -2.500809e-03 2.398127e-03 7.130659e-03 1.159196e-02 1.567199e-02 1.925423e-02 2.221616e-02 2.442794e-02 2.575395e-02 2.605002e-02 2.516788e-02 2.294960e-02 1.923667e-02 1.386061e-02 6.658169e-03 -2.542618e-03 -1.390027e-02 -2.757818e-02 -4.371582e-02 -6.245029e-02 -8.388261e-02 -1.081004e-01 -1.351425e-01 -1.650198e-01 -1.976827e-01 -2.330378e-01 -2.709224e-01 -3.111153e-01 -3.533236e-01 -3.971861e-01 -4.422755e-01 -4.880949e-01 -5.340965e-01 -5.796722e-01 -6.241844e-01 -6.669542e-01 -7.072945e-01 -7.445013e-01 -7.778742e-01 -8.067186e-01 -8.303375e-01 -8.480572e-01 -8.591753e-01 -8.630280e-01 -8.588839e-01 -8.460778e-01 -8.238430e-01 -7.915418e-01 -7.484327e-01 -6.940239e-01 -6.277768e-01 -5.495875e-01 -4.594374e-01 -3.579587e-01 -2.460611e-01 -1.254607e-01 1.659409e-03 1.323470e-01 2.631073e-01 3.900048e-01 5.087204e-01 6.150863e-01 7.050133e-01 7.752833e-01 8.235046e-01 8.488781e-01 8.522484e-01 8.364713e-01 8.061826e-01 7.673586e-01 7.264099e-01 6.891777e-01 6.598790e-01 6.408055e-01 6.321128e-01 6.322443e-01 6.380853e-01 6.460092e-01 6.521497e-01 6.531559e-01 6.463918e-01 6.304738e-01 6.055248e-01 5.733336e-01 5.366330e-01 4.982199e-01 4.601308e-01 4.235823e-01 3.890024e-01 3.564278e-01 3.256323e-01 2.963936e-01 2.684843e-01 2.417841e-01 2.162079e-01 1.917510e-01 1.684210e-01 1.462624e-01 1.253101e-01 1.056083e-01 8.718306e-02 7.005744e-02 5.423727e-02 3.972171e-02 2.649772e-02 1.454575e-02 
2.849038e-03 -9.744054e-03 -2.077276e-02 -3.028741e-02 -3.833431e-02 -4.496946e-02 -5.024223e-02 -5.421289e-02 -5.693397e-02 -5.847040e-02 -5.887926e-02 -5.823137e-02 -5.659033e-02 -5.403416e-02 -5.063485e-02 -4.647869e-02 -4.164754e-02 -3.623667e-02 -3.033889e-02 -2.405896e-02 -1.750151e-02 -1.078146e-02 -4.016157e-03 2.668203e-03 9.140342e-03 1.526103e-02 2.088356e-02 2.585333e-02 3.000660e-02 3.317092e-02 3.516443e-02 3.579507e-02 3.486317e-02 3.215724e-02 2.746272e-02 2.055236e-02 1.120371e-02 -8.173898e-04 -1.572886e-02 -3.375612e-02 -5.509348e-02 -7.993411e-02 -1.084225e-01 -1.406882e-01 -1.767933e-01 -2.167664e-01 -2.605507e-01 -3.080346e-01 -3.590078e-01 -4.131847e-01 -4.701758e-01 -5.295023e-01 -5.905882e-01 -6.527660e-01 -7.152911e-01 -7.773405e-01 -8.380447e-01 -8.964832e-01 -9.517213e-01 -1.002808e+00 -1.048797e+00 -1.088759e+00 -1.121764e+00 -1.146919e+00 -1.163296e+00 -1.170013e+00 -1.166100e+00 -1.150657e+00 -1.122639e+00 -1.081146e+00 -1.025116e+00 -9.537855e-01 -8.663040e-01 -7.623683e-01 -6.417826e-01 -5.052085e-01 -3.537161e-01 -1.894776e-01 -1.539499e-02 1.645479e-01 3.454698e-01 5.218511e-01 6.874627e-01 8.362572e-01 9.621411e-01 1.060176e+00 1.126527e+00 1.159560e+00 1.160181e+00 1.132368e+00 1.083128e+00 1.021746e+00 9.583531e-01 9.021848e-01 8.595417e-01 8.335386e-01 8.241092e-01 8.284690e-01 8.413913e-01 8.571584e-01 8.698512e-01 8.743994e-01 8.667717e-01 8.446985e-01 8.084082e-01 7.612358e-01 7.082323e-01 6.541339e-01 6.019311e-01 5.530167e-01 5.075363e-01 4.651402e-01 4.252405e-01 3.873708e-01 3.511498e-01 3.163915e-01 2.829901e-01 2.509564e-01 2.203234e-01 1.911684e-01 1.635560e-01 1.375563e-01 1.132155e-01 9.057018e-02 6.963544e-02 5.041351e-02 3.289218e-02 1.704757e-02 
-7.338024e-05 -1.571440e-02 -2.941727e-02 -4.123865e-02 -5.123510e-02 -5.947088e-02 -6.600685e-02 -7.091325e-02 -7.425538e-02 -7.611008e-02 -7.654882e-02 -7.565661e-02 -7.351349e-02 -7.021431e-02 -6.584984e-02 -6.052602e-02 -5.434598e-02 -4.742750e-02 -3.988719e-02 -3.185516e-02 -2.346232e-02 -1.485176e-02 -6.169734e-03 2.426396e-03 1.077358e-02 1.869796e-02 2.601760e-02 3.253907e-02 3.805917e-02 4.236148e-02 4.521951e-02 4.639115e-02 4.562624e-02 4.265655e-02 3.721095e-02 2.899903e-02 1.773650e-02 3.121157e-03 -1.512963e-02 -3.731068e-02 -6.367947e-02 -9.449398e-02 -1.299533e-01 -1.702385e-01 -2.154482e-01 -2.656374e-01 -3.207560e-01 -3.806810e-01 -4.451659e-01 -5.138626e-01 -5.862919e-01 -6.618524e-01 -7.398188e-01 -8.193398e-01 -8.994662e-01 -9.791398e-01 -1.057247e+00 -1.132601e+00 -1.204010e+00 -1.270255e+00 -1.330141e+00 -1.382494e+00 -1.426159e+00 -1.460024e+00 -1.482950e+00 -1.493848e+00 -1.491518e+00 -1.474820e+00 -1.442423e+00 -1.393119e+00 -1.325474e+00 -1.238357e+00 -1.130488e+00 -1.001219e+00 -8.500012e-01 -6.773769e-01 -4.843844e-01 -2.735899e-01 -4.850031e-02 1.857479e-01 4.228193e-01 6.552656e-01 8.746484e-01 1.072524e+00 1.240274e+00 1.370608e+00 1.457527e+00 1.497928e+00 1.492245e+00 1.445663e+00 1.368258e+00 1.274110e+00 1.178987e+00 1.097368e+00 1.038277e+00 1.005213e+00 9.978465e-01 1.011381e+00 1.036920e+00 1.065964e+00 1.089807e+00 1.101226e+00 1.094343e+00 1.065144e+00 1.013650e+00 9.460444e-01 8.719704e-01 7.993355e-01 7.320785e-01 6.711790e-01 6.158562e-01 5.649182e-01 5.171500e-01 4.717332e-01 4.280984e-01 3.860125e-01 3.453718e-01 3.062357e-01 2.686837e-01 2.328500e-01 1.988393e-01 1.667625e-01 1.366898e-01 1.086811e-01 8.276168e-02 5.894379e-02 3.721574e-02 1.755533e-02 
-5.384313e-03 -2.401478e-02 -4.034199e-02 -5.442968e-02 -6.633876e-02 -7.614291e-02 -8.390882e-02 -8.971830e-02 -9.364415e-02 -9.577712e-02 -9.619836e-02 -9.500945e-02 -9.230275e-02 -8.819250e-02 -8.278482e-02 -7.620783e-02 -6.858323e-02 -6.005352e-02 -5.075708e-02 -4.085097e-02 -3.049103e-02 -1.984933e-02 -9.100223e-03 1.567879e-03 1.196037e-02 2.186977e-02 3.107856e-02 3.935618e-02 4.645892e-02 5.212834e-02 5.609152e-02 5.805788e-02 5.772392e-02 5.476519e-02 4.884993e-02 3.962302e-02 2.673287e-02 9.804805e-03 -1.151562e-02 -3.760072e-02 -6.877989e-02 -1.053881e-01 -1.476892e-01 -1.959317e-01 -2.502617e-01 -3.107795e-01 -3.774517e-01 -4.501627e-01 -5.286368e-01 -6.124794e-01 -7.011212e-01 -7.938467e-01 -8.897718e-01 -9.878586e-01 -1.086932e+00 -1.185684e+00 -1.282727e+00 -1.376590e+00 -1.465788e+00 -1.548818e+00 -1.624215e+00 -1.690554e+00 -1.746451e+00 -1.790591e+00 -1.821637e+00 -1.838314e+00 -1.839213e+00 -1.822968e+00 -1.787959e+00 -1.732644e+00 -1.655159e+00 -1.553899e+00 -1.427014e+00 -1.273316e+00 -1.091681e+00 -8.822620e-01 -6.458516e-01 -3.851560e-01 -1.042252e-01 1.907390e-01 4.916951e-01 7.890727e-01 1.071625e+00 1.328033e+00 1.546322e+00 1.716035e+00 1.827943e+00 1.876199e+00 1.859812e+00 1.784769e+00 1.665298e+00 1.522536e+00 1.381167e+00 1.264886e+00 1.185899e+00 1.145815e+00 1.145396e+00 1.176606e+00 1.223085e+00 1.273450e+00 1.315066e+00 1.338287e+00 1.335209e+00 1.297796e+00 1.224088e+00 1.125815e+00 1.022709e+00 9.278136e-01 8.451631e-01 7.737814e-01 7.107605e-01 6.533992e-01 5.995844e-01 5.480837e-01 4.981816e-01 4.496567e-01 4.024746e-01 3.567891e-01 3.127676e-01 2.706231e-01 2.305226e-01 1.926261e-01 1.570405e-01 1.238515e-01 9.310263e-02 6.481704e-02 3.899017e-02 1.560139e-02 
-1.354593e-02 -3.509514e-02 -5.399032e-02 -7.029453e-02 -8.407512e-02 -9.540764e-02 -1.043671e-01 -1.110398e-01 -1.155089e-01 -1.178726e-01 -1.182249e-01 -1.166783e-01 -1.133408e-01 -1.083412e-01 -1.018043e-01 -9.387659e-02 -8.470114e-02 -7.444227e-02 -6.326231e-02 -5.134324e-02 -3.886697e-02 -2.603327e-02 -1.304455e-02 -1.196567e-04 1.251652e-02 2.462290e-02 3.594868e-02 4.622554e-02 5.517216e-02 6.248668e-02 6.785246e-02 7.092804e-02 7.135824e-02 6.875849e-02 6.273588e-02 5.286484e-02 3.872255e-02 1.985376e-02 -4.176109e-03 -3.382768e-02 -6.951570e-02 -1.116656e-01 -1.606247e-01 -2.167245e-01 -2.801811e-01 -3.511562e-01 -4.296570e-01 -5.155886e-01 -6.086674e-01 -7.084578e-01 -8.143140e-01 -9.253996e-01 -1.040671e+00 -1.158881e+00 -1.278613e+00 -1.398272e+00 -1.516166e+00 -1.630495e+00 -1.739452e+00 -1.841212e+00 -1.934023e+00 -2.016195e+00 -2.086124e+00 -2.142302e+00 -2.183234e+00 -2.207486e+00 -2.213491e+00 -2.199675e+00 -2.164153e+00 -2.105018e+00 -2.019929e+00 -1.906677e+00 -1.762679e+00 -1.585947e+00 -1.374481e+00 -1.127726e+00 -8.458287e-01 -5.314174e-01 -1.887640e-01 1.747650e-01 5.494344e-01 9.230073e-01 1.281031e+00 1.608469e+00 1.889275e+00 2.108752e+00 2.253029e+00 2.311502e+00 2.279429e+00 2.162444e+00 1.980071e+00 1.763870e+00 1.552555e+00 1.388943e+00 1.288612e+00 1.240527e+00 1.255330e+00 1.320278e+00 1.398909e+00 1.482543e+00 1.550851e+00 1.592563e+00 1.600075e+00 1.554795e+00 1.445879e+00 1.296251e+00 1.150950e+00 1.030032e+00 9.337989e-01 8.557722e-01 7.889568e-01 7.284221e-01 6.710336e-01 6.152739e-01 5.604398e-01 5.064738e-01 4.535110e-01 4.018787e-01 3.518742e-01 3.038245e-01 2.579735e-01 2.145478e-01 1.736943e-01 1.355354e-01 1.001330e-01 6.752961e-02 3.772678e-02 1.071344e-02 
-2.498609e-02 -4.938463e-02 -7.078959e-02 -8.926437e-02 -1.048747e-01 -1.176995e-01 -1.278143e-01 -1.353122e-01 -1.402792e-01 -1.428241e-01 -1.430469e-01 -1.410745e-01 -1.370249e-01 -1.310452e-01 -1.232742e-01 -1.138803e-01 -1.030243e-01 -9.089573e-02 -7.767797e-02 -6.358039e-02 -4.880898e-02 -3.359245e-02 -1.815998e-02 -2.760685e-03 1.235092e-02 2.690171e-02 4.060766e-02 5.316530e-02 6.425507e-02 7.353477e-02 8.064251e-02 8.518858e-02 8.676334e-02 8.492317e-02 7.920953e-02 6.912451e-02 5.416745e-02 3.379629e-02 7.487039e-03 -2.532115e-02 -6.514064e-02 -1.125059e-01 -1.678629e-01 -2.316515e-01 -3.041755e-01 -3.856882e-01 -4.762557e-01 -5.758364e-01 -6.841526e-01 -8.007561e-01 -9.249286e-01 -1.055729e+00 -1.191940e+00 -1.332101e+00 -1.474517e+00 -1.617278e+00 -1.758333e+00 -1.895505e+00 -2.026602e+00 -2.149437e+00 -2.261921e+00 -2.362085e+00 -2.448098e+00 -2.518285e+00 -2.571032e+00 -2.604810e+00 -2.617955e+00 -2.608757e+00 -2.575109e+00 -2.514761e+00 -2.424858e+00 -2.302490e+00 -2.144146e+00 -1.946758e+00 -1.707069e+00 -1.423327e+00 -1.094567e+00 -7.227756e-01 -3.121540e-01 1.291054e-01 5.893035e-01 1.053370e+00 1.502681e+00 1.917945e+00 2.277870e+00 2.562747e+00 2.752231e+00 2.827701e+00 2.775934e+00 2.598511e+00 2.322235e+00 1.993697e+00 1.669710e+00 1.443154e+00 1.332805e+00 1.265465e+00 1.308754e+00 1.443529e+00 1.562920e+00 1.699287e+00 1.804804e+00 1.871135e+00 1.906159e+00 1.861568e+00 1.692547e+00 1.445082e+00 1.237422e+00 1.090625e+00 9.884444e-01 9.119625e-01 8.478007e-01 7.886083e-01 7.306743e-01 6.726768e-01 6.143015e-01 5.558907e-01 4.979049e-01 4.409255e-01 3.854357e-01 3.318999e-01 2.806600e-01 2.320143e-01 1.861604e-01 1.432581e-01 1.033955e-01 6.663392e-02 3.298889e-02 2.458267e-03 
-4.013268e-02 -6.730234e-02 -9.115643e-02 -1.117488e-01 -1.291463e-01 -1.434214e-01 -1.546534e-01 -1.629327e-01 -1.683524e-01 -1.710227e-01 -1.710547e-01 -1.685817e-01 -1.637365e-01 -1.566782e-01 -1.475641e-01 -1.365794e-01 -1.239071e-01 -1.097577e-01 -9.433913e-02 -7.788516e-02 -6.062777e-02 -4.282269e-02 -2.472596e-02 -6.615782e-03 1.122548e-02 2.849327e-02 4.487368e-02 6.002825e-02 7.360339e-02 8.521606e-02 9.446330e-02 1.009056e-01 1.040816e-01 1.034853e-01 9.859238e-02 8.882681e-02 7.360505e-02 5.228897e-02 2.425366e-02 -1.117558e-02 -5.462822e-02 -1.067662e-01 -1.681626e-01 -2.393884e-01 -3.208710e-01 -4.129817e-01 -5.158853e-01 -6.296176e-01 -7.539449e-01 -8.884214e-01 -1.032282e+00 -1.184474e+00 -1.343612e+00 -1.507985e+00 -1.675592e+00 -1.844139e+00 -2.011159e+00 -2.174011e+00 -2.330053e+00 -2.476654e+00 -2.611349e+00 -2.731850e+00 -2.836114e+00 -2.922326e+00 -2.988826e+00 -3.034071e+00 -3.056418e+00 -3.054106e+00 -3.024927e+00 -2.966314e+00 -2.874933e+00 -2.747041e+00 -2.578041e+00 -2.363396e+00 -2.098137e+00 -1.778709e+00 -1.402286e+00 -9.696263e-01 -4.840849e-01 4.541972e-02 6.055076e-01 1.177445e+00 1.737912e+00 2.262041e+00 2.722876e+00 3.095129e+00 3.351244e+00 3.459884e+00 3.389327e+00 3.126574e+00 2.710755e+00 2.212600e+00 1.682828e+00 1.373429e+00 1.326802e+00 1.172287e+00 1.263949e+00 1.575556e+00 1.703112e+00 1.939549e+00 2.089874e+00 2.171330e+00 2.280344e+00 2.277653e+00 1.999391e+00 1.533416e+00 1.242309e+00 1.086552e+00 9.988694e-01 9.388001e-01 8.864957e-01 8.340176e-01 7.786463e-01 7.202804e-01 6.595675e-01 5.975668e-01 5.352168e-01 4.734386e-01 4.129334e-01 3.543270e-01 2.980625e-01 2.445193e-01 1.939441e-01 1.465412e-01 1.024228e-01 6.167733e-02 2.433209e-02 -9.597041e-03 
-5.937100e-02 -8.924276e-02 -1.154902e-01 -1.381588e-01 -1.573061e-01 -1.730004e-01 -1.853147e-01 -1.943394e-01 -2.001654e-01 -2.029084e-01 -2.026815e-01 -1.996297e-01 -1.938927e-01 -1.856471e-01 -1.750623e-01 -1.623462e-01 -1.476984e-01 -1.313557e-01 -1.135465e-01 -9.453290e-02 -7.457004e-02 -5.394259e-02 -3.293147e-02 -1.184378e-02 9.011649e-03 2.930110e-02 4.868176e-02 6.678402e-02 8.322087e-02 9.757307e-02 1.093964e-01 1.182057e-01 1.234866e-01 1.246729e-01 1.211709e-01 1.123249e-01 9.746194e-02 7.584015e-02 4.672328e-02 9.306853e-03 -3.717105e-02 -9.352611e-02 -1.604791e-01 -2.387700e-01 -3.289765e-01 -4.316352e-01 -5.470403e-01 -6.753589e-01 -8.164295e-01 -9.698591e-01 -1.134850e+00 -1.310274e+00 -1.494558e+00 -1.685742e+00 -1.881456e+00 -2.078976e+00 -2.275309e+00 -2.467262e+00 -2.651614e+00 -2.825191e+00 -2.985054e+00 -3.128553e+00 -3.253413e+00 -3.357724e+00 -3.439863e+00 -3.498405e+00 -3.531878e+00 -3.538650e+00 -3.516565e+00 -3.462887e+00 -3.373865e+00 -3.244921e+00 -3.070185e+00 -2.843324e+00 -2.557088e+00 -2.205327e+00 -1.782447e+00 -1.286832e+00 -7.201305e-01 -9.102311e-02 5.853475e-01 1.286489e+00 1.982573e+00 2.642300e+00 3.231528e+00 3.721447e+00 4.078965e+00 4.257108e+00 4.183986e+00 3.799796e+00 3.175319e+00 2.455512e+00 1.466967e+00 1.034013e+00 1.423315e+00 8.237171e-01 9.919930e-01 1.885384e+00 1.727608e+00 2.259094e+00 2.436408e+00 2.435378e+00 2.755361e+00 2.953327e+00 2.473200e+00 1.422102e+00 1.087563e+00 9.911195e-01 9.604157e-01 9.383752e-01 9.080926e-01 8.669732e-01 8.163512e-01 7.587509e-01 6.964193e-01 6.313810e-01 5.651598e-01 4.990403e-01 4.339538e-01 3.706783e-01 3.097587e-01 2.516479e-01 1.966435e-01 1.449905e-01 9.683055e-02 5.227725e-02 1.137734e-02 -2.583600e-02 
-8.307430e-02 -1.155744e-01 -1.441614e-01 -1.688604e-01 -1.897233e-01 -2.068016e-01 -2.201664e-01 -2.298967e-01 -2.360860e-01 -2.388445e-01 -2.382936e-01 -2.345797e-01 -2.278567e-01 -2.183097e-01 -2.061277e-01 -1.915336e-01 -1.747505e-01 -1.560360e-01 -1.356441e-01 -1.138612e-01 -9.096865e-02 -6.727736e-02 -4.309352e-02 -1.875115e-02 5.416752e-03 2.904899e-02 5.177848e-02 7.320609e-02 9.291750e-02 1.104587e-01 1.253505e-01 1.370630e-01 1.450331e-01 1.486340e-01 1.472033e-01 1.400017e-01 1.262614e-01 1.051285e-01 7.574076e-02 3.714901e-02 -1.156730e-02 -7.140089e-02 -1.432602e-01 -2.280870e-01 -3.266626e-01 -4.397311e-01 -5.677799e-01 -7.111521e-01 -8.698246e-01 -1.043493e+00 -1.231379e+00 -1.432282e+00 -1.644460e+00 -1.865652e+00 -2.093079e+00 -2.323465e+00 -2.553189e+00 -2.778330e+00 -2.994948e+00 -3.199162e+00 -3.387452e+00 -3.556720e+00 -3.704463e+00 -3.828729e+00 -3.928065e+00 -4.001329e+00 -4.047455e+00 -4.065159e+00 -4.052621e+00 -4.007127e+00 -3.924746e+00 -3.800048e+00 -3.625860e+00 -3.393578e+00 -3.093090e+00 -2.714612e+00 -2.248518e+00 -1.689487e+00 -1.035750e+00 -2.949383e-01 5.171290e-01 1.372965e+00 2.234901e+00 3.061608e+00 3.810810e+00 4.453491e+00 4.964549e+00 5.290119e+00 5.280949e+00 4.709248e+00 3.734268e+00 2.964620e+00 6.859962e-01 -1.543443e-01 1.435005e+00 1.657158e+00 -3.349612e-02 1.990341e+00 1.704302e+00 1.512760e+00 1.564910e+00 9.769008e-01 1.844149e+00 7.125557e-01 1.127358e+00 5.660552e-01 6.673544e-01 8.035304e-01 8.893955e-01 9.243507e-01 9.212744e-01 8.924037e-01 8.463631e-01 7.892998e-01 7.252995e-01 6.573609e-01 5.875352e-01 5.174194e-01 4.481266e-01 3.805616e-01 3.153466e-01 2.530003e-01 1.938610e-01 1.382158e-01 8.623156e-02 3.805362e-02 -6.253969e-03 -4.663145e-02 
-1.115642e-01 -1.466373e-01 -1.775233e-01 -2.042279e-01 -2.267851e-01 -2.452322e-01 -2.596261e-01 -2.700378e-01 -2.765517e-01 -2.792780e-01 -2.783352e-01 -2.738779e-01 -2.660644e-01 -2.550959e-01 -2.411725e-01 -2.245405e-01 -2.054400e-01 -1.841560e-01 -1.609637e-01 -1.361792e-01 -1.101064e-01 -8.308524e-02 -5.544458e-02 -2.754516e-02 2.582722e-04 2.758020e-02 5.403175e-02 7.918991e-02 1.026157e-01 1.238273e-01 1.423132e-01 1.575054e-01 1.687939e-01 1.754954e-01 1.768786e-01 1.721201e-01 1.603534e-01 1.406040e-01 1.118743e-01 7.305111e-02 2.303780e-02 -3.936936e-02 -1.152939e-01 -2.059311e-01 -3.123059e-01 -4.354399e-01 -5.760657e-01 -7.347885e-01 -9.117801e-01 -1.106914e+00 -1.319475e+00 -1.548260e+00 -1.791355e+00 -2.046208e+00 -2.309545e+00 -2.577455e+00 -2.845494e+00 -3.108834e+00 -3.362554e+00 -3.601851e+00 -3.822408e+00 -4.020561e+00 -4.193534e+00 -4.339405e+00 -4.457056e+00 -4.545880e+00 -4.605511e+00 -4.635364e+00 -4.634292e+00 -4.600003e+00 -4.528670e+00 -4.414295e+00 -4.248369e+00 -4.019809e+00 -3.714912e+00 -3.319166e+00 -2.817345e+00 -2.198339e+00 -1.454873e+00 -5.910096e-01 3.778420e-01 1.419672e+00 2.485029e+00 3.517601e+00 4.458432e+00 5.283665e+00 6.007479e+00 6.640336e+00 6.928312e+00 6.022605e+00 4.090061e+00 4.875084e+00 4.280158e+00 2.712335e+00 -1.718850e+00 4.146179e-01 8.458286e-01 -1.090106e+00 -9.036215e-01 -2.028192e+00 -2.112845e+00 -2.639975e+00 -2.274762e+00 -4.509061e+00 -2.647083e+00 -8.043984e-01 1.815072e-01 6.364863e-01 8.425760e-01 9.240222e-01 9.388814e-01 9.161874e-01 8.712504e-01 8.129116e-01 7.464500e-01 6.753996e-01 6.020867e-01 5.282587e-01 4.551219e-01 3.836490e-01 3.145109e-01 2.482711e-01 1.853019e-01 1.259260e-01 7.033769e-02 1.871295e-02 -2.886001e-02 -7.229461e-02 
-1.451314e-01 -1.827213e-01 -2.158714e-01 -2.445547e-01 -2.687909e-01 -2.885888e-01 -3.039964e-01 -3.150622e-01 -3.218689e-01 -3.245121e-01 -3.231164e-01 -3.178315e-01 -3.088295e-01 -2.963169e-01 -2.805148e-01 -2.616836e-01 -2.400893e-01 -2.160383e-01 -1.898335e-01 -1.618163e-01 -1.323174e-01 -1.017026e-01 -7.032412e-02 -3.856660e-02 -6.803643e-03 2.455803e-02 5.511410e-02 8.442151e-02 1.120254e-01 1.374209e-01 1.600734e-01 1.793818e-01 1.946973e-01 2.052840e-01 2.103450e-01 2.089740e-01 2.002013e-01 1.829274e-01 1.560032e-01 1.181378e-01 6.802662e-02 4.228089e-03 -7.464927e-02 -1.700981e-01 -2.834639e-01 -4.161094e-01 -5.691128e-01 -7.434212e-01 -9.395162e-01 -1.157529e+00 -1.396912e+00 -1.656503e+00 -1.934264e+00 -2.227309e+00 -2.531808e+00 -2.843026e+00 -3.155497e+00 -3.463154e+00 -3.759797e+00 -4.039341e+00 -4.296422e+00 -4.526619e+00 -4.726860e+00 -4.895353e+00 -5.031553e+00 -5.135702e+00 -5.208530e+00 -5.250561e+00 -5.261849e+00 -5.241012e+00 -5.184976e+00 -5.087539e+00 -4.939240e+00 -4.726115e+00 -4.430341e+00 -4.031078e+00 -3.505671e+00 -2.834685e+00 -2.002000e+00 -1.005219e+00 1.445979e-01 1.411000e+00 2.730335e+00 4.018465e+00 5.179612e+00 6.177105e+00 7.114956e+00 8.320539e+00 9.777827e+00 8.580948e+00 4.955649e-01 -5.903284e+00 -3.081955e+00 -6.096297e-01 -1.231652e+00 -4.277202e+00 -3.436335e+00 -3.510246e+00 -4.075698e+00 -3.484368e+00 -3.727152e+00 -3.092568e+00 -4.030691e+00 -4.374861e+00 -3.755105e+00 -9.895676e-01 1.940298e-01 6.870980e-01 8.915341e-01 9.641527e-01 9.710185e-01 9.420807e-01 8.922746e-01 8.298737e-01 7.597714e-01 6.852589e-01 6.085281e-01 5.312643e-01 4.546477e-01 3.796556e-01 3.069705e-01 2.371832e-01 1.706888e-01 1.078443e-01 4.886902e-02 -6.025129e-03 -5.672588e-02 -1.031108e-01 
-1.840008e-01 -2.240802e-01 -2.594832e-01 -2.901503e-01 -3.160735e-01 -3.372353e-01 -3.536606e-01 -3.653800e-01 -3.724598e-01 -3.749880e-01 -3.730815e-01 -3.668940e-01 -3.565995e-01 -3.424197e-01 -3.245868e-01 -3.033858e-01 -2.791012e-01 -2.520700e-01 -2.226178e-01 -1.911183e-01 -1.579254e-01 -1.234343e-01 -8.801782e-02 -5.208399e-02 -1.602196e-02 1.974483e-02 5.480102e-02 8.869171e-02 1.209518e-01 1.510639e-01 1.784771e-01 2.025683e-01 2.226563e-01 2.379615e-01 2.476264e-01 2.506654e-01 2.460061e-01 2.324185e-01 2.085957e-01 1.730492e-01 1.242492e-01 6.047645e-02 -1.996130e-02 -1.189215e-01 -2.381247e-01 -3.793763e-01 -5.441821e-01 -7.339671e-01 -9.496305e-01 -1.191720e+00 -1.459966e+00 -1.753389e+00 -2.069886e+00 -2.406286e+00 -2.758109e+00 -3.119664e+00 -3.484131e+00 -3.843839e+00 -4.190775e+00 -4.517090e+00 -4.815883e+00 -5.081694e+00 -5.311051e+00 -5.502455e+00 -5.656295e+00 -5.774137e+00 -5.858329e+00 -5.911046e+00 -5.934107e+00 -5.927782e+00 -5.890483e+00 -5.816718e+00 -5.696522e+00 -5.513364e+00 -5.244495e+00 -4.861584e+00 -4.332223e+00 -3.625601e+00 -2.712843e+00 -1.579247e+00 -2.257504e-01 1.312833e+00 2.957598e+00 4.582978e+00 6.006669e+00 7.083593e+00 7.927813e+00 9.742981e+00 1.537966e+01 1.485758e+00 -3.283837e+00 -1.514084e+00 -3.003761e+00 -1.026811e+01 -7.653450e+00 -8.853682e-01 -3.660073e+00 -1.259673e+00 -8.891467e-01 4.962282e-01 -1.496261e-01 1.284733e+00 5.285153e-01 1.692216e+00 -5.037260e-01 5.620758e-01 8.612298e-01 9.918086e-01 1.040059e+00 1.041480e+00 1.013932e+00 9.671917e-01 9.074163e-01 8.388083e-01 7.643229e-01 6.862829e-01 6.063916e-01 5.260910e-01 4.464397e-01 3.683695e-01 2.925470e-01 2.195771e-01 1.498719e-01 8.382090e-02 2.167091e-02 -3.632816e-02 -9.003352e-02 -1.392842e-01 
-2.283418e-01 -2.708851e-01 -3.085369e-01 -3.411914e-01 -3.688165e-01 -3.913521e-01 -4.088066e-01 -4.211755e-01 -4.285177e-01 -4.308965e-01 -4.284322e-01 -4.212665e-01 -4.095876e-01 -3.936190e-01 -3.736166e-01 -3.498796e-01 -3.227227e-01 -2.925059e-01 -2.595872e-01 -2.243675e-01 -1.872299e-01 -1.485957e-01 -1.088592e-01 -6.844884e-02 -2.776547e-02 1.275533e-02 5.269582e-02 9.159587e-02 1.289927e-01 1.643655e-01 1.971615e-01 2.267465e-01 2.524203e-01 2.733712e-01 2.886899e-01 2.973208e-01 2.980892e-01 2.896380e-01 2.704885e-01 2.389475e-01 1.932253e-01 1.312993e-01 5.111235e-02 -4.961073e-02 -1.730698e-01 -3.216034e-01 -4.972971e-01 -7.021892e-01 -9.377917e-01 -1.205236e+00 -1.504739e+00 -1.835651e+00 -2.195945e+00 -2.582180e+00 -2.989175e+00 -3.410016e+00 -3.836157e+00 -4.257697e+00 -4.664152e+00 -5.045120e+00 -5.391564e+00 -5.696541e+00 -5.956136e+00 -6.169407e+00 -6.338202e+00 -6.466043e+00 -6.557461e+00 -6.616849e+00 -6.648451e+00 -6.655116e+00 -6.638097e+00 -6.593994e+00 -6.513734e+00 -6.378361e+00 -6.159925e+00 -5.820217e+00 -5.314987e+00 -4.598441e+00 -3.624464e+00 -2.359613e+00 -7.830582e-01 1.083692e+00 3.159141e+00 5.275174e+00 7.112542e+00 8.170502e+00 7.744689e+00 7.546823e+00 9.389332e-01 -7.483455e+00 -1.980770e+00 -9.888976e+00 -1.002138e+01 6.023447e+00 4.458911e+00 1.010988e+00 2.379473e+00 3.846287e+00 3.056853e+00 4.322563e+00 3.834071e+00 4.102980e+00 4.688536e+00 2.860381e+00 2.971058e+00 2.482850e+00 1.652013e+00 1.338899e+00 1.199848e+00 1.117203e+00 1.049572e+00 9.827053e-01 9.121601e-01 8.373227e-01 7.587928e-01 6.777331e-01 5.952466e-01 5.124733e-01 4.303207e-01 3.496555e-01 2.711237e-01 1.953389e-01 1.227330e-01 5.372940e-02 -1.139305e-02 -7.234140e-02 -1.289382e-01 -1.809760e-01 
-2.782316e-01 -3.232530e-01 -3.631856e-01 -3.978759e-01 -4.272538e-01 -4.512186e-01 -4.697461e-01 -4.828014e-01 -4.904191e-01 -4.926463e-01 -4.895898e-01 -4.813904e-01 -4.682361e-01 -4.503650e-01 -4.280449e-01 -4.016026e-01 -3.713749e-01 -3.377571e-01 -3.011344e-01 -2.619441e-01 -2.205956e-01 -1.775409e-01 -1.331935e-01 -8.800132e-02 -4.237318e-02 3.249654e-03 4.845330e-02 9.278439e-02 1.357917e-01 1.769672e-01 2.157682e-01 2.515675e-01 2.836595e-01 3.112173e-01 3.332927e-01 3.487717e-01 3.563866e-01 3.546547e-01 3.419272e-01 3.162910e-01 2.756849e-01 2.177429e-01 1.400094e-01 3.971303e-02 -8.589431e-02 -2.398184e-01 -4.248472e-01 -6.438377e-01 -8.991079e-01 -1.192650e+00 -1.525417e+00 -1.897390e+00 -2.306834e+00 -2.750230e+00 -3.221671e+00 -3.712854e+00 -4.212983e+00 -4.709181e+00 -5.187385e+00 -5.633492e+00 -6.035174e+00 -6.383295e+00 -6.673319e+00 -6.905381e+00 -7.083822e+00 -7.215178e+00 -7.307067e+00 -7.366572e+00 -7.400856e+00 -7.416284e+00 -7.418503e+00 -7.408484e+00 -7.379900e+00 -7.312919e+00 -7.173380e+00 -6.912028e+00 -6.469378e+00 -5.782305e+00 -4.784075e+00 -3.414041e+00 -1.615550e+00 6.278072e-01 3.265292e+00 6.133778e+00 8.881097e+00 1.062613e+01 7.322045e+00 9.893510e+00 3.304165e-01 -4.119182e+00 -1.079170e+01 -6.207115e+00 2.478711e+00 4.231639e+00 2.988314e+00 4.562317e+00 5.818066e+00 5.288287e+00 5.795619e+00 3.624242e+00 4.524584e+00 2.244855e+00 3.285888e+00 -1.858524e+00 3.092358e+00 2.769888e+00 1.868239e+00 1.466275e+00 1.265248e+00 1.145668e+00 1.057024e+00 9.785101e-01 9.014299e-01 8.227922e-01 7.418110e-01 6.589023e-01 5.747443e-01 4.902629e-01 4.062499e-01 3.235340e-01 2.427485e-01 1.645291e-01 8.933056e-02 1.761976e-02 -5.028931e-02 -1.140527e-01 -1.734535e-01 -2.282310e-01 