# vtk DataFile Version 2.0
Comment goes here
ASCII

DATASET STRUCTURED_POINTS
DIMENSIONS    128   128   1

ORIGIN    0.000   0.000   0.000
SPACING   0.0156250.015625   1.000

POINT_DATA   16384
SCALARS Omega double
LOOKUP_TABLE default

-2.377527e-07 -1.753559e-07 -1.306341e-07 -9.441881e-08 -7.022243e-08 -4.948003e-08 -3.722988e-08 -2.529465e-08 -1.973675e-08 -1.266814e-08 -1.070072e-08 -6.274111e-09 -6.109547e-09 -3.126618e-09 -3.743949e-09 -1.592229e-09 -2.402233e-09 -7.882198e-10 -1.440571e-09 -2.360546e-10 -5.195957e-10 3.162026e-10 5.079971e-10 9.488251e-10 1.595623e-09 1.510155e-09 2.376745e-09 1.414227e-09 1.871178e-09 -7.634621e-10 -2.049414e-09 -7.978598e-09 -1.353307e-08 -2.580176e-08 -4.005647e-08 -6.398330e-08 -9.423787e-08 -1.385269e-07 -1.961221e-07 -2.741553e-07 -3.757101e-07 -5.067919e-07 -6.751759e-07 -8.852782e-07 -1.149742e-06 -1.471012e-06 -1.865604e-06 -2.333594e-06 -2.892743e-06 -3.540152e-06 -4.290247e-06 -5.136108e-06 -6.082331e-06 -7.116321e-06 -8.225087e-06 -9.388178e-06 -1.056739e-05 -1.173223e-05 -1.281386e-05 -1.377057e-05 -1.450194e-05 -1.495625e-05 -1.500701e-05 -1.459730e-05 -1.358744e-05 -1.192485e-05 -9.476628e-06 -6.209341e-06 -2.022915e-06 3.077050e-06 9.127625e-06 1.606124e-05 2.382207e-05 3.226072e-05 4.120825e-05 5.042846e-05 5.964353e-05 6.855474e-05 7.681820e-05 8.413314e-05 9.017187e-05 9.471700e-05 9.755792e-05 9.864231e-05 9.796186e-05 9.567913e-05 9.202875e-05 8.738977e-05 8.221389e-05 7.702662e-05 7.236929e-05 6.873468e-05 6.650961e-05 6.589124e-05 6.685239e-05 6.910907e-05 7.214770e-05 7.527613e-05 7.771242e-05 7.868872e-05 7.756533e-05 7.394663e-05 6.777843e-05 5.940015e-05 4.950876e-05 3.901418e-05 2.883784e-05 1.971774e-05 1.211270e-05 6.189716e-06 1.885807e-06 -1.008028e-06 -2.768492e-06 -3.677672e-06 -3.990733e-06 -3.914499e-06 -3.609274e-06 -3.187438e-06 -2.727573e-06 -2.275991e-06 -1.862417e-06 -1.497654e-06 -1.188467e-06 -9.301604e-07 -7.214564e-07 -5.525014e-07 -4.209910e-07 -3.163047e-07 
4.212436e-04 3.154711e-04 2.345288e-04 1.727543e-04 1.262113e-04 9.109920e-05 6.509810e-05 4.568112e-05 3.160738e-05 2.119054e-05 1.387351e-05 8.512477e-06 4.957180e-06 2.414696e-06 9.558212e-07 2.327984e-08 -2.106946e-07 -1.334980e-07 4.544253e-07 1.296653e-06 2.574697e-06 4.132015e-06 6.100786e-06 8.383808e-06 1.103173e-05 1.393943e-05 1.702567e-05 2.006505e-05 2.275596e-05 2.457704e-05 2.485899e-05 2.253183e-05 1.633771e-05 4.328675e-06 -1.563345e-05 -4.675225e-05 -9.237248e-05 -1.573057e-04 -2.463761e-04 -3.661973e-04 -5.231425e-04 -7.254702e-04 -9.807640e-04 -1.298193e-03 -1.685585e-03 -2.151517e-03 -2.702317e-03 -3.343640e-03 -4.077827e-03 -4.904660e-03 -5.819578e-03 -6.813458e-03 -7.872143e-03 -8.975315e-03 -1.009759e-02 -1.120679e-02 -1.226650e-02 -1.323418e-02 -1.406466e-02 -1.470860e-02 -1.511599e-02 -1.523540e-02 -1.501654e-02 -1.441076e-02 -1.337198e-02 -1.185888e-02 -9.834387e-03 -7.270041e-03 -4.144713e-03 -4.515608e-04 3.803170e-03 8.591128e-03 1.386284e-02 1.953884e-02 2.551179e-02 3.164193e-02 3.776292e-02 4.368618e-02 4.921224e-02 5.414538e-02 5.830816e-02 6.156140e-02 6.381486e-02 6.504307e-02 6.528637e-02 6.465712e-02 6.333371e-02 6.155929e-02 5.963162e-02 5.789036e-02 5.668887e-02 5.635787e-02 5.715123e-02 5.920354e-02 6.248378e-02 6.678923e-02 7.174548e-02 7.684986e-02 8.151277e-02 8.511773e-02 8.707620e-02 8.690717e-02 8.433640e-02 7.940371e-02 7.251232e-02 6.435458e-02 5.572167e-02 4.730474e-02 3.957959e-02 3.279171e-02 2.700137e-02 2.215406e-02 1.813707e-02 1.482355e-02 1.209254e-02 9.840854e-03 7.982977e-03 6.450617e-03 5.188409e-03 4.151693e-03 3.303480e-03 2.612905e-03 2.053881e-03 1.604077e-03 1.244629e-03 9.592021e-04 7.342794e-04 5.580896e-04 
8.425352e-04 6.305932e-04 4.685487e-04 3.448399e-04 2.517687e-04 1.815020e-04 1.296028e-04 9.078379e-05 6.278429e-05 4.199509e-05 2.753174e-05 1.687087e-05 9.941180e-06 4.928904e-06 2.195509e-06 4.150100e-07 1.341530e-07 3.919984e-07 1.765241e-06 3.587811e-06 6.370288e-06 9.684658e-06 1.390959e-05 1.877615e-05 2.446548e-05 3.073100e-05 3.745563e-05 4.418258e-05 5.031920e-05 5.483213e-05 5.635560e-05 5.275029e-05 4.142755e-05 1.844882e-05 -2.059654e-05 -8.224649e-05 -1.734099e-04 -3.039806e-04 -4.839406e-04 -7.269776e-04 -1.046311e-03 -1.459140e-03 -1.981249e-03 -2.631869e-03 -3.427383e-03 -4.385958e-03 -5.520982e-03 -6.844725e-03 -8.362409e-03 -1.007422e-02 -1.197114e-02 -1.403485e-02 -1.623641e-02 -1.853414e-02 -2.087572e-02 -2.319461e-02 -2.541552e-02 -2.745022e-02 -2.920529e-02 -3.057835e-02 -3.146616e-02 -3.176226e-02 -3.136324e-02 -3.016860e-02 -2.808399e-02 -2.502407e-02 -2.091283e-02 -1.569080e-02 -9.313819e-03 -1.765591e-03 6.943195e-03 1.675772e-02 2.757914e-02 3.924730e-02 5.154272e-02 6.417818e-02 7.680806e-02 8.903929e-02 1.004521e-01 1.106344e-01 1.192092e-01 1.258817e-01 1.304585e-01 1.328841e-01 1.332398e-01 1.317566e-01 1.288012e-01 1.248744e-01 1.205935e-01 1.166723e-01 1.138644e-01 1.128885e-01 1.143063e-01 1.184283e-01 1.252073e-01 1.342253e-01 1.446930e-01 1.555485e-01 1.655497e-01 1.733956e-01 1.778241e-01 1.777652e-01 1.725605e-01 1.622392e-01 1.476862e-01 1.304839e-01 1.124210e-01 9.500176e-02 7.919893e-02 6.545923e-02 5.383716e-02 4.416465e-02 3.617550e-02 2.959308e-02 2.416574e-02 1.968504e-02 1.598173e-02 1.292194e-02 1.039785e-02 8.322134e-03 6.622440e-03 5.237780e-03 4.116612e-03 3.214322e-03 2.493377e-03 1.920904e-03 1.469954e-03 1.116725e-03 
1.263480e-03 9.447960e-04 7.011000e-04 5.152303e-04 3.752942e-04 2.697865e-04 1.917310e-04 1.334800e-04 9.133183e-05 6.017494e-05 3.837812e-05 2.246158e-05 1.202348e-05 4.638909e-06 5.733778e-07 -1.886464e-06 -2.167962e-06 -1.465451e-06 8.790152e-07 4.078788e-06 8.742241e-06 1.440160e-05 2.152215e-05 2.983483e-05 3.956226e-05 5.042731e-05 6.224852e-05 7.438701e-05 8.596820e-05 9.542856e-05 1.007144e-04 9.851569e-05 8.486450e-05 5.361574e-05 -2.094203e-06 -9.251849e-05 -2.285330e-04 -4.257263e-04 -6.999575e-04 -1.072903e-03 -1.565739e-03 -2.205866e-03 -3.018790e-03 -4.035388e-03 -5.282425e-03 -6.789430e-03 -8.578725e-03 -1.067082e-02 -1.307528e-02 -1.579368e-02 -1.881294e-02 -2.210529e-02 -2.562569e-02 -2.930897e-02 -3.307240e-02 -3.681086e-02 -4.040452e-02 -4.371349e-02 -4.658881e-02 -4.886828e-02 -5.038771e-02 -5.097910e-02 -5.047889e-02 -4.872947e-02 -4.558224e-02 -4.090376e-02 -3.457380e-02 -2.649808e-02 -1.660397e-02 -4.861584e-03 8.719224e-03 2.406002e-02 4.101453e-02 5.933819e-02 7.869138e-02 9.862136e-02 1.185784e-01 1.379281e-01 1.559892e-01 1.720848e-01 1.855955e-01 1.960317e-01 2.030737e-01 2.066259e-01 2.068155e-01 2.040063e-01 1.987731e-01 1.919003e-01 1.843660e-01 1.773250e-01 1.720329e-01 1.697207e-01 1.713813e-01 1.775935e-01 1.883296e-01 2.029262e-01 2.200879e-01 2.380671e-01 2.548405e-01 2.682954e-01 2.763306e-01 2.770464e-01 2.691205e-01 2.523995e-01 2.284201e-01 2.001643e-01 1.709280e-01 1.432913e-01 1.187317e-01 9.776526e-02 8.027889e-02 6.586106e-02 5.400952e-02 4.425626e-02 3.620398e-02 2.953870e-02 2.401280e-02 1.943386e-02 1.564724e-02 1.252754e-02 9.969584e-03 7.884170e-03 6.194829e-03 4.835262e-03 3.748974e-03 2.886738e-03 2.207666e-03 1.676073e-03 
1.682355e-03 1.256158e-03 9.306505e-04 6.823863e-04 4.958113e-04 3.550731e-04 2.512729e-04 1.737152e-04 1.179263e-04 7.658965e-05 4.802003e-05 2.707682e-05 1.371808e-05 4.223887e-06 -5.736409e-07 -3.411268e-06 -3.079783e-06 -1.567957e-06 2.401745e-06 7.459360e-06 1.476214e-05 2.345434e-05 3.444329e-05 4.723233e-05 6.234290e-05 7.935379e-05 9.817935e-05 1.179753e-04 1.376471e-04 1.551225e-04 1.676138e-04 1.706323e-04 1.586487e-04 1.231677e-04 5.450016e-05 -6.174239e-05 -2.410493e-04 -5.055668e-04 -8.780556e-04 -1.389653e-03 -2.070991e-03 -2.961873e-03 -4.099536e-03 -5.529416e-03 -7.291093e-03 -9.428825e-03 -1.197640e-02 -1.496583e-02 -1.841304e-02 -2.232323e-02 -2.667987e-02 -3.144576e-02 -3.655798e-02 -4.192465e-02 -4.742762e-02 -5.291622e-02 -5.821782e-02 -6.313049e-02 -6.743932e-02 -7.091001e-02 -7.330663e-02 -7.438769e-02 -7.392020e-02 -7.167943e-02 -6.745563e-02 -6.105930e-02 -5.232051e-02 -4.110264e-02 -2.729856e-02 -1.085629e-02 8.222270e-03 2.984295e-02 5.381546e-02 7.981031e-02 1.073559e-01 1.358121e-01 1.643842e-01 1.921436e-01 2.180752e-01 2.411629e-01 2.604646e-01 2.752355e-01 2.849844e-01 2.895642e-01 2.891563e-01 2.842843e-01 2.757585e-01 2.646788e-01 2.524306e-01 2.407070e-01 2.314305e-01 2.265694e-01 2.277698e-01 2.360521e-01 2.514713e-01 2.730664e-01 2.988690e-01 3.262110e-01 3.520935e-01 3.734420e-01 3.871069e-01 3.899464e-01 3.793723e-01 3.545190e-01 3.178400e-01 2.748829e-01 2.315163e-01 1.918098e-01 1.576246e-01 1.292131e-01 1.059753e-01 8.703741e-02 7.154370e-02 5.878805e-02 4.822058e-02 3.943139e-02 3.210937e-02 2.601626e-02 2.096089e-02 1.678586e-02 1.335751e-02 1.056000e-02 8.293229e-03 6.468936e-03 5.011957e-03 3.855927e-03 2.946171e-03 2.234317e-03 
2.097639e-03 1.563256e-03 1.155192e-03 8.443463e-04 6.106391e-04 4.346354e-04 3.046587e-04 2.078100e-04 1.379795e-04 8.652927e-05 5.085141e-05 2.503191e-05 8.535015e-06 -2.795382e-06 -8.370001e-06 -1.114897e-05 -1.001820e-05 -7.045617e-06 -9.557582e-07 6.909096e-06 1.776948e-05 3.087675e-05 4.724599e-05 6.652816e-05 8.936023e-05 1.154333e-04 1.447045e-04 1.762613e-04 2.088202e-04 2.398070e-04 2.657345e-04 2.807794e-04 2.777697e-04 2.454711e-04 1.710100e-04 3.512650e-05 -1.831190e-04 -5.136715e-04 -9.877259e-04 -1.647802e-03 -2.536406e-03 -3.708481e-03 -5.216371e-03 -7.123626e-03 -9.486813e-03 -1.236902e-02 -1.581995e-02 -1.988706e-02 -2.459634e-02 -2.995928e-02 -3.595739e-02 -4.254395e-02 -4.963578e-02 -5.710990e-02 -6.480532e-02 -7.251634e-02 -8.000487e-02 -8.699314e-02 -9.318372e-02 -9.825447e-02 -1.018802e-01 -1.037315e-01 -1.034904e-01 -1.008545e-01 -9.554100e-02 -8.729702e-02 -7.589338e-02 -6.114430e-02 -4.289732e-02 -2.106866e-02 4.361346e-03 3.329385e-02 6.550537e-02 1.005821e-01 1.379118e-01 1.766350e-01 2.156612e-01 2.536844e-01 2.892557e-01 3.208965e-01 3.472271e-01 3.671444e-01 3.799285e-01 3.853650e-01 3.837219e-01 3.757306e-01 3.624784e-01 3.453962e-01 3.263018e-01 3.075263e-01 2.919090e-01 2.825307e-01 2.820755e-01 2.923045e-01 3.134726e-01 3.442290e-01 3.816483e-01 4.216873e-01 4.601037e-01 4.927900e-01 5.154374e-01 5.230557e-01 5.106045e-01 4.748812e-01 4.195206e-01 3.554748e-01 2.933667e-01 2.392047e-01 1.946614e-01 1.589619e-01 1.304519e-01 1.074854e-01 8.873005e-02 7.322101e-02 6.027820e-02 4.942910e-02 4.032818e-02 3.271335e-02 2.637047e-02 2.111883e-02 1.679996e-02 1.327374e-02 1.041628e-02 8.117650e-03 6.282843e-03 4.828364e-03 3.684535e-03 2.790491e-03 
2.504300e-03 1.861238e-03 1.370955e-03 9.975735e-04 7.174476e-04 5.064264e-04 3.511601e-04 2.353673e-04 1.524920e-04 9.135227e-05 4.964632e-05 1.944873e-05 9.534718e-07 -1.164025e-05 -1.681163e-05 -1.887128e-05 -1.571619e-05 -1.048841e-05 -9.552218e-07 1.074886e-05 2.671824e-05 4.569629e-05 6.945583e-05 9.739705e-05 1.307612e-04 1.691590e-04 2.129231e-04 2.610459e-04 3.122319e-04 3.634659e-04 4.105656e-04 4.463918e-04 4.619092e-04 4.429299e-04 3.728435e-04 2.268110e-04 -2.261022e-05 -4.146842e-04 -9.908153e-04 -1.807579e-03 -2.922082e-03 -4.408505e-03 -6.338129e-03 -8.798192e-03 -1.186708e-02 -1.563341e-02 -2.016806e-02 -2.554079e-02 -3.179223e-02 -3.894532e-02 -4.698170e-02 -5.584624e-02 -6.543288e-02 -7.558219e-02 -8.608115e-02 -9.665577e-02 -1.069863e-01 -1.166987e-01 -1.253919e-01 -1.326316e-01 -1.379816e-01 -1.410014e-01 -1.412710e-01 -1.383922e-01 -1.319989e-01 -1.217630e-01 -1.073893e-01 -8.863257e-02 -6.528576e-02 -3.721769e-02 -4.370304e-03 3.317479e-02 7.517953e-02 1.211602e-01 1.703595e-01 2.216727e-01 2.736472e-01 3.244975e-01 3.721883e-01 4.146071e-01 4.497440e-01 4.759869e-01 4.922821e-01 4.983453e-01 4.945915e-01 4.820686e-01 4.622001e-01 4.367295e-01 4.078282e-01 3.785142e-01 3.528945e-01 3.358296e-01 3.316873e-01 3.435061e-01 3.719212e-01 4.150453e-01 4.685750e-01 5.260409e-01 5.816173e-01 6.304000e-01 6.673677e-01 6.849605e-01 6.737544e-01 6.231427e-01 5.375202e-01 4.410149e-01 3.534120e-01 2.824326e-01 2.277011e-01 1.858206e-01 1.532029e-01 1.270955e-01 1.056445e-01 8.769128e-02 7.251134e-02 5.963996e-02 4.874686e-02 3.957545e-02 3.190588e-02 2.554143e-02 2.030266e-02 1.602487e-02 1.256037e-02 9.775678e-03 7.555521e-03 5.797448e-03 4.416759e-03 3.338627e-03 
2.898069e-03 2.146506e-03 1.573724e-03 1.138133e-03 8.112386e-04 5.654389e-04 3.844039e-04 2.498488e-04 1.534204e-04 8.282584e-05 3.468870e-05 5.079062e-07 -2.016458e-05 -3.338565e-05 -3.801200e-05 -3.840990e-05 -3.267495e-05 -2.386172e-05 -9.790581e-06 7.611808e-06 3.052569e-05 5.801020e-05 9.205741e-05 1.324627e-04 1.807848e-04 2.370294e-04 3.018386e-04 3.744198e-04 4.535481e-04 5.358981e-04 6.166969e-04 6.873880e-04 7.370041e-04 7.479512e-04 6.993690e-04 5.598293e-04 2.940790e-04 -1.483292e-04 -8.215143e-04 -1.799184e-03 -3.157137e-03 -4.993412e-03 -7.404135e-03 -1.050654e-02 -1.440842e-02 -1.923159e-02 -2.507661e-02 -3.204348e-02 -4.019516e-02 -4.957223e-02 -6.016065e-02 -7.189828e-02 -8.465353e-02 -9.822399e-02 -1.123322e-01 -1.266192e-01 -1.406607e-01 -1.539604e-01 -1.659829e-01 -1.761515e-01 -1.838868e-01 -1.886104e-01 -1.897738e-01 -1.868663e-01 -1.794215e-01 -1.670291e-01 -1.493179e-01 -1.259775e-01 -9.673277e-02 -6.138896e-02 -1.982251e-02 2.793333e-02 8.166312e-02 1.408415e-01 2.045814e-01 2.715079e-01 3.397379e-01 4.068634e-01 4.700628e-01 5.263187e-01 5.727145e-01 6.068708e-01 6.272603e-01 6.335265e-01 6.264000e-01 6.074692e-01 5.786406e-01 5.418503e-01 4.992910e-01 4.544364e-01 4.131522e-01 3.833412e-01 3.720953e-01 3.847112e-01 4.224867e-01 4.826930e-01 5.594489e-01 6.408773e-01 7.192704e-01 7.898546e-01 8.492713e-01 8.865827e-01 8.872298e-01 8.168075e-01 6.758316e-01 5.259841e-01 4.041549e-01 3.158632e-01 2.536179e-01 2.085088e-01 1.739820e-01 1.460745e-01 1.226217e-01 1.025126e-01 8.516244e-02 7.023183e-02 5.747152e-02 4.666448e-02 3.759893e-02 3.006734e-02 2.386810e-02 1.881057e-02 1.471972e-02 1.143690e-02 8.823600e-03 6.757806e-03 5.137657e-03 3.874583e-03 
3.268457e-03 2.409294e-03 1.755654e-03 1.258708e-03 8.866429e-04 6.068028e-04 4.015944e-04 2.490048e-04 1.407137e-04 6.148725e-05 8.756735e-06 -2.843304e-05 -4.930045e-05 -6.200581e-05 -6.398685e-05 -6.139410e-05 -5.086070e-05 -3.688032e-05 -1.584933e-05 9.258003e-06 4.196949e-05 8.072353e-05 1.287666e-04 1.856920e-04 2.541912e-04 3.343930e-04 4.278610e-04 5.340141e-04 6.521150e-04 7.786798e-04 9.085443e-04 1.031849e-03 1.135591e-03 1.198555e-03 1.195046e-03 1.086084e-03 8.272416e-04 3.546453e-04 -4.010994e-04 -1.534970e-03 -3.145694e-03 -5.361772e-03 -8.310488e-03 -1.214844e-02 -1.702127e-02 -2.309578e-02 -3.051212e-02 -3.941329e-02 -4.989412e-02 -6.202363e-02 -7.579799e-02 -9.115249e-02 -1.079279e-01 -1.258718e-01 -1.446279e-01 -1.637303e-01 -1.826217e-01 -2.006471e-01 -2.170975e-01 -2.312097e-01 -2.422206e-01 -2.493735e-01 -2.519614e-01 -2.493347e-01 -2.409147e-01 -2.261981e-01 -2.047380e-01 -1.761531e-01 -1.400943e-01 -9.628333e-02 -4.449952e-02 1.532203e-02 8.304786e-02 1.581753e-01 2.397333e-01 3.260871e-01 4.148573e-01 5.028584e-01 5.861979e-01 6.605789e-01 7.217161e-01 7.660574e-01 7.913170e-01 7.970951e-01 7.847476e-01 7.569471e-01 7.164389e-01 6.651572e-01 6.043145e-01 5.368035e-01 4.707495e-01 4.200539e-01 3.958333e-01 4.077496e-01 4.579247e-01 5.416648e-01 6.544617e-01 7.685454e-01 8.755681e-01 9.722826e-01 1.065964e+00 1.138178e+00 1.185339e+00 1.093948e+00 8.343894e-01 5.926299e-01 4.297149e-01 3.305677e-01 2.689191e-01 2.264504e-01 1.933749e-01 1.652642e-01 1.403944e-01 1.182136e-01 9.857155e-02 8.140211e-02 6.660410e-02 5.402236e-02 4.345755e-02 3.468581e-02 2.747762e-02 2.160894e-02 1.687305e-02 1.308106e-02 1.006936e-02 7.693257e-03 5.833514e-03 4.385765e-03 
3.607151e-03 2.642652e-03 1.909103e-03 1.352136e-03 9.349486e-04 6.217554e-04 3.919113e-04 2.217331e-04 1.010175e-04 1.371132e-05 -4.394863e-05 -8.325321e-05 -1.042071e-04 -1.150269e-04 -1.136711e-04 -1.061636e-04 -8.944257e-05 -6.771955e-05 -3.747255e-05 -1.227413e-06 4.472018e-05 9.944489e-05 1.666565e-04 2.467719e-04 3.432127e-04 4.570469e-04 5.907064e-04 7.444478e-04 9.182179e-04 1.108802e-03 1.310910e-03 1.513535e-03 1.701692e-03 1.850243e-03 1.928083e-03 1.887598e-03 1.673423e-03 1.205881e-03 3.966714e-04 -8.747925e-04 -2.736398e-03 -5.354122e-03 -8.895833e-03 -1.356768e-02 -1.956592e-02 -2.711556e-02 -3.641152e-02 -4.765467e-02 -6.098680e-02 -7.651861e-02 -9.426687e-02 -1.141705e-01 -1.360418e-01 -1.595709e-01 -1.843042e-01 -2.096421e-01 -2.348550e-01 -2.590835e-01 -2.813895e-01 -3.007676e-01 -3.162124e-01 -3.267406e-01 -3.314433e-01 -3.295073e-01 -3.202239e-01 -3.029985e-01 -2.773102e-01 -2.427163e-01 -1.987907e-01 -1.451554e-01 -8.145052e-02 -7.444551e-03 7.690752e-02 1.712358e-01 2.745909e-01 3.851343e-01 4.999627e-01 6.149278e-01 7.247119e-01 8.231657e-01 9.039435e-01 9.615917e-01 9.925881e-01 9.964615e-01 9.758632e-01 9.357062e-01 8.806631e-01 8.124516e-01 7.290191e-01 6.289899e-01 5.225706e-01 4.383482e-01 3.906254e-01 3.993565e-01 4.671165e-01 5.796958e-01 7.576093e-01 9.141038e-01 1.054389e+00 1.171357e+00 1.319069e+00 1.430935e+00 1.639112e+00 1.555751e+00 9.886473e-01 5.912469e-01 4.006254e-01 3.157823e-01 2.722643e-01 2.415560e-01 2.137446e-01 1.865490e-01 1.602292e-01 1.355607e-01 1.131616e-01 9.336027e-02 7.622946e-02 6.166738e-02 4.946659e-02 3.936863e-02 3.109925e-02 2.439037e-02 1.899413e-02 1.468695e-02 1.127516e-02 8.590258e-03 6.492862e-03 4.863329e-03 
3.895584e-03 2.829207e-03 2.019418e-03 1.404484e-03 9.449205e-04 5.997267e-04 3.477189e-04 1.611780e-04 3.066764e-05 -6.326813e-05 -1.228731e-04 -1.624682e-04 -1.801504e-04 -1.868646e-04 -1.785051e-04 -1.634778e-04 -1.366327e-04 -1.041137e-04 -6.034212e-05 -9.209399e-06 5.501348e-05 1.306969e-04 2.235687e-04 3.340346e-04 4.675326e-04 6.257269e-04 8.129746e-04 1.030446e-03 1.279629e-03 1.557922e-03 1.860544e-03 2.175695e-03 2.486699e-03 2.764446e-03 2.972095e-03 3.052329e-03 2.937422e-03 2.528968e-03 1.716518e-03 3.480598e-04 -1.739427e-03 -4.759213e-03 -8.929379e-03 -1.452032e-02 -2.179270e-02 -3.104934e-02 -4.255745e-02 -5.659858e-02 -7.338019e-02 -9.307626e-02 -1.157388e-01 -1.413229e-01 -1.696148e-01 -2.002405e-01 -2.326293e-01 -2.660138e-01 -2.994443e-01 -3.317931e-01 -3.618220e-01 -3.882021e-01 -4.096108e-01 -4.247649e-01 -4.325023e-01 -4.318079e-01 -4.218342e-01 -4.019002e-01 -3.714369e-01 -3.299644e-01 -2.769999e-01 -2.120591e-01 -1.346023e-01 -4.414017e-02 5.969259e-02 1.768445e-01 3.065908e-01 4.470594e-01 5.948833e-01 7.448177e-01 8.896793e-01 1.020694e+00 1.128326e+00 1.203989e+00 1.241864e+00 1.241207e+00 1.207010e+00 1.148970e+00 1.076533e+00 9.920782e-01 8.855766e-01 7.404930e-01 5.623820e-01 4.278564e-01 3.353757e-01 3.380159e-01 4.383021e-01 5.600091e-01 8.919803e-01 1.087691e+00 1.269943e+00 1.354909e+00 1.625000e+00 1.646069e+00 2.405931e+00 2.523616e+00 9.888957e-01 3.942947e-01 2.750394e-01 2.680691e-01 2.706044e-01 2.610255e-01 2.401572e-01 2.129757e-01 1.837795e-01 1.553636e-01 1.292726e-01 1.062015e-01 8.632680e-02 6.953010e-02 5.554375e-02 4.403573e-02 3.466269e-02 2.709475e-02 2.103357e-02 1.621314e-02 1.240712e-02 9.419644e-03 7.091401e-03 5.285386e-03 
4.120337e-03 2.957323e-03 2.073828e-03 1.403361e-03 9.017406e-04 5.255583e-04 2.507579e-04 4.852540e-05 -9.241961e-05 -1.919264e-04 -2.535176e-04 -2.915479e-04 -3.050682e-04 -3.048595e-04 -2.875310e-04 -2.611687e-04 -2.210790e-04 -1.728953e-04 -1.111515e-04 -3.895999e-05 4.975321e-05 1.544947e-04 2.818940e-04 4.339098e-04 6.174645e-04 8.361568e-04 1.096278e-03 1.401075e-03 1.753999e-03 2.154061e-03 2.597589e-03 3.072738e-03 3.561530e-03 4.031131e-03 4.438557e-03 4.716042e-03 4.781457e-03 4.515123e-03 3.779677e-03 2.386194e-03 1.277352e-04 -3.266076e-03 -8.077637e-03 -1.465702e-02 -2.334958e-02 -3.455758e-02 -4.864639e-02 -6.600484e-02 -8.693441e-02 -1.116993e-01 -1.404103e-01 -1.730570e-01 -2.094062e-01 -2.490157e-01 -2.911740e-01 -3.349054e-01 -3.789754e-01 -4.219079e-01 -4.620636e-01 -4.976859e-01 -5.270252e-01 -5.484081e-01 -5.603429e-01 -5.615768e-01 -5.511128e-01 -5.282134e-01 -4.923073e-01 -4.429382e-01 -3.796136e-01 -3.017604e-01 -2.086227e-01 -9.933992e-02 2.697170e-02 1.708699e-01 3.322009e-01 5.094045e-01 6.988867e-01 8.942713e-01 1.086056e+00 1.261772e+00 1.407005e+00 1.507832e+00 1.554063e+00 1.543681e+00 1.485551e+00 1.399026e+00 1.305714e+00 1.213647e+00 1.098927e+00 8.999677e-01 5.691548e-01 3.822465e-01 1.896468e-01 1.902187e-01 4.904726e-01 4.526051e-01 7.171902e-01 1.018514e+00 9.384341e-01 5.491791e-01 5.843148e-01 1.978126e-01 1.054626e+00 1.114181e+00 -4.848425e-01 -2.675340e-01 4.578960e-02 2.194937e-01 2.895690e-01 2.999417e-01 2.804341e-01 2.482550e-01 2.126304e-01 1.781776e-01 1.469924e-01 1.198249e-01 9.673506e-02 7.744792e-02 6.154570e-02 4.857022e-02 3.807526e-02 2.965135e-02 2.293716e-02 1.761945e-02 1.343437e-02 1.015859e-02 7.610566e-03 5.637550e-03 
4.251259e-03 2.997931e-03 2.046390e-03 1.323358e-03 7.833183e-04 3.778150e-04 8.348249e-05 -1.327591e-04 -2.803128e-04 -3.829917e-04 -4.417983e-04 -4.749071e-04 -4.785584e-04 -4.671560e-04 -4.344163e-04 -3.916712e-04 -3.313427e-04 -2.616957e-04 -1.743810e-04 -7.428895e-05 4.761729e-05 1.901171e-04 3.629984e-04 5.686531e-04 8.174444e-04 1.114517e-03 1.469835e-03 1.888980e-03 2.378958e-03 2.941112e-03 3.574323e-03 4.267555e-03 5.002674e-03 5.743568e-03 6.441570e-03 7.017656e-03 7.374350e-03 7.367404e-03 6.829042e-03 5.525994e-03 3.199761e-03 -4.906952e-04 -5.905753e-03 -1.349685e-02 -2.371537e-02 -3.709401e-02 -5.412583e-02 -7.534607e-02 -1.011853e-01 -1.320397e-01 -1.681115e-01 -2.094561e-01 -2.558368e-01 -3.067450e-01 -3.613061e-01 -4.182867e-01 -4.760905e-01 -5.327819e-01 -5.861906e-01 -6.339791e-01 -6.738249e-01 -7.035247e-01 -7.211610e-01 -7.251844e-01 -7.144532e-01 -6.882233e-01 -6.460185e-01 -5.875183e-01 -5.123301e-01 -4.198601e-01 -3.091314e-01 -1.787991e-01 -2.720073e-02 1.472446e-01 3.455250e-01 5.670294e-01 8.085255e-01 1.062793e+00 1.317711e+00 1.555873e+00 1.755503e+00 1.893657e+00 1.951421e+00 1.922349e+00 1.820043e+00 1.681959e+00 1.558418e+00 1.482031e+00 1.419483e+00 1.211341e+00 4.424237e-01 4.240925e-01 8.956979e-01 5.838979e-01 -8.044352e-02 -3.564281e-01 -8.797466e-01 -2.042975e+00 -2.546724e+00 -3.070873e+00 -3.386689e+00 -3.553300e+00 -3.718001e+00 -3.864632e+00 -2.847978e+00 -9.011345e-01 -3.709011e-02 2.837740e-01 3.778424e-01 3.780557e-01 3.419682e-01 2.946966e-01 2.471181e-01 2.036557e-01 1.658086e-01 1.337415e-01 1.070477e-01 8.510105e-02 6.722902e-02 5.278814e-02 4.119915e-02 3.195516e-02 2.462472e-02 1.884207e-02 1.430584e-02 1.076346e-02 8.013304e-03 5.885756e-03 
4.268721e-03 2.932686e-03 1.916264e-03 1.143212e-03 5.643110e-04 1.300169e-04 -1.853510e-04 -4.150430e-04 -5.701011e-04 -6.741283e-04 -7.294741e-04 -7.539870e-04 -7.451159e-04 -7.168922e-04 -6.640830e-04 -5.975348e-04 -5.104149e-04 -4.102360e-04 -2.888602e-04 -1.499577e-04 1.609013e-05 2.099623e-04 4.430548e-04 7.205130e-04 1.055464e-03 1.456714e-03 1.938054e-03 2.509421e-03 3.182206e-03 3.962070e-03 4.851663e-03 5.842631e-03 6.917793e-03 8.039213e-03 9.152753e-03 1.016849e-02 1.097175e-02 1.139179e-02 1.122489e-02 1.018741e-02 7.957910e-03 4.112177e-03 -1.807884e-03 -1.037690e-02 -2.218272e-02 -3.792202e-02 -5.825761e-02 -8.391654e-02 -1.155096e-01 -1.536169e-01 -1.985824e-01 -2.505723e-01 -3.093750e-01 -3.744274e-01 -4.446691e-01 -5.185557e-01 -5.940258e-01 -6.685455e-01 -7.392273e-01 -8.029514e-01 -8.566057e-01 -8.972748e-01 -9.224692e-01 -9.302826e-01 -9.194378e-01 -8.892856e-01 -8.396010e-01 -7.703948e-01 -6.815674e-01 -5.726504e-01 -4.425070e-01 -2.892066e-01 -1.100112e-01 9.826775e-02 3.386024e-01 6.124218e-01 9.179789e-01 1.248094e+00 1.588185e+00 1.914715e+00 2.195288e+00 2.392066e+00 2.469113e+00 2.407116e+00 2.221355e+00 1.978790e+00 1.791048e+00 1.764306e+00 1.916946e+00 2.144002e+00 -4.244041e-01 -1.998816e+00 -1.360760e+00 -2.002863e+00 -2.868164e+00 -4.524216e+00 -4.973975e+00 -4.974939e+00 -4.871012e+00 -4.449892e+00 -4.451056e+00 -3.967033e+00 -4.624875e+00 -4.521703e+00 -2.092610e+00 -2.064957e-01 4.336845e-01 5.872498e-01 5.720182e-01 5.036564e-01 4.246942e-01 3.502625e-01 2.851428e-01 2.301091e-01 1.844705e-01 1.470584e-01 1.166354e-01 9.204971e-02 7.228568e-02 5.647446e-02 4.388286e-02 3.390003e-02 2.602031e-02 1.982719e-02 1.498140e-02 1.120468e-02 8.275156e-03 6.010079e-03 
4.125229e-03 2.713794e-03 1.638346e-03 8.174308e-04 2.028391e-04 -2.594064e-04 -5.923708e-04 -8.337230e-04 -9.910046e-04 -1.092530e-03 -1.136757e-03 -1.146510e-03 -1.115269e-03 -1.062041e-03 -9.776973e-04 -8.776456e-04 -7.512268e-04 -6.096347e-04 -4.408367e-04 -2.508566e-04 -2.587388e-05 2.341354e-04 5.453660e-04 9.142544e-04 1.359575e-03 1.893419e-03 2.536139e-03 3.302639e-03 4.211435e-03 5.273897e-03 6.499235e-03 7.883573e-03 9.413375e-03 1.105041e-02 1.273717e-02 1.437302e-02 1.582661e-02 1.689784e-02 1.734428e-02 1.682363e-02 1.494294e-02 1.117771e-02 4.954391e-03 -4.454651e-03 -1.780462e-02 -3.600236e-02 -5.992760e-02 -9.056321e-02 -1.287629e-01 -1.753674e-01 -2.309314e-01 -2.958030e-01 -3.698467e-01 -4.524748e-01 -5.424319e-01 -6.378019e-01 -7.359413e-01 -8.335275e-01 -9.267157e-01 -1.011305e+00 -1.083096e+00 -1.138175e+00 -1.173280e+00 -1.186040e+00 -1.175080e+00 -1.140000e+00 -1.081092e+00 -9.990182e-01 -8.943063e-01 -7.669026e-01 -6.156895e-01 -4.381540e-01 -2.301811e-01 1.371418e-02 2.997027e-01 6.329206e-01 1.015165e+00 1.441265e+00 1.895571e+00 2.348052e+00 2.752371e+00 3.047425e+00 3.165705e+00 3.054980e+00 2.715841e+00 2.251433e+00 1.889781e+00 1.897104e+00 2.515343e+00 -4.801697e-01 -2.715444e+00 -2.606299e+00 -4.107205e+00 -6.804862e+00 -6.209474e+00 -3.831248e+00 -2.579961e+00 -8.969607e-01 -2.255714e-01 4.461951e-01 7.252366e-01 1.158482e+00 1.242813e+00 1.852901e+00 2.275327e+00 1.877064e+00 1.410161e+00 1.076906e+00 8.346027e-01 6.532570e-01 5.144368e-01 4.064374e-01 3.215399e-01 2.543559e-01 2.009840e-01 1.585029e-01 1.246728e-01 9.774861e-02 7.634975e-02 5.937761e-02 4.594994e-02 3.535706e-02 2.702700e-02 2.049703e-02 1.539673e-02 1.142465e-02 8.344187e-03 5.960073e-03 
3.792531e-03 2.312073e-03 1.177991e-03 3.089085e-04 -3.452190e-04 -8.373824e-04 -1.191932e-03 -1.445341e-03 -1.606398e-03 -1.702405e-03 -1.733279e-03 -1.721150e-03 -1.661187e-03 -1.571929e-03 -1.445962e-03 -1.298186e-03 -1.119307e-03 -9.195982e-04 -6.875556e-04 -4.274459e-04 -1.246234e-04 2.239519e-04 6.371274e-04 1.125989e-03 1.714119e-03 2.420122e-03 3.271348e-03 4.290973e-03 5.506171e-03 6.937563e-03 8.603211e-03 1.050748e-02 1.264293e-02 1.497468e-02 1.744353e-02 1.994080e-02 2.231779e-02 2.434523e-02 2.573667e-02 2.608615e-02 2.491609e-02 2.158774e-02 1.538674e-02 5.404306e-03 -9.324763e-03 -2.996585e-02 -5.768022e-02 -9.377962e-02 -1.394482e-01 -1.958829e-01 -2.639495e-01 -3.442788e-01 -4.368933e-01 -5.412420e-01 -6.558790e-01 -7.784647e-01 -9.056231e-01 -1.033009e+00 -1.155474e+00 -1.267335e+00 -1.362855e+00 -1.436724e+00 -1.484595e+00 -1.503513e+00 -1.492054e+00 -1.450330e+00 -1.379552e+00 -1.281527e+00 -1.157928e+00 -1.009590e+00 -8.358081e-01 -6.336590e-01 -3.974896e-01 -1.187194e-01 2.135702e-01 6.107431e-01 1.081374e+00 1.626037e+00 2.231393e+00 2.862907e+00 3.458451e+00 3.924719e+00 4.140071e+00 3.979644e+00 3.376782e+00 2.450332e+00 1.635731e+00 1.554985e+00 -2.093752e+00 -5.245466e+00 -3.635493e+00 -7.759805e+00 -8.854450e+00 -2.268113e+00 1.023104e+00 2.856133e+00 4.017247e+00 4.804986e+00 4.781565e+00 5.014035e+00 5.105480e+00 5.057338e+00 5.369193e+00 6.144111e+00 6.227295e+00 3.843699e+00 2.281068e+00 1.498884e+00 1.055183e+00 7.760784e-01 5.864393e-01 4.504714e-01 3.494091e-01 2.724990e-01 2.130658e-01 1.666964e-01 1.303053e-01 1.016568e-01 7.907184e-02 6.126890e-02 4.724756e-02 3.622331e-02 2.757285e-02 2.080085e-02 1.551286e-02 1.139288e-02 8.192406e-03 5.710023e-03 
3.194923e-03 1.648229e-03 4.568587e-04 -4.631428e-04 -1.157282e-03 -1.681897e-03 -2.055898e-03 -2.320303e-03 -2.478100e-03 -2.562400e-03 -2.567402e-03 -2.522013e-03 -2.416028e-03 -2.275118e-03 -2.086882e-03 -1.872897e-03 -1.619076e-03 -1.341044e-03 -1.022310e-03 -6.703766e-04 -2.648780e-04 1.967611e-04 7.404356e-04 1.380013e-03 2.148002e-03 3.069261e-03 4.182256e-03 5.519686e-03 7.121792e-03 9.020978e-03 1.124902e-02 1.382194e-02 1.674362e-02 1.998608e-02 2.349345e-02 2.715140e-02 3.079752e-02 3.417245e-02 3.694572e-02 3.864028e-02 3.868653e-02 3.631257e-02 3.064305e-02 2.055081e-02 4.820049e-03 -1.803711e-02 -4.953324e-02 -9.140757e-02 -1.452799e-01 -2.128376e-01 -2.953929e-01 -3.940095e-01 -5.090004e-01 -6.399598e-01 -7.853015e-01 -9.422219e-01 -1.106460e+00 -1.272336e+00 -1.432955e+00 -1.580550e+00 -1.707211e+00 -1.805596e+00 -1.869818e+00 -1.896106e+00 -1.883095e+00 -1.831808e+00 -1.745009e+00 -1.626408e+00 -1.479598e+00 -1.307052e+00 -1.109149e+00 -8.831041e-01 -6.218784e-01 -3.132200e-01 6.038382e-02 5.197977e-01 1.085325e+00 1.769381e+00 2.568017e+00 3.448611e+00 4.337655e+00 5.105184e+00 5.551915e+00 5.410661e+00 4.417670e+00 2.559769e+00 6.388456e-01 -2.471274e+00 -4.992382e+00 -4.493389e+00 -1.153737e+01 -8.531219e+00 2.054565e+00 6.512432e+00 6.864401e+00 6.429184e+00 6.325894e+00 5.285279e+00 5.108265e+00 4.291008e+00 4.060738e+00 3.561083e+00 3.218973e+00 3.582648e+00 5.540909e+00 3.851856e+00 2.408473e+00 1.610657e+00 1.133188e+00 8.270250e-01 6.190523e-01 4.713397e-01 3.628501e-01 2.812435e-01 2.188096e-01 1.705002e-01 1.328334e-01 1.033317e-01 8.016325e-02 6.195172e-02 4.763550e-02 3.639114e-02 2.757011e-02 2.066028e-02 1.525704e-02 1.103672e-02 7.747676e-03 5.184589e-03 