# vtk DataFile Version 2.0
Comment goes here
ASCII

DATASET STRUCTURED_POINTS
DIMENSIONS    128   128   1

ORIGIN    0.000   0.000   0.000
SPACING   0.0156250.015625   1.000

POINT_DATA   16384
SCALARS Omega double
LOOKUP_TABLE default

1.859276e-05 1.821688e-05 1.736927e-05 1.605375e-05 1.434958e-05 1.226438e-05 9.862436e-06 7.158093e-06 4.198153e-06 1.007062e-06 -2.386251e-06 -5.945143e-06 -9.657377e-06 -1.347450e-05 -1.739850e-05 -2.137259e-05 -2.540945e-05 -2.945060e-05 -3.351488e-05 -3.755147e-05 -4.158033e-05 -4.556926e-05 -4.953433e-05 -5.347311e-05 -5.739390e-05 -6.133365e-05 -6.529125e-05 -6.934929e-05 -7.349956e-05 -7.787138e-05 -8.245716e-05 -8.742756e-05 -9.278997e-05 -9.874374e-05 -1.053325e-04 -1.127647e-04 -1.211470e-04 -1.306718e-04 -1.415374e-04 -1.538920e-04 -1.680506e-04 -1.840885e-04 -2.024506e-04 -2.231141e-04 -2.466451e-04 -2.729037e-04 -3.025394e-04 -3.352833e-04 -3.717960e-04 -4.116766e-04 -4.554926e-04 -5.027159e-04 -5.536957e-04 -6.077903e-04 -6.650041e-04 -7.246036e-04 -7.861442e-04 -8.488324e-04 -9.117152e-04 -9.739810e-04 -1.034168e-03 -1.091500e-03 -1.144069e-03 -1.191201e-03 -1.230661e-03 -1.261964e-03 -1.282716e-03 -1.292726e-03 -1.289652e-03 -1.273715e-03 -1.242871e-03 -1.197868e-03 -1.137230e-03 -1.062302e-03 -9.724460e-04 -8.696069e-04 -7.542205e-04 -6.287330e-04 -4.948147e-04 -3.552340e-04 -2.129143e-04 -7.071763e-05 6.738856e-05 1.987311e-04 3.188452e-04 4.256538e-04 5.151352e-04 5.863752e-04 6.369336e-04 6.675565e-04 6.781530e-04 6.710774e-04 6.483697e-04 6.131803e-04 5.685225e-04 5.172843e-04 4.622394e-04 4.054273e-04 3.487984e-04 2.935545e-04 2.408712e-04 1.914364e-04 1.459697e-04 1.049236e-04 6.877605e-05 3.779050e-05 1.216424e-05 -8.142572e-06 -2.333362e-05 -3.378633e-05 -4.005314e-05 -4.271613e-05 -4.247453e-05 -3.993551e-05 -3.575199e-05 -3.043521e-05 -2.448564e-05 -1.827415e-05 -1.212307e-05 -6.269978e-06 -8.805173e-07 3.910796e-06 8.055310e-06 1.148709e-05 1.423383e-05 1.626906e-05 1.766296e-05 1.840827e-05 
-2.727076e-04 -3.202655e-03 -5.834674e-03 -8.163884e-03 -1.018880e-02 -1.190975e-02 -1.332965e-02 -1.445341e-02 -1.528785e-02 -1.584192e-02 -1.612603e-02 -1.615279e-02 -1.593600e-02 -1.549170e-02 -1.483697e-02 -1.399114e-02 -1.297453e-02 -1.180971e-02 -1.052024e-02 -9.131944e-03 -7.671738e-03 -6.168826e-03 -4.653680e-03 -3.159169e-03 -1.719640e-03 -3.720597e-04 8.449380e-04 1.889762e-03 2.719071e-03 3.286169e-03 3.542735e-03 3.436766e-03 2.915092e-03 1.920781e-03 3.966611e-04 -1.717777e-03 -4.481781e-03 -7.956721e-03 -1.220057e-02 -1.727113e-02 -2.322004e-02 -3.009524e-02 -3.793524e-02 -4.677004e-02 -5.661668e-02 -6.747805e-02 -7.934068e-02 -9.217111e-02 -1.059169e-01 -1.205006e-01 -1.358248e-01 -1.517641e-01 -1.681743e-01 -1.848836e-01 -2.017042e-01 -2.184254e-01 -2.348248e-01 -2.506645e-01 -2.656992e-01 -2.796771e-01 -2.923409e-01 -3.034355e-01 -3.126972e-01 -3.198732e-01 -3.246937e-01 -3.269090e-01 -3.262421e-01 -3.224504e-01 -3.152565e-01 -3.044439e-01 -2.897636e-01 -2.710711e-01 -2.482090e-01 -2.211835e-01 -1.900289e-01 -1.550035e-01 -1.164508e-01 -7.497323e-02 -3.131496e-02 1.354659e-02 5.846623e-02 1.021718e-01 1.432660e-01 1.804042e-01 2.122589e-01 2.377800e-01 2.561737e-01 2.671480e-01 2.709112e-01 2.682774e-01 2.605863e-01 2.495715e-01 2.371223e-01 2.249955e-01 2.145576e-01 2.066322e-01 2.014221e-01 1.985887e-01 1.973215e-01 1.965865e-01 1.952596e-01 1.923655e-01 1.871897e-01 1.794396e-01 1.692751e-01 1.572939e-01 1.443318e-01 1.312611e-01 1.187642e-01 1.072776e-01 9.696504e-02 8.781165e-02 7.967258e-02 7.236699e-02 6.570086e-02 5.951578e-02 5.367997e-02 4.810790e-02 4.273926e-02 3.754764e-02 3.251998e-02 2.766270e-02 2.298566e-02 1.850805e-02 1.424687e-02 1.022253e-02 6.451023e-03 2.948736e-03 
-9.987173e-04 -6.843136e-03 -1.209341e-02 -1.673955e-02 -2.077806e-02 -2.420937e-02 -2.703892e-02 -2.927625e-02 -3.093474e-02 -3.203203e-02 -3.258871e-02 -3.262980e-02 -3.218274e-02 -3.127943e-02 -2.995394e-02 -2.824475e-02 -2.619250e-02 -2.384208e-02 -2.124074e-02 -1.843977e-02 -1.549321e-02 -1.245902e-02 -9.398425e-03 -6.376587e-03 -3.462556e-03 -7.295881e-04 1.744607e-03 3.877603e-03 5.582162e-03 6.765645e-03 7.330733e-03 7.174042e-03 6.188405e-03 4.260305e-03 1.274407e-03 -2.890415e-03 -8.353823e-03 -1.523929e-02 -2.366408e-02 -3.374531e-02 -4.558770e-02 -5.928947e-02 -7.492907e-02 -9.256964e-02 -1.122466e-01 -1.339694e-01 -1.577120e-01 -1.834111e-01 -2.109624e-01 -2.402140e-01 -2.709704e-01 -3.029831e-01 -3.359614e-01 -3.695625e-01 -4.034076e-01 -4.370746e-01 -4.701148e-01 -5.020512e-01 -5.323895e-01 -5.606255e-01 -5.862424e-01 -6.087307e-01 -6.275636e-01 -6.422367e-01 -6.522129e-01 -6.569932e-01 -6.560248e-01 -6.488189e-01 -6.348162e-01 -6.135715e-01 -5.845723e-01 -5.475053e-01 -5.020303e-01 -4.481233e-01 -3.858212e-01 -3.155992e-01 -2.381207e-01 -1.545580e-01 -6.640281e-02 2.439519e-02 1.154979e-01 2.043226e-01 2.879786e-01 3.636844e-01 4.286539e-01 4.806473e-01 5.179529e-01 5.398597e-01 5.467583e-01 5.402971e-01 5.233231e-01 4.995387e-01 4.730160e-01 4.475358e-01 4.259841e-01 4.100631e-01 4.001236e-01 3.953581e-01 3.939474e-01 3.936207e-01 3.919430e-01 3.868039e-01 3.766548e-01 3.608575e-01 3.397868e-01 3.148272e-01 2.878963e-01 2.609451e-01 2.354336e-01 2.122311e-01 1.916019e-01 1.734349e-01 1.573701e-01 1.429933e-01 1.298866e-01 1.177160e-01 1.062142e-01 9.520953e-02 8.458591e-02 7.429393e-02 6.431264e-02 5.465780e-02 4.535289e-02 3.643800e-02 2.794950e-02 1.992913e-02 1.241031e-02 5.426293e-03 
-2.597519e-03 -1.132347e-02 -1.916398e-02 -2.610236e-02 -3.213300e-02 -3.725516e-02 -4.147666e-02 -4.481070e-02 -4.727695e-02 -4.890101e-02 -4.971340e-02 -4.975097e-02 -4.905449e-02 -4.767136e-02 -4.565225e-02 -4.305464e-02 -3.993894e-02 -3.637245e-02 -3.242533e-02 -2.817463e-02 -2.370053e-02 -1.909017e-02 -1.443432e-02 -9.831013e-03 -5.382612e-03 -1.199362e-03 2.603448e-03 5.901671e-03 8.565635e-03 1.045563e-02 1.142653e-02 1.132211e-02 9.981855e-03 7.233741e-03 2.904047e-03 -3.191458e-03 -1.123427e-02 -2.141310e-02 -3.390739e-02 -4.889737e-02 -6.654528e-02 -8.700394e-02 -1.103977e-01 -1.368272e-01 -1.663532e-01 -1.989958e-01 -2.347233e-01 -2.734457e-01 -3.150122e-01 -3.591975e-01 -4.057114e-01 -4.541797e-01 -5.041659e-01 -5.551501e-01 -6.065601e-01 -6.577533e-01 -7.080507e-01 -7.567259e-01 -8.030325e-01 -8.462051e-01 -8.854668e-01 -9.200489e-01 -9.491641e-01 -9.720552e-01 -9.879218e-01 -9.960143e-01 -9.955041e-01 -9.856469e-01 -9.655898e-01 -9.346324e-01 -8.919667e-01 -8.370626e-01 -7.693385e-01 -6.886775e-01 -5.950394e-01 -4.890603e-01 -3.716435e-01 -2.445164e-01 -1.098742e-01 2.930126e-02 1.694479e-01 3.065233e-01 4.360067e-01 5.534503e-01 6.543586e-01 7.350230e-01 7.924982e-01 8.254376e-01 8.342442e-01 8.215026e-01 7.918451e-01 7.515005e-01 7.073750e-01 6.658754e-01 6.317542e-01 6.076664e-01 5.940100e-01 5.892220e-01 5.900172e-01 5.924768e-01 5.924563e-01 5.863914e-01 5.716316e-01 5.470380e-01 5.133056e-01 4.730379e-01 4.298477e-01 3.872338e-01 3.476228e-01 3.122676e-01 2.813630e-01 2.545149e-01 2.309914e-01 2.100435e-01 1.909659e-01 1.732251e-01 1.564068e-01 1.402595e-01 1.246165e-01 1.094169e-01 9.463812e-02 8.031462e-02 6.648741e-02 5.322379e-02 4.058146e-02 2.862757e-02 1.741382e-02 6.993102e-03 
-5.477665e-03 -1.704181e-02 -2.743548e-02 -3.663469e-02 -4.462995e-02 -5.141873e-02 -5.700977e-02 -6.141925e-02 -6.467206e-02 -6.680102e-02 -6.784576e-02 -6.785431e-02 -6.688021e-02 -6.498570e-02 -6.223781e-02 -5.871228e-02 -5.448936e-02 -4.965786e-02 -4.431120e-02 -3.855108e-02 -3.248442e-02 -2.622614e-02 -1.989737e-02 -1.362731e-02 -7.552649e-03 -1.818685e-03 3.420475e-03 8.001018e-03 1.174931e-02 1.448049e-02 1.599973e-02 1.609939e-02 1.456324e-02 1.116125e-02 5.658324e-03 -2.193768e-03 -1.264208e-02 -2.594337e-02 -4.234376e-02 -6.209164e-02 -8.541212e-02 -1.125200e-01 -1.435915e-01 -1.787745e-01 -2.181610e-01 -2.617926e-01 -3.096377e-01 -3.615900e-01 -4.174561e-01 -4.769459e-01 -5.396747e-01 -6.051476e-01 -6.727767e-01 -7.418653e-01 -8.116368e-01 -8.812231e-01 -9.496999e-01 -1.016084e+00 -1.079361e+00 -1.138498e+00 -1.192446e+00 -1.240177e+00 -1.280638e+00 -1.312823e+00 -1.335672e+00 -1.348187e+00 -1.349267e+00 -1.337905e+00 -1.312939e+00 -1.273386e+00 -1.218095e+00 -1.146253e+00 -1.056954e+00 -9.498798e-01 -8.248070e-01 -6.824006e-01 -5.237170e-01 -3.509270e-01 -1.669264e-01 2.430279e-02 2.178337e-01 4.080633e-01 5.885375e-01 7.528684e-01 8.944105e-01 1.007516e+00 1.087509e+00 1.131877e+00 1.140798e+00 1.117755e+00 1.069711e+00 1.006338e+00 9.385970e-01 8.766824e-01 8.277203e-01 7.953419e-01 7.798675e-01 7.784671e-01 7.855372e-01 7.948326e-01 7.998974e-01 7.952074e-01 7.765408e-01 7.418663e-01 6.922522e-01 6.324012e-01 5.688986e-01 5.076871e-01 4.523873e-01 4.044190e-01 3.635290e-01 3.286864e-01 2.985363e-01 2.718396e-01 2.475313e-01 2.248481e-01 2.032326e-01 1.823627e-01 1.620401e-01 1.422060e-01 1.228522e-01 1.040408e-01 8.584103e-02 6.835216e-02 5.165976e-02 3.585871e-02 2.102315e-02 7.226740e-03 
-1.005652e-02 -2.439665e-02 -3.729050e-02 -4.870383e-02 -5.862318e-02 -6.704179e-02 -7.396908e-02 -7.942231e-02 -8.343115e-02 -8.603418e-02 -8.727961e-02 -8.722558e-02 -8.593775e-02 -8.349258e-02 -7.997254e-02 -7.547149e-02 -7.008832e-02 -6.393356e-02 -5.712239e-02 -4.978166e-02 -4.204306e-02 -3.405012e-02 -2.595190e-02 -1.790981e-02 -1.009205e-02 -2.680233e-03 4.135778e-03 1.015094e-02 1.515066e-02 1.890294e-02 2.116573e-02 2.167741e-02 2.016736e-02 1.634411e-02 9.910767e-03 5.504609e-04 -1.205230e-02 -2.822834e-02 -4.829643e-02 -7.258067e-02 -1.013783e-01 -1.349751e-01 -1.736115e-01 -2.174923e-01 -2.667555e-01 -3.214733e-01 -3.816295e-01 -4.471083e-01 -5.176869e-01 -5.930123e-01 -6.726134e-01 -7.558692e-01 -8.420424e-01 -9.302448e-01 -1.019490e+00 -1.108662e+00 -1.196581e+00 -1.281983e+00 -1.363575e+00 -1.440035e+00 -1.510040e+00 -1.572288e+00 -1.625471e+00 -1.668333e+00 -1.699568e+00 -1.717935e+00 -1.722069e+00 -1.710694e+00 -1.682332e+00 -1.635667e+00 -1.569161e+00 -1.481617e+00 -1.371694e+00 -1.238731e+00 -1.082150e+00 -9.025018e-01 -7.008007e-01 -4.795962e-01 -2.423462e-01 5.873358e-03 2.587596e-01 5.088593e-01 7.475563e-01 9.660499e-01 1.155041e+00 1.306270e+00 1.412509e+00 1.469293e+00 1.475857e+00 1.436527e+00 1.361181e+00 1.264472e+00 1.163555e+00 1.074583e+00 1.007784e+00 9.672249e-01 9.533205e-01 9.611600e-01 9.810052e-01 1.003523e+00 1.019040e+00 1.019486e+00 9.983523e-01 9.516626e-01 8.805578e-01 7.935214e-01 7.029218e-01 6.187087e-01 5.457694e-01 4.850198e-01 4.349804e-01 3.934025e-01 3.579445e-01 3.267071e-01 2.981928e-01 2.714097e-01 2.456710e-01 2.206188e-01 1.960463e-01 1.719253e-01 1.482772e-01 1.252102e-01 1.028292e-01 8.127675e-02 6.066957e-02 4.113732e-02 2.277773e-02 5.690137e-03 
-1.669293e-02 -3.374263e-02 -4.908007e-02 -6.265981e-02 -7.446173e-02 -8.447384e-02 -9.270405e-02 -9.916950e-02 -1.039029e-01 -1.069475e-01 -1.083586e-01 -1.082035e-01 -1.065590e-01 -1.035146e-01 -9.916811e-02 -9.363000e-02 -8.701810e-02 -7.946308e-02 -7.110251e-02 -6.208651e-02 -5.257253e-02 -4.273031e-02 -3.273814e-02 -2.278674e-02 -1.307733e-02 -3.824516e-03 4.744272e-03 1.238632e-02 1.884389e-02 2.384123e-02 2.708636e-02 2.826621e-02 2.705235e-02 2.309285e-02 1.602456e-02 5.460536e-03 -8.988917e-03 -2.773345e-02 -5.117176e-02 -7.971246e-02 -1.137339e-01 -1.536060e-01 -1.996437e-01 -2.521262e-01 -3.112488e-01 -3.771346e-01 -4.497931e-01 -5.291197e-01 -6.148697e-01 -7.066445e-01 -8.038877e-01 -9.058621e-01 -1.011671e+00 -1.120235e+00 -1.230335e+00 -1.340598e+00 -1.449555e+00 -1.555642e+00 -1.657253e+00 -1.752764e+00 -1.840549e+00 -1.919031e+00 -1.986636e+00 -2.041871e+00 -2.083194e+00 -2.109144e+00 -2.118110e+00 -2.108556e+00 -2.078685e+00 -2.026824e+00 -1.950982e+00 -1.849486e+00 -1.720421e+00 -1.562593e+00 -1.374862e+00 -1.157400e+00 -9.109795e-01 -6.382658e-01 -3.432096e-01 -3.184166e-02 2.879634e-01 6.068207e-01 9.134506e-01 1.196278e+00 1.442565e+00 1.640599e+00 1.779398e+00 1.851020e+00 1.852526e+00 1.788359e+00 1.672211e+00 1.525923e+00 1.376578e+00 1.251079e+00 1.163272e+00 1.114657e+00 1.108049e+00 1.135151e+00 1.177529e+00 1.222838e+00 1.256759e+00 1.268291e+00 1.247909e+00 1.186892e+00 1.084483e+00 9.564375e-01 8.275838e-01 7.144012e-01 6.221826e-01 5.495548e-01 4.923488e-01 4.462248e-01 4.074497e-01 3.733244e-01 3.419213e-01 3.120632e-01 2.829993e-01 2.543851e-01 2.260538e-01 1.980369e-01 1.704135e-01 1.433519e-01 1.170084e-01 9.157477e-02 6.720782e-02 4.407465e-02 2.230215e-02 2.016631e-03 
-2.575757e-02 -4.543171e-02 -6.314009e-02 -7.882236e-02 -9.245161e-02 -1.040074e-01 -1.134957e-01 -1.209309e-01 -1.263481e-01 -1.297932e-01 -1.313279e-01 -1.310269e-01 -1.289773e-01 -1.252809e-01 -1.200491e-01 -1.134092e-01 -1.054958e-01 -9.646041e-02 -8.646043e-02 -7.567012e-02 -6.426967e-02 -5.245620e-02 -4.043348e-02 -2.842295e-02 -1.665449e-02 -5.377256e-03 5.148520e-03 1.464061e-02 2.280288e-02 2.931351e-02 3.383459e-02 3.599854e-02 3.542145e-02 3.168666e-02 2.436429e-02 1.299130e-02 -2.900602e-03 -2.380819e-02 -5.021948e-02 -8.263860e-02 -1.215400e-01 -1.673916e-01 -2.206036e-01 -2.815452e-01 -3.504940e-01 -4.276402e-01 -5.130457e-01 -6.066304e-01 -7.081513e-01 -8.171701e-01 -9.330604e-01 -1.054962e+00 -1.181820e+00 -1.312340e+00 -1.445058e+00 -1.578302e+00 -1.710289e+00 -1.839109e+00 -1.962814e+00 -2.079435e+00 -2.187031e+00 -2.283727e+00 -2.367695e+00 -2.437210e+00 -2.490533e+00 -2.526003e+00 -2.541812e+00 -2.536177e+00 -2.507005e+00 -2.452232e+00 -2.369375e+00 -2.256150e+00 -2.109915e+00 -1.928702e+00 -1.710520e+00 -1.454876e+00 -1.161914e+00 -8.342221e-01 -4.759071e-01 -9.402466e-02 3.020935e-01 7.007190e-01 1.087711e+00 1.448058e+00 1.765024e+00 2.022369e+00 2.203785e+00 2.295477e+00 2.289531e+00 2.188889e+00 2.011679e+00 1.789951e+00 1.566542e+00 1.391454e+00 1.282402e+00 1.223776e+00 1.233962e+00 1.299319e+00 1.377162e+00 1.459617e+00 1.522917e+00 1.554477e+00 1.542752e+00 1.466565e+00 1.315202e+00 1.119136e+00 9.337977e-01 7.848058e-01 6.736351e-01 5.924690e-01 5.320145e-01 4.848286e-01 4.454976e-01 4.105769e-01 3.778340e-01 3.460560e-01 3.145325e-01 2.830238e-01 2.514549e-01 2.199634e-01 1.887077e-01 1.579399e-01 1.278758e-01 9.876934e-02 7.081991e-02 4.423990e-02 1.918609e-02 -4.182779e-03 
-3.753337e-02 -5.974976e-02 -7.975969e-02 -9.748657e-02 -1.128936e-01 -1.259504e-01 -1.366583e-01 -1.450273e-01 -1.510927e-01 -1.549010e-01 -1.565189e-01 -1.560266e-01 -1.535209e-01 -1.491136e-01 -1.429298e-01 -1.351114e-01 -1.258107e-01 -1.151972e-01 -1.034495e-01 -9.076312e-02 -7.734245e-02 -6.340850e-02 -4.919220e-02 -3.494149e-02 -2.091674e-02 -7.396784e-03 5.323369e-03 1.692726e-02 2.707806e-02 3.541298e-02 4.154537e-02 4.505716e-02 4.550525e-02 4.241001e-02 3.526978e-02 2.354363e-02 6.677706e-03 -1.591874e-02 -4.483245e-02 -8.067622e-02 -1.240330e-01 -1.754887e-01 -2.355647e-01 -3.047472e-01 -3.834144e-01 -4.718563e-01 -5.702059e-01 -6.784424e-01 -7.963397e-01 -9.234500e-01 -1.059082e+00 -1.202270e+00 -1.351791e+00 -1.506130e+00 -1.663542e+00 -1.822032e+00 -1.979443e+00 -2.133476e+00 -2.281776e+00 -2.421986e+00 -2.551798e+00 -2.669025e+00 -2.771569e+00 -2.857501e+00 -2.924912e+00 -2.972005e+00 -2.996828e+00 -2.997419e+00 -2.971431e+00 -2.916427e+00 -2.829394e+00 -2.707345e+00 -2.546729e+00 -2.344535e+00 -2.097577e+00 -1.804239e+00 -1.463628e+00 -1.077721e+00 -6.505305e-01 -1.897550e-01 2.936190e-01 7.855781e-01 1.268422e+00 1.723554e+00 2.129340e+00 2.464406e+00 2.705087e+00 2.827936e+00 2.814607e+00 2.662069e+00 2.394087e+00 2.055624e+00 1.709933e+00 1.469182e+00 1.356235e+00 1.269913e+00 1.312268e+00 1.459158e+00 1.581214e+00 1.724550e+00 1.830072e+00 1.892732e+00 1.910133e+00 1.827531e+00 1.593963e+00 1.271257e+00 1.001395e+00 8.130739e-01 6.894059e-01 6.078834e-01 5.510603e-01 5.078498e-01 4.714544e-01 4.381177e-01 4.056773e-01 3.731365e-01 3.400024e-01 3.062414e-01 2.719429e-01 2.373875e-01 2.028435e-01 1.686593e-01 1.351243e-01 1.025586e-01 7.121198e-02 4.134363e-02 1.314502e-02 -1.319168e-02 
-5.231466e-02 -7.697258e-02 -9.919812e-02 -1.188946e-01 -1.360152e-01 -1.505157e-01 -1.623925e-01 -1.716479e-01 -1.783166e-01 -1.824433e-01 -1.840984e-01 -1.833661e-01 -1.803508e-01 -1.751740e-01 -1.679723e-01 -1.589021e-01 -1.481308e-01 -1.358467e-01 -1.222461e-01 -1.075472e-01 -9.197425e-02 -7.577365e-02 -5.919836e-02 -4.252437e-02 -2.603649e-02 -1.004474e-02 5.127800e-03 1.912891e-02 3.158785e-02 4.209911e-02 5.023315e-02 5.551899e-02 5.745798e-02 5.550374e-02 4.908265e-02 3.756978e-02 2.031994e-02 -3.360981e-03 -3.417165e-02 -7.284721e-02 -1.201011e-01 -1.766561e-01 -2.431756e-01 -3.202867e-01 -4.085075e-01 -5.082541e-01 -6.197745e-01 -7.431315e-01 -8.781576e-01 -1.024410e+00 -1.181161e+00 -1.347334e+00 -1.521541e+00 -1.702013e+00 -1.886696e+00 -2.073200e+00 -2.258945e+00 -2.441146e+00 -2.616980e+00 -2.783617e+00 -2.938342e+00 -3.078611e+00 -3.202070e+00 -3.306599e+00 -3.390195e+00 -3.450992e+00 -3.487009e+00 -3.496185e+00 -3.476032e+00 -3.423756e+00 -3.335855e+00 -3.208501e+00 -3.037090e+00 -2.817203e+00 -2.544041e+00 -2.214328e+00 -1.825460e+00 -1.378328e+00 -8.761371e-01 -3.271763e-01 2.562979e-01 8.573920e-01 1.454783e+00 2.025551e+00 2.543392e+00 2.981581e+00 3.308298e+00 3.484876e+00 3.471354e+00 3.247386e+00 2.846919e+00 2.330357e+00 1.752270e+00 1.423971e+00 1.410528e+00 1.195798e+00 1.296881e+00 1.655751e+00 1.776702e+00 2.040438e+00 2.193828e+00 2.289913e+00 2.391395e+00 2.350948e+00 1.969130e+00 1.372641e+00 9.861751e-01 7.726335e-01 6.571271e-01 5.911782e-01 5.482894e-01 5.153278e-01 4.856284e-01 4.561843e-01 4.255182e-01 3.932174e-01 3.591959e-01 3.237431e-01 2.871672e-01 2.499310e-01 2.124274e-01 1.751165e-01 1.383644e-01 1.025656e-01 6.802011e-02 3.503920e-02 3.848648e-03 -2.532155e-02 
-7.027582e-02 -9.728497e-02 -1.216514e-01 -1.432566e-01 -1.620406e-01 -1.779434e-01 -1.909534e-01 -2.010629e-01 -2.083034e-01 -2.127154e-01 -2.143711e-01 -2.133561e-01 -2.097817e-01 -2.037763e-01 -1.954881e-01 -1.850853e-01 -1.727510e-01 -1.586895e-01 -1.431164e-01 -1.262685e-01 -1.083919e-01 -8.975387e-02 -7.063140e-02 -5.132280e-02 -3.213920e-02 -1.341512e-02 4.496606e-03 2.121536e-02 3.633486e-02 4.941416e-02 5.997894e-02 6.751135e-02 7.145447e-02 7.119833e-02 6.609304e-02 5.542806e-02 3.845999e-02 1.438272e-02 -1.762481e-02 -5.843795e-02 -1.089158e-01 -1.699470e-01 -2.423580e-01 -3.269574e-01 -4.244301e-01 -5.353697e-01 -6.601705e-01 -7.990359e-01 -9.518866e-01 -1.118338e+00 -1.297644e+00 -1.488650e+00 -1.689791e+00 -1.899042e+00 -2.113982e+00 -2.331779e+00 -2.549316e+00 -2.763240e+00 -2.970123e+00 -3.166569e+00 -3.349344e+00 -3.515506e+00 -3.662410e+00 -3.787794e+00 -3.889628e+00 -3.966103e+00 -4.015351e+00 -4.035381e+00 -4.023705e+00 -3.977323e+00 -3.892284e+00 -3.763926e+00 -3.586398e+00 -3.353572e+00 -3.058510e+00 -2.695566e+00 -2.259650e+00 -1.749579e+00 -1.167094e+00 -5.202256e-01 1.773657e-01 9.061074e-01 1.639797e+00 2.351380e+00 3.009491e+00 3.585138e+00 4.040113e+00 4.316448e+00 4.328261e+00 4.004955e+00 3.416506e+00 2.668508e+00 1.548438e+00 1.072806e+00 1.678805e+00 8.161283e-01 1.038534e+00 2.106385e+00 1.846144e+00 2.484068e+00 2.633239e+00 2.701034e+00 3.035886e+00 3.235637e+00 2.572274e+00 1.268684e+00 7.984006e-01 6.307962e-01 5.695328e-01 5.435985e-01 5.267815e-01 5.100141e-01 4.900077e-01 4.660582e-01 4.381259e-01 4.067107e-01 3.722995e-01 3.355678e-01 2.970808e-01 2.574926e-01 2.173306e-01 1.771657e-01 1.374447e-01 9.863454e-02 6.108788e-02 2.516737e-02 -8.864655e-03 -4.074002e-02 
-9.159884e-02 -1.208493e-01 -1.472633e-01 -1.706972e-01 -1.910771e-01 -2.083241e-01 -2.224175e-01 -2.333364e-01 -2.411078e-01 -2.457654e-01 -2.473814e-01 -2.460411e-01 -2.418604e-01 -2.349737e-01 -2.255381e-01 -2.137338e-01 -1.997564e-01 -1.838270e-01 -1.661760e-01 -1.470606e-01 -1.267436e-01 -1.055147e-01 -8.366808e-02 -6.152615e-02 -3.941824e-02 -1.770453e-02 3.241444e-03 2.301015e-02 4.116907e-02 5.724170e-02 7.071735e-02 8.103095e-02 8.757305e-02 8.966860e-02 8.659232e-02 7.754392e-02 6.167523e-02 3.805964e-02 5.736850e-03 -3.632364e-02 -8.915642e-02 -1.538393e-01 -2.314063e-01 -3.228806e-01 -4.291736e-01 -5.510976e-01 -6.892638e-01 -8.440607e-01 -1.015569e+00 -1.203497e+00 -1.407136e+00 -1.625258e+00 -1.856137e+00 -2.097443e+00 -2.346344e+00 -2.599444e+00 -2.852988e+00 -3.102874e+00 -3.344930e+00 -3.575022e+00 -3.789296e+00 -3.984312e+00 -4.157141e+00 -4.305410e+00 -4.427193e+00 -4.520888e+00 -4.584968e+00 -4.617714e+00 -4.616921e+00 -4.579542e+00 -4.501417e+00 -4.376996e+00 -4.199165e+00 -3.959596e+00 -3.648696e+00 -3.257503e+00 -2.777358e+00 -2.203970e+00 -1.536221e+00 -7.814474e-01 4.618389e-02 9.233224e-01 1.818300e+00 2.697875e+00 3.526783e+00 4.279132e+00 4.925027e+00 5.394082e+00 5.510880e+00 5.027413e+00 4.153031e+00 3.387691e+00 7.055799e-01 -3.812305e-01 2.022944e+00 2.128285e+00 -4.785290e-02 2.350968e+00 1.927948e+00 1.758689e+00 1.812666e+00 1.184174e+00 2.147451e+00 1.182871e+00 1.398168e+00 3.406774e-01 3.110566e-01 3.800740e-01 4.409038e-01 4.785202e-01 4.956140e-01 4.974666e-01 4.878257e-01 4.695555e-01 4.444604e-01 4.140725e-01 3.794630e-01 3.416865e-01 3.015448e-01 2.598720e-01 2.173167e-01 1.745553e-01 1.321077e-01 9.051181e-02 5.016962e-02 1.149567e-02 -2.521261e-02 -5.964702e-02 
-1.163050e-01 -1.477046e-01 -1.760930e-01 -2.012988e-01 -2.232324e-01 -2.417922e-01 -2.569461e-01 -2.686562e-01 -2.769431e-01 -2.818293e-01 -2.833860e-01 -2.816939e-01 -2.768733e-01 -2.690606e-01 -2.584226e-01 -2.451473e-01 -2.294446e-01 -2.115480e-01 -1.917055e-01 -1.701896e-01 -1.472822e-01 -1.232896e-01 -9.852569e-02 -7.332936e-02 -4.805015e-02 -2.306477e-02 1.231469e-03 2.441023e-02 4.601265e-02 6.553693e-02 8.243634e-02 9.610762e-02 1.058888e-01 1.110453e-01 1.107751e-01 1.041877e-01 9.032550e-02 6.813199e-02 3.649796e-02 -5.784303e-03 -5.994192e-02 -1.272800e-01 -2.090673e-01 -3.065989e-01 -4.210515e-01 -5.535335e-01 -7.049244e-01 -8.758900e-01 -1.066729e+00 -1.277336e+00 -1.507085e+00 -1.754746e+00 -2.018435e+00 -2.295522e+00 -2.582683e+00 -2.875870e+00 -3.170494e+00 -3.461524e+00 -3.743778e+00 -4.012170e+00 -4.261991e+00 -4.489194e+00 -4.690498e+00 -4.863494e+00 -5.006501e+00 -5.118372e+00 -5.198199e+00 -5.244877e+00 -5.256800e+00 -5.231264e+00 -5.164142e+00 -5.049265e+00 -4.878158e+00 -4.640091e+00 -4.322066e+00 -3.910828e+00 -3.392782e+00 -2.758811e+00 -2.003453e+00 -1.131477e+00 -1.572105e-01 8.924887e-01 1.977119e+00 3.054497e+00 4.080587e+00 5.042255e+00 5.952741e+00 6.801158e+00 7.277190e+00 6.444214e+00 4.794185e+00 5.812156e+00 5.109942e+00 3.753395e+00 -1.498550e+00 7.631738e-01 1.283693e+00 -9.605458e-01 -6.195479e-01 -1.905429e+00 -1.946702e+00 -2.518646e+00 -2.151807e+00 -4.201365e+00 -2.338395e+00 -1.154722e+00 -2.692746e-01 1.351846e-01 3.294367e-01 4.247231e-01 4.691294e-01 4.849449e-01 4.828579e-01 4.686787e-01 4.456132e-01 4.159026e-01 3.810234e-01 3.422873e-01 3.006675e-01 2.571323e-01 2.124263e-01 1.673132e-01 1.223761e-01 7.821644e-02 3.528128e-02 -5.965140e-03 -4.519176e-02 -8.204996e-02 
-1.444181e-01 -1.778510e-01 -2.081166e-01 -2.350139e-01 -2.584359e-01 -2.782563e-01 -2.944294e-01 -3.068982e-01 -3.156740e-01 -3.207666e-01 -3.222425e-01 -3.201771e-01 -3.146908e-01 -3.059224e-01 -2.940438e-01 -2.792522e-01 -2.617665e-01 -2.418349e-01 -2.197169e-01 -1.957030e-01 -1.700871e-01 -1.431944e-01 -1.153502e-01 -8.691136e-02 -5.823722e-02 -2.972169e-02 -1.769764e-03 2.517248e-02 5.063254e-02 7.408603e-02 9.496215e-02 1.126231e-01 1.263634e-01 1.353925e-01 1.388346e-01 1.357101e-01 1.249462e-01 1.053519e-01 7.564989e-02 3.444206e-02 -1.972859e-02 -8.842087e-02 -1.731984e-01 -2.756716e-01 -3.973692e-01 -5.397587e-01 -7.040987e-01 -8.914117e-01 -1.102338e+00 -1.337038e+00 -1.595080e+00 -1.875271e+00 -2.175620e+00 -2.493147e+00 -2.823972e+00 -3.163204e+00 -3.505213e+00 -3.843704e+00 -4.172183e+00 -4.484248e+00 -4.774091e+00 -5.036851e+00 -5.268870e+00 -5.467780e+00 -5.632380e+00 -5.762267e+00 -5.857537e+00 -5.918098e+00 -5.943459e+00 -5.931717e+00 -5.879402e+00 -5.780006e+00 -5.624026e+00 -5.397807e+00 -5.084401e+00 -4.664675e+00 -4.118504e+00 -3.429944e+00 -2.586623e+00 -1.589121e+00 -4.493405e-01 8.012507e-01 2.110810e+00 3.418238e+00 4.656400e+00 5.814898e+00 7.009005e+00 8.556227e+00 1.035021e+01 8.934232e+00 9.293478e-01 -5.080389e+00 -2.312579e+00 -6.777602e-02 -1.193084e+00 -4.477414e+00 -3.383558e+00 -3.455805e+00 -4.091387e+00 -3.413362e+00 -3.732710e+00 -2.975140e+00 -4.075104e+00 -4.305418e+00 -3.698791e+00 -1.441183e+00 -3.626226e-01 9.821868e-02 3.098844e-01 4.115753e-01 4.595532e-01 4.778628e-01 4.776244e-01 4.646593e-01 4.421899e-01 4.124916e-01 3.770956e-01 3.373863e-01 2.944051e-01 2.491940e-01 2.025598e-01 1.553300e-01 1.081388e-01 6.164141e-02 1.632569e-02 -2.729885e-02 -6.886826e-02 -1.079951e-01 
-1.757424e-01 -2.111173e-01 -2.431936e-01 -2.717362e-01 -2.966204e-01 -3.176898e-01 -3.348844e-01 -3.481215e-01 -3.574024e-01 -3.627176e-01 -3.641285e-01 -3.616988e-01 -3.555499e-01 -3.458165e-01 -3.326778e-01 -3.163342e-01 -2.970168e-01 -2.749825e-01 -2.505064e-01 -2.238902e-01 -1.954442e-01 -1.655045e-01 -1.344110e-01 -1.025292e-01 -7.022999e-02 -3.791260e-02 -5.991753e-03 2.508246e-02 5.482611e-02 8.270675e-02 1.081335e-01 1.304477e-01 1.489053e-01 1.626696e-01 1.707950e-01 1.722162e-01 1.657455e-01 1.500500e-01 1.236782e-01 8.501755e-02 3.236509e-02 -3.613818e-02 -1.223825e-01 -2.283698e-01 -3.560344e-01 -5.073145e-01 -6.839299e-01 -8.874064e-01 -1.118835e+00 -1.378809e+00 -1.667201e+00 -1.983006e+00 -2.324179e+00 -2.687443e+00 -3.068265e+00 -3.460768e+00 -3.857945e+00 -4.251863e+00 -4.634173e+00 -4.996675e+00 -5.331958e+00 -5.634068e+00 -5.898847e+00 -6.124132e+00 -6.309535e+00 -6.455871e+00 -6.564753e+00 -6.637638e+00 -6.675699e+00 -6.678554e+00 -6.644063e+00 -6.566216e+00 -6.434764e+00 -6.233295e+00 -5.939874e+00 -5.528271e+00 -4.969573e+00 -4.238450e+00 -3.312797e+00 -2.184851e+00 -8.610749e-01 6.255121e-01 2.208323e+00 3.795774e+00 5.257919e+00 6.504314e+00 7.679680e+00 1.005133e+01 1.662902e+01 1.771496e+00 -1.913935e+00 -4.874424e-01 -3.012251e+00 -1.140306e+01 -8.235784e+00 -3.703238e-01 -3.955977e+00 -1.124762e+00 -1.035553e+00 5.570022e-01 -2.749499e-01 1.280021e+00 3.694432e-01 1.867686e+00 -7.189114e-01 -8.436098e-02 1.619674e-01 3.046951e-01 3.899888e-01 4.398221e-01 4.662418e-01 4.756053e-01 4.717598e-01 4.573418e-01 4.341775e-01 4.039128e-01 3.678072e-01 3.271456e-01 2.829426e-01 2.362607e-01 1.879333e-01 1.388340e-01 8.963119e-02 4.102800e-02 -6.455968e-03 -5.226669e-02 -9.601289e-02 -1.372664e-01 
-2.100835e-01 -2.472771e-01 -2.810618e-01 -3.111704e-01 -3.374572e-01 -3.597358e-01 -3.779276e-01 -3.919244e-01 -4.017121e-01 -4.072614e-01 -4.086235e-01 -4.058498e-01 -3.990568e-01 -3.883762e-01 -3.739877e-01 -3.560973e-01 -3.349412e-01 -3.107887e-01 -2.839219e-01 -2.546588e-01 -2.233159e-01 -1.902449e-01 -1.557886e-01 -1.203240e-01 -8.421988e-02 -4.788108e-02 -1.171618e-02 2.382380e-02 5.826077e-02 9.106094e-02 1.216306e-01 1.492997e-01 1.733001e-01 1.927604e-01 2.066735e-01 2.138983e-01 2.131299e-01 2.028981e-01 1.815590e-01 1.472795e-01 9.806871e-02 3.174262e-02 -5.399000e-02 -1.615759e-01 -2.934726e-01 -4.521813e-01 -6.400508e-01 -8.592469e-01 -1.111523e+00 -1.398072e+00 -1.719292e+00 -2.074506e+00 -2.461761e+00 -2.877484e+00 -3.316429e+00 -3.771443e+00 -4.233760e+00 -4.693164e+00 -5.138785e+00 -5.559840e+00 -5.946716e+00 -6.291935e+00 -6.590785e+00 -6.841545e+00 -7.045150e+00 -7.204233e+00 -7.322488e+00 -7.403488e+00 -7.450746e+00 -7.466331e+00 -7.450741e+00 -7.399734e+00 -7.303509e+00 -7.142655e+00 -6.889648e+00 -6.508322e+00 -5.958856e+00 -5.203341e+00 -4.206483e+00 -2.948220e+00 -1.421599e+00 3.440365e-01 2.272280e+00 4.238343e+00 6.014488e+00 7.214579e+00 7.128997e+00 7.514284e+00 2.447996e+00 -5.756395e+00 -4.593315e-01 -1.029181e+01 -1.107956e+01 7.460745e+00 5.501346e+00 1.070435e+00 2.416779e+00 3.791565e+00 2.975660e+00 4.312109e+00 3.747200e+00 4.070647e+00 4.630341e+00 2.912763e+00 2.528895e+00 1.467429e+00 7.795782e-01 5.567331e-01 4.913303e-01 4.768107e-01 4.748736e-01 4.716574e-01 4.621993e-01 4.452744e-01 4.208928e-01 3.898611e-01 3.530402e-01 3.115370e-01 2.662973e-01 2.183680e-01 1.685955e-01 1.178786e-01 6.691740e-02 1.644946e-02 -3.297284e-02 -8.075995e-02 -1.264907e-01 -1.697024e-01 
-2.469366e-01 -2.858556e-01 -3.212898e-01 -3.529323e-01 -3.806196e-01 -4.041266e-01 -4.233582e-01 -4.381699e-01 -4.485340e-01 -4.543907e-01 -4.557819e-01 -4.527367e-01 -4.453691e-01 -4.337978e-01 -4.182074e-01 -3.988000e-01 -3.758231e-01 -3.495492e-01 -3.202752e-01 -2.883249e-01 -2.540292e-01 -2.177441e-01 -1.798215e-01 -1.406364e-01 -1.005592e-01 -5.998421e-02 -1.931321e-02 2.102051e-02 6.054982e-02 9.876015e-02 1.350641e-01 1.688012e-01 1.991910e-01 2.253452e-01 2.462078e-01 2.605726e-01 2.670275e-01 2.639637e-01 2.495473e-01 2.217044e-01 1.781457e-01 1.163134e-01 3.348267e-02 -7.332892e-02 -2.071708e-01 -3.712568e-01 -5.686893e-01 -8.024972e-01 -1.075292e+00 -1.389162e+00 -1.745283e+00 -2.143616e+00 -2.582519e+00 -3.058306e+00 -3.564984e+00 -4.093938e+00 -4.634084e+00 -5.172153e+00 -5.693618e+00 -6.183956e+00 -6.630200e+00 -7.022654e+00 -7.355873e+00 -7.629097e+00 -7.845592e+00 -8.010872e+00 -8.131626e+00 -8.214050e+00 -8.264515e+00 -8.288492e+00 -8.290645e+00 -8.270650e+00 -8.220693e+00 -8.119486e+00 -7.932090e+00 -7.610595e+00 -7.100089e+00 -6.347716e+00 -5.302426e+00 -3.925196e+00 -2.186536e+00 -9.760702e-02 2.269602e+00 4.784059e+00 7.247097e+00 9.090630e+00 6.098439e+00 1.165478e+01 3.047518e+00 -2.071541e+00 -1.104627e+01 -7.128244e+00 3.269631e+00 5.132650e+00 2.754351e+00 3.999174e+00 5.588185e+00 5.090255e+00 5.786668e+00 3.441403e+00 4.535516e+00 2.109906e+00 3.284074e+00 -2.443327e+00 2.334666e+00 1.606013e+00 9.118941e-01 6.335535e-01 5.247118e-01 4.843825e-01 4.683868e-01 4.580872e-01 4.452108e-01 4.267321e-01 4.016186e-01 3.701475e-01 3.328897e-01 2.908222e-01 2.448266e-01 1.959405e-01 1.450112e-01 9.296443e-02 4.051782e-02 -1.155406e-02 -6.267864e-02 -1.122272e-01 -1.597592e-01 -2.047722e-01 