# vtk DataFile Version 2.0
Comment goes here
ASCII

DATASET STRUCTURED_POINTS
DIMENSIONS    128   128   1

ORIGIN    0.000   0.000   0.000
SPACING   0.0156250.015625   1.000

POINT_DATA   16384
SCALARS Omega double
LOOKUP_TABLE default

3.285104e-07 2.525002e-07 1.549140e-07 1.037979e-07 1.923041e-08 -2.198251e-08 -1.034530e-07 -1.420278e-07 -2.229935e-07 -2.597996e-07 -3.368251e-07 -3.676273e-07 -4.327602e-07 -4.498433e-07 -4.926249e-07 -4.870015e-07 -4.971734e-07 -4.615443e-07 -4.325685e-07 -3.651251e-07 -2.985505e-07 -2.076147e-07 -1.182213e-07 -2.760231e-08 5.086046e-08 9.603407e-08 1.048248e-07 3.216099e-08 -1.183326e-07 -4.140672e-07 -8.495164e-07 -1.511018e-06 -2.396975e-06 -3.607344e-06 -5.150853e-06 -7.133919e-06 -9.581807e-06 -1.259855e-05 -1.623086e-05 -2.057014e-05 -2.568654e-05 -3.164750e-05 -3.854384e-05 -4.640688e-05 -5.533836e-05 -6.532078e-05 -7.644833e-05 -8.864180e-05 -1.019597e-04 -1.162486e-04 -1.314946e-04 -1.474596e-04 -1.640154e-04 -1.808332e-04 -1.976306e-04 -2.139907e-04 -2.294482e-04 -2.435140e-04 -2.555337e-04 -2.649809e-04 -2.710379e-04 -2.731977e-04 -2.705440e-04 -2.626682e-04 -2.486602e-04 -2.283065e-04 -2.008403e-04 -1.663505e-04 -1.243711e-04 -7.539474e-05 -1.941513e-05 4.259602e-05 1.100541e-04 1.814906e-04 2.556682e-04 3.307012e-04 4.047638e-04 4.757638e-04 5.415265e-04 6.000954e-04 6.493610e-04 6.879085e-04 7.141957e-04 7.276958e-04 7.278671e-04 7.152511e-04 6.905287e-04 6.552840e-04 6.113499e-04 5.610948e-04 5.070681e-04 4.518637e-04 3.979544e-04 3.473885e-04 3.017341e-04 2.619142e-04 2.282241e-04 2.004047e-04 1.777067e-04 1.591214e-04 1.434913e-04 1.297368e-04 1.169798e-04 1.046277e-04 9.243897e-05 8.042660e-05 6.881967e-05 5.790317e-05 4.794819e-05 3.914067e-05 3.155613e-05 2.518576e-05 1.993610e-05 1.568856e-05 1.228774e-05 9.601002e-06 7.481897e-06 5.831140e-06 4.533413e-06 3.532432e-06 2.740149e-06 2.136980e-06 1.650984e-06 1.290168e-06 9.887813e-07 7.752745e-07 5.835664e-07 4.579414e-07 
4.385504e-03 3.179001e-03 2.164430e-03 1.316535e-03 6.179636e-04 4.901720e-05 -4.017063e-04 -7.496760e-04 -1.001796e-03 -1.170425e-03 -1.259269e-03 -1.278453e-03 -1.229625e-03 -1.121340e-03 -9.541877e-04 -7.356750e-04 -4.662351e-04 -1.527948e-04 2.035135e-04 5.958370e-04 1.021488e-03 1.473060e-03 1.945427e-03 2.429824e-03 2.917772e-03 3.398165e-03 3.858267e-03 4.283516e-03 4.656103e-03 4.956890e-03 5.162411e-03 5.248008e-03 5.184402e-03 4.940919e-03 4.482960e-03 3.774120e-03 2.775903e-03 1.447601e-03 -2.505562e-04 -2.360643e-03 -4.919641e-03 -7.966251e-03 -1.152907e-02 -1.563677e-02 -2.030254e-02 -2.553675e-02 -3.132922e-02 -3.766280e-02 -4.449614e-02 -5.177586e-02 -5.942321e-02 -6.734240e-02 -7.541461e-02 -8.350023e-02 -9.144304e-02 -9.906484e-02 -1.061810e-01 -1.125872e-01 -1.180852e-01 -1.224633e-01 -1.255280e-01 -1.270822e-01 -1.269561e-01 -1.249890e-01 -1.210522e-01 -1.150414e-01 -1.068851e-01 -9.655336e-02 -8.404988e-02 -6.943855e-02 -5.282069e-02 -3.437708e-02 -1.433280e-02 6.993692e-03 2.923428e-02 5.193090e-02 7.458290e-02 9.663418e-02 1.175168e-01 1.366767e-01 1.536011e-01 1.678764e-01 1.791845e-01 1.873694e-01 1.924025e-01 1.944375e-01 1.937689e-01 1.908725e-01 1.863729e-01 1.810518e-01 1.757804e-01 1.714548e-01 1.688529e-01 1.685447e-01 1.707582e-01 1.753891e-01 1.819674e-01 1.897683e-01 1.978470e-01 2.051660e-01 2.106504e-01 2.133127e-01 2.123786e-01 2.074559e-01 1.986664e-01 1.866425e-01 1.723544e-01 1.568587e-01 1.410792e-01 1.257123e-01 1.111984e-01 9.778276e-02 8.555598e-02 7.452650e-02 6.464343e-02 5.583756e-02 4.802330e-02 4.111789e-02 3.503600e-02 2.969932e-02 2.503117e-02 2.096185e-02 1.742522e-02 1.436129e-02 1.171501e-02 9.436299e-03 7.481107e-03 5.808786e-03 
8.613177e-03 6.202454e-03 4.175974e-03 2.482197e-03 1.087807e-03 -4.773014e-05 -9.456994e-04 -1.638317e-03 -2.137776e-03 -2.470205e-03 -2.641343e-03 -2.672952e-03 -2.566638e-03 -2.341069e-03 -1.995768e-03 -1.547282e-03 -9.949123e-04 -3.539417e-04 3.747850e-04 1.176302e-03 2.046458e-03 2.969400e-03 3.935856e-03 4.927505e-03 5.928091e-03 6.914854e-03 7.862715e-03 8.742213e-03 9.517799e-03 1.015101e-02 1.059464e-02 1.079926e-02 1.070570e-02 1.025245e-02 9.369404e-03 7.983411e-03 6.016284e-03 3.385990e-03 1.154570e-05 -4.192187e-03 -9.300803e-03 -1.539312e-02 -2.252804e-02 -3.076476e-02 -4.013127e-02 -5.065040e-02 -6.230315e-02 -7.505728e-02 -8.883076e-02 -1.035185e-01 -1.189626e-01 -1.349722e-01 -1.513080e-01 -1.676899e-01 -1.838024e-01 -1.992866e-01 -2.137688e-01 -2.268367e-01 -2.380883e-01 -2.470958e-01 -2.534670e-01 -2.568026e-01 -2.567588e-01 -2.530090e-01 -2.452924e-01 -2.333941e-01 -2.171676e-01 -1.965450e-01 -1.715282e-01 -1.422353e-01 -1.088610e-01 -7.175657e-02 -3.136511e-02 1.168333e-02 5.665120e-02 1.026186e-01 1.485660e-01 1.933615e-01 2.358308e-01 2.748339e-01 3.092974e-01 3.383633e-01 3.613581e-01 3.779526e-01 3.880722e-01 3.920153e-01 3.903655e-01 3.840713e-01 3.744037e-01 3.629743e-01 3.516180e-01 3.422514e-01 3.365536e-01 3.357637e-01 3.403697e-01 3.501474e-01 3.640905e-01 3.806690e-01 3.979037e-01 4.136349e-01 4.256089e-01 4.317152e-01 4.302411e-01 4.202725e-01 4.020547e-01 3.770240e-01 3.473731e-01 3.154235e-01 2.831273e-01 2.518891e-01 2.225485e-01 1.955392e-01 1.709923e-01 1.488875e-01 1.291007e-01 1.114801e-01 9.584881e-02 8.203769e-02 6.987572e-02 5.920492e-02 4.987251e-02 4.173791e-02 3.466946e-02 2.854600e-02 2.325814e-02 1.870463e-02 1.479821e-02 1.145660e-02 
1.252454e-02 8.914139e-03 5.878579e-03 3.342536e-03 1.254750e-03 -4.434071e-04 -1.785245e-03 -2.816815e-03 -3.557927e-03 -4.045468e-03 -4.289711e-03 -4.321016e-03 -4.143561e-03 -3.783145e-03 -3.240854e-03 -2.539434e-03 -1.679580e-03 -6.823227e-04 4.494763e-04 1.695034e-03 3.046758e-03 4.482251e-03 5.986514e-03 7.533111e-03 9.096840e-03 1.064420e-02 1.213698e-02 1.353116e-02 1.477293e-02 1.580421e-02 1.655369e-02 1.694621e-02 1.689228e-02 1.629793e-02 1.505683e-02 1.305680e-02 1.017876e-02 6.296443e-03 1.285793e-03 -4.984902e-03 -1.263241e-02 -2.177963e-02 -3.251900e-02 -4.494439e-02 -5.910221e-02 -7.503171e-02 -9.270849e-02 -1.120883e-01 -1.330510e-01 -1.554410e-01 -1.790221e-01 -2.035068e-01 -2.285333e-01 -2.536764e-01 -2.784558e-01 -3.023238e-01 -3.247095e-01 -3.449814e-01 -3.625243e-01 -3.766820e-01 -3.868531e-01 -3.924253e-01 -3.928703e-01 -3.876861e-01 -3.764693e-01 -3.588854e-01 -3.347004e-01 -3.037975e-01 -2.661600e-01 -2.219452e-01 -1.714209e-01 -1.150923e-01 -5.360211e-02 1.211407e-02 8.095326e-02 1.515113e-01 2.222235e-01 2.913171e-01 3.569506e-01 4.172992e-01 4.706534e-01 5.156181e-01 5.511111e-01 5.765817e-01 5.918870e-01 5.974556e-01 5.941391e-01 5.833568e-01 5.670429e-01 5.477421e-01 5.284479e-01 5.123772e-01 5.024039e-01 5.006529e-01 5.079515e-01 5.238969e-01 5.468036e-01 5.741512e-01 6.027433e-01 6.291434e-01 6.497263e-01 6.609780e-01 6.598593e-01 6.445739e-01 6.154547e-01 5.751777e-01 5.277834e-01 4.773352e-01 4.270117e-01 3.789116e-01 3.341541e-01 2.932281e-01 2.561952e-01 2.229348e-01 1.932055e-01 1.667519e-01 1.432944e-01 1.225744e-01 1.043322e-01 8.833097e-02 7.433947e-02 6.214734e-02 5.155495e-02 4.238109e-02 3.445962e-02 2.763956e-02 2.178831e-02 1.678375e-02 
1.594848e-02 1.114479e-02 7.107498e-03 3.734643e-03 9.610586e-04 -1.293188e-03 -3.069006e-03 -4.429934e-03 -5.398683e-03 -6.026981e-03 -6.324726e-03 -6.335295e-03 -6.060468e-03 -5.537754e-03 -4.764922e-03 -3.775445e-03 -2.566781e-03 -1.169958e-03 4.143698e-04 2.155832e-03 4.047057e-03 6.055964e-03 8.164799e-03 1.033657e-02 1.253929e-02 1.472698e-02 1.684956e-02 1.884727e-02 2.064838e-02 2.217441e-02 2.332926e-02 2.401140e-02 2.409933e-02 2.346582e-02 2.196560e-02 1.944618e-02 1.574392e-02 1.068614e-02 4.101246e-03 -4.192365e-03 -1.435780e-02 -2.656667e-02 -4.095048e-02 -5.764362e-02 -7.671639e-02 -9.823107e-02 -1.221625e-01 -1.484608e-01 -1.769704e-01 -2.074902e-01 -2.397047e-01 -2.732318e-01 -3.075814e-01 -3.421802e-01 -3.763723e-01 -4.094124e-01 -4.405166e-01 -4.688209e-01 -4.934783e-01 -5.135878e-01 -5.283210e-01 -5.368355e-01 -5.384039e-01 -5.323330e-01 -5.180646e-01 -4.951287e-01 -4.631908e-01 -4.220655e-01 -3.716989e-01 -3.122598e-01 -2.440622e-01 -1.677322e-01 -8.408510e-02 5.663894e-03 1.000499e-01 1.971770e-01 2.948815e-01 3.906846e-01 4.819479e-01 5.660453e-01 6.404593e-01 7.031462e-01 7.524826e-01 7.876493e-01 8.083861e-01 8.152334e-01 8.092768e-01 7.923500e-01 7.670508e-01 7.369709e-01 7.065892e-01 6.809389e-01 6.646263e-01 6.610865e-01 6.715765e-01 6.953835e-01 7.298697e-01 7.711887e-01 8.146391e-01 8.553367e-01 8.880689e-01 9.075007e-01 9.085231e-01 8.875611e-01 8.448200e-01 7.851898e-01 7.159031e-01 6.436348e-01 5.730231e-01 5.067065e-01 4.458022e-01 3.906009e-01 3.409198e-01 2.964326e-01 2.567304e-01 2.214282e-01 1.901377e-01 1.625062e-01 1.381870e-01 1.168615e-01 9.822201e-02 8.198460e-02 6.788308e-02 5.567258e-02 4.513196e-02 3.605732e-02 2.827307e-02 2.161448e-02 
1.871155e-02 1.272306e-02 7.688794e-03 3.485346e-03 2.970194e-05 -2.773690e-03 -4.977678e-03 -6.657246e-03 -7.842793e-03 -8.594633e-03 -8.927489e-03 -8.891439e-03 -8.491331e-03 -7.770186e-03 -6.727979e-03 -5.403002e-03 -3.794800e-03 -1.938964e-03 1.612006e-04 2.470528e-03 4.977702e-03 7.644958e-03 1.044846e-02 1.334372e-02 1.628955e-02 1.922949e-02 2.209995e-02 2.482632e-02 2.731787e-02 2.947538e-02 3.117717e-02 3.229368e-02 3.267050e-02 3.214411e-02 3.052886e-02 2.762751e-02 2.322945e-02 1.710977e-02 9.045542e-03 -1.201814e-03 -1.384711e-02 -2.911883e-02 -4.719440e-02 -6.825756e-02 -9.241031e-02 -1.197466e-01 -1.502481e-01 -1.838666e-01 -2.204169e-01 -2.596559e-01 -3.011911e-01 -3.445431e-01 -3.890902e-01 -4.341006e-01 -4.787323e-01 -5.220243e-01 -5.629624e-01 -6.004261e-01 -6.333151e-01 -6.604583e-01 -6.807785e-01 -6.931812e-01 -6.967203e-01 -6.904946e-01 -6.737740e-01 -6.459388e-01 -6.065339e-01 -5.552856e-01 -4.920725e-01 -4.170426e-01 -3.305108e-01 -2.331794e-01 -1.259841e-01 -1.038524e-02 1.118207e-01 2.382233e-01 3.660217e-01 4.919002e-01 6.122870e-01 7.235189e-01 8.220785e-01 9.050379e-01 9.701080e-01 1.016104e+00 1.042644e+00 1.050374e+00 1.040542e+00 1.015268e+00 9.776576e-01 9.324249e-01 8.860114e-01 8.461415e-01 8.201567e-01 8.135444e-01 8.281051e-01 8.624233e-01 9.124858e-01 9.724931e-01 1.035793e+00 1.096023e+00 1.146306e+00 1.179041e+00 1.185795e+00 1.158930e+00 1.097626e+00 1.011325e+00 9.133572e-01 8.144258e-01 7.206543e-01 6.346649e-01 5.569783e-01 4.872690e-01 4.248700e-01 3.691389e-01 3.194549e-01 2.752960e-01 2.361639e-01 2.016179e-01 1.712238e-01 1.445843e-01 1.213108e-01 1.010476e-01 8.345663e-02 6.823104e-02 5.508983e-02 4.377889e-02 3.407544e-02 2.577586e-02 
2.061326e-02 1.344942e-02 7.428913e-03 2.402212e-03 -1.724486e-03 -5.067749e-03 -7.684640e-03 -9.667862e-03 -1.104726e-02 -1.189886e-02 -1.223362e-02 -1.211609e-02 -1.154550e-02 -1.057848e-02 -9.208671e-03 -7.487211e-03 -5.407623e-03 -3.017601e-03 -3.157025e-04 2.651440e-03 5.875009e-03 9.306015e-03 1.291981e-02 1.666016e-02 2.048056e-02 2.431105e-02 2.807699e-02 3.168689e-02 3.503189e-02 3.799072e-02 4.041534e-02 4.214710e-02 4.299617e-02 4.276140e-02 4.121258e-02 3.810545e-02 3.317658e-02 2.614509e-02 1.672928e-02 4.627810e-03 -1.043464e-02 -2.875161e-02 -5.055625e-02 -7.609218e-02 -1.055032e-01 -1.389270e-01 -1.763615e-01 -2.177722e-01 -2.629502e-01 -3.116205e-01 -3.633135e-01 -4.174569e-01 -4.732883e-01 -5.299127e-01 -5.862822e-01 -6.412044e-01 -6.934057e-01 -7.414833e-01 -7.840497e-01 -8.196331e-01 -8.468759e-01 -8.644025e-01 -8.710250e-01 -8.656117e-01 -8.472460e-01 -8.151396e-01 -7.687036e-01 -7.075510e-01 -6.314663e-01 -5.405321e-01 -4.350115e-01 -3.156131e-01 -1.833188e-01 -3.975627e-02 1.129980e-01 2.720479e-01 4.338998e-01 5.943019e-01 7.485073e-01 8.915652e-01 1.018573e+00 1.125453e+00 1.208955e+00 1.267483e+00 1.300514e+00 1.308887e+00 1.293933e+00 1.257724e+00 1.203417e+00 1.136663e+00 1.066514e+00 1.004974e+00 9.639030e-01 9.523781e-01 9.726044e-01 1.021419e+00 1.093035e+00 1.178355e+00 1.268008e+00 1.354663e+00 1.430231e+00 1.484761e+00 1.504978e+00 1.473050e+00 1.383717e+00 1.257319e+00 1.119831e+00 9.878361e-01 8.679694e-01 7.613258e-01 6.667220e-01 5.826227e-01 5.076355e-01 4.407337e-01 3.810935e-01 3.280752e-01 2.810942e-01 2.396296e-01 2.031682e-01 1.712304e-01 1.433483e-01 1.190873e-01 9.803833e-02 7.982637e-02 6.411286e-02 5.058834e-02 3.898684e-02 2.906142e-02 
2.145378e-02 1.312519e-02 6.122737e-03 2.790574e-04 -4.516305e-03 -8.391895e-03 -1.141564e-02 -1.368837e-02 -1.524688e-02 -1.617294e-02 -1.648206e-02 -1.624318e-02 -1.545873e-02 -1.418907e-02 -1.243046e-02 -1.023747e-02 -7.606298e-03 -4.588036e-03 -1.184439e-03 2.554095e-03 6.614436e-03 1.094286e-02 1.550851e-02 2.024845e-02 2.510698e-02 3.000410e-02 3.485154e-02 3.954273e-02 4.394910e-02 4.792726e-02 5.130171e-02 5.388268e-02 5.544372e-02 5.574192e-02 5.450038e-02 5.142159e-02 4.618555e-02 3.844698e-02 2.785941e-02 1.404805e-02 -3.331565e-03 -2.465082e-02 -5.020992e-02 -8.032673e-02 -1.152002e-01 -1.550268e-01 -1.998340e-01 -2.496147e-01 -3.041475e-01 -3.631336e-01 -4.260315e-01 -4.921746e-01 -5.606545e-01 -6.303983e-01 -7.001338e-01 -7.684074e-01 -8.336550e-01 -8.941505e-01 -9.481814e-01 -9.939316e-01 -1.029727e+00 -1.053877e+00 -1.064926e+00 -1.061493e+00 -1.042458e+00 -1.006855e+00 -9.539483e-01 -8.832198e-01 -7.943266e-01 -6.872376e-01 -5.620913e-01 -4.195072e-01 -2.603976e-01 -8.644034e-02 1.001243e-01 2.959604e-01 4.968863e-01 6.975411e-01 8.917704e-01 1.072867e+00 1.234103e+00 1.369698e+00 1.475151e+00 1.548310e+00 1.588735e+00 1.597725e+00 1.576723e+00 1.527124e+00 1.450866e+00 1.353546e+00 1.247639e+00 1.152283e+00 1.087122e+00 1.068303e+00 1.097648e+00 1.166725e+00 1.269194e+00 1.389173e+00 1.512708e+00 1.633950e+00 1.745025e+00 1.834784e+00 1.886566e+00 1.854917e+00 1.717203e+00 1.524598e+00 1.330826e+00 1.158741e+00 1.011253e+00 8.845167e-01 7.739206e-01 6.761213e-01 5.889203e-01 5.109957e-01 4.414232e-01 3.795236e-01 3.246657e-01 2.762709e-01 2.337476e-01 1.965359e-01 1.640789e-01 1.358623e-01 1.113966e-01 9.023995e-02 7.198884e-02 5.628244e-02 4.280568e-02 3.127424e-02 
2.098590e-02 1.150226e-02 3.528718e-03 -3.126187e-03 -8.578999e-03 -1.297791e-02 -1.639014e-02 -1.893385e-02 -2.064044e-02 -2.160811e-02 -2.184398e-02 -2.143324e-02 -2.036843e-02 -1.872600e-02 -1.649205e-02 -1.373688e-02 -1.044715e-02 -6.688959e-03 -2.456112e-03 2.187018e-03 7.232722e-03 1.261413e-02 1.830220e-02 2.422092e-02 3.031148e-02 3.647941e-02 4.262685e-02 4.862931e-02 5.434038e-02 5.959277e-02 6.418314e-02 6.788919e-02 7.044507e-02 7.156429e-02 7.091807e-02 6.815248e-02 6.288327e-02 5.469529e-02 4.316716e-02 2.784200e-02 8.293624e-03 -1.593966e-02 -4.523984e-02 -8.001560e-02 -1.205371e-01 -1.670795e-01 -2.197158e-01 -2.784869e-01 -3.431716e-01 -4.134652e-01 -4.887580e-01 -5.682981e-01 -6.510209e-01 -7.356685e-01 -8.207152e-01 -9.044192e-01 -9.848784e-01 -1.059999e+00 -1.127685e+00 -1.185725e+00 -1.232077e+00 -1.264691e+00 -1.281814e+00 -1.281790e+00 -1.263294e+00 -1.225177e+00 -1.166557e+00 -1.086777e+00 -9.853503e-01 -8.620836e-01 -7.169111e-01 -5.502430e-01 -3.627586e-01 -1.559929e-01 6.784556e-02 3.051504e-01 5.511037e-01 7.991680e-01 1.041425e+00 1.268919e+00 1.472259e+00 1.643261e+00 1.775425e+00 1.866010e+00 1.914981e+00 1.925039e+00 1.898177e+00 1.834165e+00 1.730744e+00 1.590259e+00 1.429133e+00 1.279777e+00 1.174383e+00 1.146388e+00 1.193540e+00 1.289036e+00 1.438474e+00 1.606894e+00 1.770372e+00 1.934108e+00 2.092264e+00 2.234228e+00 2.363597e+00 2.355195e+00 2.118030e+00 1.805288e+00 1.532152e+00 1.316526e+00 1.144673e+00 1.001631e+00 8.775958e-01 7.674177e-01 6.685292e-01 5.796965e-01 5.001477e-01 4.292877e-01 3.664989e-01 3.111552e-01 2.625885e-01 2.201434e-01 1.831690e-01 1.510571e-01 1.232365e-01 9.918895e-02 7.844894e-02 6.059783e-02 4.527742e-02 3.216073e-02 
1.897402e-02 8.343672e-03 -6.021106e-04 -8.066990e-03 -1.418129e-02 -1.909981e-02 -2.289828e-02 -2.569831e-02 -2.753661e-02 -2.851341e-02 -2.863951e-02 -2.800175e-02 -2.659578e-02 -2.449987e-02 -2.170325e-02 -1.827831e-02 -1.421519e-02 -9.582344e-03 -4.377563e-03 1.332047e-03 7.533998e-03 1.415786e-02 2.116835e-02 2.848405e-02 3.603730e-02 4.372472e-02 5.143520e-02 5.902961e-02 6.634166e-02 7.318101e-02 7.931522e-02 8.448775e-02 8.839192e-02 9.069318e-02 9.100821e-02 8.891919e-02 8.397266e-02 7.567289e-02 6.351525e-02 4.694664e-02 2.544658e-02 -1.554706e-03 -3.453808e-02 -7.402421e-02 -1.203756e-01 -1.739696e-01 -2.349479e-01 -3.034223e-01 -3.791928e-01 -4.619656e-01 -5.510755e-01 -6.456882e-01 -7.445783e-01 -8.462834e-01 -9.489963e-01 -1.050640e+00 -1.148922e+00 -1.241312e+00 -1.325265e+00 -1.398100e+00 -1.457350e+00 -1.500554e+00 -1.525630e+00 -1.530636e+00 -1.514042e+00 -1.474533e+00 -1.411102e+00 -1.322969e+00 -1.209497e+00 -1.070289e+00 -9.049894e-01 -7.136378e-01 -4.964624e-01 -2.545604e-01 1.021644e-02 2.942833e-01 5.924067e-01 8.968044e-01 1.197511e+00 1.482473e+00 1.738611e+00 1.953887e+00 2.118809e+00 2.229605e+00 2.287703e+00 2.299303e+00 2.269048e+00 2.194161e+00 2.061793e+00 1.861240e+00 1.611933e+00 1.375223e+00 1.195857e+00 1.160427e+00 1.252731e+00 1.369009e+00 1.600334e+00 1.840913e+00 2.039353e+00 2.251609e+00 2.468117e+00 2.659334e+00 2.992707e+00 3.099319e+00 2.609737e+00 2.061135e+00 1.690407e+00 1.444178e+00 1.262093e+00 1.111456e+00 9.781207e-01 8.570608e-01 7.467539e-01 6.468378e-01 5.570543e-01 4.770362e-01 4.062075e-01 3.438896e-01 2.893096e-01 2.417000e-01 2.002912e-01 1.643739e-01 1.332804e-01 1.064169e-01 8.324705e-02 6.330029e-02 4.616885e-02 3.149187e-02 
1.510510e-02 3.331665e-03 -6.581918e-03 -1.485918e-02 -2.162942e-02 -2.706419e-02 -3.123146e-02 -3.426900e-02 -3.620146e-02 -3.714613e-02 -3.709937e-02 -3.616654e-02 -3.432801e-02 -3.168173e-02 -2.820202e-02 -2.398122e-02 -1.899584e-02 -1.333343e-02 -6.980127e-03 -2.048563e-05 7.541949e-03 1.562116e-02 2.418713e-02 3.314400e-02 4.242426e-02 5.190950e-02 6.148175e-02 7.098351e-02 8.023221e-02 8.901240e-02 9.706326e-02 1.040925e-01 1.097505e-01 1.136524e-01 1.153550e-01 1.143727e-01 1.101741e-01 1.021756e-01 8.977711e-02 7.231751e-02 4.916568e-02 1.962627e-02 -1.690098e-02 -6.107294e-02 -1.133687e-01 -1.742984e-01 -2.440986e-01 -3.229868e-01 -4.108078e-01 -5.073114e-01 -6.117898e-01 -7.233467e-01 -8.405866e-01 -9.618373e-01 -1.084967e+00 -1.207522e+00 -1.326740e+00 -1.439576e+00 -1.542937e+00 -1.633584e+00 -1.708534e+00 -1.764851e+00 -1.800082e+00 -1.811988e+00 -1.798854e+00 -1.759239e+00 -1.692068e+00 -1.596494e+00 -1.471764e+00 -1.317278e+00 -1.132315e+00 -9.163860e-01 -6.689789e-01 -3.903579e-01 -8.149942e-02 2.545801e-01 6.127061e-01 9.840981e-01 1.356476e+00 1.713871e+00 2.037744e+00 2.310131e+00 2.516054e+00 2.649864e+00 2.715512e+00 2.727690e+00 2.699846e+00 2.628758e+00 2.478509e+00 2.197742e+00 1.797223e+00 1.426183e+00 1.085697e+00 1.059625e+00 1.301089e+00 1.346136e+00 1.765218e+00 2.129041e+00 2.306495e+00 2.576988e+00 2.881980e+00 2.955927e+00 3.863691e+00 4.457367e+00 3.179626e+00 2.156614e+00 1.741133e+00 1.523457e+00 1.362634e+00 1.217138e+00 1.078258e+00 9.465687e-01 8.240884e-01 7.122742e-01 6.116736e-01 5.221665e-01 4.431699e-01 3.738810e-01 3.133724e-01 2.607185e-01 2.150098e-01 1.754139e-01 1.411628e-01 1.115770e-01 8.605413e-02 6.406600e-02 4.516446e-02 2.894991e-02 
9.101615e-03 -3.817840e-03 -1.471534e-02 -2.381791e-02 -3.126336e-02 -3.722209e-02 -4.176642e-02 -4.503119e-02 -4.704354e-02 -4.791797e-02 -4.765318e-02 -4.635293e-02 -4.400073e-02 -4.069440e-02 -3.641251e-02 -3.124845e-02 -2.518385e-02 -1.830791e-02 -1.061237e-02 -2.183572e-03 6.969124e-03 1.675764e-02 2.714564e-02 3.803396e-02 4.934709e-02 6.096011e-02 7.274322e-02 8.452632e-02 9.610801e-02 1.072505e-01 1.176635e-01 1.270185e-01 1.349215e-01 1.409339e-01 1.445497e-01 1.452077e-01 1.422927e-01 1.351216e-01 1.229876e-01 1.051049e-01 8.071467e-02 4.897309e-02 9.136276e-03 -3.961834e-02 -9.791834e-02 -1.664421e-01 -2.455589e-01 -3.356304e-01 -4.365845e-01 -5.482486e-01 -6.699003e-01 -8.005968e-01 -9.387749e-01 -1.082531e+00 -1.229369e+00 -1.376385e+00 -1.520260e+00 -1.657312e+00 -1.783785e+00 -1.895744e+00 -1.989594e+00 -2.061833e+00 -2.109608e+00 -2.130380e+00 -2.122301e+00 -2.083887e+00 -2.014100e+00 -1.912132e+00 -1.777213e+00 -1.608574e+00 -1.405108e+00 -1.165605e+00 -8.884971e-01 -5.726293e-01 -2.173728e-01 1.757358e-01 6.024748e-01 1.053652e+00 1.514780e+00 1.964872e+00 2.377773e+00 2.725701e+00 2.984013e+00 3.141761e+00 3.206723e+00 3.210875e+00 3.193427e+00 3.164890e+00 3.049649e+00 2.675861e+00 1.972333e+00 1.461972e+00 6.725150e-01 7.177595e-01 1.560149e+00 1.381880e+00 1.192902e+00 2.136122e+00 2.014000e+00 1.667457e+00 1.702526e+00 1.267630e+00 2.366431e+00 2.821785e+00 2.028396e+00 1.666630e+00 1.614466e+00 1.564264e+00 1.464488e+00 1.331031e+00 1.184443e+00 1.038620e+00 9.011988e-01 7.757300e-01 6.633520e-01 5.639338e-01 4.766686e-01 4.004913e-01 3.342213e-01 2.767247e-01 2.269134e-01 1.838205e-01 1.465627e-01 1.143785e-01 8.659341e-02 6.263119e-02 4.199865e-02 2.427032e-02 
5.625395e-04 -1.351766e-02 -2.541297e-02 -3.536282e-02 -4.349357e-02 -4.998736e-02 -5.489890e-02 -5.837702e-02 -6.042774e-02 -6.118343e-02 -6.062036e-02 -5.886425e-02 -5.587666e-02 -5.178050e-02 -4.653400e-02 -4.025684e-02 -3.291260e-02 -2.461575e-02 -1.534250e-02 -5.201623e-03 5.810311e-03 1.758652e-02 3.010007e-02 4.323626e-02 5.692429e-02 7.102474e-02 8.540549e-02 9.987936e-02 1.142325e-01 1.282026e-01 1.414729e-01 1.536776e-01 1.643779e-01 1.730794e-01 1.792090e-01 1.821261e-01 1.811227e-01 1.754078e-01 1.641546e-01 1.464379e-01 1.213516e-01 8.788039e-02 4.510989e-02 -7.981619e-03 -7.220517e-02 -1.484529e-01 -2.372688e-01 -3.392147e-01 -4.543459e-01 -5.826260e-01 -7.233527e-01 -8.755806e-01 -1.037581e+00 -1.207223e+00 -1.381588e+00 -1.557258e+00 -1.730224e+00 -1.896032e+00 -2.050074e+00 -2.187553e+00 -2.304095e+00 -2.395519e+00 -2.458512e+00 -2.490248e+00 -2.488831e+00 -2.452863e+00 -2.381528e+00 -2.274247e+00 -2.130423e+00 -1.949273e+00 -1.729353e+00 -1.468655e+00 -1.164193e+00 -8.127593e-01 -4.110539e-01 4.221333e-02 5.453837e-01 1.090300e+00 1.661125e+00 2.231374e+00 2.764462e+00 3.217307e+00 3.546863e+00 3.728612e+00 3.770327e+00 3.734542e+00 3.723453e+00 3.817765e+00 3.911420e+00 3.515890e+00 1.977269e+00 1.854720e+00 2.555955e+00 1.411459e+00 -4.144844e-01 4.241232e-01 9.607298e-02 -1.377037e+00 -1.818150e+00 -2.595783e+00 -2.932442e+00 -3.172113e+00 -3.284934e+00 -3.278482e+00 -1.210546e+00 8.189923e-01 1.509283e+00 1.675262e+00 1.618146e+00 1.473979e+00 1.303913e+00 1.134673e+00 9.773393e-01 8.357846e-01 7.106164e-01 6.010228e-01 5.056010e-01 4.228104e-01 3.511089e-01 2.890912e-01 2.354670e-01 1.891179e-01 1.490484e-01 1.144114e-01 8.447106e-02 5.860213e-02 3.628069e-02 1.705275e-02 
-1.083374e-02 -2.610552e-02 -3.904606e-02 -4.988554e-02 -5.875028e-02 -6.581036e-02 -7.111838e-02 -7.481154e-02 -7.689421e-02 -7.748976e-02 -7.657509e-02 -7.427064e-02 -7.054176e-02 -6.550963e-02 -5.913928e-02 -5.155117e-02 -4.271758e-02 -3.275470e-02 -2.164786e-02 -9.507063e-03 3.662868e-03 1.775497e-02 3.273539e-02 4.848953e-02 6.494001e-02 8.194551e-02 9.936510e-02 1.170039e-01 1.346327e-01 1.519710e-01 1.686746e-01 1.843429e-01 1.984920e-01 2.105701e-01 2.199350e-01 2.258602e-01 2.275393e-01 2.240614e-01 2.144677e-01 1.976746e-01 1.726082e-01 1.380539e-01 9.289475e-02 3.587083e-02 -3.405811e-02 -1.180499e-01 -2.168828e-01 -3.313824e-01 -4.617994e-01 -6.083000e-01 -7.702626e-01 -9.467861e-01 -1.136002e+00 -1.335538e+00 -1.542009e+00 -1.751366e+00 -1.958766e+00 -2.158756e+00 -2.345656e+00 -2.513541e+00 -2.657064e+00 -2.771194e+00 -2.852120e+00 -2.896760e+00 -2.903313e+00 -2.870689e+00 -2.798549e+00 -2.686846e+00 -2.535469e+00 -2.343895e+00 -2.110590e+00 -1.832732e+00 -1.505692e+00 -1.123358e+00 -6.784647e-01 -1.648032e-01 4.209921e-01 1.074496e+00 1.780781e+00 2.508413e+00 3.208066e+00 3.813440e+00 4.248816e+00 4.455904e+00 4.425121e+00 4.256428e+00 4.180632e+00 4.511777e+00 5.314985e+00 5.636695e+00 -2.055310e-01 -4.838708e+00 -2.406491e+00 -1.296840e+00 -2.132241e+00 -4.525752e+00 -4.708713e+00 -4.983022e+00 -5.063976e+00 -4.630778e+00 -4.729331e+00 -4.097143e+00 -5.203840e+00 -4.677988e+00 -1.593244e+00 1.195290e+00 1.958635e+00 2.034021e+00 1.879180e+00 1.660266e+00 1.437664e+00 1.232076e+00 1.049352e+00 8.897004e-01 7.513049e-01 6.317914e-01 5.287274e-01 4.399022e-01 3.633148e-01 2.972553e-01 2.402141e-01 1.909268e-01 1.482865e-01 1.113753e-01 7.939832e-02 5.169820e-02 2.772010e-02 6.999649e-03 
-2.560373e-02 -4.212139e-02 -5.615916e-02 -6.794806e-02 -7.758821e-02 -8.525383e-02 -9.096626e-02 -9.487343e-02 -9.694639e-02 -9.732757e-02 -9.596123e-02 -9.299512e-02 -8.836465e-02 -8.222454e-02 -7.451374e-02 -6.538892e-02 -5.480025e-02 -4.289872e-02 -2.965088e-02 -1.519656e-02 4.756530e-04 1.723595e-02 3.506442e-02 5.383040e-02 7.346719e-02 9.382156e-02 1.147574e-01 1.360673e-01 1.575170e-01 1.788060e-01 1.995695e-01 2.193723e-01 2.376880e-01 2.539071e-01 2.673166e-01 2.771013e-01 2.823492e-01 2.820220e-01 2.750152e-01 2.600715e-01 2.359270e-01 2.011411e-01 1.543608e-01 9.404512e-02 1.887627e-02 -7.263306e-02 -1.815617e-01 -3.090855e-01 -4.557326e-01 -6.219742e-01 -8.073513e-01 -1.011101e+00 -1.231256e+00 -1.465241e+00 -1.709139e+00 -1.958181e+00 -2.206466e+00 -2.447286e+00 -2.673526e+00 -2.877786e+00 -3.053403e+00 -3.194267e+00 -3.295974e+00 -3.355252e+00 -3.370620e+00 -3.341603e+00 -3.268745e+00 -3.152954e+00 -2.995067e+00 -2.795329e+00 -2.552557e+00 -2.263486e+00 -1.921772e+00 -1.517806e+00 -1.038732e+00 -4.708699e-01 1.979899e-01 9.716373e-01 1.841071e+00 2.773587e+00 3.707707e+00 4.546254e+00 5.159909e+00 5.416851e+00 5.235185e+00 4.713803e+00 4.270761e+00 4.778827e+00 7.491496e+00 4.188075e-01 -4.889656e+00 -2.692018e+00 -3.324065e+00 -8.413302e+00 -7.012101e+00 -3.586929e+00 -3.537729e+00 -1.506262e+00 -7.435010e-01 2.491802e-01 2.118522e-01 1.141593e+00 6.361711e-01 1.622856e+00 2.975907e+00 3.570865e+00 3.129636e+00 2.648868e+00 2.225078e+00 1.868008e+00 1.569743e+00 1.320068e+00 1.110124e+00 9.327551e-01 7.822414e-01 6.540553e-01 5.445094e-01 4.506442e-01 3.699899e-01 3.005395e-01 2.405881e-01 1.887422e-01 1.438088e-01 1.048115e-01 7.091907e-02 4.144865e-02 1.583554e-02 -6.393938e-03 
-4.411126e-02 -6.196073e-02 -7.720022e-02 -9.003386e-02 -1.005491e-01 -1.088933e-01 -1.150761e-01 -1.192222e-01 -1.212952e-01 -1.214206e-01 -1.195415e-01 -1.157963e-01 -1.101263e-01 -1.026841e-01 -9.342068e-02 -8.249502e-02 -6.987324e-02 -5.570984e-02 -3.998777e-02 -2.284850e-02 -4.294239e-03 1.554724e-02 3.664703e-02 5.887990e-02 8.217442e-02 1.063835e-01 1.313677e-01 1.569213e-01 1.828024e-01 2.087015e-01 2.342341e-01 2.589373e-01 2.822440e-01 3.034897e-01 3.218909e-01 3.365411e-01 3.464187e-01 3.503490e-01 3.470701e-01 3.351337e-01 3.130627e-01 2.791607e-01 2.317995e-01 1.691093e-01 8.943318e-02 -9.117996e-03 -1.280129e-01 -2.688800e-01 -4.326405e-01 -6.201975e-01 -8.313800e-01 -1.065683e+00 -1.321128e+00 -1.594976e+00 -1.882737e+00 -2.178780e+00 -2.475884e+00 -2.765679e+00 -3.039152e+00 -3.286860e+00 -3.500398e+00 -3.672212e+00 -3.797250e+00 -3.872175e+00 -3.896179e+00 -3.869883e+00 -3.795211e+00 -3.674586e+00 -3.510424e+00 -3.304450e+00 -3.056762e+00 -2.764391e+00 -2.419863e+00 -2.009526e+00 -1.513376e+00 -9.066678e-01 -1.633805e-01 7.355335e-01 1.795196e+00 2.990684e+00 4.255364e+00 5.460279e+00 6.400132e+00 6.808806e+00 6.408017e+00 5.128774e+00 3.436572e+00 3.114575e+00 -3.980051e+00 -9.237962e+00 -3.270049e+00 -8.750863e+00 -9.981495e+00 -2.488019e-01 1.286407e+00 2.024641e+00 3.500870e+00 5.112286e+00 4.501789e+00 5.374501e+00 5.227952e+00 5.331762e+00 5.688809e+00 5.973320e+00 8.366483e+00 6.493901e+00 4.368701e+00 3.231090e+00 2.524702e+00 2.034738e+00 1.668687e+00 1.381916e+00 1.150288e+00 9.594652e-01 8.000836e-01 6.657036e-01 5.515657e-01 4.541017e-01 3.704744e-01 2.984585e-01 2.362091e-01 1.822510e-01 1.353350e-01 9.445777e-02 5.876720e-02 2.758000e-02 3.274046e-04 -2.345015e-02 
-6.702476e-02 -8.633279e-02 -1.028941e-01 -1.168974e-01 -1.283840e-01 -1.374942e-01 -1.441882e-01 -1.485965e-01 -1.506330e-01 -1.504444e-01 -1.479279e-01 -1.432580e-01 -1.363367e-01 -1.273635e-01 -1.162581e-01 -1.032315e-01 -8.822530e-02 -7.144384e-02 -5.285023e-02 -3.262712e-02 -1.075881e-02 1.259839e-02 3.743341e-02 6.360557e-02 9.106124e-02 1.196477e-01 1.492405e-01 1.796318e-01 2.105865e-01 2.417872e-01 2.728410e-01 3.032604e-01 3.324456e-01 3.596802e-01 3.841133e-01 4.047476e-01 4.204498e-01 4.299034e-01 4.316800e-01 4.241259e-01 4.055310e-01 3.739152e-01 3.273384e-01 2.635522e-01 1.804993e-01 7.580536e-02 -5.248617e-02 -2.065843e-01 -3.879467e-01 -5.980846e-01 -8.372915e-01 -1.105518e+00 -1.400926e+00 -1.720739e+00 -2.059892e+00 -2.411779e+00 -2.767518e+00 -3.116573e+00 -3.447296e+00 -3.747413e+00 -4.005992e+00 -4.213514e+00 -4.364116e+00 -4.454653e+00 -4.485593e+00 -4.459350e+00 -4.379980e+00 -4.252054e+00 -4.080290e+00 -3.868861e+00 -3.620405e+00 -3.333908e+00 -3.002103e+00 -2.607899e+00 -2.122796e+00 -1.507552e+00 -7.159123e-01 2.953874e-01 1.558673e+00 3.073226e+00 4.789065e+00 6.562661e+00 8.116290e+00 8.983187e+00 8.500527e+00 6.007248e+00 1.246611e+00 -1.809026e+00 -5.286676e+00 -4.829453e+00 -1.220794e+01 -8.516096e+00 1.368555e+00 5.609390e+00 6.093087e+00 7.278822e+00 7.499050e+00 6.465760e+00 6.682474e+00 5.227612e+00 5.462613e+00 4.237945e+00 4.675373e+00 4.199271e+00 8.547858e+00 6.846624e+00 4.641020e+00 3.403574e+00 2.627205e+00 2.094557e+00 1.703348e+00 1.401826e+00 1.161345e+00 9.650025e-01 8.019550e-01 6.649353e-01 5.487082e-01 4.494376e-01 3.641335e-01 2.904858e-01 2.266055e-01 1.709958e-01 1.224027e-01 7.982614e-02 4.242615e-02 9.533484e-03 -1.939773e-02 -4.480822e-02 