# vtk DataFile Version 2.0
Comment goes here
ASCII

DATASET STRUCTURED_POINTS
DIMENSIONS    128   128   1

ORIGIN    0.000   0.000   0.000
SPACING   0.0156250.015625   1.000

POINT_DATA   16384
SCALARS Omega double
LOOKUP_TABLE default

4.285458e-07 -7.625764e-08 -3.499809e-07 -4.576897e-07 -4.736606e-07 -4.526687e-07 -4.596391e-07 -5.393129e-07 -7.461714e-07 -1.115989e-06 -1.693343e-06 -2.506976e-06 -3.593509e-06 -4.977357e-06 -6.690136e-06 -8.755158e-06 -1.120246e-05 -1.405760e-05 -1.735235e-05 -2.111746e-05 -2.538911e-05 -3.020538e-05 -3.560825e-05 -4.164430e-05 -4.836117e-05 -5.581411e-05 -6.405448e-05 -7.314620e-05 -8.314041e-05 -9.411055e-05 -1.061017e-04 -1.192000e-04 -1.334366e-04 -1.489172e-04 -1.656496e-04 -1.837706e-04 -2.032532e-04 -2.242813e-04 -2.467807e-04 -2.710005e-04 -2.968065e-04 -3.245286e-04 -3.539608e-04 -3.855210e-04 -4.189224e-04 -4.546609e-04 -4.923648e-04 -5.325749e-04 -5.748373e-04 -6.196767e-04 -6.665688e-04 -7.159361e-04 -7.672026e-04 -8.205879e-04 -8.754878e-04 -9.318202e-04 -9.889753e-04 -1.046493e-03 -1.103774e-03 -1.159948e-03 -1.214431e-03 -1.265970e-03 -1.313992e-03 -1.356955e-03 -1.394296e-03 -1.424339e-03 -1.446549e-03 -1.459320e-03 -1.462186e-03 -1.453844e-03 -1.433967e-03 -1.401774e-03 -1.357148e-03 -1.300000e-03 -1.230475e-03 -1.149228e-03 -1.056690e-03 -9.541799e-04 -8.424216e-04 -7.232273e-04 -5.976630e-04 -4.678763e-04 -3.354143e-04 -2.026994e-04 -7.193064e-05 5.424074e-05 1.730032e-04 2.817753e-04 3.776922e-04 4.589549e-04 5.236698e-04 5.715584e-04 6.024703e-04 6.176860e-04 6.186567e-04 6.075944e-04 5.868160e-04 5.587255e-04 5.256464e-04 4.895000e-04 4.519501e-04 4.141424e-04 3.769743e-04 3.409746e-04 3.066008e-04 2.740552e-04 2.436655e-04 2.154154e-04 1.895362e-04 1.658236e-04 1.443885e-04 1.249363e-04 1.074973e-04 9.178552e-05 7.779794e-05 6.530092e-05 5.427853e-05 4.455005e-05 3.608785e-05 2.874930e-05 2.249185e-05 1.719670e-05 1.280548e-05 9.214184e-06 6.351142e-06 4.122816e-06 2.448984e-06 1.245292e-06 
1.423688e-02 1.297150e-02 1.181215e-02 1.073015e-02 9.707118e-03 8.725594e-03 7.777917e-03 6.854405e-03 5.954820e-03 5.074685e-03 4.218367e-03 3.384524e-03 2.579623e-03 1.803660e-03 1.062920e-03 3.570586e-04 -3.099048e-04 -9.402994e-04 -1.534301e-03 -2.097867e-03 -2.637182e-03 -3.163495e-03 -3.690734e-03 -4.237094e-03 -4.825943e-03 -5.483999e-03 -6.245700e-03 -7.147664e-03 -8.236858e-03 -9.560788e-03 -1.118001e-02 -1.315324e-02 -1.555493e-02 -1.845435e-02 -2.193887e-02 -2.608630e-02 -3.099422e-02 -3.674513e-02 -4.344182e-02 -5.116552e-02 -6.001656e-02 -7.006665e-02 -8.140321e-02 -9.407791e-02 -1.081524e-01 -1.236461e-01 -1.405806e-01 -1.589299e-01 -1.786615e-01 -1.996918e-01 -2.219225e-01 -2.452035e-01 -2.693635e-01 -2.941830e-01 -3.194177e-01 -3.447832e-01 -3.699704e-01 -3.946427e-01 -4.184410e-01 -4.409962e-01 -4.619179e-01 -4.808271e-01 -4.973194e-01 -5.110276e-01 -5.215478e-01 -5.285432e-01 -5.316234e-01 -5.305016e-01 -5.248193e-01 -5.143687e-01 -4.988580e-01 -4.782007e-01 -4.522294e-01 -4.210326e-01 -3.846406e-01 -3.433630e-01 -2.974959e-01 -2.475869e-01 -1.942350e-01 -1.382074e-01 -8.040553e-02 -2.178803e-02 3.647186e-02 9.324290e-02 1.471631e-01 1.970203e-01 2.415210e-01 2.797314e-01 3.109839e-01 3.352743e-01 3.531659e-01 3.659274e-01 3.751617e-01 3.825745e-01 3.894971e-01 3.967338e-01 4.044501e-01 4.122240e-01 4.191161e-01 4.238313e-01 4.249007e-01 4.208624e-01 4.105585e-01 3.933697e-01 3.695178e-01 3.401176e-01 3.069672e-01 2.721710e-01 2.376575e-01 2.049682e-01 1.750961e-01 1.485681e-01 1.255198e-01 1.058278e-01 8.921888e-02 7.533732e-02 6.381820e-02 5.429969e-02 4.646090e-02 4.001078e-02 3.470501e-02 3.033119e-02 2.671470e-02 2.370738e-02 2.118832e-02 1.905653e-02 1.723020e-02 1.564153e-02 
2.868535e-02 2.619293e-02 2.390335e-02 2.176126e-02 1.972980e-02 1.777627e-02 1.588454e-02 1.403775e-02 1.223409e-02 1.046737e-02 8.744640e-03 7.066140e-03 5.442973e-03 3.878083e-03 2.382203e-03 9.575275e-04 -3.896375e-04 -1.661221e-03 -2.859113e-03 -3.992725e-03 -5.075713e-03 -6.128322e-03 -7.179445e-03 -8.263472e-03 -9.427956e-03 -1.072457e-02 -1.222287e-02 -1.399456e-02 -1.613422e-02 -1.873557e-02 -2.192046e-02 -2.580533e-02 -3.054002e-02 -3.626246e-02 -4.314873e-02 -5.135423e-02 -6.107598e-02 -7.247936e-02 -8.577233e-02 -1.011184e-01 -1.187213e-01 -1.387263e-01 -1.613115e-01 -1.865831e-01 -2.146681e-01 -2.456085e-01 -2.794513e-01 -3.161481e-01 -3.556371e-01 -3.977547e-01 -4.423060e-01 -4.889938e-01 -5.374757e-01 -5.873139e-01 -6.380177e-01 -6.890181e-01 -7.396921e-01 -7.893651e-01 -8.373128e-01 -8.827952e-01 -9.250248e-01 -9.632424e-01 -9.966345e-01 -1.024466e+00 -1.045925e+00 -1.060338e+00 -1.066919e+00 -1.065093e+00 -1.054133e+00 -1.033614e+00 -1.002938e+00 -9.619141e-01 -9.101898e-01 -8.479172e-01 -7.751429e-01 -6.924602e-01 -6.004602e-01 -5.002130e-01 -3.929326e-01 -2.801265e-01 -1.636236e-01 -4.531469e-02 7.241899e-02 1.873100e-01 2.965668e-01 3.976621e-01 4.878793e-01 5.651319e-01 6.279575e-01 6.761885e-01 7.110413e-01 7.352420e-01 7.523798e-01 7.662346e-01 7.796674e-01 7.943461e-01 8.105372e-01 8.272892e-01 8.425444e-01 8.535270e-01 8.570799e-01 8.500342e-01 8.297962e-01 7.949042e-01 7.457589e-01 6.848410e-01 6.161888e-01 5.444546e-01 4.737700e-01 4.073084e-01 3.470073e-01 2.938002e-01 2.478309e-01 2.087356e-01 1.758862e-01 1.485109e-01 1.258486e-01 1.071544e-01 9.178146e-02 7.914381e-02 6.875729e-02 6.019874e-02 5.312502e-02 4.724253e-02 4.231453e-02 3.814145e-02 3.456322e-02 3.144626e-02 
4.351247e-02 3.987500e-02 3.652106e-02 3.336865e-02 3.036679e-02 2.746585e-02 2.464620e-02 2.188084e-02 1.917195e-02 1.650782e-02 1.390421e-02 1.135874e-02 8.893308e-03 6.509644e-03 4.228962e-03 2.052157e-03 -6.470294e-06 -1.951754e-03 -3.782078e-03 -5.512944e-03 -7.160830e-03 -8.756932e-03 -1.034102e-02 -1.196505e-02 -1.369718e-02 -1.561501e-02 -1.782010e-02 -2.042004e-02 -2.355439e-02 -2.736399e-02 -3.202992e-02 -3.772769e-02 -4.468120e-02 -5.309910e-02 -6.324586e-02 -7.535760e-02 -8.973176e-02 -1.066209e-01 -1.263408e-01 -1.491429e-01 -1.753387e-01 -2.051535e-01 -2.388631e-01 -2.766349e-01 -3.186696e-01 -3.650388e-01 -4.158241e-01 -4.709601e-01 -5.303647e-01 -5.937974e-01 -6.609739e-01 -7.314491e-01 -8.047133e-01 -8.801049e-01 -9.568872e-01 -1.034196e+00 -1.111091e+00 -1.186545e+00 -1.259465e+00 -1.328724e+00 -1.393135e+00 -1.451543e+00 -1.502725e+00 -1.545567e+00 -1.578851e+00 -1.601554e+00 -1.612496e+00 -1.610791e+00 -1.595339e+00 -1.565464e+00 -1.520239e+00 -1.459328e+00 -1.382150e+00 -1.288890e+00 -1.179557e+00 -1.055020e+00 -9.161171e-01 -7.644684e-01 -6.018564e-01 -4.305782e-01 -2.533414e-01 -7.301183e-02 1.068501e-01 2.827812e-01 4.504669e-01 6.058854e-01 7.445452e-01 8.628665e-01 9.580902e-01 1.029703e+00 1.079519e+00 1.112291e+00 1.134420e+00 1.152656e+00 1.171827e+00 1.194436e+00 1.220757e+00 1.249056e+00 1.275765e+00 1.296286e+00 1.305326e+00 1.297527e+00 1.268227e+00 1.214539e+00 1.136873e+00 1.039659e+00 9.302842e-01 8.169729e-01 7.066428e-01 6.042237e-01 5.124281e-01 4.323088e-01 3.637245e-01 3.058393e-01 2.574951e-01 2.174024e-01 1.843338e-01 1.571364e-01 1.348188e-01 1.165058e-01 1.014729e-01 8.909933e-02 7.887767e-02 7.038088e-02 6.326090e-02 5.722824e-02 5.204851e-02 4.752762e-02 
5.902333e-02 5.434947e-02 5.001363e-02 4.591294e-02 4.198144e-02 3.815913e-02 3.441994e-02 3.073423e-02 2.710375e-02 2.351959e-02 2.000081e-02 1.655129e-02 1.319788e-02 9.950102e-03 6.833838e-03 3.857453e-03 1.037805e-03 -1.624594e-03 -4.129426e-03 -6.490754e-03 -8.731901e-03 -1.088830e-02 -1.301383e-02 -1.517209e-02 -1.745441e-02 -1.995915e-02 -2.282196e-02 -2.618193e-02 -3.022547e-02 -3.513700e-02 -4.115886e-02 -4.852300e-02 -5.753006e-02 -6.845798e-02 -8.166326e-02 -9.746284e-02 -1.162596e-01 -1.383953e-01 -1.643003e-01 -1.943181e-01 -2.288764e-01 -2.682877e-01 -3.129349e-01 -3.630564e-01 -4.189374e-01 -4.806907e-01 -5.484431e-01 -6.221257e-01 -7.016445e-01 -7.866950e-01 -8.769084e-01 -9.717018e-01 -1.070397e+00 -1.172113e+00 -1.275858e+00 -1.380471e+00 -1.484678e+00 -1.587091e+00 -1.686224e+00 -1.780553e+00 -1.868468e+00 -1.948409e+00 -2.018728e+00 -2.077922e+00 -2.124360e+00 -2.156665e+00 -2.173251e+00 -2.172915e+00 -2.154158e+00 -2.116029e+00 -2.057226e+00 -1.977215e+00 -1.875130e+00 -1.751106e+00 -1.605073e+00 -1.438099e+00 -1.251263e+00 -1.046672e+00 -8.267368e-01 -5.944677e-01 -3.535378e-01 -1.076776e-01 1.382954e-01 3.797895e-01 6.108099e-01 8.255816e-01 1.017389e+00 1.180337e+00 1.309711e+00 1.403814e+00 1.465135e+00 1.501154e+00 1.522897e+00 1.541939e+00 1.565665e+00 1.597087e+00 1.636324e+00 1.680456e+00 1.723702e+00 1.759176e+00 1.778819e+00 1.774383e+00 1.737973e+00 1.663961e+00 1.552114e+00 1.410035e+00 1.250826e+00 1.088280e+00 9.329749e-01 7.915796e-01 6.671052e-01 5.601306e-01 4.697296e-01 3.942105e-01 3.316523e-01 2.800934e-01 2.377748e-01 2.030953e-01 1.747203e-01 1.514849e-01 1.324439e-01 1.167880e-01 1.038654e-01 9.312445e-02 8.412099e-02 7.648259e-02 6.991056e-02 6.415596e-02 
7.538796e-02 6.983176e-02 6.463776e-02 5.968154e-02 5.489087e-02 5.019134e-02 4.556053e-02 4.095965e-02 3.640138e-02 3.187157e-02 2.740485e-02 2.300258e-02 1.870921e-02 1.453331e-02 1.051788e-02 6.670728e-03 3.023004e-03 -4.262866e-04 -3.667451e-03 -6.718511e-03 -9.600193e-03 -1.235607e-02 -1.504590e-02 -1.774753e-02 -2.056834e-02 -2.362910e-02 -2.709342e-02 -3.113306e-02 -3.597617e-02 -4.185202e-02 -4.906024e-02 -5.789132e-02 -6.872010e-02 -8.189735e-02 -9.787120e-02 -1.170449e-01 -1.399292e-01 -1.669630e-01 -1.986971e-01 -2.355777e-01 -2.781588e-01 -3.268526e-01 -3.821638e-01 -4.444161e-01 -5.139969e-01 -5.910752e-01 -6.758423e-01 -7.682388e-01 -8.681780e-01 -9.752988e-01 -1.089163e+00 -1.209050e+00 -1.334120e+00 -1.463262e+00 -1.595228e+00 -1.728535e+00 -1.861567e+00 -1.992541e+00 -2.119566e+00 -2.240684e+00 -2.353848e+00 -2.457066e+00 -2.548257e+00 -2.625514e+00 -2.686794e+00 -2.730351e+00 -2.754205e+00 -2.756804e+00 -2.736248e+00 -2.691251e+00 -2.620099e+00 -2.521969e+00 -2.395627e+00 -2.241080e+00 -2.058065e+00 -1.847827e+00 -1.611591e+00 -1.352027e+00 -1.072091e+00 -7.756384e-01 -4.671921e-01 -1.514095e-01 1.658159e-01 4.787766e-01 7.798216e-01 1.061157e+00 1.313131e+00 1.526510e+00 1.692999e+00 1.808538e+00 1.875463e+00 1.905347e+00 1.917192e+00 1.931496e+00 1.958852e+00 2.000620e+00 2.057301e+00 2.124087e+00 2.191500e+00 2.250180e+00 2.288410e+00 2.294463e+00 2.255269e+00 2.159493e+00 2.004047e+00 1.802227e+00 1.578142e+00 1.354748e+00 1.147260e+00 9.634602e-01 8.055163e-01 6.724776e-01 5.618462e-01 4.705885e-01 3.957189e-01 3.344727e-01 2.844809e-01 2.436936e-01 2.104280e-01 1.832624e-01 1.610426e-01 1.428038e-01 1.277621e-01 1.152664e-01 1.047862e-01 9.588277e-02 8.820083e-02 8.144614e-02 
9.304469e-02 8.677232e-02 8.084510e-02 7.512649e-02 6.953547e-02 6.399427e-02 5.847827e-02 5.295240e-02 4.743205e-02 4.191220e-02 3.643334e-02 3.100962e-02 2.569274e-02 2.050590e-02 1.549898e-02 1.069440e-02 6.128067e-03 1.811698e-03 -2.243941e-03 -6.047984e-03 -9.625355e-03 -1.301644e-02 -1.629211e-02 -1.953465e-02 -2.287131e-02 -2.643689e-02 -3.042578e-02 -3.503536e-02 -4.053781e-02 -4.720164e-02 -5.538620e-02 -6.543652e-02 -7.780498e-02 -9.291327e-02 -1.113060e-01 -1.334737e-01 -1.600421e-01 -1.915515e-01 -2.286831e-01 -2.719943e-01 -3.221785e-01 -3.797610e-01 -4.453840e-01 -5.194745e-01 -6.025408e-01 -6.948296e-01 -7.966167e-01 -9.078758e-01 -1.028545e+00 -1.158230e+00 -1.296435e+00 -1.442317e+00 -1.594877e+00 -1.752781e+00 -1.914507e+00 -2.078246e+00 -2.242000e+00 -2.403578e+00 -2.560632e+00 -2.710743e+00 -2.851381e+00 -2.980097e+00 -3.094342e+00 -3.191796e+00 -3.269995e+00 -3.326828e+00 -3.359919e+00 -3.367374e+00 -3.346872e+00 -3.296767e+00 -3.214863e+00 -3.099965e+00 -2.950359e+00 -2.765778e+00 -2.545668e+00 -2.291304e+00 -2.004062e+00 -1.687076e+00 -1.344009e+00 -9.794625e-01 -5.990115e-01 -2.079687e-01 1.866692e-01 5.785556e-01 9.584269e-01 1.316465e+00 1.639328e+00 1.912645e+00 2.122278e+00 2.258567e+00 2.321998e+00 2.328892e+00 2.313331e+00 2.314962e+00 2.347233e+00 2.400965e+00 2.481983e+00 2.582004e+00 2.683930e+00 2.777611e+00 2.845918e+00 2.874495e+00 2.842149e+00 2.725326e+00 2.510297e+00 2.222136e+00 1.908603e+00 1.607955e+00 1.340011e+00 1.111294e+00 9.207035e-01 7.640122e-01 6.361209e-01 5.320913e-01 4.476344e-01 3.790788e-01 3.234489e-01 2.782613e-01 2.415366e-01 2.116270e-01 1.872184e-01 1.672153e-01 1.507377e-01 1.370521e-01 1.255658e-01 1.157851e-01 1.073131e-01 9.981916e-02 
1.122112e-01 1.054310e-01 9.893803e-02 9.258076e-02 8.628245e-02 7.995428e-02 7.358502e-02 6.713208e-02 6.063139e-02 5.407355e-02 4.752434e-02 4.099623e-02 3.456819e-02 2.826386e-02 2.215961e-02 1.627955e-02 1.068278e-02 5.382830e-03 4.081246e-04 -4.249958e-03 -8.606076e-03 -1.270320e-02 -1.661096e-02 -2.041950e-02 -2.426547e-02 -2.829933e-02 -3.273738e-02 -3.780331e-02 -4.380595e-02 -5.105371e-02 -5.995994e-02 -7.092591e-02 -8.447806e-02 -1.011127e-01 -1.214709e-01 -1.461367e-01 -1.758555e-01 -2.112792e-01 -2.532297e-01 -3.023902e-01 -3.596103e-01 -4.255474e-01 -5.010053e-01 -5.865370e-01 -6.828015e-01 -7.901480e-01 -9.089703e-01 -1.039298e+00 -1.181127e+00 -1.334045e+00 -1.497526e+00 -1.670607e+00 -1.852142e+00 -2.040554e+00 -2.234045e+00 -2.430433e+00 -2.627324e+00 -2.822044e+00 -3.011759e+00 -3.193519e+00 -3.364278e+00 -3.521069e+00 -3.660869e+00 -3.780911e+00 -3.878328e+00 -3.950641e+00 -3.995120e+00 -4.009515e+00 -3.991119e+00 -3.937850e+00 -3.847008e+00 -3.716870e+00 -3.545115e+00 -3.331023e+00 -3.073558e+00 -2.773957e+00 -2.433591e+00 -2.056240e+00 -1.646211e+00 -1.209204e+00 -7.517237e-01 -2.798591e-01 1.988362e-01 6.778336e-01 1.147124e+00 1.595158e+00 2.004391e+00 2.353130e+00 2.617204e+00 2.776142e+00 2.822457e+00 2.775377e+00 2.697119e+00 2.676228e+00 2.726214e+00 2.788932e+00 2.905343e+00 3.057061e+00 3.204962e+00 3.350907e+00 3.463663e+00 3.534733e+00 3.530869e+00 3.403348e+00 3.099706e+00 2.673777e+00 2.230510e+00 1.831435e+00 1.496062e+00 1.223199e+00 1.004023e+00 8.286565e-01 6.882907e-01 5.757147e-01 4.852268e-01 4.123222e-01 3.534800e-01 3.058948e-01 2.673503e-01 2.360573e-01 2.105803e-01 1.897497e-01 1.726132e-01 1.583907e-01 1.464422e-01 1.362412e-01 1.273596e-01 1.194418e-01 
1.334870e-01 1.264040e-01 1.194970e-01 1.126125e-01 1.056722e-01 9.859205e-02 9.136408e-02 8.395709e-02 7.641415e-02 6.874290e-02 6.101904e-02 5.327632e-02 4.560489e-02 3.805210e-02 3.070516e-02 2.361235e-02 1.684166e-02 1.042928e-02 4.409052e-03 -1.208515e-03 -6.437507e-03 -1.130736e-02 -1.589349e-02 -2.028021e-02 -2.461815e-02 -2.906201e-02 -3.385260e-02 -3.923058e-02 -4.554292e-02 -5.313061e-02 -6.246237e-02 -7.399079e-02 -8.831870e-02 -1.060152e-01 -1.278221e-01 -1.544196e-01 -1.866800e-01 -2.253747e-01 -2.714781e-01 -3.258129e-01 -3.894024e-01 -4.630569e-01 -5.477647e-01 -6.442332e-01 -7.533001e-01 -8.754525e-01 -1.011233e+00 -1.160766e+00 -1.324137e+00 -1.500955e+00 -1.690682e+00 -1.892270e+00 -2.104426e+00 -2.325347e+00 -2.552926e+00 -2.784601e+00 -3.017509e+00 -3.248459e+00 -3.474034e+00 -3.690692e+00 -3.894774e+00 -4.082742e+00 -4.251034e+00 -4.396421e+00 -4.515630e+00 -4.605845e+00 -4.664026e+00 -4.687628e+00 -4.673577e+00 -4.619382e+00 -4.521759e+00 -4.378355e+00 -4.186041e+00 -3.943398e+00 -3.648673e+00 -3.302798e+00 -2.907117e+00 -2.465956e+00 -1.984664e+00 -1.470096e+00 -9.302857e-01 -3.717509e-01 1.974317e-01 7.721062e-01 1.342696e+00 1.897848e+00 2.415865e+00 2.865367e+00 3.206333e+00 3.397734e+00 3.411721e+00 3.252189e+00 3.029625e+00 2.978708e+00 3.108546e+00 3.142200e+00 3.315987e+00 3.559311e+00 3.752797e+00 3.981918e+00 4.148041e+00 4.293589e+00 4.365102e+00 4.274777e+00 3.822575e+00 3.148696e+00 2.512039e+00 1.994053e+00 1.592465e+00 1.284236e+00 1.046347e+00 8.610178e-01 7.152572e-01 5.997174e-01 5.075841e-01 4.337800e-01 3.744725e-01 3.266871e-01 2.881077e-01 2.568832e-01 2.315369e-01 2.108665e-01 1.938952e-01 1.798197e-01 1.679810e-01 1.578340e-01 1.489356e-01 1.409157e-01 
1.571706e-01 1.500261e-01 1.428995e-01 1.356281e-01 1.281497e-01 1.203719e-01 1.123116e-01 1.039313e-01 9.530651e-02 8.644132e-02 7.744929e-02 6.836355e-02 5.931437e-02 5.035158e-02 4.160147e-02 3.311748e-02 2.500266e-02 1.730015e-02 1.007247e-02 3.337501e-03 -2.898387e-03 -8.658704e-03 -1.400804e-02 -1.902873e-02 -2.387161e-02 -2.869646e-02 -3.375724e-02 -3.931052e-02 -4.573205e-02 -5.339390e-02 -6.281300e-02 -7.449265e-02 -8.910792e-02 -1.073026e-01 -1.299195e-01 -1.577408e-01 -1.917723e-01 -2.329160e-01 -2.823139e-01 -3.409461e-01 -4.100345e-01 -4.905677e-01 -5.837544e-01 -6.904891e-01 -8.118346e-01 -9.484533e-01 -1.101090e+00 -1.270006e+00 -1.455425e+00 -1.657010e+00 -1.874259e+00 -2.106046e+00 -2.350957e+00 -2.606933e+00 -2.871555e+00 -3.141802e+00 -3.414300e+00 -3.685221e+00 -3.950490e+00 -4.205833e+00 -4.446901e+00 -4.669474e+00 -4.869411e+00 -5.042974e+00 -5.186528e+00 -5.296950e+00 -5.371015e+00 -5.405932e+00 -5.398415e+00 -5.345515e+00 -5.243414e+00 -5.088891e+00 -4.877835e+00 -4.607730e+00 -4.275747e+00 -3.882267e+00 -3.428322e+00 -2.919125e+00 -2.361169e+00 -1.763436e+00 -1.135780e+00 -4.857977e-01 1.787299e-01 8.554720e-01 1.538701e+00 2.220698e+00 2.878661e+00 3.469391e+00 3.929277e+00 4.183999e+00 4.165524e+00 3.788166e+00 3.197920e+00 3.116101e+00 3.605085e+00 3.378212e+00 3.684823e+00 4.138577e+00 4.294183e+00 4.704605e+00 4.883121e+00 5.155751e+00 5.390290e+00 5.531037e+00 4.779997e+00 3.590818e+00 2.677766e+00 2.043007e+00 1.598847e+00 1.278399e+00 1.039546e+00 8.570387e-01 7.149647e-01 6.030467e-01 5.141242e-01 4.431201e-01 3.862065e-01 3.404963e-01 3.037046e-01 2.740447e-01 2.500570e-01 2.305755e-01 2.146277e-01 2.014259e-01 1.903086e-01 1.807335e-01 1.722539e-01 1.644953e-01 
1.840357e-01 1.770544e-01 1.698705e-01 1.623288e-01 1.543717e-01 1.459199e-01 1.369986e-01 1.275900e-01 1.177819e-01 1.076045e-01 9.718654e-02 8.659276e-02 7.597005e-02 6.540338e-02 5.503551e-02 4.495639e-02 3.528385e-02 2.609662e-02 1.746897e-02 9.451223e-03 2.057371e-03 -4.708992e-03 -1.091018e-02 -1.660905e-02 -2.196119e-02 -2.711729e-02 -3.234561e-02 -3.790737e-02 -4.420602e-02 -5.163626e-02 -6.076121e-02 -7.212974e-02 -8.648780e-02 -1.045529e-01 -1.272699e-01 -1.555278e-01 -1.904711e-01 -2.331446e-01 -2.848694e-01 -3.468042e-01 -4.203890e-01 -5.068224e-01 -6.075627e-01 -7.237343e-01 -8.566645e-01 -1.007245e+00 -1.176472e+00 -1.364801e+00 -1.572652e+00 -1.799805e+00 -2.045832e+00 -2.309589e+00 -2.589550e+00 -2.883433e+00 -3.188459e+00 -3.501132e+00 -3.817451e+00 -4.132868e+00 -4.442468e+00 -4.741118e+00 -5.023582e+00 -5.284832e+00 -5.520021e+00 -5.724867e+00 -5.895376e+00 -6.028223e+00 -6.120132e+00 -6.168280e+00 -6.169313e+00 -6.120003e+00 -6.015970e+00 -5.853046e+00 -5.625785e+00 -5.330135e+00 -4.961617e+00 -4.519473e+00 -4.004186e+00 -3.421707e+00 -2.780509e+00 -2.092385e+00 -1.370903e+00 -6.252473e-01 1.363283e-01 9.172880e-01 1.719886e+00 2.548797e+00 3.387117e+00 4.182365e+00 4.834383e+00 5.223145e+00 5.261697e+00 4.522262e+00 2.862785e+00 2.712436e+00 4.841435e+00 3.106041e+00 3.942289e+00 5.046222e+00 4.612904e+00 5.689848e+00 5.556271e+00 6.089129e+00 6.545495e+00 7.708986e+00 6.188642e+00 3.755933e+00 2.566309e+00 1.904370e+00 1.486102e+00 1.195777e+00 9.812290e-01 8.170252e-01 6.885955e-01 5.870535e-01 5.061688e-01 4.415514e-01 3.898001e-01 3.483467e-01 3.151088e-01 2.884551e-01 2.670271e-01 2.497355e-01 2.356578e-01 2.240424e-01 2.142508e-01 2.057558e-01 1.981199e-01 1.909745e-01 
2.144777e-01 2.079149e-01 2.008806e-01 1.932130e-01 1.848818e-01 1.757996e-01 1.660291e-01 1.555454e-01 1.444833e-01 1.328687e-01 1.208843e-01 1.085946e-01 9.620328e-02 8.379997e-02 7.158294e-02 5.965162e-02 4.817440e-02 3.724372e-02 2.697671e-02 1.744039e-02 8.682239e-03 7.235391e-04 -6.474830e-03 -1.295989e-02 -1.887519e-02 -2.436118e-02 -2.968689e-02 -3.511382e-02 -4.106213e-02 -4.794327e-02 -5.635820e-02 -6.689596e-02 -8.036860e-02 -9.756461e-02 -1.195316e-01 -1.472672e-01 -1.820640e-01 -2.251186e-01 -2.779514e-01 -3.419189e-01 -4.187140e-01 -5.097758e-01 -6.168645e-01 -7.413774e-01 -8.849760e-01 -1.048837e+00 -1.234291e+00 -1.442055e+00 -1.672828e+00 -1.926571e+00 -2.203009e+00 -2.501009e+00 -2.818985e+00 -3.154402e+00 -3.504115e+00 -3.864033e+00 -4.229443e+00 -4.594862e+00 -4.954380e+00 -5.301733e+00 -5.630618e+00 -5.934968e+00 -6.209117e+00 -6.448151e+00 -6.647787e+00 -6.804601e+00 -6.915561e+00 -6.978031e+00 -6.989017e+00 -6.945124e+00 -6.841692e+00 -6.673291e+00 -6.432933e+00 -6.114165e+00 -5.710101e+00 -5.217995e+00 -4.637044e+00 -3.974316e+00 -3.240593e+00 -2.452871e+00 -1.630344e+00 -7.868504e-01 6.792159e-02 9.449222e-01 1.861885e+00 2.849187e+00 3.916238e+00 5.011905e+00 5.973698e+00 6.587602e+00 7.110227e+00 6.146605e+00 1.022158e+00 2.227941e-03 8.125123e+00 6.212424e+00 1.977323e+00 6.115729e+00 4.660763e+00 4.628095e+00 4.276831e+00 3.698486e+00 4.906649e+00 5.596663e+00 5.301971e+00 2.668658e+00 1.928862e+00 1.526800e+00 1.252018e+00 1.043661e+00 8.785898e-01 7.464353e-01 6.400060e-01 5.544498e-01 4.856223e-01 4.304448e-01 3.862424e-01 3.509785e-01 3.228762e-01 3.005566e-01 2.828048e-01 2.686605e-01 2.572711e-01 2.479503e-01 2.400938e-01 2.332042e-01 2.268625e-01 2.207101e-01 
2.494419e-01 2.435285e-01 2.368054e-01 2.291243e-01 2.204631e-01 2.107540e-01 2.000719e-01 1.884199e-01 1.759496e-01 1.627238e-01 1.489457e-01 1.347242e-01 1.202862e-01 1.057707e-01 9.139972e-02 7.732461e-02 6.373635e-02 5.077912e-02 3.859029e-02 2.728601e-02 1.693090e-02 7.590451e-03 -7.609725e-04 -8.133506e-03 -1.466203e-02 -2.046041e-02 -2.579634e-02 -3.091908e-02 -3.625937e-02 -4.223647e-02 -4.948074e-02 -5.861650e-02 -7.051334e-02 -8.603113e-02 -1.063142e-01 -1.324766e-01 -1.659581e-01 -2.081248e-01 -2.607042e-01 -3.252804e-01 -4.038189e-01 -4.980444e-01 -6.100529e-01 -7.415783e-01 -8.946677e-01 -1.070865e+00 -1.271906e+00 -1.498866e+00 -1.752812e+00 -2.033992e+00 -2.342368e+00 -2.676921e+00 -3.036046e+00 -3.417019e+00 -3.816280e+00 -4.229118e+00 -4.649917e+00 -5.072100e+00 -5.488424e+00 -5.891217e+00 -6.272708e+00 -6.625509e+00 -6.942855e+00 -7.219099e+00 -7.449689e+00 -7.631323e+00 -7.761562e+00 -7.838477e+00 -7.859903e+00 -7.822838e+00 -7.722522e+00 -7.552383e+00 -7.303297e+00 -6.965645e+00 -6.528722e+00 -5.986378e+00 -5.335384e+00 -4.583238e+00 -3.744225e+00 -2.842427e+00 -1.907676e+00 -9.629617e-01 -2.512999e-02 9.247822e-01 1.926275e+00 3.057534e+00 4.394234e+00 5.946360e+00 7.415059e+00 8.023060e+00 1.041177e+01 1.076247e+01 7.936963e+00 1.060070e+01 3.576720e+00 5.097111e+00 4.123793e+00 2.938135e-01 6.570780e-01 -1.523939e+00 -1.362205e+00 -2.398769e+00 -1.740526e+00 -2.949651e+00 3.151817e-01 4.732839e-01 9.611305e-01 1.029739e+00 9.610213e-01 8.563109e-01 7.506444e-01 6.564321e-01 5.762652e-01 5.100084e-01 4.559431e-01 4.124333e-01 3.776533e-01 3.501573e-01 3.285436e-01 3.117173e-01 2.986502e-01 2.885268e-01 2.805909e-01 2.742297e-01 2.688875e-01 2.641033e-01 2.594809e-01 2.546800e-01 
2.894163e-01 2.844119e-01 2.782126e-01 2.706603e-01 2.617697e-01 2.514604e-01 2.398583e-01 2.269550e-01 2.129664e-01 1.979476e-01 1.821761e-01 1.657594e-01 1.490026e-01 1.320510e-01 1.152036e-01 9.862585e-02 8.257931e-02 6.723005e-02 5.277629e-02 3.936258e-02 2.710337e-02 1.609703e-02 6.356676e-03 -2.093579e-03 -9.360606e-03 -1.552709e-02 -2.084426e-02 -2.553932e-02 -3.004129e-02 -3.476449e-02 -4.035900e-02 -4.747114e-02 -5.702208e-02 -6.993209e-02 -8.744239e-02 -1.107781e-01 -1.415362e-01 -1.812558e-01 -2.318968e-01 -2.952869e-01 -3.737100e-01 -4.692100e-01 -5.842900e-01 -7.210755e-01 -8.820996e-01 -1.069354e+00 -1.285106e+00 -1.530896e+00 -1.808306e+00 -2.117979e+00 -2.460265e+00 -2.834341e+00 -3.238690e+00 -3.670391e+00 -4.125481e+00 -4.598454e+00 -5.082646e+00 -5.570009e+00 -6.051646e+00 -6.517954e+00 -6.959277e+00 -7.366428e+00 -7.731242e+00 -8.047140e+00 -8.309370e+00 -8.514997e+00 -8.662742e+00 -8.752015e+00 -8.782456e+00 -8.752082e+00 -8.656913e+00 -8.489047e+00 -8.237097e+00 -7.886517e+00 -7.421128e+00 -6.828845e+00 -6.101875e+00 -5.247737e+00 -4.284036e+00 -3.246416e+00 -2.180469e+00 -1.128435e+00 -1.247845e-01 8.519234e-01 1.865272e+00 3.061151e+00 4.649034e+00 6.934085e+00 9.650144e+00 8.148749e+00 4.435035e+00 5.463594e+00 7.461096e+00 5.826385e+00 -1.639042e+00 -6.779278e+00 -4.379023e+00 -4.760776e+00 -5.132345e+00 -4.503913e+00 -4.618099e+00 -3.729341e+00 -5.171146e+00 -5.089431e+00 -2.424705e+00 -4.590071e-01 4.284045e-01 6.829332e-01 7.184673e-01 6.798002e-01 6.200738e-01 5.595071e-01 5.049211e-01 4.586494e-01 4.205039e-01 3.899295e-01 3.658003e-01 3.472166e-01 3.331319e-01 3.227445e-01 3.152134e-01 3.098826e-01 3.060936e-01 3.033179e-01 3.010503e-01 2.988691e-01 2.964061e-01 2.933343e-01 
3.355026e-01 3.316432e-01 3.261269e-01 3.188112e-01 3.097168e-01 2.987878e-01 2.861625e-01 2.718687e-01 2.561425e-01 2.390877e-01 2.210084e-01 2.020714e-01 1.826130e-01 1.628454e-01 1.431005e-01 1.236146e-01 1.046819e-01 8.654001e-02 6.941811e-02 5.353021e-02 3.902016e-02 2.605133e-02 1.466511e-02 4.944030e-03 -3.191710e-03 -9.775808e-03 -1.503549e-02 -1.916298e-02 -2.257132e-02 -2.566097e-02 -2.908306e-02 -3.350147e-02 -3.986862e-02 -4.916698e-02 -6.271616e-02 -8.186317e-02 -1.083497e-01 -1.439116e-01 -1.907386e-01 -2.509438e-01 -3.271419e-01 -4.217591e-01 -5.377411e-01 -6.776935e-01 -8.447015e-01 -1.041323e+00 -1.270463e+00 -1.534277e+00 -1.835003e+00 -2.173871e+00 -2.551771e+00 -2.968278e+00 -3.422080e+00 -3.910213e+00 -4.428282e+00 -4.969981e+00 -5.527300e+00 -6.090427e+00 -6.648181e+00 -7.188434e+00 -7.698837e+00 -8.167739e+00 -8.584977e+00 -8.942746e+00 -9.236152e+00 -9.463032e+00 -9.624069e+00 -9.721103e+00 -9.756759e+00 -9.731485e+00 -9.642911e+00 -9.482576e+00 -9.236057e+00 -8.882665e+00 -8.397539e+00 -7.759288e+00 -6.951805e+00 -5.979807e+00 -4.864455e+00 -3.654935e+00 -2.421977e+00 -1.241259e+00 -1.865629e-01 7.480289e-01 1.644411e+00 2.701106e+00 4.236864e+00 7.504074e+00 1.535380e+01 2.480916e+00 9.044046e+00 8.861849e+00 -2.638588e+00 -1.923771e+01 -1.251791e+01 3.541577e-02 -5.666574e+00 -6.453773e-01 -1.541330e+00 1.171536e+00 -4.756220e-01 1.799067e+00 -3.556051e-01 2.710352e+00 1.103589e+00 5.040444e-01 5.435027e-01 5.694184e-01 5.622273e-01 5.346610e-01 4.994708e-01 4.641408e-01 4.320496e-01 4.049190e-01 3.828391e-01 3.657619e-01 3.530229e-01 3.441411e-01 3.383793e-01 3.351948e-01 3.339279e-01 3.340698e-01 3.350615e-01 3.364527e-01 3.377877e-01 3.386838e-01 3.387942e-01 3.378103e-01 
3.882542e-01 3.858088e-01 3.812007e-01 3.742665e-01 3.650703e-01 3.535328e-01 3.398569e-01 3.240494e-01 3.064313e-01 2.870914e-01 2.664339e-01 2.446199e-01 2.220928e-01 1.990706e-01 1.759905e-01 1.531075e-01 1.308120e-01 1.093728e-01 8.910265e-02 7.025784e-02 5.305210e-02 3.770037e-02 2.430193e-02 1.299676e-02 3.753518e-03 -3.403000e-03 -8.659848e-03 -1.215681e-02 -1.427757e-02 -1.538618e-02 -1.612321e-02 -1.714544e-02 -1.942786e-02 -2.399170e-02 -3.223248e-02 -4.560078e-02 -6.599198e-02 -9.533029e-02 -1.360632e-01 -1.905958e-01 -2.619294e-01 -3.529033e-01 -4.669971e-01 -6.073625e-01 -7.777736e-01 -9.814673e-01 -1.222175e+00 -1.502835e+00 -1.826584e+00 -2.195446e+00 -2.611124e+00 -3.073795e+00 -3.582589e+00 -4.134584e+00 -4.725035e+00 -5.346627e+00 -5.989774e+00 -6.642242e+00 -7.289926e+00 -7.917138e+00 -8.507913e+00 -9.047132e+00 -9.521885e+00 -9.922707e+00 -1.024455e+01 -1.048650e+01 -1.065221e+01 -1.074736e+01 -1.077955e+01 -1.075358e+01 -1.067103e+01 -1.052367e+01 -1.029446e+01 -9.953408e+00 -9.463389e+00 -8.786987e+00 -7.894299e+00 -6.783942e+00 -5.477470e+00 -4.042312e+00 -2.579225e+00 -1.220228e+00 -1.166092e-01 6.897706e-01 1.296171e+00 1.927358e+00 2.202915e+00 3.570482e+00 9.539252e+00 9.458051e+00 1.314326e+01 -1.276389e+01 -2.050408e+01 1.078205e+01 1.160540e+01 4.608215e+00 4.274827e+00 4.911928e+00 3.612800e+00 5.584816e+00 4.234273e+00 5.146170e+00 4.888501e+00 5.040299e+00 5.192294e+00 1.241070e+00 6.818409e-01 5.017810e-01 4.371950e-01 4.074084e-01 3.881215e-01 3.732916e-01 3.612143e-01 3.520885e-01 3.456916e-01 3.421574e-01 3.411036e-01 3.423558e-01 3.454274e-01 3.499947e-01 3.555558e-01 3.617337e-01 3.680564e-01 3.741436e-01 3.795833e-01 3.840219e-01 3.871345e-01 3.886161e-01 
4.489075e-01 4.481334e-01 4.446043e-01 4.381673e-01 4.288845e-01 4.167015e-01 4.018306e-01 3.843215e-01 3.645174e-01 3.425685e-01 3.189124e-01 2.937873e-01 2.676777e-01 2.408898e-01 2.139054e-01 1.870738e-01 1.608305e-01 1.355398e-01 1.115586e-01 8.923706e-02 6.883318e-02 5.065145e-02 3.483798e-02 2.161682e-02 1.100792e-02 3.112720e-03 -2.200338e-03 -5.006055e-03 -5.633048e-03 -4.400303e-03 -1.904453e-03 1.209360e-03 3.981218e-03 5.349211e-03 3.879535e-03 -1.994657e-03 -1.429008e-02 -3.514833e-02 -6.725362e-02 -1.133552e-01 -1.768389e-01 -2.610383e-01 -3.699962e-01 -5.075282e-01 -6.781745e-01 -8.860162e-01 -1.135758e+00 -1.431351e+00 -1.777062e+00 -2.176019e+00 -2.631052e+00 -3.143314e+00 -3.712691e+00 -4.336655e+00 -5.010218e+00 -5.725145e+00 -6.469859e+00 -7.229179e+00 -7.984896e+00 -8.716482e+00 -9.402647e+00 -1.002329e+01 -1.056145e+01 -1.100530e+01 -1.134982e+01 -1.159618e+01 -1.175267e+01 -1.183087e+01 -1.184588e+01 -1.180995e+01 -1.173113e+01 -1.160406e+01 -1.140880e+01 -1.110461e+01 -1.063513e+01 -9.939386e+00 -8.963549e+00 -7.692747e+00 -6.146365e+00 -4.404794e+00 -2.604035e+00 -9.540650e-01 2.497795e-01 8.185538e-01 9.634729e-01 1.540145e+00 -7.275974e-01 1.532511e+01 1.894846e+01 1.506929e+01 -1.459513e+01 -1.767642e+01 9.662014e+00 1.577474e+01 4.136165e+00 1.669196e+00 3.784902e+00 4.321658e+00 5.547872e+00 2.525812e+00 4.431041e+00 1.720444e+00 3.827478e+00 -1.699660e+00 3.516980e+00 7.554974e-01 4.470382e-01 3.277468e-01 2.874233e-01 2.789859e-01 2.811655e-01 2.872674e-01 2.944651e-01 3.026152e-01 3.114489e-01 3.212933e-01 3.319901e-01 3.436106e-01 3.558692e-01 3.686198e-01 3.814914e-01 3.942130e-01 4.063842e-01 4.176784e-01 4.277137e-01 4.361582e-01 4.426915e-01 4.470146e-01 