# vtk DataFile Version 2.0
Comment goes here
ASCII

DATASET STRUCTURED_POINTS
DIMENSIONS    128   128   1

ORIGIN    0.000   0.000   0.000
SPACING   0.0156250.015625   1.000

POINT_DATA   16384
SCALARS Omega double
LOOKUP_TABLE default

-1.182904e-07 -8.458945e-08 -6.134458e-08 -4.276519e-08 -3.106423e-08 -2.091825e-08 -1.555372e-08 -9.913575e-09 -7.878717e-09 -4.564913e-09 -4.191375e-09 -2.058679e-09 -2.444144e-09 -9.279993e-10 -1.588602e-09 -4.343755e-10 -1.106276e-09 -2.161993e-10 -7.494491e-10 -9.950049e-11 -4.053229e-10 -1.690792e-12 -3.191941e-11 1.070442e-10 3.587831e-10 2.002028e-10 6.740939e-10 1.416613e-10 6.555216e-10 -4.402581e-10 -2.982228e-10 -2.396189e-09 -3.452252e-09 -7.476102e-09 -1.126623e-08 -1.899594e-08 -2.820078e-08 -4.280588e-08 -6.183412e-08 -8.856048e-08 -1.242407e-07 -1.711716e-07 -2.334228e-07 -3.121178e-07 -4.143332e-07 -5.399851e-07 -6.986927e-07 -8.892594e-07 -1.122457e-06 -1.396085e-06 -1.719568e-06 -2.089637e-06 -2.510781e-06 -2.978218e-06 -3.487160e-06 -4.030373e-06 -4.589440e-06 -5.153334e-06 -5.686717e-06 -6.173425e-06 -6.560145e-06 -6.824889e-06 -6.898497e-06 -6.753957e-06 -6.312042e-06 -5.543847e-06 -4.369597e-06 -2.764847e-06 -6.625254e-07 1.946981e-06 5.101119e-06 8.780352e-06 1.297321e-05 1.761545e-05 2.262980e-05 2.789762e-05 3.327086e-05 3.858307e-05 4.363356e-05 4.823875e-05 5.219124e-05 5.534225e-05 5.754221e-05 5.873456e-05 5.889006e-05 5.808778e-05 5.645754e-05 5.422723e-05 5.167923e-05 4.915035e-05 4.699320e-05 4.553011e-05 4.501256e-05 4.555998e-05 4.713567e-05 4.952093e-05 5.233683e-05 5.507815e-05 5.717983e-05 5.808954e-05 5.735193e-05 5.469311e-05 5.009359e-05 4.382860e-05 3.643984e-05 2.862528e-05 2.108377e-05 1.436688e-05 8.808935e-06 4.520343e-06 1.439415e-06 -6.028257e-07 -1.821066e-06 -2.430111e-06 -2.620316e-06 -2.543771e-06 -2.315834e-06 -2.015972e-06 -1.698065e-06 -1.392909e-06 -1.119117e-06 -8.825145e-07 -6.859980e-07 -5.252281e-07 -3.981410e-07 -2.975126e-07 -2.210882e-07 -1.616242e-07 
2.149494e-04 1.564697e-04 1.130521e-04 8.090074e-05 5.745278e-05 4.029946e-05 2.803476e-05 1.913969e-05 1.293194e-05 8.441591e-06 5.414130e-06 3.210087e-06 1.809850e-06 7.734182e-07 1.954736e-07 -2.375492e-07 -3.889895e-07 -4.839793e-07 -3.849878e-07 -2.482724e-07 4.302997e-08 3.885452e-07 8.741057e-07 1.439574e-06 2.133021e-06 2.907617e-06 3.761699e-06 4.613820e-06 5.383589e-06 5.874476e-06 5.866457e-06 4.922675e-06 2.574992e-06 -2.032398e-06 -9.781950e-06 -2.217675e-05 -4.073095e-05 -6.784407e-05 -1.058922e-04 -1.583727e-04 -2.286821e-04 -3.214521e-04 -4.410516e-04 -5.929599e-04 -7.820955e-04 -1.014015e-03 -1.293241e-03 -1.624061e-03 -2.009094e-03 -2.449507e-03 -2.944099e-03 -3.488873e-03 -4.076885e-03 -4.697269e-03 -5.335992e-03 -5.974562e-03 -6.591621e-03 -7.161630e-03 -7.656984e-03 -8.046921e-03 -8.299644e-03 -8.381611e-03 -8.259155e-03 -7.898283e-03 -7.265545e-03 -6.328620e-03 -5.056623e-03 -3.422004e-03 -1.400868e-03 1.023223e-03 3.858346e-03 7.098456e-03 1.072201e-02 1.468551e-02 1.892308e-02 2.334234e-02 2.782737e-02 3.224092e-02 3.643258e-02 4.024925e-02 4.354724e-02 4.620784e-02 4.814797e-02 4.933350e-02 4.978316e-02 4.957458e-02 4.884184e-02 4.777470e-02 4.661081e-02 4.562414e-02 4.510116e-02 4.530917e-02 4.645157e-02 4.863090e-02 5.181105e-02 5.581018e-02 6.030215e-02 6.485182e-02 6.895137e-02 7.207014e-02 7.370242e-02 7.343684e-02 7.104510e-02 6.657805e-02 6.040913e-02 5.316619e-02 4.555906e-02 3.820142e-02 3.150968e-02 2.569166e-02 2.078967e-02 1.674408e-02 1.344519e-02 1.077204e-02 8.610698e-03 6.864338e-03 5.453239e-03 4.314002e-03 3.395797e-03 2.658073e-03 2.067856e-03 1.598159e-03 1.226696e-03 9.348635e-04 7.073197e-04 5.311517e-04 3.959221e-04 2.928121e-04 
4.308631e-04 3.134904e-04 2.264415e-04 1.619496e-04 1.150053e-04 8.062326e-05 5.612894e-05 3.831879e-05 2.597872e-05 1.700372e-05 1.104120e-05 6.649445e-06 3.944795e-06 1.891202e-06 8.263836e-07 -2.070384e-08 -2.414061e-07 -4.123125e-07 -1.409395e-07 1.561239e-07 8.086021e-07 1.537153e-06 2.586192e-06 3.783600e-06 5.274907e-06 6.940117e-06 8.803093e-06 1.069562e-05 1.246334e-05 1.372004e-05 1.401131e-05 1.246788e-05 8.114550e-06 -7.802448e-07 -1.605471e-05 -4.078971e-05 -7.813883e-05 -1.330681e-04 -2.105314e-04 -3.178222e-04 -4.620382e-04 -6.529028e-04 -8.995760e-04 -1.213640e-03 -1.605456e-03 -2.086872e-03 -2.667494e-03 -3.356614e-03 -4.159926e-03 -5.080260e-03 -6.115357e-03 -7.257232e-03 -8.491607e-03 -9.796026e-03 -1.114133e-02 -1.248895e-02 -1.379436e-02 -1.500417e-02 -1.606084e-02 -1.690011e-02 -1.745596e-02 -1.765856e-02 -1.743844e-02 -1.672518e-02 -1.545013e-02 -1.354651e-02 -1.095096e-02 -7.606227e-03 -3.462726e-03 1.514807e-03 7.344434e-03 1.401606e-02 2.148732e-02 2.967087e-02 3.843175e-02 4.757956e-02 5.687251e-02 6.602327e-02 7.471414e-02 8.262126e-02 8.943848e-02 9.491310e-02 9.886673e-02 1.012254e-01 1.020254e-01 1.014265e-01 9.970470e-02 9.725278e-02 9.456616e-02 9.222347e-02 9.083914e-02 9.099687e-02 9.315006e-02 9.753912e-02 1.041047e-01 1.124717e-01 1.219523e-01 1.316261e-01 1.404220e-01 1.472178e-01 1.509255e-01 1.506244e-01 1.457588e-01 1.363859e-01 1.233261e-01 1.080164e-01 9.206392e-02 7.680571e-02 6.309263e-02 5.129951e-02 4.145076e-02 3.337367e-02 2.681182e-02 2.150246e-02 1.720879e-02 1.373502e-02 1.092312e-02 8.648579e-03 6.812174e-03 5.334534e-03 4.151073e-03 3.208474e-03 2.462684e-03 1.876555e-03 1.419553e-03 1.065698e-03 7.941633e-04 5.871148e-04 
6.485176e-04 4.715713e-04 3.402950e-04 2.431461e-04 1.723497e-04 1.205872e-04 8.361023e-05 5.680416e-05 3.812381e-05 2.461746e-05 1.554015e-05 8.938023e-06 4.778795e-06 1.710219e-06 4.620236e-08 -1.183012e-06 -1.536477e-06 -1.713756e-06 -1.270916e-06 -6.935443e-07 4.008561e-07 1.704193e-06 3.506903e-06 5.633032e-06 8.260341e-06 1.126318e-05 1.466724e-05 1.824653e-05 2.177744e-05 2.467442e-05 2.625916e-05 2.517482e-05 1.992069e-05 7.770322e-06 -1.416706e-05 -5.076754e-05 -1.070633e-04 -1.909538e-04 -3.104255e-04 -4.771455e-04 -7.026494e-04 -1.002592e-03 -1.391977e-03 -1.889596e-03 -2.512574e-03 -3.280341e-03 -4.209000e-03 -5.314098e-03 -6.605578e-03 -8.088755e-03 -9.760769e-03 -1.160955e-02 -1.361268e-02 -1.573465e-02 -1.792869e-02 -2.013311e-02 -2.227606e-02 -2.427182e-02 -2.602756e-02 -2.744037e-02 -2.840424e-02 -2.880817e-02 -2.854153e-02 -2.749344e-02 -2.555550e-02 -2.262314e-02 -1.859631e-02 -1.338460e-02 -6.908065e-03 8.914906e-04 1.004712e-02 2.054821e-02 3.233432e-02 4.527285e-02 5.915466e-02 7.367832e-02 8.845696e-02 1.030242e-01 1.168610e-01 1.294328e-01 1.402330e-01 1.488402e-01 1.549575e-01 1.584585e-01 1.593979e-01 1.580264e-01 1.547788e-01 1.502747e-01 1.453055e-01 1.408155e-01 1.378356e-01 1.373738e-01 1.402386e-01 1.468878e-01 1.572695e-01 1.707893e-01 1.863168e-01 2.023350e-01 2.170965e-01 2.287741e-01 2.355483e-01 2.357699e-01 2.283019e-01 2.130548e-01 1.914562e-01 1.662196e-01 1.403125e-01 1.160308e-01 9.466377e-02 7.663179e-02 6.179435e-02 4.974779e-02 4.001429e-02 3.215150e-02 2.578593e-02 2.062220e-02 1.642845e-02 1.302502e-02 1.026922e-02 8.046736e-03 6.263618e-03 4.841824e-03 3.716030e-03 2.831018e-03 2.140855e-03 1.606606e-03 1.196670e-03 8.842709e-04 
8.678729e-04 6.303807e-04 4.544396e-04 3.242212e-04 2.295407e-04 1.602560e-04 1.109634e-04 7.514762e-05 5.038869e-05 3.239591e-05 2.050457e-05 1.176085e-05 6.453381e-06 2.444338e-06 4.717450e-07 -1.066751e-06 -1.288695e-06 -1.398158e-06 -5.434741e-07 4.057605e-07 2.178243e-06 4.198323e-06 7.028336e-06 1.032962e-05 1.447104e-05 1.923856e-05 2.475582e-05 3.071901e-05 3.687324e-05 4.244960e-05 4.652507e-05 4.726267e-05 4.254301e-05 2.857556e-05 1.216714e-06 -4.644642e-05 -1.216938e-04 -2.358938e-04 -4.006909e-04 -6.330877e-04 -9.500355e-04 -1.374617e-03 -1.929073e-03 -2.641459e-03 -3.537444e-03 -4.646502e-03 -5.993188e-03 -7.601777e-03 -9.488134e-03 -1.166185e-02 -1.412017e-02 -1.684713e-02 -1.981108e-02 -2.296120e-02 -2.622958e-02 -2.952622e-02 -3.274586e-02 -3.576268e-02 -3.844068e-02 -4.062905e-02 -4.217359e-02 -4.291307e-02 -4.268864e-02 -4.134131e-02 -3.871755e-02 -3.466871e-02 -2.905346e-02 -2.174189e-02 -1.261812e-02 -1.593276e-03 1.138775e-02 2.632175e-02 4.313500e-02 6.165129e-02 8.158021e-02 1.024934e-01 1.238280e-01 1.448959e-01 1.649187e-01 1.830877e-01 1.986278e-01 2.108936e-01 2.194264e-01 2.240308e-01 2.247801e-01 2.220345e-01 2.164103e-01 2.087839e-01 2.002895e-01 1.923270e-01 1.864894e-01 1.844005e-01 1.874142e-01 1.963544e-01 2.112337e-01 2.311930e-01 2.545111e-01 2.788677e-01 3.016692e-01 3.202499e-01 3.318693e-01 3.337719e-01 3.236896e-01 3.009091e-01 2.677196e-01 2.291839e-01 1.905967e-01 1.555806e-01 1.257474e-01 1.012579e-01 8.151621e-02 6.568980e-02 5.297313e-02 4.270166e-02 3.435832e-02 2.755630e-02 2.200267e-02 1.747375e-02 1.379219e-02 1.081414e-02 8.419956e-03 6.508314e-03 4.993692e-03 3.802632e-03 2.873996e-03 2.155288e-03 1.604194e-03 1.184371e-03 
1.089102e-03 7.900487e-04 5.685088e-04 4.047846e-04 2.856419e-04 1.986321e-04 1.365781e-04 9.164148e-05 6.041333e-05 3.787035e-05 2.281864e-05 1.191314e-05 5.170314e-06 2.536699e-07 -2.233048e-06 -3.981737e-06 -4.171275e-06 -4.029809e-06 -2.725446e-06 -1.107668e-06 1.561967e-06 4.760681e-06 9.086450e-06 1.427385e-05 2.074693e-05 2.835915e-05 3.728509e-05 4.722471e-05 5.790708e-05 6.838780e-05 7.752958e-05 8.293498e-05 8.183753e-05 6.917262e-05 3.934921e-05 -1.700181e-05 -1.099124e-04 -2.549707e-04 -4.684635e-04 -7.739635e-04 -1.195470e-03 -1.765353e-03 -2.515471e-03 -3.485683e-03 -4.713266e-03 -6.240801e-03 -8.104695e-03 -1.034105e-02 -1.297465e-02 -1.602161e-02 -1.948069e-02 -2.333229e-02 -2.753403e-02 -3.201672e-02 -3.668590e-02 -4.141626e-02 -4.605953e-02 -5.043935e-02 -5.436388e-02 -5.762238e-02 -5.999900e-02 -6.127113e-02 -6.121997e-02 -5.963000e-02 -5.629357e-02 -5.101194e-02 -4.359485e-02 -3.386678e-02 -2.166661e-02 -6.865511e-03 1.062616e-02 3.082394e-02 5.365196e-02 7.889425e-02 1.061749e-01 1.349165e-01 1.643410e-01 1.934734e-01 2.211930e-01 2.463150e-01 2.676962e-01 2.843751e-01 2.956732e-01 3.013022e-01 3.013697e-01 2.963786e-01 2.871598e-01 2.748675e-01 2.610131e-01 2.475516e-01 2.368584e-01 2.314924e-01 2.336776e-01 2.448638e-01 2.652351e-01 2.935936e-01 3.273693e-01 3.630371e-01 3.969285e-01 4.254747e-01 4.449171e-01 4.508288e-01 4.387215e-01 4.057821e-01 3.554347e-01 2.977075e-01 2.421992e-01 1.942478e-01 1.552551e-01 1.244250e-01 1.001919e-01 8.101393e-02 6.564653e-02 5.318375e-02 4.298432e-02 3.459913e-02 2.769975e-02 2.203769e-02 1.741292e-02 1.365957e-02 1.063564e-02 8.218511e-03 6.302430e-03 4.795902e-03 3.621668e-03 2.713596e-03 2.017700e-03 1.488140e-03 
1.310258e-03 9.486102e-04 6.811956e-04 4.836041e-04 3.401983e-04 2.353986e-04 1.610054e-04 1.070181e-04 6.985161e-05 4.289329e-05 2.525920e-05 1.235597e-05 4.760594e-06 -8.910747e-07 -3.335111e-06 -5.121326e-06 -4.763179e-06 -4.189223e-06 -1.952508e-06 5.592533e-07 4.621001e-06 9.340100e-06 1.576245e-05 2.341582e-05 3.308055e-05 4.453440e-05 5.820278e-05 7.376066e-05 9.102987e-05 1.089307e-04 1.261289e-04 1.396975e-04 1.461223e-04 1.389634e-04 1.108943e-04 4.967734e-05 -5.807384e-05 -2.331273e-04 -4.975150e-04 -8.831607e-04 -1.422933e-03 -2.161341e-03 -3.142580e-03 -4.422339e-03 -6.053126e-03 -8.095631e-03 -1.060229e-02 -1.362630e-02 -1.720520e-02 -2.136582e-02 -2.611053e-02 -3.141721e-02 -3.723128e-02 -4.346132e-02 -4.997961e-02 -5.661544e-02 -6.316524e-02 -6.938626e-02 -7.501446e-02 -7.976028e-02 -8.332931e-02 -8.541968e-02 -8.573905e-02 -8.400186e-02 -7.993782e-02 -7.328902e-02 -6.381061e-02 -5.127265e-02 -3.546034e-02 -1.619089e-02 6.675574e-03 3.319368e-02 6.330390e-02 9.676578e-02 1.331189e-01 1.716195e-01 2.112241e-01 2.505895e-01 2.881295e-01 3.221390e-01 3.509431e-01 3.731283e-01 3.876965e-01 3.942452e-01 3.929507e-01 3.845351e-01 3.700914e-01 3.510473e-01 3.292514e-01 3.072831e-01 2.886134e-01 2.772938e-01 2.769578e-01 2.901479e-01 3.173963e-01 3.570651e-01 4.053282e-01 4.565267e-01 5.056452e-01 5.484072e-01 5.804655e-01 5.950245e-01 5.835835e-01 5.366012e-01 4.583344e-01 3.709544e-01 2.923352e-01 2.292720e-01 1.812449e-01 1.450508e-01 1.173588e-01 9.561695e-02 7.810078e-02 6.372068e-02 5.178747e-02 4.185219e-02 3.359481e-02 2.676806e-02 2.116442e-02 1.660260e-02 1.292155e-02 9.977317e-03 7.643864e-03 5.810147e-03 4.382340e-03 3.279214e-03 2.434982e-03 1.793151e-03 
1.530046e-03 1.105184e-03 7.911391e-04 5.594983e-04 3.912703e-04 2.686037e-04 1.813327e-04 1.182388e-04 7.460094e-05 4.320191e-05 2.249926e-05 7.637083e-06 -1.199187e-06 -7.451575e-06 -1.009794e-05 -1.166644e-05 -1.082028e-05 -9.407987e-06 -6.061821e-06 -2.046739e-06 3.902346e-06 1.105502e-05 2.052290e-05 3.203206e-05 4.650293e-05 6.392673e-05 8.491306e-05 1.092986e-04 1.370400e-04 1.670109e-04 1.977566e-04 2.257880e-04 2.468338e-04 2.528524e-04 2.345041e-04 1.761169e-04 6.015037e-05 -1.404820e-04 -4.551984e-04 -9.262943e-04 -1.598332e-03 -2.531186e-03 -3.785660e-03 -5.437902e-03 -7.561374e-03 -1.024076e-02 -1.355118e-02 -1.756928e-02 -2.235170e-02 -2.794117e-02 -3.434747e-02 -4.154759e-02 -4.947324e-02 -5.800612e-02 -6.697592e-02 -7.615382e-02 -8.526296e-02 -9.397405e-02 -1.019264e-01 -1.087280e-01 -1.139802e-01 -1.172807e-01 -1.182430e-01 -1.164980e-01 -1.117002e-01 -1.035263e-01 -9.166935e-02 -7.583947e-02 -5.575662e-02 -3.116919e-02 -1.862975e-03 3.228441e-02 7.126371e-02 1.148383e-01 1.624805e-01 2.132660e-01 2.658351e-01 3.183639e-01 3.686371e-01 4.142054e-01 4.526251e-01 4.818039e-01 5.002856e-01 5.075262e-01 5.038810e-01 4.904564e-01 4.687218e-01 4.402971e-01 4.071354e-01 3.723063e-01 3.408199e-01 3.192605e-01 3.135087e-01 3.280711e-01 3.641055e-01 4.193988e-01 4.885305e-01 5.610722e-01 6.305163e-01 6.925829e-01 7.446507e-01 7.766766e-01 7.753900e-01 7.094734e-01 5.799967e-01 4.438270e-01 3.341453e-01 2.555138e-01 2.008585e-01 1.619527e-01 1.327743e-01 1.096708e-01 9.062863e-02 7.459146e-02 6.098656e-02 4.946993e-02 3.978854e-02 3.172668e-02 2.508177e-02 1.966177e-02 1.528587e-02 1.178755e-02 9.017620e-03 6.844042e-03 5.154009e-03 3.850542e-03 2.854348e-03 2.098302e-03 
1.743375e-03 1.255101e-03 8.949636e-04 6.294046e-04 4.371138e-04 2.968051e-04 1.975173e-04 1.255877e-04 7.641132e-05 4.088485e-05 1.809442e-05 1.622334e-06 -7.462178e-06 -1.394470e-05 -1.582804e-05 -1.679552e-05 -1.454529e-05 -1.188241e-05 -6.540460e-06 -5.163603e-07 8.264553e-06 1.858930e-05 3.229073e-05 4.887036e-05 6.989072e-05 9.534867e-05 1.264078e-04 1.630430e-04 2.056047e-04 2.530158e-04 3.038512e-04 3.541606e-04 3.989142e-04 4.283838e-04 4.309453e-04 3.869320e-04 2.738803e-04 5.694640e-05 -3.022906e-04 -8.593162e-04 -1.673293e-03 -2.824171e-03 -4.393984e-03 -6.486290e-03 -9.202022e-03 -1.265890e-02 -1.696275e-02 -2.222376e-02 -2.852576e-02 -3.593622e-02 -4.447784e-02 -5.413068e-02 -6.481193e-02 -7.637126e-02 -8.858496e-02 -1.011487e-01 -1.136900e-01 -1.257636e-01 -1.368812e-01 -1.465124e-01 -1.541220e-01 -1.591751e-01 -1.611668e-01 -1.596240e-01 -1.541159e-01 -1.442464e-01 -1.296457e-01 -1.099598e-01 -8.483757e-02 -5.394037e-02 -1.695164e-02 2.636285e-02 7.609721e-02 1.320765e-01 1.937502e-01 2.600287e-01 3.291893e-01 3.988049e-01 4.658015e-01 5.266734e-01 5.778198e-01 6.161144e-01 6.393800e-01 6.469135e-01 6.394647e-01 6.189330e-01 5.874425e-01 5.466623e-01 4.978961e-01 4.439542e-01 3.918872e-01 3.532128e-01 3.369942e-01 3.516262e-01 3.990265e-01 4.760421e-01 5.775135e-01 6.790167e-01 7.742052e-01 8.592548e-01 9.423048e-01 1.005708e+00 1.046085e+00 9.593561e-01 7.200012e-01 4.999367e-01 3.530958e-01 2.648129e-01 2.108828e-01 1.745678e-01 1.469359e-01 1.239156e-01 1.038823e-01 8.627241e-02 7.089371e-02 5.763962e-02 4.638410e-02 3.696333e-02 2.918389e-02 2.283859e-02 1.772196e-02 1.363871e-02 1.041271e-02 7.886710e-03 5.927199e-03 4.418911e-03 3.268680e-03 2.397120e-03 
1.946869e-03 1.396004e-03 9.898723e-04 6.909215e-04 4.742886e-04 3.165695e-04 2.047156e-04 1.240341e-04 6.867545e-05 2.911048e-05 3.651150e-06 -1.422536e-05 -2.396311e-05 -3.028880e-05 -3.156388e-05 -3.132676e-05 -2.752099e-05 -2.275053e-05 -1.488282e-05 -5.657957e-06 6.996961e-06 2.219730e-05 4.193397e-05 6.612644e-05 9.667056e-05 1.340673e-04 1.799603e-04 2.348460e-04 2.995752e-04 3.734037e-04 4.551199e-04 5.404667e-04 6.237409e-04 6.934425e-04 7.353697e-04 7.252973e-04 6.347580e-04 4.197021e-04 3.028861e-05 -6.050636e-04 -1.564520e-03 -2.953140e-03 -4.881178e-03 -7.487321e-03 -1.090983e-02 -1.530991e-02 -2.083629e-02 -2.764489e-02 -3.585930e-02 -4.558304e-02 -5.686090e-02 -6.968182e-02 -8.394878e-02 -9.947401e-02 -1.159662e-01 -1.330242e-01 -1.501482e-01 -1.667400e-01 -1.821379e-01 -1.956282e-01 -2.064910e-01 -2.140193e-01 -2.175550e-01 -2.165006e-01 -2.103268e-01 -1.985658e-01 -1.807876e-01 -1.565810e-01 -1.255209e-01 -8.716719e-02 -4.106403e-02 1.319453e-02 7.588997e-02 1.470062e-01 2.260643e-01 3.118651e-01 4.023091e-01 4.942237e-01 5.833883e-01 6.647693e-01 7.330259e-01 7.833726e-01 8.124737e-01 8.193891e-01 8.057472e-01 7.751324e-01 7.311755e-01 6.754317e-01 6.067755e-01 5.249428e-01 4.390975e-01 3.727906e-01 3.368780e-01 3.493802e-01 4.118396e-01 5.166664e-01 6.763809e-01 8.147694e-01 9.410497e-01 1.042444e+00 1.175543e+00 1.274901e+00 1.461991e+00 1.379093e+00 8.545095e-01 4.935651e-01 3.222890e-01 2.473333e-01 2.100307e-01 1.845595e-01 1.619316e-01 1.400244e-01 1.189924e-01 9.945435e-02 8.189741e-02 6.656143e-02 5.347120e-02 4.250793e-02 3.346997e-02 2.611927e-02 2.021139e-02 1.551309e-02 1.181332e-02 8.925692e-03 6.691876e-03 4.977175e-03 3.672302e-03 2.685817e-03 
2.130872e-03 1.519115e-03 1.069046e-03 7.377540e-04 4.984053e-04 3.239636e-04 2.010175e-04 1.121628e-04 5.212301e-05 9.135787e-06 -1.740206e-05 -3.597947e-05 -4.471444e-05 -5.010198e-05 -4.910747e-05 -4.682852e-05 -3.984437e-05 -3.205841e-05 -2.005391e-05 -6.547384e-06 1.173344e-05 3.330882e-05 6.131234e-05 9.548706e-05 1.388557e-04 1.921523e-04 2.581455e-04 3.378695e-04 4.332148e-04 5.439911e-04 6.696483e-04 8.058951e-04 9.466536e-04 1.078708e-03 1.185245e-03 1.236888e-03 1.198426e-03 1.014721e-03 6.224592e-04 -7.006690e-05 -1.164217e-03 -2.797335e-03 -5.115146e-03 -8.302652e-03 -1.254642e-02 -1.806659e-02 -2.506928e-02 -3.377467e-02 -4.436222e-02 -5.698949e-02 -7.173657e-02 -8.861233e-02 -1.075086e-01 -1.281957e-01 -1.502991e-01 -1.732930e-01 -1.965113e-01 -2.191501e-01 -2.403153e-01 -2.590425e-01 -2.743650e-01 -2.853434e-01 -2.911235e-01 -2.909530e-01 -2.841972e-01 -2.703213e-01 -2.488570e-01 -2.193561e-01 -1.813359e-01 -1.342482e-01 -7.746198e-02 -1.032080e-02 6.776646e-02 1.571029e-01 2.574574e-01 3.676724e-01 4.853339e-01 6.064235e-01 7.252205e-01 8.345258e-01 9.263174e-01 9.931015e-01 1.029461e+00 1.033973e+00 1.009915e+00 9.645474e-01 9.052575e-01 8.341596e-01 7.439453e-01 6.227115e-01 4.768613e-01 3.697297e-01 2.948371e-01 3.033521e-01 3.892370e-01 5.103984e-01 8.070047e-01 9.752995e-01 1.147252e+00 1.210312e+00 1.460861e+00 1.476486e+00 2.171040e+00 2.263963e+00 8.412374e-01 3.083708e-01 2.038460e-01 1.999473e-01 2.045162e-01 1.983627e-01 1.822912e-01 1.607300e-01 1.374544e-01 1.148842e-01 9.432747e-02 7.634670e-02 6.105615e-02 4.832129e-02 3.788681e-02 2.945021e-02 2.270693e-02 1.737063e-02 1.318720e-02 9.934570e-03 7.427175e-03 5.507930e-03 4.051370e-03 2.952324e-03 
2.289668e-03 1.620236e-03 1.127694e-03 7.655756e-04 5.035907e-04 3.130061e-04 1.783638e-04 8.157581e-05 1.608595e-05 -3.002581e-05 -5.823542e-05 -7.693343e-05 -8.489009e-05 -8.838236e-05 -8.488423e-05 -7.920944e-05 -6.830916e-05 -5.573917e-05 -3.828065e-05 -1.820698e-05 7.793326e-06 3.883341e-05 7.839500e-05 1.270262e-04 1.884626e-04 2.644956e-04 3.589666e-04 4.741731e-04 6.132905e-04 7.773504e-04 9.668751e-04 1.178126e-03 1.404990e-03 1.632891e-03 1.842276e-03 1.998380e-03 2.058035e-03 1.953536e-03 1.604913e-03 8.966194e-04 -3.022080e-04 -2.168410e-03 -4.893880e-03 -8.721962e-03 -1.390357e-02 -2.073538e-02 -2.950218e-02 -4.051071e-02 -5.402039e-02 -7.026604e-02 -8.938392e-02 -1.114190e-01 -1.362593e-01 -1.636303e-01 -1.930561e-01 -2.238526e-01 -2.551335e-01 -2.858218e-01 -3.147064e-01 -3.404842e-01 -3.618491e-01 -3.775532e-01 -3.864832e-01 -3.877013e-01 -3.804596e-01 -3.641820e-01 -3.384011e-01 -3.026828e-01 -2.565261e-01 -1.992889e-01 -1.301325e-01 -4.805342e-02 4.801938e-02 1.589563e-01 2.850720e-01 4.255502e-01 5.778731e-01 7.371664e-01 8.958466e-01 1.043672e+00 1.168532e+00 1.258373e+00 1.303911e+00 1.302315e+00 1.259654e+00 1.190725e+00 1.112576e+00 1.031782e+00 9.299783e-01 7.596725e-01 4.861982e-01 3.413231e-01 1.741292e-01 1.900980e-01 4.209963e-01 4.084508e-01 6.937964e-01 9.115146e-01 8.458266e-01 4.813884e-01 5.145355e-01 1.632718e-01 9.389591e-01 9.845235e-01 -5.063047e-01 -2.959505e-01 -7.720272e-03 1.517628e-01 2.174024e-01 2.295058e-01 2.150283e-01 1.893734e-01 1.607152e-01 1.330917e-01 1.082960e-01 8.693665e-02 6.902337e-02 5.428271e-02 4.232744e-02 3.274468e-02 2.514074e-02 1.916061e-02 1.449653e-02 1.088643e-02 8.113458e-03 5.997788e-03 4.395908e-03 3.189968e-03 
2.407263e-03 1.684381e-03 1.153254e-03 7.623535e-04 4.802617e-04 2.746408e-04 1.304397e-04 2.663498e-05 -4.205047e-05 -9.018952e-05 -1.175226e-04 -1.349522e-04 -1.393234e-04 -1.392778e-04 -1.303411e-04 -1.194573e-04 -1.016947e-04 -8.238310e-05 -5.650843e-05 -2.763380e-05 9.297360e-06 5.270982e-05 1.078665e-04 1.753208e-04 2.607350e-04 3.666384e-04 4.990203e-04 6.615659e-04 8.597561e-04 1.096321e-03 1.373865e-03 1.689846e-03 2.039057e-03 2.406020e-03 2.769060e-03 3.087701e-03 3.310550e-03 3.355278e-03 3.123126e-03 2.469535e-03 1.228708e-03 -8.257791e-04 -3.942520e-03 -8.440115e-03 -1.465121e-02 -2.297409e-02 -3.379717e-02 -4.754634e-02 -6.459160e-02 -8.528043e-02 -1.098347e-01 -1.383630e-01 -1.707647e-01 -2.067229e-01 -2.456427e-01 -2.866403e-01 -3.285442e-01 -3.699098e-01 -4.090976e-01 -4.443358e-01 -4.738540e-01 -4.959778e-01 -5.092521e-01 -5.125054e-01 -5.048808e-01 -4.858038e-01 -4.548910e-01 -4.118171e-01 -3.561555e-01 -2.872264e-01 -2.039784e-01 -1.049625e-01 1.159415e-02 1.474829e-01 3.040505e-01 4.813677e-01 6.773197e-01 8.864349e-01 1.099036e+00 1.300820e+00 1.473524e+00 1.597444e+00 1.655762e+00 1.641506e+00 1.564114e+00 1.452732e+00 1.347425e+00 1.274210e+00 1.206706e+00 1.018705e+00 3.767633e-01 4.081274e-01 7.451941e-01 5.058018e-01 8.879731e-03 -3.245193e-01 -8.323269e-01 -1.879963e+00 -2.352446e+00 -2.818283e+00 -3.108959e+00 -3.261771e+00 -3.411842e+00 -3.555939e+00 -2.631631e+00 -8.671851e-01 -8.556953e-02 2.053104e-01 2.924270e-01 2.957211e-01 2.668129e-01 2.280862e-01 1.891438e-01 1.538313e-01 1.234027e-01 9.794415e-02 7.705145e-02 6.014155e-02 4.660352e-02 3.586284e-02 2.741032e-02 2.080705e-02 1.568523e-02 1.173831e-02 8.717882e-03 6.419907e-03 4.684311e-03 3.379656e-03 
2.475633e-03 1.704973e-03 1.137836e-03 7.203081e-04 4.181065e-04 1.980304e-04 4.326873e-05 -6.730694e-05 -1.401884e-04 -1.897171e-04 -2.165986e-04 -2.313827e-04 -2.317599e-04 -2.259832e-04 -2.103209e-04 -1.912926e-04 -1.645467e-04 -1.348973e-04 -9.763628e-05 -5.562588e-05 -3.698300e-06 5.758290e-05 1.341648e-04 2.280690e-04 3.463545e-04 4.936058e-04 6.779865e-04 9.058525e-04 1.185506e-03 1.522718e-03 1.923032e-03 2.386506e-03 2.909744e-03 3.477668e-03 4.066902e-03 4.631968e-03 5.112321e-03 5.410158e-03 5.404315e-03 4.917241e-03 3.739993e-03 1.587214e-03 -1.861588e-03 -7.017687e-03 -1.432009e-02 -2.429659e-02 -3.747461e-02 -5.443811e-02 -7.571186e-02 -1.018017e-01 -1.330597e-01 -1.696977e-01 -2.116536e-01 -2.585795e-01 -3.097438e-01 -3.640172e-01 -4.198550e-01 -4.753248e-01 -5.281986e-01 -5.760611e-01 -6.164909e-01 -6.472298e-01 -6.663557e-01 -6.724109e-01 -6.644384e-01 -6.419523e-01 -6.047867e-01 -5.528929e-01 -4.860813e-01 -4.037598e-01 -3.047124e-01 -1.869596e-01 -4.776974e-02 1.160653e-01 3.076438e-01 5.288514e-01 7.789386e-01 1.052600e+00 1.338222e+00 1.616464e+00 1.860207e+00 2.037180e+00 2.116060e+00 2.078601e+00 1.934961e+00 1.738015e+00 1.577605e+00 1.538252e+00 1.633498e+00 1.783796e+00 -3.402950e-01 -1.588738e+00 -1.123592e+00 -1.808712e+00 -2.650667e+00 -4.135070e+00 -4.579751e+00 -4.550698e+00 -4.459333e+00 -4.069100e+00 -4.065853e+00 -3.634297e+00 -4.206844e+00 -4.143935e+00 -1.918079e+00 -2.362577e-01 3.349733e-01 4.732849e-01 4.621653e-01 4.044247e-01 3.376644e-01 2.751443e-01 2.209577e-01 1.756756e-01 1.385978e-01 1.086260e-01 8.462201e-02 6.553969e-02 5.046771e-02 3.863480e-02 2.939844e-02 2.222990e-02 1.669802e-02 1.245297e-02 9.214501e-03 6.757020e-03 4.903795e-03 3.512556e-03 
2.469448e-03 1.657002e-03 1.058801e-03 6.168928e-04 2.974111e-04 6.387421e-05 -9.888328e-05 -2.151124e-04 -2.889786e-04 -3.380288e-04 -3.603269e-04 -3.697203e-04 -3.611858e-04 -3.462259e-04 -3.184662e-04 -2.874063e-04 -2.461730e-04 -2.020438e-04 -1.478709e-04 -8.822432e-05 -1.545494e-05 6.913824e-05 1.742230e-04 3.022478e-04 4.634728e-04 6.642099e-04 9.165144e-04 1.229769e-03 1.616888e-03 2.087634e-03 2.652461e-03 3.315387e-03 4.076940e-03 4.923794e-03 5.832833e-03 6.754152e-03 7.619090e-03 8.312859e-03 8.690569e-03 8.535992e-03 7.591062e-03 5.498671e-03 1.852549e-03 -3.874950e-03 -1.225481e-02 -2.398263e-02 -3.976548e-02 -6.039993e-02 -8.662102e-02 -1.191595e-01 -1.585598e-01 -2.052000e-01 -2.591033e-01 -3.199177e-01 -3.867689e-01 -4.582298e-01 -5.322808e-01 -6.063359e-01 -6.773679e-01 -7.420589e-01 -7.970760e-01 -8.393289e-01 -8.662530e-01 -8.760140e-01 -8.675853e-01 -8.407037e-01 -7.956491e-01 -7.329247e-01 -6.528635e-01 -5.552063e-01 -4.387244e-01 -3.009057e-01 -1.377985e-01 5.581420e-02 2.858201e-01 5.573428e-01 8.727486e-01 1.228579e+00 1.612464e+00 1.999748e+00 2.351656e+00 2.616354e+00 2.735774e+00 2.663597e+00 2.397020e+00 2.018726e+00 1.714782e+00 1.697721e+00 2.157868e+00 -4.252746e-01 -2.279808e+00 -2.337454e+00 -3.824144e+00 -6.146634e+00 -5.671010e+00 -3.528804e+00 -2.306472e+00 -7.933245e-01 -1.794005e-01 4.172755e-01 6.895768e-01 1.063844e+00 1.173746e+00 1.719881e+00 2.041033e+00 1.632029e+00 1.204863e+00 9.065404e-01 6.927698e-01 5.347080e-01 4.150907e-01 3.231102e-01 2.516850e-01 1.958941e-01 1.521866e-01 1.179125e-01 9.104975e-02 7.003098e-02 5.362580e-02 4.086275e-02 3.097015e-02 2.333406e-02 1.746642e-02 1.297807e-02 9.562341e-03 6.974194e-03 5.024461e-03 3.560588e-03 
2.377811e-03 1.529812e-03 9.024105e-04 4.373397e-04 9.905915e-05 -1.484317e-04 -3.214716e-04 -4.435497e-04 -5.198726e-04 -5.672297e-04 -5.847762e-04 -5.857255e-04 -5.662298e-04 -5.372713e-04 -4.936460e-04 -4.443426e-04 -3.834681e-04 -3.176317e-04 -2.402266e-04 -1.547872e-04 -5.347735e-05 6.405603e-05 2.077020e-04 3.824672e-04 6.011630e-04 8.738646e-04 1.216722e-03 1.644287e-03 2.175084e-03 2.825307e-03 3.611964e-03 4.545851e-03 5.633393e-03 6.866064e-03 8.222673e-03 9.651578e-03 1.107624e-02 1.236592e-02 1.334894e-02 1.376752e-02 1.330516e-02 1.152263e-02 7.908276e-03 1.795215e-03 -7.554543e-03 -2.104554e-02 -3.961980e-02 -6.435047e-02 -9.625987e-02 -1.363887e-01 -1.855642e-01 -2.444205e-01 -3.131415e-01 -3.914262e-01 -4.782641e-01 -5.718846e-01 -6.696620e-01 -7.681493e-01 -8.632166e-01 -9.502881e-01 -1.024723e+00 -1.082252e+00 -1.119392e+00 -1.133824e+00 -1.124499e+00 -1.091601e+00 -1.036206e+00 -9.597953e-01 -8.636699e-01 -7.483144e-01 -6.128152e-01 -4.542756e-01 -2.673702e-01 -4.418810e-02 2.252840e-01 5.515572e-01 9.428791e-01 1.400816e+00 1.915119e+00 2.457474e+00 2.975889e+00 3.391364e+00 3.600130e+00 3.494253e+00 3.014098e+00 2.256353e+00 1.584956e+00 1.498171e+00 -1.635940e+00 -4.417578e+00 -3.398208e+00 -7.132740e+00 -8.025815e+00 -2.203969e+00 9.385222e-01 2.663777e+00 3.711894e+00 4.374117e+00 4.400581e+00 4.575139e+00 4.669203e+00 4.623275e+00 4.894553e+00 5.667337e+00 5.581657e+00 3.369627e+00 1.973352e+00 1.277746e+00 8.858988e-01 6.415859e-01 4.772862e-01 3.608239e-01 2.753274e-01 2.111249e-01 1.622157e-01 1.246347e-01 9.561736e-02 7.316670e-02 5.579206e-02 4.236297e-02 3.200561e-02 2.404146e-02 1.793855e-02 1.327971e-02 9.737899e-03 7.055558e-03 5.033493e-03 3.513683e-03 
2.159733e-03 1.280765e-03 6.275116e-04 1.394305e-04 -2.162506e-04 -4.782006e-04 -6.592807e-04 -7.863050e-04 -8.606575e-04 -9.031366e-04 -9.090311e-04 -8.960578e-04 -8.566691e-04 -8.064839e-04 -7.368559e-04 -6.610892e-04 -5.700653e-04 -4.739196e-04 -3.628681e-04 -2.427528e-04 -1.023224e-04 5.806843e-05 2.523574e-04 4.867930e-04 7.793424e-04 1.143588e-03 1.602406e-03 2.176310e-03 2.892374e-03 3.775008e-03 4.851255e-03 6.141299e-03 7.661541e-03 9.411276e-03 1.137561e-02 1.350374e-02 1.571497e-02 1.786309e-02 1.975082e-02 2.107432e-02 2.145406e-02 2.035472e-02 1.714352e-02 1.098450e-02 9.385135e-04 -1.416191e-02 -3.555491e-02 -6.467599e-02 -1.029292e-01 -1.517841e-01 -2.124734e-01 -2.860223e-01 -3.728961e-01 -4.729422e-01 -5.850610e-01 -7.071020e-01 -8.356984e-01 -9.662649e-01 -1.093173e+00 -1.210059e+00 -1.310408e+00 -1.388212e+00 -1.438664e+00 -1.458759e+00 -1.447512e+00 -1.405909e+00 -1.336371e+00 -1.242020e+00 -1.125801e+00 -9.895880e-01 -8.333603e-01 -6.542955e-01 -4.458075e-01 -1.967731e-01 1.085553e-01 4.889039e-01 9.626520e-01 1.541608e+00 2.223631e+00 2.982146e+00 3.755454e+00 4.433498e+00 4.846578e+00 4.766254e+00 3.965667e+00 2.433776e+00 8.702745e-01 -1.948929e+00 -4.461171e+00 -4.289937e+00 -1.058630e+01 -7.750713e+00 1.943521e+00 5.995181e+00 6.339736e+00 5.832304e+00 5.727950e+00 4.781085e+00 4.583018e+00 3.870834e+00 3.629170e+00 3.215025e+00 2.847452e+00 3.256174e+00 4.918300e+00 3.358785e+00 2.079142e+00 1.373381e+00 9.530768e-01 6.854713e-01 5.053114e-01 3.786860e-01 2.867769e-01 2.185350e-01 1.670589e-01 1.278307e-01 9.774116e-02 7.458335e-02 5.673446e-02 4.298210e-02 3.239979e-02 2.427549e-02 1.805548e-02 1.330808e-02 9.697300e-03 6.958812e-03 4.890273e-03 3.330071e-03 