# vtk DataFile Version 2.0
Comment goes here
ASCII

DATASET STRUCTURED_POINTS
DIMENSIONS    128   128   1

ORIGIN    0.000   0.000   0.000
SPACING   0.0156250.015625   1.000

POINT_DATA   16384
SCALARS Omega double
LOOKUP_TABLE default

-8.773867e-11 -2.345316e-11 -4.746541e-11 -1.418281e-12 -4.138103e-11 2.934889e-12 -4.303208e-11 3.184722e-12 -4.509072e-11 2.750041e-12 -4.557022e-11 2.440380e-12 -4.380649e-11 2.410780e-12 -3.962339e-11 2.640196e-12 -3.309953e-11 3.004486e-12 -2.457452e-11 3.338644e-12 -1.463771e-11 3.423383e-12 -4.087640e-12 3.050366e-12 6.075835e-12 2.102943e-12 1.478293e-11 6.014925e-13 2.093363e-11 -1.204715e-12 2.357358e-11 -2.842049e-12 2.200009e-11 -3.616888e-12 1.592568e-11 -2.745878e-12 5.660607e-12 4.589066e-13 -7.778900e-12 6.241851e-12 -2.271570e-11 1.391413e-11 -3.716458e-11 2.107623e-11 -4.986368e-11 2.247119e-11 -6.225510e-11 8.374351e-12 -8.152357e-11 -3.731478e-11 -1.240227e-10 -1.379411e-10 -2.168605e-10 -3.219137e-10 -3.943811e-10 -6.145756e-10 -6.859246e-10 -1.022535e-09 -1.094376e-09 -1.512360e-09 -1.569436e-09 -1.987735e-09 -1.979144e-09 -2.260130e-09 -2.064178e-09 -1.975537e-09 -1.312289e-09 -4.035532e-10 1.367598e-09 4.043665e-09 8.289992e-09 1.461832e-08 2.389479e-08 3.712055e-08 5.541177e-08 8.008128e-08 1.122507e-07 1.530510e-07 2.029794e-07 2.622339e-07 3.299080e-07 4.046863e-07 4.840247e-07 5.654780e-07 6.460963e-07 7.243693e-07 7.999866e-07 8.757476e-07 9.573444e-07 1.053889e-06 1.176778e-06 1.337663e-06 1.545936e-06 1.804917e-06 2.109577e-06 2.444221e-06 2.783367e-06 3.093367e-06 3.336437e-06 3.475047e-06 3.477451e-06 3.324862e-06 3.018242e-06 2.584095e-06 2.072145e-06 1.544746e-06 1.060072e-06 6.580345e-07 3.556335e-07 1.495068e-07 2.391591e-08 -4.200337e-08 -6.826485e-08 -7.122937e-08 -6.256819e-08 -4.972051e-08 -3.685450e-08 -2.587478e-08 -1.738861e-08 -1.123125e-08 -7.028214e-09 -4.243755e-09 -2.512352e-09 -1.423524e-09 -8.144996e-10 -4.263030e-10 -2.519789e-10 -1.121074e-10 
2.927189e-07 1.592733e-07 9.067746e-08 4.696400e-08 2.719380e-08 8.842840e-09 2.447071e-09 -9.265148e-09 -1.215284e-08 -2.188275e-08 -2.357394e-08 -3.201957e-08 -3.281815e-08 -3.973402e-08 -3.952570e-08 -4.457851e-08 -4.325699e-08 -4.626215e-08 -4.382618e-08 -4.480338e-08 -4.135619e-08 -4.052172e-08 -3.623813e-08 -3.396883e-08 -2.905437e-08 -2.583899e-08 -2.049640e-08 -1.688480e-08 -1.129783e-08 -7.854176e-09 -2.195012e-09 5.411925e-10 6.077425e-09 7.615645e-09 1.273931e-08 1.261934e-08 1.679452e-08 1.443091e-08 1.650673e-08 1.065463e-08 7.951848e-09 -4.694757e-09 -1.843650e-08 -4.624123e-08 -8.476383e-08 -1.462886e-07 -2.366501e-07 -3.671601e-07 -5.554765e-07 -8.110025e-07 -1.162478e-06 -1.613929e-06 -2.198807e-06 -2.908049e-06 -3.768010e-06 -4.745300e-06 -5.846542e-06 -7.003482e-06 -8.196611e-06 -9.316909e-06 -1.031910e-05 -1.104555e-05 -1.141254e-05 -1.117441e-05 -1.013360e-05 -7.828055e-06 -3.736841e-06 3.101654e-06 1.392538e-05 3.064331e-05 5.572174e-05 9.246552e-05 1.448892e-04 2.176993e-04 3.160059e-04 4.448585e-04 6.086876e-04 8.104850e-04 1.051119e-03 1.328664e-03 1.638115e-03 1.971666e-03 2.319490e-03 2.671548e-03 3.019700e-03 3.360745e-03 3.699196e-03 4.049907e-03 4.439242e-03 4.904074e-03 5.487785e-03 6.233039e-03 7.172033e-03 8.316316e-03 9.647639e-03 1.111373e-02 1.262875e-02 1.407994e-02 1.533613e-02 1.625709e-02 1.670507e-02 1.656496e-02 1.577621e-02 1.436997e-02 1.248734e-02 1.035329e-02 8.210163e-03 6.252471e-03 4.594893e-03 3.274733e-03 2.273961e-03 1.544931e-03 1.030547e-03 6.768425e-04 4.385826e-04 2.807931e-04 1.777471e-04 1.112879e-04 6.890162e-05 4.217052e-05 2.549859e-05 1.522317e-05 8.970282e-06 5.213500e-06 2.991773e-06 1.692709e-06 9.499055e-07 5.253989e-07 
5.936012e-07 3.182033e-07 1.827258e-07 9.211253e-08 5.785320e-08 2.010296e-08 1.416877e-08 -9.303171e-09 -7.558244e-09 -2.658774e-08 -2.241898e-08 -3.874947e-08 -3.330682e-08 -4.671738e-08 -4.023141e-08 -5.025860e-08 -4.286739e-08 -4.928207e-08 -4.121310e-08 -4.414645e-08 -3.572251e-08 -3.567262e-08 -2.726369e-08 -2.504085e-08 -1.699727e-08 -1.362748e-08 -6.211692e-09 -2.810163e-09 3.860382e-09 6.235096e-09 1.222010e-08 1.271682e-08 1.824065e-08 1.633782e-08 2.168275e-08 1.718564e-08 2.234664e-08 1.499167e-08 1.870633e-08 6.731979e-09 4.017584e-09 -1.955849e-08 -4.289395e-08 -9.814651e-08 -1.758225e-07 -3.093390e-07 -5.099504e-07 -8.118136e-07 -1.253989e-06 -1.868591e-06 -2.721498e-06 -3.832899e-06 -5.280465e-06 -7.051385e-06 -9.205997e-06 -1.166872e-05 -1.445072e-05 -1.738715e-05 -2.042402e-05 -2.329594e-05 -2.588766e-05 -2.782348e-05 -2.890612e-05 -2.857160e-05 -2.637926e-05 -2.129502e-05 -1.216530e-05 3.154319e-06 2.742504e-05 6.492387e-05 1.211860e-04 2.036452e-04 3.213321e-04 4.848340e-04 7.056038e-04 9.949048e-04 1.362467e-03 1.814638e-03 2.352716e-03 2.971486e-03 3.658458e-03 4.394607e-03 5.156043e-03 5.918181e-03 6.660427e-03 7.373078e-03 8.063631e-03 8.763042e-03 9.528887e-03 1.044386e-02 1.160733e-02 1.311931e-02 1.505823e-02 1.745730e-02 2.028291e-02 2.342454e-02 2.669598e-02 2.985224e-02 3.260967e-02 3.466362e-02 3.570702e-02 3.546849e-02 3.378610e-02 3.070652e-02 2.654905e-02 2.184704e-02 1.716885e-02 1.295153e-02 9.432621e-03 6.669950e-03 4.602581e-03 3.112877e-03 2.070685e-03 1.358371e-03 8.803365e-04 5.642816e-04 3.578782e-04 2.245824e-04 1.393891e-04 8.551473e-05 5.182334e-05 3.099612e-05 1.829451e-05 1.064143e-05 6.111675e-06 3.454323e-06 1.938047e-06 1.066250e-06 
9.323878e-07 5.071719e-07 2.881305e-07 1.495498e-07 8.652105e-08 2.897884e-08 8.686939e-09 -2.769700e-08 -3.678003e-08 -6.691174e-08 -7.217476e-08 -9.831183e-08 -1.007410e-07 -1.221295e-07 -1.213831e-07 -1.369864e-07 -1.327508e-07 -1.420000e-07 -1.342965e-07 -1.372626e-07 -1.264426e-07 -1.238083e-07 -1.104458e-07 -1.033877e-07 -8.814619e-08 -7.818091e-08 -6.170297e-08 -5.052960e-08 -3.338075e-08 -2.273999e-08 -5.428330e-09 3.007568e-09 1.991709e-08 2.458862e-08 4.019971e-08 3.949175e-08 5.189265e-08 4.326915e-08 4.768825e-08 2.487352e-08 8.898547e-09 -4.547584e-08 -1.128461e-07 -2.430493e-07 -4.324451e-07 -7.370535e-07 -1.190592e-06 -1.857713e-06 -2.821075e-06 -4.151340e-06 -5.975770e-06 -8.352502e-06 -1.142072e-05 -1.518261e-05 -1.972775e-05 -2.493988e-05 -3.079246e-05 -3.699652e-05 -4.337857e-05 -4.946042e-05 -5.494040e-05 -5.915089e-05 -6.164961e-05 -6.146262e-05 -5.774332e-05 -4.871699e-05 -3.229977e-05 -4.749320e-06 3.888029e-05 1.061829e-04 2.071009e-04 3.549655e-04 5.660229e-04 8.592913e-04 1.255269e-03 1.773943e-03 2.432243e-03 3.240543e-03 4.199582e-03 5.297625e-03 6.509193e-03 7.796269e-03 9.111565e-03 1.040587e-02 1.163662e-02 1.278010e-02 1.384301e-02 1.487443e-02 1.597302e-02 1.728650e-02 1.899813e-02 2.129851e-02 2.434464e-02 2.821577e-02 3.287073e-02 3.812797e-02 4.366780e-02 4.906964e-02 5.385474e-02 5.750856e-02 5.949226e-02 5.928340e-02 5.651018e-02 5.117479e-02 4.385745e-02 3.561683e-02 2.755461e-02 2.045325e-02 1.467486e-02 1.024641e-02 7.002328e-03 4.705127e-03 3.118965e-03 2.044353e-03 1.326624e-03 8.527500e-04 5.428729e-04 3.421173e-04 2.132441e-04 1.313564e-04 7.988974e-05 4.793600e-05 2.836366e-05 1.653848e-05 9.513096e-06 5.391006e-06 3.027470e-06 1.674972e-06 
1.293573e-06 6.927604e-07 3.954794e-07 1.995308e-07 1.239915e-07 4.371894e-08 3.014617e-08 -1.908086e-08 -1.588801e-08 -5.563970e-08 -4.716054e-08 -8.128245e-08 -7.002477e-08 -9.806605e-08 -8.453420e-08 -1.055071e-07 -9.000338e-08 -1.034173e-07 -8.643706e-08 -9.256661e-08 -7.481162e-08 -7.470493e-08 -5.697966e-08 -5.233744e-08 -3.540500e-08 -2.837492e-08 -1.280814e-08 -5.721835e-09 8.223356e-09 1.314730e-08 2.560610e-08 2.655907e-08 3.802043e-08 3.379933e-08 4.477636e-08 3.453708e-08 4.437107e-08 2.591908e-08 2.912533e-08 -6.821184e-09 -3.032605e-08 -1.151340e-07 -2.225365e-07 -4.419086e-07 -7.708249e-07 -1.320890e-06 -2.155269e-06 -3.415288e-06 -5.252715e-06 -7.834091e-06 -1.139279e-05 -1.608148e-05 -2.215200e-05 -2.965148e-05 -3.872783e-05 -4.919218e-05 -6.095397e-05 -7.347980e-05 -8.638028e-05 -9.876030e-05 -1.099870e-04 -1.188507e-04 -1.245104e-04 -1.253122e-04 -1.198260e-04 -1.051695e-04 -7.794947e-05 -3.208061e-05 4.056582e-05 1.525322e-04 3.203720e-04 5.663700e-04 9.177690e-04 1.406492e-03 2.066827e-03 2.931976e-03 4.029401e-03 5.374786e-03 6.966377e-03 8.780191e-03 1.076761e-02 1.285774e-02 1.496295e-02 1.699154e-02 1.886179e-02 2.052226e-02 2.197086e-02 2.327620e-02 2.459276e-02 2.616521e-02 2.830986e-02 3.136851e-02 3.563763e-02 4.129096e-02 4.829808e-02 5.638565e-02 6.503745e-02 7.357653e-02 8.126679e-02 8.732868e-02 9.091014e-02 9.106595e-02 8.696978e-02 7.837748e-02 6.627038e-02 5.273707e-02 3.984866e-02 2.889219e-02 2.030162e-02 1.394116e-02 9.416531e-03 6.285018e-03 4.156973e-03 2.728546e-03 1.777766e-03 1.149237e-03 7.363535e-04 4.670864e-04 2.929388e-04 1.814306e-04 1.108590e-04 6.675969e-05 3.961548e-05 2.313662e-05 1.332393e-05 7.543547e-06 4.233508e-06 2.328985e-06 
1.734417e-06 9.422208e-07 5.329164e-07 2.777028e-07 1.603060e-07 5.648015e-08 1.880515e-08 -4.577409e-08 -6.259013e-08 -1.157854e-07 -1.254862e-07 -1.715554e-07 -1.759900e-07 -2.136024e-07 -2.121819e-07 -2.394891e-07 -2.316962e-07 -2.477104e-07 -2.336576e-07 -2.385540e-07 -2.189651e-07 -2.140105e-07 -1.900102e-07 -1.773326e-07 -1.501889e-07 -1.324889e-07 -1.033952e-07 -8.366247e-08 -5.361694e-08 -3.489015e-08 -4.714297e-09 1.008244e-08 3.951783e-08 4.753633e-08 7.460795e-08 7.228923e-08 9.244130e-08 7.216672e-08 7.129410e-08 1.068001e-08 -5.295875e-08 -2.192004e-07 -4.575393e-07 -8.989633e-07 -1.577514e-06 -2.676220e-06 -4.342932e-06 -6.836143e-06 -1.045575e-05 -1.553509e-05 -2.250823e-05 -3.171226e-05 -4.358977e-05 -5.830290e-05 -7.606128e-05 -9.659396e-05 -1.196126e-04 -1.442024e-04 -1.694656e-04 -1.938341e-04 -2.159458e-04 -2.337449e-04 -2.455836e-04 -2.488349e-04 -2.410758e-04 -2.179193e-04 -1.739922e-04 -9.990194e-05 1.725745e-05 1.973672e-04 4.670752e-04 8.623672e-04 1.427518e-03 2.214500e-03 3.279066e-03 4.674852e-03 6.445292e-03 8.613214e-03 1.117110e-02 1.407271e-02 1.722935e-02 2.051378e-02 2.377025e-02 2.683526e-02 2.956055e-02 3.184429e-02 3.366088e-02 3.509621e-02 3.637862e-02 3.789682e-02 4.018016e-02 4.382475e-02 4.937269e-02 5.718546e-02 6.728286e-02 7.927275e-02 9.232253e-02 1.053402e-01 1.172587e-01 1.269996e-01 1.333571e-01 1.346879e-01 1.292037e-01 1.157590e-01 9.591823e-02 7.404898e-02 5.408484e-02 3.797560e-02 2.598401e-02 1.750515e-02 1.169246e-02 7.774076e-03 5.152500e-03 3.403188e-03 2.236722e-03 1.460052e-03 9.445681e-04 6.045047e-04 3.820511e-04 2.381437e-04 1.462472e-04 8.841771e-05 5.260980e-05 3.079374e-05 1.775240e-05 1.007011e-05 5.652626e-06 3.124416e-06 
2.202825e-06 1.176321e-06 6.654693e-07 3.358158e-07 2.056449e-07 7.377709e-08 4.935287e-08 -3.010276e-08 -2.606935e-08 -8.996698e-08 -7.696044e-08 -1.318521e-07 -1.140959e-07 -1.592382e-07 -1.375771e-07 -1.713224e-07 -1.462695e-07 -1.678043e-07 -1.402048e-07 -1.499850e-07 -1.210364e-07 -1.207832e-07 -9.186091e-08 -8.434368e-08 -5.675642e-08 -4.544755e-08 -2.018058e-08 -8.829202e-09 1.368532e-08 2.152316e-08 4.155807e-08 4.296689e-08 6.142755e-08 5.428376e-08 7.184188e-08 5.358608e-08 6.704004e-08 2.858126e-08 1.870582e-08 -7.572294e-08 -1.784366e-07 -4.448921e-07 -8.419200e-07 -1.594685e-06 -2.781045e-06 -4.742706e-06 -7.759388e-06 -1.234129e-05 -1.904377e-05 -2.854898e-05 -4.165822e-05 -5.908813e-05 -8.164938e-05 -1.097401e-04 -1.437147e-04 -1.831406e-04 -2.273969e-04 -2.748103e-04 -3.235697e-04 -3.707823e-04 -4.137802e-04 -4.489061e-04 -4.731606e-04 -4.822658e-04 -4.723775e-04 -4.369066e-04 -3.678179e-04 -2.510095e-04 -6.678707e-05 2.155544e-04 6.377455e-04 1.256647e-03 2.142787e-03 3.379380e-03 5.055835e-03 7.257963e-03 1.005409e-02 1.347760e-02 1.750990e-02 2.206651e-02 2.699057e-02 3.206040e-02 3.700678e-02 4.154844e-02 4.542778e-02 4.845800e-02 5.056403e-02 5.183741e-02 5.259439e-02 5.343072e-02 5.521529e-02 5.897111e-02 6.566206e-02 7.602051e-02 9.019415e-02 1.076620e-01 1.270401e-01 1.464522e-01 1.644578e-01 1.797116e-01 1.908815e-01 1.952319e-01 1.891329e-01 1.684129e-01 1.352192e-01 9.967010e-02 6.933432e-02 4.665387e-02 3.093684e-02 2.046623e-02 1.359239e-02 9.075701e-03 6.080878e-03 4.074062e-03 2.718456e-03 1.800047e-03 1.179217e-03 7.625451e-04 4.859151e-04 3.047589e-04 1.879925e-04 1.139776e-04 6.793269e-05 3.977265e-05 2.291985e-05 1.297032e-05 7.263113e-06 3.986348e-06 
2.795243e-06 1.513908e-06 8.513407e-07 4.456947e-07 2.569662e-07 9.577624e-08 3.528330e-08 -6.341408e-08 -9.056484e-08 -1.715456e-07 -1.872459e-07 -2.572705e-07 -2.644109e-07 -3.213653e-07 -3.190381e-07 -3.600511e-07 -3.475379e-07 -3.711522e-07 -3.487886e-07 -3.553996e-07 -3.245164e-07 -3.162092e-07 -2.787637e-07 -2.589039e-07 -2.170357e-07 -1.897841e-07 -1.454283e-07 -1.152865e-07 -6.992811e-08 -4.136613e-08 4.002673e-09 2.677535e-08 7.131479e-08 8.405606e-08 1.254680e-07 1.213068e-07 1.495348e-07 1.079273e-07 8.379779e-08 -6.570345e-08 -2.721263e-07 -7.475372e-07 -1.506833e-06 -2.891760e-06 -5.116523e-06 -8.754264e-06 -1.437755e-05 -2.290634e-05 -3.540248e-05 -5.315812e-05 -7.766559e-05 -1.103433e-04 -1.526657e-04 -2.055097e-04 -2.694415e-04 -3.438118e-04 -4.272791e-04 -5.168808e-04 -6.089670e-04 -6.983561e-04 -7.798188e-04 -8.470189e-04 -8.944433e-04 -9.153442e-04 -9.036293e-04 -8.498735e-04 -7.423954e-04 -5.608902e-04 -2.761054e-04 1.580582e-04 8.055865e-04 1.754584e-03 3.115632e-03 5.020213e-03 7.610310e-03 1.102242e-02 1.536424e-02 2.068533e-02 2.694818e-02 3.400416e-02 4.158342e-02 4.930776e-02 5.672338e-02 6.336014e-02 6.879046e-02 7.269466e-02 7.490989e-02 7.550037e-02 7.486182e-02 7.386329e-02 7.391250e-02 7.675358e-02 8.402347e-02 9.722103e-02 1.167255e-01 1.420273e-01 1.707435e-01 1.991549e-01 2.256846e-01 2.487039e-01 2.680749e-01 2.793050e-01 2.763928e-01 2.450726e-01 1.865393e-01 1.276887e-01 8.269781e-02 5.266231e-02 3.382040e-02 2.218038e-02 1.487517e-02 1.014160e-02 6.968101e-03 4.785002e-03 3.262502e-03 2.198569e-03 1.459922e-03 9.535206e-04 6.118573e-04 3.855153e-04 2.384425e-04 1.447566e-04 8.628660e-05 5.050231e-05 2.906745e-05 1.644537e-05 9.195610e-06 5.062964e-06 
3.393476e-06 1.802817e-06 1.009331e-06 5.087777e-07 3.072040e-07 1.116384e-07 7.251180e-08 -4.381663e-08 -3.960549e-08 -1.331386e-07 -1.151982e-07 -1.957319e-07 -1.703723e-07 -2.366402e-07 -2.051033e-07 -2.545457e-07 -2.176220e-07 -2.490085e-07 -2.080276e-07 -2.220807e-07 -1.789318e-07 -1.782732e-07 -1.351296e-07 -1.239084e-07 -8.284271e-08 -6.618542e-08 -2.874863e-08 -1.210265e-08 2.109827e-08 3.269807e-08 6.237865e-08 6.503287e-08 9.326502e-08 8.425005e-08 1.125655e-07 8.651569e-08 1.059243e-07 3.610037e-08 -9.829920e-09 -2.356861e-07 -5.611232e-07 -1.317364e-06 -2.567505e-06 -4.890646e-06 -8.699315e-06 -1.502143e-05 -2.491002e-05 -4.007279e-05 -6.245327e-05 -9.450487e-05 -1.389705e-04 -1.986029e-04 -2.761260e-04 -3.733343e-04 -4.912638e-04 -6.288681e-04 -7.835861e-04 -9.500212e-04 -1.121242e-03 -1.287752e-03 -1.439740e-03 -1.565939e-03 -1.656562e-03 -1.700743e-03 -1.689256e-03 -1.608923e-03 -1.443813e-03 -1.165752e-03 -7.330853e-04 -7.845353e-05 8.937937e-04 2.317633e-03 4.363798e-03 7.237672e-03 1.116325e-02 1.635747e-02 2.299176e-02 3.114325e-02 4.074513e-02 5.154558e-02 6.308960e-02 7.474325e-02 8.575248e-02 9.535044e-02 1.028547e-01 1.077594e-01 1.097668e-01 1.088460e-01 1.053864e-01 1.005485e-01 9.659744e-02 9.657223e-02 1.029413e-01 1.190291e-01 1.452574e-01 1.820418e-01 2.253458e-01 2.659053e-01 3.040777e-01 3.363024e-01 3.694309e-01 3.941386e-01 4.085265e-01 3.638346e-01 2.501162e-01 1.507204e-01 8.751398e-02 5.211125e-02 3.290630e-02 2.210113e-02 1.550416e-02 1.109773e-02 7.956724e-03 5.648512e-03 3.945511e-03 2.703565e-03 1.815031e-03 1.193420e-03 7.686038e-04 4.849640e-04 2.999200e-04 1.818353e-04 1.081643e-04 6.311715e-05 3.620760e-05 2.038620e-05 1.134446e-05 6.190408e-06 
4.153416e-06 2.240494e-06 1.253848e-06 6.603108e-07 3.818194e-07 1.501159e-07 6.031594e-08 -8.084296e-08 -1.220375e-07 -2.380770e-07 -2.622378e-07 -3.625139e-07 -3.735166e-07 -4.546231e-07 -4.510489e-07 -5.087303e-07 -4.896603e-07 -5.219385e-07 -4.881596e-07 -4.958855e-07 -4.497292e-07 -4.362262e-07 -3.809447e-07 -3.512919e-07 -2.903157e-07 -2.505470e-07 -1.868089e-07 -1.431675e-07 -7.856472e-08 -3.682702e-08 2.817363e-08 6.328733e-08 1.295816e-07 1.540152e-07 2.209469e-07 2.248525e-07 2.742106e-07 2.105888e-07 1.447409e-07 -1.805096e-07 -7.292316e-07 -1.966584e-06 -4.118821e-06 -8.088680e-06 -1.472149e-05 -2.574472e-05 -4.313914e-05 -6.991441e-05 -1.096438e-04 -1.667897e-04 -2.463701e-04 -3.535303e-04 -4.932509e-04 -6.690612e-04 -8.828152e-04 -1.132905e-03 -1.414465e-03 -1.717893e-03 -2.030132e-03 -2.334122e-03 -2.611587e-03 -2.842797e-03 -3.010364e-03 -3.097085e-03 -3.089108e-03 -2.969052e-03 -2.716388e-03 -2.294270e-03 -1.645701e-03 -6.755451e-04 7.557642e-04 2.847905e-03 5.860469e-03 1.011075e-02 1.594973e-02 2.372205e-02 3.370358e-02 4.602076e-02 6.056620e-02 7.692581e-02 9.434684e-02 1.117768e-01 1.279754e-01 1.417094e-01 1.519355e-01 1.579286e-01 1.592455e-01 1.556458e-01 1.472322e-01 1.352134e-01 1.232180e-01 1.171386e-01 1.190155e-01 1.379292e-01 1.715167e-01 2.254742e-01 2.947419e-01 3.491917e-01 4.045439e-01 4.408589e-01 4.987762e-01 5.401212e-01 6.213197e-01 5.712389e-01 3.137253e-01 1.471779e-01 7.099440e-02 3.992773e-02 2.699658e-02 2.044836e-02 1.601355e-02 1.241314e-02 9.372349e-03 6.866581e-03 4.884379e-03 3.379444e-03 2.278576e-03 1.499624e-03 9.646639e-04 6.071639e-04 3.742448e-04 2.260565e-04 1.339241e-04 7.785232e-05 4.448223e-05 2.498122e-05 1.386058e-05 7.578797e-06 
4.840231e-06 2.555384e-06 1.418118e-06 7.136328e-07 4.272549e-07 1.557519e-07 9.908215e-08 -6.279096e-08 -5.875108e-08 -1.899891e-07 -1.664072e-07 -2.799194e-07 -2.453203e-07 -3.387220e-07 -2.947343e-07 -3.641215e-07 -3.118972e-07 -3.555001e-07 -2.970601e-07 -3.160475e-07 -2.542745e-07 -2.525670e-07 -1.907782e-07 -1.744051e-07 -1.157528e-07 -9.196076e-08 -3.871911e-08 -1.489242e-08 3.244202e-08 5.016666e-08 9.411587e-08 1.026485e-07 1.500065e-07 1.502497e-07 2.096402e-07 1.983435e-07 2.570347e-07 1.776741e-07 1.013140e-07 -3.392492e-07 -1.129660e-06 -2.992901e-06 -6.360474e-06 -1.272865e-05 -2.359880e-05 -4.195352e-05 -7.129091e-05 -1.169439e-04 -1.852652e-04 -2.843160e-04 -4.231150e-04 -6.111381e-04 -8.574708e-04 -1.168856e-03 -1.548834e-03 -1.994903e-03 -2.498367e-03 -3.042078e-03 -3.602253e-03 -4.148119e-03 -4.646448e-03 -5.062345e-03 -5.365429e-03 -5.528048e-03 -5.530083e-03 -5.349757e-03 -4.963505e-03 -4.326607e-03 -3.365910e-03 -1.952181e-03 1.119492e-04 3.117546e-03 7.452750e-03 1.360191e-02 2.211182e-02 3.353046e-02 4.830828e-02 6.666582e-02 8.844974e-02 1.130030e-01 1.390992e-01 1.650030e-01 1.886704e-01 2.081226e-01 2.218135e-01 2.288635e-01 2.288378e-01 2.212135e-01 2.050801e-01 1.804641e-01 1.527380e-01 1.372012e-01 1.247104e-01 1.490061e-01 1.854734e-01 2.638584e-01 3.923500e-01 4.476947e-01 5.427306e-01 5.444255e-01 6.680539e-01 6.715968e-01 9.945665e-01 1.013613e+00 3.026797e-01 6.215079e-02 1.476875e-02 1.352024e-02 1.787855e-02 1.936714e-02 1.794548e-02 1.502294e-02 1.173360e-02 8.710317e-03 6.214320e-03 4.290590e-03 2.879722e-03 1.884409e-03 1.204712e-03 7.534764e-04 4.615566e-04 2.770930e-04 1.631958e-04 9.430099e-05 5.356871e-05 2.988149e-05 1.647018e-05 8.912406e-06 
5.712310e-06 3.073951e-06 1.719894e-06 9.147073e-07 5.349626e-07 2.209033e-07 9.573209e-08 -9.879063e-08 -1.589694e-07 -3.207642e-07 -3.570995e-07 -4.970165e-07 -5.137048e-07 -6.259754e-07 -6.206764e-07 -6.990808e-07 -6.706800e-07 -7.127108e-07 -6.628336e-07 -6.702590e-07 -6.028799e-07 -5.809896e-07 -5.013767e-07 -4.577194e-07 -3.711962e-07 -3.142107e-07 -2.249217e-07 -1.625531e-07 -7.209743e-08 -1.006869e-08 8.449089e-08 1.453298e-07 2.541498e-07 3.201296e-07 4.589713e-07 5.332771e-07 6.908241e-07 6.987991e-07 6.794443e-07 1.722453e-07 -9.349681e-07 -3.669326e-06 -8.911179e-06 -1.899198e-05 -3.662733e-05 -6.673877e-05 -1.155021e-04 -1.920370e-04 -3.075462e-04 -4.761714e-04 -7.139354e-04 -1.037860e-03 -1.464302e-03 -2.005864e-03 -2.669199e-03 -3.450663e-03 -4.334899e-03 -5.291931e-03 -6.278903e-03 -7.241253e-03 -8.119115e-03 -8.851524e-03 -9.385543e-03 -9.677070e-03 -9.697230e-03 -9.421519e-03 -8.827518e-03 -7.867954e-03 -6.456277e-03 -4.426045e-03 -1.507457e-03 2.713140e-03 8.805584e-03 1.750015e-02 2.964237e-02 4.610369e-02 6.762768e-02 9.461678e-02 1.268883e-01 1.634383e-01 2.023037e-01 2.406298e-01 2.750195e-01 3.022382e-01 3.200253e-01 3.276433e-01 3.253850e-01 3.128132e-01 2.866765e-01 2.412899e-01 1.794713e-01 1.614991e-01 9.902927e-02 1.549078e-01 1.902302e-01 2.333297e-01 4.556151e-01 4.384720e-01 4.195994e-01 2.321340e-01 2.414524e-01 8.399994e-02 4.286268e-01 4.333934e-01 -3.152767e-01 -2.115201e-01 -8.502090e-02 -1.579883e-02 1.453674e-02 2.406385e-02 2.397773e-02 2.021478e-02 1.562831e-02 1.143396e-02 8.037395e-03 5.473096e-03 3.627728e-03 2.347455e-03 1.485751e-03 9.209235e-04 5.595413e-04 3.334627e-04 1.950739e-04 1.120674e-04 6.332105e-05 3.519937e-05 1.934354e-05 1.049416e-05 
6.345374e-06 3.333506e-06 1.843585e-06 9.273894e-07 5.565841e-07 2.007701e-07 1.269844e-07 -9.120507e-08 -8.690365e-08 -2.674200e-07 -2.370266e-07 -3.942405e-07 -3.480478e-07 -4.772213e-07 -4.171009e-07 -5.122899e-07 -4.398672e-07 -4.986364e-07 -4.169395e-07 -4.412675e-07 -3.546248e-07 -3.504139e-07 -2.637826e-07 -2.397107e-07 -1.577143e-07 -1.236916e-07 -4.926534e-08 -1.433196e-08 5.360652e-08 8.482160e-08 1.559711e-07 1.897803e-07 2.903744e-07 3.527849e-07 5.305352e-07 6.604897e-07 9.455134e-07 1.090520e-06 1.260386e-06 8.145353e-07 -4.549550e-07 -4.101126e-06 -1.158785e-05 -2.664393e-05 -5.380061e-05 -1.012134e-04 -1.793162e-04 -3.035984e-04 -4.932654e-04 -7.728329e-04 -1.170229e-03 -1.715604e-03 -2.438111e-03 -3.360917e-03 -4.496787e-03 -5.840714e-03 -7.366718e-03 -9.022863e-03 -1.073374e-02 -1.240312e-02 -1.392491e-02 -1.519249e-02 -1.611444e-02 -1.661961e-02 -1.666751e-02 -1.623493e-02 -1.531137e-02 -1.386005e-02 -1.179361e-02 -8.912797e-03 -4.865700e-03 9.179711e-04 9.257037e-03 2.123587e-02 3.815161e-02 6.138720e-02 9.218229e-02 1.312936e-01 1.785876e-01 2.326124e-01 2.902954e-01 3.469623e-01 3.968718e-01 4.345210e-01 4.564309e-01 4.627268e-01 4.565468e-01 4.398723e-01 4.064819e-01 3.334372e-01 1.714924e-01 2.590727e-01 2.398513e-01 2.632628e-01 2.404667e-01 -9.354017e-02 -4.221425e-01 -8.833257e-01 -1.144555e+00 -1.338918e+00 -1.484300e+00 -1.561549e+00 -1.629864e+00 -1.720225e+00 -1.262890e+00 -4.694043e-01 -1.295326e-01 -4.583606e-03 3.514202e-02 4.186327e-02 3.694082e-02 2.901076e-02 2.137779e-02 1.510370e-02 1.033848e-02 6.894155e-03 4.492943e-03 2.866858e-03 1.793161e-03 1.100204e-03 6.625504e-04 3.917189e-04 2.275132e-04 1.298113e-04 7.287612e-05 4.022117e-05 2.194693e-05 1.177597e-05 
7.194931e-06 3.883477e-06 2.193140e-06 1.187673e-06 7.119221e-07 3.082271e-07 1.433263e-07 -1.188701e-07 -2.046727e-07 -4.278971e-07 -4.819741e-07 -6.753191e-07 -7.004791e-07 -8.538487e-07 -8.460933e-07 -9.504376e-07 -9.085104e-07 -9.609327e-07 -8.879727e-07 -8.920509e-07 -7.947163e-07 -7.589568e-07 -6.456254e-07 -5.811985e-07 -4.598490e-07 -3.780937e-07 -2.538284e-07 -1.631621e-07 -3.426015e-08 6.540058e-08 2.157618e-07 3.448471e-07 5.648986e-07 7.839564e-07 1.171715e-06 1.585972e-06 2.250385e-06 2.874053e-06 3.600268e-06 3.662743e-06 2.597265e-06 -1.755643e-06 -1.189716e-05 -3.348998e-05 -7.408059e-05 -1.466955e-04 -2.687702e-04 -4.658640e-04 -7.704445e-04 -1.224006e-03 -1.874526e-03 -2.774352e-03 -3.974732e-03 -5.517589e-03 -7.427049e-03 -9.697292e-03 -1.228520e-02 -1.510266e-02 -1.801864e-02 -2.086594e-02 -2.345843e-02 -2.561161e-02 -2.716832e-02 -2.801405e-02 -2.809284e-02 -2.739262e-02 -2.593538e-02 -2.372287e-02 -2.069484e-02 -1.664059e-02 -1.112777e-02 -3.399684e-03 7.690836e-03 2.372695e-02 4.667611e-02 7.872446e-02 1.219427e-01 1.777651e-01 2.463217e-01 3.256741e-01 4.111733e-01 4.952450e-01 5.680484e-01 6.196823e-01 6.439914e-01 6.430240e-01 6.278311e-01 6.104164e-01 5.899134e-01 5.386040e-01 3.411237e-02 -1.730308e-01 -1.797808e-01 -7.008262e-01 -1.305058e+00 -1.959013e+00 -2.242590e+00 -2.168642e+00 -2.138468e+00 -1.945258e+00 -1.928144e+00 -1.752847e+00 -1.956894e+00 -1.988995e+00 -9.138571e-01 -1.980912e-01 3.805678e-02 9.493382e-02 9.360661e-02 7.626253e-02 5.729449e-02 4.112068e-02 2.860907e-02 1.942599e-02 1.291743e-02 8.426283e-03 5.397138e-03 3.395940e-03 2.099581e-03 1.275656e-03 7.617429e-04 4.470928e-04 2.580083e-04 1.464301e-04 8.183372e-05 4.505950e-05 2.456188e-05 1.325153e-05 
7.545462e-06 3.961038e-06 2.204462e-06 1.112508e-06 6.802713e-07 2.379858e-07 1.524454e-07 -1.360447e-07 -1.299292e-07 -3.764624e-07 -3.373785e-07 -5.538032e-07 -4.925428e-07 -6.695992e-07 -5.879943e-07 -7.166721e-07 -6.170248e-07 -6.941808e-07 -5.810316e-07 -6.101817e-07 -4.899733e-07 -4.801520e-07 -3.601434e-07 -3.237859e-07 -2.103786e-07 -1.603643e-07 -5.610223e-08 -7.869621e-10 1.025041e-07 1.701944e-07 3.081041e-07 4.356207e-07 7.068968e-07 1.028624e-06 1.647747e-06 2.426306e-06 3.711512e-06 5.190000e-06 7.122130e-06 8.532228e-06 8.790542e-06 4.815152e-06 -7.182170e-06 -3.582100e-05 -9.296669e-05 -1.992375e-04 -3.827458e-04 -6.850898e-04 -1.159769e-03 -1.875965e-03 -2.914525e-03 -4.365027e-03 -6.316399e-03 -8.843536e-03 -1.199210e-02 -1.575757e-02 -2.007126e-02 -2.478600e-02 -2.967864e-02 -3.446132e-02 -3.881172e-02 -4.241148e-02 -4.499205e-02 -4.636758e-02 -4.646187e-02 -4.529265e-02 -4.295395e-02 -3.953832e-02 -3.507089e-02 -2.938004e-02 -2.198377e-02 -1.192745e-02 2.344834e-03 2.309310e-02 5.326090e-02 9.627208e-02 1.555774e-01 2.338734e-01 3.320524e-01 4.478797e-01 5.746988e-01 7.005491e-01 8.085199e-01 8.798662e-01 9.013919e-01 8.771681e-01 8.361119e-01 8.160281e-01 8.639434e-01 5.634525e-02 -4.727523e-01 -9.063099e-01 -1.942184e+00 -2.839498e+00 -2.712305e+00 -1.729760e+00 -9.908103e-01 -3.351302e-01 -2.266383e-02 2.156908e-01 3.832724e-01 5.150022e-01 6.421278e-01 8.785154e-01 8.753913e-01 5.966529e-01 3.913411e-01 2.615428e-01 1.766445e-01 1.196363e-01 8.080375e-02 5.421630e-02 3.604278e-02 2.369573e-02 1.538457e-02 9.853734e-03 6.221004e-03 3.868842e-03 2.368876e-03 1.427481e-03 8.463531e-04 4.936166e-04 2.832288e-04 1.598589e-04 8.886478e-05 4.862503e-05 2.633304e-05 1.404857e-05 
8.225318e-06 4.499089e-06 2.604420e-06 1.454884e-06 9.088276e-07 4.120869e-07 2.040968e-07 -1.462055e-07 -2.672593e-07 -5.752532e-07 -6.553877e-07 -9.222309e-07 -9.597989e-07 -1.167879e-06 -1.156143e-06 -1.292446e-06 -1.230290e-06 -1.292100e-06 -1.185416e-06 -1.179846e-06 -1.039676e-06 -9.805724e-07 -8.199999e-07 -7.237988e-07 -5.541440e-07 -4.349389e-07 -2.601948e-07 -1.217535e-07 7.340399e-08 2.562998e-07 5.366818e-07 8.641850e-07 1.413040e-06 2.154562e-06 3.391526e-06 5.105271e-06 7.751166e-06 1.117177e-05 1.572315e-05 2.042063e-05 2.433110e-05 2.344240e-05 1.202124e-05 -2.241467e-05 -9.826084e-05 -2.470552e-04 -5.133528e-04 -9.630693e-04 -1.682843e-03 -2.785497e-03 -4.405084e-03 -6.692143e-03 -9.798856e-03 -1.385724e-02 -1.895253e-02 -2.508789e-02 -3.215723e-02 -3.992024e-02 -4.800193e-02 -5.591360e-02 -6.310193e-02 -6.902260e-02 -7.321900e-02 -7.538996e-02 -7.543403e-02 -7.343403e-02 -6.962452e-02 -6.428126e-02 -5.761615e-02 -4.959965e-02 -3.977923e-02 -2.703873e-02 -9.355486e-03 1.641035e-02 5.458080e-02 1.104554e-01 1.897188e-01 2.973370e-01 4.359658e-01 6.037940e-01 7.921249e-01 9.830199e-01 1.148059e+00 1.251035e+00 1.259704e+00 1.174100e+00 1.060863e+00 1.008326e+00 6.289557e-02 -1.048651e+00 -1.817123e+00 -3.578075e+00 -3.661049e+00 -1.273149e+00 4.964854e-01 1.350685e+00 1.846246e+00 2.039024e+00 2.153889e+00 2.163283e+00 2.223714e+00 2.201689e+00 2.298604e+00 2.820108e+00 2.430034e+00 1.298427e+00 6.929356e-01 4.011412e-01 2.452877e-01 1.550416e-01 9.974052e-02 6.461844e-02 4.186273e-02 2.699026e-02 1.726070e-02 1.092373e-02 6.829763e-03 4.213349e-03 2.562268e-03 1.535011e-03 9.054616e-04 5.257693e-04 3.005243e-04 1.691369e-04 9.383902e-05 5.137977e-05 2.790937e-05 1.506005e-05 
8.066575e-06 4.261452e-06 2.421446e-06 1.230837e-06 7.814891e-07 2.530663e-07 1.652273e-07 -2.141977e-07 -2.036423e-07 -5.408352e-07 -4.897624e-07 -7.873873e-07 -7.051557e-07 -9.461840e-07 -8.344299e-07 -1.005554e-06 -8.678441e-07 -9.655729e-07 -8.088824e-07 -8.397359e-07 -6.736104e-07 -6.516557e-07 -4.863912e-07 -4.292160e-07 -2.726358e-07 -1.950909e-07 -4.503302e-08 5.398040e-08 2.304044e-07 4.023534e-07 7.249108e-07 1.159246e-06 1.968088e-06 3.181107e-06 5.286613e-06 8.408812e-06 1.334513e-05 2.016742e-05 2.968751e-05 4.099403e-05 5.322268e-05 6.122981e-05 5.717905e-05 2.328661e-05 -6.756795e-05 -2.627492e-04 -6.305759e-04 -1.273576e-03 -2.328604e-03 -3.976457e-03 -6.435111e-03 -9.953688e-03 -1.478894e-02 -2.117073e-02 -2.925703e-02 -3.907373e-02 -5.046545e-02 -6.304804e-02 -7.620347e-02 -8.911037e-02 -1.008293e-01 -1.104325e-01 -1.171469e-01 -1.204819e-01 -1.203050e-01 -1.168284e-01 -1.105459e-01 -1.020716e-01 -9.197906e-02 -8.055837e-02 -6.755606e-02 -5.182013e-02 -3.088002e-02 -5.358491e-04 4.541160e-02 1.150117e-01 2.174801e-01 3.616860e-01 5.539034e-01 7.945034e-01 1.073928e+00 1.367694e+00 1.631070e+00 1.795949e+00 1.781318e+00 1.549627e+00 1.260157e+00 1.599255e-01 -1.504356e+00 -2.665557e+00 -5.205985e+00 -3.432285e+00 9.700407e-01 2.880094e+00 3.143451e+00 2.693777e+00 2.600376e+00 2.175147e+00 1.981095e+00 1.713709e+00 1.531116e+00 1.425008e+00 1.128622e+00 1.519990e+00 2.062912e+00 1.259998e+00 7.198650e-01 4.303340e-01 2.659571e-01 1.680648e-01 1.075760e-01 6.923658e-02 4.455404e-02 2.854684e-02 1.815430e-02 1.143264e-02 7.116707e-03 4.373306e-03 2.650203e-03 1.582600e-03 9.307374e-04 5.388928e-04 3.071524e-04 1.723335e-04 9.529214e-05 5.192064e-05 2.804228e-05 1.495067e-05 