# vtk DataFile Version 2.0
Comment goes here
ASCII

DATASET STRUCTURED_POINTS
DIMENSIONS    128   128   1

ORIGIN    0.000   0.000   0.000
SPACING   0.0156250.015625   1.000

POINT_DATA   16384
SCALARS Omega double
LOOKUP_TABLE default

-1.321877e-06 -1.417561e-06 -1.314944e-06 -1.195233e-06 -1.005389e-06 -9.367347e-07 -9.049151e-07 -1.100526e-06 -1.419345e-06 -2.041477e-06 -2.855332e-06 -4.022905e-06 -5.437363e-06 -7.238034e-06 -9.333159e-06 -1.183846e-05 -1.468449e-05 -1.796614e-05 -2.163950e-05 -2.578467e-05 -3.038209e-05 -3.550549e-05 -4.115417e-05 -4.740525e-05 -5.426774e-05 -6.183219e-05 -7.010559e-05 -7.920157e-05 -8.911218e-05 -9.998302e-05 -1.117785e-04 -1.246847e-04 -1.386270e-04 -1.538405e-04 -1.702027e-04 -1.880069e-04 -2.070762e-04 -2.277714e-04 -2.498579e-04 -2.737719e-04 -2.992199e-04 -3.267170e-04 -3.559114e-04 -3.873905e-04 -4.207469e-04 -4.566175e-04 -4.945434e-04 -5.351669e-04 -5.779837e-04 -6.235740e-04 -6.713962e-04 -7.218805e-04 -7.744586e-04 -8.293126e-04 -8.858585e-04 -9.439396e-04 -1.002965e-03 -1.062375e-03 -1.121574e-03 -1.179585e-03 -1.235805e-03 -1.288878e-03 -1.338192e-03 -1.382123e-03 -1.420055e-03 -1.450259e-03 -1.472150e-03 -1.484106e-03 -1.485635e-03 -1.475456e-03 -1.453254e-03 -1.418308e-03 -1.370566e-03 -1.310020e-03 -1.236938e-03 -1.152057e-03 -1.055979e-03 -9.500842e-04 -8.352938e-04 -7.134488e-04 -5.858024e-04 -4.545014e-04 -3.212320e-04 -1.883950e-04 -5.823956e-05 6.662164e-05 1.834588e-04 2.897537e-04 3.828746e-04 4.611090e-04 5.228915e-04 5.680135e-04 5.966027e-04 6.099282e-04 6.095388e-04 5.975356e-04 5.761685e-04 5.477067e-04 5.143691e-04 4.780022e-04 4.402293e-04 4.021845e-04 3.647923e-04 3.285850e-04 2.940494e-04 2.614011e-04 2.309248e-04 2.026923e-04 1.767901e-04 1.532098e-04 1.318337e-04 1.126401e-04 9.538450e-05 8.007831e-05 6.643402e-05 5.449685e-05 4.398535e-05 3.495307e-05 2.714549e-05 2.059740e-05 1.508995e-05 1.062130e-05 7.013711e-06 4.221153e-06 2.111500e-06 5.946021e-07 -4.129569e-07 -1.040411e-06 
1.115806e-02 9.889510e-03 8.725064e-03 7.640207e-03 6.618146e-03 5.644836e-03 4.713438e-03 3.817001e-03 2.955379e-03 2.126156e-03 1.333139e-03 5.763870e-04 -1.387346e-04 -8.114729e-04 -1.437041e-03 -2.015621e-03 -2.544938e-03 -3.027670e-03 -3.465829e-03 -3.866118e-03 -4.236501e-03 -4.589228e-03 -4.939819e-03 -5.307576e-03 -5.717143e-03 -6.196305e-03 -6.780337e-03 -7.506765e-03 -8.422833e-03 -9.576700e-03 -1.102852e-02 -1.283736e-02 -1.507645e-02 -1.781511e-02 -2.113861e-02 -2.512447e-02 -2.986726e-02 -3.544886e-02 -4.196818e-02 -4.950557e-02 -5.815667e-02 -6.799207e-02 -7.909401e-02 -9.151285e-02 -1.053050e-01 -1.204883e-01 -1.370797e-01 -1.550519e-01 -1.743686e-01 -1.949460e-01 -2.166833e-01 -2.394318e-01 -2.630205e-01 -2.872331e-01 -3.118286e-01 -3.365287e-01 -3.610309e-01 -3.850071e-01 -4.081083e-01 -4.299756e-01 -4.502312e-01 -4.685058e-01 -4.844097e-01 -4.975823e-01 -5.076349e-01 -5.142323e-01 -5.169984e-01 -5.156417e-01 -5.098163e-01 -4.993029e-01 -4.838198e-01 -4.632642e-01 -4.374764e-01 -4.065267e-01 -3.704517e-01 -3.295470e-01 -2.841165e-01 -2.347048e-01 -1.819252e-01 -1.265600e-01 -6.953377e-02 -1.183909e-02 4.532331e-02 1.007816e-01 1.531591e-01 2.012224e-01 2.437011e-01 2.796851e-01 3.085789e-01 3.304418e-01 3.459292e-01 3.563690e-01 3.634305e-01 3.688497e-01 3.739942e-01 3.796823e-01 3.860904e-01 3.927906e-01 3.988371e-01 4.029312e-01 4.036138e-01 3.994504e-01 3.893180e-01 3.726333e-01 3.496289e-01 3.213956e-01 2.896670e-01 2.564561e-01 2.235908e-01 1.925243e-01 1.641773e-01 1.390345e-01 1.172042e-01 9.856198e-02 8.283618e-02 6.968983e-02 5.877055e-02 4.973882e-02 4.228703e-02 3.614328e-02 3.107387e-02 2.688095e-02 2.339770e-02 2.048672e-02 1.803279e-02 1.594298e-02 1.413976e-02 1.256159e-02 
2.252108e-02 2.001924e-02 1.771690e-02 1.556702e-02 1.353585e-02 1.159747e-02 9.737400e-03 7.944114e-03 6.216107e-03 4.551077e-03 2.955180e-03 1.431149e-03 -1.184104e-05 -1.369675e-03 -2.634309e-03 -3.803595e-03 -4.874392e-03 -5.849702e-03 -6.734775e-03 -7.540860e-03 -8.284900e-03 -8.989445e-03 -9.686350e-03 -1.041245e-02 -1.121771e-02 -1.215608e-02 -1.329872e-02 -1.471923e-02 -1.651273e-02 -1.877425e-02 -2.162489e-02 -2.518173e-02 -2.959230e-02 -3.499446e-02 -4.156026e-02 -4.944436e-02 -5.883791e-02 -6.990489e-02 -8.284564e-02 -9.782173e-02 -1.150276e-01 -1.346060e-01 -1.567252e-01 -1.814879e-01 -2.090111e-01 -2.393336e-01 -2.724926e-01 -3.084373e-01 -3.470981e-01 -3.883104e-01 -4.318749e-01 -4.774966e-01 -5.248331e-01 -5.734534e-01 -6.228733e-01 -6.725356e-01 -7.218308e-01 -7.701016e-01 -8.166439e-01 -8.607383e-01 -9.016234e-01 -9.385595e-01 -9.707631e-01 -9.975127e-01 -1.018028e+00 -1.031639e+00 -1.037588e+00 -1.035291e+00 -1.024046e+00 -1.003405e+00 -9.727910e-01 -9.319792e-01 -8.806316e-01 -8.188634e-01 -7.467323e-01 -6.648022e-01 -5.736772e-01 -4.744214e-01 -3.682741e-01 -2.567745e-01 -1.417972e-01 -2.530551e-02 9.026061e-02 2.025445e-01 3.087181e-01 4.062039e-01 4.923276e-01 5.650517e-01 6.230644e-01 6.663398e-01 6.962890e-01 7.157670e-01 7.284936e-01 7.383072e-01 7.481413e-01 7.596933e-01 7.732527e-01 7.878498e-01 8.014054e-01 8.111296e-01 8.138836e-01 8.065589e-01 7.866457e-01 7.527728e-01 7.053753e-01 6.468869e-01 5.812015e-01 5.127689e-01 4.455008e-01 3.823828e-01 3.252034e-01 2.748135e-01 2.313058e-01 1.943202e-01 1.632365e-01 1.373241e-01 1.158504e-01 9.811694e-02 8.350496e-02 7.146756e-02 6.154216e-02 5.333505e-02 4.651860e-02 4.082078e-02 3.601603e-02 3.192095e-02 2.838375e-02 2.528345e-02 
3.424915e-02 3.059079e-02 2.721198e-02 2.404330e-02 2.103796e-02 1.815684e-02 1.538217e-02 1.269549e-02 1.009867e-02 7.586583e-03 5.172729e-03 2.859313e-03 6.644248e-04 -1.407635e-03 -3.340550e-03 -5.132750e-03 -6.775464e-03 -8.274502e-03 -9.633941e-03 -1.087156e-02 -1.200927e-02 -1.308141e-02 -1.413253e-02 -1.521810e-02 -1.641008e-02 -1.778947e-02 -1.946032e-02 -2.153312e-02 -2.414822e-02 -2.744861e-02 -3.161410e-02 -3.682138e-02 -4.329073e-02 -5.123094e-02 -6.090023e-02 -7.253382e-02 -8.642015e-02 -1.028099e-01 -1.220071e-01 -1.442605e-01 -1.698676e-01 -1.990499e-01 -2.320678e-01 -2.690842e-01 -3.102839e-01 -3.557338e-01 -4.055002e-01 -4.595143e-01 -5.176813e-01 -5.797594e-01 -6.454566e-01 -7.143310e-01 -7.858725e-01 -8.594294e-01 -9.342741e-01 -1.009560e+00 -1.084368e+00 -1.157697e+00 -1.228484e+00 -1.295635e+00 -1.358001e+00 -1.414459e+00 -1.463833e+00 -1.505030e+00 -1.536880e+00 -1.558365e+00 -1.568350e+00 -1.565936e+00 -1.550058e+00 -1.520010e+00 -1.474891e+00 -1.414316e+00 -1.337724e+00 -1.245240e+00 -1.136890e+00 -1.013492e+00 -8.759011e-01 -7.257225e-01 -5.647750e-01 -3.954011e-01 -2.203810e-01 -4.269611e-02 1.339912e-01 3.060658e-01 4.691373e-01 6.190886e-01 7.514806e-01 8.628071e-01 9.505591e-01 1.014467e+00 1.056682e+00 1.082165e+00 1.097513e+00 1.109546e+00 1.123205e+00 1.141050e+00 1.163388e+00 1.188445e+00 1.212589e+00 1.231182e+00 1.238953e+00 1.230649e+00 1.201773e+00 1.149627e+00 1.074715e+00 9.813960e-01 8.767979e-01 7.687817e-01 6.638859e-01 5.667308e-01 4.797961e-01 4.040169e-01 3.391868e-01 2.844891e-01 2.387907e-01 2.008735e-01 1.695604e-01 1.437731e-01 1.225659e-01 1.051235e-01 9.075529e-02 7.888461e-02 6.902781e-02 6.078961e-02 5.383887e-02 4.790972e-02 4.278018e-02 3.827462e-02 
4.663697e-02 4.192311e-02 3.754398e-02 3.341318e-02 2.947024e-02 2.566876e-02 2.198534e-02 1.840117e-02 1.491800e-02 1.153499e-02 8.268826e-03 5.128629e-03 2.136952e-03 -6.942229e-04 -3.344694e-03 -5.806206e-03 -8.068414e-03 -1.013312e-02 -1.200678e-02 -1.370745e-02 -1.526496e-02 -1.671980e-02 -1.813160e-02 -1.956942e-02 -2.112912e-02 -2.291426e-02 -2.506339e-02 -2.771999e-02 -3.107125e-02 -3.530481e-02 -4.066116e-02 -4.737407e-02 -5.573926e-02 -6.603500e-02 -7.860943e-02 -9.377834e-02 -1.119326e-01 -1.334115e-01 -1.586297e-01 -1.879269e-01 -2.217123e-01 -2.602930e-01 -3.040314e-01 -3.531595e-01 -4.079410e-01 -4.684821e-01 -5.348891e-01 -6.070871e-01 -6.849655e-01 -7.682164e-01 -8.564606e-01 -9.491180e-01 -1.045509e+00 -1.144766e+00 -1.245908e+00 -1.347797e+00 -1.449187e+00 -1.548726e+00 -1.644969e+00 -1.736437e+00 -1.821574e+00 -1.898865e+00 -1.966723e+00 -2.023681e+00 -2.068170e+00 -2.098824e+00 -2.114117e+00 -2.112830e+00 -2.093512e+00 -2.055168e+00 -1.996533e+00 -1.917004e+00 -1.815740e+00 -1.692795e+00 -1.548109e+00 -1.382680e+00 -1.197599e+00 -9.949453e-01 -7.771674e-01 -5.473369e-01 -3.092220e-01 -6.672551e-02 1.751792e-01 4.116573e-01 6.365723e-01 8.439753e-01 1.027191e+00 1.180421e+00 1.299321e+00 1.382610e+00 1.433308e+00 1.459231e+00 1.471637e+00 1.482149e+00 1.498303e+00 1.523237e+00 1.557125e+00 1.596947e+00 1.636774e+00 1.669608e+00 1.687412e+00 1.682100e+00 1.646081e+00 1.574103e+00 1.466175e+00 1.329801e+00 1.177626e+00 1.022825e+00 8.753651e-01 7.414547e-01 6.237846e-01 5.227951e-01 4.374999e-01 3.662616e-01 3.072161e-01 2.585167e-01 2.184839e-01 1.856250e-01 1.586717e-01 1.365422e-01 1.183378e-01 1.033086e-01 9.083413e-02 8.040513e-02 7.159903e-02 6.407473e-02 5.754918e-02 5.179788e-02 
5.985407e-02 5.422904e-02 4.896499e-02 4.395813e-02 3.914213e-02 3.446008e-02 2.989172e-02 2.541272e-02 2.103437e-02 1.675381e-02 1.260119e-02 8.585745e-03 4.745000e-03 1.091957e-03 -2.338998e-03 -5.538975e-03 -8.486311e-03 -1.118391e-02 -1.363163e-02 -1.585184e-02 -1.787416e-02 -1.974819e-02 -2.154132e-02 -2.333823e-02 -2.525211e-02 -2.741056e-02 -2.998065e-02 -3.314020e-02 -3.711797e-02 -4.214794e-02 -4.852695e-02 -5.654851e-02 -6.658076e-02 -7.897560e-02 -9.417011e-02 -1.125668e-01 -1.346608e-01 -1.608885e-01 -1.917805e-01 -2.277787e-01 -2.694131e-01 -3.170901e-01 -3.712871e-01 -4.323206e-01 -5.005500e-01 -5.761356e-01 -6.592423e-01 -7.498023e-01 -8.477066e-01 -9.525890e-01 -1.063997e+00 -1.181211e+00 -1.303390e+00 -1.429436e+00 -1.558115e+00 -1.687973e+00 -1.817427e+00 -1.944742e+00 -2.068079e+00 -2.185538e+00 -2.295146e+00 -2.394969e+00 -2.483007e+00 -2.557401e+00 -2.616189e+00 -2.657643e+00 -2.679858e+00 -2.681265e+00 -2.660022e+00 -2.614791e+00 -2.543898e+00 -2.446436e+00 -2.321195e+00 -2.168073e+00 -1.986815e+00 -1.778562e+00 -1.544541e+00 -1.287370e+00 -1.010037e+00 -7.164635e-01 -4.112946e-01 -9.942213e-02 2.130272e-01 5.199780e-01 8.135238e-01 1.085565e+00 1.326433e+00 1.526994e+00 1.679491e+00 1.780540e+00 1.833362e+00 1.850048e+00 1.849807e+00 1.853020e+00 1.870500e+00 1.903948e+00 1.953935e+00 2.015455e+00 2.078661e+00 2.133951e+00 2.169613e+00 2.174142e+00 2.135010e+00 2.041612e+00 1.891462e+00 1.697713e+00 1.483631e+00 1.271113e+00 1.074435e+00 9.007360e-01 7.517890e-01 6.265160e-01 5.223963e-01 4.365140e-01 3.659946e-01 3.082449e-01 2.610165e-01 2.224064e-01 1.908235e-01 1.649523e-01 1.437003e-01 1.261758e-01 1.116349e-01 9.947776e-02 8.920069e-02 8.040259e-02 7.274733e-02 6.597009e-02 
7.432853e-02 6.794687e-02 6.191312e-02 5.611493e-02 5.047803e-02 4.494499e-02 3.949393e-02 3.410628e-02 2.879633e-02 2.357149e-02 1.846778e-02 1.350750e-02 8.735169e-03 4.177809e-03 -1.237784e-04 -4.147512e-03 -7.867509e-03 -1.127607e-02 -1.437256e-02 -1.717303e-02 -1.971185e-02 -2.203823e-02 -2.423111e-02 -2.638245e-02 -2.862556e-02 -3.110468e-02 -3.401763e-02 -3.757012e-02 -4.203450e-02 -4.768577e-02 -5.487953e-02 -6.396505e-02 -7.538639e-02 -8.956703e-02 -1.070382e-01 -1.282896e-01 -1.539283e-01 -1.844914e-01 -2.206361e-01 -2.629144e-01 -3.119907e-01 -3.683828e-01 -4.327004e-01 -5.053610e-01 -5.868386e-01 -6.773690e-01 -7.771947e-01 -8.862781e-01 -1.004529e+00 -1.131545e+00 -1.266811e+00 -1.409484e+00 -1.558560e+00 -1.712718e+00 -1.870452e+00 -2.029986e+00 -2.189365e+00 -2.346452e+00 -2.498966e+00 -2.644565e+00 -2.780807e+00 -2.905323e+00 -3.015667e+00 -3.109583e+00 -3.184709e+00 -3.238962e+00 -3.270056e+00 -3.276081e+00 -3.254785e+00 -3.204455e+00 -3.122946e+00 -3.008956e+00 -2.860794e+00 -2.678059e+00 -2.460188e+00 -2.208318e+00 -1.923798e+00 -1.609677e+00 -1.269620e+00 -9.082963e-01 -5.314092e-01 -1.445826e-01 2.448618e-01 6.300319e-01 1.001231e+00 1.348110e+00 1.657162e+00 1.914057e+00 2.105388e+00 2.222634e+00 2.267801e+00 2.258134e+00 2.227660e+00 2.215328e+00 2.234973e+00 2.278431e+00 2.351549e+00 2.445691e+00 2.542826e+00 2.632351e+00 2.697154e+00 2.723072e+00 2.689842e+00 2.575266e+00 2.367199e+00 2.090407e+00 1.790957e+00 1.505286e+00 1.251818e+00 1.036264e+00 8.571081e-01 7.100686e-01 5.901111e-01 4.925162e-01 4.131845e-01 3.486894e-01 2.962257e-01 2.535014e-01 2.186555e-01 1.901725e-01 1.668129e-01 1.475693e-01 1.316085e-01 1.182572e-01 1.069531e-01 9.724684e-02 8.876255e-02 8.120415e-02 
9.028405e-02 8.334121e-02 7.669397e-02 7.021899e-02 6.384586e-02 5.751025e-02 5.120225e-02 4.489995e-02 3.863582e-02 3.241687e-02 2.630125e-02 2.031307e-02 1.452044e-02 8.953548e-03 3.675844e-03 -1.287153e-03 -5.890085e-03 -1.012275e-02 -1.397015e-02 -1.744818e-02 -2.058358e-02 -2.342948e-02 -2.606539e-02 -2.859317e-02 -3.115650e-02 -3.391776e-02 -3.709679e-02 -4.092821e-02 -4.572028e-02 -5.179038e-02 -5.954652e-02 -6.939637e-02 -8.185554e-02 -9.742392e-02 -1.167256e-01 -1.403454e-01 -1.690052e-01 -2.033549e-01 -2.441867e-01 -2.921788e-01 -3.481454e-01 -4.127362e-01 -4.867152e-01 -5.706248e-01 -6.650822e-01 -7.704235e-01 -8.870013e-01 -1.014831e+00 -1.153872e+00 -1.303702e+00 -1.463766e+00 -1.633100e+00 -1.810548e+00 -1.994547e+00 -2.183312e+00 -2.374702e+00 -2.566367e+00 -2.755706e+00 -2.939962e+00 -3.116281e+00 -3.281729e+00 -3.433442e+00 -3.568526e+00 -3.684300e+00 -3.778024e+00 -3.847258e+00 -3.889380e+00 -3.902124e+00 -3.882857e+00 -3.829427e+00 -3.739180e+00 -3.610273e+00 -3.440402e+00 -3.228681e+00 -2.974050e+00 -2.677556e+00 -2.340508e+00 -1.966534e+00 -1.559901e+00 -1.126341e+00 -6.724825e-01 -2.047967e-01 2.687245e-01 7.407757e-01 1.200645e+00 1.635888e+00 2.028477e+00 2.356543e+00 2.596812e+00 2.730683e+00 2.753546e+00 2.686544e+00 2.590998e+00 2.552764e+00 2.586278e+00 2.636744e+00 2.744385e+00 2.890565e+00 3.033511e+00 3.174534e+00 3.282679e+00 3.349115e+00 3.342239e+00 3.215444e+00 2.920915e+00 2.511378e+00 2.088027e+00 1.709311e+00 1.392858e+00 1.136625e+00 9.314823e-01 7.676733e-01 6.366077e-01 5.314327e-01 4.467410e-01 3.783560e-01 3.229864e-01 2.780626e-01 2.415176e-01 2.117166e-01 1.873141e-01 1.672399e-01 1.505958e-01 1.366686e-01 1.248527e-01 1.146701e-01 1.057164e-01 9.767429e-02 
1.083133e-01 1.010000e-01 9.387873e-02 8.682749e-02 7.977458e-02 7.266316e-02 6.548680e-02 5.823683e-02 5.095311e-02 4.366061e-02 3.642751e-02 2.929907e-02 2.235461e-02 1.564684e-02 9.249960e-03 3.211545e-03 -2.414295e-03 -7.597675e-03 -1.231822e-02 -1.657634e-02 -2.039814e-02 -2.382718e-02 -2.694857e-02 -2.986236e-02 -3.272581e-02 -3.570937e-02 -3.905672e-02 -4.302284e-02 -4.795307e-02 -5.420019e-02 -6.222602e-02 -7.249166e-02 -8.558693e-02 -1.020859e-01 -1.227105e-01 -1.481424e-01 -1.792266e-01 -2.167325e-01 -2.615999e-01 -3.146465e-01 -3.768541e-01 -4.490243e-01 -5.320990e-01 -6.267732e-01 -7.338352e-01 -8.537560e-01 -9.870291e-01 -1.133761e+00 -1.293992e+00 -1.467315e+00 -1.653157e+00 -1.850462e+00 -2.057921e+00 -2.273743e+00 -2.495833e+00 -2.721671e+00 -2.948445e+00 -3.173049e+00 -3.392160e+00 -3.602354e+00 -3.800111e+00 -3.982029e+00 -4.144704e+00 -4.285024e+00 -4.399867e+00 -4.486481e+00 -4.541943e+00 -4.563697e+00 -4.548750e+00 -4.494525e+00 -4.397788e+00 -4.256044e+00 -4.066179e+00 -3.826579e+00 -3.535442e+00 -3.193460e+00 -2.801847e+00 -2.364701e+00 -1.887231e+00 -1.376259e+00 -8.398832e-01 -2.850623e-01 2.795828e-01 8.478267e-01 1.409019e+00 1.950353e+00 2.449045e+00 2.872927e+00 3.182753e+00 3.340411e+00 3.323775e+00 3.141877e+00 2.901947e+00 2.829237e+00 2.935504e+00 2.955779e+00 3.120238e+00 3.361131e+00 3.550072e+00 3.773293e+00 3.934107e+00 4.071571e+00 4.136118e+00 4.040700e+00 3.601110e+00 2.952254e+00 2.344050e+00 1.853251e+00 1.475633e+00 1.187648e+00 9.663274e-01 7.943065e-01 6.590333e-01 5.516843e-01 4.658570e-01 3.968904e-01 3.412401e-01 2.962118e-01 2.596655e-01 2.299263e-01 2.056186e-01 1.856507e-01 1.691044e-01 1.552493e-01 1.434627e-01 1.332525e-01 1.241996e-01 1.159767e-01 
1.287300e-01 1.212729e-01 1.138590e-01 1.063609e-01 9.872154e-02 9.088041e-02 8.285354e-02 7.463093e-02 6.628145e-02 5.783151e-02 4.938272e-02 4.098442e-02 3.275105e-02 2.474161e-02 1.706431e-02 9.774407e-03 2.956423e-03 -3.351788e-03 -9.105081e-03 -1.429700e-02 -1.893605e-02 -2.306179e-02 -2.675017e-02 -3.010231e-02 -3.327615e-02 -3.645099e-02 -3.988301e-02 -4.384715e-02 -4.871588e-02 -5.487698e-02 -6.283790e-02 -7.311398e-02 -8.636378e-02 -1.032390e-01 -1.245581e-01 -1.511071e-01 -1.838590e-01 -2.237156e-01 -2.717778e-01 -3.290217e-01 -3.966204e-01 -4.755542e-01 -5.669772e-01 -6.717703e-01 -7.909384e-01 -9.251252e-01 -1.075017e+00 -1.240851e+00 -1.422799e+00 -1.620499e+00 -1.833404e+00 -2.060373e+00 -2.299967e+00 -2.550135e+00 -2.808463e+00 -3.071977e+00 -3.337358e+00 -3.600875e+00 -3.858565e+00 -4.106305e+00 -4.339914e+00 -4.555349e+00 -4.748665e+00 -4.916285e+00 -5.054754e+00 -5.161038e+00 -5.232044e+00 -5.264973e+00 -5.256612e+00 -5.203922e+00 -5.103122e+00 -4.950837e+00 -4.742963e+00 -4.476767e+00 -4.149353e+00 -3.760790e+00 -3.311913e+00 -2.807573e+00 -2.253984e+00 -1.659955e+00 -1.035280e+00 -3.880054e-01 2.734659e-01 9.454000e-01 1.620533e+00 2.288928e+00 2.925678e+00 3.485437e+00 3.904199e+00 4.111271e+00 4.050137e+00 3.651332e+00 3.052353e+00 2.941363e+00 3.388274e+00 3.153255e+00 3.447417e+00 3.911185e+00 4.061879e+00 4.463660e+00 4.639646e+00 4.897166e+00 5.120548e+00 5.235293e+00 4.506058e+00 3.358949e+00 2.486501e+00 1.886656e+00 1.471377e+00 1.174356e+00 9.541539e-01 7.863041e-01 6.555746e-01 5.523663e-01 4.700438e-01 4.040188e-01 3.508070e-01 3.078341e-01 2.730171e-01 2.447587e-01 2.217122e-01 2.028271e-01 1.871942e-01 1.741014e-01 1.629256e-01 1.531792e-01 1.444410e-01 1.363811e-01 
1.523087e-01 1.449169e-01 1.373588e-01 1.295173e-01 1.213400e-01 1.127820e-01 1.038677e-01 9.460870e-02 8.508630e-02 7.535401e-02 6.552875e-02 5.569117e-02 4.597256e-02 3.646543e-02 2.729477e-02 1.854940e-02 1.032903e-02 2.703020e-03 -4.271156e-03 -1.055953e-02 -1.616225e-02 -2.109721e-02 -2.543713e-02 -2.926927e-02 -3.275512e-02 -3.607025e-02 -3.948373e-02 -4.327993e-02 -4.785733e-02 -5.363029e-02 -6.115031e-02 -7.098137e-02 -8.385012e-02 -1.004842e-01 -1.218005e-01 -1.486931e-01 -1.822693e-01 -2.235744e-01 -2.738828e-01 -3.343493e-01 -4.063584e-01 -4.911000e-01 -5.899699e-01 -7.040779e-01 -8.346841e-01 -9.826589e-01 -1.148930e+00 -1.333924e+00 -1.537995e+00 -1.760892e+00 -2.002132e+00 -2.260541e+00 -2.534561e+00 -2.821904e+00 -3.119794e+00 -3.424776e+00 -3.732907e+00 -4.039750e+00 -4.340525e+00 -4.630282e+00 -4.903995e+00 -5.156868e+00 -5.384299e+00 -5.582223e+00 -5.746868e+00 -5.875029e+00 -5.963576e+00 -6.009674e+00 -6.010032e+00 -5.961311e+00 -5.859150e+00 -5.699219e+00 -5.476074e+00 -5.185439e+00 -4.822752e+00 -4.386892e+00 -3.878044e+00 -3.301643e+00 -2.665654e+00 -1.981476e+00 -1.262354e+00 -5.178362e-01 2.432030e-01 1.022499e+00 1.820272e+00 2.638092e+00 3.455569e+00 4.215502e+00 4.813439e+00 5.130180e+00 5.098712e+00 4.347845e+00 2.719676e+00 2.524181e+00 4.547957e+00 2.848433e+00 3.642666e+00 4.807003e+00 4.357393e+00 5.413362e+00 5.299071e+00 5.793732e+00 6.254500e+00 7.310390e+00 5.849190e+00 3.495751e+00 2.360489e+00 1.739371e+00 1.353053e+00 1.087956e+00 8.931755e-01 7.442973e-01 6.275828e-01 5.349130e-01 4.606572e-01 4.009603e-01 3.528011e-01 3.139462e-01 2.825298e-01 2.571197e-01 2.364741e-01 2.196237e-01 2.057095e-01 1.940577e-01 1.840673e-01 1.752681e-01 1.672471e-01 1.596830e-01 
1.794733e-01 1.723874e-01 1.648778e-01 1.568248e-01 1.482013e-01 1.389595e-01 1.291580e-01 1.188075e-01 1.080315e-01 9.688595e-02 8.553564e-02 7.406751e-02 6.266293e-02 5.142445e-02 4.052592e-02 3.006932e-02 2.019895e-02 1.099944e-02 2.566392e-03 -5.050219e-03 -1.182021e-02 -1.774654e-02 -2.288022e-02 -2.729704e-02 -3.114633e-02 -3.459888e-02 -3.792294e-02 -4.140908e-02 -4.546964e-02 -5.054157e-02 -5.721031e-02 -6.608522e-02 -7.795425e-02 -9.362035e-02 -1.140974e-01 -1.403918e-01 -1.737520e-01 -2.153779e-01 -2.667355e-01 -3.291793e-01 -4.043382e-01 -4.936438e-01 -5.987840e-01 -7.211419e-01 -8.623012e-01 -1.023415e+00 -1.205734e+00 -1.409940e+00 -1.636656e+00 -1.885796e+00 -2.157021e+00 -2.449152e+00 -2.760554e+00 -3.088672e+00 -3.430353e+00 -3.781541e+00 -4.137581e+00 -4.493116e+00 -4.842391e+00 -5.179375e+00 -5.498020e+00 -5.792566e+00 -6.057662e+00 -6.288683e+00 -6.481624e+00 -6.633223e+00 -6.740598e+00 -6.801101e+00 -6.811756e+00 -6.769038e+00 -6.668260e+00 -6.503835e+00 -6.268769e+00 -5.956408e+00 -5.559797e+00 -5.075774e+00 -4.503166e+00 -3.848288e+00 -3.121133e+00 -2.337912e+00 -1.517074e+00 -6.725816e-01 1.854157e-01 1.065819e+00 1.983919e+00 2.966262e+00 4.017649e+00 5.078823e+00 5.973862e+00 6.473272e+00 6.844810e+00 5.897302e+00 9.591984e-01 -1.402695e-01 7.552450e+00 5.890856e+00 1.792075e+00 5.824885e+00 4.431595e+00 4.386947e+00 4.078815e+00 3.480568e+00 4.694909e+00 5.243724e+00 4.977257e+00 2.416499e+00 1.727733e+00 1.364043e+00 1.120081e+00 9.364506e-01 7.909100e-01 6.738843e-01 5.789668e-01 5.020444e-01 4.395916e-01 3.890680e-01 3.481958e-01 3.152749e-01 2.887533e-01 2.674489e-01 2.502670e-01 2.363635e-01 2.249504e-01 2.154166e-01 2.071956e-01 1.998459e-01 1.929732e-01 1.862665e-01 
2.111833e-01 2.046181e-01 1.973034e-01 1.891361e-01 1.800969e-01 1.701605e-01 1.593977e-01 1.478496e-01 1.356567e-01 1.229129e-01 1.098043e-01 9.646149e-02 8.308983e-02 6.983914e-02 5.690783e-02 4.444602e-02 3.262154e-02 2.156553e-02 1.139499e-02 2.202549e-03 -5.963003e-03 -1.306762e-02 -1.914715e-02 -2.424789e-02 -2.850864e-02 -3.208068e-02 -3.522886e-02 -3.823789e-02 -4.152830e-02 -4.555017e-02 -5.091557e-02 -5.827320e-02 -6.846516e-02 -8.236860e-02 -1.010899e-01 -1.257536e-01 -1.577500e-01 -1.984496e-01 -2.495188e-01 -3.125407e-01 -3.894085e-01 -4.818403e-01 -5.918506e-01 -7.211587e-01 -8.717237e-01 -1.045064e+00 -1.242822e+00 -1.466034e+00 -1.715677e+00 -1.991938e+00 -2.294698e+00 -2.622874e+00 -2.974794e+00 -3.347691e+00 -3.737980e+00 -4.140966e+00 -4.551092e+00 -4.961914e+00 -5.366370e+00 -5.757073e+00 -6.126575e+00 -6.467894e+00 -6.774672e+00 -7.041661e+00 -7.264657e+00 -7.440582e+00 -7.567142e+00 -7.642378e+00 -7.664071e+00 -7.629034e+00 -7.532417e+00 -7.367483e+00 -7.125119e+00 -6.795561e+00 -6.368098e+00 -5.836176e+00 -5.196124e+00 -4.454458e+00 -3.624254e+00 -2.728268e+00 -1.794868e+00 -8.466673e-01 9.939615e-02 1.059986e+00 2.071694e+00 3.208786e+00 4.543170e+00 6.076116e+00 7.482357e+00 7.923817e+00 9.884851e+00 1.034169e+01 7.780360e+00 1.011361e+01 3.108289e+00 4.758235e+00 3.954818e+00 2.104962e-01 6.016609e-01 -1.527578e+00 -1.373221e+00 -2.371279e+00 -1.744733e+00 -2.985004e+00 1.564874e-01 2.795330e-01 7.854442e-01 8.798147e-01 8.365145e-01 7.538526e-01 6.661948e-01 5.860906e-01 5.166770e-01 4.584329e-01 4.102185e-01 3.709043e-01 3.390532e-01 3.135431e-01 2.931921e-01 2.770950e-01 2.643386e-01 2.542195e-01 2.460416e-01 2.392658e-01 2.333702e-01 2.279504e-01 2.226320e-01 2.171241e-01 
2.479736e-01 2.421742e-01 2.352520e-01 2.270982e-01 2.177279e-01 2.071099e-01 1.953613e-01 1.825203e-01 1.687850e-01 1.542513e-01 1.391711e-01 1.236830e-01 1.080616e-01 9.247091e-02 7.717727e-02 6.235048e-02 4.822113e-02 3.494466e-02 2.269299e-02 1.158635e-02 1.719679e-03 -6.843897e-03 -1.410274e-02 -2.007509e-02 -2.487082e-02 -2.861775e-02 -3.156147e-02 -3.397294e-02 -3.626681e-02 -3.889617e-02 -4.248754e-02 -4.771862e-02 -5.547686e-02 -6.670553e-02 -8.260073e-02 -1.044024e-01 -1.336501e-01 -1.718905e-01 -2.210133e-01 -2.828482e-01 -3.595963e-01 -4.532976e-01 -5.663625e-01 -7.009037e-01 -8.593541e-01 -1.043679e+00 -1.256041e+00 -1.497933e+00 -1.770830e+00 -2.075305e+00 -2.411603e+00 -2.778813e+00 -3.175327e+00 -3.598150e+00 -4.043265e+00 -4.505164e+00 -4.977222e+00 -5.451536e+00 -5.919409e+00 -6.371596e+00 -6.798848e+00 -7.192514e+00 -7.544976e+00 -7.850196e+00 -8.103885e+00 -8.303402e+00 -8.447604e+00 -8.535828e+00 -8.567515e+00 -8.540426e+00 -8.450340e+00 -8.289214e+00 -8.045672e+00 -7.705170e+00 -7.251668e+00 -6.672754e+00 -5.960241e+00 -5.120343e+00 -4.169027e+00 -3.139745e+00 -2.075592e+00 -1.017500e+00 7.310875e-04 9.977382e-01 2.033291e+00 3.249196e+00 4.856790e+00 7.165434e+00 9.887429e+00 8.303082e+00 4.090515e+00 4.484559e+00 6.633409e+00 5.405864e+00 -1.487831e+00 -6.498868e+00 -4.242684e+00 -4.612933e+00 -5.018457e+00 -4.364078e+00 -4.521041e+00 -3.617093e+00 -5.062349e+00 -4.971746e+00 -2.492349e+00 -6.053058e-01 2.790472e-01 5.494446e-01 6.049306e-01 5.849774e-01 5.410420e-01 4.930045e-01 4.479919e-01 4.088075e-01 3.757721e-01 3.487803e-01 3.270696e-01 3.100349e-01 2.968385e-01 2.868502e-01 2.793388e-01 2.737487e-01 2.694793e-01 2.660680e-01 2.630428e-01 2.600345e-01 2.566967e-01 2.527505e-01 
2.909796e-01 2.861656e-01 2.797780e-01 2.717270e-01 2.620338e-01 2.506948e-01 2.378405e-01 2.235480e-01 2.080366e-01 1.914524e-01 1.740751e-01 1.561024e-01 1.378413e-01 1.195202e-01 1.014399e-01 8.383641e-02 6.697441e-02 5.107432e-02 3.634079e-02 2.295532e-02 1.104426e-02 7.265381e-04 -7.965650e-03 -1.500166e-02 -2.046180e-02 -2.443406e-02 -2.713744e-02 -2.881599e-02 -2.986564e-02 -3.073219e-02 -3.204008e-02 -3.448938e-02 -3.899503e-02 -4.656545e-02 -5.847043e-02 -7.607333e-02 -1.010522e-01 -1.351514e-01 -1.804829e-01 -2.391620e-01 -3.137122e-01 -4.065566e-01 -5.205378e-01 -6.582503e-01 -8.226674e-01 -1.016321e+00 -1.241997e+00 -1.501799e+00 -1.797844e+00 -2.131272e+00 -2.502851e+00 -2.912034e+00 -3.357392e+00 -3.835837e+00 -4.342891e+00 -4.872195e+00 -5.415759e+00 -5.963903e+00 -6.505674e+00 -7.029373e+00 -7.523171e+00 -7.976140e+00 -8.378847e+00 -8.724267e+00 -9.008110e+00 -9.228632e+00 -9.386612e+00 -9.483723e+00 -9.522173e+00 -9.501962e+00 -9.420289e+00 -9.268521e+00 -9.032295e+00 -8.691152e+00 -8.220645e+00 -7.599328e+00 -6.810842e+00 -5.858410e+00 -4.760967e+00 -3.564449e+00 -2.335455e+00 -1.146682e+00 -6.978351e-02 8.977968e-01 1.830663e+00 2.919250e+00 4.492528e+00 7.848830e+00 1.590155e+01 2.510824e+00 8.120891e+00 8.160796e+00 -2.585748e+00 -1.858092e+01 -1.217659e+01 5.073407e-02 -5.584709e+00 -6.549347e-01 -1.533150e+00 1.111236e+00 -4.899999e-01 1.728594e+00 -3.278222e-01 2.641727e+00 9.010818e-01 3.556805e-01 4.091324e-01 4.511392e-01 4.609175e-01 4.491008e-01 4.272833e-01 4.026099e-01 3.786469e-01 3.574751e-01 3.396155e-01 3.254041e-01 3.144999e-01 3.066809e-01 3.013967e-01 2.982572e-01 2.966993e-01 2.963046e-01 2.965636e-01 2.970873e-01 2.974480e-01 2.973141e-01 2.963571e-01 2.943178e-01 
3.408253e-01 3.372513e-01 3.316068e-01 3.237859e-01 3.138508e-01 3.017832e-01 2.877726e-01 2.718868e-01 2.544215e-01 2.355212e-01 2.155548e-01 1.947278e-01 1.734419e-01 1.519431e-01 1.306254e-01 1.097516e-01 8.967237e-02 7.064301e-02 5.294401e-02 3.679838e-02 2.239787e-02 9.907827e-03 -5.828356e-04 -8.994489e-03 -1.535726e-02 -1.971116e-02 -2.223102e-02 -2.311961e-02 -2.273789e-02 -2.150574e-02 -2.003032e-02 -1.901338e-02 -1.938486e-02 -2.219858e-02 -2.879167e-02 -4.063565e-02 -5.955266e-02 -8.747864e-02 -1.267722e-01 -1.798441e-01 -2.495918e-01 -3.388556e-01 -4.509986e-01 -5.891660e-01 -7.570063e-01 -9.577333e-01 -1.194945e+00 -1.471527e+00 -1.790473e+00 -2.153706e+00 -2.562777e+00 -3.017710e+00 -3.517474e+00 -4.058970e+00 -4.637312e+00 -5.245075e+00 -5.872637e+00 -6.507881e+00 -7.136932e+00 -7.744633e+00 -8.315672e+00 -8.835907e+00 -9.293444e+00 -9.679908e+00 -9.991117e+00 -1.022674e+01 -1.039045e+01 -1.048761e+01 -1.052499e+01 -1.050668e+01 -1.043341e+01 -1.029679e+01 -1.007984e+01 -9.753238e+00 -9.280746e+00 -8.625382e+00 -7.757480e+00 -6.673902e+00 -5.393595e+00 -3.979156e+00 -2.525128e+00 -1.157553e+00 -2.228197e-02 8.355106e-01 1.498356e+00 2.161543e+00 2.445857e+00 3.921773e+00 9.144977e+00 8.237658e+00 1.201226e+01 -1.255165e+01 -1.974079e+01 1.065758e+01 1.105175e+01 4.138098e+00 4.064394e+00 4.783324e+00 3.533872e+00 5.435474e+00 4.165640e+00 5.019062e+00 4.841638e+00 4.848946e+00 4.878541e+00 1.113290e+00 5.671413e-01 4.001571e-01 3.491214e-01 3.319901e-01 3.235327e-01 3.173445e-01 3.118249e-01 3.074316e-01 3.042961e-01 3.028647e-01 3.030345e-01 3.048459e-01 3.079775e-01 3.122305e-01 3.171899e-01 3.225518e-01 3.278901e-01 3.328748e-01 3.371213e-01 3.403204e-01 3.421665e-01 3.424010e-01 
3.988062e-01 3.967117e-01 3.919604e-01 3.844617e-01 3.742760e-01 3.614150e-01 3.460790e-01 3.283830e-01 3.086470e-01 2.870795e-01 2.640849e-01 2.399461e-01 2.151081e-01 1.899027e-01 1.647703e-01 1.400630e-01 1.161782e-01 9.345910e-02 7.223236e-02 5.280456e-02 3.541422e-02 2.030473e-02 7.614395e-03 -2.504974e-03 -1.002960e-02 -1.493414e-02 -1.733537e-02 -1.738087e-02 -1.537398e-02 -1.169706e-02 -6.910586e-03 -1.709507e-03 2.994708e-03 6.105540e-03 6.252085e-03 1.846882e-03 -9.047320e-03 -2.858234e-02 -5.934529e-02 -1.040899e-01 -1.660881e-01 -2.486752e-01 -3.557661e-01 -4.911734e-01 -6.592990e-01 -8.642060e-01 -1.110452e+00 -1.401935e+00 -1.742764e+00 -2.135949e+00 -2.584147e+00 -3.088312e+00 -3.648131e+00 -4.260812e+00 -4.921169e+00 -5.620746e+00 -6.347861e+00 -7.087381e+00 -7.821317e+00 -8.529759e+00 -9.192246e+00 -9.790008e+00 -1.030749e+01 -1.073450e+01 -1.106723e+01 -1.130771e+01 -1.146415e+01 -1.154749e+01 -1.157139e+01 -1.154676e+01 -1.148032e+01 -1.136640e+01 -1.118523e+01 -1.089735e+01 -1.044803e+01 -9.777689e+00 -8.833500e+00 -7.599040e+00 -6.090574e+00 -4.382212e+00 -2.600811e+00 -9.457034e-01 3.004704e-01 9.514783e-01 1.196762e+00 1.803194e+00 -6.054132e-01 1.524354e+01 1.788399e+01 1.362342e+01 -1.431200e+01 -1.672906e+01 9.145754e+00 1.477955e+01 3.972542e+00 1.870016e+00 4.023938e+00 4.360930e+00 5.598854e+00 2.599250e+00 4.462688e+00 1.760686e+00 3.793719e+00 -1.799344e+00 3.332195e+00 6.761913e-01 3.592194e-01 2.445947e-01 2.131206e-01 2.139566e-01 2.243661e-01 2.370753e-01 2.492501e-01 2.609029e-01 2.720414e-01 2.832354e-01 2.945571e-01 3.062504e-01 3.181660e-01 3.302601e-01 3.422314e-01 3.538704e-01 3.648120e-01 3.747748e-01 3.833976e-01 3.903913e-01 3.954511e-01 3.983253e-01 