# vtk DataFile Version 2.0
Comment goes here
ASCII

DATASET STRUCTURED_POINTS
DIMENSIONS    128   128   1

ORIGIN    0.000   0.000   0.000
SPACING   0.0156250.015625   1.000

POINT_DATA   16384
SCALARS Omega double
LOOKUP_TABLE default

1.667231e-05 1.659119e-05 1.599995e-05 1.488998e-05 1.335683e-05 1.139560e-05 9.089810e-06 6.440765e-06 3.515831e-06 3.258767e-07 -3.079645e-06 -6.677901e-06 -1.043734e-05 -1.432296e-05 -1.831964e-05 -2.238303e-05 -2.651159e-05 -3.065755e-05 -3.482907e-05 -3.898365e-05 -4.313438e-05 -4.725453e-05 -5.135723e-05 -5.544243e-05 -5.951915e-05 -6.362367e-05 -6.775888e-05 -7.200386e-05 -7.635700e-05 -8.094184e-05 -8.575913e-05 -9.097219e-05 -9.659756e-05 -1.028266e-04 -1.097118e-04 -1.174541e-04 -1.261676e-04 -1.360384e-04 -1.472706e-04 -1.600075e-04 -1.745674e-04 -1.910231e-04 -2.098193e-04 -2.309332e-04 -2.549274e-04 -2.816637e-04 -3.117846e-04 -3.450242e-04 -3.820331e-04 -4.224131e-04 -4.667198e-04 -5.144264e-04 -5.658699e-04 -6.204072e-04 -6.780321e-04 -7.380062e-04 -7.998788e-04 -8.628471e-04 -9.259585e-04 -9.883887e-04 -1.048684e-03 -1.106053e-03 -1.158602e-03 -1.205645e-03 -1.244966e-03 -1.276070e-03 -1.296589e-03 -1.306322e-03 -1.302961e-03 -1.286721e-03 -1.255594e-03 -1.210325e-03 -1.149469e-03 -1.074374e-03 -9.844205e-04 -8.815517e-04 -7.662026e-04 -6.408063e-04 -5.070045e-04 -3.675372e-04 -2.252737e-04 -8.303617e-05 5.526912e-05 1.870041e-04 3.077406e-04 4.154123e-04 5.059817e-04 5.785142e-04 6.305015e-04 6.626523e-04 6.747864e-04 6.692263e-04 6.479362e-04 6.140472e-04 5.705248e-04 5.202461e-04 4.659661e-04 4.097229e-04 3.534706e-04 2.984153e-04 2.457408e-04 1.961338e-04 1.503147e-04 1.087293e-04 7.186244e-05 3.998485e-05 1.333149e-05 -8.102632e-06 -2.445542e-05 -3.605498e-05 -4.338843e-05 -4.699769e-05 -4.754154e-05 -4.560928e-05 -4.184430e-05 -3.676194e-05 -3.087649e-05 -2.457737e-05 -1.821227e-05 -1.204340e-05 -6.262991e-06 -1.030344e-06 3.584816e-06 7.494643e-06 1.071437e-05 1.319930e-05 1.501636e-05 1.614311e-05 
-7.138490e-04 -3.559207e-03 -6.126613e-03 -8.408725e-03 -1.040198e-02 -1.210447e-02 -1.351730e-02 -1.464348e-02 -1.548833e-02 -1.605929e-02 -1.636557e-02 -1.641862e-02 -1.623131e-02 -1.581880e-02 -1.519745e-02 -1.438596e-02 -1.340412e-02 -1.227403e-02 -1.101890e-02 -9.664260e-03 -8.236790e-03 -6.765568e-03 -5.280974e-03 -3.815902e-03 -2.404756e-03 -1.084687e-03 1.054524e-04 1.123725e-03 1.926392e-03 2.466246e-03 2.694379e-03 2.558110e-03 2.003490e-03 9.727552e-04 -5.922327e-04 -2.752941e-03 -5.569754e-03 -9.105084e-03 -1.341816e-02 -1.856787e-02 -2.460716e-02 -3.158499e-02 -3.954115e-02 -4.850654e-02 -5.849933e-02 -6.952305e-02 -8.156509e-02 -9.459225e-02 -1.085526e-01 -1.233684e-01 -1.389422e-01 -1.551478e-01 -1.718402e-01 -1.888460e-01 -2.059760e-01 -2.230171e-01 -2.397443e-01 -2.559168e-01 -2.712857e-01 -2.855956e-01 -2.985847e-01 -3.099937e-01 -3.195542e-01 -3.270085e-01 -3.320820e-01 -3.345205e-01 -3.340424e-01 -3.304013e-01 -3.233162e-01 -3.125676e-01 -2.979045e-01 -2.791805e-01 -2.562373e-01 -2.290803e-01 -1.977429e-01 -1.624827e-01 -1.236420e-01 -8.182108e-02 -3.776197e-02 7.560704e-03 5.300315e-02 9.729327e-02 1.390295e-01 1.768586e-01 2.094377e-01 2.356955e-01 2.548119e-01 2.664664e-01 2.708407e-01 2.687282e-01 2.614582e-01 2.507642e-01 2.385469e-01 2.265791e-01 2.162459e-01 2.083841e-01 2.032062e-01 2.003726e-01 1.990660e-01 1.982354e-01 1.967373e-01 1.935735e-01 1.880134e-01 1.797581e-01 1.689812e-01 1.563143e-01 1.426432e-01 1.288958e-01 1.158040e-01 1.038412e-01 9.319114e-02 8.384320e-02 7.564442e-02 6.839700e-02 6.188549e-02 5.592829e-02 5.037131e-02 4.510888e-02 4.006349e-02 3.519493e-02 3.047930e-02 2.591544e-02 2.150779e-02 1.727260e-02 1.322523e-02 9.386176e-03 5.772037e-03 2.400909e-03 
-1.861716e-03 -7.537094e-03 -1.265828e-02 -1.721032e-02 -2.118564e-02 -2.458017e-02 -2.739576e-02 -2.963816e-02 -3.131779e-02 -3.244923e-02 -3.305076e-02 -3.314497e-02 -3.275754e-02 -3.191850e-02 -3.066060e-02 -2.902092e-02 -2.703912e-02 -2.475910e-02 -2.222739e-02 -1.949466e-02 -1.661452e-02 -1.364459e-02 -1.064595e-02 -7.683757e-03 -4.827197e-03 -2.149837e-03 2.701463e-04 2.349683e-03 4.000716e-03 5.129625e-03 5.637890e-03 5.420808e-03 4.369628e-03 2.369198e-03 -6.977804e-04 -4.954329e-03 -1.052241e-02 -1.752757e-02 -2.608963e-02 -3.632783e-02 -4.834959e-02 -6.225514e-02 -7.812558e-02 -9.602578e-02 -1.159936e-01 -1.380395e-01 -1.621395e-01 -1.882309e-01 -2.162100e-01 -2.459250e-01 -2.771799e-01 -3.097248e-01 -3.432672e-01 -3.774617e-01 -4.119261e-01 -4.462340e-01 -4.799313e-01 -5.125351e-01 -5.435443e-01 -5.724469e-01 -5.987178e-01 -6.218385e-01 -6.412728e-01 -6.565064e-01 -6.669930e-01 -6.722238e-01 -6.716375e-01 -6.647368e-01 -6.509557e-01 -6.298429e-01 -6.008818e-01 -5.637554e-01 -5.181217e-01 -4.639552e-01 -4.012917e-01 -3.306047e-01 -2.525551e-01 -1.683107e-01 -7.935827e-02 1.235961e-02 1.045090e-01 1.945099e-01 2.794647e-01 3.565763e-01 4.230285e-01 4.765373e-01 5.153365e-01 5.386526e-01 5.468197e-01 5.414389e-01 5.253354e-01 5.022116e-01 4.761664e-01 4.510170e-01 4.296902e-01 4.139172e-01 4.040691e-01 3.993368e-01 3.978849e-01 3.974062e-01 3.954219e-01 3.897696e-01 3.788593e-01 3.620333e-01 3.396912e-01 3.132904e-01 2.848596e-01 2.564732e-01 2.297000e-01 2.054874e-01 1.841408e-01 1.655558e-01 1.493534e-01 1.350824e-01 1.222794e-01 1.105622e-01 9.961736e-02 8.923199e-02 7.925516e-02 6.960955e-02 6.025244e-02 5.118440e-02 4.241806e-02 3.398773e-02 2.592654e-02 1.827643e-02 1.107205e-02 4.350127e-03 
-3.848123e-03 -1.231994e-02 -1.996623e-02 -2.676297e-02 -3.269842e-02 -3.776518e-02 -4.196570e-02 -4.530754e-02 -4.780597e-02 -4.948202e-02 -5.036270e-02 -5.048132e-02 -4.987587e-02 -4.859109e-02 -4.667547e-02 -4.418452e-02 -4.117701e-02 -3.771880e-02 -3.387887e-02 -2.973335e-02 -2.536164e-02 -2.085042e-02 -1.629012e-02 -1.177878e-02 -7.418847e-03 -3.321070e-03 3.986666e-04 3.615221e-03 6.197784e-03 8.005131e-03 8.890421e-03 8.695398e-03 7.257234e-03 4.401398e-03 -4.872982e-05 -6.280294e-03 -1.447821e-02 -2.483439e-02 -3.753209e-02 -5.275484e-02 -7.066892e-02 -9.143028e-02 -1.151672e-01 -1.419833e-01 -1.719427e-01 -2.050673e-01 -2.413287e-01 -2.806373e-01 -3.228442e-01 -3.677234e-01 -4.149846e-01 -4.642515e-01 -5.150850e-01 -5.669611e-01 -6.193026e-01 -6.714606e-01 -7.227480e-01 -7.724298e-01 -8.197489e-01 -8.639287e-01 -9.041793e-01 -9.397186e-01 -9.697450e-01 -9.934866e-01 -1.010129e+00 -1.018907e+00 -1.018979e+00 -1.009589e+00 -9.898733e-01 -9.591218e-01 -9.165206e-01 -8.615344e-01 -7.935795e-01 -7.125368e-01 -6.183655e-01 -5.116993e-01 -3.934381e-01 -2.653018e-01 -1.294761e-01 1.107056e-02 1.527875e-01 2.916413e-01 4.231072e-01 5.427181e-01 6.459349e-01 7.289805e-01 7.888202e-01 8.240026e-01 8.348320e-01 8.238112e-01 7.955320e-01 7.562266e-01 7.128508e-01 6.718803e-01 6.381374e-01 6.143254e-01 6.008767e-01 5.962262e-01 5.970581e-01 5.993933e-01 5.990096e-01 5.922485e-01 5.763736e-01 5.501937e-01 5.144313e-01 4.718141e-01 4.261544e-01 3.811710e-01 3.394789e-01 3.024598e-01 2.703708e-01 2.428227e-01 2.190472e-01 1.982318e-01 1.795964e-01 1.625300e-01 1.465457e-01 1.313281e-01 1.166567e-01 1.024282e-01 8.858698e-02 7.514465e-02 6.212601e-02 4.958979e-02 3.758888e-02 2.619084e-02 1.544924e-02 5.422169e-03 
-7.061048e-03 -1.828548e-02 -2.841943e-02 -3.742911e-02 -4.529705e-02 -5.201183e-02 -5.757518e-02 -6.199576e-02 -6.529269e-02 -6.749268e-02 -6.863075e-02 -6.875011e-02 -6.790070e-02 -6.614103e-02 -6.353533e-02 -6.015650e-02 -5.608267e-02 -5.140053e-02 -4.620198e-02 -4.058727e-02 -3.466231e-02 -2.854122e-02 -2.234469e-02 -1.620175e-02 -1.024925e-02 -4.632972e-03 4.921490e-04 4.961110e-03 8.598726e-03 1.121823e-02 1.262247e-02 1.260119e-02 1.093500e-02 7.390614e-03 1.728979e-03 -6.301979e-03 -1.695397e-02 -3.048800e-02 -4.715543e-02 -6.720904e-02 -9.087947e-02 -1.183858e-01 -1.499097e-01 -1.856027e-01 -2.255619e-01 -2.698315e-01 -3.183839e-01 -3.711142e-01 -4.278312e-01 -4.882442e-01 -5.519685e-01 -6.185062e-01 -6.872668e-01 -7.575477e-01 -8.285659e-01 -8.994450e-01 -9.692500e-01 -1.036986e+00 -1.101624e+00 -1.162117e+00 -1.217399e+00 -1.266422e+00 -1.308115e+00 -1.341452e+00 -1.365352e+00 -1.378799e+00 -1.380673e+00 -1.369950e+00 -1.345454e+00 -1.306189e+00 -1.250997e+00 -1.179057e+00 -1.089462e+00 -9.818916e-01 -8.561233e-01 -7.128199e-01 -5.530341e-01 -3.789256e-01 -1.933753e-01 -3.403679e-04 1.952754e-01 3.878934e-01 5.710659e-01 7.383906e-01 8.831688e-01 9.996568e-01 1.083048e+00 1.130663e+00 1.142522e+00 1.121970e+00 1.075902e+00 1.013995e+00 9.473048e-01 8.861490e-01 8.377645e-01 8.058508e-01 7.907864e-01 7.897391e-01 7.970509e-01 8.063873e-01 8.111696e-01 8.057176e-01 7.856418e-01 7.487831e-01 6.962163e-01 6.328445e-01 5.655981e-01 5.007929e-01 4.423504e-01 3.918823e-01 3.492152e-01 3.133103e-01 2.827466e-01 2.561841e-01 2.324452e-01 2.106540e-01 1.901501e-01 1.705222e-01 1.514984e-01 1.329621e-01 1.148607e-01 9.722598e-02 8.010549e-02 6.358734e-02 4.775083e-02 3.269156e-02 1.848619e-02 5.215442e-03 
-1.189873e-02 -2.581222e-02 -3.837949e-02 -4.955427e-02 -5.931317e-02 -6.763857e-02 -7.453118e-02 -7.999903e-02 -8.406457e-02 -8.675892e-02 -8.812442e-02 -8.821331e-02 -8.708658e-02 -8.481609e-02 -8.148063e-02 -7.717050e-02 -7.198171e-02 -6.602215e-02 -5.940479e-02 -5.225469e-02 -4.470198e-02 -3.688918e-02 -2.896452e-02 -2.108919e-02 -1.343132e-02 -6.173148e-03 4.946591e-04 6.365555e-03 1.122320e-02 1.483318e-02 1.695070e-02 1.731077e-02 1.563898e-02 1.163965e-02 5.011038e-03 -4.568675e-03 -1.742079e-02 -3.388162e-02 -5.427651e-02 -7.893526e-02 -1.081622e-01 -1.422486e-01 -1.814418e-01 -2.259517e-01 -2.759226e-01 -3.314305e-01 -3.924642e-01 -4.589099e-01 -5.305477e-01 -6.070244e-01 -6.878690e-01 -7.724571e-01 -8.600478e-01 -9.497462e-01 -1.040558e+00 -1.131356e+00 -1.220949e+00 -1.308057e+00 -1.391368e+00 -1.469544e+00 -1.541237e+00 -1.605126e+00 -1.659874e+00 -1.704202e+00 -1.736778e+00 -1.756336e+00 -1.761488e+00 -1.750935e+00 -1.723181e+00 -1.676895e+00 -1.610527e+00 -1.522874e+00 -1.412594e+00 -1.279027e+00 -1.121596e+00 -9.408535e-01 -7.378120e-01 -5.150069e-01 -2.758735e-01 -2.544818e-02 2.300103e-01 4.831003e-01 7.252374e-01 9.476246e-01 1.140909e+00 1.296710e+00 1.407611e+00 1.468898e+00 1.479554e+00 1.443676e+00 1.371020e+00 1.276251e+00 1.176694e+00 1.088742e+00 1.022783e+00 9.829495e-01 9.697756e-01 9.783473e-01 9.988199e-01 1.021749e+00 1.037280e+00 1.037112e+00 1.014419e+00 9.649265e-01 8.896949e-01 7.975357e-01 7.014309e-01 6.119580e-01 5.344680e-01 4.701374e-01 4.175695e-01 3.744724e-01 3.383880e-01 3.072625e-01 2.794365e-01 2.537628e-01 2.294165e-01 2.059232e-01 1.829806e-01 1.604875e-01 1.384092e-01 1.168161e-01 9.578642e-02 7.544912e-02 5.591335e-02 3.730986e-02 1.973973e-02 3.311039e-03 
-1.869350e-02 -3.522874e-02 -5.017200e-02 -6.346349e-02 -7.507158e-02 -8.497128e-02 -9.316038e-02 -9.964498e-02 -1.044494e-01 -1.076077e-01 -1.091686e-01 -1.091918e-01 -1.077490e-01 -1.049236e-01 -1.008091e-01 -9.551142e-02 -8.914492e-02 -8.183673e-02 -7.372175e-02 -6.494754e-02 -5.566966e-02 -4.605624e-02 -3.628453e-02 -2.654465e-02 -1.703770e-02 -7.978734e-03 4.038802e-04 7.865883e-03 1.414744e-02 1.897008e-02 2.203850e-02 2.303575e-02 2.162878e-02 1.746068e-02 1.016236e-02 -6.590443e-04 -1.540036e-02 -3.447788e-02 -5.829842e-02 -8.727758e-02 -1.218024e-01 -1.622497e-01 -2.089433e-01 -2.621682e-01 -3.221282e-01 -3.889507e-01 -4.626521e-01 -5.431304e-01 -6.301447e-01 -7.232965e-01 -8.220299e-01 -9.256039e-01 -1.033118e+00 -1.143485e+00 -1.255475e+00 -1.367705e+00 -1.478688e+00 -1.586844e+00 -1.690545e+00 -1.788143e+00 -1.877987e+00 -1.958471e+00 -2.027990e+00 -2.085021e+00 -2.127991e+00 -2.155406e+00 -2.165628e+00 -2.157090e+00 -2.127975e+00 -2.076589e+00 -2.000930e+00 -1.899316e+00 -1.769834e+00 -1.611292e+00 -1.422562e+00 -1.203822e+00 -9.558457e-01 -6.812856e-01 -3.840636e-01 -7.015033e-02 2.526536e-01 5.750613e-01 8.858720e-01 1.173559e+00 1.425351e+00 1.629393e+00 1.774444e+00 1.852192e+00 1.859299e+00 1.799825e+00 1.687234e+00 1.543365e+00 1.395628e+00 1.271429e+00 1.184826e+00 1.137244e+00 1.131837e+00 1.160287e+00 1.203905e+00 1.250272e+00 1.284824e+00 1.296268e+00 1.274505e+00 1.210140e+00 1.102039e+00 9.665460e-01 8.296522e-01 7.089023e-01 6.102677e-01 5.326863e-01 4.720320e-01 4.238448e-01 3.841928e-01 3.501467e-01 3.195536e-01 2.910302e-01 2.636484e-01 2.369175e-01 2.105531e-01 1.844981e-01 1.587643e-01 1.334752e-01 1.087557e-01 8.478209e-02 6.170231e-02 3.968533e-02 1.886204e-02 -6.305726e-04 
-2.779192e-02 -4.686157e-02 -6.410592e-02 -7.944836e-02 -9.284875e-02 -1.042719e-01 -1.137122e-01 -1.211715e-01 -1.266752e-01 -1.302587e-01 -1.319756e-01 -1.318925e-01 -1.300897e-01 -1.266622e-01 -1.217160e-01 -1.153730e-01 -1.077634e-01 -9.903425e-02 -8.933957e-02 -7.885044e-02 -6.774433e-02 -5.621637e-02 -4.446862e-02 -3.272171e-02 -2.120493e-02 -1.016789e-02 1.284756e-04 9.400177e-03 1.734894e-02 2.364979e-02 2.796114e-02 2.991087e-02 2.910980e-02 2.513535e-02 1.755076e-02 5.885901e-03 -1.033590e-02 -3.161945e-02 -5.846241e-02 -9.137741e-02 -1.308494e-01 -1.773546e-01 -2.313141e-01 -2.931044e-01 -3.630134e-01 -4.412370e-01 -5.278456e-01 -6.227623e-01 -7.257498e-01 -8.363695e-01 -9.539965e-01 -1.077766e+00 -1.206620e+00 -1.339254e+00 -1.474194e+00 -1.609752e+00 -1.744129e+00 -1.875392e+00 -2.001569e+00 -2.120664e+00 -2.230703e+00 -2.329779e+00 -2.416026e+00 -2.487684e+00 -2.542973e+00 -2.580197e+00 -2.597510e+00 -2.593095e+00 -2.564833e+00 -2.510633e+00 -2.427999e+00 -2.314639e+00 -2.167915e+00 -1.985869e+00 -1.766531e+00 -1.509427e+00 -1.214714e+00 -8.849754e-01 -5.242853e-01 -1.396180e-01 2.598111e-01 6.624416e-01 1.054295e+00 1.420498e+00 1.744336e+00 2.009429e+00 2.199128e+00 2.299091e+00 2.300779e+00 2.206496e+00 2.033913e+00 1.814977e+00 1.593155e+00 1.419657e+00 1.312463e+00 1.255035e+00 1.267097e+00 1.334827e+00 1.414734e+00 1.499250e+00 1.564202e+00 1.596860e+00 1.584668e+00 1.504963e+00 1.345690e+00 1.138552e+00 9.413983e-01 7.816340e-01 6.616287e-01 5.738349e-01 5.088688e-01 4.590225e-01 4.185564e-01 3.836951e-01 3.519030e-01 3.217044e-01 2.921684e-01 2.628794e-01 2.336225e-01 2.044322e-01 1.753892e-01 1.466945e-01 1.185284e-01 9.112771e-02 6.468240e-02 3.940735e-02 1.546425e-02 -6.975759e-03 
-3.944165e-02 -6.096193e-02 -8.043667e-02 -9.777094e-02 -1.129136e-01 -1.258175e-01 -1.364715e-01 -1.448711e-01 -1.510411e-01 -1.550159e-01 -1.568533e-01 -1.566238e-01 -1.544164e-01 -1.503350e-01 -1.444985e-01 -1.370419e-01 -1.281123e-01 -1.178738e-01 -1.065006e-01 -9.418417e-02 -8.112549e-02 -6.754270e-02 -5.366461e-02 -3.973763e-02 -2.602134e-02 -1.279455e-02 -3.529969e-04 1.098528e-02 2.088105e-02 2.896825e-02 3.485601e-02 3.812128e-02 3.831486e-02 3.495045e-02 2.751839e-02 1.546956e-02 -1.759681e-03 -2.476948e-02 -5.415791e-02 -9.054786e-02 -1.345347e-01 -1.867145e-01 -2.476213e-01 -3.177506e-01 -3.974928e-01 -4.871451e-01 -5.868510e-01 -6.965940e-01 -8.161551e-01 -9.450868e-01 -1.082700e+00 -1.228025e+00 -1.379834e+00 -1.536603e+00 -1.696574e+00 -1.857734e+00 -2.017908e+00 -2.174771e+00 -2.325940e+00 -2.469025e+00 -2.601681e+00 -2.721683e+00 -2.826889e+00 -2.915326e+00 -2.985040e+00 -3.034188e+00 -3.060774e+00 -3.062797e+00 -3.037873e+00 -2.983536e+00 -2.896755e+00 -2.774535e+00 -2.613334e+00 -2.410161e+00 -2.161864e+00 -1.866870e+00 -1.524321e+00 -1.136212e+00 -7.065299e-01 -2.428756e-01 2.439293e-01 7.401421e-01 1.228359e+00 1.690282e+00 2.104432e+00 2.449346e+00 2.700934e+00 2.834959e+00 2.832096e+00 2.688265e+00 2.426341e+00 2.090681e+00 1.745632e+00 1.506785e+00 1.397530e+00 1.311466e+00 1.356768e+00 1.508010e+00 1.632793e+00 1.779716e+00 1.888193e+00 1.954258e+00 1.973716e+00 1.888792e+00 1.643789e+00 1.303809e+00 1.016371e+00 8.129294e-01 6.774591e-01 5.874219e-01 5.249782e-01 4.785366e-01 4.407983e-01 4.075530e-01 3.762485e-01 3.455653e-01 3.147481e-01 2.835588e-01 2.519271e-01 2.200173e-01 1.880114e-01 1.562015e-01 1.248383e-01 9.422411e-02 6.459853e-02 3.622434e-02 9.298692e-03 -1.597194e-02 
-5.390509e-02 -7.777180e-02 -9.938744e-02 -1.186356e-01 -1.354537e-01 -1.497797e-01 -1.615959e-01 -1.708893e-01 -1.776826e-01 -1.820074e-01 -1.839238e-01 -1.835053e-01 -1.808473e-01 -1.760621e-01 -1.692788e-01 -1.606460e-01 -1.503242e-01 -1.384957e-01 -1.253510e-01 -1.111031e-01 -9.597193e-02 -8.020023e-02 -6.403778e-02 -4.775863e-02 -3.164593e-02 -1.600953e-02 -1.172686e-03 1.251072e-02 2.466773e-02 3.488919e-02 4.274117e-02 4.774706e-02 4.940151e-02 4.715051e-02 4.041147e-02 2.854997e-02 1.090965e-02 -1.321460e-02 -4.453455e-02 -8.379730e-02 -1.317308e-01 -1.890700e-01 -2.564933e-01 -3.346392e-01 -4.240403e-01 -5.251217e-01 -6.381443e-01 -7.631764e-01 -9.000596e-01 -1.048352e+00 -1.207330e+00 -1.375911e+00 -1.552704e+00 -1.735927e+00 -1.923514e+00 -2.113057e+00 -2.301949e+00 -2.487381e+00 -2.666495e+00 -2.836424e+00 -2.994410e+00 -3.137864e+00 -3.264381e+00 -3.371793e+00 -3.458040e+00 -3.521203e+00 -3.559251e+00 -3.570069e+00 -3.551129e+00 -3.499599e+00 -3.411954e+00 -3.284357e+00 -3.112214e+00 -2.891142e+00 -2.616399e+00 -2.284782e+00 -1.893767e+00 -1.444308e+00 -9.396193e-01 -3.878918e-01 1.988315e-01 8.040612e-01 1.406978e+00 1.985238e+00 2.512959e+00 2.963484e+00 3.304517e+00 3.496255e+00 3.497234e+00 3.285486e+00 2.893413e+00 2.378895e+00 1.797462e+00 1.471205e+00 1.468757e+00 1.247498e+00 1.354173e+00 1.722512e+00 1.844517e+00 2.114948e+00 2.271682e+00 2.375416e+00 2.484746e+00 2.447986e+00 2.047861e+00 1.422142e+00 1.009379e+00 7.752414e-01 6.446771e-01 5.683665e-01 5.188873e-01 4.822731e-01 4.511498e-01 4.219271e-01 3.926523e-01 3.625357e-01 3.311918e-01 2.986821e-01 2.651385e-01 2.308980e-01 1.962600e-01 1.616254e-01 1.273194e-01 9.371818e-02 6.111171e-02 2.981586e-02 6.309212e-05 -2.790086e-02 
-7.130959e-02 -9.742957e-02 -1.211091e-01 -1.422082e-01 -1.606506e-01 -1.763571e-01 -1.893013e-01 -1.994585e-01 -2.068478e-01 -2.114947e-01 -2.134608e-01 -2.128189e-01 -2.096706e-01 -2.041333e-01 -1.963466e-01 -1.864693e-01 -1.746767e-01 -1.611650e-01 -1.461432e-01 -1.298412e-01 -1.125001e-01 -9.438188e-02 -7.575973e-02 -5.692884e-02 -3.819824e-02 -1.990142e-02 -2.391237e-03 1.395052e-02 2.871521e-02 4.145833e-02 5.170072e-02 5.891853e-02 6.254737e-02 6.196885e-02 5.652292e-02 4.548838e-02 2.810904e-02 3.566191e-03 -2.897632e-02 -7.040776e-02 -1.216042e-01 -1.834685e-01 -2.568449e-01 -3.425554e-01 -4.413027e-01 -5.536912e-01 -6.801308e-01 -8.208319e-01 -9.757269e-01 -1.144433e+00 -1.326208e+00 -1.519894e+00 -1.723922e+00 -1.936253e+00 -2.154452e+00 -2.375665e+00 -2.596749e+00 -2.814320e+00 -3.024909e+00 -3.225080e+00 -3.411549e+00 -3.581321e+00 -3.731697e+00 -3.860352e+00 -3.965196e+00 -4.044355e+00 -4.095902e+00 -4.117783e+00 -4.107459e+00 -4.061880e+00 -3.977065e+00 -3.848336e+00 -3.669858e+00 -3.435548e+00 -3.138555e+00 -2.773354e+00 -2.335004e+00 -1.822463e+00 -1.237565e+00 -5.882844e-01 1.119483e-01 8.441231e-01 1.582830e+00 2.302051e+00 2.971338e+00 3.562159e+00 4.035878e+00 4.332912e+00 4.364997e+00 4.059287e+00 3.484471e+00 2.737080e+00 1.599353e+00 1.122976e+00 1.773961e+00 8.685509e-01 1.107879e+00 2.202547e+00 1.927745e+00 2.584505e+00 2.729884e+00 2.813851e+00 3.167121e+00 3.394640e+00 2.694924e+00 1.335996e+00 8.278132e-01 6.340549e-01 5.549816e-01 5.173641e-01 4.934065e-01 4.728724e-01 4.515758e-01 4.281227e-01 4.019318e-01 3.730871e-01 3.417497e-01 3.083519e-01 2.732721e-01 2.370328e-01 2.000639e-01 1.628761e-01 1.258737e-01 8.950605e-02 5.411608e-02 2.007237e-02 -1.235554e-02 -4.288209e-02 
-9.179446e-02 -1.200523e-01 -1.456967e-01 -1.685621e-01 -1.885577e-01 -2.055844e-01 -2.196059e-01 -2.305838e-01 -2.385312e-01 -2.434661e-01 -2.454485e-01 -2.445500e-01 -2.408750e-01 -2.345459e-01 -2.257092e-01 -2.145342e-01 -2.012069e-01 -1.859389e-01 -1.689521e-01 -1.504958e-01 -1.308253e-01 -1.102245e-01 -8.898209e-02 -6.741646e-02 -4.585364e-02 -2.465224e-02 -4.184973e-03 1.513761e-02 3.288107e-02 4.856515e-02 6.167427e-02 7.163679e-02 7.783527e-02 7.958524e-02 7.615023e-02 6.671785e-02 5.042557e-02 2.633230e-02 -6.539489e-03 -4.923651e-02 -1.028129e-01 -1.683634e-01 -2.469431e-01 -3.395911e-01 -4.472399e-01 -5.707151e-01 -7.106471e-01 -8.674331e-01 -1.041169e+00 -1.231564e+00 -1.437918e+00 -1.658997e+00 -1.893073e+00 -2.137798e+00 -2.390327e+00 -2.647237e+00 -2.904743e+00 -3.158707e+00 -3.404913e+00 -3.639178e+00 -3.857592e+00 -4.056656e+00 -4.233377e+00 -4.385314e+00 -4.510468e+00 -4.607165e+00 -4.673807e+00 -4.708601e+00 -4.709276e+00 -4.672723e+00 -4.594737e+00 -4.469742e+00 -4.290630e+00 -4.049134e+00 -3.735773e+00 -3.341778e+00 -2.858731e+00 -2.282622e+00 -1.612580e+00 -8.560166e-01 -2.692636e-02 8.520443e-01 1.750396e+00 2.636640e+00 3.477330e+00 4.247863e+00 4.918254e+00 5.415818e+00 5.560938e+00 5.102166e+00 4.256226e+00 3.495506e+00 7.468074e-01 -3.738565e-01 2.190896e+00 2.266462e+00 1.353805e-02 2.474587e+00 2.023233e+00 1.856378e+00 1.907735e+00 1.275730e+00 2.264371e+00 1.379478e+00 1.572024e+00 4.121760e-01 3.389503e-01 3.794473e-01 4.215619e-01 4.473004e-01 4.574059e-01 4.558217e-01 4.453038e-01 4.279797e-01 4.050827e-01 3.777144e-01 3.466095e-01 3.125750e-01 2.762221e-01 2.382526e-01 1.992167e-01 1.597308e-01 1.202731e-01 8.136465e-02 4.339833e-02 6.795658e-03 -2.813795e-02 -6.107608e-02 
-1.153188e-01 -1.456170e-01 -1.731492e-01 -1.977208e-01 -2.192255e-01 -2.375406e-01 -2.526186e-01 -2.644026e-01 -2.728989e-01 -2.781130e-01 -2.801029e-01 -2.789337e-01 -2.747131e-01 -2.675633e-01 -2.576391e-01 -2.451154e-01 -2.301908e-01 -2.130871e-01 -1.940420e-01 -1.733180e-01 -1.511882e-01 -1.279508e-01 -1.039132e-01 -7.940856e-02 -5.478218e-02 -3.040801e-02 -6.680021e-03 1.597324e-02 3.709105e-02 5.616819e-02 7.265269e-02 8.593452e-02 9.534289e-02 1.001332e-01 9.949066e-02 9.251159e-02 7.822219e-02 5.554945e-02 2.336459e-02 -1.955886e-02 -7.447056e-02 -1.426955e-01 -2.255269e-01 -3.242791e-01 -4.401537e-01 -5.742755e-01 -7.275471e-01 -9.006454e-01 -1.093887e+00 -1.307171e+00 -1.539881e+00 -1.790780e+00 -2.057983e+00 -2.338841e+00 -2.630013e+00 -2.927421e+00 -3.226442e+00 -3.522001e+00 -3.808866e+00 -4.081896e+00 -4.336317e+00 -4.568016e+00 -4.773637e+00 -4.950698e+00 -5.097435e+00 -5.212620e+00 -5.295262e+00 -5.344169e+00 -5.357656e+00 -5.332934e+00 -5.265810e+00 -5.150066e+00 -4.977217e+00 -4.736590e+00 -4.415323e+00 -4.000427e+00 -3.478678e+00 -2.841445e+00 -2.083778e+00 -1.210800e+00 -2.369015e-01 8.117918e-01 1.896341e+00 2.977365e+00 4.014207e+00 4.996713e+00 5.939136e+00 6.827705e+00 7.343118e+00 6.535363e+00 4.957255e+00 6.007896e+00 5.284065e+00 3.987984e+00 -1.388877e+00 8.822607e-01 1.399019e+00 -9.050019e-01 -5.457713e-01 -1.862485e+00 -1.898763e+00 -2.477551e+00 -2.114617e+00 -4.083928e+00 -2.165379e+00 -1.100902e+00 -2.535465e-01 1.250261e-01 3.022304e-01 3.868735e-01 4.252767e-01 4.384791e-01 4.362235e-01 4.236145e-01 4.033043e-01 3.771169e-01 3.461999e-01 3.116240e-01 2.741756e-01 2.346945e-01 1.938292e-01 1.522858e-01 1.106065e-01 6.937803e-02 2.903845e-02 -9.939716e-03 -4.721752e-02 -8.242717e-02 
-1.418497e-01 -1.740638e-01 -2.033776e-01 -2.295680e-01 -2.525110e-01 -2.720596e-01 -2.881520e-01 -3.007121e-01 -3.097358e-01 -3.152151e-01 -3.172018e-01 -3.157543e-01 -3.109786e-01 -3.029974e-01 -2.919681e-01 -2.780731e-01 -2.615171e-01 -2.425347e-01 -2.213723e-01 -1.983085e-01 -1.736259e-01 -1.476400e-01 -1.206670e-01 -9.305706e-02 -6.516337e-02 -3.737615e-02 -1.009776e-02 1.622597e-02 4.112140e-02 6.406077e-02 8.446814e-02 1.016985e-01 1.150371e-01 1.236823e-01 1.267446e-01 1.232295e-01 1.120461e-01 9.198490e-02 6.174626e-02 1.991038e-02 -3.500564e-02 -1.045840e-01 -1.904169e-01 -2.941382e-01 -4.173058e-01 -5.614078e-01 -7.277307e-01 -9.173113e-01 -1.130812e+00 -1.368401e+00 -1.629655e+00 -1.913378e+00 -2.217576e+00 -2.539248e+00 -2.874493e+00 -3.218385e+00 -3.565250e+00 -3.908747e+00 -4.242316e+00 -4.559498e+00 -4.854408e+00 -5.122113e+00 -5.358872e+00 -5.562233e+00 -5.730906e+00 -5.864399e+00 -5.962714e+00 -6.025661e+00 -6.052649e+00 -6.041668e+00 -5.989149e+00 -5.888495e+00 -5.730153e+00 -5.500493e+00 -5.182708e+00 -4.757997e+00 -4.206761e+00 -3.513831e+00 -2.667755e+00 -1.669987e+00 -5.330322e-01 7.120908e-01 2.015322e+00 3.319775e+00 4.564253e+00 5.744660e+00 6.980079e+00 8.587049e+00 1.044350e+01 9.000493e+00 1.036675e+00 -4.854093e+00 -2.092414e+00 8.479964e-02 -1.170716e+00 -4.507547e+00 -3.379589e+00 -3.457540e+00 -4.102958e+00 -3.411786e+00 -3.743338e+00 -2.964170e+00 -4.100694e+00 -4.289083e+00 -3.601753e+00 -1.416007e+00 -3.665295e-01 7.410586e-02 2.723995e-01 3.658812e-01 4.095491e-01 4.264809e-01 4.270206e-01 4.163835e-01 3.972977e-01 3.716596e-01 3.406951e-01 3.055638e-01 2.671306e-01 2.263168e-01 1.838375e-01 1.404665e-01 9.679911e-02 5.347710e-02 1.098025e-02 -3.017345e-02 -6.961218e-02 -1.069297e-01 
-1.711102e-01 -2.051398e-01 -2.361618e-01 -2.639191e-01 -2.882716e-01 -3.090415e-01 -3.261537e-01 -3.395052e-01 -3.490821e-01 -3.548551e-01 -3.568704e-01 -3.551720e-01 -3.498656e-01 -3.410668e-01 -3.289385e-01 -3.136628e-01 -2.954547e-01 -2.745539e-01 -2.512203e-01 -2.257405e-01 -1.984111e-01 -1.695560e-01 -1.395041e-01 -1.086116e-01 -7.724217e-02 -4.578929e-02 -1.466436e-02 1.568415e-02 4.477139e-02 7.206225e-02 9.696049e-02 1.188002e-01 1.368272e-01 1.501932e-01 1.579375e-01 1.589783e-01 1.521078e-01 1.359721e-01 1.090948e-01 6.983812e-02 1.646959e-02 -5.289746e-02 -1.401865e-01 -2.474273e-01 -3.765894e-01 -5.296359e-01 -7.083206e-01 -9.141876e-01 -1.148356e+00 -1.411427e+00 -1.703290e+00 -2.022932e+00 -2.368309e+00 -2.736118e+00 -3.121801e+00 -3.519435e+00 -3.921964e+00 -4.321394e+00 -4.709302e+00 -5.077416e+00 -5.418238e+00 -5.725737e+00 -5.995660e+00 -6.225758e+00 -6.415548e+00 -6.565749e+00 -6.677876e+00 -6.753277e+00 -6.793008e+00 -6.796552e+00 -6.761621e+00 -6.682057e+00 -6.547482e+00 -6.341440e+00 -6.042081e+00 -5.623544e+00 -5.057579e+00 -4.319986e+00 -3.390149e+00 -2.262009e+00 -9.436954e-01 5.312606e-01 2.097608e+00 3.669399e+00 5.126763e+00 6.391542e+00 7.617508e+00 1.008306e+01 1.681838e+01 1.848187e+00 -1.614131e+00 -2.437557e-01 -2.996749e+00 -1.161472e+01 -8.351150e+00 -3.038868e-01 -4.022283e+00 -1.106369e+00 -1.069938e+00 5.626052e-01 -3.036119e-01 1.275925e+00 3.227001e-01 1.890577e+00 -6.677155e-01 -9.328605e-02 1.343028e-01 2.643808e-01 3.411791e-01 3.859376e-01 4.101422e-01 4.195924e-01 4.175982e-01 4.063302e-01 3.872046e-01 3.615420e-01 3.303298e-01 2.946514e-01 2.553590e-01 2.134051e-01 1.695372e-01 1.245797e-01 7.916417e-02 3.398192e-02 -1.045582e-02 -5.358632e-02 -9.501183e-02 -1.342857e-01 
-2.028320e-01 -2.385395e-01 -2.711542e-01 -3.003889e-01 -3.260833e-01 -3.480310e-01 -3.661384e-01 -3.802770e-01 -3.904168e-01 -3.965081e-01 -3.985843e-01 -3.966763e-01 -3.908814e-01 -3.813105e-01 -3.681230e-01 -3.515044e-01 -3.316704e-01 -3.088707e-01 -2.833681e-01 -2.554628e-01 -2.254541e-01 -1.936789e-01 -1.604659e-01 -1.261809e-01 -9.118289e-02 -5.586956e-02 -2.064429e-02 1.404430e-02 4.771833e-02 7.984162e-02 1.098154e-01 1.369622e-01 1.605034e-01 1.795548e-01 1.930933e-01 1.999595e-01 1.988265e-01 1.882002e-01 1.664088e-01 1.315902e-01 8.171965e-02 1.458061e-02 -7.215706e-02 -1.809738e-01 -3.143691e-01 -4.748753e-01 -6.648826e-01 -8.865808e-01 -1.141759e+00 -1.431621e+00 -1.756588e+00 -2.115973e+00 -2.507827e+00 -2.928541e+00 -3.372840e+00 -3.833513e+00 -4.301729e+00 -4.767195e+00 -5.218950e+00 -5.646126e+00 -6.039010e+00 -6.390043e+00 -6.694408e+00 -6.950297e+00 -7.158546e+00 -7.321694e+00 -7.443335e+00 -7.526937e+00 -7.575875e+00 -7.592064e+00 -7.575792e+00 -7.522583e+00 -7.422377e+00 -7.255568e+00 -6.994583e+00 -6.603552e+00 -6.043415e+00 -5.277778e+00 -4.273531e+00 -3.013534e+00 -1.494209e+00 2.523759e-01 2.148964e+00 4.076857e+00 5.824379e+00 7.029761e+00 6.992423e+00 7.479056e+00 2.736911e+00 -5.374737e+00 -1.301309e-01 -1.035873e+01 -1.130272e+01 7.674158e+00 5.672117e+00 1.094519e+00 2.431248e+00 3.792694e+00 2.967724e+00 4.320558e+00 3.737625e+00 4.077240e+00 4.615626e+00 2.970498e+00 2.592437e+00 1.413499e+00 7.270378e-01 5.007911e-01 4.319489e-01 4.154742e-01 4.133896e-01 4.117061e-01 4.051525e-01 3.921753e-01 3.724598e-01 3.465423e-01 3.150484e-01 2.789076e-01 2.389202e-01 1.960331e-01 1.510144e-01 1.047174e-01 5.780759e-02 1.101109e-02 -3.512835e-02 -8.001399e-02 -1.232197e-01 -1.642665e-01 
-2.364051e-01 -2.736825e-01 -3.078195e-01 -3.384907e-01 -3.655209e-01 -3.886654e-01 -4.078155e-01 -4.228059e-01 -4.335928e-01 -4.400941e-01 -4.423330e-01 -4.403147e-01 -4.341320e-01 -4.238787e-01 -4.097162e-01 -3.918218e-01 -3.704192e-01 -3.457565e-01 -3.181082e-01 -2.877758e-01 -2.550700e-01 -2.203278e-01 -1.838847e-01 -1.461012e-01 -1.073357e-01 -6.797300e-02 -2.840843e-02 1.092902e-02 4.957293e-02 8.700745e-02 1.226400e-01 1.558030e-01 1.857049e-01 2.114440e-01 2.319468e-01 2.459874e-01 2.521292e-01 2.487368e-01 2.339451e-01 2.056467e-01 1.615141e-01 9.895075e-02 1.518696e-02 -9.280098e-02 -2.281119e-01 -3.939991e-01 -5.936153e-01 -8.300212e-01 -1.105873e+00 -1.423276e+00 -1.783435e+00 -2.186305e+00 -2.630245e+00 -3.111529e+00 -3.624125e+00 -4.159343e+00 -4.706012e+00 -5.250759e+00 -5.778939e+00 -6.275929e+00 -6.728638e+00 -7.127288e+00 -7.466326e+00 -7.744911e+00 -7.966213e+00 -8.135665e+00 -8.259871e+00 -8.344932e+00 -8.397087e+00 -8.421627e+00 -8.422943e+00 -8.400358e+00 -8.345606e+00 -8.236958e+00 -8.039132e+00 -7.704300e+00 -7.178228e+00 -6.409886e+00 -5.351138e+00 -3.967302e+00 -2.234690e+00 -1.711628e-01 2.144598e+00 4.583263e+00 6.969525e+00 8.793614e+00 5.837988e+00 1.191962e+01 3.566330e+00 -1.651078e+00 -1.111063e+01 -7.345496e+00 3.423124e+00 5.336816e+00 2.737947e+00 3.911768e+00 5.556064e+00 5.063008e+00 5.794391e+00 3.422615e+00 4.550567e+00 2.111248e+00 3.315719e+00 -2.418962e+00 2.365445e+00 1.532085e+00 8.446637e-01 5.668473e-01 4.574784e-01 4.173716e-01 4.028386e-01 3.952739e-01 3.862080e-01 3.723765e-01 3.524836e-01 3.265827e-01 2.950411e-01 2.586813e-01 2.182542e-01 1.747082e-01 1.288178e-01 8.146692e-02 3.333949e-02 -1.480153e-02 -6.239429e-02 -1.088047e-01 -1.535908e-01 -1.962366e-01 