# vtk DataFile Version 2.0
Comment goes here
ASCII

DATASET STRUCTURED_POINTS
DIMENSIONS    128   128   1

ORIGIN    0.000   0.000   0.000
SPACING   0.0156250.015625   1.000

POINT_DATA   16384
SCALARS Omega double
LOOKUP_TABLE default

-8.493683e-07 -7.169894e-07 -6.288908e-07 -5.289631e-07 -4.752875e-07 -4.055857e-07 -3.816864e-07 -3.370665e-07 -3.357786e-07 -3.092479e-07 -3.216639e-07 -3.049516e-07 -3.210131e-07 -3.051490e-07 -3.144458e-07 -2.906677e-07 -2.837046e-07 -2.449261e-07 -2.150459e-07 -1.580495e-07 -1.041373e-07 -3.259153e-08 3.738386e-08 1.090633e-07 1.736989e-07 2.157185e-07 2.351475e-07 1.971183e-07 1.075494e-07 -8.701328e-08 -3.788018e-07 -8.378125e-07 -1.459471e-06 -2.326807e-06 -3.444121e-06 -4.902450e-06 -6.720644e-06 -8.991215e-06 -1.175223e-05 -1.508971e-05 -1.906317e-05 -2.374274e-05 -2.920738e-05 -3.550054e-05 -4.271225e-05 -5.084700e-05 -5.998931e-05 -7.009100e-05 -8.120514e-05 -9.321621e-05 -1.061111e-04 -1.196930e-04 -1.338424e-04 -1.482706e-04 -1.627127e-04 -1.767864e-04 -1.900526e-04 -2.020484e-04 -2.121548e-04 -2.198620e-04 -2.243987e-04 -2.252670e-04 -2.216122e-04 -2.130320e-04 -1.986978e-04 -1.784073e-04 -1.515003e-04 -1.180861e-04 -7.783186e-05 -3.126003e-05 2.148366e-05 7.939850e-05 1.417518e-04 2.070693e-04 2.740115e-04 3.407450e-04 4.054434e-04 4.661642e-04 5.208854e-04 5.679197e-04 6.054808e-04 6.325248e-04 6.479559e-04 6.516519e-04 6.435312e-04 6.244720e-04 5.954970e-04 5.583679e-04 5.150425e-04 4.678611e-04 4.192516e-04 3.715777e-04 3.269733e-04 2.870832e-04 2.529733e-04 2.250312e-04 2.029641e-04 1.859396e-04 1.726694e-04 1.616957e-04 1.515410e-04 1.409792e-04 1.291898e-04 1.158603e-04 1.012137e-04 8.584688e-05 7.057167e-05 5.616634e-05 4.323820e-05 3.215068e-05 2.301679e-05 1.577257e-05 1.021444e-05 6.095428e-06 3.135029e-06 1.090318e-06 -2.717998e-07 -1.120068e-06 -1.614140e-06 -1.846862e-06 -1.920609e-06 -1.872309e-06 -1.770535e-06 -1.615914e-06 -1.461357e-06 -1.284606e-06 -1.134049e-06 -9.723899e-07 
3.870476e-03 2.908112e-03 2.101922e-03 1.429774e-03 8.764580e-04 4.247549e-04 6.465088e-05 -2.173010e-04 -4.271534e-04 -5.755234e-04 -6.655936e-04 -7.058785e-04 -6.976331e-04 -6.478132e-04 -5.565647e-04 -4.297068e-04 -2.670122e-04 -7.354535e-05 1.505916e-04 4.006620e-04 6.755175e-04 9.701976e-04 1.281741e-03 1.604234e-03 1.932073e-03 2.257461e-03 2.571280e-03 2.862759e-03 3.118413e-03 3.323338e-03 3.458969e-03 3.505206e-03 3.438004e-03 3.231353e-03 2.855867e-03 2.279583e-03 1.468732e-03 3.863905e-04 -1.003508e-03 -2.740413e-03 -4.859213e-03 -7.397674e-03 -1.038445e-02 -1.384948e-02 -1.780859e-02 -2.227596e-02 -2.724690e-02 -3.271079e-02 -3.863453e-02 -4.497386e-02 -5.166069e-02 -5.861046e-02 -6.571663e-02 -7.285218e-02 -7.987376e-02 -8.661616e-02 -9.290703e-02 -9.855461e-02 -1.033714e-01 -1.071571e-01 -1.097271e-01 -1.108944e-01 -1.104966e-01 -1.083824e-01 -1.044301e-01 -9.854471e-02 -9.066292e-02 -8.076502e-02 -6.886486e-02 -5.503767e-02 -3.939657e-02 -2.213275e-02 -3.482034e-03 1.623227e-02 3.663865e-02 5.728696e-02 7.768952e-02 9.731893e-02 1.156448e-01 1.321670e-01 1.464365e-01 1.581135e-01 1.669602e-01 1.728983e-01 1.759740e-01 1.763992e-01 1.745107e-01 1.707987e-01 1.658765e-01 1.604828e-01 1.554206e-01 1.514985e-01 1.493998e-01 1.496037e-01 1.522645e-01 1.572206e-01 1.639683e-01 1.717646e-01 1.796672e-01 1.866548e-01 1.916881e-01 1.938327e-01 1.923893e-01 1.870594e-01 1.780644e-01 1.661192e-01 1.522378e-01 1.374710e-01 1.226986e-01 1.085473e-01 9.538327e-02 8.338175e-02 7.257710e-02 6.293425e-02 5.437340e-02 4.680636e-02 4.013806e-02 3.428159e-02 2.915247e-02 2.467544e-02 2.077909e-02 1.739949e-02 1.447705e-02 1.195803e-02 9.793679e-03 7.939667e-03 6.357284e-03 5.010762e-03 
7.629338e-03 5.706066e-03 4.095576e-03 2.752684e-03 1.648108e-03 7.464081e-04 2.881697e-05 -5.326721e-04 -9.488115e-04 -1.242054e-03 -1.417355e-03 -1.493038e-03 -1.470184e-03 -1.364029e-03 -1.173460e-03 -9.114069e-04 -5.760833e-04 -1.788140e-04 2.814089e-04 7.940688e-04 1.357916e-03 1.962182e-03 2.601786e-03 3.264266e-03 3.939017e-03 4.610021e-03 5.259379e-03 5.865296e-03 6.400858e-03 6.836113e-03 7.133692e-03 7.253284e-03 7.146257e-03 6.760413e-03 6.036144e-03 4.909160e-03 3.310815e-03 1.166611e-03 -1.596942e-03 -5.059772e-03 -9.293195e-03 -1.437420e-02 -2.036173e-02 -2.731750e-02 -3.527474e-02 -4.426390e-02 -5.427689e-02 -6.529447e-02 -7.725113e-02 -9.005989e-02 -1.035842e-01 -1.176555e-01 -1.320590e-01 -1.465397e-01 -1.608076e-01 -1.745296e-01 -1.873566e-01 -1.989005e-01 -2.087812e-01 -2.165926e-01 -2.219601e-01 -2.245041e-01 -2.238949e-01 -2.198242e-01 -2.120446e-01 -2.003599e-01 -1.846393e-01 -1.648362e-01 -1.409728e-01 -1.131914e-01 -8.171177e-02 -4.690821e-02 -9.248303e-03 3.062460e-02 7.196239e-02 1.138568e-01 1.553110e-01 1.952470e-01 2.325652e-01 2.662326e-01 2.953075e-01 3.190833e-01 3.370548e-01 3.490559e-01 3.551707e-01 3.558223e-01 3.516865e-01 3.437467e-01 3.332516e-01 3.217251e-01 3.108577e-01 3.023790e-01 2.977669e-01 2.980685e-01 3.036199e-01 3.140815e-01 3.283810e-01 3.449522e-01 3.618218e-01 3.768606e-01 3.878835e-01 3.928824e-01 3.902966e-01 3.794108e-01 3.606924e-01 3.357654e-01 3.069189e-01 2.764564e-01 2.462258e-01 2.174770e-01 1.908897e-01 1.667517e-01 1.450799e-01 1.257682e-01 1.086369e-01 9.349850e-02 8.015939e-02 6.844382e-02 5.818362e-02 4.922781e-02 4.143457e-02 3.467533e-02 2.883153e-02 2.379478e-02 1.946807e-02 1.576183e-02 1.259924e-02 9.907893e-03 
1.116224e-02 8.281334e-03 5.868535e-03 3.857638e-03 2.203537e-03 8.548290e-04 -2.178739e-04 -1.054714e-03 -1.673160e-03 -2.104975e-03 -2.359033e-03 -2.460910e-03 -2.413736e-03 -2.238507e-03 -1.935071e-03 -1.521059e-03 -9.952385e-04 -3.729730e-04 3.459514e-04 1.147200e-03 2.027815e-03 2.972850e-03 3.973849e-03 5.013039e-03 6.073917e-03 7.133033e-03 8.163119e-03 9.131650e-03 9.997904e-03 1.071663e-02 1.123135e-02 1.148070e-02 1.139104e-02 1.088253e-02 9.864596e-03 8.238547e-03 5.899610e-03 2.733003e-03 -1.374080e-03 -6.545350e-03 -1.289115e-02 -2.053148e-02 -2.955878e-02 -4.007058e-02 -5.212111e-02 -6.576091e-02 -8.098190e-02 -9.775927e-02 -1.159975e-01 -1.355683e-01 -1.562671e-01 -1.778401e-01 -1.999620e-01 -2.222449e-01 -2.442469e-01 -2.654585e-01 -2.853448e-01 -3.033106e-01 -3.187719e-01 -3.311047e-01 -3.397324e-01 -3.440708e-01 -3.436114e-01 -3.378786e-01 -3.264874e-01 -3.091311e-01 -2.855985e-01 -2.558057e-01 -2.197680e-01 -1.776819e-01 -1.298569e-01 -7.683919e-02 -1.931575e-02 4.174888e-02 1.052255e-01 1.697177e-01 2.336844e-01 2.954283e-01 3.532150e-01 4.053835e-01 4.504280e-01 4.871956e-01 5.148736e-01 5.331787e-01 5.422294e-01 5.426637e-01 5.354926e-01 5.222008e-01 5.046961e-01 4.853839e-01 4.670210e-01 4.525117e-01 4.443923e-01 4.444716e-01 4.533374e-01 4.704143e-01 4.939211e-01 5.212836e-01 5.493158e-01 5.746218e-01 5.936696e-01 6.030854e-01 6.000564e-01 5.831137e-01 5.529916e-01 5.127197e-01 4.665090e-01 4.183726e-01 3.712865e-01 3.270734e-01 2.865833e-01 2.500723e-01 2.174286e-01 1.884063e-01 1.626870e-01 1.399680e-01 1.199498e-01 1.023680e-01 8.697011e-02 7.353157e-02 6.183913e-02 5.170084e-02 4.293737e-02 3.538656e-02 2.890115e-02 2.334730e-02 1.860823e-02 1.457621e-02 
1.434430e-02 1.051049e-02 7.301161e-03 4.626521e-03 2.428982e-03 6.383358e-04 -7.817267e-04 -1.886679e-03 -2.696728e-03 -3.256488e-03 -3.574595e-03 -3.687674e-03 -3.596683e-03 -3.332281e-03 -2.891118e-03 -2.299359e-03 -1.552365e-03 -6.731010e-04 3.414729e-04 1.470079e-03 2.711199e-03 4.043147e-03 5.456651e-03 6.926683e-03 8.432713e-03 9.942500e-03 1.142051e-02 1.282261e-02 1.409455e-02 1.517518e-02 1.598830e-02 1.645097e-02 1.646299e-02 1.591610e-02 1.468631e-02 1.263915e-02 9.630372e-03 5.502637e-03 9.963855e-05 -6.749540e-03 -1.519915e-02 -2.541690e-02 -3.753406e-02 -5.168987e-02 -6.796478e-02 -8.643609e-02 -1.071001e-01 -1.299330e-01 -1.548117e-01 -1.815712e-01 -2.099385e-01 -2.395756e-01 -2.700415e-01 -3.008118e-01 -3.312815e-01 -3.607554e-01 -3.884973e-01 -4.136896e-01 -4.355258e-01 -4.531455e-01 -4.657515e-01 -4.725361e-01 -4.727957e-01 -4.658692e-01 -4.512210e-01 -4.284160e-01 -3.971498e-01 -3.572811e-01 -3.088012e-01 -2.519361e-01 -1.870631e-01 -1.148743e-01 -3.625769e-02 4.751483e-02 1.349236e-01 2.240619e-01 3.127780e-01 3.986772e-01 4.792561e-01 5.521074e-01 6.150000e-01 6.662367e-01 7.045931e-01 7.296478e-01 7.415394e-01 7.411337e-01 7.297703e-01 7.094041e-01 6.826101e-01 6.527854e-01 6.240501e-01 6.009513e-01 5.875671e-01 5.868469e-01 5.997132e-01 6.252325e-01 6.606492e-01 7.020461e-01 7.447405e-01 7.838937e-01 8.143963e-01 8.310582e-01 8.290481e-01 8.052752e-01 7.606461e-01 7.007097e-01 6.329813e-01 5.639964e-01 4.980089e-01 4.371927e-01 3.822506e-01 3.331414e-01 2.894516e-01 2.506995e-01 2.163869e-01 1.860794e-01 1.593721e-01 1.359121e-01 1.153675e-01 9.743971e-02 8.184656e-02 6.833030e-02 5.665209e-02 4.659291e-02 3.795646e-02 3.056180e-02 2.425389e-02 1.888713e-02 
1.704879e-02 1.226842e-02 8.266047e-03 4.932519e-03 2.194280e-03 -3.298266e-05 -1.796285e-03 -3.161387e-03 -4.155380e-03 -4.830472e-03 -5.199525e-03 -5.304883e-03 -5.149992e-03 -4.769923e-03 -4.162793e-03 -3.358282e-03 -2.352798e-03 -1.172274e-03 1.851403e-04 1.695326e-03 3.354816e-03 5.138622e-03 7.034011e-03 9.011346e-03 1.104419e-02 1.309326e-02 1.511355e-02 1.705007e-02 1.883427e-02 2.038879e-02 2.161710e-02 2.241316e-02 2.264939e-02 2.218636e-02 2.086517e-02 1.851151e-02 1.493913e-02 9.942740e-03 3.318628e-03 -5.158006e-03 -1.569078e-02 -2.850290e-02 -4.377135e-02 -6.168555e-02 -8.235999e-02 -1.059071e-01 -1.323352e-01 -1.616283e-01 -1.936416e-01 -2.281772e-01 -2.648952e-01 -3.033715e-01 -3.430450e-01 -3.832453e-01 -4.231930e-01 -4.619891e-01 -4.986772e-01 -5.321935e-01 -5.614854e-01 -5.854296e-01 -6.029838e-01 -6.130926e-01 -6.148348e-01 -6.073448e-01 -5.899158e-01 -5.619689e-01 -5.230839e-01 -4.730432e-01 -4.117847e-01 -3.395355e-01 -2.567012e-01 -1.640847e-01 -6.273581e-02 4.578480e-02 1.595775e-01 2.761825e-01 3.927763e-01 5.061214e-01 6.127931e-01 7.094054e-01 7.928154e-01 8.605754e-01 9.109552e-01 9.433458e-01 9.579459e-01 9.558891e-01 9.388206e-01 9.090677e-01 8.697470e-01 8.253141e-01 7.816902e-01 7.458608e-01 7.243446e-01 7.218898e-01 7.398701e-01 7.766500e-01 8.280868e-01 8.882856e-01 9.506410e-01 1.008835e+00 1.056089e+00 1.084872e+00 1.086992e+00 1.055444e+00 9.906668e-01 9.034104e-01 8.074407e-01 7.130757e-01 6.257001e-01 5.471723e-01 4.774088e-01 4.156489e-01 3.609531e-01 3.125117e-01 2.696203e-01 2.317175e-01 1.983016e-01 1.689434e-01 1.432350e-01 1.208088e-01 1.013114e-01 8.442084e-02 6.983431e-02 5.727709e-02 4.649943e-02 3.727514e-02 2.940708e-02 2.271460e-02 
1.912409e-02 1.340454e-02 8.617909e-03 4.631496e-03 1.361639e-03 -1.294854e-03 -3.389218e-03 -5.002995e-03 -6.163187e-03 -6.935773e-03 -7.330551e-03 -7.402271e-03 -7.149458e-03 -6.618513e-03 -5.801724e-03 -4.739082e-03 -3.421099e-03 -1.883001e-03 -1.177683e-04 1.842103e-03 3.996752e-03 6.313361e-03 8.780299e-03 1.135990e-02 1.402324e-02 1.672163e-02 1.940271e-02 2.199914e-02 2.442881e-02 2.659720e-02 2.838669e-02 2.966727e-02 3.028172e-02 3.005810e-02 2.879875e-02 2.628721e-02 2.228976e-02 1.654929e-02 8.807679e-03 -1.219733e-03 -1.379426e-02 -2.920300e-02 -4.767795e-02 -6.946944e-02 -9.473560e-02 -1.236363e-01 -1.562006e-01 -1.924326e-01 -2.321716e-01 -2.751963e-01 -3.211000e-01 -3.693764e-01 -4.193357e-01 -4.701556e-01 -5.208632e-01 -5.703385e-01 -6.173762e-01 -6.606385e-01 -6.987920e-01 -7.304170e-01 -7.541925e-01 -7.687829e-01 -7.730230e-01 -7.658155e-01 -7.462651e-01 -7.136257e-01 -6.673459e-01 -6.071050e-01 -5.327609e-01 -4.445002e-01 -3.427103e-01 -2.282446e-01 -1.022564e-01 3.346162e-02 1.766552e-01 3.243086e-01 4.728390e-01 6.180334e-01 7.552846e-01 8.799616e-01 9.876406e-01 1.074880e+00 1.139208e+00 1.179836e+00 1.197085e+00 1.192506e+00 1.168037e+00 1.126114e+00 1.069978e+00 1.004975e+00 9.394132e-01 8.841764e-01 8.498201e-01 8.442298e-01 8.691583e-01 9.213861e-01 9.949732e-01 1.080652e+00 1.169197e+00 1.253317e+00 1.325034e+00 1.374235e+00 1.387585e+00 1.347823e+00 1.252071e+00 1.123561e+00 9.888049e-01 8.633128e-01 7.522826e-01 6.555894e-01 5.712272e-01 4.971494e-01 4.316893e-01 3.736780e-01 3.222395e-01 2.767232e-01 2.365652e-01 2.012747e-01 1.703802e-01 1.434438e-01 1.200428e-01 9.978520e-02 8.230436e-02 6.726395e-02 5.436218e-02 4.332272e-02 3.390922e-02 2.590183e-02 
2.041906e-02 1.376881e-02 8.201402e-03 3.567360e-03 -2.322500e-04 -3.311978e-03 -5.733085e-03 -7.584836e-03 -8.900650e-03 -9.751884e-03 -1.015239e-02 -1.016081e-02 -9.778267e-03 -9.054097e-03 -7.982336e-03 -6.605271e-03 -4.914776e-03 -2.947950e-03 -6.991685e-04 1.797298e-03 4.539658e-03 7.492854e-03 1.064205e-02 1.394596e-02 1.737013e-02 2.085951e-02 2.435251e-02 2.777098e-02 3.101814e-02 3.398222e-02 3.652369e-02 3.848673e-02 3.968330e-02 3.990519e-02 3.891382e-02 3.644477e-02 3.221297e-02 2.590154e-02 1.719181e-02 5.729126e-03 -8.814327e-03 -2.680171e-02 -4.853148e-02 -7.432864e-02 -1.044084e-01 -1.389922e-01 -1.781438e-01 -2.218998e-01 -2.700952e-01 -3.224931e-01 -3.786252e-01 -4.379015e-01 -4.994983e-01 -5.624271e-01 -6.255025e-01 -6.873543e-01 -7.464961e-01 -8.012744e-01 -8.500348e-01 -8.910159e-01 -9.225780e-01 -9.430670e-01 -9.510420e-01 -9.451503e-01 -9.242855e-01 -8.875211e-01 -8.341537e-01 -7.637408e-01 -6.760243e-01 -5.711048e-01 -4.492828e-01 -3.113806e-01 -1.585555e-01 7.257464e-03 1.835302e-01 3.666949e-01 5.523633e-01 7.351316e-01 9.089300e-01 1.067403e+00 1.204401e+00 1.314986e+00 1.395711e+00 1.445571e+00 1.465315e+00 1.457282e+00 1.423818e+00 1.366933e+00 1.288832e+00 1.194803e+00 1.096285e+00 1.010736e+00 9.556738e-01 9.450377e-01 9.804348e-01 1.054117e+00 1.159397e+00 1.279881e+00 1.402189e+00 1.520403e+00 1.627021e+00 1.710193e+00 1.752303e+00 1.707261e+00 1.557216e+00 1.360724e+00 1.171388e+00 1.009091e+00 8.739988e-01 7.604471e-01 6.628413e-01 5.773502e-01 5.015847e-01 4.341627e-01 3.741758e-01 3.209826e-01 2.740079e-01 2.327280e-01 1.966112e-01 1.651520e-01 1.378501e-01 1.142413e-01 9.388633e-02 7.638734e-02 6.138334e-02 4.855045e-02 3.760752e-02 2.830000e-02 
2.073947e-02 1.316686e-02 6.828309e-03 1.551944e-03 -2.767596e-03 -6.263000e-03 -8.995785e-03 -1.107100e-02 -1.251799e-02 -1.342275e-02 -1.379219e-02 -1.369903e-02 -1.313580e-02 -1.216537e-02 -1.077253e-02 -9.012299e-03 -6.867462e-03 -4.386695e-03 -1.556182e-03 1.579558e-03 5.025221e-03 8.736621e-03 1.270273e-02 1.687348e-02 2.121426e-02 2.566020e-02 3.014404e-02 3.457469e-02 3.884238e-02 4.281675e-02 4.633598e-02 4.921731e-02 5.123927e-02 5.215566e-02 5.168205e-02 4.950283e-02 4.527434e-02 3.861425e-02 2.913367e-02 1.639910e-02 4.180690e-06 -2.050303e-02 -4.550155e-02 -7.540780e-02 -1.105093e-01 -1.511095e-01 -1.973213e-01 -2.492356e-01 -3.066938e-01 -3.694620e-01 -4.370134e-01 -5.086835e-01 -5.835040e-01 -6.603135e-01 -7.376850e-01 -8.139707e-01 -8.873557e-01 -9.558246e-01 -1.017343e+00 -1.069754e+00 -1.111043e+00 -1.139189e+00 -1.152439e+00 -1.149154e+00 -1.128003e+00 -1.087866e+00 -1.027884e+00 -9.474774e-01 -8.462493e-01 -7.241648e-01 -5.813602e-01 -4.185145e-01 -2.366443e-01 -3.766321e-02 1.757790e-01 3.996733e-01 6.288081e-01 8.564412e-01 1.074618e+00 1.274706e+00 1.447991e+00 1.587367e+00 1.687783e+00 1.748095e+00 1.769974e+00 1.757597e+00 1.714276e+00 1.640796e+00 1.535544e+00 1.400715e+00 1.251302e+00 1.117268e+00 1.027469e+00 1.010104e+00 1.064001e+00 1.165775e+00 1.319470e+00 1.488138e+00 1.650445e+00 1.810436e+00 1.964303e+00 2.099453e+00 2.216978e+00 2.184807e+00 1.921913e+00 1.603542e+00 1.339409e+00 1.139525e+00 9.853514e-01 8.596439e-01 7.517567e-01 6.563063e-01 5.707596e-01 4.939819e-01 4.253226e-01 3.642922e-01 3.103717e-01 2.630176e-01 2.216400e-01 1.856515e-01 1.544668e-01 1.275358e-01 1.043433e-01 8.442036e-02 6.734807e-02 5.274856e-02 4.030026e-02 2.970885e-02 
1.990023e-02 1.141299e-02 4.303164e-03 -1.613616e-03 -6.455921e-03 -1.036365e-02 -1.340659e-02 -1.569389e-02 -1.726006e-02 -1.819357e-02 -1.850475e-02 -1.826802e-02 -1.747839e-02 -1.620011e-02 -1.441999e-02 -1.219413e-02 -9.507108e-03 -6.408374e-03 -2.885772e-03 1.015592e-03 5.298600e-03 9.918223e-03 1.486081e-02 2.007421e-02 2.551921e-02 3.112601e-02 3.681898e-02 4.249702e-02 4.803589e-02 5.328747e-02 5.806667e-02 6.216218e-02 6.531780e-02 6.724509e-02 6.761106e-02 6.604182e-02 6.212991e-02 5.541739e-02 4.543655e-02 3.166146e-02 1.359449e-02 -9.322175e-03 -3.756527e-02 -7.166296e-02 -1.119963e-01 -1.589728e-01 -2.127779e-01 -2.735783e-01 -3.412433e-01 -4.155578e-01 -4.959492e-01 -5.816814e-01 -6.716376e-01 -7.644645e-01 -8.584663e-01 -9.516718e-01 -1.041885e+00 -1.126661e+00 -1.203517e+00 -1.269823e+00 -1.323129e+00 -1.360988e+00 -1.381295e+00 -1.382103e+00 -1.361847e+00 -1.319220e+00 -1.253215e+00 -1.163121e+00 -1.048389e+00 -9.087991e-01 -7.442361e-01 -5.550809e-01 -3.420055e-01 -1.066425e-01 1.485113e-01 4.192213e-01 6.995734e-01 9.813107e-01 1.254182e+00 1.506357e+00 1.725468e+00 1.900858e+00 2.024994e+00 2.096385e+00 2.118880e+00 2.100757e+00 2.048476e+00 1.960835e+00 1.826452e+00 1.635079e+00 1.404026e+00 1.191361e+00 1.038195e+00 1.014773e+00 1.111113e+00 1.237025e+00 1.476181e+00 1.714346e+00 1.912959e+00 2.118900e+00 2.333345e+00 2.520124e+00 2.846349e+00 2.908837e+00 2.357846e+00 1.807303e+00 1.457960e+00 1.238198e+00 1.081288e+00 9.529443e-01 8.390819e-01 7.350866e-01 6.398686e-01 5.533935e-01 4.756544e-01 4.064618e-01 3.453812e-01 2.918408e-01 2.451625e-01 2.046560e-01 1.696260e-01 1.394262e-01 1.134502e-01 9.115655e-02 7.205950e-02 5.573110e-02 4.180311e-02 2.994827e-02 
1.764662e-02 8.249488e-03 3.739828e-04 -6.183641e-03 -1.154264e-02 -1.585906e-02 -1.919716e-02 -2.168129e-02 -2.333632e-02 -2.426623e-02 -2.446928e-02 -2.403611e-02 -2.294851e-02 -2.128732e-02 -1.902593e-02 -1.623663e-02 -1.289105e-02 -9.053514e-03 -4.699993e-03 1.115821e-04 5.394208e-03 1.109216e-02 1.719922e-02 2.365389e-02 3.042033e-02 3.741900e-02 4.457161e-02 5.176426e-02 5.886152e-02 6.569595e-02 7.205987e-02 7.771221e-02 8.235982e-02 8.567005e-02 8.725609e-02 8.668174e-02 8.346721e-02 7.707160e-02 6.693627e-02 5.243091e-02 3.295071e-02 7.814221e-03 -2.357280e-02 -6.187463e-02 -1.075889e-01 -1.612582e-01 -2.231649e-01 -2.935864e-01 -3.724418e-01 -4.595677e-01 -5.543573e-01 -6.560236e-01 -7.632921e-01 -8.746124e-01 -9.879790e-01 -1.101056e+00 -1.211189e+00 -1.315426e+00 -1.410737e+00 -1.493927e+00 -1.562017e+00 -1.612059e+00 -1.641549e+00 -1.648202e+00 -1.630233e+00 -1.586167e+00 -1.514896e+00 -1.415613e+00 -1.287638e+00 -1.130554e+00 -9.439033e-01 -7.276085e-01 -4.817141e-01 -2.072006e-01 9.405199e-02 4.180418e-01 7.584964e-01 1.105718e+00 1.446703e+00 1.765407e+00 2.043943e+00 2.266012e+00 2.419337e+00 2.501524e+00 2.520114e+00 2.492637e+00 2.434855e+00 2.345671e+00 2.192336e+00 1.926042e+00 1.553301e+00 1.218436e+00 9.308283e-01 9.117507e-01 1.141124e+00 1.206804e+00 1.645937e+00 1.992066e+00 2.180230e+00 2.431341e+00 2.743188e+00 2.815520e+00 3.755096e+00 4.264774e+00 2.812549e+00 1.827566e+00 1.464064e+00 1.290016e+00 1.163444e+00 1.045148e+00 9.286082e-01 8.158484e-01 7.098138e-01 6.125250e-01 5.248932e-01 4.470314e-01 3.785259e-01 3.186959e-01 2.667172e-01 2.217472e-01 1.829544e-01 1.495727e-01 1.208977e-01 9.630471e-02 7.524351e-02 5.723013e-02 4.185670e-02 2.875834e-02 
1.375231e-02 3.445355e-03 -5.207063e-03 -1.241425e-02 -1.830451e-02 -2.303492e-02 -2.667470e-02 -2.934723e-02 -3.108036e-02 -3.197671e-02 -3.203687e-02 -3.135061e-02 -2.990217e-02 -2.777216e-02 -2.493668e-02 -2.146810e-02 -1.734083e-02 -1.261903e-02 -7.281128e-03 -1.384364e-03 5.082344e-03 1.206430e-02 1.955349e-02 2.748882e-02 3.583150e-02 4.449982e-02 5.340915e-02 6.243794e-02 7.143787e-02 8.022463e-02 8.856720e-02 9.619422e-02 1.027745e-01 1.079273e-01 1.112091e-01 1.121139e-01 1.100833e-01 1.044816e-01 9.464821e-02 7.983183e-02 5.930328e-02 3.223520e-02 -2.108397e-03 -4.455630e-02 -9.575423e-02 -1.564136e-01 -2.269512e-01 -3.077914e-01 -3.989409e-01 -5.003201e-01 -6.113164e-01 -7.311067e-01 -8.582621e-01 -9.910161e-01 -1.127015e+00 -1.263489e+00 -1.397242e+00 -1.524694e+00 -1.642155e+00 -1.745726e+00 -1.831795e+00 -1.896818e+00 -1.937842e+00 -1.952234e+00 -1.938013e+00 -1.893607e+00 -1.817888e+00 -1.710040e+00 -1.569328e+00 -1.395147e+00 -1.186656e+00 -9.431047e-01 -6.635861e-01 -3.478643e-01 3.483748e-03 3.874932e-01 7.982640e-01 1.225014e+00 1.651785e+00 2.056929e+00 2.414590e+00 2.698921e+00 2.888901e+00 2.978466e+00 2.980839e+00 2.932037e+00 2.873568e+00 2.817666e+00 2.695213e+00 2.345091e+00 1.683200e+00 1.212560e+00 5.652035e-01 5.851353e-01 1.397627e+00 1.210574e+00 1.102935e+00 1.982789e+00 1.850467e+00 1.476719e+00 1.508805e+00 1.057198e+00 2.177158e+00 2.581996e+00 1.478534e+00 1.248346e+00 1.300948e+00 1.312829e+00 1.254122e+00 1.150665e+00 1.027811e+00 9.018214e-01 7.815757e-01 6.712960e-01 5.725188e-01 4.853548e-01 4.091671e-01 3.430105e-01 2.858066e-01 2.365028e-01 1.940893e-01 1.576644e-01 1.264098e-01 9.961826e-02 7.666812e-02 5.702693e-02 4.024247e-02 2.592277e-02 
7.881034e-03 -3.344500e-03 -1.278198e-02 -2.065421e-02 -2.708149e-02 -3.223327e-02 -3.616499e-02 -3.901385e-02 -4.079043e-02 -4.161394e-02 -4.146608e-02 -4.045606e-02 -3.854902e-02 -3.584689e-02 -3.230737e-02 -2.802433e-02 -2.295490e-02 -1.718304e-02 -1.067121e-02 -3.493210e-03 4.376407e-03 1.287028e-02 2.199249e-02 3.167246e-02 4.187978e-02 5.252431e-02 6.352371e-02 7.474546e-02 8.603409e-02 9.718701e-02 1.079525e-01 1.180281e-01 1.270437e-01 1.345688e-01 1.400987e-01 1.430530e-01 1.427859e-01 1.385583e-01 1.295941e-01 1.150057e-01 9.392019e-02 6.534112e-02 2.836449e-02 -1.803646e-02 -7.468916e-02 -1.425188e-01 -2.221163e-01 -3.141082e-01 -4.186304e-01 -5.357448e-01 -6.648648e-01 -8.051755e-01 -9.550958e-01 -1.112647e+00 -1.275076e+00 -1.439115e+00 -1.600903e+00 -1.756098e+00 -1.900168e+00 -2.028346e+00 -2.136216e+00 -2.219513e+00 -2.274766e+00 -2.298978e+00 -2.290040e+00 -2.246386e+00 -2.167025e+00 -2.051304e+00 -1.898588e+00 -1.708206e+00 -1.478941e+00 -1.209253e+00 -8.968818e-01 -5.397206e-01 -1.360014e-01 3.136128e-01 8.050234e-01 1.327503e+00 1.862562e+00 2.381902e+00 2.848357e+00 3.220665e+00 3.460599e+00 3.550991e+00 3.508746e+00 3.402693e+00 3.336285e+00 3.386602e+00 3.457821e+00 3.107648e+00 1.643758e+00 1.470883e+00 2.310994e+00 1.289535e+00 -4.173121e-01 2.245918e-01 -1.746145e-01 -1.675486e+00 -2.165279e+00 -2.935731e+00 -3.294324e+00 -3.523250e+00 -3.674759e+00 -3.659232e+00 -1.763173e+00 3.989844e-01 1.201452e+00 1.426970e+00 1.407953e+00 1.291879e+00 1.144555e+00 9.947582e-01 8.545743e-01 7.283993e-01 6.171463e-01 5.201912e-01 4.362674e-01 3.639340e-01 3.017382e-01 2.483482e-01 2.025468e-01 1.632772e-01 1.296067e-01 1.007406e-01 7.599459e-02 5.478576e-02 3.662955e-02 2.110426e-02 
-2.393483e-04 -1.240496e-02 -2.266357e-02 -3.123299e-02 -3.823547e-02 -4.383254e-02 -4.807934e-02 -5.110504e-02 -5.291981e-02 -5.363655e-02 -5.323793e-02 -5.182933e-02 -4.937880e-02 -4.598669e-02 -4.161526e-02 -3.635804e-02 -3.017733e-02 -2.315660e-02 -1.526286e-02 -6.568050e-03 2.950410e-03 1.322867e-02 2.426980e-02 3.600752e-02 4.841112e-02 6.139317e-02 7.486896e-02 8.870335e-02 1.027320e-01 1.167395e-01 1.304531e-01 1.435413e-01 1.555947e-01 1.661310e-01 1.745816e-01 1.802855e-01 1.825027e-01 1.803788e-01 1.730087e-01 1.593504e-01 1.383655e-01 1.088613e-01 6.973359e-02 1.972005e-02 -4.223343e-02 -1.173153e-01 -2.063484e-01 -3.102215e-01 -4.292652e-01 -5.637458e-01 -7.131619e-01 -8.767520e-01 -1.052808e+00 -1.239133e+00 -1.432525e+00 -1.629124e+00 -1.824257e+00 -2.012615e+00 -2.188606e+00 -2.346336e+00 -2.480385e+00 -2.585588e+00 -2.657890e+00 -2.693944e+00 -2.691618e+00 -2.649545e+00 -2.567104e+00 -2.444071e+00 -2.280198e+00 -2.074970e+00 -1.826978e+00 -1.533803e+00 -1.191528e+00 -7.952719e-01 -3.395938e-01 1.791687e-01 7.610180e-01 1.397623e+00 2.069616e+00 2.741785e+00 3.362246e+00 3.865609e+00 4.181854e+00 4.264032e+00 4.118717e+00 3.858840e+00 3.714686e+00 3.973913e+00 4.692524e+00 5.112155e+00 -3.580567e-01 -4.563669e+00 -2.383959e+00 -1.630121e+00 -2.503514e+00 -4.882936e+00 -5.122204e+00 -5.382426e+00 -5.394683e+00 -4.944410e+00 -5.021657e+00 -4.372281e+00 -5.463963e+00 -4.977335e+00 -1.836679e+00 9.172947e-01 1.708953e+00 1.810639e+00 1.679644e+00 1.482323e+00 1.279370e+00 1.091752e+00 9.255258e-01 7.810420e-01 6.565980e-01 5.499032e-01 4.586035e-01 3.805524e-01 3.138178e-01 2.567486e-01 2.078999e-01 1.660623e-01 1.301875e-01 9.940544e-02 7.297062e-02 5.026443e-02 3.076954e-02 1.405011e-02 
-1.105349e-02 -2.419966e-02 -3.531826e-02 -4.463101e-02 -5.223958e-02 -5.831186e-02 -6.287755e-02 -6.607741e-02 -6.789394e-02 -6.845820e-02 -6.772511e-02 -6.582446e-02 -6.269814e-02 -5.847516e-02 -5.309397e-02 -4.667792e-02 -3.916779e-02 -3.067448e-02 -2.114517e-02 -1.067391e-02 7.805972e-04 1.313929e-02 2.642281e-02 4.055611e-02 5.552368e-02 7.123306e-02 8.760957e-02 1.045120e-01 1.217765e-01 1.391740e-01 1.564168e-01 1.731445e-01 1.889106e-01 2.031804e-01 2.153190e-01 2.245811e-01 2.301250e-01 2.309718e-01 2.260737e-01 2.142174e-01 1.941769e-01 1.645355e-01 1.239559e-01 7.089729e-02 4.032365e-03 -7.815304e-02 -1.767764e-01 -2.930724e-01 -4.276433e-01 -5.810587e-01 -7.529790e-01 -9.427871e-01 -1.148689e+00 -1.368304e+00 -1.597932e+00 -1.833029e+00 -2.067913e+00 -2.296059e+00 -2.510480e+00 -2.703810e+00 -2.869296e+00 -3.000628e+00 -3.093048e+00 -3.142881e+00 -3.148161e+00 -3.107990e+00 -3.022491e+00 -2.892270e+00 -2.717892e+00 -2.499455e+00 -2.235724e+00 -1.923654e+00 -1.557474e+00 -1.128782e+00 -6.267311e-01 -4.070705e-02 6.371373e-01 1.405043e+00 2.247096e+00 3.123598e+00 3.966737e+00 4.677113e+00 5.130459e+00 5.210920e+00 4.866599e+00 4.229090e+00 3.726989e+00 4.143928e+00 6.514219e+00 1.534390e-01 -4.846588e+00 -2.925414e+00 -3.730713e+00 -8.634608e+00 -7.289468e+00 -3.940610e+00 -3.574371e+00 -1.469135e+00 -6.678219e-01 3.128444e-01 3.645203e-01 1.221378e+00 8.394888e-01 1.786627e+00 3.069455e+00 3.434980e+00 2.940795e+00 2.453678e+00 2.039364e+00 1.697034e+00 1.414946e+00 1.181423e+00 9.870311e-01 8.243737e-01 6.876469e-01 5.722954e-01 4.746462e-01 3.917646e-01 3.212241e-01 2.610599e-01 2.096198e-01 1.655568e-01 1.277297e-01 9.520460e-02 6.719482e-02 4.305205e-02 2.224478e-02 4.324061e-03 
-2.488152e-02 -3.907524e-02 -5.113738e-02 -6.126956e-02 -6.956473e-02 -7.617031e-02 -8.110789e-02 -8.450049e-02 -8.632549e-02 -8.670120e-02 -8.558208e-02 -8.309093e-02 -7.917425e-02 -7.395903e-02 -6.739242e-02 -5.959839e-02 -5.052830e-02 -4.029345e-02 -2.885051e-02 -1.629110e-02 -2.579758e-03 1.221108e-02 2.810122e-02 4.502583e-02 6.297273e-02 8.186055e-02 1.016188e-01 1.221131e-01 1.431790e-01 1.645833e-01 1.860249e-01 2.071202e-01 2.273874e-01 2.462411e-01 2.629791e-01 2.767684e-01 2.866596e-01 2.915400e-01 2.902051e-01 2.812522e-01 2.632430e-01 2.345070e-01 1.934339e-01 1.381581e-01 6.701890e-02 -2.189240e-02 -1.300734e-01 -2.592006e-01 -4.102579e-01 -5.842369e-01 -7.810790e-01 -1.000426e+00 -1.240482e+00 -1.498726e+00 -1.770927e+00 -2.051733e+00 -2.334209e+00 -2.610248e+00 -2.871019e+00 -3.107160e+00 -3.310150e+00 -3.472163e+00 -3.587636e+00 -3.652644e+00 -3.665675e+00 -3.626734e+00 -3.537172e+00 -3.398967e+00 -3.214116e+00 -2.983979e+00 -2.708318e+00 -2.384037e+00 -2.003886e+00 -1.555182e+00 -1.019867e+00 -3.766153e-01 3.953668e-01 1.307787e+00 2.355785e+00 3.502810e+00 4.669320e+00 5.717011e+00 6.439724e+00 6.589028e+00 5.936663e+00 4.498624e+00 2.839966e+00 2.619441e+00 -4.152631e+00 -9.166583e+00 -3.512966e+00 -9.031815e+00 -1.047742e+01 -8.260056e-01 1.249841e+00 2.394133e+00 3.895069e+00 5.449022e+00 4.919649e+00 5.696564e+00 5.609881e+00 5.666227e+00 6.062532e+00 6.458308e+00 8.520778e+00 6.358572e+00 4.195260e+00 3.049681e+00 2.348899e+00 1.870479e+00 1.518391e+00 1.246330e+00 1.029353e+00 8.527099e-01 7.068379e-01 5.851929e-01 4.829786e-01 3.966171e-01 3.232901e-01 2.607969e-01 2.073328e-01 1.614583e-01 1.219682e-01 8.789470e-02 5.842449e-02 3.290239e-02 1.078833e-02 -8.358896e-03 
-4.231289e-02 -5.765584e-02 -7.075776e-02 -8.181039e-02 -9.086863e-02 -9.807740e-02 -1.034168e-01 -1.070182e-01 -1.088172e-01 -1.089526e-01 -1.073398e-01 -1.041340e-01 -9.924716e-02 -9.284675e-02 -8.485092e-02 -7.542677e-02 -6.450106e-02 -5.222472e-02 -3.853218e-02 -2.354580e-02 -7.208007e-03 1.039005e-02 2.929145e-02 4.942467e-02 7.080139e-02 9.334218e-02 1.169979e-01 1.416383e-01 1.671121e-01 1.931835e-01 2.195481e-01 2.458027e-01 2.714364e-01 2.958151e-01 3.181718e-01 3.375842e-01 3.529917e-01 3.631400e-01 3.666571e-01 3.619343e-01 3.472996e-01 3.207988e-01 2.805118e-01 2.241980e-01 1.498036e-01 5.494467e-02 -6.234917e-02 -2.043187e-01 -3.724626e-01 -5.683620e-01 -7.924034e-01 -1.044675e+00 -1.323523e+00 -1.626411e+00 -1.948579e+00 -2.283772e+00 -2.623498e+00 -2.957599e+00 -3.274731e+00 -3.562778e+00 -3.810714e+00 -4.008653e+00 -4.150027e+00 -4.230807e+00 -4.250452e+00 -4.210495e+00 -4.114247e+00 -3.965720e+00 -3.769084e+00 -3.527909e+00 -3.244105e+00 -2.915978e+00 -2.535874e+00 -2.087071e+00 -1.542584e+00 -8.664557e-01 -1.806092e-02 1.037138e+00 2.318384e+00 3.807508e+00 5.431875e+00 7.024933e+00 8.290914e+00 8.766405e+00 7.845619e+00 5.033525e+00 5.100597e-01 -2.834222e+00 -5.752553e+00 -4.832116e+00 -1.289787e+01 -9.271562e+00 1.563608e+00 6.300609e+00 6.767952e+00 7.660763e+00 7.794445e+00 6.667771e+00 6.813922e+00 5.416908e+00 5.548629e+00 4.423802e+00 4.698606e+00 4.409983e+00 8.478270e+00 6.649641e+00 4.455343e+00 3.224575e+00 2.457250e+00 1.936160e+00 1.558064e+00 1.270347e+00 1.043782e+00 8.610943e-01 7.112184e-01 5.867520e-01 4.823922e-01 3.942680e-01 3.193878e-01 2.554500e-01 2.005917e-01 1.533418e-01 1.124805e-01 7.703502e-02 4.619687e-02 1.931787e-02 -4.126055e-03 -2.456381e-02 