# vtk DataFile Version 2.0
Comment goes here
ASCII

DATASET STRUCTURED_POINTS
DIMENSIONS    128   128   1

ORIGIN    0.000   0.000   0.000
SPACING   0.0156250.015625   1.000

POINT_DATA   16384
SCALARS Omega double
LOOKUP_TABLE default

-6.290328e-07 -4.833673e-07 -3.742962e-07 -2.834083e-07 -2.189633e-07 -1.631010e-07 -1.267848e-07 -9.261394e-08 -7.345434e-08 -5.238158e-08 -4.330320e-08 -2.997448e-08 -2.648059e-08 -1.763550e-08 -1.685832e-08 -1.053057e-08 -1.060361e-08 -5.607501e-09 -5.296346e-09 -9.428541e-10 5.111233e-10 4.498355e-09 7.336164e-09 1.070280e-08 1.439013e-08 1.599928e-08 1.870766e-08 1.589583e-08 1.365641e-08 1.222089e-09 -1.332123e-08 -4.457061e-08 -8.386648e-08 -1.490556e-07 -2.328157e-07 -3.554036e-07 -5.131392e-07 -7.276112e-07 -1.001248e-06 -1.355681e-06 -1.801657e-06 -2.359366e-06 -3.049190e-06 -3.888138e-06 -4.905797e-06 -6.113848e-06 -7.547897e-06 -9.211457e-06 -1.113924e-05 -1.332274e-05 -1.578455e-05 -1.849915e-05 -2.146176e-05 -2.462400e-05 -2.793628e-05 -3.132186e-05 -3.467018e-05 -3.787330e-05 -4.074994e-05 -4.316374e-05 -4.486507e-05 -4.570058e-05 -4.537127e-05 -4.372886e-05 -4.046223e-05 -3.546098e-05 -2.845517e-05 -1.941376e-05 -8.171821e-06 5.177136e-06 2.062783e-05 3.792211e-05 5.683226e-05 7.691611e-05 9.770594e-05 1.185991e-04 1.389310e-04 1.580245e-04 1.751388e-04 1.896688e-04 2.009797e-04 2.087076e-04 2.125129e-04 2.124022e-04 2.084590e-04 2.011055e-04 1.908752e-04 1.785604e-04 1.650575e-04 1.513798e-04 1.385492e-04 1.274962e-04 1.189634e-04 1.133767e-04 1.107835e-04 1.108119e-04 1.127002e-04 1.153909e-04 1.176560e-04 1.182735e-04 1.161959e-04 1.107344e-04 1.017030e-04 8.949463e-05 7.503663e-05 5.958697e-05 4.445517e-05 3.072328e-05 1.909729e-05 9.877770e-06 3.029046e-06 -1.704829e-06 -4.697419e-06 -6.344222e-06 -7.018022e-06 -7.028628e-06 -6.626013e-06 -5.990197e-06 -5.254049e-06 -4.499071e-06 -3.782837e-06 -3.129511e-06 -2.558232e-06 -2.065300e-06 -1.654444e-06 -1.310652e-06 -1.034107e-06 -8.063141e-07 
1.083386e-03 8.385253e-04 6.432982e-04 4.880226e-04 3.658427e-04 2.697346e-04 1.953168e-04 1.375439e-04 9.383219e-05 6.056463e-05 3.640465e-05 1.875132e-05 7.089569e-06 -4.526800e-07 -3.885020e-06 -4.540815e-06 -2.153384e-06 2.356037e-06 9.361729e-06 1.825534e-05 2.938278e-05 4.233976e-05 5.731114e-05 7.394158e-05 9.209486e-05 1.112281e-04 1.306661e-04 1.493313e-04 1.657080e-04 1.777099e-04 1.825843e-04 1.766438e-04 1.554230e-04 1.129743e-04 4.262548e-05 -6.444500e-05 -2.175046e-04 -4.286286e-04 -7.097649e-04 -1.076121e-03 -1.541841e-03 -2.124322e-03 -2.838554e-03 -3.702053e-03 -4.728191e-03 -5.931219e-03 -7.319250e-03 -8.898676e-03 -1.066778e-02 -1.261981e-02 -1.473843e-02 -1.699884e-02 -1.936614e-02 -2.179439e-02 -2.422844e-02 -2.660127e-02 -2.883925e-02 -3.085840e-02 -3.257203e-02 -3.388721e-02 -3.471263e-02 -3.495683e-02 -3.453376e-02 -3.336431e-02 -3.137767e-02 -2.851735e-02 -2.473780e-02 -2.001553e-02 -1.434201e-02 -7.739519e-03 -2.521333e-04 8.035939e-03 1.700984e-02 2.650795e-02 3.633231e-02 4.624155e-02 5.596414e-02 6.520668e-02 7.367087e-02 8.107764e-02 8.718363e-02 9.181211e-02 9.485982e-02 9.632010e-02 9.627501e-02 9.490402e-02 9.246917e-02 8.931507e-02 8.585364e-02 8.255145e-02 7.989279e-02 7.833592e-02 7.823921e-02 7.980938e-02 8.303687e-02 8.769344e-02 9.332777e-02 9.932554e-02 1.049575e-01 1.094587e-01 1.120940e-01 1.122541e-01 1.095714e-01 1.040452e-01 9.610359e-02 8.652417e-02 7.622008e-02 6.600913e-02 5.647273e-02 4.793124e-02 4.048817e-02 3.410991e-02 2.868854e-02 2.409506e-02 2.020193e-02 1.689938e-02 1.409471e-02 1.171349e-02 9.694096e-03 7.986064e-03 6.546381e-03 5.338185e-03 4.329265e-03 3.491095e-03 2.798780e-03 2.229921e-03 1.765438e-03 1.387986e-03 
2.159314e-03 1.669482e-03 1.279211e-03 9.687491e-04 7.247215e-04 5.326874e-04 3.842690e-04 2.689667e-04 1.820313e-04 1.158036e-04 6.804626e-05 3.312522e-05 1.044790e-05 -4.154011e-06 -1.027546e-05 -1.098104e-05 -5.341348e-06 4.448338e-06 1.949093e-05 3.827830e-05 6.180358e-05 8.903952e-05 1.205954e-04 1.556186e-04 1.940079e-04 2.346071e-04 2.761631e-04 3.165047e-04 3.526180e-04 3.803381e-04 3.940877e-04 3.864783e-04 3.484033e-04 2.678725e-04 1.312404e-04 -7.938380e-05 -3.829875e-04 -8.041971e-04 -1.367537e-03 -2.104192e-03 -3.043265e-03 -4.220648e-03 -5.667298e-03 -7.419636e-03 -9.505470e-03 -1.195485e-02 -1.478497e-02 -1.801006e-02 -2.162730e-02 -2.562415e-02 -2.996783e-02 -3.460873e-02 -3.947593e-02 -4.447609e-02 -4.949657e-02 -5.440027e-02 -5.903631e-02 -6.323229e-02 -6.681042e-02 -6.957955e-02 -7.135254e-02 -7.194113e-02 -7.116927e-02 -6.887402e-02 -6.491066e-02 -5.916222e-02 -5.153508e-02 -4.197867e-02 -3.047356e-02 -1.706091e-02 -1.826975e-03 1.506187e-02 3.337513e-02 5.278719e-02 7.289443e-02 9.320308e-02 1.131516e-01 1.321319e-01 1.495193e-01 1.647295e-01 1.772479e-01 1.867023e-01 1.928720e-01 1.957413e-01 1.954777e-01 1.924495e-01 1.871928e-01 1.804123e-01 1.729558e-01 1.657960e-01 1.599588e-01 1.564325e-01 1.560021e-01 1.591341e-01 1.658275e-01 1.756112e-01 1.875336e-01 2.002990e-01 2.123739e-01 2.221497e-01 2.280583e-01 2.287582e-01 2.233870e-01 2.118800e-01 1.951738e-01 1.750416e-01 1.535446e-01 1.324619e-01 1.129868e-01 9.571425e-02 8.077844e-02 6.804564e-02 5.725338e-02 4.811709e-02 4.037041e-02 3.379113e-02 2.819598e-02 2.343913e-02 1.940077e-02 1.598221e-02 1.309936e-02 1.067928e-02 8.658313e-03 6.979358e-03 5.592907e-03 4.453816e-03 3.524093e-03 2.768644e-03 
3.219014e-03 2.484383e-03 1.899030e-03 1.433718e-03 1.067844e-03 7.802339e-04 5.577988e-04 3.853359e-04 2.551967e-04 1.564669e-04 8.526058e-05 3.370530e-05 3.882902e-07 -2.037998e-05 -2.849001e-05 -2.800731e-05 -1.798543e-05 -1.230929e-06 2.353783e-05 5.448893e-05 9.283370e-05 1.373960e-04 1.889150e-04 2.464013e-04 3.096255e-04 3.770546e-04 4.468020e-04 5.157022e-04 5.792463e-04 6.311318e-04 6.629434e-04 6.633408e-04 6.184434e-04 5.097252e-04 3.161915e-04 1.007896e-05 -4.380722e-04 -1.066630e-03 -1.913945e-03 -3.028822e-03 -4.457144e-03 -6.255404e-03 -8.472897e-03 -1.116743e-02 -1.438398e-02 -1.817100e-02 -2.255746e-02 -2.756767e-02 -3.319970e-02 -3.943641e-02 -4.622902e-02 -5.350242e-02 -6.114766e-02 -6.902070e-02 -7.694636e-02 -8.471121e-02 -9.207907e-02 -9.878040e-02 -1.045360e-01 -1.090466e-01 -1.120181e-01 -1.131561e-01 -1.121842e-01 -1.088479e-01 -1.029196e-01 -9.421622e-02 -8.258812e-02 -6.795271e-02 -5.027218e-02 -2.960192e-02 -6.063854e-03 2.009541e-02 4.853086e-02 7.874496e-02 1.101156e-01 1.418692e-01 1.731192e-01 2.028914e-01 2.301805e-01 2.540334e-01 2.736115e-01 2.883006e-01 2.977400e-01 3.018988e-01 3.010429e-01 2.957512e-01 2.868575e-01 2.754545e-01 2.628682e-01 2.506543e-01 2.405037e-01 2.340925e-01 2.327907e-01 2.374411e-01 2.480958e-01 2.640028e-01 2.836015e-01 3.047628e-01 3.249955e-01 3.416990e-01 3.522829e-01 3.544018e-01 3.463777e-01 3.278740e-01 3.005059e-01 2.676039e-01 2.329564e-01 1.996180e-01 1.694178e-01 1.430864e-01 1.206092e-01 1.016053e-01 8.556287e-02 7.199316e-02 6.047300e-02 5.066698e-02 4.230707e-02 3.518407e-02 2.912629e-02 2.399217e-02 1.965929e-02 1.602085e-02 1.298218e-02 1.045833e-02 8.374636e-03 6.663523e-03 5.267291e-03 4.133426e-03 
4.250772e-03 3.271743e-03 2.492410e-03 1.872944e-03 1.386536e-03 1.004147e-03 7.091379e-04 4.804087e-04 3.086691e-04 1.784959e-04 8.566132e-05 1.877004e-05 -2.309885e-05 -4.842326e-05 -5.611603e-05 -5.243619e-05 -3.522871e-05 -8.971555e-06 2.886689e-05 7.525319e-05 1.325360e-04 1.987290e-04 2.754442e-04 3.611224e-04 4.559550e-04 5.578099e-04 6.645064e-04 7.718212e-04 8.738598e-04 9.621849e-04 1.025391e-03 1.048115e-03 1.011238e-03 8.893700e-04 6.533133e-04 2.646252e-04 -3.179652e-04 -1.148093e-03 -2.279856e-03 -3.782135e-03 -5.720159e-03 -8.174529e-03 -1.121604e-02 -1.492838e-02 -1.937722e-02 -2.463446e-02 -3.074425e-02 -3.774577e-02 -4.564038e-02 -5.440958e-02 -6.398882e-02 -7.427762e-02 -8.512581e-02 -9.633417e-02 -1.076575e-01 -1.187961e-01 -1.294167e-01 -1.391380e-01 -1.475645e-01 -1.542714e-01 -1.588423e-01 -1.608593e-01 -1.599323e-01 -1.557006e-01 -1.478439e-01 -1.361005e-01 -1.202576e-01 -1.001898e-01 -7.583314e-02 -4.724636e-02 -1.457908e-02 2.185063e-02 6.158478e-02 1.039503e-01 1.480866e-01 1.929075e-01 2.371428e-01 2.793806e-01 3.181364e-01 3.519939e-01 3.796876e-01 4.002925e-01 4.132580e-01 4.185379e-01 4.165175e-01 4.080279e-01 3.942346e-01 3.766461e-01 3.571088e-01 3.378675e-01 3.214782e-01 3.105928e-01 3.074511e-01 3.134942e-01 3.288984e-01 3.525632e-01 3.821192e-01 4.143247e-01 4.454952e-01 4.718640e-01 4.895812e-01 4.948404e-01 4.844679e-01 4.572332e-01 4.156790e-01 3.659699e-01 3.148381e-01 2.671174e-01 2.251685e-01 1.894977e-01 1.595843e-01 1.345508e-01 1.135000e-01 9.568322e-02 8.051121e-02 6.754534e-02 5.644960e-02 4.696557e-02 3.888158e-02 3.201981e-02 2.622454e-02 2.135659e-02 1.729178e-02 1.391668e-02 1.113188e-02 8.846166e-03 6.982509e-03 5.469738e-03 
5.242928e-03 4.020425e-03 3.047435e-03 2.274774e-03 1.668005e-03 1.191668e-03 8.241249e-04 5.399580e-04 3.267275e-04 1.661508e-04 5.210868e-05 -2.865463e-05 -7.811833e-05 -1.059272e-04 -1.115056e-04 -1.017770e-04 -7.473509e-05 -3.513839e-05 1.963737e-05 8.657220e-05 1.682498e-04 2.628842e-04 3.723433e-04 4.952830e-04 6.319797e-04 7.802426e-04 9.374936e-04 1.098723e-03 1.256680e-03 1.400752e-03 1.516546e-03 1.584256e-03 1.579284e-03 1.468463e-03 1.213646e-03 7.641495e-04 6.534883e-05 -9.540481e-04 -2.366506e-03 -4.264372e-03 -6.736105e-03 -9.890888e-03 -1.382617e-02 -1.865694e-02 -2.447564e-02 -3.138354e-02 -3.944614e-02 -4.872289e-02 -5.922331e-02 -7.093088e-02 -8.376693e-02 -9.760491e-02 -1.122497e-01 -1.274404e-01 -1.428510e-01 -1.580823e-01 -1.726861e-01 -1.861500e-01 -1.979393e-01 -2.074815e-01 -2.142136e-01 -2.175735e-01 -2.170357e-01 -2.121174e-01 -2.023883e-01 -1.874982e-01 -1.671560e-01 -1.411849e-01 -1.094796e-01 -7.209073e-02 -2.917808e-02 1.888009e-02 7.152459e-02 1.279021e-01 1.868975e-01 2.470629e-01 3.066734e-01 3.637628e-01 4.162360e-01 4.620509e-01 4.993741e-01 5.268459e-01 5.436711e-01 5.497882e-01 5.457645e-01 5.327579e-01 5.123153e-01 4.863606e-01 4.572566e-01 4.280287e-01 4.024012e-01 3.844858e-01 3.778981e-01 3.850542e-01 4.063835e-01 4.402977e-01 4.832930e-01 5.304752e-01 5.766332e-01 6.167565e-01 6.456066e-01 6.572678e-01 6.457545e-01 6.070793e-01 5.448871e-01 4.712741e-01 3.984194e-01 3.335338e-01 2.789230e-01 2.340280e-01 1.971813e-01 1.666514e-01 1.410090e-01 1.192183e-01 1.005465e-01 8.448884e-02 7.067375e-02 5.881863e-02 4.868682e-02 4.007422e-02 3.279546e-02 2.668167e-02 2.157842e-02 1.734423e-02 1.385311e-02 1.099041e-02 8.657924e-03 6.766386e-03 
6.175930e-03 4.711550e-03 3.547417e-03 2.623166e-03 1.898564e-03 1.329821e-03 8.923736e-04 5.544317e-04 3.026365e-04 1.136597e-04 -1.819800e-05 -1.103131e-04 -1.634042e-04 -1.905257e-04 -1.893626e-04 -1.696193e-04 -1.273293e-04 -6.941429e-05 8.745884e-06 1.025874e-04 2.165749e-04 3.479539e-04 5.002002e-04 6.714257e-04 8.630250e-04 1.072371e-03 1.297181e-03 1.531571e-03 1.767254e-03 1.991486e-03 2.186775e-03 2.328806e-03 2.386863e-03 2.319495e-03 2.078295e-03 1.598991e-03 8.114191e-04 -3.760098e-04 -2.057399e-03 -4.352926e-03 -7.378818e-03 -1.127922e-02 -1.618406e-02 -2.224796e-02 -2.959697e-02 -3.837143e-02 -4.866513e-02 -6.056745e-02 -7.410155e-02 -8.926011e-02 -1.059520e-01 -1.240263e-01 -1.432382e-01 -1.632578e-01 -1.836649e-01 -2.039429e-01 -2.235063e-01 -2.416835e-01 -2.577718e-01 -2.710178e-01 -2.806818e-01 -2.860256e-01 -2.863638e-01 -2.810666e-01 -2.695778e-01 -2.514412e-01 -2.262780e-01 -1.938448e-01 -1.539828e-01 -1.067141e-01 -5.218841e-02 9.182584e-03 7.675884e-02 1.495212e-01 2.260876e-01 3.046086e-01 3.828078e-01 4.580278e-01 5.273559e-01 5.879048e-01 6.370249e-01 6.727468e-01 6.939158e-01 7.004882e-01 6.933229e-01 6.740699e-01 6.447332e-01 6.075941e-01 5.653646e-01 5.218452e-01 4.823420e-01 4.533102e-01 4.406074e-01 4.483099e-01 4.772595e-01 5.251060e-01 5.867863e-01 6.545132e-01 7.210855e-01 7.805655e-01 8.267818e-01 8.510114e-01 8.423690e-01 7.884020e-01 6.930725e-01 5.828517e-01 4.805058e-01 3.955846e-01 3.283421e-01 2.753710e-01 2.328474e-01 1.977895e-01 1.681735e-01 1.427426e-01 1.207157e-01 1.016001e-01 8.504498e-02 7.077620e-02 5.855169e-02 4.814844e-02 3.935569e-02 3.197369e-02 2.581773e-02 2.071536e-02 1.651371e-02 1.307200e-02 1.027118e-02 8.001717e-03 
7.031082e-03 5.327550e-03 3.973603e-03 2.899752e-03 2.057851e-03 1.398152e-03 8.909392e-04 5.006195e-04 2.105518e-04 -4.972081e-06 -1.537000e-04 -2.544484e-04 -3.091713e-04 -3.317196e-04 -3.204534e-04 -2.853915e-04 -2.228169e-04 -1.395633e-04 -3.090184e-05 9.904116e-05 2.551424e-04 4.353518e-04 6.437565e-04 8.792645e-04 1.143862e-03 1.435470e-03 1.751968e-03 2.087202e-03 2.431949e-03 2.771487e-03 3.085316e-03 3.344195e-03 3.511017e-03 3.534884e-03 3.356049e-03 2.894459e-03 2.062030e-03 7.433153e-04 -1.181624e-03 -3.866090e-03 -7.460495e-03 -1.215123e-02 -1.810948e-02 -2.553879e-02 -3.460952e-02 -4.551173e-02 -5.837897e-02 -7.334103e-02 -9.044463e-02 -1.096993e-01 -1.310063e-01 -1.541913e-01 -1.789554e-01 -2.048903e-01 -2.314645e-01 -2.580213e-01 -2.838068e-01 -3.079560e-01 -3.295570e-01 -3.476348e-01 -3.612301e-01 -3.693923e-01 -3.712397e-01 -3.659718e-01 -3.528828e-01 -3.313993e-01 -3.010394e-01 -2.614849e-01 -2.125041e-01 -1.540703e-01 -8.628773e-02 -9.564109e-03 7.542548e-02 1.675263e-01 2.651030e-01 3.658613e-01 4.668770e-01 5.646016e-01 6.550418e-01 7.341072e-01 7.979861e-01 8.437819e-01 8.698415e-01 8.761854e-01 8.642421e-01 8.364887e-01 7.955861e-01 7.439626e-01 6.841299e-01 6.202178e-01 5.596810e-01 5.130093e-01 4.897803e-01 4.969812e-01 5.360890e-01 6.032104e-01 6.918632e-01 7.878623e-01 8.813924e-01 9.669603e-01 1.039786e+00 1.087815e+00 1.094646e+00 1.021162e+00 8.656043e-01 6.952340e-01 5.530778e-01 4.471269e-01 3.699956e-01 3.121320e-01 2.663350e-01 2.282166e-01 1.953781e-01 1.666074e-01 1.412813e-01 1.190516e-01 9.966213e-02 8.288551e-02 6.848869e-02 5.623519e-02 4.588622e-02 3.720926e-02 2.998419e-02 2.400580e-02 1.909007e-02 1.506975e-02 1.180181e-02 9.157213e-03 
7.775901e-03 5.837133e-03 4.298009e-03 3.077439e-03 2.122231e-03 1.373968e-03 8.009825e-04 3.608619e-04 3.709517e-05 -2.016845e-04 -3.617476e-04 -4.667864e-04 -5.164575e-04 -5.288428e-04 -4.995491e-04 -4.421631e-04 -3.499994e-04 -2.327002e-04 -8.251119e-05 9.448816e-05 3.061344e-04 5.492976e-04 8.308129e-04 1.149243e-03 1.508866e-03 1.907614e-03 2.344774e-03 2.813849e-03 3.305435e-03 3.802994e-03 4.283188e-03 4.711885e-03 5.045030e-03 5.221677e-03 5.169199e-03 4.789911e-03 3.974930e-03 2.581106e-03 4.580210e-04 -2.587343e-03 -6.746416e-03 -1.225781e-02 -1.934322e-02 -2.826865e-02 -3.926028e-02 -5.257433e-02 -6.839674e-02 -8.691508e-02 -1.082109e-01 -1.323250e-01 -1.591572e-01 -1.885155e-01 -2.200425e-01 -2.532421e-01 -2.874517e-01 -3.218456e-01 -3.554639e-01 -3.872007e-01 -4.158837e-01 -4.402584e-01 -4.590932e-01 -4.711704e-01 -4.753734e-01 -4.706936e-01 -4.562582e-01 -4.313606e-01 -3.954135e-01 -3.480147e-01 -2.888511e-01 -2.178205e-01 -1.349412e-01 -4.055432e-02 6.470384e-02 1.796217e-01 3.023632e-01 4.301946e-01 5.594460e-01 6.854689e-01 8.028058e-01 9.056790e-01 9.885148e-01 1.046998e+00 1.078646e+00 1.083665e+00 1.064539e+00 1.025373e+00 9.699848e-01 9.006369e-01 8.181231e-01 7.252634e-01 6.321210e-01 5.572273e-01 5.159819e-01 5.209944e-01 5.744136e-01 6.676699e-01 7.982085e-01 9.330029e-01 1.059805e+00 1.177022e+00 1.289300e+00 1.378161e+00 1.440032e+00 1.348566e+00 1.064552e+00 7.898004e-01 5.987977e-01 4.782710e-01 4.000020e-01 3.436919e-01 2.983263e-01 2.588921e-01 2.234449e-01 1.913909e-01 1.625982e-01 1.370303e-01 1.146014e-01 9.515405e-02 7.846821e-02 6.428558e-02 5.233190e-02 4.233183e-02 3.402460e-02 2.716534e-02 2.153695e-02 1.694132e-02 1.321178e-02 1.019681e-02 
8.381072e-03 6.212646e-03 4.491120e-03 3.126979e-03 2.059217e-03 1.224314e-03 5.855872e-04 9.761076e-05 -2.593560e-04 -5.184118e-04 -6.879375e-04 -7.925626e-04 -8.333251e-04 -8.287028e-04 -7.751400e-04 -6.861680e-04 -5.554371e-04 -3.920784e-04 -1.881400e-04 5.129378e-05 3.348223e-04 6.607712e-04 1.037249e-03 1.464575e-03 1.948571e-03 2.488839e-03 3.085950e-03 3.734247e-03 4.424422e-03 5.138751e-03 5.851374e-03 6.523183e-03 7.103008e-03 7.518772e-03 7.683665e-03 7.479843e-03 6.774402e-03 5.391927e-03 3.145535e-03 -2.048027e-04 -4.901071e-03 -1.124478e-02 -1.952171e-02 -3.007473e-02 -4.320320e-02 -5.924723e-02 -7.846487e-02 -1.011205e-01 -1.273492e-01 -1.572394e-01 -1.907013e-01 -2.275321e-01 -2.673133e-01 -3.094508e-01 -3.531256e-01 -3.973087e-01 -4.407837e-01 -4.821448e-01 -5.198891e-01 -5.524114e-01 -5.781330e-01 -5.955077e-01 -6.031263e-01 -5.997405e-01 -5.842847e-01 -5.559192e-01 -5.139505e-01 -4.579026e-01 -3.873736e-01 -3.021642e-01 -2.021522e-01 -8.752401e-02 4.124482e-02 1.830233e-01 3.359055e-01 4.967789e-01 6.611831e-01 8.231107e-01 9.751727e-01 1.109147e+00 1.216815e+00 1.291518e+00 1.329396e+00 1.330903e+00 1.300601e+00 1.245890e+00 1.173287e+00 1.084565e+00 9.754747e-01 8.420629e-01 6.962889e-01 5.762924e-01 5.036600e-01 5.039269e-01 5.807094e-01 7.032281e-01 9.096164e-01 1.096471e+00 1.259221e+00 1.404598e+00 1.575976e+00 1.710380e+00 1.954822e+00 1.884654e+00 1.268422e+00 8.128169e-01 5.848497e-01 4.768423e-01 4.168127e-01 3.722183e-01 3.315162e-01 2.919608e-01 2.538022e-01 2.179391e-01 1.851120e-01 1.557343e-01 1.299172e-01 1.075619e-01 8.843440e-02 7.223227e-02 5.862416e-02 4.727894e-02 3.788282e-02 3.014614e-02 2.381200e-02 1.865068e-02 1.446787e-02 1.109100e-02 
8.794846e-03 6.403661e-03 4.506647e-03 3.002875e-03 1.827761e-03 9.091310e-04 2.099229e-04 -3.224479e-04 -7.060426e-04 -9.803293e-04 -1.150741e-03 -1.247783e-03 -1.268815e-03 -1.237690e-03 -1.146784e-03 -1.014309e-03 -8.296427e-04 -6.056220e-04 -3.299033e-04 -1.004467e-05 3.670190e-04 7.985023e-04 1.296961e-03 1.862867e-03 2.506223e-03 3.227600e-03 4.030953e-03 4.911494e-03 5.861535e-03 6.862591e-03 7.887128e-03 8.891384e-03 9.817015e-03 1.058034e-02 1.107900e-02 1.117283e-02 1.070164e-02 9.452763e-03 7.196968e-03 3.638130e-03 -1.525666e-03 -8.673200e-03 -1.816799e-02 -3.045023e-02 -4.591063e-02 -6.499940e-02 -8.806840e-02 -1.154885e-01 -1.474705e-01 -1.841777e-01 -2.255467e-01 -2.713802e-01 -3.211983e-01 -3.743012e-01 -4.296865e-01 -4.860791e-01 -5.419458e-01 -5.955013e-01 -6.448235e-01 -6.878544e-01 -7.225755e-01 -7.470187e-01 -7.594188e-01 -7.582362e-01 -7.422014e-01 -7.103439e-01 -6.618942e-01 -5.963299e-01 -5.131836e-01 -4.121494e-01 -2.929107e-01 -1.553844e-01 2.962243e-04 1.733158e-01 3.619555e-01 5.629371e-01 7.710778e-01 9.788279e-01 1.176282e+00 1.351770e+00 1.492954e+00 1.589273e+00 1.634159e+00 1.628195e+00 1.579557e+00 1.502556e+00 1.410431e+00 1.305771e+00 1.172625e+00 9.846985e-01 7.456053e-01 5.564443e-01 4.257457e-01 4.174972e-01 5.491549e-01 6.631716e-01 1.050447e+00 1.295401e+00 1.488510e+00 1.620204e+00 1.915050e+00 1.949592e+00 2.803797e+00 2.988450e+00 1.329093e+00 6.220719e-01 4.630002e-01 4.382887e-01 4.280469e-01 4.058052e-01 3.716274e-01 3.308463e-01 2.882726e-01 2.471018e-01 2.091328e-01 1.751949e-01 1.455134e-01 1.199630e-01 9.823354e-02 7.993007e-02 6.463476e-02 5.193833e-02 4.146285e-02 3.286384e-02 2.584200e-02 2.013114e-02 1.551043e-02 1.178322e-02 
8.973672e-03 6.368103e-03 4.299117e-03 2.659091e-03 1.376503e-03 3.756364e-04 -3.849485e-04 -9.596044e-04 -1.369300e-03 -1.654332e-03 -1.822212e-03 -1.903778e-03 -1.897949e-03 -1.828566e-03 -1.689103e-03 -1.497359e-03 -1.243225e-03 -9.385625e-04 -5.707405e-04 -1.455947e-04 3.512240e-04 9.194982e-04 1.574121e-03 2.318878e-03 3.166940e-03 4.122506e-03 5.192863e-03 6.376242e-03 7.667185e-03 9.048008e-03 1.049027e-02 1.194632e-02 1.335087e-02 1.460818e-02 1.559910e-02 1.615881e-02 1.609599e-02 1.515558e-02 1.305817e-02 9.442419e-03 3.933272e-03 -3.939799e-03 -1.463780e-02 -2.871922e-02 -4.669292e-02 -6.914699e-02 -9.655973e-02 -1.294412e-01 -1.681121e-01 -2.128431e-01 -2.636240e-01 -3.202837e-01 -3.822875e-01 -4.488227e-01 -5.186726e-01 -5.902662e-01 -6.616729e-01 -7.306297e-01 -7.946721e-01 -8.511624e-01 -8.975086e-01 -9.312107e-01 -9.500539e-01 -9.521641e-01 -9.360516e-01 -9.006517e-01 -8.451719e-01 -7.691158e-01 -6.720070e-01 -5.534499e-01 -4.128883e-01 -2.498215e-01 -6.379128e-02 1.450752e-01 3.756858e-01 6.250343e-01 8.875135e-01 1.153972e+00 1.411395e+00 1.643260e+00 1.830932e+00 1.957103e+00 2.009869e+00 1.988752e+00 1.907787e+00 1.794961e+00 1.680595e+00 1.575369e+00 1.443610e+00 1.194658e+00 7.570230e-01 4.864524e-01 2.313449e-01 2.061599e-01 6.561785e-01 5.642591e-01 7.522683e-01 1.227760e+00 1.122459e+00 7.092722e-01 7.458668e-01 3.115970e-01 1.291823e+00 1.407474e+00 -2.791201e-01 -1.007155e-01 2.199080e-01 3.973897e-01 4.624450e-01 4.615441e-01 4.275342e-01 3.797189e-01 3.285805e-01 2.794189e-01 2.346669e-01 1.952099e-01 1.611279e-01 1.321040e-01 1.076431e-01 8.719520e-02 7.021411e-02 5.619129e-02 4.466875e-02 3.524198e-02 2.756281e-02 2.132936e-02 1.629098e-02 1.223006e-02 
8.838083e-03 6.026753e-03 3.793425e-03 2.020404e-03 6.352809e-04 -4.457036e-04 -1.261874e-03 -1.874908e-03 -2.301834e-03 -2.590192e-03 -2.742532e-03 -2.796970e-03 -2.746959e-03 -2.623398e-03 -2.414060e-03 -2.143085e-03 -1.794493e-03 -1.385179e-03 -8.964002e-04 -3.371872e-04 3.132849e-04 1.053771e-03 1.906051e-03 2.875039e-03 3.981011e-03 5.230952e-03 6.638850e-03 8.206219e-03 9.932623e-03 1.180211e-02 1.378745e-02 1.583804e-02 1.788275e-02 1.981383e-02 2.149489e-02 2.273434e-02 2.330682e-02 2.290905e-02 2.120481e-02 1.775603e-02 1.210267e-02 3.663081e-03 -8.140052e-03 -2.401273e-02 -4.460911e-02 -7.069513e-02 -1.029110e-01 -1.419551e-01 -1.882983e-01 -2.423696e-01 -3.042485e-01 -3.738285e-01 -4.505344e-01 -5.334439e-01 -6.210955e-01 -7.115633e-01 -8.024247e-01 -8.908062e-01 -9.735449e-01 -1.047239e+00 -1.108549e+00 -1.154276e+00 -1.181641e+00 -1.188363e+00 -1.172741e+00 -1.133672e+00 -1.070460e+00 -9.827684e-01 -8.702437e-01 -7.324859e-01 -5.686904e-01 -3.778003e-01 -1.584372e-01 9.048072e-02 3.692156e-01 6.758452e-01 1.005097e+00 1.346587e+00 1.683816e+00 1.993811e+00 2.248442e+00 2.418893e+00 2.482287e+00 2.433044e+00 2.292250e+00 2.113014e+00 1.965634e+00 1.896201e+00 1.856472e+00 1.616285e+00 6.144591e-01 4.965076e-01 1.220357e+00 7.448692e-01 -2.571717e-01 -3.533284e-01 -8.731830e-01 -2.208450e+00 -2.743541e+00 -3.362933e+00 -3.711793e+00 -3.898189e+00 -4.082629e+00 -4.199477e+00 -3.004977e+00 -8.261585e-01 1.332372e-01 4.826126e-01 5.755025e-01 5.619825e-01 5.075784e-01 4.410499e-01 3.749231e-01 3.143143e-01 2.609691e-01 2.150833e-01 1.761808e-01 1.435221e-01 1.163031e-01 9.374701e-02 7.514349e-02 5.986270e-02 4.735858e-02 3.715986e-02 2.887039e-02 2.215019e-02 1.672261e-02 1.234733e-02 
8.326201e-03 5.317273e-03 2.920550e-03 1.015015e-03 -4.766115e-04 -1.639003e-03 -2.514524e-03 -3.164721e-03 -3.608862e-03 -3.894083e-03 -4.024928e-03 -4.039162e-03 -3.932150e-03 -3.734452e-03 -3.435500e-03 -3.058792e-03 -2.589348e-03 -2.042660e-03 -1.399782e-03 -6.671240e-04 1.780495e-04 1.138660e-03 2.240385e-03 3.493890e-03 4.925200e-03 6.548206e-03 8.383716e-03 1.044018e-02 1.272338e-02 1.522224e-02 1.791236e-02 2.074255e-02 2.363696e-02 2.647692e-02 2.910811e-02 3.131107e-02 3.282236e-02 3.328573e-02 3.229883e-02 2.933660e-02 2.383702e-02 1.508918e-02 2.372386e-03 -1.519558e-02 -3.845335e-02 -6.838613e-02 -1.058476e-01 -1.517783e-01 -2.068595e-01 -2.717392e-01 -3.466433e-01 -4.315810e-01 -5.259672e-01 -6.287819e-01 -7.382887e-01 -8.521424e-01 -9.673043e-01 -1.080126e+00 -1.186526e+00 -1.282101e+00 -1.362514e+00 -1.423649e+00 -1.462000e+00 -1.474809e+00 -1.460177e+00 -1.417088e+00 -1.345125e+00 -1.244346e+00 -1.114755e+00 -9.561204e-01 -7.674747e-01 -5.470722e-01 -2.922582e-01 5.592582e-07 3.323766e-01 7.054252e-01 1.115644e+00 1.552562e+00 1.996424e+00 2.416313e+00 2.770450e+00 3.010980e+00 3.093294e+00 2.995680e+00 2.741928e+00 2.424914e+00 2.198725e+00 2.215868e+00 2.504957e+00 2.878082e+00 -5.504950e-01 -2.808376e+00 -1.789091e+00 -2.222260e+00 -3.092717e+00 -5.027878e+00 -5.447984e+00 -5.522191e+00 -5.408310e+00 -4.951087e+00 -4.965233e+00 -4.398767e+00 -5.209843e+00 -5.004651e+00 -2.271095e+00 -6.143795e-02 6.755696e-01 8.419064e-01 8.103412e-01 7.168521e-01 6.115438e-01 5.122547e-01 4.246415e-01 3.496326e-01 2.864248e-01 2.336468e-01 1.898352e-01 1.536215e-01 1.237863e-01 9.927859e-02 7.919838e-02 6.278730e-02 4.940610e-02 3.851985e-02 2.968381e-02 2.252547e-02 1.674172e-02 1.207565e-02 
7.318201e-03 4.116774e-03 1.560127e-03 -4.798513e-04 -2.076949e-03 -3.322460e-03 -4.252861e-03 -4.937005e-03 -5.386992e-03 -5.658391e-03 -5.748079e-03 -5.703208e-03 -5.511445e-03 -5.213014e-03 -4.789752e-03 -4.274101e-03 -3.643420e-03 -2.920317e-03 -2.077740e-03 -1.126395e-03 -3.454460e-05 1.199923e-03 2.612914e-03 4.217940e-03 6.052459e-03 8.136339e-03 1.050238e-02 1.316671e-02 1.614605e-02 1.943606e-02 2.301930e-02 2.684620e-02 3.083938e-02 3.487053e-02 3.876896e-02 4.228612e-02 4.511908e-02 4.685282e-02 4.701265e-02 4.497331e-02 4.005727e-02 3.140023e-02 1.811403e-02 -8.988178e-04 -2.669967e-02 -6.055062e-02 -1.035741e-01 -1.570299e-01 -2.218807e-01 -2.990840e-01 -3.890883e-01 -4.921021e-01 -6.075838e-01 -7.344516e-01 -8.706774e-01 -1.013427e+00 -1.158905e+00 -1.302465e+00 -1.438829e+00 -1.562242e+00 -1.667029e+00 -1.747825e+00 -1.800172e+00 -1.820716e+00 -1.807413e+00 -1.759516e+00 -1.677203e+00 -1.561306e+00 -1.412585e+00 -1.231330e+00 -1.016636e+00 -7.660938e-01 -4.754147e-01 -1.387769e-01 2.504142e-01 6.972860e-01 1.202736e+00 1.758737e+00 2.344169e+00 2.919827e+00 3.426264e+00 3.785956e+00 3.913949e+00 3.746111e+00 3.286474e+00 2.673091e+00 2.213538e+00 2.293069e+00 3.285135e+00 -5.059482e-01 -3.510052e+00 -2.981129e+00 -4.383022e+00 -7.780170e+00 -6.946428e+00 -4.195920e+00 -3.013487e+00 -1.081857e+00 -3.289551e-01 4.643719e-01 7.273271e-01 1.272923e+00 1.275407e+00 1.996639e+00 2.652003e+00 2.338207e+00 1.814929e+00 1.420775e+00 1.125168e+00 8.989989e-01 7.226558e-01 5.830701e-01 4.714080e-01 3.814121e-01 3.085098e-01 2.492598e-01 2.010050e-01 1.616662e-01 1.295831e-01 1.034252e-01 8.210946e-02 6.475555e-02 5.064159e-02 3.917476e-02 2.987129e-02 2.232930e-02 1.622755e-02 1.129320e-02 
5.727753e-03 2.333603e-03 -3.922691e-04 -2.575858e-03 -4.292235e-03 -5.629610e-03 -6.625254e-03 -7.345137e-03 -7.802526e-03 -8.050973e-03 -8.089325e-03 -7.963720e-03 -7.664544e-03 -7.231648e-03 -6.649803e-03 -5.950964e-03 -5.114717e-03 -4.162103e-03 -3.066487e-03 -1.834972e-03 -4.333848e-04 1.146754e-03 2.947347e-03 4.991333e-03 7.325813e-03 9.982790e-03 1.300751e-02 1.642963e-02 2.027902e-02 2.456367e-02 2.927620e-02 3.437371e-02 3.978011e-02 4.536135e-02 5.093123e-02 5.621371e-02 6.086321e-02 6.440333e-02 6.627710e-02 6.574952e-02 6.200744e-02 5.401283e-02 4.067553e-02 2.064658e-02 -7.411900e-03 -4.509677e-02 -9.387629e-02 -1.554138e-01 -2.310539e-01 -3.221717e-01 -4.295502e-01 -5.537102e-01 -6.942424e-01 -8.500711e-01 -1.018875e+00 -1.197269e+00 -1.380523e+00 -1.562724e+00 -1.736993e+00 -1.895763e+00 -2.031509e+00 -2.137173e+00 -2.207003e+00 -2.236927e+00 -2.224829e+00 -2.170544e+00 -2.075312e+00 -1.941305e+00 -1.770658e+00 -1.564737e+00 -1.323221e+00 -1.043257e+00 -7.187929e-01 -3.402475e-01 1.047729e-01 6.291220e-01 1.242145e+00 1.943042e+00 2.713721e+00 3.509525e+00 4.251397e+00 4.821407e+00 5.065761e+00 4.827245e+00 4.019855e+00 2.791520e+00 1.697895e+00 1.627720e+00 -2.976390e+00 -6.747188e+00 -3.869869e+00 -8.592923e+00 -1.002212e+01 -2.181372e+00 1.135450e+00 3.030197e+00 4.358902e+00 5.388408e+00 5.242439e+00 5.605031e+00 5.675928e+00 5.633186e+00 6.007504e+00 6.733469e+00 7.262256e+00 4.689158e+00 2.855263e+00 1.926421e+00 1.391257e+00 1.048618e+00 8.114509e-01 6.381548e-01 5.068220e-01 4.048489e-01 3.243716e-01 2.601744e-01 2.085883e-01 1.669451e-01 1.332228e-01 1.058685e-01 8.365425e-02 6.560775e-02 5.094333e-02 3.902820e-02 2.934859e-02 2.148545e-02 1.510297e-02 9.922078e-03 
3.374092e-03 -2.225520e-04 -3.128254e-03 -5.471309e-03 -7.316821e-03 -8.757263e-03 -9.818567e-03 -1.057383e-02 -1.102464e-02 -1.123474e-02 -1.119178e-02 -1.095459e-02 -1.050323e-02 -9.891410e-03 -9.094371e-03 -8.157253e-03 -7.050312e-03 -5.805117e-03 -4.384950e-03 -2.803032e-03 -1.013299e-03 9.922472e-04 3.270080e-03 5.848763e-03 8.792989e-03 1.214601e-02 1.597313e-02 2.031918e-02 2.523462e-02 3.074319e-02 3.685489e-02 4.353773e-02 5.072356e-02 5.827628e-02 6.599929e-02 7.359015e-02 8.066258e-02 8.667465e-02 9.098345e-02 9.273113e-02 9.095596e-02 8.441907e-02 7.180070e-02 5.145251e-02 2.171053e-02 -1.943417e-02 -7.387585e-02 -1.437961e-01 -2.310386e-01 -3.375493e-01 -4.645942e-01 -6.131768e-01 -7.831633e-01 -9.736073e-01 -1.181943e+00 -1.404189e+00 -1.634496e+00 -1.865324e+00 -2.087686e+00 -2.291513e+00 -2.466718e+00 -2.603833e+00 -2.695334e+00 -2.736195e+00 -2.724385e+00 -2.660787e+00 -2.548434e+00 -2.391691e+00 -2.194952e+00 -1.961555e+00 -1.692584e+00 -1.385485e+00 -1.032725e+00 -6.203604e-01 -1.280285e-01 4.688265e-01 1.194110e+00 2.061860e+00 3.066155e+00 4.165422e+00 5.267763e+00 6.210441e+00 6.743424e+00 6.529256e+00 5.227775e+00 2.791170e+00 1.332426e-01 -3.362756e+00 -5.752685e+00 -4.656019e+00 -1.277682e+01 -9.563436e+00 2.111357e+00 7.107329e+00 7.467943e+00 7.275003e+00 7.195771e+00 6.033317e+00 5.923316e+00 4.919558e+00 4.744961e+00 4.076127e+00 3.837972e+00 4.075576e+00 6.614969e+00 4.751360e+00 3.024973e+00 2.066671e+00 1.487622e+00 1.111378e+00 8.517392e-01 6.640838e-01 5.236367e-01 4.158526e-01 3.316123e-01 2.649346e-01 2.116716e-01 1.688629e-01 1.343008e-01 1.063172e-01 8.360944e-02 6.515780e-02 5.014612e-02 3.792168e-02 2.795938e-02 1.983189e-02 1.320160e-02 7.786081e-03 