# vtk DataFile Version 2.0
Comment goes here
ASCII

DATASET STRUCTURED_POINTS
DIMENSIONS    128   128   1

ORIGIN    0.000   0.000   0.000
SPACING   0.0156250.015625   1.000

POINT_DATA   16384
SCALARS P double
LOOKUP_TABLE default

-1.602967e+02 -1.604251e+02 -1.598797e+02 -1.601678e+02 -1.594594e+02 -1.598939e+02 -1.590408e+02 -1.596070e+02 -1.586291e+02 -1.593111e+02 -1.582294e+02 -1.590104e+02 -1.578471e+02 -1.587090e+02 -1.574869e+02 -1.584111e+02 -1.571534e+02 -1.581208e+02 -1.568507e+02 -1.578420e+02 -1.565825e+02 -1.575786e+02 -1.563515e+02 -1.573339e+02 -1.561602e+02 -1.571112e+02 -1.560102e+02 -1.569132e+02 -1.559022e+02 -1.567425e+02 -1.558368e+02 -1.566010e+02 -1.558135e+02 -1.564905e+02 -1.558314e+02 -1.564121e+02 -1.558892e+02 -1.563665e+02 -1.559849e+02 -1.563540e+02 -1.561162e+02 -1.563743e+02 -1.562801e+02 -1.564264e+02 -1.564735e+02 -1.565090e+02 -1.566924e+02 -1.566198e+02 -1.569326e+02 -1.567558e+02 -1.571895e+02 -1.569137e+02 -1.574579e+02 -1.570891e+02 -1.577327e+02 -1.572774e+02 -1.580089e+02 -1.574739e+02 -1.582823e+02 -1.576741e+02 -1.585498e+02 -1.578743e+02 -1.588101e+02 -1.580723e+02 -1.590644e+02 -1.582673e+02 -1.593159e+02 -1.584601e+02 -1.595701e+02 -1.586527e+02 -1.598336e+02 -1.588472e+02 -1.601130e+02 -1.590450e+02 -1.604135e+02 -1.592455e+02 -1.607375e+02 -1.594454e+02 -1.610838e+02 -1.596385e+02 -1.614465e+02 -1.598165e+02 -1.618155e+02 -1.599707e+02 -1.621776e+02 -1.600950e+02 -1.625181e+02 -1.601886e+02 -1.628237e+02 -1.602585e+02 -1.630851e+02 -1.603183e+02 -1.632992e+02 -1.603840e+02 -1.634690e+02 -1.604695e+02 -1.635974e+02 -1.605808e+02 -1.636840e+02 -1.607176e+02 -1.637257e+02 -1.608729e+02 -1.637201e+02 -1.610345e+02 -1.636668e+02 -1.611877e+02 -1.635675e+02 -1.613187e+02 -1.634251e+02 -1.614182e+02 -1.632430e+02 -1.614808e+02 -1.630246e+02 -1.615044e+02 -1.627727e+02 -1.614887e+02 -1.624901e+02 -1.614348e+02 -1.621791e+02 -1.613443e+02 -1.618422e+02 -1.612193e+02 -1.614821e+02 -1.610621e+02 -1.611021e+02 -1.608755e+02 -1.607057e+02 -1.606621e+02 
-1.642463e+02 -1.622007e+02 -1.645425e+02 -1.626002e+02 -1.648468e+02 -1.630040e+02 -1.651553e+02 -1.634076e+02 -1.654640e+02 -1.638061e+02 -1.657688e+02 -1.641947e+02 -1.660660e+02 -1.645686e+02 -1.663518e+02 -1.649234e+02 -1.666229e+02 -1.652545e+02 -1.668761e+02 -1.655582e+02 -1.671084e+02 -1.658308e+02 -1.673172e+02 -1.660695e+02 -1.675002e+02 -1.662717e+02 -1.676552e+02 -1.664354e+02 -1.677805e+02 -1.665592e+02 -1.678743e+02 -1.666420e+02 -1.679353e+02 -1.666834e+02 -1.679622e+02 -1.666832e+02 -1.679542e+02 -1.666418e+02 -1.679105e+02 -1.665598e+02 -1.678311e+02 -1.664386e+02 -1.677161e+02 -1.662798e+02 -1.675664e+02 -1.660855e+02 -1.673832e+02 -1.658584e+02 -1.671687e+02 -1.656016e+02 -1.669252e+02 -1.653184e+02 -1.666559e+02 -1.650125e+02 -1.663641e+02 -1.646875e+02 -1.660533e+02 -1.643467e+02 -1.657270e+02 -1.639930e+02 -1.653888e+02 -1.636288e+02 -1.650416e+02 -1.632553e+02 -1.646886e+02 -1.628732e+02 -1.643326e+02 -1.624823e+02 -1.639771e+02 -1.620825e+02 -1.636268e+02 -1.616749e+02 -1.632887e+02 -1.612625e+02 -1.629720e+02 -1.608512e+02 -1.626884e+02 -1.604497e+02 -1.624498e+02 -1.600689e+02 -1.622663e+02 -1.597203e+02 -1.621430e+02 -1.594136e+02 -1.620785e+02 -1.591552e+02 -1.620652e+02 -1.589460e+02 -1.620912e+02 -1.587811e+02 -1.621423e+02 -1.586527e+02 -1.622027e+02 -1.585552e+02 -1.622578e+02 -1.584878e+02 -1.622992e+02 -1.584561e+02 -1.623253e+02 -1.584660e+02 -1.623403e+02 -1.585207e+02 -1.623514e+02 -1.586181e+02 -1.623662e+02 -1.587524e+02 -1.623907e+02 -1.589167e+02 -1.624312e+02 -1.591064e+02 -1.624934e+02 -1.593194e+02 -1.625815e+02 -1.595551e+02 -1.626979e+02 -1.598134e+02 -1.628433e+02 -1.600944e+02 -1.630174e+02 -1.603977e+02 -1.632188e+02 -1.607225e+02 -1.634452e+02 -1.610676e+02 -1.636941e+02 -1.614309e+02 -1.639623e+02 -1.618096e+02 
-1.603011e+02 -1.604352e+02 -1.598817e+02 -1.601760e+02 -1.594587e+02 -1.599000e+02 -1.590375e+02 -1.596111e+02 -1.586231e+02 -1.593131e+02 -1.582209e+02 -1.590103e+02 -1.578361e+02 -1.587069e+02 -1.574736e+02 -1.584069e+02 -1.571381e+02 -1.581147e+02 -1.568336e+02 -1.578341e+02 -1.565639e+02 -1.575689e+02 -1.563319e+02 -1.573227e+02 -1.561398e+02 -1.570986e+02 -1.559892e+02 -1.568994e+02 -1.558811e+02 -1.567277e+02 -1.558157e+02 -1.565854e+02 -1.557928e+02 -1.564743e+02 -1.558114e+02 -1.563955e+02 -1.558702e+02 -1.563499e+02 -1.559671e+02 -1.563376e+02 -1.560999e+02 -1.563585e+02 -1.562656e+02 -1.564116e+02 -1.564610e+02 -1.564955e+02 -1.566823e+02 -1.566080e+02 -1.569250e+02 -1.567460e+02 -1.571845e+02 -1.569061e+02 -1.574556e+02 -1.570838e+02 -1.577327e+02 -1.572743e+02 -1.580109e+02 -1.574728e+02 -1.582855e+02 -1.576746e+02 -1.585534e+02 -1.578759e+02 -1.588131e+02 -1.580743e+02 -1.590657e+02 -1.582690e+02 -1.593149e+02 -1.584613e+02 -1.595664e+02 -1.586535e+02 -1.598274e+02 -1.588483e+02 -1.601052e+02 -1.590474e+02 -1.604053e+02 -1.592503e+02 -1.607307e+02 -1.594536e+02 -1.610799e+02 -1.596506e+02 -1.614471e+02 -1.598322e+02 -1.618218e+02 -1.599884e+02 -1.621901e+02 -1.601118e+02 -1.625364e+02 -1.602012e+02 -1.628461e+02 -1.602640e+02 -1.631087e+02 -1.603154e+02 -1.633214e+02 -1.603742e+02 -1.634897e+02 -1.604566e+02 -1.636183e+02 -1.605681e+02 -1.637065e+02 -1.607083e+02 -1.637495e+02 -1.608697e+02 -1.637440e+02 -1.610388e+02 -1.636902e+02 -1.611990e+02 -1.635896e+02 -1.613351e+02 -1.634457e+02 -1.614374e+02 -1.632621e+02 -1.615012e+02 -1.630424e+02 -1.615249e+02 -1.627893e+02 -1.615088e+02 -1.625054e+02 -1.614539e+02 -1.621930e+02 -1.613623e+02 -1.618546e+02 -1.612359e+02 -1.614929e+02 -1.610773e+02 -1.611110e+02 -1.608890e+02 -1.607124e+02 -1.606740e+02 
-1.642353e+02 -1.621928e+02 -1.645351e+02 -1.625964e+02 -1.648433e+02 -1.630046e+02 -1.651557e+02 -1.634127e+02 -1.654683e+02 -1.638160e+02 -1.657769e+02 -1.642093e+02 -1.660778e+02 -1.645879e+02 -1.663671e+02 -1.649470e+02 -1.666414e+02 -1.652821e+02 -1.668974e+02 -1.655893e+02 -1.671324e+02 -1.658651e+02 -1.673436e+02 -1.661062e+02 -1.675287e+02 -1.663104e+02 -1.676856e+02 -1.664755e+02 -1.678124e+02 -1.666003e+02 -1.679076e+02 -1.666836e+02 -1.679696e+02 -1.667251e+02 -1.679974e+02 -1.667246e+02 -1.679899e+02 -1.666825e+02 -1.679466e+02 -1.665995e+02 -1.678671e+02 -1.664769e+02 -1.677516e+02 -1.663163e+02 -1.676008e+02 -1.661198e+02 -1.674161e+02 -1.658900e+02 -1.671993e+02 -1.656301e+02 -1.669531e+02 -1.653435e+02 -1.666804e+02 -1.650339e+02 -1.663847e+02 -1.647051e+02 -1.660699e+02 -1.643608e+02 -1.657396e+02 -1.640043e+02 -1.653976e+02 -1.636382e+02 -1.650472e+02 -1.632641e+02 -1.646913e+02 -1.628824e+02 -1.643324e+02 -1.624925e+02 -1.639734e+02 -1.620933e+02 -1.636180e+02 -1.616846e+02 -1.632724e+02 -1.612683e+02 -1.629462e+02 -1.608498e+02 -1.626518e+02 -1.604383e+02 -1.624037e+02 -1.600458e+02 -1.622141e+02 -1.596858e+02 -1.620903e+02 -1.593707e+02 -1.620311e+02 -1.591091e+02 -1.620278e+02 -1.589031e+02 -1.620669e+02 -1.587451e+02 -1.621330e+02 -1.586220e+02 -1.622079e+02 -1.585251e+02 -1.622715e+02 -1.584522e+02 -1.623143e+02 -1.584144e+02 -1.623365e+02 -1.584213e+02 -1.623443e+02 -1.584780e+02 -1.623479e+02 -1.585815e+02 -1.623569e+02 -1.587230e+02 -1.623756e+02 -1.588923e+02 -1.624109e+02 -1.590846e+02 -1.624694e+02 -1.592987e+02 -1.625554e+02 -1.595346e+02 -1.626711e+02 -1.597930e+02 -1.628170e+02 -1.600741e+02 -1.629924e+02 -1.603780e+02 -1.631957e+02 -1.607040e+02 -1.634246e+02 -1.610508e+02 -1.636764e+02 -1.614164e+02 -1.639478e+02 -1.617982e+02 
-1.603144e+02 -1.604661e+02 -1.598874e+02 -1.602012e+02 -1.594566e+02 -1.599193e+02 -1.590273e+02 -1.596242e+02 -1.586049e+02 -1.593200e+02 -1.581949e+02 -1.590109e+02 -1.578026e+02 -1.587011e+02 -1.574333e+02 -1.583951e+02 -1.570917e+02 -1.580970e+02 -1.567820e+02 -1.578109e+02 -1.565079e+02 -1.575406e+02 -1.562725e+02 -1.572896e+02 -1.560780e+02 -1.570613e+02 -1.559260e+02 -1.568584e+02 -1.558174e+02 -1.566835e+02 -1.557524e+02 -1.565387e+02 -1.557307e+02 -1.564257e+02 -1.557514e+02 -1.563458e+02 -1.558130e+02 -1.562999e+02 -1.559136e+02 -1.562883e+02 -1.560509e+02 -1.563109e+02 -1.562220e+02 -1.563668e+02 -1.564237e+02 -1.564546e+02 -1.566520e+02 -1.565721e+02 -1.569025e+02 -1.567162e+02 -1.571701e+02 -1.568829e+02 -1.574491e+02 -1.570676e+02 -1.577337e+02 -1.572651e+02 -1.580179e+02 -1.574698e+02 -1.582965e+02 -1.576764e+02 -1.585655e+02 -1.578807e+02 -1.588233e+02 -1.580800e+02 -1.590708e+02 -1.582738e+02 -1.593125e+02 -1.584642e+02 -1.595554e+02 -1.586549e+02 -1.598085e+02 -1.588501e+02 -1.600808e+02 -1.590529e+02 -1.603798e+02 -1.592633e+02 -1.607089e+02 -1.594774e+02 -1.610673e+02 -1.596870e+02 -1.614484e+02 -1.598803e+02 -1.618406e+02 -1.600436e+02 -1.622282e+02 -1.601653e+02 -1.625930e+02 -1.602413e+02 -1.629162e+02 -1.602809e+02 -1.631823e+02 -1.603053e+02 -1.633878e+02 -1.603406e+02 -1.635502e+02 -1.604146e+02 -1.636796e+02 -1.605268e+02 -1.637740e+02 -1.606778e+02 -1.638215e+02 -1.608588e+02 -1.638164e+02 -1.610522e+02 -1.637604e+02 -1.612349e+02 -1.636559e+02 -1.613862e+02 -1.635072e+02 -1.614967e+02 -1.633192e+02 -1.615637e+02 -1.630956e+02 -1.615875e+02 -1.628389e+02 -1.615696e+02 -1.625513e+02 -1.615119e+02 -1.622350e+02 -1.614167e+02 -1.618922e+02 -1.612864e+02 -1.615254e+02 -1.611234e+02 -1.611377e+02 -1.609304e+02 -1.607327e+02 -1.607103e+02 
-1.642127e+02 -1.621766e+02 -1.645200e+02 -1.625883e+02 -1.648360e+02 -1.630054e+02 -1.651562e+02 -1.634230e+02 -1.654767e+02 -1.638359e+02 -1.657930e+02 -1.642389e+02 -1.661012e+02 -1.646268e+02 -1.663974e+02 -1.649947e+02 -1.666782e+02 -1.653379e+02 -1.669402e+02 -1.656522e+02 -1.671804e+02 -1.659340e+02 -1.673964e+02 -1.661802e+02 -1.675856e+02 -1.663883e+02 -1.677461e+02 -1.665563e+02 -1.678761e+02 -1.666829e+02 -1.679740e+02 -1.667672e+02 -1.680383e+02 -1.668088e+02 -1.680679e+02 -1.668076e+02 -1.680617e+02 -1.667641e+02 -1.680190e+02 -1.666791e+02 -1.679395e+02 -1.665537e+02 -1.678231e+02 -1.663896e+02 -1.676704e+02 -1.661886e+02 -1.674826e+02 -1.659536e+02 -1.672614e+02 -1.656874e+02 -1.670095e+02 -1.653937e+02 -1.667299e+02 -1.650765e+02 -1.664264e+02 -1.647398e+02 -1.661032e+02 -1.643882e+02 -1.657646e+02 -1.640256e+02 -1.654149e+02 -1.636555e+02 -1.650579e+02 -1.632803e+02 -1.646967e+02 -1.629001e+02 -1.643330e+02 -1.625132e+02 -1.639679e+02 -1.621162e+02 -1.636029e+02 -1.617062e+02 -1.632425e+02 -1.612827e+02 -1.628959e+02 -1.608498e+02 -1.625782e+02 -1.604171e+02 -1.623082e+02 -1.599993e+02 -1.621047e+02 -1.596139e+02 -1.619793e+02 -1.592792e+02 -1.619318e+02 -1.590103e+02 -1.619498e+02 -1.588129e+02 -1.620158e+02 -1.586742e+02 -1.621147e+02 -1.585648e+02 -1.622245e+02 -1.584711e+02 -1.623059e+02 -1.583814e+02 -1.623502e+02 -1.583278e+02 -1.623617e+02 -1.583267e+02 -1.623523e+02 -1.583882e+02 -1.623386e+02 -1.585066e+02 -1.623380e+02 -1.586662e+02 -1.623444e+02 -1.588459e+02 -1.623686e+02 -1.590426e+02 -1.624195e+02 -1.592579e+02 -1.625015e+02 -1.594937e+02 -1.626162e+02 -1.597517e+02 -1.627633e+02 -1.600330e+02 -1.629414e+02 -1.603380e+02 -1.631487e+02 -1.606662e+02 -1.633826e+02 -1.610165e+02 -1.636402e+02 -1.613870e+02 -1.639181e+02 -1.617748e+02 
-1.603371e+02 -1.605183e+02 -1.598974e+02 -1.602439e+02 -1.594534e+02 -1.599520e+02 -1.590104e+02 -1.596465e+02 -1.585744e+02 -1.593317e+02 -1.581511e+02 -1.590120e+02 -1.577463e+02 -1.586917e+02 -1.573654e+02 -1.583754e+02 -1.570135e+02 -1.580675e+02 -1.566949e+02 -1.577720e+02 -1.564136e+02 -1.574931e+02 -1.561725e+02 -1.572342e+02 -1.559740e+02 -1.569988e+02 -1.558197e+02 -1.567897e+02 -1.557103e+02 -1.566095e+02 -1.556460e+02 -1.564604e+02 -1.556264e+02 -1.563442e+02 -1.556505e+02 -1.562623e+02 -1.557169e+02 -1.562158e+02 -1.558236e+02 -1.562052e+02 -1.559685e+02 -1.562305e+02 -1.561486e+02 -1.562910e+02 -1.563608e+02 -1.563854e+02 -1.566011e+02 -1.565114e+02 -1.568648e+02 -1.566657e+02 -1.571463e+02 -1.568440e+02 -1.574394e+02 -1.570409e+02 -1.577370e+02 -1.572504e+02 -1.580320e+02 -1.574659e+02 -1.583179e+02 -1.576811e+02 -1.585893e+02 -1.578906e+02 -1.588437e+02 -1.580912e+02 -1.590821e+02 -1.582826e+02 -1.593097e+02 -1.584682e+02 -1.595363e+02 -1.586546e+02 -1.597741e+02 -1.588492e+02 -1.600358e+02 -1.590576e+02 -1.603318e+02 -1.592811e+02 -1.606673e+02 -1.595151e+02 -1.610414e+02 -1.597487e+02 -1.614469e+02 -1.599656e+02 -1.618700e+02 -1.601452e+02 -1.622925e+02 -1.602663e+02 -1.626922e+02 -1.603181e+02 -1.630432e+02 -1.603126e+02 -1.633160e+02 -1.602838e+02 -1.634970e+02 -1.602683e+02 -1.636436e+02 -1.603345e+02 -1.637760e+02 -1.604463e+02 -1.638880e+02 -1.606170e+02 -1.639459e+02 -1.608349e+02 -1.639388e+02 -1.610757e+02 -1.638791e+02 -1.613025e+02 -1.637665e+02 -1.614789e+02 -1.636091e+02 -1.616008e+02 -1.634136e+02 -1.616712e+02 -1.631836e+02 -1.616938e+02 -1.629213e+02 -1.616722e+02 -1.626280e+02 -1.616094e+02 -1.623055e+02 -1.615082e+02 -1.619554e+02 -1.613712e+02 -1.615802e+02 -1.612009e+02 -1.611830e+02 -1.610000e+02 -1.607672e+02 -1.607715e+02 
-1.641782e+02 -1.621512e+02 -1.644970e+02 -1.625754e+02 -1.648247e+02 -1.630062e+02 -1.651570e+02 -1.634382e+02 -1.654893e+02 -1.638660e+02 -1.658173e+02 -1.642837e+02 -1.661367e+02 -1.646859e+02 -1.664435e+02 -1.650672e+02 -1.667340e+02 -1.654227e+02 -1.670049e+02 -1.657479e+02 -1.672531e+02 -1.660389e+02 -1.674761e+02 -1.662927e+02 -1.676716e+02 -1.665066e+02 -1.678375e+02 -1.666788e+02 -1.679722e+02 -1.668081e+02 -1.680741e+02 -1.668937e+02 -1.681419e+02 -1.669353e+02 -1.681742e+02 -1.669331e+02 -1.681701e+02 -1.668877e+02 -1.681287e+02 -1.667996e+02 -1.680494e+02 -1.666701e+02 -1.679319e+02 -1.665007e+02 -1.677765e+02 -1.662932e+02 -1.675842e+02 -1.660502e+02 -1.673565e+02 -1.657745e+02 -1.670959e+02 -1.654699e+02 -1.668056e+02 -1.651405e+02 -1.664898e+02 -1.647913e+02 -1.661532e+02 -1.644274e+02 -1.658012e+02 -1.640546e+02 -1.654394e+02 -1.636779e+02 -1.650727e+02 -1.633010e+02 -1.647045e+02 -1.629244e+02 -1.643355e+02 -1.625447e+02 -1.639637e+02 -1.621545e+02 -1.635864e+02 -1.617457e+02 -1.632040e+02 -1.613130e+02 -1.628244e+02 -1.608580e+02 -1.624658e+02 -1.603908e+02 -1.621562e+02 -1.599299e+02 -1.619260e+02 -1.594992e+02 -1.617970e+02 -1.591267e+02 -1.617704e+02 -1.588418e+02 -1.618246e+02 -1.586641e+02 -1.619315e+02 -1.585732e+02 -1.620847e+02 -1.584912e+02 -1.622692e+02 -1.584131e+02 -1.623776e+02 -1.582743e+02 -1.624187e+02 -1.581886e+02 -1.624076e+02 -1.581692e+02 -1.623640e+02 -1.582407e+02 -1.623151e+02 -1.583898e+02 -1.623114e+02 -1.585889e+02 -1.622955e+02 -1.587827e+02 -1.623002e+02 -1.589830e+02 -1.623396e+02 -1.591980e+02 -1.624167e+02 -1.594324e+02 -1.625308e+02 -1.596892e+02 -1.626803e+02 -1.599703e+02 -1.628632e+02 -1.602765e+02 -1.630768e+02 -1.606080e+02 -1.633185e+02 -1.609636e+02 -1.635850e+02 -1.613413e+02 -1.638729e+02 -1.617384e+02 
-1.603702e+02 -1.605923e+02 -1.599124e+02 -1.603045e+02 -1.594493e+02 -1.599985e+02 -1.589868e+02 -1.596784e+02 -1.585313e+02 -1.593486e+02 -1.580890e+02 -1.590137e+02 -1.576662e+02 -1.586785e+02 -1.572687e+02 -1.583476e+02 -1.569020e+02 -1.580256e+02 -1.565708e+02 -1.577170e+02 -1.562792e+02 -1.574258e+02 -1.560302e+02 -1.571558e+02 -1.558262e+02 -1.569103e+02 -1.556687e+02 -1.566924e+02 -1.555584e+02 -1.565046e+02 -1.554952e+02 -1.563494e+02 -1.554787e+02 -1.562285e+02 -1.555076e+02 -1.561437e+02 -1.555807e+02 -1.560961e+02 -1.556960e+02 -1.560866e+02 -1.558513e+02 -1.561155e+02 -1.560442e+02 -1.561825e+02 -1.562712e+02 -1.562862e+02 -1.565286e+02 -1.564244e+02 -1.568114e+02 -1.565935e+02 -1.571134e+02 -1.567887e+02 -1.574274e+02 -1.570038e+02 -1.577449e+02 -1.572315e+02 -1.580569e+02 -1.574636e+02 -1.583546e+02 -1.576921e+02 -1.586304e+02 -1.579096e+02 -1.588801e+02 -1.581114e+02 -1.591039e+02 -1.582972e+02 -1.593086e+02 -1.584726e+02 -1.595076e+02 -1.586487e+02 -1.597192e+02 -1.588388e+02 -1.599623e+02 -1.590538e+02 -1.602521e+02 -1.592972e+02 -1.605964e+02 -1.595631e+02 -1.609942e+02 -1.598367e+02 -1.614364e+02 -1.600957e+02 -1.619062e+02 -1.603092e+02 -1.623822e+02 -1.604379e+02 -1.628402e+02 -1.604511e+02 -1.632471e+02 -1.603663e+02 -1.635406e+02 -1.602483e+02 -1.636406e+02 -1.601141e+02 -1.637514e+02 -1.602090e+02 -1.638929e+02 -1.603069e+02 -1.640558e+02 -1.605081e+02 -1.641340e+02 -1.607871e+02 -1.641124e+02 -1.611119e+02 -1.640492e+02 -1.614194e+02 -1.639215e+02 -1.616263e+02 -1.637495e+02 -1.617572e+02 -1.635434e+02 -1.618277e+02 -1.633056e+02 -1.618461e+02 -1.630364e+02 -1.618179e+02 -1.627360e+02 -1.617473e+02 -1.624052e+02 -1.616373e+02 -1.620454e+02 -1.614908e+02 -1.616587e+02 -1.613103e+02 -1.612480e+02 -1.610985e+02 -1.608171e+02 -1.608581e+02 
-1.641314e+02 -1.621152e+02 -1.644656e+02 -1.625566e+02 -1.648095e+02 -1.630062e+02 -1.651581e+02 -1.634581e+02 -1.655067e+02 -1.639063e+02 -1.658506e+02 -1.643444e+02 -1.661851e+02 -1.647662e+02 -1.665062e+02 -1.651659e+02 -1.668098e+02 -1.655381e+02 -1.670925e+02 -1.658780e+02 -1.673514e+02 -1.661815e+02 -1.675838e+02 -1.664453e+02 -1.677875e+02 -1.666669e+02 -1.679606e+02 -1.668446e+02 -1.681015e+02 -1.669772e+02 -1.682088e+02 -1.670643e+02 -1.682812e+02 -1.671060e+02 -1.683174e+02 -1.671024e+02 -1.683163e+02 -1.670542e+02 -1.682769e+02 -1.669622e+02 -1.681982e+02 -1.668275e+02 -1.680797e+02 -1.666513e+02 -1.679212e+02 -1.664353e+02 -1.677232e+02 -1.661816e+02 -1.674869e+02 -1.658931e+02 -1.672146e+02 -1.655734e+02 -1.669095e+02 -1.652268e+02 -1.665761e+02 -1.648590e+02 -1.662200e+02 -1.644766e+02 -1.658482e+02 -1.640874e+02 -1.654684e+02 -1.636998e+02 -1.650881e+02 -1.633205e+02 -1.647123e+02 -1.629515e+02 -1.643405e+02 -1.625870e+02 -1.639660e+02 -1.622133e+02 -1.635777e+02 -1.618128e+02 -1.631676e+02 -1.613717e+02 -1.627388e+02 -1.608865e+02 -1.623138e+02 -1.603682e+02 -1.619351e+02 -1.598401e+02 -1.616556e+02 -1.593343e+02 -1.615187e+02 -1.588912e+02 -1.615313e+02 -1.585671e+02 -1.616466e+02 -1.584271e+02 -1.617990e+02 -1.584614e+02 -1.620224e+02 -1.584129e+02 -1.623899e+02 -1.584159e+02 -1.625168e+02 -1.581146e+02 -1.625398e+02 -1.579829e+02 -1.624855e+02 -1.579199e+02 -1.623797e+02 -1.580142e+02 -1.622442e+02 -1.582205e+02 -1.622948e+02 -1.585155e+02 -1.622246e+02 -1.587125e+02 -1.621971e+02 -1.589089e+02 -1.622229e+02 -1.591198e+02 -1.622961e+02 -1.593503e+02 -1.624116e+02 -1.596041e+02 -1.625659e+02 -1.598840e+02 -1.627559e+02 -1.601917e+02 -1.629786e+02 -1.605272e+02 -1.632310e+02 -1.608899e+02 -1.635098e+02 -1.612775e+02 -1.638113e+02 -1.616873e+02 
-1.604150e+02 -1.606891e+02 -1.599334e+02 -1.603839e+02 -1.594450e+02 -1.600595e+02 -1.589567e+02 -1.597202e+02 -1.584752e+02 -1.593707e+02 -1.580076e+02 -1.590159e+02 -1.575609e+02 -1.586610e+02 -1.571414e+02 -1.583110e+02 -1.567553e+02 -1.579707e+02 -1.564075e+02 -1.576449e+02 -1.561025e+02 -1.573377e+02 -1.558433e+02 -1.570532e+02 -1.556324e+02 -1.567947e+02 -1.554710e+02 -1.565653e+02 -1.553597e+02 -1.563677e+02 -1.552982e+02 -1.562043e+02 -1.552858e+02 -1.560772e+02 -1.553211e+02 -1.559882e+02 -1.554027e+02 -1.559388e+02 -1.555289e+02 -1.559304e+02 -1.556976e+02 -1.559636e+02 -1.559066e+02 -1.560386e+02 -1.561530e+02 -1.561544e+02 -1.564329e+02 -1.563088e+02 -1.567412e+02 -1.564979e+02 -1.570713e+02 -1.567164e+02 -1.574146e+02 -1.569567e+02 -1.577606e+02 -1.572100e+02 -1.580976e+02 -1.574661e+02 -1.584136e+02 -1.577141e+02 -1.586975e+02 -1.579436e+02 -1.589416e+02 -1.581467e+02 -1.591441e+02 -1.583216e+02 -1.593129e+02 -1.584766e+02 -1.594672e+02 -1.586303e+02 -1.596352e+02 -1.588072e+02 -1.598468e+02 -1.590278e+02 -1.601252e+02 -1.592994e+02 -1.604815e+02 -1.596135e+02 -1.609134e+02 -1.599493e+02 -1.614076e+02 -1.602790e+02 -1.619421e+02 -1.605616e+02 -1.624916e+02 -1.607244e+02 -1.630375e+02 -1.606796e+02 -1.635622e+02 -1.604509e+02 -1.639574e+02 -1.602286e+02 -1.637742e+02 -1.597315e+02 -1.638290e+02 -1.600810e+02 -1.639889e+02 -1.600640e+02 -1.643078e+02 -1.603206e+02 -1.644205e+02 -1.606917e+02 -1.643246e+02 -1.611620e+02 -1.642803e+02 -1.616347e+02 -1.641190e+02 -1.618485e+02 -1.639235e+02 -1.619740e+02 -1.637054e+02 -1.620370e+02 -1.634602e+02 -1.620463e+02 -1.631842e+02 -1.620078e+02 -1.628761e+02 -1.619261e+02 -1.625357e+02 -1.618046e+02 -1.621639e+02 -1.616459e+02 -1.617626e+02 -1.614524e+02 -1.613347e+02 -1.612267e+02 -1.608840e+02 -1.609712e+02 
-1.640713e+02 -1.620666e+02 -1.644256e+02 -1.625304e+02 -1.647902e+02 -1.630045e+02 -1.651599e+02 -1.634824e+02 -1.655294e+02 -1.639571e+02 -1.658936e+02 -1.644216e+02 -1.662475e+02 -1.648690e+02 -1.665866e+02 -1.652925e+02 -1.669068e+02 -1.656863e+02 -1.672045e+02 -1.660450e+02 -1.674766e+02 -1.663642e+02 -1.677206e+02 -1.666406e+02 -1.679344e+02 -1.668717e+02 -1.681163e+02 -1.670558e+02 -1.682649e+02 -1.671923e+02 -1.683788e+02 -1.672810e+02 -1.684570e+02 -1.673223e+02 -1.684983e+02 -1.673167e+02 -1.685015e+02 -1.672652e+02 -1.684652e+02 -1.671686e+02 -1.683881e+02 -1.670277e+02 -1.682692e+02 -1.668435e+02 -1.681076e+02 -1.666173e+02 -1.679030e+02 -1.663507e+02 -1.676563e+02 -1.660461e+02 -1.673691e+02 -1.657066e+02 -1.670445e+02 -1.653369e+02 -1.666872e+02 -1.649430e+02 -1.663038e+02 -1.645331e+02 -1.659032e+02 -1.641183e+02 -1.654970e+02 -1.637121e+02 -1.650975e+02 -1.633280e+02 -1.647143e+02 -1.629724e+02 -1.643471e+02 -1.626377e+02 -1.639817e+02 -1.622992e+02 -1.635924e+02 -1.619230e+02 -1.631533e+02 -1.614791e+02 -1.626556e+02 -1.609557e+02 -1.621245e+02 -1.603652e+02 -1.616254e+02 -1.597390e+02 -1.612528e+02 -1.591152e+02 -1.610978e+02 -1.585408e+02 -1.611913e+02 -1.581073e+02 -1.614291e+02 -1.580120e+02 -1.615919e+02 -1.584294e+02 -1.618152e+02 -1.582827e+02 -1.627520e+02 -1.587247e+02 -1.627615e+02 -1.577863e+02 -1.627391e+02 -1.577085e+02 -1.626147e+02 -1.575124e+02 -1.624238e+02 -1.576742e+02 -1.619833e+02 -1.579579e+02 -1.623936e+02 -1.585367e+02 -1.621085e+02 -1.586409e+02 -1.620395e+02 -1.588197e+02 -1.620586e+02 -1.590225e+02 -1.621338e+02 -1.592459e+02 -1.622550e+02 -1.594943e+02 -1.624173e+02 -1.597718e+02 -1.626174e+02 -1.600805e+02 -1.628523e+02 -1.604211e+02 -1.631188e+02 -1.607926e+02 -1.634134e+02 -1.611930e+02 -1.637323e+02 -1.616191e+02 
-1.604736e+02 -1.608100e+02 -1.599618e+02 -1.604833e+02 -1.594415e+02 -1.601359e+02 -1.589201e+02 -1.597726e+02 -1.584055e+02 -1.593984e+02 -1.579058e+02 -1.590187e+02 -1.574285e+02 -1.586391e+02 -1.569813e+02 -1.582650e+02 -1.565705e+02 -1.579018e+02 -1.562020e+02 -1.575545e+02 -1.558803e+02 -1.572276e+02 -1.556088e+02 -1.569251e+02 -1.553896e+02 -1.566505e+02 -1.552239e+02 -1.564070e+02 -1.551118e+02 -1.561972e+02 -1.550528e+02 -1.560236e+02 -1.550456e+02 -1.558884e+02 -1.550889e+02 -1.557937e+02 -1.551809e+02 -1.557415e+02 -1.553202e+02 -1.557336e+02 -1.555050e+02 -1.557714e+02 -1.557334e+02 -1.558558e+02 -1.560033e+02 -1.559863e+02 -1.563113e+02 -1.561612e+02 -1.566523e+02 -1.563762e+02 -1.570193e+02 -1.566252e+02 -1.574020e+02 -1.568993e+02 -1.577876e+02 -1.571876e+02 -1.581607e+02 -1.574773e+02 -1.585048e+02 -1.577541e+02 -1.588034e+02 -1.580025e+02 -1.590427e+02 -1.582081e+02 -1.592158e+02 -1.583639e+02 -1.593299e+02 -1.584801e+02 -1.594122e+02 -1.585884e+02 -1.595082e+02 -1.587337e+02 -1.596673e+02 -1.589550e+02 -1.599266e+02 -1.592668e+02 -1.603002e+02 -1.596526e+02 -1.607814e+02 -1.600789e+02 -1.613487e+02 -1.605173e+02 -1.619688e+02 -1.609359e+02 -1.626042e+02 -1.612150e+02 -1.632517e+02 -1.610866e+02 -1.640021e+02 -1.605263e+02 -1.649525e+02 -1.604853e+02 -1.636723e+02 -1.585187e+02 -1.643587e+02 -1.590063e+02 -1.628760e+02 -1.591279e+02 -1.633663e+02 -1.588469e+02 -1.636785e+02 -1.594357e+02 -1.634058e+02 -1.610644e+02 -1.647369e+02 -1.621043e+02 -1.643477e+02 -1.621567e+02 -1.641183e+02 -1.622525e+02 -1.638944e+02 -1.623004e+02 -1.636460e+02 -1.622952e+02 -1.633654e+02 -1.622423e+02 -1.630500e+02 -1.621464e+02 -1.626992e+02 -1.620107e+02 -1.623135e+02 -1.618373e+02 -1.618946e+02 -1.616283e+02 -1.614455e+02 -1.613857e+02 -1.609702e+02 -1.611120e+02 
-1.639971e+02 -1.620029e+02 -1.643763e+02 -1.624949e+02 -1.647667e+02 -1.629999e+02 -1.651626e+02 -1.635106e+02 -1.655581e+02 -1.640189e+02 -1.659475e+02 -1.645167e+02 -1.663253e+02 -1.649961e+02 -1.666866e+02 -1.654495e+02 -1.670269e+02 -1.658701e+02 -1.673426e+02 -1.662520e+02 -1.676305e+02 -1.665904e+02 -1.678883e+02 -1.668819e+02 -1.681139e+02 -1.671240e+02 -1.683060e+02 -1.673154e+02 -1.684635e+02 -1.674559e+02 -1.685853e+02 -1.675458e+02 -1.686706e+02 -1.675861e+02 -1.687182e+02 -1.675779e+02 -1.687270e+02 -1.675224e+02 -1.686954e+02 -1.674205e+02 -1.686215e+02 -1.672730e+02 -1.685034e+02 -1.670802e+02 -1.683394e+02 -1.668427e+02 -1.681283e+02 -1.665614e+02 -1.678698e+02 -1.662375e+02 -1.675647e+02 -1.658738e+02 -1.672156e+02 -1.654742e+02 -1.668269e+02 -1.650448e+02 -1.664057e+02 -1.645947e+02 -1.659632e+02 -1.641390e+02 -1.655165e+02 -1.636996e+02 -1.650876e+02 -1.633033e+02 -1.646969e+02 -1.629691e+02 -1.643487e+02 -1.626892e+02 -1.640190e+02 -1.624212e+02 -1.636558e+02 -1.621006e+02 -1.631984e+02 -1.616683e+02 -1.626096e+02 -1.610976e+02 -1.619106e+02 -1.604072e+02 -1.612000e+02 -1.596467e+02 -1.606438e+02 -1.588565e+02 -1.604358e+02 -1.580528e+02 -1.607068e+02 -1.573048e+02 -1.612807e+02 -1.570758e+02 -1.613169e+02 -1.589584e+02 -1.608995e+02 -1.577849e+02 -1.657190e+02 -1.578437e+02 -1.605414e+02 -1.548763e+02 -1.582840e+02 -1.533766e+02 -1.589075e+02 -1.537542e+02 -1.596278e+02 -1.548193e+02 -1.601556e+02 -1.570695e+02 -1.616990e+02 -1.582220e+02 -1.617735e+02 -1.584924e+02 -1.617918e+02 -1.587052e+02 -1.618375e+02 -1.589044e+02 -1.619260e+02 -1.591171e+02 -1.620582e+02 -1.593566e+02 -1.622323e+02 -1.596296e+02 -1.624457e+02 -1.599390e+02 -1.626959e+02 -1.602854e+02 -1.629798e+02 -1.606679e+02 -1.632941e+02 -1.610842e+02 -1.636347e+02 -1.615308e+02 
-1.605486e+02 -1.609566e+02 -1.599996e+02 -1.606041e+02 -1.594397e+02 -1.602290e+02 -1.588774e+02 -1.598365e+02 -1.583217e+02 -1.594321e+02 -1.577818e+02 -1.590218e+02 -1.572668e+02 -1.586120e+02 -1.567851e+02 -1.582086e+02 -1.563441e+02 -1.578176e+02 -1.559504e+02 -1.574444e+02 -1.556087e+02 -1.570937e+02 -1.553226e+02 -1.567697e+02 -1.550941e+02 -1.564760e+02 -1.549239e+02 -1.562157e+02 -1.548117e+02 -1.559913e+02 -1.547563e+02 -1.558053e+02 -1.547559e+02 -1.556600e+02 -1.548088e+02 -1.555578e+02 -1.549131e+02 -1.555011e+02 -1.550673e+02 -1.554925e+02 -1.552703e+02 -1.555346e+02 -1.555210e+02 -1.556292e+02 -1.558183e+02 -1.557771e+02 -1.561599e+02 -1.559769e+02 -1.565414e+02 -1.562246e+02 -1.569554e+02 -1.565128e+02 -1.573902e+02 -1.568310e+02 -1.578297e+02 -1.571658e+02 -1.582540e+02 -1.575017e+02 -1.586408e+02 -1.578209e+02 -1.589660e+02 -1.581009e+02 -1.592060e+02 -1.583148e+02 -1.593419e+02 -1.584410e+02 -1.593738e+02 -1.584869e+02 -1.593395e+02 -1.585059e+02 -1.593152e+02 -1.585822e+02 -1.593873e+02 -1.587931e+02 -1.596165e+02 -1.591655e+02 -1.600189e+02 -1.596610e+02 -1.605745e+02 -1.602084e+02 -1.612488e+02 -1.607837e+02 -1.619860e+02 -1.614493e+02 -1.627010e+02 -1.621041e+02 -1.633543e+02 -1.619141e+02 -1.642318e+02 -1.600820e+02 -1.692979e+02 -1.586703e+02 -1.545106e+02 -1.549276e+02 -1.591650e+02 -1.524556e+02 -1.600798e+02 -1.542242e+02 -1.611983e+02 -1.560320e+02 -1.623400e+02 -1.579025e+02 -1.631365e+02 -1.603953e+02 -1.641964e+02 -1.619397e+02 -1.644169e+02 -1.624204e+02 -1.643058e+02 -1.625775e+02 -1.641072e+02 -1.626167e+02 -1.638642e+02 -1.625923e+02 -1.635822e+02 -1.625208e+02 -1.632607e+02 -1.624079e+02 -1.628990e+02 -1.622558e+02 -1.624976e+02 -1.620659e+02 -1.620583e+02 -1.618393e+02 -1.615840e+02 -1.615773e+02 -1.610789e+02 -1.612822e+02 
-1.639075e+02 -1.619207e+02 -1.643170e+02 -1.624475e+02 -1.647389e+02 -1.629908e+02 -1.651668e+02 -1.635420e+02 -1.655939e+02 -1.640920e+02 -1.660138e+02 -1.646311e+02 -1.664205e+02 -1.651500e+02 -1.668083e+02 -1.656401e+02 -1.671725e+02 -1.660933e+02 -1.675093e+02 -1.665032e+02 -1.678155e+02 -1.668644e+02 -1.680889e+02 -1.671733e+02 -1.683278e+02 -1.674277e+02 -1.685313e+02 -1.676268e+02 -1.686986e+02 -1.677708e+02 -1.688292e+02 -1.678611e+02 -1.689227e+02 -1.678994e+02 -1.689781e+02 -1.678876e+02 -1.689943e+02 -1.678274e+02 -1.689695e+02 -1.677200e+02 -1.689011e+02 -1.675658e+02 -1.687863e+02 -1.673646e+02 -1.686219e+02 -1.671159e+02 -1.684053e+02 -1.668189e+02 -1.681344e+02 -1.664737e+02 -1.678091e+02 -1.660815e+02 -1.674305e+02 -1.656449e+02 -1.670018e+02 -1.651687e+02 -1.665293e+02 -1.646612e+02 -1.660253e+02 -1.641399e+02 -1.655136e+02 -1.636386e+02 -1.650336e+02 -1.632102e+02 -1.646303e+02 -1.629050e+02 -1.643256e+02 -1.627228e+02 -1.640841e+02 -1.625902e+02 -1.638086e+02 -1.623857e+02 -1.633715e+02 -1.619938e+02 -1.626734e+02 -1.613607e+02 -1.617123e+02 -1.605265e+02 -1.606298e+02 -1.595956e+02 -1.596993e+02 -1.586228e+02 -1.593037e+02 -1.575126e+02 -1.599180e+02 -1.559764e+02 -1.616629e+02 -1.540109e+02 -1.615201e+02 -1.562762e+02 -1.520465e+02 -1.595338e+02 -1.564076e+02 -1.522459e+02 -1.580702e+02 -1.471567e+02 -1.595133e+02 -1.498547e+02 -1.599276e+02 -1.527949e+02 -1.600064e+02 -1.549632e+02 -1.599083e+02 -1.573249e+02 -1.614857e+02 -1.579792e+02 -1.614963e+02 -1.584010e+02 -1.615151e+02 -1.586028e+02 -1.615726e+02 -1.587726e+02 -1.616744e+02 -1.589616e+02 -1.618203e+02 -1.591862e+02 -1.620089e+02 -1.594522e+02 -1.622386e+02 -1.597618e+02 -1.625071e+02 -1.601151e+02 -1.628120e+02 -1.605108e+02 -1.631498e+02 -1.609465e+02 -1.635166e+02 -1.614182e+02 