# vtk DataFile Version 2.0
Comment goes here
ASCII

DATASET STRUCTURED_POINTS
DIMENSIONS    128   128   1

ORIGIN    0.000   0.000   0.000
SPACING   0.0156250.015625   1.000

POINT_DATA   16384
SCALARS P double
LOOKUP_TABLE default

-4.818049e+01 -4.849578e+01 -4.804503e+01 -4.839303e+01 -4.790970e+01 -4.828452e+01 -4.777658e+01 -4.817194e+01 -4.764774e+01 -4.805702e+01 -4.752518e+01 -4.794158e+01 -4.741077e+01 -4.782741e+01 -4.730624e+01 -4.771628e+01 -4.721309e+01 -4.760989e+01 -4.713257e+01 -4.750983e+01 -4.706567e+01 -4.741752e+01 -4.701304e+01 -4.733419e+01 -4.697504e+01 -4.726085e+01 -4.695169e+01 -4.719828e+01 -4.694269e+01 -4.714695e+01 -4.694740e+01 -4.710708e+01 -4.696492e+01 -4.707859e+01 -4.699403e+01 -4.706110e+01 -4.703328e+01 -4.705396e+01 -4.708101e+01 -4.705623e+01 -4.713538e+01 -4.706678e+01 -4.719449e+01 -4.708429e+01 -4.725636e+01 -4.710729e+01 -4.731909e+01 -4.713429e+01 -4.738092e+01 -4.716383e+01 -4.744031e+01 -4.719456e+01 -4.749605e+01 -4.722539e+01 -4.754738e+01 -4.725553e+01 -4.759402e+01 -4.728463e+01 -4.763631e+01 -4.731287e+01 -4.767526e+01 -4.734106e+01 -4.771258e+01 -4.737063e+01 -4.775065e+01 -4.740363e+01 -4.779237e+01 -4.744250e+01 -4.784090e+01 -4.748975e+01 -4.789926e+01 -4.754753e+01 -4.796981e+01 -4.761704e+01 -4.805377e+01 -4.769813e+01 -4.815087e+01 -4.778901e+01 -4.825921e+01 -4.788638e+01 -4.837539e+01 -4.798580e+01 -4.849490e+01 -4.808267e+01 -4.861266e+01 -4.817323e+01 -4.872357e+01 -4.825555e+01 -4.882301e+01 -4.832997e+01 -4.890774e+01 -4.839873e+01 -4.897691e+01 -4.846528e+01 -4.903242e+01 -4.853312e+01 -4.907742e+01 -4.860393e+01 -4.911427e+01 -4.867684e+01 -4.914316e+01 -4.874831e+01 -4.916263e+01 -4.881339e+01 -4.917020e+01 -4.886780e+01 -4.916291e+01 -4.890958e+01 -4.913917e+01 -4.893803e+01 -4.909886e+01 -4.895282e+01 -4.904271e+01 -4.895373e+01 -4.897184e+01 -4.894066e+01 -4.888751e+01 -4.891374e+01 -4.879106e+01 -4.887334e+01 -4.868390e+01 -4.882001e+01 -4.856757e+01 -4.875455e+01 -4.844370e+01 -4.867791e+01 -4.831404e+01 -4.859122e+01 
-4.906223e+01 -4.863727e+01 -4.914789e+01 -4.874370e+01 -4.923637e+01 -4.885030e+01 -4.932656e+01 -4.895566e+01 -4.941725e+01 -4.905836e+01 -4.950724e+01 -4.915701e+01 -4.959533e+01 -4.925026e+01 -4.968034e+01 -4.933686e+01 -4.976114e+01 -4.941570e+01 -4.983669e+01 -4.948583e+01 -4.990602e+01 -4.954646e+01 -4.996828e+01 -4.959703e+01 -5.002274e+01 -4.963713e+01 -5.006876e+01 -4.966658e+01 -5.010586e+01 -4.968536e+01 -5.013364e+01 -4.969362e+01 -5.015183e+01 -4.969165e+01 -5.016023e+01 -4.967984e+01 -5.015876e+01 -4.965864e+01 -5.014740e+01 -4.962858e+01 -5.012623e+01 -4.959018e+01 -5.009539e+01 -4.954398e+01 -5.005510e+01 -4.949049e+01 -5.000569e+01 -4.943018e+01 -4.994758e+01 -4.936352e+01 -4.988132e+01 -4.929094e+01 -4.980762e+01 -4.921291e+01 -4.972733e+01 -4.912991e+01 -4.964148e+01 -4.904251e+01 -4.955122e+01 -4.895136e+01 -4.945783e+01 -4.885718e+01 -4.936264e+01 -4.876073e+01 -4.926692e+01 -4.866273e+01 -4.917189e+01 -4.856389e+01 -4.907870e+01 -4.846487e+01 -4.898853e+01 -4.836648e+01 -4.890268e+01 -4.826969e+01 -4.882265e+01 -4.817580e+01 -4.874996e+01 -4.808629e+01 -4.868593e+01 -4.800270e+01 -4.863129e+01 -4.792638e+01 -4.858606e+01 -4.785838e+01 -4.854967e+01 -4.779934e+01 -4.852138e+01 -4.774959e+01 -4.850054e+01 -4.770935e+01 -4.848635e+01 -4.767903e+01 -4.847737e+01 -4.765920e+01 -4.847172e+01 -4.764995e+01 -4.846811e+01 -4.765119e+01 -4.846656e+01 -4.766221e+01 -4.846855e+01 -4.768178e+01 -4.847582e+01 -4.770799e+01 -4.848863e+01 -4.773917e+01 -4.850517e+01 -4.777574e+01 -4.852511e+01 -4.781898e+01 -4.854937e+01 -4.786981e+01 -4.857917e+01 -4.792860e+01 -4.861547e+01 -4.799525e+01 -4.865886e+01 -4.806944e+01 -4.870956e+01 -4.815069e+01 -4.876749e+01 -4.823839e+01 -4.883233e+01 -4.833183e+01 -4.890356e+01 -4.843014e+01 -4.898047e+01 -4.853233e+01 
-4.818148e+01 -4.849942e+01 -4.804498e+01 -4.839588e+01 -4.790861e+01 -4.828653e+01 -4.777446e+01 -4.817307e+01 -4.764462e+01 -4.805726e+01 -4.752112e+01 -4.794091e+01 -4.740586e+01 -4.782586e+01 -4.730058e+01 -4.771388e+01 -4.720680e+01 -4.760671e+01 -4.712580e+01 -4.750594e+01 -4.705856e+01 -4.741301e+01 -4.700576e+01 -4.732918e+01 -4.696775e+01 -4.725546e+01 -4.694456e+01 -4.719264e+01 -4.693586e+01 -4.714121e+01 -4.694103e+01 -4.710139e+01 -4.695914e+01 -4.707309e+01 -4.698897e+01 -4.705592e+01 -4.702905e+01 -4.704924e+01 -4.707769e+01 -4.705210e+01 -4.713304e+01 -4.706333e+01 -4.719313e+01 -4.708158e+01 -4.725597e+01 -4.710535e+01 -4.731960e+01 -4.713311e+01 -4.738222e+01 -4.716334e+01 -4.744222e+01 -4.719464e+01 -4.749835e+01 -4.722586e+01 -4.754979e+01 -4.725615e+01 -4.759622e+01 -4.728512e+01 -4.763797e+01 -4.731293e+01 -4.767604e+01 -4.734037e+01 -4.771217e+01 -4.736894e+01 -4.774881e+01 -4.740077e+01 -4.778902e+01 -4.743845e+01 -4.783614e+01 -4.748475e+01 -4.789341e+01 -4.754200e+01 -4.796341e+01 -4.761164e+01 -4.804753e+01 -4.769360e+01 -4.814555e+01 -4.778608e+01 -4.825550e+01 -4.788555e+01 -4.837382e+01 -4.798719e+01 -4.849579e+01 -4.808587e+01 -4.861609e+01 -4.817737e+01 -4.872930e+01 -4.825954e+01 -4.883038e+01 -4.833284e+01 -4.891554e+01 -4.839987e+01 -4.898376e+01 -4.846466e+01 -4.903769e+01 -4.853166e+01 -4.908151e+01 -4.860289e+01 -4.911826e+01 -4.867757e+01 -4.914788e+01 -4.875154e+01 -4.916861e+01 -4.881877e+01 -4.917769e+01 -4.887418e+01 -4.917122e+01 -4.891632e+01 -4.914755e+01 -4.894494e+01 -4.910686e+01 -4.895984e+01 -4.905015e+01 -4.896078e+01 -4.897865e+01 -4.894764e+01 -4.889364e+01 -4.892053e+01 -4.879647e+01 -4.887983e+01 -4.868855e+01 -4.882610e+01 -4.857139e+01 -4.876014e+01 -4.844662e+01 -4.868293e+01 -4.831602e+01 -4.859559e+01 
-4.905839e+01 -4.863577e+01 -4.914510e+01 -4.874353e+01 -4.923472e+01 -4.885152e+01 -4.932608e+01 -4.895830e+01 -4.941798e+01 -4.906240e+01 -4.950919e+01 -4.916240e+01 -4.959846e+01 -4.925689e+01 -4.968460e+01 -4.934462e+01 -4.976646e+01 -4.942442e+01 -4.984296e+01 -4.949533e+01 -4.991315e+01 -4.955655e+01 -4.997615e+01 -4.960750e+01 -5.003123e+01 -4.964779e+01 -5.007775e+01 -4.967725e+01 -5.011523e+01 -4.969589e+01 -5.014328e+01 -4.970386e+01 -5.016164e+01 -4.970150e+01 -5.017012e+01 -4.968921e+01 -5.016866e+01 -4.966751e+01 -5.015724e+01 -4.963693e+01 -5.013593e+01 -4.959803e+01 -5.010489e+01 -4.955136e+01 -5.006432e+01 -4.949743e+01 -5.001452e+01 -4.943672e+01 -4.995590e+01 -4.936966e+01 -4.988898e+01 -4.929665e+01 -4.981442e+01 -4.921811e+01 -4.973308e+01 -4.913450e+01 -4.964599e+01 -4.904639e+01 -4.955439e+01 -4.895446e+01 -4.945964e+01 -4.885950e+01 -4.936316e+01 -4.876235e+01 -4.926630e+01 -4.866377e+01 -4.917026e+01 -4.856441e+01 -4.907608e+01 -4.846482e+01 -4.898479e+01 -4.836559e+01 -4.889761e+01 -4.826763e+01 -4.881608e+01 -4.817222e+01 -4.874201e+01 -4.808103e+01 -4.867705e+01 -4.799586e+01 -4.862217e+01 -4.791830e+01 -4.857732e+01 -4.784950e+01 -4.854157e+01 -4.779007e+01 -4.851391e+01 -4.774010e+01 -4.849388e+01 -4.769945e+01 -4.848115e+01 -4.766854e+01 -4.847404e+01 -4.764864e+01 -4.846967e+01 -4.763944e+01 -4.846605e+01 -4.764141e+01 -4.846301e+01 -4.765365e+01 -4.846327e+01 -4.767515e+01 -4.847032e+01 -4.770309e+01 -4.848497e+01 -4.773388e+01 -4.850190e+01 -4.776921e+01 -4.852094e+01 -4.781152e+01 -4.854399e+01 -4.786200e+01 -4.857281e+01 -4.792086e+01 -4.860851e+01 -4.798782e+01 -4.865167e+01 -4.806247e+01 -4.870244e+01 -4.814430e+01 -4.876068e+01 -4.823272e+01 -4.882603e+01 -4.832700e+01 -4.889793e+01 -4.842629e+01 -4.897567e+01 -4.852960e+01 
-4.818442e+01 -4.851045e+01 -4.804482e+01 -4.840454e+01 -4.790530e+01 -4.829266e+01 -4.776802e+01 -4.817655e+01 -4.763516e+01 -4.805802e+01 -4.750882e+01 -4.793896e+01 -4.739097e+01 -4.782123e+01 -4.728342e+01 -4.770670e+01 -4.718775e+01 -4.759715e+01 -4.710529e+01 -4.749423e+01 -4.703705e+01 -4.739944e+01 -4.698373e+01 -4.731409e+01 -4.694569e+01 -4.723922e+01 -4.692295e+01 -4.717565e+01 -4.691519e+01 -4.712390e+01 -4.692175e+01 -4.708419e+01 -4.694166e+01 -4.705644e+01 -4.697368e+01 -4.704027e+01 -4.701627e+01 -4.703499e+01 -4.706767e+01 -4.703960e+01 -4.712596e+01 -4.705290e+01 -4.718907e+01 -4.707341e+01 -4.725488e+01 -4.709956e+01 -4.732128e+01 -4.712964e+01 -4.738631e+01 -4.716199e+01 -4.744822e+01 -4.719505e+01 -4.750557e+01 -4.722747e+01 -4.755740e+01 -4.725826e+01 -4.760327e+01 -4.728689e+01 -4.764341e+01 -4.731342e+01 -4.767881e+01 -4.733862e+01 -4.771129e+01 -4.736408e+01 -4.774354e+01 -4.739224e+01 -4.777903e+01 -4.742618e+01 -4.782169e+01 -4.746935e+01 -4.787550e+01 -4.752484e+01 -4.794371e+01 -4.759474e+01 -4.802823e+01 -4.767936e+01 -4.812903e+01 -4.777682e+01 -4.824394e+01 -4.788294e+01 -4.836889e+01 -4.799171e+01 -4.849845e+01 -4.809630e+01 -4.862660e+01 -4.819082e+01 -4.874714e+01 -4.827239e+01 -4.885369e+01 -4.834200e+01 -4.894031e+01 -4.840328e+01 -4.900491e+01 -4.846185e+01 -4.905310e+01 -4.852597e+01 -4.909266e+01 -4.859839e+01 -4.912938e+01 -4.867902e+01 -4.916149e+01 -4.876149e+01 -4.918627e+01 -4.883603e+01 -4.920082e+01 -4.889395e+01 -4.919684e+01 -4.893672e+01 -4.917308e+01 -4.896573e+01 -4.913105e+01 -4.898097e+01 -4.907254e+01 -4.898204e+01 -4.899908e+01 -4.896870e+01 -4.891204e+01 -4.894103e+01 -4.881273e+01 -4.889942e+01 -4.870250e+01 -4.884449e+01 -4.858286e+01 -4.877705e+01 -4.845542e+01 -4.869810e+01 -4.832197e+01 -4.860880e+01 
-4.905058e+01 -4.863270e+01 -4.913942e+01 -4.874316e+01 -4.923132e+01 -4.885397e+01 -4.932508e+01 -4.896362e+01 -4.941943e+01 -4.907057e+01 -4.951307e+01 -4.917329e+01 -4.960473e+01 -4.927033e+01 -4.969315e+01 -4.936032e+01 -4.977714e+01 -4.944207e+01 -4.985559e+01 -4.951455e+01 -4.992750e+01 -4.957695e+01 -4.999199e+01 -4.962867e+01 -5.004830e+01 -4.966933e+01 -5.009582e+01 -4.969879e+01 -5.013405e+01 -4.971709e+01 -5.016264e+01 -4.972446e+01 -5.018133e+01 -4.972127e+01 -5.018998e+01 -4.970801e+01 -5.018852e+01 -4.968526e+01 -5.017697e+01 -4.965362e+01 -5.015542e+01 -4.961370e+01 -5.012399e+01 -4.956609e+01 -5.008288e+01 -4.951130e+01 -5.003236e+01 -4.944981e+01 -4.997275e+01 -4.938198e+01 -4.990451e+01 -4.930814e+01 -4.982826e+01 -4.922862e+01 -4.974479e+01 -4.914380e+01 -4.965519e+01 -4.905422e+01 -4.956081e+01 -4.896066e+01 -4.946323e+01 -4.886407e+01 -4.936411e+01 -4.876549e+01 -4.926500e+01 -4.866580e+01 -4.916705e+01 -4.856556e+01 -4.907106e+01 -4.846498e+01 -4.897763e+01 -4.836423e+01 -4.888772e+01 -4.826388e+01 -4.880295e+01 -4.816527e+01 -4.872575e+01 -4.807048e+01 -4.865868e+01 -4.798191e+01 -4.860339e+01 -4.790171e+01 -4.855963e+01 -4.783133e+01 -4.852543e+01 -4.777134e+01 -4.849882e+01 -4.772130e+01 -4.847996e+01 -4.767984e+01 -4.847036e+01 -4.764709e+01 -4.846800e+01 -4.762740e+01 -4.846689e+01 -4.761779e+01 -4.846340e+01 -4.762135e+01 -4.845615e+01 -4.763583e+01 -4.845116e+01 -4.766205e+01 -4.845723e+01 -4.769538e+01 -4.847909e+01 -4.772415e+01 -4.849662e+01 -4.775582e+01 -4.851289e+01 -4.779601e+01 -4.853298e+01 -4.784595e+01 -4.855969e+01 -4.790513e+01 -4.859423e+01 -4.797283e+01 -4.863699e+01 -4.804844e+01 -4.868794e+01 -4.813143e+01 -4.874684e+01 -4.822125e+01 -4.881324e+01 -4.831721e+01 -4.888652e+01 -4.841847e+01 -4.896594e+01 -4.852403e+01 
-4.818944e+01 -4.852906e+01 -4.804459e+01 -4.841916e+01 -4.789974e+01 -4.830302e+01 -4.775717e+01 -4.818244e+01 -4.761919e+01 -4.805934e+01 -4.748802e+01 -4.793566e+01 -4.736578e+01 -4.781342e+01 -4.725439e+01 -4.769456e+01 -4.715553e+01 -4.758098e+01 -4.707059e+01 -4.747442e+01 -4.700066e+01 -4.737649e+01 -4.694647e+01 -4.728855e+01 -4.690838e+01 -4.721172e+01 -4.688642e+01 -4.714688e+01 -4.688023e+01 -4.709457e+01 -4.688913e+01 -4.705506e+01 -4.691211e+01 -4.702825e+01 -4.694783e+01 -4.701376e+01 -4.699468e+01 -4.701084e+01 -4.705080e+01 -4.701847e+01 -4.711412e+01 -4.703529e+01 -4.718239e+01 -4.705972e+01 -4.725330e+01 -4.708996e+01 -4.732451e+01 -4.712409e+01 -4.739377e+01 -4.716018e+01 -4.745903e+01 -4.719636e+01 -4.751861e+01 -4.723099e+01 -4.757123e+01 -4.726278e+01 -4.761626e+01 -4.729096e+01 -4.765375e+01 -4.731537e+01 -4.768462e+01 -4.733672e+01 -4.771078e+01 -4.735672e+01 -4.773528e+01 -4.737822e+01 -4.776224e+01 -4.740518e+01 -4.779671e+01 -4.744230e+01 -4.784396e+01 -4.749415e+01 -4.790863e+01 -4.756408e+01 -4.799361e+01 -4.765320e+01 -4.809924e+01 -4.775962e+01 -4.822297e+01 -4.787816e+01 -4.835969e+01 -4.800062e+01 -4.850264e+01 -4.811682e+01 -4.864472e+01 -4.821722e+01 -4.877896e+01 -4.829720e+01 -4.889697e+01 -4.835956e+01 -4.898716e+01 -4.840949e+01 -4.904257e+01 -4.845357e+01 -4.907721e+01 -4.851202e+01 -4.910668e+01 -4.858569e+01 -4.914508e+01 -4.867860e+01 -4.918236e+01 -4.877932e+01 -4.921410e+01 -4.886990e+01 -4.924251e+01 -4.892893e+01 -4.924234e+01 -4.897099e+01 -4.921700e+01 -4.900040e+01 -4.917185e+01 -4.901641e+01 -4.911000e+01 -4.901785e+01 -4.903324e+01 -4.900421e+01 -4.894284e+01 -4.897557e+01 -4.883999e+01 -4.893242e+01 -4.872596e+01 -4.887545e+01 -4.860219e+01 -4.880552e+01 -4.847028e+01 -4.872367e+01 -4.833204e+01 -4.863107e+01 
-4.903860e+01 -4.862787e+01 -4.913069e+01 -4.874245e+01 -4.922609e+01 -4.885760e+01 -4.932350e+01 -4.897166e+01 -4.942158e+01 -4.908298e+01 -4.951896e+01 -4.918989e+01 -4.961427e+01 -4.929082e+01 -4.970617e+01 -4.938429e+01 -4.979340e+01 -4.946901e+01 -4.987480e+01 -4.954389e+01 -4.994932e+01 -4.960807e+01 -5.001605e+01 -4.966093e+01 -5.007422e+01 -4.970213e+01 -5.012322e+01 -4.973154e+01 -5.016257e+01 -4.974927e+01 -5.019193e+01 -4.975565e+01 -5.021110e+01 -4.975114e+01 -5.021996e+01 -4.973634e+01 -5.021850e+01 -4.971194e+01 -5.020676e+01 -4.967864e+01 -5.018484e+01 -4.963715e+01 -5.015287e+01 -4.958810e+01 -5.011102e+01 -4.953207e+01 -5.005948e+01 -4.946947e+01 -4.999849e+01 -4.940059e+01 -4.992838e+01 -4.932564e+01 -4.984962e+01 -4.924474e+01 -4.976293e+01 -4.915812e+01 -4.966942e+01 -4.906627e+01 -4.957062e+01 -4.897006e+01 -4.946851e+01 -4.887079e+01 -4.936526e+01 -4.876995e+01 -4.926280e+01 -4.866873e+01 -4.916233e+01 -4.856757e+01 -4.906409e+01 -4.846605e+01 -4.896783e+01 -4.836340e+01 -4.887368e+01 -4.825946e+01 -4.878332e+01 -4.815554e+01 -4.870033e+01 -4.805456e+01 -4.862929e+01 -4.796017e+01 -4.857351e+01 -4.787560e+01 -4.853256e+01 -4.780286e+01 -4.850177e+01 -4.774271e+01 -4.847602e+01 -4.769395e+01 -4.845684e+01 -4.765164e+01 -4.845245e+01 -4.761268e+01 -4.846086e+01 -4.759622e+01 -4.846660e+01 -4.758303e+01 -4.846453e+01 -4.759038e+01 -4.844699e+01 -4.760618e+01 -4.842791e+01 -4.764175e+01 -4.842825e+01 -4.769217e+01 -4.847754e+01 -4.771157e+01 -4.849269e+01 -4.773399e+01 -4.850112e+01 -4.777087e+01 -4.851545e+01 -4.782078e+01 -4.853888e+01 -4.788102e+01 -4.857186e+01 -4.795005e+01 -4.861421e+01 -4.802713e+01 -4.866560e+01 -4.811183e+01 -4.872558e+01 -4.820371e+01 -4.879362e+01 -4.830217e+01 -4.886904e+01 -4.840641e+01 -4.895102e+01 -4.851539e+01 
-4.819672e+01 -4.855559e+01 -4.804438e+01 -4.844003e+01 -4.789190e+01 -4.831782e+01 -4.774175e+01 -4.819088e+01 -4.759641e+01 -4.806122e+01 -4.745832e+01 -4.793096e+01 -4.732977e+01 -4.780223e+01 -4.721285e+01 -4.767717e+01 -4.710940e+01 -4.755781e+01 -4.702092e+01 -4.744604e+01 -4.694858e+01 -4.734359e+01 -4.689314e+01 -4.725193e+01 -4.685499e+01 -4.717230e+01 -4.683415e+01 -4.710562e+01 -4.683023e+01 -4.705251e+01 -4.684249e+01 -4.701325e+01 -4.686985e+01 -4.698778e+01 -4.691088e+01 -4.697569e+01 -4.696386e+01 -4.697620e+01 -4.702678e+01 -4.698819e+01 -4.709738e+01 -4.701017e+01 -4.717319e+01 -4.704035e+01 -4.725160e+01 -4.707666e+01 -4.732991e+01 -4.711686e+01 -4.740550e+01 -4.715859e+01 -4.747589e+01 -4.719958e+01 -4.753896e+01 -4.723771e+01 -4.759304e+01 -4.727128e+01 -4.763713e+01 -4.729909e+01 -4.767100e+01 -4.732067e+01 -4.769541e+01 -4.733647e+01 -4.771225e+01 -4.734819e+01 -4.772493e+01 -4.735920e+01 -4.773853e+01 -4.737471e+01 -4.775971e+01 -4.740143e+01 -4.779601e+01 -4.744645e+01 -4.785440e+01 -4.751541e+01 -4.793953e+01 -4.761089e+01 -4.805241e+01 -4.773123e+01 -4.818980e+01 -4.787006e+01 -4.834466e+01 -4.801605e+01 -4.850782e+01 -4.815317e+01 -4.867066e+01 -4.826401e+01 -4.882705e+01 -4.833967e+01 -4.896820e+01 -4.838972e+01 -4.906900e+01 -4.842176e+01 -4.910125e+01 -4.843114e+01 -4.910665e+01 -4.848298e+01 -4.911182e+01 -4.855373e+01 -4.916182e+01 -4.867025e+01 -4.920862e+01 -4.880711e+01 -4.924508e+01 -4.893518e+01 -4.931274e+01 -4.898089e+01 -4.931305e+01 -4.901799e+01 -4.928082e+01 -4.904854e+01 -4.922943e+01 -4.906654e+01 -4.916249e+01 -4.906887e+01 -4.908115e+01 -4.905482e+01 -4.898619e+01 -4.902474e+01 -4.887852e+01 -4.897933e+01 -4.875925e+01 -4.891943e+01 -4.862972e+01 -4.884598e+01 -4.849153e+01 -4.876003e+01 -4.834651e+01 -4.866278e+01 
-4.902216e+01 -4.862098e+01 -4.911869e+01 -4.874122e+01 -4.921886e+01 -4.886232e+01 -4.932128e+01 -4.898247e+01 -4.942447e+01 -4.909982e+01 -4.952695e+01 -4.921251e+01 -4.962724e+01 -4.931880e+01 -4.972388e+01 -4.941705e+01 -4.981552e+01 -4.950584e+01 -4.990092e+01 -4.958398e+01 -4.997897e+01 -4.965055e+01 -5.004871e+01 -4.970492e+01 -5.010937e+01 -4.974676e+01 -5.016032e+01 -4.977600e+01 -5.020112e+01 -4.979287e+01 -5.023148e+01 -4.979777e+01 -5.025123e+01 -4.979135e+01 -5.026033e+01 -4.977434e+01 -5.025882e+01 -4.974758e+01 -5.024681e+01 -4.971194e+01 -5.022441e+01 -4.966827e+01 -5.019178e+01 -4.961730e+01 -5.014906e+01 -4.955964e+01 -5.009633e+01 -4.949571e+01 -5.003372e+01 -4.942568e+01 -4.996131e+01 -4.934951e+01 -4.987936e+01 -4.926702e+01 -4.978835e+01 -4.917810e+01 -4.968934e+01 -4.908305e+01 -4.958409e+01 -4.898286e+01 -4.947526e+01 -4.887943e+01 -4.936597e+01 -4.877519e+01 -4.925909e+01 -4.867214e+01 -4.915601e+01 -4.857071e+01 -4.905604e+01 -4.846925e+01 -4.895700e+01 -4.836505e+01 -4.885712e+01 -4.825632e+01 -4.875764e+01 -4.814419e+01 -4.866419e+01 -4.803315e+01 -4.858560e+01 -4.792940e+01 -4.852941e+01 -4.783806e+01 -4.849561e+01 -4.776194e+01 -4.847314e+01 -4.770275e+01 -4.844676e+01 -4.766030e+01 -4.841913e+01 -4.762033e+01 -4.842210e+01 -4.755611e+01 -4.845671e+01 -4.756208e+01 -4.847440e+01 -4.752791e+01 -4.848122e+01 -4.755096e+01 -4.843929e+01 -4.755665e+01 -4.838503e+01 -4.760636e+01 -4.834997e+01 -4.771968e+01 -4.851003e+01 -4.769594e+01 -4.849546e+01 -4.769774e+01 -4.848351e+01 -4.773277e+01 -4.848888e+01 -4.778535e+01 -4.850861e+01 -4.784824e+01 -4.854024e+01 -4.791933e+01 -4.858253e+01 -4.799830e+01 -4.863476e+01 -4.808514e+01 -4.869635e+01 -4.817967e+01 -4.876670e+01 -4.828144e+01 -4.884506e+01 -4.838966e+01 -4.893056e+01 -4.850328e+01 
-4.820656e+01 -4.859052e+01 -4.804435e+01 -4.846756e+01 -4.788176e+01 -4.833739e+01 -4.772153e+01 -4.820204e+01 -4.756640e+01 -4.806372e+01 -4.741908e+01 -4.792473e+01 -4.728213e+01 -4.778742e+01 -4.715788e+01 -4.765412e+01 -4.704834e+01 -4.752708e+01 -4.695517e+01 -4.740839e+01 -4.687964e+01 -4.729994e+01 -4.682257e+01 -4.720336e+01 -4.678437e+01 -4.711999e+01 -4.676503e+01 -4.705086e+01 -4.676412e+01 -4.699666e+01 -4.678083e+01 -4.695772e+01 -4.681398e+01 -4.693400e+01 -4.686205e+01 -4.692509e+01 -4.692318e+01 -4.693018e+01 -4.699517e+01 -4.694802e+01 -4.707556e+01 -4.697699e+01 -4.716157e+01 -4.701504e+01 -4.725023e+01 -4.705976e+01 -4.733837e+01 -4.710845e+01 -4.742284e+01 -4.715821e+01 -4.750057e+01 -4.720615e+01 -4.756882e+01 -4.724955e+01 -4.762538e+01 -4.728607e+01 -4.766874e+01 -4.731398e+01 -4.769823e+01 -4.733223e+01 -4.771423e+01 -4.734077e+01 -4.771842e+01 -4.734096e+01 -4.771432e+01 -4.733641e+01 -4.770805e+01 -4.733394e+01 -4.770865e+01 -4.734346e+01 -4.772728e+01 -4.737619e+01 -4.777489e+01 -4.744176e+01 -4.785923e+01 -4.754520e+01 -4.798245e+01 -4.768555e+01 -4.814016e+01 -4.785556e+01 -4.832190e+01 -4.804065e+01 -4.851346e+01 -4.821585e+01 -4.870308e+01 -4.834604e+01 -4.889049e+01 -4.840796e+01 -4.908009e+01 -4.843834e+01 -4.921994e+01 -4.845724e+01 -4.918732e+01 -4.836670e+01 -4.913671e+01 -4.843535e+01 -4.907229e+01 -4.847602e+01 -4.918167e+01 -4.864138e+01 -4.924488e+01 -4.884332e+01 -4.924431e+01 -4.908227e+01 -4.945017e+01 -4.904144e+01 -4.941626e+01 -4.907154e+01 -4.936380e+01 -4.910929e+01 -4.930264e+01 -4.913241e+01 -4.922949e+01 -4.913638e+01 -4.914280e+01 -4.912160e+01 -4.904238e+01 -4.908935e+01 -4.892876e+01 -4.904083e+01 -4.880288e+01 -4.897705e+01 -4.866599e+01 -4.889901e+01 -4.851968e+01 -4.880775e+01 -4.836581e+01 -4.870446e+01 
-4.900084e+01 -4.861158e+01 -4.910310e+01 -4.873918e+01 -4.920944e+01 -4.886804e+01 -4.931831e+01 -4.899613e+01 -4.942811e+01 -4.912134e+01 -4.953718e+01 -4.924158e+01 -4.964389e+01 -4.935485e+01 -4.974664e+01 -4.945932e+01 -4.984395e+01 -4.955337e+01 -4.993447e+01 -4.963570e+01 -5.001700e+01 -4.970530e+01 -5.009054e+01 -4.976152e+01 -5.015429e+01 -4.980405e+01 -5.020765e+01 -4.983293e+01 -5.025019e+01 -4.984849e+01 -5.028170e+01 -4.985132e+01 -5.030209e+01 -4.984222e+01 -5.031140e+01 -4.982217e+01 -5.030976e+01 -4.979222e+01 -5.029736e+01 -4.975345e+01 -5.027440e+01 -4.970689e+01 -5.024104e+01 -4.965346e+01 -5.019741e+01 -4.959387e+01 -5.014351e+01 -4.952853e+01 -5.007924e+01 -4.945747e+01 -5.000440e+01 -4.938033e+01 -4.991879e+01 -4.929639e+01 -4.982245e+01 -4.920488e+01 -4.971612e+01 -4.910557e+01 -4.960176e+01 -4.899948e+01 -4.948303e+01 -4.888948e+01 -4.936492e+01 -4.877992e+01 -4.925232e+01 -4.867478e+01 -4.914751e+01 -4.857492e+01 -4.904825e+01 -4.847649e+01 -4.894841e+01 -4.837274e+01 -4.884180e+01 -4.825827e+01 -4.872766e+01 -4.813345e+01 -4.861480e+01 -4.800595e+01 -4.852081e+01 -4.788726e+01 -4.846372e+01 -4.778587e+01 -4.844768e+01 -4.770434e+01 -4.844862e+01 -4.764625e+01 -4.841903e+01 -4.762455e+01 -4.835133e+01 -4.761394e+01 -4.836098e+01 -4.743014e+01 -4.847020e+01 -4.756872e+01 -4.849360e+01 -4.741592e+01 -4.854683e+01 -4.752894e+01 -4.844388e+01 -4.746294e+01 -4.832263e+01 -4.750697e+01 -4.807556e+01 -4.788315e+01 -4.871694e+01 -4.765483e+01 -4.849556e+01 -4.762822e+01 -4.844855e+01 -4.767713e+01 -4.844798e+01 -4.773970e+01 -4.846654e+01 -4.780735e+01 -4.849809e+01 -4.788085e+01 -4.854101e+01 -4.796172e+01 -4.859466e+01 -4.805086e+01 -4.865848e+01 -4.814850e+01 -4.873186e+01 -4.825433e+01 -4.881403e+01 -4.836759e+01 -4.890406e+01 -4.848715e+01 
-4.821943e+01 -4.863454e+01 -4.804472e+01 -4.850233e+01 -4.786930e+01 -4.836215e+01 -4.769622e+01 -4.821621e+01 -4.752861e+01 -4.806693e+01 -4.736952e+01 -4.791685e+01 -4.722185e+01 -4.776863e+01 -4.708824e+01 -4.762486e+01 -4.697096e+01 -4.748806e+01 -4.687185e+01 -4.736058e+01 -4.679230e+01 -4.724450e+01 -4.673321e+01 -4.714166e+01 -4.669498e+01 -4.705353e+01 -4.667757e+01 -4.698126e+01 -4.668048e+01 -4.692564e+01 -4.670282e+01 -4.688706e+01 -4.674330e+01 -4.686552e+01 -4.680028e+01 -4.686063e+01 -4.687175e+01 -4.687153e+01 -4.695534e+01 -4.689692e+01 -4.704832e+01 -4.693498e+01 -4.714759e+01 -4.698339e+01 -4.724973e+01 -4.703932e+01 -4.735100e+01 -4.709950e+01 -4.744751e+01 -4.716030e+01 -4.753542e+01 -4.721802e+01 -4.761116e+01 -4.726906e+01 -4.767175e+01 -4.731032e+01 -4.771502e+01 -4.733930e+01 -4.773974e+01 -4.735428e+01 -4.774564e+01 -4.735422e+01 -4.773366e+01 -4.733931e+01 -4.770681e+01 -4.731256e+01 -4.767182e+01 -4.728243e+01 -4.764092e+01 -4.726375e+01 -4.763119e+01 -4.727486e+01 -4.766051e+01 -4.733214e+01 -4.774201e+01 -4.744451e+01 -4.787983e+01 -4.761185e+01 -4.806786e+01 -4.782699e+01 -4.829000e+01 -4.807553e+01 -4.852124e+01 -4.832361e+01 -4.873786e+01 -4.849661e+01 -4.895220e+01 -4.850836e+01 -4.924250e+01 -4.849946e+01 -4.954463e+01 -4.860341e+01 -4.929233e+01 -4.814649e+01 -4.925674e+01 -4.805315e+01 -4.790047e+01 -4.736399e+01 -4.775711e+01 -4.708882e+01 -4.789387e+01 -4.747510e+01 -4.800313e+01 -4.872885e+01 -4.978158e+01 -4.903155e+01 -4.953810e+01 -4.911747e+01 -4.945548e+01 -4.918471e+01 -4.938788e+01 -4.921753e+01 -4.931016e+01 -4.922274e+01 -4.921828e+01 -4.920597e+01 -4.911188e+01 -4.917036e+01 -4.899139e+01 -4.911768e+01 -4.885762e+01 -4.904903e+01 -4.871178e+01 -4.896534e+01 -4.855544e+01 -4.886756e+01 -4.839055e+01 -4.875683e+01 
-4.897410e+01 -4.859909e+01 -4.908351e+01 -4.873593e+01 -4.919754e+01 -4.887458e+01 -4.931448e+01 -4.901272e+01 -4.943253e+01 -4.914789e+01 -4.954983e+01 -4.927768e+01 -4.966455e+01 -4.939978e+01 -4.977491e+01 -4.951207e+01 -4.987925e+01 -4.961271e+01 -4.997607e+01 -4.970022e+01 -5.006409e+01 -4.977351e+01 -5.014225e+01 -4.983189e+01 -5.020971e+01 -4.987511e+01 -5.026588e+01 -4.990329e+01 -5.031042e+01 -4.991696e+01 -5.034317e+01 -4.991690e+01 -5.036416e+01 -4.990419e+01 -5.037356e+01 -4.988007e+01 -5.037164e+01 -4.984587e+01 -5.035870e+01 -4.980298e+01 -5.033506e+01 -4.975271e+01 -5.030096e+01 -4.969621e+01 -5.025652e+01 -4.963439e+01 -5.020168e+01 -4.956774e+01 -5.013611e+01 -4.949618e+01 -5.005916e+01 -4.941890e+01 -4.996993e+01 -4.933432e+01 -4.986756e+01 -4.924046e+01 -4.975190e+01 -4.913581e+01 -4.962474e+01 -4.902091e+01 -4.949106e+01 -4.889998e+01 -4.935926e+01 -4.878117e+01 -4.923878e+01 -4.867327e+01 -4.913470e+01 -4.857903e+01 -4.904252e+01 -4.849067e+01 -4.894832e+01 -4.839302e+01 -4.883597e+01 -4.827262e+01 -4.869851e+01 -4.812752e+01 -4.854867e+01 -4.797191e+01 -4.842086e+01 -4.782926e+01 -4.835811e+01 -4.771462e+01 -4.838331e+01 -4.762380e+01 -4.845518e+01 -4.755415e+01 -4.843022e+01 -4.757867e+01 -4.820725e+01 -4.778215e+01 -4.820253e+01 -4.699555e+01 -4.924343e+01 -4.611344e+01 -4.446152e+01 -4.381113e+01 -4.310778e+01 -4.251638e+01 -4.387112e+01 -4.311244e+01 -4.493801e+01 -4.439161e+01 -4.601117e+01 -4.621780e+01 -4.813717e+01 -4.721096e+01 -4.832217e+01 -4.748354e+01 -4.836727e+01 -4.760792e+01 -4.838804e+01 -4.768907e+01 -4.841160e+01 -4.776076e+01 -4.844468e+01 -4.783514e+01 -4.848891e+01 -4.791699e+01 -4.854450e+01 -4.800819e+01 -4.861115e+01 -4.810924e+01 -4.868831e+01 -4.821988e+01 -4.877522e+01 -4.833930e+01 -4.887087e+01 -4.846623e+01 
-4.823596e+01 -4.868852e+01 -4.804586e+01 -4.854512e+01 -4.785455e+01 -4.839273e+01 -4.766551e+01 -4.823378e+01 -4.748234e+01 -4.807096e+01 -4.730858e+01 -4.790719e+01 -4.714757e+01 -4.774543e+01 -4.700233e+01 -4.758869e+01 -4.687547e+01 -4.743980e+01 -4.676905e+01 -4.730143e+01 -4.668461e+01 -4.717593e+01 -4.662308e+01 -4.706534e+01 -4.658488e+01 -4.697132e+01 -4.656990e+01 -4.689515e+01 -4.657754e+01 -4.683772e+01 -4.660681e+01 -4.679950e+01 -4.665629e+01 -4.678057e+01 -4.672420e+01 -4.678056e+01 -4.680841e+01 -4.679863e+01 -4.690637e+01 -4.683343e+01 -4.701511e+01 -4.688299e+01 -4.713119e+01 -4.694471e+01 -4.725066e+01 -4.701528e+01 -4.736910e+01 -4.709072e+01 -4.748169e+01 -4.716647e+01 -4.758351e+01 -4.723768e+01 -4.766985e+01 -4.729960e+01 -4.773670e+01 -4.734807e+01 -4.778111e+01 -4.737985e+01 -4.780123e+01 -4.739248e+01 -4.779601e+01 -4.738359e+01 -4.776488e+01 -4.735060e+01 -4.770858e+01 -4.729331e+01 -4.763283e+01 -4.722093e+01 -4.755359e+01 -4.715595e+01 -4.749790e+01 -4.712938e+01 -4.749613e+01 -4.716974e+01 -4.757085e+01 -4.729126e+01 -4.772934e+01 -4.749245e+01 -4.796322e+01 -4.776630e+01 -4.824983e+01 -4.811121e+01 -4.854388e+01 -4.850677e+01 -4.877574e+01 -4.880977e+01 -4.893968e+01 -4.863095e+01 -4.939474e+01 -4.845131e+01 -5.073418e+01 -4.600689e+01 -4.285967e+01 -4.229852e+01 -4.072918e+01 -4.093530e+01 -4.244682e+01 -4.211008e+01 -4.420726e+01 -4.381375e+01 -4.581122e+01 -4.562262e+01 -4.722946e+01 -4.752020e+01 -4.913540e+01 -4.883427e+01 -4.950094e+01 -4.918288e+01 -4.953250e+01 -4.929473e+01 -4.948336e+01 -4.933040e+01 -4.940512e+01 -4.933123e+01 -4.930844e+01 -4.930929e+01 -4.919561e+01 -4.926857e+01 -4.906739e+01 -4.921060e+01 -4.892454e+01 -4.913615e+01 -4.876816e+01 -4.904584e+01 -4.859983e+01 -4.894040e+01 -4.842159e+01 -4.882085e+01 
-4.894127e+01 -4.858269e+01 -4.905938e+01 -4.873094e+01 -4.918281e+01 -4.888174e+01 -4.930962e+01 -4.903234e+01 -4.943778e+01 -4.917990e+01 -4.956516e+01 -4.932156e+01 -4.968967e+01 -4.945460e+01 -4.980929e+01 -4.957655e+01 -4.992215e+01 -4.968528e+01 -5.002658e+01 -4.977908e+01 -5.012117e+01 -4.985674e+01 -5.020477e+01 -4.991755e+01 -5.027654e+01 -4.996132e+01 -5.033590e+01 -4.998833e+01 -5.038259e+01 -4.999930e+01 -5.041657e+01 -4.999532e+01 -5.043801e+01 -4.997779e+01 -5.044727e+01 -4.994828e+01 -5.044480e+01 -4.990854e+01 -5.043109e+01 -4.986030e+01 -5.040663e+01 -4.980525e+01 -5.037179e+01 -4.974494e+01 -5.032678e+01 -4.968058e+01 -5.027153e+01 -4.961292e+01 -5.020551e+01 -4.954188e+01 -5.012755e+01 -4.946618e+01 -5.003573e+01 -4.938305e+01 -4.992749e+01 -4.928834e+01 -4.980067e+01 -4.917771e+01 -4.965559e+01 -4.904961e+01 -4.949840e+01 -4.890949e+01 -4.934340e+01 -4.877265e+01 -4.921005e+01 -4.865939e+01 -4.911134e+01 -4.857871e+01 -4.904038e+01 -4.851583e+01 -4.896822e+01 -4.843800e+01 -4.885734e+01 -4.831393e+01 -4.868415e+01 -4.813462e+01 -4.846304e+01 -4.792735e+01 -4.825804e+01 -4.774504e+01 -4.816589e+01 -4.762054e+01 -4.827317e+01 -4.752346e+01 -4.856065e+01 -4.737125e+01 -4.864265e+01 -4.735720e+01 -4.787762e+01 -4.622357e+01 -4.430598e+01 -4.233976e+01 -3.762133e+01 -3.761762e+01 -3.958996e+01 -3.834478e+01 -4.178247e+01 -4.082277e+01 -4.389470e+01 -4.296179e+01 -4.529341e+01 -4.472253e+01 -4.624949e+01 -4.652642e+01 -4.823236e+01 -4.728712e+01 -4.829142e+01 -4.748835e+01 -4.831093e+01 -4.758225e+01 -4.832552e+01 -4.764808e+01 -4.834730e+01 -4.771161e+01 -4.838027e+01 -4.778208e+01 -4.842558e+01 -4.786304e+01 -4.848339e+01 -4.795578e+01 -4.855343e+01 -4.806051e+01 -4.863514e+01 -4.817677e+01 -4.872775e+01 -4.830357e+01 -4.883022e+01 -4.843949e+01 