# vtk DataFile Version 2.0
Comment goes here
ASCII

DATASET STRUCTURED_POINTS
DIMENSIONS    128   128   1

ORIGIN    0.000   0.000   0.000
SPACING   0.0156250.015625   1.000

POINT_DATA   16384
SCALARS P double
LOOKUP_TABLE default

-2.394983e+01 -2.409238e+01 -2.388220e+01 -2.403541e+01 -2.381432e+01 -2.397566e+01 -2.374723e+01 -2.391405e+01 -2.368197e+01 -2.385152e+01 -2.361952e+01 -2.378902e+01 -2.356083e+01 -2.372752e+01 -2.350676e+01 -2.366795e+01 -2.345806e+01 -2.361117e+01 -2.341537e+01 -2.355801e+01 -2.337920e+01 -2.350917e+01 -2.334989e+01 -2.346526e+01 -2.332766e+01 -2.342675e+01 -2.331255e+01 -2.339399e+01 -2.330445e+01 -2.336717e+01 -2.330310e+01 -2.334631e+01 -2.330809e+01 -2.333131e+01 -2.331887e+01 -2.332187e+01 -2.333476e+01 -2.331757e+01 -2.335498e+01 -2.331783e+01 -2.337865e+01 -2.332196e+01 -2.340484e+01 -2.332918e+01 -2.343259e+01 -2.333865e+01 -2.346095e+01 -2.334950e+01 -2.348902e+01 -2.336095e+01 -2.351603e+01 -2.337228e+01 -2.354134e+01 -2.338298e+01 -2.356454e+01 -2.339276e+01 -2.358549e+01 -2.340165e+01 -2.360432e+01 -2.341000e+01 -2.362151e+01 -2.341855e+01 -2.363788e+01 -2.342838e+01 -2.365457e+01 -2.344085e+01 -2.367298e+01 -2.345749e+01 -2.369466e+01 -2.347980e+01 -2.372113e+01 -2.350903e+01 -2.375367e+01 -2.354592e+01 -2.379307e+01 -2.359051e+01 -2.383946e+01 -2.364200e+01 -2.389221e+01 -2.369882e+01 -2.394991e+01 -2.375876e+01 -2.401053e+01 -2.381934e+01 -2.407160e+01 -2.387829e+01 -2.413049e+01 -2.393399e+01 -2.418474e+01 -2.398578e+01 -2.423254e+01 -2.403404e+01 -2.427315e+01 -2.408000e+01 -2.430713e+01 -2.412520e+01 -2.433582e+01 -2.417051e+01 -2.436048e+01 -2.421530e+01 -2.438141e+01 -2.425747e+01 -2.439791e+01 -2.429428e+01 -2.440853e+01 -2.432358e+01 -2.441137e+01 -2.434474e+01 -2.440534e+01 -2.435783e+01 -2.439024e+01 -2.436303e+01 -2.436644e+01 -2.436049e+01 -2.433457e+01 -2.435032e+01 -2.429534e+01 -2.433270e+01 -2.424949e+01 -2.430791e+01 -2.419781e+01 -2.427631e+01 -2.414112e+01 -2.423836e+01 -2.408027e+01 -2.419461e+01 -2.401619e+01 -2.414571e+01 
-2.440258e+01 -2.417391e+01 -2.444543e+01 -2.422171e+01 -2.448939e+01 -2.426970e+01 -2.453391e+01 -2.431726e+01 -2.457843e+01 -2.436379e+01 -2.462237e+01 -2.440868e+01 -2.466515e+01 -2.445133e+01 -2.470621e+01 -2.449119e+01 -2.474502e+01 -2.452778e+01 -2.478111e+01 -2.456066e+01 -2.481403e+01 -2.458947e+01 -2.484341e+01 -2.461393e+01 -2.486893e+01 -2.463384e+01 -2.489034e+01 -2.464907e+01 -2.490742e+01 -2.465956e+01 -2.492005e+01 -2.466531e+01 -2.492810e+01 -2.466634e+01 -2.493152e+01 -2.466273e+01 -2.493027e+01 -2.465456e+01 -2.492433e+01 -2.464191e+01 -2.491370e+01 -2.462483e+01 -2.489841e+01 -2.460340e+01 -2.487849e+01 -2.457767e+01 -2.485400e+01 -2.454768e+01 -2.482507e+01 -2.451353e+01 -2.479188e+01 -2.447538e+01 -2.475471e+01 -2.443348e+01 -2.471394e+01 -2.438822e+01 -2.467009e+01 -2.434016e+01 -2.462378e+01 -2.429001e+01 -2.457572e+01 -2.423858e+01 -2.452665e+01 -2.418673e+01 -2.447728e+01 -2.413529e+01 -2.442826e+01 -2.408496e+01 -2.438019e+01 -2.403633e+01 -2.433364e+01 -2.398987e+01 -2.428923e+01 -2.394601e+01 -2.424766e+01 -2.390518e+01 -2.420967e+01 -2.386777e+01 -2.417592e+01 -2.383409e+01 -2.414682e+01 -2.380427e+01 -2.412243e+01 -2.377824e+01 -2.410250e+01 -2.375580e+01 -2.408667e+01 -2.373683e+01 -2.407467e+01 -2.372152e+01 -2.406622e+01 -2.371053e+01 -2.406086e+01 -2.370476e+01 -2.405796e+01 -2.370467e+01 -2.405710e+01 -2.371012e+01 -2.405840e+01 -2.372034e+01 -2.406268e+01 -2.373419e+01 -2.407077e+01 -2.375019e+01 -2.408241e+01 -2.376715e+01 -2.409609e+01 -2.378541e+01 -2.411117e+01 -2.380591e+01 -2.412791e+01 -2.382935e+01 -2.414683e+01 -2.385609e+01 -2.416843e+01 -2.388619e+01 -2.419303e+01 -2.391955e+01 -2.422076e+01 -2.395599e+01 -2.425164e+01 -2.399527e+01 -2.428553e+01 -2.403709e+01 -2.432221e+01 -2.408109e+01 -2.436136e+01 -2.412686e+01 
-2.395048e+01 -2.409419e+01 -2.388233e+01 -2.403679e+01 -2.381392e+01 -2.397659e+01 -2.374632e+01 -2.391450e+01 -2.368056e+01 -2.385149e+01 -2.361765e+01 -2.378852e+01 -2.355853e+01 -2.372655e+01 -2.350408e+01 -2.366654e+01 -2.345507e+01 -2.360936e+01 -2.341213e+01 -2.355584e+01 -2.337577e+01 -2.350670e+01 -2.334636e+01 -2.346255e+01 -2.332411e+01 -2.342387e+01 -2.330905e+01 -2.339102e+01 -2.330108e+01 -2.336418e+01 -2.329994e+01 -2.334339e+01 -2.330520e+01 -2.332853e+01 -2.331632e+01 -2.331931e+01 -2.333260e+01 -2.331529e+01 -2.335325e+01 -2.331590e+01 -2.337739e+01 -2.332043e+01 -2.340406e+01 -2.332807e+01 -2.343229e+01 -2.333796e+01 -2.346109e+01 -2.334923e+01 -2.348956e+01 -2.336102e+01 -2.351687e+01 -2.337262e+01 -2.354239e+01 -2.338346e+01 -2.356567e+01 -2.339323e+01 -2.358654e+01 -2.340192e+01 -2.360513e+01 -2.340991e+01 -2.362191e+01 -2.341792e+01 -2.363771e+01 -2.342706e+01 -2.365369e+01 -2.343877e+01 -2.367133e+01 -2.345466e+01 -2.369227e+01 -2.347636e+01 -2.371811e+01 -2.350523e+01 -2.375026e+01 -2.354211e+01 -2.378960e+01 -2.358708e+01 -2.383631e+01 -2.363936e+01 -2.388974e+01 -2.369727e+01 -2.394846e+01 -2.375844e+01 -2.401031e+01 -2.382016e+01 -2.407269e+01 -2.387992e+01 -2.413280e+01 -2.393594e+01 -2.418797e+01 -2.398755e+01 -2.423614e+01 -2.403520e+01 -2.427647e+01 -2.408038e+01 -2.430978e+01 -2.412515e+01 -2.433784e+01 -2.417077e+01 -2.436236e+01 -2.421662e+01 -2.438362e+01 -2.426016e+01 -2.440086e+01 -2.429804e+01 -2.441243e+01 -2.432768e+01 -2.441583e+01 -2.434880e+01 -2.440989e+01 -2.436179e+01 -2.439460e+01 -2.436692e+01 -2.437050e+01 -2.436431e+01 -2.433827e+01 -2.435405e+01 -2.429866e+01 -2.433630e+01 -2.425242e+01 -2.431132e+01 -2.420033e+01 -2.427949e+01 -2.414320e+01 -2.424125e+01 -2.408190e+01 -2.419718e+01 -2.401734e+01 -2.414792e+01 
-2.440097e+01 -2.417315e+01 -2.444433e+01 -2.422153e+01 -2.448883e+01 -2.427012e+01 -2.453393e+01 -2.431829e+01 -2.457903e+01 -2.436543e+01 -2.462354e+01 -2.441090e+01 -2.466688e+01 -2.445410e+01 -2.470846e+01 -2.449447e+01 -2.474776e+01 -2.453149e+01 -2.478428e+01 -2.456473e+01 -2.481758e+01 -2.459382e+01 -2.484728e+01 -2.461848e+01 -2.487306e+01 -2.463852e+01 -2.489466e+01 -2.465381e+01 -2.491190e+01 -2.466430e+01 -2.492462e+01 -2.467001e+01 -2.493274e+01 -2.467098e+01 -2.493619e+01 -2.466730e+01 -2.493495e+01 -2.465905e+01 -2.492901e+01 -2.464632e+01 -2.491837e+01 -2.462920e+01 -2.490304e+01 -2.460772e+01 -2.488305e+01 -2.458193e+01 -2.485845e+01 -2.455186e+01 -2.482934e+01 -2.451756e+01 -2.479588e+01 -2.447916e+01 -2.475831e+01 -2.443686e+01 -2.471703e+01 -2.439105e+01 -2.467255e+01 -2.434228e+01 -2.462553e+01 -2.429130e+01 -2.457673e+01 -2.423901e+01 -2.452694e+01 -2.418635e+01 -2.447693e+01 -2.413420e+01 -2.442734e+01 -2.408331e+01 -2.437872e+01 -2.403422e+01 -2.433157e+01 -2.398735e+01 -2.428647e+01 -2.394308e+01 -2.424416e+01 -2.390185e+01 -2.420550e+01 -2.386413e+01 -2.417133e+01 -2.383029e+01 -2.414215e+01 -2.380052e+01 -2.411798e+01 -2.377466e+01 -2.409839e+01 -2.375233e+01 -2.408285e+01 -2.373317e+01 -2.407111e+01 -2.371720e+01 -2.406312e+01 -2.370531e+01 -2.405840e+01 -2.369907e+01 -2.405591e+01 -2.369913e+01 -2.405494e+01 -2.370534e+01 -2.405542e+01 -2.371672e+01 -2.405888e+01 -2.373206e+01 -2.406720e+01 -2.374924e+01 -2.408040e+01 -2.376587e+01 -2.409471e+01 -2.378321e+01 -2.410955e+01 -2.380298e+01 -2.412574e+01 -2.382608e+01 -2.414418e+01 -2.385275e+01 -2.416546e+01 -2.388294e+01 -2.418991e+01 -2.391648e+01 -2.421764e+01 -2.395316e+01 -2.424864e+01 -2.399273e+01 -2.428276e+01 -2.403491e+01 -2.431975e+01 -2.407933e+01 -2.435929e+01 -2.412557e+01 
-2.395241e+01 -2.409967e+01 -2.388271e+01 -2.404097e+01 -2.381273e+01 -2.397940e+01 -2.374358e+01 -2.391588e+01 -2.367631e+01 -2.385142e+01 -2.361198e+01 -2.378700e+01 -2.355157e+01 -2.372363e+01 -2.349597e+01 -2.366229e+01 -2.344599e+01 -2.360389e+01 -2.340229e+01 -2.354929e+01 -2.336540e+01 -2.349924e+01 -2.333568e+01 -2.345436e+01 -2.331336e+01 -2.341518e+01 -2.329846e+01 -2.338204e+01 -2.329090e+01 -2.335514e+01 -2.329037e+01 -2.333454e+01 -2.329646e+01 -2.332010e+01 -2.330860e+01 -2.331153e+01 -2.332607e+01 -2.330839e+01 -2.334804e+01 -2.331005e+01 -2.337360e+01 -2.331578e+01 -2.340174e+01 -2.332471e+01 -2.343141e+01 -2.333592e+01 -2.346159e+01 -2.334843e+01 -2.349126e+01 -2.336131e+01 -2.351954e+01 -2.337373e+01 -2.354570e+01 -2.338501e+01 -2.356923e+01 -2.339477e+01 -2.358988e+01 -2.340293e+01 -2.360775e+01 -2.340980e+01 -2.362329e+01 -2.341615e+01 -2.363735e+01 -2.342318e+01 -2.365118e+01 -2.343252e+01 -2.366644e+01 -2.344607e+01 -2.368501e+01 -2.346581e+01 -2.370887e+01 -2.349350e+01 -2.373977e+01 -2.353029e+01 -2.377886e+01 -2.357646e+01 -2.382651e+01 -2.363118e+01 -2.388207e+01 -2.369253e+01 -2.394391e+01 -2.375760e+01 -2.400957e+01 -2.382295e+01 -2.407604e+01 -2.388528e+01 -2.414004e+01 -2.394231e+01 -2.419821e+01 -2.399329e+01 -2.424757e+01 -2.403884e+01 -2.428681e+01 -2.408115e+01 -2.431769e+01 -2.412427e+01 -2.434340e+01 -2.417081e+01 -2.436748e+01 -2.422024e+01 -2.438985e+01 -2.426852e+01 -2.440948e+01 -2.431007e+01 -2.442454e+01 -2.434031e+01 -2.442965e+01 -2.436101e+01 -2.442382e+01 -2.437364e+01 -2.440782e+01 -2.437858e+01 -2.438270e+01 -2.437580e+01 -2.434937e+01 -2.436528e+01 -2.430862e+01 -2.434713e+01 -2.426121e+01 -2.432160e+01 -2.420789e+01 -2.428907e+01 -2.414947e+01 -2.425000e+01 -2.408680e+01 -2.420496e+01 -2.402078e+01 -2.415460e+01 
-2.439769e+01 -2.417160e+01 -2.444207e+01 -2.422114e+01 -2.448768e+01 -2.427094e+01 -2.453393e+01 -2.432037e+01 -2.458021e+01 -2.436874e+01 -2.462589e+01 -2.441540e+01 -2.467035e+01 -2.445972e+01 -2.471300e+01 -2.450109e+01 -2.475328e+01 -2.453898e+01 -2.479068e+01 -2.457294e+01 -2.482474e+01 -2.460259e+01 -2.485507e+01 -2.462766e+01 -2.488136e+01 -2.464794e+01 -2.490336e+01 -2.466335e+01 -2.492089e+01 -2.467384e+01 -2.493380e+01 -2.467945e+01 -2.494204e+01 -2.468028e+01 -2.494556e+01 -2.467642e+01 -2.494435e+01 -2.466801e+01 -2.493840e+01 -2.465514e+01 -2.492773e+01 -2.463791e+01 -2.491234e+01 -2.461636e+01 -2.489223e+01 -2.459049e+01 -2.486743e+01 -2.456028e+01 -2.483798e+01 -2.452572e+01 -2.480399e+01 -2.448684e+01 -2.476565e+01 -2.444377e+01 -2.472333e+01 -2.439684e+01 -2.467756e+01 -2.434661e+01 -2.462907e+01 -2.429391e+01 -2.457872e+01 -2.423981e+01 -2.452747e+01 -2.418545e+01 -2.447617e+01 -2.413189e+01 -2.442548e+01 -2.407990e+01 -2.437583e+01 -2.402996e+01 -2.432753e+01 -2.398231e+01 -2.428103e+01 -2.393722e+01 -2.423712e+01 -2.389513e+01 -2.419697e+01 -2.385668e+01 -2.416183e+01 -2.382251e+01 -2.413254e+01 -2.379289e+01 -2.410899e+01 -2.376756e+01 -2.409024e+01 -2.374571e+01 -2.407522e+01 -2.372632e+01 -2.406380e+01 -2.370880e+01 -2.405674e+01 -2.369445e+01 -2.405373e+01 -2.368708e+01 -2.405235e+01 -2.368745e+01 -2.405131e+01 -2.369540e+01 -2.404946e+01 -2.370912e+01 -2.405022e+01 -2.372809e+01 -2.405876e+01 -2.374884e+01 -2.407730e+01 -2.376391e+01 -2.409283e+01 -2.377861e+01 -2.410660e+01 -2.379676e+01 -2.412136e+01 -2.381926e+01 -2.413871e+01 -2.384591e+01 -2.415934e+01 -2.387636e+01 -2.418351e+01 -2.391028e+01 -2.421127e+01 -2.394744e+01 -2.424253e+01 -2.398761e+01 -2.427712e+01 -2.403049e+01 -2.431475e+01 -2.407575e+01 -2.435509e+01 -2.412295e+01 
-2.395568e+01 -2.410892e+01 -2.388336e+01 -2.404803e+01 -2.381073e+01 -2.398414e+01 -2.373894e+01 -2.391822e+01 -2.366913e+01 -2.385130e+01 -2.360239e+01 -2.378443e+01 -2.353978e+01 -2.371869e+01 -2.348225e+01 -2.365510e+01 -2.343064e+01 -2.359464e+01 -2.338566e+01 -2.353820e+01 -2.334786e+01 -2.348660e+01 -2.331762e+01 -2.344050e+01 -2.329517e+01 -2.340044e+01 -2.328056e+01 -2.336681e+01 -2.327367e+01 -2.333982e+01 -2.327419e+01 -2.331953e+01 -2.328169e+01 -2.330580e+01 -2.329555e+01 -2.329835e+01 -2.331503e+01 -2.329667e+01 -2.333926e+01 -2.330014e+01 -2.336723e+01 -2.330792e+01 -2.339788e+01 -2.331909e+01 -2.343005e+01 -2.333257e+01 -2.346259e+01 -2.334728e+01 -2.349437e+01 -2.336209e+01 -2.352435e+01 -2.337599e+01 -2.355167e+01 -2.338813e+01 -2.357567e+01 -2.339794e+01 -2.359603e+01 -2.340522e+01 -2.361272e+01 -2.341022e+01 -2.362617e+01 -2.341371e+01 -2.363723e+01 -2.341703e+01 -2.364729e+01 -2.342211e+01 -2.365826e+01 -2.343135e+01 -2.367253e+01 -2.344741e+01 -2.369270e+01 -2.347277e+01 -2.372117e+01 -2.350923e+01 -2.375970e+01 -2.355740e+01 -2.380893e+01 -2.361649e+01 -2.386821e+01 -2.368413e+01 -2.393559e+01 -2.375652e+01 -2.400804e+01 -2.382878e+01 -2.408188e+01 -2.389596e+01 -2.415312e+01 -2.395472e+01 -2.421728e+01 -2.400448e+01 -2.426913e+01 -2.404574e+01 -2.430552e+01 -2.408114e+01 -2.433077e+01 -2.411996e+01 -2.435059e+01 -2.416794e+01 -2.437429e+01 -2.422502e+01 -2.439883e+01 -2.428358e+01 -2.442266e+01 -2.433341e+01 -2.444659e+01 -2.436250e+01 -2.445446e+01 -2.438133e+01 -2.444793e+01 -2.439320e+01 -2.443018e+01 -2.439798e+01 -2.440313e+01 -2.439506e+01 -2.436790e+01 -2.438417e+01 -2.432526e+01 -2.436536e+01 -2.427592e+01 -2.433890e+01 -2.422057e+01 -2.430519e+01 -2.416000e+01 -2.426471e+01 -2.409503e+01 -2.421805e+01 -2.402660e+01 -2.416587e+01 
-2.439264e+01 -2.416917e+01 -2.443860e+01 -2.422048e+01 -2.448590e+01 -2.427215e+01 -2.453392e+01 -2.432349e+01 -2.458199e+01 -2.437376e+01 -2.462946e+01 -2.442225e+01 -2.467565e+01 -2.446828e+01 -2.471992e+01 -2.451118e+01 -2.476169e+01 -2.455041e+01 -2.480042e+01 -2.458546e+01 -2.483562e+01 -2.461596e+01 -2.486691e+01 -2.464162e+01 -2.489397e+01 -2.466226e+01 -2.491655e+01 -2.467780e+01 -2.493448e+01 -2.468825e+01 -2.494767e+01 -2.469369e+01 -2.495607e+01 -2.469426e+01 -2.495966e+01 -2.469011e+01 -2.495847e+01 -2.468142e+01 -2.495251e+01 -2.466834e+01 -2.494181e+01 -2.465095e+01 -2.492635e+01 -2.462932e+01 -2.490612e+01 -2.460339e+01 -2.488108e+01 -2.457307e+01 -2.485119e+01 -2.453823e+01 -2.481646e+01 -2.449874e+01 -2.477701e+01 -2.445458e+01 -2.473312e+01 -2.440596e+01 -2.468533e+01 -2.435342e+01 -2.463447e+01 -2.429795e+01 -2.458164e+01 -2.424089e+01 -2.452807e+01 -2.418379e+01 -2.447484e+01 -2.412803e+01 -2.442264e+01 -2.407451e+01 -2.437166e+01 -2.402350e+01 -2.432180e+01 -2.397485e+01 -2.427312e+01 -2.392850e+01 -2.422646e+01 -2.388491e+01 -2.418355e+01 -2.384510e+01 -2.414661e+01 -2.381026e+01 -2.411725e+01 -2.378104e+01 -2.409526e+01 -2.375702e+01 -2.407840e+01 -2.373666e+01 -2.406401e+01 -2.371761e+01 -2.405216e+01 -2.369727e+01 -2.404636e+01 -2.367663e+01 -2.404744e+01 -2.366736e+01 -2.404845e+01 -2.366820e+01 -2.404850e+01 -2.367970e+01 -2.404087e+01 -2.369623e+01 -2.403376e+01 -2.372233e+01 -2.404031e+01 -2.375413e+01 -2.407722e+01 -2.376232e+01 -2.409274e+01 -2.377061e+01 -2.410266e+01 -2.378620e+01 -2.411442e+01 -2.380830e+01 -2.412999e+01 -2.383531e+01 -2.414971e+01 -2.386631e+01 -2.417355e+01 -2.390086e+01 -2.420140e+01 -2.393874e+01 -2.423311e+01 -2.397978e+01 -2.426843e+01 -2.402372e+01 -2.430706e+01 -2.407023e+01 -2.434862e+01 -2.411889e+01 
-2.396037e+01 -2.412209e+01 -2.388431e+01 -2.405811e+01 -2.380789e+01 -2.399092e+01 -2.373233e+01 -2.392155e+01 -2.365886e+01 -2.385112e+01 -2.358868e+01 -2.378075e+01 -2.352292e+01 -2.371160e+01 -2.346261e+01 -2.364478e+01 -2.340867e+01 -2.358135e+01 -2.336185e+01 -2.352229e+01 -2.332275e+01 -2.346846e+01 -2.329177e+01 -2.342060e+01 -2.326916e+01 -2.337929e+01 -2.325496e+01 -2.334494e+01 -2.324902e+01 -2.331781e+01 -2.325104e+01 -2.329795e+01 -2.326054e+01 -2.328525e+01 -2.327688e+01 -2.327938e+01 -2.329926e+01 -2.327983e+01 -2.332672e+01 -2.328590e+01 -2.335820e+01 -2.329670e+01 -2.339250e+01 -2.331115e+01 -2.342834e+01 -2.332803e+01 -2.346437e+01 -2.334604e+01 -2.349930e+01 -2.336380e+01 -2.353186e+01 -2.338003e+01 -2.356097e+01 -2.339361e+01 -2.358581e+01 -2.340368e+01 -2.360586e+01 -2.340984e+01 -2.362098e+01 -2.341219e+01 -2.363147e+01 -2.341148e+01 -2.363816e+01 -2.340917e+01 -2.364254e+01 -2.340759e+01 -2.364687e+01 -2.340990e+01 -2.365425e+01 -2.341982e+01 -2.366834e+01 -2.344110e+01 -2.369269e+01 -2.347660e+01 -2.372999e+01 -2.352760e+01 -2.378144e+01 -2.359338e+01 -2.384638e+01 -2.367108e+01 -2.392229e+01 -2.375563e+01 -2.400517e+01 -2.383972e+01 -2.409033e+01 -2.391506e+01 -2.417329e+01 -2.397617e+01 -2.424869e+01 -2.402419e+01 -2.430621e+01 -2.405854e+01 -2.433544e+01 -2.407775e+01 -2.434929e+01 -2.410651e+01 -2.435392e+01 -2.415598e+01 -2.438025e+01 -2.422829e+01 -2.440847e+01 -2.430734e+01 -2.443570e+01 -2.437746e+01 -2.448472e+01 -2.439498e+01 -2.449368e+01 -2.440862e+01 -2.448329e+01 -2.441988e+01 -2.446186e+01 -2.442510e+01 -2.443177e+01 -2.442231e+01 -2.439385e+01 -2.441099e+01 -2.434863e+01 -2.439126e+01 -2.429664e+01 -2.436347e+01 -2.423850e+01 -2.432809e+01 -2.417493e+01 -2.428562e+01 -2.410675e+01 -2.423667e+01 -2.403489e+01 -2.418190e+01 
-2.438566e+01 -2.416572e+01 -2.443378e+01 -2.421946e+01 -2.448340e+01 -2.427370e+01 -2.453385e+01 -2.432767e+01 -2.458439e+01 -2.438057e+01 -2.463430e+01 -2.443158e+01 -2.468285e+01 -2.447995e+01 -2.472935e+01 -2.452497e+01 -2.477315e+01 -2.456601e+01 -2.481368e+01 -2.460255e+01 -2.485043e+01 -2.463417e+01 -2.488299e+01 -2.466060e+01 -2.491105e+01 -2.468168e+01 -2.493438e+01 -2.469735e+01 -2.495283e+01 -2.470768e+01 -2.496634e+01 -2.471281e+01 -2.497490e+01 -2.471295e+01 -2.497856e+01 -2.470835e+01 -2.497737e+01 -2.469924e+01 -2.497139e+01 -2.468583e+01 -2.496065e+01 -2.466826e+01 -2.494516e+01 -2.464658e+01 -2.492485e+01 -2.462070e+01 -2.489960e+01 -2.459042e+01 -2.486927e+01 -2.455542e+01 -2.483370e+01 -2.451534e+01 -2.479285e+01 -2.446988e+01 -2.474684e+01 -2.441902e+01 -2.469620e+01 -2.436322e+01 -2.464188e+01 -2.430362e+01 -2.458535e+01 -2.424207e+01 -2.452838e+01 -2.418084e+01 -2.447253e+01 -2.412202e+01 -2.441866e+01 -2.406672e+01 -2.436650e+01 -2.401479e+01 -2.431502e+01 -2.396523e+01 -2.426338e+01 -2.391721e+01 -2.421222e+01 -2.387109e+01 -2.416434e+01 -2.382872e+01 -2.412399e+01 -2.379254e+01 -2.409472e+01 -2.376410e+01 -2.407648e+01 -2.374287e+01 -2.406413e+01 -2.372635e+01 -2.405031e+01 -2.371023e+01 -2.403452e+01 -2.368610e+01 -2.402916e+01 -2.364752e+01 -2.404129e+01 -2.363761e+01 -2.404559e+01 -2.363833e+01 -2.405337e+01 -2.365896e+01 -2.403175e+01 -2.367375e+01 -2.400356e+01 -2.371081e+01 -2.399143e+01 -2.378296e+01 -2.409853e+01 -2.376063e+01 -2.409824e+01 -2.375532e+01 -2.409691e+01 -2.376914e+01 -2.410369e+01 -2.379244e+01 -2.411713e+01 -2.382075e+01 -2.413596e+01 -2.385273e+01 -2.415958e+01 -2.388812e+01 -2.418770e+01 -2.392691e+01 -2.422008e+01 -2.396905e+01 -2.425645e+01 -2.401438e+01 -2.429646e+01 -2.406258e+01 -2.433970e+01 -2.411321e+01 
-2.396660e+01 -2.413945e+01 -2.388562e+01 -2.407140e+01 -2.380419e+01 -2.399986e+01 -2.372363e+01 -2.392595e+01 -2.364531e+01 -2.385087e+01 -2.357055e+01 -2.377586e+01 -2.350060e+01 -2.370218e+01 -2.343660e+01 -2.363107e+01 -2.337957e+01 -2.356370e+01 -2.333032e+01 -2.350115e+01 -2.328951e+01 -2.344436e+01 -2.325757e+01 -2.339416e+01 -2.323475e+01 -2.335117e+01 -2.322108e+01 -2.331587e+01 -2.321642e+01 -2.328853e+01 -2.322042e+01 -2.326923e+01 -2.323257e+01 -2.325786e+01 -2.325218e+01 -2.325409e+01 -2.327839e+01 -2.325737e+01 -2.331018e+01 -2.326695e+01 -2.334636e+01 -2.328183e+01 -2.338560e+01 -2.330079e+01 -2.342644e+01 -2.332240e+01 -2.346730e+01 -2.334506e+01 -2.350662e+01 -2.336709e+01 -2.354285e+01 -2.338679e+01 -2.357461e+01 -2.340263e+01 -2.360080e+01 -2.341339e+01 -2.362068e+01 -2.341832e+01 -2.363392e+01 -2.341729e+01 -2.364064e+01 -2.341090e+01 -2.364149e+01 -2.340067e+01 -2.363792e+01 -2.338930e+01 -2.363253e+01 -2.338095e+01 -2.362942e+01 -2.338105e+01 -2.363390e+01 -2.339539e+01 -2.365145e+01 -2.342868e+01 -2.368637e+01 -2.348325e+01 -2.374071e+01 -2.355857e+01 -2.381377e+01 -2.365136e+01 -2.390216e+01 -2.375529e+01 -2.400009e+01 -2.385948e+01 -2.410103e+01 -2.394843e+01 -2.420108e+01 -2.401079e+01 -2.429808e+01 -2.405771e+01 -2.437169e+01 -2.408659e+01 -2.438085e+01 -2.406493e+01 -2.437713e+01 -2.407241e+01 -2.433556e+01 -2.412117e+01 -2.438429e+01 -2.422476e+01 -2.441899e+01 -2.433991e+01 -2.442681e+01 -2.447398e+01 -2.456287e+01 -2.443135e+01 -2.455227e+01 -2.443830e+01 -2.452970e+01 -2.445261e+01 -2.450221e+01 -2.446023e+01 -2.446827e+01 -2.445811e+01 -2.442713e+01 -2.444625e+01 -2.437877e+01 -2.442523e+01 -2.432352e+01 -2.439565e+01 -2.426187e+01 -2.435807e+01 -2.419448e+01 -2.431303e+01 -2.412216e+01 -2.426111e+01 -2.404584e+01 -2.420299e+01 
-2.437654e+01 -2.416104e+01 -2.442745e+01 -2.421794e+01 -2.448009e+01 -2.427554e+01 -2.453368e+01 -2.433294e+01 -2.458743e+01 -2.438925e+01 -2.464051e+01 -2.444355e+01 -2.469212e+01 -2.449498e+01 -2.474148e+01 -2.454274e+01 -2.478789e+01 -2.458612e+01 -2.483072e+01 -2.462455e+01 -2.486943e+01 -2.465759e+01 -2.490359e+01 -2.468495e+01 -2.493288e+01 -2.470650e+01 -2.495709e+01 -2.472225e+01 -2.497612e+01 -2.473231e+01 -2.498996e+01 -2.473692e+01 -2.499865e+01 -2.473641e+01 -2.500231e+01 -2.473110e+01 -2.500106e+01 -2.472137e+01 -2.499502e+01 -2.470750e+01 -2.498427e+01 -2.468971e+01 -2.496880e+01 -2.466806e+01 -2.494853e+01 -2.464245e+01 -2.492324e+01 -2.461254e+01 -2.489263e+01 -2.457775e+01 -2.485629e+01 -2.453738e+01 -2.481389e+01 -2.449066e+01 -2.476529e+01 -2.443711e+01 -2.471081e+01 -2.437690e+01 -2.465157e+01 -2.431132e+01 -2.458960e+01 -2.424300e+01 -2.452765e+01 -2.417560e+01 -2.446838e+01 -2.411261e+01 -2.441311e+01 -2.405572e+01 -2.436084e+01 -2.400391e+01 -2.430859e+01 -2.395429e+01 -2.425338e+01 -2.390426e+01 -2.419499e+01 -2.385382e+01 -2.413788e+01 -2.380641e+01 -2.409055e+01 -2.376733e+01 -2.406135e+01 -2.374013e+01 -2.405195e+01 -2.372414e+01 -2.405145e+01 -2.371575e+01 -2.403872e+01 -2.371100e+01 -2.400660e+01 -2.368956e+01 -2.399468e+01 -2.358992e+01 -2.404315e+01 -2.359736e+01 -2.403936e+01 -2.358861e+01 -2.408768e+01 -2.364405e+01 -2.402916e+01 -2.362897e+01 -2.395722e+01 -2.366406e+01 -2.382300e+01 -2.390595e+01 -2.422721e+01 -2.374196e+01 -2.410479e+01 -2.372089e+01 -2.408302e+01 -2.374263e+01 -2.408632e+01 -2.377158e+01 -2.409890e+01 -2.380255e+01 -2.411744e+01 -2.383576e+01 -2.414114e+01 -2.387199e+01 -2.416976e+01 -2.391173e+01 -2.420309e+01 -2.395516e+01 -2.424083e+01 -2.400218e+01 -2.428264e+01 -2.405250e+01 -2.432806e+01 -2.410565e+01 
-2.397457e+01 -2.416132e+01 -2.388739e+01 -2.408819e+01 -2.379961e+01 -2.401119e+01 -2.371271e+01 -2.393153e+01 -2.362821e+01 -2.385055e+01 -2.354761e+01 -2.376963e+01 -2.347232e+01 -2.369019e+01 -2.340364e+01 -2.361362e+01 -2.334269e+01 -2.354124e+01 -2.329037e+01 -2.347424e+01 -2.324741e+01 -2.341369e+01 -2.321426e+01 -2.336050e+01 -2.319119e+01 -2.331538e+01 -2.317822e+01 -2.327884e+01 -2.317517e+01 -2.325121e+01 -2.318167e+01 -2.323259e+01 -2.319716e+01 -2.322288e+01 -2.322090e+01 -2.322175e+01 -2.325197e+01 -2.322864e+01 -2.328926e+01 -2.324272e+01 -2.333148e+01 -2.326290e+01 -2.337713e+01 -2.328780e+01 -2.342453e+01 -2.331574e+01 -2.347183e+01 -2.334478e+01 -2.351709e+01 -2.337276e+01 -2.355837e+01 -2.339748e+01 -2.359390e+01 -2.341683e+01 -2.362220e+01 -2.342903e+01 -2.364225e+01 -2.343287e+01 -2.365349e+01 -2.342787e+01 -2.365578e+01 -2.341430e+01 -2.364939e+01 -2.339346e+01 -2.363528e+01 -2.336816e+01 -2.361610e+01 -2.334374e+01 -2.359722e+01 -2.332827e+01 -2.358664e+01 -2.333102e+01 -2.359313e+01 -2.335980e+01 -2.362366e+01 -2.341848e+01 -2.368157e+01 -2.350660e+01 -2.376612e+01 -2.362076e+01 -2.387268e+01 -2.375485e+01 -2.399215e+01 -2.389458e+01 -2.411272e+01 -2.400853e+01 -2.423211e+01 -2.406106e+01 -2.437111e+01 -2.410957e+01 -2.450196e+01 -2.416547e+01 -2.443938e+01 -2.402396e+01 -2.445182e+01 -2.379566e+01 -2.372776e+01 -2.341338e+01 -2.351406e+01 -2.331184e+01 -2.354938e+01 -2.355930e+01 -2.363870e+01 -2.429572e+01 -2.476205e+01 -2.441830e+01 -2.462289e+01 -2.446064e+01 -2.458102e+01 -2.449205e+01 -2.454901e+01 -2.450513e+01 -2.451198e+01 -2.450368e+01 -2.446765e+01 -2.449068e+01 -2.441583e+01 -2.446777e+01 -2.435680e+01 -2.443585e+01 -2.429099e+01 -2.439553e+01 -2.421899e+01 -2.434732e+01 -2.414158e+01 -2.429175e+01 -2.405973e+01 -2.422949e+01 
-2.436500e+01 -2.415487e+01 -2.441942e+01 -2.421574e+01 -2.447583e+01 -2.427756e+01 -2.453337e+01 -2.433931e+01 -2.459114e+01 -2.439995e+01 -2.464819e+01 -2.445841e+01 -2.470363e+01 -2.451370e+01 -2.475657e+01 -2.456489e+01 -2.480623e+01 -2.461119e+01 -2.485189e+01 -2.465194e+01 -2.489298e+01 -2.468669e+01 -2.492905e+01 -2.471512e+01 -2.495979e+01 -2.473715e+01 -2.498499e+01 -2.475283e+01 -2.500462e+01 -2.476239e+01 -2.501873e+01 -2.476619e+01 -2.502745e+01 -2.476466e+01 -2.503099e+01 -2.475831e+01 -2.502957e+01 -2.474764e+01 -2.502340e+01 -2.473311e+01 -2.501262e+01 -2.471503e+01 -2.499728e+01 -2.469356e+01 -2.497727e+01 -2.466856e+01 -2.495228e+01 -2.463958e+01 -2.492178e+01 -2.460576e+01 -2.488505e+01 -2.456586e+01 -2.484125e+01 -2.451839e+01 -2.478972e+01 -2.446198e+01 -2.473033e+01 -2.439609e+01 -2.466415e+01 -2.432190e+01 -2.459399e+01 -2.424317e+01 -2.452441e+01 -2.416612e+01 -2.446041e+01 -2.409730e+01 -2.440478e+01 -2.403986e+01 -2.435541e+01 -2.399112e+01 -2.430540e+01 -2.394407e+01 -2.424689e+01 -2.389208e+01 -2.417685e+01 -2.383389e+01 -2.410205e+01 -2.377617e+01 -2.403934e+01 -2.373058e+01 -2.400851e+01 -2.370521e+01 -2.401872e+01 -2.369802e+01 -2.405123e+01 -2.370179e+01 -2.404680e+01 -2.372880e+01 -2.395887e+01 -2.377169e+01 -2.390036e+01 -2.342712e+01 -2.424897e+01 -2.253456e+01 -2.180302e+01 -2.107357e+01 -2.081671e+01 -2.061068e+01 -2.115588e+01 -2.107620e+01 -2.180327e+01 -2.188019e+01 -2.251437e+01 -2.294905e+01 -2.388756e+01 -2.349266e+01 -2.401099e+01 -2.364376e+01 -2.404412e+01 -2.370892e+01 -2.405966e+01 -2.374872e+01 -2.407476e+01 -2.378211e+01 -2.409376e+01 -2.381580e+01 -2.411781e+01 -2.385238e+01 -2.414714e+01 -2.389289e+01 -2.418168e+01 -2.393768e+01 -2.422116e+01 -2.398668e+01 -2.426522e+01 -2.403959e+01 -2.431337e+01 -2.409588e+01 
-2.398456e+01 -2.418817e+01 -2.388978e+01 -2.410886e+01 -2.379415e+01 -2.402516e+01 -2.369938e+01 -2.393843e+01 -2.360721e+01 -2.385016e+01 -2.351936e+01 -2.376193e+01 -2.343745e+01 -2.367535e+01 -2.336296e+01 -2.359200e+01 -2.329716e+01 -2.351339e+01 -2.324108e+01 -2.344088e+01 -2.319549e+01 -2.337568e+01 -2.316090e+01 -2.331879e+01 -2.313754e+01 -2.327101e+01 -2.312544e+01 -2.323293e+01 -2.312437e+01 -2.320489e+01 -2.313393e+01 -2.318706e+01 -2.315350e+01 -2.317934e+01 -2.318230e+01 -2.318142e+01 -2.321934e+01 -2.319273e+01 -2.326344e+01 -2.321242e+01 -2.331320e+01 -2.323930e+01 -2.336696e+01 -2.327182e+01 -2.342278e+01 -2.330805e+01 -2.347846e+01 -2.334562e+01 -2.353162e+01 -2.338180e+01 -2.357976e+01 -2.341368e+01 -2.362055e+01 -2.343832e+01 -2.365202e+01 -2.345320e+01 -2.367281e+01 -2.345647e+01 -2.368221e+01 -2.344720e+01 -2.367983e+01 -2.342521e+01 -2.366522e+01 -2.339094e+01 -2.363797e+01 -2.334638e+01 -2.359964e+01 -2.329787e+01 -2.355700e+01 -2.325756e+01 -2.352262e+01 -2.324097e+01 -2.351115e+01 -2.326142e+01 -2.353403e+01 -2.332473e+01 -2.359626e+01 -2.342906e+01 -2.369690e+01 -2.357059e+01 -2.383058e+01 -2.374896e+01 -2.398324e+01 -2.395564e+01 -2.412584e+01 -2.413042e+01 -2.424404e+01 -2.411592e+01 -2.445291e+01 -2.415562e+01 -2.488052e+01 -2.259072e+01 -2.096274e+01 -2.002106e+01 -1.939907e+01 -1.952087e+01 -2.017730e+01 -2.034828e+01 -2.120677e+01 -2.141170e+01 -2.219233e+01 -2.249306e+01 -2.311381e+01 -2.359033e+01 -2.436956e+01 -2.430911e+01 -2.459676e+01 -2.449415e+01 -2.462260e+01 -2.454985e+01 -2.460087e+01 -2.456458e+01 -2.456304e+01 -2.456082e+01 -2.451566e+01 -2.454504e+01 -2.446014e+01 -2.451933e+01 -2.439690e+01 -2.448448e+01 -2.432631e+01 -2.444090e+01 -2.424891e+01 -2.438897e+01 -2.416545e+01 -2.432910e+01 -2.407693e+01 -2.426191e+01 
-2.435068e+01 -2.414682e+01 -2.440939e+01 -2.421260e+01 -2.447044e+01 -2.427966e+01 -2.453285e+01 -2.434681e+01 -2.459556e+01 -2.441282e+01 -2.465751e+01 -2.447645e+01 -2.471764e+01 -2.453652e+01 -2.477496e+01 -2.459194e+01 -2.482856e+01 -2.464180e+01 -2.487764e+01 -2.468536e+01 -2.492158e+01 -2.472210e+01 -2.495988e+01 -2.475172e+01 -2.499223e+01 -2.477416e+01 -2.501849e+01 -2.478956e+01 -2.503867e+01 -2.479826e+01 -2.505290e+01 -2.480079e+01 -2.506145e+01 -2.479775e+01 -2.506465e+01 -2.478986e+01 -2.506285e+01 -2.477782e+01 -2.505640e+01 -2.476229e+01 -2.504558e+01 -2.474380e+01 -2.503050e+01 -2.472263e+01 -2.501107e+01 -2.469874e+01 -2.498692e+01 -2.467158e+01 -2.495729e+01 -2.463999e+01 -2.492101e+01 -2.460208e+01 -2.487655e+01 -2.455525e+01 -2.482222e+01 -2.449657e+01 -2.475687e+01 -2.442382e+01 -2.468095e+01 -2.433727e+01 -2.459807e+01 -2.424195e+01 -2.451585e+01 -2.414868e+01 -2.444435e+01 -2.407092e+01 -2.439050e+01 -2.401564e+01 -2.435094e+01 -2.397696e+01 -2.431107e+01 -2.393917e+01 -2.425233e+01 -2.388655e+01 -2.416395e+01 -2.381399e+01 -2.405467e+01 -2.373436e+01 -2.395679e+01 -2.367409e+01 -2.391502e+01 -2.365244e+01 -2.396348e+01 -2.366130e+01 -2.408846e+01 -2.366543e+01 -2.413928e+01 -2.373175e+01 -2.389266e+01 -2.307639e+01 -2.181488e+01 -1.942574e+01 -1.723911e+01 -1.727054e+01 -1.841006e+01 -1.817958e+01 -1.973584e+01 -1.977590e+01 -2.106622e+01 -2.105098e+01 -2.201017e+01 -2.207742e+01 -2.268928e+01 -2.314001e+01 -2.397204e+01 -2.354804e+01 -2.400833e+01 -2.365294e+01 -2.402300e+01 -2.370069e+01 -2.403352e+01 -2.373231e+01 -2.404674e+01 -2.376142e+01 -2.406506e+01 -2.379296e+01 -2.408920e+01 -2.382884e+01 -2.411934e+01 -2.386980e+01 -2.415533e+01 -2.391600e+01 -2.419693e+01 -2.396730e+01 -2.424373e+01 -2.402331e+01 -2.429520e+01 -2.408341e+01 