# vtk DataFile Version 2.0
Comment goes here
ASCII

DATASET STRUCTURED_POINTS
DIMENSIONS    128   128   1

ORIGIN    0.000   0.000   0.000
SPACING   0.0156250.015625   1.000

POINT_DATA   16384
SCALARS P double
LOOKUP_TABLE default

-2.049879e+01 -2.061811e+01 -2.044048e+01 -2.056833e+01 -2.038189e+01 -2.051616e+01 -2.032391e+01 -2.046240e+01 -2.026745e+01 -2.040785e+01 -2.021334e+01 -2.035337e+01 -2.016240e+01 -2.029976e+01 -2.011538e+01 -2.024784e+01 -2.007292e+01 -2.019836e+01 -2.003558e+01 -2.015203e+01 -2.000379e+01 -2.010945e+01 -1.997787e+01 -2.007114e+01 -1.995801e+01 -2.003752e+01 -1.994424e+01 -2.000887e+01 -1.993649e+01 -1.998535e+01 -1.993454e+01 -1.996698e+01 -1.993804e+01 -1.995365e+01 -1.994654e+01 -1.994511e+01 -1.995945e+01 -1.994097e+01 -1.997611e+01 -1.994074e+01 -1.999577e+01 -1.994382e+01 -2.001764e+01 -1.994951e+01 -2.004089e+01 -1.995709e+01 -2.006469e+01 -1.996581e+01 -2.008828e+01 -1.997498e+01 -2.011097e+01 -1.998400e+01 -2.013223e+01 -1.999242e+01 -2.015168e+01 -2.000001e+01 -2.016920e+01 -2.000682e+01 -2.018489e+01 -2.001317e+01 -2.019917e+01 -2.001974e+01 -2.021275e+01 -2.002748e+01 -2.022659e+01 -2.003762e+01 -2.024192e+01 -2.005151e+01 -2.026009e+01 -2.007046e+01 -2.028240e+01 -2.009560e+01 -2.031000e+01 -2.012757e+01 -2.034359e+01 -2.016646e+01 -2.038335e+01 -2.021160e+01 -2.042875e+01 -2.026167e+01 -2.047865e+01 -2.031478e+01 -2.053130e+01 -2.036880e+01 -2.058457e+01 -2.042169e+01 -2.063617e+01 -2.047197e+01 -2.068396e+01 -2.051895e+01 -2.072635e+01 -2.056282e+01 -2.076264e+01 -2.060457e+01 -2.079327e+01 -2.064546e+01 -2.081932e+01 -2.068624e+01 -2.084190e+01 -2.072633e+01 -2.086127e+01 -2.076384e+01 -2.087685e+01 -2.079640e+01 -2.088734e+01 -2.082217e+01 -2.089103e+01 -2.084062e+01 -2.088694e+01 -2.085190e+01 -2.087489e+01 -2.085621e+01 -2.085520e+01 -2.085372e+01 -2.082840e+01 -2.084457e+01 -2.079514e+01 -2.082892e+01 -2.075608e+01 -2.080703e+01 -2.071189e+01 -2.077922e+01 -2.066330e+01 -2.074590e+01 -2.061105e+01 -2.070755e+01 -2.055594e+01 -2.066475e+01 
-2.088844e+01 -2.068956e+01 -2.092476e+01 -2.072955e+01 -2.096197e+01 -2.076968e+01 -2.099960e+01 -2.080945e+01 -2.103718e+01 -2.084835e+01 -2.107421e+01 -2.088587e+01 -2.111022e+01 -2.092152e+01 -2.114473e+01 -2.095485e+01 -2.117731e+01 -2.098544e+01 -2.120755e+01 -2.101293e+01 -2.123508e+01 -2.103701e+01 -2.125960e+01 -2.105746e+01 -2.128084e+01 -2.107409e+01 -2.129859e+01 -2.108680e+01 -2.131268e+01 -2.109553e+01 -2.132301e+01 -2.110026e+01 -2.132947e+01 -2.110101e+01 -2.133203e+01 -2.109783e+01 -2.133064e+01 -2.109076e+01 -2.132530e+01 -2.107985e+01 -2.131598e+01 -2.106514e+01 -2.130271e+01 -2.104666e+01 -2.128550e+01 -2.102442e+01 -2.126439e+01 -2.099846e+01 -2.123946e+01 -2.096884e+01 -2.121087e+01 -2.093570e+01 -2.117883e+01 -2.089926e+01 -2.114368e+01 -2.085989e+01 -2.110586e+01 -2.081809e+01 -2.106591e+01 -2.077452e+01 -2.102444e+01 -2.072992e+01 -2.098212e+01 -2.068511e+01 -2.093958e+01 -2.064083e+01 -2.089739e+01 -2.059776e+01 -2.085607e+01 -2.055641e+01 -2.081614e+01 -2.051721e+01 -2.077813e+01 -2.048054e+01 -2.074265e+01 -2.044673e+01 -2.071032e+01 -2.041607e+01 -2.068173e+01 -2.038875e+01 -2.065720e+01 -2.036482e+01 -2.063677e+01 -2.034410e+01 -2.062020e+01 -2.032636e+01 -2.060715e+01 -2.031144e+01 -2.059734e+01 -2.029951e+01 -2.059055e+01 -2.029118e+01 -2.058641e+01 -2.028731e+01 -2.058444e+01 -2.028837e+01 -2.058435e+01 -2.029420e+01 -2.058625e+01 -2.030410e+01 -2.059087e+01 -2.031700e+01 -2.059888e+01 -2.033152e+01 -2.061001e+01 -2.034661e+01 -2.062284e+01 -2.036256e+01 -2.063676e+01 -2.038020e+01 -2.065193e+01 -2.040019e+01 -2.066882e+01 -2.042286e+01 -2.068784e+01 -2.044827e+01 -2.070927e+01 -2.047636e+01 -2.073326e+01 -2.050699e+01 -2.075981e+01 -2.053996e+01 -2.078882e+01 -2.057502e+01 -2.082012e+01 -2.061188e+01 -2.085343e+01 -2.065019e+01 
-2.049938e+01 -2.061967e+01 -2.044062e+01 -2.056952e+01 -2.038158e+01 -2.051696e+01 -2.032317e+01 -2.046278e+01 -2.026627e+01 -2.040782e+01 -2.021176e+01 -2.035292e+01 -2.016045e+01 -2.029891e+01 -2.011310e+01 -2.024661e+01 -2.007036e+01 -2.019678e+01 -2.003280e+01 -2.015014e+01 -2.000086e+01 -2.010731e+01 -1.997485e+01 -2.006880e+01 -1.995496e+01 -2.003503e+01 -1.994124e+01 -2.000631e+01 -1.993360e+01 -1.998277e+01 -1.993182e+01 -1.996446e+01 -1.993555e+01 -1.995126e+01 -1.994433e+01 -1.994290e+01 -1.995758e+01 -1.993902e+01 -1.997461e+01 -1.993909e+01 -1.999467e+01 -1.994251e+01 -2.001695e+01 -1.994857e+01 -2.004061e+01 -1.995652e+01 -2.006479e+01 -1.996560e+01 -2.008872e+01 -1.997507e+01 -2.011169e+01 -1.998431e+01 -2.013313e+01 -1.999285e+01 -2.015265e+01 -2.000042e+01 -2.017010e+01 -2.000705e+01 -2.018559e+01 -2.001307e+01 -2.019952e+01 -2.001915e+01 -2.021260e+01 -2.002629e+01 -2.022584e+01 -2.003575e+01 -2.024050e+01 -2.004897e+01 -2.025800e+01 -2.006738e+01 -2.027977e+01 -2.009219e+01 -2.030701e+01 -2.012414e+01 -2.034053e+01 -2.016334e+01 -2.038053e+01 -2.020915e+01 -2.042652e+01 -2.026016e+01 -2.047728e+01 -2.031434e+01 -2.053099e+01 -2.036936e+01 -2.058540e+01 -2.042300e+01 -2.063807e+01 -2.047362e+01 -2.068667e+01 -2.052050e+01 -2.072939e+01 -2.056390e+01 -2.076548e+01 -2.060499e+01 -2.079555e+01 -2.064553e+01 -2.082106e+01 -2.068659e+01 -2.084351e+01 -2.072761e+01 -2.086317e+01 -2.076633e+01 -2.087940e+01 -2.079981e+01 -2.089074e+01 -2.082583e+01 -2.089494e+01 -2.084422e+01 -2.089094e+01 -2.085539e+01 -2.087872e+01 -2.085962e+01 -2.085876e+01 -2.085706e+01 -2.083165e+01 -2.084782e+01 -2.079806e+01 -2.083205e+01 -2.075865e+01 -2.080999e+01 -2.071410e+01 -2.078197e+01 -2.066513e+01 -2.074841e+01 -2.061249e+01 -2.070978e+01 -2.055696e+01 -2.066666e+01 
-2.088714e+01 -2.068894e+01 -2.092389e+01 -2.072940e+01 -2.096155e+01 -2.077003e+01 -2.099966e+01 -2.081031e+01 -2.103773e+01 -2.084972e+01 -2.107525e+01 -2.088773e+01 -2.111172e+01 -2.092384e+01 -2.114668e+01 -2.095759e+01 -2.117966e+01 -2.098854e+01 -2.121026e+01 -2.101633e+01 -2.123810e+01 -2.104065e+01 -2.126288e+01 -2.106127e+01 -2.128433e+01 -2.107802e+01 -2.130225e+01 -2.109078e+01 -2.131646e+01 -2.109952e+01 -2.132687e+01 -2.110423e+01 -2.133339e+01 -2.110495e+01 -2.133597e+01 -2.110172e+01 -2.133460e+01 -2.109460e+01 -2.132926e+01 -2.108366e+01 -2.131994e+01 -2.106892e+01 -2.130665e+01 -2.105041e+01 -2.128940e+01 -2.102815e+01 -2.126820e+01 -2.100212e+01 -2.124313e+01 -2.097238e+01 -2.121431e+01 -2.093901e+01 -2.118195e+01 -2.090222e+01 -2.114636e+01 -2.086233e+01 -2.110799e+01 -2.081988e+01 -2.106741e+01 -2.077554e+01 -2.102530e+01 -2.073015e+01 -2.098234e+01 -2.068458e+01 -2.093922e+01 -2.063965e+01 -2.089652e+01 -2.059605e+01 -2.085472e+01 -2.055429e+01 -2.081426e+01 -2.051474e+01 -2.077565e+01 -2.047774e+01 -2.073953e+01 -2.044363e+01 -2.070665e+01 -2.041277e+01 -2.067770e+01 -2.038541e+01 -2.065313e+01 -2.036161e+01 -2.063292e+01 -2.034113e+01 -2.061667e+01 -2.032354e+01 -2.060390e+01 -2.030845e+01 -2.059433e+01 -2.029590e+01 -2.058789e+01 -2.028672e+01 -2.058424e+01 -2.028238e+01 -2.058257e+01 -2.028358e+01 -2.058234e+01 -2.029014e+01 -2.058353e+01 -2.030111e+01 -2.058747e+01 -2.031537e+01 -2.059575e+01 -2.033097e+01 -2.060833e+01 -2.034577e+01 -2.062178e+01 -2.036089e+01 -2.063552e+01 -2.037787e+01 -2.065024e+01 -2.039754e+01 -2.066670e+01 -2.042012e+01 -2.068544e+01 -2.044560e+01 -2.070673e+01 -2.047384e+01 -2.073071e+01 -2.050466e+01 -2.075735e+01 -2.053787e+01 -2.078655e+01 -2.057322e+01 -2.081811e+01 -2.061042e+01 -2.085175e+01 -2.064913e+01 
-2.050115e+01 -2.062440e+01 -2.044105e+01 -2.057312e+01 -2.038066e+01 -2.051937e+01 -2.032090e+01 -2.046395e+01 -2.026271e+01 -2.040773e+01 -2.020697e+01 -2.035157e+01 -2.015455e+01 -2.029635e+01 -2.010621e+01 -2.024290e+01 -2.006264e+01 -2.019203e+01 -2.002442e+01 -2.014446e+01 -1.999200e+01 -2.010084e+01 -1.996572e+01 -2.006171e+01 -1.994575e+01 -2.002751e+01 -1.993216e+01 -1.999854e+01 -1.992484e+01 -1.997498e+01 -1.992358e+01 -1.995684e+01 -1.992802e+01 -1.994401e+01 -1.993766e+01 -1.993623e+01 -1.995192e+01 -1.993311e+01 -1.997008e+01 -1.993410e+01 -1.999136e+01 -1.993857e+01 -2.001489e+01 -1.994575e+01 -2.003980e+01 -1.995484e+01 -2.006517e+01 -1.996499e+01 -2.009014e+01 -1.997540e+01 -2.011395e+01 -1.998534e+01 -2.013595e+01 -1.999424e+01 -2.015569e+01 -2.000177e+01 -2.017297e+01 -2.000790e+01 -2.018785e+01 -2.001291e+01 -2.020071e+01 -2.001751e+01 -2.021229e+01 -2.002277e+01 -2.022367e+01 -2.003013e+01 -2.023626e+01 -2.004128e+01 -2.025170e+01 -2.005795e+01 -2.027170e+01 -2.008168e+01 -2.029780e+01 -2.011351e+01 -2.033104e+01 -2.015369e+01 -2.037178e+01 -2.020156e+01 -2.041955e+01 -2.025550e+01 -2.047298e+01 -2.031307e+01 -2.052999e+01 -2.037130e+01 -2.058797e+01 -2.042732e+01 -2.064403e+01 -2.047901e+01 -2.069525e+01 -2.052555e+01 -2.073907e+01 -2.056727e+01 -2.077434e+01 -2.060597e+01 -2.080240e+01 -2.064507e+01 -2.082587e+01 -2.068699e+01 -2.084788e+01 -2.073120e+01 -2.086850e+01 -2.077405e+01 -2.088685e+01 -2.081070e+01 -2.090131e+01 -2.083715e+01 -2.090705e+01 -2.085507e+01 -2.090317e+01 -2.086584e+01 -2.089033e+01 -2.086985e+01 -2.086947e+01 -2.086710e+01 -2.084139e+01 -2.085761e+01 -2.080680e+01 -2.084147e+01 -2.076636e+01 -2.081892e+01 -2.072074e+01 -2.079028e+01 -2.067065e+01 -2.075598e+01 -2.061681e+01 -2.071651e+01 -2.056003e+01 -2.067244e+01 
-2.088448e+01 -2.068767e+01 -2.092209e+01 -2.072909e+01 -2.096069e+01 -2.077073e+01 -2.099977e+01 -2.081205e+01 -2.103882e+01 -2.085249e+01 -2.107732e+01 -2.089149e+01 -2.111475e+01 -2.092853e+01 -2.115059e+01 -2.096312e+01 -2.118439e+01 -2.099480e+01 -2.121572e+01 -2.102319e+01 -2.124420e+01 -2.104799e+01 -2.126950e+01 -2.106895e+01 -2.129137e+01 -2.108592e+01 -2.130960e+01 -2.109879e+01 -2.132405e+01 -2.110755e+01 -2.133462e+01 -2.111221e+01 -2.134123e+01 -2.111283e+01 -2.134388e+01 -2.110949e+01 -2.134253e+01 -2.110227e+01 -2.133720e+01 -2.109125e+01 -2.132788e+01 -2.107647e+01 -2.131456e+01 -2.105794e+01 -2.129724e+01 -2.103563e+01 -2.127590e+01 -2.100952e+01 -2.125057e+01 -2.097956e+01 -2.122131e+01 -2.094577e+01 -2.118830e+01 -2.090826e+01 -2.115182e+01 -2.086735e+01 -2.111233e+01 -2.082355e+01 -2.107046e+01 -2.077763e+01 -2.102699e+01 -2.073057e+01 -2.098274e+01 -2.068342e+01 -2.093847e+01 -2.063716e+01 -2.089477e+01 -2.059254e+01 -2.085205e+01 -2.055000e+01 -2.081057e+01 -2.050978e+01 -2.077075e+01 -2.047211e+01 -2.073325e+01 -2.043736e+01 -2.069910e+01 -2.040602e+01 -2.066936e+01 -2.037856e+01 -2.064472e+01 -2.035511e+01 -2.062512e+01 -2.033528e+01 -2.060969e+01 -2.031823e+01 -2.059745e+01 -2.030294e+01 -2.058818e+01 -2.028893e+01 -2.058245e+01 -2.027743e+01 -2.058009e+01 -2.027191e+01 -2.057925e+01 -2.027346e+01 -2.057892e+01 -2.028165e+01 -2.057808e+01 -2.029483e+01 -2.057971e+01 -2.031241e+01 -2.058835e+01 -2.033123e+01 -2.060580e+01 -2.034462e+01 -2.062044e+01 -2.035737e+01 -2.063331e+01 -2.037287e+01 -2.064682e+01 -2.039197e+01 -2.066234e+01 -2.041451e+01 -2.068049e+01 -2.044018e+01 -2.070153e+01 -2.046873e+01 -2.072550e+01 -2.049995e+01 -2.075234e+01 -2.053364e+01 -2.078192e+01 -2.056958e+01 -2.081401e+01 -2.060747e+01 -2.084832e+01 -2.064697e+01 
-2.050413e+01 -2.063238e+01 -2.044177e+01 -2.057920e+01 -2.037910e+01 -2.052343e+01 -2.031707e+01 -2.046592e+01 -2.025668e+01 -2.040757e+01 -2.019888e+01 -2.034930e+01 -2.014456e+01 -2.029202e+01 -2.009454e+01 -2.023662e+01 -2.004956e+01 -2.018397e+01 -2.001022e+01 -2.013482e+01 -1.997701e+01 -2.008987e+01 -1.995026e+01 -2.004970e+01 -1.993017e+01 -2.001476e+01 -1.991680e+01 -1.998539e+01 -1.991004e+01 -1.996175e+01 -1.990966e+01 -1.994390e+01 -1.991527e+01 -1.993171e+01 -1.992638e+01 -1.992491e+01 -1.994235e+01 -1.992308e+01 -1.996243e+01 -1.992565e+01 -1.998578e+01 -1.993190e+01 -2.001147e+01 -1.994102e+01 -2.003853e+01 -1.995209e+01 -2.006594e+01 -1.996414e+01 -2.009274e+01 -1.997621e+01 -2.011803e+01 -1.998741e+01 -2.014104e+01 -1.999702e+01 -2.016122e+01 -2.000456e+01 -2.017825e+01 -2.000986e+01 -2.019213e+01 -2.001317e+01 -2.020320e+01 -2.001521e+01 -2.021221e+01 -2.001717e+01 -2.022032e+01 -2.002076e+01 -2.022919e+01 -2.002809e+01 -2.024087e+01 -2.004150e+01 -2.025761e+01 -2.006315e+01 -2.028151e+01 -2.009460e+01 -2.031412e+01 -2.013642e+01 -2.035609e+01 -2.018796e+01 -2.040696e+01 -2.024727e+01 -2.046514e+01 -2.031115e+01 -2.052805e+01 -2.037548e+01 -2.059247e+01 -2.043596e+01 -2.065484e+01 -2.048956e+01 -2.071124e+01 -2.053542e+01 -2.075730e+01 -2.057368e+01 -2.079042e+01 -2.060656e+01 -2.081384e+01 -2.064178e+01 -2.083214e+01 -2.068511e+01 -2.085365e+01 -2.073612e+01 -2.087609e+01 -2.078799e+01 -2.089820e+01 -2.083178e+01 -2.092058e+01 -2.085701e+01 -2.092883e+01 -2.087310e+01 -2.092436e+01 -2.088306e+01 -2.090999e+01 -2.088683e+01 -2.088742e+01 -2.088391e+01 -2.085765e+01 -2.087405e+01 -2.082139e+01 -2.085732e+01 -2.077926e+01 -2.083394e+01 -2.073187e+01 -2.080427e+01 -2.067991e+01 -2.076873e+01 -2.062408e+01 -2.072784e+01 -2.056521e+01 -2.068217e+01 
-2.088039e+01 -2.068567e+01 -2.091932e+01 -2.072857e+01 -2.095934e+01 -2.077177e+01 -2.099991e+01 -2.081467e+01 -2.104048e+01 -2.085669e+01 -2.108048e+01 -2.089722e+01 -2.111935e+01 -2.093568e+01 -2.115656e+01 -2.097155e+01 -2.119160e+01 -2.100434e+01 -2.122404e+01 -2.103366e+01 -2.125346e+01 -2.105917e+01 -2.127955e+01 -2.108064e+01 -2.130205e+01 -2.109791e+01 -2.132075e+01 -2.111092e+01 -2.133553e+01 -2.111967e+01 -2.134631e+01 -2.112422e+01 -2.135306e+01 -2.112467e+01 -2.135577e+01 -2.112114e+01 -2.135445e+01 -2.111375e+01 -2.134913e+01 -2.110261e+01 -2.133982e+01 -2.108777e+01 -2.132648e+01 -2.106924e+01 -2.130909e+01 -2.104694e+01 -2.128760e+01 -2.102077e+01 -2.126193e+01 -2.099058e+01 -2.123209e+01 -2.095624e+01 -2.119814e+01 -2.091774e+01 -2.116031e+01 -2.087527e+01 -2.111907e+01 -2.082935e+01 -2.107513e+01 -2.078087e+01 -2.102947e+01 -2.073108e+01 -2.098316e+01 -2.068138e+01 -2.093716e+01 -2.063307e+01 -2.089210e+01 -2.058699e+01 -2.084817e+01 -2.054343e+01 -2.080530e+01 -2.050233e+01 -2.076358e+01 -2.046365e+01 -2.072372e+01 -2.042776e+01 -2.068722e+01 -2.039549e+01 -2.065597e+01 -2.036777e+01 -2.063135e+01 -2.034503e+01 -2.061318e+01 -2.032669e+01 -2.059953e+01 -2.031116e+01 -2.058805e+01 -2.029616e+01 -2.057850e+01 -2.027945e+01 -2.057364e+01 -2.026216e+01 -2.057446e+01 -2.025440e+01 -2.057541e+01 -2.025668e+01 -2.057602e+01 -2.026818e+01 -2.057013e+01 -2.028412e+01 -2.056495e+01 -2.030821e+01 -2.057211e+01 -2.033692e+01 -2.060607e+01 -2.034413e+01 -2.062090e+01 -2.035112e+01 -2.063050e+01 -2.036429e+01 -2.064139e+01 -2.038298e+01 -2.065534e+01 -2.040579e+01 -2.067268e+01 -2.043191e+01 -2.069340e+01 -2.046096e+01 -2.071742e+01 -2.049277e+01 -2.074461e+01 -2.052717e+01 -2.077479e+01 -2.056398e+01 -2.080771e+01 -2.060291e+01 -2.084303e+01 -2.064362e+01 
-2.050840e+01 -2.064376e+01 -2.044282e+01 -2.058788e+01 -2.037688e+01 -2.052923e+01 -2.031161e+01 -2.046873e+01 -2.024808e+01 -2.040733e+01 -2.018730e+01 -2.034602e+01 -2.013026e+01 -2.028580e+01 -2.007785e+01 -2.022761e+01 -2.003085e+01 -2.017240e+01 -1.998991e+01 -2.012099e+01 -1.995556e+01 -2.007413e+01 -1.992815e+01 -2.003245e+01 -1.990789e+01 -1.999645e+01 -1.989483e+01 -1.996649e+01 -1.988886e+01 -1.994276e+01 -1.988973e+01 -1.992531e+01 -1.989704e+01 -1.991402e+01 -1.991024e+01 -1.990862e+01 -1.992867e+01 -1.990866e+01 -1.995152e+01 -1.991350e+01 -1.997787e+01 -1.992238e+01 -2.000669e+01 -1.993436e+01 -2.003690e+01 -1.994838e+01 -2.006734e+01 -1.996328e+01 -2.009686e+01 -1.997789e+01 -2.012439e+01 -1.999109e+01 -2.014899e+01 -2.000190e+01 -2.016991e+01 -2.000959e+01 -2.018671e+01 -2.001383e+01 -2.019925e+01 -2.001474e+01 -2.020779e+01 -2.001301e+01 -2.021303e+01 -2.000996e+01 -2.021624e+01 -2.000767e+01 -2.021936e+01 -2.000889e+01 -2.022504e+01 -2.001689e+01 -2.023643e+01 -2.003490e+01 -2.025660e+01 -2.006540e+01 -2.028794e+01 -2.010953e+01 -2.033160e+01 -2.016669e+01 -2.038715e+01 -2.023454e+01 -2.045262e+01 -2.030885e+01 -2.052463e+01 -2.038352e+01 -2.059902e+01 -2.045150e+01 -2.067163e+01 -2.050788e+01 -2.073760e+01 -2.055290e+01 -2.078852e+01 -2.058550e+01 -2.081621e+01 -2.060483e+01 -2.083043e+01 -2.063039e+01 -2.083522e+01 -2.067555e+01 -2.085848e+01 -2.074018e+01 -2.088396e+01 -2.080996e+01 -2.090926e+01 -2.087140e+01 -2.095400e+01 -2.088603e+01 -2.096333e+01 -2.089726e+01 -2.095548e+01 -2.090650e+01 -2.093784e+01 -2.091054e+01 -2.091257e+01 -2.090765e+01 -2.088042e+01 -2.089738e+01 -2.084188e+01 -2.087981e+01 -2.079742e+01 -2.085526e+01 -2.074759e+01 -2.082412e+01 -2.069302e+01 -2.078685e+01 -2.063442e+01 -2.074396e+01 -2.057258e+01 -2.069604e+01 
-2.087471e+01 -2.068283e+01 -2.091546e+01 -2.072775e+01 -2.095744e+01 -2.077309e+01 -2.100005e+01 -2.081818e+01 -2.104270e+01 -2.086238e+01 -2.108476e+01 -2.090501e+01 -2.112562e+01 -2.094544e+01 -2.116469e+01 -2.098306e+01 -2.120143e+01 -2.101737e+01 -2.123536e+01 -2.104793e+01 -2.126607e+01 -2.107439e+01 -2.129321e+01 -2.109652e+01 -2.131652e+01 -2.111417e+01 -2.133582e+01 -2.112732e+01 -2.135101e+01 -2.113600e+01 -2.136204e+01 -2.114034e+01 -2.136892e+01 -2.114049e+01 -2.137168e+01 -2.113664e+01 -2.137038e+01 -2.112899e+01 -2.136507e+01 -2.111767e+01 -2.135577e+01 -2.110277e+01 -2.134246e+01 -2.108430e+01 -2.132507e+01 -2.106214e+01 -2.130348e+01 -2.103607e+01 -2.127750e+01 -2.100577e+01 -2.124699e+01 -2.097090e+01 -2.121187e+01 -2.093121e+01 -2.117223e+01 -2.088667e+01 -2.112851e+01 -2.083773e+01 -2.108155e+01 -2.078545e+01 -2.103263e+01 -2.073151e+01 -2.098329e+01 -2.067799e+01 -2.093494e+01 -2.062678e+01 -2.088834e+01 -2.057896e+01 -2.084330e+01 -2.053449e+01 -2.079897e+01 -2.049256e+01 -2.075466e+01 -2.045252e+01 -2.071095e+01 -2.041465e+01 -2.067021e+01 -2.038051e+01 -2.063608e+01 -2.035211e+01 -2.061160e+01 -2.033063e+01 -2.059677e+01 -2.031534e+01 -2.058727e+01 -2.030359e+01 -2.057674e+01 -2.029112e+01 -2.056417e+01 -2.027060e+01 -2.055921e+01 -2.023741e+01 -2.056872e+01 -2.022687e+01 -2.057197e+01 -2.023072e+01 -2.057964e+01 -2.025025e+01 -2.056144e+01 -2.026526e+01 -2.053779e+01 -2.029934e+01 -2.052902e+01 -2.036406e+01 -2.062547e+01 -2.034387e+01 -2.062662e+01 -2.033870e+01 -2.062638e+01 -2.035021e+01 -2.063292e+01 -2.036987e+01 -2.064498e+01 -2.039377e+01 -2.066150e+01 -2.042071e+01 -2.068197e+01 -2.045045e+01 -2.070617e+01 -2.048300e+01 -2.073390e+01 -2.051831e+01 -2.076493e+01 -2.055626e+01 -2.079899e+01 -2.059659e+01 -2.083573e+01 -2.063893e+01 
-2.051405e+01 -2.065873e+01 -2.044425e+01 -2.059931e+01 -2.037399e+01 -2.053689e+01 -2.030442e+01 -2.047244e+01 -2.023671e+01 -2.040701e+01 -2.017199e+01 -2.034167e+01 -2.011134e+01 -2.027753e+01 -2.005574e+01 -2.021564e+01 -2.000606e+01 -2.015702e+01 -1.996302e+01 -2.010261e+01 -1.992716e+01 -2.005321e+01 -1.989889e+01 -2.000954e+01 -1.987841e+01 -1.997212e+01 -1.986577e+01 -1.994136e+01 -1.986085e+01 -1.991748e+01 -1.986337e+01 -1.990055e+01 -1.987291e+01 -1.989045e+01 -1.988889e+01 -1.988690e+01 -1.991058e+01 -1.988942e+01 -1.993711e+01 -1.989733e+01 -1.996748e+01 -1.990977e+01 -2.000055e+01 -1.992567e+01 -2.003505e+01 -1.994378e+01 -2.006966e+01 -1.996273e+01 -2.010300e+01 -1.998102e+01 -2.013372e+01 -1.999720e+01 -2.016063e+01 -2.000991e+01 -2.018276e+01 -2.001811e+01 -2.019945e+01 -2.002116e+01 -2.021039e+01 -2.001898e+01 -2.021570e+01 -2.001216e+01 -2.021593e+01 -2.000207e+01 -2.021230e+01 -1.999113e+01 -2.020703e+01 -1.998299e+01 -2.020360e+01 -1.998237e+01 -2.020657e+01 -1.999428e+01 -2.022065e+01 -2.002273e+01 -2.024960e+01 -2.006974e+01 -2.029535e+01 -2.013489e+01 -2.035757e+01 -2.021546e+01 -2.043366e+01 -2.030625e+01 -2.051888e+01 -2.039828e+01 -2.060741e+01 -2.047869e+01 -2.069509e+01 -2.053761e+01 -2.077908e+01 -2.058289e+01 -2.084303e+01 -2.061068e+01 -2.085558e+01 -2.059695e+01 -2.085649e+01 -2.059945e+01 -2.081983e+01 -2.064652e+01 -2.086105e+01 -2.073904e+01 -2.089196e+01 -2.084020e+01 -2.090076e+01 -2.095774e+01 -2.102282e+01 -2.091845e+01 -2.101502e+01 -2.092342e+01 -2.099639e+01 -2.093513e+01 -2.097334e+01 -2.094117e+01 -2.094462e+01 -2.093881e+01 -2.090960e+01 -2.092802e+01 -2.086828e+01 -2.090931e+01 -2.082096e+01 -2.088318e+01 -2.076807e+01 -2.085012e+01 -2.071018e+01 -2.081059e+01 -2.064799e+01 -2.076510e+01 -2.058231e+01 -2.071426e+01 
-2.086728e+01 -2.067898e+01 -2.091038e+01 -2.072653e+01 -2.095490e+01 -2.077464e+01 -2.100017e+01 -2.082260e+01 -2.104552e+01 -2.086964e+01 -2.109024e+01 -2.091501e+01 -2.113367e+01 -2.095799e+01 -2.117515e+01 -2.099790e+01 -2.121407e+01 -2.103416e+01 -2.124992e+01 -2.106630e+01 -2.128224e+01 -2.109395e+01 -2.131069e+01 -2.111687e+01 -2.133500e+01 -2.113495e+01 -2.135502e+01 -2.114818e+01 -2.137066e+01 -2.115668e+01 -2.138193e+01 -2.116064e+01 -2.138890e+01 -2.116031e+01 -2.139166e+01 -2.115597e+01 -2.139033e+01 -2.114789e+01 -2.138500e+01 -2.113631e+01 -2.137575e+01 -2.112137e+01 -2.136254e+01 -2.110307e+01 -2.134528e+01 -2.108127e+01 -2.132375e+01 -2.105561e+01 -2.129763e+01 -2.102555e+01 -2.126655e+01 -2.099043e+01 -2.123015e+01 -2.094955e+01 -2.118829e+01 -2.090251e+01 -2.114125e+01 -2.084951e+01 -2.108998e+01 -2.079173e+01 -2.103626e+01 -2.073158e+01 -2.098250e+01 -2.067235e+01 -2.093105e+01 -2.061719e+01 -2.088310e+01 -2.056769e+01 -2.083783e+01 -2.052311e+01 -2.079274e+01 -2.048106e+01 -2.074530e+01 -2.043935e+01 -2.069537e+01 -2.039801e+01 -2.064676e+01 -2.035996e+01 -2.060672e+01 -2.032969e+01 -2.058236e+01 -2.031017e+01 -2.057514e+01 -2.030053e+01 -2.057610e+01 -2.029685e+01 -2.056758e+01 -2.029423e+01 -2.054234e+01 -2.027455e+01 -2.053047e+01 -2.019014e+01 -2.056937e+01 -2.018505e+01 -2.056418e+01 -2.018916e+01 -2.060914e+01 -2.023682e+01 -2.055818e+01 -2.022729e+01 -2.049568e+01 -2.025974e+01 -2.038049e+01 -2.047586e+01 -2.074014e+01 -2.032863e+01 -2.063372e+01 -2.030960e+01 -2.061550e+01 -2.032797e+01 -2.061892e+01 -2.035254e+01 -2.063018e+01 -2.037873e+01 -2.064636e+01 -2.040671e+01 -2.066685e+01 -2.043715e+01 -2.069141e+01 -2.047047e+01 -2.071989e+01 -2.050683e+01 -2.075206e+01 -2.054618e+01 -2.078761e+01 -2.058826e+01 -2.082617e+01 -2.063269e+01 
-2.052126e+01 -2.067760e+01 -2.044612e+01 -2.061376e+01 -2.037040e+01 -2.054658e+01 -2.029538e+01 -2.047714e+01 -2.022235e+01 -2.040659e+01 -2.015261e+01 -2.033614e+01 -2.008736e+01 -2.026700e+01 -2.002772e+01 -2.020040e+01 -1.997465e+01 -2.013745e+01 -1.992894e+01 -2.007921e+01 -1.989119e+01 -2.002659e+01 -1.986184e+01 -1.998036e+01 -1.984109e+01 -1.994113e+01 -1.982899e+01 -1.990934e+01 -1.982540e+01 -1.988526e+01 -1.983001e+01 -1.986896e+01 -1.984236e+01 -1.986035e+01 -1.986183e+01 -1.985913e+01 -1.988764e+01 -1.986480e+01 -1.991887e+01 -1.987664e+01 -1.995440e+01 -1.989370e+01 -1.999297e+01 -1.991477e+01 -2.003313e+01 -1.993838e+01 -2.007329e+01 -1.996285e+01 -2.011177e+01 -1.998631e+01 -2.014690e+01 -2.000680e+01 -2.017711e+01 -2.002249e+01 -2.020111e+01 -2.003184e+01 -2.021799e+01 -2.003379e+01 -2.022725e+01 -2.002795e+01 -2.022878e+01 -2.001465e+01 -2.022278e+01 -1.999511e+01 -2.021010e+01 -1.997189e+01 -2.019296e+01 -1.994968e+01 -2.017590e+01 -1.993548e+01 -2.016575e+01 -1.993727e+01 -2.017000e+01 -1.996169e+01 -2.019468e+01 -2.001203e+01 -2.024284e+01 -2.008787e+01 -2.031431e+01 -2.018635e+01 -2.040572e+01 -2.030252e+01 -2.050992e+01 -2.042477e+01 -2.061674e+01 -2.052746e+01 -2.072239e+01 -2.058114e+01 -2.084076e+01 -2.063059e+01 -2.094920e+01 -2.067760e+01 -2.090677e+01 -2.057356e+01 -2.092331e+01 -2.034793e+01 -2.029594e+01 -2.001582e+01 -2.008978e+01 -1.993514e+01 -2.011609e+01 -2.015615e+01 -2.020003e+01 -2.080570e+01 -2.119935e+01 -2.090676e+01 -2.107759e+01 -2.094286e+01 -2.104171e+01 -2.096946e+01 -2.101453e+01 -2.098021e+01 -2.098299e+01 -2.097840e+01 -2.094509e+01 -2.096660e+01 -2.090071e+01 -2.094622e+01 -2.085007e+01 -2.091804e+01 -2.079354e+01 -2.088258e+01 -2.073165e+01 -2.084028e+01 -2.066507e+01 -2.079162e+01 -2.059461e+01 -2.073716e+01 
-2.085784e+01 -2.067388e+01 -2.090390e+01 -2.072473e+01 -2.095161e+01 -2.077636e+01 -2.100022e+01 -2.082794e+01 -2.104895e+01 -2.087858e+01 -2.109703e+01 -2.092741e+01 -2.114368e+01 -2.097360e+01 -2.118816e+01 -2.101638e+01 -2.122980e+01 -2.105508e+01 -2.126801e+01 -2.108916e+01 -2.130230e+01 -2.111824e+01 -2.133231e+01 -2.114207e+01 -2.135779e+01 -2.116057e+01 -2.137859e+01 -2.117379e+01 -2.139468e+01 -2.118192e+01 -2.140614e+01 -2.118525e+01 -2.141310e+01 -2.118415e+01 -2.141574e+01 -2.117904e+01 -2.141428e+01 -2.117031e+01 -2.140888e+01 -2.115833e+01 -2.139968e+01 -2.114333e+01 -2.138669e+01 -2.112537e+01 -2.136978e+01 -2.110428e+01 -2.134865e+01 -2.107959e+01 -2.132277e+01 -2.105046e+01 -2.129147e+01 -2.101575e+01 -2.125395e+01 -2.097413e+01 -2.120960e+01 -2.092440e+01 -2.115828e+01 -2.086614e+01 -2.110094e+01 -2.080048e+01 -2.104002e+01 -2.073084e+01 -2.097951e+01 -2.066275e+01 -2.092378e+01 -2.060206e+01 -2.087530e+01 -2.055165e+01 -2.083234e+01 -2.050938e+01 -2.078901e+01 -2.046938e+01 -2.073865e+01 -2.042605e+01 -2.067871e+01 -2.037832e+01 -2.061502e+01 -2.033189e+01 -2.056194e+01 -2.029677e+01 -2.053620e+01 -2.028002e+01 -2.054549e+01 -2.027993e+01 -2.057461e+01 -2.028927e+01 -2.057535e+01 -2.031464e+01 -2.050742e+01 -2.034359e+01 -2.045136e+01 -2.006462e+01 -2.070914e+01 -1.921898e+01 -1.861422e+01 -1.791444e+01 -1.771744e+01 -1.755133e+01 -1.800198e+01 -1.797923e+01 -1.857681e+01 -1.869572e+01 -1.921576e+01 -1.963841e+01 -2.044189e+01 -2.011145e+01 -2.055283e+01 -2.024318e+01 -2.058299e+01 -2.029955e+01 -2.059710e+01 -2.033361e+01 -2.061046e+01 -2.036190e+01 -2.062696e+01 -2.039027e+01 -2.064764e+01 -2.042097e+01 -2.067275e+01 -2.045491e+01 -2.070220e+01 -2.049238e+01 -2.073581e+01 -2.053336e+01 -2.077324e+01 -2.057757e+01 -2.081409e+01 -2.062460e+01 
-2.053027e+01 -2.070076e+01 -2.044858e+01 -2.063154e+01 -2.036612e+01 -2.055854e+01 -2.028434e+01 -2.048296e+01 -2.020472e+01 -2.040608e+01 -2.012873e+01 -2.032928e+01 -2.005779e+01 -2.025396e+01 -1.999314e+01 -2.018149e+01 -1.993587e+01 -2.011318e+01 -1.988689e+01 -2.005019e+01 -1.984685e+01 -1.999358e+01 -1.981618e+01 -1.994419e+01 -1.979513e+01 -1.990271e+01 -1.978371e+01 -1.986963e+01 -1.978175e+01 -1.984526e+01 -1.978891e+01 -1.982970e+01 -1.980469e+01 -1.982286e+01 -1.982843e+01 -1.982447e+01 -1.985931e+01 -1.983402e+01 -1.989634e+01 -1.985075e+01 -1.993831e+01 -1.987364e+01 -1.998382e+01 -1.990135e+01 -2.003123e+01 -1.993216e+01 -2.007863e+01 -1.996404e+01 -2.012396e+01 -1.999460e+01 -2.016506e+01 -2.002128e+01 -2.019988e+01 -2.004151e+01 -2.022668e+01 -2.005306e+01 -2.024426e+01 -2.005432e+01 -2.025197e+01 -2.004450e+01 -2.024950e+01 -2.002353e+01 -2.023647e+01 -1.999199e+01 -2.021253e+01 -1.995179e+01 -2.017896e+01 -1.990854e+01 -2.014148e+01 -1.987279e+01 -2.011074e+01 -1.985785e+01 -2.009917e+01 -1.987502e+01 -2.011654e+01 -1.992913e+01 -2.016737e+01 -2.001851e+01 -2.025141e+01 -2.013983e+01 -2.036522e+01 -2.029287e+01 -2.049846e+01 -2.047097e+01 -2.062743e+01 -2.062553e+01 -2.073733e+01 -2.062930e+01 -2.091287e+01 -2.068198e+01 -2.123427e+01 -1.929475e+01 -1.788998e+01 -1.696129e+01 -1.647120e+01 -1.656697e+01 -1.712041e+01 -1.731785e+01 -1.802708e+01 -1.826487e+01 -1.890247e+01 -1.922080e+01 -1.972749e+01 -2.018645e+01 -2.085276e+01 -2.081171e+01 -2.105469e+01 -2.097196e+01 -2.107839e+01 -2.101967e+01 -2.106011e+01 -2.103183e+01 -2.102773e+01 -2.102800e+01 -2.098708e+01 -2.101377e+01 -2.093941e+01 -2.099094e+01 -2.088507e+01 -2.096020e+01 -2.082440e+01 -2.092190e+01 -2.075783e+01 -2.087635e+01 -2.068602e+01 -2.082394e+01 -2.060982e+01 -2.076518e+01 
-2.084610e+01 -2.066723e+01 -2.089579e+01 -2.072215e+01 -2.094742e+01 -2.077814e+01 -2.100014e+01 -2.083421e+01 -2.105305e+01 -2.088933e+01 -2.110526e+01 -2.094247e+01 -2.115587e+01 -2.099264e+01 -2.120402e+01 -2.103894e+01 -2.124896e+01 -2.108061e+01 -2.129001e+01 -2.111704e+01 -2.132665e+01 -2.114779e+01 -2.135848e+01 -2.117262e+01 -2.138526e+01 -2.119148e+01 -2.140687e+01 -2.120449e+01 -2.142335e+01 -2.121195e+01 -2.143485e+01 -2.121429e+01 -2.144162e+01 -2.121202e+01 -2.144394e+01 -2.120573e+01 -2.144217e+01 -2.119601e+01 -2.143659e+01 -2.118339e+01 -2.142743e+01 -2.116827e+01 -2.141479e+01 -2.115083e+01 -2.139856e+01 -2.113095e+01 -2.137834e+01 -2.110806e+01 -2.135341e+01 -2.108103e+01 -2.132268e+01 -2.104810e+01 -2.128471e+01 -2.100693e+01 -2.123800e+01 -2.095496e+01 -2.118149e+01 -2.089031e+01 -2.111562e+01 -2.081337e+01 -2.104355e+01 -2.072872e+01 -2.097191e+01 -2.064595e+01 -2.090945e+01 -2.057685e+01 -2.086220e+01 -2.052767e+01 -2.082740e+01 -2.049357e+01 -2.079257e+01 -2.046129e+01 -2.074182e+01 -2.041745e+01 -2.066611e+01 -2.035767e+01 -2.057303e+01 -2.029291e+01 -2.049021e+01 -2.024583e+01 -2.045529e+01 -2.023348e+01 -2.049625e+01 -2.025016e+01 -2.060185e+01 -2.026625e+01 -2.065244e+01 -2.033222e+01 -2.046885e+01 -1.976569e+01 -1.862924e+01 -1.634619e+01 -1.452616e+01 -1.454456e+01 -1.554108e+01 -1.541213e+01 -1.672196e+01 -1.683819e+01 -1.790864e+01 -1.796618e+01 -1.875932e+01 -1.886991e+01 -1.937479e+01 -1.980904e+01 -2.052103e+01 -2.016164e+01 -2.055339e+01 -2.025241e+01 -2.056668e+01 -2.029352e+01 -2.057609e+01 -2.032046e+01 -2.058762e+01 -2.034503e+01 -2.060338e+01 -2.037151e+01 -2.062404e+01 -2.040156e+01 -2.064974e+01 -2.043582e+01 -2.068038e+01 -2.047444e+01 -2.071573e+01 -2.051730e+01 -2.075545e+01 -2.056408e+01 -2.079910e+01 -2.061427e+01 