# vtk DataFile Version 2.0
Comment goes here
ASCII

DATASET STRUCTURED_POINTS
DIMENSIONS    128   128   1

ORIGIN    0.000   0.000   0.000
SPACING   0.0156250.015625   1.000

POINT_DATA   16384
SCALARS P double
LOOKUP_TABLE default

-1.376395e+02 -1.384750e+02 -1.372255e+02 -1.382470e+02 -1.368107e+02 -1.379999e+02 -1.364004e+02 -1.377369e+02 -1.359999e+02 -1.374617e+02 -1.356146e+02 -1.371779e+02 -1.352496e+02 -1.368894e+02 -1.349098e+02 -1.366002e+02 -1.345995e+02 -1.363142e+02 -1.343225e+02 -1.360353e+02 -1.340821e+02 -1.357672e+02 -1.338808e+02 -1.355135e+02 -1.337203e+02 -1.352774e+02 -1.336017e+02 -1.350619e+02 -1.335253e+02 -1.348696e+02 -1.334909e+02 -1.347028e+02 -1.334975e+02 -1.345633e+02 -1.335437e+02 -1.344525e+02 -1.336274e+02 -1.343714e+02 -1.337461e+02 -1.343206e+02 -1.338971e+02 -1.342999e+02 -1.340771e+02 -1.343091e+02 -1.342824e+02 -1.343470e+02 -1.345091e+02 -1.344121e+02 -1.347528e+02 -1.345021e+02 -1.350091e+02 -1.346143e+02 -1.352733e+02 -1.347454e+02 -1.355406e+02 -1.348917e+02 -1.358067e+02 -1.350493e+02 -1.360680e+02 -1.352146e+02 -1.363222e+02 -1.353847e+02 -1.365687e+02 -1.355577e+02 -1.368089e+02 -1.357330e+02 -1.370464e+02 -1.359116e+02 -1.372866e+02 -1.360951e+02 -1.375356e+02 -1.362856e+02 -1.377996e+02 -1.364838e+02 -1.380828e+02 -1.366888e+02 -1.383870e+02 -1.368968e+02 -1.387099e+02 -1.371013e+02 -1.390455e+02 -1.372935e+02 -1.393840e+02 -1.374647e+02 -1.397131e+02 -1.376089e+02 -1.400200e+02 -1.377255e+02 -1.402931e+02 -1.378213e+02 -1.405243e+02 -1.379084e+02 -1.407114e+02 -1.380012e+02 -1.408579e+02 -1.381119e+02 -1.409672e+02 -1.382453e+02 -1.410398e+02 -1.384007e+02 -1.410734e+02 -1.385714e+02 -1.410648e+02 -1.387463e+02 -1.410126e+02 -1.389124e+02 -1.409161e+02 -1.390579e+02 -1.407766e+02 -1.391747e+02 -1.405967e+02 -1.392578e+02 -1.403790e+02 -1.393053e+02 -1.401267e+02 -1.393164e+02 -1.398424e+02 -1.392918e+02 -1.395289e+02 -1.392324e+02 -1.391892e+02 -1.391398e+02 -1.388266e+02 -1.390157e+02 -1.384447e+02 -1.388620e+02 -1.380475e+02 -1.386809e+02 
-1.408242e+02 -1.397817e+02 -1.410659e+02 -1.401664e+02 -1.413181e+02 -1.405516e+02 -1.415777e+02 -1.409327e+02 -1.418413e+02 -1.413051e+02 -1.421059e+02 -1.416639e+02 -1.423682e+02 -1.420047e+02 -1.426250e+02 -1.423232e+02 -1.428732e+02 -1.426155e+02 -1.431100e+02 -1.428781e+02 -1.433325e+02 -1.431080e+02 -1.435381e+02 -1.433029e+02 -1.437243e+02 -1.434607e+02 -1.438888e+02 -1.435802e+02 -1.440295e+02 -1.436605e+02 -1.441444e+02 -1.437012e+02 -1.442317e+02 -1.437025e+02 -1.442900e+02 -1.436648e+02 -1.443178e+02 -1.435891e+02 -1.443141e+02 -1.434766e+02 -1.442784e+02 -1.433291e+02 -1.442102e+02 -1.431485e+02 -1.441098e+02 -1.429374e+02 -1.439781e+02 -1.426985e+02 -1.438162e+02 -1.424350e+02 -1.436260e+02 -1.421501e+02 -1.434098e+02 -1.418473e+02 -1.431702e+02 -1.415299e+02 -1.429101e+02 -1.412009e+02 -1.426326e+02 -1.408629e+02 -1.423407e+02 -1.405179e+02 -1.420377e+02 -1.401673e+02 -1.417265e+02 -1.398115e+02 -1.414103e+02 -1.394509e+02 -1.410931e+02 -1.390854e+02 -1.407796e+02 -1.387163e+02 -1.404764e+02 -1.383463e+02 -1.401916e+02 -1.379803e+02 -1.399352e+02 -1.376255e+02 -1.397169e+02 -1.372909e+02 -1.395446e+02 -1.369856e+02 -1.394219e+02 -1.367180e+02 -1.393476e+02 -1.364935e+02 -1.393156e+02 -1.363137e+02 -1.393167e+02 -1.361754e+02 -1.393398e+02 -1.360730e+02 -1.393722e+02 -1.360021e+02 -1.394017e+02 -1.359616e+02 -1.394215e+02 -1.359554e+02 -1.394302e+02 -1.359877e+02 -1.394312e+02 -1.360604e+02 -1.394301e+02 -1.361715e+02 -1.394322e+02 -1.363160e+02 -1.394413e+02 -1.364884e+02 -1.394617e+02 -1.366854e+02 -1.394983e+02 -1.369053e+02 -1.395550e+02 -1.371473e+02 -1.396344e+02 -1.374113e+02 -1.397377e+02 -1.376967e+02 -1.398651e+02 -1.380029e+02 -1.400161e+02 -1.383285e+02 -1.401894e+02 -1.386720e+02 -1.403833e+02 -1.390307e+02 -1.405957e+02 -1.394018e+02 
-1.376428e+02 -1.384860e+02 -1.372261e+02 -1.382564e+02 -1.368086e+02 -1.380076e+02 -1.363955e+02 -1.377428e+02 -1.359923e+02 -1.374657e+02 -1.356044e+02 -1.371799e+02 -1.352371e+02 -1.368895e+02 -1.348951e+02 -1.365983e+02 -1.345829e+02 -1.363104e+02 -1.343044e+02 -1.360297e+02 -1.340627e+02 -1.357598e+02 -1.338605e+02 -1.355045e+02 -1.336995e+02 -1.352670e+02 -1.335807e+02 -1.350502e+02 -1.335044e+02 -1.348568e+02 -1.334704e+02 -1.346890e+02 -1.334777e+02 -1.345488e+02 -1.335248e+02 -1.344375e+02 -1.336098e+02 -1.343562e+02 -1.337300e+02 -1.343054e+02 -1.338827e+02 -1.342852e+02 -1.340645e+02 -1.342950e+02 -1.342720e+02 -1.343339e+02 -1.345009e+02 -1.344003e+02 -1.347471e+02 -1.344918e+02 -1.350059e+02 -1.346058e+02 -1.352724e+02 -1.347387e+02 -1.355418e+02 -1.348868e+02 -1.358095e+02 -1.350460e+02 -1.360718e+02 -1.352126e+02 -1.363261e+02 -1.353835e+02 -1.365718e+02 -1.355568e+02 -1.368103e+02 -1.357320e+02 -1.370455e+02 -1.359102e+02 -1.372831e+02 -1.360935e+02 -1.375299e+02 -1.362842e+02 -1.377924e+02 -1.364836e+02 -1.380755e+02 -1.366910e+02 -1.383810e+02 -1.369023e+02 -1.387068e+02 -1.371107e+02 -1.390466e+02 -1.373065e+02 -1.393903e+02 -1.374799e+02 -1.397252e+02 -1.376235e+02 -1.400373e+02 -1.377364e+02 -1.403141e+02 -1.378258e+02 -1.405463e+02 -1.379056e+02 -1.407318e+02 -1.379924e+02 -1.408765e+02 -1.381005e+02 -1.409855e+02 -1.382344e+02 -1.410595e+02 -1.383930e+02 -1.410944e+02 -1.385693e+02 -1.410868e+02 -1.387509e+02 -1.410350e+02 -1.389230e+02 -1.409381e+02 -1.390729e+02 -1.407976e+02 -1.391922e+02 -1.406164e+02 -1.392765e+02 -1.403974e+02 -1.393243e+02 -1.401437e+02 -1.393352e+02 -1.398579e+02 -1.393099e+02 -1.395429e+02 -1.392497e+02 -1.392014e+02 -1.391561e+02 -1.388369e+02 -1.390308e+02 -1.384528e+02 -1.388759e+02 -1.380533e+02 -1.386934e+02 
-1.408116e+02 -1.397773e+02 -1.410562e+02 -1.401662e+02 -1.413113e+02 -1.405559e+02 -1.415739e+02 -1.409416e+02 -1.418408e+02 -1.413186e+02 -1.421085e+02 -1.416819e+02 -1.423740e+02 -1.420271e+02 -1.426339e+02 -1.423495e+02 -1.428852e+02 -1.426454e+02 -1.431248e+02 -1.429110e+02 -1.433500e+02 -1.431434e+02 -1.435580e+02 -1.433401e+02 -1.437465e+02 -1.434993e+02 -1.439131e+02 -1.436196e+02 -1.440556e+02 -1.437002e+02 -1.441722e+02 -1.437408e+02 -1.442610e+02 -1.437415e+02 -1.443205e+02 -1.437029e+02 -1.443494e+02 -1.436260e+02 -1.443465e+02 -1.435120e+02 -1.443111e+02 -1.433626e+02 -1.442429e+02 -1.431799e+02 -1.441421e+02 -1.429663e+02 -1.440094e+02 -1.427246e+02 -1.438459e+02 -1.424580e+02 -1.436536e+02 -1.421699e+02 -1.434347e+02 -1.418637e+02 -1.431920e+02 -1.415429e+02 -1.429284e+02 -1.412108e+02 -1.426472e+02 -1.408703e+02 -1.423519e+02 -1.405237e+02 -1.420455e+02 -1.401725e+02 -1.417313e+02 -1.398171e+02 -1.414121e+02 -1.394572e+02 -1.410912e+02 -1.390920e+02 -1.407727e+02 -1.387218e+02 -1.404626e+02 -1.383482e+02 -1.401695e+02 -1.379760e+02 -1.399039e+02 -1.376126e+02 -1.396776e+02 -1.372680e+02 -1.395003e+02 -1.369530e+02 -1.393773e+02 -1.366780e+02 -1.393073e+02 -1.364505e+02 -1.392833e+02 -1.362728e+02 -1.392950e+02 -1.361398e+02 -1.393305e+02 -1.360416e+02 -1.393749e+02 -1.359716e+02 -1.394115e+02 -1.359272e+02 -1.394326e+02 -1.359169e+02 -1.394380e+02 -1.359473e+02 -1.394334e+02 -1.360220e+02 -1.394269e+02 -1.361383e+02 -1.394258e+02 -1.362886e+02 -1.394308e+02 -1.364650e+02 -1.394469e+02 -1.366640e+02 -1.394800e+02 -1.368849e+02 -1.395343e+02 -1.371274e+02 -1.396125e+02 -1.373917e+02 -1.397155e+02 -1.376777e+02 -1.398434e+02 -1.379849e+02 -1.399954e+02 -1.383122e+02 -1.401702e+02 -1.386578e+02 -1.403660e+02 -1.390192e+02 -1.405807e+02 -1.393936e+02 
-1.376526e+02 -1.385197e+02 -1.372280e+02 -1.382852e+02 -1.368022e+02 -1.380312e+02 -1.363808e+02 -1.377610e+02 -1.359694e+02 -1.374782e+02 -1.355737e+02 -1.371867e+02 -1.351991e+02 -1.368903e+02 -1.348506e+02 -1.365933e+02 -1.345327e+02 -1.362996e+02 -1.342495e+02 -1.360133e+02 -1.340042e+02 -1.357383e+02 -1.337993e+02 -1.354781e+02 -1.336367e+02 -1.352361e+02 -1.335173e+02 -1.350153e+02 -1.334415e+02 -1.348185e+02 -1.334088e+02 -1.346479e+02 -1.334183e+02 -1.345054e+02 -1.334683e+02 -1.343926e+02 -1.335569e+02 -1.343106e+02 -1.336815e+02 -1.342599e+02 -1.338392e+02 -1.342406e+02 -1.340269e+02 -1.342524e+02 -1.342408e+02 -1.342943e+02 -1.344767e+02 -1.343645e+02 -1.347303e+02 -1.344608e+02 -1.349966e+02 -1.345800e+02 -1.352703e+02 -1.347185e+02 -1.355461e+02 -1.348721e+02 -1.358189e+02 -1.350363e+02 -1.360842e+02 -1.352069e+02 -1.363389e+02 -1.353803e+02 -1.365821e+02 -1.355543e+02 -1.368154e+02 -1.357288e+02 -1.370433e+02 -1.359054e+02 -1.372728e+02 -1.360874e+02 -1.375122e+02 -1.362787e+02 -1.377700e+02 -1.364816e+02 -1.380522e+02 -1.366961e+02 -1.383617e+02 -1.369179e+02 -1.386964e+02 -1.371388e+02 -1.390494e+02 -1.373465e+02 -1.394093e+02 -1.375275e+02 -1.397618e+02 -1.376701e+02 -1.400908e+02 -1.377711e+02 -1.403798e+02 -1.378398e+02 -1.406148e+02 -1.378958e+02 -1.407930e+02 -1.379621e+02 -1.409309e+02 -1.380634e+02 -1.410390e+02 -1.381986e+02 -1.411179e+02 -1.383677e+02 -1.411580e+02 -1.385619e+02 -1.411531e+02 -1.387649e+02 -1.411028e+02 -1.389565e+02 -1.410045e+02 -1.391195e+02 -1.408607e+02 -1.392461e+02 -1.406755e+02 -1.393337e+02 -1.404525e+02 -1.393821e+02 -1.401947e+02 -1.393920e+02 -1.399046e+02 -1.393648e+02 -1.395849e+02 -1.393020e+02 -1.392383e+02 -1.392054e+02 -1.388679e+02 -1.390767e+02 -1.384774e+02 -1.389180e+02 -1.380707e+02 -1.387315e+02 
-1.407862e+02 -1.397683e+02 -1.410363e+02 -1.401656e+02 -1.412973e+02 -1.405643e+02 -1.415662e+02 -1.409594e+02 -1.418394e+02 -1.413458e+02 -1.421136e+02 -1.417184e+02 -1.423855e+02 -1.420722e+02 -1.426516e+02 -1.424027e+02 -1.429089e+02 -1.427056e+02 -1.431542e+02 -1.429773e+02 -1.433848e+02 -1.432147e+02 -1.435978e+02 -1.434153e+02 -1.437909e+02 -1.435771e+02 -1.439617e+02 -1.436990e+02 -1.441080e+02 -1.437801e+02 -1.442280e+02 -1.438204e+02 -1.443198e+02 -1.438199e+02 -1.443819e+02 -1.437795e+02 -1.444128e+02 -1.437000e+02 -1.444115e+02 -1.435829e+02 -1.443770e+02 -1.434298e+02 -1.443089e+02 -1.432429e+02 -1.442073e+02 -1.430244e+02 -1.440727e+02 -1.427772e+02 -1.439062e+02 -1.425044e+02 -1.437096e+02 -1.422095e+02 -1.434853e+02 -1.418963e+02 -1.432361e+02 -1.415685e+02 -1.429653e+02 -1.412299e+02 -1.426766e+02 -1.408841e+02 -1.423740e+02 -1.405341e+02 -1.420611e+02 -1.401818e+02 -1.417411e+02 -1.398276e+02 -1.414163e+02 -1.394700e+02 -1.410888e+02 -1.391066e+02 -1.407609e+02 -1.387348e+02 -1.404372e+02 -1.383546e+02 -1.401261e+02 -1.379697e+02 -1.398406e+02 -1.375881e+02 -1.395961e+02 -1.372219e+02 -1.394076e+02 -1.368853e+02 -1.392837e+02 -1.365934e+02 -1.392232e+02 -1.363589e+02 -1.392162e+02 -1.361875e+02 -1.392495e+02 -1.360693e+02 -1.393122e+02 -1.359817e+02 -1.393855e+02 -1.359156e+02 -1.394367e+02 -1.358589e+02 -1.394593e+02 -1.358376e+02 -1.394557e+02 -1.358624e+02 -1.394371e+02 -1.359417e+02 -1.394183e+02 -1.360710e+02 -1.394135e+02 -1.362355e+02 -1.394098e+02 -1.364198e+02 -1.394163e+02 -1.366223e+02 -1.394419e+02 -1.368444e+02 -1.394917e+02 -1.370874e+02 -1.395676e+02 -1.373523e+02 -1.396703e+02 -1.376394e+02 -1.397993e+02 -1.379485e+02 -1.399534e+02 -1.382789e+02 -1.401313e+02 -1.386288e+02 -1.403310e+02 -1.389958e+02 -1.405501e+02 -1.393769e+02 
-1.376695e+02 -1.385764e+02 -1.372314e+02 -1.383339e+02 -1.367916e+02 -1.380713e+02 -1.363561e+02 -1.377919e+02 -1.359309e+02 -1.374996e+02 -1.355220e+02 -1.371982e+02 -1.351351e+02 -1.368919e+02 -1.347755e+02 -1.365849e+02 -1.344480e+02 -1.362816e+02 -1.341569e+02 -1.359860e+02 -1.339054e+02 -1.357021e+02 -1.336962e+02 -1.354337e+02 -1.335310e+02 -1.351843e+02 -1.334108e+02 -1.349568e+02 -1.333357e+02 -1.347542e+02 -1.333053e+02 -1.345788e+02 -1.333184e+02 -1.344325e+02 -1.333733e+02 -1.343171e+02 -1.334680e+02 -1.342337e+02 -1.336000e+02 -1.341831e+02 -1.337663e+02 -1.341654e+02 -1.339636e+02 -1.341805e+02 -1.341884e+02 -1.342273e+02 -1.344362e+02 -1.343042e+02 -1.347024e+02 -1.344084e+02 -1.349816e+02 -1.345368e+02 -1.352680e+02 -1.346850e+02 -1.355551e+02 -1.348482e+02 -1.358369e+02 -1.350212e+02 -1.361078e+02 -1.351987e+02 -1.363636e+02 -1.353765e+02 -1.366026e+02 -1.355517e+02 -1.368264e+02 -1.357242e+02 -1.370408e+02 -1.358968e+02 -1.372548e+02 -1.360753e+02 -1.374802e+02 -1.362661e+02 -1.377284e+02 -1.364742e+02 -1.380086e+02 -1.367009e+02 -1.383247e+02 -1.369418e+02 -1.386748e+02 -1.371863e+02 -1.390508e+02 -1.374180e+02 -1.394393e+02 -1.376159e+02 -1.398235e+02 -1.377591e+02 -1.401845e+02 -1.378379e+02 -1.404992e+02 -1.378661e+02 -1.407399e+02 -1.378754e+02 -1.408944e+02 -1.378970e+02 -1.410150e+02 -1.379924e+02 -1.411215e+02 -1.381288e+02 -1.412151e+02 -1.383169e+02 -1.412662e+02 -1.385451e+02 -1.412643e+02 -1.387902e+02 -1.412184e+02 -1.390187e+02 -1.411169e+02 -1.392033e+02 -1.409663e+02 -1.393404e+02 -1.407739e+02 -1.394318e+02 -1.405441e+02 -1.394802e+02 -1.402797e+02 -1.394878e+02 -1.399828e+02 -1.394570e+02 -1.396556e+02 -1.393898e+02 -1.393004e+02 -1.392881e+02 -1.389204e+02 -1.391538e+02 -1.385190e+02 -1.389889e+02 -1.381005e+02 -1.387956e+02 
-1.407473e+02 -1.397538e+02 -1.410059e+02 -1.401641e+02 -1.412760e+02 -1.405767e+02 -1.415543e+02 -1.409862e+02 -1.418372e+02 -1.413870e+02 -1.421212e+02 -1.417736e+02 -1.424028e+02 -1.421408e+02 -1.426784e+02 -1.424835e+02 -1.429448e+02 -1.427973e+02 -1.431988e+02 -1.430783e+02 -1.434374e+02 -1.433232e+02 -1.436580e+02 -1.435294e+02 -1.438579e+02 -1.436952e+02 -1.440350e+02 -1.438194e+02 -1.441871e+02 -1.439012e+02 -1.443122e+02 -1.439408e+02 -1.444085e+02 -1.439386e+02 -1.444746e+02 -1.438952e+02 -1.445088e+02 -1.438120e+02 -1.445099e+02 -1.436902e+02 -1.444769e+02 -1.435317e+02 -1.444092e+02 -1.433383e+02 -1.443066e+02 -1.431124e+02 -1.441693e+02 -1.428569e+02 -1.439983e+02 -1.425747e+02 -1.437953e+02 -1.422695e+02 -1.435626e+02 -1.419452e+02 -1.433033e+02 -1.416062e+02 -1.430211e+02 -1.412569e+02 -1.427205e+02 -1.409023e+02 -1.424065e+02 -1.405466e+02 -1.420836e+02 -1.401929e+02 -1.417556e+02 -1.398418e+02 -1.414242e+02 -1.394901e+02 -1.410887e+02 -1.391320e+02 -1.407483e+02 -1.387606e+02 -1.404042e+02 -1.383718e+02 -1.400640e+02 -1.379672e+02 -1.397436e+02 -1.375558e+02 -1.394662e+02 -1.371528e+02 -1.392563e+02 -1.367780e+02 -1.391304e+02 -1.364539e+02 -1.390875e+02 -1.362052e+02 -1.391088e+02 -1.360485e+02 -1.391741e+02 -1.359675e+02 -1.392828e+02 -1.359000e+02 -1.394179e+02 -1.358503e+02 -1.394909e+02 -1.357551e+02 -1.395120e+02 -1.357120e+02 -1.394881e+02 -1.357227e+02 -1.394403e+02 -1.358107e+02 -1.393948e+02 -1.359678e+02 -1.393995e+02 -1.361625e+02 -1.393787e+02 -1.363567e+02 -1.393672e+02 -1.365621e+02 -1.393810e+02 -1.367846e+02 -1.394243e+02 -1.370274e+02 -1.394978e+02 -1.372924e+02 -1.396006e+02 -1.375806e+02 -1.397316e+02 -1.378926e+02 -1.398893e+02 -1.382275e+02 -1.400720e+02 -1.385839e+02 -1.402775e+02 -1.389594e+02 -1.405036e+02 -1.393507e+02 
-1.376943e+02 -1.386568e+02 -1.372368e+02 -1.384030e+02 -1.367770e+02 -1.381282e+02 -1.363213e+02 -1.378359e+02 -1.358763e+02 -1.375300e+02 -1.354484e+02 -1.372146e+02 -1.350438e+02 -1.368942e+02 -1.346684e+02 -1.365732e+02 -1.343273e+02 -1.362561e+02 -1.340249e+02 -1.359472e+02 -1.337647e+02 -1.356509e+02 -1.335495e+02 -1.353709e+02 -1.333808e+02 -1.351108e+02 -1.332595e+02 -1.348739e+02 -1.331857e+02 -1.346631e+02 -1.331586e+02 -1.344807e+02 -1.331769e+02 -1.343290e+02 -1.332389e+02 -1.342098e+02 -1.333423e+02 -1.341243e+02 -1.334845e+02 -1.340737e+02 -1.336628e+02 -1.340582e+02 -1.338738e+02 -1.340779e+02 -1.341139e+02 -1.341317e+02 -1.343788e+02 -1.342180e+02 -1.346633e+02 -1.343339e+02 -1.349616e+02 -1.344757e+02 -1.352667e+02 -1.346384e+02 -1.355713e+02 -1.348161e+02 -1.358672e+02 -1.350025e+02 -1.361472e+02 -1.351909e+02 -1.364053e+02 -1.353754e+02 -1.366382e+02 -1.355518e+02 -1.368473e+02 -1.357199e+02 -1.370395e+02 -1.358841e+02 -1.372277e+02 -1.360538e+02 -1.374289e+02 -1.362407e+02 -1.376605e+02 -1.364545e+02 -1.379358e+02 -1.366991e+02 -1.382613e+02 -1.369697e+02 -1.386346e+02 -1.372532e+02 -1.390454e+02 -1.375277e+02 -1.394768e+02 -1.377609e+02 -1.399095e+02 -1.379125e+02 -1.403239e+02 -1.379543e+02 -1.406916e+02 -1.379102e+02 -1.409508e+02 -1.378427e+02 -1.410299e+02 -1.377583e+02 -1.411136e+02 -1.378805e+02 -1.412171e+02 -1.380071e+02 -1.413543e+02 -1.382256e+02 -1.414263e+02 -1.385103e+02 -1.414180e+02 -1.388308e+02 -1.413886e+02 -1.391243e+02 -1.412781e+02 -1.393347e+02 -1.411142e+02 -1.394812e+02 -1.409107e+02 -1.395744e+02 -1.406719e+02 -1.396206e+02 -1.403990e+02 -1.396238e+02 -1.400931e+02 -1.395873e+02 -1.397557e+02 -1.395136e+02 -1.393889e+02 -1.394047e+02 -1.389955e+02 -1.392626e+02 -1.385789e+02 -1.390891e+02 -1.381435e+02 -1.388864e+02 
-1.406945e+02 -1.397327e+02 -1.409646e+02 -1.401610e+02 -1.412470e+02 -1.405927e+02 -1.415381e+02 -1.410220e+02 -1.418343e+02 -1.414427e+02 -1.421316e+02 -1.418487e+02 -1.424263e+02 -1.422342e+02 -1.427147e+02 -1.425936e+02 -1.429934e+02 -1.429222e+02 -1.432590e+02 -1.432157e+02 -1.435085e+02 -1.434707e+02 -1.437391e+02 -1.436845e+02 -1.439483e+02 -1.438554e+02 -1.441338e+02 -1.439824e+02 -1.442934e+02 -1.440650e+02 -1.444254e+02 -1.441035e+02 -1.445280e+02 -1.440986e+02 -1.445994e+02 -1.440513e+02 -1.446382e+02 -1.439629e+02 -1.446429e+02 -1.438349e+02 -1.446123e+02 -1.436691e+02 -1.445455e+02 -1.434674e+02 -1.444419e+02 -1.432319e+02 -1.443014e+02 -1.429652e+02 -1.441246e+02 -1.426703e+02 -1.439130e+02 -1.423508e+02 -1.436688e+02 -1.420109e+02 -1.433952e+02 -1.416555e+02 -1.430965e+02 -1.412902e+02 -1.427784e+02 -1.409217e+02 -1.424476e+02 -1.405568e+02 -1.421109e+02 -1.402012e+02 -1.417735e+02 -1.398565e+02 -1.414364e+02 -1.395177e+02 -1.410954e+02 -1.391731e+02 -1.407425e+02 -1.388079e+02 -1.403723e+02 -1.384105e+02 -1.399886e+02 -1.379789e+02 -1.396113e+02 -1.375230e+02 -1.392764e+02 -1.370629e+02 -1.390275e+02 -1.366248e+02 -1.388980e+02 -1.362415e+02 -1.388886e+02 -1.359590e+02 -1.389566e+02 -1.358324e+02 -1.390540e+02 -1.358509e+02 -1.392265e+02 -1.358002e+02 -1.395128e+02 -1.358311e+02 -1.395974e+02 -1.355996e+02 -1.396102e+02 -1.355327e+02 -1.395441e+02 -1.355050e+02 -1.394399e+02 -1.356093e+02 -1.393191e+02 -1.358249e+02 -1.394090e+02 -1.360889e+02 -1.393376e+02 -1.362823e+02 -1.392931e+02 -1.364851e+02 -1.392913e+02 -1.367057e+02 -1.393282e+02 -1.369467e+02 -1.394001e+02 -1.372107e+02 -1.395043e+02 -1.374999e+02 -1.396388e+02 -1.378151e+02 -1.398017e+02 -1.381561e+02 -1.399911e+02 -1.385213e+02 -1.402048e+02 -1.389082e+02 -1.404402e+02 -1.393135e+02 
-1.377281e+02 -1.387620e+02 -1.372450e+02 -1.384937e+02 -1.367587e+02 -1.382031e+02 -1.362762e+02 -1.378938e+02 -1.358047e+02 -1.375701e+02 -1.353516e+02 -1.372364e+02 -1.349236e+02 -1.368973e+02 -1.345272e+02 -1.365578e+02 -1.341681e+02 -1.362226e+02 -1.338510e+02 -1.358964e+02 -1.335796e+02 -1.355837e+02 -1.333566e+02 -1.352885e+02 -1.331836e+02 -1.350147e+02 -1.330613e+02 -1.347655e+02 -1.329894e+02 -1.345439e+02 -1.329669e+02 -1.343525e+02 -1.329923e+02 -1.341936e+02 -1.330634e+02 -1.340691e+02 -1.331781e+02 -1.339807e+02 -1.333336e+02 -1.339297e+02 -1.335273e+02 -1.339168e+02 -1.337561e+02 -1.339423e+02 -1.340162e+02 -1.340053e+02 -1.343035e+02 -1.341042e+02 -1.346126e+02 -1.342359e+02 -1.349370e+02 -1.343960e+02 -1.352685e+02 -1.345788e+02 -1.355979e+02 -1.347770e+02 -1.359149e+02 -1.349828e+02 -1.362093e+02 -1.351874e+02 -1.364721e+02 -1.353821e+02 -1.366974e+02 -1.355602e+02 -1.368849e+02 -1.357196e+02 -1.370428e+02 -1.358668e+02 -1.371893e+02 -1.360175e+02 -1.373505e+02 -1.361924e+02 -1.375537e+02 -1.364101e+02 -1.378199e+02 -1.366786e+02 -1.381582e+02 -1.369929e+02 -1.385650e+02 -1.373363e+02 -1.390254e+02 -1.376830e+02 -1.395161e+02 -1.379885e+02 -1.400137e+02 -1.381741e+02 -1.405079e+02 -1.381544e+02 -1.409907e+02 -1.379763e+02 -1.413415e+02 -1.378271e+02 -1.411618e+02 -1.374141e+02 -1.411932e+02 -1.377649e+02 -1.412794e+02 -1.377932e+02 -1.415583e+02 -1.380671e+02 -1.416652e+02 -1.384382e+02 -1.415898e+02 -1.388951e+02 -1.416367e+02 -1.393108e+02 -1.414914e+02 -1.395295e+02 -1.413013e+02 -1.396754e+02 -1.410836e+02 -1.397651e+02 -1.408348e+02 -1.398052e+02 -1.405527e+02 -1.398010e+02 -1.402366e+02 -1.397564e+02 -1.398869e+02 -1.396740e+02 -1.395055e+02 -1.395560e+02 -1.390950e+02 -1.394040e+02 -1.386588e+02 -1.392196e+02 -1.382014e+02 -1.390049e+02 
-1.406269e+02 -1.397035e+02 -1.409117e+02 -1.401551e+02 -1.412099e+02 -1.406117e+02 -1.415176e+02 -1.410668e+02 -1.418306e+02 -1.415134e+02 -1.421450e+02 -1.419447e+02 -1.424565e+02 -1.423539e+02 -1.427613e+02 -1.427351e+02 -1.430556e+02 -1.430827e+02 -1.433359e+02 -1.433921e+02 -1.435990e+02 -1.436598e+02 -1.438422e+02 -1.438831e+02 -1.440629e+02 -1.440601e+02 -1.442589e+02 -1.441902e+02 -1.444281e+02 -1.442733e+02 -1.445687e+02 -1.443100e+02 -1.446790e+02 -1.443014e+02 -1.447574e+02 -1.442489e+02 -1.448023e+02 -1.441540e+02 -1.448120e+02 -1.440184e+02 -1.447851e+02 -1.438438e+02 -1.447200e+02 -1.436318e+02 -1.446159e+02 -1.433845e+02 -1.444719e+02 -1.431040e+02 -1.442884e+02 -1.427931e+02 -1.440660e+02 -1.424552e+02 -1.438069e+02 -1.420945e+02 -1.435141e+02 -1.417162e+02 -1.431925e+02 -1.413274e+02 -1.428492e+02 -1.409372e+02 -1.424939e+02 -1.405569e+02 -1.421379e+02 -1.401976e+02 -1.417903e+02 -1.398648e+02 -1.414526e+02 -1.395515e+02 -1.411147e+02 -1.392364e+02 -1.407566e+02 -1.388906e+02 -1.403580e+02 -1.384887e+02 -1.399131e+02 -1.380220e+02 -1.394445e+02 -1.375026e+02 -1.390089e+02 -1.369587e+02 -1.386861e+02 -1.364222e+02 -1.385490e+02 -1.359295e+02 -1.386121e+02 -1.355553e+02 -1.387726e+02 -1.354680e+02 -1.388564e+02 -1.358020e+02 -1.390568e+02 -1.356196e+02 -1.398109e+02 -1.360760e+02 -1.397774e+02 -1.352805e+02 -1.397878e+02 -1.353140e+02 -1.396379e+02 -1.351543e+02 -1.394548e+02 -1.352951e+02 -1.390289e+02 -1.356285e+02 -1.395751e+02 -1.360829e+02 -1.392673e+02 -1.361972e+02 -1.391753e+02 -1.363900e+02 -1.391630e+02 -1.366069e+02 -1.391982e+02 -1.368440e+02 -1.392715e+02 -1.371054e+02 -1.393792e+02 -1.373947e+02 -1.395191e+02 -1.377135e+02 -1.396892e+02 -1.380618e+02 -1.398874e+02 -1.384382e+02 -1.401116e+02 -1.388399e+02 -1.403591e+02 -1.392633e+02 
-1.377727e+02 -1.388935e+02 -1.372572e+02 -1.386072e+02 -1.367372e+02 -1.382970e+02 -1.362205e+02 -1.379667e+02 -1.357153e+02 -1.376206e+02 -1.352300e+02 -1.372638e+02 -1.347722e+02 -1.369013e+02 -1.343492e+02 -1.365384e+02 -1.339674e+02 -1.361805e+02 -1.336319e+02 -1.358326e+02 -1.333466e+02 -1.354995e+02 -1.331143e+02 -1.351855e+02 -1.329365e+02 -1.348945e+02 -1.328134e+02 -1.346300e+02 -1.327444e+02 -1.343951e+02 -1.327280e+02 -1.341924e+02 -1.327624e+02 -1.340243e+02 -1.328451e+02 -1.338930e+02 -1.329737e+02 -1.338006e+02 -1.331455e+02 -1.337486e+02 -1.333580e+02 -1.337384e+02 -1.336084e+02 -1.337707e+02 -1.338933e+02 -1.338451e+02 -1.342088e+02 -1.339601e+02 -1.345495e+02 -1.341123e+02 -1.349081e+02 -1.342966e+02 -1.352751e+02 -1.345061e+02 -1.356390e+02 -1.347323e+02 -1.359865e+02 -1.349652e+02 -1.363033e+02 -1.351935e+02 -1.365759e+02 -1.354046e+02 -1.367933e+02 -1.355859e+02 -1.369509e+02 -1.357306e+02 -1.370568e+02 -1.358459e+02 -1.371367e+02 -1.359579e+02 -1.372321e+02 -1.361045e+02 -1.373881e+02 -1.363201e+02 -1.376381e+02 -1.366199e+02 -1.379948e+02 -1.369954e+02 -1.384505e+02 -1.374240e+02 -1.389815e+02 -1.378838e+02 -1.395506e+02 -1.383355e+02 -1.401192e+02 -1.386373e+02 -1.406994e+02 -1.385088e+02 -1.414188e+02 -1.380120e+02 -1.422637e+02 -1.380778e+02 -1.410855e+02 -1.363195e+02 -1.416620e+02 -1.369372e+02 -1.400070e+02 -1.367962e+02 -1.404574e+02 -1.364679e+02 -1.408047e+02 -1.370400e+02 -1.405939e+02 -1.387238e+02 -1.421553e+02 -1.396909e+02 -1.417466e+02 -1.397952e+02 -1.415148e+02 -1.399253e+02 -1.412874e+02 -1.400058e+02 -1.410320e+02 -1.400354e+02 -1.407418e+02 -1.400202e+02 -1.404149e+02 -1.399647e+02 -1.400514e+02 -1.398717e+02 -1.396528e+02 -1.397427e+02 -1.392214e+02 -1.395789e+02 -1.387610e+02 -1.393817e+02 -1.382762e+02 -1.391525e+02 
-1.405433e+02 -1.396640e+02 -1.408464e+02 -1.401450e+02 -1.411642e+02 -1.406331e+02 -1.414924e+02 -1.411209e+02 -1.418264e+02 -1.416002e+02 -1.421618e+02 -1.420633e+02 -1.424941e+02 -1.425024e+02 -1.428190e+02 -1.429107e+02 -1.431324e+02 -1.432819e+02 -1.434306e+02 -1.436110e+02 -1.437103e+02 -1.438941e+02 -1.439686e+02 -1.441285e+02 -1.442030e+02 -1.443125e+02 -1.444115e+02 -1.444458e+02 -1.445920e+02 -1.445288e+02 -1.447429e+02 -1.445626e+02 -1.448627e+02 -1.445490e+02 -1.449498e+02 -1.444898e+02 -1.450025e+02 -1.443870e+02 -1.450190e+02 -1.442423e+02 -1.449974e+02 -1.440574e+02 -1.449357e+02 -1.438338e+02 -1.448320e+02 -1.435729e+02 -1.446851e+02 -1.432764e+02 -1.444941e+02 -1.429463e+02 -1.442592e+02 -1.425857e+02 -1.439817e+02 -1.421982e+02 -1.436641e+02 -1.417892e+02 -1.433113e+02 -1.413664e+02 -1.429318e+02 -1.409419e+02 -1.425397e+02 -1.405341e+02 -1.421545e+02 -1.401654e+02 -1.417949e+02 -1.398515e+02 -1.414672e+02 -1.395855e+02 -1.411534e+02 -1.393305e+02 -1.408118e+02 -1.390307e+02 -1.403927e+02 -1.386356e+02 -1.398662e+02 -1.381238e+02 -1.392521e+02 -1.375150e+02 -1.386376e+02 -1.368558e+02 -1.381669e+02 -1.361815e+02 -1.380032e+02 -1.354993e+02 -1.382364e+02 -1.348602e+02 -1.386603e+02 -1.346766e+02 -1.385370e+02 -1.362678e+02 -1.383396e+02 -1.349849e+02 -1.426078e+02 -1.349651e+02 -1.364057e+02 -1.324672e+02 -1.347957e+02 -1.305418e+02 -1.356705e+02 -1.309259e+02 -1.365557e+02 -1.321214e+02 -1.371936e+02 -1.344675e+02 -1.389101e+02 -1.357060e+02 -1.389792e+02 -1.360316e+02 -1.389761e+02 -1.362701e+02 -1.389871e+02 -1.364883e+02 -1.390306e+02 -1.367179e+02 -1.391095e+02 -1.369735e+02 -1.392233e+02 -1.372613e+02 -1.393706e+02 -1.375838e+02 -1.395499e+02 -1.379409e+02 -1.397592e+02 -1.383311e+02 -1.399964e+02 -1.387513e+02 -1.402588e+02 -1.391974e+02 
-1.378303e+02 -1.390532e+02 -1.372749e+02 -1.387456e+02 -1.367130e+02 -1.384118e+02 -1.361538e+02 -1.380558e+02 -1.356067e+02 -1.376825e+02 -1.350813e+02 -1.372974e+02 -1.345865e+02 -1.369061e+02 -1.341307e+02 -1.365148e+02 -1.337210e+02 -1.361291e+02 -1.333632e+02 -1.357548e+02 -1.330614e+02 -1.353970e+02 -1.328185e+02 -1.350603e+02 -1.326354e+02 -1.347487e+02 -1.325122e+02 -1.344659e+02 -1.324475e+02 -1.342149e+02 -1.324393e+02 -1.339985e+02 -1.324851e+02 -1.338191e+02 -1.325820e+02 -1.336792e+02 -1.327272e+02 -1.335811e+02 -1.329181e+02 -1.335272e+02 -1.331525e+02 -1.335194e+02 -1.334281e+02 -1.335593e+02 -1.337423e+02 -1.336472e+02 -1.340920e+02 -1.337820e+02 -1.344718e+02 -1.339601e+02 -1.348742e+02 -1.341755e+02 -1.352882e+02 -1.344198e+02 -1.356992e+02 -1.346827e+02 -1.360900e+02 -1.349526e+02 -1.364414e+02 -1.352160e+02 -1.367334e+02 -1.354546e+02 -1.369463e+02 -1.356453e+02 -1.370656e+02 -1.357678e+02 -1.370938e+02 -1.358258e+02 -1.370665e+02 -1.358624e+02 -1.370527e+02 -1.359479e+02 -1.371301e+02 -1.361488e+02 -1.373541e+02 -1.364919e+02 -1.377402e+02 -1.369536e+02 -1.382701e+02 -1.374890e+02 -1.389073e+02 -1.380968e+02 -1.395870e+02 -1.388294e+02 -1.402083e+02 -1.395233e+02 -1.407458e+02 -1.392233e+02 -1.417146e+02 -1.374875e+02 -1.461470e+02 -1.354389e+02 -1.325025e+02 -1.326345e+02 -1.345753e+02 -1.300385e+02 -1.364526e+02 -1.314661e+02 -1.379528e+02 -1.332959e+02 -1.393264e+02 -1.352861e+02 -1.403034e+02 -1.378178e+02 -1.415574e+02 -1.395113e+02 -1.418260e+02 -1.400343e+02 -1.417228e+02 -1.402242e+02 -1.415188e+02 -1.402977e+02 -1.412647e+02 -1.403110e+02 -1.409685e+02 -1.402807e+02 -1.406310e+02 -1.402120e+02 -1.402525e+02 -1.401068e+02 -1.398342e+02 -1.399656e+02 -1.393784e+02 -1.397887e+02 -1.388889e+02 -1.395769e+02 -1.383708e+02 -1.393311e+02 
-1.404424e+02 -1.396114e+02 -1.407677e+02 -1.401288e+02 -1.411092e+02 -1.406560e+02 -1.414622e+02 -1.411842e+02 -1.418218e+02 -1.417042e+02 -1.421827e+02 -1.422067e+02 -1.425401e+02 -1.426827e+02 -1.428891e+02 -1.431242e+02 -1.432252e+02 -1.435241e+02 -1.435446e+02 -1.438768e+02 -1.438438e+02 -1.441780e+02 -1.441198e+02 -1.444250e+02 -1.443701e+02 -1.446165e+02 -1.445929e+02 -1.447526e+02 -1.447865e+02 -1.448343e+02 -1.449493e+02 -1.448637e+02 -1.450802e+02 -1.448432e+02 -1.451778e+02 -1.447755e+02 -1.452402e+02 -1.446631e+02 -1.452657e+02 -1.445081e+02 -1.452518e+02 -1.443120e+02 -1.451957e+02 -1.440759e+02 -1.450946e+02 -1.438004e+02 -1.449461e+02 -1.434863e+02 -1.447480e+02 -1.431345e+02 -1.444995e+02 -1.427472e+02 -1.442004e+02 -1.423269e+02 -1.438521e+02 -1.418779e+02 -1.434576e+02 -1.414068e+02 -1.430257e+02 -1.409275e+02 -1.425755e+02 -1.404683e+02 -1.421409e+02 -1.400735e+02 -1.417630e+02 -1.397858e+02 -1.414636e+02 -1.396047e+02 -1.412166e+02 -1.394663e+02 -1.409424e+02 -1.392648e+02 -1.405343e+02 -1.388997e+02 -1.399087e+02 -1.383263e+02 -1.390657e+02 -1.375854e+02 -1.381312e+02 -1.367773e+02 -1.373501e+02 -1.359561e+02 -1.370648e+02 -1.350263e+02 -1.376675e+02 -1.337055e+02 -1.390919e+02 -1.321014e+02 -1.383351e+02 -1.334003e+02 -1.316166e+02 -1.358603e+02 -1.318779e+02 -1.288409e+02 -1.331760e+02 -1.248132e+02 -1.354518e+02 -1.272722e+02 -1.365261e+02 -1.301111e+02 -1.369788e+02 -1.323172e+02 -1.370976e+02 -1.347105e+02 -1.387265e+02 -1.355325e+02 -1.387655e+02 -1.359531e+02 -1.387621e+02 -1.361697e+02 -1.387782e+02 -1.363580e+02 -1.388278e+02 -1.365664e+02 -1.389134e+02 -1.368102e+02 -1.390349e+02 -1.370945e+02 -1.391915e+02 -1.374208e+02 -1.393819e+02 -1.377884e+02 -1.396045e+02 -1.381953e+02 -1.398573e+02 -1.386381e+02 -1.401377e+02 -1.391122e+02 