# vtk DataFile Version 2.0
Comment goes here
ASCII

DATASET STRUCTURED_POINTS
DIMENSIONS    128   128   1

ORIGIN    0.000   0.000   0.000
SPACING   0.0156250.015625   1.000

POINT_DATA   16384
SCALARS P double
LOOKUP_TABLE default

-2.967006e+02 -2.963741e+02 -2.961695e+02 -2.959746e+02 -2.956370e+02 -2.955549e+02 -2.951082e+02 -2.951210e+02 -2.945882e+02 -2.946794e+02 -2.940824e+02 -2.942364e+02 -2.935958e+02 -2.937982e+02 -2.931333e+02 -2.933709e+02 -2.926998e+02 -2.929603e+02 -2.922994e+02 -2.925718e+02 -2.919361e+02 -2.922105e+02 -2.916133e+02 -2.918810e+02 -2.913338e+02 -2.915873e+02 -2.911002e+02 -2.913329e+02 -2.909144e+02 -2.911211e+02 -2.907781e+02 -2.909543e+02 -2.906923e+02 -2.908347e+02 -2.906580e+02 -2.907639e+02 -2.906754e+02 -2.907429e+02 -2.907446e+02 -2.907722e+02 -2.908649e+02 -2.908513e+02 -2.910351e+02 -2.909793e+02 -2.912531e+02 -2.911538e+02 -2.915156e+02 -2.913713e+02 -2.918184e+02 -2.916269e+02 -2.921555e+02 -2.919141e+02 -2.925199e+02 -2.922251e+02 -2.929033e+02 -2.925506e+02 -2.932967e+02 -2.928809e+02 -2.936915e+02 -2.932065e+02 -2.940804e+02 -2.935195e+02 -2.944585e+02 -2.938145e+02 -2.948249e+02 -2.940894e+02 -2.951827e+02 -2.943456e+02 -2.955390e+02 -2.945868e+02 -2.959035e+02 -2.948181e+02 -2.962866e+02 -2.950435e+02 -2.966974e+02 -2.952652e+02 -2.971410e+02 -2.954822e+02 -2.976172e+02 -2.956908e+02 -2.981193e+02 -2.958854e+02 -2.986347e+02 -2.960603e+02 -2.991466e+02 -2.962111e+02 -2.996360e+02 -2.963373e+02 -3.000849e+02 -2.964446e+02 -3.004792e+02 -2.965456e+02 -3.008114e+02 -2.966573e+02 -3.010829e+02 -2.967933e+02 -3.012977e+02 -2.969566e+02 -3.014515e+02 -2.971478e+02 -3.015322e+02 -2.973614e+02 -3.015298e+02 -2.975832e+02 -3.014423e+02 -2.977929e+02 -3.012749e+02 -2.979699e+02 -3.010388e+02 -2.980991e+02 -3.007462e+02 -2.981718e+02 -3.004076e+02 -2.981843e+02 -3.000310e+02 -2.981363e+02 -2.996220e+02 -2.980296e+02 -2.991851e+02 -2.978674e+02 -2.987237e+02 -2.976535e+02 -2.982411e+02 -2.973922e+02 -2.977406e+02 -2.970885e+02 -2.972258e+02 -2.967473e+02 
-3.045155e+02 -3.018596e+02 -3.049661e+02 -3.023977e+02 -3.054311e+02 -3.029421e+02 -3.059041e+02 -3.034879e+02 -3.063786e+02 -3.040302e+02 -3.068484e+02 -3.045637e+02 -3.073072e+02 -3.050831e+02 -3.077491e+02 -3.055830e+02 -3.081687e+02 -3.060584e+02 -3.085609e+02 -3.065044e+02 -3.089211e+02 -3.069166e+02 -3.092454e+02 -3.072906e+02 -3.095301e+02 -3.076228e+02 -3.097722e+02 -3.079097e+02 -3.099692e+02 -3.081483e+02 -3.101187e+02 -3.083360e+02 -3.102189e+02 -3.084703e+02 -3.102685e+02 -3.085494e+02 -3.102664e+02 -3.085718e+02 -3.102119e+02 -3.085364e+02 -3.101053e+02 -3.084430e+02 -3.099471e+02 -3.082919e+02 -3.097391e+02 -3.080844e+02 -3.094837e+02 -3.078230e+02 -3.091844e+02 -3.075108e+02 -3.088454e+02 -3.071518e+02 -3.084712e+02 -3.067504e+02 -3.080666e+02 -3.063110e+02 -3.076360e+02 -3.058376e+02 -3.071830e+02 -3.053334e+02 -3.067103e+02 -3.048002e+02 -3.062193e+02 -3.042386e+02 -3.057111e+02 -3.036478e+02 -3.051869e+02 -3.030270e+02 -3.046493e+02 -3.023759e+02 -3.041047e+02 -3.016973e+02 -3.035638e+02 -3.009987e+02 -3.030433e+02 -3.002936e+02 -3.025644e+02 -2.996013e+02 -3.021496e+02 -2.989448e+02 -3.018183e+02 -2.983485e+02 -3.015819e+02 -2.978333e+02 -3.014408e+02 -2.974128e+02 -3.013849e+02 -2.970883e+02 -3.013972e+02 -2.968477e+02 -3.014574e+02 -2.966701e+02 -3.015435e+02 -2.965380e+02 -3.016327e+02 -2.964478e+02 -3.017087e+02 -2.964091e+02 -3.017666e+02 -2.964332e+02 -3.018072e+02 -2.965277e+02 -3.018345e+02 -2.966913e+02 -3.018550e+02 -2.969140e+02 -3.018778e+02 -2.971821e+02 -3.019161e+02 -2.974853e+02 -3.019835e+02 -2.978174e+02 -3.020899e+02 -2.981754e+02 -3.022414e+02 -2.985579e+02 -3.024405e+02 -2.989645e+02 -3.026868e+02 -2.993949e+02 -3.029784e+02 -2.998483e+02 -3.033118e+02 -3.003237e+02 -3.036826e+02 -3.008192e+02 -3.040857e+02 -3.013322e+02 
-2.967038e+02 -2.963872e+02 -2.961702e+02 -2.959847e+02 -2.956353e+02 -2.955619e+02 -2.951039e+02 -2.951250e+02 -2.945814e+02 -2.946803e+02 -2.940730e+02 -2.942341e+02 -2.935839e+02 -2.937929e+02 -2.931192e+02 -2.933627e+02 -2.926835e+02 -2.929494e+02 -2.922812e+02 -2.925584e+02 -2.919163e+02 -2.921949e+02 -2.915920e+02 -2.918634e+02 -2.913113e+02 -2.915679e+02 -2.910767e+02 -2.913120e+02 -2.908902e+02 -2.910989e+02 -2.907533e+02 -2.909312e+02 -2.906672e+02 -2.908109e+02 -2.906328e+02 -2.907398e+02 -2.906505e+02 -2.907189e+02 -2.907203e+02 -2.907486e+02 -2.908417e+02 -2.908289e+02 -2.910135e+02 -2.909585e+02 -2.912336e+02 -2.911353e+02 -2.914990e+02 -2.913558e+02 -2.918051e+02 -2.916151e+02 -2.921462e+02 -2.919065e+02 -2.925148e+02 -2.922219e+02 -2.929023e+02 -2.925518e+02 -2.932995e+02 -2.928860e+02 -2.936970e+02 -2.932145e+02 -2.940871e+02 -2.935293e+02 -2.944649e+02 -2.938247e+02 -2.948294e+02 -2.940990e+02 -2.951841e+02 -2.943540e+02 -2.955367e+02 -2.945945e+02 -2.958979e+02 -2.948260e+02 -2.962793e+02 -2.950534e+02 -2.966904e+02 -2.952784e+02 -2.971367e+02 -2.954995e+02 -2.976178e+02 -2.957119e+02 -2.981265e+02 -2.959089e+02 -2.986491e+02 -2.960839e+02 -2.991678e+02 -2.962320e+02 -2.996630e+02 -2.963524e+02 -3.001162e+02 -2.964509e+02 -3.005122e+02 -2.965419e+02 -3.008427e+02 -2.966460e+02 -3.011115e+02 -2.967801e+02 -3.013283e+02 -2.969430e+02 -3.014880e+02 -2.971368e+02 -3.015736e+02 -2.973575e+02 -3.015724e+02 -2.975895e+02 -3.014823e+02 -2.978095e+02 -3.013095e+02 -2.979942e+02 -3.010674e+02 -2.981277e+02 -3.007695e+02 -2.982021e+02 -3.004268e+02 -2.982146e+02 -3.000472e+02 -2.981656e+02 -2.996361e+02 -2.980573e+02 -2.991974e+02 -2.978932e+02 -2.987344e+02 -2.976771e+02 -2.982502e+02 -2.974135e+02 -2.977479e+02 -2.971071e+02 -2.972311e+02 -2.967632e+02 
-3.044949e+02 -3.018491e+02 -3.049517e+02 -3.023915e+02 -3.054232e+02 -3.029407e+02 -3.059027e+02 -3.034917e+02 -3.063838e+02 -3.040393e+02 -3.068598e+02 -3.045782e+02 -3.073245e+02 -3.051029e+02 -3.077720e+02 -3.056080e+02 -3.081967e+02 -3.060884e+02 -3.085935e+02 -3.065390e+02 -3.089578e+02 -3.069553e+02 -3.092856e+02 -3.073332e+02 -3.095735e+02 -3.076689e+02 -3.098183e+02 -3.079589e+02 -3.100175e+02 -3.082003e+02 -3.101691e+02 -3.083905e+02 -3.102710e+02 -3.085271e+02 -3.103220e+02 -3.086081e+02 -3.103209e+02 -3.086321e+02 -3.102671e+02 -3.085979e+02 -3.101606e+02 -3.085049e+02 -3.100020e+02 -3.083536e+02 -3.097927e+02 -3.081451e+02 -3.095351e+02 -3.078817e+02 -3.092327e+02 -3.075664e+02 -3.088896e+02 -3.072033e+02 -3.085107e+02 -3.067970e+02 -3.081009e+02 -3.063524e+02 -3.076652e+02 -3.058741e+02 -3.072075e+02 -3.053657e+02 -3.067309e+02 -3.048299e+02 -3.062371e+02 -3.042675e+02 -3.057268e+02 -3.036777e+02 -3.052003e+02 -3.030583e+02 -3.046590e+02 -3.024076e+02 -3.041073e+02 -3.017264e+02 -3.035553e+02 -3.010202e+02 -3.030197e+02 -3.003019e+02 -3.025238e+02 -2.995911e+02 -3.020934e+02 -2.989129e+02 -3.017516e+02 -2.982948e+02 -3.015123e+02 -2.977625e+02 -3.013762e+02 -2.973345e+02 -3.013312e+02 -2.970159e+02 -3.013578e+02 -2.967911e+02 -3.014356e+02 -2.966277e+02 -3.015421e+02 -2.964976e+02 -3.016465e+02 -2.963972e+02 -3.017270e+02 -2.963466e+02 -3.017838e+02 -2.963629e+02 -3.018202e+02 -2.964587e+02 -3.018411e+02 -2.966325e+02 -3.018529e+02 -2.968690e+02 -3.018626e+02 -2.971477e+02 -3.018876e+02 -2.974570e+02 -3.019448e+02 -2.977920e+02 -3.020452e+02 -2.981511e+02 -3.021941e+02 -2.985340e+02 -3.023933e+02 -2.989409e+02 -3.026417e+02 -2.993719e+02 -3.029367e+02 -2.998265e+02 -3.032745e+02 -3.003036e+02 -3.036503e+02 -3.008016e+02 -3.040590e+02 -3.013178e+02 
-2.967131e+02 -2.964268e+02 -2.961726e+02 -2.960154e+02 -2.956302e+02 -2.955834e+02 -2.950911e+02 -2.951370e+02 -2.945608e+02 -2.946828e+02 -2.940447e+02 -2.942274e+02 -2.935482e+02 -2.937771e+02 -2.930765e+02 -2.933382e+02 -2.926344e+02 -2.929168e+02 -2.922264e+02 -2.925183e+02 -2.918563e+02 -2.921480e+02 -2.915277e+02 -2.918104e+02 -2.912434e+02 -2.915096e+02 -2.910059e+02 -2.912492e+02 -2.908172e+02 -2.910324e+02 -2.906787e+02 -2.908618e+02 -2.905918e+02 -2.907395e+02 -2.905572e+02 -2.906673e+02 -2.905756e+02 -2.906465e+02 -2.906472e+02 -2.906777e+02 -2.907717e+02 -2.907611e+02 -2.909481e+02 -2.908956e+02 -2.911748e+02 -2.910795e+02 -2.914485e+02 -2.913091e+02 -2.917650e+02 -2.915796e+02 -2.921180e+02 -2.918838e+02 -2.924996e+02 -2.922129e+02 -2.929000e+02 -2.925563e+02 -2.933085e+02 -2.929024e+02 -2.937145e+02 -2.932402e+02 -2.941089e+02 -2.935601e+02 -2.944856e+02 -2.938564e+02 -2.948438e+02 -2.941280e+02 -2.951882e+02 -2.943787e+02 -2.955288e+02 -2.946159e+02 -2.958794e+02 -2.948480e+02 -2.962547e+02 -2.950811e+02 -2.966666e+02 -2.953168e+02 -2.971215e+02 -2.955513e+02 -2.976183e+02 -2.957763e+02 -2.981476e+02 -2.959815e+02 -2.986927e+02 -2.961574e+02 -2.992325e+02 -2.962975e+02 -2.997458e+02 -2.963998e+02 -3.002126e+02 -2.964702e+02 -3.006143e+02 -2.965274e+02 -3.009370e+02 -2.966057e+02 -3.011926e+02 -2.967383e+02 -3.014160e+02 -2.968983e+02 -3.015985e+02 -2.970989e+02 -3.017017e+02 -2.973420e+02 -3.017037e+02 -2.976078e+02 -3.016050e+02 -2.978620e+02 -3.014141e+02 -2.980701e+02 -3.011522e+02 -2.982159e+02 -3.008379e+02 -2.982947e+02 -3.004832e+02 -2.983066e+02 -3.000951e+02 -2.982543e+02 -2.996777e+02 -2.981411e+02 -2.992340e+02 -2.979709e+02 -2.987663e+02 -2.977482e+02 -2.982772e+02 -2.974774e+02 -2.977697e+02 -2.971635e+02 -2.972470e+02 -2.968114e+02 
-3.044533e+02 -3.018274e+02 -3.049229e+02 -3.023787e+02 -3.054074e+02 -3.029376e+02 -3.059001e+02 -3.034990e+02 -3.063941e+02 -3.040575e+02 -3.068828e+02 -3.046073e+02 -3.073595e+02 -3.051428e+02 -3.078182e+02 -3.056584e+02 -3.082531e+02 -3.061486e+02 -3.086591e+02 -3.066084e+02 -3.090316e+02 -3.070332e+02 -3.093666e+02 -3.074188e+02 -3.096606e+02 -3.077613e+02 -3.099107e+02 -3.080575e+02 -3.101145e+02 -3.083045e+02 -3.102700e+02 -3.084997e+02 -3.103753e+02 -3.086408e+02 -3.104291e+02 -3.087258e+02 -3.104302e+02 -3.087530e+02 -3.103779e+02 -3.087212e+02 -3.102718e+02 -3.086295e+02 -3.101123e+02 -3.084780e+02 -3.099005e+02 -3.082675e+02 -3.096386e+02 -3.080000e+02 -3.093299e+02 -3.076784e+02 -3.089786e+02 -3.073069e+02 -3.085898e+02 -3.068905e+02 -3.081692e+02 -3.064349e+02 -3.077225e+02 -3.059457e+02 -3.072548e+02 -3.054283e+02 -3.067702e+02 -3.048867e+02 -3.062710e+02 -3.043229e+02 -3.057574e+02 -3.037357e+02 -3.052278e+02 -3.031211e+02 -3.046804e+02 -3.024733e+02 -3.041158e+02 -3.017884e+02 -3.035412e+02 -3.010680e+02 -3.029737e+02 -3.003229e+02 -3.024406e+02 -2.995736e+02 -3.019755e+02 -2.988489e+02 -3.016105e+02 -2.981828e+02 -3.013656e+02 -2.976108e+02 -3.012414e+02 -2.971645e+02 -3.012200e+02 -2.968603e+02 -3.012752e+02 -2.966784e+02 -3.013883e+02 -2.965538e+02 -3.015440e+02 -2.964278e+02 -3.016843e+02 -2.962967e+02 -3.017688e+02 -2.962168e+02 -3.018209e+02 -2.962128e+02 -3.018484e+02 -2.963114e+02 -3.018564e+02 -2.965106e+02 -3.018529e+02 -2.967820e+02 -3.018323e+02 -2.970832e+02 -3.018275e+02 -2.974036e+02 -3.018636e+02 -2.977430e+02 -3.019521e+02 -2.981032e+02 -3.020968e+02 -2.984862e+02 -3.022970e+02 -2.988933e+02 -3.025501e+02 -2.993253e+02 -3.028523e+02 -2.997821e+02 -3.031990e+02 -3.002628e+02 -3.035852e+02 -3.007658e+02 -3.040053e+02 -3.012884e+02 
-2.967294e+02 -2.964933e+02 -2.961770e+02 -2.960669e+02 -2.956220e+02 -2.956194e+02 -2.950699e+02 -2.951572e+02 -2.945264e+02 -2.946871e+02 -2.939973e+02 -2.942159e+02 -2.934883e+02 -2.937503e+02 -2.930048e+02 -2.932969e+02 -2.925518e+02 -2.928617e+02 -2.921341e+02 -2.924507e+02 -2.917556e+02 -2.920690e+02 -2.914198e+02 -2.917212e+02 -2.911295e+02 -2.914116e+02 -2.908872e+02 -2.911437e+02 -2.906947e+02 -2.909206e+02 -2.905536e+02 -2.907450e+02 -2.904651e+02 -2.906192e+02 -2.904301e+02 -2.905451e+02 -2.904495e+02 -2.905243e+02 -2.905238e+02 -2.905578e+02 -2.906532e+02 -2.906461e+02 -2.908372e+02 -2.907887e+02 -2.910745e+02 -2.909842e+02 -2.913624e+02 -2.912293e+02 -2.916965e+02 -2.915189e+02 -2.920702e+02 -2.918452e+02 -2.924743e+02 -2.921981e+02 -2.928974e+02 -2.925652e+02 -2.933264e+02 -2.929327e+02 -2.937479e+02 -2.932865e+02 -2.941499e+02 -2.936152e+02 -2.945247e+02 -2.939120e+02 -2.948710e+02 -2.941769e+02 -2.951954e+02 -2.944173e+02 -2.955125e+02 -2.946461e+02 -2.958420e+02 -2.948772e+02 -2.962047e+02 -2.951204e+02 -2.966172e+02 -2.953769e+02 -2.970876e+02 -2.956380e+02 -2.976134e+02 -2.958883e+02 -2.981809e+02 -2.961102e+02 -2.987668e+02 -2.962895e+02 -2.993440e+02 -2.964172e+02 -2.998882e+02 -2.964889e+02 -3.003808e+02 -2.965065e+02 -3.007975e+02 -2.964924e+02 -3.010987e+02 -2.965107e+02 -3.013054e+02 -2.966685e+02 -3.015441e+02 -2.968124e+02 -3.017877e+02 -2.970178e+02 -3.019298e+02 -2.973028e+02 -3.019348e+02 -2.976370e+02 -3.018197e+02 -2.979606e+02 -3.015898e+02 -2.982087e+02 -3.012900e+02 -2.983717e+02 -3.009473e+02 -2.984544e+02 -3.005733e+02 -2.984632e+02 -3.001724e+02 -2.984039e+02 -2.997459e+02 -2.982817e+02 -2.992946e+02 -2.981013e+02 -2.988197e+02 -2.978674e+02 -2.983229e+02 -2.975846e+02 -2.978066e+02 -2.972579e+02 -2.972741e+02 -2.968923e+02 
-3.043901e+02 -3.017935e+02 -3.048791e+02 -3.023583e+02 -3.053835e+02 -3.029322e+02 -3.058963e+02 -3.035096e+02 -3.064101e+02 -3.040846e+02 -3.069180e+02 -3.046512e+02 -3.074130e+02 -3.052032e+02 -3.078886e+02 -3.057346e+02 -3.083391e+02 -3.062399e+02 -3.087589e+02 -3.067136e+02 -3.091436e+02 -3.071511e+02 -3.094892e+02 -3.075480e+02 -3.097923e+02 -3.079008e+02 -3.100502e+02 -3.082062e+02 -3.102607e+02 -3.084614e+02 -3.104220e+02 -3.086640e+02 -3.105323e+02 -3.088118e+02 -3.105904e+02 -3.089028e+02 -3.105950e+02 -3.089352e+02 -3.105450e+02 -3.089074e+02 -3.104400e+02 -3.088181e+02 -3.102796e+02 -3.086668e+02 -3.100645e+02 -3.084538e+02 -3.097964e+02 -3.081803e+02 -3.094782e+02 -3.078491e+02 -3.091141e+02 -3.074644e+02 -3.087096e+02 -3.070317e+02 -3.082713e+02 -3.065576e+02 -3.078064e+02 -3.060499e+02 -3.073220e+02 -3.055166e+02 -3.068243e+02 -3.049648e+02 -3.063172e+02 -3.043989e+02 -3.058007e+02 -3.038181e+02 -3.052704e+02 -3.032150e+02 -3.047183e+02 -3.025772e+02 -3.041376e+02 -3.018918e+02 -3.035292e+02 -3.011528e+02 -3.029089e+02 -3.003669e+02 -3.023111e+02 -2.995558e+02 -3.017841e+02 -2.987539e+02 -3.013776e+02 -2.980042e+02 -3.011242e+02 -2.973571e+02 -3.010247e+02 -2.968696e+02 -3.010457e+02 -2.965920e+02 -3.011411e+02 -2.965117e+02 -3.012997e+02 -2.964809e+02 -3.015605e+02 -2.963623e+02 -3.017770e+02 -2.961440e+02 -3.018423e+02 -2.960103e+02 -3.018817e+02 -2.959590e+02 -3.018947e+02 -2.960620e+02 -3.018816e+02 -2.963154e+02 -3.018692e+02 -2.966652e+02 -3.017862e+02 -2.969999e+02 -3.017272e+02 -2.973317e+02 -3.017303e+02 -2.976736e+02 -3.018033e+02 -2.980330e+02 -3.019442e+02 -2.984145e+02 -3.021480e+02 -2.988209e+02 -3.024095e+02 -2.992539e+02 -3.027233e+02 -2.997137e+02 -3.030840e+02 -3.001997e+02 -3.034861e+02 -3.007103e+02 -3.039236e+02 -3.012427e+02 
-2.967534e+02 -2.965874e+02 -2.961841e+02 -2.961399e+02 -2.956111e+02 -2.956703e+02 -2.950403e+02 -2.951856e+02 -2.944780e+02 -2.946929e+02 -2.939302e+02 -2.941993e+02 -2.934033e+02 -2.937120e+02 -2.929030e+02 -2.932378e+02 -2.924347e+02 -2.927833e+02 -2.920033e+02 -2.923544e+02 -2.916128e+02 -2.919566e+02 -2.912669e+02 -2.915946e+02 -2.909683e+02 -2.912726e+02 -2.907193e+02 -2.909940e+02 -2.905216e+02 -2.907621e+02 -2.903767e+02 -2.905794e+02 -2.902858e+02 -2.904484e+02 -2.902500e+02 -2.903713e+02 -2.902703e+02 -2.903499e+02 -2.903478e+02 -2.903859e+02 -2.904834e+02 -2.904806e+02 -2.906774e+02 -2.906342e+02 -2.909294e+02 -2.908459e+02 -2.912373e+02 -2.911129e+02 -2.915968e+02 -2.914300e+02 -2.920008e+02 -2.917888e+02 -2.924388e+02 -2.921774e+02 -2.928966e+02 -2.925807e+02 -2.933576e+02 -2.929808e+02 -2.938036e+02 -2.933595e+02 -2.942182e+02 -2.937011e+02 -2.945900e+02 -2.939964e+02 -2.949163e+02 -2.942466e+02 -2.952066e+02 -2.944650e+02 -2.954825e+02 -2.946745e+02 -2.957744e+02 -2.949000e+02 -2.961138e+02 -2.951584e+02 -2.965251e+02 -2.954509e+02 -2.970199e+02 -2.957599e+02 -2.975932e+02 -2.960558e+02 -2.982233e+02 -2.963082e+02 -2.988749e+02 -2.964960e+02 -2.995080e+02 -2.966092e+02 -3.000945e+02 -2.966403e+02 -3.006297e+02 -2.965761e+02 -3.010960e+02 -2.964237e+02 -3.013535e+02 -2.962744e+02 -3.013848e+02 -2.966112e+02 -3.016660e+02 -2.966634e+02 -3.020768e+02 -2.968552e+02 -3.022930e+02 -2.972124e+02 -3.022834e+02 -2.976750e+02 -3.021475e+02 -2.981343e+02 -3.018354e+02 -2.984329e+02 -3.014712e+02 -2.986085e+02 -3.010884e+02 -2.986886e+02 -3.006909e+02 -2.986882e+02 -3.002756e+02 -2.986167e+02 -2.998390e+02 -2.984806e+02 -2.993790e+02 -2.982853e+02 -2.988950e+02 -2.980355e+02 -2.983879e+02 -2.977359e+02 -2.978597e+02 -2.973912e+02 -2.973135e+02 -2.970065e+02 
-3.043045e+02 -3.017456e+02 -3.048199e+02 -3.023290e+02 -3.053515e+02 -3.029234e+02 -3.058916e+02 -3.035227e+02 -3.064325e+02 -3.041205e+02 -3.069665e+02 -3.047100e+02 -3.074863e+02 -3.052846e+02 -3.079849e+02 -3.058377e+02 -3.084562e+02 -3.063633e+02 -3.088946e+02 -3.068557e+02 -3.092955e+02 -3.073101e+02 -3.096549e+02 -3.077222e+02 -3.099699e+02 -3.080884e+02 -3.102378e+02 -3.084057e+02 -3.104569e+02 -3.086716e+02 -3.106256e+02 -3.088840e+02 -3.107425e+02 -3.090408e+02 -3.108064e+02 -3.091400e+02 -3.108160e+02 -3.091798e+02 -3.107699e+02 -3.091580e+02 -3.106670e+02 -3.090729e+02 -3.105063e+02 -3.089229e+02 -3.102877e+02 -3.087073e+02 -3.100119e+02 -3.084265e+02 -3.096811e+02 -3.080825e+02 -3.092992e+02 -3.076792e+02 -3.088721e+02 -3.072223e+02 -3.084073e+02 -3.067201e+02 -3.079144e+02 -3.061829e+02 -3.074039e+02 -3.056230e+02 -3.068859e+02 -3.050535e+02 -3.063682e+02 -3.044841e+02 -3.058518e+02 -3.039164e+02 -3.053286e+02 -3.033384e+02 -3.047808e+02 -3.027262e+02 -3.041869e+02 -3.020511e+02 -3.035343e+02 -3.012932e+02 -3.028340e+02 -3.004520e+02 -3.021303e+02 -2.995513e+02 -3.014975e+02 -2.986333e+02 -3.010190e+02 -2.977503e+02 -3.007547e+02 -2.969670e+02 -3.007080e+02 -2.963814e+02 -3.008095e+02 -2.961344e+02 -3.009480e+02 -2.962958e+02 -3.011072e+02 -2.964929e+02 -3.016192e+02 -2.963939e+02 -3.020189e+02 -2.959053e+02 -3.019404e+02 -2.957194e+02 -3.019674e+02 -2.955484e+02 -3.019643e+02 -2.956596e+02 -3.019024e+02 -2.960207e+02 -3.019534e+02 -2.965627e+02 -3.017163e+02 -2.969203e+02 -3.015655e+02 -2.972506e+02 -3.015277e+02 -2.975872e+02 -3.015873e+02 -2.979409e+02 -3.017289e+02 -2.983180e+02 -3.019415e+02 -2.987221e+02 -3.022166e+02 -2.991556e+02 -3.025474e+02 -2.996191e+02 -3.029277e+02 -3.001121e+02 -3.033516e+02 -3.006329e+02 -3.038127e+02 -3.011786e+02 
-2.967867e+02 -2.967102e+02 -2.961951e+02 -2.962350e+02 -2.955983e+02 -2.957368e+02 -2.950028e+02 -2.952226e+02 -2.944153e+02 -2.947001e+02 -2.938429e+02 -2.941770e+02 -2.932923e+02 -2.936611e+02 -2.927699e+02 -2.931597e+02 -2.922814e+02 -2.926799e+02 -2.918321e+02 -2.922278e+02 -2.914263e+02 -2.918091e+02 -2.910674e+02 -2.914287e+02 -2.907581e+02 -2.910906e+02 -2.905006e+02 -2.907984e+02 -2.902963e+02 -2.905549e+02 -2.901465e+02 -2.903628e+02 -2.900522e+02 -2.902247e+02 -2.900147e+02 -2.901429e+02 -2.900354e+02 -2.901199e+02 -2.901161e+02 -2.901582e+02 -2.902584e+02 -2.902599e+02 -2.904643e+02 -2.904267e+02 -2.907343e+02 -2.906588e+02 -2.910678e+02 -2.909544e+02 -2.914611e+02 -2.913084e+02 -2.919066e+02 -2.917117e+02 -2.923921e+02 -2.921503e+02 -2.929000e+02 -2.926053e+02 -2.934081e+02 -2.930532e+02 -2.938918e+02 -2.934689e+02 -2.943269e+02 -2.938290e+02 -2.946951e+02 -2.941190e+02 -2.949902e+02 -2.943402e+02 -2.952244e+02 -2.945146e+02 -2.954308e+02 -2.946828e+02 -2.956575e+02 -2.948906e+02 -2.959549e+02 -2.951702e+02 -2.963612e+02 -2.955235e+02 -2.968927e+02 -2.959168e+02 -2.975406e+02 -2.962929e+02 -2.982710e+02 -2.965964e+02 -2.990261e+02 -2.967988e+02 -2.997371e+02 -2.968980e+02 -3.003630e+02 -2.968936e+02 -3.009499e+02 -2.967330e+02 -3.016007e+02 -2.963485e+02 -3.018328e+02 -2.955499e+02 -3.012114e+02 -2.968366e+02 -3.016578e+02 -2.963717e+02 -3.025583e+02 -2.965242e+02 -3.028787e+02 -2.970132e+02 -3.027532e+02 -2.977120e+02 -3.026475e+02 -2.984681e+02 -3.021332e+02 -2.987811e+02 -3.016723e+02 -2.989418e+02 -3.012454e+02 -2.990040e+02 -3.008270e+02 -2.989849e+02 -3.004005e+02 -2.988943e+02 -2.999557e+02 -2.987388e+02 -2.994875e+02 -2.985237e+02 -2.989936e+02 -2.982534e+02 -2.984742e+02 -2.979322e+02 -2.979309e+02 -2.975646e+02 -2.973670e+02 -2.971554e+02 
-3.041953e+02 -3.016812e+02 -3.047446e+02 -3.022887e+02 -3.053110e+02 -3.029099e+02 -3.058863e+02 -3.035378e+02 -3.064620e+02 -3.041651e+02 -3.070297e+02 -3.047844e+02 -3.075812e+02 -3.053881e+02 -3.081092e+02 -3.059690e+02 -3.086069e+02 -3.065205e+02 -3.090685e+02 -3.070366e+02 -3.094895e+02 -3.075121e+02 -3.098659e+02 -3.079429e+02 -3.101950e+02 -3.083254e+02 -3.104749e+02 -3.086572e+02 -3.107041e+02 -3.089360e+02 -3.108816e+02 -3.091602e+02 -3.110065e+02 -3.093281e+02 -3.110778e+02 -3.094380e+02 -3.110941e+02 -3.094877e+02 -3.110539e+02 -3.094748e+02 -3.109551e+02 -3.093966e+02 -3.107959e+02 -3.092501e+02 -3.105746e+02 -3.090332e+02 -3.102905e+02 -3.087446e+02 -3.099444e+02 -3.083848e+02 -3.095393e+02 -3.079568e+02 -3.090810e+02 -3.074664e+02 -3.085783e+02 -3.069227e+02 -3.080434e+02 -3.063397e+02 -3.074921e+02 -3.057360e+02 -3.069421e+02 -3.051348e+02 -3.064089e+02 -3.045577e+02 -3.058988e+02 -3.040134e+02 -3.054003e+02 -3.034854e+02 -3.048797e+02 -3.029297e+02 -3.042888e+02 -3.022896e+02 -3.035866e+02 -3.015196e+02 -3.027694e+02 -3.006077e+02 -3.018941e+02 -2.995834e+02 -3.010793e+02 -2.985028e+02 -3.004726e+02 -2.974227e+02 -3.001924e+02 -2.964017e+02 -3.002622e+02 -2.955693e+02 -3.005471e+02 -2.952734e+02 -3.007349e+02 -2.960406e+02 -3.005568e+02 -2.967954e+02 -3.017887e+02 -2.968138e+02 -3.027366e+02 -2.953635e+02 -3.019328e+02 -2.954107e+02 -3.020820e+02 -2.948525e+02 -3.020895e+02 -2.950038e+02 -3.018036e+02 -2.955380e+02 -3.023190e+02 -2.966445e+02 -3.015610e+02 -2.968692e+02 -3.012924e+02 -2.971645e+02 -3.012290e+02 -2.974844e+02 -3.012899e+02 -2.978262e+02 -3.014433e+02 -2.981947e+02 -3.016728e+02 -2.985942e+02 -3.019681e+02 -2.990273e+02 -3.023220e+02 -2.994950e+02 -3.027279e+02 -2.999966e+02 -3.031798e+02 -3.005305e+02 -3.036712e+02 -3.010934e+02 
-2.968314e+02 -2.968630e+02 -2.962117e+02 -2.963537e+02 -2.955846e+02 -2.958195e+02 -2.949576e+02 -2.952683e+02 -2.943382e+02 -2.947084e+02 -2.937345e+02 -2.941483e+02 -2.931538e+02 -2.935965e+02 -2.926035e+02 -2.930610e+02 -2.920898e+02 -2.925494e+02 -2.916183e+02 -2.920685e+02 -2.911935e+02 -2.916241e+02 -2.908188e+02 -2.912211e+02 -2.904968e+02 -2.908634e+02 -2.902292e+02 -2.905543e+02 -2.900170e+02 -2.902967e+02 -2.898611e+02 -2.900928e+02 -2.897624e+02 -2.899453e+02 -2.897221e+02 -2.898568e+02 -2.897419e+02 -2.898303e+02 -2.898246e+02 -2.898695e+02 -2.899732e+02 -2.899781e+02 -2.901914e+02 -2.901593e+02 -2.904820e+02 -2.904154e+02 -2.908463e+02 -2.907460e+02 -2.912822e+02 -2.911470e+02 -2.917822e+02 -2.916088e+02 -2.923321e+02 -2.921150e+02 -2.929099e+02 -2.926420e+02 -2.934864e+02 -2.931589e+02 -2.940269e+02 -2.936296e+02 -2.944958e+02 -2.940182e+02 -2.948624e+02 -2.942980e+02 -2.951113e+02 -2.944661e+02 -2.952557e+02 -2.945564e+02 -2.953457e+02 -2.946399e+02 -2.954606e+02 -2.948026e+02 -2.956840e+02 -2.951087e+02 -2.960772e+02 -2.955656e+02 -2.966634e+02 -2.961094e+02 -2.974276e+02 -2.966262e+02 -2.983190e+02 -2.970099e+02 -2.992439e+02 -2.972242e+02 -3.000678e+02 -2.973022e+02 -3.006777e+02 -2.973063e+02 -3.012032e+02 -2.971080e+02 -3.025179e+02 -2.966839e+02 -3.031664e+02 -2.927947e+02 -3.020086e+02 -2.932677e+02 -2.988825e+02 -2.957968e+02 -3.011873e+02 -2.951846e+02 -3.018626e+02 -2.958732e+02 -3.016550e+02 -2.976230e+02 -3.032277e+02 -2.992462e+02 -3.023808e+02 -2.992840e+02 -3.018414e+02 -2.993750e+02 -3.013951e+02 -2.994016e+02 -3.009724e+02 -2.993539e+02 -3.005442e+02 -2.992372e+02 -3.000963e+02 -2.990570e+02 -2.996218e+02 -2.988176e+02 -2.991179e+02 -2.985225e+02 -2.985844e+02 -2.981752e+02 -2.980230e+02 -2.977796e+02 -2.974371e+02 -2.973405e+02 
-3.040610e+02 -3.015972e+02 -3.046521e+02 -3.022351e+02 -3.052619e+02 -3.028898e+02 -3.058810e+02 -3.035537e+02 -3.065001e+02 -3.042183e+02 -3.071095e+02 -3.048749e+02 -3.077004e+02 -3.055151e+02 -3.082645e+02 -3.061306e+02 -3.087944e+02 -3.067140e+02 -3.092841e+02 -3.072589e+02 -3.097287e+02 -3.077597e+02 -3.101249e+02 -3.082124e+02 -3.104701e+02 -3.086139e+02 -3.107632e+02 -3.089620e+02 -3.110035e+02 -3.092554e+02 -3.111907e+02 -3.094931e+02 -3.113246e+02 -3.096741e+02 -3.114049e+02 -3.097971e+02 -3.114302e+02 -3.098600e+02 -3.113986e+02 -3.098598e+02 -3.113072e+02 -3.097926e+02 -3.111526e+02 -3.096537e+02 -3.109311e+02 -3.094386e+02 -3.106397e+02 -3.091433e+02 -3.102768e+02 -3.087660e+02 -3.098433e+02 -3.083072e+02 -3.093439e+02 -3.077717e+02 -3.087877e+02 -3.071689e+02 -3.081903e+02 -3.065156e+02 -3.075746e+02 -3.058390e+02 -3.069709e+02 -3.051789e+02 -3.064112e+02 -3.045814e+02 -3.059161e+02 -3.040755e+02 -3.054752e+02 -3.036414e+02 -3.050311e+02 -3.032008e+02 -3.044869e+02 -3.026448e+02 -3.037442e+02 -3.018811e+02 -3.027610e+02 -3.008787e+02 -3.016060e+02 -2.996854e+02 -3.004721e+02 -2.983941e+02 -2.996242e+02 -2.970613e+02 -2.993036e+02 -2.956680e+02 -2.996176e+02 -2.942313e+02 -3.003877e+02 -2.933469e+02 -3.008788e+02 -2.957880e+02 -2.985811e+02 -2.976928e+02 -3.078954e+02 -2.944139e+02 -3.053368e+02 -2.897151e+02 -2.941273e+02 -2.913867e+02 -2.971073e+02 -2.916086e+02 -2.982035e+02 -2.928562e+02 -2.986400e+02 -2.950388e+02 -3.009057e+02 -2.964330e+02 -3.009203e+02 -2.967505e+02 -3.008164e+02 -2.970554e+02 -3.008073e+02 -2.973608e+02 -3.009010e+02 -2.976855e+02 -3.010822e+02 -2.980408e+02 -3.013385e+02 -2.984329e+02 -3.016615e+02 -2.988646e+02 -3.020446e+02 -2.993369e+02 -3.024822e+02 -2.998490e+02 -3.029685e+02 -3.003989e+02 -3.034971e+02 -3.009832e+02 
-2.968905e+02 -2.970482e+02 -2.962360e+02 -2.964976e+02 -2.955714e+02 -2.959198e+02 -2.949053e+02 -2.953234e+02 -2.942463e+02 -2.947177e+02 -2.936036e+02 -2.941121e+02 -2.929859e+02 -2.935163e+02 -2.924013e+02 -2.929392e+02 -2.918569e+02 -2.923892e+02 -2.913587e+02 -2.918736e+02 -2.909114e+02 -2.913984e+02 -2.905183e+02 -2.909686e+02 -2.901817e+02 -2.905880e+02 -2.899027e+02 -2.902593e+02 -2.896816e+02 -2.899849e+02 -2.895188e+02 -2.897668e+02 -2.894145e+02 -2.896073e+02 -2.893698e+02 -2.895092e+02 -2.893867e+02 -2.894765e+02 -2.894691e+02 -2.895140e+02 -2.896217e+02 -2.896275e+02 -2.898509e+02 -2.898228e+02 -2.901628e+02 -2.901051e+02 -2.905621e+02 -2.904768e+02 -2.910494e+02 -2.909354e+02 -2.916185e+02 -2.914717e+02 -2.922537e+02 -2.920673e+02 -2.929276e+02 -2.926929e+02 -2.936017e+02 -2.933086e+02 -2.942282e+02 -2.938636e+02 -2.947544e+02 -2.943006e+02 -2.951288e+02 -2.945680e+02 -2.953145e+02 -2.946458e+02 -2.953169e+02 -2.945803e+02 -2.952119e+02 -2.944950e+02 -2.951347e+02 -2.945529e+02 -2.952292e+02 -2.948863e+02 -2.955953e+02 -2.955216e+02 -2.962635e+02 -2.963415e+02 -2.972057e+02 -2.971137e+02 -2.983573e+02 -2.976149e+02 -2.995840e+02 -2.978020e+02 -3.006253e+02 -2.977853e+02 -3.010785e+02 -2.979160e+02 -3.006505e+02 -2.977043e+02 -3.059058e+02 -3.031829e+02 -2.824170e+02 -2.809807e+02 -3.043261e+02 -2.816480e+02 -2.990335e+02 -2.889032e+02 -2.994516e+02 -2.923114e+02 -3.003800e+02 -2.948989e+02 -3.008800e+02 -2.974905e+02 -3.026459e+02 -2.992449e+02 -3.023245e+02 -2.997364e+02 -3.019194e+02 -2.998744e+02 -3.015228e+02 -2.998749e+02 -3.011245e+02 -2.997928e+02 -3.007084e+02 -2.996442e+02 -3.002641e+02 -2.994349e+02 -2.997860e+02 -2.991674e+02 -2.992721e+02 -2.988439e+02 -2.987226e+02 -2.984666e+02 -2.981397e+02 -2.980386e+02 -2.975273e+02 -2.975640e+02 
-3.038995e+02 -3.014895e+02 -3.045413e+02 -3.021647e+02 -3.052037e+02 -3.028610e+02 -3.058762e+02 -3.035693e+02 -3.065482e+02 -3.042799e+02 -3.072086e+02 -3.049827e+02 -3.078473e+02 -3.056676e+02 -3.084548e+02 -3.063252e+02 -3.090231e+02 -3.069471e+02 -3.095456e+02 -3.075260e+02 -3.100175e+02 -3.080564e+02 -3.104355e+02 -3.085340e+02 -3.107981e+02 -3.089563e+02 -3.111048e+02 -3.093220e+02 -3.113562e+02 -3.096308e+02 -3.115532e+02 -3.098829e+02 -3.116968e+02 -3.100785e+02 -3.117874e+02 -3.102170e+02 -3.118242e+02 -3.102968e+02 -3.118051e+02 -3.103145e+02 -3.117260e+02 -3.102646e+02 -3.115817e+02 -3.101402e+02 -3.113654e+02 -3.099331e+02 -3.110705e+02 -3.096353e+02 -3.106915e+02 -3.092406e+02 -3.102255e+02 -3.087460e+02 -3.096739e+02 -3.081528e+02 -3.090444e+02 -3.074684e+02 -3.083543e+02 -3.067095e+02 -3.076352e+02 -3.059112e+02 -3.069373e+02 -3.051387e+02 -3.063243e+02 -3.044869e+02 -3.058511e+02 -3.040370e+02 -3.055242e+02 -3.037746e+02 -3.052541e+02 -3.035591e+02 -3.048568e+02 -3.031818e+02 -3.041190e+02 -3.024607e+02 -3.029092e+02 -3.013302e+02 -3.012949e+02 -2.998903e+02 -2.995930e+02 -2.983467e+02 -2.982738e+02 -2.967869e+02 -2.978051e+02 -2.949994e+02 -2.985324e+02 -2.923486e+02 -3.005104e+02 -2.880734e+02 -3.035847e+02 -2.973691e+02 -2.402206e+02 -2.779942e+02 -2.984313e+02 -2.824343e+02 -3.047606e+02 -2.734389e+02 -3.010898e+02 -2.840180e+02 -2.997146e+02 -2.892862e+02 -2.987307e+02 -2.925251e+02 -2.984380e+02 -2.946851e+02 -3.011108e+02 -2.961096e+02 -3.003992e+02 -2.966460e+02 -3.002470e+02 -2.969473e+02 -3.002843e+02 -2.972192e+02 -3.004257e+02 -2.975150e+02 -3.006468e+02 -2.978509e+02 -3.009383e+02 -2.982324e+02 -3.012951e+02 -2.986617e+02 -3.017130e+02 -2.991392e+02 -3.021880e+02 -2.996638e+02 -3.027149e+02 -3.002331e+02 -3.032879e+02 -3.008435e+02 