# vtk DataFile Version 2.0
Comment goes here
ASCII

DATASET STRUCTURED_POINTS
DIMENSIONS    128   128   1

ORIGIN    0.000   0.000   0.000
SPACING   0.0156250.015625   1.000

POINT_DATA   16384
SCALARS P double
LOOKUP_TABLE default

-1.910174e+02 -1.906785e+02 -1.906316e+02 -1.904223e+02 -1.902445e+02 -1.901511e+02 -1.898604e+02 -1.898687e+02 -1.894839e+02 -1.895792e+02 -1.891192e+02 -1.892867e+02 -1.887708e+02 -1.889955e+02 -1.884429e+02 -1.887098e+02 -1.881393e+02 -1.884338e+02 -1.878635e+02 -1.881715e+02 -1.876187e+02 -1.879266e+02 -1.874073e+02 -1.877028e+02 -1.872314e+02 -1.875033e+02 -1.870926e+02 -1.873310e+02 -1.869917e+02 -1.871883e+02 -1.869292e+02 -1.870774e+02 -1.869053e+02 -1.869998e+02 -1.869193e+02 -1.869567e+02 -1.869704e+02 -1.869488e+02 -1.870573e+02 -1.869762e+02 -1.871782e+02 -1.870384e+02 -1.873308e+02 -1.871341e+02 -1.875123e+02 -1.872614e+02 -1.877193e+02 -1.874175e+02 -1.879479e+02 -1.875988e+02 -1.881935e+02 -1.878006e+02 -1.884509e+02 -1.880177e+02 -1.887149e+02 -1.882443e+02 -1.889800e+02 -1.884744e+02 -1.892417e+02 -1.887024e+02 -1.894964e+02 -1.889236e+02 -1.897428e+02 -1.891351e+02 -1.899819e+02 -1.893359e+02 -1.902174e+02 -1.895267e+02 -1.904553e+02 -1.897101e+02 -1.907030e+02 -1.898886e+02 -1.909681e+02 -1.900643e+02 -1.912570e+02 -1.902371e+02 -1.915730e+02 -1.904044e+02 -1.919154e+02 -1.905607e+02 -1.922785e+02 -1.906983e+02 -1.926517e+02 -1.908089e+02 -1.930200e+02 -1.908867e+02 -1.933668e+02 -1.909310e+02 -1.936766e+02 -1.909494e+02 -1.939383e+02 -1.909567e+02 -1.941482e+02 -1.909712e+02 -1.943090e+02 -1.910087e+02 -1.944234e+02 -1.910769e+02 -1.944906e+02 -1.911762e+02 -1.945072e+02 -1.912997e+02 -1.944716e+02 -1.914343e+02 -1.943859e+02 -1.915639e+02 -1.942553e+02 -1.916741e+02 -1.940857e+02 -1.917549e+02 -1.938822e+02 -1.918010e+02 -1.936490e+02 -1.918100e+02 -1.933892e+02 -1.917817e+02 -1.931053e+02 -1.917170e+02 -1.927992e+02 -1.916175e+02 -1.924730e+02 -1.914852e+02 -1.921290e+02 -1.913224e+02 -1.917697e+02 -1.911318e+02 -1.913981e+02 -1.909161e+02 
-1.958192e+02 -1.934145e+02 -1.961608e+02 -1.938364e+02 -1.965123e+02 -1.942635e+02 -1.968687e+02 -1.946909e+02 -1.972253e+02 -1.951138e+02 -1.975773e+02 -1.955273e+02 -1.979198e+02 -1.959265e+02 -1.982484e+02 -1.963068e+02 -1.985590e+02 -1.966636e+02 -1.988476e+02 -1.969931e+02 -1.991107e+02 -1.972917e+02 -1.993451e+02 -1.975564e+02 -1.995481e+02 -1.977844e+02 -1.997173e+02 -1.979737e+02 -1.998506e+02 -1.981228e+02 -1.999462e+02 -1.982303e+02 -2.000028e+02 -1.982954e+02 -2.000193e+02 -1.983179e+02 -1.999949e+02 -1.982975e+02 -1.999292e+02 -1.982348e+02 -1.998225e+02 -1.981305e+02 -1.996755e+02 -1.979859e+02 -1.994894e+02 -1.978031e+02 -1.992664e+02 -1.975843e+02 -1.990093e+02 -1.973325e+02 -1.987214e+02 -1.970511e+02 -1.984068e+02 -1.967438e+02 -1.980698e+02 -1.964143e+02 -1.977148e+02 -1.960660e+02 -1.973461e+02 -1.957019e+02 -1.969677e+02 -1.953243e+02 -1.965831e+02 -1.949344e+02 -1.961952e+02 -1.945322e+02 -1.958066e+02 -1.941173e+02 -1.954207e+02 -1.936890e+02 -1.950419e+02 -1.932481e+02 -1.946774e+02 -1.927978e+02 -1.943374e+02 -1.923449e+02 -1.940351e+02 -1.918998e+02 -1.937844e+02 -1.914755e+02 -1.935970e+02 -1.910858e+02 -1.934788e+02 -1.907422e+02 -1.934279e+02 -1.904520e+02 -1.934345e+02 -1.902154e+02 -1.934834e+02 -1.900258e+02 -1.935569e+02 -1.898732e+02 -1.936361e+02 -1.897505e+02 -1.937031e+02 -1.896570e+02 -1.937479e+02 -1.896002e+02 -1.937687e+02 -1.895881e+02 -1.937709e+02 -1.896253e+02 -1.937637e+02 -1.897099e+02 -1.937583e+02 -1.898357e+02 -1.937646e+02 -1.899955e+02 -1.937916e+02 -1.901844e+02 -1.938470e+02 -1.904002e+02 -1.939353e+02 -1.906417e+02 -1.940591e+02 -1.909087e+02 -1.942188e+02 -1.912010e+02 -1.944135e+02 -1.915178e+02 -1.946411e+02 -1.918583e+02 -1.948991e+02 -1.922207e+02 -1.951840e+02 -1.926029e+02 -1.954921e+02 -1.930020e+02 
-1.910205e+02 -1.906875e+02 -1.906325e+02 -1.904294e+02 -1.902432e+02 -1.901562e+02 -1.898569e+02 -1.898718e+02 -1.894780e+02 -1.895801e+02 -1.891111e+02 -1.892855e+02 -1.887607e+02 -1.889922e+02 -1.884308e+02 -1.887044e+02 -1.881254e+02 -1.884264e+02 -1.878482e+02 -1.881622e+02 -1.876021e+02 -1.879156e+02 -1.873896e+02 -1.876903e+02 -1.872130e+02 -1.874894e+02 -1.870736e+02 -1.873158e+02 -1.869725e+02 -1.871721e+02 -1.869100e+02 -1.870604e+02 -1.868862e+02 -1.869823e+02 -1.869007e+02 -1.869389e+02 -1.869525e+02 -1.869311e+02 -1.870404e+02 -1.869590e+02 -1.871625e+02 -1.870219e+02 -1.873166e+02 -1.871189e+02 -1.875000e+02 -1.872480e+02 -1.877093e+02 -1.874062e+02 -1.879404e+02 -1.875899e+02 -1.881887e+02 -1.877946e+02 -1.884488e+02 -1.880146e+02 -1.887153e+02 -1.882441e+02 -1.889826e+02 -1.884767e+02 -1.892456e+02 -1.887066e+02 -1.895007e+02 -1.889291e+02 -1.897464e+02 -1.891410e+02 -1.899836e+02 -1.893414e+02 -1.902164e+02 -1.895316e+02 -1.904512e+02 -1.897144e+02 -1.906960e+02 -1.898931e+02 -1.909593e+02 -1.900700e+02 -1.912477e+02 -1.902453e+02 -1.915650e+02 -1.904160e+02 -1.919106e+02 -1.905762e+02 -1.922788e+02 -1.907170e+02 -1.926582e+02 -1.908293e+02 -1.930334e+02 -1.909057e+02 -1.933866e+02 -1.909451e+02 -1.937010e+02 -1.909555e+02 -1.939643e+02 -1.909534e+02 -1.941728e+02 -1.909597e+02 -1.943320e+02 -1.909935e+02 -1.944470e+02 -1.910613e+02 -1.945159e+02 -1.911641e+02 -1.945333e+02 -1.912942e+02 -1.944966e+02 -1.914368e+02 -1.944085e+02 -1.915737e+02 -1.942752e+02 -1.916890e+02 -1.941030e+02 -1.917726e+02 -1.938976e+02 -1.918199e+02 -1.936630e+02 -1.918291e+02 -1.934021e+02 -1.918004e+02 -1.931172e+02 -1.917348e+02 -1.928100e+02 -1.916342e+02 -1.924827e+02 -1.915007e+02 -1.921373e+02 -1.913365e+02 -1.917764e+02 -1.911443e+02 -1.914030e+02 -1.909270e+02 
-1.958058e+02 -1.934055e+02 -1.961519e+02 -1.938317e+02 -1.965081e+02 -1.942633e+02 -1.968693e+02 -1.946955e+02 -1.972307e+02 -1.951233e+02 -1.975872e+02 -1.955417e+02 -1.979342e+02 -1.959455e+02 -1.982671e+02 -1.963301e+02 -1.985815e+02 -1.966910e+02 -1.988736e+02 -1.970241e+02 -1.991399e+02 -1.973258e+02 -1.993771e+02 -1.975930e+02 -1.995824e+02 -1.978232e+02 -1.997536e+02 -1.980142e+02 -1.998886e+02 -1.981644e+02 -1.999856e+02 -1.982727e+02 -2.000432e+02 -1.983383e+02 -2.000604e+02 -1.983609e+02 -2.000364e+02 -1.983403e+02 -1.999708e+02 -1.982770e+02 -1.998636e+02 -1.981717e+02 -1.997155e+02 -1.980258e+02 -1.995279e+02 -1.978411e+02 -1.993026e+02 -1.976198e+02 -1.990424e+02 -1.973651e+02 -1.987508e+02 -1.970802e+02 -1.984318e+02 -1.967691e+02 -1.980900e+02 -1.964356e+02 -1.977301e+02 -1.960836e+02 -1.973567e+02 -1.957166e+02 -1.969741e+02 -1.953371e+02 -1.965860e+02 -1.949467e+02 -1.961952e+02 -1.945454e+02 -1.958041e+02 -1.941319e+02 -1.954148e+02 -1.937046e+02 -1.950309e+02 -1.932626e+02 -1.946585e+02 -1.928082e+02 -1.943082e+02 -1.923473e+02 -1.939940e+02 -1.918907e+02 -1.937326e+02 -1.914529e+02 -1.935386e+02 -1.910500e+02 -1.934202e+02 -1.906966e+02 -1.933762e+02 -1.904030e+02 -1.933951e+02 -1.901706e+02 -1.934599e+02 -1.899897e+02 -1.935515e+02 -1.898437e+02 -1.936481e+02 -1.897214e+02 -1.937254e+02 -1.896205e+02 -1.937717e+02 -1.895554e+02 -1.937874e+02 -1.895390e+02 -1.937801e+02 -1.895778e+02 -1.937621e+02 -1.896688e+02 -1.937470e+02 -1.898021e+02 -1.937443e+02 -1.899670e+02 -1.937643e+02 -1.901586e+02 -1.938152e+02 -1.903755e+02 -1.939014e+02 -1.906176e+02 -1.940249e+02 -1.908850e+02 -1.941856e+02 -1.911778e+02 -1.943822e+02 -1.914956e+02 -1.946125e+02 -1.918376e+02 -1.948737e+02 -1.922021e+02 -1.951623e+02 -1.925869e+02 -1.954744e+02 -1.929893e+02 
-1.910295e+02 -1.907158e+02 -1.906352e+02 -1.904520e+02 -1.902392e+02 -1.901728e+02 -1.898460e+02 -1.898821e+02 -1.894603e+02 -1.895841e+02 -1.890867e+02 -1.892830e+02 -1.887299e+02 -1.889833e+02 -1.883941e+02 -1.886893e+02 -1.880835e+02 -1.884052e+02 -1.878017e+02 -1.881353e+02 -1.875518e+02 -1.878835e+02 -1.873363e+02 -1.876534e+02 -1.871574e+02 -1.874482e+02 -1.870165e+02 -1.872709e+02 -1.869146e+02 -1.871241e+02 -1.868521e+02 -1.870098e+02 -1.868290e+02 -1.869300e+02 -1.868448e+02 -1.868858e+02 -1.868987e+02 -1.868780e+02 -1.869894e+02 -1.869069e+02 -1.871153e+02 -1.869723e+02 -1.872742e+02 -1.870729e+02 -1.874633e+02 -1.872070e+02 -1.876794e+02 -1.873716e+02 -1.879182e+02 -1.875629e+02 -1.881747e+02 -1.877760e+02 -1.884433e+02 -1.880049e+02 -1.887177e+02 -1.882431e+02 -1.889914e+02 -1.884834e+02 -1.892587e+02 -1.887194e+02 -1.895152e+02 -1.889456e+02 -1.897586e+02 -1.891586e+02 -1.899900e+02 -1.893577e+02 -1.902142e+02 -1.895453e+02 -1.904391e+02 -1.897259e+02 -1.906748e+02 -1.899046e+02 -1.909318e+02 -1.900852e+02 -1.912185e+02 -1.902682e+02 -1.915398e+02 -1.904500e+02 -1.918953e+02 -1.906225e+02 -1.922787e+02 -1.907743e+02 -1.926776e+02 -1.908925e+02 -1.930743e+02 -1.909657e+02 -1.934480e+02 -1.909900e+02 -1.937776e+02 -1.909744e+02 -1.940453e+02 -1.909415e+02 -1.942464e+02 -1.909209e+02 -1.943994e+02 -1.909441e+02 -1.945164e+02 -1.910109e+02 -1.945927e+02 -1.911245e+02 -1.946135e+02 -1.912760e+02 -1.945729e+02 -1.914451e+02 -1.944766e+02 -1.916055e+02 -1.943342e+02 -1.917360e+02 -1.941544e+02 -1.918277e+02 -1.939434e+02 -1.918781e+02 -1.937047e+02 -1.918876e+02 -1.934406e+02 -1.918573e+02 -1.931527e+02 -1.917892e+02 -1.928425e+02 -1.916854e+02 -1.925117e+02 -1.915480e+02 -1.921623e+02 -1.913797e+02 -1.917967e+02 -1.911829e+02 -1.914180e+02 -1.909606e+02 
-1.957783e+02 -1.933873e+02 -1.961336e+02 -1.938220e+02 -1.964992e+02 -1.942629e+02 -1.968701e+02 -1.947048e+02 -1.972410e+02 -1.951424e+02 -1.976069e+02 -1.955705e+02 -1.979629e+02 -1.959838e+02 -1.983042e+02 -1.963773e+02 -1.986264e+02 -1.967463e+02 -1.989256e+02 -1.970866e+02 -1.991982e+02 -1.973945e+02 -1.994409e+02 -1.976669e+02 -1.996511e+02 -1.979012e+02 -1.998263e+02 -1.980954e+02 -1.999646e+02 -1.982480e+02 -2.000643e+02 -1.983579e+02 -2.001241e+02 -1.984243e+02 -2.001428e+02 -1.984471e+02 -2.001197e+02 -1.984261e+02 -2.000542e+02 -1.983617e+02 -1.999463e+02 -1.982546e+02 -1.997964e+02 -1.981060e+02 -1.996056e+02 -1.979174e+02 -1.993758e+02 -1.976913e+02 -1.991096e+02 -1.974305e+02 -1.988104e+02 -1.971386e+02 -1.984826e+02 -1.968195e+02 -1.981310e+02 -1.964777e+02 -1.977608e+02 -1.961179e+02 -1.973776e+02 -1.957444e+02 -1.969863e+02 -1.953609e+02 -1.965913e+02 -1.949697e+02 -1.961954e+02 -1.945706e+02 -1.958000e+02 -1.941612e+02 -1.954051e+02 -1.937371e+02 -1.950117e+02 -1.932945e+02 -1.946238e+02 -1.928323e+02 -1.942513e+02 -1.923553e+02 -1.939112e+02 -1.918746e+02 -1.936254e+02 -1.914074e+02 -1.934159e+02 -1.909749e+02 -1.932966e+02 -1.905988e+02 -1.932673e+02 -1.902970e+02 -1.933128e+02 -1.900758e+02 -1.934105e+02 -1.899190e+02 -1.935409e+02 -1.897901e+02 -1.936792e+02 -1.896706e+02 -1.937787e+02 -1.895482e+02 -1.938261e+02 -1.894620e+02 -1.938291e+02 -1.894344e+02 -1.937999e+02 -1.894781e+02 -1.937572e+02 -1.895851e+02 -1.937231e+02 -1.897370e+02 -1.937014e+02 -1.899122e+02 -1.937068e+02 -1.901082e+02 -1.937489e+02 -1.903267e+02 -1.938313e+02 -1.905694e+02 -1.939547e+02 -1.908372e+02 -1.941178e+02 -1.911310e+02 -1.943186e+02 -1.914506e+02 -1.945544e+02 -1.917955e+02 -1.948221e+02 -1.921642e+02 -1.951180e+02 -1.925545e+02 -1.954382e+02 -1.929634e+02 
-1.910451e+02 -1.907636e+02 -1.906399e+02 -1.904903e+02 -1.902326e+02 -1.902010e+02 -1.898278e+02 -1.898998e+02 -1.894304e+02 -1.895911e+02 -1.890455e+02 -1.892792e+02 -1.886780e+02 -1.889686e+02 -1.883323e+02 -1.886641e+02 -1.880129e+02 -1.883699e+02 -1.877233e+02 -1.880905e+02 -1.874670e+02 -1.878298e+02 -1.872465e+02 -1.875916e+02 -1.870639e+02 -1.873792e+02 -1.869206e+02 -1.871956e+02 -1.868175e+02 -1.870435e+02 -1.867549e+02 -1.869250e+02 -1.867329e+02 -1.868421e+02 -1.867509e+02 -1.867963e+02 -1.868082e+02 -1.867884e+02 -1.869037e+02 -1.868191e+02 -1.870358e+02 -1.868881e+02 -1.872025e+02 -1.869948e+02 -1.874013e+02 -1.871372e+02 -1.876289e+02 -1.873126e+02 -1.878807e+02 -1.875168e+02 -1.881516e+02 -1.877444e+02 -1.884349e+02 -1.879888e+02 -1.887233e+02 -1.882422e+02 -1.890088e+02 -1.884963e+02 -1.892842e+02 -1.887430e+02 -1.895432e+02 -1.889756e+02 -1.897828e+02 -1.891899e+02 -1.900037e+02 -1.893857e+02 -1.902119e+02 -1.895672e+02 -1.904181e+02 -1.897420e+02 -1.906362e+02 -1.899193e+02 -1.908808e+02 -1.901056e+02 -1.911637e+02 -1.903026e+02 -1.914916e+02 -1.905050e+02 -1.918644e+02 -1.907014e+02 -1.922747e+02 -1.908755e+02 -1.927080e+02 -1.910077e+02 -1.931435e+02 -1.910782e+02 -1.935559e+02 -1.910756e+02 -1.939161e+02 -1.910103e+02 -1.941924e+02 -1.909168e+02 -1.943678e+02 -1.908379e+02 -1.945027e+02 -1.908509e+02 -1.946266e+02 -1.909136e+02 -1.947248e+02 -1.910469e+02 -1.947548e+02 -1.912397e+02 -1.947042e+02 -1.914617e+02 -1.945905e+02 -1.916671e+02 -1.944306e+02 -1.918221e+02 -1.942375e+02 -1.919246e+02 -1.940175e+02 -1.919784e+02 -1.937728e+02 -1.919870e+02 -1.935041e+02 -1.919535e+02 -1.932119e+02 -1.918807e+02 -1.928970e+02 -1.917713e+02 -1.925606e+02 -1.916277e+02 -1.922046e+02 -1.914523e+02 -1.918312e+02 -1.912479e+02 -1.914435e+02 -1.910173e+02 
-1.957364e+02 -1.933589e+02 -1.961056e+02 -1.938067e+02 -1.964856e+02 -1.942618e+02 -1.968710e+02 -1.947185e+02 -1.972565e+02 -1.951713e+02 -1.976367e+02 -1.956143e+02 -1.980063e+02 -1.960420e+02 -1.983605e+02 -1.964490e+02 -1.986945e+02 -1.968303e+02 -1.990044e+02 -1.971815e+02 -1.992865e+02 -1.974988e+02 -1.995375e+02 -1.977789e+02 -1.997547e+02 -1.980195e+02 -1.999360e+02 -1.982184e+02 -2.000793e+02 -1.983744e+02 -2.001831e+02 -1.984865e+02 -2.002462e+02 -1.985542e+02 -2.002673e+02 -1.985773e+02 -2.002456e+02 -1.985557e+02 -2.001805e+02 -1.984897e+02 -2.000717e+02 -1.983800e+02 -1.999193e+02 -1.982275e+02 -1.997242e+02 -1.980335e+02 -1.994877e+02 -1.978001e+02 -1.992124e+02 -1.975301e+02 -1.989018e+02 -1.972271e+02 -1.985602e+02 -1.968954e+02 -1.981930e+02 -1.965401e+02 -1.978065e+02 -1.961672e+02 -1.974074e+02 -1.957826e+02 -1.970023e+02 -1.953922e+02 -1.965969e+02 -1.949998e+02 -1.961946e+02 -1.946057e+02 -1.957951e+02 -1.942055e+02 -1.953952e+02 -1.937903e+02 -1.949902e+02 -1.933501e+02 -1.945793e+02 -1.928784e+02 -1.941706e+02 -1.923767e+02 -1.937850e+02 -1.918567e+02 -1.934545e+02 -1.913397e+02 -1.932150e+02 -1.908544e+02 -1.930925e+02 -1.904342e+02 -1.930895e+02 -1.901141e+02 -1.931803e+02 -1.899172e+02 -1.933283e+02 -1.898194e+02 -1.935216e+02 -1.897264e+02 -1.937487e+02 -1.896225e+02 -1.938838e+02 -1.894397e+02 -1.939251e+02 -1.893098e+02 -1.939026e+02 -1.892584e+02 -1.938326e+02 -1.893144e+02 -1.937430e+02 -1.894558e+02 -1.936862e+02 -1.896482e+02 -1.936310e+02 -1.898365e+02 -1.936127e+02 -1.900357e+02 -1.936427e+02 -1.902546e+02 -1.937212e+02 -1.904969e+02 -1.938459e+02 -1.907648e+02 -1.940136e+02 -1.910596e+02 -1.942213e+02 -1.913818e+02 -1.944657e+02 -1.917310e+02 -1.947434e+02 -1.921059e+02 -1.950506e+02 -1.925043e+02 -1.953831e+02 -1.929233e+02 
-1.910680e+02 -1.908317e+02 -1.906474e+02 -1.905449e+02 -1.902238e+02 -1.902414e+02 -1.898023e+02 -1.899254e+02 -1.893883e+02 -1.896013e+02 -1.889871e+02 -1.892739e+02 -1.886042e+02 -1.889481e+02 -1.882444e+02 -1.886285e+02 -1.879123e+02 -1.883200e+02 -1.876119e+02 -1.880270e+02 -1.873466e+02 -1.877538e+02 -1.871190e+02 -1.875041e+02 -1.869313e+02 -1.872815e+02 -1.867846e+02 -1.870890e+02 -1.866799e+02 -1.869293e+02 -1.866173e+02 -1.868048e+02 -1.865968e+02 -1.867175e+02 -1.866179e+02 -1.866690e+02 -1.866799e+02 -1.866607e+02 -1.867818e+02 -1.866934e+02 -1.869224e+02 -1.867674e+02 -1.871001e+02 -1.868823e+02 -1.873124e+02 -1.870366e+02 -1.875563e+02 -1.872273e+02 -1.878272e+02 -1.874503e+02 -1.881191e+02 -1.876993e+02 -1.884245e+02 -1.879667e+02 -1.887344e+02 -1.882431e+02 -1.890385e+02 -1.885181e+02 -1.893270e+02 -1.887814e+02 -1.895910e+02 -1.890237e+02 -1.898252e+02 -1.892392e+02 -1.900296e+02 -1.894277e+02 -1.902116e+02 -1.895960e+02 -1.903863e+02 -1.897578e+02 -1.905742e+02 -1.899292e+02 -1.907973e+02 -1.901226e+02 -1.910727e+02 -1.903416e+02 -1.914099e+02 -1.905782e+02 -1.918087e+02 -1.908152e+02 -1.922598e+02 -1.910294e+02 -1.927453e+02 -1.911916e+02 -1.932408e+02 -1.912664e+02 -1.937172e+02 -1.912236e+02 -1.941376e+02 -1.910729e+02 -1.944391e+02 -1.908765e+02 -1.945294e+02 -1.906629e+02 -1.946172e+02 -1.907082e+02 -1.947626e+02 -1.907455e+02 -1.949248e+02 -1.909092e+02 -1.949758e+02 -1.911735e+02 -1.948975e+02 -1.914939e+02 -1.947493e+02 -1.917781e+02 -1.945595e+02 -1.919603e+02 -1.943475e+02 -1.920705e+02 -1.941167e+02 -1.921243e+02 -1.938656e+02 -1.921293e+02 -1.935921e+02 -1.920901e+02 -1.932950e+02 -1.920102e+02 -1.929743e+02 -1.918927e+02 -1.926305e+02 -1.917402e+02 -1.922653e+02 -1.915551e+02 -1.918809e+02 -1.913401e+02 -1.914806e+02 -1.910979e+02 
-1.956792e+02 -1.933190e+02 -1.960673e+02 -1.937848e+02 -1.964669e+02 -1.942593e+02 -1.968723e+02 -1.947365e+02 -1.972777e+02 -1.952101e+02 -1.976772e+02 -1.956737e+02 -1.980654e+02 -1.961211e+02 -1.984369e+02 -1.965466e+02 -1.987870e+02 -1.969446e+02 -1.991112e+02 -1.973105e+02 -1.994059e+02 -1.976403e+02 -1.996679e+02 -1.979308e+02 -1.998946e+02 -1.981794e+02 -2.000837e+02 -1.983845e+02 -2.002336e+02 -1.985448e+02 -2.003429e+02 -1.986597e+02 -2.004103e+02 -1.987289e+02 -2.004348e+02 -1.987524e+02 -2.004153e+02 -1.987301e+02 -2.003512e+02 -1.986624e+02 -2.002417e+02 -1.985496e+02 -2.000866e+02 -1.983922e+02 -1.998861e+02 -1.981913e+02 -1.996411e+02 -1.979484e+02 -1.993539e+02 -1.976661e+02 -1.990275e+02 -1.973476e+02 -1.986666e+02 -1.969978e+02 -1.982771e+02 -1.966225e+02 -1.978667e+02 -1.962293e+02 -1.974438e+02 -1.958268e+02 -1.970182e+02 -1.954246e+02 -1.965983e+02 -1.950303e+02 -1.961894e+02 -1.946458e+02 -1.957900e+02 -1.942643e+02 -1.953905e+02 -1.938694e+02 -1.949766e+02 -1.934404e+02 -1.945371e+02 -1.929607e+02 -1.940746e+02 -1.924258e+02 -1.936145e+02 -1.918477e+02 -1.932056e+02 -1.912534e+02 -1.929098e+02 -1.906803e+02 -1.927789e+02 -1.901771e+02 -1.928235e+02 -1.898108e+02 -1.929914e+02 -1.896586e+02 -1.931992e+02 -1.897128e+02 -1.934669e+02 -1.896722e+02 -1.939099e+02 -1.896532e+02 -1.940831e+02 -1.892786e+02 -1.940883e+02 -1.890793e+02 -1.940233e+02 -1.889743e+02 -1.938838e+02 -1.890642e+02 -1.936944e+02 -1.892740e+02 -1.936459e+02 -1.895623e+02 -1.935226e+02 -1.897490e+02 -1.934699e+02 -1.899434e+02 -1.934879e+02 -1.901593e+02 -1.935655e+02 -1.903995e+02 -1.936948e+02 -1.906663e+02 -1.938705e+02 -1.909618e+02 -1.940884e+02 -1.912870e+02 -1.943450e+02 -1.916418e+02 -1.946364e+02 -1.920251e+02 -1.949589e+02 -1.924347e+02 -1.953080e+02 -1.928673e+02 
-1.910994e+02 -1.909209e+02 -1.906585e+02 -1.906167e+02 -1.902133e+02 -1.902946e+02 -1.897696e+02 -1.899591e+02 -1.893334e+02 -1.896150e+02 -1.889107e+02 -1.892673e+02 -1.885073e+02 -1.889212e+02 -1.881288e+02 -1.885820e+02 -1.877801e+02 -1.882546e+02 -1.874655e+02 -1.879439e+02 -1.871885e+02 -1.876543e+02 -1.869520e+02 -1.873897e+02 -1.867577e+02 -1.871538e+02 -1.866070e+02 -1.869497e+02 -1.865003e+02 -1.867802e+02 -1.864379e+02 -1.866476e+02 -1.864194e+02 -1.865542e+02 -1.864443e+02 -1.865019e+02 -1.865120e+02 -1.864925e+02 -1.866219e+02 -1.865273e+02 -1.867731e+02 -1.866072e+02 -1.869644e+02 -1.867324e+02 -1.871941e+02 -1.869018e+02 -1.874593e+02 -1.871128e+02 -1.877556e+02 -1.873610e+02 -1.880766e+02 -1.876393e+02 -1.884131e+02 -1.879387e+02 -1.887540e+02 -1.882476e+02 -1.890859e+02 -1.885530e+02 -1.893949e+02 -1.888408e+02 -1.896681e+02 -1.890977e+02 -1.898961e+02 -1.893141e+02 -1.900763e+02 -1.894882e+02 -1.902174e+02 -1.896306e+02 -1.903409e+02 -1.897647e+02 -1.904789e+02 -1.899199e+02 -1.906657e+02 -1.901202e+02 -1.909276e+02 -1.903724e+02 -1.912776e+02 -1.906632e+02 -1.917140e+02 -1.909652e+02 -1.922234e+02 -1.912465e+02 -1.927823e+02 -1.914697e+02 -1.933615e+02 -1.915738e+02 -1.939341e+02 -1.914773e+02 -1.944756e+02 -1.911786e+02 -1.948956e+02 -1.908527e+02 -1.946939e+02 -1.902295e+02 -1.946746e+02 -1.905744e+02 -1.948825e+02 -1.904507e+02 -1.952356e+02 -1.906704e+02 -1.953249e+02 -1.910500e+02 -1.951584e+02 -1.915602e+02 -1.949471e+02 -1.919895e+02 -1.947094e+02 -1.921696e+02 -1.944753e+02 -1.922723e+02 -1.942361e+02 -1.923192e+02 -1.939811e+02 -1.923164e+02 -1.937044e+02 -1.922681e+02 -1.934029e+02 -1.921784e+02 -1.930757e+02 -1.920503e+02 -1.927230e+02 -1.918863e+02 -1.923462e+02 -1.916888e+02 -1.919477e+02 -1.914602e+02 -1.915307e+02 -1.912033e+02 
-1.956060e+02 -1.932657e+02 -1.960183e+02 -1.937549e+02 -1.964431e+02 -1.942547e+02 -1.968741e+02 -1.947585e+02 -1.973050e+02 -1.952591e+02 -1.977294e+02 -1.957494e+02 -1.981414e+02 -1.962225e+02 -1.985351e+02 -1.966718e+02 -1.989054e+02 -1.970913e+02 -1.992478e+02 -1.974759e+02 -1.995583e+02 -1.978215e+02 -1.998340e+02 -1.981247e+02 -2.000721e+02 -1.983832e+02 -2.002709e+02 -1.985955e+02 -2.004289e+02 -1.987608e+02 -2.005448e+02 -1.988789e+02 -2.006177e+02 -1.989497e+02 -2.006465e+02 -1.989736e+02 -2.006304e+02 -1.989508e+02 -2.005682e+02 -1.988813e+02 -2.004588e+02 -1.987652e+02 -2.003012e+02 -1.986027e+02 -2.000949e+02 -1.983938e+02 -1.998401e+02 -1.981396e+02 -1.995380e+02 -1.978418e+02 -1.991915e+02 -1.975034e+02 -1.988050e+02 -1.971289e+02 -1.983851e+02 -1.967251e+02 -1.979406e+02 -1.963013e+02 -1.974831e+02 -1.958701e+02 -1.970268e+02 -1.954473e+02 -1.965864e+02 -1.950482e+02 -1.961721e+02 -1.946803e+02 -1.957824e+02 -1.943344e+02 -1.953987e+02 -1.939818e+02 -1.949887e+02 -1.935827e+02 -1.945204e+02 -1.931023e+02 -1.939822e+02 -1.925259e+02 -1.934025e+02 -1.918666e+02 -1.928566e+02 -1.911595e+02 -1.924538e+02 -1.904488e+02 -1.923004e+02 -1.897907e+02 -1.924389e+02 -1.892944e+02 -1.927616e+02 -1.891900e+02 -1.930066e+02 -1.896976e+02 -1.932353e+02 -1.895955e+02 -1.943413e+02 -1.900409e+02 -1.944520e+02 -1.889433e+02 -1.943226e+02 -1.887546e+02 -1.942187e+02 -1.884948e+02 -1.939839e+02 -1.886931e+02 -1.935023e+02 -1.890107e+02 -1.936769e+02 -1.895760e+02 -1.933417e+02 -1.896524e+02 -1.932552e+02 -1.898287e+02 -1.932729e+02 -1.900394e+02 -1.933581e+02 -1.902757e+02 -1.934979e+02 -1.905400e+02 -1.936859e+02 -1.908353e+02 -1.939180e+02 -1.911637e+02 -1.941903e+02 -1.915253e+02 -1.944994e+02 -1.919191e+02 -1.948414e+02 -1.923429e+02 -1.952119e+02 -1.927932e+02 
-1.911412e+02 -1.910326e+02 -1.906745e+02 -1.907069e+02 -1.902018e+02 -1.903617e+02 -1.897298e+02 -1.900018e+02 -1.892653e+02 -1.896325e+02 -1.888150e+02 -1.892592e+02 -1.883857e+02 -1.888877e+02 -1.879835e+02 -1.885237e+02 -1.876139e+02 -1.881727e+02 -1.872816e+02 -1.878399e+02 -1.869903e+02 -1.875300e+02 -1.867428e+02 -1.872470e+02 -1.865409e+02 -1.869947e+02 -1.863855e+02 -1.867762e+02 -1.862769e+02 -1.865943e+02 -1.862149e+02 -1.864516e+02 -1.861989e+02 -1.863502e+02 -1.862284e+02 -1.862926e+02 -1.863028e+02 -1.862808e+02 -1.864217e+02 -1.863171e+02 -1.865849e+02 -1.864033e+02 -1.867922e+02 -1.865403e+02 -1.870427e+02 -1.867282e+02 -1.873344e+02 -1.869647e+02 -1.876632e+02 -1.872453e+02 -1.880223e+02 -1.875622e+02 -1.884011e+02 -1.879045e+02 -1.887854e+02 -1.882581e+02 -1.891578e+02 -1.886063e+02 -1.894988e+02 -1.889302e+02 -1.897890e+02 -1.892100e+02 -1.900119e+02 -1.894281e+02 -1.901588e+02 -1.895769e+02 -1.902373e+02 -1.896703e+02 -1.902784e+02 -1.897484e+02 -1.903339e+02 -1.898659e+02 -1.904605e+02 -1.900692e+02 -1.907000e+02 -1.903722e+02 -1.910688e+02 -1.907490e+02 -1.915599e+02 -1.911499e+02 -1.921513e+02 -1.915335e+02 -1.928090e+02 -1.918729e+02 -1.934915e+02 -1.920801e+02 -1.941788e+02 -1.919281e+02 -1.949300e+02 -1.913081e+02 -1.959728e+02 -1.911271e+02 -1.946779e+02 -1.888483e+02 -1.952354e+02 -1.891694e+02 -1.937209e+02 -1.894243e+02 -1.942189e+02 -1.890959e+02 -1.944440e+02 -1.897091e+02 -1.941441e+02 -1.913456e+02 -1.952392e+02 -1.924479e+02 -1.948539e+02 -1.924545e+02 -1.946068e+02 -1.925287e+02 -1.943706e+02 -1.925637e+02 -1.941184e+02 -1.925490e+02 -1.938418e+02 -1.924883e+02 -1.935373e+02 -1.923859e+02 -1.932035e+02 -1.922447e+02 -1.928405e+02 -1.920669e+02 -1.924498e+02 -1.918546e+02 -1.920338e+02 -1.916097e+02 -1.915961e+02 -1.913348e+02 
-1.955153e+02 -1.931964e+02 -1.959576e+02 -1.937150e+02 -1.964136e+02 -1.942468e+02 -1.968765e+02 -1.947841e+02 -1.973391e+02 -1.953189e+02 -1.977946e+02 -1.958428e+02 -1.982360e+02 -1.963480e+02 -1.986570e+02 -1.968270e+02 -1.990521e+02 -1.972730e+02 -1.994164e+02 -1.976806e+02 -1.997460e+02 -1.980452e+02 -2.000377e+02 -1.983636e+02 -2.002894e+02 -1.986335e+02 -2.004993e+02 -1.988539e+02 -2.006665e+02 -1.990245e+02 -2.007901e+02 -1.991457e+02 -2.008695e+02 -1.992181e+02 -2.009039e+02 -1.992424e+02 -2.008924e+02 -1.992191e+02 -2.008336e+02 -1.991482e+02 -2.007257e+02 -1.990295e+02 -2.005669e+02 -1.988621e+02 -2.003553e+02 -1.986452e+02 -2.000900e+02 -1.983786e+02 -1.997710e+02 -1.980627e+02 -1.994000e+02 -1.976995e+02 -1.989810e+02 -1.972929e+02 -1.985206e+02 -1.968497e+02 -1.980286e+02 -1.963806e+02 -1.975202e+02 -1.959029e+02 -1.970166e+02 -1.954423e+02 -1.965439e+02 -1.950299e+02 -1.961252e+02 -1.946877e+02 -1.957638e+02 -1.944065e+02 -1.954287e+02 -1.941368e+02 -1.950562e+02 -1.938042e+02 -1.945727e+02 -1.933403e+02 -1.939338e+02 -1.927135e+02 -1.931637e+02 -1.919432e+02 -1.923769e+02 -1.910833e+02 -1.917629e+02 -1.901783e+02 -1.915420e+02 -1.892498e+02 -1.918734e+02 -1.883835e+02 -1.926040e+02 -1.880999e+02 -1.928214e+02 -1.902883e+02 -1.921303e+02 -1.892183e+02 -1.975256e+02 -1.893901e+02 -1.930897e+02 -1.852992e+02 -1.896440e+02 -1.841504e+02 -1.900791e+02 -1.845729e+02 -1.907033e+02 -1.856592e+02 -1.912215e+02 -1.879575e+02 -1.927942e+02 -1.891830e+02 -1.929116e+02 -1.894544e+02 -1.929347e+02 -1.896782e+02 -1.929896e+02 -1.898932e+02 -1.930957e+02 -1.901238e+02 -1.932528e+02 -1.903828e+02 -1.934579e+02 -1.906766e+02 -1.937079e+02 -1.910079e+02 -1.939999e+02 -1.913774e+02 -1.943306e+02 -1.917840e+02 -1.946964e+02 -1.922254e+02 -1.950929e+02 -1.926978e+02 
-1.911957e+02 -1.911686e+02 -1.906969e+02 -1.908171e+02 -1.901902e+02 -1.904439e+02 -1.896829e+02 -1.900543e+02 -1.891831e+02 -1.896541e+02 -1.886987e+02 -1.892495e+02 -1.882372e+02 -1.888468e+02 -1.878058e+02 -1.884526e+02 -1.874106e+02 -1.880729e+02 -1.870569e+02 -1.877134e+02 -1.867486e+02 -1.873789e+02 -1.864883e+02 -1.870739e+02 -1.862778e+02 -1.868021e+02 -1.861176e+02 -1.865665e+02 -1.860073e+02 -1.863699e+02 -1.859463e+02 -1.862146e+02 -1.859336e+02 -1.861032e+02 -1.859683e+02 -1.860381e+02 -1.860499e+02 -1.860223e+02 -1.861784e+02 -1.860587e+02 -1.863546e+02 -1.861506e+02 -1.865793e+02 -1.863004e+02 -1.868533e+02 -1.865094e+02 -1.871762e+02 -1.867767e+02 -1.875451e+02 -1.870979e+02 -1.879530e+02 -1.874643e+02 -1.883879e+02 -1.878628e+02 -1.888319e+02 -1.882762e+02 -1.892622e+02 -1.886839e+02 -1.896521e+02 -1.890614e+02 -1.899736e+02 -1.893794e+02 -1.901981e+02 -1.896050e+02 -1.903030e+02 -1.897138e+02 -1.902875e+02 -1.897184e+02 -1.901948e+02 -1.896864e+02 -1.901125e+02 -1.897217e+02 -1.901393e+02 -1.899172e+02 -1.903440e+02 -1.903021e+02 -1.907445e+02 -1.908206e+02 -1.913179e+02 -1.913662e+02 -1.920283e+02 -1.918774e+02 -1.928216e+02 -1.924118e+02 -1.936166e+02 -1.929379e+02 -1.943502e+02 -1.928337e+02 -1.950803e+02 -1.909963e+02 -2.008711e+02 -1.903747e+02 -1.833498e+02 -1.843470e+02 -1.913842e+02 -1.816610e+02 -1.910875e+02 -1.840868e+02 -1.918963e+02 -1.861086e+02 -1.928960e+02 -1.880823e+02 -1.935789e+02 -1.907551e+02 -1.947032e+02 -1.922043e+02 -1.948616e+02 -1.926716e+02 -1.947261e+02 -1.928231e+02 -1.945202e+02 -1.928572e+02 -1.942797e+02 -1.928274e+02 -1.940073e+02 -1.927506e+02 -1.937015e+02 -1.926327e+02 -1.933612e+02 -1.924764e+02 -1.929867e+02 -1.922831e+02 -1.925796e+02 -1.920538e+02 -1.921425e+02 -1.917902e+02 -1.916796e+02 -1.914942e+02 
-1.954054e+02 -1.931077e+02 -1.958840e+02 -1.936627e+02 -1.963780e+02 -1.942340e+02 -1.968797e+02 -1.948129e+02 -1.973811e+02 -1.953899e+02 -1.978742e+02 -1.959554e+02 -1.983513e+02 -1.965001e+02 -1.988053e+02 -1.970154e+02 -1.992299e+02 -1.974937e+02 -1.996201e+02 -1.979287e+02 -1.999718e+02 -1.983157e+02 -2.002820e+02 -1.986513e+02 -2.005488e+02 -1.989337e+02 -2.007710e+02 -1.991625e+02 -2.009482e+02 -1.993381e+02 -2.010802e+02 -1.994619e+02 -2.011669e+02 -1.995352e+02 -2.012081e+02 -1.995597e+02 -2.012029e+02 -1.995362e+02 -2.011496e+02 -1.994649e+02 -2.010457e+02 -1.993449e+02 -2.008882e+02 -1.991743e+02 -2.006735e+02 -1.989508e+02 -2.003985e+02 -1.986720e+02 -2.000614e+02 -1.983365e+02 -1.996622e+02 -1.979443e+02 -1.992034e+02 -1.974978e+02 -1.986906e+02 -1.970021e+02 -1.981335e+02 -1.964672e+02 -1.975496e+02 -1.959139e+02 -1.969694e+02 -1.953820e+02 -1.964397e+02 -1.949329e+02 -1.960121e+02 -1.946252e+02 -1.957100e+02 -1.944582e+02 -1.954879e+02 -1.943463e+02 -1.952268e+02 -1.941497e+02 -1.947739e+02 -1.937359e+02 -1.940127e+02 -1.930431e+02 -1.929436e+02 -1.921149e+02 -1.917335e+02 -1.910648e+02 -1.906941e+02 -1.899466e+02 -1.902451e+02 -1.886547e+02 -1.909110e+02 -1.868828e+02 -1.929510e+02 -1.845135e+02 -1.935447e+02 -1.878638e+02 -1.786628e+02 -1.908761e+02 -1.883213e+02 -1.826325e+02 -1.911900e+02 -1.765302e+02 -1.915076e+02 -1.800460e+02 -1.913106e+02 -1.833943e+02 -1.910623e+02 -1.857671e+02 -1.907721e+02 -1.883151e+02 -1.927004e+02 -1.888439e+02 -1.925775e+02 -1.893040e+02 -1.925811e+02 -1.895355e+02 -1.926540e+02 -1.897306e+02 -1.927819e+02 -1.899433e+02 -1.929598e+02 -1.901911e+02 -1.931853e+02 -1.904807e+02 -1.934565e+02 -1.908146e+02 -1.937714e+02 -1.911932e+02 -1.941275e+02 -1.916151e+02 -1.945214e+02 -1.920778e+02 -1.949491e+02 -1.925772e+02 