# vtk DataFile Version 2.0
Comment goes here
ASCII

DATASET STRUCTURED_POINTS
DIMENSIONS    128   128   1

ORIGIN    0.000   0.000   0.000
SPACING   0.0156250.015625   1.000

POINT_DATA   16384
SCALARS P double
LOOKUP_TABLE default

-3.081202e+02 -3.063786e+02 -3.076050e+02 -3.059710e+02 -3.070818e+02 -3.055488e+02 -3.065552e+02 -3.051182e+02 -3.060301e+02 -3.046856e+02 -3.055116e+02 -3.042571e+02 -3.050047e+02 -3.038385e+02 -3.045147e+02 -3.034356e+02 -3.040466e+02 -3.030536e+02 -3.036052e+02 -3.026972e+02 -3.031949e+02 -3.023709e+02 -3.028199e+02 -3.020783e+02 -3.024839e+02 -3.018229e+02 -3.021902e+02 -3.016075e+02 -3.019417e+02 -3.014346e+02 -3.017409e+02 -3.013061e+02 -3.015897e+02 -3.012237e+02 -3.014898e+02 -3.011887e+02 -3.014423e+02 -3.012020e+02 -3.014479e+02 -3.012639e+02 -3.015065e+02 -3.013743e+02 -3.016174e+02 -3.015322e+02 -3.017789e+02 -3.017355e+02 -3.019883e+02 -3.019813e+02 -3.022413e+02 -3.022647e+02 -3.025325e+02 -3.025797e+02 -3.028547e+02 -3.029183e+02 -3.031998e+02 -3.032711e+02 -3.035587e+02 -3.036280e+02 -3.039227e+02 -3.039789e+02 -3.042843e+02 -3.043150e+02 -3.046388e+02 -3.046301e+02 -3.049854e+02 -3.049213e+02 -3.053277e+02 -3.051892e+02 -3.056731e+02 -3.054371e+02 -3.060322e+02 -3.056697e+02 -3.064162e+02 -3.058911e+02 -3.068345e+02 -3.061036e+02 -3.072928e+02 -3.063064e+02 -3.077909e+02 -3.064965e+02 -3.083221e+02 -3.066692e+02 -3.088734e+02 -3.068194e+02 -3.094278e+02 -3.069440e+02 -3.099658e+02 -3.070431e+02 -3.104691e+02 -3.071227e+02 -3.109223e+02 -3.071952e+02 -3.113167e+02 -3.072772e+02 -3.116520e+02 -3.073814e+02 -3.119320e+02 -3.075101e+02 -3.121519e+02 -3.076639e+02 -3.122988e+02 -3.078381e+02 -3.123617e+02 -3.080193e+02 -3.123374e+02 -3.081878e+02 -3.122305e+02 -3.083235e+02 -3.120518e+02 -3.084114e+02 -3.118138e+02 -3.084430e+02 -3.115270e+02 -3.084152e+02 -3.111997e+02 -3.083282e+02 -3.108376e+02 -3.081843e+02 -3.104446e+02 -3.079874e+02 -3.100239e+02 -3.077420e+02 -3.095782e+02 -3.074529e+02 -3.091104e+02 -3.071255e+02 -3.086232e+02 -3.067655e+02 
-3.162934e+02 -3.119029e+02 -3.167589e+02 -3.124109e+02 -3.172321e+02 -3.129320e+02 -3.177063e+02 -3.134620e+02 -3.181752e+02 -3.139964e+02 -3.186324e+02 -3.145301e+02 -3.190720e+02 -3.150580e+02 -3.194886e+02 -3.155746e+02 -3.198773e+02 -3.160747e+02 -3.202336e+02 -3.165529e+02 -3.205539e+02 -3.170042e+02 -3.208350e+02 -3.174237e+02 -3.210741e+02 -3.178068e+02 -3.212690e+02 -3.181493e+02 -3.214180e+02 -3.184473e+02 -3.215194e+02 -3.186971e+02 -3.215722e+02 -3.188957e+02 -3.215754e+02 -3.190402e+02 -3.215283e+02 -3.191283e+02 -3.214305e+02 -3.191584e+02 -3.212822e+02 -3.191296e+02 -3.210840e+02 -3.190416e+02 -3.208375e+02 -3.188956e+02 -3.205450e+02 -3.186933e+02 -3.202096e+02 -3.184378e+02 -3.198353e+02 -3.181327e+02 -3.194265e+02 -3.177820e+02 -3.189879e+02 -3.173897e+02 -3.185236e+02 -3.169594e+02 -3.180372e+02 -3.164934e+02 -3.175315e+02 -3.159929e+02 -3.170082e+02 -3.154575e+02 -3.164686e+02 -3.148860e+02 -3.159145e+02 -3.142766e+02 -3.153493e+02 -3.136290e+02 -3.147801e+02 -3.129459e+02 -3.142189e+02 -3.122352e+02 -3.136835e+02 -3.115109e+02 -3.131959e+02 -3.107933e+02 -3.127796e+02 -3.101066e+02 -3.124544e+02 -3.094760e+02 -3.122318e+02 -3.089238e+02 -3.121121e+02 -3.084644e+02 -3.120849e+02 -3.081004e+02 -3.121327e+02 -3.078200e+02 -3.122352e+02 -3.076023e+02 -3.123702e+02 -3.074295e+02 -3.125147e+02 -3.072984e+02 -3.126514e+02 -3.072183e+02 -3.127741e+02 -3.072002e+02 -3.128826e+02 -3.072511e+02 -3.129792e+02 -3.073698e+02 -3.130686e+02 -3.075459e+02 -3.131580e+02 -3.077659e+02 -3.132602e+02 -3.080190e+02 -3.133883e+02 -3.082994e+02 -3.135522e+02 -3.086043e+02 -3.137581e+02 -3.089329e+02 -3.140080e+02 -3.092856e+02 -3.143014e+02 -3.096626e+02 -3.146359e+02 -3.100643e+02 -3.150076e+02 -3.104904e+02 -3.154115e+02 -3.109401e+02 -3.158421e+02 -3.114117e+02 
-3.081267e+02 -3.063888e+02 -3.076094e+02 -3.059781e+02 -3.070840e+02 -3.055527e+02 -3.065550e+02 -3.051191e+02 -3.060274e+02 -3.046834e+02 -3.055063e+02 -3.042520e+02 -3.049969e+02 -3.038306e+02 -3.045045e+02 -3.034252e+02 -3.040340e+02 -3.030408e+02 -3.035903e+02 -3.026823e+02 -3.031779e+02 -3.023541e+02 -3.028011e+02 -3.020599e+02 -3.024635e+02 -3.018031e+02 -3.021684e+02 -3.015865e+02 -3.019187e+02 -3.014126e+02 -3.017169e+02 -3.012834e+02 -3.015650e+02 -3.012006e+02 -3.014647e+02 -3.011654e+02 -3.014171e+02 -3.011788e+02 -3.014230e+02 -3.012412e+02 -3.014825e+02 -3.013526e+02 -3.015948e+02 -3.015120e+02 -3.017583e+02 -3.017176e+02 -3.019704e+02 -3.019662e+02 -3.022268e+02 -3.022533e+02 -3.025219e+02 -3.025725e+02 -3.028483e+02 -3.029156e+02 -3.031976e+02 -3.032730e+02 -3.035601e+02 -3.036340e+02 -3.039267e+02 -3.039882e+02 -3.042895e+02 -3.043263e+02 -3.046436e+02 -3.046422e+02 -3.049880e+02 -3.049330e+02 -3.053268e+02 -3.052001e+02 -3.056683e+02 -3.054475e+02 -3.060240e+02 -3.056806e+02 -3.064060e+02 -3.059041e+02 -3.068247e+02 -3.061199e+02 -3.072859e+02 -3.063268e+02 -3.077892e+02 -3.065205e+02 -3.083272e+02 -3.066952e+02 -3.088859e+02 -3.068451e+02 -3.094472e+02 -3.069664e+02 -3.099912e+02 -3.070594e+02 -3.104990e+02 -3.071300e+02 -3.109544e+02 -3.071925e+02 -3.113475e+02 -3.072671e+02 -3.116803e+02 -3.073697e+02 -3.119623e+02 -3.074979e+02 -3.121884e+02 -3.076539e+02 -3.123408e+02 -3.078347e+02 -3.124054e+02 -3.080258e+02 -3.123790e+02 -3.082046e+02 -3.122668e+02 -3.083478e+02 -3.120820e+02 -3.084398e+02 -3.118386e+02 -3.084729e+02 -3.115477e+02 -3.084448e+02 -3.112175e+02 -3.083565e+02 -3.108533e+02 -3.082107e+02 -3.104587e+02 -3.080115e+02 -3.100367e+02 -3.077636e+02 -3.095897e+02 -3.074718e+02 -3.091204e+02 -3.071416e+02 -3.086316e+02 -3.067787e+02 
-3.162795e+02 -3.118858e+02 -3.167516e+02 -3.123974e+02 -3.172315e+02 -3.129227e+02 -3.177123e+02 -3.134574e+02 -3.181875e+02 -3.139968e+02 -3.186506e+02 -3.145358e+02 -3.190958e+02 -3.150691e+02 -3.195174e+02 -3.155912e+02 -3.199105e+02 -3.160967e+02 -3.202707e+02 -3.165801e+02 -3.205942e+02 -3.170363e+02 -3.208780e+02 -3.174604e+02 -3.211193e+02 -3.178479e+02 -3.213162e+02 -3.181944e+02 -3.214667e+02 -3.184961e+02 -3.215696e+02 -3.187494e+02 -3.216236e+02 -3.189511e+02 -3.216278e+02 -3.190983e+02 -3.215816e+02 -3.191888e+02 -3.214844e+02 -3.192208e+02 -3.213364e+02 -3.191931e+02 -3.211380e+02 -3.191055e+02 -3.208905e+02 -3.189589e+02 -3.205962e+02 -3.187550e+02 -3.202580e+02 -3.184968e+02 -3.198800e+02 -3.181880e+02 -3.194667e+02 -3.178329e+02 -3.190229e+02 -3.174360e+02 -3.185533e+02 -3.170011e+02 -3.180620e+02 -3.165315e+02 -3.175519e+02 -3.160290e+02 -3.170252e+02 -3.154934e+02 -3.164829e+02 -3.149233e+02 -3.159258e+02 -3.143158e+02 -3.153560e+02 -3.136688e+02 -3.147791e+02 -3.129831e+02 -3.142061e+02 -3.122646e+02 -3.136550e+02 -3.115267e+02 -3.131500e+02 -3.107900e+02 -3.127180e+02 -3.100807e+02 -3.123825e+02 -3.094275e+02 -3.121573e+02 -3.088570e+02 -3.120428e+02 -3.083891e+02 -3.120264e+02 -3.080299e+02 -3.120883e+02 -3.077649e+02 -3.122079e+02 -3.075611e+02 -3.123633e+02 -3.073897e+02 -3.125235e+02 -3.072481e+02 -3.126656e+02 -3.071566e+02 -3.127884e+02 -3.071311e+02 -3.128944e+02 -3.071834e+02 -3.129864e+02 -3.073123e+02 -3.130688e+02 -3.075026e+02 -3.131460e+02 -3.077332e+02 -3.132351e+02 -3.079923e+02 -3.133531e+02 -3.082752e+02 -3.135110e+02 -3.085806e+02 -3.137145e+02 -3.089089e+02 -3.139648e+02 -3.092609e+02 -3.142608e+02 -3.096377e+02 -3.145991e+02 -3.100396e+02 -3.149757e+02 -3.104666e+02 -3.153852e+02 -3.109177e+02 -3.158219e+02 -3.113916e+02 
-3.081457e+02 -3.064199e+02 -3.076222e+02 -3.059999e+02 -3.070900e+02 -3.055652e+02 -3.065538e+02 -3.051222e+02 -3.060186e+02 -3.046774e+02 -3.054898e+02 -3.042371e+02 -3.049728e+02 -3.038075e+02 -3.044728e+02 -3.033942e+02 -3.039951e+02 -3.030027e+02 -3.035448e+02 -3.026378e+02 -3.031263e+02 -3.023039e+02 -3.027438e+02 -3.020049e+02 -3.024013e+02 -3.017439e+02 -3.021020e+02 -3.015238e+02 -3.018487e+02 -3.013471e+02 -3.016441e+02 -3.012157e+02 -3.014901e+02 -3.011314e+02 -3.013886e+02 -3.010955e+02 -3.013408e+02 -3.011091e+02 -3.013477e+02 -3.011730e+02 -3.014095e+02 -3.012873e+02 -3.015260e+02 -3.014514e+02 -3.016956e+02 -3.016637e+02 -3.019159e+02 -3.019212e+02 -3.021826e+02 -3.022193e+02 -3.024896e+02 -3.025512e+02 -3.028290e+02 -3.029083e+02 -3.031911e+02 -3.032796e+02 -3.035651e+02 -3.036534e+02 -3.039400e+02 -3.040175e+02 -3.043066e+02 -3.043619e+02 -3.046589e+02 -3.046797e+02 -3.049963e+02 -3.049688e+02 -3.053239e+02 -3.052324e+02 -3.056525e+02 -3.054773e+02 -3.059970e+02 -3.057116e+02 -3.063726e+02 -3.059413e+02 -3.067922e+02 -3.061681e+02 -3.072625e+02 -3.063882e+02 -3.077823e+02 -3.065938e+02 -3.083418e+02 -3.067753e+02 -3.089237e+02 -3.069246e+02 -3.095064e+02 -3.070365e+02 -3.100686e+02 -3.071103e+02 -3.105907e+02 -3.071522e+02 -3.110534e+02 -3.071807e+02 -3.114405e+02 -3.072301e+02 -3.117601e+02 -3.073329e+02 -3.120486e+02 -3.074577e+02 -3.122986e+02 -3.076190e+02 -3.124702e+02 -3.078206e+02 -3.125399e+02 -3.080446e+02 -3.125064e+02 -3.082574e+02 -3.123765e+02 -3.084239e+02 -3.121716e+02 -3.085277e+02 -3.119113e+02 -3.085645e+02 -3.116082e+02 -3.085350e+02 -3.112695e+02 -3.084423e+02 -3.108994e+02 -3.082906e+02 -3.105004e+02 -3.080845e+02 -3.100745e+02 -3.078290e+02 -3.096235e+02 -3.075292e+02 -3.091499e+02 -3.071906e+02 -3.086562e+02 -3.068188e+02 
-3.162513e+02 -3.118513e+02 -3.167367e+02 -3.123702e+02 -3.172300e+02 -3.129040e+02 -3.177240e+02 -3.134482e+02 -3.182120e+02 -3.139979e+02 -3.186872e+02 -3.145477e+02 -3.191435e+02 -3.150919e+02 -3.195752e+02 -3.156250e+02 -3.199772e+02 -3.161413e+02 -3.203450e+02 -3.166351e+02 -3.206750e+02 -3.171012e+02 -3.209642e+02 -3.175346e+02 -3.212100e+02 -3.179307e+02 -3.214105e+02 -3.182853e+02 -3.215641e+02 -3.185944e+02 -3.216697e+02 -3.188545e+02 -3.217261e+02 -3.190624e+02 -3.217325e+02 -3.192153e+02 -3.216881e+02 -3.193106e+02 -3.215924e+02 -3.193464e+02 -3.214450e+02 -3.193212e+02 -3.212463e+02 -3.192345e+02 -3.209971e+02 -3.190869e+02 -3.206992e+02 -3.188798e+02 -3.203555e+02 -3.186161e+02 -3.199699e+02 -3.182997e+02 -3.195472e+02 -3.179353e+02 -3.190927e+02 -3.175281e+02 -3.186118e+02 -3.170834e+02 -3.181099e+02 -3.166058e+02 -3.175909e+02 -3.160986e+02 -3.170576e+02 -3.155628e+02 -3.165105e+02 -3.149964e+02 -3.159488e+02 -3.143945e+02 -3.153714e+02 -3.137509e+02 -3.147800e+02 -3.130616e+02 -3.141831e+02 -3.123285e+02 -3.135988e+02 -3.115629e+02 -3.130559e+02 -3.107864e+02 -3.125891e+02 -3.100291e+02 -3.122307e+02 -3.093260e+02 -3.120006e+02 -3.087136e+02 -3.118987e+02 -3.082249e+02 -3.119060e+02 -3.078780e+02 -3.119956e+02 -3.076548e+02 -3.121491e+02 -3.074901e+02 -3.123531e+02 -3.073208e+02 -3.125508e+02 -3.071477e+02 -3.126989e+02 -3.070287e+02 -3.128192e+02 -3.069836e+02 -3.129195e+02 -3.070386e+02 -3.130029e+02 -3.071930e+02 -3.130740e+02 -3.074191e+02 -3.131224e+02 -3.076726e+02 -3.131819e+02 -3.079425e+02 -3.132785e+02 -3.082290e+02 -3.134247e+02 -3.085343e+02 -3.136242e+02 -3.088612e+02 -3.138763e+02 -3.092118e+02 -3.141777e+02 -3.095877e+02 -3.145243e+02 -3.099899e+02 -3.149108e+02 -3.104184e+02 -3.153316e+02 -3.108727e+02 -3.157806e+02 -3.113511e+02 
-3.081778e+02 -3.064722e+02 -3.076438e+02 -3.060367e+02 -3.071001e+02 -3.055862e+02 -3.065517e+02 -3.051276e+02 -3.060038e+02 -3.046673e+02 -3.054620e+02 -3.042122e+02 -3.049320e+02 -3.037684e+02 -3.044194e+02 -3.033420e+02 -3.039297e+02 -3.029386e+02 -3.034680e+02 -3.025630e+02 -3.030392e+02 -3.022197e+02 -3.026475e+02 -3.019125e+02 -3.022967e+02 -3.016446e+02 -3.019903e+02 -3.014187e+02 -3.017312e+02 -3.012372e+02 -3.015217e+02 -3.011021e+02 -3.013642e+02 -3.010152e+02 -3.012604e+02 -3.009780e+02 -3.012120e+02 -3.009918e+02 -3.012202e+02 -3.010578e+02 -3.012859e+02 -3.011767e+02 -3.014090e+02 -3.013483e+02 -3.015888e+02 -3.015717e+02 -3.018228e+02 -3.018441e+02 -3.021070e+02 -3.021608e+02 -3.024346e+02 -3.025148e+02 -3.027968e+02 -3.028960e+02 -3.031817e+02 -3.032920e+02 -3.035761e+02 -3.036882e+02 -3.039662e+02 -3.040701e+02 -3.043398e+02 -3.044249e+02 -3.046891e+02 -3.047448e+02 -3.050131e+02 -3.050288e+02 -3.053191e+02 -3.052835e+02 -3.056227e+02 -3.055214e+02 -3.059448e+02 -3.057560e+02 -3.063074e+02 -3.059968e+02 -3.067277e+02 -3.062448e+02 -3.072145e+02 -3.064913e+02 -3.077649e+02 -3.067209e+02 -3.083643e+02 -3.069169e+02 -3.089882e+02 -3.070667e+02 -3.096086e+02 -3.071633e+02 -3.102014e+02 -3.072045e+02 -3.107497e+02 -3.071926e+02 -3.112309e+02 -3.071490e+02 -3.116015e+02 -3.071397e+02 -3.118706e+02 -3.072736e+02 -3.121727e+02 -3.073804e+02 -3.124864e+02 -3.075426e+02 -3.127005e+02 -3.077831e+02 -3.127765e+02 -3.080740e+02 -3.127299e+02 -3.083567e+02 -3.125612e+02 -3.085631e+02 -3.123173e+02 -3.086834e+02 -3.120275e+02 -3.087228e+02 -3.117046e+02 -3.086886e+02 -3.113532e+02 -3.085873e+02 -3.109746e+02 -3.084249e+02 -3.105691e+02 -3.082069e+02 -3.101372e+02 -3.079386e+02 -3.096801e+02 -3.076254e+02 -3.091994e+02 -3.072727e+02 -3.086976e+02 -3.068863e+02 
-3.162082e+02 -3.117982e+02 -3.167140e+02 -3.123283e+02 -3.172278e+02 -3.128751e+02 -3.177420e+02 -3.134338e+02 -3.182495e+02 -3.139992e+02 -3.187432e+02 -3.145654e+02 -3.192164e+02 -3.151264e+02 -3.196633e+02 -3.156763e+02 -3.200786e+02 -3.162089e+02 -3.204579e+02 -3.167185e+02 -3.207975e+02 -3.171995e+02 -3.210945e+02 -3.176469e+02 -3.213467e+02 -3.180559e+02 -3.215524e+02 -3.184225e+02 -3.217105e+02 -3.187426e+02 -3.218200e+02 -3.190130e+02 -3.218799e+02 -3.192303e+02 -3.218896e+02 -3.193917e+02 -3.218482e+02 -3.194945e+02 -3.217549e+02 -3.195363e+02 -3.216091e+02 -3.195154e+02 -3.214103e+02 -3.194305e+02 -3.211590e+02 -3.192817e+02 -3.208562e+02 -3.190700e+02 -3.205043e+02 -3.187979e+02 -3.201070e+02 -3.184693e+02 -3.196693e+02 -3.180897e+02 -3.191973e+02 -3.176654e+02 -3.186979e+02 -3.172036e+02 -3.181782e+02 -3.167117e+02 -3.176446e+02 -3.161959e+02 -3.171014e+02 -3.156598e+02 -3.165493e+02 -3.151014e+02 -3.159844e+02 -3.145125e+02 -3.154000e+02 -3.138798e+02 -3.147901e+02 -3.131902e+02 -3.141569e+02 -3.124378e+02 -3.135179e+02 -3.116300e+02 -3.129090e+02 -3.107898e+02 -3.123800e+02 -3.099529e+02 -3.119810e+02 -3.091634e+02 -3.117441e+02 -3.084723e+02 -3.116684e+02 -3.079381e+02 -3.117186e+02 -3.076135e+02 -3.118468e+02 -3.074906e+02 -3.120417e+02 -3.074236e+02 -3.123486e+02 -3.072545e+02 -3.126268e+02 -3.069923e+02 -3.127591e+02 -3.068256e+02 -3.128686e+02 -3.067344e+02 -3.129599e+02 -3.067926e+02 -3.130297e+02 -3.070007e+02 -3.131007e+02 -3.073080e+02 -3.130880e+02 -3.075960e+02 -3.130921e+02 -3.078769e+02 -3.131550e+02 -3.081644e+02 -3.132856e+02 -3.084670e+02 -3.134818e+02 -3.087901e+02 -3.137385e+02 -3.091374e+02 -3.140497e+02 -3.095115e+02 -3.144094e+02 -3.099138e+02 -3.148116e+02 -3.103446e+02 -3.152499e+02 -3.108035e+02 -3.157177e+02 -3.112888e+02 
-3.082241e+02 -3.065460e+02 -3.076753e+02 -3.060885e+02 -3.071153e+02 -3.056157e+02 -3.065494e+02 -3.051348e+02 -3.059832e+02 -3.046526e+02 -3.054228e+02 -3.041763e+02 -3.048743e+02 -3.037125e+02 -3.043437e+02 -3.032676e+02 -3.038368e+02 -3.028473e+02 -3.033591e+02 -3.024567e+02 -3.029157e+02 -3.021002e+02 -3.025109e+02 -3.017816e+02 -3.021486e+02 -3.015040e+02 -3.018322e+02 -3.012700e+02 -3.015647e+02 -3.010818e+02 -3.013484e+02 -3.009414e+02 -3.011856e+02 -3.008506e+02 -3.010784e+02 -3.008111e+02 -3.010286e+02 -3.008247e+02 -3.010381e+02 -3.008931e+02 -3.011084e+02 -3.010177e+02 -3.012404e+02 -3.011993e+02 -3.014340e+02 -3.014378e+02 -3.016876e+02 -3.017312e+02 -3.019970e+02 -3.020748e+02 -3.023552e+02 -3.024610e+02 -3.027514e+02 -3.028784e+02 -3.031714e+02 -3.033116e+02 -3.035978e+02 -3.037423e+02 -3.040121e+02 -3.041513e+02 -3.043974e+02 -3.045215e+02 -3.047421e+02 -3.048424e+02 -3.050438e+02 -3.051139e+02 -3.053129e+02 -3.053487e+02 -3.055728e+02 -3.055692e+02 -3.058553e+02 -3.058000e+02 -3.061935e+02 -3.060577e+02 -3.066132e+02 -3.063428e+02 -3.071260e+02 -3.066372e+02 -3.077266e+02 -3.069108e+02 -3.083918e+02 -3.071336e+02 -3.090837e+02 -3.072866e+02 -3.097599e+02 -3.073636e+02 -3.103927e+02 -3.073616e+02 -3.109819e+02 -3.072672e+02 -3.115192e+02 -3.070816e+02 -3.118627e+02 -3.069041e+02 -3.119461e+02 -3.072394e+02 -3.122838e+02 -3.072455e+02 -3.127720e+02 -3.073855e+02 -3.130662e+02 -3.076927e+02 -3.131327e+02 -3.081092e+02 -3.130736e+02 -3.085316e+02 -3.128212e+02 -3.087892e+02 -3.125096e+02 -3.089207e+02 -3.121774e+02 -3.089555e+02 -3.118301e+02 -3.089097e+02 -3.114645e+02 -3.087937e+02 -3.110768e+02 -3.086150e+02 -3.106642e+02 -3.083796e+02 -3.102254e+02 -3.080932e+02 -3.097603e+02 -3.077611e+02 -3.092701e+02 -3.073886e+02 -3.087570e+02 -3.069815e+02 
-3.161497e+02 -3.117243e+02 -3.166833e+02 -3.122697e+02 -3.172251e+02 -3.128344e+02 -3.177671e+02 -3.134131e+02 -3.183012e+02 -3.139999e+02 -3.188199e+02 -3.145887e+02 -3.193161e+02 -3.151727e+02 -3.197835e+02 -3.157454e+02 -3.202167e+02 -3.163003e+02 -3.206111e+02 -3.168312e+02 -3.209632e+02 -3.173322e+02 -3.212703e+02 -3.177982e+02 -3.215306e+02 -3.182244e+02 -3.217428e+02 -3.186068e+02 -3.219063e+02 -3.189415e+02 -3.220206e+02 -3.192254e+02 -3.220851e+02 -3.194554e+02 -3.220992e+02 -3.196284e+02 -3.220622e+02 -3.197416e+02 -3.219728e+02 -3.197923e+02 -3.218299e+02 -3.197779e+02 -3.216323e+02 -3.196965e+02 -3.213791e+02 -3.195470e+02 -3.210706e+02 -3.193296e+02 -3.207081e+02 -3.190461e+02 -3.202948e+02 -3.187003e+02 -3.198355e+02 -3.182979e+02 -3.193374e+02 -3.178470e+02 -3.188095e+02 -3.173575e+02 -3.182622e+02 -3.168411e+02 -3.177060e+02 -3.163099e+02 -3.171492e+02 -3.157728e+02 -3.165939e+02 -3.152299e+02 -3.160328e+02 -3.146683e+02 -3.154493e+02 -3.140627e+02 -3.148229e+02 -3.133839e+02 -3.141422e+02 -3.126117e+02 -3.134200e+02 -3.117467e+02 -3.127031e+02 -3.108140e+02 -3.120678e+02 -3.098578e+02 -3.115985e+02 -3.089314e+02 -3.113540e+02 -3.080995e+02 -3.113347e+02 -3.074600e+02 -3.114674e+02 -3.071568e+02 -3.116367e+02 -3.072714e+02 -3.118209e+02 -3.074559e+02 -3.123704e+02 -3.072787e+02 -3.128461e+02 -3.067391e+02 -3.128403e+02 -3.065445e+02 -3.129339e+02 -3.063330e+02 -3.130186e+02 -3.063933e+02 -3.130509e+02 -3.067053e+02 -3.132079e+02 -3.072153e+02 -3.130366e+02 -3.075274e+02 -3.129446e+02 -3.078056e+02 -3.129646e+02 -3.080856e+02 -3.130815e+02 -3.083797e+02 -3.132795e+02 -3.086950e+02 -3.135464e+02 -3.090364e+02 -3.138732e+02 -3.094071e+02 -3.142521e+02 -3.098090e+02 -3.146762e+02 -3.102427e+02 -3.151386e+02 -3.107077e+02 -3.156322e+02 -3.112024e+02 
-3.082864e+02 -3.066420e+02 -3.077182e+02 -3.061558e+02 -3.071367e+02 -3.056538e+02 -3.065477e+02 -3.051435e+02 -3.059574e+02 -3.046326e+02 -3.053724e+02 -3.041285e+02 -3.047993e+02 -3.036385e+02 -3.042449e+02 -3.031693e+02 -3.037155e+02 -3.027270e+02 -3.032168e+02 -3.023169e+02 -3.027543e+02 -3.019434e+02 -3.023324e+02 -3.016103e+02 -3.019552e+02 -3.013204e+02 -3.016260e+02 -3.010761e+02 -3.013475e+02 -3.008794e+02 -3.011222e+02 -3.007320e+02 -3.009523e+02 -3.006357e+02 -3.008400e+02 -3.005926e+02 -3.007877e+02 -3.006049e+02 -3.007978e+02 -3.006751e+02 -3.008729e+02 -3.008058e+02 -3.010152e+02 -3.009993e+02 -3.012259e+02 -3.012565e+02 -3.015046e+02 -3.015768e+02 -3.018477e+02 -3.019561e+02 -3.022478e+02 -3.023863e+02 -3.026921e+02 -3.028540e+02 -3.031627e+02 -3.033404e+02 -3.036368e+02 -3.038215e+02 -3.040885e+02 -3.042707e+02 -3.044930e+02 -3.046629e+02 -3.048317e+02 -3.049816e+02 -3.050986e+02 -3.052269e+02 -3.053075e+02 -3.054202e+02 -3.054936e+02 -3.056019e+02 -3.057078e+02 -3.058177e+02 -3.060026e+02 -3.060994e+02 -3.064176e+02 -3.064477e+02 -3.069699e+02 -3.068273e+02 -3.076499e+02 -3.071791e+02 -3.084210e+02 -3.074474e+02 -3.092209e+02 -3.076059e+02 -3.099752e+02 -3.076596e+02 -3.106397e+02 -3.076188e+02 -3.112695e+02 -3.074326e+02 -3.119988e+02 -3.070022e+02 -3.123818e+02 -3.061529e+02 -3.117635e+02 -3.075320e+02 -3.122431e+02 -3.069730e+02 -3.132488e+02 -3.070575e+02 -3.136555e+02 -3.074888e+02 -3.136083e+02 -3.081331e+02 -3.136057e+02 -3.088703e+02 -3.131404e+02 -3.091424e+02 -3.127239e+02 -3.092561e+02 -3.123438e+02 -3.092695e+02 -3.119746e+02 -3.092016e+02 -3.115984e+02 -3.090632e+02 -3.112042e+02 -3.088618e+02 -3.107857e+02 -3.086036e+02 -3.103399e+02 -3.082937e+02 -3.098657e+02 -3.079371e+02 -3.093638e+02 -3.075391e+02 -3.088363e+02 -3.071053e+02 
-3.160751e+02 -3.116267e+02 -3.166446e+02 -3.121920e+02 -3.172225e+02 -3.127799e+02 -3.178001e+02 -3.133844e+02 -3.183685e+02 -3.139992e+02 -3.189195e+02 -3.146171e+02 -3.194451e+02 -3.152309e+02 -3.199387e+02 -3.158331e+02 -3.203943e+02 -3.164165e+02 -3.208074e+02 -3.169744e+02 -3.211747e+02 -3.175007e+02 -3.214937e+02 -3.179899e+02 -3.217632e+02 -3.184375e+02 -3.219827e+02 -3.188393e+02 -3.221521e+02 -3.191920e+02 -3.222716e+02 -3.194926e+02 -3.223414e+02 -3.197383e+02 -3.223612e+02 -3.199263e+02 -3.223302e+02 -3.200534e+02 -3.222469e+02 -3.201165e+02 -3.221093e+02 -3.201121e+02 -3.219150e+02 -3.200369e+02 -3.216617e+02 -3.198883e+02 -3.213479e+02 -3.196649e+02 -3.209731e+02 -3.193673e+02 -3.205391e+02 -3.189983e+02 -3.200505e+02 -3.185638e+02 -3.195151e+02 -3.180731e+02 -3.189444e+02 -3.175397e+02 -3.183541e+02 -3.169819e+02 -3.177622e+02 -3.164219e+02 -3.171857e+02 -3.158803e+02 -3.166321e+02 -3.153644e+02 -3.160913e+02 -3.148560e+02 -3.155308e+02 -3.143095e+02 -3.149030e+02 -3.136666e+02 -3.141681e+02 -3.128813e+02 -3.133243e+02 -3.119425e+02 -3.124320e+02 -3.108821e+02 -3.116137e+02 -3.097594e+02 -3.110191e+02 -3.086325e+02 -3.107651e+02 -3.075582e+02 -3.108695e+02 -3.066618e+02 -3.111919e+02 -3.062883e+02 -3.114130e+02 -3.069792e+02 -3.112297e+02 -3.078438e+02 -3.124641e+02 -3.076631e+02 -3.135433e+02 -3.061403e+02 -3.128213e+02 -3.062764e+02 -3.130065e+02 -3.056559e+02 -3.131258e+02 -3.057379e+02 -3.129394e+02 -3.062034e+02 -3.136353e+02 -3.073196e+02 -3.129067e+02 -3.074944e+02 -3.126868e+02 -3.077340e+02 -3.126787e+02 -3.079936e+02 -3.127973e+02 -3.082717e+02 -3.130086e+02 -3.085741e+02 -3.132949e+02 -3.089062e+02 -3.136447e+02 -3.092717e+02 -3.140497e+02 -3.096725e+02 -3.145025e+02 -3.101095e+02 -3.149960e+02 -3.105822e+02 -3.155228e+02 -3.110888e+02 
-3.083671e+02 -3.067611e+02 -3.077745e+02 -3.062391e+02 -3.071659e+02 -3.057005e+02 -3.065477e+02 -3.051534e+02 -3.059268e+02 -3.046062e+02 -3.053105e+02 -3.040672e+02 -3.047065e+02 -3.035443e+02 -3.041220e+02 -3.030449e+02 -3.035641e+02 -3.025753e+02 -3.030392e+02 -3.021413e+02 -3.025529e+02 -3.017471e+02 -3.021100e+02 -3.013964e+02 -3.017145e+02 -3.010918e+02 -3.013696e+02 -3.008351e+02 -3.010777e+02 -3.006280e+02 -3.008412e+02 -3.004719e+02 -3.006621e+02 -3.003684e+02 -3.005427e+02 -3.003198e+02 -3.004858e+02 -3.003289e+02 -3.004948e+02 -3.003995e+02 -3.005738e+02 -3.005355e+02 -3.007266e+02 -3.007413e+02 -3.009568e+02 -3.010201e+02 -3.012658e+02 -3.013729e+02 -3.016516e+02 -3.017971e+02 -3.021068e+02 -3.022846e+02 -3.026166e+02 -3.028201e+02 -3.031584e+02 -3.033804e+02 -3.037016e+02 -3.039338e+02 -3.042104e+02 -3.044426e+02 -3.046473e+02 -3.048679e+02 -3.049810e+02 -3.051806e+02 -3.051964e+02 -3.053758e+02 -3.053088e+02 -3.054875e+02 -3.053720e+02 -3.055874e+02 -3.054693e+02 -3.057620e+02 -3.056876e+02 -3.060749e+02 -3.060903e+02 -3.065315e+02 -3.067015e+02 -3.070646e+02 -3.075053e+02 -3.075560e+02 -3.084477e+02 -3.078962e+02 -3.094276e+02 -3.080505e+02 -3.102978e+02 -3.080631e+02 -3.109303e+02 -3.080256e+02 -3.114548e+02 -3.078367e+02 -3.128179e+02 -3.073377e+02 -3.139030e+02 -3.032324e+02 -3.126830e+02 -3.036431e+02 -3.090803e+02 -3.064780e+02 -3.116895e+02 -3.057049e+02 -3.125478e+02 -3.063286e+02 -3.124506e+02 -3.080241e+02 -3.142679e+02 -3.096750e+02 -3.134139e+02 -3.096564e+02 -3.129041e+02 -3.096935e+02 -3.125009e+02 -3.096661e+02 -3.121273e+02 -3.095649e+02 -3.117510e+02 -3.093961e+02 -3.113563e+02 -3.091660e+02 -3.109350e+02 -3.088794e+02 -3.104829e+02 -3.085409e+02 -3.099988e+02 -3.081546e+02 -3.094832e+02 -3.077255e+02 -3.089382e+02 -3.072589e+02 
-3.159833e+02 -3.115019e+02 -3.165973e+02 -3.120919e+02 -3.172204e+02 -3.127088e+02 -3.178425e+02 -3.133458e+02 -3.184538e+02 -3.139957e+02 -3.190448e+02 -3.146504e+02 -3.196069e+02 -3.153013e+02 -3.201324e+02 -3.159403e+02 -3.206152e+02 -3.165590e+02 -3.210505e+02 -3.171502e+02 -3.214352e+02 -3.177071e+02 -3.217674e+02 -3.182242e+02 -3.220465e+02 -3.186968e+02 -3.222731e+02 -3.191214e+02 -3.224482e+02 -3.194949e+02 -3.225729e+02 -3.198151e+02 -3.226483e+02 -3.200797e+02 -3.226748e+02 -3.202860e+02 -3.226519e+02 -3.204311e+02 -3.225776e+02 -3.205112e+02 -3.224491e+02 -3.205216e+02 -3.222623e+02 -3.204571e+02 -3.220126e+02 -3.203130e+02 -3.216957e+02 -3.200851e+02 -3.213084e+02 -3.197715e+02 -3.208499e+02 -3.193732e+02 -3.203230e+02 -3.188950e+02 -3.197352e+02 -3.183467e+02 -3.191008e+02 -3.177450e+02 -3.184427e+02 -3.171168e+02 -3.177918e+02 -3.165012e+02 -3.171824e+02 -3.159433e+02 -3.166375e+02 -3.154707e+02 -3.161488e+02 -3.150613e+02 -3.156599e+02 -3.146341e+02 -3.150737e+02 -3.140773e+02 -3.142922e+02 -3.132970e+02 -3.132752e+02 -3.122631e+02 -3.120964e+02 -3.110274e+02 -3.109564e+02 -3.096890e+02 -3.101253e+02 -3.083075e+02 -3.098421e+02 -3.068605e+02 -3.102037e+02 -3.053527e+02 -3.110250e+02 -3.043545e+02 -3.115856e+02 -3.065027e+02 -3.092025e+02 -3.090116e+02 -3.193040e+02 -3.044547e+02 -3.161648e+02 -3.005365e+02 -3.039602e+02 -3.022830e+02 -3.076736e+02 -3.023234e+02 -3.090724e+02 -3.035557e+02 -3.097023e+02 -3.057153e+02 -3.122147e+02 -3.071336e+02 -3.122726e+02 -3.073996e+02 -3.122197e+02 -3.076443e+02 -3.122678e+02 -3.078845e+02 -3.124216e+02 -3.081403e+02 -3.126637e+02 -3.084242e+02 -3.129802e+02 -3.087431e+02 -3.133614e+02 -3.091010e+02 -3.137996e+02 -3.095000e+02 -3.142882e+02 -3.099407e+02 -3.148201e+02 -3.104226e+02 -3.153879e+02 -3.109440e+02 
-3.084696e+02 -3.069047e+02 -3.078472e+02 -3.063393e+02 -3.072053e+02 -3.057561e+02 -3.065509e+02 -3.051640e+02 -3.058921e+02 -3.045724e+02 -3.052372e+02 -3.039907e+02 -3.045948e+02 -3.034276e+02 -3.039734e+02 -3.028914e+02 -3.033806e+02 -3.023891e+02 -3.028238e+02 -3.019265e+02 -3.023089e+02 -3.015081e+02 -3.018410e+02 -3.011371e+02 -3.014239e+02 -3.008157e+02 -3.010605e+02 -3.005450e+02 -3.007529e+02 -3.003259e+02 -3.005030e+02 -3.001594e+02 -3.003124e+02 -3.000467e+02 -3.001833e+02 -2.999901e+02 -3.001191e+02 -2.999932e+02 -3.001242e+02 -3.000611e+02 -3.002042e+02 -3.001999e+02 -3.003661e+02 -3.004168e+02 -3.006163e+02 -3.007181e+02 -3.009599e+02 -3.011081e+02 -3.013975e+02 -3.015867e+02 -3.019230e+02 -3.021464e+02 -3.025198e+02 -3.027709e+02 -3.031598e+02 -3.034319e+02 -3.038027e+02 -3.040887e+02 -3.043983e+02 -3.046881e+02 -3.048914e+02 -3.051685e+02 -3.052284e+02 -3.054738e+02 -3.053724e+02 -3.055817e+02 -3.053324e+02 -3.055395e+02 -3.051901e+02 -3.054733e+02 -3.050873e+02 -3.055480e+02 -3.051727e+02 -3.058955e+02 -3.055493e+02 -3.065397e+02 -3.062485e+02 -3.073573e+02 -3.072419e+02 -3.081068e+02 -3.084622e+02 -3.085546e+02 -3.097663e+02 -3.086539e+02 -3.108722e+02 -3.085238e+02 -3.113322e+02 -3.085795e+02 -3.107857e+02 -3.085476e+02 -3.153514e+02 -3.142147e+02 -2.930791e+02 -2.901030e+02 -3.144876e+02 -2.916977e+02 -3.091552e+02 -2.992346e+02 -3.098433e+02 -3.027017e+02 -3.109749e+02 -3.053074e+02 -3.116715e+02 -3.078476e+02 -3.136462e+02 -3.096705e+02 -3.133473e+02 -3.101177e+02 -3.129799e+02 -3.101974e+02 -3.126301e+02 -3.101380e+02 -3.122839e+02 -3.099969e+02 -3.119232e+02 -3.097912e+02 -3.115359e+02 -3.095270e+02 -3.111154e+02 -3.092077e+02 -3.106583e+02 -3.088360e+02 -3.101637e+02 -3.084153e+02 -3.096322e+02 -3.079495e+02 -3.090663e+02 -3.074439e+02 
-3.158729e+02 -3.113448e+02 -3.165412e+02 -3.119651e+02 -3.172193e+02 -3.126176e+02 -3.178960e+02 -3.132948e+02 -3.185598e+02 -3.139880e+02 -3.191997e+02 -3.146879e+02 -3.198060e+02 -3.153847e+02 -3.203698e+02 -3.160685e+02 -3.208846e+02 -3.167301e+02 -3.213453e+02 -3.173611e+02 -3.217491e+02 -3.179542e+02 -3.220949e+02 -3.185037e+02 -3.223832e+02 -3.190049e+02 -3.226157e+02 -3.194549e+02 -3.227950e+02 -3.198516e+02 -3.229238e+02 -3.201936e+02 -3.230045e+02 -3.204796e+02 -3.230386e+02 -3.207078e+02 -3.230260e+02 -3.208756e+02 -3.229649e+02 -3.209786e+02 -3.228512e+02 -3.210107e+02 -3.226785e+02 -3.209644e+02 -3.224393e+02 -3.208312e+02 -3.221250e+02 -3.206031e+02 -3.217280e+02 -3.202739e+02 -3.212428e+02 -3.198409e+02 -3.206680e+02 -3.193061e+02 -3.200088e+02 -3.186771e+02 -3.192803e+02 -3.179713e+02 -3.185136e+02 -3.172236e+02 -3.177602e+02 -3.164989e+02 -3.170876e+02 -3.158914e+02 -3.165557e+02 -3.154816e+02 -3.161744e+02 -3.152520e+02 -3.158547e+02 -3.150571e+02 -3.154106e+02 -3.146832e+02 -3.146264e+02 -3.139440e+02 -3.133712e+02 -3.127744e+02 -3.117205e+02 -3.112815e+02 -3.100060e+02 -3.096835e+02 -3.087110e+02 -3.080769e+02 -3.083010e+02 -3.062468e+02 -3.090949e+02 -3.035436e+02 -3.111239e+02 -2.992581e+02 -3.144477e+02 -3.086613e+02 -2.448482e+02 -2.840741e+02 -3.091987e+02 -2.923254e+02 -3.148125e+02 -2.831476e+02 -3.115696e+02 -2.945437e+02 -3.104050e+02 -2.999072e+02 -3.096455e+02 -3.031754e+02 -3.095661e+02 -3.052873e+02 -3.124336e+02 -3.068546e+02 -3.117504e+02 -3.073277e+02 -3.116531e+02 -3.075608e+02 -3.117527e+02 -3.077610e+02 -3.119588e+02 -3.079819e+02 -3.122454e+02 -3.082399e+02 -3.126016e+02 -3.085415e+02 -3.130214e+02 -3.088896e+02 -3.134995e+02 -3.092858e+02 -3.140306e+02 -3.097307e+02 -3.146084e+02 -3.102236e+02 -3.152254e+02 -3.107627e+02 