# vtk DataFile Version 2.0
Comment goes here
ASCII

DATASET STRUCTURED_POINTS
DIMENSIONS    128   128   1

ORIGIN    0.000   0.000   0.000
SPACING   0.0156250.015625   1.000

POINT_DATA   16384
SCALARS P double
LOOKUP_TABLE default

-3.136490e+02 -3.109944e+02 -3.131633e+02 -3.105627e+02 -3.126653e+02 -3.101204e+02 -3.121592e+02 -3.096740e+02 -3.116493e+02 -3.092302e+02 -3.111403e+02 -3.087951e+02 -3.106371e+02 -3.083747e+02 -3.101449e+02 -3.079747e+02 -3.096686e+02 -3.076001e+02 -3.092132e+02 -3.072554e+02 -3.087835e+02 -3.069446e+02 -3.083838e+02 -3.066711e+02 -3.080185e+02 -3.064377e+02 -3.076913e+02 -3.062470e+02 -3.074056e+02 -3.061007e+02 -3.071645e+02 -3.060006e+02 -3.069707e+02 -3.059478e+02 -3.068263e+02 -3.059433e+02 -3.067331e+02 -3.059876e+02 -3.066921e+02 -3.060810e+02 -3.067039e+02 -3.062230e+02 -3.067682e+02 -3.064127e+02 -3.068837e+02 -3.066481e+02 -3.070480e+02 -3.069260e+02 -3.072572e+02 -3.072418e+02 -3.075060e+02 -3.075893e+02 -3.077876e+02 -3.079605e+02 -3.080939e+02 -3.083457e+02 -3.084161e+02 -3.087345e+02 -3.087455e+02 -3.091163e+02 -3.090747e+02 -3.094818e+02 -3.093994e+02 -3.098241e+02 -3.097189e+02 -3.101397e+02 -3.100370e+02 -3.104288e+02 -3.103617e+02 -3.106943e+02 -3.107039e+02 -3.109407e+02 -3.110753e+02 -3.111718e+02 -3.114857e+02 -3.113899e+02 -3.119411e+02 -3.115945e+02 -3.124413e+02 -3.117828e+02 -3.129796e+02 -3.119504e+02 -3.135429e+02 -3.120928e+02 -3.141140e+02 -3.122073e+02 -3.146734e+02 -3.122946e+02 -3.152024e+02 -3.123606e+02 -3.156852e+02 -3.124176e+02 -3.161123e+02 -3.124819e+02 -3.164827e+02 -3.125658e+02 -3.167999e+02 -3.126710e+02 -3.170591e+02 -3.127982e+02 -3.172471e+02 -3.129429e+02 -3.173525e+02 -3.130925e+02 -3.173715e+02 -3.132278e+02 -3.173081e+02 -3.133288e+02 -3.171729e+02 -3.133806e+02 -3.169784e+02 -3.133752e+02 -3.167352e+02 -3.133095e+02 -3.164514e+02 -3.131841e+02 -3.161326e+02 -3.130020e+02 -3.157824e+02 -3.127672e+02 -3.154038e+02 -3.124849e+02 -3.149988e+02 -3.121604e+02 -3.145697e+02 -3.117997e+02 -3.141189e+02 -3.114089e+02 
-3.220235e+02 -3.165244e+02 -3.225163e+02 -3.169992e+02 -3.230121e+02 -3.174917e+02 -3.235040e+02 -3.179981e+02 -3.239853e+02 -3.185144e+02 -3.244494e+02 -3.190359e+02 -3.248905e+02 -3.195577e+02 -3.253031e+02 -3.200744e+02 -3.256824e+02 -3.205808e+02 -3.260243e+02 -3.210713e+02 -3.263256e+02 -3.215406e+02 -3.265833e+02 -3.219835e+02 -3.267955e+02 -3.223948e+02 -3.269603e+02 -3.227699e+02 -3.270766e+02 -3.231042e+02 -3.271434e+02 -3.233937e+02 -3.271600e+02 -3.236344e+02 -3.271260e+02 -3.238230e+02 -3.270410e+02 -3.239568e+02 -3.269050e+02 -3.240336e+02 -3.267184e+02 -3.240519e+02 -3.264822e+02 -3.240112e+02 -3.261978e+02 -3.239122e+02 -3.258677e+02 -3.237564e+02 -3.254952e+02 -3.235466e+02 -3.250840e+02 -3.232860e+02 -3.246389e+02 -3.229785e+02 -3.241642e+02 -3.226276e+02 -3.236645e+02 -3.222364e+02 -3.231434e+02 -3.218067e+02 -3.226038e+02 -3.213393e+02 -3.220477e+02 -3.208332e+02 -3.214768e+02 -3.202865e+02 -3.208931e+02 -3.196971e+02 -3.203008e+02 -3.190644e+02 -3.197073e+02 -3.183911e+02 -3.191254e+02 -3.176851e+02 -3.185734e+02 -3.169608e+02 -3.180740e+02 -3.162388e+02 -3.176509e+02 -3.155438e+02 -3.173242e+02 -3.149015e+02 -3.171053e+02 -3.143346e+02 -3.169946e+02 -3.138583e+02 -3.169813e+02 -3.134753e+02 -3.170480e+02 -3.131745e+02 -3.171740e+02 -3.129348e+02 -3.173373e+02 -3.127383e+02 -3.175145e+02 -3.125818e+02 -3.176882e+02 -3.124748e+02 -3.178517e+02 -3.124277e+02 -3.180042e+02 -3.124475e+02 -3.181470e+02 -3.125327e+02 -3.182840e+02 -3.126735e+02 -3.184215e+02 -3.128560e+02 -3.185716e+02 -3.130696e+02 -3.187472e+02 -3.133086e+02 -3.189582e+02 -3.135703e+02 -3.192105e+02 -3.138545e+02 -3.195059e+02 -3.141619e+02 -3.198438e+02 -3.144933e+02 -3.202210e+02 -3.148498e+02 -3.206333e+02 -3.152316e+02 -3.210753e+02 -3.156387e+02 -3.215409e+02 -3.160701e+02 
-3.136572e+02 -3.110031e+02 -3.131697e+02 -3.105681e+02 -3.126698e+02 -3.101225e+02 -3.121615e+02 -3.096729e+02 -3.116492e+02 -3.092259e+02 -3.111378e+02 -3.087879e+02 -3.106322e+02 -3.083648e+02 -3.101375e+02 -3.079623e+02 -3.096588e+02 -3.075854e+02 -3.092010e+02 -3.072388e+02 -3.087690e+02 -3.069263e+02 -3.083673e+02 -3.066514e+02 -3.080001e+02 -3.064169e+02 -3.076712e+02 -3.062252e+02 -3.073840e+02 -3.060782e+02 -3.071417e+02 -3.059775e+02 -3.069469e+02 -3.059244e+02 -3.068019e+02 -3.059198e+02 -3.067083e+02 -3.059644e+02 -3.066675e+02 -3.060583e+02 -3.066799e+02 -3.062014e+02 -3.067455e+02 -3.063927e+02 -3.068628e+02 -3.066303e+02 -3.070297e+02 -3.069111e+02 -3.072422e+02 -3.072306e+02 -3.074948e+02 -3.075824e+02 -3.077806e+02 -3.079581e+02 -3.080910e+02 -3.083481e+02 -3.084167e+02 -3.087412e+02 -3.087486e+02 -3.091265e+02 -3.090789e+02 -3.094942e+02 -3.094029e+02 -3.098375e+02 -3.097200e+02 -3.101531e+02 -3.100344e+02 -3.104416e+02 -3.103550e+02 -3.107068e+02 -3.106937e+02 -3.109538e+02 -3.110631e+02 -3.111870e+02 -3.114739e+02 -3.114086e+02 -3.119322e+02 -3.116173e+02 -3.124377e+02 -3.118091e+02 -3.129829e+02 -3.119785e+02 -3.135537e+02 -3.121203e+02 -3.141318e+02 -3.122314e+02 -3.146972e+02 -3.123123e+02 -3.152308e+02 -3.123692e+02 -3.157160e+02 -3.124162e+02 -3.161420e+02 -3.124733e+02 -3.165099e+02 -3.125559e+02 -3.168291e+02 -3.126605e+02 -3.170947e+02 -3.127896e+02 -3.172884e+02 -3.129407e+02 -3.173958e+02 -3.131000e+02 -3.174129e+02 -3.132455e+02 -3.173444e+02 -3.133539e+02 -3.172031e+02 -3.134098e+02 -3.170031e+02 -3.134057e+02 -3.167558e+02 -3.133395e+02 -3.164692e+02 -3.132126e+02 -3.161484e+02 -3.130283e+02 -3.157969e+02 -3.127911e+02 -3.154171e+02 -3.125059e+02 -3.150110e+02 -3.121785e+02 -3.145808e+02 -3.118148e+02 -3.141286e+02 -3.114208e+02 
-3.220135e+02 -3.165038e+02 -3.225132e+02 -3.169816e+02 -3.230161e+02 -3.174777e+02 -3.235149e+02 -3.179883e+02 -3.240027e+02 -3.185093e+02 -3.244729e+02 -3.190359e+02 -3.249195e+02 -3.195630e+02 -3.253369e+02 -3.200853e+02 -3.257203e+02 -3.205971e+02 -3.260658e+02 -3.210931e+02 -3.263698e+02 -3.215677e+02 -3.266298e+02 -3.220156e+02 -3.268437e+02 -3.224319e+02 -3.270098e+02 -3.228115e+02 -3.271272e+02 -3.231502e+02 -3.271949e+02 -3.234436e+02 -3.272123e+02 -3.236880e+02 -3.271789e+02 -3.238800e+02 -3.270946e+02 -3.240167e+02 -3.269590e+02 -3.240957e+02 -3.267726e+02 -3.241156e+02 -3.265361e+02 -3.240757e+02 -3.262507e+02 -3.239765e+02 -3.259189e+02 -3.238195e+02 -3.255436e+02 -3.236072e+02 -3.251288e+02 -3.233434e+02 -3.246790e+02 -3.230318e+02 -3.241992e+02 -3.226765e+02 -3.236940e+02 -3.222812e+02 -3.231676e+02 -3.218485e+02 -3.226233e+02 -3.213794e+02 -3.220634e+02 -3.208735e+02 -3.214893e+02 -3.203286e+02 -3.209021e+02 -3.197414e+02 -3.203047e+02 -3.191096e+02 -3.197031e+02 -3.184337e+02 -3.191089e+02 -3.177199e+02 -3.185409e+02 -3.169818e+02 -3.180239e+02 -3.162405e+02 -3.175851e+02 -3.155226e+02 -3.172482e+02 -3.148572e+02 -3.170270e+02 -3.142716e+02 -3.169216e+02 -3.137862e+02 -3.169192e+02 -3.134076e+02 -3.169997e+02 -3.131218e+02 -3.171426e+02 -3.128958e+02 -3.173261e+02 -3.127004e+02 -3.175192e+02 -3.125334e+02 -3.176987e+02 -3.124152e+02 -3.178627e+02 -3.123609e+02 -3.180134e+02 -3.123820e+02 -3.181527e+02 -3.124775e+02 -3.182837e+02 -3.126324e+02 -3.184095e+02 -3.128256e+02 -3.185467e+02 -3.130452e+02 -3.187123e+02 -3.132863e+02 -3.189175e+02 -3.135483e+02 -3.191675e+02 -3.138316e+02 -3.194638e+02 -3.141379e+02 -3.198044e+02 -3.144684e+02 -3.201860e+02 -3.148244e+02 -3.206037e+02 -3.152063e+02 -3.210518e+02 -3.156142e+02 -3.215240e+02 -3.160472e+02 
-3.136816e+02 -3.110291e+02 -3.131888e+02 -3.105842e+02 -3.126828e+02 -3.101288e+02 -3.121680e+02 -3.096695e+02 -3.116487e+02 -3.092131e+02 -3.111300e+02 -3.087662e+02 -3.106169e+02 -3.083349e+02 -3.101147e+02 -3.079248e+02 -3.096286e+02 -3.075412e+02 -3.091638e+02 -3.071887e+02 -3.087251e+02 -3.068712e+02 -3.083171e+02 -3.065920e+02 -3.079442e+02 -3.063541e+02 -3.076102e+02 -3.061596e+02 -3.073187e+02 -3.060105e+02 -3.070727e+02 -3.059083e+02 -3.068749e+02 -3.058542e+02 -3.067278e+02 -3.058494e+02 -3.066332e+02 -3.058945e+02 -3.065927e+02 -3.059901e+02 -3.066070e+02 -3.061363e+02 -3.066761e+02 -3.063323e+02 -3.067992e+02 -3.065766e+02 -3.069739e+02 -3.068664e+02 -3.071963e+02 -3.071970e+02 -3.074607e+02 -3.075617e+02 -3.077591e+02 -3.079517e+02 -3.080822e+02 -3.083561e+02 -3.084190e+02 -3.087625e+02 -3.087589e+02 -3.091585e+02 -3.090926e+02 -3.095332e+02 -3.094144e+02 -3.098791e+02 -3.097238e+02 -3.101937e+02 -3.100265e+02 -3.104794e+02 -3.103337e+02 -3.107427e+02 -3.106607e+02 -3.109914e+02 -3.110235e+02 -3.112313e+02 -3.114352e+02 -3.114640e+02 -3.119028e+02 -3.116858e+02 -3.124252e+02 -3.118891e+02 -3.129923e+02 -3.120648e+02 -3.135865e+02 -3.122053e+02 -3.141862e+02 -3.123062e+02 -3.147699e+02 -3.123674e+02 -3.153180e+02 -3.123952e+02 -3.158112e+02 -3.124082e+02 -3.162322e+02 -3.124407e+02 -3.165868e+02 -3.125244e+02 -3.169122e+02 -3.126254e+02 -3.172020e+02 -3.127589e+02 -3.174158e+02 -3.129299e+02 -3.175292e+02 -3.131215e+02 -3.175402e+02 -3.133007e+02 -3.174542e+02 -3.134322e+02 -3.172928e+02 -3.134997e+02 -3.170759e+02 -3.134988e+02 -3.168163e+02 -3.134307e+02 -3.165214e+02 -3.132988e+02 -3.161951e+02 -3.131078e+02 -3.158397e+02 -3.128628e+02 -3.154567e+02 -3.125693e+02 -3.150475e+02 -3.122331e+02 -3.146138e+02 -3.118601e+02 -3.141576e+02 -3.114566e+02 
-3.219932e+02 -3.164619e+02 -3.225072e+02 -3.169458e+02 -3.230243e+02 -3.174492e+02 -3.235369e+02 -3.179684e+02 -3.240379e+02 -3.184989e+02 -3.245204e+02 -3.190358e+02 -3.249780e+02 -3.195737e+02 -3.254051e+02 -3.201070e+02 -3.257969e+02 -3.206300e+02 -3.261493e+02 -3.211369e+02 -3.264589e+02 -3.216222e+02 -3.267232e+02 -3.220804e+02 -3.269404e+02 -3.225063e+02 -3.271091e+02 -3.228952e+02 -3.272285e+02 -3.232425e+02 -3.272978e+02 -3.235439e+02 -3.273167e+02 -3.237958e+02 -3.272848e+02 -3.239945e+02 -3.272017e+02 -3.241370e+02 -3.270672e+02 -3.242208e+02 -3.268812e+02 -3.242441e+02 -3.266442e+02 -3.242059e+02 -3.263571e+02 -3.241063e+02 -3.260218e+02 -3.239467e+02 -3.256411e+02 -3.237297e+02 -3.252188e+02 -3.234589e+02 -3.247596e+02 -3.231387e+02 -3.242688e+02 -3.227740e+02 -3.237520e+02 -3.223697e+02 -3.232144e+02 -3.219298e+02 -3.226605e+02 -3.214570e+02 -3.220930e+02 -3.209517e+02 -3.215131e+02 -3.204113e+02 -3.209204e+02 -3.198303e+02 -3.203144e+02 -3.192024e+02 -3.196973e+02 -3.185231e+02 -3.190784e+02 -3.177947e+02 -3.184767e+02 -3.170286e+02 -3.179214e+02 -3.162470e+02 -3.174478e+02 -3.154804e+02 -3.170884e+02 -3.147643e+02 -3.168627e+02 -3.141358e+02 -3.167703e+02 -3.136283e+02 -3.167915e+02 -3.132608e+02 -3.168994e+02 -3.130162e+02 -3.170753e+02 -3.128293e+02 -3.173070e+02 -3.126349e+02 -3.175382e+02 -3.124362e+02 -3.177244e+02 -3.122915e+02 -3.178867e+02 -3.122180e+02 -3.180333e+02 -3.122416e+02 -3.181662e+02 -3.123623e+02 -3.182884e+02 -3.125534e+02 -3.183865e+02 -3.127696e+02 -3.184943e+02 -3.129998e+02 -3.186387e+02 -3.132441e+02 -3.188323e+02 -3.135052e+02 -3.190788e+02 -3.137861e+02 -3.193774e+02 -3.140897e+02 -3.197243e+02 -3.144181e+02 -3.201150e+02 -3.147730e+02 -3.205436e+02 -3.151551e+02 -3.210041e+02 -3.155646e+02 -3.214897e+02 -3.160007e+02 
-3.137228e+02 -3.110726e+02 -3.132210e+02 -3.106111e+02 -3.127050e+02 -3.101391e+02 -3.121791e+02 -3.096635e+02 -3.116480e+02 -3.091913e+02 -3.111169e+02 -3.087294e+02 -3.105911e+02 -3.082842e+02 -3.100763e+02 -3.078615e+02 -3.095778e+02 -3.074666e+02 -3.091010e+02 -3.071043e+02 -3.086511e+02 -3.067784e+02 -3.082327e+02 -3.064923e+02 -3.078503e+02 -3.062486e+02 -3.075078e+02 -3.060496e+02 -3.072087e+02 -3.058969e+02 -3.069564e+02 -3.057921e+02 -3.067536e+02 -3.057364e+02 -3.066029e+02 -3.057309e+02 -3.065064e+02 -3.057768e+02 -3.064661e+02 -3.058750e+02 -3.064831e+02 -3.060259e+02 -3.065581e+02 -3.062296e+02 -3.066906e+02 -3.064851e+02 -3.068785e+02 -3.067897e+02 -3.071180e+02 -3.071391e+02 -3.074026e+02 -3.075262e+02 -3.077234e+02 -3.079409e+02 -3.080689e+02 -3.083706e+02 -3.084258e+02 -3.088004e+02 -3.087803e+02 -3.092153e+02 -3.091203e+02 -3.096017e+02 -3.094381e+02 -3.099511e+02 -3.097331e+02 -3.102618e+02 -3.100130e+02 -3.105398e+02 -3.102942e+02 -3.107970e+02 -3.105982e+02 -3.110469e+02 -3.109474e+02 -3.112986e+02 -3.113599e+02 -3.115529e+02 -3.118444e+02 -3.118011e+02 -3.123981e+02 -3.120279e+02 -3.130059e+02 -3.122169e+02 -3.136429e+02 -3.123563e+02 -3.142802e+02 -3.124405e+02 -3.148943e+02 -3.124680e+02 -3.154688e+02 -3.124416e+02 -3.159822e+02 -3.123822e+02 -3.163893e+02 -3.123568e+02 -3.166926e+02 -3.124748e+02 -3.170302e+02 -3.125571e+02 -3.173844e+02 -3.126895e+02 -3.176421e+02 -3.128973e+02 -3.177638e+02 -3.131544e+02 -3.177639e+02 -3.134037e+02 -3.176397e+02 -3.135753e+02 -3.174388e+02 -3.136588e+02 -3.171920e+02 -3.136598e+02 -3.169125e+02 -3.135859e+02 -3.166052e+02 -3.134443e+02 -3.162711e+02 -3.132413e+02 -3.159102e+02 -3.129831e+02 -3.155226e+02 -3.126755e+02 -3.151086e+02 -3.123244e+02 -3.146693e+02 -3.119360e+02 -3.142066e+02 -3.115165e+02 
-3.219623e+02 -3.163974e+02 -3.224982e+02 -3.168904e+02 -3.230370e+02 -3.174051e+02 -3.235708e+02 -3.179374e+02 -3.240919e+02 -3.184825e+02 -3.245930e+02 -3.190351e+02 -3.250674e+02 -3.195895e+02 -3.255093e+02 -3.201396e+02 -3.259136e+02 -3.206795e+02 -3.262762e+02 -3.212031e+02 -3.265939e+02 -3.217045e+02 -3.268645e+02 -3.221781e+02 -3.270864e+02 -3.226187e+02 -3.272586e+02 -3.230213e+02 -3.273807e+02 -3.233815e+02 -3.274523e+02 -3.236951e+02 -3.274734e+02 -3.239581e+02 -3.274435e+02 -3.241671e+02 -3.273625e+02 -3.243186e+02 -3.272298e+02 -3.244100e+02 -3.270450e+02 -3.244388e+02 -3.268079e+02 -3.244036e+02 -3.265187e+02 -3.243039e+02 -3.261787e+02 -3.241407e+02 -3.257900e+02 -3.239162e+02 -3.253562e+02 -3.236342e+02 -3.248819e+02 -3.232998e+02 -3.243734e+02 -3.229191e+02 -3.238375e+02 -3.224989e+02 -3.232813e+02 -3.220460e+02 -3.227115e+02 -3.215661e+02 -3.221328e+02 -3.210619e+02 -3.215462e+02 -3.205308e+02 -3.209488e+02 -3.199639e+02 -3.203341e+02 -3.193475e+02 -3.196971e+02 -3.186683e+02 -3.190407e+02 -3.179204e+02 -3.183833e+02 -3.171116e+02 -3.177614e+02 -3.162655e+02 -3.172256e+02 -3.154183e+02 -3.168261e+02 -3.146147e+02 -3.165947e+02 -3.139059e+02 -3.165294e+02 -3.133508e+02 -3.165939e+02 -3.130032e+02 -3.167395e+02 -3.128578e+02 -3.169547e+02 -3.127705e+02 -3.172878e+02 -3.125728e+02 -3.176009e+02 -3.122837e+02 -3.177730e+02 -3.120951e+02 -3.179248e+02 -3.119764e+02 -3.180650e+02 -3.120020e+02 -3.181885e+02 -3.121752e+02 -3.183160e+02 -3.124490e+02 -3.183539e+02 -3.127003e+02 -3.184062e+02 -3.129411e+02 -3.185165e+02 -3.131856e+02 -3.186947e+02 -3.134427e+02 -3.189386e+02 -3.137183e+02 -3.192427e+02 -3.140169e+02 -3.196006e+02 -3.143415e+02 -3.200059e+02 -3.146943e+02 -3.204518e+02 -3.150766e+02 -3.209314e+02 -3.154884e+02 -3.214375e+02 -3.159292e+02 
-3.137821e+02 -3.111338e+02 -3.132677e+02 -3.106488e+02 -3.127374e+02 -3.101532e+02 -3.121957e+02 -3.096543e+02 -3.116477e+02 -3.091597e+02 -3.110989e+02 -3.086765e+02 -3.105551e+02 -3.082115e+02 -3.100222e+02 -3.077709e+02 -3.095060e+02 -3.073602e+02 -3.090122e+02 -3.069842e+02 -3.085463e+02 -3.066467e+02 -3.081131e+02 -3.063509e+02 -3.077172e+02 -3.060994e+02 -3.073626e+02 -3.058940e+02 -3.070530e+02 -3.057364e+02 -3.067916e+02 -3.056278e+02 -3.065814e+02 -3.055695e+02 -3.064252e+02 -3.055629e+02 -3.063256e+02 -3.056094e+02 -3.062849e+02 -3.057104e+02 -3.063052e+02 -3.058674e+02 -3.063879e+02 -3.060812e+02 -3.065332e+02 -3.063517e+02 -3.067399e+02 -3.066773e+02 -3.070040e+02 -3.070537e+02 -3.073186e+02 -3.074733e+02 -3.076732e+02 -3.079248e+02 -3.080533e+02 -3.083928e+02 -3.084416e+02 -3.088586e+02 -3.088196e+02 -3.093023e+02 -3.091703e+02 -3.097060e+02 -3.094820e+02 -3.100581e+02 -3.097531e+02 -3.103580e+02 -3.099945e+02 -3.106177e+02 -3.102302e+02 -3.108591e+02 -3.104933e+02 -3.111066e+02 -3.108177e+02 -3.113763e+02 -3.112295e+02 -3.116684e+02 -3.117408e+02 -3.119645e+02 -3.123460e+02 -3.122344e+02 -3.130212e+02 -3.124484e+02 -3.137271e+02 -3.125885e+02 -3.144204e+02 -3.126504e+02 -3.150731e+02 -3.126332e+02 -3.156876e+02 -3.125240e+02 -3.162602e+02 -3.123208e+02 -3.166486e+02 -3.121273e+02 -3.167618e+02 -3.124589e+02 -3.171300e+02 -3.124363e+02 -3.176610e+02 -3.125420e+02 -3.180016e+02 -3.128126e+02 -3.181168e+02 -3.131924e+02 -3.181098e+02 -3.135839e+02 -3.179017e+02 -3.138072e+02 -3.176317e+02 -3.139013e+02 -3.173415e+02 -3.138964e+02 -3.170373e+02 -3.138094e+02 -3.167163e+02 -3.136514e+02 -3.163742e+02 -3.134303e+02 -3.160076e+02 -3.131528e+02 -3.156148e+02 -3.128251e+02 -3.151949e+02 -3.124531e+02 -3.147484e+02 -3.120429e+02 -3.142767e+02 -3.116009e+02 
-3.219205e+02 -3.163079e+02 -3.224862e+02 -3.168135e+02 -3.230547e+02 -3.173436e+02 -3.236175e+02 -3.178938e+02 -3.241661e+02 -3.184589e+02 -3.246927e+02 -3.190330e+02 -3.251900e+02 -3.196099e+02 -3.256517e+02 -3.201832e+02 -3.260726e+02 -3.207461e+02 -3.264487e+02 -3.212923e+02 -3.267769e+02 -3.218154e+02 -3.270553e+02 -3.223097e+02 -3.272828e+02 -3.227697e+02 -3.274590e+02 -3.231907e+02 -3.275841e+02 -3.235680e+02 -3.276583e+02 -3.238977e+02 -3.276819e+02 -3.241758e+02 -3.276550e+02 -3.243987e+02 -3.275770e+02 -3.245629e+02 -3.274474e+02 -3.246651e+02 -3.272651e+02 -3.247022e+02 -3.270290e+02 -3.246720e+02 -3.267384e+02 -3.245731e+02 -3.263930e+02 -3.244054e+02 -3.259942e+02 -3.241707e+02 -3.255446e+02 -3.238726e+02 -3.250489e+02 -3.235168e+02 -3.245140e+02 -3.231109e+02 -3.239488e+02 -3.226646e+02 -3.233636e+02 -3.221891e+02 -3.227695e+02 -3.216957e+02 -3.221750e+02 -3.211924e+02 -3.215831e+02 -3.206785e+02 -3.209871e+02 -3.201405e+02 -3.203712e+02 -3.195523e+02 -3.197156e+02 -3.188843e+02 -3.190099e+02 -3.181165e+02 -3.182678e+02 -3.172496e+02 -3.175370e+02 -3.163099e+02 -3.168949e+02 -3.153422e+02 -3.164263e+02 -3.144003e+02 -3.161891e+02 -3.135487e+02 -3.161821e+02 -3.128849e+02 -3.163304e+02 -3.125537e+02 -3.165161e+02 -3.126425e+02 -3.167150e+02 -3.128189e+02 -3.172857e+02 -3.125988e+02 -3.178020e+02 -3.120285e+02 -3.178398e+02 -3.118260e+02 -3.179721e+02 -3.115873e+02 -3.181099e+02 -3.116109e+02 -3.182019e+02 -3.118832e+02 -3.184293e+02 -3.123658e+02 -3.183069e+02 -3.126424e+02 -3.182609e+02 -3.128799e+02 -3.183275e+02 -3.131154e+02 -3.184922e+02 -3.133622e+02 -3.187387e+02 -3.136279e+02 -3.190545e+02 -3.139181e+02 -3.194297e+02 -3.142367e+02 -3.198562e+02 -3.145863e+02 -3.203262e+02 -3.149683e+02 -3.208322e+02 -3.153832e+02 -3.213664e+02 -3.158302e+02 
-3.138613e+02 -3.112132e+02 -3.133305e+02 -3.106973e+02 -3.127814e+02 -3.101707e+02 -3.122190e+02 -3.096413e+02 -3.116487e+02 -3.091171e+02 -3.110765e+02 -3.086060e+02 -3.105088e+02 -3.081151e+02 -3.099520e+02 -3.076511e+02 -3.094124e+02 -3.072199e+02 -3.088964e+02 -3.068262e+02 -3.084094e+02 -3.064739e+02 -3.079569e+02 -3.061660e+02 -3.075434e+02 -3.059046e+02 -3.071731e+02 -3.056914e+02 -3.068496e+02 -3.055275e+02 -3.065763e+02 -3.054140e+02 -3.063562e+02 -3.053522e+02 -3.061923e+02 -3.053434e+02 -3.060877e+02 -3.053895e+02 -3.060455e+02 -3.054931e+02 -3.060687e+02 -3.056564e+02 -3.061602e+02 -3.058820e+02 -3.063214e+02 -3.061712e+02 -3.065523e+02 -3.065235e+02 -3.068494e+02 -3.069354e+02 -3.072054e+02 -3.073992e+02 -3.076076e+02 -3.079018e+02 -3.080379e+02 -3.084243e+02 -3.084733e+02 -3.089424e+02 -3.088877e+02 -3.094285e+02 -3.092562e+02 -3.098567e+02 -3.095601e+02 -3.102093e+02 -3.097940e+02 -3.104852e+02 -3.099724e+02 -3.107055e+02 -3.101320e+02 -3.109101e+02 -3.103249e+02 -3.111445e+02 -3.106048e+02 -3.114400e+02 -3.110122e+02 -3.117966e+02 -3.115642e+02 -3.121783e+02 -3.122509e+02 -3.125254e+02 -3.130347e+02 -3.127819e+02 -3.138510e+02 -3.129230e+02 -3.146225e+02 -3.129568e+02 -3.153032e+02 -3.128990e+02 -3.159519e+02 -3.126999e+02 -3.167197e+02 -3.122455e+02 -3.171807e+02 -3.113698e+02 -3.165716e+02 -3.127942e+02 -3.170654e+02 -3.121831e+02 -3.181251e+02 -3.122252e+02 -3.185817e+02 -3.126139e+02 -3.185851e+02 -3.132123e+02 -3.186513e+02 -3.139309e+02 -3.182254e+02 -3.141693e+02 -3.178462e+02 -3.142441e+02 -3.175062e+02 -3.142159e+02 -3.171800e+02 -3.141047e+02 -3.168491e+02 -3.139219e+02 -3.165019e+02 -3.136758e+02 -3.161315e+02 -3.133729e+02 -3.157341e+02 -3.130191e+02 -3.153079e+02 -3.126200e+02 -3.148527e+02 -3.121817e+02 -3.143698e+02 -3.117104e+02 
-3.218671e+02 -3.161904e+02 -3.224713e+02 -3.167122e+02 -3.230783e+02 -3.172622e+02 -3.236786e+02 -3.178356e+02 -3.242628e+02 -3.184265e+02 -3.248221e+02 -3.190286e+02 -3.253486e+02 -3.196347e+02 -3.258355e+02 -3.202377e+02 -3.262773e+02 -3.208302e+02 -3.266698e+02 -3.214052e+02 -3.270105e+02 -3.219559e+02 -3.272977e+02 -3.224762e+02 -3.275311e+02 -3.229606e+02 -3.277113e+02 -3.234043e+02 -3.278391e+02 -3.238029e+02 -3.279157e+02 -3.241526e+02 -3.279420e+02 -3.244497e+02 -3.279185e+02 -3.246906e+02 -3.278450e+02 -3.248715e+02 -3.277204e+02 -3.249885e+02 -3.275430e+02 -3.250378e+02 -3.273104e+02 -3.250157e+02 -3.270200e+02 -3.249193e+02 -3.266701e+02 -3.247472e+02 -3.262598e+02 -3.244997e+02 -3.257903e+02 -3.241799e+02 -3.252657e+02 -3.237934e+02 -3.246931e+02 -3.233494e+02 -3.240841e+02 -3.228612e+02 -3.234541e+02 -3.223465e+02 -3.228218e+02 -3.218267e+02 -3.222045e+02 -3.213215e+02 -3.216111e+02 -3.208372e+02 -3.210324e+02 -3.203545e+02 -3.204366e+02 -3.198270e+02 -3.197770e+02 -3.191956e+02 -3.190146e+02 -3.184144e+02 -3.181485e+02 -3.174726e+02 -3.172409e+02 -3.164034e+02 -3.164157e+02 -3.152675e+02 -3.158236e+02 -3.141239e+02 -3.155803e+02 -3.130283e+02 -3.157009e+02 -3.121034e+02 -3.160421e+02 -3.116910e+02 -3.162812e+02 -3.123365e+02 -3.160982e+02 -3.132573e+02 -3.173360e+02 -3.129722e+02 -3.184773e+02 -3.114045e+02 -3.178110e+02 -3.115888e+02 -3.180119e+02 -3.109314e+02 -3.181959e+02 -3.109661e+02 -3.180708e+02 -3.113708e+02 -3.188833e+02 -3.124878e+02 -3.181842e+02 -3.126250e+02 -3.180046e+02 -3.128221e+02 -3.180420e+02 -3.130351e+02 -3.182089e+02 -3.132634e+02 -3.184701e+02 -3.135134e+02 -3.188071e+02 -3.137912e+02 -3.192078e+02 -3.141010e+02 -3.196631e+02 -3.144458e+02 -3.201647e+02 -3.148272e+02 -3.207048e+02 -3.152457e+02 -3.212752e+02 -3.157006e+02 
-3.139629e+02 -3.113113e+02 -3.134117e+02 -3.107569e+02 -3.128391e+02 -3.101914e+02 -3.122505e+02 -3.096235e+02 -3.116520e+02 -3.090621e+02 -3.110502e+02 -3.085158e+02 -3.104522e+02 -3.079925e+02 -3.098652e+02 -3.074994e+02 -3.092963e+02 -3.070428e+02 -3.087521e+02 -3.066276e+02 -3.082390e+02 -3.062574e+02 -3.077623e+02 -3.059351e+02 -3.073271e+02 -3.056622e+02 -3.069373e+02 -3.054399e+02 -3.065967e+02 -3.052687e+02 -3.063083e+02 -3.051492e+02 -3.060753e+02 -3.050824e+02 -3.059010e+02 -3.050700e+02 -3.057888e+02 -3.051143e+02 -3.057429e+02 -3.052189e+02 -3.057678e+02 -3.053878e+02 -3.058680e+02 -3.056255e+02 -3.060473e+02 -3.059356e+02 -3.063074e+02 -3.063199e+02 -3.066465e+02 -3.067763e+02 -3.070571e+02 -3.072974e+02 -3.075245e+02 -3.078685e+02 -3.080256e+02 -3.084664e+02 -3.085297e+02 -3.090592e+02 -3.090002e+02 -3.096081e+02 -3.093994e+02 -3.100729e+02 -3.096956e+02 -3.104225e+02 -3.098744e+02 -3.106512e+02 -3.099523e+02 -3.107924e+02 -3.099852e+02 -3.109177e+02 -3.100585e+02 -3.111134e+02 -3.102606e+02 -3.114428e+02 -3.106558e+02 -3.119102e+02 -3.112687e+02 -3.124468e+02 -3.120829e+02 -3.129327e+02 -3.130429e+02 -3.132570e+02 -3.140442e+02 -3.133858e+02 -3.149334e+02 -3.133687e+02 -3.155745e+02 -3.133105e+02 -3.160947e+02 -3.131254e+02 -3.174788e+02 -3.125871e+02 -3.187836e+02 -3.083736e+02 -3.175579e+02 -3.087537e+02 -3.136887e+02 -3.117423e+02 -3.164541e+02 -3.108759e+02 -3.174174e+02 -3.114550e+02 -3.173877e+02 -3.131008e+02 -3.193553e+02 -3.147587e+02 -3.185054e+02 -3.146975e+02 -3.180240e+02 -3.146919e+02 -3.176588e+02 -3.146198e+02 -3.173285e+02 -3.144725e+02 -3.169990e+02 -3.142564e+02 -3.166535e+02 -3.139785e+02 -3.162829e+02 -3.136442e+02 -3.158824e+02 -3.132584e+02 -3.154499e+02 -3.128263e+02 -3.149849e+02 -3.123535e+02 -3.144885e+02 -3.118461e+02 
-3.218013e+02 -3.160409e+02 -3.224536e+02 -3.165827e+02 -3.231088e+02 -3.171576e+02 -3.237560e+02 -3.177600e+02 -3.243846e+02 -3.183834e+02 -3.249847e+02 -3.190205e+02 -3.255474e+02 -3.196633e+02 -3.260651e+02 -3.203035e+02 -3.265319e+02 -3.209328e+02 -3.269437e+02 -3.215432e+02 -3.272982e+02 -3.221275e+02 -3.275946e+02 -3.226793e+02 -3.278335e+02 -3.231928e+02 -3.280165e+02 -3.236634e+02 -3.281458e+02 -3.240872e+02 -3.282237e+02 -3.244607e+02 -3.282523e+02 -3.247806e+02 -3.282329e+02 -3.250436e+02 -3.281655e+02 -3.252458e+02 -3.280488e+02 -3.253828e+02 -3.278801e+02 -3.254495e+02 -3.276552e+02 -3.254404e+02 -3.273693e+02 -3.253503e+02 -3.270176e+02 -3.251753e+02 -3.265962e+02 -3.249134e+02 -3.261035e+02 -3.245656e+02 -3.255413e+02 -3.241370e+02 -3.249164e+02 -3.236373e+02 -3.242424e+02 -3.230830e+02 -3.235421e+02 -3.225005e+02 -3.228471e+02 -3.219281e+02 -3.221926e+02 -3.214100e+02 -3.216035e+02 -3.209723e+02 -3.210728e+02 -3.205917e+02 -3.205452e+02 -3.201859e+02 -3.199240e+02 -3.196419e+02 -3.191116e+02 -3.188651e+02 -3.180689e+02 -3.178261e+02 -3.168720e+02 -3.165789e+02 -3.157247e+02 -3.152253e+02 -3.148991e+02 -3.138267e+02 -3.146327e+02 -3.123592e+02 -3.150169e+02 -3.108218e+02 -3.158636e+02 -3.097697e+02 -3.164607e+02 -3.117438e+02 -3.140403e+02 -3.145678e+02 -3.245864e+02 -3.093210e+02 -3.210624e+02 -3.058851e+02 -3.083700e+02 -3.076252e+02 -3.124821e+02 -3.075551e+02 -3.140542e+02 -3.087671e+02 -3.148021e+02 -3.109028e+02 -3.174565e+02 -3.123241e+02 -3.175461e+02 -3.125508e+02 -3.175341e+02 -3.127503e+02 -3.176287e+02 -3.129409e+02 -3.178325e+02 -3.131438e+02 -3.181267e+02 -3.133718e+02 -3.184966e+02 -3.136325e+02 -3.189317e+02 -3.139305e+02 -3.194236e+02 -3.142688e+02 -3.199648e+02 -3.146490e+02 -3.205472e+02 -3.150717e+02 -3.211625e+02 -3.155362e+02 
-3.140906e+02 -3.114292e+02 -3.135145e+02 -3.108280e+02 -3.129131e+02 -3.102149e+02 -3.122924e+02 -3.095998e+02 -3.116591e+02 -3.089927e+02 -3.110208e+02 -3.084032e+02 -3.103855e+02 -3.078404e+02 -3.097613e+02 -3.073122e+02 -3.091563e+02 -3.068253e+02 -3.085778e+02 -3.063847e+02 -3.080328e+02 -3.059940e+02 -3.075271e+02 -3.056554e+02 -3.070658e+02 -3.053699e+02 -3.066528e+02 -3.051376e+02 -3.062917e+02 -3.049584e+02 -3.059852e+02 -3.048320e+02 -3.057362e+02 -3.047589e+02 -3.055481e+02 -3.047407e+02 -3.054249e+02 -3.047806e+02 -3.053719e+02 -3.048832e+02 -3.053953e+02 -3.050550e+02 -3.055024e+02 -3.053033e+02 -3.057001e+02 -3.056350e+02 -3.059937e+02 -3.060552e+02 -3.063840e+02 -3.065649e+02 -3.068645e+02 -3.071577e+02 -3.074188e+02 -3.078181e+02 -3.080181e+02 -3.085186e+02 -3.086215e+02 -3.092179e+02 -3.091780e+02 -3.098617e+02 -3.096313e+02 -3.103861e+02 -3.099272e+02 -3.107324e+02 -3.100295e+02 -3.108768e+02 -3.099490e+02 -3.108665e+02 -3.097708e+02 -3.108285e+02 -3.096398e+02 -3.109278e+02 -3.097069e+02 -3.112959e+02 -3.100764e+02 -3.119554e+02 -3.107802e+02 -3.127803e+02 -3.117895e+02 -3.135251e+02 -3.130359e+02 -3.139519e+02 -3.143723e+02 -3.140123e+02 -3.155071e+02 -3.138289e+02 -3.159710e+02 -3.138452e+02 -3.153576e+02 -3.139015e+02 -3.195322e+02 -3.195642e+02 -2.980297e+02 -2.946196e+02 -3.189843e+02 -2.967025e+02 -3.136902e+02 -3.043326e+02 -3.145387e+02 -3.078117e+02 -3.157893e+02 -3.104109e+02 -3.166070e+02 -3.129071e+02 -3.186944e+02 -3.147606e+02 -3.184211e+02 -3.151731e+02 -3.180878e+02 -3.152080e+02 -3.177785e+02 -3.151006e+02 -3.174777e+02 -3.149100e+02 -3.171660e+02 -3.146536e+02 -3.168308e+02 -3.143381e+02 -3.164645e+02 -3.139672e+02 -3.160631e+02 -3.135444e+02 -3.156246e+02 -3.130736e+02 -3.151486e+02 -3.125599e+02 -3.146365e+02 -3.120093e+02 
-3.217221e+02 -3.158541e+02 -3.224331e+02 -3.164203e+02 -3.231473e+02 -3.170256e+02 -3.238522e+02 -3.176637e+02 -3.245354e+02 -3.183272e+02 -3.251854e+02 -3.190075e+02 -3.257919e+02 -3.196953e+02 -3.263464e+02 -3.203810e+02 -3.268424e+02 -3.210550e+02 -3.272760e+02 -3.217083e+02 -3.276451e+02 -3.223327e+02 -3.279499e+02 -3.229213e+02 -3.281925e+02 -3.234685e+02 -3.283759e+02 -3.239699e+02 -3.285042e+02 -3.244221e+02 -3.285813e+02 -3.248225e+02 -3.286111e+02 -3.251688e+02 -3.285959e+02 -3.254582e+02 -3.285366e+02 -3.256871e+02 -3.284318e+02 -3.258506e+02 -3.282774e+02 -3.259421e+02 -3.280673e+02 -3.259537e+02 -3.277933e+02 -3.258767e+02 -3.274463e+02 -3.257031e+02 -3.270176e+02 -3.254270e+02 -3.265005e+02 -3.250458e+02 -3.258921e+02 -3.245619e+02 -3.251960e+02 -3.239833e+02 -3.244264e+02 -3.233273e+02 -3.236140e+02 -3.226283e+02 -3.228110e+02 -3.219504e+02 -3.220871e+02 -3.213868e+02 -3.215049e+02 -3.210165e+02 -3.210766e+02 -3.208202e+02 -3.207144e+02 -3.206504e+02 -3.202317e+02 -3.202912e+02 -3.194125e+02 -3.195548e+02 -3.181264e+02 -3.183766e+02 -3.164523e+02 -3.168673e+02 -3.147287e+02 -3.152508e+02 -3.134440e+02 -3.136284e+02 -3.130619e+02 -3.117840e+02 -3.138874e+02 -3.090654e+02 -3.159408e+02 -3.048088e+02 -3.193901e+02 -3.141715e+02 -2.468094e+02 -2.869396e+02 -3.140880e+02 -2.972289e+02 -3.192583e+02 -2.879411e+02 -3.163030e+02 -2.997166e+02 -3.152604e+02 -3.051050e+02 -3.146419e+02 -3.083729e+02 -3.146986e+02 -3.104410e+02 -3.176597e+02 -3.120767e+02 -3.170109e+02 -3.125055e+02 -3.169585e+02 -3.126891e+02 -3.171079e+02 -3.128359e+02 -3.173670e+02 -3.130001e+02 -3.177086e+02 -3.131982e+02 -3.181217e+02 -3.134370e+02 -3.185993e+02 -3.137202e+02 -3.191353e+02 -3.140502e+02 -3.197236e+02 -3.144285e+02 -3.203568e+02 -3.148558e+02 -3.210263e+02 -3.153316e+02 