# vtk DataFile Version 2.0
Comment goes here
ASCII

DATASET STRUCTURED_POINTS
DIMENSIONS    128   128   1

ORIGIN    0.000   0.000   0.000
SPACING   0.0156250.015625   1.000

POINT_DATA   16384
SCALARS P double
LOOKUP_TABLE default

-3.195465e+02 -3.165942e+02 -3.190878e+02 -3.161542e+02 -3.186161e+02 -3.157047e+02 -3.181350e+02 -3.152523e+02 -3.176485e+02 -3.148035e+02 -3.171610e+02 -3.143647e+02 -3.166771e+02 -3.139418e+02 -3.162015e+02 -3.135404e+02 -3.157389e+02 -3.131656e+02 -3.152943e+02 -3.128219e+02 -3.148721e+02 -3.125131e+02 -3.144768e+02 -3.122427e+02 -3.141125e+02 -3.120134e+02 -3.137832e+02 -3.118275e+02 -3.134924e+02 -3.116870e+02 -3.132431e+02 -3.115934e+02 -3.130383e+02 -3.115478e+02 -3.128803e+02 -3.115513e+02 -3.127709e+02 -3.116044e+02 -3.127116e+02 -3.117074e+02 -3.127029e+02 -3.118600e+02 -3.127449e+02 -3.120614e+02 -3.128365e+02 -3.123098e+02 -3.129754e+02 -3.126021e+02 -3.131580e+02 -3.129339e+02 -3.133793e+02 -3.132989e+02 -3.136326e+02 -3.136889e+02 -3.139101e+02 -3.140943e+02 -3.142030e+02 -3.145041e+02 -3.145030e+02 -3.149072e+02 -3.148029e+02 -3.152937e+02 -3.150987e+02 -3.156561e+02 -3.153900e+02 -3.159903e+02 -3.156811e+02 -3.162958e+02 -3.159807e+02 -3.165752e+02 -3.163000e+02 -3.168326e+02 -3.166513e+02 -3.170718e+02 -3.170449e+02 -3.172950e+02 -3.174870e+02 -3.175020e+02 -3.179776e+02 -3.176900e+02 -3.185100e+02 -3.178551e+02 -3.190709e+02 -3.179932e+02 -3.196428e+02 -3.181020e+02 -3.202062e+02 -3.181826e+02 -3.207419e+02 -3.182409e+02 -3.212336e+02 -3.182893e+02 -3.216710e+02 -3.183437e+02 -3.220523e+02 -3.184160e+02 -3.223810e+02 -3.185074e+02 -3.226522e+02 -3.186188e+02 -3.228529e+02 -3.187463e+02 -3.229716e+02 -3.188778e+02 -3.230044e+02 -3.189947e+02 -3.229556e+02 -3.190776e+02 -3.228361e+02 -3.191119e+02 -3.226586e+02 -3.190896e+02 -3.224340e+02 -3.190078e+02 -3.221706e+02 -3.188672e+02 -3.218738e+02 -3.186706e+02 -3.215472e+02 -3.184223e+02 -3.211935e+02 -3.181271e+02 -3.208147e+02 -3.177907e+02 -3.204124e+02 -3.174189e+02 -3.199889e+02 -3.170179e+02 
-3.280251e+02 -3.222288e+02 -3.285377e+02 -3.226909e+02 -3.290527e+02 -3.231719e+02 -3.295629e+02 -3.236683e+02 -3.300613e+02 -3.241761e+02 -3.305413e+02 -3.246909e+02 -3.309968e+02 -3.252080e+02 -3.314222e+02 -3.257221e+02 -3.318127e+02 -3.262280e+02 -3.321641e+02 -3.267203e+02 -3.324731e+02 -3.271936e+02 -3.327368e+02 -3.276428e+02 -3.329532e+02 -3.280626e+02 -3.331206e+02 -3.284482e+02 -3.332378e+02 -3.287951e+02 -3.333039e+02 -3.290989e+02 -3.333183e+02 -3.293557e+02 -3.332804e+02 -3.295619e+02 -3.331901e+02 -3.297147e+02 -3.330471e+02 -3.298116e+02 -3.328519e+02 -3.298511e+02 -3.326052e+02 -3.298327e+02 -3.323086e+02 -3.297568e+02 -3.319644e+02 -3.296249e+02 -3.315757e+02 -3.294395e+02 -3.311464e+02 -3.292038e+02 -3.306811e+02 -3.289213e+02 -3.301845e+02 -3.285952e+02 -3.296610e+02 -3.282282e+02 -3.291145e+02 -3.278217e+02 -3.285482e+02 -3.273755e+02 -3.279644e+02 -3.268884e+02 -3.273653e+02 -3.263576e+02 -3.267534e+02 -3.257809e+02 -3.261333e+02 -3.251571e+02 -3.255134e+02 -3.244888e+02 -3.249068e+02 -3.237841e+02 -3.243326e+02 -3.230576e+02 -3.238140e+02 -3.223303e+02 -3.233751e+02 -3.216272e+02 -3.230361e+02 -3.209748e+02 -3.228085e+02 -3.203960e+02 -3.226922e+02 -3.199065e+02 -3.226765e+02 -3.195097e+02 -3.227435e+02 -3.191945e+02 -3.228725e+02 -3.189401e+02 -3.230413e+02 -3.187286e+02 -3.232265e+02 -3.185570e+02 -3.234101e+02 -3.184346e+02 -3.235854e+02 -3.183718e+02 -3.237510e+02 -3.183753e+02 -3.239082e+02 -3.184439e+02 -3.240603e+02 -3.185677e+02 -3.242134e+02 -3.187332e+02 -3.243796e+02 -3.189301e+02 -3.245719e+02 -3.191524e+02 -3.248004e+02 -3.193977e+02 -3.250709e+02 -3.196656e+02 -3.253854e+02 -3.199567e+02 -3.257429e+02 -3.202722e+02 -3.261403e+02 -3.206128e+02 -3.265731e+02 -3.209791e+02 -3.270358e+02 -3.213711e+02 -3.275221e+02 -3.217882e+02 
-3.195547e+02 -3.166026e+02 -3.190945e+02 -3.161594e+02 -3.186210e+02 -3.157066e+02 -3.181379e+02 -3.152509e+02 -3.176494e+02 -3.147990e+02 -3.171596e+02 -3.143572e+02 -3.166734e+02 -3.139316e+02 -3.161954e+02 -3.135277e+02 -3.157305e+02 -3.131507e+02 -3.152835e+02 -3.128050e+02 -3.148592e+02 -3.124946e+02 -3.144618e+02 -3.122228e+02 -3.140957e+02 -3.119924e+02 -3.137647e+02 -3.118056e+02 -3.134723e+02 -3.116644e+02 -3.132218e+02 -3.115702e+02 -3.130159e+02 -3.115243e+02 -3.128571e+02 -3.115277e+02 -3.127473e+02 -3.115810e+02 -3.126880e+02 -3.116845e+02 -3.126800e+02 -3.118381e+02 -3.127231e+02 -3.120410e+02 -3.128165e+02 -3.122916e+02 -3.129579e+02 -3.125868e+02 -3.131438e+02 -3.129222e+02 -3.133688e+02 -3.132915e+02 -3.136261e+02 -3.136863e+02 -3.139076e+02 -3.140965e+02 -3.142039e+02 -3.145108e+02 -3.145063e+02 -3.149176e+02 -3.148071e+02 -3.153067e+02 -3.151019e+02 -3.156704e+02 -3.153906e+02 -3.160047e+02 -3.156778e+02 -3.163098e+02 -3.159730e+02 -3.165891e+02 -3.162886e+02 -3.168474e+02 -3.166378e+02 -3.170889e+02 -3.170317e+02 -3.173156e+02 -3.174768e+02 -3.175266e+02 -3.179729e+02 -3.177180e+02 -3.185123e+02 -3.178847e+02 -3.190808e+02 -3.180221e+02 -3.196598e+02 -3.181273e+02 -3.202293e+02 -3.182013e+02 -3.207697e+02 -3.182506e+02 -3.212640e+02 -3.182889e+02 -3.217006e+02 -3.183362e+02 -3.220795e+02 -3.184072e+02 -3.224100e+02 -3.184980e+02 -3.226875e+02 -3.186111e+02 -3.228939e+02 -3.187445e+02 -3.230146e+02 -3.188855e+02 -3.230455e+02 -3.190124e+02 -3.229914e+02 -3.191025e+02 -3.228656e+02 -3.191408e+02 -3.226825e+02 -3.191198e+02 -3.224538e+02 -3.190376e+02 -3.221875e+02 -3.188955e+02 -3.218887e+02 -3.186968e+02 -3.215609e+02 -3.184459e+02 -3.212062e+02 -3.181480e+02 -3.208264e+02 -3.178086e+02 -3.204232e+02 -3.174338e+02 -3.199985e+02 -3.170296e+02 
-3.280151e+02 -3.222075e+02 -3.285350e+02 -3.226724e+02 -3.290572e+02 -3.231568e+02 -3.295745e+02 -3.236572e+02 -3.300796e+02 -3.241696e+02 -3.305658e+02 -3.246893e+02 -3.310269e+02 -3.252115e+02 -3.314573e+02 -3.257310e+02 -3.318520e+02 -3.262424e+02 -3.322069e+02 -3.267401e+02 -3.325187e+02 -3.272188e+02 -3.327847e+02 -3.276731e+02 -3.330028e+02 -3.280978e+02 -3.331715e+02 -3.284882e+02 -3.332898e+02 -3.288395e+02 -3.333568e+02 -3.291475e+02 -3.333720e+02 -3.294081e+02 -3.333348e+02 -3.296178e+02 -3.332452e+02 -3.297736e+02 -3.331028e+02 -3.298730e+02 -3.329078e+02 -3.299143e+02 -3.326610e+02 -3.298968e+02 -3.323636e+02 -3.298208e+02 -3.320177e+02 -3.296879e+02 -3.316264e+02 -3.295003e+02 -3.311935e+02 -3.292615e+02 -3.307236e+02 -3.289753e+02 -3.302216e+02 -3.286453e+02 -3.296924e+02 -3.282746e+02 -3.291402e+02 -3.278654e+02 -3.285688e+02 -3.274181e+02 -3.279807e+02 -3.269316e+02 -3.273777e+02 -3.264031e+02 -3.267618e+02 -3.258289e+02 -3.261362e+02 -3.252062e+02 -3.255075e+02 -3.245355e+02 -3.248883e+02 -3.238230e+02 -3.242979e+02 -3.230826e+02 -3.237616e+02 -3.223357e+02 -3.233070e+02 -3.216096e+02 -3.229580e+02 -3.209337e+02 -3.227283e+02 -3.203357e+02 -3.226176e+02 -3.198366e+02 -3.226127e+02 -3.194435e+02 -3.226935e+02 -3.191430e+02 -3.228391e+02 -3.189021e+02 -3.230280e+02 -3.186912e+02 -3.232292e+02 -3.185089e+02 -3.234188e+02 -3.183756e+02 -3.235948e+02 -3.183056e+02 -3.237590e+02 -3.183104e+02 -3.239130e+02 -3.183889e+02 -3.240594e+02 -3.185268e+02 -3.242008e+02 -3.187030e+02 -3.243540e+02 -3.189056e+02 -3.245362e+02 -3.191302e+02 -3.247587e+02 -3.193757e+02 -3.250270e+02 -3.196427e+02 -3.253423e+02 -3.199328e+02 -3.257027e+02 -3.202473e+02 -3.261046e+02 -3.205873e+02 -3.265430e+02 -3.209537e+02 -3.270120e+02 -3.213464e+02 -3.275050e+02 -3.217647e+02 
-3.195795e+02 -3.166274e+02 -3.191145e+02 -3.161742e+02 -3.186357e+02 -3.157115e+02 -3.181467e+02 -3.152461e+02 -3.176517e+02 -3.147848e+02 -3.171551e+02 -3.143341e+02 -3.166618e+02 -3.139002e+02 -3.161767e+02 -3.134888e+02 -3.157048e+02 -3.131051e+02 -3.152510e+02 -3.127537e+02 -3.148200e+02 -3.124383e+02 -3.144165e+02 -3.121624e+02 -3.140446e+02 -3.119286e+02 -3.137084e+02 -3.117391e+02 -3.134114e+02 -3.115958e+02 -3.131570e+02 -3.115002e+02 -3.129479e+02 -3.114533e+02 -3.127868e+02 -3.114564e+02 -3.126758e+02 -3.115102e+02 -3.126165e+02 -3.116152e+02 -3.126100e+02 -3.117717e+02 -3.126566e+02 -3.119793e+02 -3.127554e+02 -3.122364e+02 -3.129045e+02 -3.125405e+02 -3.131001e+02 -3.128870e+02 -3.133366e+02 -3.132694e+02 -3.136064e+02 -3.136787e+02 -3.139001e+02 -3.141039e+02 -3.142072e+02 -3.145321e+02 -3.145170e+02 -3.149504e+02 -3.148206e+02 -3.153472e+02 -3.151125e+02 -3.157144e+02 -3.153927e+02 -3.160485e+02 -3.156673e+02 -3.163516e+02 -3.159484e+02 -3.166296e+02 -3.162517e+02 -3.168900e+02 -3.165940e+02 -3.171385e+02 -3.169888e+02 -3.173767e+02 -3.174434e+02 -3.176008e+02 -3.179567e+02 -3.178034e+02 -3.185185e+02 -3.179759e+02 -3.191108e+02 -3.181111e+02 -3.197117e+02 -3.182054e+02 -3.202995e+02 -3.182593e+02 -3.208548e+02 -3.182792e+02 -3.213581e+02 -3.182835e+02 -3.217905e+02 -3.183065e+02 -3.221560e+02 -3.183794e+02 -3.224922e+02 -3.184662e+02 -3.227938e+02 -3.185826e+02 -3.230203e+02 -3.187350e+02 -3.231471e+02 -3.189073e+02 -3.231717e+02 -3.190674e+02 -3.230997e+02 -3.191803e+02 -3.229533e+02 -3.192299e+02 -3.227529e+02 -3.192120e+02 -3.225116e+02 -3.191278e+02 -3.222371e+02 -3.189806e+02 -3.219330e+02 -3.187752e+02 -3.216016e+02 -3.185166e+02 -3.212441e+02 -3.182103e+02 -3.208616e+02 -3.178621e+02 -3.204555e+02 -3.174780e+02 -3.200274e+02 -3.170642e+02 
-3.279954e+02 -3.221639e+02 -3.285300e+02 -3.226345e+02 -3.290669e+02 -3.231259e+02 -3.295984e+02 -3.236344e+02 -3.301170e+02 -3.241559e+02 -3.306158e+02 -3.246856e+02 -3.310882e+02 -3.252184e+02 -3.315285e+02 -3.257487e+02 -3.319317e+02 -3.262711e+02 -3.322936e+02 -3.267797e+02 -3.326110e+02 -3.272691e+02 -3.328813e+02 -3.277338e+02 -3.331027e+02 -3.281684e+02 -3.332739e+02 -3.285682e+02 -3.333941e+02 -3.289284e+02 -3.334627e+02 -3.292447e+02 -3.334794e+02 -3.295131e+02 -3.334438e+02 -3.297299e+02 -3.333555e+02 -3.298918e+02 -3.332143e+02 -3.299963e+02 -3.330201e+02 -3.300413e+02 -3.327731e+02 -3.300259e+02 -3.324743e+02 -3.299500e+02 -3.321253e+02 -3.298148e+02 -3.317288e+02 -3.296229e+02 -3.312885e+02 -3.293777e+02 -3.308090e+02 -3.290835e+02 -3.302958e+02 -3.287448e+02 -3.297544e+02 -3.283660e+02 -3.291903e+02 -3.279506e+02 -3.286082e+02 -3.275006e+02 -3.280114e+02 -3.270157e+02 -3.274016e+02 -3.264926e+02 -3.267789e+02 -3.259254e+02 -3.261435e+02 -3.253070e+02 -3.254985e+02 -3.246332e+02 -3.248538e+02 -3.239060e+02 -3.242290e+02 -3.231373e+02 -3.236541e+02 -3.223498e+02 -3.231648e+02 -3.215743e+02 -3.227937e+02 -3.208470e+02 -3.225601e+02 -3.202051e+02 -3.224629e+02 -3.196827e+02 -3.224820e+02 -3.192995e+02 -3.225898e+02 -3.190395e+02 -3.227678e+02 -3.188375e+02 -3.230044e+02 -3.186264e+02 -3.232440e+02 -3.184118e+02 -3.234411e+02 -3.182529e+02 -3.236155e+02 -3.181641e+02 -3.237763e+02 -3.181709e+02 -3.239249e+02 -3.182741e+02 -3.240633e+02 -3.184479e+02 -3.241770e+02 -3.186469e+02 -3.243004e+02 -3.188602e+02 -3.244609e+02 -3.190879e+02 -3.246718e+02 -3.193326e+02 -3.249366e+02 -3.195973e+02 -3.252543e+02 -3.198846e+02 -3.256213e+02 -3.201968e+02 -3.260326e+02 -3.205356e+02 -3.264824e+02 -3.209019e+02 -3.269641e+02 -3.212959e+02 -3.274709e+02 -3.217170e+02 
-3.196215e+02 -3.166687e+02 -3.191486e+02 -3.161987e+02 -3.186608e+02 -3.157193e+02 -3.181618e+02 -3.152375e+02 -3.176559e+02 -3.147603e+02 -3.171478e+02 -3.142946e+02 -3.166427e+02 -3.138468e+02 -3.161455e+02 -3.134229e+02 -3.156617e+02 -3.130280e+02 -3.151962e+02 -3.126669e+02 -3.147542e+02 -3.123434e+02 -3.143402e+02 -3.120606e+02 -3.139587e+02 -3.118213e+02 -3.136138e+02 -3.116275e+02 -3.133091e+02 -3.114808e+02 -3.130480e+02 -3.113826e+02 -3.128334e+02 -3.113341e+02 -3.126683e+02 -3.113365e+02 -3.125550e+02 -3.113909e+02 -3.124954e+02 -3.114982e+02 -3.124913e+02 -3.116593e+02 -3.125433e+02 -3.118741e+02 -3.126512e+02 -3.121421e+02 -3.128131e+02 -3.124609e+02 -3.130253e+02 -3.128263e+02 -3.132817e+02 -3.132312e+02 -3.135734e+02 -3.136658e+02 -3.138891e+02 -3.141170e+02 -3.142155e+02 -3.145699e+02 -3.145391e+02 -3.150083e+02 -3.148479e+02 -3.154183e+02 -3.151346e+02 -3.157903e+02 -3.153989e+02 -3.161218e+02 -3.156494e+02 -3.164184e+02 -3.159031e+02 -3.166915e+02 -3.161825e+02 -3.169540e+02 -3.165106e+02 -3.172150e+02 -3.169061e+02 -3.174751e+02 -3.173780e+02 -3.177256e+02 -3.179234e+02 -3.179511e+02 -3.185268e+02 -3.181359e+02 -3.191625e+02 -3.182688e+02 -3.198014e+02 -3.183451e+02 -3.204195e+02 -3.183644e+02 -3.210017e+02 -3.183296e+02 -3.215269e+02 -3.182610e+02 -3.219482e+02 -3.182268e+02 -3.222616e+02 -3.183370e+02 -3.226082e+02 -3.184038e+02 -3.229742e+02 -3.185169e+02 -3.232451e+02 -3.187041e+02 -3.233803e+02 -3.189404e+02 -3.233940e+02 -3.191696e+02 -3.232828e+02 -3.193220e+02 -3.230960e+02 -3.193873e+02 -3.228649e+02 -3.193712e+02 -3.226035e+02 -3.192812e+02 -3.223165e+02 -3.191244e+02 -3.220049e+02 -3.189070e+02 -3.216685e+02 -3.186351e+02 -3.213069e+02 -3.183146e+02 -3.209204e+02 -3.179515e+02 -3.205097e+02 -3.175518e+02 -3.200760e+02 -3.171220e+02 
-3.279657e+02 -3.220968e+02 -3.285227e+02 -3.225759e+02 -3.290820e+02 -3.230779e+02 -3.296352e+02 -3.235988e+02 -3.301746e+02 -3.241343e+02 -3.306925e+02 -3.246792e+02 -3.311821e+02 -3.252281e+02 -3.316375e+02 -3.257750e+02 -3.320533e+02 -3.263141e+02 -3.324256e+02 -3.268394e+02 -3.327511e+02 -3.273450e+02 -3.330276e+02 -3.278252e+02 -3.332535e+02 -3.282748e+02 -3.334281e+02 -3.286887e+02 -3.335509e+02 -3.290623e+02 -3.336217e+02 -3.293912e+02 -3.336405e+02 -3.296712e+02 -3.336071e+02 -3.298988e+02 -3.335211e+02 -3.300703e+02 -3.333820e+02 -3.301828e+02 -3.331894e+02 -3.302339e+02 -3.329428e+02 -3.302219e+02 -3.326425e+02 -3.301464e+02 -3.322893e+02 -3.300082e+02 -3.318852e+02 -3.298095e+02 -3.314335e+02 -3.295539e+02 -3.309390e+02 -3.292464e+02 -3.304075e+02 -3.288928e+02 -3.298461e+02 -3.284995e+02 -3.292622e+02 -3.280726e+02 -3.286627e+02 -3.276170e+02 -3.280529e+02 -3.271347e+02 -3.274345e+02 -3.266224e+02 -3.268052e+02 -3.260703e+02 -3.261595e+02 -3.254644e+02 -3.254930e+02 -3.247910e+02 -3.248095e+02 -3.240443e+02 -3.241280e+02 -3.232325e+02 -3.234861e+02 -3.223797e+02 -3.229348e+02 -3.215227e+02 -3.225244e+02 -3.207068e+02 -3.222861e+02 -3.199832e+02 -3.222173e+02 -3.194111e+02 -3.222802e+02 -3.190455e+02 -3.224252e+02 -3.188831e+02 -3.226405e+02 -3.187824e+02 -3.229773e+02 -3.185638e+02 -3.233003e+02 -3.182576e+02 -3.234849e+02 -3.180584e+02 -3.236483e+02 -3.179252e+02 -3.238037e+02 -3.179328e+02 -3.239446e+02 -3.180870e+02 -3.240905e+02 -3.183433e+02 -3.241435e+02 -3.185773e+02 -3.242103e+02 -3.188013e+02 -3.243363e+02 -3.190293e+02 -3.245315e+02 -3.192701e+02 -3.247938e+02 -3.195295e+02 -3.251174e+02 -3.198117e+02 -3.254957e+02 -3.201200e+02 -3.259221e+02 -3.204564e+02 -3.263897e+02 -3.208224e+02 -3.268912e+02 -3.212182e+02 -3.274192e+02 -3.216435e+02 
-3.196818e+02 -3.167266e+02 -3.191979e+02 -3.162330e+02 -3.186973e+02 -3.157298e+02 -3.181840e+02 -3.152246e+02 -3.176626e+02 -3.147248e+02 -3.171382e+02 -3.142378e+02 -3.166160e+02 -3.137702e+02 -3.161017e+02 -3.133284e+02 -3.156008e+02 -3.129179e+02 -3.151189e+02 -3.125432e+02 -3.146610e+02 -3.122083e+02 -3.142323e+02 -3.119163e+02 -3.138371e+02 -3.116694e+02 -3.134798e+02 -3.114696e+02 -3.131640e+02 -3.113181e+02 -3.128933e+02 -3.112163e+02 -3.126708e+02 -3.111653e+02 -3.124996e+02 -3.111665e+02 -3.123824e+02 -3.112212e+02 -3.123219e+02 -3.113311e+02 -3.123205e+02 -3.114977e+02 -3.123796e+02 -3.117222e+02 -3.124998e+02 -3.120049e+02 -3.126800e+02 -3.123443e+02 -3.129164e+02 -3.127365e+02 -3.132023e+02 -3.131743e+02 -3.135272e+02 -3.136463e+02 -3.138767e+02 -3.141370e+02 -3.142337e+02 -3.146274e+02 -3.145796e+02 -3.150966e+02 -3.148975e+02 -3.155259e+02 -3.151762e+02 -3.159027e+02 -3.154145e+02 -3.162254e+02 -3.156242e+02 -3.165054e+02 -3.158305e+02 -3.167642e+02 -3.160674e+02 -3.170257e+02 -3.163698e+02 -3.173059e+02 -3.167645e+02 -3.176045e+02 -3.172639e+02 -3.179029e+02 -3.178621e+02 -3.181708e+02 -3.185344e+02 -3.183787e+02 -3.192405e+02 -3.185099e+02 -3.199356e+02 -3.185617e+02 -3.205915e+02 -3.185351e+02 -3.212127e+02 -3.184171e+02 -3.218004e+02 -3.182028e+02 -3.222121e+02 -3.180005e+02 -3.223317e+02 -3.183356e+02 -3.227029e+02 -3.182924e+02 -3.232472e+02 -3.183742e+02 -3.236023e+02 -3.186209e+02 -3.237315e+02 -3.189775e+02 -3.237386e+02 -3.193480e+02 -3.235415e+02 -3.195515e+02 -3.232836e+02 -3.196272e+02 -3.230081e+02 -3.196052e+02 -3.227216e+02 -3.195021e+02 -3.224210e+02 -3.193289e+02 -3.221019e+02 -3.190934e+02 -3.217606e+02 -3.188023e+02 -3.213948e+02 -3.184616e+02 -3.210036e+02 -3.180774e+02 -3.205869e+02 -3.176558e+02 -3.201457e+02 -3.172033e+02 
-3.279254e+02 -3.220037e+02 -3.285132e+02 -3.224945e+02 -3.291031e+02 -3.230110e+02 -3.296862e+02 -3.235490e+02 -3.302539e+02 -3.241036e+02 -3.307979e+02 -3.246694e+02 -3.313109e+02 -3.252402e+02 -3.317864e+02 -3.258098e+02 -3.322192e+02 -3.263717e+02 -3.326050e+02 -3.269195e+02 -3.329410e+02 -3.274469e+02 -3.332251e+02 -3.279481e+02 -3.334565e+02 -3.284176e+02 -3.336349e+02 -3.288504e+02 -3.337605e+02 -3.292417e+02 -3.338337e+02 -3.295874e+02 -3.338550e+02 -3.298833e+02 -3.338245e+02 -3.301255e+02 -3.337419e+02 -3.303103e+02 -3.336063e+02 -3.304343e+02 -3.334168e+02 -3.304944e+02 -3.331720e+02 -3.304880e+02 -3.328710e+02 -3.304139e+02 -3.325132e+02 -3.302719e+02 -3.320997e+02 -3.300638e+02 -3.316327e+02 -3.297932e+02 -3.311167e+02 -3.294655e+02 -3.305583e+02 -3.290882e+02 -3.299664e+02 -3.286705e+02 -3.293517e+02 -3.282229e+02 -3.287255e+02 -3.277560e+02 -3.280973e+02 -3.272768e+02 -3.274708e+02 -3.267838e+02 -3.268404e+02 -3.262623e+02 -3.261909e+02 -3.256858e+02 -3.255037e+02 -3.250242e+02 -3.247691e+02 -3.242575e+02 -3.240015e+02 -3.233869e+02 -3.232499e+02 -3.224393e+02 -3.225925e+02 -3.214606e+02 -3.221142e+02 -3.205051e+02 -3.218724e+02 -3.196371e+02 -3.218641e+02 -3.189532e+02 -3.220122e+02 -3.185989e+02 -3.221967e+02 -3.186668e+02 -3.223908e+02 -3.188418e+02 -3.229608e+02 -3.185856e+02 -3.234919e+02 -3.179936e+02 -3.235473e+02 -3.177949e+02 -3.236862e+02 -3.175417e+02 -3.238416e+02 -3.175439e+02 -3.239540e+02 -3.177932e+02 -3.242066e+02 -3.182595e+02 -3.240958e+02 -3.185186e+02 -3.240622e+02 -3.187395e+02 -3.241435e+02 -3.189589e+02 -3.243251e+02 -3.191896e+02 -3.245902e+02 -3.194392e+02 -3.249259e+02 -3.197130e+02 -3.253223e+02 -3.200150e+02 -3.257706e+02 -3.203478e+02 -3.262631e+02 -3.207130e+02 -3.267918e+02 -3.211111e+02 -3.273487e+02 -3.215418e+02 
-3.197623e+02 -3.168017e+02 -3.192640e+02 -3.162770e+02 -3.187467e+02 -3.157426e+02 -3.182146e+02 -3.152065e+02 -3.176728e+02 -3.146770e+02 -3.171267e+02 -3.141619e+02 -3.165821e+02 -3.136685e+02 -3.160451e+02 -3.132035e+02 -3.155218e+02 -3.127726e+02 -3.150181e+02 -3.123806e+02 -3.145396e+02 -3.120313e+02 -3.140914e+02 -3.117274e+02 -3.136785e+02 -3.114712e+02 -3.133049e+02 -3.112639e+02 -3.129746e+02 -3.111065e+02 -3.126912e+02 -3.110001e+02 -3.124579e+02 -3.109456e+02 -3.122781e+02 -3.109444e+02 -3.121550e+02 -3.109986e+02 -3.120922e+02 -3.111105e+02 -3.120930e+02 -3.112829e+02 -3.121602e+02 -3.115184e+02 -3.122957e+02 -3.118190e+02 -3.124995e+02 -3.121845e+02 -3.127684e+02 -3.126120e+02 -3.130951e+02 -3.130942e+02 -3.134670e+02 -3.136181e+02 -3.138659e+02 -3.141649e+02 -3.142688e+02 -3.147096e+02 -3.146495e+02 -3.152240e+02 -3.149832e+02 -3.156807e+02 -3.152513e+02 -3.160606e+02 -3.154493e+02 -3.163619e+02 -3.155928e+02 -3.166047e+02 -3.157199e+02 -3.168288e+02 -3.158843e+02 -3.170792e+02 -3.161410e+02 -3.173868e+02 -3.165312e+02 -3.177512e+02 -3.170724e+02 -3.181356e+02 -3.177544e+02 -3.184796e+02 -3.185383e+02 -3.187274e+02 -3.193573e+02 -3.188553e+02 -3.201311e+02 -3.188749e+02 -3.208118e+02 -3.188063e+02 -3.214613e+02 -3.186006e+02 -3.222474e+02 -3.181284e+02 -3.227653e+02 -3.172332e+02 -3.221451e+02 -3.187089e+02 -3.226224e+02 -3.180516e+02 -3.237059e+02 -3.180619e+02 -3.241805e+02 -3.184226e+02 -3.241972e+02 -3.189939e+02 -3.242810e+02 -3.196916e+02 -3.238609e+02 -3.199097e+02 -3.234903e+02 -3.199663e+02 -3.231636e+02 -3.199212e+02 -3.228548e+02 -3.197940e+02 -3.225448e+02 -3.195961e+02 -3.222214e+02 -3.193356e+02 -3.218773e+02 -3.190191e+02 -3.215083e+02 -3.186522e+02 -3.211123e+02 -3.182408e+02 -3.206886e+02 -3.177909e+02 -3.202380e+02 -3.173088e+02 
-3.278741e+02 -3.218818e+02 -3.285016e+02 -3.223876e+02 -3.291312e+02 -3.229227e+02 -3.297528e+02 -3.234827e+02 -3.303570e+02 -3.240621e+02 -3.309347e+02 -3.246549e+02 -3.314776e+02 -3.252542e+02 -3.319788e+02 -3.258530e+02 -3.324327e+02 -3.264442e+02 -3.328352e+02 -3.270207e+02 -3.331835e+02 -3.275759e+02 -3.334763e+02 -3.281035e+02 -3.337133e+02 -3.285979e+02 -3.338951e+02 -3.290541e+02 -3.340231e+02 -3.294676e+02 -3.340984e+02 -3.298342e+02 -3.341222e+02 -3.301500e+02 -3.340953e+02 -3.304110e+02 -3.340174e+02 -3.306135e+02 -3.338875e+02 -3.307532e+02 -3.337036e+02 -3.308262e+02 -3.334633e+02 -3.308287e+02 -3.331638e+02 -3.307579e+02 -3.328027e+02 -3.306123e+02 -3.323787e+02 -3.303924e+02 -3.318926e+02 -3.301010e+02 -3.313477e+02 -3.297441e+02 -3.307510e+02 -3.293305e+02 -3.301138e+02 -3.288731e+02 -3.294517e+02 -3.283890e+02 -3.287841e+02 -3.278985e+02 -3.281293e+02 -3.274203e+02 -3.274975e+02 -3.269596e+02 -3.268807e+02 -3.264960e+02 -3.262483e+02 -3.259819e+02 -3.255544e+02 -3.253578e+02 -3.247605e+02 -3.245774e+02 -3.238669e+02 -3.236306e+02 -3.229371e+02 -3.225518e+02 -3.220967e+02 -3.214034e+02 -3.214971e+02 -3.202451e+02 -3.212528e+02 -3.191318e+02 -3.213763e+02 -3.181834e+02 -3.217212e+02 -3.177373e+02 -3.219610e+02 -3.183403e+02 -3.217594e+02 -3.193256e+02 -3.229810e+02 -3.189398e+02 -3.241543e+02 -3.173350e+02 -3.235247e+02 -3.175810e+02 -3.237053e+02 -3.168981e+02 -3.239176e+02 -3.169024e+02 -3.238135e+02 -3.172712e+02 -3.246757e+02 -3.183817e+02 -3.239718e+02 -3.184994e+02 -3.238007e+02 -3.186807e+02 -3.238521e+02 -3.188784e+02 -3.240361e+02 -3.190911e+02 -3.243166e+02 -3.193251e+02 -3.246744e+02 -3.195863e+02 -3.250970e+02 -3.198792e+02 -3.255750e+02 -3.202067e+02 -3.261001e+02 -3.205705e+02 -3.266641e+02 -3.209714e+02 -3.272584e+02 -3.214089e+02 
-3.198654e+02 -3.168945e+02 -3.193493e+02 -3.163309e+02 -3.188110e+02 -3.157572e+02 -3.182554e+02 -3.151824e+02 -3.176878e+02 -3.146155e+02 -3.171143e+02 -3.140650e+02 -3.165413e+02 -3.135392e+02 -3.159757e+02 -3.130452e+02 -3.154241e+02 -3.125892e+02 -3.148930e+02 -3.121760e+02 -3.143885e+02 -3.118094e+02 -3.139162e+02 -3.114917e+02 -3.134810e+02 -3.112246e+02 -3.130873e+02 -3.110087e+02 -3.127389e+02 -3.108446e+02 -3.124394e+02 -3.107325e+02 -3.121922e+02 -3.106732e+02 -3.120007e+02 -3.106683e+02 -3.118690e+02 -3.107203e+02 -3.118015e+02 -3.108326e+02 -3.118029e+02 -3.110096e+02 -3.118781e+02 -3.112562e+02 -3.120309e+02 -3.115766e+02 -3.122634e+02 -3.119731e+02 -3.125737e+02 -3.124445e+02 -3.129544e+02 -3.129839e+02 -3.133908e+02 -3.135772e+02 -3.138596e+02 -3.142012e+02 -3.143300e+02 -3.148235e+02 -3.147649e+02 -3.154042e+02 -3.151266e+02 -3.159013e+02 -3.153835e+02 -3.162819e+02 -3.155219e+02 -3.165390e+02 -3.155600e+02 -3.167054e+02 -3.155560e+02 -3.168526e+02 -3.155974e+02 -3.170669e+02 -3.157745e+02 -3.174111e+02 -3.161526e+02 -3.178887e+02 -3.167566e+02 -3.184293e+02 -3.175697e+02 -3.189113e+02 -3.185349e+02 -3.192227e+02 -3.195442e+02 -3.193306e+02 -3.204383e+02 -3.192902e+02 -3.210729e+02 -3.192195e+02 -3.215707e+02 -3.190448e+02 -3.229552e+02 -3.184721e+02 -3.244574e+02 -3.141586e+02 -3.232179e+02 -3.145054e+02 -3.190155e+02 -3.176307e+02 -3.218872e+02 -3.166670e+02 -3.229181e+02 -3.172147e+02 -3.229281e+02 -3.188330e+02 -3.249995e+02 -3.205149e+02 -3.241335e+02 -3.204321e+02 -3.236557e+02 -3.204089e+02 -3.233030e+02 -3.203205e+02 -3.229905e+02 -3.201576e+02 -3.226828e+02 -3.199267e+02 -3.223622e+02 -3.196344e+02 -3.220194e+02 -3.192864e+02 -3.216491e+02 -3.188875e+02 -3.212486e+02 -3.184428e+02 -3.208173e+02 -3.179581e+02 -3.203557e+02 -3.174396e+02 
-3.278108e+02 -3.217269e+02 -3.284879e+02 -3.222512e+02 -3.291671e+02 -3.228096e+02 -3.298372e+02 -3.233972e+02 -3.304871e+02 -3.240078e+02 -3.311066e+02 -3.246344e+02 -3.316866e+02 -3.252693e+02 -3.322192e+02 -3.259046e+02 -3.326985e+02 -3.265322e+02 -3.331204e+02 -3.271441e+02 -3.334824e+02 -3.277332e+02 -3.337839e+02 -3.282927e+02 -3.340258e+02 -3.288170e+02 -3.342099e+02 -3.293011e+02 -3.343387e+02 -3.297408e+02 -3.344150e+02 -3.301323e+02 -3.344408e+02 -3.304721e+02 -3.344179e+02 -3.307565e+02 -3.343464e+02 -3.309814e+02 -3.342251e+02 -3.311421e+02 -3.340510e+02 -3.312335e+02 -3.338199e+02 -3.312499e+02 -3.335266e+02 -3.311863e+02 -3.331655e+02 -3.310386e+02 -3.327321e+02 -3.308051e+02 -3.322240e+02 -3.304870e+02 -3.316421e+02 -3.300894e+02 -3.309924e+02 -3.296221e+02 -3.302882e+02 -3.291011e+02 -3.295524e+02 -3.285523e+02 -3.288173e+02 -3.280129e+02 -3.281200e+02 -3.275256e+02 -3.274872e+02 -3.271153e+02 -3.269138e+02 -3.267571e+02 -3.263457e+02 -3.263674e+02 -3.256869e+02 -3.258319e+02 -3.248398e+02 -3.250556e+02 -3.237665e+02 -3.240095e+02 -3.225450e+02 -3.227499e+02 -3.213822e+02 -3.213815e+02 -3.205522e+02 -3.199681e+02 -3.202911e+02 -3.184843e+02 -3.206851e+02 -3.169241e+02 -3.215435e+02 -3.158264e+02 -3.221589e+02 -3.176197e+02 -3.196829e+02 -3.207742e+02 -3.306912e+02 -3.147730e+02 -3.266168e+02 -3.118293e+02 -3.133654e+02 -3.135155e+02 -3.178469e+02 -3.133445e+02 -3.195754e+02 -3.145690e+02 -3.204319e+02 -3.167231e+02 -3.232186e+02 -3.181985e+02 -3.233193e+02 -3.184197e+02 -3.233195e+02 -3.186075e+02 -3.234298e+02 -3.187843e+02 -3.236520e+02 -3.189722e+02 -3.239667e+02 -3.191844e+02 -3.243585e+02 -3.194285e+02 -3.248166e+02 -3.197091e+02 -3.253326e+02 -3.200293e+02 -3.258984e+02 -3.203910e+02 -3.265061e+02 -3.207948e+02 -3.271467e+02 -3.212406e+02 
-3.199945e+02 -3.170062e+02 -3.194568e+02 -3.163951e+02 -3.188932e+02 -3.157734e+02 -3.183087e+02 -3.151510e+02 -3.177093e+02 -3.145380e+02 -3.171020e+02 -3.139442e+02 -3.164941e+02 -3.133788e+02 -3.158931e+02 -3.128498e+02 -3.153067e+02 -3.123638e+02 -3.147421e+02 -3.119258e+02 -3.142060e+02 -3.115393e+02 -3.137045e+02 -3.112062e+02 -3.132427e+02 -3.109272e+02 -3.128248e+02 -3.107023e+02 -3.124547e+02 -3.105308e+02 -3.121356e+02 -3.104123e+02 -3.118709e+02 -3.103470e+02 -3.116643e+02 -3.103364e+02 -3.115202e+02 -3.103834e+02 -3.114442e+02 -3.104930e+02 -3.114430e+02 -3.106717e+02 -3.115241e+02 -3.109273e+02 -3.116947e+02 -3.112676e+02 -3.119600e+02 -3.116985e+02 -3.123209e+02 -3.122219e+02 -3.127711e+02 -3.128326e+02 -3.132938e+02 -3.135158e+02 -3.138601e+02 -3.142445e+02 -3.144285e+02 -3.149770e+02 -3.149474e+02 -3.156574e+02 -3.153600e+02 -3.162193e+02 -3.156118e+02 -3.166012e+02 -3.156673e+02 -3.167775e+02 -3.155399e+02 -3.167952e+02 -3.153183e+02 -3.167818e+02 -3.151504e+02 -3.169031e+02 -3.151900e+02 -3.172901e+02 -3.155426e+02 -3.179640e+02 -3.162403e+02 -3.187965e+02 -3.172542e+02 -3.195379e+02 -3.185141e+02 -3.199464e+02 -3.198696e+02 -3.199727e+02 -3.210202e+02 -3.197438e+02 -3.214754e+02 -3.197331e+02 -3.207781e+02 -3.198852e+02 -3.245112e+02 -3.254277e+02 -3.037755e+02 -2.996547e+02 -3.240345e+02 -3.022130e+02 -3.187893e+02 -3.099268e+02 -3.198023e+02 -3.134447e+02 -3.211680e+02 -3.160762e+02 -3.220962e+02 -3.185844e+02 -3.242940e+02 -3.204921e+02 -3.240223e+02 -3.208981e+02 -3.236984e+02 -3.209187e+02 -3.234042e+02 -3.207960e+02 -3.231230e+02 -3.205903e+02 -3.228347e+02 -3.203193e+02 -3.225261e+02 -3.199896e+02 -3.221894e+02 -3.196049e+02 -3.218202e+02 -3.191687e+02 -3.214162e+02 -3.186852e+02 -3.209766e+02 -3.181592e+02 -3.205021e+02 -3.175970e+02 
-3.277345e+02 -3.215341e+02 -3.284722e+02 -3.220807e+02 -3.292123e+02 -3.226676e+02 -3.299418e+02 -3.232889e+02 -3.306479e+02 -3.239378e+02 -3.313187e+02 -3.246061e+02 -3.319436e+02 -3.252849e+02 -3.325138e+02 -3.259649e+02 -3.330228e+02 -3.266367e+02 -3.334663e+02 -3.272914e+02 -3.338426e+02 -3.279209e+02 -3.341521e+02 -3.285180e+02 -3.343969e+02 -3.290770e+02 -3.345805e+02 -3.295930e+02 -3.347074e+02 -3.300625e+02 -3.347821e+02 -3.304824e+02 -3.348086e+02 -3.308500e+02 -3.347898e+02 -3.311623e+02 -3.347267e+02 -3.314153e+02 -3.346180e+02 -3.316038e+02 -3.344598e+02 -3.317211e+02 -3.342455e+02 -3.317592e+02 -3.339664e+02 -3.317094e+02 -3.336126e+02 -3.315639e+02 -3.331745e+02 -3.313171e+02 -3.326441e+02 -3.309667e+02 -3.320172e+02 -3.305153e+02 -3.312960e+02 -3.299711e+02 -3.304938e+02 -3.293512e+02 -3.296411e+02 -3.286896e+02 -3.287912e+02 -3.280489e+02 -3.280166e+02 -3.275211e+02 -3.273832e+02 -3.271832e+02 -3.269063e+02 -3.270143e+02 -3.264994e+02 -3.268646e+02 -3.259757e+02 -3.265161e+02 -3.251182e+02 -3.257795e+02 -3.237966e+02 -3.245906e+02 -3.220932e+02 -3.230636e+02 -3.203525e+02 -3.214288e+02 -3.190684e+02 -3.197922e+02 -3.187023e+02 -3.179378e+02 -3.195470e+02 -3.152136e+02 -3.216158e+02 -3.110140e+02 -3.251686e+02 -3.202787e+02 -2.496604e+02 -2.902691e+02 -3.195736e+02 -3.026290e+02 -3.242341e+02 -2.932381e+02 -3.216050e+02 -3.054021e+02 -3.206690e+02 -3.108380e+02 -3.201814e+02 -3.141413e+02 -3.203435e+02 -3.162346e+02 -3.234211e+02 -3.179583e+02 -3.227685e+02 -3.183753e+02 -3.227296e+02 -3.185469e+02 -3.228974e+02 -3.186806e+02 -3.231770e+02 -3.188303e+02 -3.235407e+02 -3.190127e+02 -3.239771e+02 -3.192346e+02 -3.244790e+02 -3.194997e+02 -3.250405e+02 -3.198108e+02 -3.256550e+02 -3.201693e+02 -3.263150e+02 -3.205764e+02 -3.270116e+02 -3.210317e+02 