# vtk DataFile Version 2.0
Comment goes here
ASCII

DATASET STRUCTURED_POINTS
DIMENSIONS    128   128   1

ORIGIN    0.000   0.000   0.000
SPACING   0.0156250.015625   1.000

POINT_DATA   16384
SCALARS P double
LOOKUP_TABLE default

-2.602042e+02 -2.601152e+02 -2.597234e+02 -2.597548e+02 -2.592441e+02 -2.593759e+02 -2.587710e+02 -2.589844e+02 -2.583090e+02 -2.585860e+02 -2.578632e+02 -2.581865e+02 -2.574384e+02 -2.577918e+02 -2.570390e+02 -2.574076e+02 -2.566693e+02 -2.570393e+02 -2.563331e+02 -2.566921e+02 -2.560337e+02 -2.563707e+02 -2.557738e+02 -2.560794e+02 -2.555557e+02 -2.558223e+02 -2.553813e+02 -2.556025e+02 -2.552519e+02 -2.554231e+02 -2.551683e+02 -2.552863e+02 -2.551311e+02 -2.551940e+02 -2.551403e+02 -2.551475e+02 -2.551957e+02 -2.551473e+02 -2.552967e+02 -2.551935e+02 -2.554418e+02 -2.552851e+02 -2.556295e+02 -2.554206e+02 -2.558570e+02 -2.555971e+02 -2.561211e+02 -2.558108e+02 -2.564173e+02 -2.560566e+02 -2.567401e+02 -2.563283e+02 -2.570829e+02 -2.566182e+02 -2.574386e+02 -2.569182e+02 -2.577993e+02 -2.572198e+02 -2.581580e+02 -2.575149e+02 -2.585086e+02 -2.577972e+02 -2.588477e+02 -2.580624e+02 -2.591750e+02 -2.583094e+02 -2.594936e+02 -2.585400e+02 -2.598100e+02 -2.587577e+02 -2.601328e+02 -2.589671e+02 -2.604712e+02 -2.591719e+02 -2.608331e+02 -2.593732e+02 -2.612229e+02 -2.595693e+02 -2.616403e+02 -2.597558e+02 -2.620792e+02 -2.599256e+02 -2.625276e+02 -2.600717e+02 -2.629693e+02 -2.601883e+02 -2.633856e+02 -2.602748e+02 -2.637593e+02 -2.603378e+02 -2.640779e+02 -2.603919e+02 -2.643367e+02 -2.604562e+02 -2.645388e+02 -2.605473e+02 -2.646882e+02 -2.606714e+02 -2.647811e+02 -2.608294e+02 -2.648080e+02 -2.610141e+02 -2.647626e+02 -2.612098e+02 -2.646453e+02 -2.613963e+02 -2.644625e+02 -2.615539e+02 -2.642240e+02 -2.616690e+02 -2.639399e+02 -2.617336e+02 -2.636181e+02 -2.617444e+02 -2.632647e+02 -2.617012e+02 -2.628840e+02 -2.616055e+02 -2.624794e+02 -2.614598e+02 -2.620538e+02 -2.612677e+02 -2.616102e+02 -2.610327e+02 -2.611517e+02 -2.607592e+02 -2.606817e+02 -2.604517e+02 
-2.672496e+02 -2.650160e+02 -2.676657e+02 -2.655138e+02 -2.680949e+02 -2.660147e+02 -2.685312e+02 -2.665137e+02 -2.689682e+02 -2.670058e+02 -2.694000e+02 -2.674858e+02 -2.698206e+02 -2.679485e+02 -2.702242e+02 -2.683889e+02 -2.706056e+02 -2.688023e+02 -2.709598e+02 -2.691842e+02 -2.712825e+02 -2.695308e+02 -2.715697e+02 -2.698386e+02 -2.718180e+02 -2.701045e+02 -2.720244e+02 -2.703258e+02 -2.721866e+02 -2.705005e+02 -2.723026e+02 -2.706268e+02 -2.723708e+02 -2.707032e+02 -2.723902e+02 -2.707287e+02 -2.723602e+02 -2.707026e+02 -2.722807e+02 -2.706248e+02 -2.721524e+02 -2.704956e+02 -2.719765e+02 -2.703161e+02 -2.717552e+02 -2.700879e+02 -2.714915e+02 -2.698137e+02 -2.711893e+02 -2.694970e+02 -2.708533e+02 -2.691416e+02 -2.704883e+02 -2.687521e+02 -2.700996e+02 -2.683331e+02 -2.696921e+02 -2.678889e+02 -2.692699e+02 -2.674230e+02 -2.688363e+02 -2.669378e+02 -2.683935e+02 -2.664346e+02 -2.679428e+02 -2.659132e+02 -2.674854e+02 -2.653727e+02 -2.670232e+02 -2.648126e+02 -2.665611e+02 -2.642346e+02 -2.661075e+02 -2.636440e+02 -2.656760e+02 -2.630516e+02 -2.652845e+02 -2.624731e+02 -2.649524e+02 -2.619279e+02 -2.646966e+02 -2.614364e+02 -2.645268e+02 -2.610159e+02 -2.644425e+02 -2.606771e+02 -2.644334e+02 -2.604198e+02 -2.644816e+02 -2.602323e+02 -2.645661e+02 -2.600964e+02 -2.646642e+02 -2.599975e+02 -2.647530e+02 -2.599322e+02 -2.648180e+02 -2.599098e+02 -2.648560e+02 -2.599423e+02 -2.648705e+02 -2.600372e+02 -2.648692e+02 -2.601932e+02 -2.648626e+02 -2.604013e+02 -2.648622e+02 -2.606500e+02 -2.648814e+02 -2.609308e+02 -2.649320e+02 -2.612389e+02 -2.650224e+02 -2.615720e+02 -2.651570e+02 -2.619292e+02 -2.653374e+02 -2.623098e+02 -2.655628e+02 -2.627132e+02 -2.658308e+02 -2.631384e+02 -2.661380e+02 -2.635838e+02 -2.664802e+02 -2.640472e+02 -2.668525e+02 -2.645258e+02 
-2.602059e+02 -2.601268e+02 -2.597229e+02 -2.597636e+02 -2.592412e+02 -2.593819e+02 -2.587656e+02 -2.589875e+02 -2.583012e+02 -2.585861e+02 -2.578530e+02 -2.581837e+02 -2.574259e+02 -2.577862e+02 -2.570244e+02 -2.573992e+02 -2.566528e+02 -2.570284e+02 -2.563150e+02 -2.566788e+02 -2.560141e+02 -2.563553e+02 -2.557531e+02 -2.560621e+02 -2.555342e+02 -2.558033e+02 -2.553591e+02 -2.555822e+02 -2.552292e+02 -2.554016e+02 -2.551454e+02 -2.552640e+02 -2.551082e+02 -2.551713e+02 -2.551177e+02 -2.551246e+02 -2.551736e+02 -2.551247e+02 -2.552753e+02 -2.551716e+02 -2.554216e+02 -2.552645e+02 -2.556109e+02 -2.554018e+02 -2.558406e+02 -2.555807e+02 -2.561073e+02 -2.557974e+02 -2.564066e+02 -2.560468e+02 -2.567328e+02 -2.563224e+02 -2.570794e+02 -2.566164e+02 -2.574386e+02 -2.569203e+02 -2.578025e+02 -2.572253e+02 -2.581634e+02 -2.575230e+02 -2.585151e+02 -2.578066e+02 -2.588538e+02 -2.580720e+02 -2.591792e+02 -2.583183e+02 -2.594949e+02 -2.585475e+02 -2.598078e+02 -2.587642e+02 -2.601276e+02 -2.589737e+02 -2.604641e+02 -2.591799e+02 -2.608259e+02 -2.593842e+02 -2.612178e+02 -2.595843e+02 -2.616394e+02 -2.597746e+02 -2.620841e+02 -2.599474e+02 -2.625394e+02 -2.600942e+02 -2.629880e+02 -2.602087e+02 -2.634105e+02 -2.602897e+02 -2.637885e+02 -2.603438e+02 -2.641083e+02 -2.603874e+02 -2.643650e+02 -2.604432e+02 -2.645650e+02 -2.605310e+02 -2.647163e+02 -2.606547e+02 -2.648138e+02 -2.608162e+02 -2.648440e+02 -2.610086e+02 -2.647984e+02 -2.612146e+02 -2.646780e+02 -2.614108e+02 -2.644903e+02 -2.615753e+02 -2.642469e+02 -2.616942e+02 -2.639587e+02 -2.617603e+02 -2.636339e+02 -2.617713e+02 -2.632783e+02 -2.617273e+02 -2.628960e+02 -2.616302e+02 -2.624899e+02 -2.614829e+02 -2.620629e+02 -2.612888e+02 -2.616178e+02 -2.610517e+02 -2.611575e+02 -2.607759e+02 -2.606856e+02 -2.604659e+02 
-2.672310e+02 -2.650085e+02 -2.676531e+02 -2.655108e+02 -2.680885e+02 -2.660166e+02 -2.685310e+02 -2.665208e+02 -2.689742e+02 -2.670181e+02 -2.694120e+02 -2.675033e+02 -2.698382e+02 -2.679710e+02 -2.702472e+02 -2.684161e+02 -2.706335e+02 -2.688339e+02 -2.709922e+02 -2.692198e+02 -2.713188e+02 -2.695699e+02 -2.716094e+02 -2.698807e+02 -2.718605e+02 -2.701492e+02 -2.720694e+02 -2.703728e+02 -2.722336e+02 -2.705494e+02 -2.723511e+02 -2.706772e+02 -2.724206e+02 -2.707549e+02 -2.724407e+02 -2.707813e+02 -2.724111e+02 -2.707559e+02 -2.723315e+02 -2.706784e+02 -2.722024e+02 -2.705489e+02 -2.720252e+02 -2.703685e+02 -2.718017e+02 -2.701387e+02 -2.715350e+02 -2.698620e+02 -2.712290e+02 -2.695418e+02 -2.708883e+02 -2.691822e+02 -2.705181e+02 -2.687879e+02 -2.701239e+02 -2.683638e+02 -2.697110e+02 -2.679147e+02 -2.692841e+02 -2.674447e+02 -2.688467e+02 -2.669570e+02 -2.684013e+02 -2.664530e+02 -2.679489e+02 -2.659324e+02 -2.674899e+02 -2.653935e+02 -2.670249e+02 -2.648342e+02 -2.665571e+02 -2.642543e+02 -2.660941e+02 -2.636576e+02 -2.656494e+02 -2.630539e+02 -2.652426e+02 -2.624594e+02 -2.648962e+02 -2.618952e+02 -2.646307e+02 -2.613850e+02 -2.644588e+02 -2.609504e+02 -2.643806e+02 -2.606067e+02 -2.643840e+02 -2.603562e+02 -2.644492e+02 -2.601838e+02 -2.645540e+02 -2.600607e+02 -2.646737e+02 -2.599644e+02 -2.647768e+02 -2.598896e+02 -2.648449e+02 -2.598552e+02 -2.648794e+02 -2.598801e+02 -2.648861e+02 -2.599763e+02 -2.648746e+02 -2.601413e+02 -2.648564e+02 -2.603611e+02 -2.648428e+02 -2.606182e+02 -2.648502e+02 -2.609037e+02 -2.648926e+02 -2.612141e+02 -2.649784e+02 -2.615482e+02 -2.651116e+02 -2.619058e+02 -2.652927e+02 -2.622870e+02 -2.655204e+02 -2.626914e+02 -2.657919e+02 -2.631182e+02 -2.661034e+02 -2.635658e+02 -2.664505e+02 -2.640321e+02 -2.668282e+02 -2.645142e+02 
-2.602112e+02 -2.601625e+02 -2.597213e+02 -2.597912e+02 -2.592323e+02 -2.594010e+02 -2.587493e+02 -2.589978e+02 -2.582774e+02 -2.585875e+02 -2.578220e+02 -2.581764e+02 -2.573880e+02 -2.577703e+02 -2.569802e+02 -2.573751e+02 -2.566029e+02 -2.569965e+02 -2.562601e+02 -2.566398e+02 -2.559551e+02 -2.563097e+02 -2.556906e+02 -2.560108e+02 -2.554690e+02 -2.557470e+02 -2.552920e+02 -2.555216e+02 -2.551609e+02 -2.553377e+02 -2.550765e+02 -2.551976e+02 -2.550392e+02 -2.551032e+02 -2.550494e+02 -2.550560e+02 -2.551068e+02 -2.550568e+02 -2.552110e+02 -2.551057e+02 -2.553609e+02 -2.552022e+02 -2.555550e+02 -2.553448e+02 -2.557910e+02 -2.555309e+02 -2.560657e+02 -2.557567e+02 -2.563745e+02 -2.560168e+02 -2.567115e+02 -2.563042e+02 -2.570694e+02 -2.566107e+02 -2.574397e+02 -2.569267e+02 -2.578133e+02 -2.572422e+02 -2.581813e+02 -2.575476e+02 -2.585363e+02 -2.578354e+02 -2.588737e+02 -2.581011e+02 -2.591933e+02 -2.583444e+02 -2.594995e+02 -2.585690e+02 -2.598014e+02 -2.587820e+02 -2.601111e+02 -2.589910e+02 -2.604413e+02 -2.592017e+02 -2.608027e+02 -2.594155e+02 -2.612011e+02 -2.596284e+02 -2.616357e+02 -2.598316e+02 -2.620988e+02 -2.600141e+02 -2.625754e+02 -2.601643e+02 -2.630457e+02 -2.602730e+02 -2.634876e+02 -2.603367e+02 -2.638796e+02 -2.603624e+02 -2.642032e+02 -2.603715e+02 -2.644502e+02 -2.603983e+02 -2.646400e+02 -2.604787e+02 -2.647982e+02 -2.606002e+02 -2.649136e+02 -2.607720e+02 -2.649557e+02 -2.609894e+02 -2.649091e+02 -2.612293e+02 -2.647780e+02 -2.614570e+02 -2.645740e+02 -2.616425e+02 -2.643148e+02 -2.617723e+02 -2.640142e+02 -2.618425e+02 -2.636806e+02 -2.618531e+02 -2.633188e+02 -2.618064e+02 -2.629317e+02 -2.617052e+02 -2.625214e+02 -2.615528e+02 -2.620902e+02 -2.613529e+02 -2.616405e+02 -2.611095e+02 -2.611750e+02 -2.608268e+02 -2.606973e+02 -2.605095e+02 
-2.671932e+02 -2.649930e+02 -2.676274e+02 -2.655046e+02 -2.680753e+02 -2.660203e+02 -2.685303e+02 -2.665349e+02 -2.689859e+02 -2.670428e+02 -2.694358e+02 -2.675385e+02 -2.698735e+02 -2.680163e+02 -2.702932e+02 -2.684710e+02 -2.706894e+02 -2.688976e+02 -2.710570e+02 -2.692915e+02 -2.713914e+02 -2.696486e+02 -2.716888e+02 -2.699655e+02 -2.719457e+02 -2.702392e+02 -2.721595e+02 -2.704672e+02 -2.723276e+02 -2.706474e+02 -2.724484e+02 -2.707783e+02 -2.725202e+02 -2.708585e+02 -2.725421e+02 -2.708870e+02 -2.725133e+02 -2.708629e+02 -2.724335e+02 -2.707859e+02 -2.723032e+02 -2.706561e+02 -2.721233e+02 -2.704740e+02 -2.718956e+02 -2.702409e+02 -2.716229e+02 -2.699593e+02 -2.713091e+02 -2.696322e+02 -2.709590e+02 -2.692639e+02 -2.705781e+02 -2.688595e+02 -2.701725e+02 -2.684245e+02 -2.697484e+02 -2.679648e+02 -2.693114e+02 -2.674860e+02 -2.688663e+02 -2.669927e+02 -2.684158e+02 -2.664872e+02 -2.679608e+02 -2.659692e+02 -2.674999e+02 -2.654350e+02 -2.670307e+02 -2.648791e+02 -2.665528e+02 -2.642971e+02 -2.660708e+02 -2.636890e+02 -2.655982e+02 -2.630625e+02 -2.651577e+02 -2.624345e+02 -2.647793e+02 -2.618296e+02 -2.644921e+02 -2.612776e+02 -2.643153e+02 -2.608100e+02 -2.642506e+02 -2.604537e+02 -2.642811e+02 -2.602203e+02 -2.643809e+02 -2.600879e+02 -2.645281e+02 -2.599985e+02 -2.646999e+02 -2.599098e+02 -2.648356e+02 -2.598066e+02 -2.649052e+02 -2.597411e+02 -2.649303e+02 -2.597464e+02 -2.649199e+02 -2.598464e+02 -2.648864e+02 -2.600348e+02 -2.648457e+02 -2.602835e+02 -2.648025e+02 -2.605582e+02 -2.647843e+02 -2.608521e+02 -2.648099e+02 -2.611657e+02 -2.648872e+02 -2.615008e+02 -2.650182e+02 -2.618590e+02 -2.652015e+02 -2.622411e+02 -2.654343e+02 -2.626473e+02 -2.657130e+02 -2.630771e+02 -2.660333e+02 -2.635291e+02 -2.663903e+02 -2.640012e+02 -2.667788e+02 -2.644904e+02 
-2.602206e+02 -2.602229e+02 -2.597190e+02 -2.598378e+02 -2.592176e+02 -2.594332e+02 -2.587220e+02 -2.590153e+02 -2.582376e+02 -2.585902e+02 -2.577699e+02 -2.581643e+02 -2.573243e+02 -2.577438e+02 -2.569058e+02 -2.573348e+02 -2.565189e+02 -2.569431e+02 -2.561678e+02 -2.565743e+02 -2.558558e+02 -2.562334e+02 -2.555856e+02 -2.559248e+02 -2.553596e+02 -2.556525e+02 -2.551794e+02 -2.554200e+02 -2.550462e+02 -2.552303e+02 -2.549607e+02 -2.550859e+02 -2.549235e+02 -2.549887e+02 -2.549348e+02 -2.549404e+02 -2.549945e+02 -2.549421e+02 -2.551025e+02 -2.549941e+02 -2.552581e+02 -2.550965e+02 -2.554602e+02 -2.552479e+02 -2.557068e+02 -2.554460e+02 -2.559949e+02 -2.556870e+02 -2.563199e+02 -2.559653e+02 -2.566754e+02 -2.562733e+02 -2.570532e+02 -2.566015e+02 -2.574432e+02 -2.569387e+02 -2.578343e+02 -2.572727e+02 -2.582152e+02 -2.575920e+02 -2.585763e+02 -2.578870e+02 -2.589115e+02 -2.581523e+02 -2.592201e+02 -2.583885e+02 -2.595083e+02 -2.586027e+02 -2.597887e+02 -2.588066e+02 -2.600787e+02 -2.590131e+02 -2.603962e+02 -2.592316e+02 -2.607560e+02 -2.594636e+02 -2.611658e+02 -2.597014e+02 -2.616242e+02 -2.599304e+02 -2.621206e+02 -2.601328e+02 -2.626357e+02 -2.602915e+02 -2.631449e+02 -2.603924e+02 -2.636223e+02 -2.604268e+02 -2.640421e+02 -2.603989e+02 -2.643750e+02 -2.603375e+02 -2.645925e+02 -2.602994e+02 -2.647461e+02 -2.603851e+02 -2.649226e+02 -2.604952e+02 -2.650867e+02 -2.606819e+02 -2.651556e+02 -2.609475e+02 -2.651038e+02 -2.612558e+02 -2.649509e+02 -2.615456e+02 -2.647130e+02 -2.617657e+02 -2.644244e+02 -2.619103e+02 -2.641030e+02 -2.619841e+02 -2.637557e+02 -2.619925e+02 -2.633846e+02 -2.619401e+02 -2.629905e+02 -2.618314e+02 -2.625740e+02 -2.616702e+02 -2.621361e+02 -2.614605e+02 -2.616789e+02 -2.612065e+02 -2.612049e+02 -2.609124e+02 -2.607174e+02 -2.605829e+02 
-2.671356e+02 -2.649686e+02 -2.675882e+02 -2.654943e+02 -2.680550e+02 -2.660253e+02 -2.685291e+02 -2.665559e+02 -2.690037e+02 -2.670801e+02 -2.694719e+02 -2.675918e+02 -2.699271e+02 -2.680852e+02 -2.703632e+02 -2.685544e+02 -2.707743e+02 -2.689944e+02 -2.711552e+02 -2.694002e+02 -2.715014e+02 -2.697679e+02 -2.718089e+02 -2.700939e+02 -2.720745e+02 -2.703752e+02 -2.722954e+02 -2.706096e+02 -2.724695e+02 -2.707953e+02 -2.725950e+02 -2.709307e+02 -2.726705e+02 -2.710146e+02 -2.726949e+02 -2.710461e+02 -2.726675e+02 -2.710242e+02 -2.725879e+02 -2.709484e+02 -2.724560e+02 -2.708183e+02 -2.722724e+02 -2.706341e+02 -2.720387e+02 -2.703965e+02 -2.717572e+02 -2.701075e+02 -2.714316e+02 -2.697700e+02 -2.710669e+02 -2.693881e+02 -2.706690e+02 -2.689674e+02 -2.702450e+02 -2.685145e+02 -2.698025e+02 -2.680371e+02 -2.693491e+02 -2.675431e+02 -2.688913e+02 -2.670400e+02 -2.684336e+02 -2.665323e+02 -2.679766e+02 -2.660202e+02 -2.675165e+02 -2.654971e+02 -2.670454e+02 -2.649516e+02 -2.665556e+02 -2.643710e+02 -2.660455e+02 -2.637483e+02 -2.655268e+02 -2.630873e+02 -2.650279e+02 -2.624053e+02 -2.645917e+02 -2.617320e+02 -2.642643e+02 -2.611064e+02 -2.640788e+02 -2.605749e+02 -2.640396e+02 -2.601889e+02 -2.641170e+02 -2.599882e+02 -2.642678e+02 -2.599498e+02 -2.644776e+02 -2.599350e+02 -2.647613e+02 -2.598690e+02 -2.649601e+02 -2.596856e+02 -2.650099e+02 -2.595561e+02 -2.650164e+02 -2.595175e+02 -2.649763e+02 -2.596276e+02 -2.649046e+02 -2.598674e+02 -2.648371e+02 -2.601798e+02 -2.647371e+02 -2.604794e+02 -2.646749e+02 -2.607808e+02 -2.646755e+02 -2.610958e+02 -2.647425e+02 -2.614305e+02 -2.648724e+02 -2.617882e+02 -2.650607e+02 -2.621710e+02 -2.653024e+02 -2.625796e+02 -2.655926e+02 -2.630138e+02 -2.659264e+02 -2.634725e+02 -2.662985e+02 -2.639534e+02 -2.667036e+02 -2.644534e+02 
-2.602349e+02 -2.603085e+02 -2.597165e+02 -2.599040e+02 -2.591975e+02 -2.594791e+02 -2.586838e+02 -2.590403e+02 -2.581812e+02 -2.585941e+02 -2.576960e+02 -2.581471e+02 -2.572338e+02 -2.577060e+02 -2.568000e+02 -2.572774e+02 -2.563996e+02 -2.568673e+02 -2.560367e+02 -2.564814e+02 -2.557148e+02 -2.561250e+02 -2.554368e+02 -2.558027e+02 -2.552047e+02 -2.555185e+02 -2.550202e+02 -2.552760e+02 -2.548841e+02 -2.550780e+02 -2.547972e+02 -2.549273e+02 -2.547599e+02 -2.548259e+02 -2.547724e+02 -2.547758e+02 -2.548351e+02 -2.547782e+02 -2.549480e+02 -2.548343e+02 -2.551111e+02 -2.549443e+02 -2.553240e+02 -2.551077e+02 -2.555852e+02 -2.553226e+02 -2.558923e+02 -2.555854e+02 -2.562406e+02 -2.558902e+02 -2.566234e+02 -2.562286e+02 -2.570310e+02 -2.565893e+02 -2.574511e+02 -2.569586e+02 -2.578694e+02 -2.573213e+02 -2.582710e+02 -2.576619e+02 -2.586425e+02 -2.579675e+02 -2.589745e+02 -2.582306e+02 -2.592653e+02 -2.584526e+02 -2.595229e+02 -2.586454e+02 -2.597662e+02 -2.588295e+02 -2.600214e+02 -2.590281e+02 -2.603159e+02 -2.592576e+02 -2.606715e+02 -2.595204e+02 -2.610989e+02 -2.598022e+02 -2.615953e+02 -2.600768e+02 -2.621449e+02 -2.603153e+02 -2.627206e+02 -2.604928e+02 -2.632895e+02 -2.605884e+02 -2.638216e+02 -2.605832e+02 -2.642936e+02 -2.604691e+02 -2.646613e+02 -2.602791e+02 -2.647978e+02 -2.600758e+02 -2.648290e+02 -2.602666e+02 -2.650593e+02 -2.603131e+02 -2.653545e+02 -2.605121e+02 -2.654753e+02 -2.608623e+02 -2.653985e+02 -2.613002e+02 -2.652081e+02 -2.617037e+02 -2.649028e+02 -2.619645e+02 -2.645670e+02 -2.621194e+02 -2.642178e+02 -2.621914e+02 -2.638546e+02 -2.621926e+02 -2.634735e+02 -2.621303e+02 -2.630718e+02 -2.620100e+02 -2.626478e+02 -2.618360e+02 -2.622015e+02 -2.616126e+02 -2.617342e+02 -2.613437e+02 -2.612483e+02 -2.610337e+02 -2.607471e+02 -2.606869e+02 
-2.670573e+02 -2.649337e+02 -2.675351e+02 -2.654789e+02 -2.680276e+02 -2.660310e+02 -2.685277e+02 -2.665835e+02 -2.690281e+02 -2.671301e+02 -2.695212e+02 -2.676639e+02 -2.700002e+02 -2.681784e+02 -2.704584e+02 -2.686675e+02 -2.708896e+02 -2.691256e+02 -2.712885e+02 -2.695476e+02 -2.716504e+02 -2.699292e+02 -2.719713e+02 -2.702671e+02 -2.722482e+02 -2.705584e+02 -2.724785e+02 -2.708012e+02 -2.726602e+02 -2.709938e+02 -2.727919e+02 -2.711350e+02 -2.728723e+02 -2.712238e+02 -2.729003e+02 -2.712594e+02 -2.728752e+02 -2.712409e+02 -2.727962e+02 -2.711672e+02 -2.726628e+02 -2.710375e+02 -2.724751e+02 -2.708513e+02 -2.722339e+02 -2.706085e+02 -2.719410e+02 -2.703102e+02 -2.715995e+02 -2.699586e+02 -2.712144e+02 -2.695577e+02 -2.707922e+02 -2.691134e+02 -2.703412e+02 -2.686336e+02 -2.698709e+02 -2.681282e+02 -2.693921e+02 -2.676093e+02 -2.689151e+02 -2.670895e+02 -2.684476e+02 -2.665784e+02 -2.679917e+02 -2.660781e+02 -2.675402e+02 -2.655786e+02 -2.670764e+02 -2.650579e+02 -2.665791e+02 -2.644895e+02 -2.660335e+02 -2.638532e+02 -2.654455e+02 -2.631458e+02 -2.648509e+02 -2.623853e+02 -2.643151e+02 -2.616079e+02 -2.639163e+02 -2.608622e+02 -2.637160e+02 -2.602115e+02 -2.637262e+02 -2.597494e+02 -2.638872e+02 -2.595978e+02 -2.640969e+02 -2.597869e+02 -2.643518e+02 -2.599205e+02 -2.649064e+02 -2.599445e+02 -2.652331e+02 -2.595103e+02 -2.651579e+02 -2.592800e+02 -2.651488e+02 -2.591391e+02 -2.650633e+02 -2.592779e+02 -2.649169e+02 -2.596266e+02 -2.648601e+02 -2.600887e+02 -2.646342e+02 -2.603990e+02 -2.645029e+02 -2.606963e+02 -2.644752e+02 -2.610066e+02 -2.645349e+02 -2.613372e+02 -2.646685e+02 -2.616925e+02 -2.648665e+02 -2.620750e+02 -2.651218e+02 -2.624861e+02 -2.654285e+02 -2.629260e+02 -2.657810e+02 -2.633935e+02 -2.661739e+02 -2.638864e+02 -2.666014e+02 -2.644012e+02 
-2.602555e+02 -2.604205e+02 -2.597149e+02 -2.599907e+02 -2.591725e+02 -2.595393e+02 -2.586346e+02 -2.590731e+02 -2.581080e+02 -2.585990e+02 -2.575994e+02 -2.581244e+02 -2.571152e+02 -2.576563e+02 -2.566613e+02 -2.572018e+02 -2.562430e+02 -2.567675e+02 -2.558648e+02 -2.563593e+02 -2.555303e+02 -2.559828e+02 -2.552423e+02 -2.556427e+02 -2.550026e+02 -2.553431e+02 -2.548126e+02 -2.550875e+02 -2.546731e+02 -2.548788e+02 -2.545844e+02 -2.547198e+02 -2.545468e+02 -2.546125e+02 -2.545606e+02 -2.545593e+02 -2.546264e+02 -2.545619e+02 -2.547448e+02 -2.546222e+02 -2.549167e+02 -2.547414e+02 -2.551424e+02 -2.549197e+02 -2.554220e+02 -2.551561e+02 -2.557535e+02 -2.554476e+02 -2.561330e+02 -2.557880e+02 -2.565531e+02 -2.561680e+02 -2.570025e+02 -2.565742e+02 -2.574659e+02 -2.569896e+02 -2.579246e+02 -2.573941e+02 -2.583580e+02 -2.577665e+02 -2.587465e+02 -2.580878e+02 -2.590751e+02 -2.583457e+02 -2.593386e+02 -2.585409e+02 -2.595471e+02 -2.586923e+02 -2.597284e+02 -2.588358e+02 -2.599241e+02 -2.590135e+02 -2.601783e+02 -2.592568e+02 -2.605246e+02 -2.595705e+02 -2.609781e+02 -2.599278e+02 -2.615330e+02 -2.602803e+02 -2.621645e+02 -2.605795e+02 -2.628315e+02 -2.607925e+02 -2.634842e+02 -2.608950e+02 -2.640874e+02 -2.608513e+02 -2.646497e+02 -2.606135e+02 -2.651770e+02 -2.602320e+02 -2.651078e+02 -2.594578e+02 -2.647121e+02 -2.602921e+02 -2.651315e+02 -2.599779e+02 -2.657962e+02 -2.601901e+02 -2.659911e+02 -2.606880e+02 -2.658043e+02 -2.613773e+02 -2.655787e+02 -2.620044e+02 -2.651235e+02 -2.622699e+02 -2.647235e+02 -2.624117e+02 -2.643471e+02 -2.624698e+02 -2.639715e+02 -2.624564e+02 -2.635834e+02 -2.623787e+02 -2.631754e+02 -2.622422e+02 -2.627439e+02 -2.620514e+02 -2.622879e+02 -2.618102e+02 -2.618082e+02 -2.615222e+02 -2.613071e+02 -2.611916e+02 -2.607880e+02 -2.608227e+02 
-2.669574e+02 -2.648864e+02 -2.674672e+02 -2.654569e+02 -2.679929e+02 -2.660363e+02 -2.685264e+02 -2.666175e+02 -2.690599e+02 -2.671931e+02 -2.695852e+02 -2.677556e+02 -2.700946e+02 -2.682975e+02 -2.705810e+02 -2.688121e+02 -2.710377e+02 -2.692933e+02 -2.714592e+02 -2.697356e+02 -2.718406e+02 -2.701347e+02 -2.721782e+02 -2.704872e+02 -2.724688e+02 -2.707906e+02 -2.727104e+02 -2.710432e+02 -2.729013e+02 -2.712438e+02 -2.730404e+02 -2.713919e+02 -2.731268e+02 -2.714868e+02 -2.731595e+02 -2.715278e+02 -2.731377e+02 -2.715139e+02 -2.730604e+02 -2.714440e+02 -2.729264e+02 -2.713162e+02 -2.727348e+02 -2.711291e+02 -2.724855e+02 -2.708813e+02 -2.721790e+02 -2.705723e+02 -2.718178e+02 -2.702034e+02 -2.714061e+02 -2.697776e+02 -2.709508e+02 -2.693008e+02 -2.704615e+02 -2.687818e+02 -2.699504e+02 -2.682338e+02 -2.694329e+02 -2.676745e+02 -2.689258e+02 -2.671254e+02 -2.684442e+02 -2.666069e+02 -2.679951e+02 -2.661278e+02 -2.675689e+02 -2.656742e+02 -2.671348e+02 -2.652068e+02 -2.666471e+02 -2.646738e+02 -2.660644e+02 -2.640320e+02 -2.653765e+02 -2.632663e+02 -2.646276e+02 -2.623977e+02 -2.639202e+02 -2.614727e+02 -2.633913e+02 -2.605444e+02 -2.631631e+02 -2.596773e+02 -2.632767e+02 -2.590092e+02 -2.636147e+02 -2.588682e+02 -2.638795e+02 -2.596759e+02 -2.639226e+02 -2.600122e+02 -2.652790e+02 -2.604786e+02 -2.659080e+02 -2.591318e+02 -2.652407e+02 -2.589136e+02 -2.653574e+02 -2.584800e+02 -2.652100e+02 -2.587170e+02 -2.648364e+02 -2.592696e+02 -2.650495e+02 -2.601499e+02 -2.644379e+02 -2.603326e+02 -2.642281e+02 -2.605994e+02 -2.641880e+02 -2.608972e+02 -2.642536e+02 -2.612195e+02 -2.644002e+02 -2.615695e+02 -2.646151e+02 -2.619503e+02 -2.648899e+02 -2.623640e+02 -2.652185e+02 -2.628107e+02 -2.655953e+02 -2.632893e+02 -2.660147e+02 -2.637974e+02 -2.664709e+02 -2.643313e+02 
-2.602843e+02 -2.605605e+02 -2.597156e+02 -2.600992e+02 -2.591432e+02 -2.596147e+02 -2.585746e+02 -2.591141e+02 -2.580173e+02 -2.586051e+02 -2.574789e+02 -2.580956e+02 -2.569668e+02 -2.575935e+02 -2.564875e+02 -2.571065e+02 -2.560469e+02 -2.566419e+02 -2.556497e+02 -2.562060e+02 -2.552997e+02 -2.558046e+02 -2.549996e+02 -2.554425e+02 -2.547510e+02 -2.551240e+02 -2.545549e+02 -2.548523e+02 -2.544114e+02 -2.546303e+02 -2.543206e+02 -2.544606e+02 -2.542825e+02 -2.543455e+02 -2.542973e+02 -2.542875e+02 -2.543659e+02 -2.542892e+02 -2.544896e+02 -2.543532e+02 -2.546705e+02 -2.544820e+02 -2.549104e+02 -2.546773e+02 -2.552111e+02 -2.549397e+02 -2.555724e+02 -2.552668e+02 -2.559914e+02 -2.556531e+02 -2.564604e+02 -2.560881e+02 -2.569665e+02 -2.565559e+02 -2.574905e+02 -2.570352e+02 -2.580075e+02 -2.574997e+02 -2.584890e+02 -2.579197e+02 -2.589061e+02 -2.582657e+02 -2.592336e+02 -2.585151e+02 -2.594580e+02 -2.586634e+02 -2.595888e+02 -2.587378e+02 -2.596674e+02 -2.588002e+02 -2.597622e+02 -2.589291e+02 -2.599467e+02 -2.591866e+02 -2.602751e+02 -2.595848e+02 -2.607677e+02 -2.600730e+02 -2.614121e+02 -2.605570e+02 -2.621699e+02 -2.609499e+02 -2.629757e+02 -2.612183e+02 -2.637409e+02 -2.613553e+02 -2.643976e+02 -2.613132e+02 -2.650369e+02 -2.608972e+02 -2.662850e+02 -2.605756e+02 -2.657453e+02 -2.572705e+02 -2.652432e+02 -2.577968e+02 -2.633899e+02 -2.591596e+02 -2.648352e+02 -2.588259e+02 -2.651646e+02 -2.595465e+02 -2.648612e+02 -2.612918e+02 -2.659224e+02 -2.626684e+02 -2.652912e+02 -2.627005e+02 -2.648578e+02 -2.627884e+02 -2.644764e+02 -2.628202e+02 -2.641013e+02 -2.627846e+02 -2.637133e+02 -2.626859e+02 -2.633026e+02 -2.625289e+02 -2.628647e+02 -2.623174e+02 -2.623982e+02 -2.620545e+02 -2.619038e+02 -2.617436e+02 -2.613839e+02 -2.613880e+02 -2.608424e+02 -2.609920e+02 
-2.668342e+02 -2.648238e+02 -2.673837e+02 -2.654262e+02 -2.679504e+02 -2.660402e+02 -2.685256e+02 -2.666575e+02 -2.691002e+02 -2.672698e+02 -2.696654e+02 -2.678682e+02 -2.702126e+02 -2.684444e+02 -2.707337e+02 -2.689908e+02 -2.712216e+02 -2.695003e+02 -2.716705e+02 -2.699673e+02 -2.720753e+02 -2.703872e+02 -2.724323e+02 -2.707567e+02 -2.727388e+02 -2.710738e+02 -2.729932e+02 -2.713372e+02 -2.731944e+02 -2.715467e+02 -2.733419e+02 -2.717023e+02 -2.734352e+02 -2.718040e+02 -2.734738e+02 -2.718516e+02 -2.734568e+02 -2.718443e+02 -2.733828e+02 -2.717804e+02 -2.732499e+02 -2.716574e+02 -2.730560e+02 -2.714719e+02 -2.727991e+02 -2.712208e+02 -2.724782e+02 -2.709015e+02 -2.720939e+02 -2.705127e+02 -2.716491e+02 -2.700560e+02 -2.711504e+02 -2.695361e+02 -2.706080e+02 -2.689621e+02 -2.700374e+02 -2.683497e+02 -2.694600e+02 -2.677242e+02 -2.689037e+02 -2.671218e+02 -2.683981e+02 -2.665846e+02 -2.679636e+02 -2.661397e+02 -2.675928e+02 -2.657710e+02 -2.672348e+02 -2.654099e+02 -2.668001e+02 -2.649582e+02 -2.661938e+02 -2.643302e+02 -2.653675e+02 -2.634921e+02 -2.643694e+02 -2.624773e+02 -2.633619e+02 -2.613592e+02 -2.625864e+02 -2.601867e+02 -2.622887e+02 -2.589609e+02 -2.626155e+02 -2.577482e+02 -2.634168e+02 -2.571836e+02 -2.638739e+02 -2.600298e+02 -2.621751e+02 -2.601275e+02 -2.696679e+02 -2.600331e+02 -2.675179e+02 -2.541033e+02 -2.600545e+02 -2.547503e+02 -2.612606e+02 -2.552817e+02 -2.617996e+02 -2.564598e+02 -2.620063e+02 -2.586502e+02 -2.637611e+02 -2.598847e+02 -2.638424e+02 -2.601837e+02 -2.637850e+02 -2.604725e+02 -2.637957e+02 -2.607635e+02 -2.638916e+02 -2.610744e+02 -2.640640e+02 -2.614157e+02 -2.643038e+02 -2.617930e+02 -2.646044e+02 -2.622088e+02 -2.649604e+02 -2.626634e+02 -2.653670e+02 -2.631555e+02 -2.658188e+02 -2.636826e+02 -2.663101e+02 -2.642404e+02 
-2.603240e+02 -2.607307e+02 -2.597204e+02 -2.602315e+02 -2.591108e+02 -2.597067e+02 -2.585037e+02 -2.591640e+02 -2.579081e+02 -2.586121e+02 -2.573327e+02 -2.580599e+02 -2.567860e+02 -2.575162e+02 -2.562755e+02 -2.569896e+02 -2.558077e+02 -2.564880e+02 -2.553878e+02 -2.560186e+02 -2.550197e+02 -2.555873e+02 -2.547058e+02 -2.551992e+02 -2.544473e+02 -2.548582e+02 -2.542445e+02 -2.545674e+02 -2.540971e+02 -2.543295e+02 -2.540042e+02 -2.541468e+02 -2.539654e+02 -2.540216e+02 -2.539807e+02 -2.539566e+02 -2.540510e+02 -2.539552e+02 -2.541788e+02 -2.540212e+02 -2.543674e+02 -2.541588e+02 -2.546212e+02 -2.543722e+02 -2.549445e+02 -2.546640e+02 -2.553401e+02 -2.550339e+02 -2.558070e+02 -2.554773e+02 -2.563385e+02 -2.559829e+02 -2.569197e+02 -2.565322e+02 -2.575267e+02 -2.570987e+02 -2.581266e+02 -2.576484e+02 -2.586808e+02 -2.581407e+02 -2.591468e+02 -2.585297e+02 -2.594826e+02 -2.587714e+02 -2.596556e+02 -2.588434e+02 -2.596659e+02 -2.587786e+02 -2.595740e+02 -2.586822e+02 -2.594963e+02 -2.587032e+02 -2.595611e+02 -2.589682e+02 -2.598576e+02 -2.595098e+02 -2.604107e+02 -2.602322e+02 -2.611921e+02 -2.609418e+02 -2.621472e+02 -2.614639e+02 -2.631789e+02 -2.617884e+02 -2.641157e+02 -2.619950e+02 -2.647211e+02 -2.621386e+02 -2.647985e+02 -2.610811e+02 -2.715543e+02 -2.644563e+02 -2.472170e+02 -2.498013e+02 -2.670159e+02 -2.477942e+02 -2.631295e+02 -2.532398e+02 -2.632168e+02 -2.561467e+02 -2.638422e+02 -2.584999e+02 -2.640817e+02 -2.611667e+02 -2.654355e+02 -2.626145e+02 -2.652632e+02 -2.630770e+02 -2.649410e+02 -2.632220e+02 -2.645999e+02 -2.632384e+02 -2.642447e+02 -2.631764e+02 -2.638661e+02 -2.630518e+02 -2.634572e+02 -2.628703e+02 -2.630143e+02 -2.626348e+02 -2.625366e+02 -2.623472e+02 -2.620250e+02 -2.620097e+02 -2.614826e+02 -2.616251e+02 -2.609137e+02 -2.611972e+02 
-2.666859e+02 -2.647424e+02 -2.672833e+02 -2.653842e+02 -2.678998e+02 -2.660410e+02 -2.685256e+02 -2.667032e+02 -2.691505e+02 -2.673608e+02 -2.697643e+02 -2.680036e+02 -2.703571e+02 -2.686219e+02 -2.709201e+02 -2.692068e+02 -2.714453e+02 -2.697505e+02 -2.719264e+02 -2.702466e+02 -2.723582e+02 -2.706905e+02 -2.727372e+02 -2.710791e+02 -2.730613e+02 -2.714109e+02 -2.733295e+02 -2.716855e+02 -2.735415e+02 -2.719036e+02 -2.736977e+02 -2.720666e+02 -2.737985e+02 -2.721755e+02 -2.738440e+02 -2.722309e+02 -2.738336e+02 -2.722325e+02 -2.737656e+02 -2.721782e+02 -2.736371e+02 -2.720642e+02 -2.734443e+02 -2.718853e+02 -2.731827e+02 -2.716353e+02 -2.728484e+02 -2.713081e+02 -2.724390e+02 -2.708990e+02 -2.719551e+02 -2.704062e+02 -2.714012e+02 -2.698316e+02 -2.707871e+02 -2.691825e+02 -2.701302e+02 -2.684749e+02 -2.694591e+02 -2.677406e+02 -2.688180e+02 -2.670380e+02 -2.682640e+02 -2.664516e+02 -2.678491e+02 -2.660555e+02 -2.675840e+02 -2.658402e+02 -2.673919e+02 -2.656839e+02 -2.671058e+02 -2.654004e+02 -2.665263e+02 -2.648234e+02 -2.655186e+02 -2.638861e+02 -2.641178e+02 -2.626625e+02 -2.625807e+02 -2.613145e+02 -2.613226e+02 -2.599033e+02 -2.608108e+02 -2.582490e+02 -2.614919e+02 -2.558402e+02 -2.635590e+02 -2.520546e+02 -2.659009e+02 -2.595007e+02 -2.250538e+02 -2.553381e+02 -2.611961e+02 -2.498637e+02 -2.682292e+02 -2.413355e+02 -2.648872e+02 -2.487634e+02 -2.633466e+02 -2.534251e+02 -2.621923e+02 -2.563912e+02 -2.615902e+02 -2.586696e+02 -2.639423e+02 -2.595178e+02 -2.633865e+02 -2.600461e+02 -2.632742e+02 -2.603441e+02 -2.633187e+02 -2.606107e+02 -2.634538e+02 -2.608992e+02 -2.636607e+02 -2.612261e+02 -2.639320e+02 -2.615974e+02 -2.642635e+02 -2.620149e+02 -2.646519e+02 -2.624786e+02 -2.650935e+02 -2.629870e+02 -2.655836e+02 -2.635371e+02 -2.661167e+02 -2.641242e+02 