# vtk DataFile Version 2.0
Comment goes here
ASCII

DATASET STRUCTURED_POINTS
DIMENSIONS    128   128   1

ORIGIN    0.000   0.000   0.000
SPACING   0.0156250.015625   1.000

POINT_DATA   16384
SCALARS P double
LOOKUP_TABLE default

-2.360516e+02 -2.355720e+02 -2.356450e+02 -2.352597e+02 -2.352396e+02 -2.349320e+02 -2.348397e+02 -2.345937e+02 -2.344494e+02 -2.342498e+02 -2.340730e+02 -2.339053e+02 -2.337147e+02 -2.335653e+02 -2.333783e+02 -2.332347e+02 -2.330674e+02 -2.329183e+02 -2.327854e+02 -2.326206e+02 -2.325350e+02 -2.323461e+02 -2.323187e+02 -2.320985e+02 -2.321383e+02 -2.318814e+02 -2.319954e+02 -2.316981e+02 -2.318911e+02 -2.315512e+02 -2.318260e+02 -2.314429e+02 -2.318004e+02 -2.313751e+02 -2.318143e+02 -2.313489e+02 -2.318672e+02 -2.313651e+02 -2.319583e+02 -2.314236e+02 -2.320862e+02 -2.315237e+02 -2.322491e+02 -2.316639e+02 -2.324446e+02 -2.318416e+02 -2.326695e+02 -2.320533e+02 -2.329197e+02 -2.322943e+02 -2.331904e+02 -2.325586e+02 -2.334759e+02 -2.328393e+02 -2.337699e+02 -2.331289e+02 -2.340661e+02 -2.334193e+02 -2.343585e+02 -2.337032e+02 -2.346426e+02 -2.339744e+02 -2.349162e+02 -2.342288e+02 -2.351797e+02 -2.344648e+02 -2.354368e+02 -2.346836e+02 -2.356942e+02 -2.348881e+02 -2.359603e+02 -2.350820e+02 -2.362438e+02 -2.352680e+02 -2.365523e+02 -2.354470e+02 -2.368900e+02 -2.356170e+02 -2.372568e+02 -2.357732e+02 -2.376466e+02 -2.359085e+02 -2.380479e+02 -2.360154e+02 -2.384447e+02 -2.360885e+02 -2.388184e+02 -2.361275e+02 -2.391521e+02 -2.361402e+02 -2.394334e+02 -2.361420e+02 -2.396579e+02 -2.361530e+02 -2.398287e+02 -2.361904e+02 -2.399491e+02 -2.362621e+02 -2.400164e+02 -2.363689e+02 -2.400242e+02 -2.365033e+02 -2.399689e+02 -2.366502e+02 -2.398534e+02 -2.367906e+02 -2.396849e+02 -2.369074e+02 -2.394726e+02 -2.369891e+02 -2.392247e+02 -2.370293e+02 -2.389475e+02 -2.370252e+02 -2.386454e+02 -2.369766e+02 -2.383214e+02 -2.368846e+02 -2.379779e+02 -2.367514e+02 -2.376172e+02 -2.365794e+02 -2.372415e+02 -2.363719e+02 -2.368533e+02 -2.361323e+02 -2.364556e+02 -2.358643e+02 
-2.424221e+02 -2.398940e+02 -2.428054e+02 -2.403491e+02 -2.431997e+02 -2.408079e+02 -2.435993e+02 -2.412656e+02 -2.439986e+02 -2.417173e+02 -2.443921e+02 -2.421581e+02 -2.447742e+02 -2.425830e+02 -2.451397e+02 -2.429872e+02 -2.454839e+02 -2.433664e+02 -2.458022e+02 -2.437164e+02 -2.460905e+02 -2.440336e+02 -2.463454e+02 -2.443149e+02 -2.465637e+02 -2.445576e+02 -2.467428e+02 -2.447594e+02 -2.468803e+02 -2.449186e+02 -2.469745e+02 -2.450337e+02 -2.470240e+02 -2.451037e+02 -2.470277e+02 -2.451278e+02 -2.469851e+02 -2.451058e+02 -2.468959e+02 -2.450378e+02 -2.467608e+02 -2.449243e+02 -2.465808e+02 -2.447664e+02 -2.463580e+02 -2.445661e+02 -2.460951e+02 -2.443257e+02 -2.457958e+02 -2.440485e+02 -2.454645e+02 -2.437380e+02 -2.451062e+02 -2.433984e+02 -2.447261e+02 -2.430336e+02 -2.443293e+02 -2.426475e+02 -2.439206e+02 -2.422432e+02 -2.435040e+02 -2.418227e+02 -2.430824e+02 -2.413869e+02 -2.426583e+02 -2.409353e+02 -2.422335e+02 -2.404667e+02 -2.418105e+02 -2.399802e+02 -2.413937e+02 -2.394765e+02 -2.409910e+02 -2.389600e+02 -2.406144e+02 -2.384392e+02 -2.402794e+02 -2.379277e+02 -2.400032e+02 -2.374423e+02 -2.398003e+02 -2.370007e+02 -2.396788e+02 -2.366180e+02 -2.396369e+02 -2.363035e+02 -2.396635e+02 -2.360571e+02 -2.397405e+02 -2.358692e+02 -2.398469e+02 -2.357250e+02 -2.399601e+02 -2.356130e+02 -2.400583e+02 -2.355313e+02 -2.401280e+02 -2.354884e+02 -2.401668e+02 -2.354951e+02 -2.401794e+02 -2.355577e+02 -2.401754e+02 -2.356744e+02 -2.401672e+02 -2.358375e+02 -2.401673e+02 -2.360377e+02 -2.401885e+02 -2.362688e+02 -2.402411e+02 -2.365273e+02 -2.403315e+02 -2.368116e+02 -2.404632e+02 -2.371210e+02 -2.406367e+02 -2.374548e+02 -2.408510e+02 -2.378123e+02 -2.411036e+02 -2.381922e+02 -2.413913e+02 -2.385930e+02 -2.417100e+02 -2.390122e+02 -2.420552e+02 -2.394471e+02 
-2.360532e+02 -2.355814e+02 -2.356446e+02 -2.352668e+02 -2.352372e+02 -2.349367e+02 -2.348351e+02 -2.345959e+02 -2.344427e+02 -2.342494e+02 -2.340643e+02 -2.339024e+02 -2.337040e+02 -2.335599e+02 -2.333657e+02 -2.332269e+02 -2.330533e+02 -2.329082e+02 -2.327698e+02 -2.326084e+02 -2.325182e+02 -2.323319e+02 -2.323009e+02 -2.320826e+02 -2.321197e+02 -2.318640e+02 -2.319763e+02 -2.316794e+02 -2.318716e+02 -2.315315e+02 -2.318064e+02 -2.314224e+02 -2.317809e+02 -2.313541e+02 -2.317950e+02 -2.313278e+02 -2.318484e+02 -2.313442e+02 -2.319403e+02 -2.314033e+02 -2.320693e+02 -2.315046e+02 -2.322337e+02 -2.316464e+02 -2.324312e+02 -2.318264e+02 -2.326584e+02 -2.320409e+02 -2.329114e+02 -2.322851e+02 -2.331852e+02 -2.325531e+02 -2.334738e+02 -2.328376e+02 -2.337708e+02 -2.331309e+02 -2.340695e+02 -2.334246e+02 -2.343636e+02 -2.337111e+02 -2.346483e+02 -2.339838e+02 -2.349211e+02 -2.342386e+02 -2.351826e+02 -2.344742e+02 -2.354367e+02 -2.346920e+02 -2.356906e+02 -2.348956e+02 -2.359535e+02 -2.350895e+02 -2.362350e+02 -2.352768e+02 -2.365430e+02 -2.354585e+02 -2.368824e+02 -2.356321e+02 -2.372529e+02 -2.357920e+02 -2.376482e+02 -2.359302e+02 -2.380563e+02 -2.360381e+02 -2.384603e+02 -2.361092e+02 -2.388407e+02 -2.361427e+02 -2.391790e+02 -2.361464e+02 -2.394618e+02 -2.361378e+02 -2.396846e+02 -2.361399e+02 -2.398537e+02 -2.361734e+02 -2.399755e+02 -2.362447e+02 -2.400460e+02 -2.363552e+02 -2.400555e+02 -2.364971e+02 -2.399990e+02 -2.366535e+02 -2.398799e+02 -2.368023e+02 -2.397069e+02 -2.369249e+02 -2.394905e+02 -2.370098e+02 -2.392395e+02 -2.370512e+02 -2.389601e+02 -2.370472e+02 -2.386564e+02 -2.369980e+02 -2.383312e+02 -2.369050e+02 -2.379867e+02 -2.367703e+02 -2.376249e+02 -2.365968e+02 -2.372480e+02 -2.363876e+02 -2.368584e+02 -2.361461e+02 -2.364590e+02 -2.358760e+02 
-2.424065e+02 -2.398859e+02 -2.427953e+02 -2.403454e+02 -2.431952e+02 -2.408089e+02 -2.436005e+02 -2.412715e+02 -2.440054e+02 -2.417282e+02 -2.444043e+02 -2.421739e+02 -2.447916e+02 -2.426035e+02 -2.451620e+02 -2.430121e+02 -2.455106e+02 -2.433954e+02 -2.458329e+02 -2.437490e+02 -2.461248e+02 -2.440694e+02 -2.463827e+02 -2.443534e+02 -2.466037e+02 -2.445984e+02 -2.467849e+02 -2.448021e+02 -2.469243e+02 -2.449627e+02 -2.470199e+02 -2.450790e+02 -2.470705e+02 -2.451498e+02 -2.470749e+02 -2.451746e+02 -2.470326e+02 -2.451529e+02 -2.469433e+02 -2.450848e+02 -2.468074e+02 -2.449707e+02 -2.466261e+02 -2.448118e+02 -2.464011e+02 -2.446098e+02 -2.461352e+02 -2.443670e+02 -2.458321e+02 -2.440866e+02 -2.454962e+02 -2.437724e+02 -2.451326e+02 -2.434285e+02 -2.447469e+02 -2.430593e+02 -2.443445e+02 -2.426691e+02 -2.439306e+02 -2.422615e+02 -2.435096e+02 -2.418390e+02 -2.430848e+02 -2.414029e+02 -2.426583e+02 -2.409525e+02 -2.422314e+02 -2.404858e+02 -2.418054e+02 -2.400004e+02 -2.413833e+02 -2.394955e+02 -2.409720e+02 -2.389738e+02 -2.405833e+02 -2.384431e+02 -2.402345e+02 -2.379174e+02 -2.399455e+02 -2.374150e+02 -2.397345e+02 -2.369567e+02 -2.396121e+02 -2.365616e+02 -2.395775e+02 -2.362429e+02 -2.396180e+02 -2.360024e+02 -2.397132e+02 -2.358271e+02 -2.398406e+02 -2.356932e+02 -2.399751e+02 -2.355831e+02 -2.400866e+02 -2.354926e+02 -2.401589e+02 -2.354389e+02 -2.401930e+02 -2.354394e+02 -2.401959e+02 -2.355037e+02 -2.401797e+02 -2.356282e+02 -2.401589e+02 -2.358004e+02 -2.401465e+02 -2.360070e+02 -2.401575e+02 -2.362414e+02 -2.402035e+02 -2.365015e+02 -2.402907e+02 -2.367866e+02 -2.404217e+02 -2.370966e+02 -2.405964e+02 -2.374312e+02 -2.408132e+02 -2.377898e+02 -2.410692e+02 -2.381715e+02 -2.413609e+02 -2.385745e+02 -2.416842e+02 -2.389967e+02 -2.420343e+02 -2.394350e+02 
-2.360578e+02 -2.356112e+02 -2.356432e+02 -2.352896e+02 -2.352295e+02 -2.349522e+02 -2.348211e+02 -2.346039e+02 -2.344222e+02 -2.342498e+02 -2.340375e+02 -2.338951e+02 -2.336713e+02 -2.335451e+02 -2.333275e+02 -2.332048e+02 -2.330101e+02 -2.328792e+02 -2.327224e+02 -2.325730e+02 -2.324671e+02 -2.322906e+02 -2.322469e+02 -2.320360e+02 -2.320635e+02 -2.318128e+02 -2.319185e+02 -2.316242e+02 -2.318128e+02 -2.314730e+02 -2.317472e+02 -2.313614e+02 -2.317219e+02 -2.312915e+02 -2.317369e+02 -2.312645e+02 -2.317919e+02 -2.312813e+02 -2.318862e+02 -2.313422e+02 -2.320186e+02 -2.314467e+02 -2.321876e+02 -2.315934e+02 -2.323909e+02 -2.317800e+02 -2.326253e+02 -2.320028e+02 -2.328867e+02 -2.322568e+02 -2.331698e+02 -2.325358e+02 -2.334682e+02 -2.328320e+02 -2.337745e+02 -2.331366e+02 -2.340812e+02 -2.334404e+02 -2.343808e+02 -2.337347e+02 -2.346674e+02 -2.340120e+02 -2.349380e+02 -2.342679e+02 -2.351931e+02 -2.345015e+02 -2.354375e+02 -2.347157e+02 -2.356802e+02 -2.349162e+02 -2.359327e+02 -2.351096e+02 -2.362073e+02 -2.353010e+02 -2.365139e+02 -2.354912e+02 -2.368583e+02 -2.356765e+02 -2.372403e+02 -2.358487e+02 -2.376527e+02 -2.359967e+02 -2.380818e+02 -2.361085e+02 -2.385084e+02 -2.361743e+02 -2.389098e+02 -2.361906e+02 -2.392635e+02 -2.361659e+02 -2.395507e+02 -2.361231e+02 -2.397649e+02 -2.360954e+02 -2.399260e+02 -2.361187e+02 -2.400531e+02 -2.361880e+02 -2.401366e+02 -2.363099e+02 -2.401528e+02 -2.364766e+02 -2.400917e+02 -2.366642e+02 -2.399602e+02 -2.368402e+02 -2.397722e+02 -2.369802e+02 -2.395430e+02 -2.370739e+02 -2.392827e+02 -2.371186e+02 -2.389970e+02 -2.371146e+02 -2.386890e+02 -2.370634e+02 -2.383605e+02 -2.369671e+02 -2.380130e+02 -2.368284e+02 -2.376479e+02 -2.366502e+02 -2.372673e+02 -2.364358e+02 -2.368734e+02 -2.361885e+02 -2.364691e+02 -2.359123e+02 
-2.423745e+02 -2.398695e+02 -2.427743e+02 -2.403379e+02 -2.431855e+02 -2.408110e+02 -2.436023e+02 -2.412836e+02 -2.440185e+02 -2.417504e+02 -2.444283e+02 -2.422060e+02 -2.448260e+02 -2.426451e+02 -2.452062e+02 -2.430627e+02 -2.455637e+02 -2.434540e+02 -2.458940e+02 -2.438149e+02 -2.461931e+02 -2.441417e+02 -2.464572e+02 -2.444311e+02 -2.466834e+02 -2.446805e+02 -2.468690e+02 -2.448878e+02 -2.470120e+02 -2.450514e+02 -2.471106e+02 -2.451699e+02 -2.471634e+02 -2.452425e+02 -2.471694e+02 -2.452684e+02 -2.471278e+02 -2.452473e+02 -2.470383e+02 -2.451791e+02 -2.469012e+02 -2.450641e+02 -2.467173e+02 -2.449031e+02 -2.464882e+02 -2.446978e+02 -2.462165e+02 -2.444502e+02 -2.459058e+02 -2.441635e+02 -2.455605e+02 -2.438414e+02 -2.451861e+02 -2.434886e+02 -2.447887e+02 -2.431101e+02 -2.443746e+02 -2.427109e+02 -2.439498e+02 -2.422961e+02 -2.435198e+02 -2.418693e+02 -2.430886e+02 -2.414327e+02 -2.426581e+02 -2.409854e+02 -2.422282e+02 -2.405239e+02 -2.417976e+02 -2.400426e+02 -2.413660e+02 -2.395367e+02 -2.409374e+02 -2.390054e+02 -2.405233e+02 -2.384548e+02 -2.401441e+02 -2.378991e+02 -2.398262e+02 -2.373601e+02 -2.395961e+02 -2.368646e+02 -2.394714e+02 -2.364404e+02 -2.394527e+02 -2.361111e+02 -2.395229e+02 -2.358858e+02 -2.396555e+02 -2.357444e+02 -2.398275e+02 -2.356375e+02 -2.400128e+02 -2.355336e+02 -2.401540e+02 -2.354169e+02 -2.402280e+02 -2.353354e+02 -2.402502e+02 -2.353199e+02 -2.402315e+02 -2.353893e+02 -2.401886e+02 -2.355341e+02 -2.401421e+02 -2.357292e+02 -2.401021e+02 -2.359484e+02 -2.400917e+02 -2.361884e+02 -2.401246e+02 -2.364508e+02 -2.402061e+02 -2.367368e+02 -2.403365e+02 -2.370476e+02 -2.405142e+02 -2.373835e+02 -2.407363e+02 -2.377444e+02 -2.409993e+02 -2.381295e+02 -2.412992e+02 -2.385371e+02 -2.416316e+02 -2.389651e+02 -2.419917e+02 -2.394105e+02 
-2.360659e+02 -2.356617e+02 -2.356413e+02 -2.353284e+02 -2.352169e+02 -2.349788e+02 -2.347975e+02 -2.346178e+02 -2.343878e+02 -2.342509e+02 -2.339925e+02 -2.338833e+02 -2.336161e+02 -2.335207e+02 -2.332631e+02 -2.331681e+02 -2.329374e+02 -2.328310e+02 -2.326425e+02 -2.325139e+02 -2.323812e+02 -2.322216e+02 -2.321561e+02 -2.319581e+02 -2.319690e+02 -2.317270e+02 -2.318214e+02 -2.315317e+02 -2.317141e+02 -2.313749e+02 -2.316479e+02 -2.312591e+02 -2.316230e+02 -2.311863e+02 -2.316393e+02 -2.311580e+02 -2.316968e+02 -2.311753e+02 -2.317949e+02 -2.312389e+02 -2.319329e+02 -2.313485e+02 -2.321094e+02 -2.315032e+02 -2.323224e+02 -2.317007e+02 -2.325689e+02 -2.319375e+02 -2.328447e+02 -2.322083e+02 -2.331440e+02 -2.325063e+02 -2.334595e+02 -2.328227e+02 -2.337825e+02 -2.331472e+02 -2.341035e+02 -2.334689e+02 -2.344132e+02 -2.337769e+02 -2.347037e+02 -2.340622e+02 -2.349705e+02 -2.343194e+02 -2.352138e+02 -2.345480e+02 -2.354400e+02 -2.347537e+02 -2.356613e+02 -2.349464e+02 -2.358940e+02 -2.351376e+02 -2.361550e+02 -2.353354e+02 -2.364582e+02 -2.355416e+02 -2.368113e+02 -2.357496e+02 -2.372137e+02 -2.359462e+02 -2.376568e+02 -2.361144e+02 -2.381236e+02 -2.362363e+02 -2.385907e+02 -2.362955e+02 -2.390313e+02 -2.362823e+02 -2.394159e+02 -2.362039e+02 -2.397125e+02 -2.360926e+02 -2.398980e+02 -2.359996e+02 -2.400323e+02 -2.360180e+02 -2.401744e+02 -2.360786e+02 -2.402942e+02 -2.362196e+02 -2.403273e+02 -2.364350e+02 -2.402547e+02 -2.366864e+02 -2.400968e+02 -2.369143e+02 -2.398788e+02 -2.370817e+02 -2.396266e+02 -2.371871e+02 -2.393513e+02 -2.372349e+02 -2.390563e+02 -2.372293e+02 -2.387422e+02 -2.371738e+02 -2.384090e+02 -2.370717e+02 -2.380569e+02 -2.369260e+02 -2.376867e+02 -2.367400e+02 -2.373000e+02 -2.365169e+02 -2.368989e+02 -2.362602e+02 -2.364864e+02 -2.359738e+02 
-2.423255e+02 -2.398439e+02 -2.427422e+02 -2.403260e+02 -2.431706e+02 -2.408137e+02 -2.436047e+02 -2.413016e+02 -2.440381e+02 -2.417838e+02 -2.444646e+02 -2.422546e+02 -2.448782e+02 -2.427083e+02 -2.452731e+02 -2.431395e+02 -2.456442e+02 -2.435432e+02 -2.459866e+02 -2.439151e+02 -2.462963e+02 -2.442513e+02 -2.465696e+02 -2.445487e+02 -2.468036e+02 -2.448048e+02 -2.469959e+02 -2.450174e+02 -2.471443e+02 -2.451852e+02 -2.472472e+02 -2.453071e+02 -2.473034e+02 -2.453822e+02 -2.473118e+02 -2.454099e+02 -2.472716e+02 -2.453897e+02 -2.471822e+02 -2.453216e+02 -2.470436e+02 -2.452054e+02 -2.468562e+02 -2.450417e+02 -2.466213e+02 -2.448316e+02 -2.463409e+02 -2.445769e+02 -2.460186e+02 -2.442805e+02 -2.456589e+02 -2.439463e+02 -2.452677e+02 -2.435792e+02 -2.448517e+02 -2.431852e+02 -2.444185e+02 -2.427710e+02 -2.439761e+02 -2.423436e+02 -2.435317e+02 -2.419093e+02 -2.430909e+02 -2.414720e+02 -2.426560e+02 -2.410314e+02 -2.422248e+02 -2.405813e+02 -2.417912e+02 -2.401108e+02 -2.413484e+02 -2.396077e+02 -2.408944e+02 -2.390646e+02 -2.404387e+02 -2.384836e+02 -2.400063e+02 -2.378796e+02 -2.396356e+02 -2.372789e+02 -2.393694e+02 -2.367171e+02 -2.392392e+02 -2.362364e+02 -2.392491e+02 -2.358825e+02 -2.393703e+02 -2.356880e+02 -2.395596e+02 -2.356271e+02 -2.398008e+02 -2.355779e+02 -2.400942e+02 -2.354964e+02 -2.402886e+02 -2.353060e+02 -2.403488e+02 -2.351657e+02 -2.403481e+02 -2.351154e+02 -2.402912e+02 -2.351992e+02 -2.402008e+02 -2.353896e+02 -2.401184e+02 -2.356337e+02 -2.400282e+02 -2.358690e+02 -2.399826e+02 -2.361132e+02 -2.399973e+02 -2.363762e+02 -2.400724e+02 -2.366623e+02 -2.402041e+02 -2.369735e+02 -2.403876e+02 -2.373110e+02 -2.406185e+02 -2.376750e+02 -2.408925e+02 -2.380649e+02 -2.412050e+02 -2.384795e+02 -2.415514e+02 -2.389164e+02 -2.419267e+02 -2.393725e+02 
-2.360782e+02 -2.357336e+02 -2.356392e+02 -2.353838e+02 -2.351996e+02 -2.350169e+02 -2.347645e+02 -2.346380e+02 -2.343391e+02 -2.342527e+02 -2.339285e+02 -2.338668e+02 -2.335378e+02 -2.334861e+02 -2.331716e+02 -2.331162e+02 -2.328340e+02 -2.327626e+02 -2.325289e+02 -2.324302e+02 -2.322592e+02 -2.321239e+02 -2.320273e+02 -2.318477e+02 -2.318351e+02 -2.316056e+02 -2.316839e+02 -2.314007e+02 -2.315745e+02 -2.312360e+02 -2.315075e+02 -2.311140e+02 -2.314829e+02 -2.310368e+02 -2.315010e+02 -2.310063e+02 -2.315618e+02 -2.310240e+02 -2.316650e+02 -2.310909e+02 -2.318103e+02 -2.312073e+02 -2.319970e+02 -2.313728e+02 -2.322235e+02 -2.315856e+02 -2.324872e+02 -2.318424e+02 -2.327838e+02 -2.321376e+02 -2.331070e+02 -2.324635e+02 -2.334483e+02 -2.328100e+02 -2.337969e+02 -2.331647e+02 -2.341406e+02 -2.335137e+02 -2.344668e+02 -2.338430e+02 -2.347643e+02 -2.341404e+02 -2.350257e+02 -2.343981e+02 -2.352504e+02 -2.346163e+02 -2.354464e+02 -2.348042e+02 -2.356314e+02 -2.349796e+02 -2.358296e+02 -2.351631e+02 -2.360667e+02 -2.353698e+02 -2.363630e+02 -2.356026e+02 -2.367290e+02 -2.358500e+02 -2.371635e+02 -2.360894e+02 -2.376544e+02 -2.362943e+02 -2.381793e+02 -2.364387e+02 -2.387093e+02 -2.364958e+02 -2.392130e+02 -2.364413e+02 -2.396569e+02 -2.362742e+02 -2.399845e+02 -2.360429e+02 -2.400818e+02 -2.357920e+02 -2.401306e+02 -2.358751e+02 -2.403180e+02 -2.358886e+02 -2.405385e+02 -2.360548e+02 -2.406070e+02 -2.363571e+02 -2.405023e+02 -2.367320e+02 -2.402931e+02 -2.370486e+02 -2.400197e+02 -2.372454e+02 -2.397334e+02 -2.373579e+02 -2.394396e+02 -2.374045e+02 -2.391347e+02 -2.373938e+02 -2.388145e+02 -2.373309e+02 -2.384764e+02 -2.372198e+02 -2.381189e+02 -2.370641e+02 -2.377421e+02 -2.368670e+02 -2.373472e+02 -2.366318e+02 -2.369361e+02 -2.363619e+02 -2.365119e+02 -2.360611e+02 
-2.422589e+02 -2.398077e+02 -2.426984e+02 -2.403086e+02 -2.431503e+02 -2.408166e+02 -2.436080e+02 -2.413255e+02 -2.440648e+02 -2.418289e+02 -2.445140e+02 -2.423206e+02 -2.449491e+02 -2.427942e+02 -2.453641e+02 -2.432439e+02 -2.457534e+02 -2.436644e+02 -2.461121e+02 -2.440511e+02 -2.464360e+02 -2.443999e+02 -2.467215e+02 -2.447079e+02 -2.469658e+02 -2.449725e+02 -2.471666e+02 -2.451920e+02 -2.473221e+02 -2.453652e+02 -2.474308e+02 -2.454912e+02 -2.474916e+02 -2.455696e+02 -2.475034e+02 -2.455997e+02 -2.474653e+02 -2.455812e+02 -2.473766e+02 -2.455136e+02 -2.472366e+02 -2.453964e+02 -2.470452e+02 -2.452297e+02 -2.468031e+02 -2.450139e+02 -2.465116e+02 -2.447500e+02 -2.461739e+02 -2.444406e+02 -2.457943e+02 -2.440893e+02 -2.453791e+02 -2.437015e+02 -2.449361e+02 -2.432843e+02 -2.444747e+02 -2.428464e+02 -2.440056e+02 -2.423983e+02 -2.435395e+02 -2.419508e+02 -2.430855e+02 -2.415123e+02 -2.426475e+02 -2.410842e+02 -2.422213e+02 -2.406573e+02 -2.417928e+02 -2.402113e+02 -2.413431e+02 -2.397214e+02 -2.408576e+02 -2.391680e+02 -2.403396e+02 -2.385465e+02 -2.398199e+02 -2.378718e+02 -2.393573e+02 -2.371765e+02 -2.390248e+02 -2.365056e+02 -2.388825e+02 -2.359189e+02 -2.389447e+02 -2.355018e+02 -2.391542e+02 -2.353581e+02 -2.394119e+02 -2.354967e+02 -2.397203e+02 -2.355489e+02 -2.402738e+02 -2.355680e+02 -2.405575e+02 -2.351453e+02 -2.405309e+02 -2.349059e+02 -2.405021e+02 -2.347767e+02 -2.403836e+02 -2.349019e+02 -2.402044e+02 -2.351910e+02 -2.401020e+02 -2.355468e+02 -2.399098e+02 -2.357810e+02 -2.398131e+02 -2.360191e+02 -2.398094e+02 -2.362786e+02 -2.398823e+02 -2.365626e+02 -2.400197e+02 -2.368731e+02 -2.402135e+02 -2.372118e+02 -2.404577e+02 -2.375795e+02 -2.407472e+02 -2.379759e+02 -2.410770e+02 -2.383997e+02 -2.414425e+02 -2.388486e+02 -2.418383e+02 -2.393193e+02 
-2.360960e+02 -2.358278e+02 -2.356378e+02 -2.354567e+02 -2.351780e+02 -2.350670e+02 -2.347220e+02 -2.346646e+02 -2.342757e+02 -2.342553e+02 -2.338449e+02 -2.338453e+02 -2.334350e+02 -2.334409e+02 -2.330514e+02 -2.330482e+02 -2.326984e+02 -2.326729e+02 -2.323800e+02 -2.323206e+02 -2.320994e+02 -2.319959e+02 -2.318589e+02 -2.317034e+02 -2.316603e+02 -2.314469e+02 -2.315047e+02 -2.312296e+02 -2.313927e+02 -2.310545e+02 -2.313246e+02 -2.309242e+02 -2.313005e+02 -2.308410e+02 -2.313205e+02 -2.308070e+02 -2.313849e+02 -2.308243e+02 -2.314940e+02 -2.308946e+02 -2.316481e+02 -2.310190e+02 -2.318472e+02 -2.311980e+02 -2.320908e+02 -2.314304e+02 -2.323768e+02 -2.317134e+02 -2.327012e+02 -2.320413e+02 -2.330573e+02 -2.324056e+02 -2.334349e+02 -2.327941e+02 -2.338206e+02 -2.331916e+02 -2.341982e+02 -2.335804e+02 -2.345502e+02 -2.339413e+02 -2.348601e+02 -2.342565e+02 -2.351154e+02 -2.345136e+02 -2.353124e+02 -2.347113e+02 -2.354608e+02 -2.348644e+02 -2.355861e+02 -2.350038e+02 -2.357267e+02 -2.351673e+02 -2.359230e+02 -2.353839e+02 -2.362065e+02 -2.356599e+02 -2.365913e+02 -2.359736e+02 -2.370741e+02 -2.362848e+02 -2.376359e+02 -2.365517e+02 -2.382456e+02 -2.367411e+02 -2.388640e+02 -2.368141e+02 -2.394582e+02 -2.367137e+02 -2.400137e+02 -2.364068e+02 -2.404854e+02 -2.360117e+02 -2.403142e+02 -2.352508e+02 -2.400905e+02 -2.358021e+02 -2.404293e+02 -2.355458e+02 -2.409346e+02 -2.357536e+02 -2.410591e+02 -2.362060e+02 -2.408533e+02 -2.368351e+02 -2.405529e+02 -2.373030e+02 -2.401740e+02 -2.374935e+02 -2.398477e+02 -2.375947e+02 -2.395391e+02 -2.376315e+02 -2.392283e+02 -2.376104e+02 -2.389048e+02 -2.375361e+02 -2.385630e+02 -2.374127e+02 -2.382002e+02 -2.372436e+02 -2.378158e+02 -2.370322e+02 -2.374106e+02 -2.367814e+02 -2.369866e+02 -2.364946e+02 -2.365471e+02 -2.361754e+02 
-2.421736e+02 -2.397590e+02 -2.426423e+02 -2.402844e+02 -2.431242e+02 -2.408187e+02 -2.436124e+02 -2.413549e+02 -2.440992e+02 -2.418860e+02 -2.445776e+02 -2.424048e+02 -2.450403e+02 -2.429042e+02 -2.454809e+02 -2.433777e+02 -2.458933e+02 -2.438196e+02 -2.462725e+02 -2.442249e+02 -2.466141e+02 -2.445895e+02 -2.469147e+02 -2.449104e+02 -2.471715e+02 -2.451853e+02 -2.473827e+02 -2.454129e+02 -2.475467e+02 -2.455923e+02 -2.476624e+02 -2.457233e+02 -2.477289e+02 -2.458055e+02 -2.477452e+02 -2.458388e+02 -2.477105e+02 -2.458227e+02 -2.476234e+02 -2.457566e+02 -2.474829e+02 -2.456394e+02 -2.472878e+02 -2.454702e+02 -2.470378e+02 -2.452483e+02 -2.467333e+02 -2.449738e+02 -2.463764e+02 -2.446482e+02 -2.459711e+02 -2.442745e+02 -2.455237e+02 -2.438582e+02 -2.450431e+02 -2.434073e+02 -2.445410e+02 -2.429333e+02 -2.440320e+02 -2.424513e+02 -2.435330e+02 -2.419802e+02 -2.430600e+02 -2.415374e+02 -2.426225e+02 -2.411308e+02 -2.422150e+02 -2.407477e+02 -2.418118e+02 -2.403526e+02 -2.413715e+02 -2.398979e+02 -2.408545e+02 -2.393427e+02 -2.402478e+02 -2.386707e+02 -2.395876e+02 -2.378985e+02 -2.389651e+02 -2.370674e+02 -2.385085e+02 -2.362279e+02 -2.383386e+02 -2.354458e+02 -2.385038e+02 -2.348541e+02 -2.388932e+02 -2.347455e+02 -2.392117e+02 -2.354497e+02 -2.393927e+02 -2.355511e+02 -2.407234e+02 -2.360823e+02 -2.411377e+02 -2.348021e+02 -2.407160e+02 -2.345361e+02 -2.407462e+02 -2.341832e+02 -2.405362e+02 -2.344403e+02 -2.401295e+02 -2.349250e+02 -2.401748e+02 -2.355822e+02 -2.396966e+02 -2.356894e+02 -2.395510e+02 -2.359037e+02 -2.395450e+02 -2.361563e+02 -2.396274e+02 -2.364362e+02 -2.397787e+02 -2.367444e+02 -2.399890e+02 -2.370836e+02 -2.402516e+02 -2.374552e+02 -2.405614e+02 -2.378594e+02 -2.409135e+02 -2.382948e+02 -2.413032e+02 -2.387591e+02 -2.417252e+02 -2.392487e+02 
-2.361209e+02 -2.359459e+02 -2.356384e+02 -2.355481e+02 -2.351526e+02 -2.351302e+02 -2.346700e+02 -2.346982e+02 -2.341970e+02 -2.342587e+02 -2.337404e+02 -2.338184e+02 -2.333063e+02 -2.333842e+02 -2.329006e+02 -2.329628e+02 -2.325282e+02 -2.325605e+02 -2.321934e+02 -2.321832e+02 -2.318994e+02 -2.318359e+02 -2.316486e+02 -2.315232e+02 -2.314425e+02 -2.312489e+02 -2.312819e+02 -2.310164e+02 -2.311670e+02 -2.308283e+02 -2.310977e+02 -2.306874e+02 -2.310741e+02 -2.305962e+02 -2.310960e+02 -2.305570e+02 -2.311641e+02 -2.305726e+02 -2.312792e+02 -2.306457e+02 -2.314426e+02 -2.307785e+02 -2.316557e+02 -2.309727e+02 -2.319192e+02 -2.312288e+02 -2.322326e+02 -2.315444e+02 -2.325925e+02 -2.319144e+02 -2.329919e+02 -2.323290e+02 -2.334189e+02 -2.327741e+02 -2.338567e+02 -2.332309e+02 -2.342837e+02 -2.336761e+02 -2.346756e+02 -2.340838e+02 -2.350077e+02 -2.344268e+02 -2.352585e+02 -2.346829e+02 -2.354169e+02 -2.348443e+02 -2.354914e+02 -2.349318e+02 -2.355197e+02 -2.349987e+02 -2.355640e+02 -2.351158e+02 -2.356918e+02 -2.353406e+02 -2.359530e+02 -2.356869e+02 -2.363663e+02 -2.361132e+02 -2.369215e+02 -2.365419e+02 -2.375885e+02 -2.369043e+02 -2.383193e+02 -2.371723e+02 -2.390525e+02 -2.373101e+02 -2.397430e+02 -2.371909e+02 -2.404508e+02 -2.366247e+02 -2.416270e+02 -2.363456e+02 -2.406003e+02 -2.334272e+02 -2.406050e+02 -2.338519e+02 -2.390408e+02 -2.345761e+02 -2.399604e+02 -2.342589e+02 -2.401686e+02 -2.349408e+02 -2.398919e+02 -2.366108e+02 -2.407445e+02 -2.378362e+02 -2.402771e+02 -2.378319e+02 -2.399448e+02 -2.378960e+02 -2.396408e+02 -2.379164e+02 -2.393346e+02 -2.378802e+02 -2.390134e+02 -2.377904e+02 -2.386706e+02 -2.376510e+02 -2.383032e+02 -2.374656e+02 -2.379103e+02 -2.372368e+02 -2.374927e+02 -2.369672e+02 -2.370529e+02 -2.366598e+02 -2.365941e+02 -2.363180e+02 
-2.420682e+02 -2.396952e+02 -2.425729e+02 -2.402515e+02 -2.430922e+02 -2.408189e+02 -2.436181e+02 -2.413897e+02 -2.441424e+02 -2.419557e+02 -2.446570e+02 -2.425085e+02 -2.451539e+02 -2.430401e+02 -2.456259e+02 -2.435433e+02 -2.460666e+02 -2.440116e+02 -2.464706e+02 -2.444395e+02 -2.468333e+02 -2.448229e+02 -2.471516e+02 -2.451589e+02 -2.474230e+02 -2.454455e+02 -2.476460e+02 -2.456819e+02 -2.478196e+02 -2.458680e+02 -2.479433e+02 -2.460041e+02 -2.480165e+02 -2.460907e+02 -2.480387e+02 -2.461279e+02 -2.480087e+02 -2.461154e+02 -2.479251e+02 -2.460523e+02 -2.477857e+02 -2.459369e+02 -2.475885e+02 -2.457669e+02 -2.473312e+02 -2.455400e+02 -2.470127e+02 -2.452546e+02 -2.466335e+02 -2.449102e+02 -2.461964e+02 -2.445087e+02 -2.457073e+02 -2.440547e+02 -2.451757e+02 -2.435565e+02 -2.446156e+02 -2.430278e+02 -2.440468e+02 -2.424902e+02 -2.434955e+02 -2.419749e+02 -2.429917e+02 -2.415183e+02 -2.425587e+02 -2.411449e+02 -2.421955e+02 -2.408410e+02 -2.418594e+02 -2.405455e+02 -2.414696e+02 -2.401690e+02 -2.409366e+02 -2.396315e+02 -2.402096e+02 -2.388980e+02 -2.393238e+02 -2.379941e+02 -2.384210e+02 -2.369831e+02 -2.377241e+02 -2.359120e+02 -2.374775e+02 -2.347965e+02 -2.378491e+02 -2.337266e+02 -2.387023e+02 -2.333130e+02 -2.391403e+02 -2.360009e+02 -2.379156e+02 -2.353597e+02 -2.444926e+02 -2.359301e+02 -2.414791e+02 -2.303221e+02 -2.360108e+02 -2.300497e+02 -2.366059e+02 -2.305804e+02 -2.370823e+02 -2.317173e+02 -2.374056e+02 -2.339459e+02 -2.390026e+02 -2.352044e+02 -2.391528e+02 -2.354918e+02 -2.391498e+02 -2.357503e+02 -2.391923e+02 -2.360067e+02 -2.393033e+02 -2.362811e+02 -2.394787e+02 -2.365847e+02 -2.397120e+02 -2.369229e+02 -2.399983e+02 -2.372984e+02 -2.403332e+02 -2.377115e+02 -2.407125e+02 -2.381610e+02 -2.411317e+02 -2.386443e+02 -2.415856e+02 -2.391574e+02 
-2.361551e+02 -2.360897e+02 -2.356424e+02 -2.356599e+02 -2.351243e+02 -2.352077e+02 -2.346084e+02 -2.347396e+02 -2.341022e+02 -2.342630e+02 -2.336135e+02 -2.337855e+02 -2.331494e+02 -2.333148e+02 -2.327165e+02 -2.328584e+02 -2.323206e+02 -2.324233e+02 -2.319660e+02 -2.320158e+02 -2.316563e+02 -2.316414e+02 -2.313937e+02 -2.313046e+02 -2.311793e+02 -2.310093e+02 -2.310134e+02 -2.307585e+02 -2.308956e+02 -2.305550e+02 -2.308254e+02 -2.304011e+02 -2.308022e+02 -2.302994e+02 -2.308258e+02 -2.302528e+02 -2.308969e+02 -2.302645e+02 -2.310173e+02 -2.303385e+02 -2.311894e+02 -2.304789e+02 -2.314166e+02 -2.306893e+02 -2.317019e+02 -2.309722e+02 -2.320470e+02 -2.313270e+02 -2.324504e+02 -2.317492e+02 -2.329054e+02 -2.322284e+02 -2.333983e+02 -2.327479e+02 -2.339080e+02 -2.332845e+02 -2.344059e+02 -2.338091e+02 -2.348588e+02 -2.342867e+02 -2.352306e+02 -2.346766e+02 -2.354852e+02 -2.349363e+02 -2.355939e+02 -2.350392e+02 -2.355561e+02 -2.350075e+02 -2.354254e+02 -2.349320e+02 -2.353073e+02 -2.349473e+02 -2.353200e+02 -2.351705e+02 -2.355453e+02 -2.356351e+02 -2.360047e+02 -2.362597e+02 -2.366703e+02 -2.368815e+02 -2.374957e+02 -2.373689e+02 -2.384079e+02 -2.377448e+02 -2.392908e+02 -2.380608e+02 -2.400048e+02 -2.381038e+02 -2.404052e+02 -2.365514e+02 -2.471555e+02 -2.381148e+02 -2.248340e+02 -2.276823e+02 -2.401388e+02 -2.248463e+02 -2.377458e+02 -2.288552e+02 -2.380042e+02 -2.313671e+02 -2.386906e+02 -2.335617e+02 -2.390310e+02 -2.363048e+02 -2.402753e+02 -2.376585e+02 -2.402466e+02 -2.381029e+02 -2.400141e+02 -2.382412e+02 -2.397447e+02 -2.382580e+02 -2.394559e+02 -2.382035e+02 -2.391435e+02 -2.380940e+02 -2.388029e+02 -2.379355e+02 -2.384316e+02 -2.377309e+02 -2.380294e+02 -2.374821e+02 -2.375973e+02 -2.371909e+02 -2.371381e+02 -2.368596e+02 -2.366557e+02 -2.364912e+02 
-2.419409e+02 -2.396132e+02 -2.424892e+02 -2.402074e+02 -2.430537e+02 -2.408160e+02 -2.436256e+02 -2.414296e+02 -2.441956e+02 -2.420387e+02 -2.447542e+02 -2.426335e+02 -2.452926e+02 -2.432048e+02 -2.458025e+02 -2.437440e+02 -2.462769e+02 -2.442440e+02 -2.467100e+02 -2.446988e+02 -2.470972e+02 -2.451040e+02 -2.474355e+02 -2.454568e+02 -2.477230e+02 -2.457560e+02 -2.479587e+02 -2.460013e+02 -2.481425e+02 -2.461938e+02 -2.482746e+02 -2.463347e+02 -2.483554e+02 -2.464255e+02 -2.483846e+02 -2.464671e+02 -2.483614e+02 -2.464598e+02 -2.482838e+02 -2.464023e+02 -2.481489e+02 -2.462919e+02 -2.479526e+02 -2.461246e+02 -2.476906e+02 -2.458959e+02 -2.473591e+02 -2.456010e+02 -2.469558e+02 -2.452369e+02 -2.464814e+02 -2.448026e+02 -2.459402e+02 -2.443008e+02 -2.453410e+02 -2.437383e+02 -2.446991e+02 -2.431289e+02 -2.440394e+02 -2.424995e+02 -2.434013e+02 -2.418997e+02 -2.428400e+02 -2.414024e+02 -2.424110e+02 -2.410748e+02 -2.421340e+02 -2.409111e+02 -2.419461e+02 -2.408048e+02 -2.416970e+02 -2.405875e+02 -2.412001e+02 -2.401049e+02 -2.403212e+02 -2.392895e+02 -2.390752e+02 -2.381994e+02 -2.376788e+02 -2.369720e+02 -2.365070e+02 -2.356602e+02 -2.360178e+02 -2.341172e+02 -2.367229e+02 -2.319410e+02 -2.389198e+02 -2.287471e+02 -2.406715e+02 -2.343924e+02 -2.126325e+02 -2.355198e+02 -2.357812e+02 -2.271537e+02 -2.415088e+02 -2.193539e+02 -2.395052e+02 -2.248850e+02 -2.383131e+02 -2.290257e+02 -2.374287e+02 -2.317744e+02 -2.368457e+02 -2.342426e+02 -2.391718e+02 -2.348217e+02 -2.387628e+02 -2.353238e+02 -2.387031e+02 -2.355992e+02 -2.387710e+02 -2.358391e+02 -2.389150e+02 -2.360969e+02 -2.391205e+02 -2.363900e+02 -2.393821e+02 -2.367249e+02 -2.396963e+02 -2.371039e+02 -2.400605e+02 -2.375272e+02 -2.404715e+02 -2.379934e+02 -2.409254e+02 -2.384997e+02 -2.414173e+02 -2.390415e+02 