# vtk DataFile Version 2.0
Comment goes here
ASCII

DATASET STRUCTURED_POINTS
DIMENSIONS    128   128   1

ORIGIN    0.000   0.000   0.000
SPACING   0.0156250.015625   1.000

POINT_DATA   16384
SCALARS P double
LOOKUP_TABLE default

-6.744697e+00 -6.775140e+00 -6.723683e+00 -6.756209e+00 -6.702325e+00 -6.736344e+00 -6.680947e+00 -6.715843e+00 -6.659873e+00 -6.695010e+00 -6.639414e+00 -6.674154e+00 -6.619867e+00 -6.653578e+00 -6.601504e+00 -6.633577e+00 -6.584571e+00 -6.614427e+00 -6.569277e+00 -6.596378e+00 -6.555794e+00 -6.579650e+00 -6.544253e+00 -6.564429e+00 -6.534738e+00 -6.550856e+00 -6.527289e+00 -6.539030e+00 -6.521900e+00 -6.529002e+00 -6.518517e+00 -6.520774e+00 -6.517042e+00 -6.514299e+00 -6.517332e+00 -6.509481e+00 -6.519204e+00 -6.506178e+00 -6.522438e+00 -6.504205e+00 -6.526783e+00 -6.503342e+00 -6.531963e+00 -6.503341e+00 -6.537691e+00 -6.503939e+00 -6.543677e+00 -6.504872e+00 -6.549645e+00 -6.505897e+00 -6.555349e+00 -6.506808e+00 -6.560595e+00 -6.507463e+00 -6.565257e+00 -6.507803e+00 -6.569293e+00 -6.507875e+00 -6.572764e+00 -6.507841e+00 -6.575841e+00 -6.507989e+00 -6.578806e+00 -6.508721e+00 -6.582046e+00 -6.510532e+00 -6.586035e+00 -6.513970e+00 -6.591293e+00 -6.519580e+00 -6.598336e+00 -6.527831e+00 -6.607614e+00 -6.539050e+00 -6.619436e+00 -6.553354e+00 -6.633918e+00 -6.570616e+00 -6.650927e+00 -6.590456e+00 -6.670078e+00 -6.612268e+00 -6.690748e+00 -6.635290e+00 -6.712139e+00 -6.658713e+00 -6.733391e+00 -6.681816e+00 -6.753707e+00 -6.704104e+00 -6.772494e+00 -6.725384e+00 -6.789470e+00 -6.745766e+00 -6.804693e+00 -6.765527e+00 -6.818469e+00 -6.784832e+00 -6.831127e+00 -6.803405e+00 -6.842694e+00 -6.820525e+00 -6.852849e+00 -6.835300e+00 -6.860986e+00 -6.847053e+00 -6.866366e+00 -6.855618e+00 -6.868549e+00 -6.861092e+00 -6.867436e+00 -6.863616e+00 -6.863141e+00 -6.863314e+00 -6.855880e+00 -6.860295e+00 -6.845909e+00 -6.854673e+00 -6.833497e+00 -6.846577e+00 -6.818919e+00 -6.836161e+00 -6.802456e+00 -6.823599e+00 -6.784397e+00 -6.809090e+00 -6.765040e+00 -6.792855e+00 
-6.875295e+00 -6.800617e+00 -6.885264e+00 -6.811027e+00 -6.895255e+00 -6.821318e+00 -6.905154e+00 -6.831370e+00 -6.914840e+00 -6.841056e+00 -6.924191e+00 -6.850254e+00 -6.933083e+00 -6.858842e+00 -6.941400e+00 -6.866709e+00 -6.949035e+00 -6.873752e+00 -6.955889e+00 -6.879884e+00 -6.961880e+00 -6.885030e+00 -6.966937e+00 -6.889133e+00 -6.971004e+00 -6.892149e+00 -6.974041e+00 -6.894048e+00 -6.976015e+00 -6.894811e+00 -6.976907e+00 -6.894427e+00 -6.976701e+00 -6.892888e+00 -6.975384e+00 -6.890186e+00 -6.972944e+00 -6.886311e+00 -6.969363e+00 -6.881246e+00 -6.964622e+00 -6.874968e+00 -6.958696e+00 -6.867448e+00 -6.951560e+00 -6.858659e+00 -6.943194e+00 -6.848581e+00 -6.933594e+00 -6.837216e+00 -6.922778e+00 -6.824599e+00 -6.910804e+00 -6.810819e+00 -6.897781e+00 -6.796026e+00 -6.883869e+00 -6.780446e+00 -6.869288e+00 -6.764371e+00 -6.854302e+00 -6.748147e+00 -6.839201e+00 -6.732146e+00 -6.824283e+00 -6.716735e+00 -6.809829e+00 -6.702247e+00 -6.796094e+00 -6.688960e+00 -6.783316e+00 -6.677099e+00 -6.771721e+00 -6.666837e+00 -6.761533e+00 -6.658301e+00 -6.752958e+00 -6.651555e+00 -6.746148e+00 -6.646582e+00 -6.741149e+00 -6.643257e+00 -6.737873e+00 -6.641356e+00 -6.736103e+00 -6.640608e+00 -6.735568e+00 -6.640799e+00 -6.736031e+00 -6.641879e+00 -6.737359e+00 -6.644027e+00 -6.739519e+00 -6.647562e+00 -6.742536e+00 -6.652708e+00 -6.746454e+00 -6.659375e+00 -6.751352e+00 -6.667230e+00 -6.757391e+00 -6.675779e+00 -6.764622e+00 -6.684400e+00 -6.772719e+00 -6.692576e+00 -6.780965e+00 -6.700343e+00 -6.789006e+00 -6.707989e+00 -6.796833e+00 -6.715771e+00 -6.804583e+00 -6.723846e+00 -6.812413e+00 -6.732284e+00 -6.820451e+00 -6.741108e+00 -6.828782e+00 -6.750312e+00 -6.837452e+00 -6.759872e+00 -6.846471e+00 -6.769747e+00 -6.855820e+00 -6.779881e+00 -6.865451e+00 -6.790201e+00 
-6.745032e+00 -6.775748e+00 -6.723856e+00 -6.756676e+00 -6.702335e+00 -6.736663e+00 -6.680796e+00 -6.716009e+00 -6.659566e+00 -6.695022e+00 -6.638959e+00 -6.674013e+00 -6.619275e+00 -6.653291e+00 -6.600790e+00 -6.633152e+00 -6.583752e+00 -6.613876e+00 -6.568372e+00 -6.595717e+00 -6.554824e+00 -6.578898e+00 -6.543240e+00 -6.563605e+00 -6.533705e+00 -6.549983e+00 -6.526260e+00 -6.538132e+00 -6.520898e+00 -6.528103e+00 -6.517564e+00 -6.519899e+00 -6.516160e+00 -6.513472e+00 -6.516542e+00 -6.508726e+00 -6.518524e+00 -6.505515e+00 -6.521883e+00 -6.503653e+00 -6.526365e+00 -6.502913e+00 -6.531690e+00 -6.503044e+00 -6.537563e+00 -6.503773e+00 -6.543687e+00 -6.504829e+00 -6.549777e+00 -6.505956e+00 -6.555579e+00 -6.506939e+00 -6.560888e+00 -6.507622e+00 -6.565570e+00 -6.507939e+00 -6.569576e+00 -6.507928e+00 -6.572962e+00 -6.507751e+00 -6.575897e+00 -6.507697e+00 -6.578668e+00 -6.508181e+00 -6.581672e+00 -6.509717e+00 -6.585400e+00 -6.512882e+00 -6.590399e+00 -6.518257e+00 -6.597219e+00 -6.526345e+00 -6.606340e+00 -6.537505e+00 -6.618107e+00 -6.551872e+00 -6.632653e+00 -6.569325e+00 -6.649856e+00 -6.589468e+00 -6.669319e+00 -6.611662e+00 -6.690386e+00 -6.635089e+00 -6.712209e+00 -6.658871e+00 -6.733859e+00 -6.682224e+00 -6.754471e+00 -6.704608e+00 -6.773400e+00 -6.725833e+00 -6.790347e+00 -6.746077e+00 -6.805417e+00 -6.765756e+00 -6.819029e+00 -6.785199e+00 -6.831672e+00 -6.804132e+00 -6.843400e+00 -6.821698e+00 -6.853859e+00 -6.836812e+00 -6.862364e+00 -6.848647e+00 -6.867964e+00 -6.857165e+00 -6.870198e+00 -6.862567e+00 -6.869027e+00 -6.865030e+00 -6.864624e+00 -6.864673e+00 -6.857235e+00 -6.861597e+00 -6.847129e+00 -6.855909e+00 -6.834580e+00 -6.847738e+00 -6.819862e+00 -6.837234e+00 -6.803254e+00 -6.824572e+00 -6.785045e+00 -6.809952e+00 -6.765535e+00 -6.793596e+00 
-6.875171e+00 -6.800623e+00 -6.885243e+00 -6.811147e+00 -6.895348e+00 -6.821559e+00 -6.905368e+00 -6.831735e+00 -6.915178e+00 -6.841546e+00 -6.924650e+00 -6.850864e+00 -6.933659e+00 -6.859565e+00 -6.942084e+00 -6.867533e+00 -6.949816e+00 -6.874665e+00 -6.956755e+00 -6.880870e+00 -6.962815e+00 -6.886074e+00 -6.967927e+00 -6.890221e+00 -6.972037e+00 -6.893267e+00 -6.975103e+00 -6.895185e+00 -6.977099e+00 -6.895960e+00 -6.978006e+00 -6.895584e+00 -6.977812e+00 -6.894052e+00 -6.976508e+00 -6.891361e+00 -6.974084e+00 -6.887503e+00 -6.970524e+00 -6.882461e+00 -6.965807e+00 -6.876210e+00 -6.959906e+00 -6.868719e+00 -6.952790e+00 -6.859949e+00 -6.944430e+00 -6.849871e+00 -6.934809e+00 -6.838469e+00 -6.923935e+00 -6.825764e+00 -6.911855e+00 -6.811832e+00 -6.898669e+00 -6.796816e+00 -6.884539e+00 -6.780942e+00 -6.869694e+00 -6.764521e+00 -6.854416e+00 -6.747923e+00 -6.839019e+00 -6.731555e+00 -6.823820e+00 -6.715813e+00 -6.809109e+00 -6.701045e+00 -6.795139e+00 -6.687534e+00 -6.782134e+00 -6.675499e+00 -6.770316e+00 -6.665112e+00 -6.759921e+00 -6.656509e+00 -6.751195e+00 -6.649782e+00 -6.744337e+00 -6.644933e+00 -6.739428e+00 -6.641832e+00 -6.736365e+00 -6.640201e+00 -6.734869e+00 -6.639670e+00 -6.734570e+00 -6.639909e+00 -6.735166e+00 -6.640811e+00 -6.736525e+00 -6.642638e+00 -6.738664e+00 -6.645952e+00 -6.741634e+00 -6.651187e+00 -6.745473e+00 -6.658189e+00 -6.750212e+00 -6.666535e+00 -6.756198e+00 -6.675706e+00 -6.763757e+00 -6.684846e+00 -6.772569e+00 -6.692985e+00 -6.781171e+00 -6.700466e+00 -6.789221e+00 -6.707853e+00 -6.796910e+00 -6.715480e+00 -6.804503e+00 -6.723483e+00 -6.812206e+00 -6.731899e+00 -6.820158e+00 -6.740728e+00 -6.828444e+00 -6.749956e+00 -6.837103e+00 -6.759557e+00 -6.846143e+00 -6.769489e+00 -6.855538e+00 -6.779696e+00 -6.865239e+00 -6.790105e+00 
-6.746039e+00 -6.777581e+00 -6.724375e+00 -6.758083e+00 -6.702362e+00 -6.737623e+00 -6.680337e+00 -6.716508e+00 -6.658634e+00 -6.695055e+00 -6.637581e+00 -6.673587e+00 -6.617484e+00 -6.652420e+00 -6.598630e+00 -6.631865e+00 -6.581274e+00 -6.612209e+00 -6.565635e+00 -6.593717e+00 -6.551891e+00 -6.576619e+00 -6.540177e+00 -6.561110e+00 -6.530583e+00 -6.547340e+00 -6.523148e+00 -6.535411e+00 -6.517866e+00 -6.525379e+00 -6.514682e+00 -6.517247e+00 -6.513493e+00 -6.510965e+00 -6.514151e+00 -6.506434e+00 -6.516466e+00 -6.503503e+00 -6.520206e+00 -6.501976e+00 -6.525105e+00 -6.501615e+00 -6.530869e+00 -6.502148e+00 -6.537184e+00 -6.503281e+00 -6.543730e+00 -6.504715e+00 -6.550197e+00 -6.506160e+00 -6.556301e+00 -6.507368e+00 -6.561809e+00 -6.508148e+00 -6.566559e+00 -6.508403e+00 -6.570479e+00 -6.508149e+00 -6.573610e+00 -6.507537e+00 -6.576117e+00 -6.506868e+00 -6.578296e+00 -6.506588e+00 -6.580574e+00 -6.507273e+00 -6.583495e+00 -6.509587e+00 -6.587687e+00 -6.514220e+00 -6.593800e+00 -6.521791e+00 -6.602424e+00 -6.532753e+00 -6.614000e+00 -6.547307e+00 -6.628732e+00 -6.565344e+00 -6.646526e+00 -6.586430e+00 -6.666956e+00 -6.609822e+00 -6.689269e+00 -6.634532e+00 -6.712452e+00 -6.659460e+00 -6.735364e+00 -6.683600e+00 -6.756919e+00 -6.706271e+00 -6.776287e+00 -6.727263e+00 -6.793103e+00 -6.746954e+00 -6.807599e+00 -6.766221e+00 -6.820557e+00 -6.786075e+00 -6.833132e+00 -6.806227e+00 -6.845375e+00 -6.825325e+00 -6.856824e+00 -6.841603e+00 -6.866648e+00 -6.853560e+00 -6.872931e+00 -6.861828e+00 -6.875252e+00 -6.866984e+00 -6.873853e+00 -6.869264e+00 -6.869093e+00 -6.868752e+00 -6.861307e+00 -6.865510e+00 -6.850794e+00 -6.859630e+00 -6.837833e+00 -6.851232e+00 -6.822694e+00 -6.840465e+00 -6.805654e+00 -6.827505e+00 -6.786997e+00 -6.812551e+00 -6.767021e+00 -6.795827e+00 
-6.874907e+00 -6.800624e+00 -6.885190e+00 -6.811378e+00 -6.895527e+00 -6.822036e+00 -6.905792e+00 -6.832465e+00 -6.915852e+00 -6.842529e+00 -6.925572e+00 -6.852091e+00 -6.934817e+00 -6.861020e+00 -6.943463e+00 -6.869194e+00 -6.951390e+00 -6.876504e+00 -6.958498e+00 -6.882857e+00 -6.964698e+00 -6.888177e+00 -6.969920e+00 -6.892409e+00 -6.974112e+00 -6.895512e+00 -6.977237e+00 -6.897466e+00 -6.979272e+00 -6.898260e+00 -6.980206e+00 -6.897895e+00 -6.980034e+00 -6.896375e+00 -6.978753e+00 -6.893703e+00 -6.976360e+00 -6.889878e+00 -6.972842e+00 -6.884884e+00 -6.968177e+00 -6.878694e+00 -6.962331e+00 -6.871267e+00 -6.955264e+00 -6.862549e+00 -6.946926e+00 -6.852483e+00 -6.937277e+00 -6.841024e+00 -6.926299e+00 -6.828158e+00 -6.914012e+00 -6.813929e+00 -6.900500e+00 -6.798462e+00 -6.885924e+00 -6.781987e+00 -6.870532e+00 -6.764846e+00 -6.854649e+00 -6.747470e+00 -6.838640e+00 -6.730340e+00 -6.822869e+00 -6.713917e+00 -6.807649e+00 -6.698588e+00 -6.793219e+00 -6.684634e+00 -6.779767e+00 -6.672252e+00 -6.767488e+00 -6.661602e+00 -6.756643e+00 -6.652845e+00 -6.747564e+00 -6.646133e+00 -6.740578e+00 -6.641538e+00 -6.735860e+00 -6.638937e+00 -6.733293e+00 -6.637947e+00 -6.732437e+00 -6.637961e+00 -6.732678e+00 -6.638355e+00 -6.733538e+00 -6.638818e+00 -6.734912e+00 -6.639763e+00 -6.736976e+00 -6.642422e+00 -6.739864e+00 -6.647898e+00 -6.743591e+00 -6.655657e+00 -6.747824e+00 -6.665016e+00 -6.753432e+00 -6.675666e+00 -6.761639e+00 -6.686294e+00 -6.772630e+00 -6.694054e+00 -6.781929e+00 -6.700683e+00 -6.789797e+00 -6.707476e+00 -6.797084e+00 -6.714814e+00 -6.804313e+00 -6.722708e+00 -6.811751e+00 -6.731100e+00 -6.819533e+00 -6.739949e+00 -6.827731e+00 -6.749228e+00 -6.836374e+00 -6.758910e+00 -6.845458e+00 -6.768956e+00 -6.854951e+00 -6.779311e+00 -6.864794e+00 -6.789898e+00 
-6.747730e+00 -6.780666e+00 -6.725243e+00 -6.760452e+00 -6.702401e+00 -6.739238e+00 -6.679554e+00 -6.717345e+00 -6.657055e+00 -6.695105e+00 -6.635245e+00 -6.672857e+00 -6.614451e+00 -6.650939e+00 -6.594973e+00 -6.629677e+00 -6.577080e+00 -6.609378e+00 -6.561002e+00 -6.590321e+00 -6.546927e+00 -6.572753e+00 -6.534996e+00 -6.556877e+00 -6.525301e+00 -6.542855e+00 -6.517884e+00 -6.530795e+00 -6.512737e+00 -6.520756e+00 -6.509804e+00 -6.512744e+00 -6.508978e+00 -6.506707e+00 -6.510104e+00 -6.502541e+00 -6.512982e+00 -6.500088e+00 -6.517369e+00 -6.499134e+00 -6.522980e+00 -6.499423e+00 -6.529496e+00 -6.500651e+00 -6.536574e+00 -6.502489e+00 -6.543854e+00 -6.504587e+00 -6.550980e+00 -6.506603e+00 -6.557620e+00 -6.508224e+00 -6.563489e+00 -6.509200e+00 -6.568376e+00 -6.509376e+00 -6.572170e+00 -6.508726e+00 -6.574883e+00 -6.507381e+00 -6.576666e+00 -6.505651e+00 -6.577826e+00 -6.504031e+00 -6.578833e+00 -6.503199e+00 -6.580321e+00 -6.503975e+00 -6.583055e+00 -6.507246e+00 -6.587870e+00 -6.513846e+00 -6.595557e+00 -6.524411e+00 -6.606738e+00 -6.539260e+00 -6.621751e+00 -6.558317e+00 -6.640562e+00 -6.581089e+00 -6.662711e+00 -6.606666e+00 -6.687284e+00 -6.633758e+00 -6.712967e+00 -6.660835e+00 -6.738226e+00 -6.686447e+00 -6.761553e+00 -6.709614e+00 -6.781728e+00 -6.729993e+00 -6.798177e+00 -6.748257e+00 -6.811319e+00 -6.766098e+00 -6.822467e+00 -6.786653e+00 -6.834926e+00 -6.809375e+00 -6.848143e+00 -6.831771e+00 -6.861414e+00 -6.850715e+00 -6.874474e+00 -6.862164e+00 -6.881860e+00 -6.869603e+00 -6.884028e+00 -6.874277e+00 -6.882039e+00 -6.876292e+00 -6.876589e+00 -6.875560e+00 -6.868107e+00 -6.872064e+00 -6.856909e+00 -6.865869e+00 -6.843263e+00 -6.857094e+00 -6.827428e+00 -6.845889e+00 -6.809670e+00 -6.832431e+00 -6.790267e+00 -6.816920e+00 -6.769515e+00 -6.799581e+00 
-6.874474e+00 -6.800598e+00 -6.885082e+00 -6.811705e+00 -6.895777e+00 -6.822741e+00 -6.906421e+00 -6.833560e+00 -6.916867e+00 -6.844014e+00 -6.926968e+00 -6.853951e+00 -6.936577e+00 -6.863231e+00 -6.945558e+00 -6.871719e+00 -6.953785e+00 -6.879300e+00 -6.961149e+00 -6.885876e+00 -6.967559e+00 -6.891369e+00 -6.972944e+00 -6.895724e+00 -6.977255e+00 -6.898908e+00 -6.980460e+00 -6.900906e+00 -6.982546e+00 -6.901720e+00 -6.983511e+00 -6.901362e+00 -6.983363e+00 -6.899850e+00 -6.982111e+00 -6.897200e+00 -6.979761e+00 -6.893420e+00 -6.976306e+00 -6.888502e+00 -6.971726e+00 -6.882416e+00 -6.965980e+00 -6.875107e+00 -6.959007e+00 -6.866497e+00 -6.950733e+00 -6.856489e+00 -6.941076e+00 -6.844987e+00 -6.929972e+00 -6.831916e+00 -6.917395e+00 -6.817263e+00 -6.903395e+00 -6.801115e+00 -6.888125e+00 -6.783699e+00 -6.871863e+00 -6.765406e+00 -6.855007e+00 -6.746773e+00 -6.838022e+00 -6.728417e+00 -6.821369e+00 -6.710927e+00 -6.805401e+00 -6.694755e+00 -6.790322e+00 -6.680163e+00 -6.776228e+00 -6.667276e+00 -6.763228e+00 -6.656202e+00 -6.751601e+00 -6.647136e+00 -6.741843e+00 -6.640370e+00 -6.734554e+00 -6.636150e+00 -6.730144e+00 -6.634435e+00 -6.728513e+00 -6.634688e+00 -6.728907e+00 -6.635875e+00 -6.730166e+00 -6.636733e+00 -6.731397e+00 -6.636344e+00 -6.732608e+00 -6.635172e+00 -6.734465e+00 -6.636075e+00 -6.737253e+00 -6.642326e+00 -6.741204e+00 -6.651526e+00 -6.744062e+00 -6.662206e+00 -6.748066e+00 -6.675648e+00 -6.756737e+00 -6.690613e+00 -6.774386e+00 -6.696254e+00 -6.784120e+00 -6.700738e+00 -6.790955e+00 -6.706557e+00 -6.797317e+00 -6.713593e+00 -6.803917e+00 -6.721434e+00 -6.810951e+00 -6.729846e+00 -6.818493e+00 -6.738742e+00 -6.826574e+00 -6.748098e+00 -6.835205e+00 -6.757900e+00 -6.844366e+00 -6.768115e+00 -6.854014e+00 -6.778693e+00 -6.864081e+00 -6.789554e+00 
-6.750121e+00 -6.785051e+00 -6.726468e+00 -6.763820e+00 -6.702444e+00 -6.741532e+00 -6.678425e+00 -6.718528e+00 -6.654786e+00 -6.695162e+00 -6.631894e+00 -6.671799e+00 -6.610101e+00 -6.648803e+00 -6.589730e+00 -6.626527e+00 -6.571070e+00 -6.605304e+00 -6.554366e+00 -6.585438e+00 -6.539820e+00 -6.567193e+00 -6.527579e+00 -6.550792e+00 -6.517740e+00 -6.536406e+00 -6.510349e+00 -6.524157e+00 -6.505395e+00 -6.514107e+00 -6.502819e+00 -6.506265e+00 -6.502510e+00 -6.500578e+00 -6.504304e+00 -6.496937e+00 -6.507991e+00 -6.495171e+00 -6.513308e+00 -6.495051e+00 -6.519950e+00 -6.496289e+00 -6.527563e+00 -6.498546e+00 -6.535761e+00 -6.501436e+00 -6.544131e+00 -6.504543e+00 -6.552249e+00 -6.507441e+00 -6.559710e+00 -6.509726e+00 -6.566151e+00 -6.511052e+00 -6.571287e+00 -6.511175e+00 -6.574944e+00 -6.509998e+00 -6.577085e+00 -6.507611e+00 -6.577838e+00 -6.504323e+00 -6.577509e+00 -6.500688e+00 -6.576614e+00 -6.497519e+00 -6.575900e+00 -6.495868e+00 -6.576344e+00 -6.496946e+00 -6.579071e+00 -6.501938e+00 -6.585200e+00 -6.511789e+00 -6.595647e+00 -6.527007e+00 -6.610973e+00 -6.547576e+00 -6.631263e+00 -6.572944e+00 -6.656045e+00 -6.601997e+00 -6.684188e+00 -6.633001e+00 -6.713908e+00 -6.663674e+00 -6.743020e+00 -6.691738e+00 -6.769338e+00 -6.715747e+00 -6.790896e+00 -6.734837e+00 -6.806560e+00 -6.749983e+00 -6.817032e+00 -6.763260e+00 -6.823066e+00 -6.785065e+00 -6.835961e+00 -6.812847e+00 -6.850855e+00 -6.841670e+00 -6.866217e+00 -6.867324e+00 -6.887975e+00 -6.874780e+00 -6.896009e+00 -6.880144e+00 -6.896963e+00 -6.884231e+00 -6.893689e+00 -6.886067e+00 -6.887115e+00 -6.885133e+00 -6.877625e+00 -6.881317e+00 -6.865472e+00 -6.874690e+00 -6.850882e+00 -6.865386e+00 -6.834087e+00 -6.853567e+00 -6.815332e+00 -6.839411e+00 -6.794885e+00 -6.823117e+00 -6.773041e+00 -6.804912e+00 
-6.873826e+00 -6.800508e+00 -6.884886e+00 -6.812104e+00 -6.896079e+00 -6.823663e+00 -6.907248e+00 -6.835022e+00 -6.918229e+00 -6.846014e+00 -6.928855e+00 -6.856470e+00 -6.938966e+00 -6.866232e+00 -6.948407e+00 -6.875152e+00 -6.957043e+00 -6.883102e+00 -6.964754e+00 -6.889977e+00 -6.971444e+00 -6.895698e+00 -6.977042e+00 -6.900211e+00 -6.981503e+00 -6.903490e+00 -6.984802e+00 -6.905531e+00 -6.986940e+00 -6.906351e+00 -6.987930e+00 -6.905982e+00 -6.987797e+00 -6.904462e+00 -6.986569e+00 -6.901827e+00 -6.984266e+00 -6.898102e+00 -6.980896e+00 -6.893289e+00 -6.976442e+00 -6.887361e+00 -6.970855e+00 -6.880249e+00 -6.964053e+00 -6.871842e+00 -6.955922e+00 -6.861990e+00 -6.946322e+00 -6.850518e+00 -6.935117e+00 -6.837257e+00 -6.922202e+00 -6.822094e+00 -6.907560e+00 -6.805036e+00 -6.891317e+00 -6.786288e+00 -6.873790e+00 -6.766306e+00 -6.855492e+00 -6.745798e+00 -6.837075e+00 -6.725629e+00 -6.819183e+00 -6.706622e+00 -6.802263e+00 -6.689343e+00 -6.786444e+00 -6.673988e+00 -6.771595e+00 -6.660491e+00 -6.757599e+00 -6.648796e+00 -6.744693e+00 -6.639130e+00 -6.733658e+00 -6.632063e+00 -6.725653e+00 -6.628262e+00 -6.721651e+00 -6.627966e+00 -6.721711e+00 -6.630498e+00 -6.724515e+00 -6.634119e+00 -6.727685e+00 -6.636358e+00 -6.729277e+00 -6.634655e+00 -6.729659e+00 -6.628508e+00 -6.731025e+00 -6.624380e+00 -6.733481e+00 -6.633806e+00 -6.739911e+00 -6.645915e+00 -6.739154e+00 -6.656631e+00 -6.738032e+00 -6.674105e+00 -6.742855e+00 -6.704254e+00 -6.784060e+00 -6.699614e+00 -6.789211e+00 -6.699460e+00 -6.792588e+00 -6.704419e+00 -6.797312e+00 -6.711569e+00 -6.803085e+00 -6.719590e+00 -6.809646e+00 -6.728107e+00 -6.816913e+00 -6.737075e+00 -6.824869e+00 -6.746524e+00 -6.833504e+00 -6.756475e+00 -6.842787e+00 -6.766913e+00 -6.852660e+00 -6.777791e+00 -6.863041e+00 -6.789026e+00 
-6.753245e+00 -6.790806e+00 -6.728062e+00 -6.768243e+00 -6.702484e+00 -6.744544e+00 -6.676916e+00 -6.720072e+00 -6.651768e+00 -6.695215e+00 -6.627444e+00 -6.670373e+00 -6.604329e+00 -6.645945e+00 -6.582777e+00 -6.622324e+00 -6.563103e+00 -6.599875e+00 -6.545574e+00 -6.578933e+00 -6.530407e+00 -6.559790e+00 -6.517759e+00 -6.542690e+00 -6.507733e+00 -6.527823e+00 -6.500375e+00 -6.515319e+00 -6.495675e+00 -6.505251e+00 -6.493569e+00 -6.497630e+00 -6.493938e+00 -6.492404e+00 -6.496613e+00 -6.489458e+00 -6.501368e+00 -6.488610e+00 -6.507924e+00 -6.489609e+00 -6.515947e+00 -6.492138e+00 -6.525045e+00 -6.495808e+00 -6.534777e+00 -6.500166e+00 -6.544658e+00 -6.504707e+00 -6.554176e+00 -6.508892e+00 -6.562821e+00 -6.512188e+00 -6.570119e+00 -6.514108e+00 -6.575678e+00 -6.514275e+00 -6.579233e+00 -6.512481e+00 -6.580678e+00 -6.508743e+00 -6.580092e+00 -6.503344e+00 -6.577759e+00 -6.496881e+00 -6.574214e+00 -6.490320e+00 -6.570323e+00 -6.485036e+00 -6.567351e+00 -6.482732e+00 -6.566874e+00 -6.485175e+00 -6.570526e+00 -6.493803e+00 -6.579682e+00 -6.509407e+00 -6.595233e+00 -6.532042e+00 -6.617478e+00 -6.561116e+00 -6.646022e+00 -6.595382e+00 -6.679517e+00 -6.632576e+00 -6.715458e+00 -6.669125e+00 -6.750612e+00 -6.701087e+00 -6.781885e+00 -6.726801e+00 -6.805962e+00 -6.743628e+00 -6.820138e+00 -6.753581e+00 -6.827187e+00 -6.751897e+00 -6.816804e+00 -6.777499e+00 -6.834993e+00 -6.815275e+00 -6.853095e+00 -6.854733e+00 -6.864614e+00 -6.902125e+00 -6.915204e+00 -6.889488e+00 -6.917239e+00 -6.891965e+00 -6.914126e+00 -6.896436e+00 -6.908639e+00 -6.898612e+00 -6.900560e+00 -6.897588e+00 -6.889807e+00 -6.893382e+00 -6.876471e+00 -6.886187e+00 -6.860707e+00 -6.876195e+00 -6.842706e+00 -6.863583e+00 -6.822686e+00 -6.848528e+00 -6.800902e+00 -6.831226e+00 -6.777645e+00 -6.811899e+00 
-6.872902e+00 -6.800305e+00 -6.884559e+00 -6.812540e+00 -6.896405e+00 -6.824785e+00 -6.908263e+00 -6.836852e+00 -6.919944e+00 -6.848549e+00 -6.931259e+00 -6.859684e+00 -6.942023e+00 -6.870075e+00 -6.952063e+00 -6.879554e+00 -6.961226e+00 -6.887979e+00 -6.969379e+00 -6.895234e+00 -6.976421e+00 -6.901236e+00 -6.982279e+00 -6.905933e+00 -6.986912e+00 -6.909309e+00 -6.990307e+00 -6.911376e+00 -6.992482e+00 -6.912172e+00 -6.993472e+00 -6.911754e+00 -6.993326e+00 -6.910189e+00 -6.992100e+00 -6.907544e+00 -6.989839e+00 -6.903870e+00 -6.986571e+00 -6.899192e+00 -6.982290e+00 -6.893490e+00 -6.976944e+00 -6.886685e+00 -6.970429e+00 -6.878632e+00 -6.962579e+00 -6.869110e+00 -6.953175e+00 -6.857838e+00 -6.941971e+00 -6.844501e+00 -6.928735e+00 -6.828819e+00 -6.913326e+00 -6.810648e+00 -6.895796e+00 -6.790112e+00 -6.876488e+00 -6.767733e+00 -6.856098e+00 -6.744486e+00 -6.835604e+00 -6.721678e+00 -6.816026e+00 -6.700592e+00 -6.798028e+00 -6.682010e+00 -6.781597e+00 -6.665956e+00 -6.766112e+00 -6.651905e+00 -6.750883e+00 -6.639367e+00 -6.735917e+00 -6.628527e+00 -6.722447e+00 -6.620497e+00 -6.712755e+00 -6.616876e+00 -6.709103e+00 -6.618674e+00 -6.712169e+00 -6.625224e+00 -6.719762e+00 -6.633752e+00 -6.726786e+00 -6.639929e+00 -6.728373e+00 -6.637415e+00 -6.725730e+00 -6.619829e+00 -6.726502e+00 -6.599136e+00 -6.725738e+00 -6.622603e+00 -6.745802e+00 -6.641696e+00 -6.734606e+00 -6.644296e+00 -6.722047e+00 -6.659877e+00 -6.692566e+00 -6.752658e+00 -6.829787e+00 -6.698495e+00 -6.796076e+00 -6.693067e+00 -6.792876e+00 -6.700093e+00 -6.796257e+00 -6.708674e+00 -6.801468e+00 -6.717252e+00 -6.807636e+00 -6.725918e+00 -6.814643e+00 -6.734927e+00 -6.822486e+00 -6.744449e+00 -6.831157e+00 -6.754562e+00 -6.840617e+00 -6.765273e+00 -6.850797e+00 -6.776533e+00 -6.861599e+00 -6.788252e+00 
-6.757151e+00 -6.798031e+00 -6.730051e+00 -6.773804e+00 -6.702514e+00 -6.748329e+00 -6.674987e+00 -6.722003e+00 -6.647928e+00 -6.695255e+00 -6.621786e+00 -6.668531e+00 -6.596993e+00 -6.642283e+00 -6.573945e+00 -6.616947e+00 -6.552990e+00 -6.592938e+00 -6.534422e+00 -6.570628e+00 -6.518474e+00 -6.550344e+00 -6.505317e+00 -6.532357e+00 -6.495059e+00 -6.516875e+00 -6.487744e+00 -6.504045e+00 -6.483362e+00 -6.493948e+00 -6.481842e+00 -6.486600e+00 -6.483062e+00 -6.481951e+00 -6.486842e+00 -6.479881e+00 -6.492945e+00 -6.480200e+00 -6.501074e+00 -6.482639e+00 -6.510868e+00 -6.486846e+00 -6.521894e+00 -6.492382e+00 -6.533645e+00 -6.498714e+00 -6.545549e+00 -6.505226e+00 -6.556977e+00 -6.511234e+00 -6.567279e+00 -6.516025e+00 -6.575826e+00 -6.518916e+00 -6.582075e+00 -6.519336e+00 -6.585632e+00 -6.516910e+00 -6.586302e+00 -6.511536e+00 -6.584094e+00 -6.503429e+00 -6.579224e+00 -6.493173e+00 -6.572161e+00 -6.481848e+00 -6.563830e+00 -6.471225e+00 -6.555866e+00 -6.463775e+00 -6.550552e+00 -6.462232e+00 -6.550352e+00 -6.468846e+00 -6.557328e+00 -6.484781e+00 -6.572806e+00 -6.510075e+00 -6.597402e+00 -6.544106e+00 -6.631054e+00 -6.585845e+00 -6.672408e+00 -6.632803e+00 -6.717801e+00 -6.679170e+00 -6.762090e+00 -6.716691e+00 -6.801636e+00 -6.746751e+00 -6.830939e+00 -6.759305e+00 -6.840854e+00 -6.768826e+00 -6.849049e+00 -6.653004e+00 -6.633610e+00 -6.534343e+00 -6.542751e+00 -6.516178e+00 -6.558442e+00 -6.605168e+00 -6.606952e+00 -6.862235e+00 -6.984002e+00 -6.889100e+00 -6.943618e+00 -6.901792e+00 -6.933662e+00 -6.910938e+00 -6.926184e+00 -6.914358e+00 -6.916678e+00 -6.913226e+00 -6.904573e+00 -6.908438e+00 -6.889897e+00 -6.900482e+00 -6.872771e+00 -6.889623e+00 -6.853343e+00 -6.876041e+00 -6.831804e+00 -6.859894e+00 -6.808391e+00 -6.841360e+00 -6.783393e+00 -6.820653e+00 
-6.871623e+00 -6.799919e+00 -6.884042e+00 -6.812967e+00 -6.896721e+00 -6.826084e+00 -6.909455e+00 -6.839052e+00 -6.922026e+00 -6.851647e+00 -6.934213e+00 -6.863643e+00 -6.945803e+00 -6.874829e+00 -6.956597e+00 -6.885011e+00 -6.966417e+00 -6.894025e+00 -6.975117e+00 -6.901744e+00 -6.982583e+00 -6.908077e+00 -6.988741e+00 -6.912977e+00 -6.993557e+00 -6.916438e+00 -6.997034e+00 -6.918492e+00 -6.999209e+00 -6.919206e+00 -7.000149e+00 -6.918672e+00 -6.999937e+00 -6.916997e+00 -6.998665e+00 -6.914289e+00 -6.996419e+00 -6.910644e+00 -6.993259e+00 -6.906120e+00 -6.989202e+00 -6.900721e+00 -6.984205e+00 -6.894371e+00 -6.978141e+00 -6.886891e+00 -6.970789e+00 -6.877983e+00 -6.961830e+00 -6.867223e+00 -6.950859e+00 -6.854090e+00 -6.937442e+00 -6.838035e+00 -6.921216e+00 -6.818627e+00 -6.902053e+00 -6.795780e+00 -6.880270e+00 -6.770029e+00 -6.856808e+00 -6.742738e+00 -6.833221e+00 -6.716010e+00 -6.811293e+00 -6.692059e+00 -6.792227e+00 -6.672151e+00 -6.775807e+00 -6.655928e+00 -6.760377e+00 -6.641810e+00 -6.743908e+00 -6.628246e+00 -6.725651e+00 -6.615122e+00 -6.707466e+00 -6.604532e+00 -6.693827e+00 -6.600081e+00 -6.689850e+00 -6.604643e+00 -6.698114e+00 -6.617987e+00 -6.715593e+00 -6.635748e+00 -6.731338e+00 -6.652209e+00 -6.731717e+00 -6.655269e+00 -6.718406e+00 -6.613173e+00 -6.691754e+00 -6.201844e+00 -6.019797e+00 -5.687523e+00 -5.655215e+00 -5.619142e+00 -5.758607e+00 -5.809499e+00 -5.992102e+00 -6.095479e+00 -6.254348e+00 -6.462107e+00 -6.726093e+00 -6.626918e+00 -6.772448e+00 -6.674228e+00 -6.786585e+00 -6.694212e+00 -6.793373e+00 -6.705785e+00 -6.798894e+00 -6.714825e+00 -6.804788e+00 -6.723387e+00 -6.811537e+00 -6.732266e+00 -6.819277e+00 -6.741783e+00 -6.828022e+00 -6.752052e+00 -6.837728e+00 -6.763083e+00 -6.848311e+00 -6.774816e+00 -6.859657e+00 -6.787143e+00 
-6.761917e+00 -6.806861e+00 -6.732476e+00 -6.780613e+00 -6.702534e+00 -6.752964e+00 -6.672592e+00 -6.724355e+00 -6.643169e+00 -6.695270e+00 -6.614779e+00 -6.666216e+00 -6.587914e+00 -6.637707e+00 -6.563020e+00 -6.610245e+00 -6.540490e+00 -6.584301e+00 -6.520649e+00 -6.560298e+00 -6.503751e+00 -6.538603e+00 -6.489978e+00 -6.519518e+00 -6.479440e+00 -6.503276e+00 -6.472182e+00 -6.490038e+00 -6.468186e+00 -6.479896e+00 -6.467377e+00 -6.472872e+00 -6.469626e+00 -6.468918e+00 -6.474746e+00 -6.467916e+00 -6.482495e+00 -6.469670e+00 -6.492560e+00 -6.473900e+00 -6.504559e+00 -6.480226e+00 -6.518016e+00 -6.488159e+00 -6.532361e+00 -6.497082e+00 -6.546915e+00 -6.506250e+00 -6.560905e+00 -6.514795e+00 -6.573493e+00 -6.521763e+00 -6.583832e+00 -6.526198e+00 -6.591164e+00 -6.527244e+00 -6.594922e+00 -6.524290e+00 -6.594805e+00 -6.517066e+00 -6.590762e+00 -6.505667e+00 -6.582886e+00 -6.490539e+00 -6.571381e+00 -6.472677e+00 -6.556975e+00 -6.454244e+00 -6.541734e+00 -6.438917e+00 -6.529120e+00 -6.431137e+00 -6.523009e+00 -6.434575e+00 -6.526479e+00 -6.450807e+00 -6.541272e+00 -6.479383e+00 -6.568284e+00 -6.519403e+00 -6.608402e+00 -6.571103e+00 -6.661275e+00 -6.633637e+00 -6.721264e+00 -6.698078e+00 -6.778332e+00 -6.739781e+00 -6.831663e+00 -6.784317e+00 -6.849916e+00 -6.294453e+00 -5.782099e+00 -5.276510e+00 -5.196611e+00 -5.211143e+00 -5.387543e+00 -5.529377e+00 -5.736989e+00 -5.902045e+00 -6.084642e+00 -6.269003e+00 -6.417775e+00 -6.637524e+00 -6.860673e+00 -6.859200e+00 -6.939611e+00 -6.915178e+00 -6.950725e+00 -6.931168e+00 -6.945757e+00 -6.934657e+00 -6.935398e+00 -6.932520e+00 -6.921909e+00 -6.926664e+00 -6.905776e+00 -6.917679e+00 -6.887136e+00 -6.905775e+00 -6.866093e+00 -6.891063e+00 -6.842797e+00 -6.873648e+00 -6.817465e+00 -6.853669e+00 -6.790386e+00 -6.831320e+00 
-6.869894e+00 -6.799263e+00 -6.883263e+00 -6.813324e+00 -6.896983e+00 -6.827531e+00 -6.910810e+00 -6.841627e+00 -6.924491e+00 -6.855343e+00 -6.937765e+00 -6.868414e+00 -6.950381e+00 -6.880587e+00 -6.962105e+00 -6.891635e+00 -6.972730e+00 -6.901368e+00 -6.982087e+00 -6.909640e+00 -6.990052e+00 -6.916352e+00 -6.996546e+00 -6.921460e+00 -7.001542e+00 -6.924973e+00 -7.005062e+00 -6.926949e+00 -7.007172e+00 -6.927489e+00 -7.007977e+00 -6.926732e+00 -7.007607e+00 -6.924837e+00 -7.006206e+00 -6.921973e+00 -7.003914e+00 -6.918296e+00 -7.000844e+00 -6.913923e+00 -6.997056e+00 -6.908904e+00 -6.992532e+00 -6.903188e+00 -6.987140e+00 -6.896580e+00 -6.980609e+00 -6.888707e+00 -6.972497e+00 -6.878983e+00 -6.962195e+00 -6.866602e+00 -6.948961e+00 -6.850605e+00 -6.932045e+00 -6.830048e+00 -6.910932e+00 -6.804356e+00 -6.885734e+00 -6.773868e+00 -6.857646e+00 -6.740430e+00 -6.829182e+00 -6.707567e+00 -6.803703e+00 -6.679490e+00 -6.783787e+00 -6.658612e+00 -6.769032e+00 -6.643799e+00 -6.755687e+00 -6.631167e+00 -6.738729e+00 -6.616692e+00 -6.715321e+00 -6.599193e+00 -6.687953e+00 -6.582442e+00 -6.665255e+00 -6.574297e+00 -6.658382e+00 -6.581857e+00 -6.674871e+00 -6.606358e+00 -6.713185e+00 -6.639081e+00 -6.751297e+00 -6.677943e+00 -6.749157e+00 -6.511229e+00 -5.998847e+00 -4.890899e+00 -4.419619e+00 -4.383150e+00 -4.728664e+00 -4.827256e+00 -5.213737e+00 -5.389119e+00 -5.702500e+00 -5.822493e+00 -6.063288e+00 -6.164046e+00 -6.326664e+00 -6.531420e+00 -6.765359e+00 -6.650952e+00 -6.781108e+00 -6.682743e+00 -6.787656e+00 -6.696747e+00 -6.791760e+00 -6.705430e+00 -6.795949e+00 -6.712878e+00 -6.801086e+00 -6.720541e+00 -6.807439e+00 -6.728967e+00 -6.815062e+00 -6.738364e+00 -6.823927e+00 -6.748782e+00 -6.833962e+00 -6.760192e+00 -6.845063e+00 -6.772505e+00 -6.857095e+00 -6.785587e+00 