# vtk DataFile Version 2.0
Comment goes here
ASCII

DATASET STRUCTURED_POINTS
DIMENSIONS    128   128   1

ORIGIN    0.000   0.000   0.000
SPACING   0.0156250.015625   1.000

POINT_DATA   16384
SCALARS P double
LOOKUP_TABLE default

-2.994641e+02 -2.989783e+02 -2.989332e+02 -2.985780e+02 -2.984003e+02 -2.981579e+02 -2.978703e+02 -2.977241e+02 -2.973484e+02 -2.972830e+02 -2.968397e+02 -2.968408e+02 -2.963495e+02 -2.964038e+02 -2.958827e+02 -2.959779e+02 -2.954441e+02 -2.955690e+02 -2.950379e+02 -2.951824e+02 -2.946683e+02 -2.948231e+02 -2.943385e+02 -2.944956e+02 -2.940517e+02 -2.942038e+02 -2.938104e+02 -2.939514e+02 -2.936167e+02 -2.937413e+02 -2.934723e+02 -2.935762e+02 -2.933784e+02 -2.934581e+02 -2.933360e+02 -2.933887e+02 -2.933455e+02 -2.933690e+02 -2.934070e+02 -2.933995e+02 -2.935199e+02 -2.934800e+02 -2.936830e+02 -2.936094e+02 -2.938944e+02 -2.937856e+02 -2.941507e+02 -2.940052e+02 -2.944477e+02 -2.942633e+02 -2.947797e+02 -2.945535e+02 -2.951394e+02 -2.948680e+02 -2.955187e+02 -2.951974e+02 -2.959084e+02 -2.955320e+02 -2.962999e+02 -2.958620e+02 -2.966858e+02 -2.961795e+02 -2.970614e+02 -2.964787e+02 -2.974257e+02 -2.967575e+02 -2.977819e+02 -2.970169e+02 -2.981372e+02 -2.972607e+02 -2.985014e+02 -2.974936e+02 -2.988852e+02 -2.977200e+02 -2.992978e+02 -2.979418e+02 -2.997443e+02 -2.981582e+02 -3.002246e+02 -2.983655e+02 -3.007320e+02 -2.985585e+02 -3.012539e+02 -2.987313e+02 -3.017732e+02 -2.988799e+02 -3.022709e+02 -2.990041e+02 -3.027290e+02 -2.991095e+02 -3.031330e+02 -2.992085e+02 -3.034752e+02 -2.993181e+02 -3.037566e+02 -2.994516e+02 -3.039811e+02 -2.996120e+02 -3.041444e+02 -2.997997e+02 -3.042342e+02 -3.000095e+02 -3.042403e+02 -3.002274e+02 -3.041605e+02 -3.004331e+02 -3.040000e+02 -3.006062e+02 -3.037700e+02 -3.007315e+02 -3.034828e+02 -3.008004e+02 -3.031490e+02 -3.008091e+02 -3.027766e+02 -3.007575e+02 -3.023716e+02 -3.006474e+02 -3.019382e+02 -3.004821e+02 -3.014799e+02 -3.002653e+02 -3.010000e+02 -3.000016e+02 -3.005016e+02 -2.996957e+02 -2.999883e+02 -2.993528e+02 
-3.073447e+02 -3.044929e+02 -3.077975e+02 -3.050299e+02 -3.082643e+02 -3.055740e+02 -3.087385e+02 -3.061203e+02 -3.092137e+02 -3.066640e+02 -3.096835e+02 -3.071997e+02 -3.101418e+02 -3.077222e+02 -3.105828e+02 -3.082261e+02 -3.110011e+02 -3.087063e+02 -3.113916e+02 -3.091580e+02 -3.117500e+02 -3.095764e+02 -3.120721e+02 -3.099574e+02 -3.123547e+02 -3.102971e+02 -3.125946e+02 -3.105919e+02 -3.127893e+02 -3.108388e+02 -3.129366e+02 -3.110349e+02 -3.130348e+02 -3.111779e+02 -3.130824e+02 -3.112656e+02 -3.130783e+02 -3.112965e+02 -3.130219e+02 -3.112695e+02 -3.129133e+02 -3.111842e+02 -3.127531e+02 -3.110409e+02 -3.125428e+02 -3.108410e+02 -3.122849e+02 -3.105867e+02 -3.119827e+02 -3.102812e+02 -3.116403e+02 -3.099284e+02 -3.112622e+02 -3.095326e+02 -3.108533e+02 -3.090984e+02 -3.104177e+02 -3.086294e+02 -3.099593e+02 -3.081288e+02 -3.094804e+02 -3.075983e+02 -3.089829e+02 -3.070382e+02 -3.084677e+02 -3.064477e+02 -3.079362e+02 -3.058257e+02 -3.073913e+02 -3.051721e+02 -3.068394e+02 -3.044895e+02 -3.062916e+02 -3.037856e+02 -3.057650e+02 -3.030741e+02 -3.052808e+02 -3.023743e+02 -3.048619e+02 -3.017098e+02 -3.045279e+02 -3.011050e+02 -3.042900e+02 -3.005813e+02 -3.041487e+02 -3.001524e+02 -3.040941e+02 -2.998199e+02 -3.041088e+02 -2.995718e+02 -3.041726e+02 -2.993871e+02 -3.042636e+02 -2.992483e+02 -3.043588e+02 -2.991519e+02 -3.044418e+02 -2.991074e+02 -3.045075e+02 -2.991261e+02 -3.045563e+02 -2.992154e+02 -3.045919e+02 -2.993740e+02 -3.046206e+02 -2.995920e+02 -3.046511e+02 -2.998556e+02 -3.046966e+02 -3.001542e+02 -3.047707e+02 -3.004818e+02 -3.048834e+02 -3.008353e+02 -3.050407e+02 -3.012135e+02 -3.052453e+02 -3.016159e+02 -3.054968e+02 -3.020423e+02 -3.057931e+02 -3.024920e+02 -3.061308e+02 -3.029640e+02 -3.065055e+02 -3.034566e+02 -3.069120e+02 -3.039672e+02 
-2.994676e+02 -2.989912e+02 -2.989344e+02 -2.985879e+02 -2.983990e+02 -2.981647e+02 -2.978665e+02 -2.977278e+02 -2.973420e+02 -2.972836e+02 -2.968308e+02 -2.968383e+02 -2.963381e+02 -2.963983e+02 -2.958690e+02 -2.959696e+02 -2.954282e+02 -2.955581e+02 -2.950201e+02 -2.951690e+02 -2.946487e+02 -2.948075e+02 -2.943175e+02 -2.944780e+02 -2.940294e+02 -2.941845e+02 -2.937871e+02 -2.939306e+02 -2.935926e+02 -2.937193e+02 -2.934476e+02 -2.935532e+02 -2.933534e+02 -2.934344e+02 -2.933109e+02 -2.933647e+02 -2.933206e+02 -2.933450e+02 -2.933827e+02 -2.933760e+02 -2.934966e+02 -2.934575e+02 -2.936613e+02 -2.935885e+02 -2.938748e+02 -2.937670e+02 -2.941339e+02 -2.939896e+02 -2.944344e+02 -2.942513e+02 -2.947703e+02 -2.945457e+02 -2.951342e+02 -2.948647e+02 -2.955176e+02 -2.951985e+02 -2.959110e+02 -2.955370e+02 -2.963053e+02 -2.958701e+02 -2.966925e+02 -2.961894e+02 -2.970677e+02 -2.964891e+02 -2.974300e+02 -2.967673e+02 -2.977830e+02 -2.970257e+02 -2.981345e+02 -2.972687e+02 -2.984954e+02 -2.975021e+02 -2.988775e+02 -2.977304e+02 -2.992903e+02 -2.979555e+02 -2.997397e+02 -2.981760e+02 -3.002250e+02 -2.983871e+02 -3.007390e+02 -2.985824e+02 -3.012681e+02 -2.987552e+02 -3.017942e+02 -2.989011e+02 -3.022978e+02 -2.990194e+02 -3.027602e+02 -2.991159e+02 -3.031660e+02 -2.992049e+02 -3.035066e+02 -2.993070e+02 -3.037853e+02 -2.994387e+02 -3.040118e+02 -2.995986e+02 -3.041811e+02 -2.997889e+02 -3.042760e+02 -3.000056e+02 -3.042833e+02 -3.002337e+02 -3.042010e+02 -3.004497e+02 -3.040351e+02 -3.006304e+02 -3.037989e+02 -3.007601e+02 -3.035063e+02 -3.008306e+02 -3.031684e+02 -3.008393e+02 -3.027931e+02 -3.007867e+02 -3.023859e+02 -3.006750e+02 -3.019507e+02 -3.005077e+02 -3.014908e+02 -3.002887e+02 -3.010093e+02 -3.000226e+02 -3.005091e+02 -2.997141e+02 -2.999940e+02 -2.993685e+02 
-3.073246e+02 -3.044816e+02 -3.077838e+02 -3.050229e+02 -3.082570e+02 -3.055717e+02 -3.087377e+02 -3.061232e+02 -3.092194e+02 -3.066722e+02 -3.096954e+02 -3.072133e+02 -3.101596e+02 -3.077411e+02 -3.106062e+02 -3.082503e+02 -3.110295e+02 -3.087355e+02 -3.114245e+02 -3.091918e+02 -3.117869e+02 -3.096145e+02 -3.121125e+02 -3.099994e+02 -3.123981e+02 -3.103427e+02 -3.126406e+02 -3.106408e+02 -3.128376e+02 -3.108905e+02 -3.129870e+02 -3.110893e+02 -3.130868e+02 -3.112346e+02 -3.131358e+02 -3.113244e+02 -3.131329e+02 -3.113570e+02 -3.130773e+02 -3.113313e+02 -3.129689e+02 -3.112466e+02 -3.128083e+02 -3.111032e+02 -3.125968e+02 -3.109023e+02 -3.123368e+02 -3.106459e+02 -3.120316e+02 -3.103374e+02 -3.116853e+02 -3.099806e+02 -3.113025e+02 -3.095801e+02 -3.108884e+02 -3.091407e+02 -3.104477e+02 -3.086668e+02 -3.099844e+02 -3.081622e+02 -3.095016e+02 -3.076291e+02 -3.090012e+02 -3.070684e+02 -3.084837e+02 -3.064789e+02 -3.079498e+02 -3.058585e+02 -3.074009e+02 -3.052053e+02 -3.068418e+02 -3.045200e+02 -3.062827e+02 -3.038085e+02 -3.057408e+02 -3.030836e+02 -3.052394e+02 -3.023652e+02 -3.048049e+02 -3.016788e+02 -3.044604e+02 -3.010520e+02 -3.042197e+02 -3.005109e+02 -3.040835e+02 -3.000743e+02 -3.040396e+02 -2.997474e+02 -3.040686e+02 -2.995150e+02 -3.041499e+02 -2.993445e+02 -3.042612e+02 -2.992075e+02 -3.043717e+02 -2.991008e+02 -3.044594e+02 -2.990445e+02 -3.045242e+02 -2.990555e+02 -3.045692e+02 -2.991462e+02 -3.045988e+02 -2.993150e+02 -3.046190e+02 -2.995469e+02 -3.046365e+02 -2.998211e+02 -3.046687e+02 -3.001259e+02 -3.047325e+02 -3.004564e+02 -3.048390e+02 -3.008110e+02 -3.049938e+02 -3.011895e+02 -3.051985e+02 -3.015921e+02 -3.054521e+02 -3.020190e+02 -3.057518e+02 -3.024698e+02 -3.060939e+02 -3.029435e+02 -3.064737e+02 -3.034384e+02 -3.068859e+02 -3.039522e+02 
-2.994781e+02 -2.990301e+02 -2.989379e+02 -2.986179e+02 -2.983951e+02 -2.981855e+02 -2.978549e+02 -2.977392e+02 -2.973227e+02 -2.972856e+02 -2.968038e+02 -2.968311e+02 -2.963036e+02 -2.963821e+02 -2.958275e+02 -2.959448e+02 -2.953802e+02 -2.955252e+02 -2.949662e+02 -2.951287e+02 -2.945896e+02 -2.947605e+02 -2.942539e+02 -2.944250e+02 -2.939621e+02 -2.941263e+02 -2.937168e+02 -2.938680e+02 -2.935199e+02 -2.936530e+02 -2.933732e+02 -2.934840e+02 -2.932779e+02 -2.933632e+02 -2.932352e+02 -2.932924e+02 -2.932455e+02 -2.932728e+02 -2.933093e+02 -2.933052e+02 -2.934262e+02 -2.933897e+02 -2.935955e+02 -2.935255e+02 -2.938155e+02 -2.937109e+02 -2.940830e+02 -2.939425e+02 -2.943939e+02 -2.942154e+02 -2.947418e+02 -2.945226e+02 -2.951187e+02 -2.948553e+02 -2.955149e+02 -2.952027e+02 -2.959198e+02 -2.955534e+02 -2.963225e+02 -2.958959e+02 -2.967138e+02 -2.962206e+02 -2.970879e+02 -2.965215e+02 -2.974438e+02 -2.967972e+02 -2.977862e+02 -2.970515e+02 -2.981255e+02 -2.972915e+02 -2.984757e+02 -2.975255e+02 -2.988516e+02 -2.977597e+02 -2.992653e+02 -2.979957e+02 -2.997233e+02 -2.982296e+02 -3.002246e+02 -2.984531e+02 -3.007594e+02 -2.986562e+02 -3.013111e+02 -2.988297e+02 -3.018585e+02 -2.989673e+02 -3.023801e+02 -2.990673e+02 -3.028563e+02 -2.991356e+02 -3.032682e+02 -2.991907e+02 -3.036014e+02 -2.992672e+02 -3.038668e+02 -2.993978e+02 -3.040998e+02 -2.995548e+02 -3.042922e+02 -2.997515e+02 -3.044049e+02 -2.999903e+02 -3.044158e+02 -3.002519e+02 -3.043251e+02 -3.005021e+02 -3.041410e+02 -3.007063e+02 -3.038849e+02 -3.008482e+02 -3.035757e+02 -3.009231e+02 -3.032256e+02 -3.009312e+02 -3.028417e+02 -3.008751e+02 -3.024282e+02 -3.007584e+02 -3.019880e+02 -3.005850e+02 -3.015235e+02 -3.003593e+02 -3.010371e+02 -3.000860e+02 -3.005318e+02 -2.997698e+02 -3.000108e+02 -2.994160e+02 
-3.072841e+02 -3.044585e+02 -3.077561e+02 -3.050085e+02 -3.082424e+02 -3.055669e+02 -3.087363e+02 -3.061287e+02 -3.092308e+02 -3.066885e+02 -3.097194e+02 -3.072406e+02 -3.101956e+02 -3.077792e+02 -3.106532e+02 -3.082989e+02 -3.110866e+02 -3.087941e+02 -3.114907e+02 -3.092597e+02 -3.118611e+02 -3.096911e+02 -3.121938e+02 -3.100839e+02 -3.124854e+02 -3.104342e+02 -3.127331e+02 -3.107387e+02 -3.129346e+02 -3.109943e+02 -3.130878e+02 -3.111983e+02 -3.131911e+02 -3.113483e+02 -3.132429e+02 -3.114423e+02 -3.132423e+02 -3.114784e+02 -3.131882e+02 -3.114552e+02 -3.130805e+02 -3.113720e+02 -3.129192e+02 -3.112286e+02 -3.127056e+02 -3.110258e+02 -3.124415e+02 -3.107655e+02 -3.121302e+02 -3.104508e+02 -3.117758e+02 -3.100857e+02 -3.113833e+02 -3.096752e+02 -3.109584e+02 -3.092249e+02 -3.105066e+02 -3.087403e+02 -3.100332e+02 -3.082268e+02 -3.095422e+02 -3.076882e+02 -3.090359e+02 -3.071262e+02 -3.085149e+02 -3.065396e+02 -3.079775e+02 -3.059241e+02 -3.074221e+02 -3.052739e+02 -3.068497e+02 -3.045850e+02 -3.062677e+02 -3.038591e+02 -3.056935e+02 -3.031072e+02 -3.051547e+02 -3.023500e+02 -3.046855e+02 -3.016166e+02 -3.043177e+02 -3.009414e+02 -3.040715e+02 -3.003601e+02 -3.039474e+02 -2.999045e+02 -3.039270e+02 -2.995916e+02 -3.039844e+02 -2.994020e+02 -3.041005e+02 -2.992703e+02 -3.042608e+02 -2.991370e+02 -3.044076e+02 -2.989993e+02 -3.044998e+02 -2.989141e+02 -3.045603e+02 -2.989049e+02 -3.045970e+02 -2.989983e+02 -3.046145e+02 -2.991926e+02 -3.046202e+02 -2.994597e+02 -3.046075e+02 -2.997565e+02 -3.046097e+02 -3.000724e+02 -3.046521e+02 -3.004073e+02 -3.047468e+02 -3.007630e+02 -3.048972e+02 -3.011414e+02 -3.051030e+02 -3.015441e+02 -3.053612e+02 -3.019718e+02 -3.056682e+02 -3.024246e+02 -3.060194e+02 -3.029017e+02 -3.064096e+02 -3.034015e+02 -3.068332e+02 -3.039215e+02 
-2.994960e+02 -2.990954e+02 -2.989441e+02 -2.986682e+02 -2.983889e+02 -2.982204e+02 -2.978357e+02 -2.977583e+02 -2.972903e+02 -2.972889e+02 -2.967584e+02 -2.968187e+02 -2.962457e+02 -2.963546e+02 -2.957577e+02 -2.959029e+02 -2.952994e+02 -2.954698e+02 -2.948756e+02 -2.950609e+02 -2.944903e+02 -2.946815e+02 -2.941472e+02 -2.943360e+02 -2.938492e+02 -2.940286e+02 -2.935987e+02 -2.937628e+02 -2.933979e+02 -2.935417e+02 -2.932483e+02 -2.933678e+02 -2.931512e+02 -2.932435e+02 -2.931078e+02 -2.931706e+02 -2.931190e+02 -2.931509e+02 -2.931853e+02 -2.931853e+02 -2.933071e+02 -2.932746e+02 -2.934839e+02 -2.934183e+02 -2.937144e+02 -2.936152e+02 -2.939962e+02 -2.938621e+02 -2.943246e+02 -2.941539e+02 -2.946932e+02 -2.944832e+02 -2.950928e+02 -2.948398e+02 -2.955119e+02 -2.952112e+02 -2.959373e+02 -2.955835e+02 -2.963554e+02 -2.959425e+02 -2.967543e+02 -2.962764e+02 -2.971261e+02 -2.965782e+02 -2.974697e+02 -2.968475e+02 -2.977918e+02 -2.970918e+02 -2.981073e+02 -2.973237e+02 -2.984361e+02 -2.975571e+02 -2.987993e+02 -2.978017e+02 -2.992136e+02 -2.980586e+02 -2.996874e+02 -2.983192e+02 -3.002180e+02 -2.985678e+02 -3.007915e+02 -2.987872e+02 -3.013843e+02 -2.989635e+02 -3.019690e+02 -2.990881e+02 -3.025216e+02 -2.991571e+02 -3.030236e+02 -2.991724e+02 -3.034513e+02 -2.991562e+02 -3.037642e+02 -2.991728e+02 -3.039802e+02 -2.993301e+02 -3.042281e+02 -2.994705e+02 -3.044821e+02 -2.996711e+02 -3.046346e+02 -2.999512e+02 -3.046490e+02 -3.002810e+02 -3.045423e+02 -3.006007e+02 -3.043190e+02 -3.008449e+02 -3.040245e+02 -3.010040e+02 -3.036865e+02 -3.010826e+02 -3.033169e+02 -3.010875e+02 -3.029200e+02 -3.010243e+02 -3.024974e+02 -3.008984e+02 -3.020497e+02 -3.007146e+02 -3.015780e+02 -3.004776e+02 -3.010840e+02 -3.001922e+02 -3.005701e+02 -2.998631e+02 -3.000395e+02 -2.994957e+02 
-3.072227e+02 -3.044223e+02 -3.077141e+02 -3.049857e+02 -3.082203e+02 -3.055589e+02 -3.087342e+02 -3.061366e+02 -3.092486e+02 -3.067128e+02 -3.097563e+02 -3.072816e+02 -3.102505e+02 -3.078369e+02 -3.107249e+02 -3.083725e+02 -3.111736e+02 -3.088829e+02 -3.115914e+02 -3.093627e+02 -3.119737e+02 -3.098070e+02 -3.123167e+02 -3.102115e+02 -3.126172e+02 -3.105724e+02 -3.128726e+02 -3.108864e+02 -3.130806e+02 -3.111505e+02 -3.132396e+02 -3.113623e+02 -3.133478e+02 -3.115194e+02 -3.134041e+02 -3.116197e+02 -3.134070e+02 -3.116613e+02 -3.133557e+02 -3.116424e+02 -3.132492e+02 -3.115618e+02 -3.130875e+02 -3.114188e+02 -3.128709e+02 -3.112137e+02 -3.126010e+02 -3.109477e+02 -3.122806e+02 -3.106236e+02 -3.119137e+02 -3.102454e+02 -3.115057e+02 -3.098187e+02 -3.110631e+02 -3.093502e+02 -3.105930e+02 -3.088474e+02 -3.101026e+02 -3.083182e+02 -3.095981e+02 -3.077697e+02 -3.090836e+02 -3.072060e+02 -3.085591e+02 -3.066261e+02 -3.080203e+02 -3.060224e+02 -3.074597e+02 -3.053823e+02 -3.068705e+02 -3.046929e+02 -3.062540e+02 -3.039482e+02 -3.056265e+02 -3.031551e+02 -3.050227e+02 -3.023356e+02 -3.044914e+02 -3.015244e+02 -3.040822e+02 -3.007650e+02 -3.038279e+02 -3.001076e+02 -3.037288e+02 -2.996099e+02 -3.037509e+02 -2.993226e+02 -3.038479e+02 -2.992343e+02 -3.040085e+02 -2.991975e+02 -3.042733e+02 -2.990697e+02 -3.044973e+02 -2.988444e+02 -3.045709e+02 -2.987067e+02 -3.046192e+02 -2.986503e+02 -3.046425e+02 -2.987479e+02 -3.046404e+02 -2.989964e+02 -3.046387e+02 -2.993425e+02 -3.045636e+02 -2.996732e+02 -3.045111e+02 -3.000006e+02 -3.045202e+02 -3.003379e+02 -3.045991e+02 -3.006926e+02 -3.047457e+02 -3.010693e+02 -3.049550e+02 -3.014711e+02 -3.052218e+02 -3.018995e+02 -3.055405e+02 -3.023551e+02 -3.059058e+02 -3.028372e+02 -3.063120e+02 -3.033443e+02 -3.067531e+02 -3.038738e+02 
-2.995225e+02 -2.991879e+02 -2.989539e+02 -2.987395e+02 -2.983808e+02 -2.982697e+02 -2.978091e+02 -2.977852e+02 -2.972449e+02 -2.972932e+02 -2.966943e+02 -2.968009e+02 -2.961636e+02 -2.963152e+02 -2.956587e+02 -2.958430e+02 -2.951848e+02 -2.953908e+02 -2.947471e+02 -2.949644e+02 -2.943496e+02 -2.945691e+02 -2.939960e+02 -2.942096e+02 -2.936893e+02 -2.938900e+02 -2.934318e+02 -2.936138e+02 -2.932254e+02 -2.933839e+02 -2.930717e+02 -2.932029e+02 -2.929719e+02 -2.930734e+02 -2.929274e+02 -2.929974e+02 -2.929392e+02 -2.929769e+02 -2.930085e+02 -2.930137e+02 -2.931363e+02 -2.931090e+02 -2.933230e+02 -2.932634e+02 -2.935682e+02 -2.934761e+02 -2.938699e+02 -2.937446e+02 -2.942238e+02 -2.940639e+02 -2.946229e+02 -2.944256e+02 -2.950564e+02 -2.948180e+02 -2.955104e+02 -2.952259e+02 -2.959678e+02 -2.956313e+02 -2.964104e+02 -2.960157e+02 -2.968218e+02 -2.963631e+02 -2.971903e+02 -2.966639e+02 -2.975134e+02 -2.969192e+02 -2.978008e+02 -2.971420e+02 -2.980744e+02 -2.973550e+02 -2.983651e+02 -2.975833e+02 -2.987047e+02 -2.978436e+02 -2.991181e+02 -2.981368e+02 -2.996166e+02 -2.984454e+02 -3.001954e+02 -2.987394e+02 -3.008323e+02 -2.989885e+02 -3.014914e+02 -2.991722e+02 -3.021320e+02 -2.992811e+02 -3.027262e+02 -2.993091e+02 -3.032705e+02 -2.992426e+02 -3.037493e+02 -2.990872e+02 -3.040223e+02 -2.989362e+02 -3.040601e+02 -2.992779e+02 -3.043489e+02 -2.993242e+02 -3.047721e+02 -2.995092e+02 -3.050001e+02 -2.998603e+02 -3.050008e+02 -3.003181e+02 -3.048745e+02 -3.007743e+02 -3.045681e+02 -3.010693e+02 -3.042083e+02 -3.012408e+02 -3.038295e+02 -3.013166e+02 -3.034359e+02 -3.013120e+02 -3.030245e+02 -3.012364e+02 -3.025917e+02 -3.010964e+02 -3.021354e+02 -3.008974e+02 -3.016549e+02 -3.006444e+02 -3.011508e+02 -3.003420e+02 -3.006253e+02 -2.999949e+02 -3.000812e+02 -2.996084e+02 
-3.071394e+02 -3.043714e+02 -3.076573e+02 -3.049531e+02 -3.081907e+02 -3.055466e+02 -3.087320e+02 -3.061460e+02 -3.092733e+02 -3.067450e+02 -3.098070e+02 -3.073367e+02 -3.103258e+02 -3.079146e+02 -3.108229e+02 -3.084721e+02 -3.112922e+02 -3.090030e+02 -3.117282e+02 -3.095018e+02 -3.121263e+02 -3.099634e+02 -3.124829e+02 -3.103834e+02 -3.127949e+02 -3.107582e+02 -3.130601e+02 -3.110846e+02 -3.132765e+02 -3.113599e+02 -3.134428e+02 -3.115819e+02 -3.135576e+02 -3.117485e+02 -3.136198e+02 -3.118575e+02 -3.136280e+02 -3.119068e+02 -3.135808e+02 -3.118944e+02 -3.134770e+02 -3.118183e+02 -3.133155e+02 -3.116769e+02 -3.130959e+02 -3.114695e+02 -3.128189e+02 -3.111965e+02 -3.124864e+02 -3.108597e+02 -3.121021e+02 -3.104631e+02 -3.116717e+02 -3.100125e+02 -3.112027e+02 -3.095161e+02 -3.107045e+02 -3.089840e+02 -3.101876e+02 -3.084287e+02 -3.096623e+02 -3.078628e+02 -3.091363e+02 -3.072961e+02 -3.086112e+02 -3.067297e+02 -3.080788e+02 -3.061516e+02 -3.075216e+02 -3.055374e+02 -3.069184e+02 -3.048584e+02 -3.062569e+02 -3.040946e+02 -3.055485e+02 -3.032457e+02 -3.048381e+02 -3.023358e+02 -3.042007e+02 -3.014077e+02 -3.037199e+02 -3.005140e+02 -3.034554e+02 -2.997194e+02 -3.034098e+02 -2.991217e+02 -3.035129e+02 -2.988629e+02 -3.036523e+02 -2.990156e+02 -3.038106e+02 -2.992125e+02 -3.043244e+02 -2.990976e+02 -3.047353e+02 -2.986002e+02 -3.046661e+02 -2.984159e+02 -3.047012e+02 -2.982395e+02 -3.047107e+02 -2.983437e+02 -3.046620e+02 -2.986994e+02 -3.047279e+02 -2.992399e+02 -3.044971e+02 -2.995938e+02 -3.043516e+02 -2.999198e+02 -3.043192e+02 -3.002516e+02 -3.043843e+02 -3.006004e+02 -3.045317e+02 -3.009724e+02 -3.047498e+02 -3.013716e+02 -3.050303e+02 -3.018001e+02 -3.053663e+02 -3.022590e+02 -3.057514e+02 -3.027477e+02 -3.061795e+02 -3.032646e+02 -3.066444e+02 -3.038071e+02 
-2.995589e+02 -2.993084e+02 -2.989684e+02 -2.988324e+02 -2.983717e+02 -2.983339e+02 -2.977754e+02 -2.978201e+02 -2.971862e+02 -2.972985e+02 -2.966109e+02 -2.967769e+02 -2.960565e+02 -2.962629e+02 -2.955292e+02 -2.957639e+02 -2.950349e+02 -2.952866e+02 -2.945789e+02 -2.948374e+02 -2.941657e+02 -2.944216e+02 -2.937987e+02 -2.940440e+02 -2.934808e+02 -2.937087e+02 -2.932143e+02 -2.934189e+02 -2.930008e+02 -2.931777e+02 -2.928417e+02 -2.929875e+02 -2.927382e+02 -2.928507e+02 -2.926916e+02 -2.927700e+02 -2.927035e+02 -2.927476e+02 -2.927756e+02 -2.927863e+02 -2.929100e+02 -2.928883e+02 -2.931083e+02 -2.930554e+02 -2.933715e+02 -2.932881e+02 -2.936988e+02 -2.935847e+02 -2.940866e+02 -2.939406e+02 -2.945274e+02 -2.943467e+02 -2.950087e+02 -2.947893e+02 -2.955129e+02 -2.952492e+02 -2.960177e+02 -2.957031e+02 -2.964980e+02 -2.961253e+02 -2.969296e+02 -2.964920e+02 -2.972940e+02 -2.967883e+02 -2.975851e+02 -2.970151e+02 -2.978155e+02 -2.971945e+02 -2.980186e+02 -2.973669e+02 -2.982433e+02 -2.975782e+02 -2.985406e+02 -2.978604e+02 -2.989489e+02 -2.982152e+02 -2.994849e+02 -2.986085e+02 -3.001395e+02 -2.989823e+02 -3.008781e+02 -2.992814e+02 -3.016418e+02 -2.994776e+02 -3.023603e+02 -2.995705e+02 -3.029920e+02 -2.995624e+02 -3.035852e+02 -2.994009e+02 -3.042505e+02 -2.990104e+02 -3.045139e+02 -2.982045e+02 -3.038858e+02 -2.995190e+02 -3.043347e+02 -2.990362e+02 -3.052550e+02 -2.991778e+02 -3.055892e+02 -2.996593e+02 -3.054741e+02 -3.003520e+02 -3.053825e+02 -3.011085e+02 -3.048709e+02 -3.014181e+02 -3.044122e+02 -3.015743e+02 -3.039883e+02 -3.016318e+02 -3.035735e+02 -3.016082e+02 -3.031507e+02 -3.015131e+02 -3.027098e+02 -3.013534e+02 -3.022455e+02 -3.011345e+02 -3.017553e+02 -3.008607e+02 -3.012393e+02 -3.005365e+02 -3.006990e+02 -3.001663e+02 -3.001375e+02 -2.997551e+02 
-3.070331e+02 -3.043033e+02 -3.075850e+02 -3.049086e+02 -3.081534e+02 -3.055286e+02 -3.087299e+02 -3.061563e+02 -3.093059e+02 -3.067847e+02 -3.098730e+02 -3.074062e+02 -3.104234e+02 -3.080133e+02 -3.109495e+02 -3.085988e+02 -3.114447e+02 -3.091560e+02 -3.119035e+02 -3.096789e+02 -3.123213e+02 -3.101621e+02 -3.126944e+02 -3.106013e+02 -3.130202e+02 -3.109930e+02 -3.132969e+02 -3.113344e+02 -3.135231e+02 -3.116232e+02 -3.136981e+02 -3.118577e+02 -3.138209e+02 -3.120360e+02 -3.138906e+02 -3.121561e+02 -3.139058e+02 -3.122160e+02 -3.138649e+02 -3.122130e+02 -3.137658e+02 -3.121442e+02 -3.136065e+02 -3.120068e+02 -3.133850e+02 -3.117984e+02 -3.131005e+02 -3.115178e+02 -3.127535e+02 -3.111655e+02 -3.123467e+02 -3.107445e+02 -3.118855e+02 -3.102605e+02 -3.113787e+02 -3.097229e+02 -3.108382e+02 -3.091453e+02 -3.102800e+02 -3.085465e+02 -3.097217e+02 -3.079494e+02 -3.091792e+02 -3.073756e+02 -3.086592e+02 -3.068334e+02 -3.081505e+02 -3.063059e+02 -3.076195e+02 -3.057488e+02 -3.070182e+02 -3.051049e+02 -3.063059e+02 -3.043287e+02 -3.054793e+02 -3.034083e+02 -3.045963e+02 -3.023738e+02 -3.037765e+02 -3.012821e+02 -3.031680e+02 -3.001905e+02 -3.028891e+02 -2.991568e+02 -3.029617e+02 -2.983098e+02 -3.032496e+02 -2.979969e+02 -3.034388e+02 -2.987492e+02 -3.032519e+02 -2.995337e+02 -3.044769e+02 -2.995063e+02 -3.054506e+02 -2.980426e+02 -3.046567e+02 -2.981141e+02 -3.048077e+02 -2.975445e+02 -3.048335e+02 -2.976845e+02 -3.045620e+02 -2.982102e+02 -3.051069e+02 -2.993237e+02 -3.043464e+02 -2.995439e+02 -3.040806e+02 -2.998344e+02 -3.040218e+02 -3.001492e+02 -3.040882e+02 -3.004857e+02 -3.042473e+02 -3.008487e+02 -3.044826e+02 -3.012428e+02 -3.047837e+02 -3.016705e+02 -3.051429e+02 -3.021330e+02 -3.055538e+02 -3.026299e+02 -3.060103e+02 -3.031593e+02 -3.065057e+02 -3.037185e+02 
-2.996076e+02 -2.994585e+02 -2.989892e+02 -2.989482e+02 -2.983626e+02 -2.984139e+02 -2.977350e+02 -2.978632e+02 -2.971140e+02 -2.973044e+02 -2.965074e+02 -2.967461e+02 -2.959228e+02 -2.961965e+02 -2.953673e+02 -2.956638e+02 -2.948475e+02 -2.951553e+02 -2.943689e+02 -2.946777e+02 -2.939361e+02 -2.942366e+02 -2.935528e+02 -2.938369e+02 -2.932216e+02 -2.934823e+02 -2.929444e+02 -2.931761e+02 -2.927224e+02 -2.929209e+02 -2.925566e+02 -2.927190e+02 -2.924481e+02 -2.925728e+02 -2.923982e+02 -2.924851e+02 -2.924088e+02 -2.924590e+02 -2.924826e+02 -2.924982e+02 -2.926230e+02 -2.926064e+02 -2.928335e+02 -2.927873e+02 -2.931172e+02 -2.930433e+02 -2.934753e+02 -2.933744e+02 -2.939058e+02 -2.937767e+02 -2.944013e+02 -2.942411e+02 -2.949474e+02 -2.947514e+02 -2.955219e+02 -2.952840e+02 -2.960953e+02 -2.958077e+02 -2.966327e+02 -2.962860e+02 -2.970978e+02 -2.966824e+02 -2.974599e+02 -2.969694e+02 -2.977036e+02 -2.971437e+02 -2.978425e+02 -2.972395e+02 -2.979276e+02 -2.973279e+02 -2.980393e+02 -2.974951e+02 -2.982620e+02 -2.978051e+02 -2.986574e+02 -2.982648e+02 -2.992492e+02 -2.988095e+02 -3.000220e+02 -2.993241e+02 -3.009242e+02 -2.997016e+02 -3.018602e+02 -2.999059e+02 -3.026922e+02 -2.999730e+02 -3.033038e+02 -2.999725e+02 -3.038250e+02 -2.997826e+02 -3.051471e+02 -2.993452e+02 -3.058980e+02 -2.954080e+02 -3.047136e+02 -2.958685e+02 -3.014662e+02 -2.984771e+02 -3.038380e+02 -2.978308e+02 -3.045490e+02 -2.985099e+02 -3.043596e+02 -3.002542e+02 -3.059798e+02 -3.018909e+02 -3.051240e+02 -3.019225e+02 -3.045837e+02 -3.020081e+02 -3.041394e+02 -3.020294e+02 -3.037200e+02 -3.019765e+02 -3.032957e+02 -3.018549e+02 -3.028519e+02 -3.016701e+02 -3.023816e+02 -3.014265e+02 -3.018818e+02 -3.011276e+02 -3.013521e+02 -3.007770e+02 -3.007941e+02 -3.003788e+02 -3.002111e+02 -2.999374e+02 
-3.069024e+02 -3.042147e+02 -3.074964e+02 -3.048498e+02 -3.081082e+02 -3.055029e+02 -3.087285e+02 -3.061664e+02 -3.093477e+02 -3.068318e+02 -3.099565e+02 -3.074906e+02 -3.105458e+02 -3.081344e+02 -3.111076e+02 -3.087547e+02 -3.116346e+02 -3.093443e+02 -3.121208e+02 -3.098964e+02 -3.125617e+02 -3.104055e+02 -3.129539e+02 -3.108674e+02 -3.132952e+02 -3.112787e+02 -3.135846e+02 -3.116372e+02 -3.138215e+02 -3.119414e+02 -3.140060e+02 -3.121901e+02 -3.141378e+02 -3.123822e+02 -3.142166e+02 -3.125161e+02 -3.142411e+02 -3.125898e+02 -3.142094e+02 -3.126001e+02 -3.141185e+02 -3.125430e+02 -3.139648e+02 -3.124137e+02 -3.137442e+02 -3.122075e+02 -3.134535e+02 -3.119206e+02 -3.130907e+02 -3.115510e+02 -3.126564e+02 -3.110994e+02 -3.121548e+02 -3.105705e+02 -3.115947e+02 -3.099739e+02 -3.109913e+02 -3.093263e+02 -3.103678e+02 -3.086549e+02 -3.097545e+02 -3.079994e+02 -3.091841e+02 -3.074059e+02 -3.086776e+02 -3.069031e+02 -3.082252e+02 -3.064706e+02 -3.077696e+02 -3.060296e+02 -3.072137e+02 -3.054703e+02 -3.064593e+02 -3.047001e+02 -3.054647e+02 -3.036880e+02 -3.043001e+02 -3.024829e+02 -3.031603e+02 -3.011792e+02 -3.023117e+02 -2.998343e+02 -3.019950e+02 -2.984282e+02 -3.023149e+02 -2.969747e+02 -3.030912e+02 -2.960638e+02 -3.035926e+02 -2.984407e+02 -3.012655e+02 -3.004961e+02 -3.107565e+02 -2.969086e+02 -3.080633e+02 -2.923818e+02 -2.965888e+02 -2.940830e+02 -2.997357e+02 -2.942672e+02 -3.008957e+02 -2.955185e+02 -3.013700e+02 -2.977032e+02 -3.036876e+02 -2.991125e+02 -3.037050e+02 -2.994266e+02 -3.036049e+02 -2.997265e+02 -3.036008e+02 -3.000263e+02 -3.037002e+02 -3.003451e+02 -3.038876e+02 -3.006945e+02 -3.041501e+02 -3.010805e+02 -3.044790e+02 -3.015063e+02 -3.048679e+02 -3.019728e+02 -3.053109e+02 -3.024795e+02 -3.058020e+02 -3.030244e+02 -3.063349e+02 -3.036043e+02 
-2.996713e+02 -2.996401e+02 -2.990187e+02 -2.990886e+02 -2.983551e+02 -2.985107e+02 -2.976886e+02 -2.979150e+02 -2.970282e+02 -2.973107e+02 -2.963827e+02 -2.967072e+02 -2.957609e+02 -2.961141e+02 -2.951708e+02 -2.955403e+02 -2.946198e+02 -2.949940e+02 -2.941139e+02 -2.944822e+02 -2.936580e+02 -2.940110e+02 -2.932556e+02 -2.935851e+02 -2.929090e+02 -2.932081e+02 -2.926196e+02 -2.928827e+02 -2.923880e+02 -2.926110e+02 -2.922145e+02 -2.923950e+02 -2.920998e+02 -2.922368e+02 -2.920448e+02 -2.921394e+02 -2.920520e+02 -2.921067e+02 -2.921251e+02 -2.921435e+02 -2.922691e+02 -2.922559e+02 -2.924904e+02 -2.924500e+02 -2.927952e+02 -2.927313e+02 -2.931884e+02 -2.931025e+02 -2.936706e+02 -2.935618e+02 -2.942355e+02 -2.941003e+02 -2.948674e+02 -2.946999e+02 -2.955386e+02 -2.953318e+02 -2.962103e+02 -2.959555e+02 -2.968340e+02 -2.965196e+02 -2.973564e+02 -2.969660e+02 -2.977253e+02 -2.972417e+02 -2.979038e+02 -2.973264e+02 -2.978983e+02 -2.972668e+02 -2.977858e+02 -2.971868e+02 -2.977034e+02 -2.972504e+02 -2.977962e+02 -2.975896e+02 -2.981648e+02 -2.982302e+02 -2.988400e+02 -2.990535e+02 -2.997937e+02 -2.998245e+02 -3.009605e+02 -3.003174e+02 -3.022040e+02 -3.004879e+02 -3.032579e+02 -3.004485e+02 -3.037082e+02 -3.005672e+02 -3.032472e+02 -3.004074e+02 -3.083361e+02 -3.059566e+02 -2.851011e+02 -2.832481e+02 -3.069187e+02 -2.841442e+02 -3.015947e+02 -2.914862e+02 -3.020697e+02 -2.949191e+02 -3.030403e+02 -2.975203e+02 -3.035795e+02 -3.001091e+02 -3.053895e+02 -3.018869e+02 -3.050653e+02 -3.023758e+02 -3.046611e+02 -3.025080e+02 -3.042672e+02 -3.025024e+02 -3.038727e+02 -3.024145e+02 -3.034609e+02 -3.022605e+02 -3.030212e+02 -3.020461e+02 -3.025478e+02 -3.017741e+02 -3.020385e+02 -3.014464e+02 -3.014934e+02 -3.010655e+02 -3.009144e+02 -3.006345e+02 -3.003054e+02 -3.001576e+02 
-3.067453e+02 -3.041014e+02 -3.073902e+02 -3.047732e+02 -3.080548e+02 -3.054673e+02 -3.087285e+02 -3.061748e+02 -3.094005e+02 -3.068861e+02 -3.100600e+02 -3.075910e+02 -3.106967e+02 -3.082796e+02 -3.113014e+02 -3.089424e+02 -3.118661e+02 -3.095709e+02 -3.123844e+02 -3.101578e+02 -3.128517e+02 -3.106971e+02 -3.132650e+02 -3.111848e+02 -3.136229e+02 -3.116178e+02 -3.139253e+02 -3.119948e+02 -3.141728e+02 -3.123153e+02 -3.143667e+02 -3.125793e+02 -3.145081e+02 -3.127868e+02 -3.145973e+02 -3.129372e+02 -3.146338e+02 -3.130286e+02 -3.146153e+02 -3.130575e+02 -3.145377e+02 -3.130184e+02 -3.143954e+02 -3.129041e+02 -3.141815e+02 -3.127065e+02 -3.138890e+02 -3.124175e+02 -3.135116e+02 -3.120308e+02 -3.130462e+02 -3.115435e+02 -3.124933e+02 -3.109571e+02 -3.118601e+02 -3.102788e+02 -3.111636e+02 -3.095256e+02 -3.104354e+02 -3.087327e+02 -3.097258e+02 -3.079653e+02 -3.090997e+02 -3.073182e+02 -3.086131e+02 -3.068729e+02 -3.082732e+02 -3.066140e+02 -3.079905e+02 -3.063998e+02 -3.075804e+02 -3.060202e+02 -3.068289e+02 -3.052921e+02 -3.056046e+02 -3.041500e+02 -3.039772e+02 -3.026957e+02 -3.022675e+02 -3.011380e+02 -3.009491e+02 -2.995665e+02 -3.004896e+02 -2.977690e+02 -3.012276e+02 -2.951053e+02 -3.032113e+02 -2.908225e+02 -3.063411e+02 -3.001681e+02 -2.413837e+02 -2.794980e+02 -3.011367e+02 -2.848543e+02 -3.072988e+02 -2.758217e+02 -3.037094e+02 -2.866142e+02 -3.023758e+02 -2.919149e+02 -3.014347e+02 -2.951696e+02 -3.011823e+02 -2.973284e+02 -3.038974e+02 -2.987948e+02 -3.031825e+02 -2.993251e+02 -3.030344e+02 -2.996202e+02 -3.030777e+02 -2.998857e+02 -3.032257e+02 -3.001750e+02 -3.034535e+02 -3.005042e+02 -3.037517e+02 -3.008791e+02 -3.041150e+02 -3.013017e+02 -3.045391e+02 -3.017727e+02 -3.050199e+02 -3.022910e+02 -3.055521e+02 -3.028545e+02 -3.061297e+02 -3.034597e+02 