# vtk DataFile Version 2.0
Comment goes here
ASCII

DATASET STRUCTURED_POINTS
DIMENSIONS    128   128   1

ORIGIN    0.000   0.000   0.000
SPACING   0.0156250.015625   1.000

POINT_DATA   16384
SCALARS P double
LOOKUP_TABLE default

-1.953336e+02 -1.949765e+02 -1.949485e+02 -1.947212e+02 -1.945626e+02 -1.944509e+02 -1.941801e+02 -1.941696e+02 -1.938055e+02 -1.938812e+02 -1.934432e+02 -1.935898e+02 -1.930973e+02 -1.932998e+02 -1.927721e+02 -1.930153e+02 -1.924714e+02 -1.927405e+02 -1.921986e+02 -1.924795e+02 -1.919566e+02 -1.922360e+02 -1.917481e+02 -1.920136e+02 -1.915749e+02 -1.918155e+02 -1.914385e+02 -1.916447e+02 -1.913400e+02 -1.915037e+02 -1.912797e+02 -1.913946e+02 -1.912578e+02 -1.913190e+02 -1.912736e+02 -1.912782e+02 -1.913264e+02 -1.912728e+02 -1.914149e+02 -1.913030e+02 -1.915373e+02 -1.913683e+02 -1.916913e+02 -1.914674e+02 -1.918743e+02 -1.915984e+02 -1.920828e+02 -1.917585e+02 -1.923130e+02 -1.919438e+02 -1.925601e+02 -1.921498e+02 -1.928191e+02 -1.923710e+02 -1.930845e+02 -1.926015e+02 -1.933509e+02 -1.928350e+02 -1.936135e+02 -1.930659e+02 -1.938690e+02 -1.932893e+02 -1.941158e+02 -1.935021e+02 -1.943549e+02 -1.937033e+02 -1.945900e+02 -1.938937e+02 -1.948273e+02 -1.940757e+02 -1.950742e+02 -1.942521e+02 -1.953387e+02 -1.944249e+02 -1.956270e+02 -1.945943e+02 -1.959428e+02 -1.947576e+02 -1.962854e+02 -1.949094e+02 -1.966490e+02 -1.950421e+02 -1.970229e+02 -1.951475e+02 -1.973922e+02 -1.952198e+02 -1.977398e+02 -1.952586e+02 -1.980500e+02 -1.952714e+02 -1.983116e+02 -1.952731e+02 -1.985206e+02 -1.952823e+02 -1.986798e+02 -1.953152e+02 -1.987921e+02 -1.953796e+02 -1.988564e+02 -1.954760e+02 -1.988691e+02 -1.955974e+02 -1.988286e+02 -1.957306e+02 -1.987375e+02 -1.958592e+02 -1.986012e+02 -1.959688e+02 -1.984260e+02 -1.960492e+02 -1.982174e+02 -1.960951e+02 -1.979797e+02 -1.961042e+02 -1.977160e+02 -1.960760e+02 -1.974287e+02 -1.960115e+02 -1.971199e+02 -1.959124e+02 -1.967917e+02 -1.957805e+02 -1.964462e+02 -1.956183e+02 -1.960860e+02 -1.954283e+02 -1.957140e+02 -1.952134e+02 
-2.002710e+02 -1.978739e+02 -2.006140e+02 -1.983005e+02 -2.009672e+02 -1.987319e+02 -2.013257e+02 -1.991635e+02 -2.016845e+02 -1.995904e+02 -2.020388e+02 -2.000076e+02 -2.023838e+02 -2.004101e+02 -2.027150e+02 -2.007933e+02 -2.030281e+02 -2.011528e+02 -2.033192e+02 -2.014846e+02 -2.035847e+02 -2.017851e+02 -2.038214e+02 -2.020512e+02 -2.040264e+02 -2.022805e+02 -2.041973e+02 -2.024707e+02 -2.043321e+02 -2.026203e+02 -2.044288e+02 -2.027281e+02 -2.044862e+02 -2.027932e+02 -2.045030e+02 -2.028153e+02 -2.044784e+02 -2.027943e+02 -2.044123e+02 -2.027306e+02 -2.043046e+02 -2.026250e+02 -2.041562e+02 -2.024789e+02 -2.039683e+02 -2.022941e+02 -2.037432e+02 -2.020731e+02 -2.034835e+02 -2.018189e+02 -2.031930e+02 -2.015348e+02 -2.028756e+02 -2.012245e+02 -2.025358e+02 -2.008918e+02 -2.021780e+02 -2.005402e+02 -2.018068e+02 -2.001727e+02 -2.014260e+02 -1.997915e+02 -2.010391e+02 -1.993977e+02 -2.006492e+02 -1.989915e+02 -2.002588e+02 -1.985721e+02 -1.998710e+02 -1.981390e+02 -1.994906e+02 -1.976929e+02 -1.991246e+02 -1.972369e+02 -1.987835e+02 -1.967781e+02 -1.984806e+02 -1.963271e+02 -1.982299e+02 -1.958971e+02 -1.980436e+02 -1.955023e+02 -1.979276e+02 -1.951546e+02 -1.978799e+02 -1.948612e+02 -1.978904e+02 -1.946225e+02 -1.979436e+02 -1.944316e+02 -1.980213e+02 -1.942780e+02 -1.981042e+02 -1.941545e+02 -1.981740e+02 -1.940603e+02 -1.982201e+02 -1.940030e+02 -1.982411e+02 -1.939911e+02 -1.982420e+02 -1.940292e+02 -1.982325e+02 -1.941154e+02 -1.982241e+02 -1.942435e+02 -1.982270e+02 -1.944061e+02 -1.982509e+02 -1.945984e+02 -1.983034e+02 -1.948178e+02 -1.983894e+02 -1.950634e+02 -1.985113e+02 -1.953348e+02 -1.986696e+02 -1.956316e+02 -1.988634e+02 -1.959531e+02 -1.990906e+02 -1.962984e+02 -1.993486e+02 -1.966657e+02 -1.996339e+02 -1.970528e+02 -1.999428e+02 -1.974567e+02 
-1.953364e+02 -1.949855e+02 -1.949492e+02 -1.947283e+02 -1.945611e+02 -1.944560e+02 -1.941764e+02 -1.941726e+02 -1.937996e+02 -1.938821e+02 -1.934350e+02 -1.935886e+02 -1.930871e+02 -1.932964e+02 -1.927600e+02 -1.930099e+02 -1.924576e+02 -1.927331e+02 -1.921832e+02 -1.924702e+02 -1.919400e+02 -1.922249e+02 -1.917304e+02 -1.920009e+02 -1.915565e+02 -1.918015e+02 -1.914197e+02 -1.916295e+02 -1.913209e+02 -1.914874e+02 -1.912606e+02 -1.913775e+02 -1.912388e+02 -1.913014e+02 -1.912551e+02 -1.912603e+02 -1.913086e+02 -1.912550e+02 -1.913980e+02 -1.912856e+02 -1.915216e+02 -1.913517e+02 -1.916772e+02 -1.914522e+02 -1.918621e+02 -1.915849e+02 -1.920729e+02 -1.917471e+02 -1.923055e+02 -1.919350e+02 -1.925554e+02 -1.921439e+02 -1.928171e+02 -1.923681e+02 -1.930851e+02 -1.926015e+02 -1.933536e+02 -1.928377e+02 -1.936176e+02 -1.930706e+02 -1.938735e+02 -1.932952e+02 -1.941195e+02 -1.935085e+02 -1.943567e+02 -1.937093e+02 -1.945891e+02 -1.938990e+02 -1.948232e+02 -1.940805e+02 -1.950673e+02 -1.942570e+02 -1.953298e+02 -1.944311e+02 -1.956176e+02 -1.946029e+02 -1.959348e+02 -1.947696e+02 -1.962806e+02 -1.949252e+02 -1.966493e+02 -1.950611e+02 -1.970295e+02 -1.951681e+02 -1.974057e+02 -1.952391e+02 -1.977599e+02 -1.952728e+02 -1.980747e+02 -1.952774e+02 -1.983379e+02 -1.952696e+02 -1.985455e+02 -1.952706e+02 -1.987033e+02 -1.952996e+02 -1.988161e+02 -1.953636e+02 -1.988821e+02 -1.954634e+02 -1.988956e+02 -1.955915e+02 -1.988539e+02 -1.957328e+02 -1.987602e+02 -1.958689e+02 -1.986209e+02 -1.959835e+02 -1.984431e+02 -1.960668e+02 -1.982325e+02 -1.961139e+02 -1.979933e+02 -1.961231e+02 -1.977285e+02 -1.960945e+02 -1.974402e+02 -1.960292e+02 -1.971304e+02 -1.959290e+02 -1.968010e+02 -1.957959e+02 -1.964542e+02 -1.956323e+02 -1.960924e+02 -1.954407e+02 -1.957187e+02 -1.952241e+02 
-2.002572e+02 -1.978651e+02 -2.006049e+02 -1.982959e+02 -2.009628e+02 -1.987320e+02 -2.013261e+02 -1.991684e+02 -2.016897e+02 -1.996002e+02 -2.020487e+02 -2.000222e+02 -2.023982e+02 -2.004294e+02 -2.027337e+02 -2.008170e+02 -2.030507e+02 -2.011805e+02 -2.033454e+02 -2.015159e+02 -2.036141e+02 -2.018195e+02 -2.038535e+02 -2.020882e+02 -2.040610e+02 -2.023196e+02 -2.042340e+02 -2.025115e+02 -2.043704e+02 -2.026623e+02 -2.044686e+02 -2.027708e+02 -2.045270e+02 -2.028364e+02 -2.045445e+02 -2.028586e+02 -2.045204e+02 -2.028374e+02 -2.044543e+02 -2.027732e+02 -2.043462e+02 -2.026667e+02 -2.041967e+02 -2.025192e+02 -2.040072e+02 -2.023325e+02 -2.037797e+02 -2.021091e+02 -2.035170e+02 -2.018519e+02 -2.032227e+02 -2.015643e+02 -2.029008e+02 -2.012501e+02 -2.025561e+02 -2.009135e+02 -2.021933e+02 -2.005582e+02 -2.018172e+02 -2.001877e+02 -2.014321e+02 -1.998046e+02 -2.010418e+02 -1.994104e+02 -2.006490e+02 -1.990050e+02 -2.002561e+02 -1.985871e+02 -1.998651e+02 -1.981550e+02 -1.994795e+02 -1.977079e+02 -1.991056e+02 -1.972477e+02 -1.987539e+02 -1.967808e+02 -1.984390e+02 -1.963181e+02 -1.981775e+02 -1.958743e+02 -1.979844e+02 -1.954660e+02 -1.978683e+02 -1.951083e+02 -1.978276e+02 -1.948115e+02 -1.978508e+02 -1.945771e+02 -1.979203e+02 -1.943951e+02 -1.980164e+02 -1.942483e+02 -1.981171e+02 -1.941253e+02 -1.981975e+02 -1.940235e+02 -1.982453e+02 -1.939577e+02 -1.982610e+02 -1.939413e+02 -1.982523e+02 -1.939810e+02 -1.982316e+02 -1.940736e+02 -1.982130e+02 -1.942093e+02 -1.982065e+02 -1.943771e+02 -1.982231e+02 -1.945720e+02 -1.982710e+02 -1.947926e+02 -1.983548e+02 -1.950388e+02 -1.984764e+02 -1.953106e+02 -1.986358e+02 -1.956081e+02 -1.988316e+02 -1.959307e+02 -1.990615e+02 -1.962775e+02 -1.993227e+02 -1.966470e+02 -1.996117e+02 -1.970368e+02 -1.999247e+02 -1.974440e+02 
-1.953447e+02 -1.950136e+02 -1.949511e+02 -1.947507e+02 -1.945564e+02 -1.944725e+02 -1.941649e+02 -1.941828e+02 -1.937813e+02 -1.938859e+02 -1.934102e+02 -1.935860e+02 -1.930561e+02 -1.932874e+02 -1.927232e+02 -1.929946e+02 -1.924156e+02 -1.927118e+02 -1.921367e+02 -1.924432e+02 -1.918898e+02 -1.921927e+02 -1.916773e+02 -1.919639e+02 -1.915011e+02 -1.917601e+02 -1.913628e+02 -1.915843e+02 -1.912633e+02 -1.914391e+02 -1.912030e+02 -1.913267e+02 -1.911818e+02 -1.912488e+02 -1.911994e+02 -1.912068e+02 -1.912549e+02 -1.912015e+02 -1.913472e+02 -1.912332e+02 -1.914745e+02 -1.913017e+02 -1.916349e+02 -1.914058e+02 -1.918255e+02 -1.915437e+02 -1.920431e+02 -1.917124e+02 -1.922835e+02 -1.919081e+02 -1.925417e+02 -1.921256e+02 -1.928119e+02 -1.923590e+02 -1.930878e+02 -1.926013e+02 -1.933630e+02 -1.928455e+02 -1.936314e+02 -1.930846e+02 -1.938886e+02 -1.933131e+02 -1.941323e+02 -1.935274e+02 -1.943636e+02 -1.937270e+02 -1.945872e+02 -1.939140e+02 -1.948113e+02 -1.940931e+02 -1.950460e+02 -1.942697e+02 -1.953021e+02 -1.944474e+02 -1.955882e+02 -1.946270e+02 -1.959094e+02 -1.948047e+02 -1.962652e+02 -1.949727e+02 -1.966494e+02 -1.951195e+02 -1.970493e+02 -1.952322e+02 -1.974472e+02 -1.952996e+02 -1.978221e+02 -1.953180e+02 -1.981522e+02 -1.952963e+02 -1.984199e+02 -1.952572e+02 -1.986201e+02 -1.952307e+02 -1.987716e+02 -1.952490e+02 -1.988867e+02 -1.953118e+02 -1.989604e+02 -1.954225e+02 -1.989773e+02 -1.955722e+02 -1.989313e+02 -1.957404e+02 -1.988286e+02 -1.959001e+02 -1.986796e+02 -1.960300e+02 -1.984936e+02 -1.961214e+02 -1.982771e+02 -1.961717e+02 -1.980337e+02 -1.961811e+02 -1.977657e+02 -1.961510e+02 -1.974745e+02 -1.960832e+02 -1.971617e+02 -1.959798e+02 -1.968289e+02 -1.958429e+02 -1.964781e+02 -1.956752e+02 -1.961118e+02 -1.954791e+02 -1.957328e+02 -1.952575e+02 
-2.002291e+02 -1.978471e+02 -2.005860e+02 -1.982866e+02 -2.009534e+02 -1.987320e+02 -2.013264e+02 -1.991782e+02 -2.016997e+02 -1.996199e+02 -2.020681e+02 -2.000517e+02 -2.024268e+02 -2.004683e+02 -2.027708e+02 -2.008648e+02 -2.030958e+02 -2.012364e+02 -2.033976e+02 -2.015790e+02 -2.036727e+02 -2.018888e+02 -2.039178e+02 -2.021627e+02 -2.041301e+02 -2.023982e+02 -2.043072e+02 -2.025933e+02 -2.044471e+02 -2.027464e+02 -2.045481e+02 -2.028566e+02 -2.046087e+02 -2.029230e+02 -2.046278e+02 -2.029455e+02 -2.046047e+02 -2.029239e+02 -2.045387e+02 -2.028586e+02 -2.044298e+02 -2.027503e+02 -2.042785e+02 -2.026001e+02 -2.040858e+02 -2.024097e+02 -2.038537e+02 -2.021814e+02 -2.035849e+02 -2.019181e+02 -2.032828e+02 -2.016233e+02 -2.029519e+02 -2.013012e+02 -2.025972e+02 -2.009561e+02 -2.022240e+02 -2.005929e+02 -2.018378e+02 -2.002159e+02 -2.014440e+02 -1.998288e+02 -2.010467e+02 -1.994338e+02 -2.006488e+02 -1.990308e+02 -2.002516e+02 -1.986172e+02 -1.998551e+02 -1.981885e+02 -1.994601e+02 -1.977407e+02 -1.990705e+02 -1.972727e+02 -1.986965e+02 -1.967894e+02 -1.983552e+02 -1.963020e+02 -1.980690e+02 -1.958283e+02 -1.978602e+02 -1.953899e+02 -1.977432e+02 -1.950088e+02 -1.977176e+02 -1.947037e+02 -1.977679e+02 -1.944808e+02 -1.978711e+02 -1.943237e+02 -1.980069e+02 -1.941947e+02 -1.981503e+02 -1.940746e+02 -1.982535e+02 -1.939507e+02 -1.983026e+02 -1.938631e+02 -1.983054e+02 -1.938351e+02 -1.982744e+02 -1.938797e+02 -1.982284e+02 -1.939887e+02 -1.981896e+02 -1.941431e+02 -1.981632e+02 -1.943211e+02 -1.981645e+02 -1.945205e+02 -1.982034e+02 -1.947429e+02 -1.982833e+02 -1.949897e+02 -1.984049e+02 -1.952621e+02 -1.985667e+02 -1.955606e+02 -1.987668e+02 -1.958852e+02 -1.990023e+02 -1.962352e+02 -1.992702e+02 -1.966089e+02 -1.995666e+02 -1.970043e+02 -1.998877e+02 -1.974182e+02 
-1.953589e+02 -1.950612e+02 -1.949547e+02 -1.947888e+02 -1.945488e+02 -1.945005e+02 -1.941458e+02 -1.942004e+02 -1.937507e+02 -1.938928e+02 -1.933684e+02 -1.935820e+02 -1.930037e+02 -1.932727e+02 -1.926611e+02 -1.929693e+02 -1.923448e+02 -1.926764e+02 -1.920584e+02 -1.923982e+02 -1.918052e+02 -1.921387e+02 -1.915878e+02 -1.919018e+02 -1.914080e+02 -1.916908e+02 -1.912673e+02 -1.915086e+02 -1.911666e+02 -1.913581e+02 -1.911062e+02 -1.912413e+02 -1.910861e+02 -1.911604e+02 -1.911059e+02 -1.911166e+02 -1.911648e+02 -1.911112e+02 -1.912617e+02 -1.911447e+02 -1.913952e+02 -1.912169e+02 -1.915634e+02 -1.913271e+02 -1.917637e+02 -1.914735e+02 -1.919927e+02 -1.916533e+02 -1.922463e+02 -1.918621e+02 -1.925189e+02 -1.920946e+02 -1.928041e+02 -1.923438e+02 -1.930942e+02 -1.926018e+02 -1.933813e+02 -1.928601e+02 -1.936579e+02 -1.931103e+02 -1.939178e+02 -1.933454e+02 -1.941575e+02 -1.935611e+02 -1.943781e+02 -1.937572e+02 -1.945855e+02 -1.939379e+02 -1.947905e+02 -1.941112e+02 -1.950073e+02 -1.942862e+02 -1.952508e+02 -1.944697e+02 -1.955330e+02 -1.946634e+02 -1.958608e+02 -1.948619e+02 -1.962341e+02 -1.950537e+02 -1.966455e+02 -1.952225e+02 -1.970803e+02 -1.953488e+02 -1.975174e+02 -1.954131e+02 -1.979313e+02 -1.954042e+02 -1.982924e+02 -1.953322e+02 -1.985689e+02 -1.952315e+02 -1.987433e+02 -1.951459e+02 -1.988761e+02 -1.951539e+02 -1.989988e+02 -1.952119e+02 -1.990953e+02 -1.953424e+02 -1.991215e+02 -1.955342e+02 -1.990647e+02 -1.957562e+02 -1.989429e+02 -1.959610e+02 -1.987751e+02 -1.961154e+02 -1.985751e+02 -1.962175e+02 -1.983493e+02 -1.962711e+02 -1.980998e+02 -1.962797e+02 -1.978271e+02 -1.962465e+02 -1.975317e+02 -1.961741e+02 -1.972143e+02 -1.960651e+02 -1.968761e+02 -1.959221e+02 -1.965187e+02 -1.957474e+02 -1.961447e+02 -1.955437e+02 -1.957569e+02 -1.953140e+02 
-2.001860e+02 -1.978190e+02 -2.005570e+02 -1.982718e+02 -2.009390e+02 -1.987315e+02 -2.013267e+02 -1.991927e+02 -2.017147e+02 -1.996496e+02 -2.020976e+02 -2.000965e+02 -2.024700e+02 -2.005276e+02 -2.028270e+02 -2.009376e+02 -2.031640e+02 -2.013215e+02 -2.034767e+02 -2.016749e+02 -2.037614e+02 -2.019941e+02 -2.040150e+02 -2.022757e+02 -2.042345e+02 -2.025174e+02 -2.044178e+02 -2.027171e+02 -2.045628e+02 -2.028737e+02 -2.046680e+02 -2.029861e+02 -2.047320e+02 -2.030538e+02 -2.047536e+02 -2.030766e+02 -2.047320e+02 -2.030545e+02 -2.046665e+02 -2.029878e+02 -2.045568e+02 -2.028769e+02 -2.044030e+02 -2.027229e+02 -2.042059e+02 -2.025271e+02 -2.039670e+02 -2.022915e+02 -2.036889e+02 -2.020189e+02 -2.033750e+02 -2.017130e+02 -2.030300e+02 -2.013781e+02 -2.026594e+02 -2.010194e+02 -2.022695e+02 -2.006429e+02 -2.018672e+02 -2.002547e+02 -2.014593e+02 -1.998607e+02 -2.010516e+02 -1.994646e+02 -2.006473e+02 -1.990668e+02 -2.002463e+02 -1.986626e+02 -1.998448e+02 -1.982431e+02 -1.994383e+02 -1.977978e+02 -1.990255e+02 -1.973203e+02 -1.986149e+02 -1.968119e+02 -1.982275e+02 -1.962845e+02 -1.978959e+02 -1.957600e+02 -1.976567e+02 -1.952675e+02 -1.975364e+02 -1.948414e+02 -1.975378e+02 -1.945175e+02 -1.976346e+02 -1.943196e+02 -1.977892e+02 -1.942231e+02 -1.979890e+02 -1.941315e+02 -1.982233e+02 -1.940272e+02 -1.983636e+02 -1.938415e+02 -1.984060e+02 -1.937088e+02 -1.983833e+02 -1.936561e+02 -1.983111e+02 -1.937134e+02 -1.982171e+02 -1.938577e+02 -1.981533e+02 -1.940528e+02 -1.980917e+02 -1.942438e+02 -1.980686e+02 -1.944464e+02 -1.980950e+02 -1.946692e+02 -1.981710e+02 -1.949158e+02 -1.982940e+02 -1.951885e+02 -1.984606e+02 -1.954883e+02 -1.986677e+02 -1.958156e+02 -1.989120e+02 -1.961701e+02 -1.991900e+02 -1.965503e+02 -1.994979e+02 -1.969541e+02 -1.998314e+02 -1.973783e+02 
-1.953798e+02 -1.951288e+02 -1.949604e+02 -1.948431e+02 -1.945384e+02 -1.945407e+02 -1.941190e+02 -1.942258e+02 -1.937075e+02 -1.939029e+02 -1.933091e+02 -1.935767e+02 -1.929293e+02 -1.932520e+02 -1.925727e+02 -1.929336e+02 -1.922440e+02 -1.926263e+02 -1.919470e+02 -1.923345e+02 -1.916850e+02 -1.920624e+02 -1.914607e+02 -1.918140e+02 -1.912759e+02 -1.915926e+02 -1.911320e+02 -1.914015e+02 -1.910297e+02 -1.912433e+02 -1.909693e+02 -1.911204e+02 -1.909507e+02 -1.910348e+02 -1.909734e+02 -1.909884e+02 -1.910369e+02 -1.909825e+02 -1.911402e+02 -1.910180e+02 -1.912821e+02 -1.910953e+02 -1.914610e+02 -1.912138e+02 -1.916748e+02 -1.913722e+02 -1.919203e+02 -1.915676e+02 -1.921930e+02 -1.917957e+02 -1.924869e+02 -1.920501e+02 -1.927944e+02 -1.923229e+02 -1.931063e+02 -1.926046e+02 -1.934124e+02 -1.928845e+02 -1.937023e+02 -1.931517e+02 -1.939672e+02 -1.933969e+02 -1.942016e+02 -1.936139e+02 -1.944053e+02 -1.938025e+02 -1.945860e+02 -1.939697e+02 -1.947589e+02 -1.941295e+02 -1.949450e+02 -1.942984e+02 -1.951665e+02 -1.944892e+02 -1.954411e+02 -1.947051e+02 -1.957783e+02 -1.949382e+02 -1.961780e+02 -1.951707e+02 -1.966308e+02 -1.953791e+02 -1.971185e+02 -1.955348e+02 -1.976163e+02 -1.956028e+02 -1.980947e+02 -1.955533e+02 -1.985164e+02 -1.953952e+02 -1.988188e+02 -1.951899e+02 -1.989076e+02 -1.949672e+02 -1.989910e+02 -1.950089e+02 -1.991372e+02 -1.950396e+02 -1.993001e+02 -1.952003e+02 -1.993479e+02 -1.954653e+02 -1.992621e+02 -1.957881e+02 -1.991022e+02 -1.960715e+02 -1.989022e+02 -1.962527e+02 -1.986823e+02 -1.963622e+02 -1.984454e+02 -1.964158e+02 -1.981895e+02 -1.964209e+02 -1.979121e+02 -1.963820e+02 -1.976120e+02 -1.963026e+02 -1.972889e+02 -1.961857e+02 -1.969434e+02 -1.960338e+02 -1.965771e+02 -1.958495e+02 -1.961922e+02 -1.956353e+02 -1.957919e+02 -1.953941e+02 
-2.001275e+02 -1.977796e+02 -2.005175e+02 -1.982506e+02 -2.009193e+02 -1.987300e+02 -2.013271e+02 -1.992118e+02 -2.017352e+02 -1.996897e+02 -2.021376e+02 -2.001572e+02 -2.025288e+02 -2.006081e+02 -2.029035e+02 -2.010366e+02 -2.032566e+02 -2.014372e+02 -2.035839e+02 -2.018053e+02 -2.038815e+02 -2.021369e+02 -2.041462e+02 -2.024288e+02 -2.043753e+02 -2.026785e+02 -2.045667e+02 -2.028844e+02 -2.047185e+02 -2.030452e+02 -2.048293e+02 -2.031604e+02 -2.048977e+02 -2.032296e+02 -2.049229e+02 -2.032529e+02 -2.049037e+02 -2.032303e+02 -2.048392e+02 -2.031619e+02 -2.047289e+02 -2.030480e+02 -2.045723e+02 -2.028893e+02 -2.043698e+02 -2.026866e+02 -2.041223e+02 -2.024416e+02 -2.038319e+02 -2.021566e+02 -2.035019e+02 -2.018351e+02 -2.031372e+02 -2.014819e+02 -2.027437e+02 -2.011029e+02 -2.023293e+02 -2.007058e+02 -2.019029e+02 -2.002996e+02 -2.014741e+02 -1.998936e+02 -2.010518e+02 -1.994957e+02 -2.006411e+02 -1.991079e+02 -2.002404e+02 -1.987229e+02 -1.998398e+02 -1.983242e+02 -1.994245e+02 -1.978905e+02 -1.989831e+02 -1.974049e+02 -1.985179e+02 -1.968628e+02 -1.980549e+02 -1.962764e+02 -1.976437e+02 -1.956730e+02 -1.973474e+02 -1.950909e+02 -1.972186e+02 -1.945799e+02 -1.972686e+02 -1.942085e+02 -1.974444e+02 -1.940560e+02 -1.976606e+02 -1.941155e+02 -1.979351e+02 -1.940795e+02 -1.983897e+02 -1.940613e+02 -1.985719e+02 -1.936798e+02 -1.985750e+02 -1.934745e+02 -1.985106e+02 -1.933666e+02 -1.983686e+02 -1.934593e+02 -1.981743e+02 -1.936744e+02 -1.981129e+02 -1.939654e+02 -1.979808e+02 -1.941542e+02 -1.979225e+02 -1.943518e+02 -1.979369e+02 -1.945717e+02 -1.980122e+02 -1.948166e+02 -1.981400e+02 -1.950885e+02 -1.983149e+02 -1.953893e+02 -1.985325e+02 -1.957199e+02 -1.987891e+02 -1.960803e+02 -1.990810e+02 -1.964692e+02 -1.994043e+02 -1.968843e+02 -1.997547e+02 -1.973225e+02 
-1.954089e+02 -1.952176e+02 -1.949693e+02 -1.949145e+02 -1.945259e+02 -1.945936e+02 -1.940846e+02 -1.942593e+02 -1.936511e+02 -1.939164e+02 -1.932315e+02 -1.935698e+02 -1.928315e+02 -1.932250e+02 -1.924566e+02 -1.928869e+02 -1.921116e+02 -1.925607e+02 -1.918007e+02 -1.922511e+02 -1.915273e+02 -1.919626e+02 -1.912942e+02 -1.916992e+02 -1.911031e+02 -1.914645e+02 -1.909552e+02 -1.912616e+02 -1.908511e+02 -1.910933e+02 -1.907908e+02 -1.909622e+02 -1.907741e+02 -1.908705e+02 -1.908006e+02 -1.908201e+02 -1.908696e+02 -1.908130e+02 -1.909807e+02 -1.908504e+02 -1.911330e+02 -1.909336e+02 -1.913255e+02 -1.910625e+02 -1.915565e+02 -1.912364e+02 -1.918234e+02 -1.914525e+02 -1.921217e+02 -1.917063e+02 -1.924449e+02 -1.919908e+02 -1.927839e+02 -1.922965e+02 -1.931273e+02 -1.926117e+02 -1.934616e+02 -1.929228e+02 -1.937725e+02 -1.932154e+02 -1.940468e+02 -1.934756e+02 -1.942748e+02 -1.936935e+02 -1.944540e+02 -1.938673e+02 -1.945929e+02 -1.940079e+02 -1.947137e+02 -1.941393e+02 -1.948489e+02 -1.942917e+02 -1.950334e+02 -1.944894e+02 -1.952943e+02 -1.947394e+02 -1.956446e+02 -1.950276e+02 -1.960825e+02 -1.953255e+02 -1.965945e+02 -1.956003e+02 -1.971567e+02 -1.958156e+02 -1.977393e+02 -1.959117e+02 -1.983145e+02 -1.958092e+02 -1.988575e+02 -1.955029e+02 -1.992808e+02 -1.951649e+02 -1.990776e+02 -1.945247e+02 -1.990436e+02 -1.948755e+02 -1.992595e+02 -1.947372e+02 -1.996199e+02 -1.949535e+02 -1.997070e+02 -1.953375e+02 -1.995313e+02 -1.958574e+02 -1.992993e+02 -1.962828e+02 -1.990479e+02 -1.964606e+02 -1.988056e+02 -1.965624e+02 -1.985604e+02 -1.966092e+02 -1.983009e+02 -1.966066e+02 -1.980205e+02 -1.965588e+02 -1.977162e+02 -1.964697e+02 -1.973868e+02 -1.963422e+02 -1.970326e+02 -1.961791e+02 -1.966549e+02 -1.959825e+02 -1.962561e+02 -1.957548e+02 -1.958394e+02 -1.954989e+02 
-2.000524e+02 -1.977268e+02 -2.004668e+02 -1.982215e+02 -2.008940e+02 -1.987266e+02 -2.013277e+02 -1.992352e+02 -2.017616e+02 -1.997403e+02 -2.021892e+02 -2.002347e+02 -2.026045e+02 -2.007113e+02 -2.030016e+02 -2.011636e+02 -2.033753e+02 -2.015857e+02 -2.037209e+02 -2.019724e+02 -2.040347e+02 -2.023197e+02 -2.043132e+02 -2.026242e+02 -2.045541e+02 -2.028837e+02 -2.047554e+02 -2.030967e+02 -2.049154e+02 -2.032625e+02 -2.050330e+02 -2.033809e+02 -2.051072e+02 -2.034518e+02 -2.051369e+02 -2.034756e+02 -2.051212e+02 -2.034525e+02 -2.050588e+02 -2.033825e+02 -2.049486e+02 -2.032657e+02 -2.047896e+02 -2.031019e+02 -2.045813e+02 -2.028914e+02 -2.043237e+02 -2.026351e+02 -2.040182e+02 -2.023346e+02 -2.036676e+02 -2.019929e+02 -2.032766e+02 -2.016147e+02 -2.028520e+02 -2.012069e+02 -2.024027e+02 -2.007787e+02 -2.019409e+02 -2.003433e+02 -2.014810e+02 -1.999165e+02 -2.010379e+02 -1.995139e+02 -2.006220e+02 -1.991432e+02 -2.002317e+02 -1.987947e+02 -1.998477e+02 -1.984392e+02 -1.994370e+02 -1.980362e+02 -1.989667e+02 -1.975501e+02 -1.984248e+02 -1.969659e+02 -1.978403e+02 -1.962970e+02 -1.972901e+02 -1.955788e+02 -1.968849e+02 -1.948562e+02 -1.967334e+02 -1.941867e+02 -1.968788e+02 -1.936820e+02 -1.972132e+02 -1.935771e+02 -1.974700e+02 -1.941000e+02 -1.976995e+02 -1.940086e+02 -1.988291e+02 -1.944602e+02 -1.989609e+02 -1.933430e+02 -1.988124e+02 -1.931429e+02 -1.987156e+02 -1.928758e+02 -1.984776e+02 -1.930821e+02 -1.979960e+02 -1.934126e+02 -1.981402e+02 -1.939782e+02 -1.977945e+02 -1.940545e+02 -1.977027e+02 -1.942339e+02 -1.977174e+02 -1.944490e+02 -1.978007e+02 -1.946904e+02 -1.979394e+02 -1.949601e+02 -1.981270e+02 -1.952612e+02 -1.983591e+02 -1.955954e+02 -1.986318e+02 -1.959629e+02 -1.989416e+02 -1.963627e+02 -1.992846e+02 -1.967924e+02 -1.996565e+02 -1.972486e+02 
-1.954476e+02 -1.953288e+02 -1.949824e+02 -1.950042e+02 -1.945119e+02 -1.946603e+02 -1.940425e+02 -1.943017e+02 -1.935811e+02 -1.939336e+02 -1.931344e+02 -1.935615e+02 -1.927089e+02 -1.931913e+02 -1.923107e+02 -1.928284e+02 -1.919452e+02 -1.924786e+02 -1.916169e+02 -1.921468e+02 -1.913296e+02 -1.918379e+02 -1.910858e+02 -1.915560e+02 -1.908872e+02 -1.913047e+02 -1.907348e+02 -1.910873e+02 -1.906289e+02 -1.909065e+02 -1.905690e+02 -1.907650e+02 -1.905548e+02 -1.906651e+02 -1.905856e+02 -1.906092e+02 -1.906611e+02 -1.905995e+02 -1.907809e+02 -1.906384e+02 -1.909450e+02 -1.907277e+02 -1.911533e+02 -1.908686e+02 -1.914050e+02 -1.910611e+02 -1.916984e+02 -1.913032e+02 -1.920293e+02 -1.915902e+02 -1.923910e+02 -1.919142e+02 -1.927729e+02 -1.922641e+02 -1.931604e+02 -1.926253e+02 -1.935359e+02 -1.929806e+02 -1.938794e+02 -1.933105e+02 -1.941711e+02 -1.935943e+02 -1.943939e+02 -1.938138e+02 -1.945391e+02 -1.939616e+02 -1.946143e+02 -1.940518e+02 -1.946511e+02 -1.941257e+02 -1.947023e+02 -1.942396e+02 -1.948255e+02 -1.944407e+02 -1.950636e+02 -1.947431e+02 -1.954330e+02 -1.951194e+02 -1.959267e+02 -1.955175e+02 -1.965223e+02 -1.958937e+02 -1.971852e+02 -1.962218e+02 -1.978730e+02 -1.964184e+02 -1.985636e+02 -1.962638e+02 -1.993134e+02 -1.956390e+02 -2.003681e+02 -1.954427e+02 -1.990804e+02 -1.931122e+02 -1.996049e+02 -1.934245e+02 -1.980856e+02 -1.937031e+02 -1.985981e+02 -1.933706e+02 -1.988136e+02 -1.939895e+02 -1.985137e+02 -1.956283e+02 -1.995707e+02 -1.967398e+02 -1.991832e+02 -1.967432e+02 -1.989304e+02 -1.968165e+02 -1.986892e+02 -1.968516e+02 -1.984329e+02 -1.968374e+02 -1.981531e+02 -1.967774e+02 -1.978461e+02 -1.966757e+02 -1.975104e+02 -1.965354e+02 -1.971462e+02 -1.963586e+02 -1.967548e+02 -1.961473e+02 -1.963387e+02 -1.959035e+02 -1.959014e+02 -1.956297e+02 
-1.999594e+02 -1.976582e+02 -2.004041e+02 -1.981828e+02 -2.008627e+02 -1.987201e+02 -2.013286e+02 -1.992626e+02 -2.017946e+02 -1.998021e+02 -2.022535e+02 -2.003302e+02 -2.026986e+02 -2.008390e+02 -2.031233e+02 -2.013210e+02 -2.035222e+02 -2.017696e+02 -2.038901e+02 -2.021792e+02 -2.042232e+02 -2.025454e+02 -2.045182e+02 -2.028649e+02 -2.047729e+02 -2.031357e+02 -2.049855e+02 -2.033567e+02 -2.051550e+02 -2.035277e+02 -2.052805e+02 -2.036491e+02 -2.053615e+02 -2.037216e+02 -2.053970e+02 -2.037460e+02 -2.053861e+02 -2.037226e+02 -2.053273e+02 -2.036515e+02 -2.052188e+02 -2.035323e+02 -2.050587e+02 -2.033640e+02 -2.048451e+02 -2.031457e+02 -2.045769e+02 -2.028770e+02 -2.042540e+02 -2.025584e+02 -2.038784e+02 -2.021917e+02 -2.034540e+02 -2.017810e+02 -2.029877e+02 -2.013331e+02 -2.024899e+02 -2.008590e+02 -2.019760e+02 -2.003762e+02 -2.014678e+02 -1.999111e+02 -2.009921e+02 -1.994952e+02 -2.005722e+02 -1.991508e+02 -2.002113e+02 -1.988684e+02 -1.998777e+02 -1.985976e+02 -1.995058e+02 -1.982625e+02 -1.990205e+02 -1.977936e+02 -1.983765e+02 -1.971584e+02 -1.975987e+02 -1.963768e+02 -1.968036e+02 -1.955032e+02 -1.961841e+02 -1.945826e+02 -1.959635e+02 -1.936368e+02 -1.963038e+02 -1.927533e+02 -1.970545e+02 -1.924612e+02 -1.972976e+02 -1.946946e+02 -1.965675e+02 -1.936441e+02 -2.020536e+02 -1.938540e+02 -1.977280e+02 -1.896082e+02 -1.941162e+02 -1.885147e+02 -1.945399e+02 -1.889459e+02 -1.951495e+02 -1.900380e+02 -1.956593e+02 -1.923396e+02 -1.972312e+02 -1.935762e+02 -1.973538e+02 -1.938507e+02 -1.973750e+02 -1.940791e+02 -1.974282e+02 -1.942994e+02 -1.975333e+02 -1.945357e+02 -1.976901e+02 -1.948007e+02 -1.978952e+02 -1.951006e+02 -1.981456e+02 -1.954382e+02 -1.984382e+02 -1.958140e+02 -1.987698e+02 -1.962271e+02 -1.991369e+02 -1.966748e+02 -1.995351e+02 -1.971536e+02 
-1.954982e+02 -1.954641e+02 -1.950014e+02 -1.951139e+02 -1.944971e+02 -1.947421e+02 -1.939929e+02 -1.943539e+02 -1.934967e+02 -1.939550e+02 -1.930162e+02 -1.935516e+02 -1.925591e+02 -1.931502e+02 -1.921322e+02 -1.927572e+02 -1.917416e+02 -1.923785e+02 -1.913925e+02 -1.920199e+02 -1.910885e+02 -1.916864e+02 -1.908323e+02 -1.913823e+02 -1.906255e+02 -1.911113e+02 -1.904684e+02 -1.908766e+02 -1.903608e+02 -1.906809e+02 -1.903020e+02 -1.905266e+02 -1.902909e+02 -1.904163e+02 -1.903267e+02 -1.903527e+02 -1.904090e+02 -1.903387e+02 -1.905381e+02 -1.903775e+02 -1.907147e+02 -1.904723e+02 -1.909401e+02 -1.906260e+02 -1.912151e+02 -1.908400e+02 -1.915397e+02 -1.911133e+02 -1.919109e+02 -1.914418e+02 -1.923219e+02 -1.918165e+02 -1.927606e+02 -1.922242e+02 -1.932089e+02 -1.926472e+02 -1.936433e+02 -1.930639e+02 -1.940368e+02 -1.934491e+02 -1.943604e+02 -1.937723e+02 -1.945850e+02 -1.939995e+02 -1.946873e+02 -1.941059e+02 -1.946666e+02 -1.941048e+02 -1.945671e+02 -1.940656e+02 -1.944778e+02 -1.940954e+02 -1.944994e+02 -1.942892e+02 -1.947022e+02 -1.946765e+02 -1.951039e+02 -1.951992e+02 -1.956816e+02 -1.957457e+02 -1.963985e+02 -1.962486e+02 -1.972001e+02 -1.967638e+02 -1.980044e+02 -1.972689e+02 -1.987442e+02 -1.971752e+02 -1.994517e+02 -1.953442e+02 -2.053429e+02 -1.948677e+02 -1.873984e+02 -1.884979e+02 -1.959857e+02 -1.857746e+02 -1.955147e+02 -1.883084e+02 -1.962757e+02 -1.903661e+02 -1.972497e+02 -1.923583e+02 -1.979073e+02 -1.950520e+02 -1.990407e+02 -1.964894e+02 -1.991853e+02 -1.969557e+02 -1.990426e+02 -1.971078e+02 -1.988320e+02 -1.971427e+02 -1.985880e+02 -1.971138e+02 -1.983130e+02 -1.970379e+02 -1.980051e+02 -1.969210e+02 -1.976632e+02 -1.967657e+02 -1.972877e+02 -1.965734e+02 -1.968801e+02 -1.963453e+02 -1.964431e+02 -1.960829e+02 -1.959808e+02 -1.957883e+02 
-1.998468e+02 -1.975704e+02 -2.003280e+02 -1.981318e+02 -2.008249e+02 -1.987091e+02 -2.013299e+02 -1.992935e+02 -2.018350e+02 -1.998755e+02 -2.023321e+02 -2.004454e+02 -2.028132e+02 -2.009938e+02 -2.032714e+02 -2.015122e+02 -2.037003e+02 -2.019929e+02 -2.040945e+02 -2.024298e+02 -2.044501e+02 -2.028181e+02 -2.047639e+02 -2.031547e+02 -2.050340e+02 -2.034377e+02 -2.052591e+02 -2.036669e+02 -2.054389e+02 -2.038428e+02 -2.055732e+02 -2.039668e+02 -2.056618e+02 -2.040403e+02 -2.057043e+02 -2.040650e+02 -2.057000e+02 -2.040418e+02 -2.056471e+02 -2.039706e+02 -2.055429e+02 -2.038505e+02 -2.053843e+02 -2.036794e+02 -2.051676e+02 -2.034549e+02 -2.048896e+02 -2.031743e+02 -2.045483e+02 -2.028360e+02 -2.041437e+02 -2.024401e+02 -2.036784e+02 -2.019888e+02 -2.031582e+02 -2.014875e+02 -2.025935e+02 -2.009464e+02 -2.020022e+02 -2.003867e+02 -2.014159e+02 -1.998490e+02 -2.008824e+02 -1.993960e+02 -2.004541e+02 -1.990871e+02 -2.001546e+02 -1.989213e+02 -1.999371e+02 -1.988115e+02 -1.996797e+02 -1.986150e+02 -1.992262e+02 -1.981972e+02 -1.984578e+02 -1.974954e+02 -1.973757e+02 -1.965538e+02 -1.961507e+02 -1.954875e+02 -1.950998e+02 -1.943501e+02 -1.946473e+02 -1.930332e+02 -1.953213e+02 -1.912264e+02 -1.973948e+02 -1.887946e+02 -1.980945e+02 -1.923156e+02 -1.823028e+02 -1.952742e+02 -1.928705e+02 -1.869160e+02 -1.959608e+02 -1.806648e+02 -1.960946e+02 -1.843211e+02 -1.958087e+02 -1.877347e+02 -1.955083e+02 -1.901421e+02 -1.951887e+02 -1.927065e+02 -1.971639e+02 -1.932264e+02 -1.970164e+02 -1.936933e+02 -1.970144e+02 -1.939314e+02 -1.970860e+02 -1.941329e+02 -1.972139e+02 -1.943520e+02 -1.973922e+02 -1.946064e+02 -1.976183e+02 -1.949026e+02 -1.978903e+02 -1.952433e+02 -1.982061e+02 -1.956287e+02 -1.985634e+02 -1.960575e+02 -1.989588e+02 -1.965271e+02 -1.993884e+02 -1.970332e+02 