# vtk DataFile Version 2.0
Comment goes here
ASCII

DATASET STRUCTURED_POINTS
DIMENSIONS    128   128   1

ORIGIN    0.000   0.000   0.000
SPACING   0.0156250.015625   1.000

POINT_DATA   16384
SCALARS P double
LOOKUP_TABLE default

-1.689880e+02 -1.687997e+02 -1.685923e+02 -1.685329e+02 -1.681927e+02 -1.682508e+02 -1.677939e+02 -1.679573e+02 -1.674005e+02 -1.676566e+02 -1.670175e+02 -1.673530e+02 -1.666496e+02 -1.670508e+02 -1.663015e+02 -1.667541e+02 -1.659775e+02 -1.664673e+02 -1.656815e+02 -1.661942e+02 -1.654171e+02 -1.659387e+02 -1.651870e+02 -1.657041e+02 -1.649938e+02 -1.654935e+02 -1.648391e+02 -1.653098e+02 -1.647240e+02 -1.651551e+02 -1.646492e+02 -1.650314e+02 -1.646145e+02 -1.649402e+02 -1.646194e+02 -1.648824e+02 -1.646628e+02 -1.648586e+02 -1.647432e+02 -1.648688e+02 -1.648585e+02 -1.649125e+02 -1.650062e+02 -1.649885e+02 -1.651833e+02 -1.650951e+02 -1.653862e+02 -1.652297e+02 -1.656109e+02 -1.653891e+02 -1.658527e+02 -1.655694e+02 -1.661067e+02 -1.657661e+02 -1.663677e+02 -1.659741e+02 -1.666307e+02 -1.661883e+02 -1.668914e+02 -1.664039e+02 -1.671466e+02 -1.666170e+02 -1.673951e+02 -1.668252e+02 -1.676379e+02 -1.670275e+02 -1.678785e+02 -1.672250e+02 -1.681224e+02 -1.674196e+02 -1.683766e+02 -1.676137e+02 -1.686478e+02 -1.678089e+02 -1.689416e+02 -1.680047e+02 -1.692608e+02 -1.681979e+02 -1.696042e+02 -1.683827e+02 -1.699660e+02 -1.685507e+02 -1.703360e+02 -1.686934e+02 -1.707004e+02 -1.688045e+02 -1.710440e+02 -1.688833e+02 -1.713528e+02 -1.689368e+02 -1.716169e+02 -1.689789e+02 -1.718332e+02 -1.690263e+02 -1.720045e+02 -1.690935e+02 -1.721338e+02 -1.691870e+02 -1.722205e+02 -1.693067e+02 -1.722617e+02 -1.694457e+02 -1.722551e+02 -1.695916e+02 -1.722013e+02 -1.697294e+02 -1.721027e+02 -1.698453e+02 -1.719632e+02 -1.699296e+02 -1.717866e+02 -1.699771e+02 -1.715764e+02 -1.699856e+02 -1.713355e+02 -1.699551e+02 -1.710662e+02 -1.698865e+02 -1.707709e+02 -1.697816e+02 -1.704515e+02 -1.696427e+02 -1.701106e+02 -1.694721e+02 -1.697509e+02 -1.692727e+02 -1.693755e+02 -1.690475e+02 
-1.731626e+02 -1.708079e+02 -1.734887e+02 -1.712031e+02 -1.738225e+02 -1.716040e+02 -1.741594e+02 -1.720060e+02 -1.744951e+02 -1.724046e+02 -1.748250e+02 -1.727951e+02 -1.751448e+02 -1.731726e+02 -1.754506e+02 -1.735328e+02 -1.757385e+02 -1.738713e+02 -1.760052e+02 -1.741841e+02 -1.762475e+02 -1.744676e+02 -1.764627e+02 -1.747188e+02 -1.766485e+02 -1.749351e+02 -1.768028e+02 -1.751143e+02 -1.769237e+02 -1.752547e+02 -1.770099e+02 -1.753550e+02 -1.770600e+02 -1.754145e+02 -1.770732e+02 -1.754329e+02 -1.770488e+02 -1.754100e+02 -1.769863e+02 -1.753465e+02 -1.768860e+02 -1.752431e+02 -1.767483e+02 -1.751013e+02 -1.765744e+02 -1.749231e+02 -1.763660e+02 -1.747109e+02 -1.761254e+02 -1.744676e+02 -1.758556e+02 -1.741964e+02 -1.755598e+02 -1.739010e+02 -1.752420e+02 -1.735849e+02 -1.749058e+02 -1.732515e+02 -1.745551e+02 -1.729036e+02 -1.741936e+02 -1.725436e+02 -1.738246e+02 -1.721728e+02 -1.734510e+02 -1.717917e+02 -1.730757e+02 -1.713999e+02 -1.727021e+02 -1.709974e+02 -1.723350e+02 -1.705850e+02 -1.719813e+02 -1.701658e+02 -1.716507e+02 -1.697460e+02 -1.713551e+02 -1.693347e+02 -1.711072e+02 -1.689435e+02 -1.709176e+02 -1.685843e+02 -1.707917e+02 -1.682675e+02 -1.707279e+02 -1.679994e+02 -1.707179e+02 -1.677808e+02 -1.707490e+02 -1.676061e+02 -1.708058e+02 -1.674669e+02 -1.708718e+02 -1.673572e+02 -1.709315e+02 -1.672763e+02 -1.709762e+02 -1.672303e+02 -1.710043e+02 -1.672260e+02 -1.710205e+02 -1.672669e+02 -1.710326e+02 -1.673510e+02 -1.710494e+02 -1.674726e+02 -1.710779e+02 -1.676247e+02 -1.711253e+02 -1.678026e+02 -1.711977e+02 -1.680043e+02 -1.712993e+02 -1.682291e+02 -1.714325e+02 -1.684769e+02 -1.715977e+02 -1.687478e+02 -1.717944e+02 -1.690416e+02 -1.720206e+02 -1.693575e+02 -1.722739e+02 -1.696943e+02 -1.725511e+02 -1.700501e+02 -1.728487e+02 -1.704223e+02 
-1.689925e+02 -1.688092e+02 -1.685945e+02 -1.685403e+02 -1.681925e+02 -1.682561e+02 -1.677912e+02 -1.679605e+02 -1.673954e+02 -1.676577e+02 -1.670100e+02 -1.673519e+02 -1.666398e+02 -1.670475e+02 -1.662895e+02 -1.667488e+02 -1.659636e+02 -1.664600e+02 -1.656659e+02 -1.661851e+02 -1.654000e+02 -1.659279e+02 -1.651688e+02 -1.656918e+02 -1.649747e+02 -1.654799e+02 -1.648194e+02 -1.652950e+02 -1.647040e+02 -1.651394e+02 -1.646291e+02 -1.650150e+02 -1.645946e+02 -1.649232e+02 -1.646000e+02 -1.648652e+02 -1.646442e+02 -1.648415e+02 -1.647257e+02 -1.648521e+02 -1.648423e+02 -1.648965e+02 -1.649917e+02 -1.649737e+02 -1.651708e+02 -1.650817e+02 -1.653759e+02 -1.652182e+02 -1.656031e+02 -1.653798e+02 -1.658475e+02 -1.655626e+02 -1.661041e+02 -1.657617e+02 -1.663675e+02 -1.659722e+02 -1.666325e+02 -1.661885e+02 -1.668944e+02 -1.664058e+02 -1.671500e+02 -1.666200e+02 -1.673978e+02 -1.668285e+02 -1.676389e+02 -1.670306e+02 -1.678771e+02 -1.672275e+02 -1.681182e+02 -1.674217e+02 -1.683698e+02 -1.676161e+02 -1.686393e+02 -1.678125e+02 -1.689328e+02 -1.680108e+02 -1.692533e+02 -1.682075e+02 -1.695997e+02 -1.683961e+02 -1.699661e+02 -1.685677e+02 -1.703420e+02 -1.687123e+02 -1.707128e+02 -1.688224e+02 -1.710624e+02 -1.688968e+02 -1.713755e+02 -1.689430e+02 -1.716409e+02 -1.689764e+02 -1.718557e+02 -1.690165e+02 -1.720255e+02 -1.690804e+02 -1.721550e+02 -1.691740e+02 -1.722433e+02 -1.692970e+02 -1.722856e+02 -1.694422e+02 -1.722789e+02 -1.695957e+02 -1.722239e+02 -1.697406e+02 -1.721237e+02 -1.698615e+02 -1.719824e+02 -1.699487e+02 -1.718043e+02 -1.699974e+02 -1.715928e+02 -1.700061e+02 -1.713507e+02 -1.699749e+02 -1.710804e+02 -1.699054e+02 -1.707839e+02 -1.697993e+02 -1.704632e+02 -1.696590e+02 -1.701209e+02 -1.694869e+02 -1.697594e+02 -1.692858e+02 -1.693821e+02 -1.690588e+02 
-1.731516e+02 -1.707988e+02 -1.734819e+02 -1.711979e+02 -1.738200e+02 -1.716030e+02 -1.741614e+02 -1.720096e+02 -1.745014e+02 -1.724129e+02 -1.748355e+02 -1.728080e+02 -1.751594e+02 -1.731901e+02 -1.754689e+02 -1.735546e+02 -1.757603e+02 -1.738971e+02 -1.760301e+02 -1.742134e+02 -1.762751e+02 -1.745001e+02 -1.764927e+02 -1.747540e+02 -1.766806e+02 -1.749725e+02 -1.768365e+02 -1.751533e+02 -1.769589e+02 -1.752949e+02 -1.770462e+02 -1.753960e+02 -1.770973e+02 -1.754559e+02 -1.771111e+02 -1.754742e+02 -1.770869e+02 -1.754510e+02 -1.770245e+02 -1.753867e+02 -1.769238e+02 -1.752822e+02 -1.767853e+02 -1.751389e+02 -1.766101e+02 -1.749587e+02 -1.763997e+02 -1.747440e+02 -1.761566e+02 -1.744977e+02 -1.758836e+02 -1.742232e+02 -1.755841e+02 -1.739241e+02 -1.752620e+02 -1.736042e+02 -1.749215e+02 -1.732673e+02 -1.745666e+02 -1.729166e+02 -1.742012e+02 -1.725547e+02 -1.738287e+02 -1.721833e+02 -1.734523e+02 -1.718027e+02 -1.730742e+02 -1.714121e+02 -1.726972e+02 -1.710102e+02 -1.723249e+02 -1.705967e+02 -1.719636e+02 -1.701735e+02 -1.716231e+02 -1.697464e+02 -1.713165e+02 -1.693247e+02 -1.710587e+02 -1.689213e+02 -1.708628e+02 -1.685503e+02 -1.707365e+02 -1.682248e+02 -1.706784e+02 -1.679536e+02 -1.706791e+02 -1.677385e+02 -1.707240e+02 -1.675713e+02 -1.707967e+02 -1.674377e+02 -1.708780e+02 -1.673285e+02 -1.709466e+02 -1.672414e+02 -1.709926e+02 -1.671887e+02 -1.710163e+02 -1.671809e+02 -1.710245e+02 -1.672236e+02 -1.710281e+02 -1.673138e+02 -1.710380e+02 -1.674427e+02 -1.710599e+02 -1.675998e+02 -1.711017e+02 -1.677804e+02 -1.711702e+02 -1.679831e+02 -1.712699e+02 -1.682081e+02 -1.714026e+02 -1.684559e+02 -1.715687e+02 -1.687270e+02 -1.717670e+02 -1.690213e+02 -1.719956e+02 -1.693383e+02 -1.722518e+02 -1.696767e+02 -1.725323e+02 -1.700348e+02 -1.728336e+02 -1.704099e+02 
-1.690060e+02 -1.688383e+02 -1.686011e+02 -1.685635e+02 -1.681920e+02 -1.682730e+02 -1.677832e+02 -1.679710e+02 -1.673800e+02 -1.676616e+02 -1.669872e+02 -1.673493e+02 -1.666100e+02 -1.670385e+02 -1.662533e+02 -1.667336e+02 -1.659214e+02 -1.664389e+02 -1.656186e+02 -1.661585e+02 -1.653483e+02 -1.658962e+02 -1.651137e+02 -1.656555e+02 -1.649169e+02 -1.654395e+02 -1.647599e+02 -1.652511e+02 -1.646437e+02 -1.650926e+02 -1.645687e+02 -1.649659e+02 -1.645350e+02 -1.648726e+02 -1.645420e+02 -1.648139e+02 -1.645885e+02 -1.647902e+02 -1.646731e+02 -1.648018e+02 -1.647938e+02 -1.648484e+02 -1.649482e+02 -1.649288e+02 -1.651332e+02 -1.650412e+02 -1.653452e+02 -1.651833e+02 -1.655799e+02 -1.653515e+02 -1.658323e+02 -1.655415e+02 -1.660970e+02 -1.657483e+02 -1.663678e+02 -1.659662e+02 -1.666389e+02 -1.661891e+02 -1.669049e+02 -1.664116e+02 -1.671617e+02 -1.666290e+02 -1.674074e+02 -1.668384e+02 -1.676433e+02 -1.670394e+02 -1.678736e+02 -1.672342e+02 -1.681058e+02 -1.674267e+02 -1.683491e+02 -1.676214e+02 -1.686130e+02 -1.678215e+02 -1.689051e+02 -1.680273e+02 -1.692294e+02 -1.682350e+02 -1.695851e+02 -1.684363e+02 -1.699659e+02 -1.686195e+02 -1.703599e+02 -1.687710e+02 -1.707507e+02 -1.688792e+02 -1.711194e+02 -1.689398e+02 -1.714464e+02 -1.689620e+02 -1.717155e+02 -1.689673e+02 -1.719231e+02 -1.689829e+02 -1.720869e+02 -1.690377e+02 -1.722174e+02 -1.691313e+02 -1.723121e+02 -1.692651e+02 -1.723585e+02 -1.694302e+02 -1.723508e+02 -1.696086e+02 -1.722921e+02 -1.697764e+02 -1.721865e+02 -1.699125e+02 -1.720399e+02 -1.700078e+02 -1.718571e+02 -1.700596e+02 -1.716418e+02 -1.700683e+02 -1.713964e+02 -1.700354e+02 -1.711229e+02 -1.699629e+02 -1.708229e+02 -1.698532e+02 -1.704984e+02 -1.697087e+02 -1.701516e+02 -1.695320e+02 -1.697851e+02 -1.693260e+02 -1.694020e+02 -1.690936e+02 
-1.731290e+02 -1.707803e+02 -1.734678e+02 -1.711873e+02 -1.738147e+02 -1.716010e+02 -1.741650e+02 -1.720167e+02 -1.745138e+02 -1.724294e+02 -1.748564e+02 -1.728339e+02 -1.751884e+02 -1.732253e+02 -1.755055e+02 -1.735985e+02 -1.758038e+02 -1.739491e+02 -1.760798e+02 -1.742727e+02 -1.763304e+02 -1.745657e+02 -1.765528e+02 -1.748249e+02 -1.767447e+02 -1.750476e+02 -1.769041e+02 -1.752317e+02 -1.770294e+02 -1.753756e+02 -1.771190e+02 -1.754782e+02 -1.771718e+02 -1.755388e+02 -1.771869e+02 -1.755571e+02 -1.771635e+02 -1.755332e+02 -1.771012e+02 -1.754675e+02 -1.769999e+02 -1.753608e+02 -1.768599e+02 -1.752145e+02 -1.766821e+02 -1.750303e+02 -1.764680e+02 -1.748106e+02 -1.762197e+02 -1.745584e+02 -1.759403e+02 -1.742769e+02 -1.756332e+02 -1.739702e+02 -1.753026e+02 -1.736424e+02 -1.749531e+02 -1.732980e+02 -1.745893e+02 -1.729411e+02 -1.742158e+02 -1.725753e+02 -1.738368e+02 -1.722028e+02 -1.734550e+02 -1.718238e+02 -1.730722e+02 -1.714365e+02 -1.726891e+02 -1.710372e+02 -1.723073e+02 -1.706226e+02 -1.719309e+02 -1.701921e+02 -1.715695e+02 -1.697500e+02 -1.712387e+02 -1.693065e+02 -1.709583e+02 -1.688767e+02 -1.707480e+02 -1.684793e+02 -1.706202e+02 -1.681334e+02 -1.705747e+02 -1.678549e+02 -1.705982e+02 -1.676494e+02 -1.706718e+02 -1.675028e+02 -1.707790e+02 -1.673839e+02 -1.708969e+02 -1.672776e+02 -1.709843e+02 -1.671722e+02 -1.710314e+02 -1.671020e+02 -1.710435e+02 -1.670852e+02 -1.710329e+02 -1.671324e+02 -1.710170e+02 -1.672377e+02 -1.710147e+02 -1.673848e+02 -1.710226e+02 -1.675524e+02 -1.710524e+02 -1.677373e+02 -1.711132e+02 -1.679413e+02 -1.712092e+02 -1.681662e+02 -1.713414e+02 -1.684137e+02 -1.715093e+02 -1.686849e+02 -1.717112e+02 -1.689802e+02 -1.719447e+02 -1.692992e+02 -1.722068e+02 -1.696410e+02 -1.724942e+02 -1.700036e+02 -1.728029e+02 -1.703844e+02 
-1.690290e+02 -1.688874e+02 -1.686126e+02 -1.686026e+02 -1.681912e+02 -1.683017e+02 -1.677699e+02 -1.679888e+02 -1.673540e+02 -1.676685e+02 -1.669489e+02 -1.673452e+02 -1.665599e+02 -1.670236e+02 -1.661921e+02 -1.667083e+02 -1.658503e+02 -1.664036e+02 -1.655388e+02 -1.661139e+02 -1.652613e+02 -1.658431e+02 -1.650208e+02 -1.655946e+02 -1.648198e+02 -1.653719e+02 -1.646599e+02 -1.651776e+02 -1.645423e+02 -1.650142e+02 -1.644673e+02 -1.648837e+02 -1.644349e+02 -1.647877e+02 -1.644444e+02 -1.647274e+02 -1.644948e+02 -1.647038e+02 -1.645847e+02 -1.647170e+02 -1.647122e+02 -1.647670e+02 -1.648749e+02 -1.648527e+02 -1.650698e+02 -1.649726e+02 -1.652933e+02 -1.651241e+02 -1.655410e+02 -1.653035e+02 -1.658073e+02 -1.655061e+02 -1.660860e+02 -1.657261e+02 -1.663700e+02 -1.659569e+02 -1.666522e+02 -1.661916e+02 -1.669255e+02 -1.664232e+02 -1.671847e+02 -1.666461e+02 -1.674270e+02 -1.668567e+02 -1.676533e+02 -1.670550e+02 -1.678691e+02 -1.672446e+02 -1.680843e+02 -1.674323e+02 -1.683117e+02 -1.676261e+02 -1.685645e+02 -1.678319e+02 -1.688533e+02 -1.680512e+02 -1.691840e+02 -1.682790e+02 -1.695559e+02 -1.685044e+02 -1.699618e+02 -1.687111e+02 -1.703878e+02 -1.688785e+02 -1.708147e+02 -1.689858e+02 -1.712195e+02 -1.690216e+02 -1.715751e+02 -1.689974e+02 -1.718514e+02 -1.689474e+02 -1.720340e+02 -1.689100e+02 -1.721813e+02 -1.689561e+02 -1.723157e+02 -1.690483e+02 -1.724288e+02 -1.692016e+02 -1.724849e+02 -1.694046e+02 -1.724730e+02 -1.696315e+02 -1.724067e+02 -1.698437e+02 -1.722908e+02 -1.700051e+02 -1.721343e+02 -1.701116e+02 -1.719438e+02 -1.701667e+02 -1.717226e+02 -1.701741e+02 -1.714722e+02 -1.701374e+02 -1.711938e+02 -1.700596e+02 -1.708884e+02 -1.699436e+02 -1.705577e+02 -1.697921e+02 -1.702035e+02 -1.696078e+02 -1.698285e+02 -1.693935e+02 -1.694357e+02 -1.691523e+02 
-1.730945e+02 -1.707514e+02 -1.734463e+02 -1.711704e+02 -1.738066e+02 -1.715973e+02 -1.741703e+02 -1.720271e+02 -1.745325e+02 -1.724542e+02 -1.748881e+02 -1.728733e+02 -1.752325e+02 -1.732787e+02 -1.755611e+02 -1.736654e+02 -1.758699e+02 -1.740282e+02 -1.761552e+02 -1.743628e+02 -1.764141e+02 -1.746654e+02 -1.766436e+02 -1.749325e+02 -1.768416e+02 -1.751616e+02 -1.770061e+02 -1.753505e+02 -1.771356e+02 -1.754979e+02 -1.772287e+02 -1.756027e+02 -1.772842e+02 -1.756643e+02 -1.773014e+02 -1.756825e+02 -1.772792e+02 -1.756575e+02 -1.772173e+02 -1.755897e+02 -1.771153e+02 -1.754799e+02 -1.769733e+02 -1.753291e+02 -1.767919e+02 -1.751391e+02 -1.765722e+02 -1.749120e+02 -1.763164e+02 -1.746506e+02 -1.760271e+02 -1.743583e+02 -1.757083e+02 -1.740396e+02 -1.753642e+02 -1.736990e+02 -1.750003e+02 -1.733422e+02 -1.746223e+02 -1.729748e+02 -1.742361e+02 -1.726023e+02 -1.738470e+02 -1.722282e+02 -1.734584e+02 -1.718533e+02 -1.730706e+02 -1.714736e+02 -1.726814e+02 -1.710816e+02 -1.722874e+02 -1.706686e+02 -1.718887e+02 -1.702289e+02 -1.714932e+02 -1.697641e+02 -1.711201e+02 -1.692847e+02 -1.707985e+02 -1.688101e+02 -1.705604e+02 -1.683655e+02 -1.704290e+02 -1.679805e+02 -1.704061e+02 -1.676857e+02 -1.704686e+02 -1.675014e+02 -1.705857e+02 -1.674059e+02 -1.707496e+02 -1.673166e+02 -1.709459e+02 -1.672255e+02 -1.710621e+02 -1.670677e+02 -1.711051e+02 -1.669619e+02 -1.710933e+02 -1.669250e+02 -1.710460e+02 -1.669825e+02 -1.709911e+02 -1.671189e+02 -1.709805e+02 -1.673062e+02 -1.709632e+02 -1.674877e+02 -1.709727e+02 -1.676761e+02 -1.710221e+02 -1.678799e+02 -1.711138e+02 -1.681035e+02 -1.712464e+02 -1.683497e+02 -1.714179e+02 -1.686206e+02 -1.716257e+02 -1.689171e+02 -1.718668e+02 -1.692391e+02 -1.721381e+02 -1.695858e+02 -1.724359e+02 -1.699553e+02 -1.727561e+02 -1.703450e+02 
-1.690625e+02 -1.689573e+02 -1.686296e+02 -1.686583e+02 -1.681908e+02 -1.683426e+02 -1.677515e+02 -1.680144e+02 -1.673174e+02 -1.676785e+02 -1.668945e+02 -1.673396e+02 -1.664885e+02 -1.670026e+02 -1.661050e+02 -1.666724e+02 -1.657490e+02 -1.663536e+02 -1.654252e+02 -1.660507e+02 -1.651374e+02 -1.657678e+02 -1.648888e+02 -1.655084e+02 -1.646818e+02 -1.652761e+02 -1.645181e+02 -1.650735e+02 -1.643985e+02 -1.649031e+02 -1.643236e+02 -1.647671e+02 -1.642930e+02 -1.646671e+02 -1.643061e+02 -1.646047e+02 -1.643619e+02 -1.645808e+02 -1.644591e+02 -1.645960e+02 -1.645960e+02 -1.646505e+02 -1.647703e+02 -1.647437e+02 -1.649793e+02 -1.648741e+02 -1.652193e+02 -1.650391e+02 -1.654857e+02 -1.652347e+02 -1.657724e+02 -1.654557e+02 -1.660721e+02 -1.656954e+02 -1.663763e+02 -1.659459e+02 -1.666758e+02 -1.661983e+02 -1.669612e+02 -1.664441e+02 -1.672250e+02 -1.666753e+02 -1.674623e+02 -1.668871e+02 -1.676736e+02 -1.670792e+02 -1.678656e+02 -1.672577e+02 -1.680521e+02 -1.674343e+02 -1.682522e+02 -1.676232e+02 -1.684855e+02 -1.678358e+02 -1.687678e+02 -1.680756e+02 -1.691074e+02 -1.683360e+02 -1.695036e+02 -1.686018e+02 -1.699473e+02 -1.688504e+02 -1.704217e+02 -1.690512e+02 -1.709042e+02 -1.691656e+02 -1.713691e+02 -1.691626e+02 -1.717819e+02 -1.690572e+02 -1.720799e+02 -1.689139e+02 -1.721799e+02 -1.687535e+02 -1.722889e+02 -1.688284e+02 -1.724353e+02 -1.689040e+02 -1.726022e+02 -1.690878e+02 -1.726784e+02 -1.693539e+02 -1.726480e+02 -1.696678e+02 -1.725696e+02 -1.699611e+02 -1.724349e+02 -1.701523e+02 -1.722630e+02 -1.702675e+02 -1.720622e+02 -1.703225e+02 -1.718340e+02 -1.703256e+02 -1.715778e+02 -1.702823e+02 -1.712934e+02 -1.701964e+02 -1.709811e+02 -1.700713e+02 -1.706420e+02 -1.699099e+02 -1.702777e+02 -1.697149e+02 -1.698908e+02 -1.694890e+02 -1.694844e+02 -1.692354e+02 
-1.730475e+02 -1.707107e+02 -1.734170e+02 -1.711462e+02 -1.737955e+02 -1.715914e+02 -1.741777e+02 -1.720405e+02 -1.745582e+02 -1.724875e+02 -1.749315e+02 -1.729265e+02 -1.752925e+02 -1.733513e+02 -1.756366e+02 -1.737562e+02 -1.759596e+02 -1.741358e+02 -1.762575e+02 -1.744854e+02 -1.765274e+02 -1.748007e+02 -1.767663e+02 -1.750785e+02 -1.769723e+02 -1.753160e+02 -1.771435e+02 -1.755113e+02 -1.772785e+02 -1.756631e+02 -1.773762e+02 -1.757705e+02 -1.774354e+02 -1.758333e+02 -1.774553e+02 -1.758514e+02 -1.774352e+02 -1.758251e+02 -1.773741e+02 -1.757547e+02 -1.772717e+02 -1.756408e+02 -1.771274e+02 -1.754845e+02 -1.769416e+02 -1.752869e+02 -1.767149e+02 -1.750500e+02 -1.764489e+02 -1.747763e+02 -1.761465e+02 -1.744692e+02 -1.758111e+02 -1.741331e+02 -1.754479e+02 -1.737738e+02 -1.750630e+02 -1.733980e+02 -1.746640e+02 -1.730138e+02 -1.742590e+02 -1.726300e+02 -1.738560e+02 -1.722536e+02 -1.734600e+02 -1.718867e+02 -1.730702e+02 -1.715232e+02 -1.726791e+02 -1.711487e+02 -1.722747e+02 -1.707449e+02 -1.718479e+02 -1.702969e+02 -1.714019e+02 -1.698011e+02 -1.709599e+02 -1.692688e+02 -1.705662e+02 -1.687244e+02 -1.702766e+02 -1.682014e+02 -1.701371e+02 -1.677427e+02 -1.701558e+02 -1.674073e+02 -1.702842e+02 -1.672632e+02 -1.704512e+02 -1.673008e+02 -1.706865e+02 -1.672501e+02 -1.710749e+02 -1.672402e+02 -1.712135e+02 -1.669116e+02 -1.712339e+02 -1.667529e+02 -1.711780e+02 -1.666696e+02 -1.710654e+02 -1.667521e+02 -1.709187e+02 -1.669470e+02 -1.709508e+02 -1.672318e+02 -1.708758e+02 -1.674156e+02 -1.708527e+02 -1.675998e+02 -1.708894e+02 -1.677996e+02 -1.709785e+02 -1.680194e+02 -1.711141e+02 -1.682628e+02 -1.712920e+02 -1.685325e+02 -1.715086e+02 -1.688301e+02 -1.717606e+02 -1.691559e+02 -1.720444e+02 -1.695092e+02 -1.723564e+02 -1.698881e+02 -1.726923e+02 -1.702898e+02 
-1.691080e+02 -1.690487e+02 -1.686533e+02 -1.687314e+02 -1.681913e+02 -1.683963e+02 -1.677281e+02 -1.680480e+02 -1.672699e+02 -1.676916e+02 -1.668234e+02 -1.673321e+02 -1.663949e+02 -1.669749e+02 -1.659905e+02 -1.666252e+02 -1.656159e+02 -1.662879e+02 -1.652759e+02 -1.659678e+02 -1.649747e+02 -1.656692e+02 -1.647156e+02 -1.653957e+02 -1.645009e+02 -1.651509e+02 -1.643323e+02 -1.649375e+02 -1.642106e+02 -1.647581e+02 -1.641358e+02 -1.646148e+02 -1.641077e+02 -1.645095e+02 -1.641255e+02 -1.644438e+02 -1.641881e+02 -1.644191e+02 -1.642945e+02 -1.644365e+02 -1.644432e+02 -1.644965e+02 -1.646323e+02 -1.645990e+02 -1.648594e+02 -1.647430e+02 -1.651211e+02 -1.649258e+02 -1.654126e+02 -1.651433e+02 -1.657273e+02 -1.653896e+02 -1.660566e+02 -1.656567e+02 -1.663898e+02 -1.659348e+02 -1.667149e+02 -1.662130e+02 -1.670192e+02 -1.664795e+02 -1.672913e+02 -1.667234e+02 -1.675229e+02 -1.669361e+02 -1.677121e+02 -1.671162e+02 -1.678669e+02 -1.672725e+02 -1.680070e+02 -1.674252e+02 -1.681618e+02 -1.676001e+02 -1.683622e+02 -1.678186e+02 -1.686325e+02 -1.680880e+02 -1.689841e+02 -1.683985e+02 -1.694152e+02 -1.687275e+02 -1.699127e+02 -1.690462e+02 -1.704544e+02 -1.693146e+02 -1.710138e+02 -1.694626e+02 -1.715695e+02 -1.694035e+02 -1.721009e+02 -1.691526e+02 -1.725051e+02 -1.688971e+02 -1.723172e+02 -1.683625e+02 -1.723598e+02 -1.687006e+02 -1.725350e+02 -1.686512e+02 -1.728657e+02 -1.688910e+02 -1.729770e+02 -1.692536e+02 -1.728681e+02 -1.697213e+02 -1.727854e+02 -1.701783e+02 -1.726145e+02 -1.703744e+02 -1.724198e+02 -1.704835e+02 -1.722085e+02 -1.705310e+02 -1.719743e+02 -1.705249e+02 -1.717130e+02 -1.704711e+02 -1.714226e+02 -1.703740e+02 -1.711024e+02 -1.702370e+02 -1.707531e+02 -1.700629e+02 -1.703761e+02 -1.698542e+02 -1.699739e+02 -1.696136e+02 -1.695498e+02 -1.693440e+02 
-1.729872e+02 -1.706563e+02 -1.733795e+02 -1.711133e+02 -1.737816e+02 -1.715821e+02 -1.741875e+02 -1.720564e+02 -1.745914e+02 -1.725294e+02 -1.749874e+02 -1.729942e+02 -1.753699e+02 -1.734441e+02 -1.757338e+02 -1.738727e+02 -1.760746e+02 -1.742739e+02 -1.763884e+02 -1.746425e+02 -1.766719e+02 -1.749741e+02 -1.769225e+02 -1.752652e+02 -1.771383e+02 -1.755131e+02 -1.773176e+02 -1.757160e+02 -1.774593e+02 -1.758729e+02 -1.775624e+02 -1.759834e+02 -1.776263e+02 -1.760475e+02 -1.776499e+02 -1.760653e+02 -1.776326e+02 -1.760374e+02 -1.775732e+02 -1.759641e+02 -1.774709e+02 -1.758458e+02 -1.773248e+02 -1.756830e+02 -1.771343e+02 -1.754766e+02 -1.768994e+02 -1.752277e+02 -1.766212e+02 -1.749385e+02 -1.763019e+02 -1.746121e+02 -1.759449e+02 -1.742528e+02 -1.755556e+02 -1.738668e+02 -1.751412e+02 -1.734627e+02 -1.747116e+02 -1.730519e+02 -1.742788e+02 -1.726489e+02 -1.738562e+02 -1.722674e+02 -1.734533e+02 -1.719147e+02 -1.730695e+02 -1.715826e+02 -1.726894e+02 -1.712453e+02 -1.722854e+02 -1.708673e+02 -1.718297e+02 -1.704172e+02 -1.713127e+02 -1.698824e+02 -1.707604e+02 -1.692755e+02 -1.702413e+02 -1.686289e+02 -1.698541e+02 -1.679828e+02 -1.696950e+02 -1.673867e+02 -1.697983e+02 -1.669370e+02 -1.700590e+02 -1.668396e+02 -1.702448e+02 -1.672808e+02 -1.704691e+02 -1.671423e+02 -1.714543e+02 -1.675753e+02 -1.714846e+02 -1.665864e+02 -1.714398e+02 -1.664684e+02 -1.713193e+02 -1.662474e+02 -1.711177e+02 -1.664080e+02 -1.706639e+02 -1.666808e+02 -1.710228e+02 -1.672548e+02 -1.707339e+02 -1.673410e+02 -1.706718e+02 -1.675074e+02 -1.707040e+02 -1.676995e+02 -1.707973e+02 -1.679126e+02 -1.709407e+02 -1.681508e+02 -1.711287e+02 -1.684180e+02 -1.713576e+02 -1.687164e+02 -1.716239e+02 -1.690468e+02 -1.719242e+02 -1.694084e+02 -1.722545e+02 -1.697993e+02 -1.726104e+02 -1.702166e+02 
-1.691672e+02 -1.691629e+02 -1.686850e+02 -1.688229e+02 -1.681937e+02 -1.684637e+02 -1.677000e+02 -1.680902e+02 -1.672112e+02 -1.677080e+02 -1.667346e+02 -1.673227e+02 -1.662775e+02 -1.669401e+02 -1.658466e+02 -1.665659e+02 -1.654484e+02 -1.662055e+02 -1.650881e+02 -1.658640e+02 -1.647703e+02 -1.655458e+02 -1.644983e+02 -1.652549e+02 -1.642745e+02 -1.649947e+02 -1.641003e+02 -1.647680e+02 -1.639762e+02 -1.645774e+02 -1.639020e+02 -1.644250e+02 -1.638771e+02 -1.643128e+02 -1.639005e+02 -1.642426e+02 -1.639714e+02 -1.642163e+02 -1.640887e+02 -1.642355e+02 -1.642512e+02 -1.643015e+02 -1.644580e+02 -1.644149e+02 -1.647072e+02 -1.645754e+02 -1.649959e+02 -1.647807e+02 -1.653196e+02 -1.650266e+02 -1.656711e+02 -1.653061e+02 -1.660403e+02 -1.656097e+02 -1.664139e+02 -1.659256e+02 -1.667761e+02 -1.662399e+02 -1.671095e+02 -1.665371e+02 -1.673969e+02 -1.668007e+02 -1.676237e+02 -1.670154e+02 -1.677825e+02 -1.671744e+02 -1.678805e+02 -1.672889e+02 -1.679459e+02 -1.673931e+02 -1.680258e+02 -1.675346e+02 -1.681716e+02 -1.677546e+02 -1.684216e+02 -1.680672e+02 -1.687908e+02 -1.684534e+02 -1.692724e+02 -1.688755e+02 -1.698453e+02 -1.693015e+02 -1.704764e+02 -1.697014e+02 -1.711275e+02 -1.699640e+02 -1.717899e+02 -1.698305e+02 -1.725424e+02 -1.692493e+02 -1.735216e+02 -1.691606e+02 -1.722265e+02 -1.671161e+02 -1.728997e+02 -1.675303e+02 -1.714109e+02 -1.676839e+02 -1.718904e+02 -1.673842e+02 -1.721815e+02 -1.679729e+02 -1.719007e+02 -1.695984e+02 -1.731970e+02 -1.706520e+02 -1.728148e+02 -1.706810e+02 -1.725915e+02 -1.707602e+02 -1.723772e+02 -1.707930e+02 -1.721422e+02 -1.707728e+02 -1.718784e+02 -1.707046e+02 -1.715828e+02 -1.705930e+02 -1.712544e+02 -1.704413e+02 -1.708934e+02 -1.702519e+02 -1.705011e+02 -1.700268e+02 -1.700802e+02 -1.697684e+02 -1.696340e+02 -1.694794e+02 
-1.729126e+02 -1.705855e+02 -1.733332e+02 -1.710696e+02 -1.737646e+02 -1.715683e+02 -1.742002e+02 -1.720743e+02 -1.746333e+02 -1.725799e+02 -1.750575e+02 -1.730774e+02 -1.754664e+02 -1.735589e+02 -1.758547e+02 -1.740170e+02 -1.762172e+02 -1.744451e+02 -1.765500e+02 -1.748372e+02 -1.768498e+02 -1.751886e+02 -1.771142e+02 -1.754956e+02 -1.773412e+02 -1.757557e+02 -1.775298e+02 -1.759673e+02 -1.776792e+02 -1.761299e+02 -1.777887e+02 -1.762434e+02 -1.778580e+02 -1.763086e+02 -1.778863e+02 -1.763259e+02 -1.778729e+02 -1.762962e+02 -1.778165e+02 -1.762198e+02 -1.777157e+02 -1.760970e+02 -1.775687e+02 -1.759277e+02 -1.773740e+02 -1.757117e+02 -1.771306e+02 -1.754495e+02 -1.768385e+02 -1.751420e+02 -1.764988e+02 -1.747916e+02 -1.761146e+02 -1.744021e+02 -1.756909e+02 -1.739797e+02 -1.752357e+02 -1.735340e+02 -1.747614e+02 -1.730807e+02 -1.742861e+02 -1.726429e+02 -1.738332e+02 -1.722487e+02 -1.734236e+02 -1.719183e+02 -1.730615e+02 -1.716436e+02 -1.727209e+02 -1.713802e+02 -1.723461e+02 -1.710610e+02 -1.718730e+02 -1.706241e+02 -1.712620e+02 -1.700412e+02 -1.705352e+02 -1.693313e+02 -1.697956e+02 -1.685452e+02 -1.692162e+02 -1.677249e+02 -1.689990e+02 -1.668887e+02 -1.692842e+02 -1.661104e+02 -1.699030e+02 -1.658684e+02 -1.699914e+02 -1.678369e+02 -1.694957e+02 -1.666931e+02 -1.744628e+02 -1.667366e+02 -1.694933e+02 -1.634350e+02 -1.668893e+02 -1.620354e+02 -1.674458e+02 -1.624263e+02 -1.681495e+02 -1.634938e+02 -1.686928e+02 -1.657610e+02 -1.702695e+02 -1.669247e+02 -1.703628e+02 -1.671840e+02 -1.703943e+02 -1.673877e+02 -1.704568e+02 -1.675781e+02 -1.705663e+02 -1.677813e+02 -1.707234e+02 -1.680109e+02 -1.709257e+02 -1.682735e+02 -1.711705e+02 -1.685723e+02 -1.714548e+02 -1.689079e+02 -1.717754e+02 -1.692796e+02 -1.721282e+02 -1.696855e+02 -1.725090e+02 -1.701223e+02 
-1.692428e+02 -1.693018e+02 -1.687268e+02 -1.689344e+02 -1.681992e+02 -1.685459e+02 -1.676678e+02 -1.681418e+02 -1.671408e+02 -1.677280e+02 -1.666268e+02 -1.673110e+02 -1.661341e+02 -1.668973e+02 -1.656706e+02 -1.664932e+02 -1.652434e+02 -1.661047e+02 -1.648584e+02 -1.657373e+02 -1.645206e+02 -1.653957e+02 -1.642335e+02 -1.650840e+02 -1.639992e+02 -1.648056e+02 -1.638189e+02 -1.645632e+02 -1.636926e+02 -1.643593e+02 -1.636196e+02 -1.641958e+02 -1.635989e+02 -1.640748e+02 -1.636291e+02 -1.639985e+02 -1.637094e+02 -1.639691e+02 -1.638388e+02 -1.639891e+02 -1.640169e+02 -1.640609e+02 -1.642436e+02 -1.641864e+02 -1.645182e+02 -1.643662e+02 -1.648392e+02 -1.645989e+02 -1.652026e+02 -1.648803e+02 -1.656012e+02 -1.652023e+02 -1.660233e+02 -1.655537e+02 -1.664522e+02 -1.659199e+02 -1.668673e+02 -1.662840e+02 -1.672449e+02 -1.666264e+02 -1.675602e+02 -1.669230e+02 -1.677880e+02 -1.671455e+02 -1.679085e+02 -1.672716e+02 -1.679212e+02 -1.673104e+02 -1.678655e+02 -1.673193e+02 -1.678204e+02 -1.673882e+02 -1.678756e+02 -1.675984e+02 -1.680941e+02 -1.679776e+02 -1.684924e+02 -1.684824e+02 -1.690500e+02 -1.690321e+02 -1.697325e+02 -1.695926e+02 -1.704858e+02 -1.702265e+02 -1.712273e+02 -1.708526e+02 -1.719109e+02 -1.706928e+02 -1.727459e+02 -1.688527e+02 -1.780174e+02 -1.676128e+02 -1.624970e+02 -1.632179e+02 -1.680171e+02 -1.607040e+02 -1.685920e+02 -1.626503e+02 -1.696375e+02 -1.645155e+02 -1.707584e+02 -1.664092e+02 -1.715489e+02 -1.689510e+02 -1.726379e+02 -1.704669e+02 -1.728566e+02 -1.709364e+02 -1.727523e+02 -1.710818e+02 -1.725659e+02 -1.711078e+02 -1.723390e+02 -1.710691e+02 -1.720764e+02 -1.709824e+02 -1.717771e+02 -1.708534e+02 -1.714403e+02 -1.706847e+02 -1.710662e+02 -1.704779e+02 -1.706563e+02 -1.702341e+02 -1.702130e+02 -1.699552e+02 -1.697402e+02 -1.696434e+02 
-1.728222e+02 -1.704950e+02 -1.732773e+02 -1.710125e+02 -1.737444e+02 -1.715480e+02 -1.742162e+02 -1.720934e+02 -1.746850e+02 -1.726395e+02 -1.751434e+02 -1.731774e+02 -1.755845e+02 -1.736978e+02 -1.760019e+02 -1.741922e+02 -1.763903e+02 -1.746529e+02 -1.767454e+02 -1.750733e+02 -1.770640e+02 -1.754481e+02 -1.773438e+02 -1.757737e+02 -1.775834e+02 -1.760474e+02 -1.777821e+02 -1.762684e+02 -1.779396e+02 -1.764366e+02 -1.780561e+02 -1.765528e+02 -1.781315e+02 -1.766183e+02 -1.781655e+02 -1.766347e+02 -1.781575e+02 -1.766031e+02 -1.781060e+02 -1.765240e+02 -1.780087e+02 -1.763973e+02 -1.778631e+02 -1.762221e+02 -1.776661e+02 -1.759971e+02 -1.774150e+02 -1.757210e+02 -1.771081e+02 -1.753934e+02 -1.767452e+02 -1.750149e+02 -1.763280e+02 -1.745880e+02 -1.758604e+02 -1.741174e+02 -1.753497e+02 -1.736120e+02 -1.748097e+02 -1.730901e+02 -1.742661e+02 -1.725873e+02 -1.737603e+02 -1.721593e+02 -1.733392e+02 -1.718591e+02 -1.730252e+02 -1.716864e+02 -1.727799e+02 -1.715647e+02 -1.724997e+02 -1.713672e+02 -1.720499e+02 -1.709737e+02 -1.713258e+02 -1.703276e+02 -1.703262e+02 -1.694700e+02 -1.691993e+02 -1.685078e+02 -1.682295e+02 -1.674958e+02 -1.678111e+02 -1.663374e+02 -1.684362e+02 -1.647406e+02 -1.702695e+02 -1.626672e+02 -1.703399e+02 -1.652255e+02 -1.594908e+02 -1.683868e+02 -1.651420e+02 -1.608144e+02 -1.670788e+02 -1.554514e+02 -1.682508e+02 -1.583607e+02 -1.685091e+02 -1.614126e+02 -1.685155e+02 -1.636311e+02 -1.683841e+02 -1.660492e+02 -1.700625e+02 -1.666577e+02 -1.700550e+02 -1.670819e+02 -1.700843e+02 -1.672801e+02 -1.701615e+02 -1.674432e+02 -1.702876e+02 -1.676238e+02 -1.704614e+02 -1.678386e+02 -1.706812e+02 -1.680941e+02 -1.709451e+02 -1.683924e+02 -1.712509e+02 -1.687341e+02 -1.715955e+02 -1.691182e+02 -1.719755e+02 -1.695423e+02 -1.723862e+02 -1.700028e+02 