# vtk DataFile Version 2.0
Comment goes here
ASCII

DATASET STRUCTURED_POINTS
DIMENSIONS    128   128   1

ORIGIN    0.000   0.000   0.000
SPACING   0.0156250.015625   1.000

POINT_DATA   16384
SCALARS P double
LOOKUP_TABLE default

-3.779186e+01 -3.803104e+01 -3.768620e+01 -3.794708e+01 -3.758049e+01 -3.785871e+01 -3.747636e+01 -3.776730e+01 -3.737542e+01 -3.767428e+01 -3.727923e+01 -3.758108e+01 -3.718926e+01 -3.748917e+01 -3.710685e+01 -3.739995e+01 -3.703317e+01 -3.731479e+01 -3.696922e+01 -3.723493e+01 -3.691575e+01 -3.716149e+01 -3.687331e+01 -3.709543e+01 -3.684216e+01 -3.703751e+01 -3.682235e+01 -3.698830e+01 -3.681365e+01 -3.694814e+01 -3.681560e+01 -3.691715e+01 -3.682750e+01 -3.689518e+01 -3.684842e+01 -3.688187e+01 -3.687726e+01 -3.687662e+01 -3.691274e+01 -3.687862e+01 -3.695343e+01 -3.688687e+01 -3.699786e+01 -3.690023e+01 -3.704449e+01 -3.691746e+01 -3.709185e+01 -3.693730e+01 -3.713854e+01 -3.695855e+01 -3.718337e+01 -3.698012e+01 -3.722539e+01 -3.700117e+01 -3.726399e+01 -3.702117e+01 -3.729899e+01 -3.703998e+01 -3.733063e+01 -3.705796e+01 -3.735971e+01 -3.707598e+01 -3.738754e+01 -3.709544e+01 -3.741596e+01 -3.711820e+01 -3.744718e+01 -3.714640e+01 -3.748365e+01 -3.718218e+01 -3.752769e+01 -3.722733e+01 -3.758119e+01 -3.728287e+01 -3.764519e+01 -3.734874e+01 -3.771962e+01 -3.742357e+01 -3.780317e+01 -3.750479e+01 -3.789336e+01 -3.758890e+01 -3.798682e+01 -3.767215e+01 -3.807963e+01 -3.775134e+01 -3.816778e+01 -3.782456e+01 -3.824757e+01 -3.789157e+01 -3.831637e+01 -3.795366e+01 -3.837333e+01 -3.801324e+01 -3.841973e+01 -3.807294e+01 -3.845795e+01 -3.813409e+01 -3.848991e+01 -3.819592e+01 -3.851587e+01 -3.825547e+01 -3.853474e+01 -3.830870e+01 -3.854443e+01 -3.835227e+01 -3.854236e+01 -3.838485e+01 -3.852709e+01 -3.840617e+01 -3.849844e+01 -3.841618e+01 -3.845699e+01 -3.841485e+01 -3.840363e+01 -3.840220e+01 -3.833941e+01 -3.837840e+01 -3.826542e+01 -3.834378e+01 -3.818280e+01 -3.829883e+01 -3.809278e+01 -3.824421e+01 -3.799668e+01 -3.818073e+01 -3.789588e+01 -3.810931e+01 
-3.848999e+01 -3.814661e+01 -3.855787e+01 -3.822700e+01 -3.862782e+01 -3.830762e+01 -3.869896e+01 -3.838745e+01 -3.877035e+01 -3.846541e+01 -3.884105e+01 -3.854048e+01 -3.891013e+01 -3.861164e+01 -3.897666e+01 -3.867796e+01 -3.903978e+01 -3.873861e+01 -3.909869e+01 -3.879286e+01 -3.915266e+01 -3.884012e+01 -3.920103e+01 -3.887994e+01 -3.924326e+01 -3.891202e+01 -3.927890e+01 -3.893617e+01 -3.930759e+01 -3.895236e+01 -3.932904e+01 -3.896065e+01 -3.934307e+01 -3.896118e+01 -3.934956e+01 -3.895419e+01 -3.934844e+01 -3.893993e+01 -3.933970e+01 -3.891868e+01 -3.932338e+01 -3.889072e+01 -3.929957e+01 -3.885631e+01 -3.926841e+01 -3.881571e+01 -3.923007e+01 -3.876913e+01 -3.918485e+01 -3.871684e+01 -3.913311e+01 -3.865910e+01 -3.907535e+01 -3.859628e+01 -3.901222e+01 -3.852884e+01 -3.894452e+01 -3.845740e+01 -3.887319e+01 -3.838273e+01 -3.879926e+01 -3.830570e+01 -3.872382e+01 -3.822724e+01 -3.864789e+01 -3.814825e+01 -3.857245e+01 -3.806951e+01 -3.849837e+01 -3.799173e+01 -3.842653e+01 -3.791560e+01 -3.835793e+01 -3.784184e+01 -3.829366e+01 -3.777134e+01 -3.823490e+01 -3.770506e+01 -3.818270e+01 -3.764390e+01 -3.813765e+01 -3.758859e+01 -3.809982e+01 -3.753960e+01 -3.806886e+01 -3.749709e+01 -3.804424e+01 -3.746116e+01 -3.802557e+01 -3.743201e+01 -3.801235e+01 -3.741025e+01 -3.800364e+01 -3.739672e+01 -3.799815e+01 -3.739171e+01 -3.799499e+01 -3.739508e+01 -3.799422e+01 -3.740602e+01 -3.799706e+01 -3.742326e+01 -3.800484e+01 -3.744499e+01 -3.801755e+01 -3.746972e+01 -3.803342e+01 -3.749788e+01 -3.805189e+01 -3.753066e+01 -3.807356e+01 -3.756897e+01 -3.809934e+01 -3.761318e+01 -3.812998e+01 -3.766327e+01 -3.816595e+01 -3.771904e+01 -3.820745e+01 -3.778012e+01 -3.825442e+01 -3.784609e+01 -3.830663e+01 -3.791640e+01 -3.836367e+01 -3.799043e+01 -3.842500e+01 -3.806745e+01 
-3.779271e+01 -3.803387e+01 -3.768624e+01 -3.794926e+01 -3.757971e+01 -3.786021e+01 -3.747478e+01 -3.776810e+01 -3.737306e+01 -3.767434e+01 -3.727613e+01 -3.758042e+01 -3.718549e+01 -3.748780e+01 -3.710250e+01 -3.739791e+01 -3.702833e+01 -3.731213e+01 -3.696400e+01 -3.723171e+01 -3.691027e+01 -3.715779e+01 -3.686768e+01 -3.709134e+01 -3.683651e+01 -3.703314e+01 -3.681681e+01 -3.698376e+01 -3.680834e+01 -3.694356e+01 -3.681064e+01 -3.691263e+01 -3.682300e+01 -3.689084e+01 -3.684448e+01 -3.687784e+01 -3.687395e+01 -3.687300e+01 -3.691013e+01 -3.687550e+01 -3.695157e+01 -3.688433e+01 -3.699677e+01 -3.689831e+01 -3.704415e+01 -3.691619e+01 -3.709220e+01 -3.693665e+01 -3.713950e+01 -3.695844e+01 -3.718480e+01 -3.698045e+01 -3.722712e+01 -3.700176e+01 -3.726582e+01 -3.702181e+01 -3.730066e+01 -3.704042e+01 -3.733190e+01 -3.705795e+01 -3.736030e+01 -3.707526e+01 -3.738722e+01 -3.709380e+01 -3.741453e+01 -3.711551e+01 -3.744457e+01 -3.714267e+01 -3.747991e+01 -3.717761e+01 -3.752307e+01 -3.722228e+01 -3.757608e+01 -3.727789e+01 -3.764013e+01 -3.734443e+01 -3.771519e+01 -3.742053e+01 -3.779994e+01 -3.750344e+01 -3.789177e+01 -3.758937e+01 -3.798714e+01 -3.767420e+01 -3.808196e+01 -3.775434e+01 -3.817194e+01 -3.782769e+01 -3.825308e+01 -3.789405e+01 -3.832230e+01 -3.795494e+01 -3.837861e+01 -3.801320e+01 -3.842384e+01 -3.807222e+01 -3.846109e+01 -3.813376e+01 -3.849290e+01 -3.819708e+01 -3.851943e+01 -3.825865e+01 -3.853935e+01 -3.831356e+01 -3.855035e+01 -3.835780e+01 -3.854901e+01 -3.839053e+01 -3.853383e+01 -3.841188e+01 -3.850490e+01 -3.842190e+01 -3.846298e+01 -3.842054e+01 -3.840911e+01 -3.840780e+01 -3.834434e+01 -3.838383e+01 -3.826976e+01 -3.834896e+01 -3.818653e+01 -3.830367e+01 -3.809586e+01 -3.824865e+01 -3.799904e+01 -3.818469e+01 -3.789750e+01 -3.811274e+01 
-3.848712e+01 -3.814538e+01 -3.855582e+01 -3.822676e+01 -3.862666e+01 -3.830842e+01 -3.869872e+01 -3.838929e+01 -3.877106e+01 -3.846830e+01 -3.884270e+01 -3.854437e+01 -3.891269e+01 -3.861646e+01 -3.898010e+01 -3.868363e+01 -3.904403e+01 -3.874500e+01 -3.910367e+01 -3.879984e+01 -3.915828e+01 -3.884756e+01 -3.920720e+01 -3.888769e+01 -3.924989e+01 -3.891994e+01 -3.928589e+01 -3.894414e+01 -3.931484e+01 -3.896026e+01 -3.933649e+01 -3.896839e+01 -3.935063e+01 -3.896871e+01 -3.935717e+01 -3.896146e+01 -3.935606e+01 -3.894692e+01 -3.934728e+01 -3.892540e+01 -3.933089e+01 -3.889719e+01 -3.930696e+01 -3.886255e+01 -3.927561e+01 -3.882173e+01 -3.923702e+01 -3.877494e+01 -3.919144e+01 -3.872239e+01 -3.913921e+01 -3.866430e+01 -3.908081e+01 -3.860100e+01 -3.901686e+01 -3.853293e+01 -3.894820e+01 -3.846070e+01 -3.887580e+01 -3.838513e+01 -3.880077e+01 -3.830716e+01 -3.872429e+01 -3.822783e+01 -3.864745e+01 -3.814809e+01 -3.857119e+01 -3.806872e+01 -3.849631e+01 -3.799037e+01 -3.842360e+01 -3.791357e+01 -3.835395e+01 -3.783900e+01 -3.828852e+01 -3.776753e+01 -3.822871e+01 -3.770026e+01 -3.817579e+01 -3.763826e+01 -3.813056e+01 -3.758241e+01 -3.809302e+01 -3.753315e+01 -3.806251e+01 -3.749054e+01 -3.803829e+01 -3.745437e+01 -3.802010e+01 -3.742462e+01 -3.800783e+01 -3.740204e+01 -3.800042e+01 -3.738820e+01 -3.799581e+01 -3.738332e+01 -3.799259e+01 -3.738751e+01 -3.799061e+01 -3.739973e+01 -3.799211e+01 -3.741878e+01 -3.799992e+01 -3.744204e+01 -3.801446e+01 -3.746635e+01 -3.803089e+01 -3.749333e+01 -3.804877e+01 -3.752522e+01 -3.806953e+01 -3.756315e+01 -3.809455e+01 -3.760735e+01 -3.812472e+01 -3.765766e+01 -3.816050e+01 -3.771376e+01 -3.820203e+01 -3.777527e+01 -3.824924e+01 -3.784176e+01 -3.830183e+01 -3.791270e+01 -3.835940e+01 -3.798746e+01 -3.842139e+01 -3.806530e+01 
-3.779523e+01 -3.804244e+01 -3.768633e+01 -3.795589e+01 -3.757735e+01 -3.786479e+01 -3.746997e+01 -3.777052e+01 -3.736589e+01 -3.767457e+01 -3.726675e+01 -3.757846e+01 -3.717409e+01 -3.748370e+01 -3.708932e+01 -3.739177e+01 -3.701367e+01 -3.730410e+01 -3.694818e+01 -3.722200e+01 -3.689365e+01 -3.714664e+01 -3.685064e+01 -3.707903e+01 -3.681943e+01 -3.701997e+01 -3.680006e+01 -3.697008e+01 -3.679229e+01 -3.692970e+01 -3.679564e+01 -3.689897e+01 -3.680938e+01 -3.687774e+01 -3.683253e+01 -3.686564e+01 -3.686395e+01 -3.686204e+01 -3.690226e+01 -3.686606e+01 -3.694598e+01 -3.687664e+01 -3.699350e+01 -3.689254e+01 -3.704318e+01 -3.691237e+01 -3.709337e+01 -3.693473e+01 -3.714254e+01 -3.695822e+01 -3.718932e+01 -3.698156e+01 -3.723259e+01 -3.700371e+01 -3.727160e+01 -3.702395e+01 -3.730602e+01 -3.704202e+01 -3.733603e+01 -3.705818e+01 -3.736241e+01 -3.707334e+01 -3.738653e+01 -3.708903e+01 -3.741045e+01 -3.710748e+01 -3.743680e+01 -3.713136e+01 -3.746860e+01 -3.716357e+01 -3.750892e+01 -3.720668e+01 -3.756034e+01 -3.726238e+01 -3.762447e+01 -3.733097e+01 -3.770146e+01 -3.741100e+01 -3.778988e+01 -3.749926e+01 -3.788678e+01 -3.759105e+01 -3.798808e+01 -3.768096e+01 -3.808911e+01 -3.776413e+01 -3.818495e+01 -3.783780e+01 -3.827052e+01 -3.790202e+01 -3.834114e+01 -3.795888e+01 -3.839501e+01 -3.801239e+01 -3.843592e+01 -3.806900e+01 -3.846966e+01 -3.813164e+01 -3.850119e+01 -3.819997e+01 -3.852959e+01 -3.826850e+01 -3.855290e+01 -3.832914e+01 -3.856866e+01 -3.837492e+01 -3.856957e+01 -3.840768e+01 -3.855442e+01 -3.842899e+01 -3.852441e+01 -3.843907e+01 -3.848103e+01 -3.843769e+01 -3.842555e+01 -3.842471e+01 -3.835912e+01 -3.840023e+01 -3.828281e+01 -3.836458e+01 -3.819774e+01 -3.831829e+01 -3.810509e+01 -3.826204e+01 -3.800617e+01 -3.819666e+01 -3.790238e+01 -3.812309e+01 
-3.848128e+01 -3.814287e+01 -3.855166e+01 -3.822624e+01 -3.862429e+01 -3.831000e+01 -3.869822e+01 -3.839301e+01 -3.877247e+01 -3.847414e+01 -3.884601e+01 -3.855224e+01 -3.891785e+01 -3.862623e+01 -3.898702e+01 -3.869510e+01 -3.905258e+01 -3.875793e+01 -3.911370e+01 -3.881397e+01 -3.916960e+01 -3.886259e+01 -3.921963e+01 -3.890334e+01 -3.926323e+01 -3.893592e+01 -3.929994e+01 -3.896020e+01 -3.932943e+01 -3.897616e+01 -3.935144e+01 -3.898396e+01 -3.936581e+01 -3.898381e+01 -3.937245e+01 -3.897601e+01 -3.937134e+01 -3.896090e+01 -3.936249e+01 -3.893882e+01 -3.934595e+01 -3.891010e+01 -3.932178e+01 -3.887501e+01 -3.929010e+01 -3.883378e+01 -3.925103e+01 -3.878659e+01 -3.920477e+01 -3.873356e+01 -3.915159e+01 -3.867483e+01 -3.909191e+01 -3.861061e+01 -3.902633e+01 -3.854126e+01 -3.895568e+01 -3.846741e+01 -3.888107e+01 -3.838994e+01 -3.880377e+01 -3.831001e+01 -3.872517e+01 -3.822887e+01 -3.864649e+01 -3.814765e+01 -3.856868e+01 -3.806713e+01 -3.849234e+01 -3.798774e+01 -3.841794e+01 -3.790971e+01 -3.834615e+01 -3.783349e+01 -3.827823e+01 -3.775997e+01 -3.821602e+01 -3.769055e+01 -3.816151e+01 -3.762674e+01 -3.811598e+01 -3.756976e+01 -3.807928e+01 -3.752011e+01 -3.804989e+01 -3.747754e+01 -3.802632e+01 -3.744120e+01 -3.800874e+01 -3.741008e+01 -3.799848e+01 -3.738510e+01 -3.799441e+01 -3.737074e+01 -3.799210e+01 -3.736587e+01 -3.798894e+01 -3.737190e+01 -3.798353e+01 -3.738659e+01 -3.798084e+01 -3.741009e+01 -3.798827e+01 -3.743805e+01 -3.800951e+01 -3.746037e+01 -3.802697e+01 -3.748395e+01 -3.804286e+01 -3.751382e+01 -3.806133e+01 -3.755113e+01 -3.808469e+01 -3.759549e+01 -3.811391e+01 -3.764632e+01 -3.814934e+01 -3.770313e+01 -3.819100e+01 -3.776550e+01 -3.823870e+01 -3.783303e+01 -3.829210e+01 -3.790521e+01 -3.835075e+01 -3.798143e+01 -3.841404e+01 -3.806093e+01 
-3.779952e+01 -3.805689e+01 -3.768652e+01 -3.796709e+01 -3.757338e+01 -3.787252e+01 -3.746187e+01 -3.777462e+01 -3.735380e+01 -3.767497e+01 -3.725089e+01 -3.757515e+01 -3.715480e+01 -3.747676e+01 -3.706702e+01 -3.738138e+01 -3.698886e+01 -3.729052e+01 -3.692142e+01 -3.720556e+01 -3.686554e+01 -3.712776e+01 -3.682181e+01 -3.705817e+01 -3.679052e+01 -3.699767e+01 -3.677171e+01 -3.694689e+01 -3.676513e+01 -3.690623e+01 -3.677027e+01 -3.687581e+01 -3.678634e+01 -3.685552e+01 -3.681235e+01 -3.684496e+01 -3.684704e+01 -3.684345e+01 -3.688900e+01 -3.685008e+01 -3.693660e+01 -3.686367e+01 -3.698812e+01 -3.688286e+01 -3.704174e+01 -3.690610e+01 -3.709564e+01 -3.693178e+01 -3.714808e+01 -3.695825e+01 -3.719745e+01 -3.698398e+01 -3.724243e+01 -3.700768e+01 -3.728207e+01 -3.702838e+01 -3.731588e+01 -3.704561e+01 -3.734389e+01 -3.705950e+01 -3.736683e+01 -3.707094e+01 -3.738613e+01 -3.708161e+01 -3.740407e+01 -3.709415e+01 -3.742377e+01 -3.711197e+01 -3.744907e+01 -3.713899e+01 -3.748406e+01 -3.717893e+01 -3.753237e+01 -3.723448e+01 -3.759642e+01 -3.730653e+01 -3.767674e+01 -3.739363e+01 -3.777168e+01 -3.749181e+01 -3.787757e+01 -3.759473e+01 -3.798936e+01 -3.769447e+01 -3.810147e+01 -3.778342e+01 -3.820823e+01 -3.785737e+01 -3.830294e+01 -3.791738e+01 -3.837679e+01 -3.796620e+01 -3.842440e+01 -3.800852e+01 -3.845522e+01 -3.805979e+01 -3.848046e+01 -3.812381e+01 -3.851258e+01 -3.820265e+01 -3.854478e+01 -3.828620e+01 -3.857399e+01 -3.835957e+01 -3.860183e+01 -3.840511e+01 -3.860626e+01 -3.843636e+01 -3.858994e+01 -3.845740e+01 -3.855737e+01 -3.846777e+01 -3.851123e+01 -3.846651e+01 -3.845302e+01 -3.845318e+01 -3.838384e+01 -3.842784e+01 -3.830468e+01 -3.839089e+01 -3.821656e+01 -3.834290e+01 -3.812063e+01 -3.828460e+01 -3.801818e+01 -3.821682e+01 -3.791063e+01 -3.814055e+01 
-3.847232e+01 -3.813892e+01 -3.854525e+01 -3.822536e+01 -3.862062e+01 -3.831233e+01 -3.869741e+01 -3.839863e+01 -3.877458e+01 -3.848301e+01 -3.885103e+01 -3.856424e+01 -3.892570e+01 -3.864113e+01 -3.899754e+01 -3.871260e+01 -3.906559e+01 -3.877768e+01 -3.912895e+01 -3.883553e+01 -3.918681e+01 -3.888552e+01 -3.923851e+01 -3.892719e+01 -3.928346e+01 -3.896024e+01 -3.932124e+01 -3.898458e+01 -3.935150e+01 -3.900026e+01 -3.937404e+01 -3.900749e+01 -3.938872e+01 -3.900657e+01 -3.939550e+01 -3.899789e+01 -3.939438e+01 -3.898186e+01 -3.938541e+01 -3.895890e+01 -3.936865e+01 -3.892940e+01 -3.934417e+01 -3.889366e+01 -3.931204e+01 -3.885189e+01 -3.927233e+01 -3.880418e+01 -3.922514e+01 -3.875056e+01 -3.917062e+01 -3.869099e+01 -3.910906e+01 -3.862547e+01 -3.904099e+01 -3.855423e+01 -3.896725e+01 -3.847783e+01 -3.888911e+01 -3.839730e+01 -3.880817e+01 -3.831416e+01 -3.872621e+01 -3.823012e+01 -3.864480e+01 -3.814669e+01 -3.856492e+01 -3.806469e+01 -3.848676e+01 -3.798411e+01 -3.841010e+01 -3.790452e+01 -3.833501e+01 -3.782581e+01 -3.826277e+01 -3.774885e+01 -3.819614e+01 -3.767567e+01 -3.813866e+01 -3.760873e+01 -3.809284e+01 -3.754996e+01 -3.805833e+01 -3.750005e+01 -3.803150e+01 -3.745836e+01 -3.800840e+01 -3.742283e+01 -3.799011e+01 -3.738947e+01 -3.798302e+01 -3.735761e+01 -3.798671e+01 -3.734386e+01 -3.798931e+01 -3.733757e+01 -3.798754e+01 -3.734761e+01 -3.797369e+01 -3.736460e+01 -3.795938e+01 -3.739686e+01 -3.796275e+01 -3.743970e+01 -3.800838e+01 -3.745316e+01 -3.802466e+01 -3.746833e+01 -3.803444e+01 -3.749505e+01 -3.804831e+01 -3.753212e+01 -3.806901e+01 -3.757724e+01 -3.809696e+01 -3.762907e+01 -3.813203e+01 -3.768697e+01 -3.817398e+01 -3.775062e+01 -3.822250e+01 -3.781968e+01 -3.827717e+01 -3.789371e+01 -3.833747e+01 -3.797212e+01 -3.840277e+01 -3.805416e+01 
-3.780571e+01 -3.807751e+01 -3.768686e+01 -3.798308e+01 -3.756777e+01 -3.788356e+01 -3.745034e+01 -3.778049e+01 -3.733653e+01 -3.767554e+01 -3.722822e+01 -3.757040e+01 -3.712720e+01 -3.746682e+01 -3.703510e+01 -3.736649e+01 -3.695334e+01 -3.727105e+01 -3.688311e+01 -3.718199e+01 -3.682530e+01 -3.710067e+01 -3.678055e+01 -3.702825e+01 -3.674916e+01 -3.696567e+01 -3.673117e+01 -3.691361e+01 -3.672629e+01 -3.687252e+01 -3.673398e+01 -3.684255e+01 -3.675340e+01 -3.682360e+01 -3.678349e+01 -3.681523e+01 -3.682290e+01 -3.681675e+01 -3.687010e+01 -3.682715e+01 -3.692333e+01 -3.684514e+01 -3.698067e+01 -3.686918e+01 -3.704009e+01 -3.689748e+01 -3.709948e+01 -3.692814e+01 -3.715680e+01 -3.695915e+01 -3.721012e+01 -3.698861e+01 -3.725779e+01 -3.701482e+01 -3.729857e+01 -3.703644e+01 -3.733168e+01 -3.705268e+01 -3.735698e+01 -3.706343e+01 -3.737503e+01 -3.706944e+01 -3.738724e+01 -3.707252e+01 -3.739613e+01 -3.707579e+01 -3.740545e+01 -3.708375e+01 -3.742027e+01 -3.710196e+01 -3.744638e+01 -3.713612e+01 -3.748925e+01 -3.719068e+01 -3.755273e+01 -3.726764e+01 -3.763796e+01 -3.736569e+01 -3.774294e+01 -3.747994e+01 -3.786271e+01 -3.760174e+01 -3.799042e+01 -3.771883e+01 -3.811919e+01 -3.781771e+01 -3.824358e+01 -3.789093e+01 -3.835630e+01 -3.794404e+01 -3.843880e+01 -3.798017e+01 -3.847074e+01 -3.799583e+01 -3.848019e+01 -3.803790e+01 -3.848441e+01 -3.810117e+01 -3.852384e+01 -3.820053e+01 -3.856287e+01 -3.831398e+01 -3.859634e+01 -3.841774e+01 -3.865841e+01 -3.844961e+01 -3.866374e+01 -3.847528e+01 -3.864175e+01 -3.849654e+01 -3.860397e+01 -3.850818e+01 -3.855355e+01 -3.850746e+01 -3.849154e+01 -3.849370e+01 -3.841862e+01 -3.846712e+01 -3.833554e+01 -3.842829e+01 -3.824322e+01 -3.837787e+01 -3.814273e+01 -3.831665e+01 -3.803533e+01 -3.824550e+01 -3.792245e+01 -3.816541e+01 
-3.845999e+01 -3.813331e+01 -3.853641e+01 -3.822395e+01 -3.861553e+01 -3.831535e+01 -3.869625e+01 -3.840617e+01 -3.877742e+01 -3.849504e+01 -3.885785e+01 -3.858058e+01 -3.893638e+01 -3.866148e+01 -3.901189e+01 -3.873653e+01 -3.908332e+01 -3.880466e+01 -3.914971e+01 -3.886498e+01 -3.921022e+01 -3.891681e+01 -3.926415e+01 -3.895966e+01 -3.931091e+01 -3.899329e+01 -3.935007e+01 -3.901763e+01 -3.938133e+01 -3.903283e+01 -3.940452e+01 -3.903919e+01 -3.941956e+01 -3.903712e+01 -3.942647e+01 -3.902713e+01 -3.942530e+01 -3.900978e+01 -3.941615e+01 -3.898558e+01 -3.939912e+01 -3.895501e+01 -3.937428e+01 -3.891842e+01 -3.934166e+01 -3.887603e+01 -3.930125e+01 -3.882784e+01 -3.925300e+01 -3.877369e+01 -3.919686e+01 -3.871328e+01 -3.913293e+01 -3.864627e+01 -3.906151e+01 -3.857257e+01 -3.898343e+01 -3.849256e+01 -3.890013e+01 -3.840747e+01 -3.881376e+01 -3.831939e+01 -3.872690e+01 -3.823098e+01 -3.864185e+01 -3.814460e+01 -3.855978e+01 -3.806122e+01 -3.848016e+01 -3.798002e+01 -3.840125e+01 -3.789909e+01 -3.832168e+01 -3.781706e+01 -3.824239e+01 -3.773466e+01 -3.816778e+01 -3.765515e+01 -3.810467e+01 -3.758300e+01 -3.805876e+01 -3.752158e+01 -3.802988e+01 -3.747188e+01 -3.800946e+01 -3.743311e+01 -3.798577e+01 -3.740240e+01 -3.796041e+01 -3.736754e+01 -3.795700e+01 -3.731221e+01 -3.798032e+01 -3.730972e+01 -3.799104e+01 -3.729304e+01 -3.799828e+01 -3.731638e+01 -3.796425e+01 -3.732727e+01 -3.792011e+01 -3.737288e+01 -3.789477e+01 -3.747054e+01 -3.803654e+01 -3.744426e+01 -3.802885e+01 -3.744116e+01 -3.802195e+01 -3.746597e+01 -3.802850e+01 -3.750512e+01 -3.804616e+01 -3.755234e+01 -3.807295e+01 -3.760579e+01 -3.810789e+01 -3.766514e+01 -3.815044e+01 -3.773038e+01 -3.820018e+01 -3.780140e+01 -3.825664e+01 -3.787787e+01 -3.831924e+01 -3.795922e+01 -3.838729e+01 -3.804469e+01 
-3.781403e+01 -3.810466e+01 -3.768747e+01 -3.800417e+01 -3.756049e+01 -3.789815e+01 -3.743521e+01 -3.778826e+01 -3.731377e+01 -3.767629e+01 -3.719827e+01 -3.756412e+01 -3.709070e+01 -3.745364e+01 -3.699286e+01 -3.734674e+01 -3.690632e+01 -3.724520e+01 -3.683239e+01 -3.715070e+01 -3.677204e+01 -3.706472e+01 -3.672595e+01 -3.698853e+01 -3.669444e+01 -3.692316e+01 -3.667753e+01 -3.686940e+01 -3.667491e+01 -3.682771e+01 -3.668598e+01 -3.679832e+01 -3.670984e+01 -3.678110e+01 -3.674532e+01 -3.677565e+01 -3.679101e+01 -3.678120e+01 -3.684521e+01 -3.679667e+01 -3.690600e+01 -3.682063e+01 -3.697123e+01 -3.685132e+01 -3.703857e+01 -3.688664e+01 -3.710555e+01 -3.692430e+01 -3.716970e+01 -3.696181e+01 -3.722866e+01 -3.699674e+01 -3.728031e+01 -3.702680e+01 -3.732298e+01 -3.705015e+01 -3.735556e+01 -3.706550e+01 -3.737758e+01 -3.707236e+01 -3.738933e+01 -3.707115e+01 -3.739199e+01 -3.706357e+01 -3.738810e+01 -3.705314e+01 -3.738209e+01 -3.704577e+01 -3.738075e+01 -3.704961e+01 -3.739263e+01 -3.707364e+01 -3.742631e+01 -3.712532e+01 -3.748809e+01 -3.720847e+01 -3.758020e+01 -3.732223e+01 -3.770000e+01 -3.746099e+01 -3.784025e+01 -3.761370e+01 -3.799054e+01 -3.776146e+01 -3.814135e+01 -3.787774e+01 -3.829073e+01 -3.794475e+01 -3.844012e+01 -3.798799e+01 -3.855171e+01 -3.801495e+01 -3.853989e+01 -3.795702e+01 -3.851065e+01 -3.799500e+01 -3.845322e+01 -3.804243e+01 -3.853544e+01 -3.818422e+01 -3.858630e+01 -3.835120e+01 -3.858972e+01 -3.854745e+01 -3.877165e+01 -3.850031e+01 -3.874851e+01 -3.851861e+01 -3.870938e+01 -3.854533e+01 -3.866323e+01 -3.856099e+01 -3.860753e+01 -3.856153e+01 -3.854102e+01 -3.854711e+01 -3.846360e+01 -3.851873e+01 -3.837571e+01 -3.847731e+01 -3.827810e+01 -3.842369e+01 -3.817178e+01 -3.835868e+01 -3.805797e+01 -3.828315e+01 -3.793816e+01 -3.819809e+01 
-3.844397e+01 -3.812571e+01 -3.852490e+01 -3.822180e+01 -3.860887e+01 -3.831896e+01 -3.869467e+01 -3.841569e+01 -3.878100e+01 -3.851041e+01 -3.886658e+01 -3.860158e+01 -3.895010e+01 -3.868769e+01 -3.903033e+01 -3.876739e+01 -3.910610e+01 -3.883947e+01 -3.917638e+01 -3.890295e+01 -3.924026e+01 -3.895709e+01 -3.929698e+01 -3.900140e+01 -3.934598e+01 -3.903566e+01 -3.938683e+01 -3.905987e+01 -3.941927e+01 -3.907429e+01 -3.944319e+01 -3.907935e+01 -3.945858e+01 -3.907562e+01 -3.946555e+01 -3.906380e+01 -3.946425e+01 -3.904459e+01 -3.945484e+01 -3.901869e+01 -3.943748e+01 -3.898672e+01 -3.941228e+01 -3.894912e+01 -3.937922e+01 -3.890612e+01 -3.933820e+01 -3.885767e+01 -3.928897e+01 -3.880335e+01 -3.923120e+01 -3.874246e+01 -3.916458e+01 -3.867410e+01 -3.908905e+01 -3.859753e+01 -3.900516e+01 -3.851271e+01 -3.891454e+01 -3.842093e+01 -3.882017e+01 -3.832527e+01 -3.872613e+01 -3.823021e+01 -3.863635e+01 -3.813998e+01 -3.855272e+01 -3.805616e+01 -3.847349e+01 -3.797637e+01 -3.839384e+01 -3.789558e+01 -3.830894e+01 -3.780959e+01 -3.821828e+01 -3.771852e+01 -3.812884e+01 -3.762814e+01 -3.805423e+01 -3.754717e+01 -3.800815e+01 -3.748186e+01 -3.799326e+01 -3.743298e+01 -3.799087e+01 -3.740000e+01 -3.796503e+01 -3.738640e+01 -3.790913e+01 -3.736651e+01 -3.790481e+01 -3.721446e+01 -3.798696e+01 -3.729017e+01 -3.799660e+01 -3.720870e+01 -3.805037e+01 -3.729763e+01 -3.796489e+01 -3.725511e+01 -3.786182e+01 -3.729662e+01 -3.765901e+01 -3.762459e+01 -3.821403e+01 -3.741224e+01 -3.803224e+01 -3.738608e+01 -3.799601e+01 -3.742257e+01 -3.799761e+01 -3.747007e+01 -3.801423e+01 -3.752127e+01 -3.804084e+01 -3.757668e+01 -3.807619e+01 -3.763748e+01 -3.811978e+01 -3.770442e+01 -3.817121e+01 -3.777772e+01 -3.823001e+01 -3.785717e+01 -3.829558e+01 -3.794224e+01 -3.836719e+01 -3.803211e+01 
-3.782481e+01 -3.813887e+01 -3.768850e+01 -3.803082e+01 -3.755153e+01 -3.791663e+01 -3.741625e+01 -3.779812e+01 -3.728509e+01 -3.767727e+01 -3.716041e+01 -3.755615e+01 -3.704448e+01 -3.743690e+01 -3.693933e+01 -3.732163e+01 -3.684672e+01 -3.721235e+01 -3.676810e+01 -3.711092e+01 -3.670456e+01 -3.701900e+01 -3.665680e+01 -3.693801e+01 -3.662516e+01 -3.686910e+01 -3.660964e+01 -3.681313e+01 -3.660989e+01 -3.677067e+01 -3.662522e+01 -3.674195e+01 -3.665468e+01 -3.672690e+01 -3.669701e+01 -3.672511e+01 -3.675066e+01 -3.673580e+01 -3.681381e+01 -3.675779e+01 -3.688433e+01 -3.678951e+01 -3.695981e+01 -3.682895e+01 -3.703756e+01 -3.687367e+01 -3.711466e+01 -3.692084e+01 -3.718808e+01 -3.696738e+01 -3.725483e+01 -3.701008e+01 -3.731219e+01 -3.704591e+01 -3.735791e+01 -3.707227e+01 -3.739042e+01 -3.708726e+01 -3.740889e+01 -3.708980e+01 -3.741315e+01 -3.707970e+01 -3.740378e+01 -3.705799e+01 -3.738273e+01 -3.702802e+01 -3.735472e+01 -3.699729e+01 -3.732879e+01 -3.697792e+01 -3.731799e+01 -3.698448e+01 -3.733629e+01 -3.702956e+01 -3.739424e+01 -3.711977e+01 -3.749580e+01 -3.725471e+01 -3.763742e+01 -3.742872e+01 -3.780822e+01 -3.763089e+01 -3.799031e+01 -3.783569e+01 -3.816512e+01 -3.798729e+01 -3.833824e+01 -3.802279e+01 -3.856227e+01 -3.804893e+01 -3.878886e+01 -3.813539e+01 -3.862708e+01 -3.782457e+01 -3.861184e+01 -3.764712e+01 -3.751304e+01 -3.707734e+01 -3.731902e+01 -3.687925e+01 -3.740676e+01 -3.721446e+01 -3.751135e+01 -3.826590e+01 -3.905172e+01 -3.848594e+01 -3.884935e+01 -3.855355e+01 -3.878402e+01 -3.860519e+01 -3.873209e+01 -3.862899e+01 -3.867237e+01 -3.863060e+01 -3.860147e+01 -3.861456e+01 -3.851912e+01 -3.858342e+01 -3.842566e+01 -3.853858e+01 -3.832176e+01 -3.848093e+01 -3.820835e+01 -3.841126e+01 -3.808666e+01 -3.833036e+01 -3.795821e+01 -3.823918e+01 
-3.842382e+01 -3.811566e+01 -3.851039e+01 -3.821860e+01 -3.860042e+01 -3.832304e+01 -3.869256e+01 -3.842723e+01 -3.878537e+01 -3.852937e+01 -3.887739e+01 -3.862765e+01 -3.896715e+01 -3.872035e+01 -3.905325e+01 -3.880590e+01 -3.913442e+01 -3.888291e+01 -3.920949e+01 -3.895030e+01 -3.927747e+01 -3.900724e+01 -3.933759e+01 -3.905324e+01 -3.938924e+01 -3.908811e+01 -3.943204e+01 -3.911195e+01 -3.946578e+01 -3.912516e+01 -3.949042e+01 -3.912834e+01 -3.950608e+01 -3.912229e+01 -3.951298e+01 -3.910792e+01 -3.951137e+01 -3.908617e+01 -3.950157e+01 -3.905799e+01 -3.948383e+01 -3.902420e+01 -3.945829e+01 -3.898541e+01 -3.942497e+01 -3.894194e+01 -3.938364e+01 -3.889368e+01 -3.933385e+01 -3.883998e+01 -3.927482e+01 -3.877956e+01 -3.920564e+01 -3.871064e+01 -3.912546e+01 -3.863129e+01 -3.903415e+01 -3.854035e+01 -3.893323e+01 -3.843881e+01 -3.882680e+01 -3.833112e+01 -3.872165e+01 -3.822521e+01 -3.862535e+01 -3.812963e+01 -3.854201e+01 -3.804786e+01 -3.846810e+01 -3.797464e+01 -3.839266e+01 -3.789834e+01 -3.830308e+01 -3.780837e+01 -3.819418e+01 -3.770292e+01 -3.807628e+01 -3.759286e+01 -3.797633e+01 -3.749658e+01 -3.792706e+01 -3.742624e+01 -3.794456e+01 -3.737857e+01 -3.799616e+01 -3.734810e+01 -3.797497e+01 -3.737741e+01 -3.780706e+01 -3.749867e+01 -3.776757e+01 -3.689585e+01 -3.849842e+01 -3.595277e+01 -3.468005e+01 -3.396147e+01 -3.343648e+01 -3.303823e+01 -3.401607e+01 -3.360155e+01 -3.492295e+01 -3.470461e+01 -3.586948e+01 -3.623337e+01 -3.772710e+01 -3.704474e+01 -3.789067e+01 -3.726860e+01 -3.793231e+01 -3.736821e+01 -3.795174e+01 -3.743139e+01 -3.797238e+01 -3.748608e+01 -3.800008e+01 -3.754223e+01 -3.803632e+01 -3.760374e+01 -3.808133e+01 -3.767216e+01 -3.813492e+01 -3.774793e+01 -3.819665e+01 -3.783091e+01 -3.826593e+01 -3.792051e+01 -3.834196e+01 -3.801582e+01 
-3.783853e+01 -3.818086e+01 -3.769024e+01 -3.806363e+01 -3.754089e+01 -3.793946e+01 -3.739320e+01 -3.781035e+01 -3.724993e+01 -3.767852e+01 -3.711384e+01 -3.754633e+01 -3.698751e+01 -3.741621e+01 -3.687328e+01 -3.729056e+01 -3.677316e+01 -3.717168e+01 -3.668878e+01 -3.706167e+01 -3.662133e+01 -3.696240e+01 -3.657156e+01 -3.687546e+01 -3.653982e+01 -3.680215e+01 -3.652605e+01 -3.674343e+01 -3.652983e+01 -3.669993e+01 -3.655041e+01 -3.667198e+01 -3.658674e+01 -3.665952e+01 -3.663746e+01 -3.666219e+01 -3.670092e+01 -3.667919e+01 -3.677515e+01 -3.670931e+01 -3.685785e+01 -3.675084e+01 -3.694632e+01 -3.680153e+01 -3.703746e+01 -3.685853e+01 -3.712779e+01 -3.691841e+01 -3.721356e+01 -3.697725e+01 -3.729093e+01 -3.703085e+01 -3.735630e+01 -3.707511e+01 -3.740670e+01 -3.710644e+01 -3.744003e+01 -3.712216e+01 -3.745511e+01 -3.712057e+01 -3.745130e+01 -3.710056e+01 -3.742797e+01 -3.706139e+01 -3.738508e+01 -3.700447e+01 -3.732609e+01 -3.693832e+01 -3.726264e+01 -3.688135e+01 -3.721536e+01 -3.685796e+01 -3.720789e+01 -3.688999e+01 -3.725816e+01 -3.698777e+01 -3.737272e+01 -3.714938e+01 -3.754674e+01 -3.736910e+01 -3.776545e+01 -3.764576e+01 -3.799758e+01 -3.796339e+01 -3.819115e+01 -3.821386e+01 -3.833602e+01 -3.811134e+01 -3.868310e+01 -3.805234e+01 -3.960494e+01 -3.591708e+01 -3.339047e+01 -3.259364e+01 -3.141485e+01 -3.161714e+01 -3.273225e+01 -3.267711e+01 -3.420898e+01 -3.414096e+01 -3.558036e+01 -3.566953e+01 -3.682165e+01 -3.725029e+01 -3.850033e+01 -3.832381e+01 -3.881442e+01 -3.860501e+01 -3.884547e+01 -3.869303e+01 -3.880884e+01 -3.871926e+01 -3.874846e+01 -3.871739e+01 -3.867346e+01 -3.869720e+01 -3.858581e+01 -3.866189e+01 -3.848611e+01 -3.861270e+01 -3.837497e+01 -3.855027e+01 -3.825324e+01 -3.847512e+01 -3.812214e+01 -3.838788e+01 -3.798326e+01 -3.828942e+01 
-3.839900e+01 -3.810254e+01 -3.849245e+01 -3.821395e+01 -3.858990e+01 -3.832741e+01 -3.868983e+01 -3.844087e+01 -3.879058e+01 -3.855223e+01 -3.889049e+01 -3.865935e+01 -3.898789e+01 -3.876021e+01 -3.908117e+01 -3.885297e+01 -3.916888e+01 -3.893604e+01 -3.924972e+01 -3.900814e+01 -3.932261e+01 -3.906839e+01 -3.938672e+01 -3.911627e+01 -3.944143e+01 -3.915164e+01 -3.948638e+01 -3.917473e+01 -3.952145e+01 -3.918613e+01 -3.954672e+01 -3.918666e+01 -3.956244e+01 -3.917739e+01 -3.956899e+01 -3.915952e+01 -3.956683e+01 -3.913434e+01 -3.955641e+01 -3.910309e+01 -3.953816e+01 -3.906690e+01 -3.951236e+01 -3.902668e+01 -3.947906e+01 -3.898294e+01 -3.943802e+01 -3.893565e+01 -3.938852e+01 -3.888395e+01 -3.932929e+01 -3.882591e+01 -3.925847e+01 -3.875841e+01 -3.917383e+01 -3.867746e+01 -3.907360e+01 -3.857943e+01 -3.895826e+01 -3.846365e+01 -3.883293e+01 -3.833595e+01 -3.870911e+01 -3.821068e+01 -3.860224e+01 -3.810635e+01 -3.852277e+01 -3.803200e+01 -3.846525e+01 -3.797703e+01 -3.840674e+01 -3.791597e+01 -3.831778e+01 -3.782398e+01 -3.818049e+01 -3.769344e+01 -3.800731e+01 -3.754529e+01 -3.784909e+01 -3.742118e+01 -3.778003e+01 -3.734859e+01 -3.786234e+01 -3.730783e+01 -3.807554e+01 -3.723856e+01 -3.813376e+01 -3.727878e+01 -3.759963e+01 -3.631455e+01 -3.462428e+01 -3.228058e+01 -2.860909e+01 -2.864955e+01 -3.029990e+01 -2.954870e+01 -3.214910e+01 -3.171024e+01 -3.397511e+01 -3.351209e+01 -3.521942e+01 -3.498473e+01 -3.609048e+01 -3.649656e+01 -3.782257e+01 -3.711564e+01 -3.787291e+01 -3.727625e+01 -3.789125e+01 -3.735048e+01 -3.790481e+01 -3.740133e+01 -3.792356e+01 -3.744951e+01 -3.795086e+01 -3.750250e+01 -3.798775e+01 -3.756317e+01 -3.803437e+01 -3.763260e+01 -3.809054e+01 -3.771100e+01 -3.815581e+01 -3.779807e+01 -3.822956e+01 -3.789311e+01 -3.831096e+01 -3.799505e+01 