# vtk DataFile Version 2.0
Comment goes here
ASCII

DATASET STRUCTURED_POINTS
DIMENSIONS    128   128   1

ORIGIN    0.000   0.000   0.000
SPACING   0.0156250.015625   1.000

POINT_DATA   16384
SCALARS P double
LOOKUP_TABLE default

-2.913519e+02 -2.911917e+02 -2.908238e+02 -2.907953e+02 -2.902952e+02 -2.903785e+02 -2.897711e+02 -2.899475e+02 -2.892566e+02 -2.895085e+02 -2.887569e+02 -2.890680e+02 -2.882773e+02 -2.886322e+02 -2.878225e+02 -2.882072e+02 -2.873974e+02 -2.877988e+02 -2.870060e+02 -2.874126e+02 -2.866522e+02 -2.870536e+02 -2.863393e+02 -2.867264e+02 -2.860700e+02 -2.864351e+02 -2.858468e+02 -2.861832e+02 -2.856716e+02 -2.859738e+02 -2.855457e+02 -2.858096e+02 -2.854702e+02 -2.856925e+02 -2.854460e+02 -2.856241e+02 -2.854731e+02 -2.856053e+02 -2.855515e+02 -2.856363e+02 -2.856805e+02 -2.857167e+02 -2.858587e+02 -2.858452e+02 -2.860839e+02 -2.860192e+02 -2.863529e+02 -2.862352e+02 -2.866612e+02 -2.864880e+02 -2.870030e+02 -2.867711e+02 -2.873713e+02 -2.870766e+02 -2.877579e+02 -2.873955e+02 -2.881538e+02 -2.877180e+02 -2.885505e+02 -2.880353e+02 -2.889408e+02 -2.883396e+02 -2.893200e+02 -2.886259e+02 -2.896871e+02 -2.888927e+02 -2.900451e+02 -2.891415e+02 -2.904008e+02 -2.893763e+02 -2.907637e+02 -2.896021e+02 -2.911439e+02 -2.898233e+02 -2.915502e+02 -2.900419e+02 -2.919876e+02 -2.902567e+02 -2.924558e+02 -2.904640e+02 -2.929482e+02 -2.906580e+02 -2.934524e+02 -2.908323e+02 -2.939516e+02 -2.909825e+02 -2.944271e+02 -2.911079e+02 -2.948611e+02 -2.912141e+02 -2.952399e+02 -2.913139e+02 -2.955566e+02 -2.914246e+02 -2.958130e+02 -2.915601e+02 -2.960135e+02 -2.917240e+02 -2.961538e+02 -2.919168e+02 -2.962220e+02 -2.921326e+02 -2.962087e+02 -2.923570e+02 -2.961119e+02 -2.925695e+02 -2.959373e+02 -2.927495e+02 -2.956957e+02 -2.928818e+02 -2.953990e+02 -2.929577e+02 -2.950574e+02 -2.929736e+02 -2.946786e+02 -2.929291e+02 -2.942684e+02 -2.928261e+02 -2.938308e+02 -2.926676e+02 -2.933693e+02 -2.924573e+02 -2.928872e+02 -2.921997e+02 -2.923877e+02 -2.918995e+02 -2.918746e+02 -2.915616e+02 
-2.990399e+02 -2.966026e+02 -2.994856e+02 -2.971373e+02 -2.999461e+02 -2.976774e+02 -3.004149e+02 -2.982181e+02 -3.008856e+02 -2.987544e+02 -3.013518e+02 -2.992810e+02 -3.018074e+02 -2.997925e+02 -3.022463e+02 -3.002837e+02 -3.026631e+02 -3.007496e+02 -3.030527e+02 -3.011855e+02 -3.034104e+02 -3.015867e+02 -3.037322e+02 -3.019493e+02 -3.040144e+02 -3.022697e+02 -3.042541e+02 -3.025445e+02 -3.044485e+02 -3.027709e+02 -3.045954e+02 -3.029462e+02 -3.046932e+02 -3.030684e+02 -3.047403e+02 -3.031357e+02 -3.047359e+02 -3.031466e+02 -3.046795e+02 -3.031003e+02 -3.045713e+02 -3.029966e+02 -3.044124e+02 -3.028359e+02 -3.042043e+02 -3.026198e+02 -3.039499e+02 -3.023504e+02 -3.036526e+02 -3.020312e+02 -3.033169e+02 -3.016661e+02 -3.029475e+02 -3.012595e+02 -3.025491e+02 -3.008161e+02 -3.021263e+02 -3.003398e+02 -3.016825e+02 -2.998342e+02 -3.012205e+02 -2.993013e+02 -3.007417e+02 -2.987418e+02 -3.002469e+02 -2.981554e+02 -2.997371e+02 -2.975412e+02 -2.992147e+02 -2.968991e+02 -2.986855e+02 -2.962319e+02 -2.981599e+02 -2.955468e+02 -2.976539e+02 -2.948569e+02 -2.971882e+02 -2.941810e+02 -2.967849e+02 -2.935417e+02 -2.964629e+02 -2.929627e+02 -2.962337e+02 -2.924644e+02 -2.960975e+02 -2.920598e+02 -2.960444e+02 -2.917500e+02 -2.960574e+02 -2.915226e+02 -2.961161e+02 -2.913567e+02 -2.961986e+02 -2.912352e+02 -2.962821e+02 -2.911543e+02 -2.963507e+02 -2.911235e+02 -2.963998e+02 -2.911544e+02 -2.964306e+02 -2.912548e+02 -2.964479e+02 -2.914231e+02 -2.964587e+02 -2.916497e+02 -2.964725e+02 -2.919211e+02 -2.965027e+02 -2.922269e+02 -2.965625e+02 -2.925612e+02 -2.966619e+02 -2.929209e+02 -2.968068e+02 -2.933049e+02 -2.969994e+02 -2.937125e+02 -2.972395e+02 -2.941435e+02 -2.975250e+02 -2.945971e+02 -2.978524e+02 -2.950720e+02 -2.982176e+02 -2.955664e+02 -2.986152e+02 -2.960777e+02 
-2.913546e+02 -2.912049e+02 -2.908242e+02 -2.908055e+02 -2.902931e+02 -2.903856e+02 -2.897664e+02 -2.899515e+02 -2.892493e+02 -2.895094e+02 -2.887471e+02 -2.890657e+02 -2.882651e+02 -2.886269e+02 -2.878080e+02 -2.881990e+02 -2.873808e+02 -2.877879e+02 -2.869875e+02 -2.873992e+02 -2.866321e+02 -2.870379e+02 -2.863177e+02 -2.867087e+02 -2.860473e+02 -2.864156e+02 -2.858232e+02 -2.861622e+02 -2.856473e+02 -2.859516e+02 -2.855209e+02 -2.857865e+02 -2.854452e+02 -2.856687e+02 -2.854210e+02 -2.856000e+02 -2.854484e+02 -2.855813e+02 -2.855275e+02 -2.856130e+02 -2.856575e+02 -2.856945e+02 -2.858373e+02 -2.858247e+02 -2.860647e+02 -2.860011e+02 -2.863364e+02 -2.862202e+02 -2.866481e+02 -2.864767e+02 -2.869939e+02 -2.867640e+02 -2.873663e+02 -2.870739e+02 -2.877570e+02 -2.873970e+02 -2.881565e+02 -2.877234e+02 -2.885559e+02 -2.880434e+02 -2.889476e+02 -2.883493e+02 -2.893265e+02 -2.886360e+02 -2.896918e+02 -2.889020e+02 -2.900467e+02 -2.891494e+02 -2.903988e+02 -2.893833e+02 -2.907586e+02 -2.896094e+02 -2.911370e+02 -2.898324e+02 -2.915436e+02 -2.900542e+02 -2.919837e+02 -2.902731e+02 -2.924567e+02 -2.904843e+02 -2.929555e+02 -2.906808e+02 -2.934668e+02 -2.908554e+02 -2.939729e+02 -2.910031e+02 -2.944542e+02 -2.911227e+02 -2.948924e+02 -2.912202e+02 -2.952726e+02 -2.913100e+02 -2.955873e+02 -2.914129e+02 -2.958412e+02 -2.915463e+02 -2.960436e+02 -2.917098e+02 -2.961897e+02 -2.919054e+02 -2.962627e+02 -2.921285e+02 -2.962503e+02 -2.923632e+02 -2.961509e+02 -2.925861e+02 -2.959710e+02 -2.927736e+02 -2.957234e+02 -2.929102e+02 -2.954216e+02 -2.929879e+02 -2.950761e+02 -2.930038e+02 -2.946945e+02 -2.929584e+02 -2.942821e+02 -2.928538e+02 -2.938427e+02 -2.926934e+02 -2.933796e+02 -2.924809e+02 -2.928958e+02 -2.922210e+02 -2.923946e+02 -2.919182e+02 -2.918795e+02 -2.915777e+02 
-2.990190e+02 -2.965929e+02 -2.994710e+02 -2.971320e+02 -2.999379e+02 -2.976770e+02 -3.004133e+02 -2.982229e+02 -3.008904e+02 -2.987645e+02 -3.013630e+02 -2.992964e+02 -3.018245e+02 -2.998132e+02 -3.022690e+02 -3.003096e+02 -3.026910e+02 -3.007803e+02 -3.030852e+02 -3.012206e+02 -3.034470e+02 -3.016260e+02 -3.037724e+02 -3.019923e+02 -3.040578e+02 -3.023160e+02 -3.043002e+02 -3.025938e+02 -3.044969e+02 -3.028228e+02 -3.046458e+02 -3.030005e+02 -3.047451e+02 -3.031248e+02 -3.047935e+02 -3.031939e+02 -3.047900e+02 -3.032062e+02 -3.047341e+02 -3.031610e+02 -3.046258e+02 -3.030576e+02 -3.044661e+02 -3.028967e+02 -3.042565e+02 -3.026793e+02 -3.039997e+02 -3.024078e+02 -3.036992e+02 -3.020854e+02 -3.033593e+02 -3.017161e+02 -3.029850e+02 -3.013047e+02 -3.025814e+02 -3.008559e+02 -3.021535e+02 -3.003746e+02 -3.017051e+02 -2.998647e+02 -3.012394e+02 -2.993290e+02 -3.007581e+02 -2.987686e+02 -3.002615e+02 -2.981830e+02 -2.997498e+02 -2.975702e+02 -2.992239e+02 -2.969285e+02 -2.986881e+02 -2.962587e+02 -2.981517e+02 -2.955662e+02 -2.976309e+02 -2.948633e+02 -2.971484e+02 -2.941692e+02 -2.967296e+02 -2.935086e+02 -2.963972e+02 -2.929083e+02 -2.961651e+02 -2.923933e+02 -2.960339e+02 -2.919818e+02 -2.959918e+02 -2.916782e+02 -2.960194e+02 -2.914668e+02 -2.960960e+02 -2.913152e+02 -2.961991e+02 -2.911959e+02 -2.962975e+02 -2.911049e+02 -2.963702e+02 -2.910622e+02 -2.964178e+02 -2.910852e+02 -2.964440e+02 -2.911868e+02 -2.964542e+02 -2.913652e+02 -2.964559e+02 -2.916055e+02 -2.964564e+02 -2.918872e+02 -2.964735e+02 -2.921990e+02 -2.965234e+02 -2.925361e+02 -2.966168e+02 -2.928970e+02 -2.967592e+02 -2.932814e+02 -2.969520e+02 -2.936894e+02 -2.971942e+02 -2.941210e+02 -2.974831e+02 -2.945758e+02 -2.978149e+02 -2.950526e+02 -2.981851e+02 -2.955496e+02 -2.985883e+02 -2.960641e+02 
-2.913629e+02 -2.912447e+02 -2.908254e+02 -2.908364e+02 -2.902868e+02 -2.904073e+02 -2.897524e+02 -2.899637e+02 -2.892275e+02 -2.895121e+02 -2.887177e+02 -2.890591e+02 -2.882282e+02 -2.886111e+02 -2.877643e+02 -2.881745e+02 -2.873307e+02 -2.877552e+02 -2.869318e+02 -2.873589e+02 -2.865714e+02 -2.869908e+02 -2.862529e+02 -2.866555e+02 -2.859791e+02 -2.863571e+02 -2.857522e+02 -2.860992e+02 -2.855742e+02 -2.858849e+02 -2.854464e+02 -2.857169e+02 -2.853700e+02 -2.855973e+02 -2.853457e+02 -2.855277e+02 -2.853740e+02 -2.855093e+02 -2.854550e+02 -2.855426e+02 -2.855882e+02 -2.856275e+02 -2.857727e+02 -2.857629e+02 -2.860065e+02 -2.859465e+02 -2.862867e+02 -2.861749e+02 -2.866087e+02 -2.864426e+02 -2.869663e+02 -2.867427e+02 -2.873515e+02 -2.870661e+02 -2.877549e+02 -2.874025e+02 -2.881658e+02 -2.877405e+02 -2.885737e+02 -2.880693e+02 -2.889696e+02 -2.883799e+02 -2.893477e+02 -2.886671e+02 -2.897069e+02 -2.889300e+02 -2.900519e+02 -2.891728e+02 -2.903923e+02 -2.894030e+02 -2.907417e+02 -2.896292e+02 -2.911142e+02 -2.898576e+02 -2.915214e+02 -2.900899e+02 -2.919698e+02 -2.903223e+02 -2.924581e+02 -2.905462e+02 -2.929772e+02 -2.907511e+02 -2.935107e+02 -2.909273e+02 -2.940378e+02 -2.910675e+02 -2.945371e+02 -2.911694e+02 -2.949887e+02 -2.912388e+02 -2.953740e+02 -2.912947e+02 -2.956803e+02 -2.913714e+02 -2.959210e+02 -2.915026e+02 -2.961302e+02 -2.916635e+02 -2.962986e+02 -2.918665e+02 -2.963884e+02 -2.921126e+02 -2.963788e+02 -2.923813e+02 -2.962706e+02 -2.926383e+02 -2.960727e+02 -2.928492e+02 -2.958060e+02 -2.929981e+02 -2.954882e+02 -2.930801e+02 -2.951311e+02 -2.930956e+02 -2.947413e+02 -2.930469e+02 -2.943228e+02 -2.929375e+02 -2.938784e+02 -2.927711e+02 -2.934106e+02 -2.925522e+02 -2.929220e+02 -2.922851e+02 -2.924154e+02 -2.919747e+02 -2.918944e+02 -2.916261e+02 
-2.989768e+02 -2.965729e+02 -2.994415e+02 -2.971210e+02 -2.999215e+02 -2.976757e+02 -3.004100e+02 -2.982321e+02 -3.009002e+02 -2.987845e+02 -3.013854e+02 -2.993274e+02 -3.018590e+02 -2.998549e+02 -3.023148e+02 -3.003616e+02 -3.027471e+02 -3.008420e+02 -3.031506e+02 -3.012913e+02 -3.035207e+02 -3.017049e+02 -3.038533e+02 -3.020787e+02 -3.041450e+02 -3.024090e+02 -3.043926e+02 -3.026926e+02 -3.045939e+02 -3.029269e+02 -3.047466e+02 -3.031093e+02 -3.048491e+02 -3.032378e+02 -3.049001e+02 -3.033105e+02 -3.048985e+02 -3.033258e+02 -3.048436e+02 -3.032826e+02 -3.047353e+02 -3.031803e+02 -3.045743e+02 -3.030189e+02 -3.043617e+02 -3.027994e+02 -3.041001e+02 -3.025236e+02 -3.037929e+02 -3.021947e+02 -3.034445e+02 -3.018169e+02 -3.030602e+02 -3.013951e+02 -3.026457e+02 -3.009351e+02 -3.022069e+02 -3.004428e+02 -3.017488e+02 -2.999236e+02 -3.012755e+02 -2.993818e+02 -3.007892e+02 -2.988198e+02 -3.002899e+02 -2.982365e+02 -2.997758e+02 -2.976282e+02 -2.992446e+02 -2.969893e+02 -2.986966e+02 -2.963159e+02 -2.981384e+02 -2.956095e+02 -2.975864e+02 -2.948803e+02 -2.970672e+02 -2.941484e+02 -2.966139e+02 -2.934421e+02 -2.962583e+02 -2.927947e+02 -2.960204e+02 -2.922412e+02 -2.959010e+02 -2.918125e+02 -2.958827e+02 -2.915242e+02 -2.959395e+02 -2.913559e+02 -2.960524e+02 -2.912428e+02 -2.962050e+02 -2.911286e+02 -2.963388e+02 -2.910073e+02 -2.964148e+02 -2.909347e+02 -2.964569e+02 -2.909372e+02 -2.964729e+02 -2.910416e+02 -2.964688e+02 -2.912453e+02 -2.964540e+02 -2.915199e+02 -2.964242e+02 -2.918236e+02 -2.964119e+02 -2.921463e+02 -2.964410e+02 -2.924878e+02 -2.965231e+02 -2.928498e+02 -2.966614e+02 -2.932343e+02 -2.968554e+02 -2.936427e+02 -2.971022e+02 -2.940754e+02 -2.973983e+02 -2.945326e+02 -2.977390e+02 -2.950131e+02 -2.981195e+02 -2.955152e+02 -2.985340e+02 -2.960363e+02 
-2.913773e+02 -2.913116e+02 -2.908278e+02 -2.908884e+02 -2.902766e+02 -2.904437e+02 -2.897291e+02 -2.899842e+02 -2.891910e+02 -2.895167e+02 -2.886682e+02 -2.890478e+02 -2.881663e+02 -2.885845e+02 -2.876907e+02 -2.881332e+02 -2.872465e+02 -2.877001e+02 -2.868381e+02 -2.872912e+02 -2.864695e+02 -2.869115e+02 -2.861440e+02 -2.865660e+02 -2.858645e+02 -2.862587e+02 -2.856331e+02 -2.859932e+02 -2.854516e+02 -2.857728e+02 -2.853215e+02 -2.856000e+02 -2.852437e+02 -2.854770e+02 -2.852193e+02 -2.854058e+02 -2.852488e+02 -2.853876e+02 -2.853326e+02 -2.854236e+02 -2.854709e+02 -2.855138e+02 -2.856630e+02 -2.856577e+02 -2.859076e+02 -2.858534e+02 -2.862018e+02 -2.860974e+02 -2.865413e+02 -2.863843e+02 -2.869194e+02 -2.867064e+02 -2.873270e+02 -2.870535e+02 -2.877528e+02 -2.874131e+02 -2.881840e+02 -2.877718e+02 -2.886072e+02 -2.881160e+02 -2.890110e+02 -2.884347e+02 -2.893874e+02 -2.887216e+02 -2.897353e+02 -2.889771e+02 -2.900609e+02 -2.892089e+02 -2.903785e+02 -2.894302e+02 -2.907073e+02 -2.896548e+02 -2.910674e+02 -2.898928e+02 -2.914751e+02 -2.901454e+02 -2.919384e+02 -2.904042e+02 -2.924549e+02 -2.906537e+02 -2.930114e+02 -2.908762e+02 -2.935851e+02 -2.910568e+02 -2.941494e+02 -2.911857e+02 -2.946801e+02 -2.912575e+02 -2.951573e+02 -2.912743e+02 -2.955561e+02 -2.912592e+02 -2.958389e+02 -2.912752e+02 -2.960321e+02 -2.914287e+02 -2.962573e+02 -2.915743e+02 -2.964853e+02 -2.917839e+02 -2.966127e+02 -2.920731e+02 -2.966050e+02 -2.924107e+02 -2.964797e+02 -2.927366e+02 -2.962436e+02 -2.929872e+02 -2.959400e+02 -2.931532e+02 -2.955948e+02 -2.932393e+02 -2.952191e+02 -2.932518e+02 -2.948169e+02 -2.931963e+02 -2.943894e+02 -2.930780e+02 -2.939376e+02 -2.929015e+02 -2.934626e+02 -2.926715e+02 -2.929661e+02 -2.923925e+02 -2.924507e+02 -2.920694e+02 -2.919198e+02 -2.917073e+02 
-2.989128e+02 -2.965415e+02 -2.993968e+02 -2.971033e+02 -2.998966e+02 -2.976731e+02 -3.004052e+02 -2.982455e+02 -3.009153e+02 -2.988145e+02 -3.014197e+02 -2.993740e+02 -3.019117e+02 -2.999179e+02 -3.023846e+02 -3.004403e+02 -3.028325e+02 -3.009355e+02 -3.032501e+02 -3.013984e+02 -3.036326e+02 -3.018243e+02 -3.039759e+02 -3.022091e+02 -3.042767e+02 -3.025492e+02 -3.045322e+02 -3.028416e+02 -3.047401e+02 -3.030836e+02 -3.048985e+02 -3.032730e+02 -3.050058e+02 -3.034077e+02 -3.050607e+02 -3.034860e+02 -3.050620e+02 -3.035060e+02 -3.050090e+02 -3.034664e+02 -3.049011e+02 -3.033661e+02 -3.047384e+02 -3.032045e+02 -3.045218e+02 -3.029820e+02 -3.042533e+02 -3.027001e+02 -3.039359e+02 -3.023614e+02 -3.035742e+02 -3.019701e+02 -3.031739e+02 -3.015317e+02 -3.027416e+02 -3.010531e+02 -3.022848e+02 -3.005420e+02 -3.018105e+02 -3.000065e+02 -3.013248e+02 -2.994541e+02 -3.008315e+02 -2.988895e+02 -3.003303e+02 -2.983121e+02 -2.998164e+02 -2.977150e+02 -2.992816e+02 -2.970859e+02 -2.987186e+02 -2.964120e+02 -2.981277e+02 -2.956874e+02 -2.975241e+02 -2.949182e+02 -2.969410e+02 -2.941256e+02 -2.964263e+02 -2.933433e+02 -2.960289e+02 -2.926138e+02 -2.957820e+02 -2.919868e+02 -2.956869e+02 -2.915190e+02 -2.957111e+02 -2.912591e+02 -2.958093e+02 -2.911924e+02 -2.959700e+02 -2.911711e+02 -2.962291e+02 -2.910675e+02 -2.964370e+02 -2.908602e+02 -2.964927e+02 -2.907312e+02 -2.965213e+02 -2.906862e+02 -2.965205e+02 -2.907957e+02 -2.964927e+02 -2.910536e+02 -2.964663e+02 -2.914051e+02 -2.963747e+02 -2.917416e+02 -2.963092e+02 -2.920753e+02 -2.963064e+02 -2.924192e+02 -2.963735e+02 -2.927804e+02 -2.965083e+02 -2.931637e+02 -2.967059e+02 -2.935715e+02 -2.969611e+02 -2.940055e+02 -2.972688e+02 -2.944659e+02 -2.976235e+02 -2.949519e+02 -2.980197e+02 -2.954619e+02 -2.984515e+02 -2.959929e+02 
-2.913987e+02 -2.914064e+02 -2.908322e+02 -2.909619e+02 -2.902629e+02 -2.904953e+02 -2.896966e+02 -2.900132e+02 -2.891397e+02 -2.895229e+02 -2.885983e+02 -2.890316e+02 -2.880786e+02 -2.885463e+02 -2.875864e+02 -2.880742e+02 -2.871271e+02 -2.876216e+02 -2.867053e+02 -2.871946e+02 -2.863251e+02 -2.867988e+02 -2.859899e+02 -2.864389e+02 -2.857024e+02 -2.861191e+02 -2.854647e+02 -2.858430e+02 -2.852784e+02 -2.856137e+02 -2.851449e+02 -2.854340e+02 -2.850651e+02 -2.853061e+02 -2.850402e+02 -2.852321e+02 -2.850709e+02 -2.852139e+02 -2.851582e+02 -2.852530e+02 -2.853029e+02 -2.853501e+02 -2.855052e+02 -2.855055e+02 -2.857644e+02 -2.857180e+02 -2.860785e+02 -2.859844e+02 -2.864432e+02 -2.862991e+02 -2.868513e+02 -2.866537e+02 -2.872924e+02 -2.870361e+02 -2.877526e+02 -2.874312e+02 -2.882154e+02 -2.878216e+02 -2.886631e+02 -2.881896e+02 -2.890796e+02 -2.885201e+02 -2.894536e+02 -2.888045e+02 -2.897824e+02 -2.890444e+02 -2.900750e+02 -2.892535e+02 -2.903525e+02 -2.894546e+02 -2.906444e+02 -2.896727e+02 -2.909815e+02 -2.899250e+02 -2.913879e+02 -2.902127e+02 -2.918746e+02 -2.905190e+02 -2.924372e+02 -2.908146e+02 -2.930549e+02 -2.910688e+02 -2.936932e+02 -2.912599e+02 -2.943136e+02 -2.913762e+02 -2.948878e+02 -2.914083e+02 -2.954086e+02 -2.913431e+02 -2.958541e+02 -2.911912e+02 -2.960858e+02 -2.910399e+02 -2.961097e+02 -2.913615e+02 -2.963805e+02 -2.914199e+02 -2.967715e+02 -2.916199e+02 -2.969701e+02 -2.919835e+02 -2.969464e+02 -2.924502e+02 -2.967984e+02 -2.929099e+02 -2.964818e+02 -2.932104e+02 -2.961161e+02 -2.933888e+02 -2.957324e+02 -2.934725e+02 -2.953341e+02 -2.934761e+02 -2.949179e+02 -2.934087e+02 -2.944806e+02 -2.932767e+02 -2.940201e+02 -2.930856e+02 -2.935360e+02 -2.928398e+02 -2.930291e+02 -2.925442e+02 -2.925017e+02 -2.922032e+02 -2.919568e+02 -2.918221e+02 
-2.988259e+02 -2.964971e+02 -2.993363e+02 -2.970776e+02 -2.998632e+02 -2.976681e+02 -3.003991e+02 -2.982625e+02 -3.009363e+02 -2.988543e+02 -3.014670e+02 -2.994367e+02 -3.019838e+02 -3.000030e+02 -3.024799e+02 -3.005467e+02 -3.029490e+02 -3.010620e+02 -3.033853e+02 -3.015431e+02 -3.037842e+02 -3.019855e+02 -3.041416e+02 -3.023849e+02 -3.044544e+02 -3.027378e+02 -3.047200e+02 -3.030415e+02 -3.049365e+02 -3.032937e+02 -3.051022e+02 -3.034922e+02 -3.052157e+02 -3.036352e+02 -3.052760e+02 -3.037211e+02 -3.052817e+02 -3.037478e+02 -3.052317e+02 -3.037137e+02 -3.051250e+02 -3.036169e+02 -3.049610e+02 -3.034562e+02 -3.047397e+02 -3.032307e+02 -3.044624e+02 -3.029411e+02 -3.041315e+02 -3.025893e+02 -3.037512e+02 -3.021791e+02 -3.033278e+02 -3.017164e+02 -3.028690e+02 -3.012093e+02 -3.023846e+02 -3.006684e+02 -3.018848e+02 -3.001060e+02 -3.013799e+02 -2.995353e+02 -3.008772e+02 -2.989666e+02 -3.003774e+02 -2.984015e+02 -2.998721e+02 -2.978288e+02 -2.993430e+02 -2.972248e+02 -2.987684e+02 -2.965613e+02 -2.981351e+02 -2.958183e+02 -2.974531e+02 -2.949950e+02 -2.967656e+02 -2.941143e+02 -2.961456e+02 -2.932176e+02 -2.956758e+02 -2.923565e+02 -2.954168e+02 -2.915959e+02 -2.953732e+02 -2.910333e+02 -2.954774e+02 -2.908079e+02 -2.956202e+02 -2.909836e+02 -2.957876e+02 -2.911786e+02 -2.963021e+02 -2.911080e+02 -2.966858e+02 -2.906335e+02 -2.965965e+02 -2.904421e+02 -2.966137e+02 -2.902786e+02 -2.965927e+02 -2.903991e+02 -2.965121e+02 -2.907655e+02 -2.965414e+02 -2.913047e+02 -2.962990e+02 -2.916629e+02 -2.961446e+02 -2.919950e+02 -2.961024e+02 -2.923336e+02 -2.961567e+02 -2.926895e+02 -2.962925e+02 -2.930685e+02 -2.964989e+02 -2.934743e+02 -2.967677e+02 -2.939091e+02 -2.970922e+02 -2.943735e+02 -2.974664e+02 -2.948669e+02 -2.978842e+02 -2.953874e+02 -2.983396e+02 -2.959320e+02 
-2.914287e+02 -2.915299e+02 -2.908398e+02 -2.910579e+02 -2.902464e+02 -2.905625e+02 -2.896553e+02 -2.900509e+02 -2.890733e+02 -2.895307e+02 -2.885072e+02 -2.890098e+02 -2.879640e+02 -2.884958e+02 -2.874499e+02 -2.879962e+02 -2.869707e+02 -2.875180e+02 -2.865315e+02 -2.870677e+02 -2.861363e+02 -2.866508e+02 -2.857886e+02 -2.862723e+02 -2.854910e+02 -2.859363e+02 -2.852453e+02 -2.856465e+02 -2.850530e+02 -2.854057e+02 -2.849151e+02 -2.852168e+02 -2.848325e+02 -2.850821e+02 -2.848063e+02 -2.850040e+02 -2.848379e+02 -2.849848e+02 -2.849287e+02 -2.850267e+02 -2.850804e+02 -2.851319e+02 -2.852946e+02 -2.853013e+02 -2.855720e+02 -2.855350e+02 -2.859116e+02 -2.858306e+02 -2.863098e+02 -2.861826e+02 -2.867590e+02 -2.865817e+02 -2.872471e+02 -2.870137e+02 -2.877567e+02 -2.874596e+02 -2.882662e+02 -2.878966e+02 -2.887512e+02 -2.883000e+02 -2.891884e+02 -2.886476e+02 -2.895596e+02 -2.889254e+02 -2.898585e+02 -2.891352e+02 -2.900969e+02 -2.892994e+02 -2.903066e+02 -2.894582e+02 -2.905348e+02 -2.896572e+02 -2.908306e+02 -2.899291e+02 -2.912314e+02 -2.902762e+02 -2.917535e+02 -2.906659e+02 -2.923884e+02 -2.910419e+02 -2.931035e+02 -2.913494e+02 -2.938431e+02 -2.915589e+02 -2.945417e+02 -2.916650e+02 -2.951592e+02 -2.916621e+02 -2.957371e+02 -2.914973e+02 -2.963633e+02 -2.911194e+02 -2.965388e+02 -2.903298e+02 -2.959380e+02 -2.915560e+02 -2.963829e+02 -2.911211e+02 -2.972482e+02 -2.912896e+02 -2.975467e+02 -2.917878e+02 -2.974074e+02 -2.924925e+02 -2.972818e+02 -2.932420e+02 -2.967696e+02 -2.935563e+02 -2.963112e+02 -2.937202e+02 -2.958856e+02 -2.937865e+02 -2.954674e+02 -2.937719e+02 -2.950405e+02 -2.936858e+02 -2.945951e+02 -2.935348e+02 -2.941263e+02 -2.933242e+02 -2.936322e+02 -2.930582e+02 -2.931128e+02 -2.927411e+02 -2.925701e+02 -2.923773e+02 -2.920072e+02 -2.919718e+02 
-2.987152e+02 -2.964371e+02 -2.992592e+02 -2.970421e+02 -2.998210e+02 -2.976595e+02 -3.003921e+02 -2.982826e+02 -3.009641e+02 -2.989039e+02 -3.015285e+02 -2.995159e+02 -3.020774e+02 -3.001111e+02 -3.026030e+02 -3.006824e+02 -3.030988e+02 -3.012231e+02 -3.035587e+02 -3.017274e+02 -3.039779e+02 -3.021903e+02 -3.043527e+02 -3.026077e+02 -3.046799e+02 -3.029763e+02 -3.049576e+02 -3.032936e+02 -3.051842e+02 -3.035579e+02 -3.053585e+02 -3.037674e+02 -3.054797e+02 -3.039208e+02 -3.055468e+02 -3.040164e+02 -3.055584e+02 -3.040524e+02 -3.055132e+02 -3.040263e+02 -3.054094e+02 -3.039357e+02 -3.052454e+02 -3.037778e+02 -3.050199e+02 -3.035505e+02 -3.047327e+02 -3.032525e+02 -3.043851e+02 -3.028846e+02 -3.039807e+02 -3.024495e+02 -3.035254e+02 -3.019530e+02 -3.030286e+02 -3.014043e+02 -3.025027e+02 -3.008173e+02 -3.019633e+02 -3.002107e+02 -3.014278e+02 -2.996078e+02 -3.009114e+02 -2.990304e+02 -3.004197e+02 -2.984877e+02 -2.999408e+02 -2.979638e+02 -2.994408e+02 -2.974154e+02 -2.988712e+02 -2.967866e+02 -2.981907e+02 -2.960323e+02 -2.973944e+02 -2.951400e+02 -2.965376e+02 -2.941378e+02 -2.957366e+02 -2.930805e+02 -2.951377e+02 -2.920243e+02 -2.948602e+02 -2.910284e+02 -2.949300e+02 -2.902244e+02 -2.952152e+02 -2.899601e+02 -2.954067e+02 -2.907519e+02 -2.952529e+02 -2.914463e+02 -2.965047e+02 -2.915513e+02 -2.974057e+02 -2.901236e+02 -2.965938e+02 -2.901226e+02 -2.967434e+02 -2.895842e+02 -2.967214e+02 -2.897533e+02 -2.964153e+02 -2.902984e+02 -2.968821e+02 -2.913849e+02 -2.961365e+02 -2.916118e+02 -2.958692e+02 -2.919092e+02 -2.958029e+02 -2.922316e+02 -2.958590e+02 -2.925758e+02 -2.960066e+02 -2.929467e+02 -2.962298e+02 -2.933483e+02 -2.965187e+02 -2.937832e+02 -2.968660e+02 -2.942522e+02 -2.972656e+02 -2.947547e+02 -2.977112e+02 -2.952886e+02 -2.981967e+02 -2.958508e+02 
-2.914694e+02 -2.916840e+02 -2.908520e+02 -2.911777e+02 -2.902281e+02 -2.906464e+02 -2.896054e+02 -2.900977e+02 -2.889914e+02 -2.895400e+02 -2.883940e+02 -2.889818e+02 -2.878210e+02 -2.884316e+02 -2.872793e+02 -2.878976e+02 -2.867752e+02 -2.873875e+02 -2.863143e+02 -2.869080e+02 -2.859007e+02 -2.864650e+02 -2.855379e+02 -2.860636e+02 -2.852282e+02 -2.857079e+02 -2.849731e+02 -2.854012e+02 -2.847736e+02 -2.851464e+02 -2.846303e+02 -2.849458e+02 -2.845439e+02 -2.848021e+02 -2.845156e+02 -2.847178e+02 -2.845468e+02 -2.846960e+02 -2.846401e+02 -2.847398e+02 -2.847985e+02 -2.848529e+02 -2.850252e+02 -2.850379e+02 -2.853233e+02 -2.852967e+02 -2.856936e+02 -2.856284e+02 -2.861340e+02 -2.860281e+02 -2.866370e+02 -2.864859e+02 -2.871887e+02 -2.869850e+02 -2.877673e+02 -2.875018e+02 -2.883442e+02 -2.880059e+02 -2.888857e+02 -2.884624e+02 -2.893567e+02 -2.888363e+02 -2.897274e+02 -2.891024e+02 -2.899824e+02 -2.892581e+02 -2.901337e+02 -2.893373e+02 -2.902299e+02 -2.894103e+02 -2.903486e+02 -2.895626e+02 -2.905715e+02 -2.898586e+02 -2.909588e+02 -2.903065e+02 -2.915335e+02 -2.908444e+02 -2.922809e+02 -2.913607e+02 -2.931517e+02 -2.917514e+02 -2.940563e+02 -2.919801e+02 -2.948665e+02 -2.920738e+02 -2.954767e+02 -2.920805e+02 -2.960141e+02 -2.918590e+02 -2.973172e+02 -2.914559e+02 -2.977688e+02 -2.876562e+02 -2.966771e+02 -2.881500e+02 -2.937863e+02 -2.905148e+02 -2.959632e+02 -2.899630e+02 -2.965755e+02 -2.906644e+02 -2.963402e+02 -2.924195e+02 -2.978290e+02 -2.940108e+02 -2.970063e+02 -2.940547e+02 -2.964757e+02 -2.941507e+02 -2.960325e+02 -2.941824e+02 -2.956106e+02 -2.941398e+02 -2.951821e+02 -2.940282e+02 -2.947335e+02 -2.938529e+02 -2.942582e+02 -2.936183e+02 -2.937537e+02 -2.933278e+02 -2.932199e+02 -2.929848e+02 -2.926587e+02 -2.925933e+02 -2.920736e+02 -2.921579e+02 
-2.985789e+02 -2.963586e+02 -2.991647e+02 -2.969942e+02 -2.997696e+02 -2.976456e+02 -3.003845e+02 -2.983048e+02 -3.009998e+02 -2.989633e+02 -3.016063e+02 -2.996126e+02 -3.021947e+02 -3.002440e+02 -3.027568e+02 -3.008494e+02 -3.032851e+02 -3.014216e+02 -3.037735e+02 -3.019540e+02 -3.042170e+02 -3.024414e+02 -3.046119e+02 -3.028799e+02 -3.049557e+02 -3.032665e+02 -3.052468e+02 -3.035993e+02 -3.054845e+02 -3.038771e+02 -3.056685e+02 -3.040992e+02 -3.057984e+02 -3.042646e+02 -3.058737e+02 -3.043723e+02 -3.058933e+02 -3.044204e+02 -3.058554e+02 -3.044061e+02 -3.057573e+02 -3.043256e+02 -3.055960e+02 -3.041745e+02 -3.053683e+02 -3.039482e+02 -3.050718e+02 -3.036431e+02 -3.047054e+02 -3.032571e+02 -3.042709e+02 -3.027910e+02 -3.037736e+02 -3.022493e+02 -3.032232e+02 -3.016415e+02 -3.026355e+02 -3.009842e+02 -3.020334e+02 -3.003044e+02 -3.014466e+02 -2.996422e+02 -3.009063e+02 -2.990434e+02 -3.004321e+02 -2.985375e+02 -3.000129e+02 -2.981055e+02 -2.995913e+02 -2.976705e+02 -2.990707e+02 -2.971251e+02 -2.983528e+02 -2.963779e+02 -2.973946e+02 -2.953975e+02 -2.962620e+02 -2.942296e+02 -2.951439e+02 -2.929641e+02 -2.943023e+02 -2.916561e+02 -2.939791e+02 -2.902888e+02 -2.942873e+02 -2.888857e+02 -2.950518e+02 -2.880533e+02 -2.955292e+02 -2.906080e+02 -2.932988e+02 -2.922175e+02 -3.022879e+02 -2.895289e+02 -2.999576e+02 -2.845221e+02 -2.892905e+02 -2.861133e+02 -2.919567e+02 -2.864029e+02 -2.929385e+02 -2.876396e+02 -2.933113e+02 -2.898154e+02 -2.954840e+02 -2.911752e+02 -2.954996e+02 -2.914928e+02 -2.953950e+02 -2.918002e+02 -2.953824e+02 -2.921086e+02 -2.954707e+02 -2.924363e+02 -2.956457e+02 -2.927945e+02 -2.958954e+02 -2.931893e+02 -2.962115e+02 -2.936234e+02 -2.965878e+02 -2.940975e+02 -2.970187e+02 -2.946110e+02 -2.974984e+02 -2.951615e+02 -2.980208e+02 -2.957457e+02 
-2.915236e+02 -2.918706e+02 -2.908710e+02 -2.913232e+02 -2.902094e+02 -2.907482e+02 -2.895472e+02 -2.901542e+02 -2.888935e+02 -2.895504e+02 -2.882574e+02 -2.889465e+02 -2.876474e+02 -2.883520e+02 -2.870718e+02 -2.877761e+02 -2.865375e+02 -2.872271e+02 -2.860505e+02 -2.867125e+02 -2.856152e+02 -2.862384e+02 -2.852348e+02 -2.858099e+02 -2.849113e+02 -2.854310e+02 -2.846457e+02 -2.851045e+02 -2.844382e+02 -2.848329e+02 -2.842888e+02 -2.846183e+02 -2.841977e+02 -2.844630e+02 -2.841656e+02 -2.843700e+02 -2.841947e+02 -2.843428e+02 -2.842882e+02 -2.843862e+02 -2.844511e+02 -2.845055e+02 -2.846892e+02 -2.847063e+02 -2.850087e+02 -2.849930e+02 -2.854138e+02 -2.853672e+02 -2.859052e+02 -2.858257e+02 -2.864766e+02 -2.863585e+02 -2.871123e+02 -2.869465e+02 -2.877857e+02 -2.875605e+02 -2.884587e+02 -2.881609e+02 -2.890851e+02 -2.886985e+02 -2.896135e+02 -2.891180e+02 -2.899934e+02 -2.893699e+02 -2.901883e+02 -2.894348e+02 -2.902023e+02 -2.893581e+02 -2.901083e+02 -2.892615e+02 -2.900385e+02 -2.893069e+02 -2.901344e+02 -2.896264e+02 -2.904942e+02 -2.902476e+02 -2.911479e+02 -2.910564e+02 -2.920673e+02 -2.918255e+02 -2.931893e+02 -2.923373e+02 -2.943844e+02 -2.925515e+02 -2.954037e+02 -2.925740e+02 -2.958678e+02 -2.927210e+02 -2.955080e+02 -2.923971e+02 -3.010766e+02 -2.976913e+02 -2.771603e+02 -2.765350e+02 -2.991624e+02 -2.767516e+02 -2.939667e+02 -2.838102e+02 -2.942868e+02 -2.871607e+02 -2.951415e+02 -2.897155e+02 -2.955747e+02 -2.923090e+02 -2.972625e+02 -2.940129e+02 -2.969544e+02 -2.945037e+02 -2.965546e+02 -2.946471e+02 -2.961597e+02 -2.946537e+02 -2.957614e+02 -2.945776e+02 -2.953445e+02 -2.944348e+02 -2.948991e+02 -2.942309e+02 -2.944199e+02 -2.939686e+02 -2.939049e+02 -2.936500e+02 -2.933547e+02 -2.932773e+02 -2.927715e+02 -2.928536e+02 -2.921593e+02 -2.923829e+02 
-2.984150e+02 -2.962574e+02 -2.990512e+02 -2.969309e+02 -2.997086e+02 -2.976242e+02 -3.003768e+02 -2.983281e+02 -3.010451e+02 -2.990327e+02 -3.017027e+02 -2.997279e+02 -3.023392e+02 -3.004037e+02 -3.029452e+02 -3.010508e+02 -3.035124e+02 -3.016606e+02 -3.040343e+02 -3.022264e+02 -3.045056e+02 -3.027424e+02 -3.049230e+02 -3.032048e+02 -3.052847e+02 -3.036112e+02 -3.055899e+02 -3.039604e+02 -3.058390e+02 -3.042525e+02 -3.060327e+02 -3.044877e+02 -3.061719e+02 -3.046665e+02 -3.062568e+02 -3.047886e+02 -3.062867e+02 -3.048524e+02 -3.062596e+02 -3.048547e+02 -3.061719e+02 -3.047904e+02 -3.060183e+02 -3.046526e+02 -3.057931e+02 -3.044334e+02 -3.054902e+02 -3.041250e+02 -3.051050e+02 -3.037213e+02 -3.046357e+02 -3.032192e+02 -3.040847e+02 -3.026199e+02 -3.034606e+02 -3.019307e+02 -3.027814e+02 -3.011681e+02 -3.020785e+02 -3.003670e+02 -3.014013e+02 -2.995923e+02 -3.008117e+02 -2.989382e+02 -3.003628e+02 -2.984861e+02 -3.000597e+02 -2.982224e+02 -2.998137e+02 -2.980091e+02 -2.994419e+02 -2.976405e+02 -2.987328e+02 -2.969368e+02 -2.975543e+02 -2.958322e+02 -2.959698e+02 -2.944233e+02 -2.942881e+02 -2.929092e+02 -2.929723e+02 -2.913729e+02 -2.924909e+02 -2.896057e+02 -2.932029e+02 -2.869830e+02 -2.951773e+02 -2.827348e+02 -2.981468e+02 -2.918909e+02 -2.380076e+02 -2.750557e+02 -2.931002e+02 -2.777357e+02 -2.997282e+02 -2.688060e+02 -2.959406e+02 -2.789491e+02 -2.944963e+02 -2.841454e+02 -2.934428e+02 -2.873480e+02 -2.930814e+02 -2.895077e+02 -2.956813e+02 -2.908448e+02 -2.949838e+02 -2.913856e+02 -2.948302e+02 -2.916914e+02 -2.948621e+02 -2.919674e+02 -2.949969e+02 -2.922671e+02 -2.952109e+02 -2.926065e+02 -2.954952e+02 -2.929914e+02 -2.958446e+02 -2.934237e+02 -2.962552e+02 -2.939037e+02 -2.967230e+02 -2.944303e+02 -2.972431e+02 -2.950010e+02 -2.978095e+02 -2.956119e+02 