# vtk DataFile Version 2.0
Comment goes here
ASCII

DATASET STRUCTURED_POINTS
DIMENSIONS    128   128   1

ORIGIN    0.000   0.000   0.000
SPACING   0.0156250.015625   1.000

POINT_DATA   16384
SCALARS P double
LOOKUP_TABLE default

-2.887363e+02 -2.886208e+02 -2.882112e+02 -2.882263e+02 -2.876858e+02 -2.878115e+02 -2.871650e+02 -2.873825e+02 -2.866541e+02 -2.869457e+02 -2.861581e+02 -2.865074e+02 -2.856824e+02 -2.860739e+02 -2.852317e+02 -2.856512e+02 -2.848106e+02 -2.852453e+02 -2.844235e+02 -2.848616e+02 -2.840739e+02 -2.845051e+02 -2.837653e+02 -2.841804e+02 -2.835003e+02 -2.838916e+02 -2.832812e+02 -2.836423e+02 -2.831100e+02 -2.834355e+02 -2.829880e+02 -2.832737e+02 -2.829164e+02 -2.831590e+02 -2.828956e+02 -2.830929e+02 -2.829260e+02 -2.830761e+02 -2.830073e+02 -2.831089e+02 -2.831389e+02 -2.831907e+02 -2.833192e+02 -2.833201e+02 -2.835462e+02 -2.834946e+02 -2.838165e+02 -2.837104e+02 -2.841257e+02 -2.839624e+02 -2.844680e+02 -2.842440e+02 -2.848364e+02 -2.845473e+02 -2.852226e+02 -2.848633e+02 -2.856179e+02 -2.851826e+02 -2.860137e+02 -2.854961e+02 -2.864031e+02 -2.857966e+02 -2.867812e+02 -2.860791e+02 -2.871471e+02 -2.863421e+02 -2.875038e+02 -2.865874e+02 -2.878580e+02 -2.868191e+02 -2.882190e+02 -2.870422e+02 -2.885969e+02 -2.872611e+02 -2.890003e+02 -2.874776e+02 -2.894341e+02 -2.876908e+02 -2.898981e+02 -2.878967e+02 -2.903857e+02 -2.880893e+02 -2.908845e+02 -2.882624e+02 -2.913778e+02 -2.884112e+02 -2.918471e+02 -2.885349e+02 -2.922745e+02 -2.886392e+02 -2.926465e+02 -2.887370e+02 -2.929566e+02 -2.888457e+02 -2.932068e+02 -2.889796e+02 -2.934016e+02 -2.891423e+02 -2.935366e+02 -2.893344e+02 -2.936001e+02 -2.895499e+02 -2.935830e+02 -2.897742e+02 -2.934834e+02 -2.899866e+02 -2.933070e+02 -2.901666e+02 -2.930645e+02 -2.902992e+02 -2.927677e+02 -2.903755e+02 -2.924266e+02 -2.903920e+02 -2.920487e+02 -2.903483e+02 -2.916397e+02 -2.902462e+02 -2.912037e+02 -2.900888e+02 -2.907441e+02 -2.898799e+02 -2.902641e+02 -2.896237e+02 -2.897669e+02 -2.893251e+02 -2.892564e+02 -2.889889e+02 
-2.963592e+02 -2.939902e+02 -2.968026e+02 -2.945214e+02 -2.972606e+02 -2.950578e+02 -2.977271e+02 -2.955945e+02 -2.981954e+02 -2.961265e+02 -2.986591e+02 -2.966485e+02 -2.991122e+02 -2.971553e+02 -2.995487e+02 -2.976415e+02 -2.999629e+02 -2.981023e+02 -3.003499e+02 -2.985328e+02 -3.007050e+02 -2.989286e+02 -3.010242e+02 -2.992858e+02 -3.013037e+02 -2.996007e+02 -3.015407e+02 -2.998701e+02 -3.017323e+02 -3.000911e+02 -3.018765e+02 -3.002613e+02 -3.019715e+02 -3.003786e+02 -3.020160e+02 -3.004412e+02 -3.020092e+02 -3.004478e+02 -3.019505e+02 -3.003976e+02 -3.018404e+02 -3.002903e+02 -3.016799e+02 -3.001266e+02 -3.014707e+02 -2.999078e+02 -3.012158e+02 -2.996364e+02 -3.009186e+02 -2.993156e+02 -3.005836e+02 -2.989494e+02 -3.002156e+02 -2.985424e+02 -2.998195e+02 -2.980990e+02 -2.993996e+02 -2.976234e+02 -2.989596e+02 -2.971192e+02 -2.985021e+02 -2.965884e+02 -2.980286e+02 -2.960319e+02 -2.975399e+02 -2.954496e+02 -2.970368e+02 -2.948404e+02 -2.965216e+02 -2.942044e+02 -2.959998e+02 -2.935442e+02 -2.954818e+02 -2.928670e+02 -2.949832e+02 -2.921857e+02 -2.945244e+02 -2.915187e+02 -2.941273e+02 -2.908886e+02 -2.938108e+02 -2.903185e+02 -2.935860e+02 -2.898289e+02 -2.934534e+02 -2.894321e+02 -2.934031e+02 -2.891293e+02 -2.934178e+02 -2.889081e+02 -2.934773e+02 -2.887475e+02 -2.935595e+02 -2.886306e+02 -2.936418e+02 -2.885536e+02 -2.937084e+02 -2.885258e+02 -2.937548e+02 -2.885591e+02 -2.937826e+02 -2.886611e+02 -2.937967e+02 -2.888305e+02 -2.938044e+02 -2.890575e+02 -2.938154e+02 -2.893288e+02 -2.938432e+02 -2.896342e+02 -2.939009e+02 -2.899676e+02 -2.939983e+02 -2.903263e+02 -2.941411e+02 -2.907089e+02 -2.943317e+02 -2.911151e+02 -2.945698e+02 -2.915442e+02 -2.948532e+02 -2.919957e+02 -2.951785e+02 -2.924683e+02 -2.955414e+02 -2.929601e+02 -2.959368e+02 -2.934685e+02 
-2.887390e+02 -2.886339e+02 -2.882115e+02 -2.882364e+02 -2.876836e+02 -2.878185e+02 -2.871602e+02 -2.873864e+02 -2.866467e+02 -2.869465e+02 -2.861483e+02 -2.865051e+02 -2.856701e+02 -2.860685e+02 -2.852171e+02 -2.856430e+02 -2.847940e+02 -2.852343e+02 -2.844049e+02 -2.848481e+02 -2.840538e+02 -2.844893e+02 -2.837437e+02 -2.841626e+02 -2.834776e+02 -2.838721e+02 -2.832577e+02 -2.836213e+02 -2.830858e+02 -2.834133e+02 -2.829634e+02 -2.832506e+02 -2.828914e+02 -2.831353e+02 -2.828707e+02 -2.830689e+02 -2.829014e+02 -2.830522e+02 -2.829834e+02 -2.830857e+02 -2.831160e+02 -2.831687e+02 -2.832980e+02 -2.832999e+02 -2.835271e+02 -2.834768e+02 -2.838002e+02 -2.836956e+02 -2.841128e+02 -2.839513e+02 -2.844589e+02 -2.842371e+02 -2.848314e+02 -2.845448e+02 -2.852217e+02 -2.848650e+02 -2.856206e+02 -2.851880e+02 -2.860192e+02 -2.855044e+02 -2.864099e+02 -2.858063e+02 -2.867878e+02 -2.860891e+02 -2.871518e+02 -2.863513e+02 -2.875055e+02 -2.865952e+02 -2.878561e+02 -2.868259e+02 -2.882140e+02 -2.870492e+02 -2.885902e+02 -2.872698e+02 -2.889938e+02 -2.874896e+02 -2.894303e+02 -2.877069e+02 -2.898990e+02 -2.879166e+02 -2.903930e+02 -2.881119e+02 -2.908988e+02 -2.882853e+02 -2.913990e+02 -2.884316e+02 -2.918740e+02 -2.885496e+02 -2.923056e+02 -2.886452e+02 -2.926790e+02 -2.887329e+02 -2.929871e+02 -2.888339e+02 -2.932347e+02 -2.889655e+02 -2.934315e+02 -2.891279e+02 -2.935722e+02 -2.893229e+02 -2.936404e+02 -2.895457e+02 -2.936241e+02 -2.897803e+02 -2.935219e+02 -2.900031e+02 -2.933402e+02 -2.901907e+02 -2.930918e+02 -2.903275e+02 -2.927900e+02 -2.904056e+02 -2.924450e+02 -2.904221e+02 -2.920644e+02 -2.903775e+02 -2.916533e+02 -2.902739e+02 -2.912155e+02 -2.901146e+02 -2.907543e+02 -2.899035e+02 -2.902726e+02 -2.896449e+02 -2.897737e+02 -2.893437e+02 -2.892612e+02 -2.890049e+02 
-2.963384e+02 -2.939808e+02 -2.967880e+02 -2.945164e+02 -2.972525e+02 -2.950577e+02 -2.977255e+02 -2.955995e+02 -2.982002e+02 -2.961368e+02 -2.986703e+02 -2.966642e+02 -2.991294e+02 -2.971762e+02 -2.995714e+02 -2.976675e+02 -2.999908e+02 -2.981331e+02 -3.003825e+02 -2.985680e+02 -3.007417e+02 -2.989679e+02 -3.010645e+02 -2.993288e+02 -3.013472e+02 -2.996469e+02 -3.015868e+02 -2.999192e+02 -3.017807e+02 -3.001429e+02 -3.019268e+02 -3.003154e+02 -3.020233e+02 -3.004347e+02 -3.020691e+02 -3.004990e+02 -3.020630e+02 -3.005070e+02 -3.020047e+02 -3.004577e+02 -3.018945e+02 -3.003508e+02 -3.017331e+02 -3.001867e+02 -3.015223e+02 -2.999667e+02 -3.012648e+02 -2.996931e+02 -3.009642e+02 -2.993691e+02 -3.006250e+02 -2.989988e+02 -3.002521e+02 -2.985868e+02 -2.998508e+02 -2.981380e+02 -2.994258e+02 -2.976574e+02 -2.989813e+02 -2.971488e+02 -2.985202e+02 -2.966152e+02 -2.980443e+02 -2.960578e+02 -2.975539e+02 -2.954761e+02 -2.970490e+02 -2.948683e+02 -2.965304e+02 -2.942327e+02 -2.960022e+02 -2.935700e+02 -2.954735e+02 -2.928855e+02 -2.949603e+02 -2.921913e+02 -2.944848e+02 -2.915064e+02 -2.940723e+02 -2.908551e+02 -2.937454e+02 -2.902640e+02 -2.935178e+02 -2.897578e+02 -2.933902e+02 -2.893545e+02 -2.933508e+02 -2.890581e+02 -2.933803e+02 -2.888528e+02 -2.934579e+02 -2.887065e+02 -2.935608e+02 -2.885920e+02 -2.936580e+02 -2.885049e+02 -2.937286e+02 -2.884652e+02 -2.937733e+02 -2.884906e+02 -2.937961e+02 -2.885938e+02 -2.938029e+02 -2.887732e+02 -2.938012e+02 -2.890138e+02 -2.937990e+02 -2.892953e+02 -2.938137e+02 -2.896066e+02 -2.938616e+02 -2.899429e+02 -2.939531e+02 -2.903026e+02 -2.940936e+02 -2.906857e+02 -2.942844e+02 -2.910921e+02 -2.945246e+02 -2.915220e+02 -2.948114e+02 -2.919747e+02 -2.951411e+02 -2.924492e+02 -2.955090e+02 -2.929436e+02 -2.959100e+02 -2.934552e+02 
-2.887469e+02 -2.886736e+02 -2.882124e+02 -2.882672e+02 -2.876770e+02 -2.878401e+02 -2.871459e+02 -2.873985e+02 -2.866246e+02 -2.869491e+02 -2.861186e+02 -2.864983e+02 -2.856330e+02 -2.860526e+02 -2.851732e+02 -2.856183e+02 -2.847438e+02 -2.852015e+02 -2.843491e+02 -2.848077e+02 -2.839931e+02 -2.844421e+02 -2.836789e+02 -2.841093e+02 -2.834094e+02 -2.838135e+02 -2.831868e+02 -2.835582e+02 -2.830129e+02 -2.833465e+02 -2.828891e+02 -2.831811e+02 -2.828165e+02 -2.830640e+02 -2.827958e+02 -2.829967e+02 -2.828273e+02 -2.829805e+02 -2.829113e+02 -2.830157e+02 -2.830471e+02 -2.831022e+02 -2.832338e+02 -2.832386e+02 -2.834694e+02 -2.834228e+02 -2.837509e+02 -2.836511e+02 -2.840737e+02 -2.839180e+02 -2.844316e+02 -2.842165e+02 -2.848168e+02 -2.845376e+02 -2.852197e+02 -2.848710e+02 -2.856299e+02 -2.852055e+02 -2.860369e+02 -2.855304e+02 -2.864318e+02 -2.858369e+02 -2.868089e+02 -2.861199e+02 -2.871671e+02 -2.863789e+02 -2.875109e+02 -2.866180e+02 -2.878500e+02 -2.868449e+02 -2.881977e+02 -2.870682e+02 -2.885678e+02 -2.872941e+02 -2.889721e+02 -2.875243e+02 -2.894167e+02 -2.877549e+02 -2.899006e+02 -2.879775e+02 -2.904146e+02 -2.881814e+02 -2.909425e+02 -2.883565e+02 -2.914637e+02 -2.884956e+02 -2.919567e+02 -2.885960e+02 -2.924016e+02 -2.886636e+02 -2.927798e+02 -2.887175e+02 -2.930792e+02 -2.887920e+02 -2.933139e+02 -2.889210e+02 -2.935174e+02 -2.890808e+02 -2.936801e+02 -2.892835e+02 -2.937648e+02 -2.895296e+02 -2.937511e+02 -2.897983e+02 -2.936400e+02 -2.900551e+02 -2.934405e+02 -2.902660e+02 -2.931732e+02 -2.904150e+02 -2.928557e+02 -2.904974e+02 -2.924993e+02 -2.905135e+02 -2.921106e+02 -2.904657e+02 -2.916935e+02 -2.903572e+02 -2.912509e+02 -2.901921e+02 -2.907850e+02 -2.899744e+02 -2.902984e+02 -2.897088e+02 -2.897942e+02 -2.894000e+02 -2.892757e+02 -2.890531e+02 
-2.962963e+02 -2.939614e+02 -2.967586e+02 -2.945060e+02 -2.972362e+02 -2.950570e+02 -2.977223e+02 -2.956093e+02 -2.982101e+02 -2.961574e+02 -2.986928e+02 -2.966956e+02 -2.991639e+02 -2.972183e+02 -2.996173e+02 -2.977199e+02 -3.000470e+02 -2.981951e+02 -3.004480e+02 -2.986389e+02 -3.008155e+02 -2.990469e+02 -3.011455e+02 -2.994151e+02 -3.014344e+02 -2.997397e+02 -3.016792e+02 -3.000178e+02 -3.018776e+02 -3.002466e+02 -3.020275e+02 -3.004236e+02 -3.021271e+02 -3.005470e+02 -3.021753e+02 -3.006148e+02 -3.021709e+02 -3.006256e+02 -3.021135e+02 -3.005783e+02 -3.020030e+02 -3.004723e+02 -3.018400e+02 -3.003077e+02 -3.016261e+02 -3.000855e+02 -3.013636e+02 -2.998075e+02 -3.010562e+02 -2.994770e+02 -3.007083e+02 -2.990980e+02 -3.003253e+02 -2.986757e+02 -2.999130e+02 -2.982157e+02 -2.994772e+02 -2.977239e+02 -2.990231e+02 -2.972060e+02 -2.985546e+02 -2.966662e+02 -2.980740e+02 -2.961070e+02 -2.975811e+02 -2.955277e+02 -2.970740e+02 -2.949243e+02 -2.965504e+02 -2.942915e+02 -2.960104e+02 -2.936252e+02 -2.954602e+02 -2.929270e+02 -2.949161e+02 -2.922068e+02 -2.944042e+02 -2.914844e+02 -2.939574e+02 -2.907878e+02 -2.936073e+02 -2.901501e+02 -2.933737e+02 -2.896059e+02 -2.932580e+02 -2.891859e+02 -2.932425e+02 -2.889052e+02 -2.933016e+02 -2.887431e+02 -2.934159e+02 -2.886351e+02 -2.935687e+02 -2.885261e+02 -2.937009e+02 -2.884090e+02 -2.937744e+02 -2.883391e+02 -2.938133e+02 -2.883438e+02 -2.938253e+02 -2.884499e+02 -2.938171e+02 -2.886546e+02 -2.937985e+02 -2.889292e+02 -2.937660e+02 -2.892325e+02 -2.937516e+02 -2.895544e+02 -2.937790e+02 -2.898950e+02 -2.938593e+02 -2.902559e+02 -2.939958e+02 -2.906391e+02 -2.941879e+02 -2.910459e+02 -2.944328e+02 -2.914769e+02 -2.947267e+02 -2.919320e+02 -2.950653e+02 -2.924102e+02 -2.954435e+02 -2.929098e+02 -2.958558e+02 -2.934280e+02 
-2.887608e+02 -2.887402e+02 -2.882143e+02 -2.883189e+02 -2.876663e+02 -2.878762e+02 -2.871221e+02 -2.874188e+02 -2.865877e+02 -2.869534e+02 -2.860687e+02 -2.864868e+02 -2.855708e+02 -2.860258e+02 -2.850993e+02 -2.855768e+02 -2.846593e+02 -2.851462e+02 -2.842553e+02 -2.847397e+02 -2.838911e+02 -2.843626e+02 -2.835700e+02 -2.840197e+02 -2.832949e+02 -2.837150e+02 -2.830678e+02 -2.834522e+02 -2.828906e+02 -2.832344e+02 -2.827645e+02 -2.830643e+02 -2.826907e+02 -2.829439e+02 -2.826699e+02 -2.828752e+02 -2.827028e+02 -2.828594e+02 -2.827896e+02 -2.828974e+02 -2.829305e+02 -2.829893e+02 -2.831249e+02 -2.831345e+02 -2.833712e+02 -2.833308e+02 -2.836667e+02 -2.835748e+02 -2.840069e+02 -2.838610e+02 -2.843852e+02 -2.841815e+02 -2.847926e+02 -2.845261e+02 -2.852178e+02 -2.848825e+02 -2.856482e+02 -2.852374e+02 -2.860705e+02 -2.855773e+02 -2.864732e+02 -2.858916e+02 -2.868488e+02 -2.861741e+02 -2.871958e+02 -2.864254e+02 -2.875206e+02 -2.866534e+02 -2.878370e+02 -2.868710e+02 -2.881643e+02 -2.870925e+02 -2.885221e+02 -2.873277e+02 -2.889267e+02 -2.875780e+02 -2.893860e+02 -2.878350e+02 -2.898977e+02 -2.880832e+02 -2.904486e+02 -2.883050e+02 -2.910165e+02 -2.884851e+02 -2.915750e+02 -2.886133e+02 -2.920995e+02 -2.886838e+02 -2.925700e+02 -2.886988e+02 -2.929611e+02 -2.886818e+02 -2.932360e+02 -2.886952e+02 -2.934238e+02 -2.888451e+02 -2.936437e+02 -2.889901e+02 -2.938654e+02 -2.892002e+02 -2.939869e+02 -2.894900e+02 -2.939746e+02 -2.898277e+02 -2.938462e+02 -2.901532e+02 -2.936087e+02 -2.904035e+02 -2.933052e+02 -2.905695e+02 -2.929608e+02 -2.906560e+02 -2.925862e+02 -2.906691e+02 -2.921854e+02 -2.906146e+02 -2.917595e+02 -2.904973e+02 -2.913094e+02 -2.903221e+02 -2.908363e+02 -2.900934e+02 -2.903420e+02 -2.898160e+02 -2.898290e+02 -2.894945e+02 -2.893005e+02 -2.891341e+02 
-2.962324e+02 -2.939309e+02 -2.967140e+02 -2.944892e+02 -2.972114e+02 -2.950553e+02 -2.977176e+02 -2.956235e+02 -2.982252e+02 -2.961881e+02 -2.987272e+02 -2.967429e+02 -2.992167e+02 -2.972819e+02 -2.996872e+02 -2.977991e+02 -3.001326e+02 -2.982889e+02 -3.005476e+02 -2.987462e+02 -3.009275e+02 -2.991664e+02 -3.012682e+02 -2.995455e+02 -3.015662e+02 -2.998798e+02 -3.018189e+02 -3.001664e+02 -3.020238e+02 -3.004027e+02 -3.021792e+02 -3.005866e+02 -3.022835e+02 -3.007160e+02 -3.023353e+02 -3.007891e+02 -3.023337e+02 -3.008045e+02 -3.022779e+02 -3.007606e+02 -3.021674e+02 -3.006564e+02 -3.020024e+02 -3.004914e+02 -3.017841e+02 -3.002661e+02 -3.015143e+02 -2.999819e+02 -3.011964e+02 -2.996414e+02 -3.008350e+02 -2.992490e+02 -3.004359e+02 -2.988100e+02 -3.000059e+02 -2.983312e+02 -2.995521e+02 -2.978206e+02 -2.990820e+02 -2.972863e+02 -2.986014e+02 -2.967358e+02 -2.981140e+02 -2.961739e+02 -2.976195e+02 -2.956003e+02 -2.971131e+02 -2.950080e+02 -2.965864e+02 -2.943848e+02 -2.960319e+02 -2.937183e+02 -2.954496e+02 -2.930021e+02 -2.948544e+02 -2.922423e+02 -2.942791e+02 -2.914597e+02 -2.937710e+02 -2.906878e+02 -2.933791e+02 -2.899687e+02 -2.931364e+02 -2.893520e+02 -2.930448e+02 -2.888938e+02 -2.930720e+02 -2.886422e+02 -2.931730e+02 -2.885817e+02 -2.933364e+02 -2.885643e+02 -2.935962e+02 -2.884675e+02 -2.938016e+02 -2.882649e+02 -2.938544e+02 -2.881376e+02 -2.938794e+02 -2.880948e+02 -2.938736e+02 -2.882064e+02 -2.938405e+02 -2.884651e+02 -2.938090e+02 -2.888158e+02 -2.937149e+02 -2.891514e+02 -2.936480e+02 -2.894842e+02 -2.936439e+02 -2.898270e+02 -2.937096e+02 -2.901872e+02 -2.938428e+02 -2.905691e+02 -2.940386e+02 -2.909755e+02 -2.942919e+02 -2.914077e+02 -2.945975e+02 -2.918661e+02 -2.949500e+02 -2.923499e+02 -2.953439e+02 -2.928573e+02 -2.957735e+02 -2.933855e+02 
-2.887815e+02 -2.888346e+02 -2.882180e+02 -2.883921e+02 -2.876518e+02 -2.879275e+02 -2.870890e+02 -2.874475e+02 -2.865357e+02 -2.869594e+02 -2.859982e+02 -2.864703e+02 -2.854825e+02 -2.859874e+02 -2.849946e+02 -2.855175e+02 -2.845395e+02 -2.850674e+02 -2.841222e+02 -2.846429e+02 -2.837465e+02 -2.842497e+02 -2.834159e+02 -2.838923e+02 -2.831329e+02 -2.835752e+02 -2.828997e+02 -2.833019e+02 -2.827178e+02 -2.830754e+02 -2.825885e+02 -2.828984e+02 -2.825128e+02 -2.827733e+02 -2.824916e+02 -2.827020e+02 -2.825258e+02 -2.826864e+02 -2.826163e+02 -2.827277e+02 -2.827636e+02 -2.828269e+02 -2.829681e+02 -2.829838e+02 -2.832291e+02 -2.831971e+02 -2.835444e+02 -2.834637e+02 -2.839097e+02 -2.837777e+02 -2.843179e+02 -2.841306e+02 -2.847586e+02 -2.845103e+02 -2.852179e+02 -2.849019e+02 -2.856796e+02 -2.852881e+02 -2.861263e+02 -2.856514e+02 -2.865418e+02 -2.859770e+02 -2.869150e+02 -2.862566e+02 -2.872433e+02 -2.864920e+02 -2.875355e+02 -2.866969e+02 -2.878124e+02 -2.868941e+02 -2.881031e+02 -2.871085e+02 -2.884381e+02 -2.873576e+02 -2.888412e+02 -2.876426e+02 -2.893234e+02 -2.879469e+02 -2.898805e+02 -2.882413e+02 -2.904918e+02 -2.884954e+02 -2.911239e+02 -2.886870e+02 -2.917384e+02 -2.888034e+02 -2.923073e+02 -2.888344e+02 -2.928219e+02 -2.887672e+02 -2.932582e+02 -2.886142e+02 -2.934786e+02 -2.884604e+02 -2.935005e+02 -2.887731e+02 -2.937672e+02 -2.888330e+02 -2.941497e+02 -2.890355e+02 -2.943411e+02 -2.894007e+02 -2.943121e+02 -2.898678e+02 -2.941600e+02 -2.903261e+02 -2.938432e+02 -2.906258e+02 -2.934786e+02 -2.908042e+02 -2.930965e+02 -2.908883e+02 -2.926998e+02 -2.908927e+02 -2.922853e+02 -2.908262e+02 -2.918498e+02 -2.906954e+02 -2.913911e+02 -2.905056e+02 -2.909090e+02 -2.902613e+02 -2.904043e+02 -2.899672e+02 -2.898791e+02 -2.896279e+02 -2.893368e+02 -2.892485e+02 
-2.961457e+02 -2.938877e+02 -2.966536e+02 -2.944647e+02 -2.971781e+02 -2.950515e+02 -2.977116e+02 -2.956417e+02 -2.982463e+02 -2.962290e+02 -2.987746e+02 -2.968066e+02 -2.992890e+02 -2.973678e+02 -2.997827e+02 -2.979063e+02 -3.002492e+02 -2.984159e+02 -3.006830e+02 -2.988914e+02 -3.010793e+02 -2.993278e+02 -3.014341e+02 -2.997212e+02 -3.017441e+02 -3.000681e+02 -3.020068e+02 -3.003658e+02 -3.022202e+02 -3.006120e+02 -3.023828e+02 -3.008047e+02 -3.024931e+02 -3.009422e+02 -3.025500e+02 -3.010227e+02 -3.025524e+02 -3.010445e+02 -3.024991e+02 -3.010058e+02 -3.023894e+02 -3.009049e+02 -3.022227e+02 -3.007406e+02 -3.019991e+02 -3.005121e+02 -3.017201e+02 -3.002200e+02 -3.013883e+02 -2.998663e+02 -3.010080e+02 -2.994549e+02 -3.005856e+02 -2.989915e+02 -3.001290e+02 -2.984843e+02 -2.996478e+02 -2.979438e+02 -2.991525e+02 -2.973826e+02 -2.986531e+02 -2.968137e+02 -2.981567e+02 -2.962474e+02 -2.976643e+02 -2.956858e+02 -2.971669e+02 -2.951176e+02 -2.966466e+02 -2.945195e+02 -2.960812e+02 -2.938633e+02 -2.954572e+02 -2.931291e+02 -2.947845e+02 -2.923158e+02 -2.941054e+02 -2.914460e+02 -2.934924e+02 -2.905605e+02 -2.930280e+02 -2.897107e+02 -2.927726e+02 -2.889615e+02 -2.927319e+02 -2.884103e+02 -2.928391e+02 -2.881951e+02 -2.929856e+02 -2.883769e+02 -2.931587e+02 -2.885702e+02 -2.936761e+02 -2.885127e+02 -2.940535e+02 -2.880444e+02 -2.939611e+02 -2.878500e+02 -2.939750e+02 -2.876895e+02 -2.939469e+02 -2.878134e+02 -2.938591e+02 -2.881810e+02 -2.938798e+02 -2.887169e+02 -2.936368e+02 -2.890737e+02 -2.934824e+02 -2.894047e+02 -2.934396e+02 -2.897423e+02 -2.934929e+02 -2.900971e+02 -2.936273e+02 -2.904748e+02 -2.938320e+02 -2.908792e+02 -2.940988e+02 -2.913123e+02 -2.944212e+02 -2.917748e+02 -2.947932e+02 -2.922659e+02 -2.952087e+02 -2.927839e+02 -2.956618e+02 -2.933258e+02 
-2.888105e+02 -2.889578e+02 -2.882246e+02 -2.884877e+02 -2.876344e+02 -2.879943e+02 -2.870468e+02 -2.874848e+02 -2.864684e+02 -2.869668e+02 -2.859063e+02 -2.864481e+02 -2.853672e+02 -2.859365e+02 -2.848575e+02 -2.854392e+02 -2.843828e+02 -2.849635e+02 -2.839481e+02 -2.845156e+02 -2.835576e+02 -2.841013e+02 -2.832146e+02 -2.837254e+02 -2.829217e+02 -2.833922e+02 -2.826807e+02 -2.831052e+02 -2.824930e+02 -2.828673e+02 -2.823594e+02 -2.826813e+02 -2.822810e+02 -2.825496e+02 -2.822588e+02 -2.824744e+02 -2.822940e+02 -2.824581e+02 -2.823880e+02 -2.825027e+02 -2.825426e+02 -2.826102e+02 -2.827591e+02 -2.827815e+02 -2.830382e+02 -2.830164e+02 -2.833789e+02 -2.833124e+02 -2.837776e+02 -2.836639e+02 -2.842266e+02 -2.840612e+02 -2.847139e+02 -2.844903e+02 -2.852223e+02 -2.849322e+02 -2.857304e+02 -2.853643e+02 -2.862141e+02 -2.857624e+02 -2.866502e+02 -2.861044e+02 -2.870210e+02 -2.863769e+02 -2.873200e+02 -2.865819e+02 -2.875587e+02 -2.867416e+02 -2.877686e+02 -2.868961e+02 -2.879961e+02 -2.870910e+02 -2.882900e+02 -2.873589e+02 -2.886874e+02 -2.877026e+02 -2.892043e+02 -2.880897e+02 -2.898325e+02 -2.884646e+02 -2.905398e+02 -2.887729e+02 -2.912721e+02 -2.889846e+02 -2.919650e+02 -2.890926e+02 -2.925792e+02 -2.890889e+02 -2.931537e+02 -2.889203e+02 -2.937688e+02 -2.885442e+02 -2.939181e+02 -2.877575e+02 -2.933300e+02 -2.889524e+02 -2.937747e+02 -2.885308e+02 -2.946234e+02 -2.887057e+02 -2.949125e+02 -2.892068e+02 -2.947682e+02 -2.899128e+02 -2.946349e+02 -2.906570e+02 -2.941257e+02 -2.909701e+02 -2.936707e+02 -2.911342e+02 -2.932477e+02 -2.912011e+02 -2.928318e+02 -2.911874e+02 -2.924068e+02 -2.911025e+02 -2.919633e+02 -2.909528e+02 -2.914964e+02 -2.907435e+02 -2.910042e+02 -2.904790e+02 -2.904870e+02 -2.901635e+02 -2.899466e+02 -2.898015e+02 -2.893863e+02 -2.893977e+02 
-2.960352e+02 -2.938292e+02 -2.965768e+02 -2.944307e+02 -2.971360e+02 -2.950444e+02 -2.977047e+02 -2.956632e+02 -2.982742e+02 -2.962800e+02 -2.988362e+02 -2.968871e+02 -2.993826e+02 -2.974771e+02 -2.999059e+02 -2.980429e+02 -3.003992e+02 -2.985778e+02 -3.008566e+02 -2.990762e+02 -3.012733e+02 -2.995329e+02 -3.016454e+02 -2.999440e+02 -3.019699e+02 -3.003062e+02 -3.022446e+02 -3.006173e+02 -3.024680e+02 -3.008753e+02 -3.026391e+02 -3.010787e+02 -3.027568e+02 -3.012261e+02 -3.028201e+02 -3.013161e+02 -3.028280e+02 -3.013467e+02 -3.027791e+02 -3.013158e+02 -3.026716e+02 -3.012207e+02 -3.025042e+02 -3.010590e+02 -3.022757e+02 -3.008284e+02 -3.019862e+02 -3.005278e+02 -3.016371e+02 -3.001579e+02 -3.012321e+02 -2.997214e+02 -3.007777e+02 -2.992242e+02 -3.002830e+02 -2.986754e+02 -2.997605e+02 -2.980889e+02 -2.992260e+02 -2.974834e+02 -2.986967e+02 -2.968821e+02 -2.981874e+02 -2.963069e+02 -2.977037e+02 -2.957673e+02 -2.972335e+02 -2.952474e+02 -2.967429e+02 -2.947045e+02 -2.961833e+02 -2.940830e+02 -2.955133e+02 -2.933378e+02 -2.947276e+02 -2.924564e+02 -2.938803e+02 -2.914662e+02 -2.930870e+02 -2.904213e+02 -2.924930e+02 -2.893774e+02 -2.922180e+02 -2.883942e+02 -2.922893e+02 -2.876043e+02 -2.925763e+02 -2.873551e+02 -2.927715e+02 -2.881570e+02 -2.926319e+02 -2.888215e+02 -2.938948e+02 -2.889676e+02 -2.947733e+02 -2.875500e+02 -2.939618e+02 -2.875260e+02 -2.941118e+02 -2.869970e+02 -2.940771e+02 -2.871738e+02 -2.937631e+02 -2.877227e+02 -2.942085e+02 -2.887971e+02 -2.934712e+02 -2.890231e+02 -2.932064e+02 -2.893196e+02 -2.931404e+02 -2.896410e+02 -2.931957e+02 -2.899843e+02 -2.933419e+02 -2.903541e+02 -2.935634e+02 -2.907544e+02 -2.938503e+02 -2.911877e+02 -2.941955e+02 -2.916548e+02 -2.945927e+02 -2.921551e+02 -2.950361e+02 -2.926866e+02 -2.955191e+02 -2.932461e+02 
-2.888500e+02 -2.891113e+02 -2.882356e+02 -2.886071e+02 -2.876150e+02 -2.880777e+02 -2.869957e+02 -2.875312e+02 -2.863854e+02 -2.869756e+02 -2.857921e+02 -2.864197e+02 -2.852233e+02 -2.858718e+02 -2.846860e+02 -2.853402e+02 -2.841866e+02 -2.848325e+02 -2.837305e+02 -2.843555e+02 -2.833218e+02 -2.839151e+02 -2.829640e+02 -2.835164e+02 -2.826592e+02 -2.831635e+02 -2.824090e+02 -2.828597e+02 -2.822142e+02 -2.826078e+02 -2.820756e+02 -2.824104e+02 -2.819936e+02 -2.822699e+02 -2.819694e+02 -2.821889e+02 -2.820045e+02 -2.821703e+02 -2.821012e+02 -2.822173e+02 -2.822625e+02 -2.823332e+02 -2.824917e+02 -2.825207e+02 -2.827915e+02 -2.827812e+02 -2.831628e+02 -2.831136e+02 -2.836034e+02 -2.835129e+02 -2.841060e+02 -2.839689e+02 -2.846564e+02 -2.844648e+02 -2.852332e+02 -2.849770e+02 -2.858082e+02 -2.854754e+02 -2.863479e+02 -2.859255e+02 -2.868179e+02 -2.862931e+02 -2.871885e+02 -2.865533e+02 -2.874444e+02 -2.867039e+02 -2.875973e+02 -2.867784e+02 -2.876950e+02 -2.868468e+02 -2.878141e+02 -2.869943e+02 -2.880357e+02 -2.872852e+02 -2.884192e+02 -2.877282e+02 -2.889876e+02 -2.882623e+02 -2.897262e+02 -2.887772e+02 -2.905869e+02 -2.891701e+02 -2.914816e+02 -2.894043e+02 -2.922858e+02 -2.895043e+02 -2.928972e+02 -2.895104e+02 -2.934413e+02 -2.892753e+02 -2.947394e+02 -2.888812e+02 -2.950958e+02 -2.851244e+02 -2.940419e+02 -2.856275e+02 -2.912635e+02 -2.879086e+02 -2.933782e+02 -2.873841e+02 -2.939616e+02 -2.880902e+02 -2.937154e+02 -2.898466e+02 -2.951656e+02 -2.914205e+02 -2.943569e+02 -2.914657e+02 -2.938327e+02 -2.915626e+02 -2.933931e+02 -2.915954e+02 -2.929737e+02 -2.915540e+02 -2.925473e+02 -2.914438e+02 -2.921006e+02 -2.912700e+02 -2.916272e+02 -2.910369e+02 -2.911247e+02 -2.907479e+02 -2.905930e+02 -2.904066e+02 -2.900341e+02 -2.900169e+02 -2.894515e+02 -2.895833e+02 
-2.958991e+02 -2.937526e+02 -2.964824e+02 -2.943848e+02 -2.970848e+02 -2.950323e+02 -2.976972e+02 -2.956872e+02 -2.983101e+02 -2.963412e+02 -2.989141e+02 -2.969854e+02 -2.995001e+02 -2.976114e+02 -3.000598e+02 -2.982111e+02 -3.005858e+02 -2.987772e+02 -3.010717e+02 -2.993033e+02 -3.015127e+02 -2.997843e+02 -3.019050e+02 -3.002162e+02 -3.022460e+02 -3.005962e+02 -3.025342e+02 -3.009223e+02 -3.027687e+02 -3.011935e+02 -3.029491e+02 -3.014090e+02 -3.030752e+02 -3.015681e+02 -3.031465e+02 -3.016697e+02 -3.031618e+02 -3.017121e+02 -3.031194e+02 -3.016925e+02 -3.030169e+02 -3.016071e+02 -3.028513e+02 -3.014517e+02 -3.026197e+02 -3.012219e+02 -3.023199e+02 -3.009138e+02 -3.019512e+02 -3.005257e+02 -3.015156e+02 -3.000582e+02 -3.010187e+02 -2.995159e+02 -3.004703e+02 -2.989080e+02 -2.998865e+02 -2.982513e+02 -2.992901e+02 -2.975727e+02 -2.987104e+02 -2.969121e+02 -2.981783e+02 -2.963153e+02 -2.977130e+02 -2.958119e+02 -2.973032e+02 -2.953830e+02 -2.968917e+02 -2.949527e+02 -2.963821e+02 -2.944143e+02 -2.956761e+02 -2.936768e+02 -2.947305e+02 -2.927085e+02 -2.936096e+02 -2.915543e+02 -2.925002e+02 -2.903024e+02 -2.916627e+02 -2.890073e+02 -2.913397e+02 -2.876532e+02 -2.916465e+02 -2.862674e+02 -2.924103e+02 -2.854606e+02 -2.928829e+02 -2.880654e+02 -2.906892e+02 -2.895311e+02 -2.995274e+02 -2.871240e+02 -2.972888e+02 -2.819809e+02 -2.868964e+02 -2.835221e+02 -2.894139e+02 -2.838425e+02 -2.903435e+02 -2.850733e+02 -2.906889e+02 -2.872459e+02 -2.928188e+02 -2.885885e+02 -2.928368e+02 -2.889045e+02 -2.927338e+02 -2.892111e+02 -2.927211e+02 -2.895189e+02 -2.928085e+02 -2.898459e+02 -2.929819e+02 -2.902031e+02 -2.932297e+02 -2.905967e+02 -2.935438e+02 -2.910293e+02 -2.939178e+02 -2.915018e+02 -2.943463e+02 -2.920132e+02 -2.948236e+02 -2.925614e+02 -2.953436e+02 -2.931428e+02 
-2.889028e+02 -2.892974e+02 -2.882532e+02 -2.887519e+02 -2.875948e+02 -2.881790e+02 -2.869361e+02 -2.875871e+02 -2.862863e+02 -2.869856e+02 -2.856542e+02 -2.863839e+02 -2.850487e+02 -2.857918e+02 -2.844776e+02 -2.852182e+02 -2.839482e+02 -2.846716e+02 -2.834662e+02 -2.841595e+02 -2.830360e+02 -2.836880e+02 -2.826608e+02 -2.832622e+02 -2.823426e+02 -2.828861e+02 -2.820821e+02 -2.825626e+02 -2.818797e+02 -2.822941e+02 -2.817352e+02 -2.820828e+02 -2.816488e+02 -2.819311e+02 -2.816212e+02 -2.818417e+02 -2.816543e+02 -2.818183e+02 -2.817515e+02 -2.818654e+02 -2.819175e+02 -2.819882e+02 -2.821582e+02 -2.821921e+02 -2.824794e+02 -2.824811e+02 -2.828855e+02 -2.828566e+02 -2.833769e+02 -2.833152e+02 -2.839473e+02 -2.838462e+02 -2.845812e+02 -2.844306e+02 -2.852519e+02 -2.850392e+02 -2.859222e+02 -2.856327e+02 -2.865462e+02 -2.861625e+02 -2.870733e+02 -2.865746e+02 -2.874536e+02 -2.868200e+02 -2.876509e+02 -2.868797e+02 -2.876685e+02 -2.867987e+02 -2.875781e+02 -2.866973e+02 -2.875105e+02 -2.867371e+02 -2.876059e+02 -2.870497e+02 -2.879617e+02 -2.876635e+02 -2.886075e+02 -2.884658e+02 -2.895152e+02 -2.892320e+02 -2.906224e+02 -2.897474e+02 -2.918021e+02 -2.899734e+02 -2.928114e+02 -2.900138e+02 -2.932827e+02 -2.901666e+02 -2.929574e+02 -2.897842e+02 -2.986718e+02 -2.949670e+02 -2.745798e+02 -2.743473e+02 -2.965813e+02 -2.743435e+02 -2.914496e+02 -2.812942e+02 -2.917274e+02 -2.846132e+02 -2.925496e+02 -2.871505e+02 -2.929537e+02 -2.897451e+02 -2.946064e+02 -2.914233e+02 -2.943069e+02 -2.919122e+02 -2.939117e+02 -2.920567e+02 -2.935198e+02 -2.920649e+02 -2.931237e+02 -2.919904e+02 -2.927087e+02 -2.918492e+02 -2.922651e+02 -2.916469e+02 -2.917877e+02 -2.913863e+02 -2.912747e+02 -2.910694e+02 -2.907265e+02 -2.906984e+02 -2.901455e+02 -2.902765e+02 -2.895358e+02 -2.898077e+02 
-2.957355e+02 -2.936538e+02 -2.963691e+02 -2.943239e+02 -2.970239e+02 -2.950132e+02 -2.976896e+02 -2.957128e+02 -2.983554e+02 -2.964127e+02 -2.990106e+02 -2.971027e+02 -2.996447e+02 -2.977728e+02 -3.002484e+02 -2.984139e+02 -3.008133e+02 -2.990174e+02 -3.013328e+02 -2.995765e+02 -3.018017e+02 -3.000857e+02 -3.022167e+02 -3.005412e+02 -3.025756e+02 -3.009405e+02 -3.028779e+02 -3.012826e+02 -3.031237e+02 -3.015676e+02 -3.033137e+02 -3.017959e+02 -3.034488e+02 -3.019679e+02 -3.035292e+02 -3.020834e+02 -3.035542e+02 -3.021409e+02 -3.035219e+02 -3.021373e+02 -3.034286e+02 -3.020677e+02 -3.032697e+02 -3.019251e+02 -3.030393e+02 -3.017019e+02 -3.027319e+02 -3.013903e+02 -3.023432e+02 -3.009842e+02 -3.018718e+02 -3.004806e+02 -3.013206e+02 -2.998808e+02 -3.006986e+02 -2.991919e+02 -3.000239e+02 -2.984303e+02 -2.993279e+02 -2.976308e+02 -2.986593e+02 -2.968580e+02 -2.980795e+02 -2.962057e+02 -2.976407e+02 -2.957551e+02 -2.973477e+02 -2.954930e+02 -2.971121e+02 -2.952829e+02 -2.967521e+02 -2.949204e+02 -2.960568e+02 -2.942269e+02 -2.948941e+02 -2.931366e+02 -2.933250e+02 -2.917440e+02 -2.916544e+02 -2.902453e+02 -2.903416e+02 -2.887212e+02 -2.898553e+02 -2.869646e+02 -2.905613e+02 -2.843572e+02 -2.925367e+02 -2.801290e+02 -2.954551e+02 -2.891966e+02 -2.369411e+02 -2.736009e+02 -2.904596e+02 -2.754388e+02 -2.972161e+02 -2.665390e+02 -2.933920e+02 -2.764608e+02 -2.919186e+02 -2.816191e+02 -2.908368e+02 -2.848025e+02 -2.904449e+02 -2.869629e+02 -2.930131e+02 -2.882558e+02 -2.923245e+02 -2.887968e+02 -2.921720e+02 -2.891028e+02 -2.922030e+02 -2.893786e+02 -2.923362e+02 -2.896779e+02 -2.925483e+02 -2.900166e+02 -2.928304e+02 -2.904004e+02 -2.931776e+02 -2.908314e+02 -2.935859e+02 -2.913099e+02 -2.940512e+02 -2.918346e+02 -2.945688e+02 -2.924030e+02 -2.951326e+02 -2.930113e+02 