# vtk DataFile Version 2.0
Comment goes here
ASCII

DATASET STRUCTURED_POINTS
DIMENSIONS    128   128   1

ORIGIN    0.000   0.000   0.000
SPACING   0.0156250.015625   1.000

POINT_DATA   16384
SCALARS P double
LOOKUP_TABLE default

-2.705823e+02 -2.705560e+02 -2.700858e+02 -2.701759e+02 -2.695900e+02 -2.697766e+02 -2.690996e+02 -2.693642e+02 -2.686198e+02 -2.689448e+02 -2.681556e+02 -2.685246e+02 -2.677118e+02 -2.681097e+02 -2.672931e+02 -2.677060e+02 -2.669039e+02 -2.673193e+02 -2.665482e+02 -2.669548e+02 -2.662294e+02 -2.666176e+02 -2.659505e+02 -2.663119e+02 -2.657141e+02 -2.660418e+02 -2.655221e+02 -2.658107e+02 -2.653761e+02 -2.656215e+02 -2.652773e+02 -2.654766e+02 -2.652264e+02 -2.653777e+02 -2.652238e+02 -2.653262e+02 -2.652694e+02 -2.653225e+02 -2.653629e+02 -2.653666e+02 -2.655031e+02 -2.654577e+02 -2.656885e+02 -2.655939e+02 -2.659166e+02 -2.657725e+02 -2.661842e+02 -2.659895e+02 -2.664869e+02 -2.662398e+02 -2.668189e+02 -2.665168e+02 -2.671736e+02 -2.668129e+02 -2.675432e+02 -2.671194e+02 -2.679197e+02 -2.674277e+02 -2.682952e+02 -2.677294e+02 -2.686633e+02 -2.680179e+02 -2.690201e+02 -2.682890e+02 -2.693647e+02 -2.685417e+02 -2.697002e+02 -2.687777e+02 -2.700330e+02 -2.690013e+02 -2.703719e+02 -2.692171e+02 -2.707262e+02 -2.694290e+02 -2.711041e+02 -2.696388e+02 -2.715101e+02 -2.698447e+02 -2.719439e+02 -2.700425e+02 -2.723993e+02 -2.702254e+02 -2.728642e+02 -2.703863e+02 -2.733222e+02 -2.705199e+02 -2.737548e+02 -2.706253e+02 -2.741447e+02 -2.707085e+02 -2.744792e+02 -2.707835e+02 -2.747534e+02 -2.708688e+02 -2.749701e+02 -2.709802e+02 -2.751337e+02 -2.711230e+02 -2.752402e+02 -2.712979e+02 -2.752793e+02 -2.714979e+02 -2.752433e+02 -2.717077e+02 -2.751318e+02 -2.719066e+02 -2.749509e+02 -2.720744e+02 -2.747107e+02 -2.721969e+02 -2.744218e+02 -2.722657e+02 -2.740930e+02 -2.722775e+02 -2.737309e+02 -2.722319e+02 -2.733402e+02 -2.721306e+02 -2.729246e+02 -2.719766e+02 -2.724872e+02 -2.717733e+02 -2.720309e+02 -2.715249e+02 -2.715589e+02 -2.712359e+02 -2.710747e+02 -2.709112e+02 
-2.777815e+02 -2.756270e+02 -2.782147e+02 -2.761325e+02 -2.786617e+02 -2.766417e+02 -2.791163e+02 -2.771498e+02 -2.795719e+02 -2.776519e+02 -2.800223e+02 -2.781428e+02 -2.804612e+02 -2.786173e+02 -2.808828e+02 -2.790704e+02 -2.812815e+02 -2.794972e+02 -2.816523e+02 -2.798933e+02 -2.819905e+02 -2.802546e+02 -2.822922e+02 -2.805774e+02 -2.825538e+02 -2.808584e+02 -2.827723e+02 -2.810948e+02 -2.829453e+02 -2.812842e+02 -2.830708e+02 -2.814244e+02 -2.831472e+02 -2.815138e+02 -2.831735e+02 -2.815511e+02 -2.831492e+02 -2.815353e+02 -2.830741e+02 -2.814660e+02 -2.829489e+02 -2.813432e+02 -2.827751e+02 -2.811678e+02 -2.825547e+02 -2.809414e+02 -2.822909e+02 -2.806666e+02 -2.819876e+02 -2.803465e+02 -2.816494e+02 -2.799854e+02 -2.812813e+02 -2.795876e+02 -2.808884e+02 -2.791578e+02 -2.804753e+02 -2.787003e+02 -2.800461e+02 -2.782188e+02 -2.796035e+02 -2.777158e+02 -2.791495e+02 -2.771925e+02 -2.786849e+02 -2.766487e+02 -2.782106e+02 -2.760838e+02 -2.777287e+02 -2.754975e+02 -2.772438e+02 -2.748919e+02 -2.767652e+02 -2.742730e+02 -2.763071e+02 -2.736523e+02 -2.758883e+02 -2.730465e+02 -2.755290e+02 -2.724760e+02 -2.752471e+02 -2.719624e+02 -2.750529e+02 -2.715239e+02 -2.749464e+02 -2.711716e+02 -2.749174e+02 -2.709057e+02 -2.749487e+02 -2.707139e+02 -2.750194e+02 -2.705766e+02 -2.751070e+02 -2.704781e+02 -2.751889e+02 -2.704147e+02 -2.752500e+02 -2.703957e+02 -2.752870e+02 -2.704330e+02 -2.753028e+02 -2.705345e+02 -2.753040e+02 -2.706988e+02 -2.753001e+02 -2.709166e+02 -2.753020e+02 -2.711756e+02 -2.753233e+02 -2.714666e+02 -2.753763e+02 -2.717844e+02 -2.754699e+02 -2.721266e+02 -2.756092e+02 -2.724919e+02 -2.757958e+02 -2.728801e+02 -2.760292e+02 -2.732905e+02 -2.763071e+02 -2.737224e+02 -2.766260e+02 -2.741743e+02 -2.769815e+02 -2.746443e+02 -2.773685e+02 -2.751297e+02 
-2.705844e+02 -2.705683e+02 -2.700856e+02 -2.701852e+02 -2.695874e+02 -2.697829e+02 -2.690946e+02 -2.693674e+02 -2.686123e+02 -2.689449e+02 -2.681456e+02 -2.685217e+02 -2.676994e+02 -2.681038e+02 -2.672786e+02 -2.676973e+02 -2.668875e+02 -2.673080e+02 -2.665300e+02 -2.669411e+02 -2.662097e+02 -2.666016e+02 -2.659296e+02 -2.662940e+02 -2.656921e+02 -2.660222e+02 -2.654993e+02 -2.657897e+02 -2.653528e+02 -2.655994e+02 -2.652537e+02 -2.654537e+02 -2.652027e+02 -2.653544e+02 -2.652002e+02 -2.653027e+02 -2.652462e+02 -2.652993e+02 -2.653404e+02 -2.653442e+02 -2.654817e+02 -2.654365e+02 -2.656687e+02 -2.655746e+02 -2.658990e+02 -2.657557e+02 -2.661693e+02 -2.659758e+02 -2.664751e+02 -2.662297e+02 -2.668108e+02 -2.665108e+02 -2.671693e+02 -2.668110e+02 -2.675427e+02 -2.671216e+02 -2.679226e+02 -2.674333e+02 -2.683005e+02 -2.677376e+02 -2.686699e+02 -2.680274e+02 -2.690263e+02 -2.682987e+02 -2.693692e+02 -2.685504e+02 -2.697018e+02 -2.687851e+02 -2.700312e+02 -2.690076e+02 -2.703670e+02 -2.692234e+02 -2.707196e+02 -2.694369e+02 -2.710975e+02 -2.696497e+02 -2.715058e+02 -2.698597e+02 -2.719440e+02 -2.700614e+02 -2.724054e+02 -2.702472e+02 -2.728771e+02 -2.704089e+02 -2.733419e+02 -2.705403e+02 -2.737805e+02 -2.706400e+02 -2.741746e+02 -2.707145e+02 -2.745103e+02 -2.707792e+02 -2.747822e+02 -2.708563e+02 -2.749966e+02 -2.709648e+02 -2.751621e+02 -2.711072e+02 -2.752737e+02 -2.712854e+02 -2.753166e+02 -2.714931e+02 -2.752809e+02 -2.717133e+02 -2.751665e+02 -2.719222e+02 -2.749805e+02 -2.720973e+02 -2.747351e+02 -2.722238e+02 -2.744418e+02 -2.722942e+02 -2.741097e+02 -2.723060e+02 -2.737451e+02 -2.722596e+02 -2.733527e+02 -2.721569e+02 -2.729355e+02 -2.720010e+02 -2.724966e+02 -2.717956e+02 -2.720388e+02 -2.715450e+02 -2.715650e+02 -2.712535e+02 -2.710789e+02 -2.709262e+02 
-2.777618e+02 -2.756190e+02 -2.782012e+02 -2.761288e+02 -2.786547e+02 -2.766429e+02 -2.791157e+02 -2.771561e+02 -2.795778e+02 -2.776634e+02 -2.800344e+02 -2.781595e+02 -2.804793e+02 -2.786390e+02 -2.809064e+02 -2.790969e+02 -2.813102e+02 -2.795283e+02 -2.816856e+02 -2.799285e+02 -2.820279e+02 -2.802935e+02 -2.823331e+02 -2.806196e+02 -2.825976e+02 -2.809035e+02 -2.828187e+02 -2.811424e+02 -2.829937e+02 -2.813339e+02 -2.831208e+02 -2.814760e+02 -2.831984e+02 -2.815670e+02 -2.832256e+02 -2.816055e+02 -2.832016e+02 -2.815907e+02 -2.831264e+02 -2.815219e+02 -2.830005e+02 -2.813991e+02 -2.828253e+02 -2.812231e+02 -2.826028e+02 -2.809952e+02 -2.823360e+02 -2.807179e+02 -2.820289e+02 -2.803946e+02 -2.816862e+02 -2.800291e+02 -2.813129e+02 -2.796264e+02 -2.809146e+02 -2.791913e+02 -2.804964e+02 -2.787288e+02 -2.800626e+02 -2.782431e+02 -2.796165e+02 -2.777373e+02 -2.791601e+02 -2.772130e+02 -2.786940e+02 -2.766699e+02 -2.782182e+02 -2.761064e+02 -2.777334e+02 -2.755207e+02 -2.772428e+02 -2.749129e+02 -2.767544e+02 -2.742875e+02 -2.762825e+02 -2.736549e+02 -2.758478e+02 -2.730324e+02 -2.754737e+02 -2.724423e+02 -2.751817e+02 -2.719091e+02 -2.749850e+02 -2.714557e+02 -2.748840e+02 -2.710982e+02 -2.748669e+02 -2.708392e+02 -2.749142e+02 -2.706631e+02 -2.750044e+02 -2.705395e+02 -2.751134e+02 -2.704438e+02 -2.752097e+02 -2.703708e+02 -2.752741e+02 -2.703396e+02 -2.753082e+02 -2.703691e+02 -2.753171e+02 -2.704719e+02 -2.753090e+02 -2.706456e+02 -2.752943e+02 -2.708758e+02 -2.752829e+02 -2.711439e+02 -2.752919e+02 -2.714402e+02 -2.753360e+02 -2.717604e+02 -2.754246e+02 -2.721035e+02 -2.755620e+02 -2.724693e+02 -2.757492e+02 -2.728579e+02 -2.759850e+02 -2.732691e+02 -2.762664e+02 -2.737024e+02 -2.765896e+02 -2.741563e+02 -2.769502e+02 -2.746290e+02 -2.773428e+02 -2.751177e+02 
-2.705908e+02 -2.706057e+02 -2.700851e+02 -2.702140e+02 -2.695795e+02 -2.698027e+02 -2.690792e+02 -2.693780e+02 -2.685894e+02 -2.689462e+02 -2.681153e+02 -2.685138e+02 -2.676622e+02 -2.680870e+02 -2.672348e+02 -2.676720e+02 -2.668377e+02 -2.672746e+02 -2.664750e+02 -2.669003e+02 -2.661502e+02 -2.665542e+02 -2.658664e+02 -2.662407e+02 -2.656259e+02 -2.659638e+02 -2.654309e+02 -2.657271e+02 -2.652827e+02 -2.655334e+02 -2.651826e+02 -2.653852e+02 -2.651313e+02 -2.652843e+02 -2.651292e+02 -2.652321e+02 -2.651764e+02 -2.652295e+02 -2.652727e+02 -2.652765e+02 -2.654174e+02 -2.653726e+02 -2.656091e+02 -2.655163e+02 -2.658458e+02 -2.657048e+02 -2.661241e+02 -2.659342e+02 -2.664397e+02 -2.661991e+02 -2.667866e+02 -2.664924e+02 -2.671570e+02 -2.668055e+02 -2.675422e+02 -2.671284e+02 -2.679324e+02 -2.674509e+02 -2.683182e+02 -2.677630e+02 -2.686913e+02 -2.680569e+02 -2.690469e+02 -2.683282e+02 -2.693841e+02 -2.685766e+02 -2.697073e+02 -2.688063e+02 -2.700256e+02 -2.690248e+02 -2.703515e+02 -2.692402e+02 -2.706980e+02 -2.694585e+02 -2.710759e+02 -2.696812e+02 -2.714913e+02 -2.699042e+02 -2.719433e+02 -2.701190e+02 -2.724235e+02 -2.703143e+02 -2.729166e+02 -2.704789e+02 -2.734027e+02 -2.706042e+02 -2.738600e+02 -2.706868e+02 -2.742675e+02 -2.707330e+02 -2.746069e+02 -2.707635e+02 -2.748690e+02 -2.708125e+02 -2.750720e+02 -2.709154e+02 -2.752445e+02 -2.710556e+02 -2.753758e+02 -2.712434e+02 -2.754324e+02 -2.714758e+02 -2.753970e+02 -2.717302e+02 -2.752728e+02 -2.719719e+02 -2.750700e+02 -2.721689e+02 -2.748076e+02 -2.723069e+02 -2.745007e+02 -2.723815e+02 -2.741589e+02 -2.723930e+02 -2.737875e+02 -2.723435e+02 -2.733898e+02 -2.722363e+02 -2.729683e+02 -2.720749e+02 -2.725250e+02 -2.718633e+02 -2.720625e+02 -2.716059e+02 -2.715837e+02 -2.713071e+02 -2.710918e+02 -2.709720e+02 
-2.777218e+02 -2.756024e+02 -2.781738e+02 -2.761212e+02 -2.786402e+02 -2.766450e+02 -2.791143e+02 -2.771685e+02 -2.795893e+02 -2.776863e+02 -2.800585e+02 -2.781929e+02 -2.805154e+02 -2.786827e+02 -2.809538e+02 -2.791504e+02 -2.813678e+02 -2.795908e+02 -2.817524e+02 -2.799994e+02 -2.821028e+02 -2.803718e+02 -2.824150e+02 -2.807044e+02 -2.826855e+02 -2.809940e+02 -2.829115e+02 -2.812378e+02 -2.830906e+02 -2.814336e+02 -2.832209e+02 -2.815794e+02 -2.833010e+02 -2.816735e+02 -2.833298e+02 -2.817147e+02 -2.833067e+02 -2.817018e+02 -2.832314e+02 -2.816342e+02 -2.831043e+02 -2.815115e+02 -2.829265e+02 -2.813343e+02 -2.826999e+02 -2.811036e+02 -2.824272e+02 -2.808215e+02 -2.821124e+02 -2.804914e+02 -2.817603e+02 -2.801172e+02 -2.813765e+02 -2.797041e+02 -2.809670e+02 -2.792579e+02 -2.805378e+02 -2.787844e+02 -2.800944e+02 -2.782894e+02 -2.796409e+02 -2.777775e+02 -2.791800e+02 -2.772514e+02 -2.787117e+02 -2.767106e+02 -2.782344e+02 -2.761515e+02 -2.777454e+02 -2.755690e+02 -2.772443e+02 -2.749585e+02 -2.767361e+02 -2.743208e+02 -2.762352e+02 -2.736643e+02 -2.757657e+02 -2.730069e+02 -2.753586e+02 -2.723744e+02 -2.750440e+02 -2.717979e+02 -2.748416e+02 -2.713098e+02 -2.747532e+02 -2.709386e+02 -2.747617e+02 -2.706968e+02 -2.748417e+02 -2.705626e+02 -2.749723e+02 -2.704750e+02 -2.751326e+02 -2.703868e+02 -2.752624e+02 -2.702849e+02 -2.753285e+02 -2.702227e+02 -2.753542e+02 -2.702319e+02 -2.753482e+02 -2.703380e+02 -2.753205e+02 -2.705359e+02 -2.752851e+02 -2.707971e+02 -2.752437e+02 -2.710845e+02 -2.752256e+02 -2.713899e+02 -2.752515e+02 -2.717138e+02 -2.753305e+02 -2.720579e+02 -2.754651e+02 -2.724239e+02 -2.756542e+02 -2.728131e+02 -2.758950e+02 -2.732258e+02 -2.761838e+02 -2.736617e+02 -2.765161e+02 -2.741196e+02 -2.768868e+02 -2.745977e+02 -2.772907e+02 -2.750931e+02 
-2.706020e+02 -2.706688e+02 -2.700846e+02 -2.702625e+02 -2.695667e+02 -2.698361e+02 -2.690537e+02 -2.693959e+02 -2.685511e+02 -2.689485e+02 -2.680646e+02 -2.685006e+02 -2.675995e+02 -2.680588e+02 -2.671611e+02 -2.676294e+02 -2.667540e+02 -2.672185e+02 -2.663825e+02 -2.668318e+02 -2.660503e+02 -2.664745e+02 -2.657602e+02 -2.661511e+02 -2.655148e+02 -2.658657e+02 -2.653159e+02 -2.656218e+02 -2.651651e+02 -2.654224e+02 -2.650634e+02 -2.652699e+02 -2.650114e+02 -2.651664e+02 -2.650098e+02 -2.651133e+02 -2.650589e+02 -2.651117e+02 -2.651585e+02 -2.651621e+02 -2.653086e+02 -2.652643e+02 -2.655081e+02 -2.654170e+02 -2.657553e+02 -2.656179e+02 -2.660473e+02 -2.658630e+02 -2.663795e+02 -2.661468e+02 -2.667455e+02 -2.664613e+02 -2.671368e+02 -2.667967e+02 -2.675428e+02 -2.671414e+02 -2.679517e+02 -2.674828e+02 -2.683515e+02 -2.678088e+02 -2.687318e+02 -2.681097e+02 -2.690857e+02 -2.683800e+02 -2.694122e+02 -2.686206e+02 -2.697173e+02 -2.688392e+02 -2.700141e+02 -2.690481e+02 -2.703202e+02 -2.692611e+02 -2.706544e+02 -2.694877e+02 -2.710315e+02 -2.697293e+02 -2.714595e+02 -2.699781e+02 -2.719366e+02 -2.702188e+02 -2.724513e+02 -2.704337e+02 -2.729832e+02 -2.706060e+02 -2.735073e+02 -2.707227e+02 -2.739982e+02 -2.707761e+02 -2.744323e+02 -2.707693e+02 -2.747815e+02 -2.707291e+02 -2.750150e+02 -2.707145e+02 -2.751773e+02 -2.708283e+02 -2.753680e+02 -2.709561e+02 -2.755522e+02 -2.711565e+02 -2.756396e+02 -2.714360e+02 -2.756017e+02 -2.717596e+02 -2.754574e+02 -2.720662e+02 -2.752193e+02 -2.723000e+02 -2.749249e+02 -2.724537e+02 -2.745950e+02 -2.725322e+02 -2.742378e+02 -2.725410e+02 -2.738561e+02 -2.724853e+02 -2.734509e+02 -2.723699e+02 -2.730227e+02 -2.721990e+02 -2.725728e+02 -2.719770e+02 -2.721028e+02 -2.717082e+02 -2.716153e+02 -2.713972e+02 -2.711137e+02 -2.710489e+02 
-2.776609e+02 -2.755762e+02 -2.781321e+02 -2.761088e+02 -2.786182e+02 -2.766476e+02 -2.791123e+02 -2.771869e+02 -2.796070e+02 -2.777209e+02 -2.800954e+02 -2.782436e+02 -2.805704e+02 -2.787490e+02 -2.810258e+02 -2.792315e+02 -2.814554e+02 -2.796858e+02 -2.818538e+02 -2.801068e+02 -2.822163e+02 -2.804903e+02 -2.825390e+02 -2.808327e+02 -2.828183e+02 -2.811307e+02 -2.830517e+02 -2.813818e+02 -2.832367e+02 -2.815839e+02 -2.833718e+02 -2.817351e+02 -2.834556e+02 -2.818340e+02 -2.834870e+02 -2.818791e+02 -2.834654e+02 -2.818694e+02 -2.833902e+02 -2.818038e+02 -2.832616e+02 -2.816818e+02 -2.830803e+02 -2.815031e+02 -2.828476e+02 -2.812685e+02 -2.825662e+02 -2.809795e+02 -2.822398e+02 -2.806390e+02 -2.818732e+02 -2.802512e+02 -2.814726e+02 -2.798216e+02 -2.810450e+02 -2.793568e+02 -2.805978e+02 -2.788648e+02 -2.801384e+02 -2.783538e+02 -2.796731e+02 -2.778313e+02 -2.792057e+02 -2.773024e+02 -2.787363e+02 -2.767671e+02 -2.782603e+02 -2.762190e+02 -2.777695e+02 -2.756464e+02 -2.772558e+02 -2.750367e+02 -2.767183e+02 -2.743831e+02 -2.761695e+02 -2.736903e+02 -2.756396e+02 -2.729768e+02 -2.751730e+02 -2.722735e+02 -2.748172e+02 -2.716206e+02 -2.746054e+02 -2.710657e+02 -2.745412e+02 -2.706622e+02 -2.745946e+02 -2.704529e+02 -2.747220e+02 -2.704168e+02 -2.749105e+02 -2.704105e+02 -2.751818e+02 -2.703428e+02 -2.753782e+02 -2.701589e+02 -2.754228e+02 -2.700339e+02 -2.754316e+02 -2.699971e+02 -2.754001e+02 -2.701115e+02 -2.753389e+02 -2.703623e+02 -2.752815e+02 -2.706921e+02 -2.751812e+02 -2.710073e+02 -2.751157e+02 -2.713216e+02 -2.751141e+02 -2.716471e+02 -2.751811e+02 -2.719904e+02 -2.753138e+02 -2.723555e+02 -2.755075e+02 -2.727447e+02 -2.757572e+02 -2.731592e+02 -2.760577e+02 -2.735989e+02 -2.764039e+02 -2.740628e+02 -2.767904e+02 -2.745491e+02 -2.772115e+02 -2.750548e+02 
-2.706189e+02 -2.707583e+02 -2.700849e+02 -2.703314e+02 -2.695493e+02 -2.698835e+02 -2.690180e+02 -2.694213e+02 -2.684971e+02 -2.689517e+02 -2.679927e+02 -2.684818e+02 -2.675106e+02 -2.680185e+02 -2.670565e+02 -2.675687e+02 -2.666352e+02 -2.671387e+02 -2.662513e+02 -2.667344e+02 -2.659085e+02 -2.663613e+02 -2.656098e+02 -2.660240e+02 -2.653575e+02 -2.657266e+02 -2.651534e+02 -2.654726e+02 -2.649989e+02 -2.652650e+02 -2.648948e+02 -2.651064e+02 -2.648419e+02 -2.649988e+02 -2.648408e+02 -2.649440e+02 -2.648919e+02 -2.649435e+02 -2.649959e+02 -2.649981e+02 -2.651529e+02 -2.651083e+02 -2.653627e+02 -2.652735e+02 -2.656245e+02 -2.654917e+02 -2.659357e+02 -2.657594e+02 -2.662919e+02 -2.660704e+02 -2.666862e+02 -2.664162e+02 -2.671087e+02 -2.667851e+02 -2.675465e+02 -2.671628e+02 -2.679844e+02 -2.675335e+02 -2.684067e+02 -2.678811e+02 -2.687986e+02 -2.681921e+02 -2.691502e+02 -2.684592e+02 -2.694591e+02 -2.686842e+02 -2.697335e+02 -2.688801e+02 -2.699927e+02 -2.690685e+02 -2.702638e+02 -2.692735e+02 -2.705752e+02 -2.695119e+02 -2.709493e+02 -2.697860e+02 -2.713969e+02 -2.700803e+02 -2.719145e+02 -2.703674e+02 -2.724847e+02 -2.706176e+02 -2.730782e+02 -2.708066e+02 -2.736602e+02 -2.709163e+02 -2.742017e+02 -2.709306e+02 -2.746845e+02 -2.708394e+02 -2.750714e+02 -2.706679e+02 -2.752308e+02 -2.704870e+02 -2.752537e+02 -2.707264e+02 -2.754975e+02 -2.707834e+02 -2.758247e+02 -2.709895e+02 -2.759709e+02 -2.713510e+02 -2.759113e+02 -2.718049e+02 -2.757350e+02 -2.722332e+02 -2.754249e+02 -2.725114e+02 -2.750781e+02 -2.726763e+02 -2.747167e+02 -2.727526e+02 -2.743414e+02 -2.727535e+02 -2.739485e+02 -2.726870e+02 -2.735349e+02 -2.725590e+02 -2.730990e+02 -2.723743e+02 -2.726405e+02 -2.721374e+02 -2.721605e+02 -2.718526e+02 -2.716613e+02 -2.715245e+02 -2.711460e+02 -2.711580e+02 
-2.775782e+02 -2.755389e+02 -2.780755e+02 -2.760904e+02 -2.785885e+02 -2.766498e+02 -2.791097e+02 -2.772108e+02 -2.796313e+02 -2.777670e+02 -2.801458e+02 -2.783118e+02 -2.806456e+02 -2.788387e+02 -2.811240e+02 -2.793415e+02 -2.815745e+02 -2.798143e+02 -2.819915e+02 -2.802522e+02 -2.823703e+02 -2.806505e+02 -2.827067e+02 -2.810057e+02 -2.829977e+02 -2.813148e+02 -2.832405e+02 -2.815753e+02 -2.834333e+02 -2.817855e+02 -2.835746e+02 -2.819438e+02 -2.836633e+02 -2.820488e+02 -2.836983e+02 -2.820994e+02 -2.836788e+02 -2.820943e+02 -2.836044e+02 -2.820322e+02 -2.834744e+02 -2.819118e+02 -2.832890e+02 -2.817322e+02 -2.830490e+02 -2.814931e+02 -2.827563e+02 -2.811954e+02 -2.824141e+02 -2.808412e+02 -2.820273e+02 -2.804342e+02 -2.816026e+02 -2.799804e+02 -2.811481e+02 -2.794878e+02 -2.806736e+02 -2.789666e+02 -2.801894e+02 -2.784294e+02 -2.797058e+02 -2.778889e+02 -2.792299e+02 -2.773557e+02 -2.787628e+02 -2.768319e+02 -2.782966e+02 -2.763072e+02 -2.778135e+02 -2.757593e+02 -2.772916e+02 -2.751611e+02 -2.767166e+02 -2.744924e+02 -2.760955e+02 -2.737507e+02 -2.754667e+02 -2.729556e+02 -2.748981e+02 -2.721449e+02 -2.744697e+02 -2.713680e+02 -2.742429e+02 -2.706892e+02 -2.742278e+02 -2.702038e+02 -2.743624e+02 -2.700406e+02 -2.745433e+02 -2.702405e+02 -2.747642e+02 -2.704049e+02 -2.753043e+02 -2.704136e+02 -2.756449e+02 -2.699736e+02 -2.755526e+02 -2.697560e+02 -2.755488e+02 -2.696100e+02 -2.754801e+02 -2.697474e+02 -2.753515e+02 -2.701081e+02 -2.753194e+02 -2.706015e+02 -2.750842e+02 -2.709316e+02 -2.749424e+02 -2.712424e+02 -2.749084e+02 -2.715627e+02 -2.749661e+02 -2.719013e+02 -2.751017e+02 -2.722631e+02 -2.753050e+02 -2.726512e+02 -2.755685e+02 -2.730673e+02 -2.758859e+02 -2.735117e+02 -2.762515e+02 -2.739837e+02 -2.766595e+02 -2.744811e+02 -2.771039e+02 -2.750008e+02 
-2.706431e+02 -2.708753e+02 -2.700869e+02 -2.704215e+02 -2.695278e+02 -2.699456e+02 -2.689723e+02 -2.694545e+02 -2.684271e+02 -2.689557e+02 -2.678989e+02 -2.684568e+02 -2.673944e+02 -2.679653e+02 -2.669194e+02 -2.674887e+02 -2.664796e+02 -2.670336e+02 -2.660795e+02 -2.666064e+02 -2.657231e+02 -2.662127e+02 -2.654133e+02 -2.658573e+02 -2.651523e+02 -2.655444e+02 -2.649417e+02 -2.652773e+02 -2.647826e+02 -2.650591e+02 -2.646755e+02 -2.648922e+02 -2.646212e+02 -2.647790e+02 -2.646202e+02 -2.647214e+02 -2.646734e+02 -2.647214e+02 -2.647819e+02 -2.647806e+02 -2.649468e+02 -2.649003e+02 -2.651690e+02 -2.650809e+02 -2.654488e+02 -2.653214e+02 -2.657848e+02 -2.656185e+02 -2.661729e+02 -2.659663e+02 -2.666059e+02 -2.663551e+02 -2.670721e+02 -2.667710e+02 -2.675556e+02 -2.671961e+02 -2.680365e+02 -2.676096e+02 -2.684930e+02 -2.679893e+02 -2.689039e+02 -2.683153e+02 -2.692531e+02 -2.685753e+02 -2.695348e+02 -2.687712e+02 -2.697593e+02 -2.689233e+02 -2.699553e+02 -2.690695e+02 -2.701662e+02 -2.692535e+02 -2.704373e+02 -2.695075e+02 -2.708036e+02 -2.698354e+02 -2.712804e+02 -2.702084e+02 -2.718609e+02 -2.705753e+02 -2.725179e+02 -2.708847e+02 -2.732054e+02 -2.711045e+02 -2.738686e+02 -2.712163e+02 -2.744712e+02 -2.711946e+02 -2.750333e+02 -2.709881e+02 -2.755866e+02 -2.706137e+02 -2.755824e+02 -2.698383e+02 -2.751080e+02 -2.708065e+02 -2.755440e+02 -2.704603e+02 -2.762771e+02 -2.706657e+02 -2.765061e+02 -2.711720e+02 -2.763344e+02 -2.718735e+02 -2.761443e+02 -2.725503e+02 -2.756675e+02 -2.728367e+02 -2.752467e+02 -2.729879e+02 -2.748531e+02 -2.730489e+02 -2.744628e+02 -2.730336e+02 -2.740617e+02 -2.729502e+02 -2.736414e+02 -2.728047e+02 -2.731980e+02 -2.726018e+02 -2.727298e+02 -2.723458e+02 -2.722376e+02 -2.720405e+02 -2.717233e+02 -2.716904e+02 -2.711903e+02 -2.713002e+02 
-2.774725e+02 -2.754883e+02 -2.780033e+02 -2.760644e+02 -2.785509e+02 -2.766506e+02 -2.791070e+02 -2.772399e+02 -2.796633e+02 -2.778250e+02 -2.802112e+02 -2.783985e+02 -2.807428e+02 -2.789531e+02 -2.812506e+02 -2.794818e+02 -2.817276e+02 -2.799785e+02 -2.821681e+02 -2.804375e+02 -2.825671e+02 -2.808544e+02 -2.829205e+02 -2.812254e+02 -2.832255e+02 -2.815478e+02 -2.834797e+02 -2.818196e+02 -2.836818e+02 -2.820393e+02 -2.838305e+02 -2.822060e+02 -2.839250e+02 -2.823188e+02 -2.839647e+02 -2.823764e+02 -2.839486e+02 -2.823778e+02 -2.838757e+02 -2.823210e+02 -2.837452e+02 -2.822041e+02 -2.835561e+02 -2.820251e+02 -2.833082e+02 -2.817822e+02 -2.830021e+02 -2.814747e+02 -2.826403e+02 -2.811035e+02 -2.822271e+02 -2.806715e+02 -2.817693e+02 -2.801844e+02 -2.812766e+02 -2.796512e+02 -2.807614e+02 -2.790855e+02 -2.802392e+02 -2.785056e+02 -2.797266e+02 -2.779339e+02 -2.792384e+02 -2.773919e+02 -2.787804e+02 -2.768890e+02 -2.783414e+02 -2.764107e+02 -2.778891e+02 -2.759166e+02 -2.773762e+02 -2.753535e+02 -2.767611e+02 -2.746773e+02 -2.760353e+02 -2.738740e+02 -2.752467e+02 -2.729665e+02 -2.745026e+02 -2.720040e+02 -2.739434e+02 -2.710402e+02 -2.736905e+02 -2.701381e+02 -2.737803e+02 -2.694344e+02 -2.740913e+02 -2.692675e+02 -2.743237e+02 -2.700959e+02 -2.742945e+02 -2.705509e+02 -2.756254e+02 -2.709330e+02 -2.763442e+02 -2.695665e+02 -2.755945e+02 -2.694052e+02 -2.757308e+02 -2.689381e+02 -2.756182e+02 -2.691580e+02 -2.752634e+02 -2.697176e+02 -2.755570e+02 -2.706746e+02 -2.748948e+02 -2.708762e+02 -2.746623e+02 -2.711546e+02 -2.746116e+02 -2.714606e+02 -2.746738e+02 -2.717893e+02 -2.748220e+02 -2.721444e+02 -2.750423e+02 -2.725296e+02 -2.753258e+02 -2.729470e+02 -2.756659e+02 -2.733971e+02 -2.760566e+02 -2.738791e+02 -2.764921e+02 -2.743907e+02 -2.769664e+02 -2.749286e+02 
-2.706764e+02 -2.710213e+02 -2.700922e+02 -2.705343e+02 -2.695032e+02 -2.700232e+02 -2.689168e+02 -2.694958e+02 -2.683405e+02 -2.689603e+02 -2.677822e+02 -2.684249e+02 -2.672490e+02 -2.678980e+02 -2.667479e+02 -2.673876e+02 -2.662847e+02 -2.669012e+02 -2.658646e+02 -2.664455e+02 -2.654915e+02 -2.660263e+02 -2.651684e+02 -2.656486e+02 -2.648971e+02 -2.653166e+02 -2.646789e+02 -2.650334e+02 -2.645144e+02 -2.648020e+02 -2.644038e+02 -2.646248e+02 -2.643474e+02 -2.645040e+02 -2.643460e+02 -2.644420e+02 -2.644006e+02 -2.644413e+02 -2.645130e+02 -2.645047e+02 -2.646858e+02 -2.646345e+02 -2.649214e+02 -2.648327e+02 -2.652219e+02 -2.650998e+02 -2.655878e+02 -2.654338e+02 -2.660163e+02 -2.658288e+02 -2.665000e+02 -2.662743e+02 -2.670254e+02 -2.667539e+02 -2.675726e+02 -2.672451e+02 -2.681154e+02 -2.677202e+02 -2.686235e+02 -2.681480e+02 -2.690658e+02 -2.684977e+02 -2.694153e+02 -2.687463e+02 -2.696576e+02 -2.688910e+02 -2.698024e+02 -2.689617e+02 -2.698933e+02 -2.690238e+02 -2.700011e+02 -2.691588e+02 -2.702020e+02 -2.694298e+02 -2.705520e+02 -2.698480e+02 -2.710724e+02 -2.703586e+02 -2.717499e+02 -2.708613e+02 -2.725426e+02 -2.712625e+02 -2.733768e+02 -2.715268e+02 -2.741511e+02 -2.716587e+02 -2.747857e+02 -2.716438e+02 -2.753870e+02 -2.712998e+02 -2.766544e+02 -2.709581e+02 -2.764050e+02 -2.674895e+02 -2.756782e+02 -2.680311e+02 -2.735592e+02 -2.697196e+02 -2.752453e+02 -2.693395e+02 -2.756539e+02 -2.700612e+02 -2.753627e+02 -2.718133e+02 -2.765524e+02 -2.732595e+02 -2.758567e+02 -2.732990e+02 -2.753897e+02 -2.733908e+02 -2.749869e+02 -2.734221e+02 -2.745958e+02 -2.733823e+02 -2.741944e+02 -2.732759e+02 -2.737714e+02 -2.731080e+02 -2.733217e+02 -2.728827e+02 -2.728434e+02 -2.726034e+02 -2.723368e+02 -2.722734e+02 -2.718041e+02 -2.718966e+02 -2.712490e+02 -2.714775e+02 
-2.773424e+02 -2.754215e+02 -2.779146e+02 -2.760286e+02 -2.785050e+02 -2.766485e+02 -2.791046e+02 -2.772735e+02 -2.797039e+02 -2.778951e+02 -2.802935e+02 -2.785046e+02 -2.808645e+02 -2.790939e+02 -2.814085e+02 -2.796549e+02 -2.819180e+02 -2.801809e+02 -2.823868e+02 -2.806657e+02 -2.828099e+02 -2.811046e+02 -2.831833e+02 -2.814941e+02 -2.835044e+02 -2.818318e+02 -2.837716e+02 -2.821161e+02 -2.839838e+02 -2.823465e+02 -2.841407e+02 -2.825226e+02 -2.842420e+02 -2.826441e+02 -2.842874e+02 -2.827106e+02 -2.842760e+02 -2.827206e+02 -2.842066e+02 -2.826721e+02 -2.840773e+02 -2.825620e+02 -2.838861e+02 -2.823866e+02 -2.836310e+02 -2.821421e+02 -2.833108e+02 -2.818254e+02 -2.829260e+02 -2.814350e+02 -2.824798e+02 -2.809719e+02 -2.819784e+02 -2.804406e+02 -2.814323e+02 -2.798504e+02 -2.808574e+02 -2.792173e+02 -2.802755e+02 -2.785675e+02 -2.797149e+02 -2.779391e+02 -2.792051e+02 -2.773762e+02 -2.787652e+02 -2.769074e+02 -2.783854e+02 -2.765158e+02 -2.780118e+02 -2.761301e+02 -2.775517e+02 -2.756489e+02 -2.769088e+02 -2.749845e+02 -2.760366e+02 -2.741038e+02 -2.749893e+02 -2.730440e+02 -2.739384e+02 -2.718837e+02 -2.731324e+02 -2.706730e+02 -2.728164e+02 -2.694063e+02 -2.731255e+02 -2.681357e+02 -2.739012e+02 -2.674937e+02 -2.743560e+02 -2.703171e+02 -2.724566e+02 -2.708609e+02 -2.803868e+02 -2.701171e+02 -2.783765e+02 -2.643193e+02 -2.698876e+02 -2.653459e+02 -2.714959e+02 -2.658266e+02 -2.721340e+02 -2.670191e+02 -2.723556e+02 -2.691883e+02 -2.742244e+02 -2.704436e+02 -2.742789e+02 -2.707460e+02 -2.742020e+02 -2.710403e+02 -2.742029e+02 -2.713363e+02 -2.742961e+02 -2.716513e+02 -2.744707e+02 -2.719959e+02 -2.747167e+02 -2.723760e+02 -2.750268e+02 -2.727941e+02 -2.753953e+02 -2.732507e+02 -2.758169e+02 -2.737448e+02 -2.762862e+02 -2.742741e+02 -2.767970e+02 -2.748347e+02 
-2.707217e+02 -2.711987e+02 -2.701028e+02 -2.706714e+02 -2.694766e+02 -2.701178e+02 -2.688517e+02 -2.695461e+02 -2.682368e+02 -2.689654e+02 -2.676409e+02 -2.683853e+02 -2.670724e+02 -2.678149e+02 -2.665390e+02 -2.672633e+02 -2.660476e+02 -2.667388e+02 -2.656034e+02 -2.662486e+02 -2.652106e+02 -2.657989e+02 -2.648721e+02 -2.653948e+02 -2.645892e+02 -2.650401e+02 -2.643627e+02 -2.647380e+02 -2.641924e+02 -2.644910e+02 -2.640779e+02 -2.643010e+02 -2.640190e+02 -2.641705e+02 -2.640161e+02 -2.641019e+02 -2.640707e+02 -2.640984e+02 -2.641854e+02 -2.641641e+02 -2.643644e+02 -2.643033e+02 -2.646126e+02 -2.645201e+02 -2.649351e+02 -2.648175e+02 -2.653351e+02 -2.651954e+02 -2.658125e+02 -2.656493e+02 -2.663607e+02 -2.661677e+02 -2.669644e+02 -2.667316e+02 -2.675989e+02 -2.673132e+02 -2.682297e+02 -2.678764e+02 -2.688155e+02 -2.683778e+02 -2.693108e+02 -2.687691e+02 -2.696706e+02 -2.690054e+02 -2.698603e+02 -2.690664e+02 -2.698809e+02 -2.689900e+02 -2.697960e+02 -2.688877e+02 -2.697271e+02 -2.689137e+02 -2.698063e+02 -2.691968e+02 -2.701260e+02 -2.697686e+02 -2.707129e+02 -2.705271e+02 -2.715389e+02 -2.712667e+02 -2.725465e+02 -2.717970e+02 -2.736273e+02 -2.720951e+02 -2.745835e+02 -2.722495e+02 -2.751310e+02 -2.724129e+02 -2.750570e+02 -2.716034e+02 -2.815638e+02 -2.757370e+02 -2.569416e+02 -2.589588e+02 -2.780135e+02 -2.575639e+02 -2.735741e+02 -2.636111e+02 -2.736710e+02 -2.666802e+02 -2.743312e+02 -2.690985e+02 -2.745957e+02 -2.717273e+02 -2.760430e+02 -2.732412e+02 -2.758199e+02 -2.737111e+02 -2.754697e+02 -2.738552e+02 -2.751098e+02 -2.738672e+02 -2.747401e+02 -2.737981e+02 -2.743490e+02 -2.736634e+02 -2.739285e+02 -2.734691e+02 -2.734745e+02 -2.732179e+02 -2.729855e+02 -2.729118e+02 -2.724623e+02 -2.725534e+02 -2.719076e+02 -2.721455e+02 -2.713256e+02 -2.716922e+02 
-2.771857e+02 -2.753349e+02 -2.778079e+02 -2.759801e+02 -2.784504e+02 -2.766420e+02 -2.791029e+02 -2.773111e+02 -2.797547e+02 -2.779778e+02 -2.803952e+02 -2.786318e+02 -2.810139e+02 -2.792636e+02 -2.816016e+02 -2.798640e+02 -2.821499e+02 -2.804252e+02 -2.826521e+02 -2.809405e+02 -2.831030e+02 -2.814050e+02 -2.834990e+02 -2.818153e+02 -2.838378e+02 -2.821695e+02 -2.841186e+02 -2.824670e+02 -2.843414e+02 -2.827081e+02 -2.845067e+02 -2.828938e+02 -2.846152e+02 -2.830249e+02 -2.846672e+02 -2.831017e+02 -2.846623e+02 -2.831232e+02 -2.845989e+02 -2.830869e+02 -2.844742e+02 -2.829886e+02 -2.842844e+02 -2.828224e+02 -2.840250e+02 -2.825813e+02 -2.836920e+02 -2.822586e+02 -2.832826e+02 -2.818489e+02 -2.827973e+02 -2.813496e+02 -2.822403e+02 -2.807624e+02 -2.816215e+02 -2.800942e+02 -2.809590e+02 -2.793612e+02 -2.802826e+02 -2.785966e+02 -2.796378e+02 -2.778619e+02 -2.790828e+02 -2.772459e+02 -2.786682e+02 -2.768264e+02 -2.784009e+02 -2.765926e+02 -2.781988e+02 -2.764171e+02 -2.778889e+02 -2.761070e+02 -2.772672e+02 -2.754913e+02 -2.762002e+02 -2.745034e+02 -2.747327e+02 -2.732248e+02 -2.731393e+02 -2.718292e+02 -2.718519e+02 -2.703840e+02 -2.713390e+02 -2.686969e+02 -2.720167e+02 -2.662112e+02 -2.740298e+02 -2.622229e+02 -2.765891e+02 -2.703727e+02 -2.294456e+02 -2.626284e+02 -2.718366e+02 -2.593499e+02 -2.790232e+02 -2.506498e+02 -2.753198e+02 -2.589839e+02 -2.737363e+02 -2.638414e+02 -2.725522e+02 -2.668863e+02 -2.719948e+02 -2.690977e+02 -2.744083e+02 -2.700925e+02 -2.737953e+02 -2.706252e+02 -2.736646e+02 -2.709252e+02 -2.737028e+02 -2.711938e+02 -2.738376e+02 -2.714841e+02 -2.740485e+02 -2.718125e+02 -2.743273e+02 -2.721847e+02 -2.746696e+02 -2.726028e+02 -2.750718e+02 -2.730669e+02 -2.755298e+02 -2.735756e+02 -2.760389e+02 -2.741263e+02 -2.765932e+02 -2.747146e+02 