# vtk DataFile Version 2.0
Comment goes here
ASCII

DATASET STRUCTURED_POINTS
DIMENSIONS    128   128   1

ORIGIN    0.000   0.000   0.000
SPACING   0.0156250.015625   1.000

POINT_DATA   16384
SCALARS P double
LOOKUP_TABLE default

-3.331248e+02 -3.305309e+02 -3.326921e+02 -3.301263e+02 -3.322496e+02 -3.297095e+02 -3.318005e+02 -3.292861e+02 -3.313487e+02 -3.288622e+02 -3.308979e+02 -3.284435e+02 -3.304522e+02 -3.280356e+02 -3.300160e+02 -3.276438e+02 -3.295934e+02 -3.272732e+02 -3.291885e+02 -3.269283e+02 -3.288055e+02 -3.266132e+02 -3.284482e+02 -3.263316e+02 -3.281200e+02 -3.260866e+02 -3.278244e+02 -3.258813e+02 -3.275642e+02 -3.257179e+02 -3.273422e+02 -3.255988e+02 -3.271608e+02 -3.255260e+02 -3.270218e+02 -3.255011e+02 -3.269268e+02 -3.255256e+02 -3.268770e+02 -3.256008e+02 -3.268729e+02 -3.257272e+02 -3.269143e+02 -3.259049e+02 -3.270001e+02 -3.261328e+02 -3.271282e+02 -3.264088e+02 -3.272951e+02 -3.267287e+02 -3.274959e+02 -3.270867e+02 -3.277245e+02 -3.274746e+02 -3.279731e+02 -3.278822e+02 -3.282335e+02 -3.282978e+02 -3.284978e+02 -3.287093e+02 -3.287593e+02 -3.291052e+02 -3.290146e+02 -3.294768e+02 -3.292642e+02 -3.298186e+02 -3.295135e+02 -3.301291e+02 -3.297722e+02 -3.304099e+02 -3.300529e+02 -3.306648e+02 -3.303690e+02 -3.308975e+02 -3.307317e+02 -3.311104e+02 -3.311479e+02 -3.313037e+02 -3.316178e+02 -3.314753e+02 -3.321343e+02 -3.316222e+02 -3.326840e+02 -3.317416e+02 -3.332487e+02 -3.318321e+02 -3.338082e+02 -3.318957e+02 -3.343428e+02 -3.319388e+02 -3.348349e+02 -3.319737e+02 -3.352722e+02 -3.320161e+02 -3.356513e+02 -3.320773e+02 -3.359749e+02 -3.321579e+02 -3.362385e+02 -3.322591e+02 -3.364292e+02 -3.323780e+02 -3.365359e+02 -3.325035e+02 -3.365555e+02 -3.326179e+02 -3.364932e+02 -3.327029e+02 -3.363612e+02 -3.327446e+02 -3.361730e+02 -3.327355e+02 -3.359406e+02 -3.326725e+02 -3.356727e+02 -3.325560e+02 -3.353750e+02 -3.323880e+02 -3.350515e+02 -3.321721e+02 -3.347048e+02 -3.319124e+02 -3.343369e+02 -3.316133e+02 -3.339496e+02 -3.312799e+02 -3.335448e+02 -3.309173e+02 
-3.415274e+02 -3.365740e+02 -3.420283e+02 -3.370464e+02 -3.425360e+02 -3.375340e+02 -3.430437e+02 -3.380333e+02 -3.435447e+02 -3.385401e+02 -3.440327e+02 -3.390500e+02 -3.445016e+02 -3.395584e+02 -3.449459e+02 -3.400605e+02 -3.453606e+02 -3.405512e+02 -3.457413e+02 -3.410258e+02 -3.460841e+02 -3.414793e+02 -3.463859e+02 -3.419071e+02 -3.466439e+02 -3.423047e+02 -3.468557e+02 -3.426679e+02 -3.470195e+02 -3.429926e+02 -3.471334e+02 -3.432752e+02 -3.471959e+02 -3.435123e+02 -3.472058e+02 -3.437009e+02 -3.471617e+02 -3.438385e+02 -3.470627e+02 -3.439232e+02 -3.469083e+02 -3.439540e+02 -3.466984e+02 -3.439305e+02 -3.464337e+02 -3.438536e+02 -3.461160e+02 -3.437249e+02 -3.457479e+02 -3.435469e+02 -3.453330e+02 -3.433226e+02 -3.448755e+02 -3.430553e+02 -3.443803e+02 -3.427475e+02 -3.438519e+02 -3.424009e+02 -3.432948e+02 -3.420158e+02 -3.427126e+02 -3.415906e+02 -3.421083e+02 -3.411226e+02 -3.414850e+02 -3.406079e+02 -3.408463e+02 -3.400430e+02 -3.401979e+02 -3.394260e+02 -3.395492e+02 -3.387594e+02 -3.389149e+02 -3.380512e+02 -3.383149e+02 -3.373167e+02 -3.377734e+02 -3.365774e+02 -3.373150e+02 -3.358596e+02 -3.369601e+02 -3.351904e+02 -3.367197e+02 -3.345941e+02 -3.365933e+02 -3.340872e+02 -3.365693e+02 -3.336744e+02 -3.366291e+02 -3.333455e+02 -3.367513e+02 -3.330800e+02 -3.369135e+02 -3.328603e+02 -3.370915e+02 -3.326837e+02 -3.372664e+02 -3.325598e+02 -3.374305e+02 -3.324980e+02 -3.375823e+02 -3.325045e+02 -3.377227e+02 -3.325779e+02 -3.378548e+02 -3.327087e+02 -3.379850e+02 -3.328836e+02 -3.381259e+02 -3.330926e+02 -3.382914e+02 -3.333298e+02 -3.384922e+02 -3.335925e+02 -3.387346e+02 -3.338797e+02 -3.390213e+02 -3.341915e+02 -3.393517e+02 -3.345281e+02 -3.397232e+02 -3.348897e+02 -3.401319e+02 -3.352761e+02 -3.405728e+02 -3.356866e+02 -3.410400e+02 -3.361198e+02 
-3.331308e+02 -3.305409e+02 -3.326966e+02 -3.301336e+02 -3.322524e+02 -3.297138e+02 -3.318016e+02 -3.292876e+02 -3.313479e+02 -3.288608e+02 -3.308950e+02 -3.284393e+02 -3.304474e+02 -3.280288e+02 -3.300091e+02 -3.276346e+02 -3.295844e+02 -3.272617e+02 -3.291776e+02 -3.269148e+02 -3.287928e+02 -3.265978e+02 -3.284337e+02 -3.263146e+02 -3.281039e+02 -3.260682e+02 -3.278069e+02 -3.258616e+02 -3.275455e+02 -3.256972e+02 -3.273225e+02 -3.255772e+02 -3.271402e+02 -3.255035e+02 -3.270007e+02 -3.254781e+02 -3.269056e+02 -3.255024e+02 -3.268560e+02 -3.255776e+02 -3.268526e+02 -3.257046e+02 -3.268952e+02 -3.258834e+02 -3.269829e+02 -3.261132e+02 -3.271135e+02 -3.263918e+02 -3.272836e+02 -3.267153e+02 -3.274881e+02 -3.270777e+02 -3.277205e+02 -3.274704e+02 -3.279729e+02 -3.278832e+02 -3.282365e+02 -3.283037e+02 -3.285027e+02 -3.287194e+02 -3.287647e+02 -3.291185e+02 -3.290185e+02 -3.294919e+02 -3.292649e+02 -3.298344e+02 -3.295097e+02 -3.301449e+02 -3.297635e+02 -3.304259e+02 -3.300401e+02 -3.306820e+02 -3.303538e+02 -3.309171e+02 -3.307169e+02 -3.311336e+02 -3.311362e+02 -3.313307e+02 -3.316117e+02 -3.315054e+02 -3.321356e+02 -3.316535e+02 -3.326932e+02 -3.317716e+02 -3.332652e+02 -3.318580e+02 -3.338310e+02 -3.319146e+02 -3.343707e+02 -3.319484e+02 -3.348660e+02 -3.319731e+02 -3.353032e+02 -3.320085e+02 -3.356800e+02 -3.320687e+02 -3.360052e+02 -3.321484e+02 -3.362749e+02 -3.322508e+02 -3.364710e+02 -3.323752e+02 -3.365793e+02 -3.325097e+02 -3.365964e+02 -3.326336e+02 -3.365283e+02 -3.327254e+02 -3.363894e+02 -3.327710e+02 -3.361953e+02 -3.327633e+02 -3.359584e+02 -3.327001e+02 -3.356874e+02 -3.325824e+02 -3.353877e+02 -3.324128e+02 -3.350628e+02 -3.321948e+02 -3.347151e+02 -3.319328e+02 -3.343462e+02 -3.316314e+02 -3.339579e+02 -3.312954e+02 -3.335521e+02 -3.309301e+02 
-3.415123e+02 -3.365566e+02 -3.420199e+02 -3.370322e+02 -3.425344e+02 -3.375235e+02 -3.430488e+02 -3.380269e+02 -3.435563e+02 -3.385382e+02 -3.440504e+02 -3.390529e+02 -3.445250e+02 -3.395663e+02 -3.449745e+02 -3.400733e+02 -3.453937e+02 -3.405690e+02 -3.457783e+02 -3.410485e+02 -3.461246e+02 -3.415067e+02 -3.464292e+02 -3.419391e+02 -3.466897e+02 -3.423410e+02 -3.469037e+02 -3.427083e+02 -3.470693e+02 -3.430368e+02 -3.471851e+02 -3.433230e+02 -3.472495e+02 -3.435634e+02 -3.472611e+02 -3.437550e+02 -3.472187e+02 -3.438952e+02 -3.471213e+02 -3.439820e+02 -3.469682e+02 -3.440143e+02 -3.467590e+02 -3.439916e+02 -3.464944e+02 -3.439146e+02 -3.461758e+02 -3.437848e+02 -3.458056e+02 -3.436049e+02 -3.453873e+02 -3.433780e+02 -3.449253e+02 -3.431075e+02 -3.444244e+02 -3.427966e+02 -3.438898e+02 -3.424473e+02 -3.433263e+02 -3.420605e+02 -3.427379e+02 -3.416353e+02 -3.421282e+02 -3.411691e+02 -3.414999e+02 -3.406576e+02 -3.408560e+02 -3.400960e+02 -3.402010e+02 -3.394807e+02 -3.395429e+02 -3.388119e+02 -3.388952e+02 -3.380959e+02 -3.382786e+02 -3.373471e+02 -3.377193e+02 -3.365879e+02 -3.372455e+02 -3.358462e+02 -3.368810e+02 -3.351527e+02 -3.366392e+02 -3.345360e+02 -3.365190e+02 -3.340183e+02 -3.365063e+02 -3.336080e+02 -3.365799e+02 -3.332927e+02 -3.367187e+02 -3.330403e+02 -3.369011e+02 -3.328202e+02 -3.370957e+02 -3.326326e+02 -3.372772e+02 -3.324984e+02 -3.374423e+02 -3.324300e+02 -3.375928e+02 -3.324379e+02 -3.377301e+02 -3.325212e+02 -3.378562e+02 -3.326656e+02 -3.379741e+02 -3.328509e+02 -3.381012e+02 -3.330657e+02 -3.382558e+02 -3.333055e+02 -3.384499e+02 -3.335690e+02 -3.386896e+02 -3.338560e+02 -3.389765e+02 -3.341675e+02 -3.393093e+02 -3.345039e+02 -3.396848e+02 -3.348657e+02 -3.400984e+02 -3.352528e+02 -3.405450e+02 -3.356647e+02 -3.410184e+02 -3.360999e+02 
-3.331497e+02 -3.305693e+02 -3.327112e+02 -3.301534e+02 -3.322622e+02 -3.297249e+02 -3.318060e+02 -3.292899e+02 -3.313464e+02 -3.288545e+02 -3.308876e+02 -3.284248e+02 -3.304337e+02 -3.280063e+02 -3.299891e+02 -3.276048e+02 -3.295583e+02 -3.272251e+02 -3.291456e+02 -3.268721e+02 -3.287551e+02 -3.265497e+02 -3.283908e+02 -3.262617e+02 -3.280562e+02 -3.260112e+02 -3.277549e+02 -3.258009e+02 -3.274897e+02 -3.256334e+02 -3.272635e+02 -3.255107e+02 -3.270788e+02 -3.254350e+02 -3.269376e+02 -3.254080e+02 -3.268417e+02 -3.254315e+02 -3.267926e+02 -3.255070e+02 -3.267910e+02 -3.256356e+02 -3.268373e+02 -3.258179e+02 -3.269306e+02 -3.260535e+02 -3.270688e+02 -3.263403e+02 -3.272485e+02 -3.266746e+02 -3.274642e+02 -3.270502e+02 -3.277087e+02 -3.274580e+02 -3.279727e+02 -3.278867e+02 -3.282461e+02 -3.283225e+02 -3.285186e+02 -3.287512e+02 -3.287819e+02 -3.291598e+02 -3.290311e+02 -3.295384e+02 -3.292673e+02 -3.298822e+02 -3.294977e+02 -3.301920e+02 -3.297357e+02 -3.304729e+02 -3.299988e+02 -3.307319e+02 -3.303049e+02 -3.309745e+02 -3.306686e+02 -3.312023e+02 -3.310978e+02 -3.314121e+02 -3.315914e+02 -3.315970e+02 -3.321387e+02 -3.317494e+02 -3.327209e+02 -3.318636e+02 -3.333154e+02 -3.319375e+02 -3.339002e+02 -3.319727e+02 -3.344558e+02 -3.319763e+02 -3.349622e+02 -3.319666e+02 -3.353977e+02 -3.319781e+02 -3.357615e+02 -3.320413e+02 -3.360915e+02 -3.321162e+02 -3.363846e+02 -3.322202e+02 -3.366003e+02 -3.323620e+02 -3.367136e+02 -3.325264e+02 -3.367229e+02 -3.326818e+02 -3.366349e+02 -3.327952e+02 -3.364738e+02 -3.328516e+02 -3.362610e+02 -3.328472e+02 -3.360108e+02 -3.327827e+02 -3.357310e+02 -3.326610e+02 -3.354257e+02 -3.324859e+02 -3.350971e+02 -3.322616e+02 -3.347465e+02 -3.319927e+02 -3.343750e+02 -3.316839e+02 -3.339839e+02 -3.313402e+02 -3.335748e+02 -3.309669e+02 
-3.414835e+02 -3.365203e+02 -3.420048e+02 -3.370023e+02 -3.425331e+02 -3.375011e+02 -3.430610e+02 -3.380128e+02 -3.435816e+02 -3.385333e+02 -3.440881e+02 -3.390576e+02 -3.445741e+02 -3.395810e+02 -3.450338e+02 -3.400981e+02 -3.454621e+02 -3.406039e+02 -3.458546e+02 -3.410932e+02 -3.462075e+02 -3.415610e+02 -3.465177e+02 -3.420025e+02 -3.467829e+02 -3.424131e+02 -3.470010e+02 -3.427885e+02 -3.471704e+02 -3.431248e+02 -3.472897e+02 -3.434182e+02 -3.473575e+02 -3.436653e+02 -3.473726e+02 -3.438629e+02 -3.473337e+02 -3.440085e+02 -3.472395e+02 -3.440998e+02 -3.470890e+02 -3.441353e+02 -3.468816e+02 -3.441143e+02 -3.466173e+02 -3.440372e+02 -3.462969e+02 -3.439054e+02 -3.459226e+02 -3.437216e+02 -3.454974e+02 -3.434891e+02 -3.450259e+02 -3.432119e+02 -3.445132e+02 -3.428938e+02 -3.439654e+02 -3.425383e+02 -3.433882e+02 -3.421475e+02 -3.427870e+02 -3.417219e+02 -3.421663e+02 -3.412595e+02 -3.415287e+02 -3.407555e+02 -3.408757e+02 -3.402025e+02 -3.402089e+02 -3.395928e+02 -3.395326e+02 -3.389214e+02 -3.388581e+02 -3.381907e+02 -3.382063e+02 -3.374130e+02 -3.376082e+02 -3.366119e+02 -3.371000e+02 -3.358195e+02 -3.367147e+02 -3.350728e+02 -3.364705e+02 -3.344101e+02 -3.363654e+02 -3.338664e+02 -3.363775e+02 -3.334630e+02 -3.364783e+02 -3.331862e+02 -3.366489e+02 -3.329720e+02 -3.368791e+02 -3.327490e+02 -3.371137e+02 -3.325284e+02 -3.373043e+02 -3.323708e+02 -3.374680e+02 -3.322850e+02 -3.376156e+02 -3.322952e+02 -3.377478e+02 -3.324027e+02 -3.378657e+02 -3.325819e+02 -3.379543e+02 -3.327892e+02 -3.380499e+02 -3.330147e+02 -3.381814e+02 -3.332584e+02 -3.383627e+02 -3.335222e+02 -3.385978e+02 -3.338084e+02 -3.388862e+02 -3.341186e+02 -3.392245e+02 -3.344544e+02 -3.396082e+02 -3.348164e+02 -3.400321e+02 -3.352049e+02 -3.404903e+02 -3.356193e+02 -3.409763e+02 -3.360585e+02 
-3.331823e+02 -3.306163e+02 -3.327365e+02 -3.301859e+02 -3.322792e+02 -3.297427e+02 -3.318140e+02 -3.292930e+02 -3.313447e+02 -3.288431e+02 -3.308756e+02 -3.283993e+02 -3.304112e+02 -3.279676e+02 -3.299561e+02 -3.275537e+02 -3.295149e+02 -3.271628e+02 -3.290922e+02 -3.267995e+02 -3.286922e+02 -3.264682e+02 -3.283190e+02 -3.261723e+02 -3.279764e+02 -3.259149e+02 -3.276677e+02 -3.256987e+02 -3.273962e+02 -3.255260e+02 -3.271645e+02 -3.253989e+02 -3.269754e+02 -3.253195e+02 -3.268311e+02 -3.252898e+02 -3.267338e+02 -3.253117e+02 -3.266851e+02 -3.253874e+02 -3.266865e+02 -3.255185e+02 -3.267386e+02 -3.257063e+02 -3.268411e+02 -3.259511e+02 -3.269922e+02 -3.262516e+02 -3.271884e+02 -3.266041e+02 -3.274236e+02 -3.270024e+02 -3.276891e+02 -3.274364e+02 -3.279740e+02 -3.278929e+02 -3.282652e+02 -3.283556e+02 -3.285495e+02 -3.288073e+02 -3.288155e+02 -3.292320e+02 -3.290567e+02 -3.296184e+02 -3.292737e+02 -3.299623e+02 -3.294768e+02 -3.302678e+02 -3.296845e+02 -3.305456e+02 -3.299214e+02 -3.308081e+02 -3.302121e+02 -3.310641e+02 -3.305762e+02 -3.313140e+02 -3.310234e+02 -3.315494e+02 -3.315507e+02 -3.317555e+02 -3.321415e+02 -3.319174e+02 -3.327689e+02 -3.320260e+02 -3.334023e+02 -3.320787e+02 -3.340177e+02 -3.320773e+02 -3.346013e+02 -3.320249e+02 -3.351340e+02 -3.319411e+02 -3.355650e+02 -3.318960e+02 -3.358765e+02 -3.320015e+02 -3.362136e+02 -3.320535e+02 -3.365706e+02 -3.321505e+02 -3.368304e+02 -3.323246e+02 -3.369506e+02 -3.325509e+02 -3.369457e+02 -3.327720e+02 -3.368150e+02 -3.329225e+02 -3.366104e+02 -3.329939e+02 -3.363651e+02 -3.329918e+02 -3.360935e+02 -3.329228e+02 -3.358005e+02 -3.327932e+02 -3.354872e+02 -3.326083e+02 -3.351534e+02 -3.323731e+02 -3.347987e+02 -3.320925e+02 -3.344233e+02 -3.317714e+02 -3.340278e+02 -3.314148e+02 -3.336135e+02 -3.310279e+02 
-3.414405e+02 -3.364640e+02 -3.419828e+02 -3.369556e+02 -3.425321e+02 -3.374658e+02 -3.430808e+02 -3.379903e+02 -3.436214e+02 -3.385247e+02 -3.441466e+02 -3.390638e+02 -3.446499e+02 -3.396024e+02 -3.451252e+02 -3.401350e+02 -3.455671e+02 -3.406561e+02 -3.459712e+02 -3.411604e+02 -3.463339e+02 -3.416425e+02 -3.466523e+02 -3.420977e+02 -3.469242e+02 -3.425213e+02 -3.471482e+02 -3.429090e+02 -3.473228e+02 -3.432568e+02 -3.474470e+02 -3.435611e+02 -3.475198e+02 -3.438183e+02 -3.475401e+02 -3.440254e+02 -3.475065e+02 -3.441793e+02 -3.474176e+02 -3.442776e+02 -3.472717e+02 -3.443183e+02 -3.470676e+02 -3.443003e+02 -3.468043e+02 -3.442235e+02 -3.464819e+02 -3.440888e+02 -3.461017e+02 -3.438989e+02 -3.456661e+02 -3.436572e+02 -3.451796e+02 -3.433685e+02 -3.446479e+02 -3.430379e+02 -3.440781e+02 -3.426707e+02 -3.434784e+02 -3.422717e+02 -3.428564e+02 -3.418441e+02 -3.422188e+02 -3.413879e+02 -3.415687e+02 -3.408979e+02 -3.409055e+02 -3.403629e+02 -3.402250e+02 -3.397675e+02 -3.395246e+02 -3.390974e+02 -3.388092e+02 -3.383471e+02 -3.380993e+02 -3.375252e+02 -3.374337e+02 -3.366570e+02 -3.368643e+02 -3.357809e+02 -3.364416e+02 -3.349431e+02 -3.361957e+02 -3.341953e+02 -3.361217e+02 -3.335974e+02 -3.361796e+02 -3.332061e+02 -3.363172e+02 -3.330234e+02 -3.365227e+02 -3.329132e+02 -3.368524e+02 -3.326743e+02 -3.371744e+02 -3.323595e+02 -3.373566e+02 -3.321693e+02 -3.375082e+02 -3.320418e+02 -3.376514e+02 -3.320528e+02 -3.377774e+02 -3.322105e+02 -3.379028e+02 -3.324695e+02 -3.379275e+02 -3.327101e+02 -3.379635e+02 -3.329464e+02 -3.380582e+02 -3.331918e+02 -3.382221e+02 -3.334537e+02 -3.384533e+02 -3.337369e+02 -3.387461e+02 -3.340445e+02 -3.390943e+02 -3.343786e+02 -3.394916e+02 -3.347407e+02 -3.399315e+02 -3.351310e+02 -3.404076e+02 -3.355493e+02 -3.409130e+02 -3.359943e+02 
-3.332294e+02 -3.306822e+02 -3.327734e+02 -3.302313e+02 -3.323045e+02 -3.297672e+02 -3.318264e+02 -3.292966e+02 -3.313431e+02 -3.288261e+02 -3.308594e+02 -3.283624e+02 -3.303800e+02 -3.279118e+02 -3.299099e+02 -3.274804e+02 -3.294539e+02 -3.270735e+02 -3.290169e+02 -3.266960e+02 -3.286034e+02 -3.263521e+02 -3.282177e+02 -3.260453e+02 -3.278635e+02 -3.257784e+02 -3.275445e+02 -3.255540e+02 -3.272637e+02 -3.253741e+02 -3.270242e+02 -3.252408e+02 -3.268287e+02 -3.251560e+02 -3.266796e+02 -3.251220e+02 -3.265797e+02 -3.251412e+02 -3.265310e+02 -3.252163e+02 -3.265359e+02 -3.253501e+02 -3.265956e+02 -3.255448e+02 -3.267108e+02 -3.258019e+02 -3.268803e+02 -3.261212e+02 -3.271004e+02 -3.264997e+02 -3.273645e+02 -3.269309e+02 -3.276622e+02 -3.274037e+02 -3.279794e+02 -3.279020e+02 -3.282991e+02 -3.284058e+02 -3.286029e+02 -3.288925e+02 -3.288743e+02 -3.293410e+02 -3.291031e+02 -3.297365e+02 -3.292892e+02 -3.300754e+02 -3.294464e+02 -3.303676e+02 -3.296023e+02 -3.306337e+02 -3.297932e+02 -3.308973e+02 -3.300561e+02 -3.311739e+02 -3.304192e+02 -3.314628e+02 -3.308953e+02 -3.317453e+02 -3.314782e+02 -3.319910e+02 -3.321414e+02 -3.321716e+02 -3.328421e+02 -3.322727e+02 -3.335329e+02 -3.322958e+02 -3.341845e+02 -3.322457e+02 -3.348060e+02 -3.321090e+02 -3.354088e+02 -3.318755e+02 -3.358498e+02 -3.316608e+02 -3.359633e+02 -3.320125e+02 -3.363135e+02 -3.319428e+02 -3.368509e+02 -3.320004e+02 -3.371965e+02 -3.322313e+02 -3.373086e+02 -3.325776e+02 -3.372918e+02 -3.329318e+02 -3.370687e+02 -3.331295e+02 -3.367887e+02 -3.332108e+02 -3.364963e+02 -3.332040e+02 -3.361982e+02 -3.331242e+02 -3.358908e+02 -3.329811e+02 -3.355696e+02 -3.327812e+02 -3.352307e+02 -3.325301e+02 -3.348718e+02 -3.322330e+02 -3.344918e+02 -3.318944e+02 -3.340907e+02 -3.315196e+02 -3.336693e+02 -3.311136e+02 
-3.413829e+02 -3.363856e+02 -3.419537e+02 -3.368905e+02 -3.425317e+02 -3.374161e+02 -3.431088e+02 -3.379582e+02 -3.436767e+02 -3.385117e+02 -3.442276e+02 -3.390710e+02 -3.447544e+02 -3.396305e+02 -3.452505e+02 -3.401841e+02 -3.457106e+02 -3.407260e+02 -3.461301e+02 -3.412504e+02 -3.465054e+02 -3.417520e+02 -3.468342e+02 -3.422255e+02 -3.471146e+02 -3.426664e+02 -3.473455e+02 -3.430703e+02 -3.475265e+02 -3.434335e+02 -3.476568e+02 -3.437522e+02 -3.477361e+02 -3.440232e+02 -3.477633e+02 -3.442430e+02 -3.477372e+02 -3.444086e+02 -3.476560e+02 -3.445170e+02 -3.475174e+02 -3.445657e+02 -3.473190e+02 -3.445526e+02 -3.470587e+02 -3.444767e+02 -3.467350e+02 -3.443385e+02 -3.463476e+02 -3.441400e+02 -3.458982e+02 -3.438847e+02 -3.453904e+02 -3.435781e+02 -3.448306e+02 -3.432270e+02 -3.442277e+02 -3.428394e+02 -3.435930e+02 -3.424244e+02 -3.429393e+02 -3.419905e+02 -3.422775e+02 -3.415425e+02 -3.416136e+02 -3.410766e+02 -3.409440e+02 -3.405761e+02 -3.402554e+02 -3.400129e+02 -3.395305e+02 -3.393560e+02 -3.387610e+02 -3.385853e+02 -3.379629e+02 -3.377028e+02 -3.371867e+02 -3.367372e+02 -3.365122e+02 -3.357363e+02 -3.360247e+02 -3.347558e+02 -3.357801e+02 -3.338596e+02 -3.357721e+02 -3.331433e+02 -3.359192e+02 -3.327525e+02 -3.360960e+02 -3.327904e+02 -3.362713e+02 -3.329795e+02 -3.368302e+02 -3.326717e+02 -3.373710e+02 -3.320627e+02 -3.374368e+02 -3.319015e+02 -3.375534e+02 -3.316560e+02 -3.377000e+02 -3.316591e+02 -3.378017e+02 -3.319117e+02 -3.380365e+02 -3.323743e+02 -3.378890e+02 -3.326362e+02 -3.378195e+02 -3.328702e+02 -3.378668e+02 -3.331096e+02 -3.380153e+02 -3.333647e+02 -3.382477e+02 -3.336414e+02 -3.385510e+02 -3.339439e+02 -3.389152e+02 -3.342751e+02 -3.393323e+02 -3.346366e+02 -3.397948e+02 -3.350292e+02 -3.402956e+02 -3.354525e+02 -3.408275e+02 -3.359053e+02 
-3.332926e+02 -3.307677e+02 -3.328234e+02 -3.302900e+02 -3.323392e+02 -3.297986e+02 -3.318441e+02 -3.293005e+02 -3.313426e+02 -3.288029e+02 -3.308395e+02 -3.283130e+02 -3.303403e+02 -3.278376e+02 -3.298503e+02 -3.273833e+02 -3.293748e+02 -3.269557e+02 -3.289190e+02 -3.265598e+02 -3.284878e+02 -3.261998e+02 -3.280855e+02 -3.258791e+02 -3.277163e+02 -3.256003e+02 -3.273837e+02 -3.253655e+02 -3.270909e+02 -3.251765e+02 -3.268409e+02 -3.250350e+02 -3.266365e+02 -3.249430e+02 -3.264806e+02 -3.249028e+02 -3.263763e+02 -3.249174e+02 -3.263266e+02 -3.249904e+02 -3.263347e+02 -3.251259e+02 -3.264033e+02 -3.253278e+02 -3.265343e+02 -3.255995e+02 -3.267275e+02 -3.259423e+02 -3.269798e+02 -3.263547e+02 -3.272841e+02 -3.268302e+02 -3.276276e+02 -3.273564e+02 -3.279924e+02 -3.279141e+02 -3.283553e+02 -3.284771e+02 -3.286902e+02 -3.290149e+02 -3.289726e+02 -3.294971e+02 -3.291846e+02 -3.299017e+02 -3.293232e+02 -3.302242e+02 -3.294068e+02 -3.304834e+02 -3.294768e+02 -3.307182e+02 -3.295900e+02 -3.309736e+02 -3.298044e+02 -3.312801e+02 -3.301629e+02 -3.316363e+02 -3.306833e+02 -3.320042e+02 -3.313547e+02 -3.323226e+02 -3.321354e+02 -3.325358e+02 -3.329545e+02 -3.326239e+02 -3.337257e+02 -3.326056e+02 -3.343963e+02 -3.325108e+02 -3.350344e+02 -3.322902e+02 -3.358428e+02 -3.317863e+02 -3.364590e+02 -3.308550e+02 -3.358075e+02 -3.324406e+02 -3.362238e+02 -3.316996e+02 -3.373191e+02 -3.316720e+02 -3.377905e+02 -3.320171e+02 -3.377879e+02 -3.325890e+02 -3.378378e+02 -3.332468e+02 -3.373794e+02 -3.334542e+02 -3.369809e+02 -3.335173e+02 -3.366347e+02 -3.334902e+02 -3.363131e+02 -3.333900e+02 -3.359958e+02 -3.332261e+02 -3.356701e+02 -3.330055e+02 -3.353283e+02 -3.327335e+02 -3.349662e+02 -3.324148e+02 -3.345815e+02 -3.320539e+02 -3.341738e+02 -3.316555e+02 -3.337436e+02 -3.312249e+02 
-3.413096e+02 -3.362827e+02 -3.419172e+02 -3.368045e+02 -3.425324e+02 -3.373502e+02 -3.431461e+02 -3.379150e+02 -3.437492e+02 -3.384931e+02 -3.443331e+02 -3.390786e+02 -3.448900e+02 -3.396650e+02 -3.454127e+02 -3.402457e+02 -3.458956e+02 -3.408142e+02 -3.463340e+02 -3.413643e+02 -3.467246e+02 -3.418903e+02 -3.470653e+02 -3.423868e+02 -3.473551e+02 -3.428492e+02 -3.475938e+02 -3.432733e+02 -3.477815e+02 -3.436554e+02 -3.479186e+02 -3.439921e+02 -3.480053e+02 -3.442802e+02 -3.480412e+02 -3.445166e+02 -3.480251e+02 -3.446977e+02 -3.479549e+02 -3.448200e+02 -3.478273e+02 -3.448802e+02 -3.476387e+02 -3.448750e+02 -3.473849e+02 -3.448019e+02 -3.470622e+02 -3.446602e+02 -3.466680e+02 -3.444506e+02 -3.462017e+02 -3.441764e+02 -3.456655e+02 -3.438433e+02 -3.450659e+02 -3.434598e+02 -3.444139e+02 -3.430376e+02 -3.437261e+02 -3.425921e+02 -3.430233e+02 -3.421414e+02 -3.423267e+02 -3.417012e+02 -3.416494e+02 -3.412741e+02 -3.409863e+02 -3.408371e+02 -3.403090e+02 -3.403404e+02 -3.395727e+02 -3.397231e+02 -3.387401e+02 -3.389381e+02 -3.378129e+02 -3.379766e+02 -3.368567e+02 -3.368756e+02 -3.360001e+02 -3.357010e+02 -3.353959e+02 -3.345147e+02 -3.351569e+02 -3.333703e+02 -3.352903e+02 -3.323825e+02 -3.356435e+02 -3.318785e+02 -3.358793e+02 -3.324035e+02 -3.356305e+02 -3.335353e+02 -3.368240e+02 -3.329662e+02 -3.380366e+02 -3.313165e+02 -3.374638e+02 -3.317130e+02 -3.375660e+02 -3.310161e+02 -3.377885e+02 -3.310103e+02 -3.376830e+02 -3.313920e+02 -3.385427e+02 -3.324791e+02 -3.377739e+02 -3.325923e+02 -3.375607e+02 -3.327903e+02 -3.375760e+02 -3.330129e+02 -3.377257e+02 -3.332549e+02 -3.379720e+02 -3.335207e+02 -3.382954e+02 -3.338151e+02 -3.386836e+02 -3.341413e+02 -3.391276e+02 -3.345015e+02 -3.396197e+02 -3.348965e+02 -3.401526e+02 -3.353260e+02 -3.407186e+02 -3.357888e+02 
-3.333742e+02 -3.308737e+02 -3.328885e+02 -3.303626e+02 -3.323852e+02 -3.298369e+02 -3.318687e+02 -3.293043e+02 -3.313439e+02 -3.287725e+02 -3.308165e+02 -3.282497e+02 -3.302922e+02 -3.277432e+02 -3.297770e+02 -3.272603e+02 -3.292769e+02 -3.268070e+02 -3.287975e+02 -3.263886e+02 -3.283441e+02 -3.260092e+02 -3.279213e+02 -3.256719e+02 -3.275333e+02 -3.253789e+02 -3.271838e+02 -3.251319e+02 -3.268759e+02 -3.249320e+02 -3.266125e+02 -3.247805e+02 -3.263966e+02 -3.246791e+02 -3.262313e+02 -3.246302e+02 -3.261201e+02 -3.246375e+02 -3.260673e+02 -3.247056e+02 -3.260773e+02 -3.248405e+02 -3.261549e+02 -3.250484e+02 -3.263038e+02 -3.253353e+02 -3.265260e+02 -3.257054e+02 -3.268197e+02 -3.261592e+02 -3.271773e+02 -3.266915e+02 -3.275841e+02 -3.272888e+02 -3.280167e+02 -3.279280e+02 -3.284440e+02 -3.285752e+02 -3.288286e+02 -3.291875e+02 -3.291326e+02 -3.297188e+02 -3.293250e+02 -3.301321e+02 -3.293940e+02 -3.304167e+02 -3.293615e+02 -3.306042e+02 -3.292904e+02 -3.307663e+02 -3.292732e+02 -3.309897e+02 -3.294041e+02 -3.313367e+02 -3.297505e+02 -3.318093e+02 -3.303377e+02 -3.323345e+02 -3.311478e+02 -3.327871e+02 -3.321204e+02 -3.330532e+02 -3.331410e+02 -3.331040e+02 -3.340387e+02 -3.330070e+02 -3.346512e+02 -3.329073e+02 -3.350907e+02 -3.327491e+02 -3.364614e+02 -3.321199e+02 -3.383368e+02 -3.275999e+02 -3.370867e+02 -3.278968e+02 -3.321684e+02 -3.312492e+02 -3.351836e+02 -3.301135e+02 -3.362901e+02 -3.306336e+02 -3.363558e+02 -3.322632e+02 -3.385539e+02 -3.340142e+02 -3.376341e+02 -3.339266e+02 -3.371240e+02 -3.339161e+02 -3.367507e+02 -3.338513e+02 -3.364252e+02 -3.337204e+02 -3.361102e+02 -3.335287e+02 -3.357873e+02 -3.332816e+02 -3.354468e+02 -3.329838e+02 -3.350833e+02 -3.326389e+02 -3.346945e+02 -3.322508e+02 -3.342794e+02 -3.318239e+02 -3.338387e+02 -3.313629e+02 
-3.412198e+02 -3.361517e+02 -3.418732e+02 -3.366947e+02 -3.425347e+02 -3.372654e+02 -3.431941e+02 -3.378585e+02 -3.438412e+02 -3.384676e+02 -3.444663e+02 -3.390859e+02 -3.450603e+02 -3.397059e+02 -3.456156e+02 -3.403202e+02 -3.461259e+02 -3.409217e+02 -3.465866e+02 -3.415034e+02 -3.469945e+02 -3.420590e+02 -3.473483e+02 -3.425832e+02 -3.476477e+02 -3.430711e+02 -3.478937e+02 -3.435188e+02 -3.480877e+02 -3.439232e+02 -3.482314e+02 -3.442811e+02 -3.483261e+02 -3.445900e+02 -3.483722e+02 -3.448467e+02 -3.483689e+02 -3.450477e+02 -3.483139e+02 -3.451889e+02 -3.482029e+02 -3.452657e+02 -3.480303e+02 -3.452730e+02 -3.477892e+02 -3.452063e+02 -3.474726e+02 -3.450623e+02 -3.470739e+02 -3.448398e+02 -3.465890e+02 -3.445406e+02 -3.460169e+02 -3.441699e+02 -3.453625e+02 -3.437373e+02 -3.446386e+02 -3.432578e+02 -3.438687e+02 -3.427552e+02 -3.430877e+02 -3.422642e+02 -3.423365e+02 -3.418240e+02 -3.416468e+02 -3.414562e+02 -3.410178e+02 -3.411326e+02 -3.403979e+02 -3.407663e+02 -3.396917e+02 -3.402406e+02 -3.388013e+02 -3.394588e+02 -3.376895e+02 -3.383933e+02 -3.364380e+02 -3.371047e+02 -3.352591e+02 -3.357044e+02 -3.344312e+02 -3.342610e+02 -3.341880e+02 -3.327483e+02 -3.346076e+02 -3.311517e+02 -3.354946e+02 -3.299764e+02 -3.361405e+02 -3.313975e+02 -3.335233e+02 -3.352314e+02 -3.455868e+02 -3.276619e+02 -3.401426e+02 -3.257832e+02 -3.257712e+02 -3.272946e+02 -3.309342e+02 -3.269675e+02 -3.329357e+02 -3.282811e+02 -3.339867e+02 -3.305462e+02 -3.370191e+02 -3.322034e+02 -3.371088e+02 -3.324677e+02 -3.370766e+02 -3.326881e+02 -3.371530e+02 -3.328986e+02 -3.373409e+02 -3.331224e+02 -3.376203e+02 -3.333722e+02 -3.379758e+02 -3.336548e+02 -3.383966e+02 -3.339739e+02 -3.388751e+02 -3.343319e+02 -3.394040e+02 -3.347293e+02 -3.399763e+02 -3.351662e+02 -3.405844e+02 -3.356411e+02 
-3.334771e+02 -3.310017e+02 -3.329714e+02 -3.304502e+02 -3.324447e+02 -3.298827e+02 -3.319019e+02 -3.293076e+02 -3.313486e+02 -3.287340e+02 -3.307910e+02 -3.281707e+02 -3.302358e+02 -3.276263e+02 -3.296896e+02 -3.271086e+02 -3.291593e+02 -3.266245e+02 -3.286510e+02 -3.261794e+02 -3.281706e+02 -3.257773e+02 -3.277230e+02 -3.254210e+02 -3.273126e+02 -3.251122e+02 -3.269428e+02 -3.248516e+02 -3.266167e+02 -3.246394e+02 -3.263370e+02 -3.244762e+02 -3.261065e+02 -3.243632e+02 -3.259284e+02 -3.243026e+02 -3.258071e+02 -3.242987e+02 -3.257476e+02 -3.243576e+02 -3.257567e+02 -3.244874e+02 -3.258415e+02 -3.246977e+02 -3.260091e+02 -3.249983e+02 -3.262647e+02 -3.253975e+02 -3.266091e+02 -3.258996e+02 -3.270357e+02 -3.265017e+02 -3.275276e+02 -3.271908e+02 -3.280556e+02 -3.279399e+02 -3.285776e+02 -3.287061e+02 -3.290410e+02 -3.294294e+02 -3.293881e+02 -3.300377e+02 -3.295642e+02 -3.304627e+02 -3.295361e+02 -3.306740e+02 -3.293223e+02 -3.307177e+02 -3.290191e+02 -3.307234e+02 -3.287819e+02 -3.308585e+02 -3.287699e+02 -3.312547e+02 -3.290914e+02 -3.319309e+02 -3.297787e+02 -3.327534e+02 -3.308011e+02 -3.334638e+02 -3.320856e+02 -3.338128e+02 -3.334753e+02 -3.337514e+02 -3.346530e+02 -3.334208e+02 -3.350859e+02 -3.333599e+02 -3.342019e+02 -3.336804e+02 -3.369764e+02 -3.387438e+02 -3.178744e+02 -3.114817e+02 -3.364124e+02 -3.149635e+02 -3.313228e+02 -3.228224e+02 -3.326544e+02 -3.264623e+02 -3.342283e+02 -3.292253e+02 -3.353497e+02 -3.318610e+02 -3.377982e+02 -3.338926e+02 -3.374842e+02 -3.343260e+02 -3.371331e+02 -3.343717e+02 -3.368212e+02 -3.342803e+02 -3.365285e+02 -3.341131e+02 -3.362337e+02 -3.338875e+02 -3.359230e+02 -3.336093e+02 -3.355887e+02 -3.332816e+02 -3.352263e+02 -3.329065e+02 -3.348339e+02 -3.324869e+02 -3.344108e+02 -3.320264e+02 -3.339579e+02 -3.315294e+02 
-3.411119e+02 -3.359884e+02 -3.418210e+02 -3.365570e+02 -3.425392e+02 -3.371584e+02 -3.432547e+02 -3.377863e+02 -3.439557e+02 -3.384335e+02 -3.446309e+02 -3.390920e+02 -3.452701e+02 -3.397532e+02 -3.458644e+02 -3.404087e+02 -3.464070e+02 -3.410500e+02 -3.468930e+02 -3.416695e+02 -3.473197e+02 -3.422603e+02 -3.476866e+02 -3.428166e+02 -3.479946e+02 -3.433338e+02 -3.482462e+02 -3.438083e+02 -3.484446e+02 -3.442376e+02 -3.485935e+02 -3.446196e+02 -3.486957e+02 -3.449524e+02 -3.487532e+02 -3.452335e+02 -3.487660e+02 -3.454596e+02 -3.487316e+02 -3.456260e+02 -3.486448e+02 -3.457265e+02 -3.484975e+02 -3.457537e+02 -3.482792e+02 -3.456997e+02 -3.479779e+02 -3.455574e+02 -3.475816e+02 -3.453218e+02 -3.470795e+02 -3.449918e+02 -3.464648e+02 -3.445705e+02 -3.457374e+02 -3.440661e+02 -3.449091e+02 -3.434949e+02 -3.440108e+02 -3.428888e+02 -3.430990e+02 -3.423073e+02 -3.422525e+02 -3.418382e+02 -3.415459e+02 -3.415548e+02 -3.410017e+02 -3.414317e+02 -3.405359e+02 -3.413148e+02 -3.399604e+02 -3.409810e+02 -3.390547e+02 -3.402377e+02 -3.376874e+02 -3.390212e+02 -3.359459e+02 -3.374533e+02 -3.341865e+02 -3.357772e+02 -3.329138e+02 -3.341097e+02 -3.325863e+02 -3.322365e+02 -3.334765e+02 -3.295134e+02 -3.355964e+02 -3.254745e+02 -3.393640e+02 -3.344040e+02 -2.582255e+02 -2.988183e+02 -3.329068e+02 -3.153961e+02 -3.365305e+02 -3.057786e+02 -3.346367e+02 -3.187483e+02 -3.338486e+02 -3.243273e+02 -3.335967e+02 -3.277529e+02 -3.338935e+02 -3.300237e+02 -3.373177e+02 -3.319500e+02 -3.365673e+02 -3.323892e+02 -3.364858e+02 -3.325978e+02 -3.366204e+02 -3.327726e+02 -3.368663e+02 -3.329653e+02 -3.371939e+02 -3.331918e+02 -3.375915e+02 -3.334585e+02 -3.380528e+02 -3.337683e+02 -3.385724e+02 -3.341228e+02 -3.391451e+02 -3.345229e+02 -3.397644e+02 -3.349683e+02 -3.404230e+02 -3.354576e+02 