# vtk DataFile Version 2.0
Comment goes here
ASCII

DATASET STRUCTURED_POINTS
DIMENSIONS    128   128   1

ORIGIN    0.000   0.000   0.000
SPACING   0.0156250.015625   1.000

POINT_DATA   16384
VECTORS u double

0.251039 0.000051 1.000000 0.247710 0.000074 1.000000 0.244068 0.000054 1.000000 0.240058 0.000078 1.000000 0.235800 0.000056 1.000000 0.230926 0.000081 1.000000 0.226025 0.000059 1.000000 0.220171 0.000084 1.000000 0.214645 0.000062 1.000000 0.207755 0.000086 1.000000 0.201658 0.000064 1.000000 0.193731 0.000088 1.000000 0.187144 0.000066 1.000000 0.178226 0.000090 1.000000 0.171246 0.000068 1.000000 0.161414 0.000092 1.000000 0.154143 0.000070 1.000000 0.143490 0.000093 1.000000 0.136014 0.000071 1.000000 0.124635 0.000093 1.000000 0.117013 0.000073 1.000000 0.104979 0.000094 1.000000 0.097225 0.000074 1.000000 0.084572 0.000094 1.000000 0.076640 0.000075 1.000000 0.063345 0.000094 1.000000 0.055117 0.000077 1.000000 0.041085 0.000095 1.000000 0.032363 0.000078 1.000000 0.017419 0.000095 1.000000 0.007920 0.000080 1.000000 -0.008196 0.000095 1.000000 -0.018834 0.000082 1.000000 -0.036459 0.000095 1.000000 -0.048661 0.000084 1.000000 -0.068192 0.000096 1.000000 -0.082421 0.000086 1.000000 -0.104285 0.000096 1.000000 -0.121002 0.000089 1.000000 -0.145610 0.000097 1.000000 -0.165223 0.000091 1.000000 -0.192911 0.000098 1.000000 -0.215712 0.000094 1.000000 -0.246676 0.000099 1.000000 -0.272771 0.000097 1.000000 -0.306990 0.000100 1.000000 -0.336230 0.000099 1.000000 -0.373397 0.000100 1.000000 -0.405317 0.000101 1.000000 -0.444780 0.000100 1.000000 -0.478562 0.000102 1.000000 -0.519292 0.000100 1.000000 -0.553752 0.000102 1.000000 -0.594348 0.000098 1.000000 -0.627977 0.000101 1.000000 -0.666718 0.000095 1.000000 -0.697757 0.000098 1.000000 -0.732695 0.000090 1.000000 -0.759263 0.000092 1.000000 -0.788357 0.000082 1.000000 -0.808596 0.000084 1.000000 -0.829865 0.000071 1.000000 -0.842093 0.000071 1.000000 -0.853762 0.000057 1.000000 -0.856612 0.000055 1.000000 -0.857238 0.000039 1.000000 -0.849766 0.000035 1.000000 -0.838333 0.000017 1.000000 -0.820094 0.000010 1.000000 -0.796093 -0.000009 1.000000 -0.767208 -0.000018 1.000000 -0.730713 -0.000036 1.000000 -0.691919 -0.000048 1.000000 -0.643673 -0.000065 1.000000 -0.596374 -0.000077 1.000000 -0.537869 -0.000093 1.000000 -0.484135 -0.000105 1.000000 -0.417643 -0.000117 1.000000 -0.360124 -0.000129 1.000000 -0.288631 -0.000137 1.000000 -0.230371 -0.000147 1.000000 -0.157383 -0.000149 1.000000 -0.101554 -0.000158 1.000000 -0.030799 -0.000154 1.000000 0.019603 -0.000160 1.000000 0.084562 -0.000150 1.000000 0.127048 -0.000152 1.000000 0.183309 -0.000137 1.000000 0.216355 -0.000137 1.000000 0.262259 -0.000116 1.000000 0.285812 -0.000115 1.000000 0.321354 -0.000091 1.000000 0.336934 -0.000089 1.000000 0.363472 -0.000065 1.000000 0.373319 -0.000065 1.000000 0.392506 -0.000040 1.000000 0.398275 -0.000043 1.000000 0.411174 -0.000020 1.000000 0.413821 -0.000026 1.000000 0.420529 -0.000005 1.000000 0.420323 -0.000013 1.000000 0.420564 0.000007 1.000000 0.417350 -0.000003 1.000000 0.411279 0.000015 1.000000 0.405110 0.000005 1.000000 0.393971 0.000022 1.000000 0.385743 0.000011 1.000000 0.371892 0.000028 1.000000 0.363048 0.000016 1.000000 0.348874 0.000033 1.000000 0.340635 0.000020 1.000000 0.327781 0.000038 1.000000 0.320801 0.000025 1.000000 0.310049 0.000042 1.000000 0.304477 0.000029 1.000000 0.295974 0.000047 1.000000 0.291654 0.000032 1.000000 0.285172 0.000051 1.000000 0.281804 0.000036 1.000000 0.276938 0.000056 1.000000 0.274183 0.000039 1.000000 0.270466 0.000060 1.000000 0.268000 0.000042 1.000000 0.264968 0.000064 1.000000 0.262506 0.000045 1.000000 0.259730 0.000067 1.000000 0.257038 0.000048 1.000000 0.254142 0.000071 1.000000 
0.268104 0.003279 1.000000 0.265960 0.003565 1.000000 0.261840 0.003892 1.000000 0.258748 0.004217 1.000000 0.254077 0.004635 1.000000 0.249842 0.004973 1.000000 0.244599 0.005449 1.000000 0.239093 0.005779 1.000000 0.233300 0.006283 1.000000 0.226464 0.006586 1.000000 0.220178 0.007089 1.000000 0.212014 0.007351 1.000000 0.205316 0.007832 1.000000 0.195878 0.008045 1.000000 0.188866 0.008487 1.000000 0.178244 0.008649 1.000000 0.171015 0.009045 1.000000 0.159322 0.009163 1.000000 0.151960 0.009512 1.000000 0.139311 0.009600 1.000000 0.131868 0.009913 1.000000 0.118363 0.009993 1.000000 0.110846 0.010290 1.000000 0.096546 0.010392 1.000000 0.088899 0.010701 1.000000 0.073811 0.010861 1.000000 0.065906 0.011218 1.000000 0.049963 0.011476 1.000000 0.041589 0.011922 1.000000 0.024643 0.012321 1.000000 0.015505 0.012897 1.000000 -0.002677 0.013476 1.000000 -0.012953 0.014222 1.000000 -0.032686 0.015012 1.000000 -0.044538 0.015959 1.000000 -0.066195 0.016979 1.000000 -0.080098 0.018140 1.000000 -0.104084 0.019389 1.000000 -0.120508 0.020757 1.000000 -0.147213 0.022209 1.000000 -0.166573 0.023747 1.000000 -0.196311 0.025343 1.000000 -0.218902 0.026981 1.000000 -0.251846 0.028628 1.000000 -0.277773 0.030257 1.000000 -0.313876 0.031828 1.000000 -0.342986 0.033305 1.000000 -0.381914 0.034642 1.000000 -0.413733 0.035794 1.000000 -0.454807 0.036720 1.000000 -0.488501 0.037358 1.000000 -0.530669 0.037691 1.000000 -0.565042 0.037630 1.000000 -0.606883 0.037206 1.000000 -0.640411 0.036285 1.000000 -0.680197 0.034981 1.000000 -0.711113 0.033085 1.000000 -0.746903 0.030838 1.000000 -0.773326 0.027922 1.000000 -0.803106 0.024744 1.000000 -0.823188 0.020836 1.000000 -0.845021 0.016816 1.000000 -0.857102 0.012018 1.000000 -0.869269 0.007313 1.000000 -0.872009 0.001792 1.000000 -0.873116 -0.003388 1.000000 -0.865590 -0.009419 1.000000 -0.854651 -0.014821 1.000000 -0.836412 -0.021109 1.000000 -0.812908 -0.026453 1.000000 -0.784044 -0.032707 1.000000 -0.747995 -0.037681 1.000000 -0.709182 -0.043565 1.000000 -0.661246 -0.047837 1.000000 -0.613806 -0.052976 1.000000 -0.555385 -0.056211 1.000000 -0.501312 -0.060215 1.000000 -0.434619 -0.062121 1.000000 -0.376512 -0.064631 1.000000 -0.304535 -0.065011 1.000000 -0.245420 -0.065767 1.000000 -0.171744 -0.064556 1.000000 -0.114800 -0.063445 1.000000 -0.043297 -0.060730 1.000000 0.008428 -0.057835 1.000000 0.074031 -0.053870 1.000000 0.117916 -0.049520 1.000000 0.174611 -0.044787 1.000000 0.208864 -0.039606 1.000000 0.255039 -0.034841 1.000000 0.279271 -0.029655 1.000000 0.315134 -0.025648 1.000000 0.330690 -0.021141 1.000000 0.357822 -0.018252 1.000000 0.367157 -0.014574 1.000000 0.387271 -0.012513 1.000000 0.392426 -0.009369 1.000000 0.406554 -0.007788 1.000000 0.408645 -0.004695 1.000000 0.416915 -0.003251 1.000000 0.416195 -0.000022 1.000000 0.418312 0.001497 1.000000 0.414554 0.004648 1.000000 0.410575 0.006139 1.000000 0.403783 0.008666 1.000000 0.394852 0.009709 1.000000 0.385959 0.011058 1.000000 0.374439 0.011379 1.000000 0.364949 0.011533 1.000000 0.353217 0.011242 1.000000 0.344359 0.010575 1.000000 0.334001 0.009958 1.000000 0.326407 0.008899 1.000000 0.318142 0.008207 1.000000 0.311944 0.007075 1.000000 0.305865 0.006462 1.000000 0.300901 0.005442 1.000000 0.296745 0.004980 1.000000 0.292720 0.004162 1.000000 0.290051 0.003869 1.000000 0.286638 0.003285 1.000000 0.284962 0.003155 1.000000 0.281851 0.002802 1.000000 0.280680 0.002815 1.000000 0.277598 0.002675 1.000000 0.276481 0.002806 1.000000 0.273205 0.002853 1.000000 0.271743 0.003075 1.000000 
0.250935 0.005833 1.000000 0.247771 0.006339 1.000000 0.244203 0.007266 1.000000 0.240318 0.007840 1.000000 0.236106 0.008963 1.000000 0.231321 0.009559 1.000000 0.226443 0.010808 1.000000 0.220646 0.011383 1.000000 0.215124 0.012690 1.000000 0.208263 0.013208 1.000000 0.202154 0.014514 1.000000 0.194235 0.014950 1.000000 0.187628 0.016202 1.000000 0.178700 0.016540 1.000000 0.171698 0.017702 1.000000 0.161847 0.017942 1.000000 0.154558 0.018992 1.000000 0.143886 0.019148 1.000000 0.136405 0.020082 1.000000 0.125014 0.020185 1.000000 0.117409 0.021021 1.000000 0.105383 0.021116 1.000000 0.097675 0.021891 1.000000 0.085059 0.022041 1.000000 0.077212 0.022811 1.000000 0.063993 0.023088 1.000000 0.055896 0.023925 1.000000 0.041988 0.024411 1.000000 0.033449 0.025398 1.000000 0.018684 0.026178 1.000000 0.009423 0.027400 1.000000 -0.006454 0.028554 1.000000 -0.016798 0.030090 1.000000 -0.034125 0.031680 1.000000 -0.045980 0.033593 1.000000 -0.065160 0.035655 1.000000 -0.078999 0.037975 1.000000 -0.100468 0.040507 1.000000 -0.116765 0.043217 1.000000 -0.140952 0.046162 1.000000 -0.160135 0.049189 1.000000 -0.187400 0.052427 1.000000 -0.209783 0.055628 1.000000 -0.240348 0.058970 1.000000 -0.266065 0.062127 1.000000 -0.299938 0.065313 1.000000 -0.328865 0.068137 1.000000 -0.365765 0.070847 1.000000 -0.397461 0.072994 1.000000 -0.436757 0.074869 1.000000 -0.470413 0.075964 1.000000 -0.511089 0.076640 1.000000 -0.545523 0.076317 1.000000 -0.586174 0.075467 1.000000 -0.619863 0.073415 1.000000 -0.658753 0.070797 1.000000 -0.689914 0.066804 1.000000 -0.725067 0.062302 1.000000 -0.751789 0.056295 1.000000 -0.781136 0.049944 1.000000 -0.801531 0.041999 1.000000 -0.823067 0.033986 1.000000 -0.835436 0.024319 1.000000 -0.847375 0.014964 1.000000 -0.850348 0.003902 1.000000 -0.851246 -0.006380 1.000000 -0.843886 -0.018431 1.000000 -0.832734 -0.029161 1.000000 -0.814607 -0.041733 1.000000 -0.790896 -0.052377 1.000000 -0.762128 -0.064930 1.000000 -0.725915 -0.074899 1.000000 -0.687240 -0.086797 1.000000 -0.639238 -0.095441 1.000000 -0.592057 -0.105939 1.000000 -0.533726 -0.112587 1.000000 -0.480119 -0.120872 1.000000 -0.413720 -0.124917 1.000000 -0.356372 -0.130213 1.000000 -0.284910 -0.131229 1.000000 -0.226907 -0.132938 1.000000 -0.153931 -0.130770 1.000000 -0.098473 -0.128605 1.000000 -0.027774 -0.123383 1.000000 0.022115 -0.117488 1.000000 0.086883 -0.109637 1.000000 0.128646 -0.100732 1.000000 0.184436 -0.091085 1.000000 0.216422 -0.080565 1.000000 0.261454 -0.070523 1.000000 0.283573 -0.060209 1.000000 0.317926 -0.051511 1.000000 0.331994 -0.042778 1.000000 0.357376 -0.036531 1.000000 0.366096 -0.029513 1.000000 0.384451 -0.025309 1.000000 0.389440 -0.019327 1.000000 0.401995 -0.016240 1.000000 0.404253 -0.010387 1.000000 0.410924 -0.007554 1.000000 0.410744 -0.001410 1.000000 0.411029 0.001647 1.000000 0.408117 0.007734 1.000000 0.401981 0.010786 1.000000 0.396144 0.015728 1.000000 0.384795 0.017845 1.000000 0.376939 0.020423 1.000000 0.363049 0.021038 1.000000 0.354745 0.021238 1.000000 0.340846 0.020623 1.000000 0.333286 0.019236 1.000000 0.320939 0.017990 1.000000 0.314667 0.015884 1.000000 0.304514 0.014506 1.000000 0.299590 0.012305 1.000000 0.291675 0.011090 1.000000 0.287902 0.009153 1.000000 0.281949 0.008232 1.000000 0.279020 0.006730 1.000000 0.274608 0.006138 1.000000 0.272196 0.005127 1.000000 0.268859 0.004847 1.000000 0.266658 0.004324 1.000000 0.263939 0.004316 1.000000 0.261679 0.004245 1.000000 0.259159 0.004460 1.000000 0.256618 0.004786 1.000000 0.253930 0.005172 1.000000 
0.268077 0.009437 1.000000 0.266279 0.010297 1.000000 0.262299 0.011346 1.000000 0.259471 0.012314 1.000000 0.254885 0.013631 1.000000 0.250838 0.014636 1.000000 0.245635 0.016124 1.000000 0.240248 0.017099 1.000000 0.234459 0.018666 1.000000 0.227681 0.019555 1.000000 0.221371 0.021117 1.000000 0.213214 0.021878 1.000000 0.206478 0.023367 1.000000 0.197007 0.023974 1.000000 0.189954 0.025340 1.000000 0.179275 0.025790 1.000000 0.172017 0.027006 1.000000 0.160261 0.027316 1.000000 0.152896 0.028384 1.000000 0.140200 0.028596 1.000000 0.132798 0.029544 1.000000 0.119281 0.029727 1.000000 0.111866 0.030614 1.000000 0.097611 0.030855 1.000000 0.090144 0.031767 1.000000 0.075180 0.032177 1.000000 0.067547 0.033222 1.000000 0.051825 0.033924 1.000000 0.043827 0.035226 1.000000 0.027214 0.036347 1.000000 0.018563 0.038035 1.000000 0.000832 0.039697 1.000000 -0.008845 0.041893 1.000000 -0.028008 0.044195 1.000000 -0.039157 0.046994 1.000000 -0.060137 0.049997 1.000000 -0.073251 0.053448 1.000000 -0.096474 0.057155 1.000000 -0.112053 0.061242 1.000000 -0.137944 0.065578 1.000000 -0.156442 0.070195 1.000000 -0.185361 0.074991 1.000000 -0.207120 0.079929 1.000000 -0.239294 0.084910 1.000000 -0.264472 0.089846 1.000000 -0.299911 0.094628 1.000000 -0.328406 0.099132 1.000000 -0.366828 0.103237 1.000000 -0.398207 0.106786 1.000000 -0.438972 0.109672 1.000000 -0.472425 0.111690 1.000000 -0.514500 0.112801 1.000000 -0.548827 0.112716 1.000000 -0.590781 0.111547 1.000000 -0.624428 0.108863 1.000000 -0.664495 0.105032 1.000000 -0.695644 0.099400 1.000000 -0.731827 0.092713 1.000000 -0.758532 0.083991 1.000000 -0.788761 0.074486 1.000000 -0.809118 0.062767 1.000000 -0.831418 0.050721 1.000000 -0.843740 0.036326 1.000000 -0.856379 0.022224 1.000000 -0.859330 0.005663 1.000000 -0.860938 -0.009850 1.000000 -0.853623 -0.027931 1.000000 -0.843240 -0.044099 1.000000 -0.825246 -0.062947 1.000000 -0.802360 -0.078933 1.000000 -0.773785 -0.097688 1.000000 -0.738375 -0.112569 1.000000 -0.699875 -0.130242 1.000000 -0.652512 -0.143020 1.000000 -0.605385 -0.158489 1.000000 -0.547375 -0.168149 1.000000 -0.493620 -0.180221 1.000000 -0.427124 -0.185868 1.000000 -0.369401 -0.193442 1.000000 -0.297431 -0.194476 1.000000 -0.238852 -0.196745 1.000000 -0.165092 -0.192989 1.000000 -0.108883 -0.189602 1.000000 -0.037371 -0.181318 1.000000 0.013416 -0.172491 1.000000 0.078693 -0.160400 1.000000 0.121354 -0.147074 1.000000 0.177030 -0.132562 1.000000 0.209482 -0.116624 1.000000 0.253704 -0.101992 1.000000 0.275265 -0.086127 1.000000 0.308565 -0.074070 1.000000 0.320925 -0.060591 1.000000 0.345719 -0.052353 1.000000 0.352425 -0.041648 1.000000 0.370901 -0.035857 1.000000 0.374316 -0.026913 1.000000 0.387697 -0.022601 1.000000 0.388985 -0.013624 1.000000 0.397152 -0.009742 1.000000 0.396515 -0.000128 1.000000 0.398787 0.004125 1.000000 0.395672 0.013696 1.000000 0.391682 0.018111 1.000000 0.385562 0.025852 1.000000 0.376269 0.028914 1.000000 0.368141 0.032804 1.000000 0.356621 0.033574 1.000000 0.348257 0.033736 1.000000 0.337164 0.032700 1.000000 0.329704 0.030482 1.000000 0.320429 0.028577 1.000000 0.314265 0.025324 1.000000 0.307240 0.023284 1.000000 0.302330 0.019913 1.000000 0.297456 0.018150 1.000000 0.293565 0.015169 1.000000 0.290486 0.013861 1.000000 0.287317 0.011503 1.000000 0.285572 0.010693 1.000000 0.282826 0.009033 1.000000 0.281928 0.008694 1.000000 0.279327 0.007722 1.000000 0.278804 0.007794 1.000000 0.276108 0.007455 1.000000 0.275525 0.007867 1.000000 0.272537 0.008082 1.000000 0.271509 0.008757 1.000000 
0.250671 0.011063 1.000000 0.247989 0.012117 1.000000 0.244635 0.014073 1.000000 0.241118 0.015254 1.000000 0.237037 0.017596 1.000000 0.232516 0.018809 1.000000 0.227699 0.021397 1.000000 0.222071 0.022559 1.000000 0.216552 0.025257 1.000000 0.209777 0.026296 1.000000 0.203631 0.028981 1.000000 0.195727 0.029843 1.000000 0.189056 0.032409 1.000000 0.180093 0.033065 1.000000 0.173020 0.035434 1.000000 0.163105 0.035879 1.000000 0.155759 0.038006 1.000000 0.145018 0.038268 1.000000 0.137518 0.040144 1.000000 0.126084 0.040283 1.000000 0.118522 0.041940 1.000000 0.106508 0.042049 1.000000 0.098933 0.043560 1.000000 0.086416 0.043762 1.000000 0.078816 0.045242 1.000000 0.065814 0.045685 1.000000 0.058101 0.047279 1.000000 0.044556 0.048131 1.000000 0.036557 0.050009 1.000000 0.022322 0.051442 1.000000 0.013769 0.053782 1.000000 -0.001399 0.055962 1.000000 -0.010864 0.058930 1.000000 -0.027303 0.061992 1.000000 -0.038118 0.065722 1.000000 -0.056245 0.069749 1.000000 -0.068908 0.074313 1.000000 -0.089191 0.079309 1.000000 -0.104218 0.084687 1.000000 -0.127137 0.090550 1.000000 -0.145012 0.096606 1.000000 -0.170994 0.103106 1.000000 -0.192107 0.109561 1.000000 -0.221455 0.116322 1.000000 -0.246018 0.122744 1.000000 -0.278829 0.129246 1.000000 -0.306797 0.135054 1.000000 -0.342875 0.140648 1.000000 -0.373872 0.145139 1.000000 -0.412651 0.149088 1.000000 -0.445910 0.151491 1.000000 -0.486407 0.153041 1.000000 -0.520747 0.152598 1.000000 -0.561551 0.151069 1.000000 -0.595407 0.147129 1.000000 -0.634730 0.142012 1.000000 -0.666241 0.134137 1.000000 -0.702023 0.125190 1.000000 -0.729178 0.113229 1.000000 -0.759255 0.100531 1.000000 -0.780078 0.084656 1.000000 -0.802370 0.068607 1.000000 -0.815108 0.049281 1.000000 -0.827795 0.030555 1.000000 -0.831070 0.008461 1.000000 -0.832720 -0.012088 1.000000 -0.825629 -0.036129 1.000000 -0.815265 -0.057537 1.000000 -0.797420 -0.082613 1.000000 -0.774544 -0.103838 1.000000 -0.746093 -0.128916 1.000000 -0.710722 -0.148808 1.000000 -0.672389 -0.172659 1.000000 -0.625138 -0.189932 1.000000 -0.578310 -0.211076 1.000000 -0.520535 -0.224352 1.000000 -0.467326 -0.241123 1.000000 -0.401248 -0.249135 1.000000 -0.344458 -0.259906 1.000000 -0.273143 -0.261779 1.000000 -0.216004 -0.265277 1.000000 -0.143143 -0.260738 1.000000 -0.088938 -0.256325 1.000000 -0.018488 -0.245681 1.000000 0.029740 -0.233553 1.000000 0.093885 -0.217575 1.000000 0.133432 -0.199068 1.000000 0.187801 -0.179213 1.000000 0.216572 -0.157239 1.000000 0.258923 -0.136306 1.000000 0.276549 -0.115069 1.000000 0.307149 -0.097170 1.000000 0.316389 -0.079932 1.000000 0.338141 -0.068032 1.000000 0.343566 -0.054696 1.000000 0.359243 -0.047199 1.000000 0.361758 -0.036123 1.000000 0.373326 -0.030910 1.000000 0.374217 -0.019842 1.000000 0.380810 -0.015084 1.000000 0.380674 -0.003045 1.000000 0.381149 0.002490 1.000000 0.379341 0.014839 1.000000 0.373120 0.020896 1.000000 0.368466 0.031141 1.000000 0.356454 0.035267 1.000000 0.349908 0.040071 1.000000 0.336041 0.040921 1.000000 0.329600 0.040695 1.000000 0.316745 0.039176 1.000000 0.311404 0.035972 1.000000 0.300732 0.033429 1.000000 0.296657 0.029073 1.000000 0.288362 0.026441 1.000000 0.285373 0.022089 1.000000 0.279225 0.019855 1.000000 0.277045 0.016123 1.000000 0.272651 0.014480 1.000000 0.270986 0.011643 1.000000 0.267901 0.010629 1.000000 0.266472 0.008771 1.000000 0.264243 0.008346 1.000000 0.262797 0.007448 1.000000 0.260995 0.007535 1.000000 0.259310 0.007524 1.000000 0.257543 0.008031 1.000000 0.255432 0.008802 1.000000 0.253353 0.009632 1.000000 
0.268125 0.014801 1.000000 0.266999 0.016333 1.000000 0.263281 0.018217 1.000000 0.260968 0.019912 1.000000 0.256539 0.022233 1.000000 0.252858 0.023974 1.000000 0.247724 0.026569 1.000000 0.242568 0.028246 1.000000 0.236776 0.030959 1.000000 0.230106 0.032477 1.000000 0.223741 0.035167 1.000000 0.215587 0.036452 1.000000 0.208764 0.039000 1.000000 0.199216 0.040010 1.000000 0.192071 0.042329 1.000000 0.181265 0.043051 1.000000 0.173936 0.045093 1.000000 0.162039 0.045557 1.000000 0.154657 0.047318 1.000000 0.141844 0.047592 1.000000 0.134513 0.049120 1.000000 0.120949 0.049315 1.000000 0.113725 0.050706 1.000000 0.099538 0.050973 1.000000 0.092416 0.052369 1.000000 0.077676 0.052892 1.000000 0.070573 0.054480 1.000000 0.055271 0.055468 1.000000 0.048014 0.057460 1.000000 0.032045 0.059134 1.000000 0.024360 0.061757 1.000000 0.007517 0.064330 1.000000 -0.000967 0.067797 1.000000 -0.018997 0.071449 1.000000 -0.028740 0.075936 1.000000 -0.048363 0.080786 1.000000 -0.059891 0.086394 1.000000 -0.081577 0.092466 1.000000 -0.095447 0.099187 1.000000 -0.119689 0.106373 1.000000 -0.136433 0.114052 1.000000 -0.163682 0.122086 1.000000 -0.183740 0.130390 1.000000 -0.214333 0.138821 1.000000 -0.237971 0.147220 1.000000 -0.272034 0.155408 1.000000 -0.299256 0.163178 1.000000 -0.336619 0.170312 1.000000 -0.367077 0.176562 1.000000 -0.407184 0.181710 1.000000 -0.440120 0.185445 1.000000 -0.481974 0.187638 1.000000 -0.516183 0.187860 1.000000 -0.558334 0.186207 1.000000 -0.592199 0.182041 1.000000 -0.632797 0.175865 1.000000 -0.664382 0.166692 1.000000 -0.701309 0.155650 1.000000 -0.728526 0.141223 1.000000 -0.759582 0.125386 1.000000 -0.780407 0.105882 1.000000 -0.803530 0.085750 1.000000 -0.816214 0.061751 1.000000 -0.829664 0.038186 1.000000 -0.832892 0.010588 1.000000 -0.835361 -0.015291 1.000000 -0.828326 -0.045386 1.000000 -0.818946 -0.072309 1.000000 -0.801331 -0.103668 1.000000 -0.779633 -0.130260 1.000000 -0.751576 -0.161510 1.000000 -0.717468 -0.186272 1.000000 -0.679585 -0.215826 1.000000 -0.633451 -0.237100 1.000000 -0.586964 -0.263092 1.000000 -0.529884 -0.279133 1.000000 -0.476797 -0.299508 1.000000 -0.410800 -0.308736 1.000000 -0.353927 -0.321546 1.000000 -0.282073 -0.322930 1.000000 -0.224759 -0.326746 1.000000 -0.150943 -0.320055 1.000000 -0.096520 -0.314257 1.000000 -0.025087 -0.299996 1.000000 0.023518 -0.284865 1.000000 0.088109 -0.264092 1.000000 0.128244 -0.240990 1.000000 0.181834 -0.215702 1.000000 0.210828 -0.187746 1.000000 0.250862 -0.161970 1.000000 0.266977 -0.134352 1.000000 0.294685 -0.113910 1.000000 0.299940 -0.091584 1.000000 0.319856 -0.079530 1.000000 0.321086 -0.062750 1.000000 0.336045 -0.054049 1.000000 0.335731 -0.040995 1.000000 0.347555 -0.035060 1.000000 0.346910 -0.021108 1.000000 0.354850 -0.016199 1.000000 0.354321 -0.000467 1.000000 0.357029 0.005458 1.000000 0.355611 0.021725 1.000000 0.351921 0.028986 1.000000 0.347516 0.042518 1.000000 0.337430 0.047473 1.000000 0.331252 0.053217 1.000000 0.320065 0.053882 1.000000 0.314483 0.053032 1.000000 0.305130 0.050896 1.000000 0.300825 0.046495 1.000000 0.294013 0.043325 1.000000 0.290833 0.037695 1.000000 0.286393 0.034568 1.000000 0.284027 0.029049 1.000000 0.281545 0.026479 1.000000 0.279705 0.021742 1.000000 0.278715 0.019920 1.000000 0.277152 0.016254 1.000000 0.277184 0.015207 1.000000 0.275675 0.012691 1.000000 0.276270 0.012368 1.000000 0.274616 0.010969 1.000000 0.275338 0.011281 1.000000 0.273360 0.010908 1.000000 0.273808 0.011745 1.000000 0.271356 0.012272 1.000000 0.271170 0.013518 1.000000 
0.250391 0.015235 1.000000 0.248483 0.016961 1.000000 0.245454 0.020105 1.000000 0.242529 0.021995 1.000000 0.238644 0.025705 1.000000 0.234546 0.027624 1.000000 0.229813 0.031688 1.000000 0.224453 0.033507 1.000000 0.218926 0.037720 1.000000 0.212280 0.039331 1.000000 0.206056 0.043499 1.000000 0.198165 0.044820 1.000000 0.191371 0.048780 1.000000 0.182332 0.049759 1.000000 0.175124 0.053386 1.000000 0.165079 0.054014 1.000000 0.157619 0.057232 1.000000 0.146739 0.057547 1.000000 0.139185 0.060338 1.000000 0.127649 0.060427 1.000000 0.120136 0.062835 1.000000 0.108110 0.062837 1.000000 0.100730 0.064972 1.000000 0.088345 0.065071 1.000000 0.081129 0.067104 1.000000 0.068454 0.067528 1.000000 0.061355 0.069684 1.000000 0.048380 0.070691 1.000000 0.041257 0.073235 1.000000 0.027873 0.075096 1.000000 0.020482 0.078310 1.000000 0.006471 0.081289 1.000000 -0.001539 0.085444 1.000000 -0.016511 0.089765 1.000000 -0.025593 0.095088 1.000000 -0.041963 0.100900 1.000000 -0.052653 0.107527 1.000000 -0.070941 0.114865 1.000000 -0.083822 0.122799 1.000000 -0.104588 0.131536 1.000000 -0.120241 0.140600 1.000000 -0.144027 0.150414 1.000000 -0.162961 0.160211 1.000000 -0.190209 0.170553 1.000000 -0.212775 0.180446 1.000000 -0.243733 0.190531 1.000000 -0.270026 0.199638 1.000000 -0.304646 0.208469 1.000000 -0.334407 0.215704 1.000000 -0.372243 0.222130 1.000000 -0.404779 0.226281 1.000000 -0.444910 0.229105 1.000000 -0.479045 0.228958 1.000000 -0.520050 0.227084 1.000000 -0.554144 0.221592 1.000000 -0.594137 0.214195 1.000000 -0.626182 0.202648 1.000000 -0.662946 0.189334 1.000000 -0.690746 0.171503 1.000000 -0.721936 0.152412 1.000000 -0.743346 0.128603 1.000000 -0.766744 0.104414 1.000000 -0.779912 0.075415 1.000000 -0.793646 0.047233 1.000000 -0.797201 0.014158 1.000000 -0.799889 -0.016654 1.000000 -0.793021 -0.052544 1.000000 -0.783787 -0.084532 1.000000 -0.766226 -0.121926 1.000000 -0.744644 -0.153593 1.000000 -0.716605 -0.191080 1.000000 -0.682645 -0.220800 1.000000 -0.644835 -0.256676 1.000000 -0.598932 -0.282552 1.000000 -0.552685 -0.314642 1.000000 -0.495973 -0.334519 1.000000 -0.443456 -0.360208 1.000000 -0.378056 -0.372005 1.000000 -0.322310 -0.388632 1.000000 -0.251420 -0.390947 1.000000 -0.196018 -0.396407 1.000000 -0.123612 -0.388978 1.000000 -0.071989 -0.382182 1.000000 -0.002277 -0.365719 1.000000 0.042697 -0.346749 1.000000 0.105584 -0.322301 1.000000 0.141255 -0.292794 1.000000 0.193213 -0.261797 1.000000 0.216623 -0.226267 1.000000 0.254359 -0.192454 1.000000 0.263915 -0.158892 1.000000 0.287695 -0.130134 1.000000 0.287642 -0.105103 1.000000 0.302923 -0.089178 1.000000 0.303727 -0.070885 1.000000 0.314040 -0.061844 1.000000 0.311763 -0.047632 1.000000 0.321955 -0.042089 1.000000 0.319576 -0.027138 1.000000 0.326016 -0.022494 1.000000 0.325643 -0.005224 1.000000 0.326451 0.001200 1.000000 0.327249 0.019947 1.000000 0.321403 0.028992 1.000000 0.319499 0.045632 1.000000 0.306276 0.051530 1.000000 0.302767 0.057436 1.000000 0.289642 0.057691 1.000000 0.287257 0.055630 1.000000 0.276966 0.052834 1.000000 0.275882 0.047089 1.000000 0.268471 0.043420 1.000000 0.268199 0.036692 1.000000 0.263134 0.033247 1.000000 0.263273 0.026937 1.000000 0.260019 0.024177 1.000000 0.260312 0.018953 1.000000 0.258397 0.017033 1.000000 0.258655 0.013175 1.000000 0.257652 0.012106 1.000000 0.257708 0.009685 1.000000 0.257215 0.009405 1.000000 0.256910 0.008380 1.000000 0.256551 0.008790 1.000000 0.255737 0.009054 1.000000 0.255160 0.010036 1.000000 0.253704 0.011440 1.000000 0.252596 0.012863 1.000000 
0.268429 0.018915 1.000000 0.268270 0.021270 1.000000 0.264900 0.024170 1.000000 0.263330 0.026723 1.000000 0.259104 0.030216 1.000000 0.255953 0.032804 1.000000 0.250896 0.036663 1.000000 0.246067 0.039132 1.000000 0.240249 0.043132 1.000000 0.233721 0.045347 1.000000 0.227252 0.049282 1.000000 0.219080 0.051137 1.000000 0.212105 0.054833 1.000000 0.202413 0.056258 1.000000 0.195104 0.059582 1.000000 0.184073 0.060556 1.000000 0.176611 0.063433 1.000000 0.164460 0.063990 1.000000 0.157021 0.066408 1.000000 0.143989 0.066641 1.000000 0.136727 0.068659 1.000000 0.123043 0.068721 1.000000 0.116066 0.070471 1.000000 0.101927 0.070574 1.000000 0.095283 0.072260 1.000000 0.080826 0.072667 1.000000 0.074479 0.074554 1.000000 0.059756 0.075566 1.000000 0.053571 0.077966 1.000000 0.038526 0.079909 1.000000 0.032259 0.083159 1.000000 0.016716 0.086351 1.000000 0.010003 0.090779 1.000000 -0.006345 0.095503 1.000000 -0.013980 0.101388 1.000000 -0.031563 0.107845 1.000000 -0.040693 0.115372 1.000000 -0.060043 0.123634 1.000000 -0.071307 0.132834 1.000000 -0.093015 0.142792 1.000000 -0.107062 0.153491 1.000000 -0.131720 0.164806 1.000000 -0.149137 0.176572 1.000000 -0.177249 0.188634 1.000000 -0.198471 0.200744 1.000000 -0.230350 0.212659 1.000000 -0.255549 0.224091 1.000000 -0.291201 0.234694 1.000000 -0.320174 0.244159 1.000000 -0.359182 0.252081 1.000000 -0.391257 0.258113 1.000000 -0.432691 0.261904 1.000000 -0.466660 0.263000 1.000000 -0.509037 0.261306 1.000000 -0.543175 0.256128 1.000000 -0.584505 0.247903 1.000000 -0.616674 0.235501 1.000000 -0.654617 0.220214 1.000000 -0.682481 0.200214 1.000000 -0.714605 0.177987 1.000000 -0.735921 0.150689 1.000000 -0.760009 0.122316 1.000000 -0.772927 0.088653 1.000000 -0.787239 0.055476 1.000000 -0.790509 0.016831 1.000000 -0.793897 -0.019471 1.000000 -0.786913 -0.061488 1.000000 -0.778743 -0.099104 1.000000 -0.761418 -0.142811 1.000000 -0.741376 -0.179881 1.000000 -0.713961 -0.223509 1.000000 -0.681890 -0.258042 1.000000 -0.644921 -0.299539 1.000000 -0.600873 -0.329250 1.000000 -0.555389 -0.366051 1.000000 -0.499996 -0.388362 1.000000 -0.447956 -0.417425 1.000000 -0.382960 -0.429882 1.000000 -0.327493 -0.448182 1.000000 -0.256040 -0.449223 1.000000 -0.201059 -0.454554 1.000000 -0.127424 -0.444084 1.000000 -0.076557 -0.435592 1.000000 -0.005517 -0.414683 1.000000 0.038799 -0.392726 1.000000 0.102229 -0.362650 1.000000 0.138196 -0.328620 1.000000 0.188525 -0.291070 1.000000 0.212957 -0.248892 1.000000 0.245909 -0.209262 1.000000 0.254174 -0.167689 1.000000 0.272415 -0.137637 1.000000 0.264690 -0.106812 1.000000 0.277244 -0.095614 1.000000 0.270083 -0.073867 1.000000 0.278900 -0.062086 1.000000 0.272290 -0.048910 1.000000 0.281551 -0.042874 1.000000 0.276694 -0.025169 1.000000 0.283929 -0.022265 1.000000 0.282988 -0.000902 1.000000 0.286266 0.003852 1.000000 0.288535 0.026774 1.000000 0.286534 0.036736 1.000000 0.285954 0.057645 1.000000 0.274482 0.064205 1.000000 0.272860 0.069851 1.000000 0.263528 0.069392 1.000000 0.263704 0.065708 1.000000 0.258244 0.062271 1.000000 0.259433 0.054990 1.000000 0.256917 0.051008 1.000000 0.258306 0.043033 1.000000 0.257842 0.039494 1.000000 0.259066 0.032164 1.000000 0.260038 0.029440 1.000000 0.260963 0.023364 1.000000 0.262904 0.021577 1.000000 0.263460 0.016999 1.000000 0.265959 0.016155 1.000000 0.266076 0.013128 1.000000 0.268746 0.013166 1.000000 0.268338 0.011634 1.000000 0.270805 0.012455 1.000000 0.269776 0.012298 1.000000 0.271683 0.013778 1.000000 0.269942 0.014836 1.000000 0.270959 0.016831 1.000000 