# vtk DataFile Version 2.0
Comment goes here
ASCII

DATASET STRUCTURED_POINTS
DIMENSIONS    128   128   1

ORIGIN    0.000   0.000   0.000
SPACING   0.0156250.015625   1.000

POINT_DATA   16384
VECTORS u double

-0.122528 0.000041 1.000000 -0.134764 0.000035 1.000000 -0.139293 0.000043 1.000000 -0.149515 0.000037 1.000000 -0.152593 0.000046 1.000000 -0.160741 0.000039 1.000000 -0.162385 0.000048 1.000000 -0.168432 0.000041 1.000000 -0.168694 0.000049 1.000000 -0.172653 0.000042 1.000000 -0.171618 0.000051 1.000000 -0.173546 0.000043 1.000000 -0.171340 0.000052 1.000000 -0.171339 0.000044 1.000000 -0.168119 0.000053 1.000000 -0.166339 0.000045 1.000000 -0.162297 0.000053 1.000000 -0.158936 0.000045 1.000000 -0.154295 0.000053 1.000000 -0.149592 0.000045 1.000000 -0.144603 0.000053 1.000000 -0.138840 0.000046 1.000000 -0.133774 0.000052 1.000000 -0.127270 0.000046 1.000000 -0.122418 0.000052 1.000000 -0.115525 0.000046 1.000000 -0.111193 0.000052 1.000000 -0.104286 0.000047 1.000000 -0.100790 0.000052 1.000000 -0.094266 0.000048 1.000000 -0.091927 0.000052 1.000000 -0.086194 0.000050 1.000000 -0.085332 0.000054 1.000000 -0.080796 0.000052 1.000000 -0.081716 0.000055 1.000000 -0.078770 0.000055 1.000000 -0.081749 0.000058 1.000000 -0.080748 0.000059 1.000000 -0.086018 0.000061 1.000000 -0.087257 0.000063 1.000000 -0.094975 0.000065 1.000000 -0.098656 0.000068 1.000000 -0.108873 0.000068 1.000000 -0.115074 0.000073 1.000000 -0.127706 0.000072 1.000000 -0.136343 0.000078 1.000000 -0.151138 0.000076 1.000000 -0.161937 0.000082 1.000000 -0.178448 0.000079 1.000000 -0.190926 0.000085 1.000000 -0.208508 0.000080 1.000000 -0.221969 0.000086 1.000000 -0.239783 0.000079 1.000000 -0.253344 0.000084 1.000000 -0.270400 0.000075 1.000000 -0.283034 0.000080 1.000000 -0.298253 0.000068 1.000000 -0.308862 0.000071 1.000000 -0.321158 0.000057 1.000000 -0.328657 0.000058 1.000000 -0.337026 0.000041 1.000000 -0.340427 0.000040 1.000000 -0.344029 0.000020 1.000000 -0.342509 0.000017 1.000000 -0.340725 -0.000006 1.000000 -0.333680 -0.000011 1.000000 -0.326155 -0.000037 1.000000 -0.313227 -0.000044 1.000000 -0.299897 -0.000071 1.000000 -0.281011 -0.000080 1.000000 -0.262135 -0.000108 1.000000 -0.237547 -0.000117 1.000000 -0.213758 -0.000146 1.000000 -0.184125 -0.000153 1.000000 -0.156496 -0.000180 1.000000 -0.122957 -0.000185 1.000000 -0.093048 -0.000208 1.000000 -0.057265 -0.000209 1.000000 -0.027087 -0.000227 1.000000 0.008822 -0.000222 1.000000 0.036993 -0.000233 1.000000 0.070694 -0.000223 1.000000 0.094683 -0.000226 1.000000 0.124025 -0.000209 1.000000 0.142242 -0.000205 1.000000 0.165723 -0.000184 1.000000 0.177599 -0.000174 1.000000 0.194715 -0.000151 1.000000 0.200902 -0.000138 1.000000 0.212236 -0.000114 1.000000 0.214428 -0.000100 1.000000 0.221368 -0.000080 1.000000 0.221709 -0.000067 1.000000 0.225788 -0.000051 1.000000 0.226026 -0.000041 1.000000 0.228197 -0.000030 1.000000 0.229134 -0.000022 1.000000 0.229512 -0.000016 1.000000 0.230997 -0.000010 1.000000 0.229004 -0.000007 1.000000 0.230191 -0.000003 1.000000 0.224970 -0.000002 1.000000 0.224679 0.000001 1.000000 0.215518 0.000001 1.000000 0.212713 0.000004 1.000000 0.199446 0.000003 1.000000 0.193758 0.000007 1.000000 0.176963 0.000006 1.000000 0.168715 0.000009 1.000000 0.149357 0.000008 1.000000 0.139204 0.000012 1.000000 0.118275 0.000011 1.000000 0.106924 0.000016 1.000000 0.085278 0.000014 1.000000 0.073371 0.000019 1.000000 0.051691 0.000017 1.000000 0.039763 0.000022 1.000000 0.018582 0.000019 1.000000 0.007060 0.000025 1.000000 -0.013217 0.000022 1.000000 -0.024003 0.000029 1.000000 -0.043064 0.000025 1.000000 -0.052867 0.000032 1.000000 -0.070471 0.000028 1.000000 -0.079109 0.000035 1.000000 -0.095066 0.000030 1.000000 -0.102409 0.000038 1.000000 -0.116567 0.000033 1.000000 
-0.110388 0.009135 1.000000 -0.121718 0.008412 1.000000 -0.126638 0.007414 1.000000 -0.136162 0.006682 1.000000 -0.139584 0.005653 1.000000 -0.147251 0.004929 1.000000 -0.149186 0.003888 1.000000 -0.154980 0.003189 1.000000 -0.155474 0.002154 1.000000 -0.159412 0.001498 1.000000 -0.158550 0.000492 1.000000 -0.160686 -0.000102 1.000000 -0.158591 -0.001058 1.000000 -0.159022 -0.001573 1.000000 -0.155851 -0.002453 1.000000 -0.154718 -0.002872 1.000000 -0.150666 -0.003655 1.000000 -0.148149 -0.003962 1.000000 -0.143441 -0.004625 1.000000 -0.139765 -0.004808 1.000000 -0.134655 -0.005330 1.000000 -0.130081 -0.005376 1.000000 -0.124845 -0.005739 1.000000 -0.119669 -0.005639 1.000000 -0.114605 -0.005827 1.000000 -0.109155 -0.005573 1.000000 -0.104573 -0.005574 1.000000 -0.099203 -0.005161 1.000000 -0.095427 -0.004964 1.000000 -0.090509 -0.004389 1.000000 -0.087865 -0.003989 1.000000 -0.083785 -0.003254 1.000000 -0.082598 -0.002651 1.000000 -0.079742 -0.001761 1.000000 -0.080325 -0.000963 1.000000 -0.079064 0.000067 1.000000 -0.081699 0.001043 1.000000 -0.082370 0.002189 1.000000 -0.087294 0.003311 1.000000 -0.090174 0.004537 1.000000 -0.097547 0.005760 1.000000 -0.102822 0.007014 1.000000 -0.112699 0.008274 1.000000 -0.120430 0.009486 1.000000 -0.132730 0.010704 1.000000 -0.142817 0.011791 1.000000 -0.157287 0.012870 1.000000 -0.169441 0.013735 1.000000 -0.185635 0.014571 1.000000 -0.199358 0.015113 1.000000 -0.216628 0.015600 1.000000 -0.231210 0.015722 1.000000 -0.248718 0.015765 1.000000 -0.263265 0.015392 1.000000 -0.280019 0.014920 1.000000 -0.293498 0.014006 1.000000 -0.308420 0.012982 1.000000 -0.319736 0.011523 1.000000 -0.331745 0.009955 1.000000 -0.339825 0.007992 1.000000 -0.347926 0.005926 1.000000 -0.351804 0.003542 1.000000 -0.355174 0.001062 1.000000 -0.354056 -0.001634 1.000000 -0.352093 -0.004420 1.000000 -0.345400 -0.007295 1.000000 -0.337764 -0.010262 1.000000 -0.325156 -0.013171 1.000000 -0.311782 -0.016178 1.000000 -0.293176 -0.018959 1.000000 -0.274307 -0.021839 1.000000 -0.249924 -0.024304 1.000000 -0.226152 -0.026855 1.000000 -0.196595 -0.028782 1.000000 -0.168938 -0.030762 1.000000 -0.135286 -0.031907 1.000000 -0.105245 -0.033052 1.000000 -0.069122 -0.033188 1.000000 -0.038662 -0.033269 1.000000 -0.002200 -0.032261 1.000000 0.026425 -0.031167 1.000000 0.060818 -0.029066 1.000000 0.085422 -0.026890 1.000000 0.115475 -0.023987 1.000000 0.134413 -0.021052 1.000000 0.158509 -0.017861 1.000000 0.171104 -0.014669 1.000000 0.188688 -0.011800 1.000000 0.195431 -0.008896 1.000000 0.207134 -0.006876 1.000000 0.209570 -0.004665 1.000000 0.216892 -0.003719 1.000000 0.217128 -0.002276 1.000000 0.221699 -0.002209 1.000000 0.221580 -0.001245 1.000000 0.224446 -0.001583 1.000000 0.224925 -0.000679 1.000000 0.226226 -0.000947 1.000000 0.227247 0.000245 1.000000 0.226415 0.000396 1.000000 0.227159 0.002014 1.000000 0.223325 0.002754 1.000000 0.222588 0.004727 1.000000 0.214987 0.005984 1.000000 0.211697 0.008040 1.000000 0.200089 0.009480 1.000000 0.193882 0.011248 1.000000 0.178820 0.012526 1.000000 0.170044 0.013811 1.000000 0.152475 0.014762 1.000000 0.141793 0.015552 1.000000 0.122681 0.016149 1.000000 0.110800 0.016512 1.000000 0.090968 0.016788 1.000000 0.078528 0.016810 1.000000 0.058633 0.016818 1.000000 0.046169 0.016574 1.000000 0.026717 0.016368 1.000000 0.014661 0.015922 1.000000 -0.003966 0.015550 1.000000 -0.015280 0.014949 1.000000 -0.032795 0.014453 1.000000 -0.043113 0.013731 1.000000 -0.059298 0.013145 1.000000 -0.068432 0.012328 1.000000 -0.083120 0.011676 1.000000 -0.090932 0.010784 1.000000 -0.103993 0.010087 1.000000 
-0.124349 0.017766 1.000000 -0.136563 0.016285 1.000000 -0.141042 0.014487 1.000000 -0.151246 0.012982 1.000000 -0.154277 0.011135 1.000000 -0.162405 0.009641 1.000000 -0.164000 0.007776 1.000000 -0.170022 0.006329 1.000000 -0.170229 0.004481 1.000000 -0.174154 0.003118 1.000000 -0.173058 0.001325 1.000000 -0.174939 0.000084 1.000000 -0.172664 -0.001612 1.000000 -0.172602 -0.002695 1.000000 -0.169304 -0.004252 1.000000 -0.167449 -0.005141 1.000000 -0.163321 -0.006516 1.000000 -0.159868 -0.007179 1.000000 -0.155134 -0.008331 1.000000 -0.150323 -0.008741 1.000000 -0.145233 -0.009632 1.000000 -0.139347 -0.009764 1.000000 -0.134172 -0.010359 1.000000 -0.127530 -0.010194 1.000000 -0.122561 -0.010462 1.000000 -0.115514 -0.009985 1.000000 -0.111055 -0.009900 1.000000 -0.103980 -0.009100 1.000000 -0.100347 -0.008642 1.000000 -0.093640 -0.007514 1.000000 -0.091155 -0.006672 1.000000 -0.085225 -0.005217 1.000000 -0.084205 -0.003989 1.000000 -0.079462 -0.002222 1.000000 -0.080217 -0.000623 1.000000 -0.077057 0.001430 1.000000 -0.079868 0.003364 1.000000 -0.078653 0.005654 1.000000 -0.083759 0.007865 1.000000 -0.084794 0.010316 1.000000 -0.092361 0.012712 1.000000 -0.095861 0.015221 1.000000 -0.105953 0.017677 1.000000 -0.112008 0.020104 1.000000 -0.124556 0.022459 1.000000 -0.133097 0.024635 1.000000 -0.147858 0.026700 1.000000 -0.158624 0.028430 1.000000 -0.175164 0.029995 1.000000 -0.187679 0.031078 1.000000 -0.205354 0.031933 1.000000 -0.218924 0.032176 1.000000 -0.236893 0.032133 1.000000 -0.250627 0.031385 1.000000 -0.267887 0.030308 1.000000 -0.280745 0.028481 1.000000 -0.296199 0.026306 1.000000 -0.307067 0.023396 1.000000 -0.319611 0.020145 1.000000 -0.327388 0.016240 1.000000 -0.336004 0.012020 1.000000 -0.339693 0.007287 1.000000 -0.343534 0.002271 1.000000 -0.342309 -0.003064 1.000000 -0.340759 -0.008661 1.000000 -0.334019 -0.014340 1.000000 -0.326726 -0.020282 1.000000 -0.314111 -0.026026 1.000000 -0.301007 -0.032051 1.000000 -0.282430 -0.037555 1.000000 -0.263754 -0.043360 1.000000 -0.239435 -0.048271 1.000000 -0.215786 -0.053475 1.000000 -0.186332 -0.057367 1.000000 -0.158739 -0.061489 1.000000 -0.125239 -0.063878 1.000000 -0.095237 -0.066372 1.000000 -0.059332 -0.066792 1.000000 -0.028958 -0.067149 1.000000 0.007195 -0.065310 1.000000 0.035570 -0.063251 1.000000 0.069531 -0.059219 1.000000 0.093587 -0.054883 1.000000 0.123064 -0.049201 1.000000 0.141071 -0.043239 1.000000 0.164445 -0.036875 1.000000 0.175769 -0.030353 1.000000 0.192496 -0.024478 1.000000 0.197847 -0.018584 1.000000 0.208583 -0.014253 1.000000 0.209849 -0.009858 1.000000 0.216184 -0.007638 1.000000 0.215784 -0.004875 1.000000 0.219467 -0.004503 1.000000 0.219311 -0.002788 1.000000 0.221351 -0.003375 1.000000 0.222215 -0.001803 1.000000 0.222681 -0.002338 1.000000 0.224356 -0.000199 1.000000 0.222561 0.000081 1.000000 0.224147 0.003087 1.000000 0.219162 0.004568 1.000000 0.219372 0.008339 1.000000 0.210402 0.010892 1.000000 0.208021 0.014902 1.000000 0.194830 0.017818 1.000000 0.189443 0.021276 1.000000 0.172696 0.023844 1.000000 0.164691 0.026354 1.000000 0.145419 0.028259 1.000000 0.135484 0.029806 1.000000 0.114678 0.031004 1.000000 0.103524 0.031728 1.000000 0.082016 0.032286 1.000000 0.070282 0.032355 1.000000 0.048739 0.032375 1.000000 0.036961 0.031938 1.000000 0.015904 0.031528 1.000000 0.004510 0.030709 1.000000 -0.015660 0.029963 1.000000 -0.026337 0.028857 1.000000 -0.045312 0.027858 1.000000 -0.055024 0.026535 1.000000 -0.072563 0.025346 1.000000 -0.081126 0.023857 1.000000 -0.097036 0.022530 1.000000 -0.104316 0.020910 1.000000 -0.118441 0.019488 1.000000 
-0.113871 0.027256 1.000000 -0.125140 0.025105 1.000000 -0.129969 0.022098 1.000000 -0.139444 0.019916 1.000000 -0.142776 0.016812 1.000000 -0.150398 0.014652 1.000000 -0.152236 0.011504 1.000000 -0.157978 0.009418 1.000000 -0.158366 0.006286 1.000000 -0.162237 0.004328 1.000000 -0.161254 0.001277 1.000000 -0.163303 -0.000497 1.000000 -0.161069 -0.003395 1.000000 -0.161390 -0.004932 1.000000 -0.158063 -0.007607 1.000000 -0.156792 -0.008855 1.000000 -0.152566 -0.011236 1.000000 -0.149885 -0.012150 1.000000 -0.144986 -0.014170 1.000000 -0.141117 -0.014709 1.000000 -0.135800 -0.016306 1.000000 -0.131003 -0.016436 1.000000 -0.125545 -0.017556 1.000000 -0.120117 -0.017250 1.000000 -0.114813 -0.017843 1.000000 -0.109082 -0.017079 1.000000 -0.104243 -0.017108 1.000000 -0.098560 -0.015869 1.000000 -0.094506 -0.015303 1.000000 -0.089246 -0.013582 1.000000 -0.086304 -0.012404 1.000000 -0.081853 -0.010203 1.000000 -0.080349 -0.008413 1.000000 -0.077098 -0.005750 1.000000 -0.077349 -0.003369 1.000000 -0.075679 -0.000282 1.000000 -0.077976 0.002639 1.000000 -0.078238 0.006080 1.000000 -0.082832 0.009452 1.000000 -0.085321 0.013139 1.000000 -0.092392 0.016827 1.000000 -0.097319 0.020606 1.000000 -0.106947 0.024422 1.000000 -0.114401 0.028089 1.000000 -0.126529 0.031793 1.000000 -0.136439 0.035094 1.000000 -0.150841 0.038398 1.000000 -0.162941 0.041041 1.000000 -0.179190 0.043626 1.000000 -0.192995 0.045302 1.000000 -0.210449 0.046845 1.000000 -0.225253 0.047261 1.000000 -0.243064 0.047468 1.000000 -0.257955 0.046386 1.000000 -0.275107 0.045038 1.000000 -0.289024 0.042318 1.000000 -0.304401 0.039304 1.000000 -0.316213 0.034935 1.000000 -0.328697 0.030276 1.000000 -0.337300 0.024386 1.000000 -0.345870 0.018231 1.000000 -0.350283 0.011071 1.000000 -0.354103 0.003679 1.000000 -0.353537 -0.004408 1.000000 -0.352019 -0.012710 1.000000 -0.345911 -0.021328 1.000000 -0.338728 -0.030169 1.000000 -0.326746 -0.038890 1.000000 -0.313835 -0.047859 1.000000 -0.295874 -0.056212 1.000000 -0.277441 -0.064833 1.000000 -0.253652 -0.072272 1.000000 -0.230215 -0.079958 1.000000 -0.201083 -0.085829 1.000000 -0.173566 -0.091856 1.000000 -0.140045 -0.095409 1.000000 -0.109885 -0.098959 1.000000 -0.073534 -0.099466 1.000000 -0.042734 -0.099795 1.000000 -0.005745 -0.096789 1.000000 0.023265 -0.093503 1.000000 0.058260 -0.087083 1.000000 0.083019 -0.080423 1.000000 0.113427 -0.071471 1.000000 0.132033 -0.062433 1.000000 0.155950 -0.052558 1.000000 0.167600 -0.042720 1.000000 0.184368 -0.033878 1.000000 0.189612 -0.024983 1.000000 0.200040 -0.018878 1.000000 0.200697 -0.012266 1.000000 0.206744 -0.009654 1.000000 0.205436 -0.005559 1.000000 0.209145 -0.005736 1.000000 0.208092 -0.003129 1.000000 0.210665 -0.004487 1.000000 0.210890 -0.002008 1.000000 0.212329 -0.003087 1.000000 0.213673 0.000365 1.000000 0.213217 0.000605 1.000000 0.214745 0.005413 1.000000 0.211408 0.007529 1.000000 0.211692 0.013487 1.000000 0.204541 0.017334 1.000000 0.202105 0.023612 1.000000 0.190693 0.028058 1.000000 0.185094 0.033381 1.000000 0.170178 0.037279 1.000000 0.161904 0.041088 1.000000 0.144555 0.043969 1.000000 0.134325 0.046293 1.000000 0.115497 0.048109 1.000000 0.104017 0.049174 1.000000 0.084492 0.050030 1.000000 0.072398 0.050087 1.000000 0.052802 0.050139 1.000000 0.040634 0.049410 1.000000 0.021455 0.048818 1.000000 0.009650 0.047486 1.000000 -0.008741 0.046398 1.000000 -0.019844 0.044601 1.000000 -0.037165 0.043140 1.000000 -0.047308 0.040982 1.000000 -0.063341 0.039246 1.000000 -0.072332 0.036801 1.000000 -0.086906 0.034867 1.000000 -0.094599 0.032190 1.000000 -0.107577 0.030120 1.000000 
-0.129757 0.035329 1.000000 -0.141910 0.032383 1.000000 -0.146246 0.028791 1.000000 -0.156402 0.025789 1.000000 -0.159292 0.022089 1.000000 -0.167370 0.019102 1.000000 -0.168817 0.015357 1.000000 -0.174771 0.012459 1.000000 -0.174815 0.008740 1.000000 -0.178643 0.006006 1.000000 -0.177364 0.002392 1.000000 -0.179110 -0.000101 1.000000 -0.176628 -0.003526 1.000000 -0.176387 -0.005701 1.000000 -0.172859 -0.008850 1.000000 -0.170778 -0.010638 1.000000 -0.166395 -0.013423 1.000000 -0.162669 -0.014759 1.000000 -0.157658 -0.017099 1.000000 -0.152528 -0.017928 1.000000 -0.147137 -0.019745 1.000000 -0.140886 -0.020019 1.000000 -0.135389 -0.021245 1.000000 -0.128337 -0.020926 1.000000 -0.123021 -0.021497 1.000000 -0.115519 -0.020556 1.000000 -0.110688 -0.020422 1.000000 -0.103111 -0.018837 1.000000 -0.099077 -0.017956 1.000000 -0.091824 -0.015716 1.000000 -0.088905 -0.014064 1.000000 -0.082387 -0.011172 1.000000 -0.080903 -0.008744 1.000000 -0.075537 -0.005222 1.000000 -0.075802 -0.002043 1.000000 -0.071996 0.002057 1.000000 -0.074305 0.005923 1.000000 -0.072442 0.010509 1.000000 -0.077053 0.014948 1.000000 -0.077466 0.019876 1.000000 -0.084574 0.024711 1.000000 -0.087515 0.029776 1.000000 -0.097222 0.034759 1.000000 -0.102823 0.039686 1.000000 -0.115100 0.044497 1.000000 -0.123335 0.048947 1.000000 -0.137980 0.053202 1.000000 -0.148626 0.056779 1.000000 -0.165234 0.060050 1.000000 -0.177840 0.062338 1.000000 -0.195779 0.064190 1.000000 -0.209656 0.064791 1.000000 -0.228073 0.064835 1.000000 -0.242310 0.063428 1.000000 -0.260166 0.061377 1.000000 -0.273679 0.057775 1.000000 -0.289821 0.053495 1.000000 -0.301442 0.047691 1.000000 -0.314706 0.041232 1.000000 -0.323286 0.033412 1.000000 -0.332610 0.025003 1.000000 -0.337122 0.015521 1.000000 -0.341643 0.005526 1.000000 -0.341264 -0.005148 1.000000 -0.340377 -0.016287 1.000000 -0.334518 -0.027631 1.000000 -0.327893 -0.039447 1.000000 -0.316204 -0.050919 1.000000 -0.303771 -0.062923 1.000000 -0.286132 -0.073949 1.000000 -0.268082 -0.085583 1.000000 -0.244618 -0.095498 1.000000 -0.221438 -0.106043 1.000000 -0.192598 -0.114017 1.000000 -0.165178 -0.122528 1.000000 -0.131879 -0.127559 1.000000 -0.101657 -0.132883 1.000000 -0.065452 -0.133943 1.000000 -0.034519 -0.134938 1.000000 0.002337 -0.131309 1.000000 0.031331 -0.127256 1.000000 0.066071 -0.118973 1.000000 0.090343 -0.110050 1.000000 0.120227 -0.098214 1.000000 0.137589 -0.085761 1.000000 0.160630 -0.072442 1.000000 0.170239 -0.058771 1.000000 0.185770 -0.046490 1.000000 0.188509 -0.034256 1.000000 0.197382 -0.025339 1.000000 0.195747 -0.016563 1.000000 0.200195 -0.012377 1.000000 0.197542 -0.007275 1.000000 0.200063 -0.007159 1.000000 0.198778 -0.004309 1.000000 0.200448 -0.006173 1.000000 0.201084 -0.003466 1.000000 0.201810 -0.005120 1.000000 0.203982 -0.001087 1.000000 0.202717 -0.000991 1.000000 0.205464 0.004897 1.000000 0.201149 0.007622 1.000000 0.202957 0.015206 1.000000 0.194607 0.020478 1.000000 0.193591 0.028750 1.000000 0.180633 0.034829 1.000000 0.176212 0.041791 1.000000 0.159672 0.047035 1.000000 0.152467 0.051977 1.000000 0.133533 0.055838 1.000000 0.124304 0.058864 1.000000 0.103922 0.061312 1.000000 0.093380 0.062733 1.000000 0.072316 0.063905 1.000000 0.061105 0.064045 1.000000 0.039985 0.064139 1.000000 0.028654 0.063285 1.000000 0.007974 0.062512 1.000000 -0.003039 0.060905 1.000000 -0.022891 0.059457 1.000000 -0.033246 0.057281 1.000000 -0.051968 0.055322 1.000000 -0.061411 0.052712 1.000000 -0.078760 0.050370 1.000000 -0.087101 0.047421 1.000000 -0.102876 0.044798 1.000000 -0.109973 0.041581 1.000000 -0.124007 0.038760 1.000000 
-0.120722 0.045158 1.000000 -0.131881 0.041593 1.000000 -0.136535 0.036590 1.000000 -0.145925 0.032963 1.000000 -0.149083 0.027780 1.000000 -0.156624 0.024177 1.000000 -0.158277 0.018905 1.000000 -0.163924 0.015416 1.000000 -0.164103 0.010158 1.000000 -0.167850 0.006877 1.000000 -0.166628 0.001745 1.000000 -0.168512 -0.001233 1.000000 -0.166004 -0.006118 1.000000 -0.166110 -0.008701 1.000000 -0.162475 -0.013216 1.000000 -0.160936 -0.015318 1.000000 -0.156368 -0.019344 1.000000 -0.153362 -0.020888 1.000000 -0.148089 -0.024311 1.000000 -0.143839 -0.025229 1.000000 -0.138117 -0.027947 1.000000 -0.132883 -0.028185 1.000000 -0.126990 -0.030105 1.000000 -0.121066 -0.029617 1.000000 -0.115296 -0.030662 1.000000 -0.109009 -0.029412 1.000000 -0.103668 -0.029515 1.000000 -0.097369 -0.027480 1.000000 -0.092774 -0.026590 1.000000 -0.086836 -0.023754 1.000000 -0.083311 -0.021841 1.000000 -0.078124 -0.018205 1.000000 -0.075995 -0.015263 1.000000 -0.071957 -0.010851 1.000000 -0.071548 -0.006909 1.000000 -0.069056 -0.001779 1.000000 -0.070675 0.003085 1.000000 -0.070107 0.008828 1.000000 -0.074031 0.014476 1.000000 -0.075721 0.020661 1.000000 -0.082169 0.026875 1.000000 -0.086375 0.033254 1.000000 -0.095477 0.039730 1.000000 -0.102346 0.045966 1.000000 -0.114100 0.052304 1.000000 -0.123617 0.057974 1.000000 -0.137849 0.063689 1.000000 -0.149801 0.068295 1.000000 -0.166125 0.072840 1.000000 -0.180059 0.075848 1.000000 -0.197849 0.078661 1.000000 -0.213061 0.079555 1.000000 -0.231452 0.080121 1.000000 -0.247000 0.078478 1.000000 -0.264921 0.076407 1.000000 -0.279680 0.071973 1.000000 -0.295936 0.067067 1.000000 -0.308696 0.059821 1.000000 -0.322085 0.052119 1.000000 -0.331673 0.042289 1.000000 -0.341113 0.032067 1.000000 -0.346519 0.020105 1.000000 -0.351162 0.007820 1.000000 -0.351615 -0.005674 1.000000 -0.350906 -0.019456 1.000000 -0.345897 -0.033813 1.000000 -0.339562 -0.048483 1.000000 -0.328801 -0.063011 1.000000 -0.316804 -0.077931 1.000000 -0.300166 -0.091902 1.000000 -0.282659 -0.106348 1.000000 -0.260165 -0.118916 1.000000 -0.237513 -0.131978 1.000000 -0.209402 -0.142089 1.000000 -0.182309 -0.152575 1.000000 -0.149239 -0.158930 1.000000 -0.118969 -0.165386 1.000000 -0.082300 -0.166605 1.000000 -0.050886 -0.167584 1.000000 -0.012889 -0.162639 1.000000 0.016887 -0.157237 1.000000 0.053128 -0.146094 1.000000 0.078202 -0.134579 1.000000 0.109384 -0.118716 1.000000 0.127284 -0.102837 1.000000 0.150855 -0.085208 1.000000 0.160552 -0.067860 1.000000 0.175600 -0.052149 1.000000 0.177763 -0.036595 1.000000 0.185457 -0.026116 1.000000 0.182370 -0.015079 1.000000 0.185779 -0.011449 1.000000 0.181275 -0.005427 1.000000 0.183268 -0.006972 1.000000 0.180332 -0.003515 1.000000 0.182400 -0.006794 1.000000 0.182062 -0.003370 1.000000 0.183740 -0.005986 1.000000 0.185576 -0.000542 1.000000 0.185700 -0.000877 1.000000 0.188730 0.006981 1.000000 0.186288 0.010037 1.000000 0.188822 0.020029 1.000000 0.182719 0.026700 1.000000 0.182171 0.037587 1.000000 0.171178 0.045437 1.000000 0.166939 0.054342 1.000000 0.152460 0.061023 1.000000 0.145354 0.067227 1.000000 0.128611 0.072133 1.000000 0.119389 0.075904 1.000000 0.101235 0.079033 1.000000 0.090595 0.080779 1.000000 0.071733 0.082305 1.000000 0.060336 0.082418 1.000000 0.041357 0.082591 1.000000 0.029774 0.081421 1.000000 0.011146 0.080511 1.000000 -0.000167 0.078350 1.000000 -0.018088 0.076605 1.000000 -0.028781 0.073678 1.000000 -0.045718 0.071305 1.000000 -0.055524 0.067774 1.000000 -0.071260 0.064935 1.000000 -0.079975 0.060918 1.000000 -0.094331 0.057739 1.000000 -0.101798 0.053321 1.000000 -0.114620 0.049904 1.000000 
-0.138580 0.052590 1.000000 -0.150650 0.048196 1.000000 -0.154763 0.042834 1.000000 -0.164857 0.038337 1.000000 -0.167527 0.032788 1.000000 -0.175537 0.028296 1.000000 -0.176750 0.022657 1.000000 -0.182604 0.018285 1.000000 -0.182388 0.012665 1.000000 -0.186065 0.008530 1.000000 -0.184490 0.003054 1.000000 -0.186021 -0.000724 1.000000 -0.183202 -0.005927 1.000000 -0.182673 -0.009231 1.000000 -0.178766 -0.014024 1.000000 -0.176318 -0.016745 1.000000 -0.171519 -0.020997 1.000000 -0.167349 -0.023038 1.000000 -0.161884 -0.026622 1.000000 -0.156233 -0.027900 1.000000 -0.150355 -0.030701 1.000000 -0.143508 -0.031147 1.000000 -0.137490 -0.033061 1.000000 -0.129768 -0.032620 1.000000 -0.123896 -0.033555 1.000000 -0.115648 -0.032184 1.000000 -0.110218 -0.032062 1.000000 -0.101822 -0.029730 1.000000 -0.097140 -0.028489 1.000000 -0.088991 -0.025179 1.000000 -0.085369 -0.022777 1.000000 -0.077882 -0.018488 1.000000 -0.075639 -0.014911 1.000000 -0.069239 -0.009669 1.000000 -0.068694 -0.004944 1.000000 -0.063809 0.001184 1.000000 -0.065275 0.006974 1.000000 -0.062317 0.013865 1.000000 -0.066084 0.020562 1.000000 -0.065433 0.028014 1.000000 -0.071745 0.035366 1.000000 -0.073711 0.043084 1.000000 -0.082732 0.050729 1.000000 -0.087521 0.058309 1.000000 -0.099291 0.065769 1.000000 -0.106953 0.072696 1.000000 -0.121343 0.079385 1.000000 -0.131722 0.085055 1.000000 -0.148382 0.090308 1.000000 -0.161076 0.094062 1.000000 -0.179401 0.097193 1.000000 -0.193731 0.098394 1.000000 -0.212849 0.098774 1.000000 -0.227869 0.096897 1.000000 -0.246674 0.094057 1.000000 -0.261224 0.088791 1.000000 -0.278458 0.082511 1.000000 -0.291268 0.073840 1.000000 -0.305656 0.064210 1.000000 -0.315482 0.052440 1.000000 -0.325881 0.039848 1.000000 -0.331650 0.025570 1.000000 -0.337176 0.010623 1.000000 -0.338076 -0.005404 1.000000 -0.338167 -0.022006 1.000000 -0.333667 -0.038974 1.000000 -0.328060 -0.056542 1.000000 -0.317863 -0.073677 1.000000 -0.306527 -0.091558 1.000000 -0.290495 -0.108094 1.000000 -0.273564 -0.125584 1.000000 -0.251684 -0.140644 1.000000 -0.229465 -0.156806 1.000000 -0.201906 -0.169221 1.000000 -0.175009 -0.182690 1.000000 -0.142337 -0.190899 1.000000 -0.111954 -0.199822 1.000000 -0.075477 -0.202026 1.000000 -0.043705 -0.204349 1.000000 -0.005775 -0.199082 1.000000 0.024284 -0.193273 1.000000 0.060335 -0.180287 1.000000 0.085022 -0.166305 1.000000 0.115603 -0.147297 1.000000 0.131828 -0.127232 1.000000 0.154282 -0.105709 1.000000 0.160816 -0.083517 1.000000 0.174284 -0.063701 1.000000 0.172338 -0.044112 1.000000 0.177890 -0.029946 1.000000 0.170996 -0.016885 1.000000 0.172085 -0.011282 1.000000 0.165643 -0.004764 1.000000 0.166443 -0.006215 1.000000 0.163587 -0.003441 1.000000 0.164694 -0.007904 1.000000 0.164852 -0.004806 1.000000 0.166000 -0.008635 1.000000 0.168607 -0.003047 1.000000 0.167866 -0.004145 1.000000 0.172293 0.004308 1.000000 0.168818 0.007530 1.000000 0.173631 0.018775 1.000000 0.166537 0.027129 1.000000 0.168179 0.040292 1.000000 0.155689 0.050062 1.000000 0.153177 0.060509 1.000000 0.137297 0.068619 1.000000 0.131718 0.075826 1.000000 0.113644 0.081803 1.000000 0.105748 0.086240 1.000000 0.086237 0.090106 1.000000 0.076760 0.092234 1.000000 0.056505 0.094163 1.000000 0.046163 0.094420 1.000000 0.025770 0.094701 1.000000 0.015167 0.093497 1.000000 -0.004880 0.092454 1.000000 -0.015275 0.090138 1.000000 -0.034601 0.088070 1.000000 -0.044438 0.084911 1.000000 -0.062747 0.082065 1.000000 -0.071761 0.078254 1.000000 -0.088807 0.074821 1.000000 -0.096796 0.070492 1.000000 -0.112367 0.066621 1.000000 -0.119173 0.061871 1.000000 -0.133077 0.057684 1.000000 
-0.130704 0.062731 1.000000 -0.141727 0.057776 1.000000 -0.146141 0.050797 1.000000 -0.155429 0.045727 1.000000 -0.158348 0.038459 1.000000 -0.165792 0.033399 1.000000 -0.167184 0.025973 1.000000 -0.172710 0.021054 1.000000 -0.172591 0.013619 1.000000 -0.176169 0.008979 1.000000 -0.174600 0.001701 1.000000 -0.176253 -0.002522 1.000000 -0.173346 -0.009466 1.000000 -0.173145 -0.013137 1.000000 -0.169057 -0.019570 1.000000 -0.167131 -0.022565 1.000000 -0.162060 -0.028314 1.000000 -0.158585 -0.030523 1.000000 -0.152765 -0.035427 1.000000 -0.147962 -0.036758 1.000000 -0.141651 -0.040672 1.000000 -0.135782 -0.041050 1.000000 -0.129260 -0.043846 1.000000 -0.122617 -0.043212 1.000000 -0.116174 -0.044781 1.000000 -0.109081 -0.043089 1.000000 -0.103018 -0.043342 1.000000 -0.095822 -0.040558 1.000000 -0.090446 -0.039421 1.000000 -0.083516 -0.035524 1.000000 -0.079143 -0.032950 1.000000 -0.072870 -0.027935 1.000000 -0.069824 -0.023906 1.000000 -0.064614 -0.017796 1.000000 -0.063225 -0.012340 1.000000 -0.059495 -0.005199 1.000000 -0.060090 0.001594 1.000000 -0.058255 0.009637 1.000000 -0.061149 0.017592 1.000000 -0.061597 0.026321 1.000000 -0.067065 0.035154 1.000000 -0.070127 0.044241 1.000000 -0.078373 0.053540 1.000000 -0.084283 0.062526 1.000000 -0.095392 0.071736 1.000000 -0.104229 0.080025 1.000000 -0.118115 0.088458 1.000000 -0.129748 0.095334 1.000000 -0.146094 0.102194 1.000000 -0.160130 0.106866 1.000000 -0.178342 0.111316 1.000000 -0.194087 0.113003 1.000000 -0.213278 0.114260 1.000000 -0.229739 0.112303 1.000000 -0.248750 0.109762 1.000000 -0.264696 0.103758 1.000000 -0.282194 0.097111 1.000000 -0.296273 0.087018 1.000000 -0.310906 0.076334 1.000000 -0.321824 0.062514 1.000000 -0.332404 0.048235 1.000000 -0.339101 0.031400 1.000000 -0.344767 0.014246 1.000000 -0.346524 -0.004683 1.000000 -0.346808 -0.023865 1.000000 -0.343246 -0.043919 1.000000 -0.338015 -0.064287 1.000000 -0.328983 -0.084545 1.000000 -0.318304 -0.105299 1.000000 -0.303712 -0.124864 1.000000 -0.287709 -0.145159 1.000000 -0.267423 -0.163016 1.000000 -0.246233 -0.181756 1.000000 -0.220100 -0.196546 1.000000 -0.194027 -0.212143 1.000000 -0.162149 -0.221984 1.000000 -0.132059 -0.232246 1.000000 -0.095317 -0.234854 1.000000 -0.063165 -0.237286 1.000000 -0.023797 -0.230628 1.000000 0.007112 -0.223347 1.000000 0.045336 -0.206833 1.000000 0.070860 -0.189847 1.000000 0.103369 -0.165522 1.000000 0.120021 -0.141516 1.000000 0.143076 -0.114196 1.000000 0.149628 -0.087862 1.000000 0.161861 -0.063671 1.000000 0.159329 -0.040201 1.000000 0.162413 -0.024775 1.000000 0.153277 -0.009273 1.000000 0.152752 -0.006095 1.000000 0.143369 0.000215 1.000000 0.142909 -0.004916 1.000000 0.137199 -0.001765 1.000000 0.138816 -0.008058 1.000000 0.137446 -0.004677 1.000000 0.139301 -0.009741 1.000000 0.141230 -0.002407 1.000000 0.141502 -0.004563 1.000000 0.146322 0.006029 1.000000 0.144618 0.008698 1.000000 0.151085 0.022309 1.000000 0.147126 0.032153 1.000000 0.150022 0.048435 1.000000 0.139827 0.060439 1.000000 0.138229 0.072734 1.000000 0.125018 0.082482 1.000000 0.120171 0.090881 1.000000 0.104793 0.098103 1.000000 0.097290 0.103311 1.000000 0.080348 0.108021 1.000000 0.070995 0.110512 1.000000 0.053198 0.112902 1.000000 0.042816 0.113154 1.000000 0.024783 0.113586 1.000000 0.014041 0.112071 1.000000 -0.003760 0.110953 1.000000 -0.014365 0.108071 1.000000 -0.031588 0.105768 1.000000 -0.041692 0.101824 1.000000 -0.058072 0.098628 1.000000 -0.067397 0.093835 1.000000 -0.082712 0.089971 1.000000 -0.091039 0.084477 1.000000 -0.105094 0.080116 1.000000 -0.112248 0.074031 1.000000 -0.124867 0.069311 1.000000 