# vtk DataFile Version 2.0
Comment goes here
ASCII

DATASET STRUCTURED_POINTS
DIMENSIONS    128   128   1

ORIGIN    0.000   0.000   0.000
SPACING   0.0156250.015625   1.000

POINT_DATA   16384
VECTORS u double

-0.105551 0.000028 1.000000 -0.114492 0.000025 1.000000 -0.116878 0.000028 1.000000 -0.124156 0.000025 1.000000 -0.125438 0.000029 1.000000 -0.130999 0.000025 1.000000 -0.131207 0.000029 1.000000 -0.135025 0.000025 1.000000 -0.134212 0.000029 1.000000 -0.136290 0.000025 1.000000 -0.134534 0.000029 1.000000 -0.134909 0.000025 1.000000 -0.132310 0.000029 1.000000 -0.131058 0.000024 1.000000 -0.127741 0.000028 1.000000 -0.124976 0.000023 1.000000 -0.121090 0.000027 1.000000 -0.116964 0.000023 1.000000 -0.112678 0.000026 1.000000 -0.107384 0.000022 1.000000 -0.102888 0.000025 1.000000 -0.096652 0.000021 1.000000 -0.092156 0.000024 1.000000 -0.085242 0.000020 1.000000 -0.080971 0.000023 1.000000 -0.073674 0.000019 1.000000 -0.069871 0.000022 1.000000 -0.062514 0.000019 1.000000 -0.059433 0.000022 1.000000 -0.052363 0.000019 1.000000 -0.050268 0.000022 1.000000 -0.043849 0.000020 1.000000 -0.043007 0.000023 1.000000 -0.037608 0.000021 1.000000 -0.038279 0.000024 1.000000 -0.034263 0.000023 1.000000 -0.036688 0.000025 1.000000 -0.034388 0.000026 1.000000 -0.038765 0.000027 1.000000 -0.038463 0.000029 1.000000 -0.044928 0.000030 1.000000 -0.046825 0.000032 1.000000 -0.055417 0.000032 1.000000 -0.059597 0.000035 1.000000 -0.070231 0.000035 1.000000 -0.076631 0.000037 1.000000 -0.089067 0.000037 1.000000 -0.097445 0.000039 1.000000 -0.111264 0.000037 1.000000 -0.121180 0.000040 1.000000 -0.135777 0.000037 1.000000 -0.146591 0.000039 1.000000 -0.161184 0.000034 1.000000 -0.172070 0.000035 1.000000 -0.185735 0.000029 1.000000 -0.195732 0.000029 1.000000 -0.207469 0.000020 1.000000 -0.215546 0.000019 1.000000 -0.224355 0.000008 1.000000 -0.229502 0.000006 1.000000 -0.234482 -0.000007 1.000000 -0.235802 -0.000011 1.000000 -0.236242 -0.000026 1.000000 -0.233039 -0.000031 1.000000 -0.228496 -0.000048 1.000000 -0.220352 -0.000054 1.000000 -0.210707 -0.000071 1.000000 -0.197532 -0.000077 1.000000 -0.183031 -0.000095 1.000000 -0.165105 -0.000101 1.000000 -0.146378 -0.000118 1.000000 -0.124377 -0.000121 1.000000 -0.102452 -0.000137 1.000000 -0.077457 -0.000138 1.000000 -0.053740 -0.000150 1.000000 -0.027204 -0.000148 1.000000 -0.003410 -0.000156 1.000000 0.022935 -0.000149 1.000000 0.044950 -0.000153 1.000000 0.069303 -0.000142 1.000000 0.087809 -0.000141 1.000000 0.108594 -0.000127 1.000000 0.122339 -0.000122 1.000000 0.138519 -0.000106 1.000000 0.147036 -0.000098 1.000000 0.158325 -0.000081 1.000000 0.162060 -0.000072 1.000000 0.168935 -0.000056 1.000000 0.169147 -0.000047 1.000000 0.172673 -0.000035 1.000000 0.171092 -0.000027 1.000000 0.172596 -0.000018 1.000000 0.170916 -0.000012 1.000000 0.171511 -0.000007 1.000000 0.170798 -0.000002 1.000000 0.170934 0.000000 1.000000 0.171351 0.000003 1.000000 0.170735 0.000004 1.000000 0.171685 0.000007 1.000000 0.169496 0.000006 1.000000 0.169955 0.000009 1.000000 0.165247 0.000008 1.000000 0.164129 0.000011 1.000000 0.156222 0.000010 1.000000 0.152821 0.000013 1.000000 0.141655 0.000012 1.000000 0.136015 0.000015 1.000000 0.122198 0.000014 1.000000 0.114849 0.000016 1.000000 0.099226 0.000015 1.000000 0.090790 0.000018 1.000000 0.074140 0.000017 1.000000 0.065162 0.000019 1.000000 0.048119 0.000018 1.000000 0.039042 0.000020 1.000000 0.022107 0.000019 1.000000 0.013287 0.000021 1.000000 -0.003151 0.000020 1.000000 -0.011436 0.000023 1.000000 -0.027074 0.000021 1.000000 -0.034617 0.000024 1.000000 -0.049220 0.000022 1.000000 -0.055872 0.000025 1.000000 -0.069254 0.000023 1.000000 -0.074912 0.000026 1.000000 -0.086927 0.000024 1.000000 -0.091525 0.000027 1.000000 -0.102052 0.000024 1.000000 
-0.095937 0.006245 1.000000 -0.104237 0.005686 1.000000 -0.106857 0.004858 1.000000 -0.113661 0.004302 1.000000 -0.115138 0.003448 1.000000 -0.120400 0.002907 1.000000 -0.120762 0.002039 1.000000 -0.124461 0.001525 1.000000 -0.123759 0.000659 1.000000 -0.125899 0.000183 1.000000 -0.124208 -0.000664 1.000000 -0.124826 -0.001090 1.000000 -0.122247 -0.001900 1.000000 -0.121412 -0.002263 1.000000 -0.118071 -0.003016 1.000000 -0.115888 -0.003306 1.000000 -0.111934 -0.003982 1.000000 -0.108543 -0.004187 1.000000 -0.104149 -0.004768 1.000000 -0.099726 -0.004877 1.000000 -0.095086 -0.005344 1.000000 -0.089842 -0.005349 1.000000 -0.085168 -0.005684 1.000000 -0.079348 -0.005576 1.000000 -0.074870 -0.005764 1.000000 -0.068749 -0.005534 1.000000 -0.064714 -0.005561 1.000000 -0.058597 -0.005203 1.000000 -0.055262 -0.005057 1.000000 -0.049477 -0.004566 1.000000 -0.047112 -0.004238 1.000000 -0.042005 -0.003614 1.000000 -0.040881 -0.003101 1.000000 -0.036805 -0.002345 1.000000 -0.037187 -0.001652 1.000000 -0.034488 -0.000775 1.000000 -0.036620 0.000085 1.000000 -0.035619 0.001062 1.000000 -0.039703 0.002063 1.000000 -0.040669 0.003107 1.000000 -0.046844 0.004208 1.000000 -0.049966 0.005273 1.000000 -0.058275 0.006416 1.000000 -0.063628 0.007439 1.000000 -0.073989 0.008550 1.000000 -0.081499 0.009453 1.000000 -0.093674 0.010442 1.000000 -0.103089 0.011136 1.000000 -0.116662 0.011904 1.000000 -0.127533 0.012295 1.000000 -0.141900 0.012740 1.000000 -0.153576 0.012740 1.000000 -0.167955 0.012772 1.000000 -0.179604 0.012310 1.000000 -0.193073 0.011859 1.000000 -0.203728 0.010894 1.000000 -0.215287 0.009926 1.000000 -0.223916 0.008461 1.000000 -0.232569 0.006985 1.000000 -0.238166 0.005068 1.000000 -0.243018 0.003142 1.000000 -0.244698 0.000868 1.000000 -0.245046 -0.001408 1.000000 -0.242130 -0.003905 1.000000 -0.237539 -0.006392 1.000000 -0.229624 -0.008949 1.000000 -0.219982 -0.011482 1.000000 -0.206986 -0.013916 1.000000 -0.192535 -0.016309 1.000000 -0.174732 -0.018427 1.000000 -0.156089 -0.020481 1.000000 -0.134131 -0.022084 1.000000 -0.112293 -0.023596 1.000000 -0.087227 -0.024493 1.000000 -0.063564 -0.025275 1.000000 -0.036814 -0.025311 1.000000 -0.013004 -0.025224 1.000000 0.013710 -0.024327 1.000000 0.035838 -0.023335 1.000000 0.060685 -0.021570 1.000000 0.079420 -0.019785 1.000000 0.100758 -0.017390 1.000000 0.114848 -0.015082 1.000000 0.131559 -0.012451 1.000000 0.140514 -0.009998 1.000000 0.152252 -0.007591 1.000000 0.156457 -0.005374 1.000000 0.163697 -0.003597 1.000000 0.164294 -0.001913 1.000000 0.168157 -0.001005 1.000000 0.166763 0.000014 1.000000 0.168652 0.000073 1.000000 0.166917 0.000533 1.000000 0.167997 0.000054 1.000000 0.167039 0.000288 1.000000 0.167803 -0.000275 1.000000 0.167887 0.000104 1.000000 0.168051 -0.000162 1.000000 0.168650 0.000627 1.000000 0.167409 0.000872 1.000000 0.167525 0.002134 1.000000 0.163927 0.002922 1.000000 0.162454 0.004524 1.000000 0.155777 0.005665 1.000000 0.151979 0.007297 1.000000 0.142110 0.008416 1.000000 0.136059 0.009744 1.000000 0.123597 0.010597 1.000000 0.115849 0.011502 1.000000 0.101622 0.012045 1.000000 0.092800 0.012560 1.000000 0.077562 0.012830 1.000000 0.068202 0.013029 1.000000 0.052560 0.013077 1.000000 0.043105 0.013026 1.000000 0.027538 0.012896 1.000000 0.018343 0.012649 1.000000 0.003224 0.012381 1.000000 -0.005430 0.011983 1.000000 -0.019818 0.011610 1.000000 -0.027719 0.011095 1.000000 -0.041159 0.010648 1.000000 -0.048154 0.010041 1.000000 -0.060480 0.009541 1.000000 -0.066460 0.008861 1.000000 -0.077542 0.008328 1.000000 -0.082437 0.007587 1.000000 -0.092170 0.007035 1.000000 
-0.107032 0.012095 1.000000 -0.115976 0.010945 1.000000 -0.118329 0.009452 1.000000 -0.125609 0.008306 1.000000 -0.126856 0.006768 1.000000 -0.132414 0.005649 1.000000 -0.132583 0.004090 1.000000 -0.136388 0.003021 1.000000 -0.135530 0.001467 1.000000 -0.137583 0.000474 1.000000 -0.135774 -0.001044 1.000000 -0.136111 -0.001936 1.000000 -0.133451 -0.003385 1.000000 -0.132145 -0.004152 1.000000 -0.128758 -0.005496 1.000000 -0.125923 -0.006114 1.000000 -0.121959 -0.007318 1.000000 -0.117746 -0.007762 1.000000 -0.113374 -0.008791 1.000000 -0.107976 -0.009042 1.000000 -0.103388 -0.009859 1.000000 -0.097033 -0.009897 1.000000 -0.092436 -0.010470 1.000000 -0.085388 -0.010278 1.000000 -0.081010 -0.010575 1.000000 -0.073565 -0.010137 1.000000 -0.069646 -0.010130 1.000000 -0.062128 -0.009432 1.000000 -0.058924 -0.009097 1.000000 -0.051681 -0.008130 1.000000 -0.049458 -0.007450 1.000000 -0.042856 -0.006211 1.000000 -0.041881 -0.005177 1.000000 -0.036295 -0.003673 1.000000 -0.036832 -0.002293 1.000000 -0.032628 -0.000544 1.000000 -0.034923 0.001156 1.000000 -0.032443 0.003109 1.000000 -0.036703 0.005078 1.000000 -0.036239 0.007170 1.000000 -0.042608 0.009327 1.000000 -0.044372 0.011463 1.000000 -0.052901 0.013694 1.000000 -0.056991 0.015749 1.000000 -0.067607 0.017906 1.000000 -0.073972 0.019722 1.000000 -0.086445 0.021627 1.000000 -0.094855 0.023027 1.000000 -0.108772 0.024482 1.000000 -0.118793 0.025277 1.000000 -0.133552 0.026080 1.000000 -0.144541 0.026094 1.000000 -0.159354 0.026062 1.000000 -0.170480 0.025154 1.000000 -0.184408 0.024153 1.000000 -0.194693 0.022242 1.000000 -0.206716 0.020208 1.000000 -0.215109 0.017301 1.000000 -0.224204 0.014258 1.000000 -0.229672 0.010455 1.000000 -0.234918 0.006524 1.000000 -0.236543 0.002016 1.000000 -0.237213 -0.002594 1.000000 -0.234285 -0.007538 1.000000 -0.229926 -0.012554 1.000000 -0.222015 -0.017611 1.000000 -0.212502 -0.022709 1.000000 -0.199506 -0.027524 1.000000 -0.185075 -0.032349 1.000000 -0.167260 -0.036547 1.000000 -0.148529 -0.040719 1.000000 -0.126552 -0.043917 1.000000 -0.104535 -0.047040 1.000000 -0.079460 -0.048866 1.000000 -0.055559 -0.050563 1.000000 -0.028844 -0.050708 1.000000 -0.004801 -0.050680 1.000000 0.021785 -0.048991 1.000000 0.044041 -0.047128 1.000000 0.068616 -0.043724 1.000000 0.087251 -0.040214 1.000000 0.108140 -0.035556 1.000000 0.121796 -0.030923 1.000000 0.137891 -0.025772 1.000000 0.146048 -0.020791 1.000000 0.157054 -0.016024 1.000000 0.160195 -0.011517 1.000000 0.166638 -0.007894 1.000000 0.166127 -0.004508 1.000000 0.169155 -0.002503 1.000000 0.166887 -0.000521 1.000000 0.167964 -0.000173 1.000000 0.165822 0.000643 1.000000 0.166195 -0.000128 1.000000 0.165324 0.000191 1.000000 0.165456 -0.000848 1.000000 0.165960 -0.000244 1.000000 0.165509 -0.000759 1.000000 0.166719 0.000648 1.000000 0.164777 0.001132 1.000000 0.165613 0.003491 1.000000 0.161167 0.005079 1.000000 0.160436 0.008161 1.000000 0.152718 0.010485 1.000000 0.149572 0.013680 1.000000 0.138478 0.015933 1.000000 0.133015 0.018528 1.000000 0.119253 0.020224 1.000000 0.112077 0.021991 1.000000 0.096532 0.023064 1.000000 0.088264 0.024078 1.000000 0.071703 0.024615 1.000000 0.062869 0.025020 1.000000 0.045907 0.025115 1.000000 0.036948 0.025042 1.000000 0.020079 0.024780 1.000000 0.011354 0.024336 1.000000 -0.005031 0.023794 1.000000 -0.013240 0.023064 1.000000 -0.028837 0.022310 1.000000 -0.036318 0.021365 1.000000 -0.050892 0.020457 1.000000 -0.057492 0.019345 1.000000 -0.070858 0.018329 1.000000 -0.076472 0.017088 1.000000 -0.088480 0.016000 1.000000 -0.093040 0.014655 1.000000 -0.103567 0.013524 1.000000 
-0.098775 0.018654 1.000000 -0.107071 0.016983 1.000000 -0.109628 0.014491 1.000000 -0.116427 0.012829 1.000000 -0.117837 0.010253 1.000000 -0.123087 0.008634 1.000000 -0.123372 0.006013 1.000000 -0.127045 0.004472 1.000000 -0.126253 0.001854 1.000000 -0.128347 0.000427 1.000000 -0.126550 -0.002137 1.000000 -0.127097 -0.003414 1.000000 -0.124395 -0.005866 1.000000 -0.123461 -0.006956 1.000000 -0.119980 -0.009238 1.000000 -0.117668 -0.010106 1.000000 -0.113557 -0.012159 1.000000 -0.110007 -0.012771 1.000000 -0.105439 -0.014537 1.000000 -0.100827 -0.014864 1.000000 -0.095998 -0.016287 1.000000 -0.090535 -0.016300 1.000000 -0.085657 -0.017329 1.000000 -0.079588 -0.017002 1.000000 -0.074892 -0.017588 1.000000 -0.068495 -0.016898 1.000000 -0.064226 -0.016998 1.000000 -0.057805 -0.015925 1.000000 -0.054223 -0.015503 1.000000 -0.048111 -0.014033 1.000000 -0.045486 -0.013063 1.000000 -0.040031 -0.011190 1.000000 -0.038639 -0.009662 1.000000 -0.034203 -0.007394 1.000000 -0.034314 -0.005318 1.000000 -0.031255 -0.002684 1.000000 -0.033124 -0.000100 1.000000 -0.031777 0.002842 1.000000 -0.035623 0.005859 1.000000 -0.036277 0.009012 1.000000 -0.042257 0.012341 1.000000 -0.045125 0.015567 1.000000 -0.053305 0.019035 1.000000 -0.058487 0.022145 1.000000 -0.068808 0.025531 1.000000 -0.076257 0.028291 1.000000 -0.088501 0.031324 1.000000 -0.097986 0.033464 1.000000 -0.111751 0.035842 1.000000 -0.122834 0.037074 1.000000 -0.137518 0.038489 1.000000 -0.149547 0.038542 1.000000 -0.164358 0.038710 1.000000 -0.176484 0.037364 1.000000 -0.190469 0.036072 1.000000 -0.201692 0.033202 1.000000 -0.213811 0.030342 1.000000 -0.223056 0.025949 1.000000 -0.232267 0.021548 1.000000 -0.238483 0.015782 1.000000 -0.243851 0.010013 1.000000 -0.246116 0.003163 1.000000 -0.246908 -0.003666 1.000000 -0.244519 -0.011192 1.000000 -0.240285 -0.018663 1.000000 -0.232824 -0.026373 1.000000 -0.223444 -0.033991 1.000000 -0.210814 -0.041343 1.000000 -0.196519 -0.048555 1.000000 -0.178966 -0.054973 1.000000 -0.160348 -0.061189 1.000000 -0.138482 -0.066079 1.000000 -0.116509 -0.070689 1.000000 -0.091331 -0.073469 1.000000 -0.067358 -0.075891 1.000000 -0.040279 -0.076069 1.000000 -0.016026 -0.075853 1.000000 0.011172 -0.073170 1.000000 0.033742 -0.070167 1.000000 0.059074 -0.064780 1.000000 0.078044 -0.059308 1.000000 0.099653 -0.051935 1.000000 0.113572 -0.044833 1.000000 0.130163 -0.036703 1.000000 0.138463 -0.029161 1.000000 0.149642 -0.021738 1.000000 0.152782 -0.014958 1.000000 0.159118 -0.009528 1.000000 0.158410 -0.004430 1.000000 0.161228 -0.001766 1.000000 0.158527 0.001204 1.000000 0.159534 0.001138 1.000000 0.156846 0.002302 1.000000 0.157441 0.000552 1.000000 0.156061 0.001026 1.000000 0.156795 -0.000911 1.000000 0.156961 0.000051 1.000000 0.157409 -0.000921 1.000000 0.158471 0.001359 1.000000 0.157695 0.001978 1.000000 0.158550 0.005745 1.000000 0.155496 0.008099 1.000000 0.154816 0.012972 1.000000 0.148575 0.016529 1.000000 0.145281 0.021538 1.000000 0.135595 0.024973 1.000000 0.129908 0.028969 1.000000 0.117601 0.031536 1.000000 0.110220 0.034222 1.000000 0.096193 0.035857 1.000000 0.087722 0.037390 1.000000 0.072691 0.038225 1.000000 0.063628 0.038824 1.000000 0.048170 0.038998 1.000000 0.038949 0.038854 1.000000 0.023535 0.038490 1.000000 0.014525 0.037760 1.000000 -0.000469 0.036974 1.000000 -0.008975 0.035789 1.000000 -0.023264 0.034688 1.000000 -0.031043 0.033150 1.000000 -0.044409 0.031822 1.000000 -0.051304 0.030007 1.000000 -0.063580 0.028522 1.000000 -0.069477 0.026483 1.000000 -0.080529 0.024896 1.000000 -0.085353 0.022674 1.000000 -0.095072 0.021027 1.000000 
-0.111455 0.024093 1.000000 -0.120413 0.021798 1.000000 -0.122669 0.018808 1.000000 -0.129959 0.016515 1.000000 -0.131103 0.013428 1.000000 -0.136655 0.011185 1.000000 -0.136708 0.008047 1.000000 -0.140480 0.005902 1.000000 -0.139487 0.002769 1.000000 -0.141470 0.000772 1.000000 -0.139503 -0.002294 1.000000 -0.139726 -0.004091 1.000000 -0.136883 -0.007021 1.000000 -0.135416 -0.008567 1.000000 -0.131822 -0.011290 1.000000 -0.128776 -0.012537 1.000000 -0.124580 -0.014979 1.000000 -0.120107 -0.015880 1.000000 -0.115480 -0.017970 1.000000 -0.109774 -0.018483 1.000000 -0.104908 -0.020151 1.000000 -0.098198 -0.020238 1.000000 -0.093303 -0.021417 1.000000 -0.085855 -0.021043 1.000000 -0.081157 -0.021669 1.000000 -0.073269 -0.020803 1.000000 -0.069009 -0.020819 1.000000 -0.061008 -0.019435 1.000000 -0.057442 -0.018792 1.000000 -0.049680 -0.016868 1.000000 -0.047074 -0.015529 1.000000 -0.039925 -0.013058 1.000000 -0.038552 -0.011006 1.000000 -0.032400 -0.007997 1.000000 -0.032535 -0.005241 1.000000 -0.027764 -0.001734 1.000000 -0.029667 0.001678 1.000000 -0.026641 0.005608 1.000000 -0.030541 0.009578 1.000000 -0.029582 0.013804 1.000000 -0.035652 0.018175 1.000000 -0.037006 0.022511 1.000000 -0.045332 0.027057 1.000000 -0.049137 0.031252 1.000000 -0.059681 0.035675 1.000000 -0.065925 0.039415 1.000000 -0.078490 0.043356 1.000000 -0.086975 0.046277 1.000000 -0.101172 0.049330 1.000000 -0.111485 0.051045 1.000000 -0.126715 0.052793 1.000000 -0.138215 0.052933 1.000000 -0.153673 0.052998 1.000000 -0.165502 0.051265 1.000000 -0.180209 0.049361 1.000000 -0.191343 0.045584 1.000000 -0.204213 0.041572 1.000000 -0.213537 0.035757 1.000000 -0.223479 0.029686 1.000000 -0.229891 0.022038 1.000000 -0.235920 0.014157 1.000000 -0.238444 0.005073 1.000000 -0.239787 -0.004192 1.000000 -0.237672 -0.014160 1.000000 -0.233852 -0.024249 1.000000 -0.226637 -0.034452 1.000000 -0.217518 -0.044719 1.000000 -0.205076 -0.054449 1.000000 -0.190874 -0.064197 1.000000 -0.173428 -0.072718 1.000000 -0.154725 -0.081202 1.000000 -0.132873 -0.087756 1.000000 -0.110632 -0.094191 1.000000 -0.085378 -0.098018 1.000000 -0.060976 -0.101615 1.000000 -0.033769 -0.102040 1.000000 -0.009006 -0.102131 1.000000 0.018283 -0.098760 1.000000 0.041273 -0.095031 1.000000 0.066517 -0.088025 1.000000 0.085560 -0.080792 1.000000 0.106763 -0.071084 1.000000 0.120151 -0.061433 1.000000 0.135969 -0.050662 1.000000 0.143013 -0.040270 1.000000 0.153140 -0.030343 1.000000 0.154436 -0.020993 1.000000 0.159565 -0.013522 1.000000 0.156813 -0.006617 1.000000 0.158318 -0.002620 1.000000 0.153915 0.001173 1.000000 0.153671 0.001509 1.000000 0.150137 0.002736 1.000000 0.149854 0.000656 1.000000 0.148549 0.000838 1.000000 0.148657 -0.001748 1.000000 0.149401 -0.000859 1.000000 0.149410 -0.002270 1.000000 0.151320 0.000363 1.000000 0.150050 0.001053 1.000000 0.151993 0.005689 1.000000 0.148320 0.008813 1.000000 0.148847 0.015082 1.000000 0.141761 0.020020 1.000000 0.139416 0.026660 1.000000 0.128569 0.031306 1.000000 0.123711 0.036522 1.000000 0.110194 0.039912 1.000000 0.103627 0.043398 1.000000 0.088393 0.045562 1.000000 0.080681 0.047581 1.000000 0.064421 0.048709 1.000000 0.056038 0.049542 1.000000 0.039329 0.049795 1.000000 0.030719 0.049677 1.000000 0.014054 0.049204 1.000000 0.005604 0.048340 1.000000 -0.010621 0.047293 1.000000 -0.018605 0.045859 1.000000 -0.034082 0.044379 1.000000 -0.041376 0.042511 1.000000 -0.055868 0.040717 1.000000 -0.062313 0.038516 1.000000 -0.075633 0.036502 1.000000 -0.081118 0.034038 1.000000 -0.093110 0.031876 1.000000 -0.097558 0.029198 1.000000 -0.108090 0.026946 1.000000 
-0.104407 0.030977 1.000000 -0.112700 0.028197 1.000000 -0.115137 0.024037 1.000000 -0.121936 0.021264 1.000000 -0.123216 0.016949 1.000000 -0.128451 0.014239 1.000000 -0.128587 0.009838 1.000000 -0.132215 0.007251 1.000000 -0.131246 0.002844 1.000000 -0.133253 0.000443 1.000000 -0.131247 -0.003881 1.000000 -0.131657 -0.006033 1.000000 -0.128710 -0.010176 1.000000 -0.127583 -0.012017 1.000000 -0.123821 -0.015878 1.000000 -0.121256 -0.017348 1.000000 -0.116831 -0.020828 1.000000 -0.112967 -0.021870 1.000000 -0.108055 -0.024871 1.000000 -0.103068 -0.025436 1.000000 -0.097865 -0.027863 1.000000 -0.091968 -0.027905 1.000000 -0.086687 -0.029672 1.000000 -0.080126 -0.029148 1.000000 -0.074999 -0.030174 1.000000 -0.068053 -0.029046 1.000000 -0.063324 -0.029259 1.000000 -0.056301 -0.027493 1.000000 -0.052230 -0.026831 1.000000 -0.045465 -0.024401 1.000000 -0.042325 -0.022819 1.000000 -0.036176 -0.019712 1.000000 -0.034248 -0.017186 1.000000 -0.029090 -0.013411 1.000000 -0.028658 -0.009954 1.000000 -0.024868 -0.005553 1.000000 -0.026207 -0.001223 1.000000 -0.024153 0.003716 1.000000 -0.027509 0.008799 1.000000 -0.027518 0.014123 1.000000 -0.033088 0.019765 1.000000 -0.035420 0.025247 1.000000 -0.043315 0.031166 1.000000 -0.048123 0.036494 1.000000 -0.058331 0.042319 1.000000 -0.065621 0.047100 1.000000 -0.077969 0.052374 1.000000 -0.087554 0.056146 1.000000 -0.101671 0.060352 1.000000 -0.113142 0.062618 1.000000 -0.128433 0.065218 1.000000 -0.141137 0.065499 1.000000 -0.156786 0.065998 1.000000 -0.169839 0.063900 1.000000 -0.184837 0.061913 1.000000 -0.197170 0.057207 1.000000 -0.210390 0.052536 1.000000 -0.220839 0.045215 1.000000 -0.231143 0.037902 1.000000 -0.238567 0.028222 1.000000 -0.244932 0.018565 1.000000 -0.248335 0.007030 1.000000 -0.249978 -0.004438 1.000000 -0.248615 -0.017127 1.000000 -0.245067 -0.029697 1.000000 -0.238504 -0.042708 1.000000 -0.229649 -0.055552 1.000000 -0.217775 -0.067987 1.000000 -0.203833 -0.080203 1.000000 -0.186853 -0.091121 1.000000 -0.168372 -0.101745 1.000000 -0.146806 -0.110172 1.000000 -0.124675 -0.118184 1.000000 -0.099409 -0.123125 1.000000 -0.074916 -0.127500 1.000000 -0.047289 -0.128039 1.000000 -0.022204 -0.127905 1.000000 0.005921 -0.123448 1.000000 0.029385 -0.118401 1.000000 0.055711 -0.109068 1.000000 0.075180 -0.099554 1.000000 0.097373 -0.086526 1.000000 0.110934 -0.074040 1.000000 0.127279 -0.059565 1.000000 0.134186 -0.046332 1.000000 0.144191 -0.033162 1.000000 0.145125 -0.021383 1.000000 0.149586 -0.011905 1.000000 0.146215 -0.003182 1.000000 0.146861 0.001133 1.000000 0.141434 0.005851 1.000000 0.140650 0.004915 1.000000 0.136024 0.006120 1.000000 0.135653 0.002140 1.000000 0.133411 0.002223 1.000000 0.134087 -0.001763 1.000000 0.134336 -0.000702 1.000000 0.135231 -0.002840 1.000000 0.137041 0.000719 1.000000 0.137010 0.001305 1.000000 0.139298 0.007475 1.000000 0.137298 0.011245 1.000000 0.138432 0.019531 1.000000 0.133248 0.025960 1.000000 0.131019 0.034730 1.000000 0.121780 0.040678 1.000000 0.116989 0.047344 1.000000 0.105181 0.051620 1.000000 0.098735 0.056024 1.000000 0.085258 0.058802 1.000000 0.077595 0.061361 1.000000 0.063041 0.062869 1.000000 0.054593 0.063916 1.000000 0.039516 0.064317 1.000000 0.030755 0.064129 1.000000 0.015647 0.063605 1.000000 0.006994 0.062434 1.000000 -0.007752 0.061183 1.000000 -0.015969 0.059251 1.000000 -0.030061 0.057459 1.000000 -0.037604 0.054937 1.000000 -0.050824 0.052759 1.000000 -0.057524 0.049771 1.000000 -0.069703 0.047326 1.000000 -0.075440 0.043960 1.000000 -0.086439 0.041337 1.000000 -0.091127 0.037655 1.000000 -0.100827 0.034923 1.000000 
-0.118752 0.035967 1.000000 -0.127749 0.032528 1.000000 -0.129852 0.028043 1.000000 -0.137175 0.024594 1.000000 -0.138155 0.019944 1.000000 -0.143713 0.016556 1.000000 -0.143577 0.011811 1.000000 -0.147307 0.008560 1.000000 -0.146093 0.003808 1.000000 -0.147970 0.000773 1.000000 -0.145742 -0.003890 1.000000 -0.145785 -0.006628 1.000000 -0.142640 -0.011095 1.000000 -0.140910 -0.013456 1.000000 -0.136972 -0.017617 1.000000 -0.133580 -0.019526 1.000000 -0.129000 -0.023268 1.000000 -0.124098 -0.024656 1.000000 -0.119051 -0.027869 1.000000 -0.112835 -0.028673 1.000000 -0.107515 -0.031251 1.000000 -0.100218 -0.031416 1.000000 -0.094835 -0.033258 1.000000 -0.086726 -0.032731 1.000000 -0.081507 -0.033743 1.000000 -0.072887 -0.032478 1.000000 -0.068071 -0.032572 1.000000 -0.059271 -0.030528 1.000000 -0.055111 -0.029628 1.000000 -0.046490 -0.026773 1.000000 -0.043255 -0.024818 1.000000 -0.035194 -0.021135 1.000000 -0.033164 -0.018092 1.000000 -0.026065 -0.013588 1.000000 -0.025526 -0.009463 1.000000 -0.019797 -0.004185 1.000000 -0.021034 0.000962 1.000000 -0.017074 0.006910 1.000000 -0.020352 0.012943 1.000000 -0.018532 0.019383 1.000000 -0.024071 0.026077 1.000000 -0.024695 0.032737 1.000000 -0.032638 0.039760 1.000000 -0.035911 0.046268 1.000000 -0.046283 0.053173 1.000000 -0.052262 0.059053 1.000000 -0.064924 0.065290 1.000000 -0.073470 0.069979 1.000000 -0.088076 0.074917 1.000000 -0.098815 0.077807 1.000000 -0.114781 0.080788 1.000000 -0.127076 0.081286 1.000000 -0.143569 0.081700 1.000000 -0.156525 0.079316 1.000000 -0.172493 0.076692 1.000000 -0.185003 0.071137 1.000000 -0.199251 0.065241 1.000000 -0.210086 0.056510 1.000000 -0.221397 0.047413 1.000000 -0.229338 0.035828 1.000000 -0.236617 0.023925 1.000000 -0.240590 0.010119 1.000000 -0.242997 -0.003912 1.000000 -0.242194 -0.019071 1.000000 -0.239232 -0.034359 1.000000 -0.233167 -0.049870 1.000000 -0.224704 -0.065448 1.000000 -0.213229 -0.080265 1.000000 -0.199475 -0.095119 1.000000 -0.182761 -0.108179 1.000000 -0.164241 -0.121249 1.000000 -0.142780 -0.131454 1.000000 -0.120351 -0.141589 1.000000 -0.095008 -0.147776 1.000000 -0.069943 -0.153734 1.000000 -0.042083 -0.154752 1.000000 -0.016208 -0.155341 1.000000 0.012188 -0.150348 1.000000 0.036435 -0.144821 1.000000 0.062822 -0.133821 1.000000 0.082643 -0.122454 1.000000 0.104391 -0.106838 1.000000 0.117354 -0.091340 1.000000 0.132632 -0.073914 1.000000 0.137676 -0.057181 1.000000 0.146220 -0.041282 1.000000 0.144215 -0.026388 1.000000 0.147132 -0.014612 1.000000 0.140416 -0.003892 1.000000 0.139326 0.002161 1.000000 0.131096 0.007384 1.000000 0.128543 0.006919 1.000000 0.122729 0.007733 1.000000 0.121485 0.003269 1.000000 0.119679 0.002403 1.000000 0.119662 -0.002673 1.000000 0.120670 -0.002003 1.000000 0.121295 -0.004975 1.000000 0.123956 -0.001416 1.000000 0.123433 -0.001205 1.000000 0.127018 0.005402 1.000000 0.124477 0.009680 1.000000 0.127500 0.019132 1.000000 0.121789 0.027433 1.000000 0.120919 0.038128 1.000000 0.110681 0.045335 1.000000 0.107195 0.053122 1.000000 0.094464 0.058166 1.000000 0.089266 0.063321 1.000000 0.074799 0.066702 1.000000 0.068164 0.069797 1.000000 0.052490 0.071711 1.000000 0.044872 0.073067 1.000000 0.028594 0.073633 1.000000 0.020542 0.073545 1.000000 0.004210 0.072965 1.000000 -0.003803 0.071739 1.000000 -0.019764 0.070256 1.000000 -0.027388 0.068168 1.000000 -0.042666 0.066014 1.000000 -0.049659 0.063274 1.000000 -0.064018 0.060637 1.000000 -0.070213 0.057395 1.000000 -0.083463 0.054418 1.000000 -0.088740 0.050774 1.000000 -0.100717 0.047564 1.000000 -0.104990 0.043586 1.000000 -0.115544 0.040225 1.000000 
-0.112737 0.043182 1.000000 -0.121048 0.039296 1.000000 -0.123320 0.033463 1.000000 -0.130139 0.029567 1.000000 -0.131238 0.023486 1.000000 -0.136470 0.019661 1.000000 -0.136393 0.013433 1.000000 -0.139970 0.009767 1.000000 -0.138744 0.003507 1.000000 -0.140636 0.000092 1.000000 -0.138321 -0.006066 1.000000 -0.138537 -0.009136 1.000000 -0.135228 -0.015051 1.000000 -0.133819 -0.017685 1.000000 -0.129642 -0.023209 1.000000 -0.126704 -0.025320 1.000000 -0.121815 -0.030309 1.000000 -0.117487 -0.031819 1.000000 -0.112065 -0.036134 1.000000 -0.106525 -0.036972 1.000000 -0.100770 -0.040480 1.000000 -0.094232 -0.040584 1.000000 -0.088361 -0.043163 1.000000 -0.081074 -0.042476 1.000000 -0.075316 -0.044013 1.000000 -0.067559 -0.042482 1.000000 -0.062158 -0.042875 1.000000 -0.054241 -0.040452 1.000000 -0.049455 -0.039612 1.000000 -0.041719 -0.036258 1.000000 -0.037819 -0.034114 1.000000 -0.030632 -0.029803 1.000000 -0.027907 -0.026316 1.000000 -0.021659 -0.021049 1.000000 -0.020408 -0.016223 1.000000 -0.015507 -0.010045 1.000000 -0.016031 -0.003945 1.000000 -0.012883 0.003035 1.000000 -0.015472 0.010257 1.000000 -0.014463 0.017842 1.000000 -0.019367 0.025929 1.000000 -0.020828 0.033814 1.000000 -0.028227 0.042383 1.000000 -0.032393 0.050139 1.000000 -0.042351 0.058670 1.000000 -0.049311 0.065741 1.000000 -0.061728 0.073582 1.000000 -0.071370 0.079298 1.000000 -0.085929 0.085697 1.000000 -0.097892 0.089322 1.000000 -0.114018 0.093479 1.000000 -0.127656 0.094287 1.000000 -0.144500 0.095447 1.000000 -0.158879 0.092824 1.000000 -0.175342 0.090391 1.000000 -0.189286 0.083965 1.000000 -0.204103 0.077619 1.000000 -0.216300 0.067362 1.000000 -0.228173 0.057154 1.000000 -0.237332 0.043441 1.000000 -0.245104 0.029818 1.000000 -0.250119 0.013411 1.000000 -0.252935 -0.002835 1.000000 -0.253022 -0.020892 1.000000 -0.250418 -0.038723 1.000000 -0.245160 -0.057236 1.000000 -0.237067 -0.075490 1.000000 -0.226380 -0.093216 1.000000 -0.213051 -0.110671 1.000000 -0.197112 -0.126355 1.000000 -0.179045 -0.141726 1.000000 -0.158238 -0.154062 1.000000 -0.136169 -0.165955 1.000000 -0.111142 -0.173533 1.000000 -0.086167 -0.180426 1.000000 -0.058032 -0.181774 1.000000 -0.031862 -0.182175 1.000000 -0.002480 -0.176091 1.000000 0.022347 -0.169035 1.000000 0.050237 -0.155276 1.000000 0.070559 -0.141123 1.000000 0.093755 -0.121237 1.000000 0.106727 -0.102280 1.000000 0.122679 -0.079887 1.000000 0.127204 -0.059921 1.000000 0.135257 -0.039700 1.000000 0.132647 -0.022295 1.000000 0.134136 -0.008106 1.000000 0.126765 0.004624 1.000000 0.123988 0.010453 1.000000 0.114191 0.016635 1.000000 0.110856 0.013282 1.000000 0.103444 0.013178 1.000000 0.101688 0.005191 1.000000 0.098148 0.004045 1.000000 0.098792 -0.002755 1.000000 0.098880 -0.002335 1.000000 0.099988 -0.006126 1.000000 0.102185 -0.001418 1.000000 0.102516 -0.001756 1.000000 0.106546 0.006431 1.000000 0.105741 0.010763 1.000000 0.110339 0.022220 1.000000 0.107479 0.032541 1.000000 0.107021 0.045838 1.000000 0.098852 0.054401 1.000000 0.096171 0.063560 1.000000 0.085792 0.069549 1.000000 0.081339 0.075689 1.000000 0.069033 0.079904 1.000000 0.062756 0.083671 1.000000 0.048988 0.086161 1.000000 0.041439 0.087812 1.000000 0.026918 0.088647 1.000000 0.018788 0.088513 1.000000 0.004123 0.087950 1.000000 -0.004035 0.086408 1.000000 -0.018412 0.084769 1.000000 -0.026219 0.082153 1.000000 -0.040016 0.079730 1.000000 -0.047217 0.076289 1.000000 -0.060223 0.073313 1.000000 -0.066643 0.069216 1.000000 -0.078689 0.065853 1.000000 -0.084198 0.061214 1.000000 -0.095135 0.057587 1.000000 -0.099635 0.052482 1.000000 -0.109324 0.048685 1.000000 