# vtk DataFile Version 2.0
Comment goes here
ASCII

DATASET STRUCTURED_POINTS
DIMENSIONS    128   128   1

ORIGIN    0.000   0.000   0.000
SPACING   0.0156250.015625   1.000

POINT_DATA   16384
VECTORS u double

-0.003909 0.000000 1.000000 -0.004180 -0.000000 1.000000 -0.004300 0.000000 1.000000 -0.004513 -0.000000 1.000000 -0.004610 0.000000 1.000000 -0.004763 -0.000000 1.000000 -0.004837 0.000000 1.000000 -0.004932 -0.000000 1.000000 -0.004984 -0.000000 1.000000 -0.005020 -0.000000 1.000000 -0.005051 -0.000000 1.000000 -0.005030 -0.000000 1.000000 -0.005043 -0.000000 1.000000 -0.004967 -0.000000 1.000000 -0.004963 -0.000000 1.000000 -0.004836 -0.000000 1.000000 -0.004817 -0.000000 1.000000 -0.004644 -0.000000 1.000000 -0.004611 -0.000000 1.000000 -0.004398 -0.000000 1.000000 -0.004356 -0.000000 1.000000 -0.004109 -0.000000 1.000000 -0.004060 -0.000000 1.000000 -0.003787 -0.000000 1.000000 -0.003736 -0.000000 1.000000 -0.003444 -0.000000 1.000000 -0.003396 -0.000000 1.000000 -0.003095 -0.000000 1.000000 -0.003055 -0.000000 1.000000 -0.002754 -0.000000 1.000000 -0.002729 -0.000000 1.000000 -0.002438 -0.000000 1.000000 -0.002433 -0.000000 1.000000 -0.002163 -0.000000 1.000000 -0.002186 -0.000000 1.000000 -0.001948 -0.000000 1.000000 -0.002005 -0.000000 1.000000 -0.001807 -0.000000 1.000000 -0.001906 -0.000000 1.000000 -0.001758 -0.000000 1.000000 -0.001903 -0.000000 1.000000 -0.001811 -0.000000 1.000000 -0.002007 -0.000000 1.000000 -0.001974 -0.000000 1.000000 -0.002221 -0.000000 1.000000 -0.002247 -0.000000 1.000000 -0.002541 -0.000000 1.000000 -0.002620 -0.000000 1.000000 -0.002951 -0.000000 1.000000 -0.003072 -0.000000 1.000000 -0.003426 -0.000000 1.000000 -0.003571 -0.000000 1.000000 -0.003925 -0.000000 1.000000 -0.004069 -0.000000 1.000000 -0.004397 -0.000000 1.000000 -0.004513 -0.000000 1.000000 -0.004783 -0.000000 1.000000 -0.004841 -0.000000 1.000000 -0.005020 -0.000001 1.000000 -0.004990 -0.000001 1.000000 -0.005048 -0.000001 1.000000 -0.004906 -0.000001 1.000000 -0.004818 -0.000001 1.000000 -0.004548 -0.000001 1.000000 -0.004297 -0.000001 1.000000 -0.003890 -0.000001 1.000000 -0.003471 -0.000001 1.000000 -0.002932 -0.000002 1.000000 -0.002352 -0.000002 1.000000 -0.001693 -0.000002 1.000000 -0.000973 -0.000002 1.000000 -0.000219 -0.000002 1.000000 0.000609 -0.000002 1.000000 0.001423 -0.000002 1.000000 0.002311 -0.000002 1.000000 0.003139 -0.000002 1.000000 0.004028 -0.000002 1.000000 0.004815 -0.000002 1.000000 0.005638 -0.000002 1.000000 0.006323 -0.000002 1.000000 0.007014 -0.000002 1.000000 0.007543 -0.000002 1.000000 0.008052 -0.000001 1.000000 0.008391 -0.000001 1.000000 0.008699 -0.000001 1.000000 0.008848 -0.000001 1.000000 0.008981 -0.000001 1.000000 0.008978 -0.000001 1.000000 0.009002 -0.000001 1.000000 0.008912 -0.000001 1.000000 0.008915 -0.000001 1.000000 0.008804 -0.000000 1.000000 0.008862 -0.000000 1.000000 0.008770 -0.000000 1.000000 0.008913 -0.000000 1.000000 0.008831 -0.000000 1.000000 0.009024 -0.000000 1.000000 0.008904 -0.000000 1.000000 0.009057 -0.000000 1.000000 0.008830 -0.000000 1.000000 0.008842 -0.000000 1.000000 0.008448 -0.000000 1.000000 0.008240 -0.000000 1.000000 0.007660 -0.000000 1.000000 0.007235 -0.000000 1.000000 0.006516 0.000000 1.000000 0.005979 -0.000000 1.000000 0.005207 -0.000000 1.000000 0.004661 -0.000000 1.000000 0.003897 -0.000000 1.000000 0.003394 -0.000000 1.000000 0.002666 -0.000000 1.000000 0.002221 -0.000000 1.000000 0.001537 -0.000000 1.000000 0.001146 -0.000000 1.000000 0.000508 -0.000000 1.000000 0.000166 -0.000000 1.000000 -0.000423 -0.000000 1.000000 -0.000723 -0.000000 1.000000 -0.001264 -0.000000 1.000000 -0.001526 -0.000000 1.000000 -0.002016 -0.000000 1.000000 -0.002245 -0.000000 1.000000 -0.002683 -0.000000 1.000000 -0.002882 -0.000000 1.000000 -0.003265 -0.000000 1.000000 -0.003436 -0.000000 1.000000 -0.003764 -0.000000 1.000000 
-0.003086 0.000208 1.000000 -0.003309 0.000196 1.000000 -0.003447 0.000166 1.000000 -0.003626 0.000155 1.000000 -0.003737 0.000125 1.000000 -0.003873 0.000114 1.000000 -0.003958 0.000084 1.000000 -0.004051 0.000073 1.000000 -0.004110 0.000044 1.000000 -0.004161 0.000034 1.000000 -0.004196 0.000005 1.000000 -0.004206 -0.000004 1.000000 -0.004217 -0.000031 1.000000 -0.004189 -0.000040 1.000000 -0.004179 -0.000066 1.000000 -0.004114 -0.000073 1.000000 -0.004084 -0.000096 1.000000 -0.003986 -0.000103 1.000000 -0.003940 -0.000123 1.000000 -0.003813 -0.000128 1.000000 -0.003754 -0.000145 1.000000 -0.003603 -0.000148 1.000000 -0.003534 -0.000161 1.000000 -0.003364 -0.000162 1.000000 -0.003290 -0.000171 1.000000 -0.003108 -0.000170 1.000000 -0.003033 -0.000175 1.000000 -0.002846 -0.000171 1.000000 -0.002777 -0.000170 1.000000 -0.002592 -0.000163 1.000000 -0.002535 -0.000158 1.000000 -0.002361 -0.000148 1.000000 -0.002322 -0.000137 1.000000 -0.002167 -0.000124 1.000000 -0.002155 -0.000108 1.000000 -0.002028 -0.000091 1.000000 -0.002049 -0.000070 1.000000 -0.001960 -0.000050 1.000000 -0.002021 -0.000025 1.000000 -0.001976 -0.000001 1.000000 -0.002083 0.000027 1.000000 -0.002088 0.000052 1.000000 -0.002245 0.000081 1.000000 -0.002304 0.000107 1.000000 -0.002512 0.000136 1.000000 -0.002622 0.000160 1.000000 -0.002878 0.000186 1.000000 -0.003035 0.000205 1.000000 -0.003330 0.000226 1.000000 -0.003521 0.000237 1.000000 -0.003840 0.000249 1.000000 -0.004047 0.000249 1.000000 -0.004369 0.000249 1.000000 -0.004568 0.000236 1.000000 -0.004866 0.000222 1.000000 -0.005029 0.000193 1.000000 -0.005272 0.000163 1.000000 -0.005370 0.000118 1.000000 -0.005525 0.000074 1.000000 -0.005529 0.000013 1.000000 -0.005567 -0.000043 1.000000 -0.005453 -0.000116 1.000000 -0.005350 -0.000180 1.000000 -0.005103 -0.000262 1.000000 -0.004843 -0.000330 1.000000 -0.004457 -0.000414 1.000000 -0.004036 -0.000481 1.000000 -0.003515 -0.000561 1.000000 -0.002940 -0.000621 1.000000 -0.002298 -0.000691 1.000000 -0.001588 -0.000739 1.000000 -0.000848 -0.000793 1.000000 -0.000035 -0.000823 1.000000 0.000769 -0.000853 1.000000 0.001642 -0.000860 1.000000 0.002467 -0.000861 1.000000 0.003342 -0.000840 1.000000 0.004135 -0.000807 1.000000 0.004947 -0.000756 1.000000 0.005648 -0.000690 1.000000 0.006330 -0.000612 1.000000 0.006883 -0.000520 1.000000 0.007385 -0.000425 1.000000 0.007756 -0.000325 1.000000 0.008057 -0.000230 1.000000 0.008245 -0.000142 1.000000 0.008369 -0.000066 1.000000 0.008414 -0.000011 1.000000 0.008426 0.000033 1.000000 0.008396 0.000043 1.000000 0.008385 0.000053 1.000000 0.008347 0.000026 1.000000 0.008389 0.000017 1.000000 0.008379 -0.000026 1.000000 0.008503 -0.000031 1.000000 0.008509 -0.000056 1.000000 0.008680 -0.000036 1.000000 0.008650 -0.000017 1.000000 0.008783 0.000037 1.000000 0.008652 0.000108 1.000000 0.008641 0.000191 1.000000 0.008350 0.000301 1.000000 0.008114 0.000394 1.000000 0.007639 0.000502 1.000000 0.007175 0.000572 1.000000 0.006564 0.000628 1.000000 0.005987 0.000655 1.000000 0.005329 0.000659 1.000000 0.004747 0.000655 1.000000 0.004104 0.000633 1.000000 0.003569 0.000615 1.000000 0.002963 0.000587 1.000000 0.002486 0.000565 1.000000 0.001923 0.000537 1.000000 0.001501 0.000514 1.000000 0.000981 0.000490 1.000000 0.000608 0.000466 1.000000 0.000130 0.000445 1.000000 -0.000200 0.000420 1.000000 -0.000635 0.000401 1.000000 -0.000927 0.000376 1.000000 -0.001320 0.000359 1.000000 -0.001577 0.000333 1.000000 -0.001927 0.000318 1.000000 -0.002152 0.000291 1.000000 -0.002460 0.000277 1.000000 -0.002655 0.000250 1.000000 -0.002920 0.000236 1.000000 
-0.003950 0.000388 1.000000 -0.004222 0.000360 1.000000 -0.004341 0.000317 1.000000 -0.004554 0.000290 1.000000 -0.004650 0.000247 1.000000 -0.004804 0.000221 1.000000 -0.004878 0.000178 1.000000 -0.004972 0.000152 1.000000 -0.005023 0.000110 1.000000 -0.005058 0.000086 1.000000 -0.005089 0.000045 1.000000 -0.005067 0.000022 1.000000 -0.005079 -0.000017 1.000000 -0.005002 -0.000039 1.000000 -0.004996 -0.000075 1.000000 -0.004867 -0.000094 1.000000 -0.004846 -0.000127 1.000000 -0.004671 -0.000144 1.000000 -0.004637 -0.000173 1.000000 -0.004420 -0.000186 1.000000 -0.004376 -0.000211 1.000000 -0.004125 -0.000220 1.000000 -0.004075 -0.000239 1.000000 -0.003797 -0.000244 1.000000 -0.003744 -0.000256 1.000000 -0.003447 -0.000257 1.000000 -0.003397 -0.000262 1.000000 -0.003091 -0.000257 1.000000 -0.003048 -0.000254 1.000000 -0.002742 -0.000242 1.000000 -0.002713 -0.000232 1.000000 -0.002417 -0.000213 1.000000 -0.002409 -0.000193 1.000000 -0.002134 -0.000167 1.000000 -0.002153 -0.000139 1.000000 -0.001910 -0.000106 1.000000 -0.001964 -0.000069 1.000000 -0.001762 -0.000029 1.000000 -0.001858 0.000016 1.000000 -0.001706 0.000062 1.000000 -0.001850 0.000112 1.000000 -0.001756 0.000162 1.000000 -0.001952 0.000216 1.000000 -0.001919 0.000267 1.000000 -0.002168 0.000319 1.000000 -0.002197 0.000366 1.000000 -0.002495 0.000412 1.000000 -0.002580 0.000451 1.000000 -0.002920 0.000486 1.000000 -0.003049 0.000510 1.000000 -0.003414 0.000526 1.000000 -0.003570 0.000529 1.000000 -0.003939 0.000521 1.000000 -0.004097 0.000497 1.000000 -0.004440 0.000461 1.000000 -0.004572 0.000406 1.000000 -0.004858 0.000340 1.000000 -0.004930 0.000253 1.000000 -0.005124 0.000159 1.000000 -0.005107 0.000041 1.000000 -0.005177 -0.000076 1.000000 -0.005044 -0.000218 1.000000 -0.004964 -0.000351 1.000000 -0.004697 -0.000508 1.000000 -0.004449 -0.000647 1.000000 -0.004041 -0.000808 1.000000 -0.003619 -0.000943 1.000000 -0.003072 -0.001098 1.000000 -0.002483 -0.001219 1.000000 -0.001811 -0.001354 1.000000 -0.001074 -0.001451 1.000000 -0.000303 -0.001555 1.000000 0.000548 -0.001620 1.000000 0.001385 -0.001679 1.000000 0.002303 -0.001700 1.000000 0.003159 -0.001703 1.000000 0.004082 -0.001670 1.000000 0.004898 -0.001607 1.000000 0.005754 -0.001514 1.000000 0.006466 -0.001385 1.000000 0.007181 -0.001237 1.000000 0.007727 -0.001057 1.000000 0.008243 -0.000874 1.000000 0.008582 -0.000673 1.000000 0.008875 -0.000490 1.000000 0.009004 -0.000313 1.000000 0.009101 -0.000170 1.000000 0.009062 -0.000058 1.000000 0.009039 0.000017 1.000000 0.008911 0.000041 1.000000 0.008870 0.000048 1.000000 0.008733 -0.000005 1.000000 0.008768 -0.000032 1.000000 0.008669 -0.000114 1.000000 0.008816 -0.000130 1.000000 0.008746 -0.000177 1.000000 0.008968 -0.000142 1.000000 0.008868 -0.000103 1.000000 0.009061 -0.000002 1.000000 0.008853 0.000142 1.000000 0.008898 0.000302 1.000000 0.008514 0.000528 1.000000 0.008311 0.000711 1.000000 0.007720 0.000939 1.000000 0.007262 0.001075 1.000000 0.006520 0.001188 1.000000 0.005951 0.001235 1.000000 0.005165 0.001239 1.000000 0.004606 0.001225 1.000000 0.003839 0.001179 1.000000 0.003336 0.001141 1.000000 0.002609 0.001083 1.000000 0.002167 0.001040 1.000000 0.001484 0.000985 1.000000 0.001097 0.000942 1.000000 0.000460 0.000893 1.000000 0.000121 0.000850 1.000000 -0.000469 0.000808 1.000000 -0.000767 0.000765 1.000000 -0.001308 0.000727 1.000000 -0.001568 0.000685 1.000000 -0.002059 0.000650 1.000000 -0.002286 0.000607 1.000000 -0.002725 0.000575 1.000000 -0.002922 0.000533 1.000000 -0.003307 0.000503 1.000000 -0.003477 0.000460 1.000000 -0.003806 0.000431 1.000000 
-0.003157 0.000624 1.000000 -0.003380 0.000587 1.000000 -0.003517 0.000499 1.000000 -0.003696 0.000464 1.000000 -0.003806 0.000375 1.000000 -0.003943 0.000341 1.000000 -0.004026 0.000252 1.000000 -0.004119 0.000219 1.000000 -0.004177 0.000131 1.000000 -0.004227 0.000100 1.000000 -0.004260 0.000014 1.000000 -0.004268 -0.000015 1.000000 -0.004278 -0.000097 1.000000 -0.004247 -0.000123 1.000000 -0.004234 -0.000200 1.000000 -0.004166 -0.000223 1.000000 -0.004134 -0.000293 1.000000 -0.004032 -0.000312 1.000000 -0.003983 -0.000373 1.000000 -0.003851 -0.000388 1.000000 -0.003788 -0.000440 1.000000 -0.003631 -0.000449 1.000000 -0.003558 -0.000490 1.000000 -0.003382 -0.000493 1.000000 -0.003303 -0.000521 1.000000 -0.003113 -0.000517 1.000000 -0.003033 -0.000531 1.000000 -0.002838 -0.000520 1.000000 -0.002763 -0.000519 1.000000 -0.002569 -0.000498 1.000000 -0.002505 -0.000483 1.000000 -0.002322 -0.000452 1.000000 -0.002277 -0.000421 1.000000 -0.002113 -0.000379 1.000000 -0.002093 -0.000332 1.000000 -0.001958 -0.000280 1.000000 -0.001972 -0.000218 1.000000 -0.001875 -0.000156 1.000000 -0.001930 -0.000080 1.000000 -0.001879 -0.000009 1.000000 -0.001982 0.000076 1.000000 -0.001985 0.000153 1.000000 -0.002141 0.000245 1.000000 -0.002200 0.000323 1.000000 -0.002412 0.000414 1.000000 -0.002528 0.000487 1.000000 -0.002793 0.000570 1.000000 -0.002962 0.000630 1.000000 -0.003272 0.000695 1.000000 -0.003480 0.000732 1.000000 -0.003821 0.000770 1.000000 -0.004051 0.000774 1.000000 -0.004401 0.000776 1.000000 -0.004628 0.000738 1.000000 -0.004957 0.000696 1.000000 -0.005150 0.000610 1.000000 -0.005425 0.000522 1.000000 -0.005551 0.000385 1.000000 -0.005737 0.000251 1.000000 -0.005764 0.000066 1.000000 -0.005826 -0.000105 1.000000 -0.005728 -0.000329 1.000000 -0.005640 -0.000527 1.000000 -0.005399 -0.000777 1.000000 -0.005144 -0.000987 1.000000 -0.004753 -0.001244 1.000000 -0.004326 -0.001450 1.000000 -0.003790 -0.001697 1.000000 -0.003197 -0.001882 1.000000 -0.002531 -0.002100 1.000000 -0.001790 -0.002248 1.000000 -0.001017 -0.002415 1.000000 -0.000159 -0.002511 1.000000 0.000689 -0.002608 1.000000 0.001618 -0.002633 1.000000 0.002497 -0.002639 1.000000 0.003438 -0.002579 1.000000 0.004289 -0.002479 1.000000 0.005167 -0.002324 1.000000 0.005921 -0.002117 1.000000 0.006654 -0.001873 1.000000 0.007240 -0.001582 1.000000 0.007759 -0.001280 1.000000 0.008126 -0.000957 1.000000 0.008400 -0.000652 1.000000 0.008543 -0.000368 1.000000 0.008596 -0.000125 1.000000 0.008567 0.000050 1.000000 0.008484 0.000184 1.000000 0.008377 0.000212 1.000000 0.008277 0.000231 1.000000 0.008188 0.000128 1.000000 0.008181 0.000081 1.000000 0.008158 -0.000074 1.000000 0.008289 -0.000108 1.000000 0.008314 -0.000207 1.000000 0.008538 -0.000158 1.000000 0.008541 -0.000110 1.000000 0.008748 0.000051 1.000000 0.008653 0.000271 1.000000 0.008712 0.000531 1.000000 0.008443 0.000887 1.000000 0.008225 0.001187 1.000000 0.007734 0.001552 1.000000 0.007197 0.001772 1.000000 0.006544 0.001939 1.000000 0.005904 0.002009 1.000000 0.005226 0.002004 1.000000 0.004624 0.001981 1.000000 0.003979 0.001903 1.000000 0.003448 0.001846 1.000000 0.002846 0.001756 1.000000 0.002379 0.001690 1.000000 0.001819 0.001607 1.000000 0.001406 0.001538 1.000000 0.000888 0.001466 1.000000 0.000521 0.001395 1.000000 0.000044 0.001332 1.000000 -0.000281 0.001258 1.000000 -0.000716 0.001203 1.000000 -0.001004 0.001127 1.000000 -0.001397 0.001078 1.000000 -0.001651 0.000999 1.000000 -0.002002 0.000954 1.000000 -0.002225 0.000873 1.000000 -0.002533 0.000832 1.000000 -0.002726 0.000749 1.000000 -0.002992 0.000709 1.000000 
-0.004073 0.000776 1.000000 -0.004346 0.000720 1.000000 -0.004464 0.000634 1.000000 -0.004679 0.000580 1.000000 -0.004773 0.000493 1.000000 -0.004927 0.000440 1.000000 -0.004999 0.000354 1.000000 -0.005093 0.000303 1.000000 -0.005142 0.000218 1.000000 -0.005175 0.000169 1.000000 -0.005204 0.000086 1.000000 -0.005178 0.000040 1.000000 -0.005187 -0.000039 1.000000 -0.005104 -0.000082 1.000000 -0.005096 -0.000156 1.000000 -0.004960 -0.000195 1.000000 -0.004935 -0.000262 1.000000 -0.004751 -0.000295 1.000000 -0.004713 -0.000354 1.000000 -0.004486 -0.000381 1.000000 -0.004437 -0.000430 1.000000 -0.004175 -0.000450 1.000000 -0.004118 -0.000488 1.000000 -0.003828 -0.000499 1.000000 -0.003768 -0.000525 1.000000 -0.003458 -0.000526 1.000000 -0.003400 -0.000537 1.000000 -0.003079 -0.000527 1.000000 -0.003027 -0.000523 1.000000 -0.002706 -0.000500 1.000000 -0.002667 -0.000479 1.000000 -0.002355 -0.000442 1.000000 -0.002336 -0.000403 1.000000 -0.002046 -0.000351 1.000000 -0.002054 -0.000294 1.000000 -0.001796 -0.000227 1.000000 -0.001839 -0.000152 1.000000 -0.001624 -0.000070 1.000000 -0.001711 0.000020 1.000000 -0.001550 0.000115 1.000000 -0.001688 0.000218 1.000000 -0.001588 0.000321 1.000000 -0.001782 0.000431 1.000000 -0.001750 0.000538 1.000000 -0.002004 0.000647 1.000000 -0.002041 0.000748 1.000000 -0.002353 0.000846 1.000000 -0.002455 0.000930 1.000000 -0.002817 0.001004 1.000000 -0.002974 0.001059 1.000000 -0.003372 0.001097 1.000000 -0.003565 0.001108 1.000000 -0.003975 0.001097 1.000000 -0.004177 0.001053 1.000000 -0.004568 0.000983 1.000000 -0.004746 0.000874 1.000000 -0.005083 0.000741 1.000000 -0.005201 0.000564 1.000000 -0.005443 0.000371 1.000000 -0.005464 0.000131 1.000000 -0.005573 -0.000112 1.000000 -0.005466 -0.000404 1.000000 -0.005411 -0.000680 1.000000 -0.005156 -0.001004 1.000000 -0.004917 -0.001293 1.000000 -0.004504 -0.001627 1.000000 -0.004071 -0.001906 1.000000 -0.003504 -0.002227 1.000000 -0.002885 -0.002478 1.000000 -0.002177 -0.002760 1.000000 -0.001390 -0.002966 1.000000 -0.000566 -0.003186 1.000000 0.000356 -0.003325 1.000000 0.001263 -0.003456 1.000000 0.002271 -0.003508 1.000000 0.003212 -0.003522 1.000000 0.004240 -0.003462 1.000000 0.005150 -0.003336 1.000000 0.006111 -0.003146 1.000000 0.006909 -0.002872 1.000000 0.007706 -0.002556 1.000000 0.008305 -0.002162 1.000000 0.008849 -0.001761 1.000000 0.009183 -0.001314 1.000000 0.009430 -0.000907 1.000000 0.009488 -0.000509 1.000000 0.009466 -0.000194 1.000000 0.009307 0.000054 1.000000 0.009123 0.000207 1.000000 0.008863 0.000248 1.000000 0.008672 0.000237 1.000000 0.008440 0.000091 1.000000 0.008388 -0.000003 1.000000 0.008258 -0.000223 1.000000 0.008408 -0.000286 1.000000 0.008362 -0.000426 1.000000 0.008668 -0.000370 1.000000 0.008620 -0.000313 1.000000 0.008928 -0.000113 1.000000 0.008774 0.000178 1.000000 0.008929 0.000511 1.000000 0.008583 0.001015 1.000000 0.008417 0.001420 1.000000 0.007806 0.001966 1.000000 0.007233 0.002265 1.000000 0.006433 0.002481 1.000000 0.005779 0.002553 1.000000 0.004973 0.002520 1.000000 0.004398 0.002472 1.000000 0.003636 0.002354 1.000000 0.003147 0.002274 1.000000 0.002428 0.002151 1.000000 0.002004 0.002067 1.000000 0.001324 0.001958 1.000000 0.000952 0.001873 1.000000 0.000314 0.001778 1.000000 -0.000015 0.001694 1.000000 -0.000607 0.001610 1.000000 -0.000896 0.001525 1.000000 -0.001439 0.001450 1.000000 -0.001694 0.001366 1.000000 -0.002187 0.001297 1.000000 -0.002410 0.001212 1.000000 -0.002850 0.001149 1.000000 -0.003045 0.001064 1.000000 -0.003432 0.001004 1.000000 -0.003599 0.000919 1.000000 -0.003930 0.000862 1.000000 
-0.003298 0.001040 1.000000 -0.003522 0.000978 1.000000 -0.003657 0.000832 1.000000 -0.003837 0.000773 1.000000 -0.003946 0.000624 1.000000 -0.004082 0.000567 1.000000 -0.004164 0.000417 1.000000 -0.004255 0.000362 1.000000 -0.004311 0.000213 1.000000 -0.004359 0.000162 1.000000 -0.004389 0.000017 1.000000 -0.004394 -0.000032 1.000000 -0.004400 -0.000171 1.000000 -0.004364 -0.000215 1.000000 -0.004347 -0.000344 1.000000 -0.004272 -0.000384 1.000000 -0.004234 -0.000502 1.000000 -0.004124 -0.000535 1.000000 -0.004069 -0.000638 1.000000 -0.003927 -0.000664 1.000000 -0.003857 -0.000751 1.000000 -0.003689 -0.000768 1.000000 -0.003607 -0.000836 1.000000 -0.003418 -0.000843 1.000000 -0.003329 -0.000891 1.000000 -0.003126 -0.000886 1.000000 -0.003034 -0.000911 1.000000 -0.002823 -0.000892 1.000000 -0.002736 -0.000892 1.000000 -0.002525 -0.000859 1.000000 -0.002447 -0.000833 1.000000 -0.002247 -0.000783 1.000000 -0.002186 -0.000730 1.000000 -0.002004 -0.000662 1.000000 -0.001969 -0.000582 1.000000 -0.001816 -0.000495 1.000000 -0.001815 -0.000390 1.000000 -0.001703 -0.000284 1.000000 -0.001745 -0.000155 1.000000 -0.001682 -0.000033 1.000000 -0.001776 0.000114 1.000000 -0.001771 0.000248 1.000000 -0.001925 0.000407 1.000000 -0.001985 0.000545 1.000000 -0.002202 0.000705 1.000000 -0.002330 0.000836 1.000000 -0.002611 0.000984 1.000000 -0.002803 0.001094 1.000000 -0.003142 0.001214 1.000000 -0.003388 0.001286 1.000000 -0.003771 0.001360 1.000000 -0.004051 0.001377 1.000000 -0.004456 0.001388 1.000000 -0.004742 0.001332 1.000000 -0.005136 0.001266 1.000000 -0.005392 0.001125 1.000000 -0.005735 0.000976 1.000000 -0.005921 0.000744 1.000000 -0.006170 0.000514 1.000000 -0.006247 0.000196 1.000000 -0.006361 -0.000103 1.000000 -0.006295 -0.000491 1.000000 -0.006240 -0.000837 1.000000 -0.006011 -0.001272 1.000000 -0.005766 -0.001639 1.000000 -0.005367 -0.002090 1.000000 -0.004925 -0.002449 1.000000 -0.004362 -0.002884 1.000000 -0.003730 -0.003209 1.000000 -0.003018 -0.003594 1.000000 -0.002215 -0.003859 1.000000 -0.001376 -0.004162 1.000000 -0.000430 -0.004339 1.000000 0.000505 -0.004523 1.000000 0.001551 -0.004583 1.000000 0.002541 -0.004608 1.000000 0.003620 -0.004517 1.000000 0.004600 -0.004351 1.000000 0.005621 -0.004083 1.000000 0.006496 -0.003712 1.000000 0.007343 -0.003268 1.000000 0.008006 -0.002725 1.000000 0.008568 -0.002159 1.000000 0.008928 -0.001538 1.000000 0.009139 -0.000957 1.000000 0.009175 -0.000403 1.000000 0.009061 0.000056 1.000000 0.008851 0.000394 1.000000 0.008539 0.000628 1.000000 0.008242 0.000662 1.000000 0.007923 0.000654 1.000000 0.007707 0.000413 1.000000 0.007569 0.000264 1.000000 0.007504 -0.000094 1.000000 0.007626 -0.000212 1.000000 0.007667 -0.000467 1.000000 0.007979 -0.000416 1.000000 0.008020 -0.000370 1.000000 0.008363 -0.000103 1.000000 0.008318 0.000271 1.000000 0.008539 0.000721 1.000000 0.008335 0.001399 1.000000 0.008204 0.001965 1.000000 0.007714 0.002735 1.000000 0.007003 0.003145 1.000000 0.006293 0.003393 1.000000 0.005561 0.003469 1.000000 0.004889 0.003386 1.000000 0.004294 0.003318 1.000000 0.003680 0.003154 1.000000 0.003183 0.003055 1.000000 0.002603 0.002899 1.000000 0.002165 0.002793 1.000000 0.001614 0.002659 1.000000 0.001221 0.002548 1.000000 0.000705 0.002432 1.000000 0.000351 0.002315 1.000000 -0.000125 0.002214 1.000000 -0.000442 0.002091 1.000000 -0.000876 0.002001 1.000000 -0.001158 0.001874 1.000000 -0.001550 0.001793 1.000000 -0.001800 0.001663 1.000000 -0.002150 0.001589 1.000000 -0.002370 0.001455 1.000000 -0.002678 0.001386 1.000000 -0.002869 0.001247 1.000000 -0.003135 0.001183 1.000000 
-0.004277 0.001163 1.000000 -0.004554 0.001079 1.000000 -0.004670 0.000950 1.000000 -0.004887 0.000868 1.000000 -0.004979 0.000738 1.000000 -0.005134 0.000658 1.000000 -0.005204 0.000528 1.000000 -0.005296 0.000450 1.000000 -0.005343 0.000322 1.000000 -0.005372 0.000247 1.000000 -0.005398 0.000121 1.000000 -0.005365 0.000050 1.000000 -0.005370 -0.000069 1.000000 -0.005278 -0.000135 1.000000 -0.005265 -0.000247 1.000000 -0.005117 -0.000307 1.000000 -0.005086 -0.000409 1.000000 -0.004888 -0.000461 1.000000 -0.004842 -0.000551 1.000000 -0.004599 -0.000593 1.000000 -0.004541 -0.000669 1.000000 -0.004260 -0.000700 1.000000 -0.004194 -0.000759 1.000000 -0.003882 -0.000777 1.000000 -0.003811 -0.000817 1.000000 -0.003478 -0.000821 1.000000 -0.003406 -0.000839 1.000000 -0.003061 -0.000826 1.000000 -0.002994 -0.000821 1.000000 -0.002646 -0.000788 1.000000 -0.002591 -0.000757 1.000000 -0.002252 -0.000703 1.000000 -0.002215 -0.000645 1.000000 -0.001898 -0.000568 1.000000 -0.001887 -0.000482 1.000000 -0.001603 -0.000380 1.000000 -0.001628 -0.000266 1.000000 -0.001390 -0.000141 1.000000 -0.001461 -0.000001 1.000000 -0.001280 0.000146 1.000000 -0.001407 0.000307 1.000000 -0.001295 0.000470 1.000000 -0.001486 0.000645 1.000000 -0.001452 0.000815 1.000000 -0.001713 0.000992 1.000000 -0.001762 0.001157 1.000000 -0.002095 0.001319 1.000000 -0.002225 0.001461 1.000000 -0.002625 0.001589 1.000000 -0.002828 0.001688 1.000000 -0.003281 0.001760 1.000000 -0.003537 0.001793 1.000000 -0.004020 0.001788 1.000000 -0.004298 0.001733 1.000000 -0.004775 0.001633 1.000000 -0.005037 0.001473 1.000000 -0.005464 0.001271 1.000000 -0.005663 0.001000 1.000000 -0.005990 0.000697 1.000000 -0.006080 0.000321 1.000000 -0.006260 -0.000064 1.000000 -0.006201 -0.000525 1.000000 -0.006192 -0.000964 1.000000 -0.005958 -0.001478 1.000000 -0.005735 -0.001937 1.000000 -0.005314 -0.002467 1.000000 -0.004866 -0.002911 1.000000 -0.004263 -0.003422 1.000000 -0.003595 -0.003822 1.000000 -0.002827 -0.004276 1.000000 -0.001958 -0.004608 1.000000 -0.001047 -0.004970 1.000000 -0.000006 -0.005207 1.000000 0.001018 -0.005437 1.000000 0.002183 -0.005544 1.000000 0.003273 -0.005592 1.000000 0.004489 -0.005521 1.000000 0.005573 -0.005336 1.000000 0.006731 -0.005042 1.000000 0.007695 -0.004595 1.000000 0.008652 -0.004066 1.000000 0.009357 -0.003386 1.000000 0.009960 -0.002682 1.000000 0.010286 -0.001885 1.000000 0.010440 -0.001154 1.000000 0.010350 -0.000431 1.000000 0.010083 0.000130 1.000000 0.009670 0.000577 1.000000 0.009151 0.000816 1.000000 0.008612 0.000863 1.000000 0.008099 0.000772 1.000000 0.007662 0.000445 1.000000 0.007405 0.000201 1.000000 0.007189 -0.000279 1.000000 0.007298 -0.000449 1.000000 0.007253 -0.000780 1.000000 0.007678 -0.000722 1.000000 0.007664 -0.000697 1.000000 0.008134 -0.000411 1.000000 0.008024 0.000001 1.000000 0.008385 0.000494 1.000000 0.008126 0.001350 1.000000 0.008120 0.002041 1.000000 0.007542 0.003166 1.000000 0.006732 0.003686 1.000000 0.005904 0.003924 1.000000 0.005191 0.003957 1.000000 0.004448 0.003787 1.000000 0.003933 0.003681 1.000000 0.003233 0.003465 1.000000 0.002810 0.003351 1.000000 0.002118 0.003169 1.000000 0.001737 0.003056 1.000000 0.001063 0.002902 1.000000 0.000716 0.002783 1.000000 0.000076 0.002648 1.000000 -0.000236 0.002524 1.000000 -0.000832 0.002403 1.000000 -0.001109 0.002276 1.000000 -0.001657 0.002166 1.000000 -0.001902 0.002040 1.000000 -0.002398 0.001939 1.000000 -0.002614 0.001812 1.000000 -0.003059 0.001719 1.000000 -0.003248 0.001592 1.000000 -0.003639 0.001504 1.000000 -0.003802 0.001376 1.000000 -0.004138 0.001291 1.000000 
-0.003510 0.001456 1.000000 -0.003734 0.001371 1.000000 -0.003868 0.001164 1.000000 -0.004049 0.001082 1.000000 -0.004156 0.000871 1.000000 -0.004292 0.000791 1.000000 -0.004371 0.000578 1.000000 -0.004462 0.000501 1.000000 -0.004514 0.000290 1.000000 -0.004559 0.000216 1.000000 -0.004585 0.000010 1.000000 -0.004585 -0.000059 1.000000 -0.004585 -0.000257 1.000000 -0.004542 -0.000320 1.000000 -0.004518 -0.000506 1.000000 -0.004434 -0.000562 1.000000 -0.004388 -0.000731 1.000000 -0.004266 -0.000779 1.000000 -0.004201 -0.000927 1.000000 -0.004045 -0.000965 1.000000 -0.003964 -0.001090 1.000000 -0.003779 -0.001116 1.000000 -0.003684 -0.001214 1.000000 -0.003476 -0.001226 1.000000 -0.003373 -0.001295 1.000000 -0.003148 -0.001291 1.000000 -0.003039 -0.001328 1.000000 -0.002805 -0.001304 1.000000 -0.002698 -0.001307 1.000000 -0.002462 -0.001262 1.000000 -0.002363 -0.001227 1.000000 -0.002135 -0.001158 1.000000 -0.002051 -0.001085 1.000000 -0.001841 -0.000989 1.000000 -0.001781 -0.000877 1.000000 -0.001601 -0.000754 1.000000 -0.001576 -0.000603 1.000000 -0.001437 -0.000451 1.000000 -0.001458 -0.000265 1.000000 -0.001374 -0.000087 1.000000 -0.001452 0.000130 1.000000 -0.001433 0.000327 1.000000 -0.001580 0.000564 1.000000 -0.001638 0.000772 1.000000 -0.001861 0.001015 1.000000 -0.002003 0.001218 1.000000 -0.002307 0.001447 1.000000 -0.002532 0.001624 1.000000 -0.002915 0.001817 1.000000 -0.003216 0.001942 1.000000 -0.003666 0.002069 1.000000 -0.004023 0.002115 1.000000 -0.004516 0.002149 1.000000 -0.004897 0.002087 1.000000 -0.005395 0.002005 1.000000 -0.005755 0.001814 1.000000 -0.006208 0.001602 1.000000 -0.006495 0.001271 1.000000 -0.006849 0.000931 1.000000 -0.007008 0.000466 1.000000 -0.007207 0.000018 1.000000 -0.007195 -0.000558 1.000000 -0.007194 -0.001080 1.000000 -0.006984 -0.001729 1.000000 -0.006756 -0.002283 1.000000 -0.006342 -0.002958 1.000000 -0.005879 -0.003500 1.000000 -0.005272 -0.004154 1.000000 -0.004585 -0.004645 1.000000 -0.003804 -0.005232 1.000000 -0.002910 -0.005640 1.000000 -0.001977 -0.006113 1.000000 -0.000899 -0.006403 1.000000 0.000166 -0.006711 1.000000 0.001391 -0.006838 1.000000 0.002555 -0.006915 1.000000 0.003862 -0.006817 1.000000 0.005055 -0.006593 1.000000 0.006325 -0.006206 1.000000 0.007418 -0.005632 1.000000 0.008474 -0.004930 1.000000 0.009283 -0.004034 1.000000 0.009926 -0.003087 1.000000 0.010272 -0.002018 1.000000 0.010364 -0.001021 1.000000 0.010185 -0.000047 1.000000 0.009751 0.000736 1.000000 0.009177 0.001325 1.000000 0.008421 0.001686 1.000000 0.007745 0.001715 1.000000 0.006991 0.001604 1.000000 0.006534 0.001106 1.000000 0.006115 0.000737 1.000000 0.005948 0.000013 1.000000 0.005993 -0.000276 1.000000 0.005989 -0.000847 1.000000 0.006360 -0.000827 1.000000 0.006334 -0.000826 1.000000 0.006790 -0.000463 1.000000 0.006718 0.000020 1.000000 0.007202 0.000620 1.000000 0.007114 0.001663 1.000000 0.007335 0.002549 1.000000 0.006997 0.004124 1.000000 0.005927 0.004783 1.000000 0.005284 0.004934 1.000000 0.004595 0.004925 1.000000 0.004105 0.004644 1.000000 0.003671 0.004532 1.000000 0.003174 0.004277 1.000000 0.002785 0.004170 1.000000 0.002248 0.003972 1.000000 0.001864 0.003849 1.000000 0.001321 0.003681 1.000000 0.000955 0.003535 1.000000 0.000439 0.003384 1.000000 0.000102 0.003223 1.000000 -0.000375 0.003087 1.000000 -0.000679 0.002916 1.000000 -0.001113 0.002793 1.000000 -0.001385 0.002616 1.000000 -0.001777 0.002506 1.000000 -0.002020 0.002323 1.000000 -0.002370 0.002223 1.000000 -0.002585 0.002034 1.000000 -0.002894 0.001941 1.000000 -0.003082 0.001746 1.000000 -0.003349 0.001658 1.000000 