# vtk DataFile Version 2.0
Comment goes here
ASCII

DATASET STRUCTURED_POINTS
DIMENSIONS    128   128   1

ORIGIN    0.000   0.000   0.000
SPACING   0.0156250.015625   1.000

POINT_DATA   16384
VECTORS u double

-0.041920 0.000003 1.000000 -0.044442 0.000002 1.000000 -0.045114 0.000003 1.000000 -0.046976 0.000002 1.000000 -0.047239 0.000003 1.000000 -0.048429 0.000002 1.000000 -0.048297 0.000003 1.000000 -0.048814 0.000002 1.000000 -0.048306 0.000003 1.000000 -0.048159 0.000001 1.000000 -0.047300 0.000003 1.000000 -0.046510 0.000001 1.000000 -0.045334 0.000002 1.000000 -0.043935 0.000001 1.000000 -0.042481 0.000002 1.000000 -0.040523 0.000001 1.000000 -0.038840 0.000002 1.000000 -0.036385 0.000000 1.000000 -0.034530 0.000002 1.000000 -0.031657 0.000000 1.000000 -0.029695 0.000001 1.000000 -0.026498 0.000000 1.000000 -0.024505 0.000001 1.000000 -0.021091 0.000000 1.000000 -0.019153 0.000001 1.000000 -0.015647 0.000000 1.000000 -0.013859 0.000002 1.000000 -0.010398 0.000001 1.000000 -0.008867 0.000002 1.000000 -0.005604 0.000001 1.000000 -0.004446 0.000002 1.000000 -0.001545 0.000002 1.000000 -0.000887 0.000003 1.000000 0.001483 0.000003 1.000000 0.001510 0.000004 1.000000 0.003176 0.000004 1.000000 0.002443 0.000005 1.000000 0.003239 0.000005 1.000000 0.001627 0.000006 1.000000 0.001408 0.000007 1.000000 -0.001175 0.000008 1.000000 -0.002518 0.000008 1.000000 -0.006128 0.000009 1.000000 -0.008648 0.000010 1.000000 -0.013277 0.000010 1.000000 -0.016953 0.000011 1.000000 -0.022515 0.000011 1.000000 -0.027230 0.000011 1.000000 -0.033542 0.000011 1.000000 -0.039068 0.000011 1.000000 -0.045841 0.000010 1.000000 -0.051836 0.000010 1.000000 -0.058675 0.000008 1.000000 -0.064687 0.000008 1.000000 -0.071109 0.000005 1.000000 -0.076603 0.000004 1.000000 -0.082068 0.000001 1.000000 -0.086471 -0.000001 1.000000 -0.090434 -0.000005 1.000000 -0.093186 -0.000007 1.000000 -0.095152 -0.000013 1.000000 -0.095773 -0.000015 1.000000 -0.095360 -0.000021 1.000000 -0.093505 -0.000024 1.000000 -0.090494 -0.000030 1.000000 -0.086002 -0.000033 1.000000 -0.080377 -0.000039 1.000000 -0.073303 -0.000042 1.000000 -0.065269 -0.000047 1.000000 -0.055899 -0.000049 1.000000 -0.045891 -0.000054 1.000000 -0.034745 -0.000055 1.000000 -0.023426 -0.000058 1.000000 -0.011241 -0.000057 1.000000 0.000532 -0.000059 1.000000 0.012843 -0.000056 1.000000 0.024079 -0.000056 1.000000 0.035519 -0.000051 1.000000 0.045216 -0.000049 1.000000 0.054848 -0.000043 1.000000 0.062174 -0.000040 1.000000 0.069315 -0.000033 1.000000 0.073801 -0.000028 1.000000 0.078181 -0.000022 1.000000 0.079864 -0.000017 1.000000 0.081699 -0.000011 1.000000 0.081126 -0.000007 1.000000 0.081034 -0.000003 1.000000 0.079117 -0.000000 1.000000 0.077927 0.000003 1.000000 0.075696 0.000004 1.000000 0.074217 0.000006 1.000000 0.072523 0.000006 1.000000 0.071299 0.000007 1.000000 0.070537 0.000007 1.000000 0.069665 0.000007 1.000000 0.069689 0.000007 1.000000 0.068838 0.000007 1.000000 0.069084 0.000007 1.000000 0.067671 0.000007 1.000000 0.067427 0.000007 1.000000 0.064892 0.000008 1.000000 0.063566 0.000008 1.000000 0.059619 0.000009 1.000000 0.057038 0.000009 1.000000 0.051829 0.000009 1.000000 0.048362 0.000008 1.000000 0.042352 0.000008 1.000000 0.038482 0.000007 1.000000 0.032099 0.000006 1.000000 0.028150 0.000006 1.000000 0.021676 0.000005 1.000000 0.017822 0.000005 1.000000 0.011438 0.000004 1.000000 0.007774 0.000004 1.000000 0.001614 0.000003 1.000000 -0.001788 0.000004 1.000000 -0.007614 0.000003 1.000000 -0.010699 0.000003 1.000000 -0.016105 0.000003 1.000000 -0.018829 0.000003 1.000000 -0.023743 0.000003 1.000000 -0.026077 0.000003 1.000000 -0.030448 0.000002 1.000000 -0.032373 0.000003 1.000000 -0.036157 0.000002 1.000000 -0.037665 0.000003 1.000000 -0.040831 0.000002 1.000000 
-0.037485 0.001809 1.000000 -0.039734 0.001599 1.000000 -0.040507 0.001270 1.000000 -0.042179 0.001064 1.000000 -0.042525 0.000729 1.000000 -0.043614 0.000531 1.000000 -0.043544 0.000195 1.000000 -0.044050 0.000006 1.000000 -0.043583 -0.000325 1.000000 -0.043516 -0.000502 1.000000 -0.042676 -0.000822 1.000000 -0.042055 -0.000982 1.000000 -0.040875 -0.001286 1.000000 -0.039731 -0.001426 1.000000 -0.038251 -0.001704 1.000000 -0.036627 -0.001820 1.000000 -0.034897 -0.002067 1.000000 -0.032849 -0.002155 1.000000 -0.030926 -0.002363 1.000000 -0.028523 -0.002417 1.000000 -0.026474 -0.002578 1.000000 -0.023801 -0.002595 1.000000 -0.021702 -0.002702 1.000000 -0.018855 -0.002676 1.000000 -0.016793 -0.002721 1.000000 -0.013887 -0.002647 1.000000 -0.011958 -0.002623 1.000000 -0.009119 -0.002496 1.000000 -0.007431 -0.002396 1.000000 -0.004801 -0.002209 1.000000 -0.003473 -0.002028 1.000000 -0.001206 -0.001778 1.000000 -0.000365 -0.001511 1.000000 0.001379 -0.001196 1.000000 0.001601 -0.000842 1.000000 0.002655 -0.000462 1.000000 0.002127 -0.000026 1.000000 0.002332 0.000413 1.000000 0.000933 0.000921 1.000000 0.000150 0.001408 1.000000 -0.002217 0.001971 1.000000 -0.004095 0.002484 1.000000 -0.007486 0.003074 1.000000 -0.010510 0.003584 1.000000 -0.014923 0.004163 1.000000 -0.019070 0.004630 1.000000 -0.024424 0.005149 1.000000 -0.029575 0.005525 1.000000 -0.035692 0.005930 1.000000 -0.041620 0.006161 1.000000 -0.048214 0.006394 1.000000 -0.054575 0.006427 1.000000 -0.061255 0.006433 1.000000 -0.067595 0.006224 1.000000 -0.073881 0.005963 1.000000 -0.079663 0.005484 1.000000 -0.085017 0.004934 1.000000 -0.089665 0.004181 1.000000 -0.093542 0.003351 1.000000 -0.096497 0.002351 1.000000 -0.098406 0.001280 1.000000 -0.099188 0.000088 1.000000 -0.098748 -0.001156 1.000000 -0.097017 -0.002458 1.000000 -0.094012 -0.003783 1.000000 -0.089613 -0.005093 1.000000 -0.084027 -0.006390 1.000000 -0.077018 -0.007598 1.000000 -0.069053 -0.008751 1.000000 -0.059717 -0.009740 1.000000 -0.049802 -0.010632 1.000000 -0.038651 -0.011289 1.000000 -0.027432 -0.011811 1.000000 -0.015194 -0.012037 1.000000 -0.003513 -0.012102 1.000000 0.008905 -0.011830 1.000000 0.020073 -0.011394 1.000000 0.031669 -0.010620 1.000000 0.041333 -0.009714 1.000000 0.051150 -0.008522 1.000000 0.058483 -0.007272 1.000000 0.065807 -0.005846 1.000000 0.070342 -0.004461 1.000000 0.074881 -0.003053 1.000000 0.076648 -0.001775 1.000000 0.078616 -0.000641 1.000000 0.078146 0.000326 1.000000 0.078188 0.001003 1.000000 0.076354 0.001555 1.000000 0.075340 0.001715 1.000000 0.073132 0.001860 1.000000 0.071898 0.001594 1.000000 0.070147 0.001467 1.000000 0.069234 0.001000 1.000000 0.068348 0.000824 1.000000 0.067846 0.000432 1.000000 0.067710 0.000421 1.000000 0.067282 0.000309 1.000000 0.067363 0.000590 1.000000 0.066439 0.000836 1.000000 0.066030 0.001397 1.000000 0.064053 0.001939 1.000000 0.062546 0.002645 1.000000 0.059204 0.003273 1.000000 0.056408 0.003904 1.000000 0.051836 0.004347 1.000000 0.048157 0.004747 1.000000 0.042820 0.004948 1.000000 0.038760 0.005134 1.000000 0.033072 0.005172 1.000000 0.028946 0.005217 1.000000 0.023169 0.005170 1.000000 0.019138 0.005124 1.000000 0.013438 0.005028 1.000000 0.009597 0.004916 1.000000 0.004099 0.004784 1.000000 0.000519 0.004618 1.000000 -0.004678 0.004459 1.000000 -0.007936 0.004248 1.000000 -0.012751 0.004068 1.000000 -0.015643 0.003823 1.000000 -0.020013 0.003627 1.000000 -0.022506 0.003355 1.000000 -0.026388 0.003150 1.000000 -0.028462 0.002858 1.000000 -0.031821 0.002648 1.000000 -0.033464 0.002340 1.000000 -0.036278 0.002129 1.000000 
-0.042467 0.003460 1.000000 -0.044995 0.003025 1.000000 -0.045659 0.002449 1.000000 -0.047523 0.002020 1.000000 -0.047778 0.001438 1.000000 -0.048967 0.001021 1.000000 -0.048825 0.000439 1.000000 -0.049336 0.000041 1.000000 -0.048815 -0.000532 1.000000 -0.048656 -0.000905 1.000000 -0.047781 -0.001458 1.000000 -0.046974 -0.001800 1.000000 -0.045777 -0.002322 1.000000 -0.044354 -0.002622 1.000000 -0.042876 -0.003102 1.000000 -0.040886 -0.003353 1.000000 -0.039174 -0.003777 1.000000 -0.036680 -0.003971 1.000000 -0.034792 -0.004324 1.000000 -0.031872 -0.004451 1.000000 -0.029874 -0.004721 1.000000 -0.026621 -0.004772 1.000000 -0.024586 -0.004944 1.000000 -0.021111 -0.004909 1.000000 -0.019125 -0.004967 1.000000 -0.015549 -0.004835 1.000000 -0.013708 -0.004766 1.000000 -0.010172 -0.004526 1.000000 -0.008582 -0.004316 1.000000 -0.005237 -0.003957 1.000000 -0.004017 -0.003593 1.000000 -0.001029 -0.003107 1.000000 -0.000306 -0.002581 1.000000 0.002151 -0.001962 1.000000 0.002244 -0.001272 1.000000 0.003993 -0.000522 1.000000 0.003322 0.000328 1.000000 0.004193 0.001199 1.000000 0.002633 0.002189 1.000000 0.002474 0.003157 1.000000 -0.000076 0.004252 1.000000 -0.001384 0.005277 1.000000 -0.004986 0.006424 1.000000 -0.007504 0.007447 1.000000 -0.012159 0.008570 1.000000 -0.015876 0.009511 1.000000 -0.021506 0.010516 1.000000 -0.026309 0.011279 1.000000 -0.032736 0.012056 1.000000 -0.038402 0.012534 1.000000 -0.045335 0.012965 1.000000 -0.051517 0.013051 1.000000 -0.058557 0.013028 1.000000 -0.064792 0.012633 1.000000 -0.071440 0.012073 1.000000 -0.077179 0.011140 1.000000 -0.082877 0.010003 1.000000 -0.087523 0.008525 1.000000 -0.091701 0.006827 1.000000 -0.094670 0.004856 1.000000 -0.096812 0.002678 1.000000 -0.097601 0.000327 1.000000 -0.097306 -0.002192 1.000000 -0.095554 -0.004760 1.000000 -0.092592 -0.007434 1.000000 -0.088130 -0.010018 1.000000 -0.082478 -0.012635 1.000000 -0.075357 -0.015016 1.000000 -0.067220 -0.017348 1.000000 -0.057727 -0.019301 1.000000 -0.047544 -0.021120 1.000000 -0.036204 -0.022424 1.000000 -0.024646 -0.023515 1.000000 -0.012208 -0.023976 1.000000 -0.000154 -0.024158 1.000000 0.012438 -0.023642 1.000000 0.023958 -0.022819 1.000000 0.035657 -0.021311 1.000000 0.045578 -0.019531 1.000000 0.055382 -0.017194 1.000000 0.062798 -0.014696 1.000000 0.069962 -0.011891 1.000000 0.074354 -0.009102 1.000000 0.078587 -0.006328 1.000000 0.079991 -0.003753 1.000000 0.081543 -0.001509 1.000000 0.080563 0.000421 1.000000 0.080121 0.001789 1.000000 0.077761 0.002848 1.000000 0.076231 0.003225 1.000000 0.073622 0.003447 1.000000 0.071890 0.002990 1.000000 0.069978 0.002671 1.000000 0.068643 0.001807 1.000000 0.067853 0.001395 1.000000 0.067008 0.000644 1.000000 0.067152 0.000570 1.000000 0.066424 0.000354 1.000000 0.066874 0.000850 1.000000 0.065622 0.001339 1.000000 0.065607 0.002393 1.000000 0.063220 0.003492 1.000000 0.062063 0.004857 1.000000 0.058201 0.006147 1.000000 0.055660 0.007377 1.000000 0.050487 0.008260 1.000000 0.047062 0.009024 1.000000 0.041117 0.009405 1.000000 0.037340 0.009755 1.000000 0.031043 0.009820 1.000000 0.027203 0.009909 1.000000 0.020802 0.009813 1.000000 0.017035 0.009735 1.000000 0.010698 0.009545 1.000000 0.007094 0.009344 1.000000 0.000958 0.009081 1.000000 -0.002407 0.008780 1.000000 -0.008223 0.008458 1.000000 -0.011284 0.008076 1.000000 -0.016687 0.007709 1.000000 -0.019395 0.007266 1.000000 -0.024311 0.006866 1.000000 -0.026634 0.006378 1.000000 -0.031008 0.005958 1.000000 -0.032924 0.005437 1.000000 -0.036714 0.005005 1.000000 -0.038214 0.004459 1.000000 -0.041386 0.004023 1.000000 
-0.038518 0.005418 1.000000 -0.040771 0.004791 1.000000 -0.041531 0.003798 1.000000 -0.043205 0.003183 1.000000 -0.043535 0.002173 1.000000 -0.044620 0.001577 1.000000 -0.044530 0.000564 1.000000 -0.045025 -0.000004 1.000000 -0.044531 -0.001005 1.000000 -0.044444 -0.001535 1.000000 -0.043571 -0.002505 1.000000 -0.042919 -0.002987 1.000000 -0.041698 -0.003905 1.000000 -0.040511 -0.004327 1.000000 -0.038982 -0.005173 1.000000 -0.037302 -0.005522 1.000000 -0.035515 -0.006273 1.000000 -0.033397 -0.006537 1.000000 -0.031407 -0.007171 1.000000 -0.028921 -0.007336 1.000000 -0.026796 -0.007829 1.000000 -0.024024 -0.007882 1.000000 -0.021839 -0.008213 1.000000 -0.018880 -0.008138 1.000000 -0.016721 -0.008283 1.000000 -0.013687 -0.008064 1.000000 -0.011651 -0.008001 1.000000 -0.008671 -0.007622 1.000000 -0.006865 -0.007330 1.000000 -0.004082 -0.006774 1.000000 -0.002627 -0.006235 1.000000 -0.000197 -0.005489 1.000000 0.000778 -0.004691 1.000000 0.002687 -0.003745 1.000000 0.003042 -0.002685 1.000000 0.004257 -0.001540 1.000000 0.003854 -0.000226 1.000000 0.004206 0.001102 1.000000 0.002912 0.002641 1.000000 0.002245 0.004118 1.000000 -0.000051 0.005828 1.000000 -0.001860 0.007394 1.000000 -0.005232 0.009194 1.000000 -0.008251 0.010758 1.000000 -0.012713 0.012534 1.000000 -0.016939 0.013976 1.000000 -0.022424 0.015583 1.000000 -0.027751 0.016755 1.000000 -0.034091 0.018022 1.000000 -0.040296 0.018760 1.000000 -0.047206 0.019509 1.000000 -0.053938 0.019648 1.000000 -0.061013 0.019709 1.000000 -0.067799 0.019108 1.000000 -0.074531 0.018350 1.000000 -0.080800 0.016920 1.000000 -0.086613 0.015277 1.000000 -0.091743 0.013005 1.000000 -0.096046 0.010498 1.000000 -0.099428 0.007462 1.000000 -0.101683 0.004211 1.000000 -0.102795 0.000582 1.000000 -0.102587 -0.003203 1.000000 -0.101058 -0.007172 1.000000 -0.098149 -0.011207 1.000000 -0.093807 -0.015207 1.000000 -0.088173 -0.019163 1.000000 -0.081074 -0.022856 1.000000 -0.072918 -0.026381 1.000000 -0.063349 -0.029415 1.000000 -0.053106 -0.032155 1.000000 -0.041586 -0.034188 1.000000 -0.029919 -0.035807 1.000000 -0.017195 -0.036529 1.000000 -0.004981 -0.036748 1.000000 0.007991 -0.035942 1.000000 0.019701 -0.034613 1.000000 0.031821 -0.032240 1.000000 0.041914 -0.029439 1.000000 0.052092 -0.025743 1.000000 0.059596 -0.021852 1.000000 0.066984 -0.017401 1.000000 0.071333 -0.013087 1.000000 0.075580 -0.008690 1.000000 0.076814 -0.004731 1.000000 0.078196 -0.001213 1.000000 0.076961 0.001748 1.000000 0.076278 0.003805 1.000000 0.073612 0.005445 1.000000 0.071910 0.005854 1.000000 0.068978 0.006201 1.000000 0.067252 0.005238 1.000000 0.065064 0.004715 1.000000 0.063935 0.003126 1.000000 0.062950 0.002459 1.000000 0.062496 0.001132 1.000000 0.062553 0.001005 1.000000 0.062340 0.000587 1.000000 0.062796 0.001393 1.000000 0.062169 0.002104 1.000000 0.062221 0.003799 1.000000 0.060551 0.005483 1.000000 0.059402 0.007665 1.000000 0.056260 0.009677 1.000000 0.053531 0.011618 1.000000 0.049056 0.012944 1.000000 0.045471 0.014118 1.000000 0.040295 0.014669 1.000000 0.036443 0.015208 1.000000 0.030952 0.015310 1.000000 0.027054 0.015459 1.000000 0.021437 0.015338 1.000000 0.017584 0.015228 1.000000 0.011986 0.014969 1.000000 0.008261 0.014655 1.000000 0.002817 0.014285 1.000000 -0.000691 0.013799 1.000000 -0.005860 0.013336 1.000000 -0.009074 0.012712 1.000000 -0.013875 0.012179 1.000000 -0.016738 0.011447 1.000000 -0.021102 0.010865 1.000000 -0.023575 0.010052 1.000000 -0.027455 0.009441 1.000000 -0.029513 0.008564 1.000000 -0.032875 0.007938 1.000000 -0.034505 0.007012 1.000000 -0.037323 0.006382 1.000000 
-0.044110 0.006908 1.000000 -0.046653 0.006038 1.000000 -0.047297 0.004883 1.000000 -0.049170 0.004023 1.000000 -0.049400 0.002853 1.000000 -0.050588 0.002016 1.000000 -0.050415 0.000844 1.000000 -0.050911 0.000042 1.000000 -0.050350 -0.001113 1.000000 -0.050159 -0.001866 1.000000 -0.049234 -0.002983 1.000000 -0.048375 -0.003672 1.000000 -0.047118 -0.004730 1.000000 -0.045621 -0.005338 1.000000 -0.044071 -0.006310 1.000000 -0.041986 -0.006821 1.000000 -0.040189 -0.007682 1.000000 -0.037578 -0.008078 1.000000 -0.035592 -0.008800 1.000000 -0.032532 -0.009063 1.000000 -0.030420 -0.009618 1.000000 -0.027006 -0.009729 1.000000 -0.024843 -0.010088 1.000000 -0.021183 -0.010027 1.000000 -0.019053 -0.010160 1.000000 -0.015270 -0.009905 1.000000 -0.013269 -0.009783 1.000000 -0.009505 -0.009312 1.000000 -0.007739 -0.008905 1.000000 -0.004148 -0.008195 1.000000 -0.002737 -0.007478 1.000000 0.000510 -0.006511 1.000000 0.001433 -0.005465 1.000000 0.004154 -0.004227 1.000000 0.004448 -0.002843 1.000000 0.006455 -0.001334 1.000000 0.005973 0.000379 1.000000 0.007078 0.002141 1.000000 0.005679 0.004150 1.000000 0.005708 0.006120 1.000000 0.003267 0.008357 1.000000 0.002077 0.010458 1.000000 -0.001492 0.012816 1.000000 -0.003993 0.014929 1.000000 -0.008719 0.017258 1.000000 -0.012543 0.019222 1.000000 -0.018369 0.021328 1.000000 -0.023427 0.022946 1.000000 -0.030192 0.024601 1.000000 -0.036268 0.025648 1.000000 -0.043680 0.026606 1.000000 -0.050419 0.026858 1.000000 -0.058060 0.026889 1.000000 -0.064971 0.026152 1.000000 -0.072301 0.025075 1.000000 -0.078780 0.023222 1.000000 -0.085182 0.020946 1.000000 -0.090564 0.017957 1.000000 -0.095396 0.014512 1.000000 -0.099022 0.010494 1.000000 -0.101699 0.006046 1.000000 -0.103000 0.001231 1.000000 -0.103065 -0.003929 1.000000 -0.101630 -0.009198 1.000000 -0.098819 -0.014685 1.000000 -0.094454 -0.019994 1.000000 -0.088731 -0.025369 1.000000 -0.081481 -0.030271 1.000000 -0.073053 -0.035073 1.000000 -0.063208 -0.039113 1.000000 -0.052523 -0.042882 1.000000 -0.040622 -0.045612 1.000000 -0.028370 -0.047905 1.000000 -0.015195 -0.048914 1.000000 -0.002308 -0.049344 1.000000 0.011122 -0.048324 1.000000 0.023499 -0.046650 1.000000 0.035986 -0.043525 1.000000 0.046597 -0.039801 1.000000 0.056930 -0.034876 1.000000 0.064634 -0.029588 1.000000 0.071865 -0.023628 1.000000 0.075967 -0.017698 1.000000 0.079731 -0.011809 1.000000 0.080262 -0.006369 1.000000 0.080926 -0.001656 1.000000 0.078679 0.002340 1.000000 0.077167 0.005138 1.000000 0.073434 0.007215 1.000000 0.070872 0.007860 1.000000 0.067095 0.008105 1.000000 0.064597 0.006904 1.000000 0.062028 0.005988 1.000000 0.060364 0.003921 1.000000 0.059499 0.002833 1.000000 0.058725 0.001041 1.000000 0.059218 0.000727 1.000000 0.058835 0.000111 1.000000 0.059861 0.001020 1.000000 0.059050 0.001914 1.000000 0.059737 0.004012 1.000000 0.057806 0.006311 1.000000 0.057228 0.009148 1.000000 0.053666 0.012018 1.000000 0.051221 0.014581 1.000000 0.046205 0.016320 1.000000 0.042966 0.017785 1.000000 0.037298 0.018434 1.000000 0.033885 0.019099 1.000000 0.027897 0.019209 1.000000 0.024421 0.019424 1.000000 0.018248 0.019282 1.000000 0.014746 0.019187 1.000000 0.008538 0.018868 1.000000 0.005101 0.018512 1.000000 -0.000974 0.018033 1.000000 -0.004237 0.017457 1.000000 -0.010030 0.016842 1.000000 -0.013026 0.016091 1.000000 -0.018424 0.015373 1.000000 -0.021087 0.014493 1.000000 -0.026009 0.013703 1.000000 -0.028298 0.012731 1.000000 -0.032684 0.011896 1.000000 -0.034574 0.010857 1.000000 -0.038380 0.009997 1.000000 -0.039859 0.008907 1.000000 -0.043049 0.008036 1.000000 
-0.040585 0.009022 1.000000 -0.042849 0.007978 1.000000 -0.043585 0.006315 1.000000 -0.045264 0.005287 1.000000 -0.045563 0.003591 1.000000 -0.046644 0.002592 1.000000 -0.046514 0.000886 1.000000 -0.046990 -0.000069 1.000000 -0.046444 -0.001756 1.000000 -0.046319 -0.002651 1.000000 -0.045379 -0.004289 1.000000 -0.044667 -0.005104 1.000000 -0.043364 -0.006659 1.000000 -0.042092 -0.007374 1.000000 -0.040465 -0.008808 1.000000 -0.038674 -0.009403 1.000000 -0.036771 -0.010681 1.000000 -0.034514 -0.011135 1.000000 -0.032392 -0.012217 1.000000 -0.029739 -0.012507 1.000000 -0.027463 -0.013355 1.000000 -0.024495 -0.013459 1.000000 -0.022139 -0.014036 1.000000 -0.018955 -0.013928 1.000000 -0.016603 -0.014195 1.000000 -0.013314 -0.013848 1.000000 -0.011063 -0.013767 1.000000 -0.007799 -0.013152 1.000000 -0.005756 -0.012687 1.000000 -0.002664 -0.011775 1.000000 -0.000952 -0.010893 1.000000 0.001808 -0.009659 1.000000 0.003053 -0.008336 1.000000 0.005302 -0.006761 1.000000 0.005932 -0.004985 1.000000 0.007481 -0.003065 1.000000 0.007339 -0.000849 1.000000 0.007997 0.001397 1.000000 0.006928 0.004011 1.000000 0.006511 0.006529 1.000000 0.004374 0.009459 1.000000 0.002725 0.012153 1.000000 -0.000587 0.015264 1.000000 -0.003576 0.017984 1.000000 -0.008115 0.021084 1.000000 -0.012476 0.023627 1.000000 -0.018205 0.026467 1.000000 -0.023863 0.028577 1.000000 -0.030636 0.030863 1.000000 -0.037381 0.032249 1.000000 -0.044915 0.033661 1.000000 -0.052387 0.034028 1.000000 -0.060252 0.034260 1.000000 -0.067938 0.033349 1.000000 -0.075573 0.032160 1.000000 -0.082829 0.029801 1.000000 -0.089575 0.027061 1.000000 -0.095686 0.023219 1.000000 -0.100855 0.018957 1.000000 -0.105109 0.013765 1.000000 -0.108070 0.008188 1.000000 -0.109854 0.001948 1.000000 -0.110119 -0.004572 1.000000 -0.109002 -0.011417 1.000000 -0.106293 -0.018383 1.000000 -0.102079 -0.025295 1.000000 -0.096364 -0.032137 1.000000 -0.089109 -0.038535 1.000000 -0.080601 -0.044654 1.000000 -0.070605 -0.049945 1.000000 -0.059750 -0.054741 1.000000 -0.047541 -0.058341 1.000000 -0.035021 -0.061233 1.000000 -0.021370 -0.062591 1.000000 -0.008113 -0.063065 1.000000 0.005948 -0.061749 1.000000 0.018753 -0.059477 1.000000 0.031946 -0.055338 1.000000 0.042932 -0.050383 1.000000 0.053872 -0.043780 1.000000 0.061746 -0.036788 1.000000 0.069273 -0.028734 1.000000 0.073225 -0.020953 1.000000 0.076838 -0.012985 1.000000 0.076925 -0.005926 1.000000 0.077047 0.000369 1.000000 0.074207 0.005508 1.000000 0.072005 0.009051 1.000000 0.067627 0.011740 1.000000 0.064520 0.012192 1.000000 0.060087 0.012476 1.000000 0.057398 0.010305 1.000000 0.054338 0.008947 1.000000 0.052793 0.005655 1.000000 0.051596 0.004098 1.000000 0.051221 0.001413 1.000000 0.051615 0.000895 1.000000 0.051728 -0.000056 1.000000 0.052840 0.001178 1.000000 0.052693 0.002228 1.000000 0.053691 0.005042 1.000000 0.052656 0.007991 1.000000 0.052411 0.011805 1.000000 0.049797 0.015683 1.000000 0.047131 0.019079 1.000000 0.042961 0.021200 1.000000 0.039709 0.023025 1.000000 0.035041 0.023750 1.000000 0.031781 0.024608 1.000000 0.026786 0.024774 1.000000 0.023415 0.025108 1.000000 0.018128 0.025012 1.000000 0.014625 0.024938 1.000000 0.009203 0.024614 1.000000 0.005684 0.024167 1.000000 0.000327 0.023622 1.000000 -0.003061 0.022856 1.000000 -0.008187 0.022125 1.000000 -0.011325 0.021107 1.000000 -0.016104 0.020240 1.000000 -0.018914 0.019032 1.000000 -0.023269 0.018076 1.000000 -0.025702 0.016727 1.000000 -0.029582 0.015718 1.000000 -0.031610 0.014260 1.000000 -0.034979 0.013223 1.000000 -0.036584 0.011680 1.000000 -0.039412 0.010633 1.000000 
-0.046851 0.010345 1.000000 -0.049425 0.009037 1.000000 -0.050036 0.007298 1.000000 -0.051930 0.006002 1.000000 -0.052121 0.004233 1.000000 -0.053311 0.002966 1.000000 -0.053088 0.001190 1.000000 -0.053563 -0.000028 1.000000 -0.052938 -0.001784 1.000000 -0.052695 -0.002931 1.000000 -0.051689 -0.004635 1.000000 -0.050745 -0.005688 1.000000 -0.049388 -0.007305 1.000000 -0.047771 -0.008237 1.000000 -0.046100 -0.009729 1.000000 -0.043857 -0.010516 1.000000 -0.041920 -0.011841 1.000000 -0.039113 -0.012457 1.000000 -0.036964 -0.013576 1.000000 -0.033671 -0.013993 1.000000 -0.031374 -0.014862 1.000000 -0.027688 -0.015053 1.000000 -0.025315 -0.015628 1.000000 -0.021345 -0.015563 1.000000 -0.018978 -0.015800 1.000000 -0.014849 -0.015445 1.000000 -0.012581 -0.015298 1.000000 -0.008434 -0.014618 1.000000 -0.006373 -0.014040 1.000000 -0.002367 -0.013000 1.000000 -0.000635 -0.011950 1.000000 0.003053 -0.010516 1.000000 0.004317 -0.008959 1.000000 0.007492 -0.007106 1.000000 0.008134 -0.005022 1.000000 0.010588 -0.002741 1.000000 0.010441 -0.000136 1.000000 0.011959 0.002552 1.000000 0.010852 0.005635 1.000000 0.011225 0.008674 1.000000 0.008997 0.012142 1.000000 0.008037 0.015419 1.000000 0.004557 0.019117 1.000000 0.002125 0.022456 1.000000 -0.002682 0.026157 1.000000 -0.006649 0.029313 1.000000 -0.012770 0.032716 1.000000 -0.018221 0.035377 1.000000 -0.025522 0.038119 1.000000 -0.032261 0.039927 1.000000 -0.040459 0.041612 1.000000 -0.048121 0.042196 1.000000 -0.056765 0.042440 1.000000 -0.064809 0.041472 1.000000 -0.073293 0.039966 1.000000 -0.081028 0.037224 1.000000 -0.088628 0.033802 1.000000 -0.095266 0.029237 1.000000 -0.101215 0.023936 1.000000 -0.105966 0.017708 1.000000 -0.109556 0.010791 1.000000 -0.111732 0.003279 1.000000 -0.112412 -0.004782 1.000000 -0.111524 -0.013024 1.000000 -0.108979 -0.021608 1.000000 -0.104798 -0.029923 1.000000 -0.098984 -0.038338 1.000000 -0.091557 -0.046034 1.000000 -0.082694 -0.053578 1.000000 -0.072326 -0.059963 1.000000 -0.060876 -0.065946 1.000000 -0.048120 -0.070341 1.000000 -0.034788 -0.074077 1.000000 -0.020453 -0.075822 1.000000 -0.006223 -0.076661 1.000000 0.008579 -0.075190 1.000000 0.022402 -0.072647 1.000000 0.036241 -0.067704 1.000000 0.048077 -0.061728 1.000000 0.059351 -0.053689 1.000000 0.067603 -0.044989 1.000000 0.074946 -0.035107 1.000000 0.078535 -0.025263 1.000000 0.081408 -0.015510 1.000000 0.080340 -0.006579 1.000000 0.079380 0.001063 1.000000 0.074856 0.007382 1.000000 0.071501 0.011718 1.000000 0.065355 0.014700 1.000000 0.061059 0.015400 1.000000 0.055225 0.015227 1.000000 0.051444 0.012653 1.000000 0.047815 0.010593 1.000000 0.045651 0.006663 1.000000 0.044725 0.004405 1.000000 0.043998 0.001021 1.000000 0.045005 0.000221 1.000000 0.045062 -0.001113 1.000000 0.046822 0.000054 1.000000 0.046508 0.001063 1.000000 0.048338 0.004049 1.000000 0.047140 0.007591 1.000000 0.047880 0.012008 1.000000 0.045051 0.017298 1.000000 0.042644 0.021417 1.000000 0.038145 0.023742 1.000000 0.035544 0.025705 1.000000 0.030690 0.026361 1.000000 0.028193 0.027353 1.000000 0.022869 0.027575 1.000000 0.020087 0.028082 1.000000 0.014281 0.028072 1.000000 0.011190 0.028112 1.000000 0.005142 0.027808 1.000000 0.001932 0.027388 1.000000 -0.004083 0.026778 1.000000 -0.007212 0.025971 1.000000 -0.012988 0.025106 1.000000 -0.015893 0.024008 1.000000 -0.021292 0.022961 1.000000 -0.023888 0.021658 1.000000 -0.028822 0.020491 1.000000 -0.031058 0.019044 1.000000 -0.035467 0.017804 1.000000 -0.037316 0.016253 1.000000 -0.041152 0.014971 1.000000 -0.042597 0.013341 1.000000 -0.045820 0.012037 1.000000 
-0.043687 0.012627 1.000000 -0.045973 0.011163 1.000000 -0.046677 0.008820 1.000000 -0.048370 0.007372 1.000000 -0.048629 0.004973 1.000000 -0.049708 0.003559 1.000000 -0.049523 0.001138 1.000000 -0.049974 -0.000220 1.000000 -0.049354 -0.002624 1.000000 -0.049174 -0.003899 1.000000 -0.048138 -0.006239 1.000000 -0.047337 -0.007406 1.000000 -0.045913 -0.009633 1.000000 -0.044515 -0.010661 1.000000 -0.042743 -0.012722 1.000000 -0.040785 -0.013584 1.000000 -0.038711 -0.015425 1.000000 -0.036248 -0.016090 1.000000 -0.033928 -0.017659 1.000000 -0.031026 -0.018097 1.000000 -0.028524 -0.019338 1.000000 -0.025264 -0.019518 1.000000 -0.022653 -0.020379 1.000000 -0.019131 -0.020265 1.000000 -0.016492 -0.020691 1.000000 -0.012821 -0.020245 1.000000 -0.010247 -0.020181 1.000000 -0.006556 -0.019361 1.000000 -0.004155 -0.018754 1.000000 -0.000592 -0.017514 1.000000 0.001512 -0.016313 1.000000 0.004777 -0.014611 1.000000 0.006440 -0.012775 1.000000 0.009216 -0.010577 1.000000 0.010277 -0.008081 1.000000 0.012353 -0.005372 1.000000 0.012631 -0.002220 1.000000 0.013784 0.000985 1.000000 0.013090 0.004746 1.000000 0.013093 0.008384 1.000000 0.011241 0.012647 1.000000 0.009883 0.016593 1.000000 0.006713 0.021176 1.000000 0.003826 0.025224 1.000000 -0.000771 0.029858 1.000000 -0.005279 0.033715 1.000000 -0.011322 0.038039 1.000000 -0.017428 0.041329 1.000000 -0.024809 0.044903 1.000000 -0.032333 0.047186 1.000000 -0.040778 0.049520 1.000000 -0.049350 0.050334 1.000000 -0.058400 0.050949 1.000000 -0.067449 0.049878 1.000000 -0.076457 0.048378 1.000000 -0.085230 0.045135 1.000000 -0.093410 0.041299 1.000000 -0.101036 0.035807 1.000000 -0.107541 0.029658 1.000000 -0.113142 0.022106 1.000000 -0.117189 0.013954 1.000000 -0.120006 0.004804 1.000000 -0.120993 -0.004781 1.000000 -0.120508 -0.014850 1.000000 -0.118111 -0.025109 1.000000 -0.114109 -0.035290 1.000000 -0.108304 -0.045378 1.000000 -0.100869 -0.054826 1.000000 -0.091906 -0.063884 1.000000 -0.081371 -0.071762 1.000000 -0.069719 -0.078947 1.000000 -0.056619 -0.084429 1.000000 -0.042955 -0.088900 1.000000 -0.028049 -0.091156 1.000000 -0.013324 -0.092097 1.000000 0.002309 -0.090374 1.000000 0.016760 -0.087140 1.000000 0.031611 -0.081013 1.000000 0.044039 -0.073492 1.000000 0.056242 -0.063306 1.000000 0.064756 -0.052382 1.000000 0.072540 -0.039666 1.000000 0.075823 -0.027415 1.000000 0.078336 -0.014790 1.000000 0.076463 -0.003899 1.000000 0.074425 0.005853 1.000000 0.068981 0.013387 1.000000 0.064335 0.018552 1.000000 0.057334 0.022182 1.000000 0.052103 0.022323 1.000000 0.045308 0.022091 1.000000 0.041357 0.017715 1.000000 0.037135 0.014739 1.000000 0.035051 0.008744 1.000000 0.033501 0.005751 1.000000 0.033191 0.001134 1.000000 0.033889 -0.000169 1.000000 0.034084 -0.001873 1.000000 0.035710 -0.000268 1.000000 0.035768 0.000712 1.000000 0.038069 0.004411 1.000000 0.037867 0.008449 1.000000 0.039709 0.013894 1.000000 0.038421 0.020920 1.000000 0.035561 0.025985 1.000000 0.032375 0.028299 1.000000 0.030318 0.030479 1.000000 0.027014 0.031102 1.000000 0.025130 0.032429 1.000000 0.021043 0.032880 1.000000 0.018536 0.033696 1.000000 0.013666 0.033909 1.000000 0.010600 0.034077 1.000000 0.005336 0.033872 1.000000 0.002037 0.033393 1.000000 -0.003259 0.032767 1.000000 -0.006517 0.031760 1.000000 -0.011610 0.030806 1.000000 -0.014657 0.029411 1.000000 -0.019412 0.028234 1.000000 -0.022152 0.026561 1.000000 -0.026494 0.025246 1.000000 -0.028873 0.023372 1.000000 -0.032753 0.021975 1.000000 -0.034740 0.019946 1.000000 -0.038121 0.018505 1.000000 -0.039694 0.016349 1.000000 -0.042543 0.014887 1.000000 