# vtk DataFile Version 2.0
Comment goes here
ASCII

DATASET STRUCTURED_POINTS
DIMENSIONS    128   128   1

ORIGIN    0.000   0.000   0.000
SPACING   0.0156250.015625   1.000

POINT_DATA   16384
VECTORS u double

-0.061421 0.000009 1.000000 -0.065413 0.000008 1.000000 -0.066391 0.000009 1.000000 -0.069413 0.000008 1.000000 -0.069777 0.000009 1.000000 -0.071806 0.000007 1.000000 -0.071574 0.000009 1.000000 -0.072604 0.000007 1.000000 -0.071804 0.000009 1.000000 -0.071844 0.000007 1.000000 -0.070519 0.000009 1.000000 -0.069597 0.000006 1.000000 -0.067797 0.000008 1.000000 -0.065961 0.000006 1.000000 -0.063752 0.000008 1.000000 -0.061073 0.000006 1.000000 -0.058531 0.000007 1.000000 -0.055102 0.000005 1.000000 -0.052317 0.000007 1.000000 -0.048252 0.000005 1.000000 -0.045326 0.000006 1.000000 -0.040764 0.000004 1.000000 -0.037812 0.000006 1.000000 -0.032913 0.000004 1.000000 -0.030066 0.000006 1.000000 -0.025013 0.000004 1.000000 -0.022413 0.000006 1.000000 -0.017410 0.000004 1.000000 -0.015216 0.000006 1.000000 -0.010486 0.000004 1.000000 -0.008869 0.000006 1.000000 -0.004651 0.000005 1.000000 -0.003793 0.000007 1.000000 -0.000337 0.000006 1.000000 -0.000422 0.000008 1.000000 0.002022 0.000007 1.000000 0.000815 0.000009 1.000000 0.002009 0.000009 1.000000 -0.000481 0.000010 1.000000 -0.000742 0.000011 1.000000 -0.004637 0.000012 1.000000 -0.006507 0.000012 1.000000 -0.011865 0.000013 1.000000 -0.015418 0.000014 1.000000 -0.022211 0.000014 1.000000 -0.027412 0.000015 1.000000 -0.035501 0.000015 1.000000 -0.042181 0.000016 1.000000 -0.051290 0.000015 1.000000 -0.059128 0.000015 1.000000 -0.068839 0.000014 1.000000 -0.077354 0.000014 1.000000 -0.087106 0.000011 1.000000 -0.095672 0.000010 1.000000 -0.104789 0.000006 1.000000 -0.112664 0.000005 1.000000 -0.120400 -0.000001 1.000000 -0.126789 -0.000003 1.000000 -0.132397 -0.000010 1.000000 -0.136522 -0.000013 1.000000 -0.139330 -0.000021 1.000000 -0.140515 -0.000025 1.000000 -0.140006 -0.000033 1.000000 -0.137759 -0.000038 1.000000 -0.133641 -0.000047 1.000000 -0.127717 -0.000052 1.000000 -0.119976 -0.000061 1.000000 -0.110427 -0.000065 1.000000 -0.099354 -0.000074 1.000000 -0.086552 -0.000077 1.000000 -0.072756 -0.000084 1.000000 -0.057401 -0.000085 1.000000 -0.041796 -0.000090 1.000000 -0.024889 -0.000088 1.000000 -0.008657 -0.000091 1.000000 0.008558 -0.000086 1.000000 0.024069 -0.000086 1.000000 0.040232 -0.000079 1.000000 0.053670 -0.000075 1.000000 0.067509 -0.000066 1.000000 0.077753 -0.000060 1.000000 0.088329 -0.000049 1.000000 0.094752 -0.000043 1.000000 0.101672 -0.000032 1.000000 0.104311 -0.000025 1.000000 0.107809 -0.000015 1.000000 0.107366 -0.000009 1.000000 0.108195 -0.000002 1.000000 0.105852 0.000003 1.000000 0.105053 0.000007 1.000000 0.102156 0.000010 1.000000 0.100773 0.000012 1.000000 0.098461 0.000013 1.000000 0.097226 0.000013 1.000000 0.096069 0.000013 1.000000 0.095159 0.000013 1.000000 0.095033 0.000013 1.000000 0.094074 0.000012 1.000000 0.094328 0.000012 1.000000 0.092601 0.000012 1.000000 0.092366 0.000013 1.000000 0.089150 0.000013 1.000000 0.087665 0.000014 1.000000 0.082545 0.000014 1.000000 0.079504 0.000015 1.000000 0.072594 0.000014 1.000000 0.068333 0.000014 1.000000 0.060164 0.000013 1.000000 0.055215 0.000013 1.000000 0.046336 0.000012 1.000000 0.041104 0.000012 1.000000 0.031920 0.000010 1.000000 0.026660 0.000011 1.000000 0.017458 0.000009 1.000000 0.012343 0.000010 1.000000 0.003350 0.000009 1.000000 -0.001484 0.000009 1.000000 -0.010086 0.000008 1.000000 -0.014528 0.000009 1.000000 -0.022589 0.000008 1.000000 -0.026551 0.000009 1.000000 -0.033952 0.000008 1.000000 -0.037371 0.000009 1.000000 -0.044017 0.000008 1.000000 -0.046852 0.000009 1.000000 -0.052668 0.000008 1.000000 -0.054892 0.000009 1.000000 -0.059819 0.000008 1.000000 
-0.055436 0.002806 1.000000 -0.059055 0.002492 1.000000 -0.060167 0.002009 1.000000 -0.062927 0.001700 1.000000 -0.063398 0.001205 1.000000 -0.065283 0.000905 1.000000 -0.065131 0.000407 1.000000 -0.066135 0.000122 1.000000 -0.065388 -0.000372 1.000000 -0.065521 -0.000637 1.000000 -0.064219 -0.001116 1.000000 -0.063508 -0.001355 1.000000 -0.061703 -0.001810 1.000000 -0.060192 -0.002017 1.000000 -0.057948 -0.002437 1.000000 -0.055700 -0.002606 1.000000 -0.053096 -0.002979 1.000000 -0.050193 -0.003103 1.000000 -0.047320 -0.003419 1.000000 -0.043867 -0.003492 1.000000 -0.040828 -0.003739 1.000000 -0.036951 -0.003754 1.000000 -0.033864 -0.003920 1.000000 -0.029709 -0.003870 1.000000 -0.026705 -0.003946 1.000000 -0.022442 -0.003823 1.000000 -0.019666 -0.003797 1.000000 -0.015486 -0.003595 1.000000 -0.013098 -0.003457 1.000000 -0.009209 -0.003170 1.000000 -0.007383 -0.002912 1.000000 -0.004013 -0.002534 1.000000 -0.002930 -0.002152 1.000000 -0.000317 -0.001680 1.000000 -0.000166 -0.001173 1.000000 0.001451 -0.000612 1.000000 0.000489 0.000014 1.000000 0.000880 0.000656 1.000000 -0.001357 0.001385 1.000000 -0.002392 0.002088 1.000000 -0.006029 0.002893 1.000000 -0.008637 0.003626 1.000000 -0.013737 0.004468 1.000000 -0.017987 0.005186 1.000000 -0.024526 0.006011 1.000000 -0.030380 0.006659 1.000000 -0.038223 0.007399 1.000000 -0.045510 0.007910 1.000000 -0.054387 0.008488 1.000000 -0.062782 0.008789 1.000000 -0.072279 0.009126 1.000000 -0.081299 0.009147 1.000000 -0.090858 0.009169 1.000000 -0.099873 0.008851 1.000000 -0.108823 0.008501 1.000000 -0.117088 0.007810 1.000000 -0.124686 0.007061 1.000000 -0.131404 0.005995 1.000000 -0.136904 0.004856 1.000000 -0.141299 0.003452 1.000000 -0.144032 0.001975 1.000000 -0.145430 0.000312 1.000000 -0.144884 -0.001413 1.000000 -0.142799 -0.003222 1.000000 -0.138686 -0.005070 1.000000 -0.132882 -0.006886 1.000000 -0.125188 -0.008708 1.000000 -0.115719 -0.010378 1.000000 -0.104733 -0.012013 1.000000 -0.091968 -0.013377 1.000000 -0.078286 -0.014661 1.000000 -0.062913 -0.015566 1.000000 -0.047430 -0.016347 1.000000 -0.030438 -0.016659 1.000000 -0.014311 -0.016815 1.000000 0.003067 -0.016450 1.000000 0.018509 -0.015923 1.000000 0.034909 -0.014879 1.000000 0.048328 -0.013713 1.000000 0.062450 -0.012107 1.000000 0.072738 -0.010469 1.000000 0.083599 -0.008547 1.000000 0.090131 -0.006713 1.000000 0.097301 -0.004809 1.000000 0.100108 -0.003091 1.000000 0.103810 -0.001540 1.000000 0.103566 -0.000200 1.000000 0.104582 0.000758 1.000000 0.102407 0.001576 1.000000 0.101828 0.001857 1.000000 0.099003 0.002152 1.000000 0.097914 0.001862 1.000000 0.095549 0.001788 1.000000 0.094691 0.001211 1.000000 0.093372 0.001048 1.000000 0.092925 0.000532 1.000000 0.092584 0.000556 1.000000 0.092166 0.000366 1.000000 0.092192 0.000750 1.000000 0.091101 0.000994 1.000000 0.090640 0.001739 1.000000 0.088155 0.002365 1.000000 0.086425 0.003317 1.000000 0.082105 0.004095 1.000000 0.078782 0.004991 1.000000 0.072714 0.005600 1.000000 0.068173 0.006229 1.000000 0.060891 0.006572 1.000000 0.055684 0.006927 1.000000 0.047721 0.007068 1.000000 0.042246 0.007220 1.000000 0.033981 0.007233 1.000000 0.028481 0.007241 1.000000 0.020185 0.007168 1.000000 0.014831 0.007064 1.000000 0.006714 0.006922 1.000000 0.001643 0.006727 1.000000 -0.006122 0.006530 1.000000 -0.010795 0.006260 1.000000 -0.018068 0.006020 1.000000 -0.022253 0.005690 1.000000 -0.028926 0.005418 1.000000 -0.032557 0.005041 1.000000 -0.038548 0.004748 1.000000 -0.041579 0.004334 1.000000 -0.046824 0.004028 1.000000 -0.049226 0.003585 1.000000 -0.053677 0.003272 1.000000 
-0.062249 0.005387 1.000000 -0.066247 0.004739 1.000000 -0.067213 0.003881 1.000000 -0.070238 0.003239 1.000000 -0.070587 0.002365 1.000000 -0.072616 0.001740 1.000000 -0.072366 0.000861 1.000000 -0.073388 0.000264 1.000000 -0.072567 -0.000604 1.000000 -0.072591 -0.001162 1.000000 -0.071238 -0.002004 1.000000 -0.070291 -0.002510 1.000000 -0.068459 -0.003308 1.000000 -0.066588 -0.003749 1.000000 -0.064340 -0.004484 1.000000 -0.061615 -0.004847 1.000000 -0.059028 -0.005499 1.000000 -0.055542 -0.005771 1.000000 -0.052706 -0.006319 1.000000 -0.048573 -0.006487 1.000000 -0.045589 -0.006910 1.000000 -0.040948 -0.006960 1.000000 -0.037932 -0.007236 1.000000 -0.032943 -0.007155 1.000000 -0.030025 -0.007261 1.000000 -0.024871 -0.007035 1.000000 -0.022193 -0.006951 1.000000 -0.017080 -0.006564 1.000000 -0.014801 -0.006271 1.000000 -0.009952 -0.005711 1.000000 -0.008245 -0.005191 1.000000 -0.003902 -0.004447 1.000000 -0.002950 -0.003689 1.000000 0.000633 -0.002759 1.000000 0.000642 -0.001760 1.000000 0.003210 -0.000647 1.000000 0.002090 0.000580 1.000000 0.003398 0.001855 1.000000 0.000981 0.003282 1.000000 0.000813 0.004682 1.000000 -0.003029 0.006257 1.000000 -0.004838 0.007720 1.000000 -0.010177 0.009363 1.000000 -0.013709 0.010803 1.000000 -0.020527 0.012408 1.000000 -0.025761 0.013712 1.000000 -0.033926 0.015145 1.000000 -0.040700 0.016179 1.000000 -0.049943 0.017287 1.000000 -0.057940 0.017907 1.000000 -0.067842 0.018530 1.000000 -0.076578 0.018593 1.000000 -0.086570 0.018585 1.000000 -0.095406 0.017975 1.000000 -0.104796 0.017222 1.000000 -0.112974 0.015868 1.000000 -0.120994 0.014315 1.000000 -0.127691 0.012216 1.000000 -0.133566 0.009884 1.000000 -0.137977 0.007115 1.000000 -0.141009 0.004111 1.000000 -0.142432 0.000827 1.000000 -0.142084 -0.002664 1.000000 -0.140005 -0.006235 1.000000 -0.135971 -0.009965 1.000000 -0.130133 -0.013550 1.000000 -0.122392 -0.017224 1.000000 -0.112838 -0.020521 1.000000 -0.101678 -0.023825 1.000000 -0.088779 -0.026524 1.000000 -0.074810 -0.029139 1.000000 -0.059266 -0.030940 1.000000 -0.043410 -0.032565 1.000000 -0.026237 -0.033207 1.000000 -0.009696 -0.033596 1.000000 0.007829 -0.032907 1.000000 0.023657 -0.031927 1.000000 0.040116 -0.029898 1.000000 0.053801 -0.027616 1.000000 0.067839 -0.024475 1.000000 0.078174 -0.021209 1.000000 0.088776 -0.017442 1.000000 0.095069 -0.013745 1.000000 0.101819 -0.010009 1.000000 0.104106 -0.006534 1.000000 0.107276 -0.003472 1.000000 0.106329 -0.000781 1.000000 0.106753 0.001157 1.000000 0.103863 0.002756 1.000000 0.102665 0.003411 1.000000 0.099302 0.003924 1.000000 0.097617 0.003466 1.000000 0.095037 0.003236 1.000000 0.093672 0.002191 1.000000 0.092478 0.001779 1.000000 0.091609 0.000802 1.000000 0.091625 0.000772 1.000000 0.090826 0.000403 1.000000 0.091326 0.001077 1.000000 0.089806 0.001565 1.000000 0.089860 0.002959 1.000000 0.086839 0.004228 1.000000 0.085586 0.006064 1.000000 0.080586 0.007658 1.000000 0.077635 0.009405 1.000000 0.070775 0.010623 1.000000 0.066591 0.011837 1.000000 0.058492 0.012502 1.000000 0.053664 0.013184 1.000000 0.044875 0.013450 1.000000 0.039774 0.013752 1.000000 0.030669 0.013775 1.000000 0.025514 0.013807 1.000000 0.016366 0.013660 1.000000 0.011324 0.013481 1.000000 0.002359 0.013196 1.000000 -0.002427 0.012845 1.000000 -0.011015 0.012446 1.000000 -0.015424 0.011955 1.000000 -0.023479 0.011466 1.000000 -0.027418 0.010868 1.000000 -0.034819 0.010312 1.000000 -0.038220 0.009631 1.000000 -0.044870 0.009030 1.000000 -0.047690 0.008285 1.000000 -0.053512 0.007656 1.000000 -0.055724 0.006863 1.000000 -0.060659 0.006218 1.000000 
-0.057010 0.008394 1.000000 -0.060635 0.007456 1.000000 -0.061723 0.006000 1.000000 -0.064486 0.005074 1.000000 -0.064930 0.003583 1.000000 -0.066810 0.002684 1.000000 -0.066623 0.001179 1.000000 -0.067612 0.000323 1.000000 -0.066821 -0.001169 1.000000 -0.066925 -0.001965 1.000000 -0.065569 -0.003416 1.000000 -0.064812 -0.004135 1.000000 -0.062942 -0.005513 1.000000 -0.061366 -0.006136 1.000000 -0.059045 -0.007410 1.000000 -0.056713 -0.007917 1.000000 -0.054019 -0.009052 1.000000 -0.051013 -0.009426 1.000000 -0.048037 -0.010388 1.000000 -0.044460 -0.010608 1.000000 -0.041305 -0.011364 1.000000 -0.037283 -0.011411 1.000000 -0.034066 -0.011925 1.000000 -0.029745 -0.011778 1.000000 -0.026597 -0.012018 1.000000 -0.022147 -0.011655 1.000000 -0.019214 -0.011589 1.000000 -0.014826 -0.010988 1.000000 -0.012267 -0.010585 1.000000 -0.008153 -0.009726 1.000000 -0.006144 -0.008962 1.000000 -0.002536 -0.007829 1.000000 -0.001264 -0.006687 1.000000 0.001593 -0.005272 1.000000 0.001933 -0.003749 1.000000 0.003789 -0.002060 1.000000 0.003004 -0.000173 1.000000 0.003614 0.001764 1.000000 0.001528 0.003970 1.000000 0.000675 0.006098 1.000000 -0.002856 0.008544 1.000000 -0.005342 0.010773 1.000000 -0.010400 0.013340 1.000000 -0.014611 0.015537 1.000000 -0.021195 0.018062 1.000000 -0.027114 0.020058 1.000000 -0.035104 0.022338 1.000000 -0.042577 0.023927 1.000000 -0.051716 0.025728 1.000000 -0.060426 0.026687 1.000000 -0.070297 0.027763 1.000000 -0.079756 0.027874 1.000000 -0.089787 0.027997 1.000000 -0.099340 0.027077 1.000000 -0.108827 0.026069 1.000000 -0.117692 0.024007 1.000000 -0.125848 0.021778 1.000000 -0.133174 0.018567 1.000000 -0.139199 0.015142 1.000000 -0.144154 0.010895 1.000000 -0.147329 0.006430 1.000000 -0.149189 0.001387 1.000000 -0.148960 -0.003840 1.000000 -0.147201 -0.009334 1.000000 -0.143255 -0.014941 1.000000 -0.137618 -0.020465 1.000000 -0.129932 -0.026003 1.000000 -0.120461 -0.031091 1.000000 -0.109318 -0.036072 1.000000 -0.096379 -0.040245 1.000000 -0.082380 -0.044174 1.000000 -0.066659 -0.046966 1.000000 -0.050711 -0.049376 1.000000 -0.033213 -0.050373 1.000000 -0.016510 -0.050881 1.000000 0.001477 -0.049803 1.000000 0.017516 -0.048210 1.000000 0.034515 -0.045023 1.000000 0.048403 -0.041436 1.000000 0.062948 -0.036479 1.000000 0.073402 -0.031407 1.000000 0.084347 -0.025443 1.000000 0.090622 -0.019755 1.000000 0.097462 -0.013846 1.000000 0.099603 -0.008548 1.000000 0.102631 -0.003764 1.000000 0.101455 0.000322 1.000000 0.101627 0.003224 1.000000 0.098444 0.005664 1.000000 0.097050 0.006418 1.000000 0.093339 0.007200 1.000000 0.091656 0.006126 1.000000 0.088747 0.005733 1.000000 0.087629 0.003769 1.000000 0.086175 0.003111 1.000000 0.085798 0.001385 1.000000 0.085677 0.001339 1.000000 0.085540 0.000664 1.000000 0.086017 0.001770 1.000000 0.085312 0.002460 1.000000 0.085423 0.004706 1.000000 0.083342 0.006638 1.000000 0.082099 0.009571 1.000000 0.078056 0.012046 1.000000 0.074900 0.014801 1.000000 0.068962 0.016644 1.000000 0.064584 0.018513 1.000000 0.057479 0.019500 1.000000 0.052535 0.020544 1.000000 0.044785 0.020957 1.000000 0.039584 0.021427 1.000000 0.031496 0.021493 1.000000 0.026210 0.021545 1.000000 0.018030 0.021358 1.000000 0.012819 0.021070 1.000000 0.004771 0.020672 1.000000 -0.000208 0.020101 1.000000 -0.007934 0.019527 1.000000 -0.012546 0.018725 1.000000 -0.019797 0.018014 1.000000 -0.023938 0.017029 1.000000 -0.030600 0.016220 1.000000 -0.034197 0.015092 1.000000 -0.040185 0.014217 1.000000 -0.043189 0.012977 1.000000 -0.048436 0.012062 1.000000 -0.050816 0.010731 1.000000 -0.055273 0.009797 1.000000 
-0.064729 0.010750 1.000000 -0.068751 0.009452 1.000000 -0.069679 0.007732 1.000000 -0.072719 0.006445 1.000000 -0.073025 0.004688 1.000000 -0.075053 0.003433 1.000000 -0.074750 0.001663 1.000000 -0.075752 0.000462 1.000000 -0.074865 -0.001291 1.000000 -0.074843 -0.002414 1.000000 -0.073410 -0.004117 1.000000 -0.072388 -0.005137 1.000000 -0.070458 -0.006754 1.000000 -0.068481 -0.007645 1.000000 -0.066118 -0.009137 1.000000 -0.063255 -0.009873 1.000000 -0.060535 -0.011199 1.000000 -0.056878 -0.011754 1.000000 -0.053890 -0.012872 1.000000 -0.049552 -0.013219 1.000000 -0.046398 -0.014087 1.000000 -0.041519 -0.014199 1.000000 -0.038312 -0.014773 1.000000 -0.033053 -0.014623 1.000000 -0.029922 -0.014859 1.000000 -0.024466 -0.014418 1.000000 -0.021555 -0.014273 1.000000 -0.016108 -0.013511 1.000000 -0.013576 -0.012943 1.000000 -0.008368 -0.011834 1.000000 -0.006389 -0.010808 1.000000 -0.001669 -0.009327 1.000000 -0.000433 -0.007818 1.000000 0.003537 -0.005956 1.000000 0.003829 -0.003956 1.000000 0.006776 -0.001718 1.000000 0.005924 0.000754 1.000000 0.007581 0.003331 1.000000 0.005396 0.006222 1.000000 0.005519 0.009066 1.000000 0.001842 0.012273 1.000000 0.000236 0.015265 1.000000 -0.005036 0.018632 1.000000 -0.008491 0.021598 1.000000 -0.015370 0.024911 1.000000 -0.020685 0.027622 1.000000 -0.029068 0.030609 1.000000 -0.036108 0.032791 1.000000 -0.045743 0.035136 1.000000 -0.054202 0.036488 1.000000 -0.064669 0.037859 1.000000 -0.074057 0.038083 1.000000 -0.084765 0.038169 1.000000 -0.094410 0.037015 1.000000 -0.104619 0.035574 1.000000 -0.113702 0.032888 1.000000 -0.122574 0.029797 1.000000 -0.130196 0.025567 1.000000 -0.136875 0.020864 1.000000 -0.142145 0.015244 1.000000 -0.145854 0.009145 1.000000 -0.147990 0.002458 1.000000 -0.148129 -0.004652 1.000000 -0.146558 -0.011940 1.000000 -0.142783 -0.019547 1.000000 -0.137211 -0.026873 1.000000 -0.129482 -0.034381 1.000000 -0.119934 -0.041134 1.000000 -0.108536 -0.047907 1.000000 -0.095375 -0.053462 1.000000 -0.080918 -0.058859 1.000000 -0.064847 -0.062609 1.000000 -0.048269 -0.066012 1.000000 -0.030329 -0.067408 1.000000 -0.012886 -0.068286 1.000000 0.005558 -0.066933 1.000000 0.022335 -0.064965 1.000000 0.039687 -0.060786 1.000000 0.054136 -0.056049 1.000000 0.068782 -0.049474 1.000000 0.079406 -0.042608 1.000000 0.090086 -0.034663 1.000000 0.095978 -0.026860 1.000000 0.102183 -0.018990 1.000000 0.103372 -0.011703 1.000000 0.105518 -0.005324 1.000000 0.103010 0.000223 1.000000 0.102201 0.004169 1.000000 0.097625 0.007334 1.000000 0.095222 0.008516 1.000000 0.090419 0.009318 1.000000 0.087822 0.008057 1.000000 0.084440 0.007263 1.000000 0.082695 0.004763 1.000000 0.081415 0.003611 1.000000 0.080651 0.001299 1.000000 0.081078 0.001029 1.000000 0.080729 0.000064 1.000000 0.081916 0.001305 1.000000 0.080967 0.002158 1.000000 0.081890 0.004928 1.000000 0.079459 0.007552 1.000000 0.078988 0.011351 1.000000 0.074398 0.014856 1.000000 0.071702 0.018499 1.000000 0.065037 0.020940 1.000000 0.061149 0.023320 1.000000 0.053346 0.024550 1.000000 0.048970 0.025877 1.000000 0.040513 0.026402 1.000000 0.035846 0.027041 1.000000 0.026991 0.027149 1.000000 0.022154 0.027273 1.000000 0.013154 0.027051 1.000000 0.008319 0.026740 1.000000 -0.000570 0.026224 1.000000 -0.005222 0.025549 1.000000 -0.013775 0.024784 1.000000 -0.018093 0.023818 1.000000 -0.026137 0.022859 1.000000 -0.030008 0.021671 1.000000 -0.037410 0.020571 1.000000 -0.040759 0.019215 1.000000 -0.047421 0.018021 1.000000 -0.050198 0.016537 1.000000 -0.056041 0.015283 1.000000 -0.058215 0.013699 1.000000 -0.063175 0.012412 1.000000 
-0.060154 0.013970 1.000000 -0.063796 0.012406 1.000000 -0.064840 0.009969 1.000000 -0.067612 0.008420 1.000000 -0.068003 0.005917 1.000000 -0.069877 0.004409 1.000000 -0.069623 0.001878 1.000000 -0.070585 0.000438 1.000000 -0.069708 -0.002078 1.000000 -0.069757 -0.003421 1.000000 -0.068293 -0.005872 1.000000 -0.067447 -0.007087 1.000000 -0.065445 -0.009420 1.000000 -0.063744 -0.010476 1.000000 -0.061268 -0.012636 1.000000 -0.058771 -0.013500 1.000000 -0.055897 -0.015430 1.000000 -0.052685 -0.016072 1.000000 -0.049504 -0.017714 1.000000 -0.045680 -0.018100 1.000000 -0.042294 -0.019397 1.000000 -0.037982 -0.019496 1.000000 -0.034508 -0.020391 1.000000 -0.029855 -0.020168 1.000000 -0.026421 -0.020605 1.000000 -0.021596 -0.020022 1.000000 -0.018348 -0.019946 1.000000 -0.013544 -0.018967 1.000000 -0.010643 -0.018325 1.000000 -0.006076 -0.016913 1.000000 -0.003700 -0.015662 1.000000 0.000390 -0.013785 1.000000 0.002045 -0.011892 1.000000 0.005399 -0.009534 1.000000 0.006125 -0.006989 1.000000 0.008472 -0.004154 1.000000 0.008055 -0.000979 1.000000 0.009122 0.002293 1.000000 0.007355 0.006032 1.000000 0.006888 0.009652 1.000000 0.003592 0.013828 1.000000 0.001377 0.017650 1.000000 -0.003573 0.022066 1.000000 -0.007675 0.025872 1.000000 -0.014320 0.030256 1.000000 -0.020339 0.033756 1.000000 -0.028598 0.037761 1.000000 -0.036416 0.040602 1.000000 -0.046054 0.043823 1.000000 -0.055373 0.045614 1.000000 -0.065975 0.047618 1.000000 -0.076296 0.047970 1.000000 -0.087262 0.048350 1.000000 -0.097886 0.046931 1.000000 -0.108447 0.045361 1.000000 -0.118513 0.041963 1.000000 -0.127787 0.038272 1.000000 -0.136337 0.032868 1.000000 -0.143416 0.027090 1.000000 -0.149499 0.019874 1.000000 -0.153557 0.012275 1.000000 -0.156348 0.003662 1.000000 -0.156752 -0.005272 1.000000 -0.155652 -0.014680 1.000000 -0.152046 -0.024289 1.000000 -0.146760 -0.033766 1.000000 -0.139107 -0.043279 1.000000 -0.129669 -0.052037 1.000000 -0.118257 -0.060631 1.000000 -0.105028 -0.067862 1.000000 -0.090460 -0.074702 1.000000 -0.074119 -0.079615 1.000000 -0.057309 -0.083893 1.000000 -0.038870 -0.085756 1.000000 -0.021062 -0.086769 1.000000 -0.001892 -0.085025 1.000000 0.015339 -0.082339 1.000000 0.033552 -0.076823 1.000000 0.048414 -0.070531 1.000000 0.063849 -0.061750 1.000000 0.074661 -0.052712 1.000000 0.085789 -0.042014 1.000000 0.091514 -0.031851 1.000000 0.097641 -0.021240 1.000000 0.098355 -0.011884 1.000000 0.099942 -0.003401 1.000000 0.096824 0.003639 1.000000 0.095244 0.008609 1.000000 0.090004 0.012643 1.000000 0.086953 0.013624 1.000000 0.081413 0.014600 1.000000 0.078563 0.012105 1.000000 0.074583 0.010860 1.000000 0.072960 0.006794 1.000000 0.071225 0.005155 1.000000 0.070971 0.001722 1.000000 0.071230 0.001261 1.000000 0.071538 -0.000174 1.000000 0.072788 0.001532 1.000000 0.072715 0.002487 1.000000 0.073978 0.006215 1.000000 0.072713 0.009540 1.000000 0.072651 0.014632 1.000000 0.069312 0.019332 1.000000 0.066435 0.024162 1.000000 0.060864 0.027198 1.000000 0.056973 0.030204 1.000000 0.050419 0.031678 1.000000 0.046198 0.033376 1.000000 0.038988 0.034081 1.000000 0.034414 0.034949 1.000000 0.026694 0.035185 1.000000 0.021830 0.035381 1.000000 0.013858 0.035194 1.000000 0.008905 0.034794 1.000000 0.000968 0.034214 1.000000 -0.003849 0.033307 1.000000 -0.011511 0.032398 1.000000 -0.016013 0.031086 1.000000 -0.023226 0.029928 1.000000 -0.027285 0.028303 1.000000 -0.033926 0.026971 1.000000 -0.037460 0.025103 1.000000 -0.043442 0.023656 1.000000 -0.046394 0.021597 1.000000 -0.051650 0.020080 1.000000 -0.053985 0.017865 1.000000 -0.058458 0.016311 1.000000 
-0.068860 0.016088 1.000000 -0.072927 0.014138 1.000000 -0.073798 0.011549 1.000000 -0.076869 0.009608 1.000000 -0.077107 0.006953 1.000000 -0.079143 0.005054 1.000000 -0.078754 0.002371 1.000000 -0.079728 0.000547 1.000000 -0.078733 -0.002119 1.000000 -0.078640 -0.003829 1.000000 -0.077073 -0.006427 1.000000 -0.075930 -0.007984 1.000000 -0.073839 -0.010457 1.000000 -0.071688 -0.011822 1.000000 -0.069134 -0.014111 1.000000 -0.066042 -0.015244 1.000000 -0.063102 -0.017285 1.000000 -0.059159 -0.018147 1.000000 -0.055920 -0.019877 1.000000 -0.051242 -0.020429 1.000000 -0.047805 -0.021784 1.000000 -0.042530 -0.021986 1.000000 -0.039008 -0.022901 1.000000 -0.033297 -0.022710 1.000000 -0.029816 -0.023118 1.000000 -0.023855 -0.022491 1.000000 -0.020557 -0.022325 1.000000 -0.014555 -0.021217 1.000000 -0.011598 -0.020411 1.000000 -0.005788 -0.018776 1.000000 -0.003352 -0.017274 1.000000 0.002007 -0.015073 1.000000 0.003725 -0.012828 1.000000 0.008351 -0.010036 1.000000 0.009133 -0.007029 1.000000 0.012731 -0.003648 1.000000 0.012350 0.000104 1.000000 0.014617 0.004031 1.000000 0.012846 0.008456 1.000000 0.013493 0.012829 1.000000 0.010128 0.017784 1.000000 0.008903 0.022430 1.000000 0.003789 0.027685 1.000000 0.000511 0.032345 1.000000 -0.006423 0.037574 1.000000 -0.011821 0.041900 1.000000 -0.020522 0.046685 1.000000 -0.027957 0.050247 1.000000 -0.038205 0.054093 1.000000 -0.047397 0.056410 1.000000 -0.058777 0.058783 1.000000 -0.069226 0.059370 1.000000 -0.081112 0.059760 1.000000 -0.092094 0.058201 1.000000 -0.103664 0.056200 1.000000 -0.114261 0.052228 1.000000 -0.124558 0.047621 1.000000 -0.133734 0.041196 1.000000 -0.141760 0.034027 1.000000 -0.148474 0.025386 1.000000 -0.153314 0.015994 1.000000 -0.156651 0.005653 1.000000 -0.157603 -0.005348 1.000000 -0.156893 -0.016646 1.000000 -0.153557 -0.028440 1.000000 -0.148457 -0.039812 1.000000 -0.140783 -0.051472 1.000000 -0.131303 -0.061983 1.000000 -0.119581 -0.072548 1.000000 -0.106078 -0.081260 1.000000 -0.090919 -0.089767 1.000000 -0.074087 -0.095760 1.000000 -0.056426 -0.101261 1.000000 -0.037318 -0.103655 1.000000 -0.018453 -0.105264 1.000000 0.001470 -0.103334 1.000000 0.019828 -0.100409 1.000000 0.038696 -0.093860 1.000000 0.054494 -0.086346 1.000000 0.070218 -0.075721 1.000000 0.081402 -0.064548 1.000000 0.092206 -0.051515 1.000000 0.097395 -0.038712 1.000000 0.102560 -0.025830 1.000000 0.101753 -0.014004 1.000000 0.102034 -0.003793 1.000000 0.096732 0.004921 1.000000 0.093836 0.010988 1.000000 0.086310 0.015625 1.000000 0.081905 0.017107 1.000000 0.074568 0.017707 1.000000 0.070436 0.014888 1.000000 0.065785 0.012866 1.000000 0.063476 0.008121 1.000000 0.062174 0.005599 1.000000 0.061499 0.001294 1.000000 0.062514 0.000463 1.000000 0.062770 -0.001494 1.000000 0.064801 0.000129 1.000000 0.064515 0.000968 1.000000 0.066807 0.004931 1.000000 0.065299 0.008878 1.000000 0.066520 0.014751 1.000000 0.062880 0.021073 1.000000 0.060522 0.026947 1.000000 0.054441 0.030402 1.000000 0.051409 0.033765 1.000000 0.044481 0.035325 1.000000 0.041198 0.037309 1.000000 0.033464 0.038186 1.000000 0.029620 0.039334 1.000000 0.021176 0.039733 1.000000 0.016837 0.040109 1.000000 0.008029 0.039975 1.000000 0.003483 0.039630 1.000000 -0.005321 0.038978 1.000000 -0.009791 0.038028 1.000000 -0.018306 0.036947 1.000000 -0.022491 0.035532 1.000000 -0.030521 0.034131 1.000000 -0.034287 0.032372 1.000000 -0.041696 0.030746 1.000000 -0.044960 0.028731 1.000000 -0.051647 0.026956 1.000000 -0.054354 0.024745 1.000000 -0.060237 0.022874 1.000000 -0.062353 0.020507 1.000000 -0.067360 0.018580 1.000000 
-0.064860 0.019537 1.000000 -0.068537 0.017344 1.000000 -0.069522 0.013911 1.000000 -0.072320 0.011729 1.000000 -0.072637 0.008190 1.000000 -0.074514 0.006056 1.000000 -0.074164 0.002463 1.000000 -0.075093 0.000417 1.000000 -0.074091 -0.003165 1.000000 -0.074063 -0.005081 1.000000 -0.072440 -0.008581 1.000000 -0.071466 -0.010321 1.000000 -0.069270 -0.013662 1.000000 -0.067383 -0.015180 1.000000 -0.064675 -0.018282 1.000000 -0.061933 -0.019533 1.000000 -0.058791 -0.022313 1.000000 -0.055273 -0.023253 1.000000 -0.051787 -0.025631 1.000000 -0.047594 -0.026215 1.000000 -0.043865 -0.028109 1.000000 -0.039121 -0.028293 1.000000 -0.035264 -0.029624 1.000000 -0.030114 -0.029359 1.000000 -0.026256 -0.030047 1.000000 -0.020869 -0.029282 1.000000 -0.017152 -0.029247 1.000000 -0.011722 -0.027926 1.000000 -0.008307 -0.027092 1.000000 -0.003054 -0.025159 1.000000 -0.000123 -0.023457 1.000000 0.004702 -0.020861 1.000000 0.006945 -0.018236 1.000000 0.011064 -0.014943 1.000000 0.012391 -0.011369 1.000000 0.015505 -0.007371 1.000000 0.015672 -0.002864 1.000000 0.017467 0.001796 1.000000 0.016223 0.007156 1.000000 0.016389 0.012370 1.000000 0.013502 0.018418 1.000000 0.011759 0.023989 1.000000 0.007037 0.030458 1.000000 0.003172 0.036083 1.000000 -0.003494 0.042589 1.000000 -0.009586 0.047855 1.000000 -0.018176 0.053896 1.000000 -0.026440 0.058285 1.000000 -0.036765 0.063263 1.000000 -0.046937 0.066186 1.000000 -0.058591 0.069448 1.000000 -0.070166 0.070305 1.000000 -0.082508 0.071217 1.000000 -0.094725 0.069483 1.000000 -0.106889 0.067528 1.000000 -0.118761 0.062857 1.000000 -0.129719 0.057746 1.000000 -0.140119 0.050070 1.000000 -0.148785 0.041830 1.000000 -0.156574 0.031428 1.000000 -0.161955 0.020452 1.000000 -0.166145 0.007950 1.000000 -0.167488 -0.005030 1.000000 -0.167380 -0.018726 1.000000 -0.164282 -0.032725 1.000000 -0.159549 -0.046541 1.000000 -0.151986 -0.060433 1.000000 -0.142676 -0.073239 1.000000 -0.130967 -0.085856 1.000000 -0.117454 -0.096524 1.000000 -0.102206 -0.106693 1.000000 -0.085146 -0.114108 1.000000 -0.067245 -0.120662 1.000000 -0.047604 -0.123728 1.000000 -0.028291 -0.125557 1.000000 -0.007466 -0.123306 1.000000 0.011527 -0.119565 1.000000 0.031591 -0.111488 1.000000 0.048013 -0.102053 1.000000 0.064915 -0.088658 1.000000 0.076358 -0.074700 1.000000 0.087822 -0.058007 1.000000 0.092622 -0.042205 1.000000 0.097516 -0.025598 1.000000 0.095793 -0.011358 1.000000 0.094928 0.001619 1.000000 0.088684 0.011838 1.000000 0.084328 0.019032 1.000000 0.075992 0.024574 1.000000 0.070453 0.025366 1.000000 0.062041 0.026068 1.000000 0.057648 0.020888 1.000000 0.052269 0.017821 1.000000 0.049977 0.010405 1.000000 0.047786 0.007132 1.000000 0.047680 0.001382 1.000000 0.048265 -0.000010 1.000000 0.048781 -0.002461 1.000000 0.050601 -0.000213 1.000000 0.050860 0.000481 1.000000 0.053646 0.005431 1.000000 0.053415 0.009827 1.000000 0.055918 0.017051 1.000000 0.054255 0.025330 1.000000 0.051565 0.032601 1.000000 0.047083 0.036311 1.000000 0.044692 0.040164 1.000000 0.039623 0.041890 1.000000 0.037025 0.044392 1.000000 0.030824 0.045659 1.000000 0.027275 0.047237 1.000000 0.020038 0.047967 1.000000 0.015712 0.048529 1.000000 0.007944 0.048548 1.000000 0.003281 0.048144 1.000000 -0.004555 0.047487 1.000000 -0.009187 0.046291 1.000000 -0.016781 0.045098 1.000000 -0.021143 0.043301 1.000000 -0.028305 0.041725 1.000000 -0.032252 0.039479 1.000000 -0.038864 0.037644 1.000000 -0.042307 0.035054 1.000000 -0.048285 0.033051 1.000000 -0.051165 0.030187 1.000000 -0.056438 0.028078 1.000000 -0.058715 0.024987 1.000000 -0.063219 0.022818 1.000000 