# vtk DataFile Version 2.0
Comment goes here
ASCII

DATASET STRUCTURED_POINTS
DIMENSIONS    128   128   1

ORIGIN    0.000   0.000   0.000
SPACING   0.0156250.015625   1.000

POINT_DATA   16384
VECTORS u double

-0.077674 0.000016 1.000000 -0.083211 0.000014 1.000000 -0.084589 0.000016 1.000000 -0.088907 0.000014 1.000000 -0.089501 0.000016 1.000000 -0.092568 0.000013 1.000000 -0.092402 0.000016 1.000000 -0.094203 0.000013 1.000000 -0.093315 0.000015 1.000000 -0.093859 0.000013 1.000000 -0.092303 0.000015 1.000000 -0.091621 0.000012 1.000000 -0.089466 0.000015 1.000000 -0.087617 0.000012 1.000000 -0.084948 0.000014 1.000000 -0.082017 0.000011 1.000000 -0.078936 0.000013 1.000000 -0.075037 0.000010 1.000000 -0.071659 0.000012 1.000000 -0.066936 0.000009 1.000000 -0.063395 0.000012 1.000000 -0.058017 0.000009 1.000000 -0.054459 0.000011 1.000000 -0.048627 0.000008 1.000000 -0.045216 0.000010 1.000000 -0.039152 0.000008 1.000000 -0.036067 0.000010 1.000000 -0.030023 0.000008 1.000000 -0.027459 0.000010 1.000000 -0.021706 0.000008 1.000000 -0.019869 0.000010 1.000000 -0.014698 0.000008 1.000000 -0.013804 0.000010 1.000000 -0.009515 0.000009 1.000000 -0.009781 0.000011 1.000000 -0.006674 0.000010 1.000000 -0.008306 0.000012 1.000000 -0.006661 0.000012 1.000000 -0.009840 0.000013 1.000000 -0.009900 0.000013 1.000000 -0.014755 0.000014 1.000000 -0.016697 0.000015 1.000000 -0.023284 0.000016 1.000000 -0.027189 0.000017 1.000000 -0.035459 0.000017 1.000000 -0.041283 0.000018 1.000000 -0.051054 0.000018 1.000000 -0.058596 0.000019 1.000000 -0.069532 0.000017 1.000000 -0.078418 0.000018 1.000000 -0.090016 0.000016 1.000000 -0.099689 0.000016 1.000000 -0.111291 0.000012 1.000000 -0.121027 0.000012 1.000000 -0.131844 0.000007 1.000000 -0.140794 0.000005 1.000000 -0.149961 -0.000001 1.000000 -0.157212 -0.000004 1.000000 -0.163868 -0.000012 1.000000 -0.168526 -0.000015 1.000000 -0.171896 -0.000025 1.000000 -0.173178 -0.000030 1.000000 -0.172666 -0.000041 1.000000 -0.169992 -0.000046 1.000000 -0.165255 -0.000058 1.000000 -0.158318 -0.000063 1.000000 -0.149327 -0.000075 1.000000 -0.138153 -0.000079 1.000000 -0.125227 -0.000091 1.000000 -0.110200 -0.000094 1.000000 -0.094020 -0.000104 1.000000 -0.075903 -0.000105 1.000000 -0.057503 -0.000113 1.000000 -0.037410 -0.000111 1.000000 -0.018134 -0.000115 1.000000 0.002529 -0.000109 1.000000 0.021129 -0.000110 1.000000 0.040807 -0.000101 1.000000 0.057158 -0.000098 1.000000 0.074365 -0.000087 1.000000 0.087142 -0.000081 1.000000 0.100741 -0.000067 1.000000 0.109158 -0.000059 1.000000 0.118610 -0.000046 1.000000 0.122626 -0.000037 1.000000 0.128092 -0.000025 1.000000 0.128434 -0.000017 1.000000 0.130673 -0.000008 1.000000 0.128640 -0.000002 1.000000 0.128773 0.000005 1.000000 0.125895 0.000008 1.000000 0.125095 0.000012 1.000000 0.122707 0.000013 1.000000 0.121834 0.000014 1.000000 0.120650 0.000015 1.000000 0.119950 0.000014 1.000000 0.119898 0.000015 1.000000 0.118985 0.000014 1.000000 0.119388 0.000014 1.000000 0.117468 0.000014 1.000000 0.117364 0.000015 1.000000 0.113608 0.000015 1.000000 0.112107 0.000016 1.000000 0.105995 0.000016 1.000000 0.102665 0.000017 1.000000 0.094259 0.000017 1.000000 0.089371 0.000017 1.000000 0.079246 0.000016 1.000000 0.073357 0.000017 1.000000 0.062175 0.000015 1.000000 0.055773 0.000016 1.000000 0.044065 0.000014 1.000000 0.037500 0.000015 1.000000 0.025668 0.000014 1.000000 0.019197 0.000015 1.000000 0.007555 0.000013 1.000000 0.001380 0.000014 1.000000 -0.009821 0.000013 1.000000 -0.015538 0.000014 1.000000 -0.026098 0.000013 1.000000 -0.031232 0.000015 1.000000 -0.040993 0.000013 1.000000 -0.045456 0.000015 1.000000 -0.054293 0.000013 1.000000 -0.058024 0.000015 1.000000 -0.065836 0.000014 1.000000 -0.068796 0.000016 1.000000 -0.075503 0.000014 1.000000 
-0.070372 0.003869 1.000000 -0.075449 0.003470 1.000000 -0.076986 0.002863 1.000000 -0.080976 0.002468 1.000000 -0.081699 0.001845 1.000000 -0.084574 0.001462 1.000000 -0.084505 0.000832 1.000000 -0.086256 0.000469 1.000000 -0.085431 -0.000158 1.000000 -0.086067 -0.000495 1.000000 -0.084539 -0.001105 1.000000 -0.084089 -0.001408 1.000000 -0.081928 -0.001989 1.000000 -0.080445 -0.002249 1.000000 -0.077737 -0.002787 1.000000 -0.075299 -0.002997 1.000000 -0.072145 -0.003478 1.000000 -0.068856 -0.003630 1.000000 -0.065376 -0.004040 1.000000 -0.061365 -0.004125 1.000000 -0.057693 -0.004450 1.000000 -0.053118 -0.004461 1.000000 -0.049403 -0.004686 1.000000 -0.044447 -0.004615 1.000000 -0.040856 -0.004729 1.000000 -0.035727 -0.004568 1.000000 -0.032442 -0.004556 1.000000 -0.027376 -0.004299 1.000000 -0.024593 -0.004151 1.000000 -0.019846 -0.003789 1.000000 -0.017775 -0.003496 1.000000 -0.013623 -0.003026 1.000000 -0.012483 -0.002583 1.000000 -0.009213 -0.002004 1.000000 -0.009223 -0.001412 1.000000 -0.007123 -0.000729 1.000000 -0.008493 0.000004 1.000000 -0.007832 0.000777 1.000000 -0.010745 0.001631 1.000000 -0.011758 0.002469 1.000000 -0.016347 0.003412 1.000000 -0.019202 0.004278 1.000000 -0.025526 0.005261 1.000000 -0.030300 0.006103 1.000000 -0.038311 0.007063 1.000000 -0.044953 0.007814 1.000000 -0.054476 0.008673 1.000000 -0.062779 0.009256 1.000000 -0.073480 0.009927 1.000000 -0.083066 0.010259 1.000000 -0.094447 0.010650 1.000000 -0.104751 0.010652 1.000000 -0.116156 0.010680 1.000000 -0.126452 0.010287 1.000000 -0.137094 0.009889 1.000000 -0.146529 0.009063 1.000000 -0.155547 0.008207 1.000000 -0.163204 0.006948 1.000000 -0.169739 0.005644 1.000000 -0.174726 0.003997 1.000000 -0.178008 0.002300 1.000000 -0.179550 0.000354 1.000000 -0.178988 -0.001635 1.000000 -0.176511 -0.003753 1.000000 -0.171769 -0.005896 1.000000 -0.164978 -0.008028 1.000000 -0.156028 -0.010159 1.000000 -0.144952 -0.012131 1.000000 -0.132108 -0.014068 1.000000 -0.117130 -0.015699 1.000000 -0.101060 -0.017254 1.000000 -0.082926 -0.018365 1.000000 -0.064643 -0.019360 1.000000 -0.044447 -0.019795 1.000000 -0.025268 -0.020084 1.000000 -0.004401 -0.019741 1.000000 0.014149 -0.019248 1.000000 0.034128 -0.018115 1.000000 0.050496 -0.016876 1.000000 0.068069 -0.015077 1.000000 0.080941 -0.013267 1.000000 0.094922 -0.011073 1.000000 0.103517 -0.008992 1.000000 0.113314 -0.006777 1.000000 0.117583 -0.004776 1.000000 0.123333 -0.002926 1.000000 0.123963 -0.001306 1.000000 0.126450 -0.000108 1.000000 0.124660 0.000951 1.000000 0.125060 0.001380 1.000000 0.122297 0.001850 1.000000 0.121833 0.001608 1.000000 0.119397 0.001646 1.000000 0.118950 0.001045 1.000000 0.117579 0.000959 1.000000 0.117410 0.000392 1.000000 0.117103 0.000498 1.000000 0.116824 0.000270 1.000000 0.116955 0.000774 1.000000 0.115787 0.001026 1.000000 0.115413 0.001946 1.000000 0.112527 0.002644 1.000000 0.110739 0.003824 1.000000 0.105580 0.004738 1.000000 0.101923 0.005886 1.000000 0.094520 0.006665 1.000000 0.089302 0.007524 1.000000 0.080231 0.008023 1.000000 0.074033 0.008553 1.000000 0.063937 0.008808 1.000000 0.057241 0.009071 1.000000 0.046627 0.009151 1.000000 0.039773 0.009213 1.000000 0.029021 0.009165 1.000000 0.022263 0.009071 1.000000 0.011670 0.008921 1.000000 0.005212 0.008702 1.000000 -0.004984 0.008472 1.000000 -0.010976 0.008153 1.000000 -0.020589 0.007860 1.000000 -0.025989 0.007462 1.000000 -0.034874 0.007125 1.000000 -0.039588 0.006664 1.000000 -0.047633 0.006296 1.000000 -0.051597 0.005786 1.000000 -0.058716 0.005399 1.000000 -0.061888 0.004848 1.000000 -0.068014 0.004452 1.000000 
-0.078734 0.007452 1.000000 -0.084279 0.006628 1.000000 -0.085637 0.005542 1.000000 -0.089960 0.004726 1.000000 -0.090532 0.003614 1.000000 -0.093598 0.002819 1.000000 -0.093407 0.001698 1.000000 -0.095200 0.000940 1.000000 -0.094282 -0.000174 1.000000 -0.094806 -0.000879 1.000000 -0.093214 -0.001963 1.000000 -0.092502 -0.002599 1.000000 -0.090304 -0.003629 1.000000 -0.088411 -0.004180 1.000000 -0.085692 -0.005132 1.000000 -0.082705 -0.005581 1.000000 -0.079566 -0.006430 1.000000 -0.075598 -0.006759 1.000000 -0.072156 -0.007478 1.000000 -0.067350 -0.007674 1.000000 -0.063737 -0.008236 1.000000 -0.058264 -0.008281 1.000000 -0.054627 -0.008660 1.000000 -0.048685 -0.008539 1.000000 -0.045188 -0.008709 1.000000 -0.039002 -0.008406 1.000000 -0.035824 -0.008342 1.000000 -0.029646 -0.007842 1.000000 -0.026981 -0.007520 1.000000 -0.021086 -0.006810 1.000000 -0.019141 -0.006213 1.000000 -0.013820 -0.005284 1.000000 -0.012815 -0.004400 1.000000 -0.008374 -0.003251 1.000000 -0.008529 -0.002080 1.000000 -0.005271 -0.000720 1.000000 -0.006800 0.000721 1.000000 -0.005015 0.002264 1.000000 -0.008104 0.003938 1.000000 -0.008045 0.005615 1.000000 -0.012835 0.007459 1.000000 -0.014690 0.009194 1.000000 -0.021246 0.011113 1.000000 -0.025109 0.012803 1.000000 -0.033394 0.014670 1.000000 -0.039232 0.016182 1.000000 -0.049072 0.017844 1.000000 -0.056695 0.019023 1.000000 -0.067761 0.020303 1.000000 -0.076796 0.020984 1.000000 -0.088587 0.021702 1.000000 -0.098477 0.021725 1.000000 -0.110323 0.021713 1.000000 -0.120334 0.020950 1.000000 -0.131432 0.020083 1.000000 -0.140695 0.018458 1.000000 -0.150159 0.016674 1.000000 -0.157736 0.014188 1.000000 -0.164677 0.011510 1.000000 -0.169647 0.008254 1.000000 -0.173264 0.004798 1.000000 -0.174820 0.000950 1.000000 -0.174497 -0.003079 1.000000 -0.172036 -0.007265 1.000000 -0.167417 -0.011591 1.000000 -0.160618 -0.015804 1.000000 -0.151665 -0.020101 1.000000 -0.140543 -0.023999 1.000000 -0.127569 -0.027913 1.000000 -0.112502 -0.031142 1.000000 -0.096186 -0.034308 1.000000 -0.077930 -0.036523 1.000000 -0.059308 -0.038591 1.000000 -0.038986 -0.039486 1.000000 -0.019421 -0.040161 1.000000 0.001534 -0.039527 1.000000 0.020445 -0.038638 1.000000 0.040415 -0.036448 1.000000 0.057018 -0.034040 1.000000 0.074432 -0.030532 1.000000 0.087302 -0.026934 1.000000 0.100940 -0.022643 1.000000 0.109216 -0.018451 1.000000 0.118503 -0.014111 1.000000 0.122138 -0.010057 1.000000 0.127269 -0.006405 1.000000 0.127057 -0.003134 1.000000 0.128870 -0.000705 1.000000 0.126223 0.001388 1.000000 0.125924 0.002369 1.000000 0.122512 0.003236 1.000000 0.121376 0.002912 1.000000 0.118671 0.002896 1.000000 0.117650 0.001832 1.000000 0.116408 0.001555 1.000000 0.115748 0.000490 1.000000 0.115839 0.000600 1.000000 0.115104 0.000163 1.000000 0.115771 0.001052 1.000000 0.114086 0.001555 1.000000 0.114309 0.003275 1.000000 0.110780 0.004689 1.000000 0.109566 0.006963 1.000000 0.103598 0.008832 1.000000 0.100407 0.011077 1.000000 0.092055 0.012638 1.000000 0.087270 0.014307 1.000000 0.077207 0.015285 1.000000 0.071453 0.016311 1.000000 0.060354 0.016807 1.000000 0.054093 0.017326 1.000000 0.042463 0.017482 1.000000 0.036014 0.017621 1.000000 0.024239 0.017524 1.000000 0.017851 0.017365 1.000000 0.006246 0.017064 1.000000 0.000130 0.016668 1.000000 -0.011049 0.016202 1.000000 -0.016722 0.015620 1.000000 -0.027271 0.015026 1.000000 -0.032372 0.014299 1.000000 -0.042128 0.013612 1.000000 -0.046564 0.012774 1.000000 -0.055401 0.012022 1.000000 -0.059109 0.011098 1.000000 -0.066926 0.010305 1.000000 -0.069867 0.009313 1.000000 -0.076581 0.008497 1.000000 
-0.072395 0.011566 1.000000 -0.077479 0.010373 1.000000 -0.078980 0.008544 1.000000 -0.082973 0.007364 1.000000 -0.083655 0.005483 1.000000 -0.086525 0.004337 1.000000 -0.086407 0.002433 1.000000 -0.088140 0.001343 1.000000 -0.087255 -0.000551 1.000000 -0.087855 -0.001562 1.000000 -0.086254 -0.003410 1.000000 -0.085749 -0.004318 1.000000 -0.083501 -0.006079 1.000000 -0.081940 -0.006860 1.000000 -0.079130 -0.008493 1.000000 -0.076590 -0.009123 1.000000 -0.073320 -0.010585 1.000000 -0.069904 -0.011040 1.000000 -0.066293 -0.012288 1.000000 -0.062131 -0.012544 1.000000 -0.058313 -0.013536 1.000000 -0.053561 -0.013571 1.000000 -0.049687 -0.014265 1.000000 -0.044528 -0.014055 1.000000 -0.040762 -0.014411 1.000000 -0.035407 -0.013932 1.000000 -0.031931 -0.013912 1.000000 -0.026615 -0.013142 1.000000 -0.023628 -0.012712 1.000000 -0.018610 -0.011629 1.000000 -0.016323 -0.010761 1.000000 -0.011885 -0.009352 1.000000 -0.010521 -0.008030 1.000000 -0.006957 -0.006290 1.000000 -0.006745 -0.004514 1.000000 -0.004354 -0.002458 1.000000 -0.005514 -0.000252 1.000000 -0.004584 0.002081 1.000000 -0.007314 0.004661 1.000000 -0.008096 0.007200 1.000000 -0.012550 0.010056 1.000000 -0.015238 0.012689 1.000000 -0.021496 0.015680 1.000000 -0.026190 0.018251 1.000000 -0.034226 0.021185 1.000000 -0.040899 0.023493 1.000000 -0.050556 0.026136 1.000000 -0.059020 0.027945 1.000000 -0.069976 0.030029 1.000000 -0.079860 0.031085 1.000000 -0.091617 0.032330 1.000000 -0.102355 0.032388 1.000000 -0.114240 0.032538 1.000000 -0.125081 0.031396 1.000000 -0.136277 0.030250 1.000000 -0.146330 0.027790 1.000000 -0.155930 0.025248 1.000000 -0.164229 0.021466 1.000000 -0.171322 0.017554 1.000000 -0.176920 0.012585 1.000000 -0.180685 0.007473 1.000000 -0.182757 0.001587 1.000000 -0.182564 -0.004419 1.000000 -0.180500 -0.010833 1.000000 -0.175989 -0.017314 1.000000 -0.169468 -0.023779 1.000000 -0.160600 -0.030235 1.000000 -0.149636 -0.036227 1.000000 -0.136717 -0.042109 1.000000 -0.121679 -0.047082 1.000000 -0.105371 -0.051826 1.000000 -0.086992 -0.055242 1.000000 -0.068309 -0.058304 1.000000 -0.047688 -0.059682 1.000000 -0.027975 -0.060605 1.000000 -0.006544 -0.059606 1.000000 0.012586 -0.058130 1.000000 0.033157 -0.054688 1.000000 0.049994 -0.050893 1.000000 0.068015 -0.045361 1.000000 0.081055 -0.039776 1.000000 0.095153 -0.032987 1.000000 0.103473 -0.026555 1.000000 0.112962 -0.019700 1.000000 0.116515 -0.013541 1.000000 0.121583 -0.007844 1.000000 0.121198 -0.002906 1.000000 0.122795 0.000726 1.000000 0.119887 0.003896 1.000000 0.119393 0.005091 1.000000 0.115619 0.006398 1.000000 0.114481 0.005449 1.000000 0.111398 0.005372 1.000000 0.110643 0.003307 1.000000 0.109078 0.002861 1.000000 0.108975 0.000961 1.000000 0.108878 0.001142 1.000000 0.108909 0.000338 1.000000 0.109522 0.001792 1.000000 0.108793 0.002488 1.000000 0.109066 0.005252 1.000000 0.106649 0.007388 1.000000 0.105453 0.011005 1.000000 0.100632 0.013897 1.000000 0.097237 0.017429 1.000000 0.089978 0.019801 1.000000 0.084975 0.022372 1.000000 0.076070 0.023840 1.000000 0.070163 0.025406 1.000000 0.060270 0.026167 1.000000 0.053870 0.026962 1.000000 0.043435 0.027230 1.000000 0.036817 0.027438 1.000000 0.026193 0.027327 1.000000 0.019601 0.027064 1.000000 0.009093 0.026642 1.000000 0.002751 0.025997 1.000000 -0.007389 0.025324 1.000000 -0.013298 0.024374 1.000000 -0.022873 0.023509 1.000000 -0.028209 0.022319 1.000000 -0.037070 0.021317 1.000000 -0.041734 0.019937 1.000000 -0.049767 0.018842 1.000000 -0.053689 0.017311 1.000000 -0.060806 0.016157 1.000000 -0.063942 0.014504 1.000000 -0.070071 0.013319 1.000000 
-0.081908 0.014859 1.000000 -0.087478 0.013213 1.000000 -0.088781 0.011036 1.000000 -0.093120 0.009401 1.000000 -0.093630 0.007167 1.000000 -0.096697 0.005571 1.000000 -0.096431 0.003312 1.000000 -0.098199 0.001788 1.000000 -0.097191 -0.000458 1.000000 -0.097661 -0.001879 1.000000 -0.095960 -0.004069 1.000000 -0.095158 -0.005352 1.000000 -0.092831 -0.007438 1.000000 -0.090810 -0.008551 1.000000 -0.087941 -0.010482 1.000000 -0.084786 -0.011390 1.000000 -0.081476 -0.013115 1.000000 -0.077299 -0.013786 1.000000 -0.073665 -0.015251 1.000000 -0.068610 -0.015654 1.000000 -0.064784 -0.016806 1.000000 -0.059022 -0.016908 1.000000 -0.055150 -0.017694 1.000000 -0.048881 -0.017463 1.000000 -0.045126 -0.017830 1.000000 -0.038576 -0.017237 1.000000 -0.035118 -0.017134 1.000000 -0.028541 -0.016145 1.000000 -0.025573 -0.015525 1.000000 -0.019248 -0.014115 1.000000 -0.016983 -0.012938 1.000000 -0.011210 -0.011086 1.000000 -0.009871 -0.009327 1.000000 -0.004966 -0.007027 1.000000 -0.004787 -0.004683 1.000000 -0.001072 -0.001951 1.000000 -0.002283 0.000950 1.000000 -0.000071 0.004063 1.000000 -0.002882 0.007451 1.000000 -0.002454 0.010851 1.000000 -0.007035 0.014601 1.000000 -0.008615 0.018139 1.000000 -0.015065 0.022064 1.000000 -0.018785 0.025533 1.000000 -0.027099 0.029380 1.000000 -0.032961 0.032512 1.000000 -0.042997 0.035965 1.000000 -0.050840 0.038444 1.000000 -0.062286 0.041144 1.000000 -0.071753 0.042626 1.000000 -0.084108 0.044196 1.000000 -0.094635 0.044348 1.000000 -0.107208 0.044440 1.000000 -0.118031 0.042987 1.000000 -0.129970 0.041332 1.000000 -0.140164 0.038111 1.000000 -0.150513 0.034573 1.000000 -0.159065 0.029580 1.000000 -0.166855 0.024201 1.000000 -0.172760 0.017617 1.000000 -0.177114 0.010635 1.000000 -0.179487 0.002829 1.000000 -0.179729 -0.005336 1.000000 -0.177908 -0.013840 1.000000 -0.173644 -0.022623 1.000000 -0.167268 -0.031193 1.000000 -0.158440 -0.039934 1.000000 -0.147495 -0.047882 1.000000 -0.134406 -0.055870 1.000000 -0.119250 -0.062488 1.000000 -0.102566 -0.068995 1.000000 -0.083938 -0.073584 1.000000 -0.064694 -0.077896 1.000000 -0.043725 -0.079819 1.000000 -0.023321 -0.081305 1.000000 -0.001516 -0.080087 1.000000 0.018320 -0.078339 1.000000 0.039170 -0.073857 1.000000 0.056543 -0.068898 1.000000 0.074591 -0.061593 1.000000 0.087759 -0.054072 1.000000 0.101509 -0.045061 1.000000 0.109358 -0.036260 1.000000 0.118115 -0.027153 1.000000 0.120564 -0.018677 1.000000 0.124650 -0.011088 1.000000 0.122720 -0.004347 1.000000 0.123239 0.000606 1.000000 0.118701 0.004790 1.000000 0.117092 0.006637 1.000000 0.112027 0.008148 1.000000 0.109868 0.007133 1.000000 0.106213 0.006734 1.000000 0.104754 0.004152 1.000000 0.103368 0.003223 1.000000 0.102810 0.000690 1.000000 0.103307 0.000666 1.000000 0.103068 -0.000481 1.000000 0.104468 0.001168 1.000000 0.103427 0.002011 1.000000 0.104626 0.005419 1.000000 0.101780 0.008302 1.000000 0.101512 0.012980 1.000000 0.096041 0.017048 1.000000 0.093259 0.021730 1.000000 0.085116 0.024900 1.000000 0.080709 0.028215 1.000000 0.070922 0.030098 1.000000 0.065664 0.032110 1.000000 0.054883 0.033099 1.000000 0.049091 0.034161 1.000000 0.037716 0.034536 1.000000 0.031619 0.034864 1.000000 0.020011 0.034739 1.000000 0.013867 0.034465 1.000000 0.002361 0.033914 1.000000 -0.003585 0.033151 1.000000 -0.014705 0.032251 1.000000 -0.020253 0.031104 1.000000 -0.030768 0.029937 1.000000 -0.035771 0.028496 1.000000 -0.045514 0.027136 1.000000 -0.049870 0.025470 1.000000 -0.058711 0.023978 1.000000 -0.062353 0.022137 1.000000 -0.070187 0.020558 1.000000 -0.073070 0.018579 1.000000 -0.079809 0.016951 1.000000 
-0.076431 0.019235 1.000000 -0.081531 0.017246 1.000000 -0.082965 0.014187 1.000000 -0.086969 0.012214 1.000000 -0.087573 0.009059 1.000000 -0.090438 0.007138 1.000000 -0.090224 0.003936 1.000000 -0.091925 0.002103 1.000000 -0.090922 -0.001089 1.000000 -0.091455 -0.002793 1.000000 -0.089710 -0.005914 1.000000 -0.089095 -0.007448 1.000000 -0.086675 -0.010427 1.000000 -0.084959 -0.011750 1.000000 -0.081947 -0.014518 1.000000 -0.079205 -0.015588 1.000000 -0.075704 -0.018071 1.000000 -0.072036 -0.018850 1.000000 -0.068165 -0.020977 1.000000 -0.063701 -0.021426 1.000000 -0.059595 -0.023125 1.000000 -0.054490 -0.023205 1.000000 -0.050297 -0.024406 1.000000 -0.044735 -0.024079 1.000000 -0.040622 -0.024715 1.000000 -0.034813 -0.023940 1.000000 -0.030960 -0.023948 1.000000 -0.025143 -0.022686 1.000000 -0.021749 -0.022004 1.000000 -0.016187 -0.020219 1.000000 -0.013468 -0.018800 1.000000 -0.008452 -0.016463 1.000000 -0.006638 -0.014273 1.000000 -0.002479 -0.011374 1.000000 -0.001814 -0.008408 1.000000 0.001169 -0.004963 1.000000 0.000442 -0.001254 1.000000 0.001930 0.002680 1.000000 -0.000419 0.007044 1.000000 -0.000716 0.011353 1.000000 -0.004878 0.016217 1.000000 -0.007202 0.020719 1.000000 -0.013301 0.025850 1.000000 -0.017802 0.030285 1.000000 -0.025858 0.035362 1.000000 -0.032558 0.039391 1.000000 -0.042453 0.044015 1.000000 -0.051205 0.047234 1.000000 -0.062643 0.050942 1.000000 -0.073097 0.052907 1.000000 -0.085582 0.055212 1.000000 -0.097162 0.055489 1.000000 -0.109992 0.055934 1.000000 -0.121909 0.054158 1.000000 -0.134201 0.052383 1.000000 -0.145484 0.048333 1.000000 -0.156239 0.044149 1.000000 -0.165818 0.037808 1.000000 -0.174017 0.031249 1.000000 -0.180832 0.022844 1.000000 -0.185553 0.014200 1.000000 -0.188679 0.004202 1.000000 -0.189215 -0.005999 1.000000 -0.187975 -0.016918 1.000000 -0.183925 -0.027954 1.000000 -0.177958 -0.038983 1.000000 -0.169272 -0.050007 1.000000 -0.158572 -0.060261 1.000000 -0.145551 -0.070354 1.000000 -0.130466 -0.078923 1.000000 -0.113758 -0.087137 1.000000 -0.094988 -0.093114 1.000000 -0.075590 -0.098517 1.000000 -0.054210 -0.101055 1.000000 -0.033497 -0.102813 1.000000 -0.010991 -0.101248 1.000000 0.009282 -0.098816 1.000000 0.031044 -0.092911 1.000000 0.048851 -0.086314 1.000000 0.067809 -0.076578 1.000000 0.081212 -0.066694 1.000000 0.095567 -0.054586 1.000000 0.103302 -0.043161 1.000000 0.112126 -0.030906 1.000000 0.114149 -0.020076 1.000000 0.117762 -0.010001 1.000000 0.115269 -0.001495 1.000000 0.115021 0.004745 1.000000 0.109834 0.010043 1.000000 0.107516 0.011765 1.000000 0.101646 0.013623 1.000000 0.099170 0.011263 1.000000 0.094798 0.010486 1.000000 0.093433 0.006153 1.000000 0.091464 0.004805 1.000000 0.091476 0.001022 1.000000 0.091721 0.000884 1.000000 0.092246 -0.000822 1.000000 0.093669 0.001433 1.000000 0.093658 0.002329 1.000000 0.095212 0.006899 1.000000 0.093734 0.010503 1.000000 0.093944 0.016744 1.000000 0.089965 0.022150 1.000000 0.087069 0.028354 1.000000 0.080203 0.032351 1.000000 0.075800 0.036565 1.000000 0.067429 0.038886 1.000000 0.062309 0.041444 1.000000 0.052954 0.042741 1.000000 0.047235 0.044129 1.000000 0.037188 0.044702 1.000000 0.031044 0.045143 1.000000 0.020663 0.045080 1.000000 0.014382 0.044714 1.000000 0.004026 0.044094 1.000000 -0.002105 0.043064 1.000000 -0.012142 0.041992 1.000000 -0.017896 0.040437 1.000000 -0.027399 0.039027 1.000000 -0.032614 0.037065 1.000000 -0.041429 0.035416 1.000000 -0.045994 0.033134 1.000000 -0.054005 0.031324 1.000000 -0.057846 0.028787 1.000000 -0.064962 0.026874 1.000000 -0.068029 0.024126 1.000000 -0.074171 0.022157 1.000000 
-0.087180 0.022220 1.000000 -0.092801 0.019748 1.000000 -0.094018 0.016474 1.000000 -0.098396 0.014009 1.000000 -0.098807 0.010635 1.000000 -0.101883 0.008222 1.000000 -0.101498 0.004799 1.000000 -0.103234 0.002485 1.000000 -0.102079 -0.000928 1.000000 -0.102463 -0.003091 1.000000 -0.100583 -0.006428 1.000000 -0.099635 -0.008388 1.000000 -0.097095 -0.011574 1.000000 -0.094863 -0.013278 1.000000 -0.091746 -0.016237 1.000000 -0.088311 -0.017633 1.000000 -0.084718 -0.020284 1.000000 -0.080195 -0.021325 1.000000 -0.076244 -0.023587 1.000000 -0.070775 -0.024224 1.000000 -0.066597 -0.026017 1.000000 -0.060356 -0.026205 1.000000 -0.056096 -0.027448 1.000000 -0.049283 -0.027139 1.000000 -0.045104 -0.027752 1.000000 -0.037948 -0.026898 1.000000 -0.034026 -0.026804 1.000000 -0.026784 -0.025357 1.000000 -0.023315 -0.024481 1.000000 -0.016271 -0.022396 1.000000 -0.013469 -0.020674 1.000000 -0.006935 -0.017915 1.000000 -0.005036 -0.015301 1.000000 0.000655 -0.011851 1.000000 0.001403 -0.008331 1.000000 0.005901 -0.004206 1.000000 0.005240 0.000189 1.000000 0.008194 0.004923 1.000000 0.005875 0.010098 1.000000 0.006956 0.015311 1.000000 0.002761 0.021087 1.000000 0.001686 0.026562 1.000000 -0.004541 0.032664 1.000000 -0.007968 0.038091 1.000000 -0.016281 0.044136 1.000000 -0.022126 0.049107 1.000000 -0.032435 0.054612 1.000000 -0.040589 0.058634 1.000000 -0.052619 0.063035 1.000000 -0.062757 0.065564 1.000000 -0.076011 0.068262 1.000000 -0.087563 0.068758 1.000000 -0.101317 0.069186 1.000000 -0.113470 0.067197 1.000000 -0.126790 0.064907 1.000000 -0.138523 0.060150 1.000000 -0.150335 0.054907 1.000000 -0.160503 0.047358 1.000000 -0.169696 0.039215 1.000000 -0.177152 0.029153 1.000000 -0.182719 0.018482 1.000000 -0.186448 0.006492 1.000000 -0.187615 -0.006041 1.000000 -0.186863 -0.019130 1.000000 -0.183189 -0.032639 1.000000 -0.177543 -0.045847 1.000000 -0.168956 -0.059320 1.000000 -0.158375 -0.071603 1.000000 -0.145174 -0.083977 1.000000 -0.129985 -0.094281 1.000000 -0.112815 -0.104473 1.000000 -0.093719 -0.111752 1.000000 -0.073583 -0.118674 1.000000 -0.051681 -0.121913 1.000000 -0.029993 -0.124524 1.000000 -0.006853 -0.122866 1.000000 0.014505 -0.120374 1.000000 0.036828 -0.113426 1.000000 0.055558 -0.105663 1.000000 0.074722 -0.093953 1.000000 0.088474 -0.081830 1.000000 0.102410 -0.067151 1.000000 0.109519 -0.052818 1.000000 0.117263 -0.038000 1.000000 0.117558 -0.024314 1.000000 0.119746 -0.012208 1.000000 0.114743 -0.001606 1.000000 0.113080 0.006040 1.000000 0.105224 0.012295 1.000000 0.101431 0.014825 1.000000 0.093439 0.016494 1.000000 0.089528 0.013981 1.000000 0.084358 0.012471 1.000000 0.082249 0.007486 1.000000 0.080776 0.005181 1.000000 0.080284 0.000433 1.000000 0.081337 -0.000105 1.000000 0.081765 -0.002430 1.000000 0.084027 -0.000243 1.000000 0.083732 0.000469 1.000000 0.086436 0.005343 1.000000 0.084638 0.009569 1.000000 0.086357 0.016749 1.000000 0.082012 0.023924 1.000000 0.079887 0.031492 1.000000 0.072342 0.036169 1.000000 0.068946 0.040990 1.000000 0.060012 0.043589 1.000000 0.055942 0.046585 1.000000 0.045892 0.048173 1.000000 0.041001 0.049927 1.000000 0.030073 0.050727 1.000000 0.024547 0.051389 1.000000 0.013180 0.051402 1.000000 0.007394 0.051102 1.000000 -0.003975 0.050401 1.000000 -0.009673 0.049319 1.000000 -0.020708 0.048042 1.000000 -0.026065 0.046361 1.000000 -0.036529 0.044655 1.000000 -0.041376 0.042525 1.000000 -0.051099 0.040516 1.000000 -0.055327 0.038047 1.000000 -0.064179 0.035830 1.000000 -0.067714 0.033094 1.000000 -0.075583 0.030741 1.000000 -0.078376 0.027788 1.000000 -0.085165 0.025352 1.000000 
-0.082452 0.026871 1.000000 -0.087592 0.024084 1.000000 -0.088935 0.019782 1.000000 -0.092969 0.017003 1.000000 -0.093465 0.012546 1.000000 -0.096334 0.009828 1.000000 -0.095985 0.005287 1.000000 -0.097648 0.002684 1.000000 -0.096473 -0.001860 1.000000 -0.096914 -0.004289 1.000000 -0.094956 -0.008742 1.000000 -0.094185 -0.010936 1.000000 -0.091507 -0.015200 1.000000 -0.089566 -0.017099 1.000000 -0.086252 -0.021069 1.000000 -0.083210 -0.022615 1.000000 -0.079365 -0.026187 1.000000 -0.075323 -0.027325 1.000000 -0.071065 -0.030397 1.000000 -0.066151 -0.031073 1.000000 -0.061617 -0.033544 1.000000 -0.055986 -0.033705 1.000000 -0.051324 -0.035479 1.000000 -0.045160 -0.035071 1.000000 -0.040533 -0.036050 1.000000 -0.034048 -0.035018 1.000000 -0.029634 -0.035112 1.000000 -0.023067 -0.033397 1.000000 -0.019066 -0.032517 1.000000 -0.012686 -0.030065 1.000000 -0.009316 -0.028136 1.000000 -0.003426 -0.024897 1.000000 -0.000929 -0.021864 1.000000 0.004143 -0.017813 1.000000 0.005504 -0.013654 1.000000 0.009405 -0.008799 1.000000 0.009356 -0.003548 1.000000 0.011724 0.002045 1.000000 0.009991 0.008282 1.000000 0.010476 0.014468 1.000000 0.006809 0.021487 1.000000 0.005100 0.028021 1.000000 -0.000692 0.035503 1.000000 -0.004823 0.042024 1.000000 -0.012833 0.049520 1.000000 -0.019488 0.055545 1.000000 -0.029662 0.062478 1.000000 -0.038761 0.067417 1.000000 -0.050849 0.073109 1.000000 -0.062081 0.076299 1.000000 -0.075597 0.080019 1.000000 -0.088384 0.080795 1.000000 -0.102587 0.081840 1.000000 -0.116078 0.079631 1.000000 -0.129987 0.077437 1.000000 -0.143092 0.071878 1.000000 -0.155561 0.066129 1.000000 -0.167045 0.057169 1.000000 -0.176879 0.047898 1.000000 -0.185503 0.035867 1.000000 -0.191622 0.023496 1.000000 -0.196307 0.009098 1.000000 -0.197897 -0.005583 1.000000 -0.197875 -0.021344 1.000000 -0.194498 -0.037275 1.000000 -0.189380 -0.053215 1.000000 -0.181000 -0.069175 1.000000 -0.170787 -0.084044 1.000000 -0.157729 -0.098744 1.000000 -0.142753 -0.111281 1.000000 -0.125648 -0.123403 1.000000 -0.106546 -0.132346 1.000000 -0.086324 -0.140555 1.000000 -0.064073 -0.144645 1.000000 -0.042058 -0.147641 1.000000 -0.018114 -0.145745 1.000000 0.003814 -0.142497 1.000000 0.027358 -0.133964 1.000000 0.046710 -0.124207 1.000000 0.067202 -0.109494 1.000000 0.081249 -0.094383 1.000000 0.096070 -0.075631 1.000000 0.102825 -0.058014 1.000000 0.110509 -0.038945 1.000000 0.109916 -0.022559 1.000000 0.111064 -0.007186 1.000000 0.105179 0.005172 1.000000 0.102016 0.014264 1.000000 0.093410 0.021692 1.000000 0.088324 0.023550 1.000000 0.079134 0.025526 1.000000 0.074838 0.020343 1.000000 0.068738 0.017765 1.000000 0.066527 0.009734 1.000000 0.063910 0.006769 1.000000 0.064062 0.000461 1.000000 0.064541 -0.000597 1.000000 0.065316 -0.003512 1.000000 0.067283 -0.000534 1.000000 0.067661 -0.000080 1.000000 0.070855 0.005993 1.000000 0.070537 0.010582 1.000000 0.073668 0.019370 1.000000 0.071644 0.028620 1.000000 0.069373 0.038025 1.000000 0.063612 0.043291 1.000000 0.060915 0.048895 1.000000 0.054035 0.051890 1.000000 0.050680 0.055565 1.000000 0.042382 0.057681 1.000000 0.037804 0.059948 1.000000 0.028310 0.061155 1.000000 0.022804 0.062035 1.000000 0.012706 0.062233 1.000000 0.006803 0.061869 1.000000 -0.003375 0.061162 1.000000 -0.009242 0.059797 1.000000 -0.019143 0.058384 1.000000 -0.024687 0.056258 1.000000 -0.034087 0.054338 1.000000 -0.039128 0.051635 1.000000 -0.047876 0.049367 1.000000 -0.052300 0.046213 1.000000 -0.060283 0.043711 1.000000 -0.064011 0.040191 1.000000 -0.071133 0.037536 1.000000 -0.074106 0.033708 1.000000 -0.080278 0.030961 1.000000 