# vtk DataFile Version 2.0
Comment goes here
ASCII

DATASET STRUCTURED_POINTS
DIMENSIONS    128   128   1

ORIGIN    0.000   0.000   0.000
SPACING   0.0156250.015625   1.000

POINT_DATA   16384
VECTORS u double

-0.061428 0.000009 1.000000 -0.065420 0.000008 1.000000 -0.066398 0.000009 1.000000 -0.069420 0.000008 1.000000 -0.069784 0.000009 1.000000 -0.071814 0.000007 1.000000 -0.071581 0.000009 1.000000 -0.072612 0.000007 1.000000 -0.071812 0.000009 1.000000 -0.071852 0.000007 1.000000 -0.070527 0.000009 1.000000 -0.069605 0.000006 1.000000 -0.067805 0.000008 1.000000 -0.065969 0.000006 1.000000 -0.063760 0.000008 1.000000 -0.061081 0.000006 1.000000 -0.058538 0.000007 1.000000 -0.055109 0.000005 1.000000 -0.052323 0.000007 1.000000 -0.048259 0.000005 1.000000 -0.045332 0.000006 1.000000 -0.040770 0.000004 1.000000 -0.037818 0.000006 1.000000 -0.032918 0.000004 1.000000 -0.030071 0.000006 1.000000 -0.025017 0.000004 1.000000 -0.022417 0.000006 1.000000 -0.017413 0.000004 1.000000 -0.015220 0.000006 1.000000 -0.010489 0.000004 1.000000 -0.008873 0.000006 1.000000 -0.004654 0.000005 1.000000 -0.003796 0.000007 1.000000 -0.000339 0.000006 1.000000 -0.000424 0.000008 1.000000 0.002020 0.000007 1.000000 0.000812 0.000009 1.000000 0.002007 0.000009 1.000000 -0.000483 0.000010 1.000000 -0.000745 0.000011 1.000000 -0.004639 0.000012 1.000000 -0.006510 0.000012 1.000000 -0.011868 0.000013 1.000000 -0.015422 0.000014 1.000000 -0.022215 0.000014 1.000000 -0.027417 0.000015 1.000000 -0.035505 0.000015 1.000000 -0.042186 0.000016 1.000000 -0.051296 0.000015 1.000000 -0.059135 0.000015 1.000000 -0.068846 0.000014 1.000000 -0.077362 0.000014 1.000000 -0.087114 0.000011 1.000000 -0.095680 0.000010 1.000000 -0.104798 0.000006 1.000000 -0.112674 0.000005 1.000000 -0.120411 -0.000001 1.000000 -0.126800 -0.000003 1.000000 -0.132409 -0.000010 1.000000 -0.136534 -0.000013 1.000000 -0.139342 -0.000021 1.000000 -0.140527 -0.000025 1.000000 -0.140018 -0.000033 1.000000 -0.137771 -0.000038 1.000000 -0.133652 -0.000047 1.000000 -0.127728 -0.000052 1.000000 -0.119986 -0.000061 1.000000 -0.110437 -0.000065 1.000000 -0.099363 -0.000074 1.000000 -0.086561 -0.000077 1.000000 -0.072764 -0.000084 1.000000 -0.057407 -0.000085 1.000000 -0.041801 -0.000090 1.000000 -0.024893 -0.000088 1.000000 -0.008659 -0.000091 1.000000 0.008556 -0.000086 1.000000 0.024069 -0.000086 1.000000 0.040233 -0.000079 1.000000 0.053671 -0.000075 1.000000 0.067512 -0.000066 1.000000 0.077757 -0.000060 1.000000 0.088334 -0.000049 1.000000 0.094758 -0.000043 1.000000 0.101678 -0.000032 1.000000 0.104317 -0.000025 1.000000 0.107816 -0.000015 1.000000 0.107373 -0.000009 1.000000 0.108203 -0.000002 1.000000 0.105860 0.000003 1.000000 0.105061 0.000007 1.000000 0.102164 0.000010 1.000000 0.100781 0.000012 1.000000 0.098469 0.000013 1.000000 0.097234 0.000013 1.000000 0.096077 0.000013 1.000000 0.095168 0.000013 1.000000 0.095041 0.000013 1.000000 0.094082 0.000012 1.000000 0.094336 0.000012 1.000000 0.092609 0.000012 1.000000 0.092375 0.000013 1.000000 0.089158 0.000013 1.000000 0.087673 0.000014 1.000000 0.082552 0.000014 1.000000 0.079511 0.000015 1.000000 0.072601 0.000014 1.000000 0.068340 0.000014 1.000000 0.060171 0.000013 1.000000 0.055221 0.000013 1.000000 0.046342 0.000012 1.000000 0.041109 0.000012 1.000000 0.031924 0.000010 1.000000 0.026663 0.000011 1.000000 0.017461 0.000009 1.000000 0.012345 0.000010 1.000000 0.003351 0.000009 1.000000 -0.001483 0.000009 1.000000 -0.010087 0.000008 1.000000 -0.014529 0.000009 1.000000 -0.022590 0.000008 1.000000 -0.026553 0.000009 1.000000 -0.033954 0.000008 1.000000 -0.037375 0.000009 1.000000 -0.044021 0.000008 1.000000 -0.046856 0.000009 1.000000 -0.052673 0.000008 1.000000 -0.054898 0.000009 1.000000 -0.059825 0.000008 1.000000 
-0.055442 0.002806 1.000000 -0.059062 0.002493 1.000000 -0.060174 0.002009 1.000000 -0.062934 0.001700 1.000000 -0.063405 0.001205 1.000000 -0.065290 0.000905 1.000000 -0.065138 0.000407 1.000000 -0.066142 0.000122 1.000000 -0.065395 -0.000372 1.000000 -0.065529 -0.000637 1.000000 -0.064227 -0.001116 1.000000 -0.063516 -0.001355 1.000000 -0.061711 -0.001810 1.000000 -0.060199 -0.002017 1.000000 -0.057956 -0.002437 1.000000 -0.055707 -0.002606 1.000000 -0.053103 -0.002980 1.000000 -0.050200 -0.003104 1.000000 -0.047326 -0.003419 1.000000 -0.043873 -0.003492 1.000000 -0.040834 -0.003739 1.000000 -0.036957 -0.003754 1.000000 -0.033869 -0.003921 1.000000 -0.029714 -0.003871 1.000000 -0.026710 -0.003946 1.000000 -0.022447 -0.003824 1.000000 -0.019670 -0.003797 1.000000 -0.015490 -0.003596 1.000000 -0.013102 -0.003458 1.000000 -0.009212 -0.003170 1.000000 -0.007386 -0.002912 1.000000 -0.004015 -0.002534 1.000000 -0.002933 -0.002152 1.000000 -0.000319 -0.001681 1.000000 -0.000168 -0.001173 1.000000 0.001449 -0.000612 1.000000 0.000487 0.000014 1.000000 0.000878 0.000656 1.000000 -0.001360 0.001385 1.000000 -0.002394 0.002088 1.000000 -0.006032 0.002894 1.000000 -0.008640 0.003626 1.000000 -0.013740 0.004468 1.000000 -0.017990 0.005187 1.000000 -0.024531 0.006011 1.000000 -0.030385 0.006660 1.000000 -0.038229 0.007399 1.000000 -0.045515 0.007910 1.000000 -0.054393 0.008488 1.000000 -0.062789 0.008790 1.000000 -0.072286 0.009126 1.000000 -0.081307 0.009147 1.000000 -0.090867 0.009169 1.000000 -0.099882 0.008851 1.000000 -0.108833 0.008502 1.000000 -0.117099 0.007810 1.000000 -0.124697 0.007062 1.000000 -0.131416 0.005995 1.000000 -0.136916 0.004856 1.000000 -0.141311 0.003453 1.000000 -0.144044 0.001975 1.000000 -0.145442 0.000312 1.000000 -0.144896 -0.001413 1.000000 -0.142811 -0.003222 1.000000 -0.138698 -0.005070 1.000000 -0.132893 -0.006886 1.000000 -0.125199 -0.008708 1.000000 -0.115730 -0.010378 1.000000 -0.104742 -0.012013 1.000000 -0.091977 -0.013378 1.000000 -0.078293 -0.014662 1.000000 -0.062920 -0.015567 1.000000 -0.047436 -0.016348 1.000000 -0.030442 -0.016660 1.000000 -0.014315 -0.016816 1.000000 0.003065 -0.016451 1.000000 0.018508 -0.015924 1.000000 0.034909 -0.014880 1.000000 0.048330 -0.013714 1.000000 0.062452 -0.012108 1.000000 0.072742 -0.010470 1.000000 0.083603 -0.008548 1.000000 0.090136 -0.006713 1.000000 0.097307 -0.004810 1.000000 0.100114 -0.003092 1.000000 0.103817 -0.001541 1.000000 0.103573 -0.000201 1.000000 0.104590 0.000757 1.000000 0.102414 0.001576 1.000000 0.101836 0.001857 1.000000 0.099011 0.002152 1.000000 0.097922 0.001862 1.000000 0.095558 0.001788 1.000000 0.094699 0.001211 1.000000 0.093380 0.001048 1.000000 0.092933 0.000532 1.000000 0.092592 0.000556 1.000000 0.092174 0.000365 1.000000 0.092200 0.000750 1.000000 0.091109 0.000994 1.000000 0.090648 0.001739 1.000000 0.088163 0.002365 1.000000 0.086433 0.003318 1.000000 0.082113 0.004095 1.000000 0.078789 0.004991 1.000000 0.072721 0.005600 1.000000 0.068180 0.006230 1.000000 0.060898 0.006573 1.000000 0.055690 0.006928 1.000000 0.047726 0.007068 1.000000 0.042251 0.007221 1.000000 0.033985 0.007234 1.000000 0.028485 0.007242 1.000000 0.020187 0.007168 1.000000 0.014833 0.007065 1.000000 0.006715 0.006923 1.000000 0.001644 0.006728 1.000000 -0.006122 0.006531 1.000000 -0.010795 0.006261 1.000000 -0.018069 0.006020 1.000000 -0.022255 0.005691 1.000000 -0.028929 0.005418 1.000000 -0.032560 0.005042 1.000000 -0.038552 0.004748 1.000000 -0.041583 0.004335 1.000000 -0.046829 0.004028 1.000000 -0.049231 0.003585 1.000000 -0.053683 0.003272 1.000000 
-0.062255 0.005388 1.000000 -0.066254 0.004739 1.000000 -0.067220 0.003882 1.000000 -0.070246 0.003240 1.000000 -0.070595 0.002365 1.000000 -0.072624 0.001740 1.000000 -0.072373 0.000862 1.000000 -0.073396 0.000264 1.000000 -0.072575 -0.000604 1.000000 -0.072599 -0.001162 1.000000 -0.071246 -0.002004 1.000000 -0.070299 -0.002510 1.000000 -0.068467 -0.003309 1.000000 -0.066596 -0.003749 1.000000 -0.064348 -0.004485 1.000000 -0.061623 -0.004847 1.000000 -0.059036 -0.005500 1.000000 -0.055549 -0.005772 1.000000 -0.052713 -0.006320 1.000000 -0.048580 -0.006488 1.000000 -0.045596 -0.006910 1.000000 -0.040954 -0.006961 1.000000 -0.037938 -0.007236 1.000000 -0.032949 -0.007155 1.000000 -0.030030 -0.007262 1.000000 -0.024876 -0.007035 1.000000 -0.022198 -0.006952 1.000000 -0.017083 -0.006565 1.000000 -0.014805 -0.006271 1.000000 -0.009955 -0.005711 1.000000 -0.008248 -0.005191 1.000000 -0.003905 -0.004448 1.000000 -0.002953 -0.003690 1.000000 0.000631 -0.002759 1.000000 0.000639 -0.001760 1.000000 0.003208 -0.000647 1.000000 0.002087 0.000580 1.000000 0.003396 0.001856 1.000000 0.000979 0.003282 1.000000 0.000811 0.004683 1.000000 -0.003032 0.006257 1.000000 -0.004840 0.007721 1.000000 -0.010180 0.009364 1.000000 -0.013713 0.010804 1.000000 -0.020531 0.012409 1.000000 -0.025765 0.013713 1.000000 -0.033931 0.015146 1.000000 -0.040705 0.016181 1.000000 -0.049949 0.017288 1.000000 -0.057946 0.017908 1.000000 -0.067849 0.018531 1.000000 -0.076585 0.018595 1.000000 -0.086578 0.018586 1.000000 -0.095415 0.017976 1.000000 -0.104806 0.017223 1.000000 -0.112984 0.015869 1.000000 -0.121005 0.014316 1.000000 -0.127702 0.012216 1.000000 -0.133578 0.009885 1.000000 -0.137988 0.007115 1.000000 -0.141021 0.004111 1.000000 -0.142443 0.000828 1.000000 -0.142096 -0.002664 1.000000 -0.140016 -0.006236 1.000000 -0.135983 -0.009965 1.000000 -0.130144 -0.013550 1.000000 -0.122402 -0.017225 1.000000 -0.112848 -0.020522 1.000000 -0.101687 -0.023827 1.000000 -0.088788 -0.026525 1.000000 -0.074817 -0.029141 1.000000 -0.059273 -0.030942 1.000000 -0.043416 -0.032568 1.000000 -0.026242 -0.033210 1.000000 -0.009699 -0.033598 1.000000 0.007827 -0.032909 1.000000 0.023657 -0.031930 1.000000 0.040116 -0.029901 1.000000 0.053803 -0.027618 1.000000 0.067841 -0.024477 1.000000 0.078177 -0.021211 1.000000 0.088781 -0.017444 1.000000 0.095075 -0.013746 1.000000 0.101825 -0.010010 1.000000 0.104112 -0.006535 1.000000 0.107283 -0.003473 1.000000 0.106336 -0.000782 1.000000 0.106761 0.001157 1.000000 0.103870 0.002756 1.000000 0.102673 0.003410 1.000000 0.099309 0.003924 1.000000 0.097625 0.003466 1.000000 0.095045 0.003236 1.000000 0.093680 0.002190 1.000000 0.092486 0.001779 1.000000 0.091617 0.000801 1.000000 0.091633 0.000772 1.000000 0.090834 0.000403 1.000000 0.091334 0.001077 1.000000 0.089814 0.001565 1.000000 0.089868 0.002959 1.000000 0.086847 0.004228 1.000000 0.085594 0.006065 1.000000 0.080593 0.007658 1.000000 0.077643 0.009406 1.000000 0.070782 0.010624 1.000000 0.066598 0.011838 1.000000 0.058498 0.012503 1.000000 0.053669 0.013185 1.000000 0.044880 0.013452 1.000000 0.039779 0.013753 1.000000 0.030672 0.013776 1.000000 0.025517 0.013808 1.000000 0.016368 0.013661 1.000000 0.011325 0.013482 1.000000 0.002360 0.013198 1.000000 -0.002426 0.012846 1.000000 -0.011015 0.012447 1.000000 -0.015425 0.011957 1.000000 -0.023481 0.011468 1.000000 -0.027420 0.010869 1.000000 -0.034822 0.010313 1.000000 -0.038224 0.009632 1.000000 -0.044874 0.009031 1.000000 -0.047694 0.008286 1.000000 -0.053517 0.007656 1.000000 -0.055729 0.006863 1.000000 -0.060665 0.006219 1.000000 
-0.057016 0.008395 1.000000 -0.060642 0.007457 1.000000 -0.061730 0.006001 1.000000 -0.064493 0.005075 1.000000 -0.064937 0.003583 1.000000 -0.066817 0.002684 1.000000 -0.066630 0.001180 1.000000 -0.067619 0.000323 1.000000 -0.066829 -0.001169 1.000000 -0.066933 -0.001965 1.000000 -0.065577 -0.003416 1.000000 -0.064820 -0.004135 1.000000 -0.062949 -0.005514 1.000000 -0.061374 -0.006136 1.000000 -0.059053 -0.007410 1.000000 -0.056720 -0.007918 1.000000 -0.054026 -0.009053 1.000000 -0.051020 -0.009427 1.000000 -0.048043 -0.010389 1.000000 -0.044466 -0.010609 1.000000 -0.041311 -0.011365 1.000000 -0.037289 -0.011412 1.000000 -0.034071 -0.011926 1.000000 -0.029750 -0.011779 1.000000 -0.026602 -0.012019 1.000000 -0.022152 -0.011656 1.000000 -0.019218 -0.011589 1.000000 -0.014829 -0.010989 1.000000 -0.012270 -0.010586 1.000000 -0.008156 -0.009727 1.000000 -0.006147 -0.008963 1.000000 -0.002539 -0.007830 1.000000 -0.001267 -0.006688 1.000000 0.001591 -0.005273 1.000000 0.001931 -0.003750 1.000000 0.003787 -0.002060 1.000000 0.003002 -0.000173 1.000000 0.003612 0.001764 1.000000 0.001526 0.003970 1.000000 0.000673 0.006099 1.000000 -0.002858 0.008545 1.000000 -0.005344 0.010774 1.000000 -0.010403 0.013341 1.000000 -0.014614 0.015538 1.000000 -0.021198 0.018064 1.000000 -0.027118 0.020059 1.000000 -0.035109 0.022339 1.000000 -0.042583 0.023929 1.000000 -0.051722 0.025730 1.000000 -0.060433 0.026689 1.000000 -0.070304 0.027765 1.000000 -0.079763 0.027876 1.000000 -0.089795 0.027999 1.000000 -0.099349 0.027079 1.000000 -0.108837 0.026071 1.000000 -0.117702 0.024009 1.000000 -0.125858 0.021779 1.000000 -0.133185 0.018568 1.000000 -0.139211 0.015143 1.000000 -0.144166 0.010896 1.000000 -0.147341 0.006430 1.000000 -0.149201 0.001387 1.000000 -0.148972 -0.003840 1.000000 -0.147213 -0.009335 1.000000 -0.143267 -0.014942 1.000000 -0.137630 -0.020467 1.000000 -0.129942 -0.026004 1.000000 -0.120471 -0.031093 1.000000 -0.109328 -0.036074 1.000000 -0.096388 -0.040248 1.000000 -0.082388 -0.044177 1.000000 -0.066666 -0.046969 1.000000 -0.050716 -0.049379 1.000000 -0.033217 -0.050376 1.000000 -0.016514 -0.050885 1.000000 0.001475 -0.049807 1.000000 0.017515 -0.048214 1.000000 0.034515 -0.045026 1.000000 0.048404 -0.041439 1.000000 0.062950 -0.036482 1.000000 0.073405 -0.031410 1.000000 0.084351 -0.025445 1.000000 0.090627 -0.019757 1.000000 0.097468 -0.013848 1.000000 0.099609 -0.008549 1.000000 0.102638 -0.003765 1.000000 0.101462 0.000321 1.000000 0.101634 0.003223 1.000000 0.098451 0.005664 1.000000 0.097057 0.006418 1.000000 0.093346 0.007200 1.000000 0.091663 0.006126 1.000000 0.088755 0.005733 1.000000 0.087637 0.003769 1.000000 0.086183 0.003111 1.000000 0.085805 0.001385 1.000000 0.085685 0.001339 1.000000 0.085548 0.000664 1.000000 0.086025 0.001770 1.000000 0.085320 0.002460 1.000000 0.085431 0.004707 1.000000 0.083350 0.006638 1.000000 0.082107 0.009571 1.000000 0.078063 0.012047 1.000000 0.074908 0.014802 1.000000 0.068969 0.016645 1.000000 0.064590 0.018514 1.000000 0.057485 0.019501 1.000000 0.052541 0.020545 1.000000 0.044790 0.020959 1.000000 0.039589 0.021429 1.000000 0.031500 0.021495 1.000000 0.026213 0.021547 1.000000 0.018032 0.021360 1.000000 0.012821 0.021072 1.000000 0.004772 0.020675 1.000000 -0.000208 0.020103 1.000000 -0.007934 0.019529 1.000000 -0.012546 0.018727 1.000000 -0.019798 0.018016 1.000000 -0.023940 0.017031 1.000000 -0.030603 0.016222 1.000000 -0.034200 0.015094 1.000000 -0.040189 0.014219 1.000000 -0.043193 0.012978 1.000000 -0.048441 0.012063 1.000000 -0.050821 0.010733 1.000000 -0.055279 0.009798 1.000000 
-0.064736 0.010751 1.000000 -0.068758 0.009454 1.000000 -0.069686 0.007733 1.000000 -0.072727 0.006446 1.000000 -0.073032 0.004689 1.000000 -0.075061 0.003434 1.000000 -0.074758 0.001664 1.000000 -0.075760 0.000463 1.000000 -0.074873 -0.001291 1.000000 -0.074852 -0.002414 1.000000 -0.073418 -0.004117 1.000000 -0.072396 -0.005137 1.000000 -0.070466 -0.006755 1.000000 -0.068489 -0.007646 1.000000 -0.066126 -0.009138 1.000000 -0.063263 -0.009874 1.000000 -0.060543 -0.011200 1.000000 -0.056885 -0.011754 1.000000 -0.053897 -0.012873 1.000000 -0.049559 -0.013220 1.000000 -0.046404 -0.014088 1.000000 -0.041525 -0.014201 1.000000 -0.038318 -0.014774 1.000000 -0.033058 -0.014625 1.000000 -0.029927 -0.014861 1.000000 -0.024470 -0.014420 1.000000 -0.021559 -0.014274 1.000000 -0.016112 -0.013512 1.000000 -0.013579 -0.012945 1.000000 -0.008371 -0.011835 1.000000 -0.006392 -0.010809 1.000000 -0.001671 -0.009328 1.000000 -0.000435 -0.007819 1.000000 0.003534 -0.005956 1.000000 0.003827 -0.003956 1.000000 0.006774 -0.001719 1.000000 0.005922 0.000754 1.000000 0.007579 0.003332 1.000000 0.005394 0.006222 1.000000 0.005517 0.009067 1.000000 0.001839 0.012274 1.000000 0.000233 0.015266 1.000000 -0.005038 0.018634 1.000000 -0.008494 0.021599 1.000000 -0.015373 0.024912 1.000000 -0.020688 0.027624 1.000000 -0.029072 0.030611 1.000000 -0.036112 0.032793 1.000000 -0.045748 0.035139 1.000000 -0.054208 0.036491 1.000000 -0.064676 0.037862 1.000000 -0.074064 0.038086 1.000000 -0.084773 0.038172 1.000000 -0.094418 0.037017 1.000000 -0.104628 0.035576 1.000000 -0.113711 0.032890 1.000000 -0.122584 0.029799 1.000000 -0.130207 0.025569 1.000000 -0.136886 0.020866 1.000000 -0.142156 0.015245 1.000000 -0.145865 0.009146 1.000000 -0.148002 0.002459 1.000000 -0.148141 -0.004652 1.000000 -0.146570 -0.011940 1.000000 -0.142794 -0.019549 1.000000 -0.137221 -0.026875 1.000000 -0.129492 -0.034383 1.000000 -0.119944 -0.041136 1.000000 -0.108545 -0.047910 1.000000 -0.095383 -0.053466 1.000000 -0.080926 -0.058863 1.000000 -0.064853 -0.062613 1.000000 -0.048275 -0.066016 1.000000 -0.030334 -0.067413 1.000000 -0.012889 -0.068291 1.000000 0.005556 -0.066937 1.000000 0.022334 -0.064970 1.000000 0.039687 -0.060790 1.000000 0.054137 -0.056054 1.000000 0.068784 -0.049478 1.000000 0.079410 -0.042612 1.000000 0.090091 -0.034666 1.000000 0.095983 -0.026863 1.000000 0.102188 -0.018992 1.000000 0.103378 -0.011705 1.000000 0.105525 -0.005326 1.000000 0.103017 0.000222 1.000000 0.102209 0.004168 1.000000 0.097632 0.007333 1.000000 0.095230 0.008515 1.000000 0.090426 0.009318 1.000000 0.087830 0.008057 1.000000 0.084448 0.007263 1.000000 0.082702 0.004763 1.000000 0.081422 0.003611 1.000000 0.080658 0.001299 1.000000 0.081085 0.001029 1.000000 0.080737 0.000064 1.000000 0.081924 0.001305 1.000000 0.080975 0.002158 1.000000 0.081897 0.004929 1.000000 0.079466 0.007552 1.000000 0.078996 0.011351 1.000000 0.074405 0.014857 1.000000 0.071709 0.018500 1.000000 0.065043 0.020941 1.000000 0.061155 0.023322 1.000000 0.053352 0.024552 1.000000 0.048976 0.025880 1.000000 0.040518 0.026404 1.000000 0.035850 0.027043 1.000000 0.026994 0.027151 1.000000 0.022157 0.027275 1.000000 0.013156 0.027053 1.000000 0.008320 0.026743 1.000000 -0.000569 0.026227 1.000000 -0.005222 0.025552 1.000000 -0.013776 0.024786 1.000000 -0.018094 0.023821 1.000000 -0.026139 0.022861 1.000000 -0.030010 0.021673 1.000000 -0.037414 0.020574 1.000000 -0.040762 0.019218 1.000000 -0.047426 0.018023 1.000000 -0.050202 0.016539 1.000000 -0.056047 0.015285 1.000000 -0.058221 0.013700 1.000000 -0.063181 0.012413 1.000000 
-0.060160 0.013972 1.000000 -0.063802 0.012408 1.000000 -0.064847 0.009970 1.000000 -0.067620 0.008421 1.000000 -0.068010 0.005918 1.000000 -0.069885 0.004410 1.000000 -0.069631 0.001879 1.000000 -0.070593 0.000438 1.000000 -0.069716 -0.002077 1.000000 -0.069765 -0.003420 1.000000 -0.068301 -0.005872 1.000000 -0.067455 -0.007087 1.000000 -0.065453 -0.009421 1.000000 -0.063752 -0.010476 1.000000 -0.061276 -0.012637 1.000000 -0.058778 -0.013501 1.000000 -0.055904 -0.015431 1.000000 -0.052692 -0.016073 1.000000 -0.049511 -0.017715 1.000000 -0.045686 -0.018102 1.000000 -0.042300 -0.019399 1.000000 -0.037988 -0.019498 1.000000 -0.034514 -0.020393 1.000000 -0.029860 -0.020170 1.000000 -0.026426 -0.020606 1.000000 -0.021601 -0.020024 1.000000 -0.018352 -0.019948 1.000000 -0.013548 -0.018968 1.000000 -0.010646 -0.018327 1.000000 -0.006079 -0.016914 1.000000 -0.003703 -0.015663 1.000000 0.000387 -0.013787 1.000000 0.002043 -0.011893 1.000000 0.005397 -0.009535 1.000000 0.006123 -0.006989 1.000000 0.008470 -0.004155 1.000000 0.008053 -0.000979 1.000000 0.009120 0.002293 1.000000 0.007353 0.006032 1.000000 0.006886 0.009653 1.000000 0.003590 0.013829 1.000000 0.001375 0.017651 1.000000 -0.003576 0.022068 1.000000 -0.007678 0.025874 1.000000 -0.014323 0.030258 1.000000 -0.020342 0.033758 1.000000 -0.028602 0.037763 1.000000 -0.036420 0.040605 1.000000 -0.046059 0.043826 1.000000 -0.055378 0.045617 1.000000 -0.065982 0.047622 1.000000 -0.076303 0.047974 1.000000 -0.087269 0.048353 1.000000 -0.097895 0.046934 1.000000 -0.108456 0.045364 1.000000 -0.118523 0.041965 1.000000 -0.127797 0.038275 1.000000 -0.136347 0.032870 1.000000 -0.143427 0.027092 1.000000 -0.149511 0.019875 1.000000 -0.153569 0.012276 1.000000 -0.156360 0.003662 1.000000 -0.156764 -0.005272 1.000000 -0.155664 -0.014681 1.000000 -0.152057 -0.024290 1.000000 -0.146771 -0.033769 1.000000 -0.139118 -0.043282 1.000000 -0.129679 -0.052040 1.000000 -0.118267 -0.060635 1.000000 -0.105037 -0.067867 1.000000 -0.090468 -0.074707 1.000000 -0.074126 -0.079620 1.000000 -0.057315 -0.083898 1.000000 -0.038875 -0.085762 1.000000 -0.021066 -0.086775 1.000000 -0.001894 -0.085031 1.000000 0.015338 -0.082345 1.000000 0.033552 -0.076829 1.000000 0.048415 -0.070536 1.000000 0.063851 -0.061755 1.000000 0.074664 -0.052716 1.000000 0.085793 -0.042018 1.000000 0.091519 -0.031855 1.000000 0.097646 -0.021243 1.000000 0.098361 -0.011886 1.000000 0.099948 -0.003403 1.000000 0.096830 0.003638 1.000000 0.095251 0.008608 1.000000 0.090011 0.012642 1.000000 0.086960 0.013624 1.000000 0.081420 0.014600 1.000000 0.078570 0.012105 1.000000 0.074589 0.010860 1.000000 0.072967 0.006794 1.000000 0.071231 0.005155 1.000000 0.070978 0.001722 1.000000 0.071237 0.001261 1.000000 0.071545 -0.000174 1.000000 0.072795 0.001532 1.000000 0.072722 0.002487 1.000000 0.073985 0.006215 1.000000 0.072720 0.009540 1.000000 0.072659 0.014632 1.000000 0.069319 0.019333 1.000000 0.066442 0.024164 1.000000 0.060871 0.027200 1.000000 0.056979 0.030206 1.000000 0.050425 0.031681 1.000000 0.046203 0.033379 1.000000 0.038992 0.034084 1.000000 0.034418 0.034953 1.000000 0.026698 0.035188 1.000000 0.021832 0.035385 1.000000 0.013860 0.035197 1.000000 0.008906 0.034797 1.000000 0.000969 0.034217 1.000000 -0.003849 0.033310 1.000000 -0.011512 0.032401 1.000000 -0.016014 0.031089 1.000000 -0.023228 0.029932 1.000000 -0.027287 0.028306 1.000000 -0.033930 0.026974 1.000000 -0.037463 0.025106 1.000000 -0.043446 0.023659 1.000000 -0.046399 0.021599 1.000000 -0.051655 0.020082 1.000000 -0.053991 0.017867 1.000000 -0.058464 0.016313 1.000000 
-0.068867 0.016090 1.000000 -0.072934 0.014140 1.000000 -0.073805 0.011551 1.000000 -0.076877 0.009610 1.000000 -0.077115 0.006954 1.000000 -0.079151 0.005055 1.000000 -0.078763 0.002371 1.000000 -0.079737 0.000548 1.000000 -0.078742 -0.002119 1.000000 -0.078649 -0.003829 1.000000 -0.077082 -0.006427 1.000000 -0.075939 -0.007985 1.000000 -0.073847 -0.010458 1.000000 -0.071696 -0.011823 1.000000 -0.069142 -0.014112 1.000000 -0.066050 -0.015245 1.000000 -0.063109 -0.017286 1.000000 -0.059166 -0.018148 1.000000 -0.055927 -0.019879 1.000000 -0.051249 -0.020430 1.000000 -0.047811 -0.021786 1.000000 -0.042536 -0.021987 1.000000 -0.039013 -0.022903 1.000000 -0.033303 -0.022712 1.000000 -0.029821 -0.023120 1.000000 -0.023860 -0.022493 1.000000 -0.020561 -0.022327 1.000000 -0.014558 -0.021219 1.000000 -0.011601 -0.020413 1.000000 -0.005791 -0.018778 1.000000 -0.003354 -0.017275 1.000000 0.002005 -0.015074 1.000000 0.003722 -0.012829 1.000000 0.008350 -0.010037 1.000000 0.009131 -0.007029 1.000000 0.012730 -0.003648 1.000000 0.012348 0.000104 1.000000 0.014616 0.004031 1.000000 0.012845 0.008457 1.000000 0.013492 0.012830 1.000000 0.010126 0.017785 1.000000 0.008901 0.022432 1.000000 0.003787 0.027686 1.000000 0.000509 0.032347 1.000000 -0.006425 0.037577 1.000000 -0.011824 0.041902 1.000000 -0.020525 0.046689 1.000000 -0.027960 0.050250 1.000000 -0.038209 0.054097 1.000000 -0.047402 0.056413 1.000000 -0.058783 0.058786 1.000000 -0.069233 0.059374 1.000000 -0.081119 0.059763 1.000000 -0.092101 0.058204 1.000000 -0.103673 0.056204 1.000000 -0.114270 0.052231 1.000000 -0.124568 0.047624 1.000000 -0.133744 0.041198 1.000000 -0.141770 0.034029 1.000000 -0.148485 0.025387 1.000000 -0.153325 0.015995 1.000000 -0.156662 0.005653 1.000000 -0.157614 -0.005348 1.000000 -0.156904 -0.016647 1.000000 -0.153568 -0.028441 1.000000 -0.148468 -0.039815 1.000000 -0.140793 -0.051476 1.000000 -0.131313 -0.061987 1.000000 -0.119590 -0.072552 1.000000 -0.106086 -0.081265 1.000000 -0.090926 -0.089773 1.000000 -0.074094 -0.095766 1.000000 -0.056431 -0.101268 1.000000 -0.037323 -0.103662 1.000000 -0.018457 -0.105271 1.000000 0.001467 -0.103341 1.000000 0.019827 -0.100416 1.000000 0.038695 -0.093867 1.000000 0.054495 -0.086353 1.000000 0.070220 -0.075728 1.000000 0.081404 -0.064554 1.000000 0.092210 -0.051520 1.000000 0.097399 -0.038716 1.000000 0.102566 -0.025834 1.000000 0.101758 -0.014007 1.000000 0.102040 -0.003795 1.000000 0.096738 0.004919 1.000000 0.093842 0.010986 1.000000 0.086316 0.015624 1.000000 0.081911 0.017106 1.000000 0.074574 0.017707 1.000000 0.070443 0.014888 1.000000 0.065791 0.012866 1.000000 0.063482 0.008121 1.000000 0.062181 0.005599 1.000000 0.061505 0.001294 1.000000 0.062521 0.000463 1.000000 0.062776 -0.001494 1.000000 0.064808 0.000128 1.000000 0.064521 0.000968 1.000000 0.066814 0.004931 1.000000 0.065305 0.008879 1.000000 0.066527 0.014752 1.000000 0.062886 0.021074 1.000000 0.060528 0.026949 1.000000 0.054446 0.030404 1.000000 0.051415 0.033768 1.000000 0.044486 0.035328 1.000000 0.041203 0.037312 1.000000 0.033468 0.038190 1.000000 0.029623 0.039338 1.000000 0.021179 0.039737 1.000000 0.016839 0.040113 1.000000 0.008031 0.039980 1.000000 0.003484 0.039634 1.000000 -0.005321 0.038982 1.000000 -0.009791 0.038032 1.000000 -0.018307 0.036951 1.000000 -0.022492 0.035536 1.000000 -0.030523 0.034134 1.000000 -0.034290 0.032375 1.000000 -0.041700 0.030750 1.000000 -0.044964 0.028734 1.000000 -0.051652 0.026959 1.000000 -0.054360 0.024748 1.000000 -0.060243 0.022876 1.000000 -0.062359 0.020509 1.000000 -0.067367 0.018582 1.000000 
-0.064867 0.019539 1.000000 -0.068545 0.017346 1.000000 -0.069530 0.013913 1.000000 -0.072328 0.011731 1.000000 -0.072645 0.008191 1.000000 -0.074522 0.006057 1.000000 -0.074172 0.002464 1.000000 -0.075102 0.000418 1.000000 -0.074100 -0.003165 1.000000 -0.074072 -0.005081 1.000000 -0.072449 -0.008582 1.000000 -0.071474 -0.010321 1.000000 -0.069278 -0.013663 1.000000 -0.067391 -0.015181 1.000000 -0.064683 -0.018283 1.000000 -0.061941 -0.019534 1.000000 -0.058799 -0.022315 1.000000 -0.055280 -0.023255 1.000000 -0.051794 -0.025633 1.000000 -0.047600 -0.026217 1.000000 -0.043872 -0.028112 1.000000 -0.039127 -0.028296 1.000000 -0.035270 -0.029626 1.000000 -0.030119 -0.029362 1.000000 -0.026261 -0.030049 1.000000 -0.020873 -0.029284 1.000000 -0.017156 -0.029249 1.000000 -0.011725 -0.027928 1.000000 -0.008310 -0.027094 1.000000 -0.003057 -0.025161 1.000000 -0.000125 -0.023459 1.000000 0.004700 -0.020863 1.000000 0.006943 -0.018238 1.000000 0.011063 -0.014944 1.000000 0.012390 -0.011370 1.000000 0.015504 -0.007372 1.000000 0.015670 -0.002865 1.000000 0.017466 0.001796 1.000000 0.016222 0.007156 1.000000 0.016388 0.012371 1.000000 0.013500 0.018419 1.000000 0.011758 0.023991 1.000000 0.007035 0.030460 1.000000 0.003170 0.036086 1.000000 -0.003496 0.042592 1.000000 -0.009588 0.047858 1.000000 -0.018180 0.053899 1.000000 -0.026443 0.058289 1.000000 -0.036769 0.063267 1.000000 -0.046942 0.066191 1.000000 -0.058597 0.069452 1.000000 -0.070172 0.070310 1.000000 -0.082515 0.071221 1.000000 -0.094732 0.069487 1.000000 -0.106897 0.067532 1.000000 -0.118770 0.062861 1.000000 -0.129729 0.057749 1.000000 -0.140129 0.050073 1.000000 -0.148795 0.041833 1.000000 -0.156585 0.031430 1.000000 -0.161966 0.020453 1.000000 -0.166156 0.007951 1.000000 -0.167500 -0.005031 1.000000 -0.167391 -0.018727 1.000000 -0.164293 -0.032727 1.000000 -0.159560 -0.046543 1.000000 -0.151996 -0.060437 1.000000 -0.142687 -0.073244 1.000000 -0.130977 -0.085861 1.000000 -0.117463 -0.096530 1.000000 -0.102214 -0.106699 1.000000 -0.085153 -0.114115 1.000000 -0.067251 -0.120669 1.000000 -0.047609 -0.123736 1.000000 -0.028295 -0.125565 1.000000 -0.007469 -0.123314 1.000000 0.011526 -0.119573 1.000000 0.031590 -0.111496 1.000000 0.048013 -0.102061 1.000000 0.064917 -0.088665 1.000000 0.076361 -0.074707 1.000000 0.087825 -0.058013 1.000000 0.092626 -0.042210 1.000000 0.097521 -0.025602 1.000000 0.095798 -0.011361 1.000000 0.094934 0.001617 1.000000 0.088689 0.011836 1.000000 0.084334 0.019031 1.000000 0.075997 0.024574 1.000000 0.070459 0.025366 1.000000 0.062046 0.026068 1.000000 0.057654 0.020888 1.000000 0.052275 0.017821 1.000000 0.049983 0.010404 1.000000 0.047791 0.007132 1.000000 0.047686 0.001382 1.000000 0.048270 -0.000011 1.000000 0.048786 -0.002461 1.000000 0.050607 -0.000213 1.000000 0.050866 0.000480 1.000000 0.053652 0.005431 1.000000 0.053420 0.009827 1.000000 0.055924 0.017052 1.000000 0.054260 0.025331 1.000000 0.051571 0.032603 1.000000 0.047088 0.036313 1.000000 0.044697 0.040167 1.000000 0.039628 0.041893 1.000000 0.037029 0.044396 1.000000 0.030828 0.045663 1.000000 0.027278 0.047242 1.000000 0.020041 0.047972 1.000000 0.015714 0.048534 1.000000 0.007945 0.048553 1.000000 0.003282 0.048149 1.000000 -0.004555 0.047492 1.000000 -0.009188 0.046296 1.000000 -0.016782 0.045103 1.000000 -0.021144 0.043306 1.000000 -0.028308 0.041729 1.000000 -0.032255 0.039483 1.000000 -0.038868 0.037648 1.000000 -0.042311 0.035058 1.000000 -0.048290 0.033055 1.000000 -0.051171 0.030191 1.000000 -0.056444 0.028082 1.000000 -0.058721 0.024990 1.000000 -0.063225 0.022820 1.000000 