# vtk DataFile Version 2.0
Comment goes here
ASCII

DATASET STRUCTURED_POINTS
DIMENSIONS    128   128   1

ORIGIN    0.000   0.000   0.000
SPACING   0.0156250.015625   1.000

POINT_DATA   16384
VECTORS u double

-0.005907 0.000000 1.000000 -0.006289 -0.000000 1.000000 -0.006452 0.000000 1.000000 -0.006747 -0.000000 1.000000 -0.006872 0.000000 1.000000 -0.007079 -0.000000 1.000000 -0.007166 0.000000 1.000000 -0.007285 -0.000000 1.000000 -0.007337 0.000000 1.000000 -0.007369 -0.000000 1.000000 -0.007387 0.000000 1.000000 -0.007334 -0.000000 1.000000 -0.007322 0.000000 1.000000 -0.007188 -0.000000 1.000000 -0.007148 -0.000000 1.000000 -0.006939 -0.000000 1.000000 -0.006874 -0.000000 1.000000 -0.006598 -0.000000 1.000000 -0.006513 -0.000000 1.000000 -0.006178 -0.000000 1.000000 -0.006078 -0.000000 1.000000 -0.005694 -0.000000 1.000000 -0.005585 -0.000000 1.000000 -0.005164 -0.000000 1.000000 -0.005053 -0.000000 1.000000 -0.004609 -0.000000 1.000000 -0.004504 -0.000000 1.000000 -0.004049 -0.000000 1.000000 -0.003959 -0.000000 1.000000 -0.003511 -0.000000 1.000000 -0.003447 -0.000000 1.000000 -0.003020 -0.000000 1.000000 -0.002992 -0.000000 1.000000 -0.002604 -0.000000 1.000000 -0.002624 -0.000000 1.000000 -0.002292 -0.000000 1.000000 -0.002372 -0.000000 1.000000 -0.002111 -0.000000 1.000000 -0.002263 -0.000000 1.000000 -0.002086 -0.000000 1.000000 -0.002319 -0.000000 1.000000 -0.002238 0.000000 1.000000 -0.002558 -0.000000 1.000000 -0.002578 0.000000 1.000000 -0.002985 -0.000000 1.000000 -0.003106 0.000000 1.000000 -0.003594 0.000000 1.000000 -0.003805 0.000000 1.000000 -0.004359 -0.000000 1.000000 -0.004641 0.000000 1.000000 -0.005234 -0.000000 1.000000 -0.005556 -0.000000 1.000000 -0.006154 -0.000000 1.000000 -0.006475 -0.000000 1.000000 -0.007031 -0.000000 1.000000 -0.007305 -0.000000 1.000000 -0.007767 -0.000001 1.000000 -0.007941 -0.000001 1.000000 -0.008255 -0.000001 1.000000 -0.008281 -0.000001 1.000000 -0.008397 -0.000001 1.000000 -0.008232 -0.000001 1.000000 -0.008108 -0.000002 1.000000 -0.007723 -0.000002 1.000000 -0.007333 -0.000002 1.000000 -0.006716 -0.000002 1.000000 -0.006052 -0.000003 1.000000 -0.005206 -0.000003 1.000000 -0.004281 -0.000003 1.000000 -0.003230 -0.000003 1.000000 -0.002077 -0.000003 1.000000 -0.000861 -0.000003 1.000000 0.000463 -0.000003 1.000000 0.001783 -0.000004 1.000000 0.003200 -0.000004 1.000000 0.004546 -0.000004 1.000000 0.005957 -0.000004 1.000000 0.007232 -0.000003 1.000000 0.008525 -0.000003 1.000000 0.009629 -0.000003 1.000000 0.010693 -0.000003 1.000000 0.011535 -0.000003 1.000000 0.012290 -0.000003 1.000000 0.012816 -0.000002 1.000000 0.013236 -0.000002 1.000000 0.013450 -0.000002 1.000000 0.013581 -0.000002 1.000000 0.013551 -0.000001 1.000000 0.013504 -0.000001 1.000000 0.013338 -0.000001 1.000000 0.013259 -0.000001 1.000000 0.013070 -0.000001 1.000000 0.013081 -0.000001 1.000000 0.012932 -0.000001 1.000000 0.013082 -0.000000 1.000000 0.012966 -0.000000 1.000000 0.013204 -0.000000 1.000000 0.013041 -0.000000 1.000000 0.013234 -0.000000 1.000000 0.012916 -0.000000 1.000000 0.012909 -0.000000 1.000000 0.012340 0.000000 1.000000 0.012018 0.000000 1.000000 0.011165 0.000000 1.000000 0.010530 0.000000 1.000000 0.009465 0.000000 1.000000 0.008664 0.000000 1.000000 0.007516 0.000000 1.000000 0.006699 0.000000 1.000000 0.005564 0.000000 1.000000 0.004811 0.000000 1.000000 0.003732 -0.000000 1.000000 0.003064 -0.000000 1.000000 0.002055 -0.000000 1.000000 0.001470 -0.000000 1.000000 0.000533 -0.000000 1.000000 0.000020 -0.000000 1.000000 -0.000843 -0.000000 1.000000 -0.001290 -0.000000 1.000000 -0.002078 -0.000000 1.000000 -0.002468 0.000000 1.000000 -0.003179 -0.000000 1.000000 -0.003517 0.000000 1.000000 -0.004149 -0.000000 1.000000 -0.004440 0.000000 1.000000 -0.004990 -0.000000 1.000000 -0.005236 0.000000 1.000000 -0.005703 -0.000000 1.000000 
-0.004801 0.000293 1.000000 -0.005118 0.000273 1.000000 -0.005305 0.000229 1.000000 -0.005555 0.000210 1.000000 -0.005699 0.000166 1.000000 -0.005883 0.000147 1.000000 -0.005984 0.000103 1.000000 -0.006102 0.000085 1.000000 -0.006162 0.000042 1.000000 -0.006215 0.000025 1.000000 -0.006236 -0.000017 1.000000 -0.006227 -0.000033 1.000000 -0.006211 -0.000073 1.000000 -0.006142 -0.000087 1.000000 -0.006093 -0.000125 1.000000 -0.005968 -0.000137 1.000000 -0.005889 -0.000171 1.000000 -0.005714 -0.000181 1.000000 -0.005610 -0.000210 1.000000 -0.005392 -0.000218 1.000000 -0.005268 -0.000242 1.000000 -0.005014 -0.000247 1.000000 -0.004877 -0.000265 1.000000 -0.004597 -0.000266 1.000000 -0.004453 -0.000278 1.000000 -0.004157 -0.000275 1.000000 -0.004016 -0.000280 1.000000 -0.003715 -0.000272 1.000000 -0.003586 -0.000269 1.000000 -0.003293 -0.000257 1.000000 -0.003186 -0.000246 1.000000 -0.002916 -0.000227 1.000000 -0.002843 -0.000208 1.000000 -0.002609 -0.000184 1.000000 -0.002582 -0.000156 1.000000 -0.002400 -0.000126 1.000000 -0.002431 -0.000091 1.000000 -0.002315 -0.000055 1.000000 -0.002416 -0.000012 1.000000 -0.002378 0.000028 1.000000 -0.002559 0.000076 1.000000 -0.002610 0.000119 1.000000 -0.002877 0.000170 1.000000 -0.003020 0.000214 1.000000 -0.003376 0.000264 1.000000 -0.003610 0.000305 1.000000 -0.004048 0.000350 1.000000 -0.004363 0.000383 1.000000 -0.004868 0.000418 1.000000 -0.005244 0.000438 1.000000 -0.005793 0.000458 1.000000 -0.006199 0.000460 1.000000 -0.006754 0.000459 1.000000 -0.007150 0.000439 1.000000 -0.007668 0.000414 1.000000 -0.008006 0.000367 1.000000 -0.008434 0.000318 1.000000 -0.008662 0.000244 1.000000 -0.008947 0.000169 1.000000 -0.009018 0.000070 1.000000 -0.009109 -0.000026 1.000000 -0.008982 -0.000146 1.000000 -0.008840 -0.000256 1.000000 -0.008487 -0.000389 1.000000 -0.008087 -0.000506 1.000000 -0.007496 -0.000643 1.000000 -0.006831 -0.000757 1.000000 -0.006009 -0.000888 1.000000 -0.005091 -0.000991 1.000000 -0.004060 -0.001105 1.000000 -0.002922 -0.001188 1.000000 -0.001723 -0.001274 1.000000 -0.000417 -0.001326 1.000000 0.000894 -0.001372 1.000000 0.002291 -0.001385 1.000000 0.003638 -0.001382 1.000000 0.005031 -0.001347 1.000000 0.006320 -0.001288 1.000000 0.007600 -0.001202 1.000000 0.008728 -0.001087 1.000000 0.009784 -0.000956 1.000000 0.010659 -0.000801 1.000000 0.011409 -0.000643 1.000000 0.011975 -0.000475 1.000000 0.012389 -0.000319 1.000000 0.012650 -0.000174 1.000000 0.012772 -0.000052 1.000000 0.012800 0.000037 1.000000 0.012740 0.000105 1.000000 0.012649 0.000122 1.000000 0.012551 0.000134 1.000000 0.012454 0.000089 1.000000 0.012442 0.000068 1.000000 0.012399 -0.000001 1.000000 0.012523 -0.000017 1.000000 0.012519 -0.000061 1.000000 0.012727 -0.000038 1.000000 0.012683 -0.000016 1.000000 0.012847 0.000062 1.000000 0.012656 0.000163 1.000000 0.012620 0.000288 1.000000 0.012188 0.000446 1.000000 0.011829 0.000587 1.000000 0.011119 0.000744 1.000000 0.010432 0.000850 1.000000 0.009514 0.000933 1.000000 0.008660 0.000975 1.000000 0.007668 0.000982 1.000000 0.006805 0.000976 1.000000 0.005833 0.000944 1.000000 0.005038 0.000916 1.000000 0.004124 0.000873 1.000000 0.003416 0.000839 1.000000 0.002569 0.000797 1.000000 0.001943 0.000761 1.000000 0.001164 0.000725 1.000000 0.000611 0.000688 1.000000 -0.000101 0.000655 1.000000 -0.000589 0.000618 1.000000 -0.001235 0.000589 1.000000 -0.001665 0.000551 1.000000 -0.002245 0.000524 1.000000 -0.002621 0.000485 1.000000 -0.003135 0.000461 1.000000 -0.003460 0.000421 1.000000 -0.003909 0.000398 1.000000 -0.004187 0.000357 1.000000 -0.004570 0.000335 1.000000 
-0.005970 0.000548 1.000000 -0.006353 0.000504 1.000000 -0.006515 0.000437 1.000000 -0.006811 0.000394 1.000000 -0.006935 0.000327 1.000000 -0.007142 0.000285 1.000000 -0.007228 0.000219 1.000000 -0.007346 0.000178 1.000000 -0.007397 0.000113 1.000000 -0.007428 0.000074 1.000000 -0.007445 0.000012 1.000000 -0.007390 -0.000025 1.000000 -0.007376 -0.000085 1.000000 -0.007240 -0.000118 1.000000 -0.007197 -0.000174 1.000000 -0.006986 -0.000204 1.000000 -0.006918 -0.000254 1.000000 -0.006638 -0.000279 1.000000 -0.006550 -0.000322 1.000000 -0.006210 -0.000342 1.000000 -0.006106 -0.000378 1.000000 -0.005717 -0.000391 1.000000 -0.005604 -0.000418 1.000000 -0.005177 -0.000424 1.000000 -0.005062 -0.000440 1.000000 -0.004611 -0.000438 1.000000 -0.004501 -0.000442 1.000000 -0.004039 -0.000430 1.000000 -0.003944 -0.000422 1.000000 -0.003487 -0.000400 1.000000 -0.003417 -0.000377 1.000000 -0.002982 -0.000344 1.000000 -0.002948 -0.000307 1.000000 -0.002552 -0.000261 1.000000 -0.002567 -0.000209 1.000000 -0.002226 -0.000151 1.000000 -0.002301 -0.000085 1.000000 -0.002032 -0.000015 1.000000 -0.002180 0.000063 1.000000 -0.001998 0.000143 1.000000 -0.002228 0.000231 1.000000 -0.002144 0.000318 1.000000 -0.002463 0.000411 1.000000 -0.002485 0.000499 1.000000 -0.002895 0.000590 1.000000 -0.003020 0.000672 1.000000 -0.003516 0.000753 1.000000 -0.003737 0.000821 1.000000 -0.004304 0.000881 1.000000 -0.004601 0.000924 1.000000 -0.005212 0.000954 1.000000 -0.005554 0.000962 1.000000 -0.006175 0.000951 1.000000 -0.006520 0.000913 1.000000 -0.007103 0.000855 1.000000 -0.007402 0.000765 1.000000 -0.007891 0.000656 1.000000 -0.008090 0.000513 1.000000 -0.008429 0.000355 1.000000 -0.008476 0.000161 1.000000 -0.008612 -0.000037 1.000000 -0.008462 -0.000270 1.000000 -0.008351 -0.000497 1.000000 -0.007973 -0.000755 1.000000 -0.007587 -0.000993 1.000000 -0.006967 -0.001258 1.000000 -0.006297 -0.001490 1.000000 -0.005440 -0.001743 1.000000 -0.004498 -0.001952 1.000000 -0.003426 -0.002172 1.000000 -0.002245 -0.002341 1.000000 -0.001000 -0.002508 1.000000 0.000364 -0.002620 1.000000 0.001723 -0.002712 1.000000 0.003189 -0.002747 1.000000 0.004581 -0.002744 1.000000 0.006047 -0.002686 1.000000 0.007372 -0.002572 1.000000 0.008717 -0.002411 1.000000 0.009863 -0.002188 1.000000 0.010965 -0.001934 1.000000 0.011829 -0.001627 1.000000 0.012593 -0.001318 1.000000 0.013112 -0.000982 1.000000 0.013503 -0.000678 1.000000 0.013678 -0.000385 1.000000 0.013746 -0.000151 1.000000 0.013654 0.000031 1.000000 0.013527 0.000150 1.000000 0.013296 0.000188 1.000000 0.013143 0.000194 1.000000 0.012905 0.000108 1.000000 0.012873 0.000054 1.000000 0.012706 -0.000081 1.000000 0.012855 -0.000120 1.000000 0.012747 -0.000205 1.000000 0.013021 -0.000164 1.000000 0.012883 -0.000120 1.000000 0.013130 0.000027 1.000000 0.012839 0.000227 1.000000 0.012881 0.000468 1.000000 0.012329 0.000791 1.000000 0.012022 0.001069 1.000000 0.011162 0.001397 1.000000 0.010490 0.001606 1.000000 0.009402 0.001772 1.000000 0.008568 0.001846 1.000000 0.007409 0.001855 1.000000 0.006584 0.001835 1.000000 0.005452 0.001767 1.000000 0.004705 0.001709 1.000000 0.003632 0.001622 1.000000 0.002974 0.001555 1.000000 0.001968 0.001473 1.000000 0.001391 0.001405 1.000000 0.000456 0.001332 1.000000 -0.000051 0.001265 1.000000 -0.000914 0.001200 1.000000 -0.001357 0.001134 1.000000 -0.002146 0.001075 1.000000 -0.002533 0.001010 1.000000 -0.003245 0.000956 1.000000 -0.003581 0.000890 1.000000 -0.004214 0.000840 1.000000 -0.004503 0.000774 1.000000 -0.005054 0.000726 1.000000 -0.005299 0.000661 1.000000 -0.005767 0.000615 1.000000 
-0.004912 0.000878 1.000000 -0.005229 0.000818 1.000000 -0.005415 0.000687 1.000000 -0.005665 0.000629 1.000000 -0.005808 0.000497 1.000000 -0.005991 0.000441 1.000000 -0.006091 0.000308 1.000000 -0.006207 0.000254 1.000000 -0.006266 0.000123 1.000000 -0.006317 0.000073 1.000000 -0.006336 -0.000055 1.000000 -0.006323 -0.000102 1.000000 -0.006305 -0.000223 1.000000 -0.006231 -0.000266 1.000000 -0.006178 -0.000379 1.000000 -0.006048 -0.000416 1.000000 -0.005965 -0.000518 1.000000 -0.005783 -0.000549 1.000000 -0.005674 -0.000638 1.000000 -0.005447 -0.000661 1.000000 -0.005317 -0.000735 1.000000 -0.005054 -0.000749 1.000000 -0.004910 -0.000805 1.000000 -0.004619 -0.000808 1.000000 -0.004467 -0.000845 1.000000 -0.004159 -0.000836 1.000000 -0.004009 -0.000851 1.000000 -0.003695 -0.000829 1.000000 -0.003555 -0.000821 1.000000 -0.003249 -0.000783 1.000000 -0.003130 -0.000751 1.000000 -0.002845 -0.000696 1.000000 -0.002760 -0.000638 1.000000 -0.002512 -0.000566 1.000000 -0.002472 -0.000483 1.000000 -0.002276 -0.000392 1.000000 -0.002295 -0.000284 1.000000 -0.002167 -0.000176 1.000000 -0.002258 -0.000047 1.000000 -0.002210 0.000076 1.000000 -0.002385 0.000222 1.000000 -0.002430 0.000355 1.000000 -0.002696 0.000510 1.000000 -0.002841 0.000645 1.000000 -0.003202 0.000800 1.000000 -0.003447 0.000926 1.000000 -0.003899 0.001066 1.000000 -0.004234 0.001170 1.000000 -0.004765 0.001281 1.000000 -0.005171 0.001347 1.000000 -0.005755 0.001412 1.000000 -0.006202 0.001422 1.000000 -0.006803 0.001425 1.000000 -0.007246 0.001366 1.000000 -0.007816 0.001296 1.000000 -0.008205 0.001156 1.000000 -0.008686 0.001006 1.000000 -0.008964 0.000782 1.000000 -0.009298 0.000555 1.000000 -0.009410 0.000252 1.000000 -0.009541 -0.000040 1.000000 -0.009441 -0.000407 1.000000 -0.009325 -0.000745 1.000000 -0.008982 -0.001153 1.000000 -0.008590 -0.001512 1.000000 -0.007993 -0.001933 1.000000 -0.007316 -0.002285 1.000000 -0.006471 -0.002688 1.000000 -0.005521 -0.003005 1.000000 -0.004450 -0.003358 1.000000 -0.003259 -0.003614 1.000000 -0.002002 -0.003883 1.000000 -0.000623 -0.004048 1.000000 0.000763 -0.004198 1.000000 0.002255 -0.004243 1.000000 0.003693 -0.004240 1.000000 0.005194 -0.004138 1.000000 0.006581 -0.003957 1.000000 0.007965 -0.003693 1.000000 0.009179 -0.003335 1.000000 0.010310 -0.002923 1.000000 0.011232 -0.002429 1.000000 0.012000 -0.001926 1.000000 0.012550 -0.001385 1.000000 0.012908 -0.000885 1.000000 0.013086 -0.000417 1.000000 0.013083 -0.000027 1.000000 0.012982 0.000256 1.000000 0.012761 0.000463 1.000000 0.012537 0.000506 1.000000 0.012290 0.000524 1.000000 0.012100 0.000359 1.000000 0.011998 0.000267 1.000000 0.011921 0.000017 1.000000 0.012036 -0.000059 1.000000 0.012047 -0.000227 1.000000 0.012317 -0.000174 1.000000 0.012314 -0.000124 1.000000 0.012576 0.000107 1.000000 0.012436 0.000412 1.000000 0.012500 0.000798 1.000000 0.012109 0.001304 1.000000 0.011787 0.001755 1.000000 0.011072 0.002276 1.000000 0.010307 0.002610 1.000000 0.009349 0.002856 1.000000 0.008432 0.002968 1.000000 0.007429 0.002966 1.000000 0.006557 0.002933 1.000000 0.005598 0.002823 1.000000 0.004821 0.002736 1.000000 0.003924 0.002604 1.000000 0.003237 0.002502 1.000000 0.002401 0.002380 1.000000 0.001791 0.002274 1.000000 0.001018 0.002166 1.000000 0.000475 0.002057 1.000000 -0.000234 0.001962 1.000000 -0.000715 0.001850 1.000000 -0.001360 0.001765 1.000000 -0.001785 0.001649 1.000000 -0.002364 0.001572 1.000000 -0.002737 0.001454 1.000000 -0.003251 0.001383 1.000000 -0.003574 0.001261 1.000000 -0.004023 0.001195 1.000000 -0.004299 0.001070 1.000000 -0.004682 0.001007 1.000000 
-0.006159 0.001096 1.000000 -0.006544 0.001007 1.000000 -0.006704 0.000874 1.000000 -0.007001 0.000786 1.000000 -0.007123 0.000653 1.000000 -0.007330 0.000568 1.000000 -0.007414 0.000435 1.000000 -0.007531 0.000353 1.000000 -0.007579 0.000223 1.000000 -0.007606 0.000144 1.000000 -0.007620 0.000018 1.000000 -0.007559 -0.000056 1.000000 -0.007540 -0.000177 1.000000 -0.007396 -0.000245 1.000000 -0.007348 -0.000357 1.000000 -0.007125 -0.000417 1.000000 -0.007051 -0.000519 1.000000 -0.006758 -0.000570 1.000000 -0.006662 -0.000658 1.000000 -0.006307 -0.000699 1.000000 -0.006194 -0.000771 1.000000 -0.005787 -0.000799 1.000000 -0.005664 -0.000853 1.000000 -0.005217 -0.000866 1.000000 -0.005090 -0.000900 1.000000 -0.004617 -0.000896 1.000000 -0.004494 -0.000906 1.000000 -0.004009 -0.000884 1.000000 -0.003898 -0.000868 1.000000 -0.003417 -0.000825 1.000000 -0.003330 -0.000781 1.000000 -0.002870 -0.000714 1.000000 -0.002818 -0.000640 1.000000 -0.002396 -0.000549 1.000000 -0.002392 -0.000445 1.000000 -0.002028 -0.000328 1.000000 -0.002085 -0.000195 1.000000 -0.001795 -0.000053 1.000000 -0.001927 0.000107 1.000000 -0.001729 0.000270 1.000000 -0.001949 0.000451 1.000000 -0.001856 0.000629 1.000000 -0.002173 0.000821 1.000000 -0.002195 0.001005 1.000000 -0.002614 0.001195 1.000000 -0.002754 0.001369 1.000000 -0.003272 0.001541 1.000000 -0.003522 0.001687 1.000000 -0.004127 0.001819 1.000000 -0.004470 0.001915 1.000000 -0.005137 0.001985 1.000000 -0.005541 0.002009 1.000000 -0.006231 0.001996 1.000000 -0.006650 0.001926 1.000000 -0.007313 0.001813 1.000000 -0.007692 0.001636 1.000000 -0.008265 0.001415 1.000000 -0.008541 0.001125 1.000000 -0.008959 0.000801 1.000000 -0.009071 0.000404 1.000000 -0.009271 -0.000006 1.000000 -0.009166 -0.000487 1.000000 -0.009097 -0.000956 1.000000 -0.008739 -0.001490 1.000000 -0.008367 -0.001982 1.000000 -0.007740 -0.002532 1.000000 -0.007052 -0.003012 1.000000 -0.006161 -0.003538 1.000000 -0.005169 -0.003972 1.000000 -0.004035 -0.004434 1.000000 -0.002771 -0.004789 1.000000 -0.001436 -0.005144 1.000000 0.000045 -0.005385 1.000000 0.001522 -0.005590 1.000000 0.003139 -0.005677 1.000000 0.004674 -0.005683 1.000000 0.006312 -0.005574 1.000000 0.007791 -0.005343 1.000000 0.009303 -0.005009 1.000000 0.010584 -0.004533 1.000000 0.011806 -0.003988 1.000000 0.012744 -0.003317 1.000000 0.013536 -0.002636 1.000000 0.014029 -0.001890 1.000000 0.014326 -0.001213 1.000000 0.014369 -0.000561 1.000000 0.014230 -0.000048 1.000000 0.013931 0.000353 1.000000 0.013538 0.000594 1.000000 0.013087 0.000659 1.000000 0.012686 0.000632 1.000000 0.012286 0.000400 1.000000 0.012102 0.000233 1.000000 0.011868 -0.000118 1.000000 0.011999 -0.000247 1.000000 0.011909 -0.000486 1.000000 0.012283 -0.000431 1.000000 0.012208 -0.000380 1.000000 0.012607 -0.000096 1.000000 0.012392 0.000303 1.000000 0.012592 0.000795 1.000000 0.012107 0.001504 1.000000 0.011870 0.002107 1.000000 0.011007 0.002878 1.000000 0.010215 0.003328 1.000000 0.009076 0.003647 1.000000 0.008162 0.003766 1.000000 0.007004 0.003730 1.000000 0.006185 0.003666 1.000000 0.005082 0.003502 1.000000 0.004374 0.003383 1.000000 0.003327 0.003207 1.000000 0.002705 0.003078 1.000000 0.001712 0.002919 1.000000 0.001160 0.002789 1.000000 0.000229 0.002648 1.000000 -0.000261 0.002517 1.000000 -0.001124 0.002391 1.000000 -0.001557 0.002260 1.000000 -0.002347 0.002145 1.000000 -0.002726 0.002014 1.000000 -0.003441 0.001908 1.000000 -0.003771 0.001777 1.000000 -0.004406 0.001677 1.000000 -0.004691 0.001546 1.000000 -0.005246 0.001451 1.000000 -0.005487 0.001320 1.000000 -0.005958 0.001228 1.000000 
-0.005134 0.001464 1.000000 -0.005451 0.001364 1.000000 -0.005635 0.001145 1.000000 -0.005886 0.001048 1.000000 -0.006026 0.000826 1.000000 -0.006209 0.000732 1.000000 -0.006306 0.000509 1.000000 -0.006420 0.000419 1.000000 -0.006475 0.000198 1.000000 -0.006522 0.000113 1.000000 -0.006536 -0.000102 1.000000 -0.006517 -0.000181 1.000000 -0.006493 -0.000386 1.000000 -0.006411 -0.000458 1.000000 -0.006351 -0.000650 1.000000 -0.006210 -0.000713 1.000000 -0.006117 -0.000886 1.000000 -0.005922 -0.000938 1.000000 -0.005802 -0.001089 1.000000 -0.005560 -0.001129 1.000000 -0.005418 -0.001254 1.000000 -0.005136 -0.001279 1.000000 -0.004977 -0.001375 1.000000 -0.004665 -0.001382 1.000000 -0.004497 -0.001445 1.000000 -0.004165 -0.001433 1.000000 -0.003996 -0.001460 1.000000 -0.003657 -0.001424 1.000000 -0.003496 -0.001412 1.000000 -0.003161 -0.001351 1.000000 -0.003019 -0.001298 1.000000 -0.002705 -0.001208 1.000000 -0.002595 -0.001112 1.000000 -0.002316 -0.000992 1.000000 -0.002251 -0.000851 1.000000 -0.002025 -0.000699 1.000000 -0.002020 -0.000517 1.000000 -0.001865 -0.000334 1.000000 -0.001935 -0.000113 1.000000 -0.001867 0.000098 1.000000 -0.002026 0.000349 1.000000 -0.002060 0.000579 1.000000 -0.002321 0.000849 1.000000 -0.002467 0.001086 1.000000 -0.002838 0.001358 1.000000 -0.003101 0.001584 1.000000 -0.003582 0.001835 1.000000 -0.003956 0.002026 1.000000 -0.004536 0.002229 1.000000 -0.005005 0.002356 1.000000 -0.005661 0.002482 1.000000 -0.006191 0.002516 1.000000 -0.006885 0.002535 1.000000 -0.007429 0.002448 1.000000 -0.008106 0.002337 1.000000 -0.008603 0.002108 1.000000 -0.009197 0.001855 1.000000 -0.009578 0.001476 1.000000 -0.010018 0.001085 1.000000 -0.010216 0.000564 1.000000 -0.010432 0.000055 1.000000 -0.010390 -0.000581 1.000000 -0.010327 -0.001172 1.000000 -0.010009 -0.001883 1.000000 -0.009632 -0.002511 1.000000 -0.009023 -0.003247 1.000000 -0.008322 -0.003864 1.000000 -0.007430 -0.004572 1.000000 -0.006416 -0.005131 1.000000 -0.005267 -0.005756 1.000000 -0.003971 -0.006213 1.000000 -0.002602 -0.006699 1.000000 -0.001074 -0.007007 1.000000 0.000463 -0.007291 1.000000 0.002147 -0.007395 1.000000 0.003773 -0.007413 1.000000 0.005501 -0.007255 1.000000 0.007098 -0.006949 1.000000 0.008709 -0.006486 1.000000 0.010112 -0.005839 1.000000 0.011412 -0.005083 1.000000 0.012439 -0.004159 1.000000 0.013247 -0.003211 1.000000 0.013758 -0.002175 1.000000 0.013987 -0.001225 1.000000 0.013967 -0.000322 1.000000 0.013678 0.000410 1.000000 0.013271 0.000948 1.000000 0.012679 0.001307 1.000000 0.012144 0.001357 1.000000 0.011546 0.001326 1.000000 0.011142 0.000943 1.000000 0.010821 0.000685 1.000000 0.010654 0.000120 1.000000 0.010726 -0.000099 1.000000 0.010743 -0.000511 1.000000 0.011112 -0.000473 1.000000 0.011151 -0.000449 1.000000 0.011592 -0.000077 1.000000 0.011524 0.000427 1.000000 0.011818 0.001084 1.000000 0.011530 0.002026 1.000000 0.011357 0.002854 1.000000 0.010677 0.003931 1.000000 0.009727 0.004541 1.000000 0.008734 0.004909 1.000000 0.007740 0.005040 1.000000 0.006785 0.004943 1.000000 0.005962 0.004855 1.000000 0.005075 0.004634 1.000000 0.004371 0.004491 1.000000 0.003521 0.004274 1.000000 0.002888 0.004117 1.000000 0.002074 0.003925 1.000000 0.001497 0.003757 1.000000 0.000732 0.003588 1.000000 0.000210 0.003410 1.000000 -0.000497 0.003258 1.000000 -0.000964 0.003072 1.000000 -0.001608 0.002934 1.000000 -0.002023 0.002743 1.000000 -0.002602 0.002617 1.000000 -0.002968 0.002420 1.000000 -0.003482 0.002303 1.000000 -0.003800 0.002100 1.000000 -0.004249 0.001991 1.000000 -0.004522 0.001782 1.000000 -0.004906 0.001678 1.000000 
-0.006473 0.001641 1.000000 -0.006863 0.001508 1.000000 -0.007020 0.001308 1.000000 -0.007320 0.001177 1.000000 -0.007439 0.000976 1.000000 -0.007647 0.000848 1.000000 -0.007727 0.000647 1.000000 -0.007842 0.000523 1.000000 -0.007885 0.000325 1.000000 -0.007906 0.000205 1.000000 -0.007914 0.000013 1.000000 -0.007843 -0.000100 1.000000 -0.007817 -0.000283 1.000000 -0.007659 -0.000387 1.000000 -0.007602 -0.000558 1.000000 -0.007361 -0.000651 1.000000 -0.007276 -0.000806 1.000000 -0.006961 -0.000885 1.000000 -0.006853 -0.001020 1.000000 -0.006471 -0.001083 1.000000 -0.006344 -0.001195 1.000000 -0.005908 -0.001239 1.000000 -0.005767 -0.001324 1.000000 -0.005288 -0.001347 1.000000 -0.005141 -0.001400 1.000000 -0.004631 -0.001397 1.000000 -0.004485 -0.001415 1.000000 -0.003961 -0.001385 1.000000 -0.003825 -0.001363 1.000000 -0.003303 -0.001301 1.000000 -0.003187 -0.001237 1.000000 -0.002684 -0.001139 1.000000 -0.002601 -0.001029 1.000000 -0.002136 -0.000892 1.000000 -0.002100 -0.000736 1.000000 -0.001693 -0.000559 1.000000 -0.001719 -0.000355 1.000000 -0.001391 -0.000138 1.000000 -0.001496 0.000109 1.000000 -0.001267 0.000362 1.000000 -0.001467 0.000644 1.000000 -0.001356 0.000924 1.000000 -0.001666 0.001229 1.000000 -0.001686 0.001522 1.000000 -0.002116 0.001829 1.000000 -0.002277 0.002113 1.000000 -0.002830 0.002396 1.000000 -0.003129 0.002641 1.000000 -0.003796 0.002867 1.000000 -0.004217 0.003040 1.000000 -0.004977 0.003171 1.000000 -0.005487 0.003233 1.000000 -0.006299 0.003233 1.000000 -0.006848 0.003147 1.000000 -0.007653 0.002987 1.000000 -0.008173 0.002727 1.000000 -0.008896 0.002391 1.000000 -0.009311 0.001945 1.000000 -0.009870 0.001438 1.000000 -0.010100 0.000819 1.000000 -0.010415 0.000168 1.000000 -0.010393 -0.000592 1.000000 -0.010398 -0.001337 1.000000 -0.010077 -0.002185 1.000000 -0.009730 -0.002968 1.000000 -0.009092 -0.003842 1.000000 -0.008376 -0.004605 1.000000 -0.007427 -0.005444 1.000000 -0.006353 -0.006135 1.000000 -0.005119 -0.006879 1.000000 -0.003716 -0.007454 1.000000 -0.002235 -0.008041 1.000000 -0.000557 -0.008450 1.000000 0.001118 -0.008811 1.000000 0.002992 -0.008988 1.000000 0.004776 -0.009037 1.000000 0.006718 -0.008898 1.000000 0.008477 -0.008550 1.000000 0.010299 -0.008024 1.000000 0.011834 -0.007236 1.000000 0.013288 -0.006314 1.000000 0.014367 -0.005152 1.000000 0.015214 -0.003956 1.000000 0.015652 -0.002630 1.000000 0.015760 -0.001422 1.000000 0.015533 -0.000252 1.000000 0.014980 0.000648 1.000000 0.014264 0.001352 1.000000 0.013338 0.001722 1.000000 0.012446 0.001792 1.000000 0.011545 0.001634 1.000000 0.010820 0.001125 1.000000 0.010317 0.000721 1.000000 0.009937 -0.000024 1.000000 0.009987 -0.000336 1.000000 0.009879 -0.000871 1.000000 0.010392 -0.000839 1.000000 0.010357 -0.000859 1.000000 0.010966 -0.000469 1.000000 0.010813 0.000077 1.000000 0.011303 0.000789 1.000000 0.010954 0.001965 1.000000 0.010973 0.002960 1.000000 0.010199 0.004508 1.000000 0.009154 0.005271 1.000000 0.008034 0.005634 1.000000 0.007102 0.005715 1.000000 0.006078 0.005508 1.000000 0.005390 0.005376 1.000000 0.004407 0.005093 1.000000 0.003818 0.004937 1.000000 0.002830 0.004690 1.000000 0.002280 0.004525 1.000000 0.001306 0.004309 1.000000 0.000794 0.004131 1.000000 -0.000136 0.003935 1.000000 -0.000602 0.003746 1.000000 -0.001469 0.003565 1.000000 -0.001884 0.003371 1.000000 -0.002679 0.003204 1.000000 -0.003045 0.003008 1.000000 -0.003764 0.002852 1.000000 -0.004085 0.002656 1.000000 -0.004726 0.002509 1.000000 -0.005003 0.002314 1.000000 -0.005564 0.002173 1.000000 -0.005800 0.001976 1.000000 -0.006277 0.001840 1.000000 
-0.005465 0.002050 1.000000 -0.005785 0.001911 1.000000 -0.005966 0.001602 1.000000 -0.006218 0.001467 1.000000 -0.006355 0.001152 1.000000 -0.006538 0.001021 1.000000 -0.006631 0.000704 1.000000 -0.006743 0.000577 1.000000 -0.006793 0.000263 1.000000 -0.006834 0.000142 1.000000 -0.006841 -0.000165 1.000000 -0.006813 -0.000278 1.000000 -0.006780 -0.000571 1.000000 -0.006686 -0.000674 1.000000 -0.006615 -0.000947 1.000000 -0.006457 -0.001038 1.000000 -0.006352 -0.001286 1.000000 -0.006137 -0.001362 1.000000 -0.006001 -0.001579 1.000000 -0.005735 -0.001637 1.000000 -0.005574 -0.001818 1.000000 -0.005265 -0.001856 1.000000 -0.005084 -0.001995 1.000000 -0.004741 -0.002009 1.000000 -0.004548 -0.002101 1.000000 -0.004181 -0.002088 1.000000 -0.003983 -0.002130 1.000000 -0.003605 -0.002084 1.000000 -0.003412 -0.002071 1.000000 -0.003035 -0.001989 1.000000 -0.002857 -0.001917 1.000000 -0.002497 -0.001794 1.000000 -0.002348 -0.001660 1.000000 -0.002023 -0.001493 1.000000 -0.001917 -0.001294 1.000000 -0.001645 -0.001080 1.000000 -0.001600 -0.000819 1.000000 -0.001401 -0.000557 1.000000 -0.001435 -0.000237 1.000000 -0.001331 0.000069 1.000000 -0.001463 0.000438 1.000000 -0.001475 0.000777 1.000000 -0.001723 0.001180 1.000000 -0.001867 0.001537 1.000000 -0.002247 0.001949 1.000000 -0.002534 0.002297 1.000000 -0.003053 0.002687 1.000000 -0.003485 0.002992 1.000000 -0.004138 0.003318 1.000000 -0.004701 0.003537 1.000000 -0.005468 0.003752 1.000000 -0.006129 0.003838 1.000000 -0.006970 0.003896 1.000000 -0.007674 0.003802 1.000000 -0.008526 0.003662 1.000000 -0.009198 0.003352 1.000000 -0.009978 0.002993 1.000000 -0.010530 0.002450 1.000000 -0.011144 0.001874 1.000000 -0.011484 0.001109 1.000000 -0.011840 0.000348 1.000000 -0.011894 -0.000598 1.000000 -0.011919 -0.001488 1.000000 -0.011637 -0.002551 1.000000 -0.011287 -0.003496 1.000000 -0.010658 -0.004601 1.000000 -0.009921 -0.005528 1.000000 -0.008959 -0.006595 1.000000 -0.007851 -0.007439 1.000000 -0.006587 -0.008392 1.000000 -0.005138 -0.009097 1.000000 -0.003607 -0.009858 1.000000 -0.001859 -0.010359 1.000000 -0.000101 -0.010840 1.000000 0.001879 -0.011053 1.000000 0.003797 -0.011140 1.000000 0.005891 -0.010956 1.000000 0.007834 -0.010529 1.000000 0.009830 -0.009842 1.000000 0.011563 -0.008829 1.000000 0.013161 -0.007617 1.000000 0.014377 -0.006084 1.000000 0.015259 -0.004495 1.000000 0.015690 -0.002722 1.000000 0.015675 -0.001106 1.000000 0.015268 0.000458 1.000000 0.014450 0.001679 1.000000 0.013459 0.002590 1.000000 0.012185 0.003125 1.000000 0.011072 0.003151 1.000000 0.009824 0.002952 1.000000 0.009059 0.002171 1.000000 0.008323 0.001567 1.000000 0.007990 0.000450 1.000000 0.007931 -0.000041 1.000000 0.007876 -0.000916 1.000000 0.008306 -0.000951 1.000000 0.008250 -0.001023 1.000000 0.008837 -0.000533 1.000000 0.008733 0.000090 1.000000 0.009391 0.000942 1.000000 0.009280 0.002357 1.000000 0.009619 0.003610 1.000000 0.009198 0.005750 1.000000 0.007853 0.006706 1.000000 0.007019 0.006961 1.000000 0.006159 0.006996 1.000000 0.005507 0.006654 1.000000 0.004954 0.006526 1.000000 0.004264 0.006206 1.000000 0.003735 0.006068 1.000000 0.002964 0.005812 1.000000 0.002417 0.005641 1.000000 0.001623 0.005411 1.000000 0.001088 0.005199 1.000000 0.000325 0.004983 1.000000 -0.000173 0.004742 1.000000 -0.000880 0.004540 1.000000 -0.001331 0.004283 1.000000 -0.001974 0.004096 1.000000 -0.002376 0.003829 1.000000 -0.002954 0.003656 1.000000 -0.003311 0.003381 1.000000 -0.003825 0.003221 1.000000 -0.004136 0.002938 1.000000 -0.004587 0.002787 1.000000 -0.004855 0.002495 1.000000 -0.005241 0.002351 1.000000 