# vtk DataFile Version 2.0
Comment goes here
ASCII

DATASET STRUCTURED_POINTS
DIMENSIONS    128   128   1

ORIGIN    0.000   0.000   0.000
SPACING   0.0156250.015625   1.000

POINT_DATA   16384
VECTORS u double

-0.015818 0.000000 1.000000 -0.016743 0.000000 1.000000 -0.017083 0.000000 1.000000 -0.017771 0.000000 1.000000 -0.017982 0.000000 1.000000 -0.018432 0.000000 1.000000 -0.018520 0.000000 1.000000 -0.018731 0.000000 1.000000 -0.018701 0.000000 1.000000 -0.018678 -0.000000 1.000000 -0.018537 0.000000 1.000000 -0.018287 -0.000000 1.000000 -0.018045 0.000000 1.000000 -0.017580 -0.000000 1.000000 -0.017247 0.000000 1.000000 -0.016584 -0.000000 1.000000 -0.016174 0.000000 1.000000 -0.015334 -0.000000 1.000000 -0.014863 0.000000 1.000000 -0.013872 -0.000000 1.000000 -0.013359 -0.000000 1.000000 -0.012248 -0.000000 1.000000 -0.011715 -0.000000 1.000000 -0.010519 -0.000000 1.000000 -0.009990 -0.000000 1.000000 -0.008751 -0.000000 1.000000 -0.008255 -0.000000 1.000000 -0.007015 -0.000000 1.000000 -0.006585 -0.000000 1.000000 -0.005393 -0.000000 1.000000 -0.005063 0.000000 1.000000 -0.003973 -0.000000 1.000000 -0.003782 0.000000 1.000000 -0.002845 0.000000 1.000000 -0.002835 0.000000 1.000000 -0.002107 0.000000 1.000000 -0.002319 0.000001 1.000000 -0.001851 0.000001 1.000000 -0.002323 0.000001 1.000000 -0.002161 0.000001 1.000000 -0.002925 0.000001 1.000000 -0.003105 0.000001 1.000000 -0.004182 0.000001 1.000000 -0.004721 0.000002 1.000000 -0.006112 0.000002 1.000000 -0.007005 0.000002 1.000000 -0.008689 0.000002 1.000000 -0.009900 0.000002 1.000000 -0.011823 0.000002 1.000000 -0.013283 0.000002 1.000000 -0.015357 0.000001 1.000000 -0.016958 0.000002 1.000000 -0.019059 0.000001 1.000000 -0.020659 0.000001 1.000000 -0.022632 0.000000 1.000000 -0.024063 0.000000 1.000000 -0.025732 -0.000001 1.000000 -0.026812 -0.000001 1.000000 -0.027995 -0.000002 1.000000 -0.028549 -0.000003 1.000000 -0.029079 -0.000004 1.000000 -0.028957 -0.000005 1.000000 -0.028701 -0.000006 1.000000 -0.027794 -0.000007 1.000000 -0.026670 -0.000008 1.000000 -0.024930 -0.000009 1.000000 -0.022919 -0.000010 1.000000 -0.020360 -0.000011 1.000000 -0.017511 -0.000012 1.000000 -0.014216 -0.000013 1.000000 -0.010654 -0.000014 1.000000 -0.006778 -0.000014 1.000000 -0.002705 -0.000015 1.000000 0.001527 -0.000015 1.000000 0.005834 -0.000015 1.000000 0.010130 -0.000015 1.000000 0.014330 -0.000015 1.000000 0.018349 -0.000014 1.000000 0.022074 -0.000013 1.000000 0.025472 -0.000012 1.000000 0.028385 -0.000012 1.000000 0.030887 -0.000010 1.000000 0.032768 -0.000009 1.000000 0.034243 -0.000008 1.000000 0.035062 -0.000007 1.000000 0.035568 -0.000005 1.000000 0.035510 -0.000005 1.000000 0.035286 -0.000003 1.000000 0.034709 -0.000003 1.000000 0.034096 -0.000002 1.000000 0.033421 -0.000001 1.000000 0.032753 -0.000001 1.000000 0.032330 -0.000001 1.000000 0.031813 -0.000000 1.000000 0.031789 -0.000000 1.000000 0.031426 -0.000000 1.000000 0.031696 0.000000 1.000000 0.031300 0.000000 1.000000 0.031563 0.000000 1.000000 0.030853 0.000001 1.000000 0.030746 0.000001 1.000000 0.029469 0.000001 1.000000 0.028715 0.000001 1.000000 0.026765 0.000002 1.000000 0.025333 0.000001 1.000000 0.022841 0.000002 1.000000 0.021007 0.000001 1.000000 0.018249 0.000001 1.000000 0.016319 0.000001 1.000000 0.013522 0.000001 1.000000 0.011675 0.000001 1.000000 0.008960 0.000001 1.000000 0.007264 0.000001 1.000000 0.004687 0.000000 1.000000 0.003158 0.000000 1.000000 0.000747 0.000000 1.000000 -0.000616 0.000000 1.000000 -0.002844 0.000000 1.000000 -0.004045 0.000000 1.000000 -0.006076 0.000000 1.000000 -0.007120 0.000000 1.000000 -0.008944 0.000000 1.000000 -0.009838 0.000000 1.000000 -0.011446 0.000000 1.000000 -0.012194 0.000000 1.000000 -0.013580 0.000000 1.000000 -0.014188 0.000000 1.000000 -0.015346 0.000000 1.000000 
-0.013592 0.000699 1.000000 -0.014385 0.000632 1.000000 -0.014772 0.000514 1.000000 -0.015370 0.000450 1.000000 -0.015619 0.000331 1.000000 -0.016022 0.000269 1.000000 -0.016137 0.000150 1.000000 -0.016347 0.000091 1.000000 -0.016334 -0.000026 1.000000 -0.016353 -0.000082 1.000000 -0.016219 -0.000195 1.000000 -0.016056 -0.000246 1.000000 -0.015809 -0.000353 1.000000 -0.015473 -0.000399 1.000000 -0.015125 -0.000498 1.000000 -0.014629 -0.000537 1.000000 -0.014194 -0.000625 1.000000 -0.013557 -0.000656 1.000000 -0.013050 -0.000731 1.000000 -0.012295 -0.000752 1.000000 -0.011736 -0.000812 1.000000 -0.010886 -0.000823 1.000000 -0.010298 -0.000864 1.000000 -0.009385 -0.000863 1.000000 -0.008793 -0.000884 1.000000 -0.007852 -0.000868 1.000000 -0.007284 -0.000868 1.000000 -0.006354 -0.000836 1.000000 -0.005844 -0.000811 1.000000 -0.004968 -0.000761 1.000000 -0.004552 -0.000710 1.000000 -0.003776 -0.000641 1.000000 -0.003494 -0.000563 1.000000 -0.002868 -0.000473 1.000000 -0.002762 -0.000369 1.000000 -0.002337 -0.000258 1.000000 -0.002447 -0.000128 1.000000 -0.002272 0.000003 1.000000 -0.002640 0.000156 1.000000 -0.002757 0.000302 1.000000 -0.003416 0.000473 1.000000 -0.003859 0.000630 1.000000 -0.004830 0.000809 1.000000 -0.005617 0.000967 1.000000 -0.006904 0.001144 1.000000 -0.008027 0.001290 1.000000 -0.009610 0.001449 1.000000 -0.011034 0.001569 1.000000 -0.012863 0.001693 1.000000 -0.014517 0.001769 1.000000 -0.016503 0.001839 1.000000 -0.018281 0.001853 1.000000 -0.020303 0.001852 1.000000 -0.022061 0.001788 1.000000 -0.023964 0.001702 1.000000 -0.025533 0.001550 1.000000 -0.027142 0.001374 1.000000 -0.028340 0.001130 1.000000 -0.029474 0.000866 1.000000 -0.030126 0.000539 1.000000 -0.030619 0.000199 1.000000 -0.030574 -0.000194 1.000000 -0.030295 -0.000587 1.000000 -0.029451 -0.001022 1.000000 -0.028318 -0.001440 1.000000 -0.026627 -0.001885 1.000000 -0.024622 -0.002296 1.000000 -0.022101 -0.002715 1.000000 -0.019274 -0.003084 1.000000 -0.016006 -0.003441 1.000000 -0.012479 -0.003733 1.000000 -0.008615 -0.003989 1.000000 -0.004583 -0.004168 1.000000 -0.000344 -0.004285 1.000000 0.003924 -0.004317 1.000000 0.008250 -0.004263 1.000000 0.012420 -0.004124 1.000000 0.016492 -0.003886 1.000000 0.020198 -0.003575 1.000000 0.023666 -0.003168 1.000000 0.026572 -0.002719 1.000000 0.029150 -0.002202 1.000000 0.031033 -0.001687 1.000000 0.032582 -0.001155 1.000000 0.033408 -0.000669 1.000000 0.033988 -0.000229 1.000000 0.033935 0.000137 1.000000 0.033800 0.000398 1.000000 0.033216 0.000593 1.000000 0.032722 0.000642 1.000000 0.032023 0.000670 1.000000 0.031512 0.000545 1.000000 0.031045 0.000470 1.000000 0.030715 0.000270 1.000000 0.030629 0.000194 1.000000 0.030475 0.000047 1.000000 0.030674 0.000063 1.000000 0.030506 0.000067 1.000000 0.030699 0.000224 1.000000 0.030242 0.000409 1.000000 0.030067 0.000693 1.000000 0.029070 0.001017 1.000000 0.028236 0.001353 1.000000 0.026584 0.001692 1.000000 0.025049 0.001964 1.000000 0.022867 0.002165 1.000000 0.020931 0.002297 1.000000 0.018502 0.002345 1.000000 0.016482 0.002365 1.000000 0.014025 0.002323 1.000000 0.012095 0.002282 1.000000 0.009723 0.002206 1.000000 0.007945 0.002137 1.000000 0.005703 0.002054 1.000000 0.004092 0.001971 1.000000 0.002004 0.001887 1.000000 0.000558 0.001796 1.000000 -0.001361 0.001715 1.000000 -0.002645 0.001616 1.000000 -0.004386 0.001538 1.000000 -0.005511 0.001435 1.000000 -0.007068 0.001359 1.000000 -0.008038 0.001251 1.000000 -0.009407 0.001178 1.000000 -0.010227 0.001068 1.000000 -0.011406 0.000997 1.000000 -0.012078 0.000883 1.000000 -0.013064 0.000815 1.000000 
-0.016001 0.001321 1.000000 -0.016928 0.001180 1.000000 -0.017265 0.000985 1.000000 -0.017955 0.000847 1.000000 -0.018164 0.000652 1.000000 -0.018613 0.000518 1.000000 -0.018698 0.000325 1.000000 -0.018907 0.000196 1.000000 -0.018874 0.000007 1.000000 -0.018847 -0.000115 1.000000 -0.018701 -0.000297 1.000000 -0.018445 -0.000410 1.000000 -0.018197 -0.000583 1.000000 -0.017724 -0.000684 1.000000 -0.017384 -0.000843 1.000000 -0.016711 -0.000931 1.000000 -0.016293 -0.001072 1.000000 -0.015440 -0.001144 1.000000 -0.014959 -0.001263 1.000000 -0.013953 -0.001315 1.000000 -0.013429 -0.001408 1.000000 -0.012300 -0.001438 1.000000 -0.011755 -0.001501 1.000000 -0.010539 -0.001505 1.000000 -0.009996 -0.001534 1.000000 -0.008734 -0.001509 1.000000 -0.008222 -0.001498 1.000000 -0.006958 -0.001441 1.000000 -0.006510 -0.001386 1.000000 -0.005293 -0.001293 1.000000 -0.004943 -0.001192 1.000000 -0.003826 -0.001058 1.000000 -0.003615 -0.000908 1.000000 -0.002651 -0.000732 1.000000 -0.002620 -0.000531 1.000000 -0.001866 -0.000314 1.000000 -0.002058 -0.000064 1.000000 -0.001567 0.000193 1.000000 -0.002023 0.000486 1.000000 -0.001844 0.000777 1.000000 -0.002598 0.001103 1.000000 -0.002768 0.001416 1.000000 -0.003844 0.001759 1.000000 -0.004386 0.002075 1.000000 -0.005788 0.002412 1.000000 -0.006698 0.002708 1.000000 -0.008409 0.003009 1.000000 -0.009655 0.003254 1.000000 -0.011622 0.003484 1.000000 -0.013134 0.003643 1.000000 -0.015269 0.003765 1.000000 -0.016940 0.003801 1.000000 -0.019118 0.003781 1.000000 -0.020801 0.003662 1.000000 -0.022861 0.003472 1.000000 -0.024381 0.003178 1.000000 -0.026139 0.002806 1.000000 -0.027306 0.002331 1.000000 -0.028571 0.001783 1.000000 -0.029199 0.001142 1.000000 -0.029795 0.000445 1.000000 -0.029726 -0.000329 1.000000 -0.029511 -0.001130 1.000000 -0.028630 -0.001984 1.000000 -0.027518 -0.002832 1.000000 -0.025773 -0.003705 1.000000 -0.023741 -0.004536 1.000000 -0.021146 -0.005358 1.000000 -0.018243 -0.006107 1.000000 -0.014882 -0.006808 1.000000 -0.011233 -0.007405 1.000000 -0.007261 -0.007910 1.000000 -0.003071 -0.008286 1.000000 0.001283 -0.008522 1.000000 0.005731 -0.008609 1.000000 0.010163 -0.008510 1.000000 0.014511 -0.008256 1.000000 0.018661 -0.007792 1.000000 0.022512 -0.007187 1.000000 0.026006 -0.006386 1.000000 0.028989 -0.005496 1.000000 0.031519 -0.004472 1.000000 0.033382 -0.003441 1.000000 0.034799 -0.002382 1.000000 0.035503 -0.001413 1.000000 0.035875 -0.000533 1.000000 0.035626 0.000184 1.000000 0.035222 0.000716 1.000000 0.034424 0.001075 1.000000 0.033631 0.001191 1.000000 0.032761 0.001209 1.000000 0.031958 0.000977 1.000000 0.031416 0.000797 1.000000 0.030836 0.000415 1.000000 0.030790 0.000240 1.000000 0.030433 -0.000045 1.000000 0.030763 -0.000031 1.000000 0.030420 -0.000024 1.000000 0.030788 0.000265 1.000000 0.030148 0.000632 1.000000 0.030153 0.001173 1.000000 0.028938 0.001832 1.000000 0.028248 0.002487 1.000000 0.026321 0.003188 1.000000 0.024869 0.003719 1.000000 0.022374 0.004120 1.000000 0.020526 0.004367 1.000000 0.017788 0.004451 1.000000 0.015884 0.004477 1.000000 0.013123 0.004387 1.000000 0.011319 0.004304 1.000000 0.008638 0.004151 1.000000 0.006980 0.004020 1.000000 0.004424 0.003854 1.000000 0.002922 0.003700 1.000000 0.000521 0.003534 1.000000 -0.000825 0.003366 1.000000 -0.003050 0.003203 1.000000 -0.004240 0.003025 1.000000 -0.006271 0.002866 1.000000 -0.007309 0.002682 1.000000 -0.009133 0.002527 1.000000 -0.010023 0.002340 1.000000 -0.011633 0.002189 1.000000 -0.012378 0.001999 1.000000 -0.013766 0.001851 1.000000 -0.014371 0.001659 1.000000 -0.015532 0.001515 1.000000 
-0.013928 0.002095 1.000000 -0.014721 0.001897 1.000000 -0.015105 0.001541 1.000000 -0.015703 0.001348 1.000000 -0.015948 0.000989 1.000000 -0.016349 0.000803 1.000000 -0.016459 0.000444 1.000000 -0.016665 0.000266 1.000000 -0.016645 -0.000087 1.000000 -0.016658 -0.000254 1.000000 -0.016515 -0.000596 1.000000 -0.016341 -0.000750 1.000000 -0.016083 -0.001075 1.000000 -0.015733 -0.001212 1.000000 -0.015371 -0.001511 1.000000 -0.014858 -0.001629 1.000000 -0.014406 -0.001896 1.000000 -0.013748 -0.001989 1.000000 -0.013222 -0.002217 1.000000 -0.012440 -0.002283 1.000000 -0.011859 -0.002465 1.000000 -0.010979 -0.002497 1.000000 -0.010365 -0.002626 1.000000 -0.009418 -0.002621 1.000000 -0.008796 -0.002689 1.000000 -0.007816 -0.002642 1.000000 -0.007216 -0.002644 1.000000 -0.006242 -0.002548 1.000000 -0.005696 -0.002477 1.000000 -0.004773 -0.002327 1.000000 -0.004318 -0.002178 1.000000 -0.003492 -0.001970 1.000000 -0.003168 -0.001738 1.000000 -0.002492 -0.001468 1.000000 -0.002343 -0.001154 1.000000 -0.001869 -0.000820 1.000000 -0.001940 -0.000426 1.000000 -0.001721 -0.000032 1.000000 -0.002056 0.000433 1.000000 -0.002140 0.000877 1.000000 -0.002777 0.001398 1.000000 -0.003203 0.001876 1.000000 -0.004170 0.002426 1.000000 -0.004962 0.002911 1.000000 -0.006270 0.003457 1.000000 -0.007428 0.003911 1.000000 -0.009062 0.004406 1.000000 -0.010555 0.004782 1.000000 -0.012469 0.005173 1.000000 -0.014229 0.005417 1.000000 -0.016336 0.005645 1.000000 -0.018254 0.005701 1.000000 -0.020428 0.005713 1.000000 -0.022352 0.005531 1.000000 -0.024428 0.005282 1.000000 -0.026175 0.004828 1.000000 -0.027962 0.004298 1.000000 -0.029332 0.003563 1.000000 -0.030630 0.002759 1.000000 -0.031428 0.001763 1.000000 -0.032050 0.000726 1.000000 -0.032109 -0.000478 1.000000 -0.031910 -0.001682 1.000000 -0.031115 -0.003015 1.000000 -0.030003 -0.004298 1.000000 -0.028302 -0.005662 1.000000 -0.026256 -0.006923 1.000000 -0.023665 -0.008213 1.000000 -0.020734 -0.009349 1.000000 -0.017338 -0.010451 1.000000 -0.013645 -0.011354 1.000000 -0.009597 -0.012152 1.000000 -0.005340 -0.012712 1.000000 -0.000865 -0.013086 1.000000 0.003674 -0.013197 1.000000 0.008269 -0.013044 1.000000 0.012725 -0.012623 1.000000 0.017061 -0.011887 1.000000 0.021014 -0.010921 1.000000 0.024679 -0.009645 1.000000 0.027722 -0.008232 1.000000 0.030360 -0.006596 1.000000 0.032208 -0.004967 1.000000 0.033638 -0.003276 1.000000 0.034241 -0.001745 1.000000 0.034539 -0.000352 1.000000 0.034118 0.000789 1.000000 0.033610 0.001600 1.000000 0.032598 0.002184 1.000000 0.031743 0.002305 1.000000 0.030659 0.002343 1.000000 0.029889 0.001890 1.000000 0.029181 0.001592 1.000000 0.028732 0.000896 1.000000 0.028588 0.000597 1.000000 0.028442 0.000074 1.000000 0.028740 0.000076 1.000000 0.028660 0.000042 1.000000 0.029048 0.000496 1.000000 0.028719 0.001044 1.000000 0.028773 0.001904 1.000000 0.027906 0.002922 1.000000 0.027217 0.003970 1.000000 0.025627 0.005071 1.000000 0.024046 0.005910 1.000000 0.021870 0.006508 1.000000 0.019913 0.006883 1.000000 0.017540 0.006988 1.000000 0.015586 0.007029 1.000000 0.013217 0.006888 1.000000 0.011382 0.006767 1.000000 0.009084 0.006545 1.000000 0.007385 0.006351 1.000000 0.005191 0.006112 1.000000 0.003631 0.005874 1.000000 0.001568 0.005635 1.000000 0.000153 0.005366 1.000000 -0.001755 0.005130 1.000000 -0.003020 0.004837 1.000000 -0.004756 0.004607 1.000000 -0.005869 0.004297 1.000000 -0.007424 0.004073 1.000000 -0.008386 0.003751 1.000000 -0.009755 0.003534 1.000000 -0.010569 0.003201 1.000000 -0.011748 0.002991 1.000000 -0.012416 0.002649 1.000000 -0.013403 0.002445 1.000000 
-0.016550 0.002639 1.000000 -0.017483 0.002357 1.000000 -0.017814 0.001967 1.000000 -0.018507 0.001690 1.000000 -0.018709 0.001299 1.000000 -0.019158 0.001030 1.000000 -0.019235 0.000641 1.000000 -0.019439 0.000382 1.000000 -0.019394 0.000000 1.000000 -0.019356 -0.000245 1.000000 -0.019197 -0.000614 1.000000 -0.018923 -0.000842 1.000000 -0.018659 -0.001191 1.000000 -0.018161 -0.001396 1.000000 -0.017801 -0.001718 1.000000 -0.017095 -0.001896 1.000000 -0.016653 -0.002182 1.000000 -0.015761 -0.002328 1.000000 -0.015253 -0.002571 1.000000 -0.014200 -0.002678 1.000000 -0.013644 -0.002869 1.000000 -0.012462 -0.002932 1.000000 -0.011878 -0.003062 1.000000 -0.010603 -0.003074 1.000000 -0.010017 -0.003135 1.000000 -0.008688 -0.003089 1.000000 -0.008128 -0.003072 1.000000 -0.006792 -0.002960 1.000000 -0.006289 -0.002856 1.000000 -0.004994 -0.002671 1.000000 -0.004586 -0.002472 1.000000 -0.003386 -0.002207 1.000000 -0.003113 -0.001908 1.000000 -0.002066 -0.001558 1.000000 -0.001972 -0.001154 1.000000 -0.001138 -0.000717 1.000000 -0.001270 -0.000212 1.000000 -0.000708 0.000309 1.000000 -0.001113 0.000905 1.000000 -0.000878 0.001498 1.000000 -0.001599 0.002166 1.000000 -0.001739 0.002809 1.000000 -0.002808 0.003518 1.000000 -0.003354 0.004175 1.000000 -0.004786 0.004878 1.000000 -0.005746 0.005500 1.000000 -0.007533 0.006137 1.000000 -0.008881 0.006661 1.000000 -0.010978 0.007158 1.000000 -0.012650 0.007510 1.000000 -0.014970 0.007790 1.000000 -0.016854 0.007893 1.000000 -0.019264 0.007879 1.000000 -0.021202 0.007662 1.000000 -0.023528 0.007296 1.000000 -0.025324 0.006712 1.000000 -0.027357 0.005963 1.000000 -0.028791 0.004999 1.000000 -0.030311 0.003879 1.000000 -0.031168 0.002562 1.000000 -0.031968 0.001127 1.000000 -0.032062 -0.000469 1.000000 -0.031977 -0.002124 1.000000 -0.031176 -0.003891 1.000000 -0.030102 -0.005645 1.000000 -0.028345 -0.007452 1.000000 -0.026253 -0.009173 1.000000 -0.023553 -0.010880 1.000000 -0.020491 -0.012433 1.000000 -0.016935 -0.013897 1.000000 -0.013030 -0.015146 1.000000 -0.008775 -0.016215 1.000000 -0.004236 -0.017018 1.000000 0.000479 -0.017535 1.000000 0.005350 -0.017743 1.000000 0.010195 -0.017562 1.000000 0.014995 -0.017048 1.000000 0.019548 -0.016081 1.000000 0.023793 -0.014805 1.000000 0.027585 -0.013094 1.000000 0.030787 -0.011177 1.000000 0.033405 -0.008958 1.000000 0.035211 -0.006720 1.000000 0.036441 -0.004415 1.000000 0.036779 -0.002314 1.000000 0.036718 -0.000410 1.000000 0.035866 0.001114 1.000000 0.034895 0.002236 1.000000 0.033399 0.002941 1.000000 0.032044 0.003129 1.000000 0.030556 0.003062 1.000000 0.029335 0.002456 1.000000 0.028417 0.001954 1.000000 0.027644 0.001009 1.000000 0.027522 0.000530 1.000000 0.027176 -0.000197 1.000000 0.027678 -0.000248 1.000000 0.027475 -0.000332 1.000000 0.028144 0.000205 1.000000 0.027696 0.000907 1.000000 0.028056 0.001985 1.000000 0.027041 0.003388 1.000000 0.026594 0.004767 1.000000 0.024769 0.006360 1.000000 0.023241 0.007475 1.000000 0.020772 0.008252 1.000000 0.018921 0.008697 1.000000 0.016295 0.008778 1.000000 0.014524 0.008801 1.000000 0.011908 0.008591 1.000000 0.010264 0.008436 1.000000 0.007692 0.008148 1.000000 0.006155 0.007913 1.000000 0.003659 0.007608 1.000000 0.002234 0.007322 1.000000 -0.000142 0.007012 1.000000 -0.001442 0.006688 1.000000 -0.003658 0.006376 1.000000 -0.004821 0.006026 1.000000 -0.006851 0.005716 1.000000 -0.007871 0.005351 1.000000 -0.009700 0.005045 1.000000 -0.010576 0.004671 1.000000 -0.012192 0.004371 1.000000 -0.012927 0.003992 1.000000 -0.014322 0.003698 1.000000 -0.014920 0.003314 1.000000 -0.016087 0.003027 1.000000 
-0.014599 0.003491 1.000000 -0.015395 0.003161 1.000000 -0.015772 0.002565 1.000000 -0.016371 0.002243 1.000000 -0.016609 0.001640 1.000000 -0.017007 0.001328 1.000000 -0.017107 0.000725 1.000000 -0.017305 0.000426 1.000000 -0.017272 -0.000170 1.000000 -0.017272 -0.000451 1.000000 -0.017111 -0.001029 1.000000 -0.016918 -0.001289 1.000000 -0.016637 -0.001837 1.000000 -0.016260 -0.002070 1.000000 -0.015871 -0.002577 1.000000 -0.015323 -0.002776 1.000000 -0.014838 -0.003230 1.000000 -0.014136 -0.003390 1.000000 -0.013572 -0.003778 1.000000 -0.012738 -0.003892 1.000000 -0.012113 -0.004203 1.000000 -0.011172 -0.004262 1.000000 -0.010508 -0.004485 1.000000 -0.009491 -0.004482 1.000000 -0.008811 -0.004604 1.000000 -0.007753 -0.004531 1.000000 -0.007087 -0.004540 1.000000 -0.006026 -0.004387 1.000000 -0.005407 -0.004274 1.000000 -0.004389 -0.004031 1.000000 -0.003854 -0.003786 1.000000 -0.002928 -0.003443 1.000000 -0.002518 -0.003058 1.000000 -0.001739 -0.002609 1.000000 -0.001503 -0.002082 1.000000 -0.000928 -0.001522 1.000000 -0.000915 -0.000856 1.000000 -0.000604 -0.000189 1.000000 -0.000866 0.000603 1.000000 -0.000878 0.001363 1.000000 -0.001465 0.002258 1.000000 -0.001851 0.003085 1.000000 -0.002802 0.004041 1.000000 -0.003599 0.004890 1.000000 -0.004940 0.005849 1.000000 -0.006163 0.006657 1.000000 -0.007893 0.007541 1.000000 -0.009523 0.008227 1.000000 -0.011605 0.008941 1.000000 -0.013579 0.009409 1.000000 -0.015930 0.009849 1.000000 -0.018134 0.009996 1.000000 -0.020619 0.010061 1.000000 -0.022887 0.009795 1.000000 -0.025321 0.009404 1.000000 -0.027440 0.008657 1.000000 -0.029598 0.007766 1.000000 -0.031329 0.006517 1.000000 -0.032968 0.005136 1.000000 -0.034072 0.003420 1.000000 -0.034968 0.001620 1.000000 -0.035242 -0.000470 1.000000 -0.035212 -0.002569 1.000000 -0.034519 -0.004890 1.000000 -0.033456 -0.007128 1.000000 -0.031735 -0.009511 1.000000 -0.029611 -0.011715 1.000000 -0.026884 -0.013975 1.000000 -0.023752 -0.015967 1.000000 -0.020108 -0.017912 1.000000 -0.016092 -0.019514 1.000000 -0.011687 -0.020946 1.000000 -0.006990 -0.021966 1.000000 -0.002053 -0.022672 1.000000 0.003027 -0.022913 1.000000 0.008164 -0.022688 1.000000 0.013209 -0.021976 1.000000 0.018092 -0.020685 1.000000 0.022568 -0.018958 1.000000 0.026652 -0.016639 1.000000 0.029990 -0.014052 1.000000 0.032757 -0.011019 1.000000 0.034529 -0.008003 1.000000 0.035693 -0.004845 1.000000 0.035807 -0.002022 1.000000 0.035480 0.000561 1.000000 0.034261 0.002612 1.000000 0.032943 0.004067 1.000000 0.031015 0.005035 1.000000 0.029393 0.005148 1.000000 0.027486 0.005052 1.000000 0.026190 0.004030 1.000000 0.024972 0.003282 1.000000 0.024281 0.001790 1.000000 0.023997 0.001065 1.000000 0.023847 -0.000082 1.000000 0.024312 -0.000223 1.000000 0.024340 -0.000424 1.000000 0.025077 0.000275 1.000000 0.024945 0.001133 1.000000 0.025496 0.002559 1.000000 0.024919 0.004384 1.000000 0.024647 0.006242 1.000000 0.023266 0.008424 1.000000 0.021542 0.009907 1.000000 0.019460 0.010828 1.000000 0.017554 0.011360 1.000000 0.015417 0.011385 1.000000 0.013711 0.011416 1.000000 0.011588 0.011147 1.000000 0.009998 0.010984 1.000000 0.007863 0.010654 1.000000 0.006329 0.010383 1.000000 0.004218 0.010033 1.000000 0.002754 0.009675 1.000000 0.000728 0.009310 1.000000 -0.000633 0.008882 1.000000 -0.002525 0.008509 1.000000 -0.003758 0.008031 1.000000 -0.005487 0.007657 1.000000 -0.006579 0.007145 1.000000 -0.008131 0.006778 1.000000 -0.009078 0.006243 1.000000 -0.010447 0.005885 1.000000 -0.011250 0.005332 1.000000 -0.012431 0.004983 1.000000 -0.013091 0.004414 1.000000 -0.014081 0.004075 1.000000 
-0.017467 0.003953 1.000000 -0.018411 0.003530 1.000000 -0.018733 0.002942 1.000000 -0.019432 0.002526 1.000000 -0.019624 0.001935 1.000000 -0.020074 0.001529 1.000000 -0.020137 0.000939 1.000000 -0.020333 0.000547 1.000000 -0.020272 -0.000033 1.000000 -0.020215 -0.000407 1.000000 -0.020035 -0.000968 1.000000 -0.019732 -0.001316 1.000000 -0.019440 -0.001848 1.000000 -0.018900 -0.002163 1.000000 -0.018507 -0.002655 1.000000 -0.017748 -0.002929 1.000000 -0.017267 -0.003369 1.000000 -0.016309 -0.003594 1.000000 -0.015754 -0.003969 1.000000 -0.014625 -0.004137 1.000000 -0.014014 -0.004435 1.000000 -0.012743 -0.004537 1.000000 -0.012098 -0.004744 1.000000 -0.010722 -0.004771 1.000000 -0.010066 -0.004873 1.000000 -0.008625 -0.004813 1.000000 -0.007984 -0.004798 1.000000 -0.006525 -0.004640 1.000000 -0.005933 -0.004493 1.000000 -0.004505 -0.004225 1.000000 -0.003998 -0.003934 1.000000 -0.002659 -0.003543 1.000000 -0.002279 -0.003096 1.000000 -0.001090 -0.002573 1.000000 -0.000886 -0.001965 1.000000 0.000088 -0.001305 1.000000 0.000062 -0.000536 1.000000 0.000752 0.000260 1.000000 0.000440 0.001179 1.000000 0.000777 0.002096 1.000000 0.000123 0.003138 1.000000 0.000046 0.004146 1.000000 -0.001000 0.005266 1.000000 -0.001542 0.006314 1.000000 -0.003013 0.007442 1.000000 -0.004045 0.008453 1.000000 -0.005951 0.009496 1.000000 -0.007465 0.010373 1.000000 -0.009774 0.011214 1.000000 -0.011712 0.011835 1.000000 -0.014344 0.012345 1.000000 -0.016592 0.012582 1.000000 -0.019404 0.012632 1.000000 -0.021785 0.012364 1.000000 -0.024576 0.011849 1.000000 -0.026854 0.010989 1.000000 -0.029373 0.009851 1.000000 -0.031280 0.008369 1.000000 -0.033251 0.006622 1.000000 -0.034514 0.004561 1.000000 -0.035676 0.002296 1.000000 -0.036060 -0.000224 1.000000 -0.036203 -0.002848 1.000000 -0.035545 -0.005647 1.000000 -0.034542 -0.008429 1.000000 -0.032771 -0.011296 1.000000 -0.030586 -0.014024 1.000000 -0.027720 -0.016740 1.000000 -0.024404 -0.019209 1.000000 -0.020537 -0.021556 1.000000 -0.016221 -0.023567 1.000000 -0.011515 -0.025318 1.000000 -0.006409 -0.026652 1.000000 -0.001107 -0.027553 1.000000 0.004469 -0.027960 1.000000 0.010007 -0.027744 1.000000 0.015584 -0.026977 1.000000 0.020842 -0.025440 1.000000 0.025790 -0.023365 1.000000 0.030121 -0.020516 1.000000 0.033732 -0.017282 1.000000 0.036503 -0.013497 1.000000 0.038207 -0.009656 1.000000 0.039072 -0.005693 1.000000 0.038726 -0.002101 1.000000 0.037846 0.001135 1.000000 0.035875 0.003650 1.000000 0.033871 0.005482 1.000000 0.031105 0.006491 1.000000 0.028747 0.006659 1.000000 0.026138 0.006265 1.000000 0.024191 0.004970 1.000000 0.022606 0.003863 1.000000 0.021512 0.001983 1.000000 0.021243 0.000963 1.000000 0.020863 -0.000512 1.000000 0.021618 -0.000741 1.000000 0.021548 -0.001097 1.000000 0.022621 -0.000399 1.000000 0.022362 0.000488 1.000000 0.023338 0.002011 1.000000 0.022677 0.004237 1.000000 0.022872 0.006420 1.000000 0.021376 0.009465 1.000000 0.019635 0.011281 1.000000 0.017387 0.012240 1.000000 0.015741 0.012740 1.000000 0.013534 0.012622 1.000000 0.012190 0.012630 1.000000 0.009923 0.012304 1.000000 0.008618 0.012162 1.000000 0.006233 0.011816 1.000000 0.004897 0.011558 1.000000 0.002477 0.011184 1.000000 0.001158 0.010813 1.000000 -0.001194 0.010399 1.000000 -0.002434 0.009941 1.000000 -0.004648 0.009501 1.000000 -0.005773 0.008988 1.000000 -0.007808 0.008537 1.000000 -0.008800 0.007994 1.000000 -0.010637 0.007544 1.000000 -0.011493 0.006986 1.000000 -0.013119 0.006542 1.000000 -0.013839 0.005976 1.000000 -0.015247 0.005539 1.000000 -0.015833 0.004965 1.000000 -0.017013 0.004535 1.000000 
-0.015607 0.004889 1.000000 -0.016408 0.004427 1.000000 -0.016777 0.003587 1.000000 -0.017379 0.003135 1.000000 -0.017606 0.002281 1.000000 -0.018003 0.001841 1.000000 -0.018089 0.000984 1.000000 -0.018278 0.000561 1.000000 -0.018226 -0.000287 1.000000 -0.018207 -0.000688 1.000000 -0.018020 -0.001513 1.000000 -0.017798 -0.001884 1.000000 -0.017485 -0.002668 1.000000 -0.017067 -0.003002 1.000000 -0.016637 -0.003729 1.000000 -0.016037 -0.004017 1.000000 -0.015503 -0.004669 1.000000 -0.014737 -0.004902 1.000000 -0.014115 -0.005463 1.000000 -0.013204 -0.005632 1.000000 -0.012513 -0.006084 1.000000 -0.011482 -0.006179 1.000000 -0.010741 -0.006506 1.000000 -0.009620 -0.006515 1.000000 -0.008854 -0.006701 1.000000 -0.007678 -0.006612 1.000000 -0.006914 -0.006640 1.000000 -0.005722 -0.006439 1.000000 -0.004992 -0.006294 1.000000 -0.003829 -0.005965 1.000000 -0.003172 -0.005632 1.000000 -0.002090 -0.005162 1.000000 -0.001549 -0.004628 1.000000 -0.000608 -0.004002 1.000000 -0.000234 -0.003260 1.000000 0.000502 -0.002470 1.000000 0.000650 -0.001520 1.000000 0.001111 -0.000567 1.000000 0.000970 0.000578 1.000000 0.001082 0.001680 1.000000 0.000587 0.002990 1.000000 0.000279 0.004208 1.000000 -0.000631 0.005628 1.000000 -0.001418 0.006903 1.000000 -0.002792 0.008353 1.000000 -0.004096 0.009595 1.000000 -0.005956 0.010960 1.000000 -0.007780 0.012050 1.000000 -0.010109 0.013189 1.000000 -0.012403 0.013978 1.000000 -0.015124 0.014729 1.000000 -0.017772 0.015056 1.000000 -0.020742 0.015254 1.000000 -0.023554 0.014966 1.000000 -0.026556 0.014473 1.000000 -0.029272 0.013454 1.000000 -0.032024 0.012191 1.000000 -0.034338 0.010395 1.000000 -0.036530 0.008370 1.000000 -0.038129 0.005845 1.000000 -0.039465 0.003166 1.000000 -0.040084 0.000058 1.000000 -0.040328 -0.003083 1.000000 -0.039795 -0.006551 1.000000 -0.038814 -0.009902 1.000000 -0.037065 -0.013468 1.000000 -0.034833 -0.016766 1.000000 -0.031908 -0.020156 1.000000 -0.028491 -0.023150 1.000000 -0.024500 -0.026096 1.000000 -0.020031 -0.028536 1.000000 -0.015130 -0.030757 1.000000 -0.009806 -0.032374 1.000000 -0.004213 -0.033550 1.000000 0.001665 -0.034026 1.000000 0.007609 -0.033803 1.000000 0.013563 -0.032811 1.000000 0.019311 -0.030892 1.000000 0.024637 -0.028237 1.000000 0.029421 -0.024581 1.000000 0.033262 -0.020434 1.000000 0.036255 -0.015494 1.000000 0.037892 -0.010572 1.000000 0.038582 -0.005363 1.000000 0.037839 -0.000797 1.000000 0.036403 0.003411 1.000000 0.033836 0.006588 1.000000 0.031138 0.008838 1.000000 0.027714 0.010159 1.000000 0.024858 0.010115 1.000000 0.021598 0.009609 1.000000 0.019575 0.007562 1.000000 0.017574 0.005962 1.000000 0.016545 0.003154 1.000000 0.016006 0.001714 1.000000 0.015778 -0.000458 1.000000 0.016366 -0.000908 1.000000 0.016299 -0.001427 1.000000 0.017320 -0.000539 1.000000 0.017195 0.000417 1.000000 0.018487 0.002243 1.000000 0.018331 0.004850 1.000000 0.019174 0.007544 1.000000 0.018459 0.011660 1.000000 0.016317 0.013897 1.000000 0.014738 0.014723 1.000000 0.013349 0.015213 1.000000 0.011959 0.014936 1.000000 0.010949 0.015028 1.000000 0.009321 0.014719 1.000000 0.008172 0.014674 1.000000 0.006255 0.014374 1.000000 0.004940 0.014139 1.000000 0.002903 0.013772 1.000000 0.001543 0.013346 1.000000 -0.000462 0.012903 1.000000 -0.001766 0.012336 1.000000 -0.003650 0.011847 1.000000 -0.004846 0.011190 1.000000 -0.006569 0.010684 1.000000 -0.007634 0.009974 1.000000 -0.009182 0.009470 1.000000 -0.010110 0.008725 1.000000 -0.011478 0.008231 1.000000 -0.012267 0.007459 1.000000 -0.013451 0.006977 1.000000 -0.014101 0.006180 1.000000 -0.015096 0.005709 1.000000 