# vtk DataFile Version 2.0
Comment goes here
ASCII

DATASET STRUCTURED_POINTS
DIMENSIONS    128   128   1

ORIGIN    0.000   0.000   0.000
SPACING   0.0156250.015625   1.000

POINT_DATA   16384
VECTORS u double

-0.018669 0.000001 1.000000 -0.019755 0.000000 1.000000 -0.020138 0.000001 1.000000 -0.020943 0.000000 1.000000 -0.021168 0.000001 1.000000 -0.021689 0.000000 1.000000 -0.021763 0.000001 1.000000 -0.022000 0.000000 1.000000 -0.021930 0.000000 1.000000 -0.021888 -0.000000 1.000000 -0.021683 0.000000 1.000000 -0.021371 -0.000000 1.000000 -0.021042 0.000000 1.000000 -0.020474 -0.000000 1.000000 -0.020035 0.000000 1.000000 -0.019232 -0.000000 1.000000 -0.018699 0.000000 1.000000 -0.017686 -0.000000 1.000000 -0.017080 0.000000 1.000000 -0.015889 -0.000000 1.000000 -0.015234 -0.000000 1.000000 -0.013902 -0.000001 1.000000 -0.013223 -0.000000 1.000000 -0.011793 -0.000001 1.000000 -0.011123 -0.000000 1.000000 -0.009644 -0.000001 1.000000 -0.009016 -0.000000 1.000000 -0.007542 -0.000000 1.000000 -0.006997 -0.000000 1.000000 -0.005587 -0.000000 1.000000 -0.005169 0.000000 1.000000 -0.003885 -0.000000 1.000000 -0.003642 0.000000 1.000000 -0.002551 0.000000 1.000000 -0.002533 0.000001 1.000000 -0.001701 0.000001 1.000000 -0.001959 0.000001 1.000000 -0.001449 0.000001 1.000000 -0.002030 0.000001 1.000000 -0.001900 0.000001 1.000000 -0.002843 0.000002 1.000000 -0.003134 0.000002 1.000000 -0.004464 0.000002 1.000000 -0.005199 0.000002 1.000000 -0.006919 0.000002 1.000000 -0.008091 0.000003 1.000000 -0.010171 0.000002 1.000000 -0.011737 0.000003 1.000000 -0.014113 0.000002 1.000000 -0.015985 0.000003 1.000000 -0.018547 0.000002 1.000000 -0.020594 0.000002 1.000000 -0.023191 0.000002 1.000000 -0.025237 0.000002 1.000000 -0.027678 0.000001 1.000000 -0.029516 0.000000 1.000000 -0.031584 -0.000001 1.000000 -0.032990 -0.000001 1.000000 -0.034464 -0.000003 1.000000 -0.035221 -0.000003 1.000000 -0.035898 -0.000005 1.000000 -0.035820 -0.000006 1.000000 -0.035537 -0.000007 1.000000 -0.034492 -0.000008 1.000000 -0.033150 -0.000010 1.000000 -0.031076 -0.000011 1.000000 -0.028654 -0.000013 1.000000 -0.025570 -0.000014 1.000000 -0.022134 -0.000015 1.000000 -0.018145 -0.000016 1.000000 -0.013850 -0.000017 1.000000 -0.009149 -0.000018 1.000000 -0.004247 -0.000019 1.000000 0.000883 -0.000019 1.000000 0.006051 -0.000019 1.000000 0.011248 -0.000019 1.000000 0.016266 -0.000019 1.000000 0.021113 -0.000018 1.000000 0.025536 -0.000017 1.000000 0.029621 -0.000015 1.000000 0.033050 -0.000014 1.000000 0.036046 -0.000013 1.000000 0.038229 -0.000011 1.000000 0.039988 -0.000009 1.000000 0.040900 -0.000008 1.000000 0.041502 -0.000006 1.000000 0.041373 -0.000005 1.000000 0.041106 -0.000004 1.000000 0.040362 -0.000003 1.000000 0.039630 -0.000002 1.000000 0.038769 -0.000001 1.000000 0.037968 -0.000001 1.000000 0.037401 -0.000000 1.000000 0.036775 -0.000000 1.000000 0.036677 0.000000 1.000000 0.036238 0.000000 1.000000 0.036492 0.000000 1.000000 0.036031 0.000001 1.000000 0.036298 0.000001 1.000000 0.035491 0.000001 1.000000 0.035360 0.000001 1.000000 0.033913 0.000002 1.000000 0.033065 0.000002 1.000000 0.030851 0.000002 1.000000 0.029242 0.000002 1.000000 0.026399 0.000002 1.000000 0.024328 0.000002 1.000000 0.021163 0.000002 1.000000 0.018965 0.000002 1.000000 0.015733 0.000001 1.000000 0.013609 0.000001 1.000000 0.010451 0.000001 1.000000 0.008483 0.000001 1.000000 0.005469 0.000001 1.000000 0.003681 0.000001 1.000000 0.000849 0.000000 1.000000 -0.000754 0.000001 1.000000 -0.003378 0.000000 1.000000 -0.004796 0.000001 1.000000 -0.007192 0.000000 1.000000 -0.008427 0.000001 1.000000 -0.010580 0.000000 1.000000 -0.011636 0.000001 1.000000 -0.013534 0.000000 1.000000 -0.014415 0.000001 1.000000 -0.016050 0.000000 1.000000 -0.016760 0.000001 1.000000 -0.018124 0.000000 1.000000 
-0.016167 0.000816 1.000000 -0.017104 0.000735 1.000000 -0.017541 0.000594 1.000000 -0.018243 0.000515 1.000000 -0.018512 0.000374 1.000000 -0.018980 0.000298 1.000000 -0.019086 0.000156 1.000000 -0.019320 0.000083 1.000000 -0.019270 -0.000056 1.000000 -0.019276 -0.000124 1.000000 -0.019078 -0.000258 1.000000 -0.018863 -0.000321 1.000000 -0.018529 -0.000448 1.000000 -0.018107 -0.000504 1.000000 -0.017651 -0.000621 1.000000 -0.017037 -0.000668 1.000000 -0.016475 -0.000773 1.000000 -0.015692 -0.000810 1.000000 -0.015046 -0.000898 1.000000 -0.014119 -0.000924 1.000000 -0.013412 -0.000994 1.000000 -0.012375 -0.001006 1.000000 -0.011634 -0.001054 1.000000 -0.010523 -0.001051 1.000000 -0.009781 -0.001075 1.000000 -0.008638 -0.001054 1.000000 -0.007930 -0.001051 1.000000 -0.006804 -0.001010 1.000000 -0.006170 -0.000978 1.000000 -0.005114 -0.000914 1.000000 -0.004599 -0.000851 1.000000 -0.003670 -0.000763 1.000000 -0.003324 -0.000667 1.000000 -0.002583 -0.000554 1.000000 -0.002455 -0.000424 1.000000 -0.001964 -0.000287 1.000000 -0.002108 -0.000125 1.000000 -0.001928 0.000037 1.000000 -0.002390 0.000227 1.000000 -0.002574 0.000408 1.000000 -0.003397 0.000619 1.000000 -0.003986 0.000813 1.000000 -0.005196 0.001035 1.000000 -0.006210 0.001230 1.000000 -0.007811 0.001448 1.000000 -0.009243 0.001629 1.000000 -0.011210 0.001826 1.000000 -0.013015 0.001974 1.000000 -0.015284 0.002127 1.000000 -0.017377 0.002220 1.000000 -0.019840 0.002307 1.000000 -0.022087 0.002324 1.000000 -0.024596 0.002323 1.000000 -0.026821 0.002245 1.000000 -0.029184 0.002140 1.000000 -0.031179 0.001954 1.000000 -0.033182 0.001736 1.000000 -0.034722 0.001439 1.000000 -0.036144 0.001113 1.000000 -0.037011 0.000713 1.000000 -0.037649 0.000294 1.000000 -0.037660 -0.000186 1.000000 -0.037352 -0.000672 1.000000 -0.036377 -0.001202 1.000000 -0.035027 -0.001718 1.000000 -0.033008 -0.002260 1.000000 -0.030596 -0.002766 1.000000 -0.027554 -0.003275 1.000000 -0.024144 -0.003729 1.000000 -0.020183 -0.004159 1.000000 -0.015928 -0.004516 1.000000 -0.011238 -0.004820 1.000000 -0.006383 -0.005036 1.000000 -0.001240 -0.005168 1.000000 0.003883 -0.005202 1.000000 0.009119 -0.005127 1.000000 0.014102 -0.004952 1.000000 0.019014 -0.004653 1.000000 0.023416 -0.004271 1.000000 0.027583 -0.003773 1.000000 0.031006 -0.003227 1.000000 0.034089 -0.002602 1.000000 0.036278 -0.001982 1.000000 0.038119 -0.001345 1.000000 0.039045 -0.000765 1.000000 0.039727 -0.000243 1.000000 0.039611 0.000193 1.000000 0.039438 0.000502 1.000000 0.038695 0.000735 1.000000 0.038091 0.000795 1.000000 0.037209 0.000830 1.000000 0.036578 0.000684 1.000000 0.035963 0.000596 1.000000 0.035543 0.000362 1.000000 0.035374 0.000269 1.000000 0.035166 0.000093 1.000000 0.035339 0.000104 1.000000 0.035132 0.000098 1.000000 0.035318 0.000271 1.000000 0.034794 0.000471 1.000000 0.034585 0.000791 1.000000 0.033452 0.001150 1.000000 0.032514 0.001533 1.000000 0.030636 0.001914 1.000000 0.028911 0.002228 1.000000 0.026419 0.002460 1.000000 0.024233 0.002620 1.000000 0.021439 0.002683 1.000000 0.019139 0.002717 1.000000 0.016292 0.002679 1.000000 0.014075 0.002642 1.000000 0.011304 0.002564 1.000000 0.009243 0.002492 1.000000 0.006608 0.002402 1.000000 0.004726 0.002311 1.000000 0.002260 0.002218 1.000000 0.000562 0.002114 1.000000 -0.001714 0.002021 1.000000 -0.003226 0.001908 1.000000 -0.005294 0.001816 1.000000 -0.006621 0.001695 1.000000 -0.008473 0.001605 1.000000 -0.009615 0.001478 1.000000 -0.011243 0.001390 1.000000 -0.012205 0.001259 1.000000 -0.013606 0.001173 1.000000 -0.014389 0.001038 1.000000 -0.015559 0.000954 1.000000 
-0.018889 0.001546 1.000000 -0.019978 0.001374 1.000000 -0.020358 0.001140 1.000000 -0.021164 0.000971 1.000000 -0.021386 0.000737 1.000000 -0.021907 0.000574 1.000000 -0.021977 0.000341 1.000000 -0.022212 0.000184 1.000000 -0.022138 -0.000044 1.000000 -0.022091 -0.000192 1.000000 -0.021880 -0.000412 1.000000 -0.021561 -0.000549 1.000000 -0.021224 -0.000756 1.000000 -0.020647 -0.000879 1.000000 -0.020199 -0.001070 1.000000 -0.019383 -0.001176 1.000000 -0.018841 -0.001345 1.000000 -0.017812 -0.001430 1.000000 -0.017195 -0.001573 1.000000 -0.015985 -0.001634 1.000000 -0.015316 -0.001745 1.000000 -0.013962 -0.001778 1.000000 -0.013268 -0.001852 1.000000 -0.011814 -0.001854 1.000000 -0.011126 -0.001885 1.000000 -0.009620 -0.001851 1.000000 -0.008972 -0.001834 1.000000 -0.007469 -0.001760 1.000000 -0.006902 -0.001690 1.000000 -0.005460 -0.001571 1.000000 -0.005018 -0.001443 1.000000 -0.003701 -0.001276 1.000000 -0.003433 -0.001087 1.000000 -0.002309 -0.000868 1.000000 -0.002265 -0.000617 1.000000 -0.001401 -0.000347 1.000000 -0.001635 -0.000036 1.000000 -0.001098 0.000284 1.000000 -0.001659 0.000648 1.000000 -0.001507 0.001008 1.000000 -0.002438 0.001413 1.000000 -0.002718 0.001800 1.000000 -0.004046 0.002226 1.000000 -0.004785 0.002617 1.000000 -0.006517 0.003035 1.000000 -0.007711 0.003401 1.000000 -0.009823 0.003775 1.000000 -0.011431 0.004077 1.000000 -0.013860 0.004364 1.000000 -0.015797 0.004559 1.000000 -0.018434 0.004713 1.000000 -0.020566 0.004758 1.000000 -0.023255 0.004735 1.000000 -0.025403 0.004590 1.000000 -0.027948 0.004359 1.000000 -0.029895 0.003998 1.000000 -0.032071 0.003542 1.000000 -0.033583 0.002960 1.000000 -0.035157 0.002287 1.000000 -0.036005 0.001502 1.000000 -0.036761 0.000643 1.000000 -0.036748 -0.000302 1.000000 -0.036515 -0.001290 1.000000 -0.035502 -0.002333 1.000000 -0.034175 -0.003379 1.000000 -0.032097 -0.004442 1.000000 -0.029651 -0.005467 1.000000 -0.026526 -0.006466 1.000000 -0.023025 -0.007386 1.000000 -0.018958 -0.008232 1.000000 -0.014562 -0.008962 1.000000 -0.009748 -0.009563 1.000000 -0.004709 -0.010017 1.000000 0.000563 -0.010284 1.000000 0.005894 -0.010378 1.000000 0.011249 -0.010238 1.000000 0.016436 -0.009914 1.000000 0.021434 -0.009332 1.000000 0.025998 -0.008585 1.000000 0.030190 -0.007605 1.000000 0.033693 -0.006520 1.000000 0.036716 -0.005284 1.000000 0.038871 -0.004042 1.000000 0.040559 -0.002777 1.000000 0.041334 -0.001616 1.000000 0.041778 -0.000573 1.000000 0.041428 0.000284 1.000000 0.040954 0.000912 1.000000 0.039958 0.001344 1.000000 0.039022 0.001484 1.000000 0.037939 0.001512 1.000000 0.036985 0.001245 1.000000 0.036283 0.001035 1.000000 0.035587 0.000589 1.000000 0.035464 0.000376 1.000000 0.035033 0.000035 1.000000 0.035355 0.000035 1.000000 0.034955 0.000022 1.000000 0.035341 0.000338 1.000000 0.034615 0.000735 1.000000 0.034612 0.001343 1.000000 0.033238 0.002072 1.000000 0.032468 0.002819 1.000000 0.030285 0.003605 1.000000 0.028663 0.004219 1.000000 0.025823 0.004681 1.000000 0.023744 0.004982 1.000000 0.020605 0.005095 1.000000 0.018442 0.005148 1.000000 0.015254 0.005066 1.000000 0.013183 0.004990 1.000000 0.010065 0.004833 1.000000 0.008143 0.004697 1.000000 0.005154 0.004518 1.000000 0.003397 0.004349 1.000000 0.000578 0.004165 1.000000 -0.001006 0.003974 1.000000 -0.003625 0.003788 1.000000 -0.005031 0.003581 1.000000 -0.007426 0.003395 1.000000 -0.008654 0.003179 1.000000 -0.010808 0.002995 1.000000 -0.011859 0.002772 1.000000 -0.013759 0.002590 1.000000 -0.014636 0.002363 1.000000 -0.016273 0.002184 1.000000 -0.016981 0.001954 1.000000 -0.018347 0.001779 1.000000 
-0.016573 0.002447 1.000000 -0.017512 0.002204 1.000000 -0.017944 0.001780 1.000000 -0.018646 0.001544 1.000000 -0.018910 0.001117 1.000000 -0.019376 0.000889 1.000000 -0.019475 0.000461 1.000000 -0.019705 0.000244 1.000000 -0.019646 -0.000177 1.000000 -0.019643 -0.000382 1.000000 -0.019435 -0.000789 1.000000 -0.019208 -0.000976 1.000000 -0.018860 -0.001362 1.000000 -0.018420 -0.001529 1.000000 -0.017947 -0.001885 1.000000 -0.017312 -0.002027 1.000000 -0.016730 -0.002344 1.000000 -0.015920 -0.002456 1.000000 -0.015250 -0.002726 1.000000 -0.014291 -0.002803 1.000000 -0.013557 -0.003017 1.000000 -0.012482 -0.003053 1.000000 -0.011710 -0.003203 1.000000 -0.010556 -0.003193 1.000000 -0.009778 -0.003269 1.000000 -0.008587 -0.003207 1.000000 -0.007839 -0.003202 1.000000 -0.006660 -0.003080 1.000000 -0.005981 -0.002986 1.000000 -0.004867 -0.002798 1.000000 -0.004304 -0.002609 1.000000 -0.003314 -0.002349 1.000000 -0.002916 -0.002059 1.000000 -0.002113 -0.001722 1.000000 -0.001934 -0.001332 1.000000 -0.001383 -0.000917 1.000000 -0.001477 -0.000428 1.000000 -0.001244 0.000060 1.000000 -0.001665 0.000636 1.000000 -0.001808 0.001187 1.000000 -0.002604 0.001830 1.000000 -0.003172 0.002421 1.000000 -0.004377 0.003102 1.000000 -0.005398 0.003701 1.000000 -0.007023 0.004374 1.000000 -0.008498 0.004935 1.000000 -0.010526 0.005546 1.000000 -0.012417 0.006010 1.000000 -0.014789 0.006492 1.000000 -0.017011 0.006794 1.000000 -0.019621 0.007076 1.000000 -0.022039 0.007146 1.000000 -0.024731 0.007160 1.000000 -0.027159 0.006938 1.000000 -0.029731 0.006632 1.000000 -0.031944 0.006077 1.000000 -0.034161 0.005424 1.000000 -0.035911 0.004524 1.000000 -0.037530 0.003534 1.000000 -0.038577 0.002317 1.000000 -0.039371 0.001037 1.000000 -0.039510 -0.000432 1.000000 -0.039300 -0.001918 1.000000 -0.038387 -0.003542 1.000000 -0.037064 -0.005124 1.000000 -0.035035 -0.006784 1.000000 -0.032576 -0.008338 1.000000 -0.029453 -0.009900 1.000000 -0.025921 -0.011296 1.000000 -0.021810 -0.012622 1.000000 -0.017361 -0.013726 1.000000 -0.012454 -0.014672 1.000000 -0.007337 -0.015347 1.000000 -0.001919 -0.015771 1.000000 0.003517 -0.015888 1.000000 0.009066 -0.015669 1.000000 0.014376 -0.015136 1.000000 0.019590 -0.014215 1.000000 0.024269 -0.013026 1.000000 0.028655 -0.011467 1.000000 0.032223 -0.009753 1.000000 0.035365 -0.007781 1.000000 0.037500 -0.005825 1.000000 0.039196 -0.003808 1.000000 0.039855 -0.001984 1.000000 0.040208 -0.000337 1.000000 0.039666 0.001017 1.000000 0.039066 0.001973 1.000000 0.037836 0.002668 1.000000 0.036822 0.002813 1.000000 0.035506 0.002867 1.000000 0.034581 0.002340 1.000000 0.033695 0.001994 1.000000 0.033141 0.001182 1.000000 0.032906 0.000823 1.000000 0.032711 0.000201 1.000000 0.032995 0.000182 1.000000 0.032889 0.000112 1.000000 0.033296 0.000611 1.000000 0.032921 0.001200 1.000000 0.032973 0.002168 1.000000 0.031994 0.003294 1.000000 0.031228 0.004486 1.000000 0.029430 0.005718 1.000000 0.027670 0.006690 1.000000 0.025198 0.007379 1.000000 0.023004 0.007838 1.000000 0.020283 0.007985 1.000000 0.018068 0.008068 1.000000 0.015326 0.007938 1.000000 0.013223 0.007831 1.000000 0.010540 0.007604 1.000000 0.008573 0.007403 1.000000 0.005993 0.007148 1.000000 0.004172 0.006887 1.000000 0.001735 0.006621 1.000000 0.000073 0.006317 1.000000 -0.002188 0.006047 1.000000 -0.003678 0.005709 1.000000 -0.005741 0.005439 1.000000 -0.007053 0.005076 1.000000 -0.008902 0.004809 1.000000 -0.010035 0.004429 1.000000 -0.011664 0.004167 1.000000 -0.012618 0.003773 1.000000 -0.014020 0.003518 1.000000 -0.014798 0.003112 1.000000 -0.015969 0.002862 1.000000 
-0.019550 0.003088 1.000000 -0.020646 0.002745 1.000000 -0.021018 0.002274 1.000000 -0.021828 0.001938 1.000000 -0.022043 0.001466 1.000000 -0.022562 0.001139 1.000000 -0.022623 0.000670 1.000000 -0.022851 0.000355 1.000000 -0.022763 -0.000105 1.000000 -0.022702 -0.000403 1.000000 -0.022475 -0.000848 1.000000 -0.022134 -0.001124 1.000000 -0.021777 -0.001544 1.000000 -0.021170 -0.001792 1.000000 -0.020697 -0.002179 1.000000 -0.019842 -0.002393 1.000000 -0.019270 -0.002737 1.000000 -0.018194 -0.002910 1.000000 -0.017542 -0.003201 1.000000 -0.016276 -0.003327 1.000000 -0.015566 -0.003554 1.000000 -0.014148 -0.003625 1.000000 -0.013408 -0.003778 1.000000 -0.011881 -0.003786 1.000000 -0.011140 -0.003854 1.000000 -0.009552 -0.003790 1.000000 -0.008846 -0.003762 1.000000 -0.007253 -0.003618 1.000000 -0.006620 -0.003483 1.000000 -0.005082 -0.003248 1.000000 -0.004568 -0.002997 1.000000 -0.003152 -0.002664 1.000000 -0.002807 -0.002288 1.000000 -0.001581 -0.001851 1.000000 -0.001460 -0.001348 1.000000 -0.000498 -0.000803 1.000000 -0.000658 -0.000175 1.000000 -0.000033 0.000472 1.000000 -0.000532 0.001213 1.000000 -0.000312 0.001948 1.000000 -0.001201 0.002777 1.000000 -0.001444 0.003573 1.000000 -0.002764 0.004452 1.000000 -0.003507 0.005264 1.000000 -0.005277 0.006136 1.000000 -0.006530 0.006904 1.000000 -0.008736 0.007694 1.000000 -0.010468 0.008340 1.000000 -0.013055 0.008958 1.000000 -0.015185 0.009392 1.000000 -0.018046 0.009741 1.000000 -0.020437 0.009868 1.000000 -0.023409 0.009855 1.000000 -0.025866 0.009590 1.000000 -0.028733 0.009143 1.000000 -0.031014 0.008428 1.000000 -0.033522 0.007510 1.000000 -0.035359 0.006329 1.000000 -0.037239 0.004952 1.000000 -0.038367 0.003343 1.000000 -0.039368 0.001576 1.000000 -0.039557 -0.000373 1.000000 -0.039479 -0.002413 1.000000 -0.038568 -0.004568 1.000000 -0.037288 -0.006730 1.000000 -0.035201 -0.008930 1.000000 -0.032685 -0.011050 1.000000 -0.029440 -0.013121 1.000000 -0.025753 -0.015029 1.000000 -0.021458 -0.016792 1.000000 -0.016761 -0.018318 1.000000 -0.011617 -0.019587 1.000000 -0.006172 -0.020552 1.000000 -0.000478 -0.021138 1.000000 0.005341 -0.021363 1.000000 0.011174 -0.021096 1.000000 0.016875 -0.020438 1.000000 0.022334 -0.019225 1.000000 0.027339 -0.017650 1.000000 0.031862 -0.015560 1.000000 0.035599 -0.013230 1.000000 0.038705 -0.010561 1.000000 0.040773 -0.007872 1.000000 0.042231 -0.005131 1.000000 0.042571 -0.002628 1.000000 0.042512 -0.000384 1.000000 0.041465 0.001426 1.000000 0.040345 0.002743 1.000000 0.038556 0.003588 1.000000 0.036985 0.003815 1.000000 0.035207 0.003753 1.000000 0.033781 0.003055 1.000000 0.032661 0.002475 1.000000 0.031749 0.001378 1.000000 0.031546 0.000806 1.000000 0.031130 -0.000053 1.000000 0.031648 -0.000144 1.000000 0.031412 -0.000279 1.000000 0.032137 0.000306 1.000000 0.031635 0.001058 1.000000 0.032034 0.002270 1.000000 0.030895 0.003817 1.000000 0.030412 0.005383 1.000000 0.028357 0.007162 1.000000 0.026677 0.008450 1.000000 0.023881 0.009347 1.000000 0.021822 0.009897 1.000000 0.018822 0.010031 1.000000 0.016824 0.010106 1.000000 0.013808 0.009911 1.000000 0.011926 0.009776 1.000000 0.008936 0.009483 1.000000 0.007156 0.009244 1.000000 0.004238 0.008919 1.000000 0.002570 0.008607 1.000000 -0.000218 0.008263 1.000000 -0.001748 0.007896 1.000000 -0.004357 0.007539 1.000000 -0.005731 0.007134 1.000000 -0.008125 0.006770 1.000000 -0.009331 0.006341 1.000000 -0.011490 0.005977 1.000000 -0.012525 0.005533 1.000000 -0.014432 0.005173 1.000000 -0.015298 0.004719 1.000000 -0.016943 0.004364 1.000000 -0.017641 0.003904 1.000000 -0.019016 0.003554 1.000000 
-0.017386 0.004076 1.000000 -0.018328 0.003672 1.000000 -0.018752 0.002963 1.000000 -0.019456 0.002568 1.000000 -0.019710 0.001850 1.000000 -0.020172 0.001469 1.000000 -0.020259 0.000750 1.000000 -0.020480 0.000384 1.000000 -0.020404 -0.000325 1.000000 -0.020386 -0.000670 1.000000 -0.020155 -0.001357 1.000000 -0.019904 -0.001674 1.000000 -0.019528 -0.002326 1.000000 -0.019055 -0.002609 1.000000 -0.018548 -0.003212 1.000000 -0.017869 -0.003453 1.000000 -0.017247 -0.003992 1.000000 -0.016384 -0.004184 1.000000 -0.015666 -0.004644 1.000000 -0.014645 -0.004778 1.000000 -0.013855 -0.005144 1.000000 -0.012706 -0.005212 1.000000 -0.011871 -0.005470 1.000000 -0.010632 -0.005461 1.000000 -0.009782 -0.005598 1.000000 -0.008495 -0.005501 1.000000 -0.007666 -0.005502 1.000000 -0.006380 -0.005306 1.000000 -0.005612 -0.005157 1.000000 -0.004381 -0.004850 1.000000 -0.003720 -0.004540 1.000000 -0.002605 -0.004110 1.000000 -0.002103 -0.003630 1.000000 -0.001172 -0.003069 1.000000 -0.000886 -0.002415 1.000000 -0.000210 -0.001718 1.000000 -0.000202 -0.000893 1.000000 0.000144 -0.000066 1.000000 -0.000189 0.000915 1.000000 -0.000243 0.001856 1.000000 -0.000977 0.002962 1.000000 -0.001494 0.003984 1.000000 -0.002680 0.005165 1.000000 -0.003707 0.006213 1.000000 -0.005373 0.007397 1.000000 -0.006926 0.008394 1.000000 -0.009071 0.009484 1.000000 -0.011126 0.010329 1.000000 -0.013703 0.011209 1.000000 -0.016184 0.011785 1.000000 -0.019089 0.012327 1.000000 -0.021855 0.012508 1.000000 -0.024923 0.012589 1.000000 -0.027769 0.012262 1.000000 -0.030772 0.011781 1.000000 -0.033436 0.010866 1.000000 -0.036099 0.009769 1.000000 -0.038288 0.008242 1.000000 -0.040318 0.006542 1.000000 -0.041739 0.004446 1.000000 -0.042860 0.002228 1.000000 -0.043265 -0.000321 1.000000 -0.043259 -0.002907 1.000000 -0.042476 -0.005734 1.000000 -0.041214 -0.008491 1.000000 -0.039169 -0.011386 1.000000 -0.036621 -0.014099 1.000000 -0.033342 -0.016832 1.000000 -0.029575 -0.019278 1.000000 -0.025175 -0.021614 1.000000 -0.020350 -0.023567 1.000000 -0.015026 -0.025262 1.000000 -0.009398 -0.026486 1.000000 -0.003442 -0.027284 1.000000 0.002617 -0.027541 1.000000 0.008792 -0.027203 1.000000 0.014771 -0.026296 1.000000 0.020611 -0.024678 1.000000 0.025872 -0.022554 1.000000 0.030726 -0.019727 1.000000 0.034606 -0.016596 1.000000 0.037876 -0.012955 1.000000 0.039894 -0.009351 1.000000 0.041265 -0.005605 1.000000 0.041344 -0.002265 1.000000 0.040973 0.000769 1.000000 0.039518 0.003183 1.000000 0.037999 0.004882 1.000000 0.035736 0.006028 1.000000 0.033858 0.006162 1.000000 0.031620 0.006071 1.000000 0.030106 0.004886 1.000000 0.028656 0.004026 1.000000 0.027832 0.002297 1.000000 0.027446 0.001442 1.000000 0.027252 0.000100 1.000000 0.027725 -0.000099 1.000000 0.027754 -0.000378 1.000000 0.028552 0.000388 1.000000 0.028410 0.001302 1.000000 0.029021 0.002907 1.000000 0.028380 0.004916 1.000000 0.028095 0.007024 1.000000 0.026551 0.009454 1.000000 0.024667 0.011166 1.000000 0.022319 0.012233 1.000000 0.020211 0.012897 1.000000 0.017769 0.012983 1.000000 0.015851 0.013082 1.000000 0.013394 0.012837 1.000000 0.011576 0.012703 1.000000 0.009083 0.012374 1.000000 0.007307 0.012101 1.000000 0.004825 0.011733 1.000000 0.003115 0.011343 1.000000 0.000722 0.010940 1.000000 -0.000876 0.010456 1.000000 -0.003118 0.010029 1.000000 -0.004570 0.009477 1.000000 -0.006624 0.009039 1.000000 -0.007912 0.008440 1.000000 -0.009757 0.008003 1.000000 -0.010873 0.007371 1.000000 -0.012501 0.006940 1.000000 -0.013443 0.006284 1.000000 -0.014847 0.005861 1.000000 -0.015615 0.005185 1.000000 -0.016790 0.004771 1.000000 
-0.020654 0.004625 1.000000 -0.021762 0.004110 1.000000 -0.022124 0.003402 1.000000 -0.022942 0.002895 1.000000 -0.023143 0.002183 1.000000 -0.023663 0.001688 1.000000 -0.023707 0.000978 1.000000 -0.023926 0.000500 1.000000 -0.023817 -0.000199 1.000000 -0.023734 -0.000652 1.000000 -0.023479 -0.001330 1.000000 -0.023103 -0.001750 1.000000 -0.022712 -0.002392 1.000000 -0.022055 -0.002772 1.000000 -0.021541 -0.003365 1.000000 -0.020622 -0.003694 1.000000 -0.020000 -0.004222 1.000000 -0.018846 -0.004491 1.000000 -0.018136 -0.004940 1.000000 -0.016776 -0.005138 1.000000 -0.016000 -0.005492 1.000000 -0.014474 -0.005609 1.000000 -0.013657 -0.005852 1.000000 -0.012008 -0.005875 1.000000 -0.011179 -0.005990 1.000000 -0.009456 -0.005907 1.000000 -0.008650 -0.005877 1.000000 -0.006908 -0.005672 1.000000 -0.006164 -0.005482 1.000000 -0.004465 -0.005141 1.000000 -0.003829 -0.004772 1.000000 -0.002242 -0.004281 1.000000 -0.001765 -0.003721 1.000000 -0.000366 -0.003068 1.000000 -0.000109 -0.002309 1.000000 0.001024 -0.001487 1.000000 0.000995 -0.000530 1.000000 0.001775 0.000458 1.000000 0.001391 0.001600 1.000000 0.001737 0.002736 1.000000 0.000929 0.004029 1.000000 0.000764 0.005276 1.000000 -0.000528 0.006664 1.000000 -0.001265 0.007957 1.000000 -0.003081 0.009355 1.000000 -0.004422 0.010602 1.000000 -0.006772 0.011894 1.000000 -0.008704 0.012972 1.000000 -0.011548 0.014016 1.000000 -0.014001 0.014778 1.000000 -0.017238 0.015412 1.000000 -0.020070 0.015701 1.000000 -0.023526 0.015769 1.000000 -0.026518 0.015439 1.000000 -0.029944 0.014810 1.000000 -0.032810 0.013756 1.000000 -0.035900 0.012362 1.000000 -0.038309 0.010548 1.000000 -0.040729 0.008403 1.000000 -0.042350 0.005885 1.000000 -0.043784 0.003101 1.000000 -0.044328 0.000026 1.000000 -0.044525 -0.003202 1.000000 -0.043794 -0.006613 1.000000 -0.042601 -0.010037 1.000000 -0.040506 -0.013523 1.000000 -0.037885 -0.016878 1.000000 -0.034449 -0.020167 1.000000 -0.030468 -0.023196 1.000000 -0.025812 -0.026017 1.000000 -0.020638 -0.028467 1.000000 -0.014967 -0.030539 1.000000 -0.008868 -0.032136 1.000000 -0.002492 -0.033154 1.000000 0.004135 -0.033597 1.000000 0.010767 -0.033250 1.000000 0.017351 -0.032257 1.000000 0.023610 -0.030326 1.000000 0.029401 -0.027765 1.000000 0.034521 -0.024294 1.000000 0.038693 -0.020380 1.000000 0.041945 -0.015849 1.000000 0.043861 -0.011261 1.000000 0.044873 -0.006582 1.000000 0.044404 -0.002336 1.000000 0.043402 0.001442 1.000000 0.041074 0.004400 1.000000 0.038793 0.006525 1.000000 0.035571 0.007729 1.000000 0.032885 0.007930 1.000000 0.029854 0.007506 1.000000 0.027621 0.006019 1.000000 0.025772 0.004748 1.000000 0.024509 0.002588 1.000000 0.024161 0.001386 1.000000 0.023719 -0.000333 1.000000 0.024523 -0.000645 1.000000 0.024455 -0.001106 1.000000 0.025632 -0.000350 1.000000 0.025357 0.000589 1.000000 0.026448 0.002300 1.000000 0.025717 0.004743 1.000000 0.025967 0.007213 1.000000 0.024299 0.010590 1.000000 0.022425 0.012682 1.000000 0.019897 0.013803 1.000000 0.018099 0.014447 1.000000 0.015581 0.014391 1.000000 0.014079 0.014480 1.000000 0.011462 0.014186 1.000000 0.009970 0.014088 1.000000 0.007197 0.013753 1.000000 0.005647 0.013501 1.000000 0.002819 0.013110 1.000000 0.001276 0.012710 1.000000 -0.001485 0.012254 1.000000 -0.002945 0.011737 1.000000 -0.005550 0.011234 1.000000 -0.006879 0.010640 1.000000 -0.009278 0.010112 1.000000 -0.010452 0.009474 1.000000 -0.012619 0.008938 1.000000 -0.013630 0.008276 1.000000 -0.015549 0.007742 1.000000 -0.016397 0.007065 1.000000 -0.018057 0.006536 1.000000 -0.018742 0.005847 1.000000 -0.020131 0.005325 1.000000 
-0.018607 0.005708 1.000000 -0.019555 0.005142 1.000000 -0.019969 0.004142 1.000000 -0.020676 0.003588 1.000000 -0.020918 0.002572 1.000000 -0.021378 0.002033 1.000000 -0.021447 0.001012 1.000000 -0.021657 0.000493 1.000000 -0.021557 -0.000516 1.000000 -0.021516 -0.001007 1.000000 -0.021253 -0.001988 1.000000 -0.020967 -0.002441 1.000000 -0.020550 -0.003375 1.000000 -0.020028 -0.003781 1.000000 -0.019470 -0.004645 1.000000 -0.018727 -0.004994 1.000000 -0.018044 -0.005768 1.000000 -0.017102 -0.006049 1.000000 -0.016314 -0.006713 1.000000 -0.015197 -0.006913 1.000000 -0.014326 -0.007446 1.000000 -0.013066 -0.007555 1.000000 -0.012137 -0.007937 1.000000 -0.010770 -0.007939 1.000000 -0.009814 -0.008149 1.000000 -0.008382 -0.008031 1.000000 -0.007432 -0.008049 1.000000 -0.005984 -0.007792 1.000000 -0.005080 -0.007600 1.000000 -0.003672 -0.007185 1.000000 -0.002860 -0.006763 1.000000 -0.001555 -0.006174 1.000000 -0.000890 -0.005507 1.000000 0.000240 -0.004726 1.000000 0.000695 -0.003804 1.000000 0.001569 -0.002822 1.000000 0.001743 -0.001645 1.000000 0.002275 -0.000463 1.000000 0.002090 0.000953 1.000000 0.002189 0.002318 1.000000 0.001566 0.003935 1.000000 0.001146 0.005441 1.000000 0.000011 0.007194 1.000000 -0.001001 0.008767 1.000000 -0.002707 0.010554 1.000000 -0.004357 0.012084 1.000000 -0.006660 0.013766 1.000000 -0.008949 0.015106 1.000000 -0.011824 0.016507 1.000000 -0.014691 0.017475 1.000000 -0.018042 0.018396 1.000000 -0.021344 0.018796 1.000000 -0.024994 0.019037 1.000000 -0.028496 0.018680 1.000000 -0.032179 0.018072 1.000000 -0.035562 0.016822 1.000000 -0.038937 0.015269 1.000000 -0.041829 0.013072 1.000000 -0.044519 0.010582 1.000000 -0.046541 0.007501 1.000000 -0.048187 0.004206 1.000000 -0.049014 0.000420 1.000000 -0.049337 -0.003441 1.000000 -0.048757 -0.007658 1.000000 -0.047596 -0.011779 1.000000 -0.045532 -0.016103 1.000000 -0.042861 -0.020156 1.000000 -0.039359 -0.024249 1.000000 -0.035264 -0.027915 1.000000 -0.030463 -0.031445 1.000000 -0.025115 -0.034411 1.000000 -0.019215 -0.037032 1.000000 -0.012867 -0.038961 1.000000 -0.006151 -0.040287 1.000000 0.000820 -0.040799 1.000000 0.007922 -0.040419 1.000000 0.014931 -0.039140 1.000000 0.021753 -0.036729 1.000000 0.027960 -0.033464 1.000000 0.033593 -0.029018 1.000000 0.038006 -0.024021 1.000000 0.041500 -0.018123 1.000000 0.043317 -0.012279 1.000000 0.044116 -0.006148 1.000000 0.043188 -0.000794 1.000000 0.041545 0.004098 1.000000 0.038561 0.007793 1.000000 0.035496 0.010384 1.000000 0.031569 0.011935 1.000000 0.028325 0.011880 1.000000 0.024590 0.011335 1.000000 0.022275 0.008967 1.000000 0.019982 0.007138 1.000000 0.018791 0.003908 1.000000 0.018132 0.002232 1.000000 0.017874 -0.000263 1.000000 0.018494 -0.000836 1.000000 0.018443 -0.001487 1.000000 0.019558 -0.000514 1.000000 0.019446 0.000486 1.000000 0.020881 0.002547 1.000000 0.020719 0.005397 1.000000 0.021687 0.008442 1.000000 0.020901 0.012995 1.000000 0.018609 0.015568 1.000000 0.016840 0.016559 1.000000 0.015341 0.017213 1.000000 0.013743 0.017003 1.000000 0.012619 0.017202 1.000000 0.010722 0.016946 1.000000 0.009407 0.016968 1.000000 0.007162 0.016697 1.000000 0.005637 0.016479 1.000000 0.003242 0.016104 1.000000 0.001652 0.015646 1.000000 -0.000714 0.015161 1.000000 -0.002247 0.014521 1.000000 -0.004477 0.013963 1.000000 -0.005887 0.013205 1.000000 -0.007932 0.012612 1.000000 -0.009189 0.011781 1.000000 -0.011030 0.011181 1.000000 -0.012122 0.010302 1.000000 -0.013749 0.009707 1.000000 -0.014675 0.008792 1.000000 -0.016082 0.008206 1.000000 -0.016839 0.007259 1.000000 -0.018020 0.006683 1.000000 