# vtk DataFile Version 2.0
Comment goes here
ASCII

DATASET STRUCTURED_POINTS
DIMENSIONS    128   128   1

ORIGIN    0.000   0.000   0.000
SPACING   0.0156250.015625   1.000

POINT_DATA   16384
VECTORS u double

-0.123608 0.000039 1.000000 -0.135793 0.000034 1.000000 -0.139778 0.000041 1.000000 -0.149922 0.000036 1.000000 -0.152518 0.000043 1.000000 -0.160555 0.000037 1.000000 -0.161789 0.000045 1.000000 -0.167688 0.000039 1.000000 -0.167617 0.000046 1.000000 -0.171388 0.000040 1.000000 -0.170101 0.000047 1.000000 -0.171798 0.000041 1.000000 -0.169420 0.000048 1.000000 -0.169142 0.000041 1.000000 -0.165831 0.000049 1.000000 -0.163726 0.000042 1.000000 -0.159669 0.000049 1.000000 -0.155932 0.000042 1.000000 -0.151346 0.000048 1.000000 -0.146217 0.000042 1.000000 -0.141345 0.000048 1.000000 -0.135106 0.000042 1.000000 -0.130210 0.000047 1.000000 -0.123182 0.000042 1.000000 -0.118543 0.000047 1.000000 -0.111077 0.000042 1.000000 -0.106990 0.000047 1.000000 -0.099465 0.000042 1.000000 -0.096236 0.000047 1.000000 -0.089050 0.000043 1.000000 -0.086989 0.000047 1.000000 -0.080554 0.000045 1.000000 -0.079967 0.000048 1.000000 -0.074692 0.000047 1.000000 -0.075876 0.000050 1.000000 -0.072155 0.000050 1.000000 -0.075376 0.000052 1.000000 -0.073568 0.000054 1.000000 -0.079047 0.000055 1.000000 -0.079448 0.000058 1.000000 -0.087331 0.000059 1.000000 -0.090149 0.000062 1.000000 -0.100480 0.000063 1.000000 -0.105793 0.000067 1.000000 -0.118480 0.000067 1.000000 -0.126210 0.000072 1.000000 -0.140993 0.000070 1.000000 -0.150872 0.000076 1.000000 -0.167304 0.000073 1.000000 -0.178854 0.000078 1.000000 -0.196285 0.000074 1.000000 -0.208821 0.000079 1.000000 -0.226417 0.000073 1.000000 -0.239064 0.000078 1.000000 -0.255839 0.000069 1.000000 -0.267582 0.000073 1.000000 -0.282464 0.000062 1.000000 -0.292219 0.000064 1.000000 -0.304132 0.000051 1.000000 -0.310828 0.000051 1.000000 -0.318786 0.000035 1.000000 -0.321453 0.000034 1.000000 -0.324634 0.000014 1.000000 -0.322476 0.000011 1.000000 -0.320294 -0.000011 1.000000 -0.312739 -0.000016 1.000000 -0.304880 -0.000041 1.000000 -0.291620 -0.000048 1.000000 -0.278075 -0.000074 1.000000 -0.259097 -0.000082 1.000000 -0.240192 -0.000109 1.000000 -0.215824 -0.000118 1.000000 -0.192263 -0.000145 1.000000 -0.163234 -0.000152 1.000000 -0.136149 -0.000177 1.000000 -0.103653 -0.000182 1.000000 -0.074638 -0.000203 1.000000 -0.040350 -0.000204 1.000000 -0.011396 -0.000220 1.000000 0.022616 -0.000215 1.000000 0.049318 -0.000225 1.000000 0.080846 -0.000214 1.000000 0.103273 -0.000216 1.000000 0.130356 -0.000200 1.000000 0.147108 -0.000195 1.000000 0.168456 -0.000174 1.000000 0.179143 -0.000164 1.000000 0.194428 -0.000142 1.000000 0.199817 -0.000129 1.000000 0.209711 -0.000107 1.000000 0.211513 -0.000093 1.000000 0.217398 -0.000074 1.000000 0.217683 -0.000062 1.000000 0.221016 -0.000047 1.000000 0.221411 -0.000038 1.000000 0.223046 -0.000028 1.000000 0.224230 -0.000020 1.000000 0.224201 -0.000014 1.000000 0.225930 -0.000009 1.000000 0.223599 -0.000007 1.000000 0.224977 -0.000002 1.000000 0.219452 -0.000002 1.000000 0.219287 0.000001 1.000000 0.209835 0.000001 1.000000 0.207121 0.000004 1.000000 0.193575 0.000004 1.000000 0.188004 0.000007 1.000000 0.170953 0.000006 1.000000 0.162896 0.000010 1.000000 0.143318 0.000009 1.000000 0.133454 0.000013 1.000000 0.112343 0.000012 1.000000 0.101386 0.000016 1.000000 0.079595 0.000015 1.000000 0.068174 0.000019 1.000000 0.046384 0.000017 1.000000 0.035018 0.000022 1.000000 0.013755 0.000020 1.000000 0.002851 0.000025 1.000000 -0.017483 0.000023 1.000000 -0.027616 0.000028 1.000000 -0.046713 0.000025 1.000000 -0.055850 0.000031 1.000000 -0.073471 0.000028 1.000000 -0.081450 0.000034 1.000000 -0.097403 0.000030 1.000000 -0.104111 0.000036 1.000000 -0.118242 0.000032 1.000000 
-0.111725 0.008810 1.000000 -0.123061 0.008114 1.000000 -0.127390 0.007101 1.000000 -0.136885 0.006401 1.000000 -0.139782 0.005355 1.000000 -0.147382 0.004668 1.000000 -0.148866 0.003606 1.000000 -0.154548 0.002947 1.000000 -0.154674 0.001891 1.000000 -0.158450 0.001277 1.000000 -0.157307 0.000247 1.000000 -0.159229 -0.000305 1.000000 -0.156938 -0.001285 1.000000 -0.157101 -0.001759 1.000000 -0.153821 -0.002665 1.000000 -0.152360 -0.003045 1.000000 -0.148281 -0.003854 1.000000 -0.145379 -0.004126 1.000000 -0.140720 -0.004815 1.000000 -0.136599 -0.004965 1.000000 -0.131605 -0.005513 1.000000 -0.126529 -0.005532 1.000000 -0.121468 -0.005921 1.000000 -0.115734 -0.005798 1.000000 -0.110892 -0.006011 1.000000 -0.104829 -0.005741 1.000000 -0.100507 -0.005765 1.000000 -0.094471 -0.005341 1.000000 -0.090980 -0.005166 1.000000 -0.085348 -0.004586 1.000000 -0.083002 -0.004206 1.000000 -0.078163 -0.003471 1.000000 -0.077277 -0.002888 1.000000 -0.073619 -0.002004 1.000000 -0.074493 -0.001223 1.000000 -0.072393 -0.000205 1.000000 -0.075299 0.000755 1.000000 -0.075096 0.001884 1.000000 -0.080259 0.002992 1.000000 -0.082234 0.004196 1.000000 -0.089804 0.005406 1.000000 -0.094147 0.006633 1.000000 -0.104171 0.007882 1.000000 -0.110947 0.009064 1.000000 -0.123334 0.010272 1.000000 -0.132450 0.011326 1.000000 -0.146942 0.012399 1.000000 -0.158114 0.013228 1.000000 -0.174264 0.014062 1.000000 -0.187002 0.014567 1.000000 -0.204158 0.015056 1.000000 -0.217763 0.015144 1.000000 -0.235091 0.015193 1.000000 -0.248678 0.014787 1.000000 -0.265190 0.014327 1.000000 -0.277739 0.013385 1.000000 -0.292365 0.012380 1.000000 -0.302792 0.010898 1.000000 -0.314461 0.009356 1.000000 -0.321709 0.007378 1.000000 -0.329441 0.005348 1.000000 -0.332559 0.002958 1.000000 -0.335549 0.000526 1.000000 -0.333767 -0.002159 1.000000 -0.331445 -0.004879 1.000000 -0.324216 -0.007722 1.000000 -0.316280 -0.010599 1.000000 -0.303312 -0.013449 1.000000 -0.289753 -0.016334 1.000000 -0.271024 -0.019022 1.000000 -0.252151 -0.021745 1.000000 -0.227956 -0.024081 1.000000 -0.204434 -0.026438 1.000000 -0.175450 -0.028207 1.000000 -0.148361 -0.029966 1.000000 -0.115727 -0.030936 1.000000 -0.086606 -0.031853 1.000000 -0.051964 -0.031823 1.000000 -0.022760 -0.031701 1.000000 0.011808 -0.030571 1.000000 0.038923 -0.029338 1.000000 0.071134 -0.027189 1.000000 0.094129 -0.024969 1.000000 0.121908 -0.022115 1.000000 0.139334 -0.019243 1.000000 0.161282 -0.016190 1.000000 0.172649 -0.013149 1.000000 0.188395 -0.010477 1.000000 0.194317 -0.007769 1.000000 0.204583 -0.005953 1.000000 0.206626 -0.003935 1.000000 0.212898 -0.003158 1.000000 0.213095 -0.001869 1.000000 0.216921 -0.001910 1.000000 0.216987 -0.001052 1.000000 0.219308 -0.001436 1.000000 0.220066 -0.000596 1.000000 0.220937 -0.000864 1.000000 0.222233 0.000293 1.000000 0.221029 0.000471 1.000000 0.221995 0.002072 1.000000 0.217811 0.002843 1.000000 0.217233 0.004810 1.000000 0.209285 0.006084 1.000000 0.206121 0.008134 1.000000 0.194170 0.009562 1.000000 0.188117 0.011317 1.000000 0.172730 0.012559 1.000000 0.164187 0.013827 1.000000 0.146325 0.014729 1.000000 0.135978 0.015499 1.000000 0.116608 0.016045 1.000000 0.105169 0.016389 1.000000 0.085115 0.016619 1.000000 0.073212 0.016623 1.000000 0.053127 0.016593 1.000000 0.041279 0.016334 1.000000 0.021666 0.016101 1.000000 0.010283 0.015641 1.000000 -0.008478 0.015254 1.000000 -0.019085 0.014641 1.000000 -0.036711 0.014139 1.000000 -0.046308 0.013407 1.000000 -0.062582 0.012824 1.000000 -0.071002 0.011996 1.000000 -0.085755 0.011357 1.000000 -0.092878 0.010452 1.000000 -0.105976 0.009776 1.000000 
-0.125420 0.017124 1.000000 -0.137590 0.015700 1.000000 -0.141525 0.013865 1.000000 -0.151656 0.012428 1.000000 -0.154205 0.010539 1.000000 -0.162227 0.009122 1.000000 -0.163410 0.007211 1.000000 -0.169288 0.005847 1.000000 -0.169160 0.003949 1.000000 -0.172899 0.002672 1.000000 -0.171550 0.000826 1.000000 -0.173201 -0.000328 1.000000 -0.170753 -0.002080 1.000000 -0.170413 -0.003076 1.000000 -0.167024 -0.004692 1.000000 -0.164840 -0.005498 1.000000 -0.160697 -0.006933 1.000000 -0.156865 -0.007520 1.000000 -0.152186 -0.008731 1.000000 -0.146946 -0.009073 1.000000 -0.141973 -0.010022 1.000000 -0.135607 -0.010096 1.000000 -0.130603 -0.010748 1.000000 -0.123432 -0.010535 1.000000 -0.118678 -0.010858 1.000000 -0.111054 -0.010343 1.000000 -0.106844 -0.010311 1.000000 -0.099146 -0.009485 1.000000 -0.095785 -0.009077 1.000000 -0.088413 -0.007934 1.000000 -0.086209 -0.007138 1.000000 -0.079576 -0.005681 1.000000 -0.078839 -0.004495 1.000000 -0.073355 -0.002737 1.000000 -0.074382 -0.001177 1.000000 -0.070447 0.000855 1.000000 -0.073510 0.002756 1.000000 -0.071490 0.005013 1.000000 -0.076816 0.007193 1.000000 -0.077018 0.009603 1.000000 -0.084762 0.011972 1.000000 -0.087404 0.014429 1.000000 -0.097623 0.016863 1.000000 -0.102798 0.019231 1.000000 -0.115413 0.021569 1.000000 -0.123056 0.023680 1.000000 -0.137819 0.025735 1.000000 -0.147674 0.027397 1.000000 -0.164147 0.028960 1.000000 -0.175744 0.029973 1.000000 -0.193281 0.030835 1.000000 -0.205935 0.031012 1.000000 -0.223698 0.030987 1.000000 -0.236528 0.030177 1.000000 -0.253518 0.029130 1.000000 -0.265495 0.027247 1.000000 -0.280623 0.025115 1.000000 -0.290646 0.022161 1.000000 -0.302817 0.018967 1.000000 -0.309799 0.015031 1.000000 -0.318010 0.010885 1.000000 -0.320971 0.006142 1.000000 -0.324395 0.001223 1.000000 -0.322534 -0.004094 1.000000 -0.320583 -0.009562 1.000000 -0.313328 -0.015181 1.000000 -0.305692 -0.020946 1.000000 -0.292732 -0.026575 1.000000 -0.279395 -0.032362 1.000000 -0.260702 -0.037685 1.000000 -0.241972 -0.043177 1.000000 -0.217842 -0.047835 1.000000 -0.194388 -0.052650 1.000000 -0.165503 -0.056225 1.000000 -0.138422 -0.059901 1.000000 -0.105933 -0.061937 1.000000 -0.076799 -0.063966 1.000000 -0.042370 -0.064049 1.000000 -0.013208 -0.063991 1.000000 0.021047 -0.061899 1.000000 0.047948 -0.059551 1.000000 0.079715 -0.055420 1.000000 0.102190 -0.050990 1.000000 0.129375 -0.045405 1.000000 0.145897 -0.039569 1.000000 0.167111 -0.033490 1.000000 0.177241 -0.027278 1.000000 0.192132 -0.021810 1.000000 0.196703 -0.016316 1.000000 0.206018 -0.012415 1.000000 0.206933 -0.008408 1.000000 0.212243 -0.006543 1.000000 0.211834 -0.004085 1.000000 0.214801 -0.003940 1.000000 0.214841 -0.002425 1.000000 0.216368 -0.003107 1.000000 0.217506 -0.001649 1.000000 0.217577 -0.002182 1.000000 0.219510 -0.000102 1.000000 0.217389 0.000232 1.000000 0.219167 0.003215 1.000000 0.213890 0.004759 1.000000 0.214216 0.008527 1.000000 0.204963 0.011113 1.000000 0.202652 0.015120 1.000000 0.189182 0.018007 1.000000 0.183892 0.021446 1.000000 0.166886 0.023936 1.000000 0.159056 0.026416 1.000000 0.139555 0.028218 1.000000 0.129898 0.029729 1.000000 0.108898 0.030821 1.000000 0.098126 0.031509 1.000000 0.076460 0.031972 1.000000 0.065203 0.032007 1.000000 0.043535 0.031950 1.000000 0.032312 0.031483 1.000000 0.011158 0.031016 1.000000 0.000378 0.030170 1.000000 -0.019864 0.029391 1.000000 -0.029893 0.028261 1.000000 -0.048916 0.027249 1.000000 -0.057966 0.025902 1.000000 -0.075532 0.024721 1.000000 -0.083438 0.023207 1.000000 -0.099354 0.021906 1.000000 -0.106000 0.020258 1.000000 -0.120108 0.018878 1.000000 
-0.115193 0.026292 1.000000 -0.126485 0.024220 1.000000 -0.130720 0.021167 1.000000 -0.140180 0.019081 1.000000 -0.142984 0.015925 1.000000 -0.150547 0.013873 1.000000 -0.151934 0.010667 1.000000 -0.157570 0.008698 1.000000 -0.157587 0.005503 1.000000 -0.161300 0.003667 1.000000 -0.160033 0.000548 1.000000 -0.161869 -0.001103 1.000000 -0.159438 -0.004073 1.000000 -0.159487 -0.005489 1.000000 -0.156050 -0.008238 1.000000 -0.154448 -0.009372 1.000000 -0.150194 -0.011829 1.000000 -0.147121 -0.012637 1.000000 -0.142271 -0.014734 1.000000 -0.137949 -0.015178 1.000000 -0.132750 -0.016852 1.000000 -0.127442 -0.016901 1.000000 -0.122162 -0.018096 1.000000 -0.116165 -0.017723 1.000000 -0.111089 -0.018390 1.000000 -0.104734 -0.017575 1.000000 -0.100161 -0.017673 1.000000 -0.093804 -0.016400 1.000000 -0.090043 -0.015899 1.000000 -0.084062 -0.014161 1.000000 -0.081429 -0.013044 1.000000 -0.076214 -0.010842 1.000000 -0.075024 -0.009108 1.000000 -0.070970 -0.006461 1.000000 -0.071528 -0.004131 1.000000 -0.069020 -0.001077 1.000000 -0.071606 0.001798 1.000000 -0.070998 0.005190 1.000000 -0.075852 0.008519 1.000000 -0.077445 0.012143 1.000000 -0.084736 0.015792 1.000000 -0.088742 0.019494 1.000000 -0.098541 0.023276 1.000000 -0.105055 0.026854 1.000000 -0.117297 0.030530 1.000000 -0.126250 0.033733 1.000000 -0.140702 0.037017 1.000000 -0.151836 0.039556 1.000000 -0.168067 0.042132 1.000000 -0.180904 0.043702 1.000000 -0.198271 0.045248 1.000000 -0.212114 0.045560 1.000000 -0.229770 0.045785 1.000000 -0.243720 0.044607 1.000000 -0.260653 0.043295 1.000000 -0.273659 0.040490 1.000000 -0.288763 0.037530 1.000000 -0.299705 0.033092 1.000000 -0.311869 0.028509 1.000000 -0.319658 0.022571 1.000000 -0.327874 0.016519 1.000000 -0.331540 0.009343 1.000000 -0.334991 0.002089 1.000000 -0.333766 -0.005971 1.000000 -0.331886 -0.014084 1.000000 -0.325234 -0.022613 1.000000 -0.317734 -0.031195 1.000000 -0.305365 -0.039745 1.000000 -0.292235 -0.048363 1.000000 -0.274104 -0.056445 1.000000 -0.255616 -0.064605 1.000000 -0.231949 -0.071666 1.000000 -0.208699 -0.078777 1.000000 -0.180066 -0.084173 1.000000 -0.153050 -0.089536 1.000000 -0.120480 -0.092559 1.000000 -0.091188 -0.095416 1.000000 -0.056274 -0.095413 1.000000 -0.026708 -0.095118 1.000000 0.008387 -0.091727 1.000000 0.035875 -0.088005 1.000000 0.068644 -0.081431 1.000000 0.091753 -0.074630 1.000000 0.119819 -0.065822 1.000000 0.136866 -0.056979 1.000000 0.158580 -0.047535 1.000000 0.168985 -0.038169 1.000000 0.183904 -0.029939 1.000000 0.188358 -0.021655 1.000000 0.197388 -0.016183 1.000000 0.197729 -0.010161 1.000000 0.202792 -0.008059 1.000000 0.201542 -0.004427 1.000000 0.204570 -0.004917 1.000000 0.203789 -0.002619 1.000000 0.205861 -0.004102 1.000000 0.206422 -0.001806 1.000000 0.207454 -0.002867 1.000000 0.209101 0.000481 1.000000 0.208293 0.000814 1.000000 0.210046 0.005571 1.000000 0.206383 0.007795 1.000000 0.206805 0.013738 1.000000 0.199322 0.017647 1.000000 0.196968 0.023914 1.000000 0.185214 0.028322 1.000000 0.179730 0.033614 1.000000 0.164481 0.037395 1.000000 0.156411 0.041157 1.000000 0.138751 0.043887 1.000000 0.128834 0.046156 1.000000 0.109722 0.047816 1.000000 0.098664 0.048826 1.000000 0.078887 0.049542 1.000000 0.067314 0.049548 1.000000 0.047497 0.049485 1.000000 0.035932 0.048711 1.000000 0.016562 0.048035 1.000000 0.005420 0.046664 1.000000 -0.013134 0.045524 1.000000 -0.023537 0.043693 1.000000 -0.040995 0.042212 1.000000 -0.050423 0.040022 1.000000 -0.066568 0.038295 1.000000 -0.074847 0.035818 1.000000 -0.089507 0.033919 1.000000 -0.096513 0.031207 1.000000 -0.109546 0.029196 1.000000 
-0.130806 0.034063 1.000000 -0.142937 0.031227 1.000000 -0.146728 0.027560 1.000000 -0.156829 0.024691 1.000000 -0.159234 0.020907 1.000000 -0.167219 0.018072 1.000000 -0.168252 0.014234 1.000000 -0.174070 0.011500 1.000000 -0.173777 0.007679 1.000000 -0.177423 0.005118 1.000000 -0.175888 0.001395 1.000000 -0.177404 -0.000922 1.000000 -0.174747 -0.004462 1.000000 -0.174224 -0.006464 1.000000 -0.170602 -0.009731 1.000000 -0.168186 -0.011354 1.000000 -0.163788 -0.014260 1.000000 -0.159673 -0.015442 1.000000 -0.154717 -0.017903 1.000000 -0.149145 -0.018594 1.000000 -0.143874 -0.020530 1.000000 -0.137130 -0.020684 1.000000 -0.131807 -0.022025 1.000000 -0.124212 -0.021608 1.000000 -0.119118 -0.022289 1.000000 -0.111024 -0.021271 1.000000 -0.106450 -0.021241 1.000000 -0.098239 -0.019602 1.000000 -0.094487 -0.018819 1.000000 -0.086560 -0.016548 1.000000 -0.083937 -0.014985 1.000000 -0.076710 -0.012086 1.000000 -0.075526 -0.009739 1.000000 -0.069418 -0.006233 1.000000 -0.069977 -0.003127 1.000000 -0.065401 0.000934 1.000000 -0.067987 0.004734 1.000000 -0.065329 0.009259 1.000000 -0.070189 0.013640 1.000000 -0.069784 0.018487 1.000000 -0.077104 0.023270 1.000000 -0.079205 0.028235 1.000000 -0.089077 0.033175 1.000000 -0.093819 0.037986 1.000000 -0.106203 0.042765 1.000000 -0.113565 0.047085 1.000000 -0.128253 0.051321 1.000000 -0.138013 0.054761 1.000000 -0.154595 0.058028 1.000000 -0.166310 0.060178 1.000000 -0.184151 0.062045 1.000000 -0.197140 0.062511 1.000000 -0.215388 0.062593 1.000000 -0.228749 0.061060 1.000000 -0.246370 0.059069 1.000000 -0.259031 0.055357 1.000000 -0.274879 0.051162 1.000000 -0.285684 0.045267 1.000000 -0.298603 0.038919 1.000000 -0.306415 0.031035 1.000000 -0.315357 0.022768 1.000000 -0.319162 0.013259 1.000000 -0.323279 0.003448 1.000000 -0.322271 -0.007199 1.000000 -0.320981 -0.018093 1.000000 -0.314597 -0.029332 1.000000 -0.307605 -0.040814 1.000000 -0.295535 -0.052074 1.000000 -0.282821 -0.063623 1.000000 -0.265001 -0.074304 1.000000 -0.246822 -0.085332 1.000000 -0.223454 -0.094752 1.000000 -0.200376 -0.104533 1.000000 -0.171997 -0.111874 1.000000 -0.144991 -0.119487 1.000000 -0.112602 -0.123799 1.000000 -0.083166 -0.128172 1.000000 -0.048371 -0.128529 1.000000 -0.018609 -0.128653 1.000000 0.016353 -0.124481 1.000000 0.043860 -0.119808 1.000000 0.076344 -0.111298 1.000000 0.098975 -0.102164 1.000000 0.126469 -0.090518 1.000000 0.142280 -0.078330 1.000000 0.163080 -0.065608 1.000000 0.171475 -0.052601 1.000000 0.185153 -0.041182 1.000000 0.187171 -0.029801 1.000000 0.194679 -0.021786 1.000000 0.192816 -0.013812 1.000000 0.196334 -0.010357 1.000000 0.193813 -0.005863 1.000000 0.195704 -0.006186 1.000000 0.194731 -0.003716 1.000000 0.195943 -0.005740 1.000000 0.196932 -0.003242 1.000000 0.197292 -0.004860 1.000000 0.199760 -0.000941 1.000000 0.198198 -0.000713 1.000000 0.201144 0.005126 1.000000 0.196577 0.008001 1.000000 0.198471 0.015588 1.000000 0.189869 0.020950 1.000000 0.188853 0.029228 1.000000 0.175625 0.035245 1.000000 0.171244 0.042179 1.000000 0.154436 0.047255 1.000000 0.147367 0.052146 1.000000 0.128178 0.055795 1.000000 0.119195 0.058758 1.000000 0.098581 0.060990 1.000000 0.088393 0.062344 1.000000 0.067126 0.063322 1.000000 0.056368 0.063396 1.000000 0.035076 0.063332 1.000000 0.024280 0.062418 1.000000 0.003460 0.061528 1.000000 -0.006955 0.059867 1.000000 -0.026920 0.058348 1.000000 -0.036638 0.056121 1.000000 -0.055446 0.054134 1.000000 -0.064234 0.051475 1.000000 -0.081644 0.049146 1.000000 -0.089332 0.046146 1.000000 -0.105144 0.043572 1.000000 -0.111608 0.040298 1.000000 -0.125652 0.037559 1.000000 
-0.122026 0.043577 1.000000 -0.133240 0.040141 1.000000 -0.137296 0.035058 1.000000 -0.146696 0.031587 1.000000 -0.149322 0.026315 1.000000 -0.156824 0.022890 1.000000 -0.158019 0.017519 1.000000 -0.163573 0.014223 1.000000 -0.163376 0.008856 1.000000 -0.166972 0.005777 1.000000 -0.165460 0.000529 1.000000 -0.167132 -0.002244 1.000000 -0.164423 -0.007252 1.000000 -0.164253 -0.009634 1.000000 -0.160504 -0.014277 1.000000 -0.158624 -0.016186 1.000000 -0.154027 -0.020342 1.000000 -0.150615 -0.021708 1.000000 -0.145392 -0.025261 1.000000 -0.140672 -0.026021 1.000000 -0.135071 -0.028867 1.000000 -0.129306 -0.028968 1.000000 -0.123596 -0.031014 1.000000 -0.117084 -0.030413 1.000000 -0.111549 -0.031577 1.000000 -0.104620 -0.030242 1.000000 -0.099556 -0.030458 1.000000 -0.092566 -0.028363 1.000000 -0.088279 -0.027579 1.000000 -0.081606 -0.024711 1.000000 -0.078410 -0.022894 1.000000 -0.072449 -0.019253 1.000000 -0.070658 -0.016399 1.000000 -0.065814 -0.012010 1.000000 -0.065742 -0.008148 1.000000 -0.062415 -0.003067 1.000000 -0.064359 0.001725 1.000000 -0.062931 0.007392 1.000000 -0.067156 0.012974 1.000000 -0.067965 0.019058 1.000000 -0.074680 0.025213 1.000000 -0.077988 0.031467 1.000000 -0.087311 0.037890 1.000000 -0.093266 0.043981 1.000000 -0.105186 0.050275 1.000000 -0.113778 0.055782 1.000000 -0.128114 0.061466 1.000000 -0.139132 0.065898 1.000000 -0.155491 0.070428 1.000000 -0.168492 0.073258 1.000000 -0.186246 0.076077 1.000000 -0.200534 0.076797 1.000000 -0.218818 0.077394 1.000000 -0.233462 0.075588 1.000000 -0.251212 0.073577 1.000000 -0.265098 0.068999 1.000000 -0.281126 0.064183 1.000000 -0.293057 0.056817 1.000000 -0.306167 0.049240 1.000000 -0.314981 0.039325 1.000000 -0.324102 0.029267 1.000000 -0.328796 0.017265 1.000000 -0.333092 0.005197 1.000000 -0.332905 -0.008268 1.000000 -0.331837 -0.021758 1.000000 -0.326278 -0.035990 1.000000 -0.319602 -0.050258 1.000000 -0.308411 -0.064529 1.000000 -0.296135 -0.078897 1.000000 -0.279242 -0.092444 1.000000 -0.261583 -0.106152 1.000000 -0.239087 -0.118111 1.000000 -0.216495 -0.130234 1.000000 -0.188734 -0.139558 1.000000 -0.162006 -0.148931 1.000000 -0.129742 -0.154384 1.000000 -0.100222 -0.159647 1.000000 -0.064893 -0.159970 1.000000 -0.034650 -0.159843 1.000000 0.001467 -0.154196 1.000000 0.029705 -0.147996 1.000000 0.063637 -0.136547 1.000000 0.086977 -0.124755 1.000000 0.115671 -0.109127 1.000000 0.131917 -0.093590 1.000000 0.153160 -0.076730 1.000000 0.161573 -0.060242 1.000000 0.174749 -0.045635 1.000000 0.176185 -0.031180 1.000000 0.182573 -0.021828 1.000000 0.179328 -0.011816 1.000000 0.181890 -0.009055 1.000000 0.177649 -0.003797 1.000000 0.179082 -0.005835 1.000000 0.176587 -0.002857 1.000000 0.178222 -0.006303 1.000000 0.178325 -0.003155 1.000000 0.179621 -0.005696 1.000000 0.181804 -0.000426 1.000000 0.181608 -0.000570 1.000000 0.184868 0.007192 1.000000 0.182157 0.010468 1.000000 0.184795 0.020446 1.000000 0.178405 0.027265 1.000000 0.177839 0.038158 1.000000 0.166518 0.045931 1.000000 0.162322 0.054803 1.000000 0.147503 0.061272 1.000000 0.140553 0.067415 1.000000 0.123465 0.072059 1.000000 0.114516 0.075754 1.000000 0.096025 0.078618 1.000000 0.085772 0.080281 1.000000 0.066597 0.081567 1.000000 0.055691 0.081598 1.000000 0.036429 0.081572 1.000000 0.025424 0.080327 1.000000 0.006545 0.079271 1.000000 -0.004124 0.077043 1.000000 -0.022264 0.075207 1.000000 -0.032268 0.072219 1.000000 -0.049395 0.069808 1.000000 -0.058492 0.066221 1.000000 -0.074388 0.063393 1.000000 -0.082395 0.059318 1.000000 -0.096879 0.056195 1.000000 -0.103659 0.051715 1.000000 -0.116574 0.048393 1.000000 
-0.139611 0.050728 1.000000 -0.151698 0.046497 1.000000 -0.155260 0.041016 1.000000 -0.165331 0.036717 1.000000 -0.167510 0.031035 1.000000 -0.175450 0.026769 1.000000 -0.176242 0.020983 1.000000 -0.181977 0.016857 1.000000 -0.181416 0.011078 1.000000 -0.184920 0.007202 1.000000 -0.183082 0.001555 1.000000 -0.184383 -0.001959 1.000000 -0.181384 -0.007340 1.000000 -0.180566 -0.010383 1.000000 -0.176562 -0.015360 1.000000 -0.173767 -0.017831 1.000000 -0.168950 -0.022269 1.000000 -0.164373 -0.024077 1.000000 -0.158964 -0.027846 1.000000 -0.152850 -0.028914 1.000000 -0.147094 -0.031896 1.000000 -0.139730 -0.032160 1.000000 -0.133892 -0.034247 1.000000 -0.125603 -0.033655 1.000000 -0.119959 -0.034753 1.000000 -0.111098 -0.033264 1.000000 -0.105937 -0.033295 1.000000 -0.096886 -0.030879 1.000000 -0.092502 -0.029778 1.000000 -0.083663 -0.026418 1.000000 -0.080360 -0.024143 1.000000 -0.072153 -0.019837 1.000000 -0.070239 -0.016374 1.000000 -0.063094 -0.011150 1.000000 -0.062879 -0.006527 1.000000 -0.057229 -0.000449 1.000000 -0.059015 0.005250 1.000000 -0.055276 0.012057 1.000000 -0.059344 0.018674 1.000000 -0.057896 0.026011 1.000000 -0.064478 0.033293 1.000000 -0.065635 0.040866 1.000000 -0.074883 0.048453 1.000000 -0.078851 0.055861 1.000000 -0.090795 0.063277 1.000000 -0.097624 0.070013 1.000000 -0.112126 0.076675 1.000000 -0.121664 0.082139 1.000000 -0.138365 0.087388 1.000000 -0.150213 0.090932 1.000000 -0.168506 0.094087 1.000000 -0.181993 0.095084 1.000000 -0.201005 0.095521 1.000000 -0.215196 0.093453 1.000000 -0.233825 0.090706 1.000000 -0.247571 0.085271 1.000000 -0.264568 0.079120 1.000000 -0.276610 0.070308 1.000000 -0.290707 0.060843 1.000000 -0.299813 0.048970 1.000000 -0.309875 0.036583 1.000000 -0.314980 0.022249 1.000000 -0.320134 0.007558 1.000000 -0.320431 -0.008453 1.000000 -0.320128 -0.024721 1.000000 -0.315101 -0.041568 1.000000 -0.309104 -0.058680 1.000000 -0.298481 -0.075541 1.000000 -0.286798 -0.092792 1.000000 -0.270491 -0.108855 1.000000 -0.253321 -0.125487 1.000000 -0.231392 -0.139840 1.000000 -0.209125 -0.154886 1.000000 -0.181846 -0.166363 1.000000 -0.155194 -0.178479 1.000000 -0.123249 -0.185583 1.000000 -0.093499 -0.193021 1.000000 -0.058298 -0.194102 1.000000 -0.027606 -0.195012 1.000000 0.008464 -0.188836 1.000000 0.037028 -0.181979 1.000000 0.070731 -0.168570 1.000000 0.093681 -0.154198 1.000000 0.121695 -0.135458 1.000000 0.136249 -0.115819 1.000000 0.156310 -0.095264 1.000000 0.161590 -0.074191 1.000000 0.173183 -0.055795 1.000000 0.170619 -0.037624 1.000000 0.174922 -0.024930 1.000000 0.168021 -0.013130 1.000000 0.168344 -0.008678 1.000000 0.162274 -0.003055 1.000000 0.162572 -0.005124 1.000000 0.160197 -0.002856 1.000000 0.160903 -0.007478 1.000000 0.161532 -0.004641 1.000000 0.162321 -0.008339 1.000000 0.165274 -0.002928 1.000000 0.164272 -0.003778 1.000000 0.168907 0.004577 1.000000 0.165268 0.008075 1.000000 0.170133 0.019340 1.000000 0.162871 0.027906 1.000000 0.164372 0.041115 1.000000 0.151650 0.050762 1.000000 0.149095 0.061195 1.000000 0.132948 0.069025 1.000000 0.127453 0.076184 1.000000 0.109084 0.081832 1.000000 0.101387 0.086197 1.000000 0.081578 0.089734 1.000000 0.072411 0.091773 1.000000 0.051877 0.093404 1.000000 0.041951 0.093565 1.000000 0.021311 0.093599 1.000000 0.011214 0.092302 1.000000 -0.009045 0.091076 1.000000 -0.018866 0.088675 1.000000 -0.038370 0.086492 1.000000 -0.047586 0.083253 1.000000 -0.066042 0.080358 1.000000 -0.074411 0.076468 1.000000 -0.091575 0.073049 1.000000 -0.098917 0.068637 1.000000 -0.114573 0.064836 1.000000 -0.120749 0.059994 1.000000 -0.134706 0.055927 1.000000 
-0.132011 0.060569 1.000000 -0.143136 0.055791 1.000000 -0.146945 0.048691 1.000000 -0.156282 0.043837 1.000000 -0.158659 0.036434 1.000000 -0.166094 0.031622 1.000000 -0.167018 0.024046 1.000000 -0.172471 0.019397 1.000000 -0.171966 0.011799 1.000000 -0.175404 0.007443 1.000000 -0.173537 -0.000008 1.000000 -0.174977 -0.003942 1.000000 -0.171862 -0.011069 1.000000 -0.171376 -0.014455 1.000000 -0.167170 -0.021075 1.000000 -0.164886 -0.023799 1.000000 -0.159784 -0.029736 1.000000 -0.155879 -0.031694 1.000000 -0.150109 -0.036785 1.000000 -0.144809 -0.037890 1.000000 -0.138623 -0.041987 1.000000 -0.132191 -0.042170 1.000000 -0.125859 -0.045142 1.000000 -0.118596 -0.044347 1.000000 -0.112399 -0.046082 1.000000 -0.104633 -0.044265 1.000000 -0.098862 -0.044670 1.000000 -0.090946 -0.041798 1.000000 -0.085900 -0.040801 1.000000 -0.078212 -0.036853 1.000000 -0.074197 -0.034404 1.000000 -0.067134 -0.029374 1.000000 -0.064462 -0.025458 1.000000 -0.058439 -0.019369 1.000000 -0.057430 -0.014013 1.000000 -0.052869 -0.006931 1.000000 -0.053841 -0.000228 1.000000 -0.051161 0.007720 1.000000 -0.054417 0.015594 1.000000 -0.054008 0.024192 1.000000 -0.059812 0.032952 1.000000 -0.062009 0.041872 1.000000 -0.070552 0.051106 1.000000 -0.075588 0.059893 1.000000 -0.086944 0.069049 1.000000 -0.094901 0.077113 1.000000 -0.108971 0.085505 1.000000 -0.119720 0.092138 1.000000 -0.136181 0.098978 1.000000 -0.149335 0.103399 1.000000 -0.167589 0.107857 1.000000 -0.182462 0.109296 1.000000 -0.201620 0.110597 1.000000 -0.217232 0.108408 1.000000 -0.236143 0.105952 1.000000 -0.251275 0.099741 1.000000 -0.268614 0.093222 1.000000 -0.281929 0.082956 1.000000 -0.296351 0.072444 1.000000 -0.306562 0.058493 1.000000 -0.316886 0.044433 1.000000 -0.322935 0.027524 1.000000 -0.328305 0.010649 1.000000 -0.329469 -0.008274 1.000000 -0.329420 -0.027088 1.000000 -0.325323 -0.047014 1.000000 -0.319736 -0.066878 1.000000 -0.310236 -0.086835 1.000000 -0.299211 -0.106887 1.000000 -0.284261 -0.125922 1.000000 -0.267980 -0.145252 1.000000 -0.247520 -0.162307 1.000000 -0.226210 -0.179780 1.000000 -0.200200 -0.193490 1.000000 -0.174280 -0.207529 1.000000 -0.142967 -0.216078 1.000000 -0.113428 -0.224597 1.000000 -0.077838 -0.225864 1.000000 -0.046728 -0.226605 1.000000 -0.009181 -0.218829 1.000000 0.020198 -0.210263 1.000000 0.056000 -0.193200 1.000000 0.079675 -0.175719 1.000000 0.109454 -0.151695 1.000000 0.124294 -0.128205 1.000000 0.144801 -0.102071 1.000000 0.150000 -0.077115 1.000000 0.160334 -0.054664 1.000000 0.157170 -0.032920 1.000000 0.159134 -0.019229 1.000000 0.150087 -0.005238 1.000000 0.148926 -0.003309 1.000000 0.140131 0.001976 1.000000 0.139273 -0.003757 1.000000 0.134243 -0.001188 1.000000 0.135473 -0.007637 1.000000 0.134672 -0.004573 1.000000 0.136111 -0.009439 1.000000 0.138423 -0.002377 1.000000 0.138401 -0.004203 1.000000 0.143451 0.006196 1.000000 0.141597 0.009242 1.000000 0.148150 0.022843 1.000000 0.144029 0.033026 1.000000 0.146707 0.049379 1.000000 0.136248 0.061208 1.000000 0.134618 0.073504 1.000000 0.121070 0.082914 1.000000 0.116332 0.091280 1.000000 0.100554 0.098125 1.000000 0.093274 0.103260 1.000000 0.075911 0.107594 1.000000 0.066896 0.109982 1.000000 0.048692 0.112028 1.000000 0.038760 0.112164 1.000000 0.020353 0.112309 1.000000 0.010158 0.110683 1.000000 -0.007979 0.109350 1.000000 -0.017963 0.106368 1.000000 -0.035485 0.103927 1.000000 -0.044916 0.099891 1.000000 -0.061559 0.096634 1.000000 -0.070184 0.091754 1.000000 -0.085727 0.087899 1.000000 -0.093350 0.082316 1.000000 -0.107595 0.078027 1.000000 -0.114060 0.071848 1.000000 -0.126828 0.067256 1.000000 