# vtk DataFile Version 2.0
Comment goes here
ASCII

DATASET STRUCTURED_POINTS
DIMENSIONS    128   128   1

ORIGIN    0.000   0.000   0.000
SPACING   0.0156250.015625   1.000

POINT_DATA   16384
VECTORS u double

-0.116309 0.000033 1.000000 -0.126791 0.000030 1.000000 -0.129797 0.000035 1.000000 -0.138427 0.000031 1.000000 -0.140186 0.000036 1.000000 -0.146903 0.000032 1.000000 -0.147445 0.000036 1.000000 -0.152220 0.000032 1.000000 -0.151603 0.000037 1.000000 -0.154440 0.000032 1.000000 -0.152748 0.000037 1.000000 -0.153690 0.000032 1.000000 -0.151038 0.000037 1.000000 -0.150171 0.000032 1.000000 -0.146700 0.000037 1.000000 -0.144152 0.000032 1.000000 -0.140032 0.000036 1.000000 -0.135974 0.000031 1.000000 -0.131398 0.000036 1.000000 -0.126044 0.000030 1.000000 -0.121228 0.000035 1.000000 -0.114832 0.000030 1.000000 -0.110011 0.000034 1.000000 -0.102863 0.000029 1.000000 -0.098291 0.000033 1.000000 -0.090713 0.000029 1.000000 -0.086658 0.000032 1.000000 -0.079002 0.000029 1.000000 -0.075744 0.000032 1.000000 -0.068382 0.000029 1.000000 -0.066208 0.000032 1.000000 -0.059528 0.000030 1.000000 -0.058723 0.000033 1.000000 -0.053116 0.000032 1.000000 -0.053958 0.000035 1.000000 -0.049803 0.000034 1.000000 -0.052542 0.000037 1.000000 -0.050187 0.000037 1.000000 -0.055031 0.000039 1.000000 -0.054766 0.000041 1.000000 -0.061851 0.000042 1.000000 -0.063880 0.000045 1.000000 -0.073244 0.000045 1.000000 -0.077650 0.000048 1.000000 -0.089199 0.000048 1.000000 -0.095912 0.000052 1.000000 -0.109391 0.000051 1.000000 -0.118157 0.000055 1.000000 -0.133126 0.000052 1.000000 -0.143487 0.000056 1.000000 -0.159315 0.000052 1.000000 -0.170609 0.000056 1.000000 -0.186483 0.000050 1.000000 -0.197863 0.000053 1.000000 -0.212825 0.000046 1.000000 -0.223304 0.000047 1.000000 -0.236317 0.000038 1.000000 -0.244840 0.000038 1.000000 -0.254867 0.000026 1.000000 -0.260399 0.000024 1.000000 -0.266498 0.000010 1.000000 -0.268112 0.000007 1.000000 -0.269529 -0.000009 1.000000 -0.266491 -0.000014 1.000000 -0.262727 -0.000033 1.000000 -0.254559 -0.000039 1.000000 -0.245426 -0.000059 1.000000 -0.231960 -0.000066 1.000000 -0.217614 -0.000087 1.000000 -0.199024 -0.000094 1.000000 -0.179992 -0.000115 1.000000 -0.156830 -0.000121 1.000000 -0.134032 -0.000141 1.000000 -0.107257 -0.000146 1.000000 -0.082016 -0.000163 1.000000 -0.052997 -0.000164 1.000000 -0.027000 -0.000178 1.000000 0.002540 -0.000175 1.000000 0.027366 -0.000184 1.000000 0.055515 -0.000176 1.000000 0.077253 -0.000179 1.000000 0.102192 -0.000167 1.000000 0.119296 -0.000165 1.000000 0.139646 -0.000149 1.000000 0.151305 -0.000142 1.000000 0.166414 -0.000123 1.000000 0.172780 -0.000113 1.000000 0.182839 -0.000095 1.000000 0.185006 -0.000084 1.000000 0.190947 -0.000067 1.000000 0.190658 -0.000057 1.000000 0.193837 -0.000043 1.000000 0.192934 -0.000035 1.000000 0.194590 -0.000025 1.000000 0.194348 -0.000018 1.000000 0.195073 -0.000013 1.000000 0.195835 -0.000008 1.000000 0.195442 -0.000005 1.000000 0.196729 -0.000001 1.000000 0.194450 -0.000000 1.000000 0.195266 0.000003 1.000000 0.190151 0.000003 1.000000 0.189348 0.000006 1.000000 0.180668 0.000005 1.000000 0.177406 0.000008 1.000000 0.165041 0.000008 1.000000 0.159224 0.000011 1.000000 0.143781 0.000010 1.000000 0.135896 0.000013 1.000000 0.118300 0.000013 1.000000 0.109020 0.000016 1.000000 0.090164 0.000015 1.000000 0.080124 0.000018 1.000000 0.060752 0.000017 1.000000 0.050488 0.000021 1.000000 0.031186 0.000019 1.000000 0.021127 0.000023 1.000000 0.002350 0.000021 1.000000 -0.007170 0.000025 1.000000 -0.025075 0.000023 1.000000 -0.033807 0.000027 1.000000 -0.050572 0.000025 1.000000 -0.058334 0.000029 1.000000 -0.073751 0.000026 1.000000 -0.080418 0.000030 1.000000 -0.094317 0.000028 1.000000 -0.099805 0.000032 1.000000 -0.112051 0.000029 1.000000 
-0.105700 0.007400 1.000000 -0.115448 0.006771 1.000000 -0.118737 0.005850 1.000000 -0.126814 0.005222 1.000000 -0.128815 0.004271 1.000000 -0.135171 0.003658 1.000000 -0.135910 0.002691 1.000000 -0.140520 0.002107 1.000000 -0.140052 0.001143 1.000000 -0.142924 0.000601 1.000000 -0.141332 -0.000341 1.000000 -0.142508 -0.000827 1.000000 -0.139905 -0.001726 1.000000 -0.139464 -0.002141 1.000000 -0.135993 -0.002977 1.000000 -0.134053 -0.003307 1.000000 -0.129884 -0.004057 1.000000 -0.126605 -0.004290 1.000000 -0.121934 -0.004934 1.000000 -0.117512 -0.005059 1.000000 -0.112559 -0.005576 1.000000 -0.107230 -0.005583 1.000000 -0.102234 -0.005955 1.000000 -0.096268 -0.005835 1.000000 -0.091488 -0.006046 1.000000 -0.085186 -0.005792 1.000000 -0.080895 -0.005827 1.000000 -0.074589 -0.005432 1.000000 -0.071070 -0.005282 1.000000 -0.065112 -0.004743 1.000000 -0.062658 -0.004399 1.000000 -0.057416 -0.003716 1.000000 -0.056317 -0.003176 1.000000 -0.052164 -0.002354 1.000000 -0.052703 -0.001625 1.000000 -0.050000 -0.000677 1.000000 -0.052432 0.000225 1.000000 -0.051512 0.001278 1.000000 -0.056048 0.002326 1.000000 -0.057187 0.003448 1.000000 -0.063968 0.004596 1.000000 -0.067357 0.005738 1.000000 -0.076424 0.006928 1.000000 -0.082133 0.008023 1.000000 -0.093394 0.009177 1.000000 -0.101341 0.010145 1.000000 -0.114544 0.011171 1.000000 -0.124463 0.011920 1.000000 -0.139170 0.012716 1.000000 -0.150592 0.013149 1.000000 -0.166171 0.013612 1.000000 -0.178424 0.013638 1.000000 -0.194062 0.013676 1.000000 -0.206289 0.013223 1.000000 -0.221029 0.012765 1.000000 -0.232239 0.011792 1.000000 -0.245043 0.010805 1.000000 -0.254180 0.009312 1.000000 -0.264016 0.007805 1.000000 -0.270052 0.005840 1.000000 -0.275985 0.003867 1.000000 -0.278009 0.001522 1.000000 -0.279295 -0.000820 1.000000 -0.276591 -0.003416 1.000000 -0.272742 -0.005998 1.000000 -0.264855 -0.008689 1.000000 -0.255690 -0.011358 1.000000 -0.242459 -0.013972 1.000000 -0.228135 -0.016555 1.000000 -0.209727 -0.018904 1.000000 -0.190754 -0.021211 1.000000 -0.167694 -0.023100 1.000000 -0.144960 -0.024927 1.000000 -0.118165 -0.026153 1.000000 -0.092950 -0.027292 1.000000 -0.063746 -0.027671 1.000000 -0.037694 -0.027945 1.000000 -0.007787 -0.027356 1.000000 0.017210 -0.026670 1.000000 0.045885 -0.025118 1.000000 0.067929 -0.023516 1.000000 0.093482 -0.021187 1.000000 0.111023 -0.018889 1.000000 0.131979 -0.016151 1.000000 0.144176 -0.013523 1.000000 0.159804 -0.010858 1.000000 0.166729 -0.008324 1.000000 0.177200 -0.006206 1.000000 0.179819 -0.004136 1.000000 0.186119 -0.002891 1.000000 0.186043 -0.001499 1.000000 0.189615 -0.001179 1.000000 0.188650 -0.000409 1.000000 0.190802 -0.000731 1.000000 0.190285 -0.000258 1.000000 0.191669 -0.000755 1.000000 0.192063 -0.000191 1.000000 0.192508 -0.000451 1.000000 0.193411 0.000496 1.000000 0.192162 0.000732 1.000000 0.192604 0.002154 1.000000 0.188705 0.002962 1.000000 0.187520 0.004748 1.000000 0.180192 0.005976 1.000000 0.176507 0.007822 1.000000 0.165569 0.009099 1.000000 0.159306 0.010641 1.000000 0.145353 0.011674 1.000000 0.137026 0.012753 1.000000 0.120966 0.013451 1.000000 0.111253 0.014083 1.000000 0.093953 0.014462 1.000000 0.083485 0.014723 1.000000 0.065662 0.014834 1.000000 0.054971 0.014802 1.000000 0.037188 0.014698 1.000000 0.026705 0.014440 1.000000 0.009394 0.014168 1.000000 -0.000546 0.013736 1.000000 -0.017057 0.013340 1.000000 -0.026198 0.012773 1.000000 -0.041663 0.012287 1.000000 -0.049821 0.011616 1.000000 -0.064050 0.011066 1.000000 -0.071094 0.010311 1.000000 -0.083940 0.009719 1.000000 -0.089778 0.008896 1.000000 -0.101122 0.008278 1.000000 
-0.117964 0.014359 1.000000 -0.128443 0.013067 1.000000 -0.131409 0.011401 1.000000 -0.140037 0.010109 1.000000 -0.141754 0.008392 1.000000 -0.148465 0.007126 1.000000 -0.148961 0.005386 1.000000 -0.153721 0.004174 1.000000 -0.153052 0.002441 1.000000 -0.155862 0.001312 1.000000 -0.154111 -0.000379 1.000000 -0.155011 -0.001395 1.000000 -0.152292 -0.003007 1.000000 -0.151366 -0.003880 1.000000 -0.147820 -0.005374 1.000000 -0.145197 -0.006077 1.000000 -0.140992 -0.007412 1.000000 -0.136842 -0.007919 1.000000 -0.132174 -0.009057 1.000000 -0.126712 -0.009345 1.000000 -0.121795 -0.010248 1.000000 -0.115275 -0.010295 1.000000 -0.110347 -0.010928 1.000000 -0.103059 -0.010717 1.000000 -0.098374 -0.011048 1.000000 -0.090641 -0.010564 1.000000 -0.086466 -0.010565 1.000000 -0.078640 -0.009796 1.000000 -0.075254 -0.009445 1.000000 -0.067711 -0.008383 1.000000 -0.065402 -0.007664 1.000000 -0.058531 -0.006310 1.000000 -0.057585 -0.005219 1.000000 -0.051780 -0.003583 1.000000 -0.052478 -0.002129 1.000000 -0.048124 -0.000236 1.000000 -0.050722 0.001549 1.000000 -0.048173 0.003654 1.000000 -0.052885 0.005714 1.000000 -0.052442 0.007961 1.000000 -0.059415 0.010212 1.000000 -0.061293 0.012500 1.000000 -0.070575 0.014821 1.000000 -0.074870 0.017019 1.000000 -0.086380 0.019257 1.000000 -0.093036 0.021202 1.000000 -0.106530 0.023173 1.000000 -0.115303 0.024680 1.000000 -0.130350 0.026182 1.000000 -0.140790 0.027057 1.000000 -0.156760 0.027884 1.000000 -0.168204 0.027947 1.000000 -0.184279 0.027916 1.000000 -0.195874 0.027020 1.000000 -0.211083 0.025995 1.000000 -0.221828 0.024061 1.000000 -0.235114 0.021979 1.000000 -0.243935 0.019011 1.000000 -0.254240 0.015898 1.000000 -0.260082 0.011994 1.000000 -0.266448 0.007967 1.000000 -0.268367 0.003316 1.000000 -0.270025 -0.001427 1.000000 -0.267277 -0.006567 1.000000 -0.263723 -0.011769 1.000000 -0.255825 -0.017090 1.000000 -0.246866 -0.022454 1.000000 -0.233638 -0.027621 1.000000 -0.219424 -0.032819 1.000000 -0.201025 -0.037475 1.000000 -0.182066 -0.042148 1.000000 -0.159022 -0.045915 1.000000 -0.136217 -0.049671 1.000000 -0.109457 -0.052156 1.000000 -0.084109 -0.054582 1.000000 -0.054988 -0.055420 1.000000 -0.028794 -0.056138 1.000000 0.000947 -0.055079 1.000000 0.026003 -0.053856 1.000000 0.054384 -0.050895 1.000000 0.076282 -0.047776 1.000000 0.101379 -0.043262 1.000000 0.118450 -0.038662 1.000000 0.138790 -0.033301 1.000000 0.150142 -0.027966 1.000000 0.165030 -0.022676 1.000000 0.170818 -0.017510 1.000000 0.180465 -0.013185 1.000000 0.181876 -0.009002 1.000000 0.187294 -0.006292 1.000000 0.186247 -0.003553 1.000000 0.188948 -0.002650 1.000000 0.187501 -0.001221 1.000000 0.188887 -0.001660 1.000000 0.188419 -0.000886 1.000000 0.189106 -0.001791 1.000000 0.189910 -0.000847 1.000000 0.189663 -0.001353 1.000000 0.191192 0.000345 1.000000 0.189153 0.000806 1.000000 0.190360 0.003461 1.000000 0.185510 0.005087 1.000000 0.185140 0.008518 1.000000 0.176660 0.011018 1.000000 0.173712 0.014632 1.000000 0.161417 0.017209 1.000000 0.155812 0.020227 1.000000 0.140409 0.022290 1.000000 0.132709 0.024400 1.000000 0.115180 0.025786 1.000000 0.106075 0.027028 1.000000 0.087308 0.027783 1.000000 0.077424 0.028309 1.000000 0.058146 0.028531 1.000000 0.048014 0.028494 1.000000 0.028799 0.028286 1.000000 0.018852 0.027817 1.000000 0.000149 0.027271 1.000000 -0.009277 0.026476 1.000000 -0.027122 0.025676 1.000000 -0.035774 0.024633 1.000000 -0.052495 0.023648 1.000000 -0.060190 0.022416 1.000000 -0.075577 0.021299 1.000000 -0.082188 0.019920 1.000000 -0.096070 0.018712 1.000000 -0.101510 0.017215 1.000000 -0.113749 0.015951 1.000000 
-0.108873 0.022095 1.000000 -0.118602 0.020216 1.000000 -0.121815 0.017443 1.000000 -0.129878 0.015567 1.000000 -0.131799 0.012699 1.000000 -0.138136 0.010865 1.000000 -0.138787 0.007948 1.000000 -0.143365 0.006197 1.000000 -0.142795 0.003284 1.000000 -0.145615 0.001660 1.000000 -0.143905 -0.001192 1.000000 -0.145003 -0.002646 1.000000 -0.142265 -0.005371 1.000000 -0.141718 -0.006613 1.000000 -0.138093 -0.009146 1.000000 -0.136017 -0.010135 1.000000 -0.131677 -0.012411 1.000000 -0.128230 -0.013109 1.000000 -0.123372 -0.015064 1.000000 -0.118752 -0.015437 1.000000 -0.113597 -0.017012 1.000000 -0.108038 -0.017031 1.000000 -0.102827 -0.018171 1.000000 -0.096601 -0.017809 1.000000 -0.091591 -0.018464 1.000000 -0.085001 -0.017700 1.000000 -0.080465 -0.017828 1.000000 -0.073843 -0.016644 1.000000 -0.070065 -0.016211 1.000000 -0.063765 -0.014596 1.000000 -0.061037 -0.013579 1.000000 -0.055432 -0.011532 1.000000 -0.054049 -0.009927 1.000000 -0.049518 -0.007461 1.000000 -0.049767 -0.005282 1.000000 -0.046681 -0.002433 1.000000 -0.048829 0.000275 1.000000 -0.047536 0.003442 1.000000 -0.051807 0.006594 1.000000 -0.052602 0.009977 1.000000 -0.059157 0.013447 1.000000 -0.062255 0.016898 1.000000 -0.071156 0.020506 1.000000 -0.076655 0.023829 1.000000 -0.087836 0.027343 1.000000 -0.095678 0.030295 1.000000 -0.108908 0.033438 1.000000 -0.118850 0.035740 1.000000 -0.133707 0.038202 1.000000 -0.145292 0.039559 1.000000 -0.161149 0.041027 1.000000 -0.173706 0.041157 1.000000 -0.189737 0.041345 1.000000 -0.202393 0.040027 1.000000 -0.217616 0.038719 1.000000 -0.229349 0.035822 1.000000 -0.242686 0.032912 1.000000 -0.252402 0.028438 1.000000 -0.262778 0.023952 1.000000 -0.269409 0.018047 1.000000 -0.275854 0.012152 1.000000 -0.278459 0.005100 1.000000 -0.280207 -0.001910 1.000000 -0.278057 -0.009717 1.000000 -0.274613 -0.017451 1.000000 -0.267246 -0.025546 1.000000 -0.258429 -0.033545 1.000000 -0.245677 -0.041414 1.000000 -0.231632 -0.049168 1.000000 -0.213633 -0.056262 1.000000 -0.194841 -0.063214 1.000000 -0.172065 -0.068950 1.000000 -0.149367 -0.074492 1.000000 -0.122657 -0.078260 1.000000 -0.097288 -0.081762 1.000000 -0.067919 -0.082986 1.000000 -0.041530 -0.083880 1.000000 -0.011225 -0.082153 1.000000 0.014187 -0.080106 1.000000 0.043366 -0.075396 1.000000 0.065705 -0.070511 1.000000 0.091646 -0.063356 1.000000 0.109134 -0.056300 1.000000 0.130134 -0.047843 1.000000 0.141787 -0.039763 1.000000 0.156990 -0.031534 1.000000 0.162895 -0.023759 1.000000 0.172503 -0.017264 1.000000 0.173761 -0.010965 1.000000 0.178955 -0.007262 1.000000 0.177432 -0.003153 1.000000 0.180009 -0.002434 1.000000 0.177914 -0.000348 1.000000 0.179473 -0.001649 1.000000 0.178385 -0.000477 1.000000 0.179666 -0.002246 1.000000 0.180045 -0.000749 1.000000 0.180737 -0.001733 1.000000 0.182066 0.001006 1.000000 0.181270 0.001564 1.000000 0.182481 0.005797 1.000000 0.179135 0.008182 1.000000 0.178834 0.013598 1.000000 0.171968 0.017405 1.000000 0.168909 0.023065 1.000000 0.158153 0.027000 1.000000 0.152321 0.031648 1.000000 0.138496 0.034776 1.000000 0.130558 0.037982 1.000000 0.114677 0.040085 1.000000 0.105330 0.041955 1.000000 0.088243 0.043113 1.000000 0.078094 0.043886 1.000000 0.060483 0.044245 1.000000 0.050059 0.044149 1.000000 0.032470 0.043860 1.000000 0.022208 0.043090 1.000000 0.005067 0.042297 1.000000 -0.004688 0.041007 1.000000 -0.021059 0.039837 1.000000 -0.030047 0.038146 1.000000 -0.045402 0.036703 1.000000 -0.053432 0.034698 1.000000 -0.067583 0.033063 1.000000 -0.074520 0.030805 1.000000 -0.087314 0.029041 1.000000 -0.093062 0.026575 1.000000 -0.104375 0.024732 1.000000 
-0.122898 0.028585 1.000000 -0.133374 0.026009 1.000000 -0.136222 0.022677 1.000000 -0.144848 0.020093 1.000000 -0.146443 0.016650 1.000000 -0.153139 0.014113 1.000000 -0.153502 0.010615 1.000000 -0.158220 0.008182 1.000000 -0.157398 0.004691 1.000000 -0.160129 0.002422 1.000000 -0.158202 -0.000991 1.000000 -0.158979 -0.003035 1.000000 -0.156058 -0.006293 1.000000 -0.154960 -0.008052 1.000000 -0.151187 -0.011075 1.000000 -0.148340 -0.012493 1.000000 -0.143884 -0.015199 1.000000 -0.139459 -0.016224 1.000000 -0.134517 -0.018535 1.000000 -0.128730 -0.019120 1.000000 -0.123519 -0.020961 1.000000 -0.116626 -0.021065 1.000000 -0.111383 -0.022365 1.000000 -0.103677 -0.021953 1.000000 -0.098655 -0.022648 1.000000 -0.090461 -0.021690 1.000000 -0.085928 -0.021724 1.000000 -0.077600 -0.020196 1.000000 -0.073835 -0.019523 1.000000 -0.065751 -0.017410 1.000000 -0.063041 -0.015997 1.000000 -0.055597 -0.013298 1.000000 -0.054233 -0.011133 1.000000 -0.047833 -0.007865 1.000000 -0.048102 -0.004966 1.000000 -0.043146 -0.001175 1.000000 -0.045319 0.002403 1.000000 -0.042182 0.006632 1.000000 -0.046494 0.010781 1.000000 -0.045506 0.015311 1.000000 -0.052133 0.019865 1.000000 -0.053544 0.024500 1.000000 -0.062569 0.029221 1.000000 -0.066515 0.033698 1.000000 -0.077894 0.038280 1.000000 -0.084358 0.042274 1.000000 -0.097881 0.046345 1.000000 -0.106656 0.049479 1.000000 -0.121917 0.052624 1.000000 -0.132574 0.054500 1.000000 -0.148952 0.056298 1.000000 -0.160831 0.056535 1.000000 -0.177492 0.056603 1.000000 -0.189717 0.054899 1.000000 -0.205652 0.052951 1.000000 -0.217178 0.049131 1.000000 -0.231269 0.045032 1.000000 -0.240964 0.039103 1.000000 -0.252088 0.032905 1.000000 -0.258836 0.025070 1.000000 -0.265978 0.017018 1.000000 -0.268789 0.007668 1.000000 -0.271146 -0.001830 1.000000 -0.269248 -0.012161 1.000000 -0.266303 -0.022580 1.000000 -0.259197 -0.033274 1.000000 -0.250756 -0.044024 1.000000 -0.238246 -0.054418 1.000000 -0.224442 -0.064863 1.000000 -0.206643 -0.074265 1.000000 -0.187942 -0.083716 1.000000 -0.165304 -0.091390 1.000000 -0.142529 -0.099079 1.000000 -0.115884 -0.104235 1.000000 -0.090271 -0.109319 1.000000 -0.060904 -0.111177 1.000000 -0.034154 -0.112832 1.000000 -0.003846 -0.110797 1.000000 0.021899 -0.108447 1.000000 0.050967 -0.102412 1.000000 0.073363 -0.096056 1.000000 0.098939 -0.086691 1.000000 0.115919 -0.077150 1.000000 0.136217 -0.065955 1.000000 0.146619 -0.054821 1.000000 0.160819 -0.043784 1.000000 0.164810 -0.033023 1.000000 0.173199 -0.024051 1.000000 0.172257 -0.015454 1.000000 0.176063 -0.009963 1.000000 0.172646 -0.004606 1.000000 0.173866 -0.003132 1.000000 0.170770 -0.000686 1.000000 0.171360 -0.002131 1.000000 0.170256 -0.001079 1.000000 0.170820 -0.003451 1.000000 0.171730 -0.001918 1.000000 0.171888 -0.003374 1.000000 0.174065 -0.000189 1.000000 0.172673 0.000391 1.000000 0.175024 0.005596 1.000000 0.170954 0.008734 1.000000 0.171980 0.015684 1.000000 0.164165 0.020944 1.000000 0.162216 0.028447 1.000000 0.150157 0.033797 1.000000 0.145253 0.039885 1.000000 0.130046 0.044053 1.000000 0.122984 0.048219 1.000000 0.105735 0.051014 1.000000 0.097209 0.053463 1.000000 0.078755 0.055019 1.000000 0.069361 0.056069 1.000000 0.050380 0.056566 1.000000 0.040651 0.056507 1.000000 0.021700 0.056137 1.000000 0.012088 0.055221 1.000000 -0.006391 0.054168 1.000000 -0.015536 0.052601 1.000000 -0.033202 0.051035 1.000000 -0.041618 0.048976 1.000000 -0.058207 0.047033 1.000000 -0.065705 0.044597 1.000000 -0.081005 0.042386 1.000000 -0.087451 0.039650 1.000000 -0.101286 0.037255 1.000000 -0.106586 0.034276 1.000000 -0.118807 0.031762 1.000000 
-0.115151 0.036662 1.000000 -0.124853 0.033540 1.000000 -0.127921 0.028917 1.000000 -0.135964 0.025788 1.000000 -0.137733 0.020990 1.000000 -0.144040 0.017923 1.000000 -0.144519 0.013028 1.000000 -0.149040 0.010094 1.000000 -0.148272 0.005193 1.000000 -0.150993 0.002464 1.000000 -0.149051 -0.002342 1.000000 -0.149999 -0.004790 1.000000 -0.146993 -0.009390 1.000000 -0.146237 -0.011484 1.000000 -0.142309 -0.015767 1.000000 -0.139963 -0.017438 1.000000 -0.135285 -0.021292 1.000000 -0.131506 -0.022476 1.000000 -0.126280 -0.025794 1.000000 -0.121266 -0.026435 1.000000 -0.115713 -0.029117 1.000000 -0.109701 -0.029167 1.000000 -0.104064 -0.031120 1.000000 -0.097327 -0.030537 1.000000 -0.091863 -0.031680 1.000000 -0.084705 -0.030427 1.000000 -0.079687 -0.030688 1.000000 -0.072440 -0.028737 1.000000 -0.068151 -0.028059 1.000000 -0.061174 -0.025390 1.000000 -0.057907 -0.023733 1.000000 -0.051578 -0.020340 1.000000 -0.049631 -0.017691 1.000000 -0.044343 -0.013592 1.000000 -0.044013 -0.009969 1.000000 -0.040156 -0.005217 1.000000 -0.041729 -0.000689 1.000000 -0.039678 0.004617 1.000000 -0.043406 0.009918 1.000000 -0.043496 0.015616 1.000000 -0.049577 0.021485 1.000000 -0.052069 0.027334 1.000000 -0.060613 0.033477 1.000000 -0.065656 0.039154 1.000000 -0.076646 0.045186 1.000000 -0.084240 0.050283 1.000000 -0.097491 0.055735 1.000000 -0.107439 0.059776 1.000000 -0.122563 0.064120 1.000000 -0.134438 0.066593 1.000000 -0.150819 0.069284 1.000000 -0.163951 0.069698 1.000000 -0.180744 0.070232 1.000000 -0.194227 0.068186 1.000000 -0.210392 0.066180 1.000000 -0.223142 0.061440 1.000000 -0.237520 0.056698 1.000000 -0.248357 0.049257 1.000000 -0.259782 0.041824 1.000000 -0.267558 0.031937 1.000000 -0.274984 0.022105 1.000000 -0.278701 0.010268 1.000000 -0.281322 -0.001452 1.000000 -0.280231 -0.014560 1.000000 -0.277552 -0.027501 1.000000 -0.271198 -0.041093 1.000000 -0.263055 -0.054496 1.000000 -0.251271 -0.067728 1.000000 -0.237810 -0.080771 1.000000 -0.220693 -0.092762 1.000000 -0.202343 -0.104553 1.000000 -0.180253 -0.114363 1.000000 -0.157744 -0.123912 1.000000 -0.131358 -0.130519 1.000000 -0.105802 -0.136742 1.000000 -0.076241 -0.139102 1.000000 -0.049259 -0.140938 1.000000 -0.018232 -0.138207 1.000000 0.008000 -0.134920 1.000000 0.038193 -0.126860 1.000000 0.061147 -0.118482 1.000000 0.087913 -0.105912 1.000000 0.105288 -0.093578 1.000000 0.126399 -0.078543 1.000000 0.136900 -0.064365 1.000000 0.151219 -0.049724 1.000000 0.155012 -0.036139 1.000000 0.162819 -0.024711 1.000000 0.161291 -0.013830 1.000000 0.164157 -0.007651 1.000000 0.159594 -0.000956 1.000000 0.160129 -0.000558 1.000000 0.155714 0.002158 1.000000 0.156086 -0.001135 1.000000 0.153834 0.000063 1.000000 0.154926 -0.003721 1.000000 0.155196 -0.001816 1.000000 0.156275 -0.004068 1.000000 0.158281 0.000221 1.000000 0.158202 0.000605 1.000000 0.160889 0.007515 1.000000 0.158600 0.011226 1.000000 0.160294 0.020387 1.000000 0.154543 0.027169 1.000000 0.152840 0.037074 1.000000 0.142512 0.043962 1.000000 0.137699 0.051758 1.000000 0.124300 0.057045 1.000000 0.117330 0.062294 1.000000 0.101968 0.065860 1.000000 0.093462 0.068935 1.000000 0.076883 0.070961 1.000000 0.067409 0.072261 1.000000 0.050253 0.072954 1.000000 0.040363 0.072828 1.000000 0.023172 0.072424 1.000000 0.013346 0.071182 1.000000 -0.003454 0.069921 1.000000 -0.012847 0.067818 1.000000 -0.028938 0.065919 1.000000 -0.037623 0.063151 1.000000 -0.052763 0.060790 1.000000 -0.060543 0.057496 1.000000 -0.074541 0.054809 1.000000 -0.081272 0.051086 1.000000 -0.093970 0.048176 1.000000 -0.099545 0.044095 1.000000 -0.110806 0.041044 1.000000 
-0.131008 0.042633 1.000000 -0.141499 0.038779 1.000000 -0.144160 0.033787 1.000000 -0.152801 0.029905 1.000000 -0.154203 0.024726 1.000000 -0.160890 0.020899 1.000000 -0.161037 0.015616 1.000000 -0.165699 0.011934 1.000000 -0.164629 0.006644 1.000000 -0.167240 0.003202 1.000000 -0.165025 -0.001984 1.000000 -0.165605 -0.005093 1.000000 -0.162353 -0.010054 1.000000 -0.160974 -0.012736 1.000000 -0.156827 -0.017349 1.000000 -0.153613 -0.019516 1.000000 -0.148744 -0.023656 1.000000 -0.143866 -0.025230 1.000000 -0.138475 -0.028776 1.000000 -0.132153 -0.029687 1.000000 -0.126460 -0.032526 1.000000 -0.118954 -0.032714 1.000000 -0.113197 -0.034740 1.000000 -0.104803 -0.034153 1.000000 -0.099236 -0.035270 1.000000 -0.090283 -0.033866 1.000000 -0.085170 -0.033989 1.000000 -0.076014 -0.031732 1.000000 -0.071632 -0.030788 1.000000 -0.062656 -0.027654 1.000000 -0.059291 -0.025592 1.000000 -0.050898 -0.021573 1.000000 -0.048844 -0.018369 1.000000 -0.041452 -0.013483 1.000000 -0.041007 -0.009152 1.000000 -0.035039 -0.003459 1.000000 -0.036495 0.001925 1.000000 -0.032358 0.008309 1.000000 -0.035984 0.014599 1.000000 -0.034056 0.021482 1.000000 -0.040074 0.028437 1.000000 -0.040662 0.035535 1.000000 -0.049213 0.042809 1.000000 -0.052522 0.049732 1.000000 -0.063628 0.056864 1.000000 -0.069711 0.063119 1.000000 -0.083223 0.069543 1.000000 -0.091935 0.074550 1.000000 -0.107496 0.079624 1.000000 -0.118450 0.082756 1.000000 -0.135456 0.085810 1.000000 -0.148001 0.086460 1.000000 -0.165596 0.086879 1.000000 -0.178821 0.084547 1.000000 -0.195924 0.081865 1.000000 -0.208706 0.076259 1.000000 -0.224094 0.070248 1.000000 -0.235194 0.061365 1.000000 -0.247626 0.052106 1.000000 -0.255821 0.040272 1.000000 -0.264183 0.028161 1.000000 -0.268406 0.014006 1.000000 -0.271844 -0.000299 1.000000 -0.271291 -0.015931 1.000000 -0.269290 -0.031614 1.000000 -0.263464 -0.047771 1.000000 -0.255854 -0.063951 1.000000 -0.244557 -0.079663 1.000000 -0.231476 -0.095441 1.000000 -0.214778 -0.109732 1.000000 -0.196630 -0.124156 1.000000 -0.174853 -0.135989 1.000000 -0.152321 -0.147975 1.000000 -0.126100 -0.156177 1.000000 -0.100247 -0.164435 1.000000 -0.070685 -0.167720 1.000000 -0.043140 -0.170841 1.000000 -0.012005 -0.168056 1.000000 0.014887 -0.164872 1.000000 0.045096 -0.155558 1.000000 0.068409 -0.145777 1.000000 0.094812 -0.130832 1.000000 0.111685 -0.115636 1.000000 0.131874 -0.097567 1.000000 0.140582 -0.079641 1.000000 0.153544 -0.061896 1.000000 0.154315 -0.044623 1.000000 0.160570 -0.030331 1.000000 0.155437 -0.016793 1.000000 0.156446 -0.008266 1.000000 0.148751 -0.000578 1.000000 0.147347 0.000748 1.000000 0.141510 0.003357 1.000000 0.140929 -0.000251 1.000000 0.139006 0.000081 1.000000 0.139310 -0.004814 1.000000 0.140259 -0.003266 1.000000 0.140961 -0.006459 1.000000 0.143793 -0.002116 1.000000 0.143098 -0.002217 1.000000 0.147125 0.005198 1.000000 0.144165 0.009328 1.000000 0.147906 0.019741 1.000000 0.141523 0.028398 1.000000 0.141475 0.040477 1.000000 0.129962 0.048938 1.000000 0.126569 0.058097 1.000000 0.112039 0.064421 1.000000 0.106378 0.070551 1.000000 0.089869 0.074882 1.000000 0.082470 0.078547 1.000000 0.064660 0.081073 1.000000 0.056117 0.082699 1.000000 0.037673 0.083612 1.000000 0.028605 0.083588 1.000000 0.010108 0.083154 1.000000 0.001036 0.081847 1.000000 -0.017065 0.080361 1.000000 -0.025754 0.078085 1.000000 -0.043122 0.075811 1.000000 -0.051154 0.072801 1.000000 -0.067528 0.069953 1.000000 -0.074706 0.066375 1.000000 -0.089874 0.063115 1.000000 -0.096055 0.059079 1.000000 -0.109828 0.055528 1.000000 -0.114905 0.051112 1.000000 -0.127113 0.047368 1.000000 
-0.124393 0.051049 1.000000 -0.134080 0.046692 1.000000 -0.136947 0.040219 1.000000 -0.144986 0.035831 1.000000 -0.146541 0.029078 1.000000 -0.152825 0.024757 1.000000 -0.153062 0.017838 1.000000 -0.157516 0.013686 1.000000 -0.156459 0.006733 1.000000 -0.159049 0.002860 1.000000 -0.156767 -0.003976 1.000000 -0.157503 -0.007461 1.000000 -0.154101 -0.014021 1.000000 -0.153045 -0.017010 1.000000 -0.148666 -0.023128 1.000000 -0.145926 -0.025521 1.000000 -0.140749 -0.031038 1.000000 -0.136483 -0.032745 1.000000 -0.130712 -0.037507 1.000000 -0.125120 -0.038450 1.000000 -0.118984 -0.042316 1.000000 -0.112306 -0.042429 1.000000 -0.106048 -0.045271 1.000000 -0.098559 -0.044498 1.000000 -0.092437 -0.046200 1.000000 -0.084441 -0.044493 1.000000 -0.078725 -0.044957 1.000000 -0.070558 -0.042275 1.000000 -0.065525 -0.041417 1.000000 -0.057547 -0.037731 1.000000 -0.053491 -0.035491 1.000000 -0.046087 -0.030787 1.000000 -0.043307 -0.027136 1.000000 -0.036883 -0.021428 1.000000 -0.035688 -0.016383 1.000000 -0.030662 -0.009729 1.000000 -0.031360 -0.003370 1.000000 -0.028144 0.004107 1.000000 -0.031029 0.011616 1.000000 -0.030013 0.019705 1.000000 -0.035337 0.028091 1.000000 -0.036852 0.036474 1.000000 -0.044794 0.045338 1.000000 -0.049074 0.053568 1.000000 -0.059695 0.062374 1.000000 -0.066826 0.069878 1.000000 -0.080018 0.077959 1.000000 -0.089879 0.084048 1.000000 -0.105316 0.090636 1.000000 -0.117534 0.094554 1.000000 -0.134622 0.098835 1.000000 -0.148535 0.099838 1.000000 -0.166402 0.101052 1.000000 -0.181058 0.098514 1.000000 -0.198577 0.096065 1.000000 -0.212784 0.089610 1.000000 -0.228659 0.083186 1.000000 -0.241100 0.072789 1.000000 -0.254010 0.062451 1.000000 -0.263399 0.048494 1.000000 -0.272177 0.034690 1.000000 -0.277431 0.017930 1.000000 -0.281219 0.001433 1.000000 -0.281582 -0.017115 1.000000 -0.279918 -0.035329 1.000000 -0.274989 -0.054529 1.000000 -0.267787 -0.073402 1.000000 -0.257460 -0.092106 1.000000 -0.244919 -0.110550 1.000000 -0.229276 -0.127608 1.000000 -0.211776 -0.144478 1.000000 -0.191023 -0.158672 1.000000 -0.169105 -0.172665 1.000000 -0.143615 -0.182592 1.000000 -0.118115 -0.192157 1.000000 -0.088659 -0.196210 1.000000 -0.061016 -0.199618 1.000000 -0.029132 -0.196234 1.000000 -0.001708 -0.192022 1.000000 0.030017 -0.180381 1.000000 0.053977 -0.168198 1.000000 0.082121 -0.149188 1.000000 0.099305 -0.130640 1.000000 0.120635 -0.107440 1.000000 0.129154 -0.086036 1.000000 0.142024 -0.063457 1.000000 0.142414 -0.043165 1.000000 0.147335 -0.025833 1.000000 0.141597 -0.009705 1.000000 0.140689 -0.000965 1.000000 0.131216 0.008143 1.000000 0.128769 0.006684 1.000000 0.120909 0.008577 1.000000 0.119565 0.001369 1.000000 0.115567 0.001682 1.000000 0.116490 -0.004974 1.000000 0.116321 -0.003467 1.000000 0.117574 -0.007602 1.000000 0.119865 -0.001916 1.000000 0.120095 -0.002726 1.000000 0.124549 0.006448 1.000000 0.123396 0.010445 1.000000 0.128770 0.023029 1.000000 0.125430 0.033599 1.000000 0.126112 0.048635 1.000000 0.116737 0.058869 1.000000 0.114162 0.069681 1.000000 0.102059 0.077236 1.000000 0.097116 0.084464 1.000000 0.082930 0.089769 1.000000 0.075892 0.094144 1.000000 0.060210 0.097314 1.000000 0.051758 0.099248 1.000000 0.035312 0.100465 1.000000 0.026190 0.100393 1.000000 0.009602 0.099993 1.000000 0.000399 0.098354 1.000000 -0.015887 0.096711 1.000000 -0.024755 0.093875 1.000000 -0.040427 0.091318 1.000000 -0.048674 0.087557 1.000000 -0.063498 0.084342 1.000000 -0.070919 0.079841 1.000000 -0.084704 0.076157 1.000000 -0.091143 0.071040 1.000000 -0.103718 0.067027 1.000000 -0.109052 0.061381 1.000000 -0.120257 0.057148 1.000000 