# vtk DataFile Version 2.0
Comment goes here
ASCII

DATASET STRUCTURED_POINTS
DIMENSIONS    128   128   1

ORIGIN    0.000   0.000   0.000
SPACING   0.0156250.015625   1.000

POINT_DATA   16384
VECTORS u double

-0.065498 0.000011 1.000000 -0.069848 0.000009 1.000000 -0.070914 0.000011 1.000000 -0.074231 0.000009 1.000000 -0.074640 0.000011 1.000000 -0.076900 0.000009 1.000000 -0.076672 0.000011 1.000000 -0.077865 0.000009 1.000000 -0.077032 0.000011 1.000000 -0.077168 0.000008 1.000000 -0.075773 0.000010 1.000000 -0.074881 0.000008 1.000000 -0.072981 0.000010 1.000000 -0.071111 0.000007 1.000000 -0.068775 0.000009 1.000000 -0.066003 0.000007 1.000000 -0.063314 0.000009 1.000000 -0.059738 0.000006 1.000000 -0.056792 0.000008 1.000000 -0.052534 0.000006 1.000000 -0.049441 0.000008 1.000000 -0.044647 0.000005 1.000000 -0.041531 0.000007 1.000000 -0.036371 0.000005 1.000000 -0.033370 0.000007 1.000000 -0.028039 0.000005 1.000000 -0.025305 0.000007 1.000000 -0.020018 0.000005 1.000000 -0.017720 0.000007 1.000000 -0.012714 0.000005 1.000000 -0.011032 0.000007 1.000000 -0.006560 0.000006 1.000000 -0.005685 0.000007 1.000000 -0.002010 0.000007 1.000000 -0.002135 0.000008 1.000000 0.000479 0.000008 1.000000 -0.000834 0.000009 1.000000 0.000470 0.000009 1.000000 -0.002197 0.000011 1.000000 -0.002421 0.000011 1.000000 -0.006565 0.000012 1.000000 -0.008478 0.000013 1.000000 -0.014159 0.000014 1.000000 -0.017835 0.000015 1.000000 -0.025020 0.000015 1.000000 -0.030423 0.000016 1.000000 -0.038961 0.000015 1.000000 -0.045913 0.000016 1.000000 -0.055513 0.000015 1.000000 -0.063678 0.000016 1.000000 -0.073898 0.000014 1.000000 -0.082773 0.000014 1.000000 -0.093024 0.000011 1.000000 -0.101955 0.000010 1.000000 -0.111531 0.000006 1.000000 -0.119744 0.000005 1.000000 -0.127865 -0.000001 1.000000 -0.134531 -0.000003 1.000000 -0.140417 -0.000011 1.000000 -0.144724 -0.000014 1.000000 -0.147673 -0.000022 1.000000 -0.148915 -0.000026 1.000000 -0.148389 -0.000036 1.000000 -0.146047 -0.000040 1.000000 -0.141742 -0.000051 1.000000 -0.135557 -0.000055 1.000000 -0.127456 -0.000065 1.000000 -0.117473 -0.000069 1.000000 -0.105879 -0.000079 1.000000 -0.092479 -0.000082 1.000000 -0.078024 -0.000090 1.000000 -0.061929 -0.000090 1.000000 -0.045566 -0.000096 1.000000 -0.027815 -0.000094 1.000000 -0.010774 -0.000097 1.000000 0.007339 -0.000092 1.000000 0.023651 -0.000092 1.000000 0.040709 -0.000084 1.000000 0.054879 -0.000081 1.000000 0.069553 -0.000071 1.000000 0.080409 -0.000065 1.000000 0.091710 -0.000053 1.000000 0.098588 -0.000046 1.000000 0.106093 -0.000034 1.000000 0.109018 -0.000027 1.000000 0.112950 -0.000017 1.000000 0.112641 -0.000010 1.000000 0.113764 -0.000002 1.000000 0.111440 0.000002 1.000000 0.110822 0.000008 1.000000 0.107882 0.000010 1.000000 0.106602 0.000013 1.000000 0.104235 0.000014 1.000000 0.103060 0.000014 1.000000 0.101870 0.000014 1.000000 0.100994 0.000014 1.000000 0.100868 0.000013 1.000000 0.099910 0.000013 1.000000 0.100187 0.000013 1.000000 0.098408 0.000013 1.000000 0.098195 0.000014 1.000000 0.094844 0.000014 1.000000 0.093345 0.000015 1.000000 0.087981 0.000015 1.000000 0.084861 0.000016 1.000000 0.077587 0.000015 1.000000 0.073168 0.000015 1.000000 0.064527 0.000014 1.000000 0.059348 0.000014 1.000000 0.049915 0.000013 1.000000 0.044400 0.000013 1.000000 0.034610 0.000012 1.000000 0.029036 0.000012 1.000000 0.019204 0.000011 1.000000 0.013764 0.000011 1.000000 0.004135 0.000010 1.000000 -0.001020 0.000011 1.000000 -0.010245 0.000010 1.000000 -0.014991 0.000010 1.000000 -0.023651 0.000009 1.000000 -0.027892 0.000010 1.000000 -0.035856 0.000009 1.000000 -0.039524 0.000011 1.000000 -0.046691 0.000009 1.000000 -0.049737 0.000011 1.000000 -0.056025 0.000009 1.000000 -0.058421 0.000011 1.000000 -0.063766 0.000009 1.000000 
-0.059181 0.003051 1.000000 -0.063137 0.002717 1.000000 -0.064342 0.002202 1.000000 -0.067382 0.001872 1.000000 -0.067904 0.001344 1.000000 -0.070007 0.001024 1.000000 -0.069864 0.000493 1.000000 -0.071026 0.000188 1.000000 -0.070247 -0.000339 1.000000 -0.070477 -0.000622 1.000000 -0.069107 -0.001134 1.000000 -0.068432 -0.001389 1.000000 -0.066526 -0.001876 1.000000 -0.064992 -0.002096 1.000000 -0.062621 -0.002546 1.000000 -0.060296 -0.002725 1.000000 -0.057542 -0.003125 1.000000 -0.054514 -0.003256 1.000000 -0.051476 -0.003595 1.000000 -0.047856 -0.003671 1.000000 -0.044646 -0.003937 1.000000 -0.040567 -0.003951 1.000000 -0.037310 -0.004132 1.000000 -0.032929 -0.004077 1.000000 -0.029765 -0.004161 1.000000 -0.025262 -0.004029 1.000000 -0.022346 -0.004005 1.000000 -0.017922 -0.003789 1.000000 -0.015423 -0.003647 1.000000 -0.011301 -0.003340 1.000000 -0.009402 -0.003071 1.000000 -0.005822 -0.002669 1.000000 -0.004716 -0.002269 1.000000 -0.001929 -0.001769 1.000000 -0.001812 -0.001237 1.000000 -0.000071 -0.000644 1.000000 -0.001133 0.000013 1.000000 -0.000680 0.000690 1.000000 -0.003089 0.001455 1.000000 -0.004132 0.002195 1.000000 -0.008016 0.003040 1.000000 -0.010709 0.003809 1.000000 -0.016130 0.004691 1.000000 -0.020546 0.005444 1.000000 -0.027476 0.006308 1.000000 -0.033572 0.006985 1.000000 -0.041863 0.007760 1.000000 -0.049460 0.008291 1.000000 -0.058826 0.008897 1.000000 -0.067582 0.009207 1.000000 -0.077586 0.009560 1.000000 -0.086997 0.009576 1.000000 -0.097054 0.009601 1.000000 -0.106461 0.009262 1.000000 -0.115867 0.008900 1.000000 -0.124493 0.008171 1.000000 -0.132472 0.007391 1.000000 -0.139486 0.006271 1.000000 -0.145260 0.005085 1.000000 -0.149851 0.003613 1.000000 -0.152723 0.002072 1.000000 -0.154188 0.000330 1.000000 -0.153623 -0.001471 1.000000 -0.151452 -0.003365 1.000000 -0.147150 -0.005297 1.000000 -0.141089 -0.007200 1.000000 -0.133035 -0.009109 1.000000 -0.123136 -0.010859 1.000000 -0.111628 -0.012577 1.000000 -0.098267 -0.014010 1.000000 -0.083926 -0.015366 1.000000 -0.067812 -0.016320 1.000000 -0.051571 -0.017154 1.000000 -0.033729 -0.017491 1.000000 -0.016793 -0.017675 1.000000 0.001496 -0.017305 1.000000 0.017741 -0.016777 1.000000 0.035054 -0.015698 1.000000 0.049213 -0.014502 1.000000 0.064191 -0.012835 1.000000 0.075102 -0.011142 1.000000 0.086712 -0.009141 1.000000 0.093715 -0.007236 1.000000 0.101492 -0.005247 1.000000 0.104606 -0.003453 1.000000 0.108761 -0.001826 1.000000 0.108672 -0.000415 1.000000 0.109996 0.000600 1.000000 0.107859 0.001476 1.000000 0.107473 0.001789 1.000000 0.104615 0.002122 1.000000 0.103641 0.001838 1.000000 0.101222 0.001786 1.000000 0.100437 0.001198 1.000000 0.099079 0.001048 1.000000 0.098683 0.000516 1.000000 0.098332 0.000556 1.000000 0.097939 0.000354 1.000000 0.097978 0.000765 1.000000 0.096864 0.001010 1.000000 0.096412 0.001797 1.000000 0.093828 0.002440 1.000000 0.092073 0.003447 1.000000 0.087548 0.004257 1.000000 0.084134 0.005213 1.000000 0.077744 0.005862 1.000000 0.073031 0.006546 1.000000 0.065319 0.006925 1.000000 0.059869 0.007321 1.000000 0.051394 0.007487 1.000000 0.045624 0.007666 1.000000 0.036797 0.007694 1.000000 0.030972 0.007715 1.000000 0.022088 0.007647 1.000000 0.016397 0.007545 1.000000 0.007688 0.007402 1.000000 0.002285 0.007200 1.000000 -0.006060 0.006995 1.000000 -0.011049 0.006713 1.000000 -0.018881 0.006460 1.000000 -0.023356 0.006113 1.000000 -0.030556 0.005825 1.000000 -0.034444 0.005427 1.000000 -0.040922 0.005115 1.000000 -0.044173 0.004677 1.000000 -0.049860 0.004351 1.000000 -0.052442 0.003881 1.000000 -0.057285 0.003547 1.000000 
-0.066383 0.005863 1.000000 -0.070740 0.005171 1.000000 -0.071792 0.004256 1.000000 -0.075113 0.003570 1.000000 -0.075506 0.002636 1.000000 -0.077765 0.001969 1.000000 -0.077518 0.001029 1.000000 -0.078703 0.000392 1.000000 -0.077846 -0.000538 1.000000 -0.077965 -0.001132 1.000000 -0.076541 -0.002035 1.000000 -0.075622 -0.002573 1.000000 -0.073687 -0.003430 1.000000 -0.071780 -0.003898 1.000000 -0.069403 -0.004687 1.000000 -0.066582 -0.005072 1.000000 -0.063845 -0.005773 1.000000 -0.060208 -0.006059 1.000000 -0.057208 -0.006650 1.000000 -0.052877 -0.006825 1.000000 -0.049724 -0.007281 1.000000 -0.044845 -0.007331 1.000000 -0.041661 -0.007631 1.000000 -0.036407 -0.007540 1.000000 -0.033330 -0.007661 1.000000 -0.027893 -0.007415 1.000000 -0.025077 -0.007334 1.000000 -0.019673 -0.006918 1.000000 -0.017286 -0.006614 1.000000 -0.012155 -0.006016 1.000000 -0.010377 -0.005472 1.000000 -0.005774 -0.004680 1.000000 -0.004799 -0.003886 1.000000 -0.000990 -0.002897 1.000000 -0.001017 -0.001849 1.000000 0.001728 -0.000671 1.000000 0.000507 0.000618 1.000000 0.001930 0.001965 1.000000 -0.000658 0.003463 1.000000 -0.000782 0.004938 1.000000 -0.004871 0.006590 1.000000 -0.006715 0.008128 1.000000 -0.012375 0.009850 1.000000 -0.016026 0.011360 1.000000 -0.023234 0.013041 1.000000 -0.028665 0.014403 1.000000 -0.037279 0.015903 1.000000 -0.044323 0.016979 1.000000 -0.054058 0.018138 1.000000 -0.062380 0.018776 1.000000 -0.072793 0.019429 1.000000 -0.081890 0.019482 1.000000 -0.092385 0.019475 1.000000 -0.101589 0.018823 1.000000 -0.111443 0.018039 1.000000 -0.119963 0.016610 1.000000 -0.128373 0.014992 1.000000 -0.135354 0.012785 1.000000 -0.141513 0.010354 1.000000 -0.146115 0.007449 1.000000 -0.149296 0.004315 1.000000 -0.150785 0.000874 1.000000 -0.150429 -0.002772 1.000000 -0.148267 -0.006513 1.000000 -0.144055 -0.010413 1.000000 -0.137967 -0.014170 1.000000 -0.129875 -0.018019 1.000000 -0.119900 -0.021477 1.000000 -0.108227 -0.024948 1.000000 -0.094742 -0.027784 1.000000 -0.080120 -0.030544 1.000000 -0.063846 -0.032445 1.000000 -0.047236 -0.034179 1.000000 -0.029225 -0.034873 1.000000 -0.011878 -0.035321 1.000000 0.006544 -0.034626 1.000000 0.023174 -0.033650 1.000000 0.040529 -0.031556 1.000000 0.054948 -0.029218 1.000000 0.069824 -0.025960 1.000000 0.080770 -0.022586 1.000000 0.092101 -0.018666 1.000000 0.098843 -0.014826 1.000000 0.106177 -0.010925 1.000000 0.108741 -0.007296 1.000000 0.112340 -0.004083 1.000000 0.111514 -0.001246 1.000000 0.112225 0.000810 1.000000 0.109337 0.002526 1.000000 0.108311 0.003252 1.000000 0.104888 0.003842 1.000000 0.103300 0.003406 1.000000 0.100653 0.003217 1.000000 0.099345 0.002157 1.000000 0.098115 0.001768 1.000000 0.097281 0.000761 1.000000 0.097299 0.000757 1.000000 0.096507 0.000367 1.000000 0.097036 0.001089 1.000000 0.095472 0.001578 1.000000 0.095557 0.003049 1.000000 0.092410 0.004353 1.000000 0.091157 0.006295 1.000000 0.085919 0.007954 1.000000 0.082901 0.009820 1.000000 0.075678 0.011118 1.000000 0.071342 0.012440 1.000000 0.062769 0.013176 1.000000 0.057714 0.013939 1.000000 0.048370 0.014258 1.000000 0.042989 0.014610 1.000000 0.033277 0.014664 1.000000 0.027811 0.014721 1.000000 0.018032 0.014585 1.000000 0.012668 0.014411 1.000000 0.003069 0.014122 1.000000 -0.002035 0.013759 1.000000 -0.011245 0.013344 1.000000 -0.015956 0.012831 1.000000 -0.024609 0.012316 1.000000 -0.028825 0.011685 1.000000 -0.036789 0.011097 1.000000 -0.040436 0.010377 1.000000 -0.047606 0.009738 1.000000 -0.050636 0.008949 1.000000 -0.056930 0.008279 1.000000 -0.059312 0.007435 1.000000 -0.064664 0.006748 1.000000 
-0.060867 0.009127 1.000000 -0.064829 0.008126 1.000000 -0.066009 0.006575 1.000000 -0.069051 0.005586 1.000000 -0.069542 0.003996 1.000000 -0.071641 0.003036 1.000000 -0.071459 0.001431 1.000000 -0.072605 0.000516 1.000000 -0.071779 -0.001077 1.000000 -0.071978 -0.001927 1.000000 -0.070549 -0.003478 1.000000 -0.069826 -0.004244 1.000000 -0.067849 -0.005718 1.000000 -0.066248 -0.006380 1.000000 -0.063792 -0.007744 1.000000 -0.061379 -0.008282 1.000000 -0.058528 -0.009499 1.000000 -0.055391 -0.009893 1.000000 -0.052243 -0.010926 1.000000 -0.048492 -0.011156 1.000000 -0.045158 -0.011969 1.000000 -0.040925 -0.012013 1.000000 -0.037530 -0.012571 1.000000 -0.032973 -0.012408 1.000000 -0.029657 -0.012675 1.000000 -0.024956 -0.012282 1.000000 -0.021873 -0.012224 1.000000 -0.017230 -0.011580 1.000000 -0.014551 -0.011165 1.000000 -0.010191 -0.010249 1.000000 -0.008101 -0.009452 1.000000 -0.004269 -0.008247 1.000000 -0.002964 -0.007052 1.000000 0.000080 -0.005552 1.000000 0.000395 -0.003955 1.000000 0.002389 -0.002168 1.000000 0.001513 -0.000190 1.000000 0.002199 0.001855 1.000000 -0.000050 0.004168 1.000000 -0.000899 0.006408 1.000000 -0.004669 0.008972 1.000000 -0.007230 0.011312 1.000000 -0.012604 0.014002 1.000000 -0.016971 0.016303 1.000000 -0.023941 0.018947 1.000000 -0.030095 0.021031 1.000000 -0.038532 0.023417 1.000000 -0.046311 0.025070 1.000000 -0.055940 0.026954 1.000000 -0.065011 0.027943 1.000000 -0.075393 0.029070 1.000000 -0.085245 0.029168 1.000000 -0.095780 0.029300 1.000000 -0.105731 0.028320 1.000000 -0.115683 0.027274 1.000000 -0.124919 0.025101 1.000000 -0.133465 0.022782 1.000000 -0.141101 0.019411 1.000000 -0.147411 0.015845 1.000000 -0.152580 0.011396 1.000000 -0.155906 0.006742 1.000000 -0.157854 0.001463 1.000000 -0.157620 -0.003989 1.000000 -0.155798 -0.009739 1.000000 -0.151679 -0.015597 1.000000 -0.145811 -0.021380 1.000000 -0.137780 -0.027176 1.000000 -0.127905 -0.032508 1.000000 -0.116258 -0.037736 1.000000 -0.102746 -0.042117 1.000000 -0.088103 -0.046261 1.000000 -0.071661 -0.049204 1.000000 -0.054965 -0.051775 1.000000 -0.036630 -0.052850 1.000000 -0.019123 -0.053444 1.000000 -0.000231 -0.052356 1.000000 0.016611 -0.050762 1.000000 0.034526 -0.047473 1.000000 0.049155 -0.043797 1.000000 0.064564 -0.038656 1.000000 0.075639 -0.033419 1.000000 0.087340 -0.027214 1.000000 0.094077 -0.021312 1.000000 0.101526 -0.015145 1.000000 0.103956 -0.009617 1.000000 0.107431 -0.004599 1.000000 0.106386 -0.000300 1.000000 0.106853 0.002777 1.000000 0.103679 0.005389 1.000000 0.102458 0.006238 1.000000 0.098684 0.007134 1.000000 0.097098 0.006073 1.000000 0.094113 0.005741 1.000000 0.093058 0.003736 1.000000 0.091554 0.003113 1.000000 0.091230 0.001332 1.000000 0.091100 0.001330 1.000000 0.090998 0.000617 1.000000 0.091497 0.001800 1.000000 0.090785 0.002489 1.000000 0.090925 0.004859 1.000000 0.088763 0.006840 1.000000 0.087520 0.009937 1.000000 0.083288 0.012513 1.000000 0.080064 0.015454 1.000000 0.073806 0.017421 1.000000 0.069269 0.019455 1.000000 0.061732 0.020553 1.000000 0.056552 0.021720 1.000000 0.048288 0.022213 1.000000 0.042797 0.022759 1.000000 0.034148 0.022871 1.000000 0.028541 0.022959 1.000000 0.019776 0.022790 1.000000 0.014234 0.022508 1.000000 0.005596 0.022104 1.000000 0.000290 0.021514 1.000000 -0.008014 0.020916 1.000000 -0.012936 0.020077 1.000000 -0.020743 0.019329 1.000000 -0.025170 0.018293 1.000000 -0.032356 0.017436 1.000000 -0.036207 0.016245 1.000000 -0.042681 0.015315 1.000000 -0.045902 0.014001 1.000000 -0.051590 0.013027 1.000000 -0.054147 0.011615 1.000000 -0.058995 0.010618 1.000000 
-0.069037 0.011698 1.000000 -0.073418 0.010313 1.000000 -0.074429 0.008478 1.000000 -0.077765 0.007104 1.000000 -0.078110 0.005227 1.000000 -0.080369 0.003886 1.000000 -0.080064 0.001994 1.000000 -0.081228 0.000712 1.000000 -0.080299 -0.001165 1.000000 -0.080370 -0.002362 1.000000 -0.078858 -0.004188 1.000000 -0.077861 -0.005274 1.000000 -0.075820 -0.007008 1.000000 -0.073801 -0.007954 1.000000 -0.071300 -0.009556 1.000000 -0.068333 -0.010335 1.000000 -0.065453 -0.011761 1.000000 -0.061635 -0.012345 1.000000 -0.058473 -0.013549 1.000000 -0.053926 -0.013910 1.000000 -0.050590 -0.014848 1.000000 -0.045460 -0.014958 1.000000 -0.042074 -0.015583 1.000000 -0.036533 -0.015413 1.000000 -0.033232 -0.015678 1.000000 -0.027475 -0.015199 1.000000 -0.024413 -0.015060 1.000000 -0.018659 -0.014240 1.000000 -0.016004 -0.013653 1.000000 -0.010495 -0.012466 1.000000 -0.008431 -0.011394 1.000000 -0.003429 -0.009817 1.000000 -0.002158 -0.008235 1.000000 0.002059 -0.006257 1.000000 0.002330 -0.004158 1.000000 0.005475 -0.001789 1.000000 0.004536 0.000807 1.000000 0.006330 0.003528 1.000000 0.003985 0.006562 1.000000 0.004172 0.009557 1.000000 0.000259 0.012920 1.000000 -0.001365 0.016062 1.000000 -0.006948 0.019591 1.000000 -0.010505 0.022697 1.000000 -0.017769 0.026165 1.000000 -0.023269 0.028995 1.000000 -0.032099 0.032119 1.000000 -0.039400 0.034386 1.000000 -0.049527 0.036838 1.000000 -0.058310 0.038229 1.000000 -0.069293 0.039662 1.000000 -0.079044 0.039869 1.000000 -0.090263 0.039961 1.000000 -0.100284 0.038726 1.000000 -0.110968 0.037226 1.000000 -0.120408 0.034393 1.000000 -0.129684 0.031174 1.000000 -0.137611 0.026731 1.000000 -0.144590 0.021833 1.000000 -0.150076 0.015943 1.000000 -0.153953 0.009588 1.000000 -0.156187 0.002588 1.000000 -0.156339 -0.004828 1.000000 -0.154721 -0.012454 1.000000 -0.150790 -0.020400 1.000000 -0.145008 -0.028068 1.000000 -0.136953 -0.035924 1.000000 -0.127023 -0.042999 1.000000 -0.115137 -0.050107 1.000000 -0.101426 -0.055938 1.000000 -0.086340 -0.061629 1.000000 -0.069568 -0.065583 1.000000 -0.052253 -0.069210 1.000000 -0.033495 -0.070714 1.000000 -0.015252 -0.071721 1.000000 0.004081 -0.070361 1.000000 0.021660 -0.068407 1.000000 0.039912 -0.064100 1.000000 0.055099 -0.059256 1.000000 0.070591 -0.052443 1.000000 0.081826 -0.045362 1.000000 0.093240 -0.037104 1.000000 0.099568 -0.029012 1.000000 0.106354 -0.020805 1.000000 0.107791 -0.013200 1.000000 0.110356 -0.006513 1.000000 0.107923 -0.000668 1.000000 0.107383 0.003517 1.000000 0.102756 0.006921 1.000000 0.100500 0.008246 1.000000 0.095586 0.009202 1.000000 0.093060 0.007978 1.000000 0.089581 0.007257 1.000000 0.087881 0.004715 1.000000 0.086557 0.003597 1.000000 0.085830 0.001215 1.000000 0.086263 0.000989 1.000000 0.085937 -0.000030 1.000000 0.087168 0.001302 1.000000 0.086196 0.002150 1.000000 0.087179 0.005071 1.000000 0.084647 0.007758 1.000000 0.084217 0.011769 1.000000 0.079411 0.015410 1.000000 0.076685 0.019302 1.000000 0.069660 0.021913 1.000000 0.065640 0.024514 1.000000 0.057357 0.025894 1.000000 0.052767 0.027382 1.000000 0.043750 0.028013 1.000000 0.038812 0.028751 1.000000 0.029350 0.028920 1.000000 0.024211 0.029092 1.000000 0.014583 0.028892 1.000000 0.009433 0.028591 1.000000 -0.000085 0.028066 1.000000 -0.005048 0.027369 1.000000 -0.014219 0.026571 1.000000 -0.018832 0.025560 1.000000 -0.027469 0.024550 1.000000 -0.031611 0.023299 1.000000 -0.039574 0.022135 1.000000 -0.043162 0.020701 1.000000 -0.050344 0.019433 1.000000 -0.053325 0.017859 1.000000 -0.059640 0.016524 1.000000 -0.061980 0.014840 1.000000 -0.067358 0.013468 1.000000 
-0.064234 0.015187 1.000000 -0.068214 0.013517 1.000000 -0.069343 0.010923 1.000000 -0.072396 0.009268 1.000000 -0.072828 0.006600 1.000000 -0.074922 0.004989 1.000000 -0.074667 0.002289 1.000000 -0.075784 0.000751 1.000000 -0.074864 -0.001935 1.000000 -0.075005 -0.003368 1.000000 -0.073458 -0.005987 1.000000 -0.072641 -0.007282 1.000000 -0.070522 -0.009778 1.000000 -0.068788 -0.010900 1.000000 -0.066165 -0.013212 1.000000 -0.063577 -0.014129 1.000000 -0.060534 -0.016197 1.000000 -0.057178 -0.016873 1.000000 -0.053811 -0.018636 1.000000 -0.049797 -0.019039 1.000000 -0.046218 -0.020434 1.000000 -0.041678 -0.020529 1.000000 -0.038010 -0.021498 1.000000 -0.033101 -0.021249 1.000000 -0.029483 -0.021732 1.000000 -0.024385 -0.021101 1.000000 -0.020970 -0.021040 1.000000 -0.015888 -0.019989 1.000000 -0.012848 -0.019330 1.000000 -0.008011 -0.017821 1.000000 -0.005535 -0.016517 1.000000 -0.001195 -0.014521 1.000000 0.000512 -0.012540 1.000000 0.004081 -0.010039 1.000000 0.004800 -0.007372 1.000000 0.007313 -0.004374 1.000000 0.006822 -0.001044 1.000000 0.007993 0.002406 1.000000 0.006079 0.006325 1.000000 0.005642 0.010134 1.000000 0.002121 0.014509 1.000000 -0.000145 0.018519 1.000000 -0.005399 0.023143 1.000000 -0.009638 0.027124 1.000000 -0.016661 0.031711 1.000000 -0.022900 0.035361 1.000000 -0.031601 0.039548 1.000000 -0.039715 0.042498 1.000000 -0.049844 0.045864 1.000000 -0.059520 0.047708 1.000000 -0.070639 0.049804 1.000000 -0.081357 0.050139 1.000000 -0.092835 0.050541 1.000000 -0.103869 0.049025 1.000000 -0.114907 0.047398 1.000000 -0.125361 0.043818 1.000000 -0.135043 0.039984 1.000000 -0.143927 0.034317 1.000000 -0.151311 0.028311 1.000000 -0.157639 0.020759 1.000000 -0.161871 0.012853 1.000000 -0.164788 0.003849 1.000000 -0.165213 -0.005455 1.000000 -0.164095 -0.015287 1.000000 -0.160346 -0.025310 1.000000 -0.154880 -0.035217 1.000000 -0.146917 -0.045160 1.000000 -0.137128 -0.054323 1.000000 -0.125247 -0.063333 1.000000 -0.111497 -0.070914 1.000000 -0.096318 -0.078119 1.000000 -0.079301 -0.083292 1.000000 -0.061769 -0.087848 1.000000 -0.042525 -0.089850 1.000000 -0.023927 -0.091020 1.000000 -0.003866 -0.089268 1.000000 0.014165 -0.086593 1.000000 0.033297 -0.080912 1.000000 0.048902 -0.074476 1.000000 0.065215 -0.065384 1.000000 0.076646 -0.056067 1.000000 0.088544 -0.044956 1.000000 0.094713 -0.034426 1.000000 0.101451 -0.023368 1.000000 0.102419 -0.013619 1.000000 0.104440 -0.004731 1.000000 0.101405 0.002673 1.000000 0.100093 0.007944 1.000000 0.094807 0.012272 1.000000 0.091887 0.013407 1.000000 0.086223 0.014574 1.000000 0.083431 0.012079 1.000000 0.079328 0.010920 1.000000 0.077748 0.006760 1.000000 0.075940 0.005164 1.000000 0.075743 0.001626 1.000000 0.075989 0.001223 1.000000 0.076350 -0.000289 1.000000 0.077635 0.001541 1.000000 0.077581 0.002478 1.000000 0.078908 0.006408 1.000000 0.077594 0.009802 1.000000 0.077590 0.015173 1.000000 0.074096 0.020045 1.000000 0.071202 0.025206 1.000000 0.065318 0.028466 1.000000 0.061295 0.031758 1.000000 0.054305 0.033426 1.000000 0.049864 0.035327 1.000000 0.042140 0.036167 1.000000 0.037289 0.037159 1.000000 0.029011 0.037472 1.000000 0.023838 0.037727 1.000000 0.015287 0.037568 1.000000 0.010014 0.037176 1.000000 0.001496 0.036586 1.000000 -0.003639 0.035648 1.000000 -0.011871 0.034700 1.000000 -0.016674 0.033327 1.000000 -0.024436 0.032108 1.000000 -0.028773 0.030398 1.000000 -0.035934 0.028987 1.000000 -0.039714 0.027015 1.000000 -0.046179 0.025478 1.000000 -0.049342 0.023298 1.000000 -0.055037 0.021682 1.000000 -0.057545 0.019332 1.000000 -0.062408 0.017675 1.000000 
-0.073455 0.017503 1.000000 -0.077883 0.015423 1.000000 -0.078830 0.012661 1.000000 -0.082200 0.010589 1.000000 -0.082470 0.007753 1.000000 -0.084736 0.005725 1.000000 -0.084338 0.002855 1.000000 -0.085472 0.000909 1.000000 -0.084426 -0.001945 1.000000 -0.084422 -0.003768 1.000000 -0.082766 -0.006551 1.000000 -0.081640 -0.008210 1.000000 -0.079425 -0.010861 1.000000 -0.077222 -0.012311 1.000000 -0.074516 -0.014767 1.000000 -0.071306 -0.015967 1.000000 -0.068190 -0.018160 1.000000 -0.064070 -0.019067 1.000000 -0.060640 -0.020930 1.000000 -0.055732 -0.021504 1.000000 -0.052096 -0.022967 1.000000 -0.046548 -0.023166 1.000000 -0.042826 -0.024160 1.000000 -0.036809 -0.023940 1.000000 -0.033138 -0.024395 1.000000 -0.026849 -0.023711 1.000000 -0.023378 -0.023557 1.000000 -0.017038 -0.022362 1.000000 -0.013937 -0.021530 1.000000 -0.007793 -0.019779 1.000000 -0.005250 -0.018210 1.000000 0.000424 -0.015863 1.000000 0.002200 -0.013510 1.000000 0.007109 -0.010545 1.000000 0.007892 -0.007390 1.000000 0.011725 -0.003811 1.000000 0.011278 0.000127 1.000000 0.013718 0.004272 1.000000 0.011808 0.008913 1.000000 0.012553 0.013515 1.000000 0.008971 0.018707 1.000000 0.007760 0.023582 1.000000 0.002349 0.029084 1.000000 -0.001003 0.033958 1.000000 -0.008310 0.039427 1.000000 -0.013872 0.043935 1.000000 -0.023012 0.048935 1.000000 -0.030693 0.052629 1.000000 -0.041433 0.056643 1.000000 -0.050940 0.059024 1.000000 -0.062841 0.061498 1.000000 -0.073655 0.062065 1.000000 -0.086061 0.062473 1.000000 -0.097429 0.060798 1.000000 -0.109489 0.058719 1.000000 -0.120462 0.054529 1.000000 -0.131182 0.049740 1.000000 -0.140691 0.042999 1.000000 -0.149039 0.035546 1.000000 -0.156009 0.026504 1.000000 -0.161043 0.016737 1.000000 -0.164526 0.005930 1.000000 -0.165521 -0.005520 1.000000 -0.164822 -0.017322 1.000000 -0.161368 -0.029615 1.000000 -0.156123 -0.041497 1.000000 -0.148165 -0.053677 1.000000 -0.138373 -0.064669 1.000000 -0.126207 -0.075738 1.000000 -0.112222 -0.084867 1.000000 -0.096475 -0.093825 1.000000 -0.079002 -0.100132 1.000000 -0.060637 -0.105987 1.000000 -0.040752 -0.108555 1.000000 -0.021108 -0.110380 1.000000 -0.000316 -0.108453 1.000000 0.018841 -0.105570 1.000000 0.038610 -0.098837 1.000000 0.055152 -0.091174 1.000000 0.071735 -0.080188 1.000000 0.083531 -0.068690 1.000000 0.095078 -0.055171 1.000000 0.100682 -0.041919 1.000000 0.106424 -0.028510 1.000000 0.105811 -0.016189 1.000000 0.106492 -0.005500 1.000000 0.101187 0.003679 1.000000 0.098532 0.010116 1.000000 0.090864 0.015126 1.000000 0.086563 0.016830 1.000000 0.079023 0.017658 1.000000 0.074914 0.014873 1.000000 0.070115 0.012939 1.000000 0.067836 0.008104 1.000000 0.066485 0.005602 1.000000 0.065847 0.001166 1.000000 0.066869 0.000382 1.000000 0.067170 -0.001676 1.000000 0.069255 0.000071 1.000000 0.068973 0.000877 1.000000 0.071362 0.005058 1.000000 0.069788 0.009076 1.000000 0.071123 0.015267 1.000000 0.067312 0.021798 1.000000 0.064996 0.028081 1.000000 0.058559 0.031819 1.000000 0.055433 0.035527 1.000000 0.048020 0.037325 1.000000 0.044546 0.039548 1.000000 0.036254 0.040588 1.000000 0.032157 0.041880 1.000000 0.023113 0.042371 1.000000 0.018488 0.042816 1.000000 0.009061 0.042716 1.000000 0.004215 0.042382 1.000000 -0.005210 0.041718 1.000000 -0.009976 0.040736 1.000000 -0.019100 0.039606 1.000000 -0.023568 0.038125 1.000000 -0.032185 0.036648 1.000000 -0.036212 0.034796 1.000000 -0.044177 0.033076 1.000000 -0.047671 0.030946 1.000000 -0.054876 0.029061 1.000000 -0.057780 0.026717 1.000000 -0.064135 0.024726 1.000000 -0.066410 0.022211 1.000000 -0.071836 0.020157 1.000000 
-0.069271 0.021234 1.000000 -0.073287 0.018892 1.000000 -0.074351 0.015239 1.000000 -0.077431 0.012908 1.000000 -0.077782 0.009137 1.000000 -0.079879 0.006857 1.000000 -0.079517 0.003025 1.000000 -0.080601 0.000840 1.000000 -0.079544 -0.002985 1.000000 -0.079604 -0.005029 1.000000 -0.077885 -0.008769 1.000000 -0.076932 -0.010623 1.000000 -0.074603 -0.014195 1.000000 -0.072672 -0.015810 1.000000 -0.069800 -0.019128 1.000000 -0.066952 -0.020455 1.000000 -0.063621 -0.023433 1.000000 -0.059941 -0.024424 1.000000 -0.056248 -0.026973 1.000000 -0.051843 -0.027583 1.000000 -0.047898 -0.029619 1.000000 -0.042901 -0.029799 1.000000 -0.038827 -0.031237 1.000000 -0.033393 -0.030938 1.000000 -0.029326 -0.031693 1.000000 -0.023634 -0.030861 1.000000 -0.019726 -0.030851 1.000000 -0.013982 -0.029430 1.000000 -0.010403 -0.028574 1.000000 -0.004843 -0.026508 1.000000 -0.001784 -0.024734 1.000000 0.003329 -0.021971 1.000000 0.005651 -0.019225 1.000000 0.010026 -0.015732 1.000000 0.011374 -0.011987 1.000000 0.014695 -0.007760 1.000000 0.014815 -0.003037 1.000000 0.016754 0.001876 1.000000 0.015389 0.007490 1.000000 0.015625 0.012971 1.000000 0.012534 0.019302 1.000000 0.010777 0.025141 1.000000 0.005770 0.031906 1.000000 0.001800 0.037783 1.000000 -0.005229 0.044580 1.000000 -0.011515 0.050063 1.000000 -0.020541 0.056370 1.000000 -0.029082 0.060919 1.000000 -0.039895 0.066111 1.000000 -0.050415 0.069116 1.000000 -0.062589 0.072518 1.000000 -0.074561 0.073359 1.000000 -0.087425 0.074315 1.000000 -0.100060 0.072452 1.000000 -0.112716 0.070431 1.000000 -0.124996 0.065511 1.000000 -0.136379 0.060213 1.000000 -0.147142 0.052174 1.000000 -0.156135 0.043628 1.000000 -0.164209 0.032762 1.000000 -0.169790 0.021370 1.000000 -0.174157 0.008328 1.000000 -0.175555 -0.005159 1.000000 -0.175492 -0.019440 1.000000 -0.172293 -0.034008 1.000000 -0.167456 -0.048420 1.000000 -0.159632 -0.062911 1.000000 -0.150056 -0.076282 1.000000 -0.137933 -0.089484 1.000000 -0.123987 -0.100645 1.000000 -0.108186 -0.111339 1.000000 -0.090530 -0.119131 1.000000 -0.071958 -0.126098 1.000000 -0.051574 -0.129378 1.000000 -0.031506 -0.131457 1.000000 -0.009823 -0.129217 1.000000 0.009956 -0.125518 1.000000 0.030937 -0.117223 1.000000 0.048103 -0.107602 1.000000 0.065906 -0.093763 1.000000 0.077965 -0.079411 1.000000 0.090223 -0.062107 1.000000 0.095438 -0.045772 1.000000 0.100951 -0.028496 1.000000 0.099419 -0.013687 1.000000 0.098970 -0.000107 1.000000 0.092734 0.010633 1.000000 0.088606 0.018267 1.000000 0.080145 0.024242 1.000000 0.074674 0.025248 1.000000 0.066035 0.026222 1.000000 0.061640 0.020988 1.000000 0.056073 0.017998 1.000000 0.053789 0.010390 1.000000 0.051488 0.007153 1.000000 0.051445 0.001242 1.000000 0.052003 -0.000100 1.000000 0.052590 -0.002675 1.000000 0.054445 -0.000262 1.000000 0.054742 0.000371 1.000000 0.057625 0.005593 1.000000 0.057381 0.010041 1.000000 0.060031 0.017649 1.000000 0.058284 0.026171 1.000000 0.055677 0.033958 1.000000 0.050886 0.038029 1.000000 0.048414 0.042296 1.000000 0.042911 0.044313 1.000000 0.040128 0.047093 1.000000 0.033423 0.048556 1.000000 0.029624 0.050299 1.000000 0.021843 0.051141 1.000000 0.017229 0.051779 1.000000 0.008897 0.051841 1.000000 0.003932 0.051447 1.000000 -0.004470 0.050777 1.000000 -0.009403 0.049539 1.000000 -0.017554 0.048292 1.000000 -0.022203 0.046412 1.000000 -0.029905 0.044751 1.000000 -0.034116 0.042389 1.000000 -0.041241 0.040447 1.000000 -0.044920 0.037715 1.000000 -0.051376 0.035587 1.000000 -0.054459 0.032557 1.000000 -0.060170 0.030312 1.000000 -0.062611 0.027033 1.000000 -0.067507 0.024720 1.000000 