# vtk DataFile Version 2.0
Comment goes here
ASCII

DATASET STRUCTURED_POINTS
DIMENSIONS    128   128   1

ORIGIN    0.000   0.000   0.000
SPACING   0.0156250.015625   1.000

POINT_DATA   16384
VECTORS u double

-0.021647 0.000001 1.000000 -0.022906 0.000000 1.000000 -0.023331 0.000001 1.000000 -0.024260 0.000000 1.000000 -0.024497 0.000001 1.000000 -0.025094 0.000000 1.000000 -0.025149 0.000001 1.000000 -0.025414 0.000000 1.000000 -0.025297 0.000001 1.000000 -0.025235 -0.000000 1.000000 -0.024956 0.000001 1.000000 -0.024578 -0.000000 1.000000 -0.024152 0.000000 1.000000 -0.023475 -0.000000 1.000000 -0.022917 0.000000 1.000000 -0.021966 -0.000000 1.000000 -0.021297 0.000000 1.000000 -0.020101 -0.000000 1.000000 -0.019347 0.000000 1.000000 -0.017943 -0.000001 1.000000 -0.017130 0.000000 1.000000 -0.015563 -0.000001 1.000000 -0.014726 -0.000000 1.000000 -0.013047 -0.000001 1.000000 -0.012222 -0.000000 1.000000 -0.010488 -0.000001 1.000000 -0.009718 -0.000000 1.000000 -0.007995 -0.000000 1.000000 -0.007327 0.000000 1.000000 -0.005684 -0.000000 1.000000 -0.005172 0.000000 1.000000 -0.003685 0.000000 1.000000 -0.003386 0.000001 1.000000 -0.002134 0.000000 1.000000 -0.002109 0.000001 1.000000 -0.001171 0.000001 1.000000 -0.001480 0.000001 1.000000 -0.000932 0.000001 1.000000 -0.001633 0.000002 1.000000 -0.001543 0.000002 1.000000 -0.002682 0.000002 1.000000 -0.003100 0.000003 1.000000 -0.004707 0.000003 1.000000 -0.005661 0.000003 1.000000 -0.007736 0.000003 1.000000 -0.009217 0.000004 1.000000 -0.011728 0.000003 1.000000 -0.013684 0.000004 1.000000 -0.016550 0.000003 1.000000 -0.018875 0.000004 1.000000 -0.021966 0.000003 1.000000 -0.024502 0.000003 1.000000 -0.027634 0.000002 1.000000 -0.030170 0.000002 1.000000 -0.033115 0.000001 1.000000 -0.035401 0.000001 1.000000 -0.037901 -0.000001 1.000000 -0.039668 -0.000001 1.000000 -0.041458 -0.000003 1.000000 -0.042444 -0.000004 1.000000 -0.043281 -0.000006 1.000000 -0.043262 -0.000007 1.000000 -0.042954 -0.000009 1.000000 -0.041772 -0.000010 1.000000 -0.040203 -0.000012 1.000000 -0.037782 -0.000014 1.000000 -0.034929 -0.000016 1.000000 -0.031295 -0.000017 1.000000 -0.027240 -0.000019 1.000000 -0.022520 -0.000020 1.000000 -0.017456 -0.000022 1.000000 -0.011887 -0.000022 1.000000 -0.006117 -0.000023 1.000000 -0.000042 -0.000023 1.000000 0.006023 -0.000024 1.000000 0.012168 -0.000023 1.000000 0.018034 -0.000023 1.000000 0.023752 -0.000022 1.000000 0.028895 -0.000021 1.000000 0.033701 -0.000019 1.000000 0.037661 -0.000018 1.000000 0.041178 -0.000015 1.000000 0.043670 -0.000014 1.000000 0.045735 -0.000011 1.000000 0.046743 -0.000010 1.000000 0.047457 -0.000007 1.000000 0.047255 -0.000006 1.000000 0.046955 -0.000004 1.000000 0.046041 -0.000003 1.000000 0.045198 -0.000002 1.000000 0.044145 -0.000001 1.000000 0.043214 -0.000000 1.000000 0.042495 0.000000 1.000000 0.041762 0.000000 1.000000 0.041582 0.000001 1.000000 0.041068 0.000001 1.000000 0.041301 0.000001 1.000000 0.040775 0.000001 1.000000 0.041045 0.000001 1.000000 0.040141 0.000002 1.000000 0.039988 0.000002 1.000000 0.038374 0.000002 1.000000 0.037439 0.000002 1.000000 0.034965 0.000003 1.000000 0.033189 0.000003 1.000000 0.029999 0.000003 1.000000 0.027699 0.000003 1.000000 0.024127 0.000002 1.000000 0.021668 0.000002 1.000000 0.017995 0.000002 1.000000 0.015598 0.000002 1.000000 0.011988 0.000001 1.000000 0.009747 0.000001 1.000000 0.006282 0.000001 1.000000 0.004231 0.000001 1.000000 0.000962 0.000001 1.000000 -0.000888 0.000001 1.000000 -0.003926 0.000001 1.000000 -0.005569 0.000001 1.000000 -0.008348 0.000000 1.000000 -0.009781 0.000001 1.000000 -0.012281 0.000000 1.000000 -0.013506 0.000001 1.000000 -0.015712 0.000000 1.000000 -0.016730 0.000001 1.000000 -0.018630 0.000000 1.000000 -0.019446 0.000001 1.000000 -0.021029 0.000000 1.000000 
-0.018871 0.000939 1.000000 -0.019963 0.000842 1.000000 -0.020448 0.000678 1.000000 -0.021263 0.000583 1.000000 -0.021549 0.000417 1.000000 -0.022086 0.000326 1.000000 -0.022177 0.000161 1.000000 -0.022439 0.000074 1.000000 -0.022344 -0.000089 1.000000 -0.022335 -0.000170 1.000000 -0.022066 -0.000328 1.000000 -0.021796 -0.000402 1.000000 -0.021364 -0.000551 1.000000 -0.020849 -0.000617 1.000000 -0.020273 -0.000754 1.000000 -0.019531 -0.000810 1.000000 -0.018832 -0.000932 1.000000 -0.017890 -0.000976 1.000000 -0.017091 -0.001079 1.000000 -0.015981 -0.001109 1.000000 -0.015112 -0.001190 1.000000 -0.013873 -0.001203 1.000000 -0.012967 -0.001258 1.000000 -0.011642 -0.001253 1.000000 -0.010737 -0.001279 1.000000 -0.009378 -0.001252 1.000000 -0.008518 -0.001247 1.000000 -0.007182 -0.001196 1.000000 -0.006415 -0.001155 1.000000 -0.005166 -0.001078 1.000000 -0.004546 -0.000999 1.000000 -0.003453 -0.000893 1.000000 -0.003039 -0.000775 1.000000 -0.002176 -0.000638 1.000000 -0.002028 -0.000481 1.000000 -0.001469 -0.000313 1.000000 -0.001651 -0.000118 1.000000 -0.001469 0.000078 1.000000 -0.002038 0.000307 1.000000 -0.002297 0.000526 1.000000 -0.003301 0.000781 1.000000 -0.004050 0.001015 1.000000 -0.005522 0.001283 1.000000 -0.006786 0.001518 1.000000 -0.008730 0.001782 1.000000 -0.010500 0.002000 1.000000 -0.012884 0.002236 1.000000 -0.015107 0.002415 1.000000 -0.017854 0.002599 1.000000 -0.020425 0.002712 1.000000 -0.023406 0.002816 1.000000 -0.026165 0.002837 1.000000 -0.029200 0.002836 1.000000 -0.031936 0.002743 1.000000 -0.034796 0.002617 1.000000 -0.037258 0.002394 1.000000 -0.039687 0.002133 1.000000 -0.041603 0.001777 1.000000 -0.043337 0.001385 1.000000 -0.044447 0.000907 1.000000 -0.045242 0.000403 1.000000 -0.045323 -0.000170 1.000000 -0.044990 -0.000755 1.000000 -0.043886 -0.001386 1.000000 -0.042311 -0.002008 1.000000 -0.039950 -0.002651 1.000000 -0.037111 -0.003260 1.000000 -0.033521 -0.003862 1.000000 -0.029498 -0.004407 1.000000 -0.024807 -0.004913 1.000000 -0.019789 -0.005339 1.000000 -0.014229 -0.005692 1.000000 -0.008513 -0.005947 1.000000 -0.002419 -0.006094 1.000000 0.003595 -0.006129 1.000000 0.009788 -0.006029 1.000000 0.015614 -0.005815 1.000000 0.021409 -0.005453 1.000000 0.026529 -0.004996 1.000000 0.031430 -0.004402 1.000000 0.035385 -0.003756 1.000000 0.039001 -0.003020 1.000000 0.041503 -0.002292 1.000000 0.043659 -0.001547 1.000000 0.044687 -0.000870 1.000000 0.045488 -0.000263 1.000000 0.045308 0.000245 1.000000 0.045109 0.000603 1.000000 0.044203 0.000876 1.000000 0.043496 0.000947 1.000000 0.042426 0.000992 1.000000 0.041677 0.000825 1.000000 0.040909 0.000726 1.000000 0.040399 0.000457 1.000000 0.040140 0.000348 1.000000 0.039879 0.000142 1.000000 0.040020 0.000148 1.000000 0.039773 0.000130 1.000000 0.039950 0.000318 1.000000 0.039360 0.000530 1.000000 0.039117 0.000886 1.000000 0.037854 0.001277 1.000000 0.036816 0.001707 1.000000 0.034716 0.002128 1.000000 0.032811 0.002486 1.000000 0.030012 0.002748 1.000000 0.027585 0.002939 1.000000 0.024427 0.003018 1.000000 0.021854 0.003068 1.000000 0.018611 0.003037 1.000000 0.016109 0.003006 1.000000 0.012929 0.002927 1.000000 0.010585 0.002854 1.000000 0.007543 0.002759 1.000000 0.005386 0.002661 1.000000 0.002524 0.002560 1.000000 0.000568 0.002445 1.000000 -0.002081 0.002341 1.000000 -0.003829 0.002212 1.000000 -0.006244 0.002107 1.000000 -0.007779 0.001968 1.000000 -0.009944 0.001863 1.000000 -0.011265 0.001716 1.000000 -0.013170 0.001612 1.000000 -0.014278 0.001460 1.000000 -0.015917 0.001358 1.000000 -0.016814 0.001200 1.000000 -0.018181 0.001101 1.000000 
-0.021907 0.001783 1.000000 -0.023169 0.001578 1.000000 -0.023590 0.001301 1.000000 -0.024521 0.001101 1.000000 -0.024754 0.000823 1.000000 -0.025351 0.000629 1.000000 -0.025402 0.000354 1.000000 -0.025664 0.000167 1.000000 -0.025541 -0.000103 1.000000 -0.025474 -0.000279 1.000000 -0.025188 -0.000539 1.000000 -0.024802 -0.000701 1.000000 -0.024367 -0.000947 1.000000 -0.023678 -0.001092 1.000000 -0.023110 -0.001317 1.000000 -0.022143 -0.001442 1.000000 -0.021463 -0.001641 1.000000 -0.020248 -0.001741 1.000000 -0.019479 -0.001909 1.000000 -0.018053 -0.001979 1.000000 -0.017225 -0.002109 1.000000 -0.015632 -0.002146 1.000000 -0.014776 -0.002231 1.000000 -0.013068 -0.002230 1.000000 -0.012221 -0.002264 1.000000 -0.010456 -0.002220 1.000000 -0.009662 -0.002196 1.000000 -0.007903 -0.002103 1.000000 -0.007209 -0.002016 1.000000 -0.005528 -0.001869 1.000000 -0.004988 -0.001712 1.000000 -0.003461 -0.001507 1.000000 -0.003132 -0.001277 1.000000 -0.001840 -0.001010 1.000000 -0.001784 -0.000705 1.000000 -0.000808 -0.000376 1.000000 -0.001088 0.000001 1.000000 -0.000507 0.000388 1.000000 -0.001184 0.000830 1.000000 -0.001068 0.001266 1.000000 -0.002192 0.001756 1.000000 -0.002597 0.002223 1.000000 -0.004201 0.002739 1.000000 -0.005159 0.003211 1.000000 -0.007251 0.003717 1.000000 -0.008757 0.004157 1.000000 -0.011306 0.004610 1.000000 -0.013311 0.004973 1.000000 -0.016240 0.005321 1.000000 -0.018642 0.005556 1.000000 -0.021820 0.005744 1.000000 -0.024457 0.005797 1.000000 -0.027699 0.005773 1.000000 -0.030355 0.005599 1.000000 -0.033424 0.005323 1.000000 -0.035839 0.004891 1.000000 -0.038466 0.004345 1.000000 -0.040358 0.003649 1.000000 -0.042265 0.002840 1.000000 -0.043359 0.001902 1.000000 -0.044289 0.000871 1.000000 -0.044349 -0.000259 1.000000 -0.044101 -0.001446 1.000000 -0.042958 -0.002690 1.000000 -0.041407 -0.003948 1.000000 -0.038984 -0.005213 1.000000 -0.036104 -0.006445 1.000000 -0.032423 -0.007629 1.000000 -0.028296 -0.008733 1.000000 -0.023488 -0.009729 1.000000 -0.018307 -0.010600 1.000000 -0.012609 -0.011299 1.000000 -0.006684 -0.011833 1.000000 -0.000447 -0.012130 1.000000 0.005802 -0.012231 1.000000 0.012127 -0.012042 1.000000 0.018181 -0.011644 1.000000 0.024068 -0.010937 1.000000 0.029367 -0.010042 1.000000 0.034290 -0.008874 1.000000 0.038327 -0.007588 1.000000 0.041871 -0.006133 1.000000 0.044325 -0.004672 1.000000 0.046306 -0.003196 1.000000 0.047154 -0.001838 1.000000 0.047688 -0.000628 1.000000 0.047236 0.000373 1.000000 0.046706 0.001101 1.000000 0.045509 0.001609 1.000000 0.044438 0.001776 1.000000 0.043139 0.001818 1.000000 0.042038 0.001517 1.000000 0.041171 0.001279 1.000000 0.040361 0.000769 1.000000 0.040154 0.000520 1.000000 0.039651 0.000121 1.000000 0.039959 0.000107 1.000000 0.039503 0.000071 1.000000 0.039904 0.000414 1.000000 0.039094 0.000834 1.000000 0.039085 0.001509 1.000000 0.037555 0.002304 1.000000 0.036711 0.003140 1.000000 0.034276 0.004008 1.000000 0.032494 0.004707 1.000000 0.029312 0.005230 1.000000 0.027012 0.005588 1.000000 0.023472 0.005733 1.000000 0.021057 0.005818 1.000000 0.017436 0.005747 1.000000 0.015101 0.005683 1.000000 0.011536 0.005525 1.000000 0.009348 0.005388 1.000000 0.005912 0.005200 1.000000 0.003896 0.005019 1.000000 0.000642 0.004818 1.000000 -0.001186 0.004606 1.000000 -0.004218 0.004398 1.000000 -0.005847 0.004163 1.000000 -0.008625 0.003950 1.000000 -0.010050 0.003701 1.000000 -0.012551 0.003487 1.000000 -0.013770 0.003227 1.000000 -0.015978 0.003014 1.000000 -0.016991 0.002747 1.000000 -0.018894 0.002536 1.000000 -0.019706 0.002265 1.000000 -0.021292 0.002057 1.000000 
-0.019353 0.002816 1.000000 -0.020447 0.002525 1.000000 -0.020927 0.002030 1.000000 -0.021742 0.001747 1.000000 -0.022021 0.001247 1.000000 -0.022556 0.000974 1.000000 -0.022640 0.000474 1.000000 -0.022895 0.000213 1.000000 -0.022790 -0.000279 1.000000 -0.022772 -0.000524 1.000000 -0.022488 -0.001000 1.000000 -0.022204 -0.001224 1.000000 -0.021755 -0.001675 1.000000 -0.021220 -0.001874 1.000000 -0.020623 -0.002289 1.000000 -0.019855 -0.002458 1.000000 -0.019131 -0.002828 1.000000 -0.018157 -0.002960 1.000000 -0.017329 -0.003274 1.000000 -0.016182 -0.003363 1.000000 -0.015279 -0.003611 1.000000 -0.013995 -0.003652 1.000000 -0.013051 -0.003823 1.000000 -0.011675 -0.003807 1.000000 -0.010727 -0.003891 1.000000 -0.009310 -0.003812 1.000000 -0.008401 -0.003800 1.000000 -0.007001 -0.003649 1.000000 -0.006181 -0.003530 1.000000 -0.004862 -0.003299 1.000000 -0.004184 -0.003067 1.000000 -0.003018 -0.002748 1.000000 -0.002542 -0.002396 1.000000 -0.001604 -0.001986 1.000000 -0.001394 -0.001513 1.000000 -0.000763 -0.001009 1.000000 -0.000886 -0.000419 1.000000 -0.000640 0.000173 1.000000 -0.001159 0.000868 1.000000 -0.001369 0.001534 1.000000 -0.002341 0.002311 1.000000 -0.003065 0.003025 1.000000 -0.004530 0.003845 1.000000 -0.005802 0.004567 1.000000 -0.007774 0.005379 1.000000 -0.009595 0.006054 1.000000 -0.012051 0.006791 1.000000 -0.014374 0.007349 1.000000 -0.017244 0.007930 1.000000 -0.019968 0.008292 1.000000 -0.023122 0.008632 1.000000 -0.026084 0.008716 1.000000 -0.029335 0.008734 1.000000 -0.032311 0.008468 1.000000 -0.035417 0.008101 1.000000 -0.038137 0.007436 1.000000 -0.040818 0.006652 1.000000 -0.042984 0.005576 1.000000 -0.044949 0.004386 1.000000 -0.046273 0.002932 1.000000 -0.047253 0.001394 1.000000 -0.047487 -0.000359 1.000000 -0.047270 -0.002146 1.000000 -0.046243 -0.004080 1.000000 -0.044702 -0.005982 1.000000 -0.042335 -0.007954 1.000000 -0.039443 -0.009821 1.000000 -0.035763 -0.011670 1.000000 -0.031602 -0.013343 1.000000 -0.026740 -0.014902 1.000000 -0.021501 -0.016217 1.000000 -0.015693 -0.017316 1.000000 -0.009680 -0.018110 1.000000 -0.003273 -0.018580 1.000000 0.003094 -0.018702 1.000000 0.009641 -0.018407 1.000000 0.015832 -0.017756 1.000000 0.021966 -0.016639 1.000000 0.027390 -0.015218 1.000000 0.032533 -0.013363 1.000000 0.036639 -0.011337 1.000000 0.040314 -0.009018 1.000000 0.042743 -0.006727 1.000000 0.044727 -0.004376 1.000000 0.045447 -0.002252 1.000000 0.045873 -0.000345 1.000000 0.045213 0.001227 1.000000 0.044536 0.002331 1.000000 0.043088 0.003144 1.000000 0.041924 0.003316 1.000000 0.040373 0.003392 1.000000 0.039298 0.002793 1.000000 0.038232 0.002404 1.000000 0.037573 0.001474 1.000000 0.037243 0.001058 1.000000 0.036998 0.000337 1.000000 0.037263 0.000295 1.000000 0.037134 0.000184 1.000000 0.037556 0.000727 1.000000 0.037137 0.001350 1.000000 0.037186 0.002425 1.000000 0.036100 0.003650 1.000000 0.035261 0.004986 1.000000 0.033260 0.006345 1.000000 0.031332 0.007450 1.000000 0.028566 0.008231 1.000000 0.026144 0.008779 1.000000 0.023074 0.008973 1.000000 0.020605 0.009104 1.000000 0.017484 0.008993 1.000000 0.015114 0.008906 1.000000 0.012036 0.008680 1.000000 0.009798 0.008478 1.000000 0.006820 0.008210 1.000000 0.004733 0.007931 1.000000 0.001905 0.007642 1.000000 -0.000009 0.007305 1.000000 -0.002642 0.007002 1.000000 -0.004365 0.006619 1.000000 -0.006772 0.006310 1.000000 -0.008292 0.005894 1.000000 -0.010454 0.005583 1.000000 -0.011764 0.005143 1.000000 -0.013669 0.004834 1.000000 -0.014769 0.004376 1.000000 -0.016409 0.004073 1.000000 -0.017300 0.003599 1.000000 -0.018669 0.003302 1.000000 
-0.022688 0.003561 1.000000 -0.023958 0.003152 1.000000 -0.024370 0.002596 1.000000 -0.025306 0.002195 1.000000 -0.025529 0.001637 1.000000 -0.026124 0.001247 1.000000 -0.026163 0.000693 1.000000 -0.026417 0.000318 1.000000 -0.026278 -0.000227 1.000000 -0.026195 -0.000581 1.000000 -0.025889 -0.001107 1.000000 -0.025477 -0.001434 1.000000 -0.025016 -0.001931 1.000000 -0.024293 -0.002224 1.000000 -0.023694 -0.002682 1.000000 -0.022682 -0.002934 1.000000 -0.021965 -0.003339 1.000000 -0.020694 -0.003542 1.000000 -0.019883 -0.003884 1.000000 -0.018391 -0.004029 1.000000 -0.017513 -0.004295 1.000000 -0.015844 -0.004374 1.000000 -0.014931 -0.004551 1.000000 -0.013137 -0.004554 1.000000 -0.012226 -0.004629 1.000000 -0.010364 -0.004545 1.000000 -0.009498 -0.004505 1.000000 -0.007634 -0.004324 1.000000 -0.006859 -0.004155 1.000000 -0.005065 -0.003866 1.000000 -0.004437 -0.003557 1.000000 -0.002791 -0.003149 1.000000 -0.002370 -0.002691 1.000000 -0.000956 -0.002158 1.000000 -0.000807 -0.001546 1.000000 0.000287 -0.000885 1.000000 0.000094 -0.000123 1.000000 0.000781 0.000661 1.000000 0.000179 0.001559 1.000000 0.000377 0.002448 1.000000 -0.000698 0.003452 1.000000 -0.001058 0.004412 1.000000 -0.002651 0.005476 1.000000 -0.003614 0.006455 1.000000 -0.005749 0.007510 1.000000 -0.007325 0.008434 1.000000 -0.009984 0.009390 1.000000 -0.012136 0.010166 1.000000 -0.015252 0.010915 1.000000 -0.017882 0.011434 1.000000 -0.021325 0.011860 1.000000 -0.024268 0.012010 1.000000 -0.027842 0.012000 1.000000 -0.030863 0.011681 1.000000 -0.034311 0.011149 1.000000 -0.037121 0.010292 1.000000 -0.040137 0.009192 1.000000 -0.042415 0.007780 1.000000 -0.044681 0.006129 1.000000 -0.046108 0.004206 1.000000 -0.047327 0.002085 1.000000 -0.047628 -0.000241 1.000000 -0.047563 -0.002691 1.000000 -0.046545 -0.005259 1.000000 -0.045051 -0.007857 1.000000 -0.042624 -0.010472 1.000000 -0.039668 -0.013017 1.000000 -0.035853 -0.015470 1.000000 -0.031515 -0.017756 1.000000 -0.026448 -0.019830 1.000000 -0.020926 -0.021646 1.000000 -0.014852 -0.023120 1.000000 -0.008466 -0.024253 1.000000 -0.001750 -0.024904 1.000000 0.005049 -0.025144 1.000000 0.011913 -0.024781 1.000000 0.018542 -0.023970 1.000000 0.024945 -0.022495 1.000000 0.030728 -0.020609 1.000000 0.036014 -0.018123 1.000000 0.040298 -0.015369 1.000000 0.043920 -0.012237 1.000000 0.046258 -0.009085 1.000000 0.047967 -0.005900 1.000000 0.048312 -0.002984 1.000000 0.048277 -0.000395 1.000000 0.047038 0.001710 1.000000 0.045788 0.003226 1.000000 0.043706 0.004222 1.000000 0.041934 0.004491 1.000000 0.039864 0.004444 1.000000 0.038243 0.003657 1.000000 0.036918 0.003004 1.000000 0.035872 0.001758 1.000000 0.035584 0.001095 1.000000 0.035101 0.000102 1.000000 0.035629 -0.000028 1.000000 0.035362 -0.000221 1.000000 0.036140 0.000410 1.000000 0.035586 0.001204 1.000000 0.036026 0.002546 1.000000 0.034766 0.004229 1.000000 0.034252 0.005980 1.000000 0.031972 0.007937 1.000000 0.030149 0.009401 1.000000 0.027030 0.010418 1.000000 0.024773 0.011080 1.000000 0.021397 0.011272 1.000000 0.019177 0.011408 1.000000 0.015753 0.011238 1.000000 0.013635 0.011131 1.000000 0.010217 0.010842 1.000000 0.008190 0.010604 1.000000 0.004836 0.010266 1.000000 0.002922 0.009934 1.000000 -0.000295 0.009560 1.000000 -0.002063 0.009154 1.000000 -0.005082 0.008753 1.000000 -0.006674 0.008293 1.000000 -0.009451 0.007877 1.000000 -0.010851 0.007382 1.000000 -0.013357 0.006959 1.000000 -0.014558 0.006442 1.000000 -0.016773 0.006019 1.000000 -0.017774 0.005487 1.000000 -0.019685 0.005067 1.000000 -0.020487 0.004526 1.000000 -0.022082 0.004110 1.000000 
-0.020319 0.004691 1.000000 -0.021416 0.004207 1.000000 -0.021887 0.003378 1.000000 -0.022703 0.002906 1.000000 -0.022970 0.002065 1.000000 -0.023502 0.001608 1.000000 -0.023570 0.000767 1.000000 -0.023815 0.000329 1.000000 -0.023689 -0.000501 1.000000 -0.023652 -0.000913 1.000000 -0.023341 -0.001718 1.000000 -0.023028 -0.002096 1.000000 -0.022546 -0.002859 1.000000 -0.021970 -0.003196 1.000000 -0.021332 -0.003900 1.000000 -0.020513 -0.004187 1.000000 -0.019739 -0.004815 1.000000 -0.018702 -0.005042 1.000000 -0.017817 -0.005577 1.000000 -0.016593 -0.005733 1.000000 -0.015624 -0.006158 1.000000 -0.014251 -0.006233 1.000000 -0.013231 -0.006530 1.000000 -0.011752 -0.006512 1.000000 -0.010718 -0.006664 1.000000 -0.009186 -0.006541 1.000000 -0.008180 -0.006530 1.000000 -0.006651 -0.006287 1.000000 -0.005723 -0.006099 1.000000 -0.004264 -0.005721 1.000000 -0.003468 -0.005341 1.000000 -0.002152 -0.004816 1.000000 -0.001551 -0.004231 1.000000 -0.000459 -0.003549 1.000000 -0.000121 -0.002756 1.000000 0.000660 -0.001910 1.000000 0.000660 -0.000913 1.000000 0.001043 0.000089 1.000000 0.000629 0.001273 1.000000 0.000528 0.002411 1.000000 -0.000372 0.003745 1.000000 -0.001033 0.004978 1.000000 -0.002476 0.006402 1.000000 -0.003752 0.007665 1.000000 -0.005773 0.009090 1.000000 -0.007685 0.010290 1.000000 -0.010280 0.011602 1.000000 -0.012796 0.012617 1.000000 -0.015907 0.013676 1.000000 -0.018936 0.014365 1.000000 -0.022438 0.015017 1.000000 -0.025810 0.015233 1.000000 -0.029503 0.015329 1.000000 -0.032971 0.014936 1.000000 -0.036583 0.014358 1.000000 -0.039836 0.013263 1.000000 -0.043039 0.011946 1.000000 -0.045724 0.010120 1.000000 -0.048170 0.008079 1.000000 -0.049939 0.005577 1.000000 -0.051302 0.002914 1.000000 -0.051856 -0.000123 1.000000 -0.051880 -0.003229 1.000000 -0.051014 -0.006592 1.000000 -0.049547 -0.009903 1.000000 -0.047172 -0.013338 1.000000 -0.044182 -0.016592 1.000000 -0.040330 -0.019822 1.000000 -0.035904 -0.022748 1.000000 -0.030715 -0.025491 1.000000 -0.025051 -0.027813 1.000000 -0.018769 -0.029776 1.000000 -0.012179 -0.031211 1.000000 -0.005161 -0.032095 1.000000 0.001906 -0.032366 1.000000 0.009160 -0.031901 1.000000 0.016097 -0.030788 1.000000 0.022930 -0.028824 1.000000 0.028993 -0.026287 1.000000 0.034650 -0.022932 1.000000 0.039082 -0.019243 1.000000 0.042883 -0.014979 1.000000 0.045154 -0.010774 1.000000 0.046759 -0.006430 1.000000 0.046810 -0.002562 1.000000 0.046420 0.000929 1.000000 0.044735 0.003716 1.000000 0.043036 0.005663 1.000000 0.040444 0.006998 1.000000 0.038327 0.007158 1.000000 0.035761 0.007083 1.000000 0.034037 0.005739 1.000000 0.032357 0.004774 1.000000 0.031404 0.002809 1.000000 0.030912 0.001829 1.000000 0.030678 0.000292 1.000000 0.031155 0.000035 1.000000 0.031186 -0.000327 1.000000 0.032042 0.000503 1.000000 0.031892 0.001464 1.000000 0.032562 0.003245 1.000000 0.031859 0.005425 1.000000 0.031566 0.007780 1.000000 0.029860 0.010448 1.000000 0.027829 0.012392 1.000000 0.025217 0.013607 1.000000 0.022917 0.014412 1.000000 0.020166 0.014568 1.000000 0.018041 0.014747 1.000000 0.015243 0.014535 1.000000 0.013198 0.014443 1.000000 0.010333 0.014125 1.000000 0.008313 0.013858 1.000000 0.005446 0.013478 1.000000 0.003486 0.013063 1.000000 0.000709 0.012628 1.000000 -0.001133 0.012091 1.000000 -0.003743 0.011613 1.000000 -0.005423 0.010988 1.000000 -0.007819 0.010486 1.000000 -0.009310 0.009799 1.000000 -0.011468 0.009289 1.000000 -0.012758 0.008559 1.000000 -0.014662 0.008051 1.000000 -0.015748 0.007288 1.000000 -0.017390 0.006786 1.000000 -0.018271 0.005996 1.000000 -0.019643 0.005503 1.000000 
-0.023992 0.005333 1.000000 -0.025277 0.004719 1.000000 -0.025676 0.003883 1.000000 -0.026621 0.003279 1.000000 -0.026828 0.002436 1.000000 -0.027424 0.001847 1.000000 -0.027443 0.001006 1.000000 -0.027685 0.000437 1.000000 -0.027521 -0.000390 1.000000 -0.027411 -0.000929 1.000000 -0.027072 -0.001730 1.000000 -0.026618 -0.002230 1.000000 -0.026116 -0.002989 1.000000 -0.025334 -0.003438 1.000000 -0.024685 -0.004139 1.000000 -0.023596 -0.004526 1.000000 -0.022820 -0.005150 1.000000 -0.021455 -0.005464 1.000000 -0.020574 -0.005993 1.000000 -0.018971 -0.006222 1.000000 -0.018013 -0.006638 1.000000 -0.016216 -0.006767 1.000000 -0.015211 -0.007050 1.000000 -0.013271 -0.007067 1.000000 -0.012255 -0.007196 1.000000 -0.010230 -0.007084 1.000000 -0.009245 -0.007039 1.000000 -0.007202 -0.006781 1.000000 -0.006294 -0.006542 1.000000 -0.004307 -0.006121 1.000000 -0.003532 -0.005668 1.000000 -0.001682 -0.005066 1.000000 -0.001103 -0.004384 1.000000 0.000520 -0.003587 1.000000 0.000831 -0.002665 1.000000 0.002130 -0.001666 1.000000 0.002094 -0.000506 1.000000 0.002968 0.000692 1.000000 0.002503 0.002074 1.000000 0.002853 0.003448 1.000000 0.001876 0.005013 1.000000 0.001610 0.006517 1.000000 0.000051 0.008195 1.000000 -0.000903 0.009753 1.000000 -0.003093 0.011442 1.000000 -0.004771 0.012940 1.000000 -0.007600 0.014501 1.000000 -0.009986 0.015794 1.000000 -0.013405 0.017054 1.000000 -0.016415 0.017965 1.000000 -0.020299 0.018733 1.000000 -0.023761 0.019075 1.000000 -0.027902 0.019162 1.000000 -0.031553 0.018762 1.000000 -0.035653 0.018013 1.000000 -0.039151 0.016748 1.000000 -0.042847 0.015081 1.000000 -0.045800 0.012911 1.000000 -0.048696 0.010344 1.000000 -0.050706 0.007338 1.000000 -0.052430 0.004002 1.000000 -0.053156 0.000337 1.000000 -0.053412 -0.003533 1.000000 -0.052616 -0.007592 1.000000 -0.051228 -0.011699 1.000000 -0.048804 -0.015837 1.000000 -0.045731 -0.019859 1.000000 -0.041709 -0.023748 1.000000 -0.037039 -0.027370 1.000000 -0.031565 -0.030683 1.000000 -0.025505 -0.033592 1.000000 -0.018835 -0.035992 1.000000 -0.011712 -0.037861 1.000000 -0.004224 -0.038989 1.000000 0.003481 -0.039466 1.000000 0.011244 -0.038971 1.000000 0.018857 -0.037740 1.000000 0.026152 -0.035391 1.000000 0.032799 -0.032329 1.000000 0.038737 -0.028213 1.000000 0.043480 -0.023602 1.000000 0.047241 -0.018308 1.000000 0.049373 -0.012961 1.000000 0.050561 -0.007556 1.000000 0.049974 -0.002645 1.000000 0.048879 0.001680 1.000000 0.046202 0.005094 1.000000 0.043672 0.007518 1.000000 0.040003 0.008930 1.000000 0.037010 0.009173 1.000000 0.033562 0.008733 1.000000 0.031057 0.007062 1.000000 0.028948 0.005637 1.000000 0.027523 0.003202 1.000000 0.027097 0.001822 1.000000 0.026596 -0.000141 1.000000 0.027446 -0.000536 1.000000 0.027385 -0.001108 1.000000 0.028661 -0.000297 1.000000 0.028373 0.000683 1.000000 0.029577 0.002579 1.000000 0.028777 0.005225 1.000000 0.029085 0.007979 1.000000 0.027247 0.011674 1.000000 0.025254 0.014044 1.000000 0.022446 0.015330 1.000000 0.020505 0.016131 1.000000 0.017671 0.016148 1.000000 0.016015 0.016332 1.000000 0.013038 0.016081 1.000000 0.011360 0.016040 1.000000 0.008185 0.015726 1.000000 0.006419 0.015492 1.000000 0.003167 0.015093 1.000000 0.001394 0.014671 1.000000 -0.001791 0.014179 1.000000 -0.003478 0.013606 1.000000 -0.006491 0.013043 1.000000 -0.008032 0.012370 1.000000 -0.010813 0.011765 1.000000 -0.012176 0.011030 1.000000 -0.014691 0.010407 1.000000 -0.015865 0.009637 1.000000 -0.018094 0.009009 1.000000 -0.019074 0.008215 1.000000 -0.021001 0.007590 1.000000 -0.021788 0.006779 1.000000 -0.023400 0.006158 1.000000 
-0.021768 0.006568 1.000000 -0.022873 0.005891 1.000000 -0.023332 0.004722 1.000000 -0.024153 0.004058 1.000000 -0.024405 0.002869 1.000000 -0.024934 0.002222 1.000000 -0.024980 0.001028 1.000000 -0.025212 0.000407 1.000000 -0.025056 -0.000775 1.000000 -0.024992 -0.001362 1.000000 -0.024642 -0.002511 1.000000 -0.024287 -0.003052 1.000000 -0.023754 -0.004144 1.000000 -0.023120 -0.004628 1.000000 -0.022420 -0.005638 1.000000 -0.021525 -0.006052 1.000000 -0.020677 -0.006956 1.000000 -0.019545 -0.007287 1.000000 -0.018574 -0.008061 1.000000 -0.017237 -0.008295 1.000000 -0.016169 -0.008913 1.000000 -0.014663 -0.009035 1.000000 -0.013530 -0.009475 1.000000 -0.011898 -0.009468 1.000000 -0.010736 -0.009704 1.000000 -0.009029 -0.009551 1.000000 -0.007878 -0.009558 1.000000 -0.006155 -0.009238 1.000000 -0.005063 -0.008994 1.000000 -0.003390 -0.008484 1.000000 -0.002413 -0.007966 1.000000 -0.000868 -0.007245 1.000000 -0.000072 -0.006433 1.000000 0.001259 -0.005483 1.000000 0.001800 -0.004366 1.000000 0.002820 -0.003174 1.000000 0.003019 -0.001752 1.000000 0.003624 -0.000320 1.000000 0.003388 0.001388 1.000000 0.003471 0.003038 1.000000 0.002706 0.004988 1.000000 0.002163 0.006804 1.000000 0.000780 0.008914 1.000000 -0.000476 0.010808 1.000000 -0.002543 0.012958 1.000000 -0.004566 0.014796 1.000000 -0.007346 0.016817 1.000000 -0.010137 0.018422 1.000000 -0.013597 0.020104 1.000000 -0.017078 0.021260 1.000000 -0.021103 0.022363 1.000000 -0.025102 0.022835 1.000000 -0.029476 0.023121 1.000000 -0.033713 0.022688 1.000000 -0.038117 0.021957 1.000000 -0.042214 0.020457 1.000000 -0.046246 0.018594 1.000000 -0.049757 0.015968 1.000000 -0.052971 0.012985 1.000000 -0.055448 0.009312 1.000000 -0.057423 0.005364 1.000000 -0.058481 0.000859 1.000000 -0.058890 -0.003769 1.000000 -0.058275 -0.008776 1.000000 -0.056931 -0.013715 1.000000 -0.054550 -0.018834 1.000000 -0.051427 -0.023687 1.000000 -0.047335 -0.028515 1.000000 -0.042542 -0.032892 1.000000 -0.036905 -0.037025 1.000000 -0.030653 -0.040543 1.000000 -0.023723 -0.043569 1.000000 -0.016325 -0.045822 1.000000 -0.008450 -0.047289 1.000000 -0.000365 -0.047834 1.000000 0.007932 -0.047276 1.000000 0.016011 -0.045696 1.000000 0.023940 -0.042767 1.000000 0.031038 -0.038873 1.000000 0.037550 -0.033613 1.000000 0.042542 -0.027746 1.000000 0.046566 -0.020872 1.000000 0.048569 -0.014094 1.000000 0.049508 -0.007031 1.000000 0.048406 -0.000881 1.000000 0.046589 0.004701 1.000000 0.043203 0.008923 1.000000 0.039802 0.011862 1.000000 0.035390 0.013660 1.000000 0.031780 0.013600 1.000000 0.027581 0.013036 1.000000 0.024986 0.010353 1.000000 0.022408 0.008308 1.000000 0.021061 0.004660 1.000000 0.020284 0.002755 1.000000 0.020000 -0.000058 1.000000 0.020649 -0.000754 1.000000 0.020618 -0.001541 1.000000 0.021824 -0.000486 1.000000 0.021727 0.000548 1.000000 0.023301 0.002841 1.000000 0.023134 0.005917 1.000000 0.024226 0.009310 1.000000 0.023370 0.014279 1.000000 0.020943 0.017193 1.000000 0.018982 0.018355 1.000000 0.017381 0.019187 1.000000 0.015566 0.019058 1.000000 0.014330 0.019381 1.000000 0.012152 0.019191 1.000000 0.010669 0.019295 1.000000 0.008084 0.019065 1.000000 0.006345 0.018876 1.000000 0.003577 0.018503 1.000000 0.001752 0.018021 1.000000 -0.000992 0.017500 1.000000 -0.002760 0.016792 1.000000 -0.005355 0.016167 1.000000 -0.006985 0.015310 1.000000 -0.009372 0.014631 1.000000 -0.010826 0.013677 1.000000 -0.012977 0.012978 1.000000 -0.014241 0.011961 1.000000 -0.016144 0.011260 1.000000 -0.017211 0.010195 1.000000 -0.018857 0.009500 1.000000 -0.019724 0.008395 1.000000 -0.021104 0.007708 1.000000 