# vtk DataFile Version 2.0
Comment goes here
ASCII

DATASET STRUCTURED_POINTS
DIMENSIONS    128   128   1

ORIGIN    0.000   0.000   0.000
SPACING   0.0156250.015625   1.000

POINT_DATA   16384
VECTORS u double

-0.018662 0.000001 1.000000 -0.019749 0.000000 1.000000 -0.020131 0.000001 1.000000 -0.020936 0.000000 1.000000 -0.021161 0.000001 1.000000 -0.021682 0.000000 1.000000 -0.021756 0.000001 1.000000 -0.021993 0.000000 1.000000 -0.021923 0.000000 1.000000 -0.021881 -0.000000 1.000000 -0.021676 0.000000 1.000000 -0.021364 -0.000000 1.000000 -0.021035 0.000000 1.000000 -0.020467 -0.000000 1.000000 -0.020028 0.000000 1.000000 -0.019226 -0.000000 1.000000 -0.018693 0.000000 1.000000 -0.017681 -0.000000 1.000000 -0.017075 0.000000 1.000000 -0.015885 -0.000000 1.000000 -0.015229 -0.000000 1.000000 -0.013898 -0.000001 1.000000 -0.013220 -0.000000 1.000000 -0.011790 -0.000001 1.000000 -0.011120 -0.000000 1.000000 -0.009641 -0.000001 1.000000 -0.009014 -0.000000 1.000000 -0.007541 -0.000000 1.000000 -0.006996 -0.000000 1.000000 -0.005586 -0.000000 1.000000 -0.005169 0.000000 1.000000 -0.003885 -0.000000 1.000000 -0.003642 0.000000 1.000000 -0.002551 0.000000 1.000000 -0.002534 0.000001 1.000000 -0.001702 0.000001 1.000000 -0.001959 0.000001 1.000000 -0.001450 0.000001 1.000000 -0.002031 0.000001 1.000000 -0.001900 0.000001 1.000000 -0.002843 0.000002 1.000000 -0.003134 0.000002 1.000000 -0.004464 0.000002 1.000000 -0.005198 0.000002 1.000000 -0.006917 0.000002 1.000000 -0.008089 0.000003 1.000000 -0.010168 0.000002 1.000000 -0.011733 0.000003 1.000000 -0.014108 0.000002 1.000000 -0.015979 0.000003 1.000000 -0.018540 0.000002 1.000000 -0.020586 0.000002 1.000000 -0.023182 0.000002 1.000000 -0.025227 0.000002 1.000000 -0.027667 0.000001 1.000000 -0.029504 0.000000 1.000000 -0.031571 -0.000001 1.000000 -0.032977 -0.000001 1.000000 -0.034451 -0.000003 1.000000 -0.035207 -0.000003 1.000000 -0.035883 -0.000005 1.000000 -0.035805 -0.000006 1.000000 -0.035522 -0.000007 1.000000 -0.034477 -0.000008 1.000000 -0.033136 -0.000010 1.000000 -0.031063 -0.000011 1.000000 -0.028642 -0.000013 1.000000 -0.025559 -0.000014 1.000000 -0.022124 -0.000015 1.000000 -0.018136 -0.000016 1.000000 -0.013843 -0.000017 1.000000 -0.009144 -0.000018 1.000000 -0.004244 -0.000019 1.000000 0.000885 -0.000019 1.000000 0.006051 -0.000019 1.000000 0.011246 -0.000019 1.000000 0.016262 -0.000019 1.000000 0.021108 -0.000018 1.000000 0.025529 -0.000017 1.000000 0.029612 -0.000015 1.000000 0.033040 -0.000014 1.000000 0.036035 -0.000013 1.000000 0.038217 -0.000011 1.000000 0.039976 -0.000009 1.000000 0.040888 -0.000008 1.000000 0.041490 -0.000006 1.000000 0.041361 -0.000005 1.000000 0.041093 -0.000004 1.000000 0.040350 -0.000003 1.000000 0.039618 -0.000002 1.000000 0.038758 -0.000001 1.000000 0.037957 -0.000001 1.000000 0.037390 -0.000000 1.000000 0.036765 -0.000000 1.000000 0.036666 0.000000 1.000000 0.036227 0.000000 1.000000 0.036482 0.000000 1.000000 0.036021 0.000001 1.000000 0.036288 0.000001 1.000000 0.035481 0.000001 1.000000 0.035350 0.000001 1.000000 0.033903 0.000002 1.000000 0.033055 0.000002 1.000000 0.030842 0.000002 1.000000 0.029234 0.000002 1.000000 0.026392 0.000002 1.000000 0.024320 0.000002 1.000000 0.021157 0.000002 1.000000 0.018959 0.000002 1.000000 0.015728 0.000001 1.000000 0.013605 0.000001 1.000000 0.010448 0.000001 1.000000 0.008481 0.000001 1.000000 0.005467 0.000001 1.000000 0.003680 0.000001 1.000000 0.000849 0.000000 1.000000 -0.000754 0.000001 1.000000 -0.003377 0.000000 1.000000 -0.004794 0.000001 1.000000 -0.007189 0.000000 1.000000 -0.008424 0.000001 1.000000 -0.010576 0.000000 1.000000 -0.011632 0.000001 1.000000 -0.013530 0.000000 1.000000 -0.014410 0.000001 1.000000 -0.016045 0.000000 1.000000 -0.016755 0.000001 1.000000 -0.018118 0.000000 1.000000 
-0.016161 0.000816 1.000000 -0.017098 0.000735 1.000000 -0.017534 0.000594 1.000000 -0.018237 0.000515 1.000000 -0.018505 0.000373 1.000000 -0.018973 0.000297 1.000000 -0.019079 0.000156 1.000000 -0.019313 0.000083 1.000000 -0.019263 -0.000056 1.000000 -0.019269 -0.000124 1.000000 -0.019071 -0.000258 1.000000 -0.018857 -0.000321 1.000000 -0.018523 -0.000448 1.000000 -0.018101 -0.000503 1.000000 -0.017645 -0.000621 1.000000 -0.017031 -0.000668 1.000000 -0.016470 -0.000772 1.000000 -0.015687 -0.000809 1.000000 -0.015041 -0.000898 1.000000 -0.014115 -0.000924 1.000000 -0.013408 -0.000994 1.000000 -0.012371 -0.001005 1.000000 -0.011631 -0.001054 1.000000 -0.010520 -0.001050 1.000000 -0.009778 -0.001075 1.000000 -0.008636 -0.001053 1.000000 -0.007928 -0.001051 1.000000 -0.006802 -0.001009 1.000000 -0.006169 -0.000977 1.000000 -0.005113 -0.000914 1.000000 -0.004599 -0.000850 1.000000 -0.003670 -0.000763 1.000000 -0.003324 -0.000667 1.000000 -0.002583 -0.000554 1.000000 -0.002456 -0.000424 1.000000 -0.001965 -0.000286 1.000000 -0.002108 -0.000125 1.000000 -0.001928 0.000037 1.000000 -0.002391 0.000226 1.000000 -0.002575 0.000408 1.000000 -0.003397 0.000619 1.000000 -0.003986 0.000812 1.000000 -0.005195 0.001034 1.000000 -0.006209 0.001229 1.000000 -0.007809 0.001447 1.000000 -0.009240 0.001628 1.000000 -0.011206 0.001825 1.000000 -0.013011 0.001973 1.000000 -0.015279 0.002126 1.000000 -0.017371 0.002219 1.000000 -0.019833 0.002306 1.000000 -0.022079 0.002323 1.000000 -0.024587 0.002322 1.000000 -0.026811 0.002244 1.000000 -0.029173 0.002139 1.000000 -0.031167 0.001953 1.000000 -0.033169 0.001735 1.000000 -0.034709 0.001438 1.000000 -0.036130 0.001112 1.000000 -0.036997 0.000713 1.000000 -0.037634 0.000294 1.000000 -0.037645 -0.000187 1.000000 -0.037337 -0.000672 1.000000 -0.036363 -0.001202 1.000000 -0.035013 -0.001718 1.000000 -0.032995 -0.002259 1.000000 -0.030584 -0.002765 1.000000 -0.027542 -0.003273 1.000000 -0.024134 -0.003727 1.000000 -0.020174 -0.004157 1.000000 -0.015921 -0.004514 1.000000 -0.011233 -0.004818 1.000000 -0.006379 -0.005034 1.000000 -0.001238 -0.005166 1.000000 0.003883 -0.005200 1.000000 0.009117 -0.005125 1.000000 0.014098 -0.004950 1.000000 0.019009 -0.004651 1.000000 0.023409 -0.004269 1.000000 0.027575 -0.003771 1.000000 0.030997 -0.003226 1.000000 0.034079 -0.002601 1.000000 0.036267 -0.001982 1.000000 0.038108 -0.001345 1.000000 0.039033 -0.000765 1.000000 0.039715 -0.000243 1.000000 0.039599 0.000193 1.000000 0.039426 0.000502 1.000000 0.038683 0.000735 1.000000 0.038080 0.000794 1.000000 0.037198 0.000830 1.000000 0.036567 0.000684 1.000000 0.035952 0.000596 1.000000 0.035532 0.000362 1.000000 0.035364 0.000269 1.000000 0.035156 0.000093 1.000000 0.035329 0.000104 1.000000 0.035122 0.000098 1.000000 0.035308 0.000271 1.000000 0.034784 0.000470 1.000000 0.034575 0.000790 1.000000 0.033443 0.001149 1.000000 0.032505 0.001533 1.000000 0.030627 0.001913 1.000000 0.028903 0.002227 1.000000 0.026411 0.002459 1.000000 0.024225 0.002620 1.000000 0.021433 0.002683 1.000000 0.019134 0.002716 1.000000 0.016287 0.002679 1.000000 0.014071 0.002641 1.000000 0.011300 0.002563 1.000000 0.009240 0.002491 1.000000 0.006606 0.002401 1.000000 0.004724 0.002310 1.000000 0.002259 0.002217 1.000000 0.000562 0.002113 1.000000 -0.001713 0.002021 1.000000 -0.003224 0.001907 1.000000 -0.005292 0.001815 1.000000 -0.006618 0.001694 1.000000 -0.008469 0.001604 1.000000 -0.009611 0.001477 1.000000 -0.011239 0.001389 1.000000 -0.012200 0.001258 1.000000 -0.013601 0.001172 1.000000 -0.014383 0.001037 1.000000 -0.015553 0.000954 1.000000 
-0.018882 0.001545 1.000000 -0.019971 0.001373 1.000000 -0.020351 0.001139 1.000000 -0.021157 0.000971 1.000000 -0.021379 0.000737 1.000000 -0.021899 0.000574 1.000000 -0.021970 0.000341 1.000000 -0.022205 0.000184 1.000000 -0.022130 -0.000044 1.000000 -0.022083 -0.000192 1.000000 -0.021873 -0.000412 1.000000 -0.021554 -0.000548 1.000000 -0.021218 -0.000756 1.000000 -0.020640 -0.000879 1.000000 -0.020193 -0.001069 1.000000 -0.019377 -0.001175 1.000000 -0.018835 -0.001344 1.000000 -0.017807 -0.001429 1.000000 -0.017189 -0.001572 1.000000 -0.015980 -0.001633 1.000000 -0.015311 -0.001744 1.000000 -0.013958 -0.001778 1.000000 -0.013265 -0.001851 1.000000 -0.011811 -0.001853 1.000000 -0.011123 -0.001884 1.000000 -0.009617 -0.001851 1.000000 -0.008971 -0.001834 1.000000 -0.007467 -0.001759 1.000000 -0.006901 -0.001689 1.000000 -0.005459 -0.001571 1.000000 -0.005018 -0.001443 1.000000 -0.003701 -0.001275 1.000000 -0.003433 -0.001087 1.000000 -0.002309 -0.000868 1.000000 -0.002266 -0.000617 1.000000 -0.001402 -0.000347 1.000000 -0.001636 -0.000036 1.000000 -0.001099 0.000284 1.000000 -0.001660 0.000648 1.000000 -0.001508 0.001008 1.000000 -0.002438 0.001413 1.000000 -0.002718 0.001800 1.000000 -0.004046 0.002225 1.000000 -0.004784 0.002616 1.000000 -0.006516 0.003034 1.000000 -0.007709 0.003400 1.000000 -0.009820 0.003773 1.000000 -0.011427 0.004075 1.000000 -0.013855 0.004362 1.000000 -0.015791 0.004557 1.000000 -0.018427 0.004711 1.000000 -0.020558 0.004755 1.000000 -0.023246 0.004733 1.000000 -0.025393 0.004588 1.000000 -0.027937 0.004357 1.000000 -0.029884 0.003997 1.000000 -0.032059 0.003541 1.000000 -0.033570 0.002959 1.000000 -0.035143 0.002286 1.000000 -0.035990 0.001501 1.000000 -0.036746 0.000643 1.000000 -0.036733 -0.000302 1.000000 -0.036500 -0.001290 1.000000 -0.035488 -0.002332 1.000000 -0.034161 -0.003378 1.000000 -0.032083 -0.004441 1.000000 -0.029638 -0.005465 1.000000 -0.026514 -0.006463 1.000000 -0.023015 -0.007384 1.000000 -0.018950 -0.008229 1.000000 -0.014554 -0.008959 1.000000 -0.009743 -0.009560 1.000000 -0.004705 -0.010013 1.000000 0.000565 -0.010281 1.000000 0.005894 -0.010375 1.000000 0.011247 -0.010234 1.000000 0.016432 -0.009910 1.000000 0.021428 -0.009329 1.000000 0.025991 -0.008583 1.000000 0.030181 -0.007603 1.000000 0.033683 -0.006518 1.000000 0.036705 -0.005283 1.000000 0.038859 -0.004040 1.000000 0.040547 -0.002776 1.000000 0.041322 -0.001616 1.000000 0.041765 -0.000573 1.000000 0.041416 0.000284 1.000000 0.040942 0.000912 1.000000 0.039946 0.001343 1.000000 0.039010 0.001484 1.000000 0.037928 0.001512 1.000000 0.036974 0.001245 1.000000 0.036273 0.001034 1.000000 0.035577 0.000589 1.000000 0.035454 0.000376 1.000000 0.035023 0.000035 1.000000 0.035345 0.000035 1.000000 0.034946 0.000022 1.000000 0.035331 0.000338 1.000000 0.034606 0.000735 1.000000 0.034603 0.001343 1.000000 0.033229 0.002072 1.000000 0.032459 0.002818 1.000000 0.030276 0.003604 1.000000 0.028655 0.004218 1.000000 0.025815 0.004680 1.000000 0.023737 0.004981 1.000000 0.020599 0.005094 1.000000 0.018437 0.005147 1.000000 0.015250 0.005064 1.000000 0.013179 0.004988 1.000000 0.010062 0.004831 1.000000 0.008140 0.004695 1.000000 0.005152 0.004516 1.000000 0.003396 0.004348 1.000000 0.000577 0.004163 1.000000 -0.001006 0.003972 1.000000 -0.003624 0.003786 1.000000 -0.005030 0.003580 1.000000 -0.007424 0.003394 1.000000 -0.008651 0.003178 1.000000 -0.010804 0.002993 1.000000 -0.011854 0.002771 1.000000 -0.013754 0.002589 1.000000 -0.014631 0.002362 1.000000 -0.016268 0.002183 1.000000 -0.016975 0.001953 1.000000 -0.018341 0.001778 1.000000 
-0.016567 0.002446 1.000000 -0.017505 0.002203 1.000000 -0.017937 0.001780 1.000000 -0.018640 0.001544 1.000000 -0.018903 0.001116 1.000000 -0.019369 0.000888 1.000000 -0.019468 0.000461 1.000000 -0.019698 0.000244 1.000000 -0.019639 -0.000177 1.000000 -0.019636 -0.000381 1.000000 -0.019428 -0.000788 1.000000 -0.019201 -0.000976 1.000000 -0.018853 -0.001361 1.000000 -0.018414 -0.001528 1.000000 -0.017941 -0.001884 1.000000 -0.017306 -0.002026 1.000000 -0.016724 -0.002343 1.000000 -0.015914 -0.002455 1.000000 -0.015245 -0.002724 1.000000 -0.014287 -0.002802 1.000000 -0.013553 -0.003015 1.000000 -0.012478 -0.003052 1.000000 -0.011707 -0.003201 1.000000 -0.010553 -0.003192 1.000000 -0.009776 -0.003268 1.000000 -0.008585 -0.003206 1.000000 -0.007837 -0.003201 1.000000 -0.006658 -0.003079 1.000000 -0.005980 -0.002985 1.000000 -0.004867 -0.002797 1.000000 -0.004304 -0.002608 1.000000 -0.003314 -0.002348 1.000000 -0.002916 -0.002059 1.000000 -0.002114 -0.001722 1.000000 -0.001934 -0.001331 1.000000 -0.001384 -0.000916 1.000000 -0.001478 -0.000428 1.000000 -0.001245 0.000060 1.000000 -0.001666 0.000635 1.000000 -0.001809 0.001186 1.000000 -0.002605 0.001829 1.000000 -0.003172 0.002420 1.000000 -0.004376 0.003100 1.000000 -0.005397 0.003699 1.000000 -0.007022 0.004372 1.000000 -0.008496 0.004933 1.000000 -0.010523 0.005543 1.000000 -0.012413 0.006008 1.000000 -0.014784 0.006489 1.000000 -0.017005 0.006791 1.000000 -0.019614 0.007073 1.000000 -0.022031 0.007143 1.000000 -0.024722 0.007157 1.000000 -0.027149 0.006935 1.000000 -0.029720 0.006629 1.000000 -0.031932 0.006074 1.000000 -0.034148 0.005422 1.000000 -0.035898 0.004522 1.000000 -0.037515 0.003533 1.000000 -0.038562 0.002316 1.000000 -0.039355 0.001037 1.000000 -0.039494 -0.000432 1.000000 -0.039284 -0.001917 1.000000 -0.038371 -0.003541 1.000000 -0.037049 -0.005122 1.000000 -0.035021 -0.006781 1.000000 -0.032563 -0.008335 1.000000 -0.029440 -0.009897 1.000000 -0.025910 -0.011292 1.000000 -0.021800 -0.012618 1.000000 -0.017353 -0.013721 1.000000 -0.012448 -0.014667 1.000000 -0.007333 -0.015342 1.000000 -0.001917 -0.015765 1.000000 0.003517 -0.015883 1.000000 0.009064 -0.015663 1.000000 0.014372 -0.015131 1.000000 0.019585 -0.014210 1.000000 0.024262 -0.013022 1.000000 0.028647 -0.011463 1.000000 0.032214 -0.009750 1.000000 0.035355 -0.007778 1.000000 0.037489 -0.005824 1.000000 0.039184 -0.003807 1.000000 0.039843 -0.001984 1.000000 0.040196 -0.000337 1.000000 0.039654 0.001016 1.000000 0.039054 0.001972 1.000000 0.037825 0.002667 1.000000 0.036811 0.002812 1.000000 0.035495 0.002866 1.000000 0.034570 0.002339 1.000000 0.033686 0.001993 1.000000 0.033131 0.001181 1.000000 0.032897 0.000823 1.000000 0.032701 0.000201 1.000000 0.032985 0.000182 1.000000 0.032880 0.000112 1.000000 0.033286 0.000611 1.000000 0.032912 0.001199 1.000000 0.032963 0.002167 1.000000 0.031986 0.003293 1.000000 0.031219 0.004485 1.000000 0.029421 0.005717 1.000000 0.027662 0.006688 1.000000 0.025191 0.007377 1.000000 0.022997 0.007836 1.000000 0.020277 0.007983 1.000000 0.018063 0.008066 1.000000 0.015321 0.007936 1.000000 0.013219 0.007829 1.000000 0.010536 0.007602 1.000000 0.008570 0.007401 1.000000 0.005991 0.007145 1.000000 0.004171 0.006885 1.000000 0.001734 0.006619 1.000000 0.000074 0.006315 1.000000 -0.002187 0.006045 1.000000 -0.003676 0.005707 1.000000 -0.005738 0.005437 1.000000 -0.007050 0.005074 1.000000 -0.008899 0.004808 1.000000 -0.010032 0.004427 1.000000 -0.011659 0.004166 1.000000 -0.012613 0.003772 1.000000 -0.014015 0.003516 1.000000 -0.014792 0.003111 1.000000 -0.015964 0.002862 1.000000 
-0.019543 0.003087 1.000000 -0.020639 0.002744 1.000000 -0.021011 0.002274 1.000000 -0.021821 0.001937 1.000000 -0.022035 0.001466 1.000000 -0.022554 0.001138 1.000000 -0.022615 0.000670 1.000000 -0.022843 0.000355 1.000000 -0.022755 -0.000105 1.000000 -0.022695 -0.000403 1.000000 -0.022467 -0.000847 1.000000 -0.022127 -0.001123 1.000000 -0.021770 -0.001543 1.000000 -0.021163 -0.001791 1.000000 -0.020690 -0.002178 1.000000 -0.019836 -0.002392 1.000000 -0.019264 -0.002735 1.000000 -0.018188 -0.002909 1.000000 -0.017536 -0.003199 1.000000 -0.016271 -0.003325 1.000000 -0.015562 -0.003552 1.000000 -0.014144 -0.003623 1.000000 -0.013404 -0.003776 1.000000 -0.011878 -0.003785 1.000000 -0.011137 -0.003852 1.000000 -0.009550 -0.003789 1.000000 -0.008844 -0.003760 1.000000 -0.007252 -0.003616 1.000000 -0.006619 -0.003481 1.000000 -0.005082 -0.003247 1.000000 -0.004568 -0.002995 1.000000 -0.003152 -0.002663 1.000000 -0.002807 -0.002287 1.000000 -0.001582 -0.001850 1.000000 -0.001461 -0.001347 1.000000 -0.000499 -0.000803 1.000000 -0.000659 -0.000175 1.000000 -0.000035 0.000472 1.000000 -0.000533 0.001212 1.000000 -0.000313 0.001947 1.000000 -0.001202 0.002776 1.000000 -0.001445 0.003571 1.000000 -0.002764 0.004450 1.000000 -0.003507 0.005262 1.000000 -0.005276 0.006133 1.000000 -0.006528 0.006901 1.000000 -0.008733 0.007690 1.000000 -0.010465 0.008336 1.000000 -0.013050 0.008954 1.000000 -0.015180 0.009388 1.000000 -0.018039 0.009737 1.000000 -0.020429 0.009863 1.000000 -0.023400 0.009851 1.000000 -0.025856 0.009586 1.000000 -0.028722 0.009139 1.000000 -0.031002 0.008425 1.000000 -0.033509 0.007507 1.000000 -0.035345 0.006326 1.000000 -0.037225 0.004950 1.000000 -0.038352 0.003341 1.000000 -0.039353 0.001575 1.000000 -0.039541 -0.000374 1.000000 -0.039463 -0.002412 1.000000 -0.038553 -0.004567 1.000000 -0.037272 -0.006728 1.000000 -0.035186 -0.008927 1.000000 -0.032671 -0.011046 1.000000 -0.029427 -0.013116 1.000000 -0.025742 -0.015024 1.000000 -0.021448 -0.016786 1.000000 -0.016753 -0.018311 1.000000 -0.011611 -0.019580 1.000000 -0.006167 -0.020544 1.000000 -0.000476 -0.021131 1.000000 0.005341 -0.021355 1.000000 0.011172 -0.021089 1.000000 0.016872 -0.020431 1.000000 0.022329 -0.019218 1.000000 0.027331 -0.017644 1.000000 0.031853 -0.015554 1.000000 0.035589 -0.013226 1.000000 0.038693 -0.010558 1.000000 0.040762 -0.007869 1.000000 0.042219 -0.005130 1.000000 0.042559 -0.002627 1.000000 0.042500 -0.000384 1.000000 0.041453 0.001425 1.000000 0.040334 0.002742 1.000000 0.038545 0.003587 1.000000 0.036975 0.003813 1.000000 0.035197 0.003752 1.000000 0.033772 0.003054 1.000000 0.032652 0.002473 1.000000 0.031740 0.001378 1.000000 0.031537 0.000806 1.000000 0.031122 -0.000054 1.000000 0.031639 -0.000144 1.000000 0.031403 -0.000279 1.000000 0.032128 0.000306 1.000000 0.031626 0.001058 1.000000 0.032026 0.002269 1.000000 0.030887 0.003816 1.000000 0.030404 0.005382 1.000000 0.028350 0.007160 1.000000 0.026670 0.008448 1.000000 0.023875 0.009345 1.000000 0.021816 0.009894 1.000000 0.018817 0.010028 1.000000 0.016819 0.010103 1.000000 0.013803 0.009908 1.000000 0.011922 0.009773 1.000000 0.008933 0.009480 1.000000 0.007153 0.009241 1.000000 0.004236 0.008916 1.000000 0.002570 0.008604 1.000000 -0.000218 0.008260 1.000000 -0.001748 0.007894 1.000000 -0.004356 0.007536 1.000000 -0.005729 0.007131 1.000000 -0.008123 0.006768 1.000000 -0.009328 0.006338 1.000000 -0.011486 0.005975 1.000000 -0.012521 0.005531 1.000000 -0.014427 0.005171 1.000000 -0.015292 0.004717 1.000000 -0.016937 0.004362 1.000000 -0.017635 0.003902 1.000000 -0.019010 0.003553 1.000000 
-0.017380 0.004075 1.000000 -0.018321 0.003671 1.000000 -0.018745 0.002962 1.000000 -0.019448 0.002568 1.000000 -0.019703 0.001850 1.000000 -0.020165 0.001468 1.000000 -0.020252 0.000750 1.000000 -0.020473 0.000384 1.000000 -0.020397 -0.000325 1.000000 -0.020379 -0.000669 1.000000 -0.020148 -0.001356 1.000000 -0.019897 -0.001673 1.000000 -0.019521 -0.002325 1.000000 -0.019049 -0.002608 1.000000 -0.018542 -0.003211 1.000000 -0.017863 -0.003452 1.000000 -0.017241 -0.003990 1.000000 -0.016379 -0.004182 1.000000 -0.015661 -0.004642 1.000000 -0.014640 -0.004776 1.000000 -0.013851 -0.005142 1.000000 -0.012702 -0.005210 1.000000 -0.011868 -0.005468 1.000000 -0.010629 -0.005459 1.000000 -0.009780 -0.005595 1.000000 -0.008493 -0.005499 1.000000 -0.007665 -0.005499 1.000000 -0.006379 -0.005304 1.000000 -0.005611 -0.005155 1.000000 -0.004381 -0.004848 1.000000 -0.003720 -0.004538 1.000000 -0.002606 -0.004109 1.000000 -0.002103 -0.003629 1.000000 -0.001173 -0.003068 1.000000 -0.000887 -0.002414 1.000000 -0.000212 -0.001718 1.000000 -0.000204 -0.000893 1.000000 0.000143 -0.000066 1.000000 -0.000190 0.000914 1.000000 -0.000244 0.001855 1.000000 -0.000978 0.002960 1.000000 -0.001495 0.003982 1.000000 -0.002681 0.005163 1.000000 -0.003706 0.006211 1.000000 -0.005372 0.007394 1.000000 -0.006924 0.008390 1.000000 -0.009069 0.009480 1.000000 -0.011123 0.010325 1.000000 -0.013699 0.011205 1.000000 -0.016178 0.011780 1.000000 -0.019083 0.012322 1.000000 -0.021847 0.012503 1.000000 -0.024914 0.012584 1.000000 -0.027759 0.012257 1.000000 -0.030760 0.011776 1.000000 -0.033423 0.010861 1.000000 -0.036086 0.009765 1.000000 -0.038273 0.008238 1.000000 -0.040302 0.006539 1.000000 -0.041723 0.004444 1.000000 -0.042843 0.002227 1.000000 -0.043248 -0.000321 1.000000 -0.043242 -0.002906 1.000000 -0.042459 -0.005732 1.000000 -0.041198 -0.008489 1.000000 -0.039154 -0.011382 1.000000 -0.036607 -0.014094 1.000000 -0.033328 -0.016826 1.000000 -0.029563 -0.019271 1.000000 -0.025164 -0.021607 1.000000 -0.020341 -0.023558 1.000000 -0.015019 -0.025253 1.000000 -0.009393 -0.026476 1.000000 -0.003439 -0.027274 1.000000 0.002618 -0.027531 1.000000 0.008791 -0.027194 1.000000 0.014768 -0.026287 1.000000 0.020606 -0.024670 1.000000 0.025865 -0.022546 1.000000 0.030717 -0.019720 1.000000 0.034596 -0.016591 1.000000 0.037865 -0.012951 1.000000 0.039882 -0.009349 1.000000 0.041253 -0.005604 1.000000 0.041333 -0.002265 1.000000 0.040962 0.000768 1.000000 0.039507 0.003182 1.000000 0.037988 0.004880 1.000000 0.035726 0.006026 1.000000 0.033849 0.006160 1.000000 0.031611 0.006069 1.000000 0.030098 0.004885 1.000000 0.028648 0.004025 1.000000 0.027824 0.002296 1.000000 0.027438 0.001441 1.000000 0.027245 0.000100 1.000000 0.027718 -0.000099 1.000000 0.027746 -0.000378 1.000000 0.028544 0.000388 1.000000 0.028403 0.001302 1.000000 0.029014 0.002906 1.000000 0.028373 0.004915 1.000000 0.028088 0.007023 1.000000 0.026543 0.009451 1.000000 0.024660 0.011163 1.000000 0.022313 0.012230 1.000000 0.020205 0.012894 1.000000 0.017764 0.012980 1.000000 0.015846 0.013079 1.000000 0.013390 0.012833 1.000000 0.011573 0.012700 1.000000 0.009080 0.012371 1.000000 0.007305 0.012097 1.000000 0.004824 0.011729 1.000000 0.003115 0.011339 1.000000 0.000723 0.010937 1.000000 -0.000875 0.010453 1.000000 -0.003117 0.010026 1.000000 -0.004568 0.009474 1.000000 -0.006621 0.009036 1.000000 -0.007909 0.008437 1.000000 -0.009753 0.008000 1.000000 -0.010869 0.007369 1.000000 -0.012496 0.006938 1.000000 -0.013438 0.006282 1.000000 -0.014841 0.005859 1.000000 -0.015609 0.005183 1.000000 -0.016784 0.004770 1.000000 
-0.020647 0.004624 1.000000 -0.021755 0.004109 1.000000 -0.022116 0.003401 1.000000 -0.022934 0.002895 1.000000 -0.023135 0.002182 1.000000 -0.023655 0.001688 1.000000 -0.023699 0.000977 1.000000 -0.023917 0.000500 1.000000 -0.023809 -0.000199 1.000000 -0.023726 -0.000652 1.000000 -0.023472 -0.001329 1.000000 -0.023096 -0.001749 1.000000 -0.022705 -0.002391 1.000000 -0.022048 -0.002771 1.000000 -0.021534 -0.003363 1.000000 -0.020616 -0.003692 1.000000 -0.019994 -0.004220 1.000000 -0.018840 -0.004489 1.000000 -0.018130 -0.004938 1.000000 -0.016772 -0.005136 1.000000 -0.015996 -0.005490 1.000000 -0.014470 -0.005606 1.000000 -0.013654 -0.005850 1.000000 -0.012005 -0.005872 1.000000 -0.011177 -0.005988 1.000000 -0.009454 -0.005904 1.000000 -0.008648 -0.005875 1.000000 -0.006907 -0.005670 1.000000 -0.006163 -0.005479 1.000000 -0.004465 -0.005139 1.000000 -0.003829 -0.004770 1.000000 -0.002243 -0.004279 1.000000 -0.001766 -0.003720 1.000000 -0.000367 -0.003067 1.000000 -0.000110 -0.002308 1.000000 0.001022 -0.001486 1.000000 0.000993 -0.000530 1.000000 0.001773 0.000458 1.000000 0.001389 0.001599 1.000000 0.001735 0.002735 1.000000 0.000928 0.004027 1.000000 0.000762 0.005273 1.000000 -0.000529 0.006661 1.000000 -0.001266 0.007953 1.000000 -0.003081 0.009351 1.000000 -0.004421 0.010597 1.000000 -0.006770 0.011889 1.000000 -0.008701 0.012967 1.000000 -0.011544 0.014010 1.000000 -0.013997 0.014772 1.000000 -0.017232 0.015406 1.000000 -0.020063 0.015695 1.000000 -0.023517 0.015762 1.000000 -0.026508 0.015432 1.000000 -0.029932 0.014804 1.000000 -0.032797 0.013750 1.000000 -0.035886 0.012357 1.000000 -0.038294 0.010543 1.000000 -0.040714 0.008400 1.000000 -0.042333 0.005882 1.000000 -0.043767 0.003100 1.000000 -0.044311 0.000025 1.000000 -0.044508 -0.003201 1.000000 -0.043776 -0.006611 1.000000 -0.042584 -0.010033 1.000000 -0.040489 -0.013518 1.000000 -0.037869 -0.016872 1.000000 -0.034435 -0.020160 1.000000 -0.030455 -0.023188 1.000000 -0.025800 -0.026008 1.000000 -0.020628 -0.028456 1.000000 -0.014960 -0.030528 1.000000 -0.008863 -0.032124 1.000000 -0.002489 -0.033142 1.000000 0.004136 -0.033585 1.000000 0.010765 -0.033239 1.000000 0.017348 -0.032246 1.000000 0.023605 -0.030315 1.000000 0.029394 -0.027756 1.000000 0.034512 -0.024286 1.000000 0.038683 -0.020374 1.000000 0.041934 -0.015844 1.000000 0.043849 -0.011258 1.000000 0.044861 -0.006580 1.000000 0.044392 -0.002336 1.000000 0.043391 0.001441 1.000000 0.041063 0.004399 1.000000 0.038782 0.006523 1.000000 0.035562 0.007726 1.000000 0.032876 0.007928 1.000000 0.029846 0.007503 1.000000 0.027614 0.006017 1.000000 0.025766 0.004747 1.000000 0.024502 0.002587 1.000000 0.024155 0.001385 1.000000 0.023713 -0.000333 1.000000 0.024517 -0.000645 1.000000 0.024449 -0.001106 1.000000 0.025626 -0.000350 1.000000 0.025351 0.000589 1.000000 0.026442 0.002299 1.000000 0.025711 0.004742 1.000000 0.025960 0.007212 1.000000 0.024293 0.010588 1.000000 0.022419 0.012679 1.000000 0.019891 0.013799 1.000000 0.018094 0.014444 1.000000 0.015577 0.014387 1.000000 0.014075 0.014476 1.000000 0.011458 0.014182 1.000000 0.009967 0.014084 1.000000 0.007195 0.013748 1.000000 0.005646 0.013497 1.000000 0.002818 0.013106 1.000000 0.001275 0.012705 1.000000 -0.001484 0.012250 1.000000 -0.002944 0.011733 1.000000 -0.005548 0.011230 1.000000 -0.006876 0.010636 1.000000 -0.009274 0.010108 1.000000 -0.010448 0.009471 1.000000 -0.012614 0.008935 1.000000 -0.013625 0.008273 1.000000 -0.015544 0.007740 1.000000 -0.016391 0.007062 1.000000 -0.018051 0.006534 1.000000 -0.018735 0.005845 1.000000 -0.020124 0.005323 1.000000 
-0.018600 0.005706 1.000000 -0.019547 0.005140 1.000000 -0.019962 0.004141 1.000000 -0.020669 0.003587 1.000000 -0.020910 0.002571 1.000000 -0.021370 0.002032 1.000000 -0.021440 0.001012 1.000000 -0.021649 0.000494 1.000000 -0.021549 -0.000516 1.000000 -0.021509 -0.001006 1.000000 -0.021245 -0.001987 1.000000 -0.020959 -0.002440 1.000000 -0.020542 -0.003373 1.000000 -0.020021 -0.003779 1.000000 -0.019463 -0.004643 1.000000 -0.018721 -0.004992 1.000000 -0.018038 -0.005766 1.000000 -0.017096 -0.006046 1.000000 -0.016308 -0.006710 1.000000 -0.015192 -0.006911 1.000000 -0.014321 -0.007443 1.000000 -0.013062 -0.007552 1.000000 -0.012134 -0.007933 1.000000 -0.010767 -0.007936 1.000000 -0.009812 -0.008146 1.000000 -0.008380 -0.008027 1.000000 -0.007431 -0.008046 1.000000 -0.005984 -0.007789 1.000000 -0.005080 -0.007597 1.000000 -0.003672 -0.007182 1.000000 -0.002860 -0.006761 1.000000 -0.001556 -0.006171 1.000000 -0.000891 -0.005505 1.000000 0.000238 -0.004724 1.000000 0.000693 -0.003802 1.000000 0.001567 -0.002821 1.000000 0.001741 -0.001645 1.000000 0.002272 -0.000463 1.000000 0.002088 0.000952 1.000000 0.002187 0.002317 1.000000 0.001564 0.003933 1.000000 0.001145 0.005439 1.000000 0.000009 0.007190 1.000000 -0.001002 0.008763 1.000000 -0.002708 0.010549 1.000000 -0.004357 0.012079 1.000000 -0.006658 0.013760 1.000000 -0.008947 0.015099 1.000000 -0.011820 0.016500 1.000000 -0.014686 0.017468 1.000000 -0.018036 0.018389 1.000000 -0.021336 0.018788 1.000000 -0.024985 0.019029 1.000000 -0.028485 0.018672 1.000000 -0.032167 0.018065 1.000000 -0.035549 0.016815 1.000000 -0.038923 0.015262 1.000000 -0.041814 0.013066 1.000000 -0.044503 0.010578 1.000000 -0.046523 0.007497 1.000000 -0.048169 0.004204 1.000000 -0.048996 0.000419 1.000000 -0.049318 -0.003440 1.000000 -0.048738 -0.007656 1.000000 -0.047578 -0.011775 1.000000 -0.045514 -0.016097 1.000000 -0.042844 -0.020148 1.000000 -0.039344 -0.024240 1.000000 -0.035250 -0.027905 1.000000 -0.030450 -0.031434 1.000000 -0.025104 -0.034399 1.000000 -0.019207 -0.037018 1.000000 -0.012861 -0.038947 1.000000 -0.006147 -0.040273 1.000000 0.000821 -0.040785 1.000000 0.007921 -0.040405 1.000000 0.014928 -0.039127 1.000000 0.021748 -0.036717 1.000000 0.027953 -0.033453 1.000000 0.033584 -0.029009 1.000000 0.037996 -0.024013 1.000000 0.041489 -0.018117 1.000000 0.043306 -0.012275 1.000000 0.044104 -0.006146 1.000000 0.043177 -0.000794 1.000000 0.041535 0.004097 1.000000 0.038551 0.007790 1.000000 0.035487 0.010381 1.000000 0.031561 0.011932 1.000000 0.028317 0.011876 1.000000 0.024583 0.011331 1.000000 0.022269 0.008965 1.000000 0.019976 0.007136 1.000000 0.018785 0.003906 1.000000 0.018127 0.002231 1.000000 0.017869 -0.000263 1.000000 0.018489 -0.000836 1.000000 0.018438 -0.001487 1.000000 0.019553 -0.000514 1.000000 0.019441 0.000486 1.000000 0.020875 0.002547 1.000000 0.020714 0.005396 1.000000 0.021681 0.008441 1.000000 0.020896 0.012993 1.000000 0.018604 0.015565 1.000000 0.016835 0.016556 1.000000 0.015337 0.017208 1.000000 0.013739 0.016999 1.000000 0.012615 0.017197 1.000000 0.010719 0.016941 1.000000 0.009404 0.016963 1.000000 0.007160 0.016692 1.000000 0.005635 0.016474 1.000000 0.003241 0.016099 1.000000 0.001652 0.015641 1.000000 -0.000713 0.015156 1.000000 -0.002246 0.014516 1.000000 -0.004475 0.013958 1.000000 -0.005884 0.013200 1.000000 -0.007929 0.012608 1.000000 -0.009185 0.011777 1.000000 -0.011025 0.011177 1.000000 -0.012117 0.010299 1.000000 -0.013744 0.009704 1.000000 -0.014669 0.008789 1.000000 -0.016076 0.008203 1.000000 -0.016832 0.007256 1.000000 -0.018013 0.006681 1.000000 