# vtk DataFile Version 2.0
Comment goes here
ASCII

DATASET STRUCTURED_POINTS
DIMENSIONS    128   128   1

ORIGIN    0.000   0.000   0.000
SPACING   0.0156250.015625   1.000

POINT_DATA   16384
VECTORS u double

-0.000804 -0.000000 1.000000 -0.000879 -0.000000 1.000000 -0.000916 -0.000000 1.000000 -0.000979 -0.000000 1.000000 -0.001012 -0.000000 1.000000 -0.001062 -0.000000 1.000000 -0.001092 -0.000000 1.000000 -0.001127 -0.000000 1.000000 -0.001154 -0.000000 1.000000 -0.001176 -0.000000 1.000000 -0.001199 -0.000000 1.000000 -0.001208 -0.000000 1.000000 -0.001229 -0.000000 1.000000 -0.001225 -0.000000 1.000000 -0.001242 -0.000000 1.000000 -0.001226 -0.000000 1.000000 -0.001241 -0.000000 1.000000 -0.001214 -0.000000 1.000000 -0.001227 -0.000000 1.000000 -0.001189 -0.000000 1.000000 -0.001200 -0.000000 1.000000 -0.001153 -0.000000 1.000000 -0.001163 -0.000000 1.000000 -0.001109 -0.000000 1.000000 -0.001117 -0.000000 1.000000 -0.001057 -0.000000 1.000000 -0.001064 -0.000000 1.000000 -0.001000 -0.000000 1.000000 -0.001007 -0.000000 1.000000 -0.000940 -0.000000 1.000000 -0.000949 -0.000000 1.000000 -0.000881 -0.000000 1.000000 -0.000891 -0.000000 1.000000 -0.000824 -0.000000 1.000000 -0.000836 -0.000000 1.000000 -0.000771 -0.000000 1.000000 -0.000787 -0.000000 1.000000 -0.000726 -0.000000 1.000000 -0.000746 -0.000000 1.000000 -0.000690 -0.000000 1.000000 -0.000715 -0.000000 1.000000 -0.000666 -0.000000 1.000000 -0.000696 -0.000000 1.000000 -0.000653 -0.000000 1.000000 -0.000688 -0.000000 1.000000 -0.000653 -0.000000 1.000000 -0.000692 -0.000000 1.000000 -0.000664 -0.000000 1.000000 -0.000706 -0.000000 1.000000 -0.000682 -0.000000 1.000000 -0.000726 -0.000000 1.000000 -0.000705 -0.000000 1.000000 -0.000748 -0.000000 1.000000 -0.000727 -0.000000 1.000000 -0.000764 -0.000000 1.000000 -0.000740 -0.000000 1.000000 -0.000767 -0.000000 1.000000 -0.000736 -0.000000 1.000000 -0.000751 -0.000000 1.000000 -0.000709 -0.000000 1.000000 -0.000706 -0.000000 1.000000 -0.000651 -0.000000 1.000000 -0.000627 -0.000000 1.000000 -0.000556 -0.000000 1.000000 -0.000509 -0.000000 1.000000 -0.000424 -0.000000 1.000000 -0.000353 -0.000000 1.000000 -0.000252 -0.000000 1.000000 -0.000159 -0.000000 1.000000 -0.000045 -0.000000 1.000000 0.000069 -0.000000 1.000000 0.000192 -0.000000 1.000000 0.000323 -0.000000 1.000000 0.000450 -0.000000 1.000000 0.000592 -0.000000 1.000000 0.000719 -0.000000 1.000000 0.000864 -0.000000 1.000000 0.000984 -0.000000 1.000000 0.001125 -0.000000 1.000000 0.001231 -0.000000 1.000000 0.001359 -0.000000 1.000000 0.001446 -0.000000 1.000000 0.001555 -0.000000 1.000000 0.001618 -0.000000 1.000000 0.001706 -0.000000 1.000000 0.001743 -0.000000 1.000000 0.001812 -0.000000 1.000000 0.001828 -0.000000 1.000000 0.001884 -0.000000 1.000000 0.001885 -0.000000 1.000000 0.001936 -0.000000 1.000000 0.001930 -0.000000 1.000000 0.001985 -0.000000 1.000000 0.001974 -0.000000 1.000000 0.002034 -0.000000 1.000000 0.002017 -0.000000 1.000000 0.002075 -0.000000 1.000000 0.002045 -0.000000 1.000000 0.002088 -0.000000 1.000000 0.002035 -0.000000 1.000000 0.002048 -0.000000 1.000000 0.001963 -0.000000 1.000000 0.001935 -0.000000 1.000000 0.001816 -0.000000 1.000000 0.001745 -0.000000 1.000000 0.001599 -0.000000 1.000000 0.001503 -0.000000 1.000000 0.001340 -0.000000 1.000000 0.001236 -0.000000 1.000000 0.001068 -0.000000 1.000000 0.000966 -0.000000 1.000000 0.000798 -0.000000 1.000000 0.000704 -0.000000 1.000000 0.000542 -0.000000 1.000000 0.000456 -0.000000 1.000000 0.000302 -0.000000 1.000000 0.000225 -0.000000 1.000000 0.000080 -0.000000 1.000000 0.000011 -0.000000 1.000000 -0.000124 -0.000000 1.000000 -0.000185 -0.000000 1.000000 -0.000310 -0.000000 1.000000 -0.000365 -0.000000 1.000000 -0.000478 -0.000000 1.000000 -0.000528 -0.000000 1.000000 -0.000629 -0.000000 1.000000 -0.000674 -0.000000 1.000000 -0.000763 -0.000000 1.000000 
-0.000549 0.000058 1.000000 -0.000609 0.000056 1.000000 -0.000653 0.000050 1.000000 -0.000705 0.000048 1.000000 -0.000743 0.000041 1.000000 -0.000787 0.000040 1.000000 -0.000820 0.000033 1.000000 -0.000855 0.000031 1.000000 -0.000884 0.000024 1.000000 -0.000911 0.000023 1.000000 -0.000936 0.000016 1.000000 -0.000954 0.000015 1.000000 -0.000974 0.000008 1.000000 -0.000985 0.000007 1.000000 -0.001001 0.000001 1.000000 -0.001004 -0.000001 1.000000 -0.001016 -0.000006 1.000000 -0.001012 -0.000007 1.000000 -0.001021 -0.000012 1.000000 -0.001010 -0.000013 1.000000 -0.001015 -0.000018 1.000000 -0.000999 -0.000019 1.000000 -0.001001 -0.000022 1.000000 -0.000980 -0.000023 1.000000 -0.000980 -0.000026 1.000000 -0.000955 -0.000026 1.000000 -0.000954 -0.000028 1.000000 -0.000925 -0.000028 1.000000 -0.000923 -0.000030 1.000000 -0.000892 -0.000029 1.000000 -0.000891 -0.000030 1.000000 -0.000859 -0.000029 1.000000 -0.000858 -0.000029 1.000000 -0.000827 -0.000027 1.000000 -0.000828 -0.000026 1.000000 -0.000799 -0.000025 1.000000 -0.000803 -0.000023 1.000000 -0.000776 -0.000021 1.000000 -0.000784 -0.000018 1.000000 -0.000761 -0.000016 1.000000 -0.000773 -0.000012 1.000000 -0.000755 -0.000010 1.000000 -0.000772 -0.000006 1.000000 -0.000759 -0.000004 1.000000 -0.000781 -0.000000 1.000000 -0.000772 0.000002 1.000000 -0.000799 0.000005 1.000000 -0.000795 0.000007 1.000000 -0.000826 0.000009 1.000000 -0.000824 0.000010 1.000000 -0.000856 0.000011 1.000000 -0.000855 0.000011 1.000000 -0.000886 0.000011 1.000000 -0.000882 0.000008 1.000000 -0.000908 0.000006 1.000000 -0.000899 0.000002 1.000000 -0.000917 -0.000002 1.000000 -0.000898 -0.000009 1.000000 -0.000904 -0.000014 1.000000 -0.000872 -0.000023 1.000000 -0.000861 -0.000029 1.000000 -0.000815 -0.000040 1.000000 -0.000785 -0.000047 1.000000 -0.000723 -0.000059 1.000000 -0.000671 -0.000067 1.000000 -0.000593 -0.000078 1.000000 -0.000520 -0.000086 1.000000 -0.000426 -0.000097 1.000000 -0.000332 -0.000104 1.000000 -0.000225 -0.000114 1.000000 -0.000113 -0.000119 1.000000 0.000004 -0.000127 1.000000 0.000131 -0.000129 1.000000 0.000254 -0.000135 1.000000 0.000391 -0.000135 1.000000 0.000515 -0.000136 1.000000 0.000656 -0.000133 1.000000 0.000776 -0.000131 1.000000 0.000912 -0.000124 1.000000 0.001021 -0.000118 1.000000 0.001145 -0.000108 1.000000 0.001238 -0.000098 1.000000 0.001344 -0.000086 1.000000 0.001416 -0.000075 1.000000 0.001501 -0.000063 1.000000 0.001552 -0.000053 1.000000 0.001617 -0.000042 1.000000 0.001650 -0.000036 1.000000 0.001701 -0.000029 1.000000 0.001724 -0.000027 1.000000 0.001771 -0.000023 1.000000 0.001789 -0.000024 1.000000 0.001839 -0.000022 1.000000 0.001856 -0.000025 1.000000 0.001910 -0.000022 1.000000 0.001921 -0.000021 1.000000 0.001973 -0.000014 1.000000 0.001972 -0.000007 1.000000 0.002007 0.000005 1.000000 0.001984 0.000020 1.000000 0.001990 0.000036 1.000000 0.001938 0.000056 1.000000 0.001900 0.000074 1.000000 0.001815 0.000095 1.000000 0.001732 0.000109 1.000000 0.001620 0.000121 1.000000 0.001512 0.000129 1.000000 0.001385 0.000133 1.000000 0.001269 0.000136 1.000000 0.001138 0.000135 1.000000 0.001025 0.000135 1.000000 0.000895 0.000131 1.000000 0.000790 0.000128 1.000000 0.000665 0.000124 1.000000 0.000569 0.000120 1.000000 0.000451 0.000116 1.000000 0.000364 0.000111 1.000000 0.000254 0.000107 1.000000 0.000175 0.000102 1.000000 0.000073 0.000098 1.000000 0.000001 0.000093 1.000000 -0.000092 0.000090 1.000000 -0.000157 0.000084 1.000000 -0.000243 0.000081 1.000000 -0.000302 0.000075 1.000000 -0.000379 0.000073 1.000000 -0.000432 0.000067 1.000000 -0.000501 0.000065 1.000000 
-0.000812 0.000109 1.000000 -0.000888 0.000104 1.000000 -0.000925 0.000095 1.000000 -0.000988 0.000090 1.000000 -0.001021 0.000082 1.000000 -0.001070 0.000077 1.000000 -0.001100 0.000069 1.000000 -0.001136 0.000064 1.000000 -0.001162 0.000056 1.000000 -0.001184 0.000051 1.000000 -0.001208 0.000043 1.000000 -0.001216 0.000039 1.000000 -0.001237 0.000031 1.000000 -0.001232 0.000027 1.000000 -0.001250 0.000019 1.000000 -0.001233 0.000015 1.000000 -0.001248 0.000008 1.000000 -0.001220 0.000004 1.000000 -0.001233 -0.000002 1.000000 -0.001194 -0.000005 1.000000 -0.001205 -0.000011 1.000000 -0.001158 -0.000014 1.000000 -0.001167 -0.000019 1.000000 -0.001112 -0.000021 1.000000 -0.001120 -0.000025 1.000000 -0.001059 -0.000027 1.000000 -0.001066 -0.000030 1.000000 -0.001001 -0.000031 1.000000 -0.001008 -0.000033 1.000000 -0.000940 -0.000033 1.000000 -0.000949 -0.000033 1.000000 -0.000880 -0.000032 1.000000 -0.000889 -0.000032 1.000000 -0.000821 -0.000030 1.000000 -0.000833 -0.000028 1.000000 -0.000768 -0.000026 1.000000 -0.000783 -0.000023 1.000000 -0.000721 -0.000019 1.000000 -0.000741 -0.000015 1.000000 -0.000685 -0.000011 1.000000 -0.000709 -0.000006 1.000000 -0.000660 -0.000001 1.000000 -0.000690 0.000004 1.000000 -0.000647 0.000009 1.000000 -0.000682 0.000014 1.000000 -0.000648 0.000018 1.000000 -0.000688 0.000023 1.000000 -0.000659 0.000026 1.000000 -0.000703 0.000029 1.000000 -0.000680 0.000030 1.000000 -0.000726 0.000031 1.000000 -0.000706 0.000030 1.000000 -0.000750 0.000027 1.000000 -0.000731 0.000023 1.000000 -0.000770 0.000017 1.000000 -0.000748 0.000008 1.000000 -0.000778 -0.000001 1.000000 -0.000748 -0.000013 1.000000 -0.000765 -0.000026 1.000000 -0.000724 -0.000042 1.000000 -0.000723 -0.000057 1.000000 -0.000669 -0.000076 1.000000 -0.000646 -0.000093 1.000000 -0.000576 -0.000114 1.000000 -0.000529 -0.000130 1.000000 -0.000443 -0.000152 1.000000 -0.000372 -0.000167 1.000000 -0.000270 -0.000188 1.000000 -0.000175 -0.000201 1.000000 -0.000060 -0.000219 1.000000 0.000056 -0.000229 1.000000 0.000181 -0.000244 1.000000 0.000315 -0.000250 1.000000 0.000445 -0.000260 1.000000 0.000590 -0.000261 1.000000 0.000720 -0.000265 1.000000 0.000869 -0.000260 1.000000 0.000993 -0.000256 1.000000 0.001138 -0.000246 1.000000 0.001247 -0.000234 1.000000 0.001379 -0.000217 1.000000 0.001467 -0.000199 1.000000 0.001578 -0.000178 1.000000 0.001641 -0.000157 1.000000 0.001728 -0.000136 1.000000 0.001764 -0.000116 1.000000 0.001829 -0.000098 1.000000 0.001842 -0.000085 1.000000 0.001893 -0.000074 1.000000 0.001890 -0.000070 1.000000 0.001939 -0.000065 1.000000 0.001930 -0.000069 1.000000 0.001984 -0.000067 1.000000 0.001974 -0.000071 1.000000 0.002037 -0.000066 1.000000 0.002024 -0.000063 1.000000 0.002089 -0.000050 1.000000 0.002064 -0.000034 1.000000 0.002114 -0.000013 1.000000 0.002065 0.000017 1.000000 0.002084 0.000047 1.000000 0.002001 0.000090 1.000000 0.001972 0.000123 1.000000 0.001851 0.000168 1.000000 0.001772 0.000195 1.000000 0.001619 0.000221 1.000000 0.001515 0.000235 1.000000 0.001347 0.000243 1.000000 0.001237 0.000247 1.000000 0.001066 0.000244 1.000000 0.000962 0.000243 1.000000 0.000792 0.000235 1.000000 0.000697 0.000230 1.000000 0.000534 0.000221 1.000000 0.000448 0.000214 1.000000 0.000293 0.000205 1.000000 0.000216 0.000197 1.000000 0.000071 0.000189 1.000000 0.000003 0.000181 1.000000 -0.000133 0.000174 1.000000 -0.000194 0.000165 1.000000 -0.000319 0.000159 1.000000 -0.000373 0.000150 1.000000 -0.000487 0.000144 1.000000 -0.000536 0.000136 1.000000 -0.000637 0.000130 1.000000 -0.000682 0.000122 1.000000 -0.000771 0.000117 1.000000 
-0.000562 0.000175 1.000000 -0.000623 0.000169 1.000000 -0.000666 0.000149 1.000000 -0.000718 0.000144 1.000000 -0.000756 0.000124 1.000000 -0.000800 0.000119 1.000000 -0.000833 0.000098 1.000000 -0.000868 0.000093 1.000000 -0.000897 0.000073 1.000000 -0.000924 0.000068 1.000000 -0.000948 0.000048 1.000000 -0.000966 0.000044 1.000000 -0.000987 0.000024 1.000000 -0.000997 0.000020 1.000000 -0.001013 0.000002 1.000000 -0.001015 -0.000002 1.000000 -0.001027 -0.000019 1.000000 -0.001022 -0.000023 1.000000 -0.001030 -0.000038 1.000000 -0.001019 -0.000041 1.000000 -0.001024 -0.000055 1.000000 -0.001006 -0.000057 1.000000 -0.001008 -0.000068 1.000000 -0.000986 -0.000070 1.000000 -0.000986 -0.000079 1.000000 -0.000959 -0.000080 1.000000 -0.000957 -0.000086 1.000000 -0.000928 -0.000086 1.000000 -0.000925 -0.000090 1.000000 -0.000893 -0.000089 1.000000 -0.000890 -0.000091 1.000000 -0.000858 -0.000088 1.000000 -0.000856 -0.000087 1.000000 -0.000824 -0.000083 1.000000 -0.000824 -0.000080 1.000000 -0.000793 -0.000075 1.000000 -0.000796 -0.000069 1.000000 -0.000768 -0.000063 1.000000 -0.000775 -0.000054 1.000000 -0.000752 -0.000047 1.000000 -0.000763 -0.000037 1.000000 -0.000745 -0.000030 1.000000 -0.000762 -0.000019 1.000000 -0.000749 -0.000011 1.000000 -0.000771 -0.000000 1.000000 -0.000764 0.000007 1.000000 -0.000792 0.000017 1.000000 -0.000789 0.000022 1.000000 -0.000821 0.000030 1.000000 -0.000822 0.000033 1.000000 -0.000857 0.000037 1.000000 -0.000858 0.000035 1.000000 -0.000893 0.000035 1.000000 -0.000892 0.000028 1.000000 -0.000923 0.000023 1.000000 -0.000917 0.000009 1.000000 -0.000939 -0.000001 1.000000 -0.000923 -0.000022 1.000000 -0.000932 -0.000038 1.000000 -0.000903 -0.000064 1.000000 -0.000896 -0.000085 1.000000 -0.000851 -0.000117 1.000000 -0.000823 -0.000140 1.000000 -0.000760 -0.000175 1.000000 -0.000709 -0.000199 1.000000 -0.000630 -0.000236 1.000000 -0.000556 -0.000259 1.000000 -0.000460 -0.000294 1.000000 -0.000363 -0.000314 1.000000 -0.000253 -0.000345 1.000000 -0.000138 -0.000360 1.000000 -0.000017 -0.000386 1.000000 0.000115 -0.000393 1.000000 0.000243 -0.000410 1.000000 0.000386 -0.000410 1.000000 0.000516 -0.000416 1.000000 0.000664 -0.000405 1.000000 0.000790 -0.000399 1.000000 0.000934 -0.000378 1.000000 0.001050 -0.000359 1.000000 0.001180 -0.000328 1.000000 0.001277 -0.000298 1.000000 0.001386 -0.000260 1.000000 0.001459 -0.000225 1.000000 0.001542 -0.000186 1.000000 0.001589 -0.000154 1.000000 0.001648 -0.000120 1.000000 0.001674 -0.000100 1.000000 0.001717 -0.000077 1.000000 0.001732 -0.000072 1.000000 0.001772 -0.000062 1.000000 0.001788 -0.000070 1.000000 0.001837 -0.000067 1.000000 0.001856 -0.000078 1.000000 0.001918 -0.000071 1.000000 0.001936 -0.000072 1.000000 0.002000 -0.000053 1.000000 0.002007 -0.000032 1.000000 0.002057 0.000004 1.000000 0.002042 0.000050 1.000000 0.002060 0.000100 1.000000 0.002011 0.000168 1.000000 0.001976 0.000223 1.000000 0.001885 0.000295 1.000000 0.001784 0.000340 1.000000 0.001660 0.000378 1.000000 0.001533 0.000402 1.000000 0.001397 0.000411 1.000000 0.001271 0.000418 1.000000 0.001133 0.000411 1.000000 0.001016 0.000408 1.000000 0.000883 0.000395 1.000000 0.000776 0.000387 1.000000 0.000650 0.000373 1.000000 0.000554 0.000361 1.000000 0.000435 0.000347 1.000000 0.000348 0.000333 1.000000 0.000238 0.000321 1.000000 0.000159 0.000305 1.000000 0.000057 0.000295 1.000000 -0.000014 0.000278 1.000000 -0.000107 0.000269 1.000000 -0.000172 0.000252 1.000000 -0.000257 0.000244 1.000000 -0.000315 0.000226 1.000000 -0.000393 0.000219 1.000000 -0.000446 0.000201 1.000000 -0.000514 0.000194 1.000000 
-0.000837 0.000217 1.000000 -0.000914 0.000207 1.000000 -0.000950 0.000190 1.000000 -0.001013 0.000181 1.000000 -0.001046 0.000164 1.000000 -0.001096 0.000154 1.000000 -0.001125 0.000137 1.000000 -0.001161 0.000128 1.000000 -0.001187 0.000111 1.000000 -0.001209 0.000102 1.000000 -0.001232 0.000086 1.000000 -0.001240 0.000077 1.000000 -0.001260 0.000061 1.000000 -0.001255 0.000053 1.000000 -0.001272 0.000037 1.000000 -0.001254 0.000029 1.000000 -0.001269 0.000015 1.000000 -0.001239 0.000008 1.000000 -0.001251 -0.000005 1.000000 -0.001211 -0.000012 1.000000 -0.001221 -0.000024 1.000000 -0.001172 -0.000029 1.000000 -0.001180 -0.000039 1.000000 -0.001123 -0.000044 1.000000 -0.001130 -0.000052 1.000000 -0.001067 -0.000055 1.000000 -0.001073 -0.000061 1.000000 -0.001005 -0.000063 1.000000 -0.001011 -0.000067 1.000000 -0.000941 -0.000067 1.000000 -0.000948 -0.000069 1.000000 -0.000876 -0.000067 1.000000 -0.000884 -0.000066 1.000000 -0.000814 -0.000062 1.000000 -0.000825 -0.000059 1.000000 -0.000757 -0.000053 1.000000 -0.000771 -0.000047 1.000000 -0.000707 -0.000040 1.000000 -0.000726 -0.000032 1.000000 -0.000668 -0.000023 1.000000 -0.000692 -0.000013 1.000000 -0.000641 -0.000003 1.000000 -0.000671 0.000008 1.000000 -0.000629 0.000018 1.000000 -0.000664 0.000029 1.000000 -0.000630 0.000039 1.000000 -0.000672 0.000048 1.000000 -0.000646 0.000056 1.000000 -0.000693 0.000062 1.000000 -0.000674 0.000066 1.000000 -0.000723 0.000067 1.000000 -0.000708 0.000066 1.000000 -0.000758 0.000061 1.000000 -0.000744 0.000053 1.000000 -0.000789 0.000041 1.000000 -0.000772 0.000024 1.000000 -0.000809 0.000006 1.000000 -0.000785 -0.000020 1.000000 -0.000807 -0.000046 1.000000 -0.000771 -0.000079 1.000000 -0.000775 -0.000110 1.000000 -0.000724 -0.000150 1.000000 -0.000704 -0.000183 1.000000 -0.000635 -0.000227 1.000000 -0.000590 -0.000261 1.000000 -0.000503 -0.000306 1.000000 -0.000430 -0.000337 1.000000 -0.000325 -0.000380 1.000000 -0.000227 -0.000407 1.000000 -0.000107 -0.000445 1.000000 0.000016 -0.000466 1.000000 0.000148 -0.000497 1.000000 0.000290 -0.000510 1.000000 0.000429 -0.000531 1.000000 0.000585 -0.000535 1.000000 0.000725 -0.000542 1.000000 0.000886 -0.000534 1.000000 0.001021 -0.000526 1.000000 0.001178 -0.000505 1.000000 0.001298 -0.000480 1.000000 0.001439 -0.000445 1.000000 0.001535 -0.000405 1.000000 0.001651 -0.000360 1.000000 0.001715 -0.000313 1.000000 0.001799 -0.000266 1.000000 0.001829 -0.000222 1.000000 0.001884 -0.000183 1.000000 0.001884 -0.000154 1.000000 0.001920 -0.000132 1.000000 0.001905 -0.000125 1.000000 0.001940 -0.000121 1.000000 0.001925 -0.000133 1.000000 0.001975 -0.000136 1.000000 0.001968 -0.000152 1.000000 0.002041 -0.000146 1.000000 0.002039 -0.000145 1.000000 0.002126 -0.000121 1.000000 0.002117 -0.000092 1.000000 0.002191 -0.000048 1.000000 0.002155 0.000014 1.000000 0.002195 0.000078 1.000000 0.002118 0.000174 1.000000 0.002093 0.000249 1.000000 0.001961 0.000360 1.000000 0.001850 0.000420 1.000000 0.001678 0.000471 1.000000 0.001545 0.000498 1.000000 0.001362 0.000505 1.000000 0.001237 0.000511 1.000000 0.001056 0.000499 1.000000 0.000946 0.000493 1.000000 0.000771 0.000475 1.000000 0.000674 0.000463 1.000000 0.000507 0.000444 1.000000 0.000422 0.000429 1.000000 0.000265 0.000411 1.000000 0.000190 0.000395 1.000000 0.000043 0.000378 1.000000 -0.000024 0.000361 1.000000 -0.000160 0.000347 1.000000 -0.000220 0.000330 1.000000 -0.000345 0.000317 1.000000 -0.000399 0.000300 1.000000 -0.000512 0.000288 1.000000 -0.000561 0.000272 1.000000 -0.000663 0.000261 1.000000 -0.000707 0.000244 1.000000 -0.000797 0.000234 1.000000 
-0.000589 0.000292 1.000000 -0.000649 0.000282 1.000000 -0.000692 0.000249 1.000000 -0.000744 0.000240 1.000000 -0.000782 0.000206 1.000000 -0.000826 0.000198 1.000000 -0.000859 0.000163 1.000000 -0.000894 0.000155 1.000000 -0.000923 0.000121 1.000000 -0.000949 0.000113 1.000000 -0.000974 0.000079 1.000000 -0.000991 0.000072 1.000000 -0.001011 0.000039 1.000000 -0.001020 0.000032 1.000000 -0.001036 0.000001 1.000000 -0.001037 -0.000006 1.000000 -0.001049 -0.000034 1.000000 -0.001042 -0.000040 1.000000 -0.001050 -0.000066 1.000000 -0.001037 -0.000071 1.000000 -0.001041 -0.000094 1.000000 -0.001022 -0.000098 1.000000 -0.001023 -0.000117 1.000000 -0.000999 -0.000120 1.000000 -0.000997 -0.000135 1.000000 -0.000968 -0.000137 1.000000 -0.000965 -0.000148 1.000000 -0.000933 -0.000148 1.000000 -0.000929 -0.000155 1.000000 -0.000895 -0.000153 1.000000 -0.000890 -0.000155 1.000000 -0.000855 -0.000151 1.000000 -0.000851 -0.000149 1.000000 -0.000817 -0.000143 1.000000 -0.000815 -0.000137 1.000000 -0.000782 -0.000129 1.000000 -0.000783 -0.000118 1.000000 -0.000753 -0.000108 1.000000 -0.000758 -0.000094 1.000000 -0.000733 -0.000081 1.000000 -0.000744 -0.000064 1.000000 -0.000724 -0.000050 1.000000 -0.000741 -0.000032 1.000000 -0.000727 -0.000017 1.000000 -0.000751 0.000002 1.000000 -0.000745 0.000015 1.000000 -0.000775 0.000033 1.000000 -0.000775 0.000043 1.000000 -0.000811 0.000058 1.000000 -0.000816 0.000063 1.000000 -0.000857 0.000072 1.000000 -0.000864 0.000070 1.000000 -0.000906 0.000071 1.000000 -0.000912 0.000059 1.000000 -0.000951 0.000051 1.000000 -0.000952 0.000029 1.000000 -0.000983 0.000011 1.000000 -0.000974 -0.000023 1.000000 -0.000991 -0.000051 1.000000 -0.000968 -0.000097 1.000000 -0.000966 -0.000132 1.000000 -0.000924 -0.000187 1.000000 -0.000900 -0.000228 1.000000 -0.000838 -0.000289 1.000000 -0.000788 -0.000332 1.000000 -0.000706 -0.000396 1.000000 -0.000630 -0.000436 1.000000 -0.000529 -0.000498 1.000000 -0.000429 -0.000532 1.000000 -0.000313 -0.000588 1.000000 -0.000189 -0.000614 1.000000 -0.000061 -0.000659 1.000000 0.000081 -0.000675 1.000000 0.000219 -0.000705 1.000000 0.000375 -0.000706 1.000000 0.000517 -0.000717 1.000000 0.000680 -0.000701 1.000000 0.000820 -0.000690 1.000000 0.000981 -0.000655 1.000000 0.001110 -0.000620 1.000000 0.001255 -0.000565 1.000000 0.001362 -0.000510 1.000000 0.001478 -0.000440 1.000000 0.001554 -0.000374 1.000000 0.001633 -0.000300 1.000000 0.001672 -0.000239 1.000000 0.001715 -0.000176 1.000000 0.001724 -0.000137 1.000000 0.001745 -0.000099 1.000000 0.001742 -0.000092 1.000000 0.001763 -0.000082 1.000000 0.001770 -0.000105 1.000000 0.001815 -0.000110 1.000000 0.001841 -0.000143 1.000000 0.001917 -0.000143 1.000000 0.001952 -0.000158 1.000000 0.002043 -0.000131 1.000000 0.002069 -0.000097 1.000000 0.002149 -0.000035 1.000000 0.002150 0.000047 1.000000 0.002201 0.000138 1.000000 0.002163 0.000269 1.000000 0.002142 0.000380 1.000000 0.002037 0.000538 1.000000 0.001881 0.000623 1.000000 0.001728 0.000684 1.000000 0.001561 0.000717 1.000000 0.001407 0.000718 1.000000 0.001262 0.000723 1.000000 0.001115 0.000702 1.000000 0.000991 0.000694 1.000000 0.000853 0.000667 1.000000 0.000745 0.000651 1.000000 0.000615 0.000625 1.000000 0.000521 0.000603 1.000000 0.000400 0.000579 1.000000 0.000315 0.000555 1.000000 0.000204 0.000535 1.000000 0.000128 0.000508 1.000000 0.000026 0.000491 1.000000 -0.000043 0.000463 1.000000 -0.000137 0.000448 1.000000 -0.000200 0.000420 1.000000 -0.000285 0.000407 1.000000 -0.000343 0.000377 1.000000 -0.000420 0.000365 1.000000 -0.000472 0.000334 1.000000 -0.000541 0.000324 1.000000 
-0.000879 0.000325 1.000000 -0.000956 0.000310 1.000000 -0.000992 0.000285 1.000000 -0.001056 0.000271 1.000000 -0.001089 0.000245 1.000000 -0.001139 0.000231 1.000000 -0.001168 0.000206 1.000000 -0.001204 0.000192 1.000000 -0.001230 0.000166 1.000000 -0.001251 0.000153 1.000000 -0.001273 0.000128 1.000000 -0.001280 0.000114 1.000000 -0.001300 0.000090 1.000000 -0.001293 0.000077 1.000000 -0.001309 0.000054 1.000000 -0.001289 0.000042 1.000000 -0.001303 0.000020 1.000000 -0.001271 0.000009 1.000000 -0.001282 -0.000011 1.000000 -0.001239 -0.000021 1.000000 -0.001248 -0.000039 1.000000 -0.001195 -0.000047 1.000000 -0.001202 -0.000063 1.000000 -0.001141 -0.000070 1.000000 -0.001147 -0.000082 1.000000 -0.001079 -0.000087 1.000000 -0.001084 -0.000097 1.000000 -0.001012 -0.000099 1.000000 -0.001016 -0.000106 1.000000 -0.000941 -0.000106 1.000000 -0.000946 -0.000108 1.000000 -0.000870 -0.000106 1.000000 -0.000876 -0.000105 1.000000 -0.000801 -0.000099 1.000000 -0.000810 -0.000094 1.000000 -0.000738 -0.000085 1.000000 -0.000750 -0.000076 1.000000 -0.000682 -0.000064 1.000000 -0.000699 -0.000052 1.000000 -0.000638 -0.000037 1.000000 -0.000661 -0.000022 1.000000 -0.000609 -0.000006 1.000000 -0.000638 0.000011 1.000000 -0.000595 0.000029 1.000000 -0.000632 0.000046 1.000000 -0.000599 0.000063 1.000000 -0.000644 0.000078 1.000000 -0.000621 0.000092 1.000000 -0.000673 0.000103 1.000000 -0.000659 0.000111 1.000000 -0.000716 0.000115 1.000000 -0.000709 0.000115 1.000000 -0.000768 0.000110 1.000000 -0.000763 0.000098 1.000000 -0.000820 0.000081 1.000000 -0.000813 0.000056 1.000000 -0.000861 0.000027 1.000000 -0.000847 -0.000012 1.000000 -0.000880 -0.000052 1.000000 -0.000852 -0.000104 1.000000 -0.000866 -0.000153 1.000000 -0.000819 -0.000216 1.000000 -0.000806 -0.000270 1.000000 -0.000739 -0.000339 1.000000 -0.000696 -0.000393 1.000000 -0.000607 -0.000464 1.000000 -0.000532 -0.000513 1.000000 -0.000422 -0.000581 1.000000 -0.000317 -0.000624 1.000000 -0.000189 -0.000685 1.000000 -0.000055 -0.000718 1.000000 0.000087 -0.000768 1.000000 0.000245 -0.000790 1.000000 0.000397 -0.000825 1.000000 0.000572 -0.000833 1.000000 0.000729 -0.000848 1.000000 0.000913 -0.000838 1.000000 0.001067 -0.000827 1.000000 0.001248 -0.000795 1.000000 0.001387 -0.000754 1.000000 0.001549 -0.000697 1.000000 0.001660 -0.000629 1.000000 0.001787 -0.000552 1.000000 0.001855 -0.000467 1.000000 0.001934 -0.000384 1.000000 0.001953 -0.000304 1.000000 0.001985 -0.000235 1.000000 0.001961 -0.000184 1.000000 0.001963 -0.000150 1.000000 0.001920 -0.000144 1.000000 0.001923 -0.000149 1.000000 0.001890 -0.000185 1.000000 0.001928 -0.000206 1.000000 0.001921 -0.000254 1.000000 0.002007 -0.000256 1.000000 0.002027 -0.000271 1.000000 0.002157 -0.000238 1.000000 0.002176 -0.000197 1.000000 0.002293 -0.000130 1.000000 0.002279 -0.000038 1.000000 0.002362 0.000065 1.000000 0.002301 0.000233 1.000000 0.002303 0.000375 1.000000 0.002151 0.000620 1.000000 0.001955 0.000729 1.000000 0.001745 0.000791 1.000000 0.001563 0.000819 1.000000 0.001360 0.000804 1.000000 0.001217 0.000803 1.000000 0.001025 0.000769 1.000000 0.000910 0.000755 1.000000 0.000727 0.000721 1.000000 0.000631 0.000700 1.000000 0.000460 0.000668 1.000000 0.000377 0.000644 1.000000 0.000217 0.000616 1.000000 0.000145 0.000590 1.000000 -0.000004 0.000565 1.000000 -0.000067 0.000540 1.000000 -0.000205 0.000518 1.000000 -0.000262 0.000493 1.000000 -0.000389 0.000473 1.000000 -0.000440 0.000448 1.000000 -0.000555 0.000431 1.000000 -0.000602 0.000406 1.000000 -0.000706 0.000390 1.000000 -0.000748 0.000365 1.000000 -0.000839 0.000350 1.000000 
-0.000628 0.000409 1.000000 -0.000689 0.000396 1.000000 -0.000732 0.000349 1.000000 -0.000784 0.000337 1.000000 -0.000822 0.000289 1.000000 -0.000866 0.000277 1.000000 -0.000899 0.000228 1.000000 -0.000934 0.000217 1.000000 -0.000962 0.000168 1.000000 -0.000988 0.000157 1.000000 -0.001012 0.000109 1.000000 -0.001029 0.000098 1.000000 -0.001048 0.000052 1.000000 -0.001056 0.000042 1.000000 -0.001071 -0.000003 1.000000 -0.001071 -0.000012 1.000000 -0.001081 -0.000053 1.000000 -0.001074 -0.000061 1.000000 -0.001080 -0.000098 1.000000 -0.001065 -0.000105 1.000000 -0.001067 -0.000138 1.000000 -0.001046 -0.000144 1.000000 -0.001045 -0.000171 1.000000 -0.001018 -0.000175 1.000000 -0.001015 -0.000197 1.000000 -0.000983 -0.000200 1.000000 -0.000978 -0.000215 1.000000 -0.000942 -0.000216 1.000000 -0.000935 -0.000225 1.000000 -0.000897 -0.000223 1.000000 -0.000890 -0.000227 1.000000 -0.000851 -0.000221 1.000000 -0.000844 -0.000218 1.000000 -0.000806 -0.000210 1.000000 -0.000801 -0.000201 1.000000 -0.000764 -0.000189 1.000000 -0.000762 -0.000174 1.000000 -0.000729 -0.000158 1.000000 -0.000731 -0.000138 1.000000 -0.000703 -0.000119 1.000000 -0.000712 -0.000094 1.000000 -0.000690 -0.000073 1.000000 -0.000706 -0.000045 1.000000 -0.000693 -0.000023 1.000000 -0.000717 0.000006 1.000000 -0.000713 0.000027 1.000000 -0.000746 0.000055 1.000000 -0.000750 0.000072 1.000000 -0.000792 0.000096 1.000000 -0.000804 0.000106 1.000000 -0.000853 0.000121 1.000000 -0.000870 0.000121 1.000000 -0.000923 0.000125 1.000000 -0.000941 0.000111 1.000000 -0.000993 0.000101 1.000000 -0.001006 0.000070 1.000000 -0.001051 0.000045 1.000000 -0.001053 -0.000004 1.000000 -0.001084 -0.000045 1.000000 -0.001069 -0.000112 1.000000 -0.001078 -0.000166 1.000000 -0.001041 -0.000247 1.000000 -0.001023 -0.000309 1.000000 -0.000961 -0.000400 1.000000 -0.000913 -0.000464 1.000000 -0.000826 -0.000559 1.000000 -0.000748 -0.000620 1.000000 -0.000640 -0.000713 1.000000 -0.000532 -0.000766 1.000000 -0.000406 -0.000850 1.000000 -0.000272 -0.000890 1.000000 -0.000133 -0.000959 1.000000 0.000025 -0.000984 1.000000 0.000175 -0.001032 1.000000 0.000352 -0.001038 1.000000 0.000512 -0.001058 1.000000 0.000701 -0.001039 1.000000 0.000863 -0.001025 1.000000 0.001053 -0.000975 1.000000 0.001207 -0.000921 1.000000 0.001380 -0.000838 1.000000 0.001507 -0.000747 1.000000 0.001640 -0.000634 1.000000 0.001721 -0.000521 1.000000 0.001796 -0.000397 1.000000 0.001820 -0.000289 1.000000 0.001834 -0.000184 1.000000 0.001807 -0.000115 1.000000 0.001780 -0.000057 1.000000 0.001737 -0.000052 1.000000 0.001711 -0.000052 1.000000 0.001696 -0.000109 1.000000 0.001721 -0.000141 1.000000 0.001757 -0.000223 1.000000 0.001854 -0.000249 1.000000 0.001907 -0.000307 1.000000 0.002035 -0.000280 1.000000 0.002078 -0.000233 1.000000 0.002192 -0.000138 1.000000 0.002212 -0.000023 1.000000 0.002322 0.000116 1.000000 0.002310 0.000329 1.000000 0.002360 0.000529 1.000000 0.002241 0.000886 1.000000 0.001945 0.001029 1.000000 0.001751 0.001077 1.000000 0.001535 0.001102 1.000000 0.001370 0.001063 1.000000 0.001217 0.001058 1.000000 0.001063 0.001010 1.000000 0.000941 0.000991 1.000000 0.000797 0.000946 1.000000 0.000692 0.000918 1.000000 0.000559 0.000879 1.000000 0.000468 0.000846 1.000000 0.000346 0.000812 1.000000 0.000265 0.000776 1.000000 0.000154 0.000747 1.000000 0.000080 0.000710 1.000000 -0.000021 0.000685 1.000000 -0.000088 0.000647 1.000000 -0.000181 0.000626 1.000000 -0.000243 0.000586 1.000000 -0.000328 0.000569 1.000000 -0.000384 0.000527 1.000000 -0.000461 0.000512 1.000000 -0.000512 0.000468 1.000000 -0.000582 0.000454 1.000000 