# vtk DataFile Version 2.0
Comment goes here
ASCII

DATASET STRUCTURED_POINTS
DIMENSIONS    128   128   1

ORIGIN    0.000   0.000   0.000
SPACING   0.0156250.015625   1.000

POINT_DATA   16384
VECTORS u double

-0.050059 0.000037 1.000000 -0.060630 0.000028 1.000000 -0.065793 0.000043 1.000000 -0.074976 0.000034 1.000000 -0.079253 0.000050 1.000000 -0.086982 0.000040 1.000000 -0.090333 0.000057 1.000000 -0.096575 0.000046 1.000000 -0.098991 0.000063 1.000000 -0.103745 0.000052 1.000000 -0.105249 0.000069 1.000000 -0.108551 0.000058 1.000000 -0.109195 0.000075 1.000000 -0.111119 0.000064 1.000000 -0.110988 0.000081 1.000000 -0.111647 0.000070 1.000000 -0.110859 0.000086 1.000000 -0.110405 0.000075 1.000000 -0.109107 0.000090 1.000000 -0.107733 0.000080 1.000000 -0.106104 0.000094 1.000000 -0.104040 0.000085 1.000000 -0.102287 0.000098 1.000000 -0.099801 0.000089 1.000000 -0.098160 0.000102 1.000000 -0.095554 0.000094 1.000000 -0.094287 0.000105 1.000000 -0.091892 0.000099 1.000000 -0.091288 0.000109 1.000000 -0.089464 0.000104 1.000000 -0.089828 0.000112 1.000000 -0.088953 0.000109 1.000000 -0.090608 0.000116 1.000000 -0.091069 0.000114 1.000000 -0.094340 0.000120 1.000000 -0.096518 0.000120 1.000000 -0.101715 0.000124 1.000000 -0.105965 0.000126 1.000000 -0.113364 0.000129 1.000000 -0.119984 0.000133 1.000000 -0.129796 0.000133 1.000000 -0.138996 0.000139 1.000000 -0.151333 0.000138 1.000000 -0.163196 0.000145 1.000000 -0.178029 0.000141 1.000000 -0.192471 0.000150 1.000000 -0.209596 0.000144 1.000000 -0.226328 0.000153 1.000000 -0.245333 0.000146 1.000000 -0.263841 0.000155 1.000000 -0.284094 0.000145 1.000000 -0.303630 0.000154 1.000000 -0.324283 0.000141 1.000000 -0.343888 0.000149 1.000000 -0.363915 0.000133 1.000000 -0.382463 0.000140 1.000000 -0.400724 0.000121 1.000000 -0.416998 0.000127 1.000000 -0.432320 0.000104 1.000000 -0.445096 0.000108 1.000000 -0.456363 0.000082 1.000000 -0.464495 0.000083 1.000000 -0.470728 0.000054 1.000000 -0.473217 0.000053 1.000000 -0.473634 0.000022 1.000000 -0.469670 0.000018 1.000000 -0.463723 -0.000016 1.000000 -0.452725 -0.000021 1.000000 -0.440133 -0.000056 1.000000 -0.421781 -0.000062 1.000000 -0.402578 -0.000098 1.000000 -0.376884 -0.000104 1.000000 -0.351498 -0.000139 1.000000 -0.318909 -0.000143 1.000000 -0.288272 -0.000175 1.000000 -0.249818 -0.000177 1.000000 -0.215472 -0.000205 1.000000 -0.172879 -0.000203 1.000000 -0.137012 -0.000225 1.000000 -0.092710 -0.000217 1.000000 -0.058015 -0.000232 1.000000 -0.014945 -0.000219 1.000000 0.015745 -0.000227 1.000000 0.054580 -0.000208 1.000000 0.078873 -0.000209 1.000000 0.111031 -0.000185 1.000000 0.127604 -0.000180 1.000000 0.151808 -0.000155 1.000000 0.160851 -0.000146 1.000000 0.177313 -0.000120 1.000000 0.180516 -0.000109 1.000000 0.190730 -0.000086 1.000000 0.190675 -0.000076 1.000000 0.196626 -0.000057 1.000000 0.195738 -0.000049 1.000000 0.198950 -0.000035 1.000000 0.198696 -0.000029 1.000000 0.199780 -0.000019 1.000000 0.200557 -0.000016 1.000000 0.199316 -0.000010 1.000000 0.200686 -0.000008 1.000000 0.196657 -0.000006 1.000000 0.197752 -0.000004 1.000000 0.190666 -0.000005 1.000000 0.190636 -0.000003 1.000000 0.180668 -0.000005 1.000000 0.179068 -0.000003 1.000000 0.166796 -0.000007 1.000000 0.163595 -0.000004 1.000000 0.149682 -0.000008 1.000000 0.145038 -0.000003 1.000000 0.130040 -0.000008 1.000000 0.124183 -0.000002 1.000000 0.108543 -0.000007 1.000000 0.101742 0.000000 1.000000 0.085833 -0.000005 1.000000 0.078384 0.000003 1.000000 0.062537 -0.000003 1.000000 0.054741 0.000007 1.000000 0.039247 0.000001 1.000000 0.031388 0.000012 1.000000 0.016504 0.000005 1.000000 0.008834 0.000018 1.000000 -0.005218 0.000010 1.000000 -0.012487 0.000024 1.000000 -0.025522 0.000016 1.000000 -0.032214 0.000030 1.000000 -0.044079 0.000022 1.000000 
-0.037100 0.008304 1.000000 -0.046889 0.007886 1.000000 -0.052337 0.007208 1.000000 -0.060947 0.006755 1.000000 -0.065467 0.006045 1.000000 -0.072843 0.005571 1.000000 -0.076392 0.004845 1.000000 -0.082508 0.004366 1.000000 -0.085075 0.003640 1.000000 -0.089931 0.003171 1.000000 -0.091536 0.002463 1.000000 -0.095165 0.002022 1.000000 -0.095863 0.001350 1.000000 -0.098331 0.000951 1.000000 -0.098206 0.000335 1.000000 -0.099614 -0.000005 1.000000 -0.098786 -0.000545 1.000000 -0.099272 -0.000811 1.000000 -0.097890 -0.001255 1.000000 -0.097628 -0.001432 1.000000 -0.095875 -0.001761 1.000000 -0.095074 -0.001834 1.000000 -0.093163 -0.002030 1.000000 -0.092067 -0.001984 1.000000 -0.090238 -0.002031 1.000000 -0.089126 -0.001852 1.000000 -0.087649 -0.001734 1.000000 -0.086830 -0.001410 1.000000 -0.085996 -0.001114 1.000000 -0.085807 -0.000634 1.000000 -0.085930 -0.000151 1.000000 -0.086727 0.000491 1.000000 -0.088136 0.001167 1.000000 -0.090285 0.001973 1.000000 -0.093308 0.002838 1.000000 -0.097171 0.003801 1.000000 -0.102126 0.004842 1.000000 -0.108039 0.005945 1.000000 -0.115204 0.007133 1.000000 -0.123447 0.008344 1.000000 -0.133037 0.009635 1.000000 -0.143803 0.010903 1.000000 -0.155930 0.012234 1.000000 -0.169283 0.013489 1.000000 -0.183919 0.014776 1.000000 -0.199755 0.015930 1.000000 -0.216693 0.017070 1.000000 -0.234706 0.018019 1.000000 -0.253531 0.018900 1.000000 -0.273189 0.019533 1.000000 -0.293262 0.020038 1.000000 -0.313801 0.020247 1.000000 -0.334270 0.020269 1.000000 -0.354717 0.019964 1.000000 -0.374552 0.019421 1.000000 -0.393778 0.018545 1.000000 -0.411838 0.017389 1.000000 -0.428630 0.015925 1.000000 -0.443748 0.014154 1.000000 -0.456902 0.012130 1.000000 -0.467974 0.009783 1.000000 -0.476377 0.007267 1.000000 -0.482445 0.004416 1.000000 -0.485137 0.001507 1.000000 -0.485442 -0.001750 1.000000 -0.481655 -0.004936 1.000000 -0.475668 -0.008487 1.000000 -0.464843 -0.011814 1.000000 -0.452287 -0.015526 1.000000 -0.434102 -0.018838 1.000000 -0.414989 -0.022545 1.000000 -0.389416 -0.025643 1.000000 -0.364123 -0.029124 1.000000 -0.331545 -0.031754 1.000000 -0.300935 -0.034719 1.000000 -0.262306 -0.036575 1.000000 -0.227846 -0.038673 1.000000 -0.184840 -0.039431 1.000000 -0.148657 -0.040307 1.000000 -0.103708 -0.039714 1.000000 -0.068469 -0.039113 1.000000 -0.024593 -0.037098 1.000000 0.006852 -0.034988 1.000000 0.046511 -0.031770 1.000000 0.071694 -0.028433 1.000000 0.104547 -0.024550 1.000000 0.122005 -0.020568 1.000000 0.146693 -0.016777 1.000000 0.156415 -0.012897 1.000000 0.173193 -0.009951 1.000000 0.176688 -0.006817 1.000000 0.187186 -0.005165 1.000000 0.186994 -0.003024 1.000000 0.193329 -0.002588 1.000000 0.192009 -0.001211 1.000000 0.195820 -0.001514 1.000000 0.195047 -0.000445 1.000000 0.196981 -0.000950 1.000000 0.197256 0.000215 1.000000 0.197122 -0.000076 1.000000 0.198029 0.001321 1.000000 0.195341 0.001460 1.000000 0.195987 0.002990 1.000000 0.190428 0.003551 1.000000 0.189939 0.004994 1.000000 0.181618 0.005776 1.000000 0.179558 0.006930 1.000000 0.169023 0.007727 1.000000 0.165374 0.008551 1.000000 0.153252 0.009267 1.000000 0.148173 0.009814 1.000000 0.134979 0.010416 1.000000 0.128689 0.010742 1.000000 0.114831 0.011209 1.000000 0.107596 0.011351 1.000000 0.093419 0.011668 1.000000 0.085537 0.011647 1.000000 0.071347 0.011814 1.000000 0.063123 0.011647 1.000000 0.049193 0.011672 1.000000 0.040916 0.011378 1.000000 0.027480 0.011276 1.000000 0.019408 0.010873 1.000000 0.006666 0.010664 1.000000 -0.000982 0.010169 1.000000 -0.012865 0.009872 1.000000 -0.019910 0.009302 1.000000 -0.030799 0.008936 1.000000 
-0.051205 0.016127 1.000000 -0.061727 0.015265 1.000000 -0.066844 0.014101 1.000000 -0.075989 0.013164 1.000000 -0.080229 0.011946 1.000000 -0.087927 0.010966 1.000000 -0.091247 0.009721 1.000000 -0.097462 0.008729 1.000000 -0.099850 0.007486 1.000000 -0.104578 0.006514 1.000000 -0.106054 0.005304 1.000000 -0.109327 0.004385 1.000000 -0.109942 0.003241 1.000000 -0.111830 0.002407 1.000000 -0.111668 0.001364 1.000000 -0.112282 0.000650 1.000000 -0.111456 -0.000257 1.000000 -0.110947 -0.000821 1.000000 -0.109603 -0.001554 1.000000 -0.108162 -0.001935 1.000000 -0.106476 -0.002460 1.000000 -0.104329 -0.002628 1.000000 -0.102507 -0.002909 1.000000 -0.099920 -0.002835 1.000000 -0.098194 -0.002839 1.000000 -0.095467 -0.002496 1.000000 -0.094096 -0.002191 1.000000 -0.091559 -0.001554 1.000000 -0.090829 -0.000915 1.000000 -0.088839 0.000038 1.000000 -0.089055 0.001032 1.000000 -0.087991 0.002314 1.000000 -0.089474 0.003673 1.000000 -0.089725 0.005287 1.000000 -0.092802 0.007006 1.000000 -0.094752 0.008938 1.000000 -0.099739 0.010991 1.000000 -0.103752 0.013205 1.000000 -0.110933 0.015537 1.000000 -0.117317 0.017966 1.000000 -0.126916 0.020489 1.000000 -0.135895 0.023032 1.000000 -0.148037 0.025617 1.000000 -0.159710 0.028133 1.000000 -0.174384 0.030614 1.000000 -0.188684 0.032924 1.000000 -0.205700 0.035096 1.000000 -0.222354 0.036991 1.000000 -0.241315 0.038628 1.000000 -0.259817 0.039886 1.000000 -0.280095 0.040756 1.000000 -0.299701 0.041161 1.000000 -0.320445 0.041057 1.000000 -0.340188 0.040431 1.000000 -0.360361 0.039194 1.000000 -0.379102 0.037426 1.000000 -0.397545 0.034974 1.000000 -0.414049 0.032036 1.000000 -0.429571 0.028376 1.000000 -0.442598 0.024334 1.000000 -0.454070 0.019557 1.000000 -0.462467 0.014554 1.000000 -0.468908 0.008814 1.000000 -0.471677 0.003050 1.000000 -0.472310 -0.003460 1.000000 -0.468653 -0.009756 1.000000 -0.462940 -0.016827 1.000000 -0.452279 -0.023401 1.000000 -0.439940 -0.030797 1.000000 -0.421949 -0.037361 1.000000 -0.403000 -0.044784 1.000000 -0.377654 -0.050970 1.000000 -0.352484 -0.058009 1.000000 -0.320172 -0.063331 1.000000 -0.289659 -0.069414 1.000000 -0.251337 -0.073266 1.000000 -0.216980 -0.077671 1.000000 -0.174321 -0.079392 1.000000 -0.138307 -0.081357 1.000000 -0.093752 -0.080405 1.000000 -0.058848 -0.079347 1.000000 -0.015434 -0.075540 1.000000 0.015379 -0.071331 1.000000 0.054482 -0.065051 1.000000 0.078633 -0.058244 1.000000 0.110801 -0.050496 1.000000 0.126841 -0.042326 1.000000 0.150693 -0.034565 1.000000 0.158820 -0.026646 1.000000 0.174619 -0.020393 1.000000 0.176725 -0.014103 1.000000 0.186206 -0.010392 1.000000 0.185209 -0.006219 1.000000 0.190641 -0.005072 1.000000 0.189197 -0.002541 1.000000 0.192203 -0.003072 1.000000 0.191764 -0.001190 1.000000 0.192890 -0.002229 1.000000 0.193780 -0.000158 1.000000 0.192653 -0.000783 1.000000 0.194354 0.001773 1.000000 0.190406 0.002036 1.000000 0.191948 0.004909 1.000000 0.184894 0.006043 1.000000 0.185301 0.008807 1.000000 0.175350 0.010376 1.000000 0.174145 0.012592 1.000000 0.161972 0.014177 1.000000 0.159149 0.015767 1.000000 0.145427 0.017194 1.000000 0.141134 0.018270 1.000000 0.126370 0.019476 1.000000 0.120815 0.020146 1.000000 0.105408 0.021085 1.000000 0.098855 0.021412 1.000000 0.083157 0.022054 1.000000 0.075908 0.022075 1.000000 0.060242 0.022411 1.000000 0.052607 0.022162 1.000000 0.037267 0.022209 1.000000 0.029540 0.021725 1.000000 0.014783 0.021513 1.000000 0.007221 0.020832 1.000000 -0.006728 0.020401 1.000000 -0.013908 0.019555 1.000000 -0.026862 0.018944 1.000000 -0.033482 0.017965 1.000000 -0.045284 0.017211 1.000000 
-0.039225 0.024748 1.000000 -0.048904 0.023525 1.000000 -0.054262 0.021470 1.000000 -0.062788 0.020139 1.000000 -0.067235 0.017983 1.000000 -0.074545 0.016589 1.000000 -0.078033 0.014379 1.000000 -0.084094 0.012969 1.000000 -0.086606 0.010755 1.000000 -0.091412 0.009375 1.000000 -0.092964 0.007212 1.000000 -0.096541 0.005909 1.000000 -0.097181 0.003853 1.000000 -0.099590 0.002677 1.000000 -0.099400 0.000787 1.000000 -0.100736 -0.000217 1.000000 -0.099830 -0.001880 1.000000 -0.100225 -0.002664 1.000000 -0.098749 -0.004041 1.000000 -0.098372 -0.004559 1.000000 -0.096504 -0.005594 1.000000 -0.095559 -0.005803 1.000000 -0.093506 -0.006440 1.000000 -0.092232 -0.006297 1.000000 -0.090229 -0.006484 1.000000 -0.088900 -0.005949 1.000000 -0.087211 -0.005642 1.000000 -0.086130 -0.004677 1.000000 -0.085042 -0.003834 1.000000 -0.084544 -0.002408 1.000000 -0.084367 -0.000999 1.000000 -0.084807 0.000910 1.000000 -0.085869 0.002901 1.000000 -0.087617 0.005300 1.000000 -0.090252 0.007865 1.000000 -0.093679 0.010739 1.000000 -0.098213 0.013841 1.000000 -0.103670 0.017139 1.000000 -0.110400 0.020698 1.000000 -0.118188 0.024326 1.000000 -0.127353 0.028213 1.000000 -0.137693 0.032024 1.000000 -0.149434 0.036049 1.000000 -0.162424 0.039836 1.000000 -0.176744 0.043749 1.000000 -0.192313 0.047246 1.000000 -0.209038 0.050741 1.000000 -0.226910 0.053634 1.000000 -0.245648 0.056364 1.000000 -0.265306 0.058313 1.000000 -0.285430 0.059921 1.000000 -0.306113 0.060597 1.000000 -0.326762 0.060756 1.000000 -0.347482 0.059881 1.000000 -0.367602 0.058335 1.000000 -0.387198 0.055729 1.000000 -0.405609 0.052336 1.000000 -0.422830 0.047951 1.000000 -0.438325 0.042703 1.000000 -0.451937 0.036629 1.000000 -0.463390 0.029652 1.000000 -0.472269 0.022105 1.000000 -0.478719 0.013626 1.000000 -0.481922 0.004909 1.000000 -0.482631 -0.004774 1.000000 -0.479420 -0.014306 1.000000 -0.473888 -0.024860 1.000000 -0.463731 -0.034814 1.000000 -0.451692 -0.045857 1.000000 -0.434255 -0.055778 1.000000 -0.415691 -0.066840 1.000000 -0.390875 -0.076159 1.000000 -0.366082 -0.086606 1.000000 -0.334132 -0.094579 1.000000 -0.303851 -0.103554 1.000000 -0.265550 -0.109254 1.000000 -0.231145 -0.115688 1.000000 -0.188032 -0.118104 1.000000 -0.151613 -0.120876 1.000000 -0.106120 -0.119172 1.000000 -0.070486 -0.117431 1.000000 -0.025828 -0.111325 1.000000 0.005892 -0.104904 1.000000 0.046195 -0.095024 1.000000 0.071202 -0.084752 1.000000 0.104134 -0.072757 1.000000 0.120716 -0.060459 1.000000 0.144665 -0.048756 1.000000 0.152766 -0.036823 1.000000 0.168120 -0.027856 1.000000 0.169514 -0.018404 1.000000 0.178468 -0.013649 1.000000 0.176309 -0.007459 1.000000 0.181525 -0.006576 1.000000 0.178912 -0.002773 1.000000 0.182277 -0.004081 1.000000 0.181018 -0.001132 1.000000 0.183010 -0.002966 1.000000 0.183467 0.000453 1.000000 0.183551 -0.000650 1.000000 0.185117 0.003568 1.000000 0.182619 0.003866 1.000000 0.184172 0.008502 1.000000 0.178736 0.010198 1.000000 0.179124 0.014538 1.000000 0.170886 0.016932 1.000000 0.169621 0.020308 1.000000 0.159338 0.022723 1.000000 0.156461 0.025096 1.000000 0.144769 0.027283 1.000000 0.140401 0.028871 1.000000 0.127709 0.030735 1.000000 0.122025 0.031704 1.000000 0.108655 0.033169 1.000000 0.101911 0.033602 1.000000 0.088172 0.034615 1.000000 0.080683 0.034562 1.000000 0.066874 0.035114 1.000000 0.058966 0.034622 1.000000 0.045360 0.034739 1.000000 0.037340 0.033861 1.000000 0.024177 0.033594 1.000000 0.016314 0.032384 1.000000 0.003797 0.031793 1.000000 -0.003681 0.030303 1.000000 -0.015382 0.029446 1.000000 -0.022289 0.027724 1.000000 -0.033035 0.026658 1.000000 
-0.054569 0.031995 1.000000 -0.064952 0.030302 1.000000 -0.069933 0.027985 1.000000 -0.078971 0.026136 1.000000 -0.083100 0.023704 1.000000 -0.090713 0.021764 1.000000 -0.093940 0.019270 1.000000 -0.100080 0.017302 1.000000 -0.102387 0.014804 1.000000 -0.107039 0.012872 1.000000 -0.108437 0.010433 1.000000 -0.111625 0.008602 1.000000 -0.112158 0.006290 1.000000 -0.113944 0.004626 1.000000 -0.113689 0.002510 1.000000 -0.114175 0.001079 1.000000 -0.113241 -0.000768 1.000000 -0.112572 -0.001901 1.000000 -0.111097 -0.003407 1.000000 -0.109455 -0.004180 1.000000 -0.107609 -0.005273 1.000000 -0.105217 -0.005626 1.000000 -0.103195 -0.006236 1.000000 -0.100311 -0.006112 1.000000 -0.098339 -0.006171 1.000000 -0.095255 -0.005515 1.000000 -0.093582 -0.004961 1.000000 -0.090622 -0.003722 1.000000 -0.089526 -0.002501 1.000000 -0.087043 -0.000637 1.000000 -0.086822 0.001296 1.000000 -0.085194 0.003816 1.000000 -0.086168 0.006484 1.000000 -0.085787 0.009670 1.000000 -0.088289 0.013068 1.000000 -0.089553 0.016899 1.000000 -0.093912 0.020982 1.000000 -0.097205 0.025391 1.000000 -0.103730 0.030056 1.000000 -0.109393 0.034919 1.000000 -0.118344 0.039994 1.000000 -0.126643 0.045113 1.000000 -0.138189 0.050348 1.000000 -0.149273 0.055443 1.000000 -0.163453 0.060503 1.000000 -0.177307 0.065218 1.000000 -0.193982 0.069692 1.000000 -0.210378 0.073601 1.000000 -0.229187 0.077025 1.000000 -0.247652 0.079668 1.000000 -0.267988 0.081564 1.000000 -0.287784 0.082494 1.000000 -0.308788 0.082426 1.000000 -0.328929 0.081271 1.000000 -0.349525 0.078909 1.000000 -0.368826 0.075432 1.000000 -0.387799 0.070606 1.000000 -0.404967 0.064753 1.000000 -0.421065 0.057484 1.000000 -0.434810 0.049399 1.000000 -0.446863 0.039889 1.000000 -0.456008 0.029883 1.000000 -0.463027 0.018467 1.000000 -0.466587 0.006962 1.000000 -0.467820 -0.005962 1.000000 -0.465033 -0.018498 1.000000 -0.459979 -0.032516 1.000000 -0.450300 -0.045597 1.000000 -0.438695 -0.060274 1.000000 -0.421781 -0.073362 1.000000 -0.403602 -0.088165 1.000000 -0.379337 -0.100579 1.000000 -0.354857 -0.114752 1.000000 -0.323448 -0.125562 1.000000 -0.293376 -0.137996 1.000000 -0.255546 -0.145972 1.000000 -0.221226 -0.155189 1.000000 -0.178464 -0.158924 1.000000 -0.142059 -0.163269 1.000000 -0.096804 -0.161532 1.000000 -0.061291 -0.159639 1.000000 -0.016855 -0.151918 1.000000 0.014330 -0.143355 1.000000 0.054254 -0.130361 1.000000 0.077975 -0.116183 1.000000 0.110193 -0.100009 1.000000 0.124593 -0.082857 1.000000 0.147371 -0.066615 1.000000 0.152659 -0.050101 1.000000 0.166390 -0.037141 1.000000 0.165076 -0.024451 1.000000 0.172289 -0.017186 1.000000 0.168438 -0.009276 1.000000 0.172362 -0.007675 1.000000 0.169353 -0.003293 1.000000 0.171817 -0.005178 1.000000 0.170854 -0.001922 1.000000 0.172193 -0.004679 1.000000 0.173392 -0.000700 1.000000 0.172583 -0.002433 1.000000 0.175265 0.002705 1.000000 0.171485 0.002981 1.000000 0.174440 0.008792 1.000000 0.167433 0.011091 1.000000 0.169230 0.016657 1.000000 0.159312 0.019880 1.000000 0.159354 0.024140 1.000000 0.147545 0.027337 1.000000 0.145920 0.030336 1.000000 0.132847 0.033253 1.000000 0.129635 0.035330 1.000000 0.115610 0.037852 1.000000 0.110956 0.039200 1.000000 0.096251 0.041199 1.000000 0.090420 0.041894 1.000000 0.075341 0.043282 1.000000 0.068669 0.043373 1.000000 0.053534 0.044129 1.000000 0.046367 0.043676 1.000000 0.031473 0.043835 1.000000 0.024129 0.042908 1.000000 0.009743 0.042539 1.000000 0.002497 0.041211 1.000000 -0.011152 0.040395 1.000000 -0.018074 0.038734 1.000000 -0.030789 0.037552 1.000000 -0.037200 0.035619 1.000000 -0.048817 0.034146 1.000000 
-0.043309 0.040882 1.000000 -0.052776 0.038889 1.000000 -0.057964 0.035489 1.000000 -0.066329 0.033306 1.000000 -0.070639 0.029726 1.000000 -0.077825 0.027430 1.000000 -0.081198 0.023747 1.000000 -0.087158 0.021415 1.000000 -0.089567 0.017714 1.000000 -0.094282 0.015425 1.000000 -0.095733 0.011797 1.000000 -0.099216 0.009631 1.000000 -0.099749 0.006172 1.000000 -0.102048 0.004208 1.000000 -0.101737 0.001019 1.000000 -0.102937 -0.000665 1.000000 -0.101886 -0.003483 1.000000 -0.102109 -0.004808 1.000000 -0.100458 -0.007157 1.000000 -0.099862 -0.008048 1.000000 -0.097777 -0.009832 1.000000 -0.096556 -0.010216 1.000000 -0.094234 -0.011345 1.000000 -0.092616 -0.011153 1.000000 -0.090282 -0.011541 1.000000 -0.088530 -0.010706 1.000000 -0.086434 -0.010274 1.000000 -0.084842 -0.008733 1.000000 -0.083262 -0.007413 1.000000 -0.082156 -0.005112 1.000000 -0.081393 -0.002848 1.000000 -0.081127 0.000256 1.000000 -0.081506 0.003494 1.000000 -0.082455 0.007421 1.000000 -0.084318 0.011631 1.000000 -0.086869 0.016362 1.000000 -0.090560 0.021492 1.000000 -0.095092 0.026957 1.000000 -0.100942 0.032886 1.000000 -0.107800 0.038939 1.000000 -0.116093 0.045463 1.000000 -0.125555 0.051869 1.000000 -0.136493 0.058679 1.000000 -0.148723 0.065101 1.000000 -0.162378 0.071783 1.000000 -0.177375 0.077775 1.000000 -0.193637 0.083812 1.000000 -0.211183 0.088839 1.000000 -0.229713 0.093638 1.000000 -0.249335 0.097114 1.000000 -0.269528 0.100054 1.000000 -0.290470 0.101397 1.000000 -0.311453 0.101900 1.000000 -0.332691 0.100618 1.000000 -0.353355 0.098232 1.000000 -0.373658 0.094003 1.000000 -0.392738 0.088477 1.000000 -0.410771 0.081217 1.000000 -0.426973 0.072546 1.000000 -0.441432 0.062427 1.000000 -0.453571 0.050850 1.000000 -0.463309 0.038268 1.000000 -0.470424 0.024205 1.000000 -0.474538 0.009702 1.000000 -0.475946 -0.006328 1.000000 -0.473786 -0.022147 1.000000 -0.469068 -0.039593 1.000000 -0.460180 -0.056098 1.000000 -0.449124 -0.074375 1.000000 -0.433183 -0.090871 1.000000 -0.415735 -0.109284 1.000000 -0.392518 -0.124903 1.000000 -0.368814 -0.142495 1.000000 -0.338291 -0.156060 1.000000 -0.308814 -0.171457 1.000000 -0.271385 -0.181404 1.000000 -0.237244 -0.192770 1.000000 -0.194114 -0.197272 1.000000 -0.157340 -0.202536 1.000000 -0.110867 -0.199941 1.000000 -0.074503 -0.197380 1.000000 -0.028266 -0.186945 1.000000 0.003981 -0.176012 1.000000 0.045665 -0.158669 1.000000 0.070298 -0.140691 1.000000 0.103461 -0.119376 1.000000 0.118272 -0.097638 1.000000 0.140678 -0.076821 1.000000 0.145490 -0.055841 1.000000 0.157780 -0.040274 1.000000 0.154796 -0.024303 1.000000 0.160575 -0.017010 1.000000 0.154361 -0.007532 1.000000 0.157402 -0.007492 1.000000 0.152233 -0.002228 1.000000 0.154899 -0.005581 1.000000 0.152704 -0.001508 1.000000 0.154953 -0.005504 1.000000 0.155717 0.000063 1.000000 0.156160 -0.002523 1.000000 0.159027 0.004667 1.000000 0.156746 0.004690 1.000000 0.160266 0.012553 1.000000 0.155034 0.015408 1.000000 0.157329 0.022659 1.000000 0.149230 0.026808 1.000000 0.149698 0.032075 1.000000 0.140074 0.036157 1.000000 0.138883 0.039794 1.000000 0.128206 0.043568 1.000000 0.125320 0.046108 1.000000 0.113696 0.049414 1.000000 0.109205 0.051063 1.000000 0.096812 0.053705 1.000000 0.091001 0.054512 1.000000 0.078115 0.056366 1.000000 0.071362 0.056370 1.000000 0.058287 0.057416 1.000000 0.050973 0.056683 1.000000 0.037995 0.056977 1.000000 0.030461 0.055591 1.000000 0.017826 0.055227 1.000000 0.010363 0.053280 1.000000 -0.001718 0.052363 1.000000 -0.008869 0.049940 1.000000 -0.020219 0.048572 1.000000 -0.026861 0.045752 1.000000 -0.037332 0.044028 1.000000 
-0.059897 0.047439 1.000000 -0.070063 0.044958 1.000000 -0.074830 0.041538 1.000000 -0.083705 0.038811 1.000000 -0.087662 0.035200 1.000000 -0.095148 0.032323 1.000000 -0.098233 0.028603 1.000000 -0.104262 0.025671 1.000000 -0.106443 0.021928 1.000000 -0.110984 0.019038 1.000000 -0.112264 0.015367 1.000000 -0.115324 0.012618 1.000000 -0.115734 0.009122 1.000000 -0.117362 0.006614 1.000000 -0.116970 0.003399 1.000000 -0.117257 0.001229 1.000000 -0.116160 -0.001596 1.000000 -0.115238 -0.003330 1.000000 -0.113565 -0.005655 1.000000 -0.111609 -0.006861 1.000000 -0.109516 -0.008579 1.000000 -0.106735 -0.009169 1.000000 -0.104406 -0.010175 1.000000 -0.101047 -0.010063 1.000000 -0.098691 -0.010257 1.000000 -0.095034 -0.009363 1.000000 -0.092885 -0.008649 1.000000 -0.089242 -0.006895 1.000000 -0.087561 -0.005187 1.000000 -0.084276 -0.002506 1.000000 -0.083350 0.000267 1.000000 -0.080795 0.003929 1.000000 -0.080939 0.007812 1.000000 -0.079513 0.012482 1.000000 -0.081063 0.017482 1.000000 -0.081180 0.023142 1.000000 -0.084488 0.029205 1.000000 -0.086564 0.035773 1.000000 -0.091977 0.042764 1.000000 -0.096407 0.050070 1.000000 -0.104242 0.057749 1.000000 -0.111363 0.065513 1.000000 -0.121866 0.073516 1.000000 -0.131909 0.081328 1.000000 -0.145207 0.089155 1.000000 -0.158249 0.096476 1.000000 -0.174289 0.103501 1.000000 -0.190185 0.109677 1.000000 -0.208680 0.115176 1.000000 -0.227017 0.119483 1.000000 -0.247395 0.122698 1.000000 -0.267452 0.124419 1.000000 -0.288842 0.124648 1.000000 -0.309596 0.123173 1.000000 -0.330856 0.119876 1.000000 -0.351038 0.114815 1.000000 -0.370842 0.107719 1.000000 -0.389046 0.098989 1.000000 -0.406024 0.088145 1.000000 -0.420862 0.075996 1.000000 -0.433764 0.061766 1.000000 -0.444015 0.046736 1.000000 -0.451842 0.029696 1.000000 -0.456554 0.012484 1.000000 -0.458616 -0.006715 1.000000 -0.457118 -0.025376 1.000000 -0.453014 -0.046122 1.000000 -0.444855 -0.065541 1.000000 -0.434387 -0.087271 1.000000 -0.419249 -0.106751 1.000000 -0.402365 -0.128829 1.000000 -0.380013 -0.147500 1.000000 -0.356811 -0.168980 1.000000 -0.327153 -0.185562 1.000000 -0.298036 -0.204902 1.000000 -0.261357 -0.217542 1.000000 -0.227346 -0.232460 1.000000 -0.184730 -0.238828 1.000000 -0.147860 -0.246516 1.000000 -0.101639 -0.244369 1.000000 -0.065184 -0.242240 1.000000 -0.019092 -0.230402 1.000000 0.012711 -0.217286 1.000000 0.054055 -0.196678 1.000000 0.077026 -0.173979 1.000000 0.109378 -0.147983 1.000000 0.120898 -0.120074 1.000000 0.141848 -0.093834 1.000000 0.142093 -0.067203 1.000000 0.152128 -0.046447 1.000000 0.144658 -0.027245 1.000000 0.147891 -0.016751 1.000000 0.139248 -0.006103 1.000000 0.140968 -0.005547 1.000000 0.135882 -0.000790 1.000000 0.137693 -0.005649 1.000000 0.135873 -0.001976 1.000000 0.137890 -0.007691 1.000000 0.139330 -0.001907 1.000000 0.138862 -0.005743 1.000000 0.143008 0.002120 1.000000 0.139120 0.001742 1.000000 0.144695 0.010503 1.000000 0.137614 0.014028 1.000000 0.142066 0.022461 1.000000 0.132206 0.027511 1.000000 0.134620 0.033297 1.000000 0.123754 0.038152 1.000000 0.124374 0.042204 1.000000 0.112657 0.046817 1.000000 0.111314 0.049840 1.000000 0.098615 0.053967 1.000000 0.095403 0.056085 1.000000 0.081856 0.059403 1.000000 0.077132 0.060591 1.000000 0.063041 0.062920 1.000000 0.057246 0.063201 1.000000 0.042950 0.064517 1.000000 0.036500 0.063969 1.000000 0.022315 0.064347 1.000000 0.015567 0.063077 1.000000 0.001769 0.062637 1.000000 -0.004982 0.060755 1.000000 -0.018154 0.059627 1.000000 -0.024666 0.057235 1.000000 -0.037007 0.055545 1.000000 -0.043083 0.052732 1.000000 -0.054413 0.050594 1.000000 
-0.049008 0.056532 1.000000 -0.058181 0.053822 1.000000 -0.063132 0.049131 1.000000 -0.071277 0.046138 1.000000 -0.075398 0.041168 1.000000 -0.082420 0.038000 1.000000 -0.085636 0.032860 1.000000 -0.091466 0.029626 1.000000 -0.093737 0.024437 1.000000 -0.098336 0.021246 1.000000 -0.099654 0.016137 1.000000 -0.103018 0.013101 1.000000 -0.103410 0.008211 1.000000 -0.105568 0.005443 1.000000 -0.105095 0.000914 1.000000 -0.106117 -0.001475 1.000000 -0.104874 -0.005502 1.000000 -0.104866 -0.007402 1.000000 -0.102978 -0.010787 1.000000 -0.102084 -0.012097 1.000000 -0.099705 -0.014706 1.000000 -0.098102 -0.015326 1.000000 -0.095413 -0.017033 1.000000 -0.093314 -0.016868 1.000000 -0.090521 -0.017554 1.000000 -0.088170 -0.016512 1.000000 -0.085504 -0.016066 1.000000 -0.083179 -0.014057 1.000000 -0.080898 -0.012379 1.000000 -0.078912 -0.009323 1.000000 -0.077302 -0.006329 1.000000 -0.076000 -0.002155 1.000000 -0.075379 0.002212 1.000000 -0.075142 0.007545 1.000000 -0.075857 0.013298 1.000000 -0.077090 0.019787 1.000000 -0.079509 0.026877 1.000000 -0.082630 0.034446 1.000000 -0.087130 0.042730 1.000000 -0.092548 0.051204 1.000000 -0.099482 0.060418 1.000000 -0.107560 0.069493 1.000000 -0.117221 0.079226 1.000000 -0.128225 0.088442 1.000000 -0.140792 0.098122 1.000000 -0.154832 0.106857 1.000000 -0.170302 0.115748 1.000000 -0.187263 0.123230 1.000000 -0.205386 0.130470 1.000000 -0.224863 0.135828 1.000000 -0.245080 0.140489 1.000000 -0.266333 0.142844 1.000000 -0.287752 0.144045 1.000000 -0.309704 0.142632 1.000000 -0.331124 0.139674 1.000000 -0.352420 0.133989 1.000000 -0.372427 0.126485 1.000000 -0.391576 0.116399 1.000000 -0.408716 0.104362 1.000000 -0.424279 0.090167 1.000000 -0.437259 0.074003 1.000000 -0.448047 0.056346 1.000000 -0.455905 0.036744 1.000000 -0.461098 0.016477 1.000000 -0.463269 -0.005763 1.000000 -0.462399 -0.027750 1.000000 -0.458651 -0.051857 1.000000 -0.451464 -0.074724 1.000000 -0.441736 -0.099981 1.000000 -0.428004 -0.122893 1.000000 -0.412250 -0.148520 1.000000 -0.391627 -0.170457 1.000000 -0.369769 -0.195356 1.000000 -0.341812 -0.214836 1.000000 -0.313903 -0.237253 1.000000 -0.278356 -0.252094 1.000000 -0.245015 -0.269397 1.000000 -0.202405 -0.276758 1.000000 -0.165418 -0.285628 1.000000 -0.117791 -0.282617 1.000000 -0.080517 -0.279927 1.000000 -0.031901 -0.264840 1.000000 0.001008 -0.249159 1.000000 0.044992 -0.222983 1.000000 0.068887 -0.196014 1.000000 0.102568 -0.163248 1.000000 0.114600 -0.130108 1.000000 0.134506 -0.098016 1.000000 0.134411 -0.066121 1.000000 0.141442 -0.042839 1.000000 0.131529 -0.020067 1.000000 0.132630 -0.011600 1.000000 0.120202 -0.000609 1.000000 0.120273 -0.004126 1.000000 0.111482 0.001047 1.000000 0.113698 -0.005573 1.000000 0.110141 -0.001705 1.000000 0.113100 -0.008961 1.000000 0.113889 -0.000910 1.000000 0.114420 -0.006202 1.000000 0.118963 0.004410 1.000000 0.116290 0.003003 1.000000 0.123188 0.014059 1.000000 0.118217 0.018038 1.000000 0.123935 0.028067 1.000000 0.116116 0.034254 1.000000 0.119754 0.040527 1.000000 0.111765 0.046402 1.000000 0.113513 0.050891 1.000000 0.104764 0.056628 1.000000 0.104149 0.060150 1.000000 0.094213 0.065325 1.000000 0.091371 0.067822 1.000000 0.080386 0.071976 1.000000 0.075807 0.073327 1.000000 0.064117 0.076253 1.000000 0.058335 0.076460 1.000000 0.046292 0.078162 1.000000 0.039775 0.077318 1.000000 0.027684 0.077910 1.000000 0.020817 0.076138 1.000000 0.008933 0.075776 1.000000 0.002027 0.073203 1.000000 -0.009434 0.072047 1.000000 -0.016125 0.068792 1.000000 -0.026977 0.066989 1.000000 -0.033247 0.063158 1.000000 -0.043329 0.060842 1.000000 