# vtk DataFile Version 2.0
Comment goes here
ASCII

DATASET STRUCTURED_POINTS
DIMENSIONS    128   128   1

ORIGIN    0.000   0.000   0.000
SPACING   0.0156250.015625   1.000

POINT_DATA   16384
VECTORS u double

-0.096231 0.000023 1.000000 -0.103918 0.000021 1.000000 -0.105906 0.000024 1.000000 -0.112084 0.000021 1.000000 -0.113082 0.000024 1.000000 -0.117706 0.000021 1.000000 -0.117743 0.000024 1.000000 -0.120790 0.000021 1.000000 -0.119914 0.000024 1.000000 -0.121390 0.000020 1.000000 -0.119671 0.000023 1.000000 -0.119610 0.000020 1.000000 -0.117137 0.000023 1.000000 -0.115609 0.000019 1.000000 -0.112494 0.000022 1.000000 -0.109602 0.000018 1.000000 -0.105975 0.000021 1.000000 -0.101857 0.000017 1.000000 -0.097870 0.000020 1.000000 -0.092701 0.000016 1.000000 -0.088522 0.000019 1.000000 -0.082510 0.000016 1.000000 -0.078325 0.000018 1.000000 -0.071710 0.000015 1.000000 -0.067725 0.000017 1.000000 -0.060778 0.000014 1.000000 -0.057211 0.000017 1.000000 -0.050231 0.000014 1.000000 -0.047316 0.000016 1.000000 -0.040625 0.000014 1.000000 -0.038607 0.000016 1.000000 -0.032545 0.000014 1.000000 -0.031674 0.000017 1.000000 -0.026590 0.000015 1.000000 -0.027112 0.000017 1.000000 -0.023349 0.000017 1.000000 -0.025493 0.000019 1.000000 -0.023369 0.000019 1.000000 -0.027330 0.000020 1.000000 -0.027117 0.000021 1.000000 -0.033028 0.000022 1.000000 -0.034919 0.000024 1.000000 -0.042825 0.000024 1.000000 -0.046906 0.000026 1.000000 -0.056732 0.000026 1.000000 -0.062945 0.000028 1.000000 -0.074470 0.000027 1.000000 -0.082585 0.000029 1.000000 -0.095414 0.000028 1.000000 -0.105010 0.000029 1.000000 -0.118567 0.000026 1.000000 -0.129027 0.000027 1.000000 -0.142565 0.000023 1.000000 -0.153090 0.000023 1.000000 -0.165725 0.000017 1.000000 -0.175384 0.000017 1.000000 -0.186153 0.000009 1.000000 -0.193945 0.000007 1.000000 -0.201890 -0.000003 1.000000 -0.206835 -0.000006 1.000000 -0.211092 -0.000018 1.000000 -0.212325 -0.000023 1.000000 -0.212221 -0.000036 1.000000 -0.209083 -0.000041 1.000000 -0.204215 -0.000056 1.000000 -0.196328 -0.000062 1.000000 -0.186619 -0.000078 1.000000 -0.173947 -0.000083 1.000000 -0.159688 -0.000098 1.000000 -0.142569 -0.000103 1.000000 -0.124438 -0.000117 1.000000 -0.103610 -0.000119 1.000000 -0.082673 -0.000131 1.000000 -0.059268 -0.000130 1.000000 -0.036948 -0.000139 1.000000 -0.012440 -0.000134 1.000000 0.009572 -0.000139 1.000000 0.033484 -0.000131 1.000000 0.053412 -0.000131 1.000000 0.075030 -0.000119 1.000000 0.091293 -0.000115 1.000000 0.109213 -0.000101 1.000000 0.120756 -0.000094 1.000000 0.134159 -0.000078 1.000000 0.140717 -0.000069 1.000000 0.149533 -0.000054 1.000000 0.151710 -0.000045 1.000000 0.156571 -0.000032 1.000000 0.155688 -0.000024 1.000000 0.157714 -0.000014 1.000000 0.155455 -0.000008 1.000000 0.155932 -0.000002 1.000000 0.153864 0.000002 1.000000 0.153810 0.000005 1.000000 0.152857 0.000007 1.000000 0.152631 0.000008 1.000000 0.152843 0.000010 1.000000 0.152096 0.000010 1.000000 0.152819 0.000011 1.000000 0.150715 0.000011 1.000000 0.150926 0.000013 1.000000 0.146541 0.000012 1.000000 0.145211 0.000015 1.000000 0.137915 0.000014 1.000000 0.134440 0.000016 1.000000 0.124220 0.000015 1.000000 0.118746 0.000017 1.000000 0.106211 0.000016 1.000000 0.099295 0.000018 1.000000 0.085230 0.000016 1.000000 0.077454 0.000018 1.000000 0.062553 0.000017 1.000000 0.054392 0.000018 1.000000 0.039204 0.000017 1.000000 0.031033 0.000019 1.000000 0.015991 0.000017 1.000000 0.008108 0.000019 1.000000 -0.006449 0.000018 1.000000 -0.013811 0.000020 1.000000 -0.027619 0.000019 1.000000 -0.034286 0.000021 1.000000 -0.047137 0.000019 1.000000 -0.052983 0.000022 1.000000 -0.064715 0.000020 1.000000 -0.069654 0.000022 1.000000 -0.080138 0.000020 1.000000 -0.084116 0.000023 1.000000 -0.093244 0.000020 1.000000 
-0.087426 0.005359 1.000000 -0.094541 0.004856 1.000000 -0.096730 0.004105 1.000000 -0.102491 0.003607 1.000000 -0.103654 0.002833 1.000000 -0.108022 0.002349 1.000000 -0.108186 0.001564 1.000000 -0.111144 0.001104 1.000000 -0.110356 0.000321 1.000000 -0.111908 -0.000104 1.000000 -0.110236 -0.000869 1.000000 -0.110418 -0.001249 1.000000 -0.107951 -0.001980 1.000000 -0.106825 -0.002305 1.000000 -0.103675 -0.002984 1.000000 -0.101336 -0.003244 1.000000 -0.097635 -0.003853 1.000000 -0.094211 -0.004038 1.000000 -0.090113 -0.004560 1.000000 -0.085763 -0.004660 1.000000 -0.081439 -0.005079 1.000000 -0.076355 -0.005085 1.000000 -0.071996 -0.005384 1.000000 -0.066401 -0.005288 1.000000 -0.062214 -0.005451 1.000000 -0.056360 -0.005246 1.000000 -0.052569 -0.005259 1.000000 -0.046738 -0.004936 1.000000 -0.043580 -0.004789 1.000000 -0.038077 -0.004343 1.000000 -0.035801 -0.004026 1.000000 -0.030949 -0.003455 1.000000 -0.029808 -0.002963 1.000000 -0.025940 -0.002268 1.000000 -0.026185 -0.001606 1.000000 -0.023631 -0.000795 1.000000 -0.025493 0.000027 1.000000 -0.024559 0.000935 1.000000 -0.028238 0.001892 1.000000 -0.029182 0.002868 1.000000 -0.034814 0.003921 1.000000 -0.037822 0.004920 1.000000 -0.045455 0.006016 1.000000 -0.050602 0.006978 1.000000 -0.060165 0.008044 1.000000 -0.067386 0.008895 1.000000 -0.078658 0.009846 1.000000 -0.087715 0.010500 1.000000 -0.100305 0.011239 1.000000 -0.110768 0.011604 1.000000 -0.124103 0.012033 1.000000 -0.135346 0.012025 1.000000 -0.148680 0.012053 1.000000 -0.159898 0.011602 1.000000 -0.172349 0.011163 1.000000 -0.182605 0.010229 1.000000 -0.193211 0.009288 1.000000 -0.201503 0.007874 1.000000 -0.209309 0.006440 1.000000 -0.214660 0.004594 1.000000 -0.218808 0.002726 1.000000 -0.220363 0.000541 1.000000 -0.220188 -0.001658 1.000000 -0.217301 -0.004046 1.000000 -0.212405 -0.006435 1.000000 -0.204712 -0.008861 1.000000 -0.195024 -0.011269 1.000000 -0.182495 -0.013550 1.000000 -0.168301 -0.015788 1.000000 -0.151270 -0.017728 1.000000 -0.133234 -0.019597 1.000000 -0.112418 -0.021002 1.000000 -0.091581 -0.022302 1.000000 -0.068082 -0.022993 1.000000 -0.045834 -0.023552 1.000000 -0.021104 -0.023393 1.000000 0.000897 -0.023100 1.000000 0.025163 -0.022050 1.000000 0.045165 -0.020902 1.000000 0.067239 -0.019058 1.000000 0.083677 -0.017205 1.000000 0.102091 -0.014829 1.000000 0.113913 -0.012564 1.000000 0.127781 -0.010056 1.000000 0.134705 -0.007753 1.000000 0.143911 -0.005548 1.000000 0.146490 -0.003561 1.000000 0.151674 -0.002018 1.000000 0.151125 -0.000592 1.000000 0.153466 0.000105 1.000000 0.151368 0.000885 1.000000 0.152218 0.000796 1.000000 0.150100 0.001065 1.000000 0.150515 0.000511 1.000000 0.149340 0.000599 1.000000 0.149712 0.000017 1.000000 0.149620 0.000279 1.000000 0.149604 0.000023 1.000000 0.150005 0.000703 1.000000 0.148781 0.000958 1.000000 0.148674 0.002101 1.000000 0.145315 0.002871 1.000000 0.143653 0.004328 1.000000 0.137489 0.005400 1.000000 0.133640 0.006864 1.000000 0.124613 0.007863 1.000000 0.118756 0.009022 1.000000 0.107468 0.009742 1.000000 0.100185 0.010508 1.000000 0.087406 0.010937 1.000000 0.079278 0.011356 1.000000 0.065674 0.011548 1.000000 0.057167 0.011692 1.000000 0.043264 0.011696 1.000000 0.034750 0.011625 1.000000 0.020960 0.011479 1.000000 0.012738 0.011239 1.000000 -0.000616 0.010977 1.000000 -0.008310 0.010604 1.000000 -0.020979 0.010255 1.000000 -0.027967 0.009779 1.000000 -0.039761 0.009367 1.000000 -0.045913 0.008809 1.000000 -0.056686 0.008354 1.000000 -0.061911 0.007732 1.000000 -0.071550 0.007249 1.000000 -0.075791 0.006574 1.000000 -0.084204 0.006076 1.000000 
-0.097566 0.010360 1.000000 -0.105259 0.009325 1.000000 -0.107218 0.007973 1.000000 -0.113401 0.006945 1.000000 -0.114368 0.005555 1.000000 -0.118991 0.004553 1.000000 -0.118993 0.003146 1.000000 -0.122030 0.002190 1.000000 -0.121114 0.000789 1.000000 -0.122567 -0.000100 1.000000 -0.120800 -0.001467 1.000000 -0.120704 -0.002266 1.000000 -0.118176 -0.003570 1.000000 -0.116597 -0.004257 1.000000 -0.113418 -0.005467 1.000000 -0.110460 -0.006021 1.000000 -0.106762 -0.007104 1.000000 -0.102563 -0.007505 1.000000 -0.098496 -0.008428 1.000000 -0.093230 -0.008657 1.000000 -0.088965 -0.009389 1.000000 -0.082840 -0.009428 1.000000 -0.078562 -0.009936 1.000000 -0.071821 -0.009767 1.000000 -0.067734 -0.010023 1.000000 -0.060646 -0.009631 1.000000 -0.056971 -0.009605 1.000000 -0.049837 -0.008975 1.000000 -0.046806 -0.008645 1.000000 -0.039951 -0.007766 1.000000 -0.037810 -0.007112 1.000000 -0.031576 -0.005979 1.000000 -0.030579 -0.004992 1.000000 -0.025318 -0.003608 1.000000 -0.025713 -0.002292 1.000000 -0.021774 -0.000674 1.000000 -0.023798 0.000947 1.000000 -0.021508 0.002763 1.000000 -0.025361 0.004644 1.000000 -0.025001 0.006597 1.000000 -0.030827 0.008662 1.000000 -0.032602 0.010664 1.000000 -0.040458 0.012805 1.000000 -0.044467 0.014736 1.000000 -0.054288 0.016810 1.000000 -0.060486 0.018521 1.000000 -0.072061 0.020357 1.000000 -0.080228 0.021676 1.000000 -0.093169 0.023081 1.000000 -0.102889 0.023827 1.000000 -0.116621 0.024604 1.000000 -0.127275 0.024604 1.000000 -0.141044 0.024575 1.000000 -0.151826 0.023692 1.000000 -0.164734 0.022724 1.000000 -0.174694 0.020879 1.000000 -0.185756 0.018907 1.000000 -0.193872 0.016105 1.000000 -0.202106 0.013154 1.000000 -0.207373 0.009493 1.000000 -0.211893 0.005685 1.000000 -0.213424 0.001357 1.000000 -0.213538 -0.003099 1.000000 -0.210656 -0.007824 1.000000 -0.205948 -0.012645 1.000000 -0.198262 -0.017443 1.000000 -0.188648 -0.022295 1.000000 -0.176108 -0.026806 1.000000 -0.161871 -0.031324 1.000000 -0.144804 -0.035170 1.000000 -0.126612 -0.038969 1.000000 -0.105741 -0.041772 1.000000 -0.084654 -0.044467 1.000000 -0.061103 -0.045877 1.000000 -0.038551 -0.047116 1.000000 -0.013812 -0.046865 1.000000 0.008479 -0.046406 1.000000 0.032658 -0.044400 1.000000 0.052834 -0.042206 1.000000 0.074669 -0.038630 1.000000 0.091043 -0.034968 1.000000 0.109035 -0.030337 1.000000 0.120457 -0.025783 1.000000 0.133733 -0.020870 1.000000 0.139908 -0.016199 1.000000 0.148410 -0.011838 1.000000 0.149995 -0.007808 1.000000 0.154417 -0.004667 1.000000 0.152843 -0.001816 1.000000 0.154393 -0.000258 1.000000 0.151502 0.001239 1.000000 0.151587 0.001266 1.000000 0.149115 0.001705 1.000000 0.148870 0.000766 1.000000 0.147803 0.000811 1.000000 0.147594 -0.000272 1.000000 0.147922 0.000118 1.000000 0.147351 -0.000375 1.000000 0.148343 0.000834 1.000000 0.146487 0.001342 1.000000 0.147061 0.003478 1.000000 0.142930 0.005033 1.000000 0.141952 0.007841 1.000000 0.134831 0.010027 1.000000 0.131565 0.012892 1.000000 0.121412 0.014900 1.000000 0.116086 0.017162 1.000000 0.103609 0.018587 1.000000 0.096852 0.020079 1.000000 0.082868 0.020924 1.000000 0.075250 0.021750 1.000000 0.060434 0.022128 1.000000 0.052407 0.022428 1.000000 0.037290 0.022434 1.000000 0.029224 0.022322 1.000000 0.014235 0.022029 1.000000 0.006433 0.021595 1.000000 -0.008085 0.021066 1.000000 -0.015384 0.020383 1.000000 -0.029164 0.019675 1.000000 -0.035780 0.018803 1.000000 -0.048614 0.017965 1.000000 -0.054417 0.016947 1.000000 -0.066141 0.016019 1.000000 -0.071045 0.014887 1.000000 -0.081527 0.013899 1.000000 -0.085475 0.012677 1.000000 -0.094607 0.011655 1.000000 
-0.089982 0.016010 1.000000 -0.097098 0.014508 1.000000 -0.099235 0.012247 1.000000 -0.104995 0.010757 1.000000 -0.106101 0.008423 1.000000 -0.110460 0.006974 1.000000 -0.110558 0.004603 1.000000 -0.113492 0.003225 1.000000 -0.112624 0.000859 1.000000 -0.114135 -0.000417 1.000000 -0.112367 -0.002732 1.000000 -0.112484 -0.003874 1.000000 -0.109905 -0.006087 1.000000 -0.108687 -0.007063 1.000000 -0.105409 -0.009121 1.000000 -0.102950 -0.009900 1.000000 -0.099105 -0.011750 1.000000 -0.095532 -0.012304 1.000000 -0.091273 -0.013893 1.000000 -0.086745 -0.014192 1.000000 -0.082246 -0.015469 1.000000 -0.076954 -0.015488 1.000000 -0.072405 -0.016404 1.000000 -0.066574 -0.016117 1.000000 -0.062183 -0.016626 1.000000 -0.056066 -0.016009 1.000000 -0.052055 -0.016069 1.000000 -0.045935 -0.015101 1.000000 -0.042543 -0.014675 1.000000 -0.036728 -0.013339 1.000000 -0.034205 -0.012401 1.000000 -0.029023 -0.010686 1.000000 -0.027628 -0.009222 1.000000 -0.023420 -0.007133 1.000000 -0.023410 -0.005149 1.000000 -0.020517 -0.002710 1.000000 -0.022136 -0.000240 1.000000 -0.020880 0.002498 1.000000 -0.024342 0.005385 1.000000 -0.025002 0.008334 1.000000 -0.030462 0.011523 1.000000 -0.033247 0.014551 1.000000 -0.040776 0.017880 1.000000 -0.045787 0.020809 1.000000 -0.055336 0.024063 1.000000 -0.062532 0.026668 1.000000 -0.073901 0.029588 1.000000 -0.083064 0.031607 1.000000 -0.095874 0.033899 1.000000 -0.106586 0.035056 1.000000 -0.120265 0.036419 1.000000 -0.131896 0.036448 1.000000 -0.145685 0.036605 1.000000 -0.157412 0.035292 1.000000 -0.170399 0.034031 1.000000 -0.181250 0.031252 1.000000 -0.192431 0.028467 1.000000 -0.201357 0.024224 1.000000 -0.209728 0.019942 1.000000 -0.215705 0.014380 1.000000 -0.220363 0.008776 1.000000 -0.222493 0.002186 1.000000 -0.222739 -0.004426 1.000000 -0.220344 -0.011636 1.000000 -0.215761 -0.018829 1.000000 -0.208459 -0.026161 1.000000 -0.198964 -0.033423 1.000000 -0.186706 -0.040327 1.000000 -0.172576 -0.047092 1.000000 -0.155671 -0.052987 1.000000 -0.137551 -0.058659 1.000000 -0.116686 -0.062960 1.000000 -0.095598 -0.066940 1.000000 -0.071851 -0.069096 1.000000 -0.049190 -0.070844 1.000000 -0.024023 -0.070423 1.000000 -0.001514 -0.069570 1.000000 0.023291 -0.066405 1.000000 0.043751 -0.062913 1.000000 0.066296 -0.057266 1.000000 0.082934 -0.051570 1.000000 0.101548 -0.044244 1.000000 0.113137 -0.037263 1.000000 0.126788 -0.029507 1.000000 0.133005 -0.022430 1.000000 0.141579 -0.015634 1.000000 0.143087 -0.009568 1.000000 0.147354 -0.004866 1.000000 0.145555 -0.000568 1.000000 0.146900 0.001446 1.000000 0.143605 0.003691 1.000000 0.143652 0.003183 1.000000 0.140703 0.003782 1.000000 0.140707 0.001823 1.000000 0.139207 0.001874 1.000000 0.139595 -0.000103 1.000000 0.139646 0.000523 1.000000 0.139935 -0.000398 1.000000 0.140818 0.001566 1.000000 0.140061 0.002240 1.000000 0.140669 0.005657 1.000000 0.137837 0.007980 1.000000 0.136897 0.012428 1.000000 0.131138 0.015786 1.000000 0.127698 0.020283 1.000000 0.118842 0.023342 1.000000 0.113290 0.026825 1.000000 0.102164 0.028976 1.000000 0.095221 0.031249 1.000000 0.082646 0.032538 1.000000 0.074850 0.033791 1.000000 0.061443 0.034391 1.000000 0.053209 0.034836 1.000000 0.039467 0.034879 1.000000 0.031161 0.034680 1.000000 0.017496 0.034270 1.000000 0.009431 0.033560 1.000000 -0.003827 0.032794 1.000000 -0.011400 0.031683 1.000000 -0.023996 0.030651 1.000000 -0.030886 0.029228 1.000000 -0.042628 0.028004 1.000000 -0.048700 0.026337 1.000000 -0.059440 0.024982 1.000000 -0.064599 0.023118 1.000000 -0.074221 0.021679 1.000000 -0.078405 0.019654 1.000000 -0.086813 0.018168 1.000000 
-0.101557 0.020645 1.000000 -0.109271 0.018577 1.000000 -0.111149 0.015870 1.000000 -0.117346 0.013811 1.000000 -0.118225 0.011021 1.000000 -0.122846 0.009010 1.000000 -0.122746 0.006178 1.000000 -0.125754 0.004256 1.000000 -0.124718 0.001431 1.000000 -0.126107 -0.000356 1.000000 -0.124199 -0.003118 1.000000 -0.123997 -0.004728 1.000000 -0.121304 -0.007366 1.000000 -0.119574 -0.008753 1.000000 -0.116206 -0.011204 1.000000 -0.113050 -0.012325 1.000000 -0.109140 -0.014522 1.000000 -0.104696 -0.015337 1.000000 -0.100394 -0.017215 1.000000 -0.094837 -0.017685 1.000000 -0.090314 -0.019179 1.000000 -0.083854 -0.019268 1.000000 -0.079297 -0.020316 1.000000 -0.072176 -0.019990 1.000000 -0.067789 -0.020531 1.000000 -0.060280 -0.019758 1.000000 -0.056281 -0.019736 1.000000 -0.048689 -0.018487 1.000000 -0.045313 -0.017852 1.000000 -0.037965 -0.016104 1.000000 -0.035460 -0.014817 1.000000 -0.028706 -0.012556 1.000000 -0.027331 -0.010595 1.000000 -0.021536 -0.007825 1.000000 -0.021551 -0.005196 1.000000 -0.017079 -0.001948 1.000000 -0.018737 0.001310 1.000000 -0.015939 0.004968 1.000000 -0.019463 0.008766 1.000000 -0.018650 0.012718 1.000000 -0.024212 0.016907 1.000000 -0.025625 0.020978 1.000000 -0.033317 0.025344 1.000000 -0.037092 0.029296 1.000000 -0.046885 0.033555 1.000000 -0.053016 0.037086 1.000000 -0.064728 0.040889 1.000000 -0.073027 0.043650 1.000000 -0.086292 0.046603 1.000000 -0.096361 0.048218 1.000000 -0.110607 0.049914 1.000000 -0.121825 0.050025 1.000000 -0.136279 0.050092 1.000000 -0.147814 0.048406 1.000000 -0.161532 0.046561 1.000000 -0.172383 0.042910 1.000000 -0.184316 0.039014 1.000000 -0.193393 0.033402 1.000000 -0.202484 0.027502 1.000000 -0.208707 0.020128 1.000000 -0.214002 0.012473 1.000000 -0.216417 0.003732 1.000000 -0.217171 -0.005247 1.000000 -0.215051 -0.014802 1.000000 -0.210818 -0.024530 1.000000 -0.203735 -0.034240 1.000000 -0.194415 -0.044048 1.000000 -0.182289 -0.053194 1.000000 -0.168144 -0.062358 1.000000 -0.151265 -0.070194 1.000000 -0.132936 -0.077954 1.000000 -0.111984 -0.083725 1.000000 -0.090499 -0.089303 1.000000 -0.066566 -0.092285 1.000000 -0.043357 -0.094943 1.000000 -0.017962 -0.094541 1.000000 0.005150 -0.093721 1.000000 0.030119 -0.089665 1.000000 0.051052 -0.085211 1.000000 0.073543 -0.077813 1.000000 0.090272 -0.070220 1.000000 0.108479 -0.060539 1.000000 0.119539 -0.051023 1.000000 0.132404 -0.040739 1.000000 0.137392 -0.030990 1.000000 0.144913 -0.021920 1.000000 0.144660 -0.013583 1.000000 0.147748 -0.007135 1.000000 0.144042 -0.001362 1.000000 0.144138 0.001692 1.000000 0.139288 0.004487 1.000000 0.138165 0.004168 1.000000 0.134478 0.004649 1.000000 0.133667 0.002262 1.000000 0.132295 0.001923 1.000000 0.132122 -0.000712 1.000000 0.132773 -0.000222 1.000000 0.132691 -0.001547 1.000000 0.134412 0.000709 1.000000 0.133235 0.001492 1.000000 0.134882 0.005702 1.000000 0.131507 0.008805 1.000000 0.131677 0.014540 1.000000 0.125149 0.019225 1.000000 0.122530 0.025188 1.000000 0.112615 0.029308 1.000000 0.107806 0.033840 1.000000 0.095592 0.036655 1.000000 0.089405 0.039598 1.000000 0.075739 0.041295 1.000000 0.068649 0.042953 1.000000 0.054116 0.043768 1.000000 0.046504 0.044404 1.000000 0.031604 0.044483 1.000000 0.023846 0.044294 1.000000 0.009017 0.043760 1.000000 0.001448 0.042918 1.000000 -0.012953 0.041896 1.000000 -0.020068 0.040552 1.000000 -0.033766 0.039161 1.000000 -0.040231 0.037435 1.000000 -0.053013 0.035779 1.000000 -0.058692 0.033759 1.000000 -0.070393 0.031918 1.000000 -0.075193 0.029668 1.000000 -0.085675 0.027705 1.000000 -0.089533 0.025269 1.000000 -0.098680 0.023233 1.000000 
-0.095064 0.026601 1.000000 -0.102189 0.024099 1.000000 -0.104225 0.020322 1.000000 -0.109992 0.017833 1.000000 -0.110987 0.013922 1.000000 -0.115337 0.011495 1.000000 -0.115304 0.007511 1.000000 -0.118199 0.005197 1.000000 -0.117174 0.001212 1.000000 -0.118605 -0.000937 1.000000 -0.116650 -0.004843 1.000000 -0.116638 -0.006769 1.000000 -0.113838 -0.010509 1.000000 -0.112439 -0.012160 1.000000 -0.108906 -0.015645 1.000000 -0.106209 -0.016967 1.000000 -0.102077 -0.020105 1.000000 -0.098207 -0.021049 1.000000 -0.093631 -0.023751 1.000000 -0.088748 -0.024272 1.000000 -0.083902 -0.026452 1.000000 -0.078199 -0.026505 1.000000 -0.073273 -0.028082 1.000000 -0.066975 -0.027625 1.000000 -0.062177 -0.028521 1.000000 -0.055538 -0.027516 1.000000 -0.051091 -0.027660 1.000000 -0.044397 -0.026069 1.000000 -0.040539 -0.025399 1.000000 -0.034102 -0.023192 1.000000 -0.031088 -0.021659 1.000000 -0.025246 -0.018815 1.000000 -0.023341 -0.016393 1.000000 -0.018449 -0.012914 1.000000 -0.017925 -0.009605 1.000000 -0.014345 -0.005524 1.000000 -0.015467 -0.001380 1.000000 -0.013552 0.003224 1.000000 -0.016563 0.008096 1.000000 -0.016633 0.013083 1.000000 -0.021728 0.018499 1.000000 -0.024038 0.023655 1.000000 -0.031333 0.029347 1.000000 -0.036037 0.034377 1.000000 -0.045528 0.039987 1.000000 -0.052636 0.044511 1.000000 -0.064167 0.049599 1.000000 -0.073505 0.053171 1.000000 -0.086725 0.057233 1.000000 -0.097898 0.059371 1.000000 -0.112240 0.061883 1.000000 -0.124618 0.062120 1.000000 -0.139296 0.062593 1.000000 -0.152017 0.060544 1.000000 -0.166059 0.058600 1.000000 -0.178079 0.054037 1.000000 -0.190393 0.049477 1.000000 -0.200570 0.042391 1.000000 -0.210050 0.035256 1.000000 -0.217259 0.025898 1.000000 -0.222911 0.016486 1.000000 -0.226168 0.005356 1.000000 -0.227230 -0.005792 1.000000 -0.225805 -0.017989 1.000000 -0.221831 -0.030144 1.000000 -0.215313 -0.042565 1.000000 -0.206215 -0.054870 1.000000 -0.194533 -0.066597 1.000000 -0.180576 -0.078116 1.000000 -0.164003 -0.088195 1.000000 -0.145797 -0.097940 1.000000 -0.124949 -0.105398 1.000000 -0.103461 -0.112358 1.000000 -0.079337 -0.116238 1.000000 -0.055938 -0.119448 1.000000 -0.029985 -0.118930 1.000000 -0.006493 -0.117651 1.000000 0.019369 -0.112306 1.000000 0.040764 -0.106337 1.000000 0.064287 -0.096486 1.000000 0.081356 -0.086506 1.000000 0.100401 -0.073511 1.000000 0.111498 -0.061187 1.000000 0.124691 -0.047360 1.000000 0.129401 -0.034939 1.000000 0.136637 -0.022902 1.000000 0.135922 -0.012404 1.000000 0.138287 -0.004248 1.000000 0.133941 0.003042 1.000000 0.133232 0.006200 1.000000 0.127442 0.009664 1.000000 0.125871 0.007993 1.000000 0.121245 0.008280 1.000000 0.120428 0.004007 1.000000 0.118261 0.003419 1.000000 0.118671 -0.000581 1.000000 0.118926 -0.000046 1.000000 0.119695 -0.002037 1.000000 0.121368 0.001022 1.000000 0.121364 0.001770 1.000000 0.123367 0.007385 1.000000 0.121569 0.011185 1.000000 0.122304 0.018786 1.000000 0.117539 0.024934 1.000000 0.114941 0.032817 1.000000 0.106521 0.038066 1.000000 0.101755 0.043848 1.000000 0.091152 0.047378 1.000000 0.085098 0.051101 1.000000 0.073075 0.053294 1.000000 0.066047 0.055414 1.000000 0.053084 0.056536 1.000000 0.045415 0.057347 1.000000 0.031998 0.057537 1.000000 0.024093 0.057267 1.000000 0.010670 0.056669 1.000000 0.002903 0.055530 1.000000 -0.010168 0.054310 1.000000 -0.017506 0.052496 1.000000 -0.029959 0.050813 1.000000 -0.036658 0.048476 1.000000 -0.048298 0.046465 1.000000 -0.054214 0.043717 1.000000 -0.064892 0.041482 1.000000 -0.069922 0.038400 1.000000 -0.079517 0.036019 1.000000 -0.083590 0.032659 1.000000 -0.091995 0.030192 1.000000 
-0.108160 0.030838 1.000000 -0.115922 0.027738 1.000000 -0.117672 0.023673 1.000000 -0.123908 0.020573 1.000000 -0.124647 0.016365 1.000000 -0.129276 0.013326 1.000000 -0.129013 0.009040 1.000000 -0.131983 0.006127 1.000000 -0.130751 0.001838 1.000000 -0.132041 -0.000881 1.000000 -0.129900 -0.005086 1.000000 -0.129528 -0.007539 1.000000 -0.126562 -0.011566 1.000000 -0.124585 -0.013686 1.000000 -0.120905 -0.017434 1.000000 -0.117423 -0.019154 1.000000 -0.113161 -0.022524 1.000000 -0.108312 -0.023782 1.000000 -0.103622 -0.026674 1.000000 -0.097584 -0.027414 1.000000 -0.092637 -0.029728 1.000000 -0.085621 -0.029897 1.000000 -0.080606 -0.031540 1.000000 -0.072858 -0.031086 1.000000 -0.067977 -0.031968 1.000000 -0.059772 -0.030844 1.000000 -0.055243 -0.030877 1.000000 -0.046889 -0.029039 1.000000 -0.042945 -0.028146 1.000000 -0.034777 -0.025555 1.000000 -0.031670 -0.023673 1.000000 -0.024048 -0.020303 1.000000 -0.022044 -0.017392 1.000000 -0.015349 -0.013242 1.000000 -0.014724 -0.009300 1.000000 -0.009348 -0.004406 1.000000 -0.010379 0.000518 1.000000 -0.006710 0.006065 1.000000 -0.009659 0.011847 1.000000 -0.008056 0.017883 1.000000 -0.013143 0.024312 1.000000 -0.013906 0.030582 1.000000 -0.021278 0.037343 1.000000 -0.024610 0.043492 1.000000 -0.034300 0.050155 1.000000 -0.040260 0.055726 1.000000 -0.052144 0.061758 1.000000 -0.060602 0.066207 1.000000 -0.074351 0.070996 1.000000 -0.084945 0.073733 1.000000 -0.099998 0.076633 1.000000 -0.112108 0.077080 1.000000 -0.127663 0.077491 1.000000 -0.140415 0.075169 1.000000 -0.155452 0.072624 1.000000 -0.167757 0.067245 1.000000 -0.181113 0.061506 1.000000 -0.191762 0.053059 1.000000 -0.202250 0.044190 1.000000 -0.210034 0.032989 1.000000 -0.216580 0.021382 1.000000 -0.220437 0.008051 1.000000 -0.222218 -0.005610 1.000000 -0.221345 -0.020201 1.000000 -0.217880 -0.035022 1.000000 -0.211811 -0.049857 1.000000 -0.202994 -0.064828 1.000000 -0.191619 -0.078833 1.000000 -0.177704 -0.092889 1.000000 -0.161263 -0.104973 1.000000 -0.142843 -0.117008 1.000000 -0.121932 -0.126061 1.000000 -0.099956 -0.134915 1.000000 -0.075573 -0.139808 1.000000 -0.051418 -0.144295 1.000000 -0.025063 -0.143987 1.000000 -0.000638 -0.143074 1.000000 0.025615 -0.136922 1.000000 0.047866 -0.130129 1.000000 0.071497 -0.118405 1.000000 0.088912 -0.106334 1.000000 0.107492 -0.090681 1.000000 0.117947 -0.075313 1.000000 0.130020 -0.058642 1.000000 0.132867 -0.042935 1.000000 0.138611 -0.028441 1.000000 0.135069 -0.015234 1.000000 0.135914 -0.005154 1.000000 0.128445 0.003694 1.000000 0.126088 0.008191 1.000000 0.117740 0.011848 1.000000 0.114519 0.010365 1.000000 0.108860 0.010093 1.000000 0.107215 0.005246 1.000000 0.105528 0.003680 1.000000 0.105315 -0.001377 1.000000 0.106366 -0.001246 1.000000 0.106938 -0.003989 1.000000 0.109471 -0.000961 1.000000 0.109061 -0.000507 1.000000 0.112321 0.005497 1.000000 0.110077 0.009868 1.000000 0.112574 0.018569 1.000000 0.107354 0.026588 1.000000 0.105887 0.036206 1.000000 0.096594 0.042495 1.000000 0.093030 0.049209 1.000000 0.081649 0.053312 1.000000 0.076779 0.057675 1.000000 0.063879 0.060346 1.000000 0.057809 0.062944 1.000000 0.043811 0.064399 1.000000 0.036893 0.065490 1.000000 0.022347 0.065805 1.000000 0.015069 0.065622 1.000000 0.000490 0.064950 1.000000 -0.006718 0.063756 1.000000 -0.020932 0.062305 1.000000 -0.027754 0.060343 1.000000 -0.041317 0.058314 1.000000 -0.047539 0.055775 1.000000 -0.060239 0.053335 1.000000 -0.065716 0.050353 1.000000 -0.077385 0.047627 1.000000 -0.082017 0.044292 1.000000 -0.092510 0.041373 1.000000 -0.096225 0.037747 1.000000 -0.105411 0.034707 1.000000 
-0.102608 0.037112 1.000000 -0.109764 0.033611 1.000000 -0.111663 0.028308 1.000000 -0.117458 0.024808 1.000000 -0.118299 0.019291 1.000000 -0.122651 0.015862 1.000000 -0.122431 0.010218 1.000000 -0.125283 0.006935 1.000000 -0.124029 0.001270 1.000000 -0.125354 -0.001788 1.000000 -0.123121 -0.007356 1.000000 -0.122927 -0.010108 1.000000 -0.119799 -0.015452 1.000000 -0.118135 -0.017818 1.000000 -0.114222 -0.022807 1.000000 -0.111174 -0.024711 1.000000 -0.106615 -0.029215 1.000000 -0.102308 -0.030588 1.000000 -0.097259 -0.034480 1.000000 -0.091853 -0.035256 1.000000 -0.086492 -0.038414 1.000000 -0.080181 -0.038536 1.000000 -0.074699 -0.040845 1.000000 -0.067709 -0.040255 1.000000 -0.062313 -0.041607 1.000000 -0.054900 -0.040250 1.000000 -0.049811 -0.040544 1.000000 -0.042262 -0.038367 1.000000 -0.037719 -0.037511 1.000000 -0.030353 -0.034467 1.000000 -0.026610 -0.032388 1.000000 -0.019775 -0.028442 1.000000 -0.017106 -0.025092 1.000000 -0.011176 -0.020234 1.000000 -0.009871 -0.015606 1.000000 -0.005238 -0.009869 1.000000 -0.005592 -0.004018 1.000000 -0.002652 0.002504 1.000000 -0.004950 0.009441 1.000000 -0.004082 0.016567 1.000000 -0.008576 0.024348 1.000000 -0.010106 0.031790 1.000000 -0.016980 0.040051 1.000000 -0.021141 0.047399 1.000000 -0.030467 0.055638 1.000000 -0.037353 0.062354 1.000000 -0.049042 0.069940 1.000000 -0.058550 0.075378 1.000000 -0.072302 0.081576 1.000000 -0.084083 0.085019 1.000000 -0.099345 0.089047 1.000000 -0.112771 0.089785 1.000000 -0.128724 0.090899 1.000000 -0.142879 0.088333 1.000000 -0.158458 0.085942 1.000000 -0.172188 0.079698 1.000000 -0.186157 0.073482 1.000000 -0.198165 0.063528 1.000000 -0.209256 0.053528 1.000000 -0.218256 0.040228 1.000000 -0.225330 0.026888 1.000000 -0.230213 0.010994 1.000000 -0.232422 -0.004884 1.000000 -0.232393 -0.022326 1.000000 -0.229277 -0.039677 1.000000 -0.223921 -0.057450 1.000000 -0.215423 -0.075062 1.000000 -0.204681 -0.091888 1.000000 -0.191088 -0.108472 1.000000 -0.175203 -0.123056 1.000000 -0.157083 -0.137272 1.000000 -0.136555 -0.148285 1.000000 -0.114754 -0.158717 1.000000 -0.090399 -0.164775 1.000000 -0.066152 -0.169958 1.000000 -0.039276 -0.169710 1.000000 -0.014428 -0.168329 1.000000 0.012943 -0.160810 1.000000 0.035801 -0.152219 1.000000 0.060894 -0.137532 1.000000 0.078717 -0.122501 1.000000 0.098520 -0.102546 1.000000 0.108802 -0.083716 1.000000 0.121227 -0.062280 1.000000 0.123360 -0.043529 1.000000 0.128349 -0.025104 1.000000 0.124062 -0.009707 1.000000 0.123417 0.002376 1.000000 0.115247 0.012869 1.000000 0.111352 0.016906 1.000000 0.101578 0.021232 1.000000 0.097740 0.016872 1.000000 0.090759 0.015585 1.000000 0.088771 0.007339 1.000000 0.085579 0.005319 1.000000 0.086034 -0.001419 1.000000 0.086299 -0.001669 1.000000 0.087299 -0.005142 1.000000 0.089428 -0.001102 1.000000 0.089811 -0.001080 1.000000 0.093539 0.006369 1.000000 0.092959 0.010932 1.000000 0.096994 0.021509 1.000000 0.094460 0.031621 1.000000 0.093174 0.043576 1.000000 0.085871 0.050923 1.000000 0.083086 0.058794 1.000000 0.073973 0.063628 1.000000 0.069854 0.068871 1.000000 0.058977 0.072264 1.000000 0.053255 0.075483 1.000000 0.040991 0.077452 1.000000 0.034124 0.078811 1.000000 0.021152 0.079361 1.000000 0.013780 0.079123 1.000000 0.000689 0.078455 1.000000 -0.006675 0.076952 1.000000 -0.019475 0.075347 1.000000 -0.026483 0.072881 1.000000 -0.038723 0.070598 1.000000 -0.045148 0.067398 1.000000 -0.056639 0.064643 1.000000 -0.062330 0.060863 1.000000 -0.072923 0.057783 1.000000 -0.077771 0.053525 1.000000 -0.087336 0.050227 1.000000 -0.091258 0.045561 1.000000 -0.099675 0.042127 1.000000 