# vtk DataFile Version 2.0
Comment goes here
ASCII

DATASET STRUCTURED_POINTS
DIMENSIONS    128   128   1

ORIGIN    0.000   0.000   0.000
SPACING   0.0156250.015625   1.000

POINT_DATA   16384
VECTORS u double

-0.024747 0.000001 1.000000 -0.026189 0.000000 1.000000 -0.026655 0.000001 1.000000 -0.027717 0.000000 1.000000 -0.027962 0.000001 1.000000 -0.028640 0.000000 1.000000 -0.028672 0.000001 1.000000 -0.028967 0.000000 1.000000 -0.028796 0.000001 1.000000 -0.028714 0.000000 1.000000 -0.028354 0.000001 1.000000 -0.027907 -0.000000 1.000000 -0.027373 0.000001 1.000000 -0.026582 -0.000000 1.000000 -0.025895 0.000000 1.000000 -0.024787 -0.000000 1.000000 -0.023971 0.000000 1.000000 -0.022581 -0.000000 1.000000 -0.021665 0.000000 1.000000 -0.020037 -0.000001 1.000000 -0.019055 0.000000 1.000000 -0.017240 -0.000001 1.000000 -0.016231 0.000000 1.000000 -0.014289 -0.000001 1.000000 -0.013298 0.000000 1.000000 -0.011296 -0.000001 1.000000 -0.010373 0.000000 1.000000 -0.008387 -0.000000 1.000000 -0.007588 0.000000 1.000000 -0.005701 -0.000000 1.000000 -0.005089 0.000000 1.000000 -0.003388 0.000000 1.000000 -0.003031 0.000001 1.000000 -0.001610 0.000001 1.000000 -0.001580 0.000001 1.000000 -0.000532 0.000001 1.000000 -0.000899 0.000002 1.000000 -0.000314 0.000002 1.000000 -0.001145 0.000002 1.000000 -0.001102 0.000003 1.000000 -0.002453 0.000003 1.000000 -0.003013 0.000003 1.000000 -0.004916 0.000004 1.000000 -0.006109 0.000004 1.000000 -0.008567 0.000004 1.000000 -0.010382 0.000005 1.000000 -0.013354 0.000004 1.000000 -0.015730 0.000005 1.000000 -0.019121 0.000004 1.000000 -0.021933 0.000005 1.000000 -0.025588 0.000004 1.000000 -0.028650 0.000004 1.000000 -0.032353 0.000003 1.000000 -0.035416 0.000003 1.000000 -0.038899 0.000002 1.000000 -0.041668 0.000001 1.000000 -0.044628 -0.000000 1.000000 -0.046786 -0.000001 1.000000 -0.048913 -0.000003 1.000000 -0.050152 -0.000004 1.000000 -0.051162 -0.000007 1.000000 -0.051217 -0.000008 1.000000 -0.050887 -0.000011 1.000000 -0.049571 -0.000012 1.000000 -0.047768 -0.000015 1.000000 -0.044993 -0.000016 1.000000 -0.041693 -0.000019 1.000000 -0.037489 -0.000021 1.000000 -0.032793 -0.000023 1.000000 -0.027315 -0.000024 1.000000 -0.021452 -0.000026 1.000000 -0.014981 -0.000027 1.000000 -0.008314 -0.000028 1.000000 -0.001256 -0.000028 1.000000 0.005734 -0.000029 1.000000 0.012863 -0.000028 1.000000 0.019601 -0.000028 1.000000 0.026224 -0.000026 1.000000 0.032106 -0.000025 1.000000 0.037664 -0.000023 1.000000 0.042167 -0.000021 1.000000 0.046232 -0.000018 1.000000 0.049041 -0.000016 1.000000 0.051434 -0.000013 1.000000 0.052540 -0.000011 1.000000 0.053385 -0.000008 1.000000 0.053110 -0.000006 1.000000 0.052794 -0.000004 1.000000 0.051707 -0.000003 1.000000 0.050764 -0.000001 1.000000 0.049515 -0.000000 1.000000 0.048461 0.000000 1.000000 0.047586 0.000001 1.000000 0.046750 0.000001 1.000000 0.046482 0.000001 1.000000 0.045894 0.000001 1.000000 0.046102 0.000002 1.000000 0.045512 0.000002 1.000000 0.045782 0.000002 1.000000 0.044785 0.000002 1.000000 0.044612 0.000003 1.000000 0.042835 0.000003 1.000000 0.041819 0.000003 1.000000 0.039089 0.000004 1.000000 0.037156 0.000004 1.000000 0.033622 0.000004 1.000000 0.031103 0.000003 1.000000 0.027124 0.000003 1.000000 0.024410 0.000003 1.000000 0.020295 0.000002 1.000000 0.017627 0.000002 1.000000 0.013557 0.000002 1.000000 0.011043 0.000002 1.000000 0.007116 0.000001 1.000000 0.004798 0.000001 1.000000 0.001078 0.000001 1.000000 -0.001024 0.000001 1.000000 -0.004492 0.000001 1.000000 -0.006365 0.000001 1.000000 -0.009545 0.000001 1.000000 -0.011183 0.000001 1.000000 -0.014047 0.000001 1.000000 -0.015446 0.000001 1.000000 -0.017975 0.000001 1.000000 -0.019136 0.000001 1.000000 -0.021314 0.000001 1.000000 -0.022239 0.000001 1.000000 -0.024054 0.000000 1.000000 
-0.021697 0.001068 1.000000 -0.022955 0.000954 1.000000 -0.023488 0.000765 1.000000 -0.024424 0.000654 1.000000 -0.024723 0.000462 1.000000 -0.025336 0.000355 1.000000 -0.025408 0.000164 1.000000 -0.025699 0.000062 1.000000 -0.025553 -0.000126 1.000000 -0.025529 -0.000221 1.000000 -0.025179 -0.000403 1.000000 -0.024851 -0.000490 1.000000 -0.024312 -0.000662 1.000000 -0.023698 -0.000739 1.000000 -0.022991 -0.000897 1.000000 -0.022114 -0.000963 1.000000 -0.021264 -0.001103 1.000000 -0.020154 -0.001153 1.000000 -0.019190 -0.001272 1.000000 -0.017885 -0.001306 1.000000 -0.016842 -0.001398 1.000000 -0.015387 -0.001413 1.000000 -0.014303 -0.001475 1.000000 -0.012750 -0.001467 1.000000 -0.011672 -0.001496 1.000000 -0.010082 -0.001463 1.000000 -0.009060 -0.001455 1.000000 -0.007500 -0.001393 1.000000 -0.006592 -0.001343 1.000000 -0.005138 -0.001250 1.000000 -0.004407 -0.001156 1.000000 -0.003141 -0.001028 1.000000 -0.002656 -0.000888 1.000000 -0.001663 -0.000725 1.000000 -0.001498 -0.000538 1.000000 -0.000867 -0.000339 1.000000 -0.001093 -0.000107 1.000000 -0.000911 0.000125 1.000000 -0.001596 0.000397 1.000000 -0.001937 0.000657 1.000000 -0.003139 0.000958 1.000000 -0.004062 0.001235 1.000000 -0.005817 0.001552 1.000000 -0.007351 0.001830 1.000000 -0.009663 0.002141 1.000000 -0.011796 0.002398 1.000000 -0.014628 0.002678 1.000000 -0.017298 0.002888 1.000000 -0.020557 0.003106 1.000000 -0.023641 0.003239 1.000000 -0.027175 0.003362 1.000000 -0.030484 0.003387 1.000000 -0.034080 0.003386 1.000000 -0.037364 0.003276 1.000000 -0.040754 0.003128 1.000000 -0.043718 0.002866 1.000000 -0.046601 0.002558 1.000000 -0.048925 0.002141 1.000000 -0.050991 0.001679 1.000000 -0.052367 0.001120 1.000000 -0.053333 0.000525 1.000000 -0.053499 -0.000146 1.000000 -0.053144 -0.000834 1.000000 -0.051913 -0.001573 1.000000 -0.050105 -0.002305 1.000000 -0.047396 -0.003055 1.000000 -0.044113 -0.003772 1.000000 -0.039957 -0.004471 1.000000 -0.035299 -0.005111 1.000000 -0.029850 -0.005695 1.000000 -0.024042 -0.006194 1.000000 -0.017577 -0.006597 1.000000 -0.010971 -0.006892 1.000000 -0.003890 -0.007053 1.000000 0.003043 -0.007089 1.000000 0.010230 -0.006962 1.000000 0.016923 -0.006709 1.000000 0.023636 -0.006279 1.000000 0.029493 -0.005745 1.000000 0.035159 -0.005053 1.000000 0.039658 -0.004305 1.000000 0.043835 -0.003455 1.000000 0.046658 -0.002617 1.000000 0.049152 -0.001763 1.000000 0.050287 -0.000986 1.000000 0.051224 -0.000293 1.000000 0.050983 0.000289 1.000000 0.050772 0.000698 1.000000 0.049703 0.001013 1.000000 0.048904 0.001095 1.000000 0.047642 0.001152 1.000000 0.046783 0.000966 1.000000 0.045856 0.000857 1.000000 0.045258 0.000553 1.000000 0.044905 0.000429 1.000000 0.044591 0.000192 1.000000 0.044696 0.000193 1.000000 0.044410 0.000162 1.000000 0.044576 0.000366 1.000000 0.043922 0.000588 1.000000 0.043648 0.000978 1.000000 0.042256 0.001400 1.000000 0.041125 0.001876 1.000000 0.038808 0.002335 1.000000 0.036732 0.002738 1.000000 0.033629 0.003030 1.000000 0.030969 0.003252 1.000000 0.027447 0.003350 1.000000 0.024608 0.003418 1.000000 0.020966 0.003394 1.000000 0.018182 0.003371 1.000000 0.014587 0.003294 1.000000 0.011958 0.003222 1.000000 0.008497 0.003124 1.000000 0.006062 0.003020 1.000000 0.002792 0.002912 1.000000 0.000572 0.002786 1.000000 -0.002467 0.002671 1.000000 -0.004457 0.002528 1.000000 -0.007235 0.002409 1.000000 -0.008985 0.002252 1.000000 -0.011480 0.002132 1.000000 -0.012986 0.001965 1.000000 -0.015183 0.001845 1.000000 -0.016443 0.001670 1.000000 -0.018334 0.001552 1.000000 -0.019348 0.001371 1.000000 -0.020925 0.001254 1.000000 
-0.025050 0.002031 1.000000 -0.026494 0.001791 1.000000 -0.026957 0.001470 1.000000 -0.028020 0.001235 1.000000 -0.028261 0.000912 1.000000 -0.028939 0.000685 1.000000 -0.028966 0.000364 1.000000 -0.029257 0.000146 1.000000 -0.029080 -0.000169 1.000000 -0.028992 -0.000374 1.000000 -0.028623 -0.000677 1.000000 -0.028167 -0.000867 1.000000 -0.027622 -0.001152 1.000000 -0.026818 -0.001321 1.000000 -0.026118 -0.001584 1.000000 -0.024992 -0.001728 1.000000 -0.024162 -0.001960 1.000000 -0.022750 -0.002074 1.000000 -0.021817 -0.002269 1.000000 -0.020163 -0.002349 1.000000 -0.019162 -0.002499 1.000000 -0.017317 -0.002539 1.000000 -0.016286 -0.002636 1.000000 -0.014310 -0.002632 1.000000 -0.013294 -0.002669 1.000000 -0.011254 -0.002613 1.000000 -0.010302 -0.002582 1.000000 -0.008276 -0.002468 1.000000 -0.007445 -0.002362 1.000000 -0.005514 -0.002185 1.000000 -0.004867 -0.001997 1.000000 -0.003121 -0.001751 1.000000 -0.002728 -0.001476 1.000000 -0.001260 -0.001158 1.000000 -0.001193 -0.000795 1.000000 -0.000101 -0.000403 1.000000 -0.000434 0.000045 1.000000 0.000191 0.000505 1.000000 -0.000613 0.001029 1.000000 -0.000540 0.001546 1.000000 -0.001873 0.002128 1.000000 -0.002416 0.002681 1.000000 -0.004317 0.003292 1.000000 -0.005513 0.003850 1.000000 -0.007990 0.004450 1.000000 -0.009834 0.004969 1.000000 -0.012850 0.005506 1.000000 -0.015283 0.005934 1.000000 -0.018746 0.006347 1.000000 -0.021647 0.006623 1.000000 -0.025404 0.006847 1.000000 -0.028582 0.006909 1.000000 -0.032412 0.006883 1.000000 -0.035613 0.006678 1.000000 -0.039239 0.006356 1.000000 -0.042158 0.005848 1.000000 -0.045264 0.005206 1.000000 -0.047567 0.004389 1.000000 -0.049829 0.003439 1.000000 -0.051193 0.002338 1.000000 -0.052311 0.001125 1.000000 -0.052459 -0.000198 1.000000 -0.052198 -0.001596 1.000000 -0.050930 -0.003050 1.000000 -0.049149 -0.004532 1.000000 -0.046374 -0.006008 1.000000 -0.043045 -0.007458 1.000000 -0.038791 -0.008835 1.000000 -0.034015 -0.010130 1.000000 -0.028438 -0.011282 1.000000 -0.022446 -0.012299 1.000000 -0.015832 -0.013098 1.000000 -0.008991 -0.013716 1.000000 -0.001753 -0.014042 1.000000 0.005441 -0.014149 1.000000 0.012770 -0.013908 1.000000 0.019715 -0.013433 1.000000 0.026525 -0.012595 1.000000 0.032576 -0.011548 1.000000 0.038261 -0.010188 1.000000 0.042845 -0.008696 1.000000 0.046936 -0.007018 1.000000 0.049697 -0.005333 1.000000 0.051993 -0.003642 1.000000 0.052919 -0.002083 1.000000 0.053563 -0.000704 1.000000 0.053010 0.000446 1.000000 0.052440 0.001275 1.000000 0.051041 0.001865 1.000000 0.049849 0.002060 1.000000 0.048330 0.002121 1.000000 0.047090 0.001787 1.000000 0.046054 0.001525 1.000000 0.045134 0.000952 1.000000 0.044839 0.000668 1.000000 0.044265 0.000211 1.000000 0.044555 0.000183 1.000000 0.044045 0.000122 1.000000 0.044459 0.000489 1.000000 0.043568 0.000930 1.000000 0.043553 0.001669 1.000000 0.041872 0.002526 1.000000 0.040960 0.003451 1.000000 0.038277 0.004397 1.000000 0.036345 0.005182 1.000000 0.032824 0.005766 1.000000 0.030312 0.006185 1.000000 0.026371 0.006364 1.000000 0.023711 0.006484 1.000000 0.019654 0.006428 1.000000 0.017057 0.006381 1.000000 0.013037 0.006226 1.000000 0.010583 0.006091 1.000000 0.006689 0.005897 1.000000 0.004411 0.005707 1.000000 0.000707 0.005491 1.000000 -0.001370 0.005260 1.000000 -0.004831 0.005030 1.000000 -0.006689 0.004769 1.000000 -0.009867 0.004529 1.000000 -0.011495 0.004246 1.000000 -0.014361 0.004001 1.000000 -0.015753 0.003704 1.000000 -0.018284 0.003458 1.000000 -0.019440 0.003151 1.000000 -0.021621 0.002906 1.000000 -0.022542 0.002593 1.000000 -0.024360 0.002349 1.000000 
-0.022261 0.003203 1.000000 -0.023521 0.002862 1.000000 -0.024048 0.002291 1.000000 -0.024983 0.001958 1.000000 -0.025275 0.001381 1.000000 -0.025885 0.001060 1.000000 -0.025947 0.000483 1.000000 -0.026232 0.000177 1.000000 -0.026073 -0.000391 1.000000 -0.026038 -0.000679 1.000000 -0.025671 -0.001228 1.000000 -0.025327 -0.001491 1.000000 -0.024767 -0.002011 1.000000 -0.024130 -0.002244 1.000000 -0.023398 -0.002723 1.000000 -0.022490 -0.002919 1.000000 -0.021610 -0.003345 1.000000 -0.020463 -0.003498 1.000000 -0.019465 -0.003859 1.000000 -0.018115 -0.003961 1.000000 -0.017032 -0.004244 1.000000 -0.015524 -0.004288 1.000000 -0.014396 -0.004482 1.000000 -0.012783 -0.004460 1.000000 -0.011653 -0.004552 1.000000 -0.009995 -0.004454 1.000000 -0.008916 -0.004433 1.000000 -0.007280 -0.004250 1.000000 -0.006309 -0.004105 1.000000 -0.004773 -0.003827 1.000000 -0.003973 -0.003548 1.000000 -0.002620 -0.003168 1.000000 -0.002063 -0.002749 1.000000 -0.000982 -0.002259 1.000000 -0.000743 -0.001697 1.000000 -0.000027 -0.001098 1.000000 -0.000184 -0.000399 1.000000 0.000075 0.000304 1.000000 -0.000553 0.001127 1.000000 -0.000835 0.001916 1.000000 -0.002000 0.002834 1.000000 -0.002891 0.003679 1.000000 -0.004638 0.004649 1.000000 -0.006180 0.005502 1.000000 -0.008525 0.006462 1.000000 -0.010716 0.007258 1.000000 -0.013632 0.008127 1.000000 -0.016418 0.008785 1.000000 -0.019818 0.009471 1.000000 -0.023079 0.009896 1.000000 -0.026812 0.010298 1.000000 -0.030355 0.010395 1.000000 -0.034200 0.010417 1.000000 -0.037762 0.010103 1.000000 -0.041435 0.009672 1.000000 -0.044697 0.008890 1.000000 -0.047870 0.007968 1.000000 -0.050484 0.006706 1.000000 -0.052816 0.005305 1.000000 -0.054442 0.003603 1.000000 -0.055621 0.001791 1.000000 -0.055967 -0.000259 1.000000 -0.055747 -0.002363 1.000000 -0.054611 -0.004622 1.000000 -0.052844 -0.006861 1.000000 -0.050134 -0.009159 1.000000 -0.046795 -0.011354 1.000000 -0.042542 -0.013501 1.000000 -0.037731 -0.015464 1.000000 -0.032093 -0.017264 1.000000 -0.026038 -0.018800 1.000000 -0.019298 -0.020053 1.000000 -0.012362 -0.020971 1.000000 -0.004931 -0.021485 1.000000 0.002392 -0.021613 1.000000 0.009973 -0.021236 1.000000 0.017067 -0.020463 1.000000 0.024154 -0.019140 1.000000 0.030340 -0.017481 1.000000 0.036270 -0.015322 1.000000 0.040926 -0.012980 1.000000 0.045160 -0.010307 1.000000 0.047891 -0.007675 1.000000 0.050188 -0.004984 1.000000 0.050974 -0.002556 1.000000 0.051496 -0.000384 1.000000 0.050722 0.001412 1.000000 0.049985 0.002667 1.000000 0.048321 0.003604 1.000000 0.047020 0.003806 1.000000 0.045234 0.003910 1.000000 0.044017 0.003241 1.000000 0.042767 0.002814 1.000000 0.042009 0.001769 1.000000 0.041579 0.001298 1.000000 0.041286 0.000475 1.000000 0.041527 0.000413 1.000000 0.041375 0.000258 1.000000 0.041810 0.000843 1.000000 0.041350 0.001494 1.000000 0.041397 0.002674 1.000000 0.040205 0.003993 1.000000 0.039301 0.005471 1.000000 0.037100 0.006951 1.000000 0.035014 0.008191 1.000000 0.031956 0.009063 1.000000 0.029317 0.009705 1.000000 0.025898 0.009950 1.000000 0.023181 0.010135 1.000000 0.019676 0.010048 1.000000 0.017042 0.009988 1.000000 0.013560 0.009768 1.000000 0.011051 0.009570 1.000000 0.007662 0.009295 1.000000 0.005305 0.009002 1.000000 0.002073 0.008693 1.000000 -0.000100 0.008324 1.000000 -0.003121 0.007991 1.000000 -0.005082 0.007564 1.000000 -0.007851 0.007215 1.000000 -0.009583 0.006746 1.000000 -0.012075 0.006390 1.000000 -0.013568 0.005889 1.000000 -0.015765 0.005533 1.000000 -0.017016 0.005007 1.000000 -0.018908 0.004654 1.000000 -0.019916 0.004110 1.000000 -0.021495 0.003762 1.000000 
-0.025959 0.004057 1.000000 -0.027412 0.003578 1.000000 -0.027864 0.002932 1.000000 -0.028933 0.002463 1.000000 -0.029161 0.001814 1.000000 -0.029838 0.001357 1.000000 -0.029850 0.000711 1.000000 -0.030133 0.000272 1.000000 -0.029936 -0.000362 1.000000 -0.029829 -0.000776 1.000000 -0.029435 -0.001389 1.000000 -0.028950 -0.001771 1.000000 -0.028375 -0.002349 1.000000 -0.027529 -0.002691 1.000000 -0.026793 -0.003223 1.000000 -0.025614 -0.003515 1.000000 -0.024740 -0.003987 1.000000 -0.023263 -0.004220 1.000000 -0.022280 -0.004617 1.000000 -0.020549 -0.004782 1.000000 -0.019489 -0.005089 1.000000 -0.017555 -0.005175 1.000000 -0.016458 -0.005378 1.000000 -0.014380 -0.005374 1.000000 -0.013288 -0.005456 1.000000 -0.011135 -0.005350 1.000000 -0.010098 -0.005296 1.000000 -0.007947 -0.005075 1.000000 -0.007022 -0.004870 1.000000 -0.004957 -0.004521 1.000000 -0.004208 -0.004150 1.000000 -0.002321 -0.003661 1.000000 -0.001819 -0.003114 1.000000 -0.000209 -0.002478 1.000000 -0.000032 -0.001750 1.000000 0.001199 -0.000962 1.000000 0.000969 -0.000057 1.000000 0.001718 0.000874 1.000000 0.001002 0.001939 1.000000 0.001173 0.002993 1.000000 -0.000102 0.004184 1.000000 -0.000591 0.005320 1.000000 -0.002479 0.006581 1.000000 -0.003679 0.007737 1.000000 -0.006206 0.008986 1.000000 -0.008130 0.010076 1.000000 -0.011273 0.011208 1.000000 -0.013875 0.012120 1.000000 -0.017553 0.013008 1.000000 -0.020718 0.013617 1.000000 -0.024779 0.014123 1.000000 -0.028310 0.014297 1.000000 -0.032522 0.014291 1.000000 -0.036146 0.013913 1.000000 -0.040206 0.013291 1.000000 -0.043581 0.012282 1.000000 -0.047134 0.010993 1.000000 -0.049885 0.009335 1.000000 -0.052559 0.007397 1.000000 -0.054310 0.005143 1.000000 -0.055759 0.002650 1.000000 -0.056191 -0.000071 1.000000 -0.056142 -0.002953 1.000000 -0.055026 -0.005953 1.000000 -0.053313 -0.009009 1.000000 -0.050543 -0.012058 1.000000 -0.047131 -0.015050 1.000000 -0.042735 -0.017899 1.000000 -0.037725 -0.020579 1.000000 -0.031862 -0.022974 1.000000 -0.025492 -0.025094 1.000000 -0.018458 -0.026775 1.000000 -0.011106 -0.028083 1.000000 -0.003335 -0.028795 1.000000 0.004468 -0.029052 1.000000 0.012395 -0.028583 1.000000 0.019972 -0.027615 1.000000 0.027350 -0.025869 1.000000 0.033927 -0.023664 1.000000 0.040006 -0.020773 1.000000 0.044846 -0.017586 1.000000 0.049011 -0.013983 1.000000 0.051626 -0.010361 1.000000 0.053612 -0.006726 1.000000 0.053968 -0.003391 1.000000 0.053980 -0.000452 1.000000 0.052554 0.001957 1.000000 0.051195 0.003676 1.000000 0.048823 0.004830 1.000000 0.046866 0.005147 1.000000 0.044505 0.005124 1.000000 0.042698 0.004253 1.000000 0.041168 0.003533 1.000000 0.039993 0.002140 1.000000 0.039617 0.001391 1.000000 0.039071 0.000262 1.000000 0.039604 0.000094 1.000000 0.039309 -0.000161 1.000000 0.040137 0.000515 1.000000 0.039533 0.001343 1.000000 0.040014 0.002814 1.000000 0.038635 0.004622 1.000000 0.038096 0.006557 1.000000 0.035595 0.008684 1.000000 0.033641 0.010326 1.000000 0.030201 0.011463 1.000000 0.027755 0.012244 1.000000 0.024002 0.012500 1.000000 0.021568 0.012706 1.000000 0.017730 0.012567 1.000000 0.015378 0.012497 1.000000 0.011522 0.012217 1.000000 0.009248 0.011990 1.000000 0.005446 0.011643 1.000000 0.003282 0.011296 1.000000 -0.000380 0.010896 1.000000 -0.002389 0.010453 1.000000 -0.005835 0.010012 1.000000 -0.007652 0.009499 1.000000 -0.010828 0.009030 1.000000 -0.012428 0.008470 1.000000 -0.015298 0.007986 1.000000 -0.016670 0.007395 1.000000 -0.019210 0.006906 1.000000 -0.020350 0.006294 1.000000 -0.022542 0.005806 1.000000 -0.023451 0.005179 1.000000 -0.025280 0.004694 1.000000 
-0.023389 0.005335 1.000000 -0.024653 0.004767 1.000000 -0.025168 0.003811 1.000000 -0.026106 0.003256 1.000000 -0.026383 0.002286 1.000000 -0.026989 0.001748 1.000000 -0.027033 0.000778 1.000000 -0.027305 0.000263 1.000000 -0.027122 -0.000695 1.000000 -0.027065 -0.001179 1.000000 -0.026666 -0.002107 1.000000 -0.026287 -0.002551 1.000000 -0.025687 -0.003432 1.000000 -0.025003 -0.003826 1.000000 -0.024222 -0.004638 1.000000 -0.023254 -0.004972 1.000000 -0.022315 -0.005696 1.000000 -0.021094 -0.005958 1.000000 -0.020027 -0.006573 1.000000 -0.018587 -0.006752 1.000000 -0.017425 -0.007238 1.000000 -0.015813 -0.007320 1.000000 -0.014594 -0.007657 1.000000 -0.012861 -0.007630 1.000000 -0.011629 -0.007797 1.000000 -0.009835 -0.007644 1.000000 -0.008641 -0.007621 1.000000 -0.006854 -0.007326 1.000000 -0.005755 -0.007095 1.000000 -0.004053 -0.006642 1.000000 -0.003114 -0.006185 1.000000 -0.001585 -0.005557 1.000000 -0.000880 -0.004861 1.000000 0.000383 -0.004047 1.000000 0.000772 -0.003105 1.000000 0.001666 -0.002100 1.000000 0.001653 -0.000918 1.000000 0.002074 0.000271 1.000000 0.001570 0.001672 1.000000 0.001416 0.003021 1.000000 0.000338 0.004598 1.000000 -0.000480 0.006056 1.000000 -0.002200 0.007738 1.000000 -0.003744 0.009229 1.000000 -0.006145 0.010912 1.000000 -0.008439 0.012325 1.000000 -0.011514 0.013873 1.000000 -0.014522 0.015066 1.000000 -0.018200 0.016314 1.000000 -0.021811 0.017121 1.000000 -0.025945 0.017890 1.000000 -0.029960 0.018138 1.000000 -0.034312 0.018253 1.000000 -0.038442 0.017787 1.000000 -0.042694 0.017107 1.000000 -0.046572 0.015819 1.000000 -0.050342 0.014271 1.000000 -0.053557 0.012130 1.000000 -0.056440 0.009731 1.000000 -0.058583 0.006803 1.000000 -0.060202 0.003672 1.000000 -0.060923 0.000123 1.000000 -0.060982 -0.003528 1.000000 -0.060041 -0.007451 1.000000 -0.058366 -0.011344 1.000000 -0.055658 -0.015340 1.000000 -0.052216 -0.019163 1.000000 -0.047780 -0.022908 1.000000 -0.042677 -0.026337 1.000000 -0.036680 -0.029497 1.000000 -0.030155 -0.032204 1.000000 -0.022888 -0.034438 1.000000 -0.015313 -0.036093 1.000000 -0.007203 -0.037059 1.000000 0.000892 -0.037343 1.000000 0.009257 -0.036741 1.000000 0.017168 -0.035417 1.000000 0.025026 -0.033094 1.000000 0.031903 -0.030137 1.000000 0.038392 -0.026241 1.000000 0.043387 -0.021985 1.000000 0.047746 -0.017087 1.000000 0.050278 -0.012275 1.000000 0.052144 -0.007326 1.000000 0.052176 -0.002924 1.000000 0.051792 0.001030 1.000000 0.049887 0.004197 1.000000 0.048031 0.006398 1.000000 0.045119 0.007934 1.000000 0.042780 0.008125 1.000000 0.039890 0.008078 1.000000 0.037967 0.006578 1.000000 0.036056 0.005519 1.000000 0.034981 0.003320 1.000000 0.034380 0.002221 1.000000 0.034108 0.000488 1.000000 0.034585 0.000175 1.000000 0.034621 -0.000275 1.000000 0.035530 0.000618 1.000000 0.035375 0.001617 1.000000 0.036103 0.003572 1.000000 0.035340 0.005910 1.000000 0.035044 0.008512 1.000000 0.033180 0.011407 1.000000 0.031012 0.013585 1.000000 0.028138 0.014949 1.000000 0.025655 0.015904 1.000000 0.022593 0.016138 1.000000 0.020266 0.016407 1.000000 0.017119 0.016238 1.000000 0.014848 0.016196 1.000000 0.011604 0.015898 1.000000 0.009337 0.015646 1.000000 0.006072 0.015261 1.000000 0.003857 0.014828 1.000000 0.000683 0.014364 1.000000 -0.001409 0.013780 1.000000 -0.004404 0.013253 1.000000 -0.006316 0.012557 1.000000 -0.009073 0.011992 1.000000 -0.010773 0.011216 1.000000 -0.013259 0.010632 1.000000 -0.014730 0.009801 1.000000 -0.016926 0.009213 1.000000 -0.018160 0.008339 1.000000 -0.020055 0.007755 1.000000 -0.021050 0.006848 1.000000 -0.022634 0.006270 1.000000 
-0.027476 0.006076 1.000000 -0.028947 0.005357 1.000000 -0.029383 0.004385 1.000000 -0.030462 0.003677 1.000000 -0.030672 0.002697 1.000000 -0.031349 0.002006 1.000000 -0.031337 0.001027 1.000000 -0.031606 0.000361 1.000000 -0.031378 -0.000603 1.000000 -0.031241 -0.001233 1.000000 -0.030808 -0.002166 1.000000 -0.030274 -0.002749 1.000000 -0.029649 -0.003634 1.000000 -0.028736 -0.004156 1.000000 -0.027939 -0.004972 1.000000 -0.026672 -0.005421 1.000000 -0.025726 -0.006147 1.000000 -0.024141 -0.006509 1.000000 -0.023074 -0.007123 1.000000 -0.021214 -0.007383 1.000000 -0.020058 -0.007864 1.000000 -0.017974 -0.008006 1.000000 -0.016767 -0.008330 1.000000 -0.014520 -0.008339 1.000000 -0.013302 -0.008482 1.000000 -0.010960 -0.008339 1.000000 -0.009781 -0.008277 1.000000 -0.007421 -0.007961 1.000000 -0.006338 -0.007670 1.000000 -0.004047 -0.007161 1.000000 -0.003124 -0.006618 1.000000 -0.000998 -0.005896 1.000000 -0.000310 -0.005082 1.000000 0.001546 -0.004130 1.000000 0.001914 -0.003033 1.000000 0.003386 -0.001843 1.000000 0.003342 -0.000465 1.000000 0.004311 0.000957 1.000000 0.003757 0.002597 1.000000 0.004106 0.004225 1.000000 0.002947 0.006079 1.000000 0.002570 0.007857 1.000000 0.000723 0.009845 1.000000 -0.000464 0.011682 1.000000 -0.003053 0.013681 1.000000 -0.005091 0.015444 1.000000 -0.008429 0.017291 1.000000 -0.011300 0.018807 1.000000 -0.015326 0.020298 1.000000 -0.018926 0.021361 1.000000 -0.023494 0.022272 1.000000 -0.027621 0.022664 1.000000 -0.032482 0.022772 1.000000 -0.036829 0.022294 1.000000 -0.041636 0.021421 1.000000 -0.045803 0.019931 1.000000 -0.050132 0.017978 1.000000 -0.053661 0.015433 1.000000 -0.057054 0.012423 1.000000 -0.059481 0.008904 1.000000 -0.061509 0.004991 1.000000 -0.062436 0.000709 1.000000 -0.062758 -0.003835 1.000000 -0.061908 -0.008569 1.000000 -0.060323 -0.013392 1.000000 -0.057572 -0.018207 1.000000 -0.054038 -0.022928 1.000000 -0.049420 -0.027438 1.000000 -0.044047 -0.031679 1.000000 -0.037738 -0.035496 1.000000 -0.030774 -0.038886 1.000000 -0.023080 -0.041616 1.000000 -0.014915 -0.043768 1.000000 -0.006288 -0.045001 1.000000 0.002514 -0.045512 1.000000 0.011436 -0.044859 1.000000 0.020091 -0.043384 1.000000 0.028449 -0.040604 1.000000 0.035963 -0.037030 1.000000 0.042747 -0.032257 1.000000 0.048067 -0.026940 1.000000 0.052365 -0.020874 1.000000 0.054721 -0.014759 1.000000 0.056113 -0.008623 1.000000 0.055418 -0.003039 1.000000 0.054260 0.001837 1.000000 0.051244 0.005718 1.000000 0.048493 0.008445 1.000000 0.044386 0.010082 1.000000 0.041108 0.010375 1.000000 0.037248 0.009936 1.000000 0.034485 0.008088 1.000000 0.032118 0.006520 1.000000 0.030541 0.003816 1.000000 0.030037 0.002264 1.000000 0.029482 0.000058 1.000000 0.030373 -0.000419 1.000000 0.030322 -0.001107 1.000000 0.031692 -0.000240 1.000000 0.031395 0.000770 1.000000 0.032710 0.002849 1.000000 0.031841 0.005682 1.000000 0.032212 0.008717 1.000000 0.030205 0.012716 1.000000 0.028106 0.015367 1.000000 0.025019 0.016820 1.000000 0.022945 0.017788 1.000000 0.019790 0.017888 1.000000 0.017984 0.018181 1.000000 0.014638 0.017985 1.000000 0.012774 0.018012 1.000000 0.009187 0.017729 1.000000 0.007202 0.017521 1.000000 0.003514 0.017123 1.000000 0.001506 0.016685 1.000000 -0.002117 0.016162 1.000000 -0.004037 0.015540 1.000000 -0.007475 0.014919 1.000000 -0.009234 0.014168 1.000000 -0.012413 0.013487 1.000000 -0.013972 0.012656 1.000000 -0.016852 0.011943 1.000000 -0.018193 0.011062 1.000000 -0.020747 0.010337 1.000000 -0.021864 0.009423 1.000000 -0.024074 0.008696 1.000000 -0.024964 0.007758 1.000000 -0.026813 0.007033 1.000000 
-0.025082 0.007469 1.000000 -0.026356 0.006674 1.000000 -0.026857 0.005326 1.000000 -0.027800 0.004545 1.000000 -0.028059 0.003174 1.000000 -0.028662 0.002413 1.000000 -0.028679 0.001035 1.000000 -0.028936 0.000304 1.000000 -0.028717 -0.001060 1.000000 -0.028629 -0.001749 1.000000 -0.028182 -0.003075 1.000000 -0.027755 -0.003710 1.000000 -0.027094 -0.004970 1.000000 -0.026341 -0.005536 1.000000 -0.025486 -0.006702 1.000000 -0.024429 -0.007184 1.000000 -0.023403 -0.008227 1.000000 -0.022070 -0.008610 1.000000 -0.020901 -0.009500 1.000000 -0.019328 -0.009768 1.000000 -0.018049 -0.010478 1.000000 -0.016280 -0.010612 1.000000 -0.014927 -0.011112 1.000000 -0.013013 -0.011094 1.000000 -0.011629 -0.011357 1.000000 -0.009630 -0.011164 1.000000 -0.008263 -0.011160 1.000000 -0.006248 -0.010770 1.000000 -0.004955 -0.010470 1.000000 -0.003002 -0.009856 1.000000 -0.001850 -0.009234 1.000000 -0.000049 -0.008371 1.000000 0.000885 -0.007404 1.000000 0.002430 -0.006270 1.000000 0.003058 -0.004945 1.000000 0.004234 -0.003527 1.000000 0.004455 -0.001843 1.000000 0.005138 -0.000144 1.000000 0.004843 0.001877 1.000000 0.004908 0.003831 1.000000 0.003987 0.006134 1.000000 0.003312 0.008280 1.000000 0.001663 0.010772 1.000000 0.000147 0.013004 1.000000 -0.002306 0.015539 1.000000 -0.004725 0.017701 1.000000 -0.008012 0.020081 1.000000 -0.011332 0.021963 1.000000 -0.015410 0.023940 1.000000 -0.019539 0.025289 1.000000 -0.024269 0.026585 1.000000 -0.029003 0.027126 1.000000 -0.034133 0.027461 1.000000 -0.039143 0.026941 1.000000 -0.044299 0.026081 1.000000 -0.049144 0.024315 1.000000 -0.053858 0.022128 1.000000 -0.058022 0.019052 1.000000 -0.061780 0.015552 1.000000 -0.064741 0.011258 1.000000 -0.067058 0.006627 1.000000 -0.068369 0.001373 1.000000 -0.068869 -0.004057 1.000000 -0.068233 -0.009886 1.000000 -0.066707 -0.015680 1.000000 -0.064012 -0.021625 1.000000 -0.060432 -0.027315 1.000000 -0.055743 -0.032899 1.000000 -0.050241 -0.038019 1.000000 -0.043756 -0.042770 1.000000 -0.036587 -0.046862 1.000000 -0.028606 -0.050297 1.000000 -0.020144 -0.052886 1.000000 -0.011086 -0.054487 1.000000 -0.001874 -0.055067 1.000000 0.007642 -0.054318 1.000000 0.016801 -0.052431 1.000000 0.025863 -0.048967 1.000000 0.033860 -0.044435 1.000000 0.041278 -0.038345 1.000000 0.046853 -0.031603 1.000000 0.051438 -0.023742 1.000000 0.053634 -0.016023 1.000000 0.054747 -0.008023 1.000000 0.053480 -0.001072 1.000000 0.051526 0.005204 1.000000 0.047753 0.009964 1.000000 0.044050 0.013256 1.000000 0.039167 0.015319 1.000000 0.035216 0.015263 1.000000 0.030563 0.014701 1.000000 0.027700 0.011708 1.000000 0.024842 0.009463 1.000000 0.023348 0.005401 1.000000 0.022450 0.003279 1.000000 0.022145 0.000151 1.000000 0.022819 -0.000665 1.000000 0.022814 -0.001594 1.000000 0.024105 -0.000455 1.000000 0.024026 0.000600 1.000000 0.025733 0.003126 1.000000 0.025562 0.006408 1.000000 0.026778 0.010148 1.000000 0.025851 0.015513 1.000000 0.023307 0.018771 1.000000 0.021151 0.020110 1.000000 0.019455 0.021133 1.000000 0.017416 0.021099 1.000000 0.016069 0.021559 1.000000 0.013601 0.021449 1.000000 0.011949 0.021647 1.000000 0.009012 0.021469 1.000000 0.007055 0.021319 1.000000 0.003901 0.020957 1.000000 0.001837 0.020459 1.000000 -0.001300 0.019907 1.000000 -0.003308 0.019137 1.000000 -0.006284 0.018450 1.000000 -0.008140 0.017495 1.000000 -0.010885 0.016730 1.000000 -0.012543 0.015654 1.000000 -0.015022 0.014853 1.000000 -0.016461 0.013696 1.000000 -0.018657 0.012884 1.000000 -0.019869 0.011666 1.000000 -0.021769 0.010855 1.000000 -0.022748 0.009586 1.000000 -0.024341 0.008781 1.000000 