# vtk DataFile Version 2.0
Comment goes here
ASCII

DATASET STRUCTURED_POINTS
DIMENSIONS    128   128   1

ORIGIN    0.000   0.000   0.000
SPACING   0.0156250.015625   1.000

POINT_DATA   16384
VECTORS u double

0.142637 -0.000022 1.000000 0.136357 -0.000030 1.000000 0.134285 -0.000022 1.000000 0.127859 -0.000030 1.000000 0.124904 -0.000022 1.000000 0.118328 -0.000030 1.000000 0.114547 -0.000021 1.000000 0.107847 -0.000029 1.000000 0.103319 -0.000020 1.000000 0.096543 -0.000028 1.000000 0.091367 -0.000017 1.000000 0.084573 -0.000025 1.000000 0.078855 -0.000014 1.000000 0.072104 -0.000021 1.000000 0.065950 -0.000009 1.000000 0.059298 -0.000016 1.000000 0.052803 -0.000004 1.000000 0.046288 -0.000010 1.000000 0.039528 0.000003 1.000000 0.033158 -0.000003 1.000000 0.026176 0.000010 1.000000 0.019925 0.000006 1.000000 0.012723 0.000019 1.000000 0.006517 0.000015 1.000000 -0.000954 0.000029 1.000000 -0.007243 0.000026 1.000000 -0.015090 0.000040 1.000000 -0.021648 0.000039 1.000000 -0.030041 0.000052 1.000000 -0.037116 0.000052 1.000000 -0.046289 0.000064 1.000000 -0.054185 0.000066 1.000000 -0.064430 0.000077 1.000000 -0.073498 0.000080 1.000000 -0.085155 0.000091 1.000000 -0.095776 0.000094 1.000000 -0.109208 0.000104 1.000000 -0.121768 0.000109 1.000000 -0.137332 0.000117 1.000000 -0.152180 0.000122 1.000000 -0.170185 0.000129 1.000000 -0.187593 0.000135 1.000000 -0.208249 0.000139 1.000000 -0.228354 0.000146 1.000000 -0.251716 0.000148 1.000000 -0.274466 0.000155 1.000000 -0.300378 0.000155 1.000000 -0.325482 0.000161 1.000000 -0.353531 0.000158 1.000000 -0.380420 0.000164 1.000000 -0.409907 0.000159 1.000000 -0.437721 0.000163 1.000000 -0.467661 0.000155 1.000000 -0.495265 0.000157 1.000000 -0.524425 0.000146 1.000000 -0.550462 0.000147 1.000000 -0.577427 0.000133 1.000000 -0.600404 0.000131 1.000000 -0.623677 0.000114 1.000000 -0.642065 0.000110 1.000000 -0.660177 0.000088 1.000000 -0.672522 0.000082 1.000000 -0.684139 0.000058 1.000000 -0.689148 0.000049 1.000000 -0.693160 0.000022 1.000000 -0.689778 0.000012 1.000000 -0.685364 -0.000018 1.000000 -0.672824 -0.000029 1.000000 -0.659520 -0.000060 1.000000 -0.637403 -0.000071 1.000000 -0.615162 -0.000102 1.000000 -0.583476 -0.000113 1.000000 -0.552761 -0.000143 1.000000 -0.512052 -0.000151 1.000000 -0.473936 -0.000178 1.000000 -0.425416 -0.000182 1.000000 -0.381659 -0.000206 1.000000 -0.327313 -0.000206 1.000000 -0.280364 -0.000226 1.000000 -0.222946 -0.000220 1.000000 -0.175808 -0.000234 1.000000 -0.118682 -0.000223 1.000000 -0.074599 -0.000232 1.000000 -0.021352 -0.000216 1.000000 0.016668 -0.000220 1.000000 0.062791 -0.000199 1.000000 0.092568 -0.000198 1.000000 0.129352 -0.000174 1.000000 0.150123 -0.000169 1.000000 0.176956 -0.000143 1.000000 0.189708 -0.000137 1.000000 0.207687 -0.000110 1.000000 0.214821 -0.000104 1.000000 0.226057 -0.000079 1.000000 0.230283 -0.000074 1.000000 0.236731 -0.000052 1.000000 0.239922 -0.000050 1.000000 0.242615 -0.000031 1.000000 0.245626 -0.000031 1.000000 0.244586 -0.000016 1.000000 0.247416 -0.000017 1.000000 0.242372 -0.000006 1.000000 0.244591 -0.000008 1.000000 0.235697 0.000000 1.000000 0.237026 -0.000002 1.000000 0.225257 0.000003 1.000000 0.225994 0.000001 1.000000 0.212973 0.000003 1.000000 0.213750 0.000001 1.000000 0.200955 0.000002 1.000000 0.202226 0.000000 1.000000 0.190534 -0.000001 1.000000 0.192400 -0.000002 1.000000 0.182111 -0.000005 1.000000 0.184414 -0.000005 1.000000 0.175458 -0.000009 1.000000 0.177920 -0.000008 1.000000 0.170057 -0.000013 1.000000 0.172385 -0.000011 1.000000 0.165321 -0.000017 1.000000 0.167256 -0.000014 1.000000 0.160715 -0.000021 1.000000 0.162050 -0.000017 1.000000 0.155797 -0.000024 1.000000 0.156383 -0.000019 1.000000 0.150235 -0.000026 1.000000 0.149972 -0.000021 1.000000 0.143800 -0.000028 1.000000 
0.159642 0.003694 1.000000 0.154257 0.004140 1.000000 0.151890 0.004221 1.000000 0.146108 0.004654 1.000000 0.142894 0.004737 1.000000 0.136699 0.005142 1.000000 0.132697 0.005213 1.000000 0.126109 0.005577 1.000000 0.121402 0.005626 1.000000 0.114466 0.005942 1.000000 0.109153 0.005962 1.000000 0.101932 0.006224 1.000000 0.096121 0.006214 1.000000 0.088688 0.006424 1.000000 0.082483 0.006387 1.000000 0.074908 0.006550 1.000000 0.068406 0.006495 1.000000 0.060746 0.006621 1.000000 0.054018 0.006561 1.000000 0.046306 0.006666 1.000000 0.039393 0.006620 1.000000 0.031627 0.006726 1.000000 0.024528 0.006717 1.000000 0.016662 0.006848 1.000000 0.009322 0.006903 1.000000 0.001256 0.007088 1.000000 -0.006438 0.007237 1.000000 -0.014862 0.007509 1.000000 -0.023087 0.007780 1.000000 -0.032090 0.008170 1.000000 -0.041087 0.008593 1.000000 -0.050947 0.009131 1.000000 -0.061016 0.009729 1.000000 -0.072060 0.010437 1.000000 -0.083548 0.011225 1.000000 -0.096135 0.012117 1.000000 -0.109411 0.013096 1.000000 -0.123903 0.014166 1.000000 -0.139331 0.015319 1.000000 -0.156057 0.016545 1.000000 -0.173948 0.017832 1.000000 -0.193157 0.019163 1.000000 -0.213723 0.020516 1.000000 -0.235529 0.021876 1.000000 -0.258823 0.023201 1.000000 -0.283152 0.024482 1.000000 -0.309014 0.025660 1.000000 -0.335551 0.026734 1.000000 -0.363560 0.027624 1.000000 -0.391712 0.028349 1.000000 -0.421160 0.028806 1.000000 -0.450050 0.029037 1.000000 -0.479942 0.028924 1.000000 -0.508422 0.028537 1.000000 -0.537514 0.027742 1.000000 -0.564227 0.026645 1.000000 -0.591099 0.025101 1.000000 -0.614566 0.023253 1.000000 -0.637725 0.020941 1.000000 -0.656450 0.018357 1.000000 -0.674438 0.015314 1.000000 -0.687015 0.012061 1.000000 -0.698522 0.008369 1.000000 -0.703714 0.004557 1.000000 -0.707657 0.000334 1.000000 -0.704459 -0.003888 1.000000 -0.700038 -0.008497 1.000000 -0.687714 -0.012954 1.000000 -0.674464 -0.017773 1.000000 -0.652584 -0.022252 1.000000 -0.630433 -0.027068 1.000000 -0.598955 -0.031315 1.000000 -0.568307 -0.035857 1.000000 -0.527692 -0.039565 1.000000 -0.489539 -0.043498 1.000000 -0.440910 -0.046322 1.000000 -0.396928 -0.049260 1.000000 -0.342205 -0.050855 1.000000 -0.294778 -0.052410 1.000000 -0.236714 -0.052499 1.000000 -0.188811 -0.052368 1.000000 -0.130845 -0.050829 1.000000 -0.085723 -0.048898 1.000000 -0.031593 -0.045851 1.000000 0.007667 -0.042292 1.000000 0.054543 -0.038150 1.000000 0.085597 -0.033479 1.000000 0.122892 -0.028952 1.000000 0.144714 -0.023972 1.000000 0.171852 -0.019936 1.000000 0.185150 -0.015503 1.000000 0.203406 -0.012667 1.000000 0.210485 -0.009289 1.000000 0.222148 -0.007810 1.000000 0.225910 -0.005412 1.000000 0.233064 -0.004873 1.000000 0.235701 -0.002993 1.000000 0.239417 -0.002885 1.000000 0.241926 -0.001018 1.000000 0.242230 -0.000913 1.000000 0.244611 0.001089 1.000000 0.241188 0.001405 1.000000 0.242964 0.003328 1.000000 0.235884 0.003781 1.000000 0.236741 0.005216 1.000000 0.226905 0.005516 1.000000 0.227169 0.006140 1.000000 0.216194 0.006122 1.000000 0.216532 0.006008 1.000000 0.205868 0.005760 1.000000 0.206732 0.005208 1.000000 0.197204 0.004908 1.000000 0.198676 0.004206 1.000000 0.190528 0.003985 1.000000 0.192436 0.003318 1.000000 0.185557 0.003234 1.000000 0.187618 0.002688 1.000000 0.181735 0.002750 1.000000 0.183658 0.002352 1.000000 0.178452 0.002543 1.000000 0.179985 0.002284 1.000000 0.175155 0.002577 1.000000 0.176097 0.002437 1.000000 0.171384 0.002805 1.000000 0.171593 0.002757 1.000000 0.166791 0.003173 1.000000 0.166174 0.003191 1.000000 0.161131 0.003633 1.000000 
0.143246 0.006852 1.000000 0.137048 0.007722 1.000000 0.135018 0.008127 1.000000 0.128646 0.008966 1.000000 0.125708 0.009387 1.000000 0.119162 0.010167 1.000000 0.115376 0.010569 1.000000 0.108685 0.011266 1.000000 0.104133 0.011624 1.000000 0.097347 0.012221 1.000000 0.092131 0.012516 1.000000 0.085315 0.013007 1.000000 0.079546 0.013231 1.000000 0.072766 0.013616 1.000000 0.066556 0.013770 1.000000 0.059874 0.014061 1.000000 0.053324 0.014159 1.000000 0.046783 0.014378 1.000000 0.039977 0.014443 1.000000 0.033594 0.014622 1.000000 0.026582 0.014689 1.000000 0.020337 0.014871 1.000000 0.013128 0.014984 1.000000 0.006954 0.015221 1.000000 -0.000492 0.015435 1.000000 -0.006716 0.015786 1.000000 -0.014500 0.016158 1.000000 -0.020954 0.016688 1.000000 -0.029241 0.017279 1.000000 -0.036169 0.018052 1.000000 -0.045188 0.018921 1.000000 -0.052891 0.019995 1.000000 -0.062935 0.021191 1.000000 -0.071766 0.022612 1.000000 -0.083176 0.024165 1.000000 -0.093522 0.025958 1.000000 -0.106668 0.027873 1.000000 -0.118923 0.030028 1.000000 -0.134175 0.032271 1.000000 -0.148704 0.034740 1.000000 -0.166387 0.037229 1.000000 -0.183479 0.039910 1.000000 -0.203823 0.042512 1.000000 -0.223636 0.045246 1.000000 -0.246720 0.047771 1.000000 -0.269226 0.050345 1.000000 -0.294916 0.052553 1.000000 -0.319842 0.054706 1.000000 -0.347743 0.056320 1.000000 -0.374535 0.057764 1.000000 -0.403956 0.058496 1.000000 -0.431758 0.058944 1.000000 -0.461716 0.058527 1.000000 -0.489386 0.057729 1.000000 -0.518633 0.055952 1.000000 -0.544800 0.053732 1.000000 -0.571902 0.050472 1.000000 -0.595050 0.046756 1.000000 -0.618489 0.041997 1.000000 -0.637073 0.036823 1.000000 -0.655362 0.030653 1.000000 -0.667918 0.024166 1.000000 -0.679718 0.016758 1.000000 -0.684955 0.009184 1.000000 -0.689158 0.000767 1.000000 -0.686032 -0.007607 1.000000 -0.681825 -0.016764 1.000000 -0.669578 -0.025603 1.000000 -0.656498 -0.035189 1.000000 -0.634706 -0.044102 1.000000 -0.612696 -0.053732 1.000000 -0.581340 -0.062239 1.000000 -0.550835 -0.071405 1.000000 -0.510410 -0.078919 1.000000 -0.472448 -0.086960 1.000000 -0.424107 -0.092793 1.000000 -0.380420 -0.098912 1.000000 -0.326100 -0.102356 1.000000 -0.279139 -0.105717 1.000000 -0.221588 -0.106186 1.000000 -0.174398 -0.106103 1.000000 -0.117034 -0.103312 1.000000 -0.072946 -0.099484 1.000000 -0.019476 -0.093606 1.000000 0.018378 -0.086357 1.000000 0.064538 -0.078129 1.000000 0.093837 -0.068547 1.000000 0.130302 -0.059290 1.000000 0.150191 -0.049129 1.000000 0.176306 -0.040579 1.000000 0.187869 -0.031690 1.000000 0.204938 -0.025445 1.000000 0.210932 -0.018847 1.000000 0.221419 -0.015504 1.000000 0.224905 -0.010990 1.000000 0.230974 -0.009843 1.000000 0.233806 -0.006403 1.000000 0.236499 -0.006256 1.000000 0.239493 -0.002844 1.000000 0.238582 -0.002701 1.000000 0.241668 0.001025 1.000000 0.236678 0.001641 1.000000 0.239284 0.005296 1.000000 0.230283 0.006223 1.000000 0.231964 0.008977 1.000000 0.219987 0.009575 1.000000 0.221068 0.010712 1.000000 0.207985 0.010641 1.000000 0.209189 0.010327 1.000000 0.196561 0.009802 1.000000 0.198320 0.008665 1.000000 0.186949 0.008055 1.000000 0.189295 0.006673 1.000000 0.179379 0.006235 1.000000 0.182104 0.004966 1.000000 0.173509 0.004809 1.000000 0.176318 0.003814 1.000000 0.168773 0.003947 1.000000 0.171378 0.003271 1.000000 0.164584 0.003656 1.000000 0.166737 0.003284 1.000000 0.160418 0.003867 1.000000 0.161924 0.003754 1.000000 0.155852 0.004481 1.000000 0.156569 0.004574 1.000000 0.150566 0.005393 1.000000 0.150401 0.005639 1.000000 0.144339 0.006504 1.000000 
0.161070 0.010985 1.000000 0.155863 0.012368 1.000000 0.153577 0.012623 1.000000 0.147913 0.013963 1.000000 0.144731 0.014221 1.000000 0.138600 0.015474 1.000000 0.134587 0.015691 1.000000 0.128015 0.016820 1.000000 0.123258 0.016963 1.000000 0.116297 0.017943 1.000000 0.110904 0.017994 1.000000 0.103628 0.018810 1.000000 0.097715 0.018763 1.000000 0.090207 0.019414 1.000000 0.083892 0.019280 1.000000 0.076234 0.019782 1.000000 0.069624 0.019585 1.000000 0.061888 0.019968 1.000000 0.055071 0.019750 1.000000 0.047304 0.020061 1.000000 0.040335 0.019878 1.000000 0.032552 0.020179 1.000000 0.025443 0.020099 1.000000 0.017613 0.020468 1.000000 0.010327 0.020573 1.000000 0.002363 0.021096 1.000000 -0.005201 0.021475 1.000000 -0.013445 0.022250 1.000000 -0.021453 0.022994 1.000000 -0.030187 0.024117 1.000000 -0.038873 0.025316 1.000000 -0.048373 0.026878 1.000000 -0.058035 0.028604 1.000000 -0.068630 0.030678 1.000000 -0.079620 0.032981 1.000000 -0.091680 0.035609 1.000000 -0.104383 0.038497 1.000000 -0.118289 0.041673 1.000000 -0.133091 0.045100 1.000000 -0.149200 0.048757 1.000000 -0.166448 0.052606 1.000000 -0.185047 0.056599 1.000000 -0.204993 0.060674 1.000000 -0.226240 0.064773 1.000000 -0.248983 0.068791 1.000000 -0.272845 0.072678 1.000000 -0.298270 0.076276 1.000000 -0.324470 0.079561 1.000000 -0.352190 0.082317 1.000000 -0.380163 0.084562 1.000000 -0.409487 0.086029 1.000000 -0.438357 0.086797 1.000000 -0.468286 0.086552 1.000000 -0.496891 0.085454 1.000000 -0.526154 0.083156 1.000000 -0.553100 0.079914 1.000000 -0.580235 0.075352 1.000000 -0.604001 0.069840 1.000000 -0.627467 0.062964 1.000000 -0.646522 0.055231 1.000000 -0.664832 0.046159 1.000000 -0.677760 0.036416 1.000000 -0.689593 0.025406 1.000000 -0.695178 0.013997 1.000000 -0.699468 0.001411 1.000000 -0.696741 -0.011221 1.000000 -0.692718 -0.024950 1.000000 -0.680975 -0.038281 1.000000 -0.668189 -0.052645 1.000000 -0.646998 -0.066054 1.000000 -0.625358 -0.080434 1.000000 -0.594613 -0.093175 1.000000 -0.564461 -0.106786 1.000000 -0.524504 -0.117952 1.000000 -0.486744 -0.129801 1.000000 -0.438545 -0.138350 1.000000 -0.394783 -0.147268 1.000000 -0.340136 -0.152137 1.000000 -0.292746 -0.156922 1.000000 -0.234373 -0.157239 1.000000 -0.186399 -0.156922 1.000000 -0.127855 -0.152282 1.000000 -0.082701 -0.146455 1.000000 -0.028006 -0.137175 1.000000 0.011039 -0.126307 1.000000 0.058056 -0.113609 1.000000 0.088389 -0.099243 1.000000 0.124997 -0.085306 1.000000 0.145338 -0.069977 1.000000 0.170891 -0.057613 1.000000 0.181954 -0.044135 1.000000 0.198259 -0.035731 1.000000 0.202919 -0.025770 1.000000 0.212999 -0.021782 1.000000 0.214984 -0.014966 1.000000 0.221341 -0.013774 1.000000 0.223102 -0.008518 1.000000 0.226784 -0.008572 1.000000 0.229217 -0.003100 1.000000 0.229779 -0.003087 1.000000 0.232684 0.002992 1.000000 0.229429 0.003788 1.000000 0.232006 0.009723 1.000000 0.224797 0.011101 1.000000 0.226368 0.015513 1.000000 0.216167 0.016413 1.000000 0.217135 0.018142 1.000000 0.206105 0.018001 1.000000 0.207330 0.017432 1.000000 0.197074 0.016629 1.000000 0.198943 0.014820 1.000000 0.190111 0.013933 1.000000 0.192555 0.011776 1.000000 0.185189 0.011176 1.000000 0.187938 0.009188 1.000000 0.181805 0.009019 1.000000 0.184552 0.007424 1.000000 0.179326 0.007690 1.000000 0.181793 0.006541 1.000000 0.177145 0.007184 1.000000 0.179105 0.006449 1.000000 0.174739 0.007390 1.000000 0.176015 0.007003 1.000000 0.171684 0.008160 1.000000 0.172149 0.008043 1.000000 0.167655 0.009341 1.000000 0.167229 0.009418 1.000000 0.162426 0.010788 1.000000 
0.145155 0.013415 1.000000 0.139192 0.015216 1.000000 0.137287 0.016076 1.000000 0.131070 0.017812 1.000000 0.128183 0.018699 1.000000 0.121718 0.020311 1.000000 0.117915 0.021155 1.000000 0.111241 0.022595 1.000000 0.106613 0.023341 1.000000 0.099792 0.024575 1.000000 0.094453 0.025185 1.000000 0.087562 0.026196 1.000000 0.081636 0.026652 1.000000 0.074759 0.027439 1.000000 0.068375 0.027743 1.000000 0.061590 0.028329 1.000000 0.054869 0.028505 1.000000 0.048242 0.028931 1.000000 0.041288 0.029026 1.000000 0.034855 0.029358 1.000000 0.027742 0.029441 1.000000 0.021505 0.029762 1.000000 0.014266 0.029923 1.000000 0.008180 0.030338 1.000000 0.000795 0.030685 1.000000 -0.005241 0.031314 1.000000 -0.012849 0.031966 1.000000 -0.018998 0.032939 1.000000 -0.026978 0.034022 1.000000 -0.033470 0.035472 1.000000 -0.042038 0.037107 1.000000 -0.049168 0.039157 1.000000 -0.058614 0.041448 1.000000 -0.066737 0.044197 1.000000 -0.077408 0.047215 1.000000 -0.086926 0.050720 1.000000 -0.099213 0.054481 1.000000 -0.110547 0.058736 1.000000 -0.124855 0.063182 1.000000 -0.138411 0.068097 1.000000 -0.155115 0.073076 1.000000 -0.171239 0.078455 1.000000 -0.190633 0.083704 1.000000 -0.209549 0.089236 1.000000 -0.231780 0.094377 1.000000 -0.253528 0.099632 1.000000 -0.278530 0.104178 1.000000 -0.302899 0.108627 1.000000 -0.330334 0.112013 1.000000 -0.356812 0.115061 1.000000 -0.386021 0.116691 1.000000 -0.413767 0.117744 1.000000 -0.443761 0.117061 1.000000 -0.471613 0.115597 1.000000 -0.501109 0.112161 1.000000 -0.527642 0.107813 1.000000 -0.555140 0.101372 1.000000 -0.578775 0.093988 1.000000 -0.602684 0.084519 1.000000 -0.621816 0.074188 1.000000 -0.640599 0.061891 1.000000 -0.653734 0.048927 1.000000 -0.666030 0.034176 1.000000 -0.671893 0.019059 1.000000 -0.676610 0.002331 1.000000 -0.674193 -0.014356 1.000000 -0.670552 -0.032530 1.000000 -0.659138 -0.050132 1.000000 -0.646692 -0.069166 1.000000 -0.625856 -0.086934 1.000000 -0.604524 -0.106117 1.000000 -0.574173 -0.123136 1.000000 -0.544312 -0.141515 1.000000 -0.504792 -0.156636 1.000000 -0.467329 -0.172919 1.000000 -0.419603 -0.184754 1.000000 -0.376183 -0.197321 1.000000 -0.322030 -0.204393 1.000000 -0.275104 -0.211480 1.000000 -0.217239 -0.212534 1.000000 -0.169977 -0.212621 1.000000 -0.111967 -0.207009 1.000000 -0.067945 -0.199333 1.000000 -0.013847 -0.187347 1.000000 0.023456 -0.172418 1.000000 0.069721 -0.155479 1.000000 0.097560 -0.135488 1.000000 0.133056 -0.116240 1.000000 0.150231 -0.095023 1.000000 0.174098 -0.077195 1.000000 0.181921 -0.059058 1.000000 0.196124 -0.046410 1.000000 0.198561 -0.033587 1.000000 0.206754 -0.027568 1.000000 0.208123 -0.019331 1.000000 0.213047 -0.017962 1.000000 0.214766 -0.011847 1.000000 0.217578 -0.012370 1.000000 0.220421 -0.005839 1.000000 0.219919 -0.006169 1.000000 0.223762 0.001375 1.000000 0.218914 0.002319 1.000000 0.222812 0.009928 1.000000 0.213479 0.011861 1.000000 0.216334 0.017608 1.000000 0.203677 0.018808 1.000000 0.205910 0.020774 1.000000 0.192740 0.020445 1.000000 0.195376 0.019358 1.000000 0.183401 0.018189 1.000000 0.186731 0.015628 1.000000 0.176423 0.014443 1.000000 0.180244 0.011595 1.000000 0.171485 0.010852 1.000000 0.175464 0.008350 1.000000 0.167948 0.008195 1.000000 0.171771 0.006293 1.000000 0.165164 0.006705 1.000000 0.168571 0.005452 1.000000 0.162565 0.006345 1.000000 0.165349 0.005689 1.000000 0.159681 0.006957 1.000000 0.161682 0.006810 1.000000 0.156139 0.008347 1.000000 0.157240 0.008603 1.000000 0.151658 0.010313 1.000000 0.151782 0.010867 1.000000 0.146045 0.012662 1.000000 
0.164086 0.017838 1.000000 0.159221 0.020236 1.000000 0.157090 0.020745 1.000000 0.151653 0.023068 1.000000 0.148529 0.023572 1.000000 0.142518 0.025742 1.000000 0.138474 0.026168 1.000000 0.131925 0.028122 1.000000 0.127061 0.028412 1.000000 0.120041 0.030104 1.000000 0.114477 0.030224 1.000000 0.107078 0.031627 1.000000 0.100951 0.031566 1.000000 0.093278 0.032676 1.000000 0.086728 0.032448 1.000000 0.078889 0.033287 1.000000 0.072049 0.032933 1.000000 0.064145 0.033550 1.000000 0.057131 0.033137 1.000000 0.049240 0.033607 1.000000 0.042137 0.033228 1.000000 0.034304 0.033655 1.000000 0.027157 0.033425 1.000000 0.019380 0.033938 1.000000 0.012180 0.033993 1.000000 0.004404 0.034741 1.000000 -0.002921 0.035233 1.000000 -0.010819 0.036378 1.000000 -0.018411 0.037466 1.000000 -0.026622 0.039178 1.000000 -0.034700 0.041014 1.000000 -0.043490 0.043453 1.000000 -0.052346 0.046173 1.000000 -0.062048 0.049473 1.000000 -0.072044 0.053170 1.000000 -0.083045 0.057414 1.000000 -0.094594 0.062118 1.000000 -0.107313 0.067315 1.000000 -0.120848 0.072964 1.000000 -0.135701 0.079017 1.000000 -0.151635 0.085435 1.000000 -0.168982 0.092117 1.000000 -0.187654 0.098984 1.000000 -0.207739 0.105920 1.000000 -0.229341 0.112769 1.000000 -0.252225 0.119428 1.000000 -0.276732 0.125648 1.000000 -0.302219 0.131365 1.000000 -0.329319 0.136230 1.000000 -0.356894 0.140250 1.000000 -0.385937 0.142984 1.000000 -0.414738 0.144537 1.000000 -0.444715 0.144398 1.000000 -0.473541 0.142801 1.000000 -0.503122 0.139186 1.000000 -0.530500 0.133945 1.000000 -0.558126 0.126484 1.000000 -0.582437 0.117385 1.000000 -0.606464 0.106006 1.000000 -0.626099 0.093145 1.000000 -0.644966 0.078077 1.000000 -0.658485 0.061847 1.000000 -0.670858 0.043564 1.000000 -0.677094 0.024577 1.000000 -0.681955 0.003711 1.000000 -0.680040 -0.017279 1.000000 -0.676698 -0.040006 1.000000 -0.666022 -0.062140 1.000000 -0.654086 -0.085927 1.000000 -0.634241 -0.108223 1.000000 -0.613599 -0.132117 1.000000 -0.584374 -0.153387 1.000000 -0.555250 -0.176166 1.000000 -0.516739 -0.194935 1.000000 -0.479852 -0.214990 1.000000 -0.432693 -0.229497 1.000000 -0.389492 -0.244841 1.000000 -0.335189 -0.253216 1.000000 -0.288021 -0.261712 1.000000 -0.229193 -0.262366 1.000000 -0.181259 -0.262194 1.000000 -0.121657 -0.254313 1.000000 -0.076646 -0.244576 1.000000 -0.020832 -0.228576 1.000000 0.017632 -0.209874 1.000000 0.064973 -0.187712 1.000000 0.093857 -0.162579 1.000000 0.129041 -0.137977 1.000000 0.146472 -0.111018 1.000000 0.168557 -0.089304 1.000000 0.174972 -0.066161 1.000000 0.187124 -0.052370 1.000000 0.186578 -0.036400 1.000000 0.193410 -0.031344 1.000000 0.191750 -0.021260 1.000000 0.196532 -0.020417 1.000000 0.196472 -0.013049 1.000000 0.200251 -0.014227 1.000000 0.202361 -0.005441 1.000000 0.203442 -0.006428 1.000000 0.207380 0.003997 1.000000 0.204422 0.004738 1.000000 0.208876 0.015158 1.000000 0.201457 0.017579 1.000000 0.204686 0.025314 1.000000 0.193649 0.026836 1.000000 0.196291 0.029079 1.000000 0.185385 0.028536 1.000000 0.188716 0.026771 1.000000 0.179591 0.025274 1.000000 0.183677 0.021798 1.000000 0.176432 0.020419 1.000000 0.180871 0.016714 1.000000 0.175134 0.015956 1.000000 0.179530 0.012725 1.000000 0.174877 0.012712 1.000000 0.178932 0.010208 1.000000 0.174983 0.010890 1.000000 0.178476 0.009140 1.000000 0.174907 0.010406 1.000000 0.177671 0.009333 1.000000 0.174204 0.011057 1.000000 0.176111 0.010545 1.000000 0.172520 0.012602 1.000000 0.173475 0.012525 1.000000 0.169578 0.014799 1.000000 0.169520 0.015030 1.000000 0.165184 0.017415 1.000000 
0.148589 0.019378 1.000000 0.143002 0.022211 1.000000 0.141292 0.023644 1.000000 0.135318 0.026373 1.000000 0.132504 0.027834 1.000000 0.126161 0.030366 1.000000 0.122318 0.031748 1.000000 0.115658 0.034009 1.000000 0.110891 0.035225 1.000000 0.103994 0.037158 1.000000 0.098432 0.038148 1.000000 0.091399 0.039722 1.000000 0.085192 0.040452 1.000000 0.078132 0.041663 1.000000 0.071436 0.042132 1.000000 0.064459 0.043007 1.000000 0.057428 0.043249 1.000000 0.050631 0.043850 1.000000 0.043404 0.043932 1.000000 0.036862 0.044351 1.000000 0.029551 0.044377 1.000000 0.023300 0.044742 1.000000 0.015977 0.044847 1.000000 0.010009 0.045315 1.000000 0.002695 0.045661 1.000000 -0.003057 0.046415 1.000000 -0.010404 0.047188 1.000000 -0.016071 0.048429 1.000000 -0.023568 0.049825 1.000000 -0.029357 0.051761 1.000000 -0.037198 0.053975 1.000000 -0.043390 0.056803 1.000000 -0.051855 0.060006 1.000000 -0.058805 0.063895 1.000000 -0.068250 0.068212 1.000000 -0.076381 0.073270 1.000000 -0.087227 0.078749 1.000000 -0.097004 0.084991 1.000000 -0.109712 0.091570 1.000000 -0.121610 0.098884 1.000000 -0.136638 0.106357 1.000000 -0.151096 0.114473 1.000000 -0.168843 0.122461 1.000000 -0.186198 0.130923 1.000000 -0.206933 0.138863 1.000000 -0.227343 0.147023 1.000000 -0.251123 0.154172 1.000000 -0.274488 0.161213 1.000000 -0.301075 0.166688 1.000000 -0.326963 0.171679 1.000000 -0.355756 0.174535 1.000000 -0.383352 0.176522 1.000000 -0.413359 0.175863 1.000000 -0.441465 0.174004 1.000000 -0.471330 0.169120 1.000000 -0.498423 0.162818 1.000000 -0.526524 0.153309 1.000000 -0.550894 0.142326 1.000000 -0.575502 0.128181 1.000000 -0.595428 0.112690 1.000000 -0.614902 0.094277 1.000000 -0.628838 0.074820 1.000000 -0.641790 0.052785 1.000000 -0.648491 0.030155 1.000000 -0.653875 0.005277 1.000000 -0.652437 -0.019613 1.000000 -0.649560 -0.046548 1.000000 -0.639373 -0.072744 1.000000 -0.627855 -0.100947 1.000000 -0.608536 -0.127420 1.000000 -0.588281 -0.155983 1.000000 -0.559649 -0.181485 1.000000 -0.530896 -0.209150 1.000000 -0.493051 -0.232034 1.000000 -0.456530 -0.256965 1.000000 -0.410086 -0.275114 1.000000 -0.367281 -0.294826 1.000000 -0.313704 -0.305863 1.000000 -0.267058 -0.317476 1.000000 -0.208962 -0.319296 1.000000 -0.161858 -0.320157 1.000000 -0.103024 -0.311623 1.000000 -0.059424 -0.300158 1.000000 -0.004442 -0.281625 1.000000 0.031692 -0.258223 1.000000 0.078092 -0.231705 1.000000 0.103385 -0.199556 1.000000 0.137248 -0.168854 1.000000 0.149714 -0.134539 1.000000 0.169530 -0.105696 1.000000 0.170531 -0.077626 1.000000 0.179552 -0.058016 1.000000 0.175553 -0.039873 1.000000 0.179896 -0.032740 1.000000 0.178468 -0.022453 1.000000 0.181342 -0.022684 1.000000 0.180921 -0.015565 1.000000 0.184401 -0.018260 1.000000 0.186386 -0.009030 1.000000 0.186489 -0.011188 1.000000 0.191389 0.000394 1.000000 0.186546 0.000824 1.000000 0.193104 0.012893 1.000000 0.183251 0.016051 1.000000 0.188562 0.025416 1.000000 0.174626 0.027202 1.000000 0.179323 0.029038 1.000000 0.166517 0.028020 1.000000 0.172128 0.025152 1.000000 0.161811 0.023228 1.000000 0.168070 0.018786 1.000000 0.159841 0.017249 1.000000 0.166164 0.012893 1.000000 0.159415 0.012193 1.000000 0.165397 0.008608 1.000000 0.159649 0.008793 1.000000 0.165041 0.006187 1.000000 0.159931 0.007161 1.000000 0.164568 0.005528 1.000000 0.159810 0.007150 1.000000 0.163566 0.006392 1.000000 0.158929 0.008517 1.000000 0.161699 0.008494 1.000000 0.156998 0.010983 1.000000 0.158701 0.011545 1.000000 0.153792 0.014268 1.000000 0.154374 0.015262 1.000000 0.149156 0.018096 1.000000 
0.168983 0.023992 1.000000 0.164612 0.027533 1.000000 0.162695 0.028430 1.000000 0.157580 0.031855 1.000000 0.154528 0.032729 1.000000 0.148676 0.035929 1.000000 0.144570 0.036671 1.000000 0.138034 0.039550 1.000000 0.132988 0.040076 1.000000 0.125854 0.042562 1.000000 0.120012 0.042819 1.000000 0.112399 0.044867 1.000000 0.105924 0.044833 1.000000 0.097972 0.046432 1.000000 0.091037 0.046121 1.000000 0.082892 0.047295 1.000000 0.075671 0.046761 1.000000 0.067476 0.047573 1.000000 0.060127 0.046907 1.000000 0.052006 0.047461 1.000000 0.044661 0.046790 1.000000 0.036707 0.047229 1.000000 0.029457 0.046716 1.000000 0.021715 0.047220 1.000000 0.014598 0.047058 1.000000 0.007058 0.047840 1.000000 0.000046 0.048247 1.000000 -0.007375 0.049542 1.000000 -0.014385 0.050751 1.000000 -0.021848 0.052808 1.000000 -0.029047 0.055048 1.000000 -0.036799 0.058110 1.000000 -0.044469 0.061589 1.000000 -0.052842 0.065868 1.000000 -0.061353 0.070746 1.000000 -0.070760 0.076391 1.000000 -0.080560 0.082741 1.000000 -0.091471 0.089799 1.000000 -0.103063 0.097570 1.000000 -0.115977 0.105943 1.000000 -0.129873 0.114920 1.000000 -0.145263 0.124322 1.000000 -0.161931 0.134086 1.000000 -0.180179 0.144010 1.000000 -0.199959 0.153914 1.000000 -0.221271 0.163618 1.000000 -0.244288 0.172793 1.000000 -0.268598 0.181317 1.000000 -0.294665 0.188704 1.000000 -0.321552 0.194931 1.000000 -0.350086 0.199373 1.000000 -0.378710 0.202141 1.000000 -0.408693 0.202511 1.000000 -0.437791 0.200772 1.000000 -0.467791 0.196144 1.000000 -0.495746 0.189139 1.000000 -0.524033 0.178954 1.000000 -0.549043 0.166362 1.000000 -0.573783 0.150540 1.000000 -0.594089 0.132546 1.000000 -0.613585 0.111488 1.000000 -0.627703 0.088735 1.000000 -0.640602 0.063218 1.000000 -0.647466 0.036662 1.000000 -0.652859 0.007657 1.000000 -0.651814 -0.021594 1.000000 -0.649193 -0.053070 1.000000 -0.639857 -0.083846 1.000000 -0.628987 -0.116764 1.000000 -0.611066 -0.147796 1.000000 -0.591855 -0.181004 1.000000 -0.565028 -0.210773 1.000000 -0.537530 -0.242765 1.000000 -0.501513 -0.269300 1.000000 -0.466133 -0.297955 1.000000 -0.420999 -0.318746 1.000000 -0.378903 -0.341223 1.000000 -0.325611 -0.353439 1.000000 -0.279113 -0.366454 1.000000 -0.220027 -0.367566 1.000000 -0.172623 -0.368132 1.000000 -0.111716 -0.356748 1.000000 -0.067549 -0.343157 1.000000 -0.010137 -0.319693 1.000000 0.026861 -0.292408 1.000000 0.074780 -0.259405 1.000000 0.101366 -0.221735 1.000000 0.134282 -0.184307 1.000000 0.147692 -0.143300 1.000000 0.163646 -0.110121 1.000000 0.162893 -0.076184 1.000000 0.168469 -0.057392 1.000000 0.159139 -0.036744 1.000000 0.161153 -0.034259 1.000000 0.154031 -0.022706 1.000000 0.156425 -0.022871 1.000000 0.153387 -0.016107 1.000000 0.157742 -0.019692 1.000000 0.158463 -0.007529 1.000000 0.159973 -0.011431 1.000000 0.165088 0.003940 1.000000 0.162126 0.003023 1.000000 0.170191 0.018453 1.000000 0.162786 0.022120 1.000000 0.169348 0.033939 1.000000 0.156850 0.036076 1.000000 0.163058 0.037188 1.000000 0.153333 0.035730 1.000000 0.160807 0.031477 1.000000 0.154262 0.029332 1.000000 0.162083 0.023768 1.000000 0.157602 0.022326 1.000000 0.165022 0.017139 1.000000 0.161780 0.016723 1.000000 0.168467 0.012492 1.000000 0.165951 0.013068 1.000000 0.171767 0.009926 1.000000 0.169623 0.011363 1.000000 0.174489 0.009260 1.000000 0.172437 0.011409 1.000000 0.176287 0.010215 1.000000 0.174092 0.012923 1.000000 0.176863 0.012477 1.000000 0.174327 0.015600 1.000000 0.175963 0.015730 1.000000 0.172924 0.019127 1.000000 0.173383 0.019667 1.000000 0.169718 0.023200 1.000000 