# vtk DataFile Version 2.0
Comment goes here
ASCII

DATASET STRUCTURED_POINTS
DIMENSIONS    128   128   1

ORIGIN    0.000   0.000   0.000
SPACING   0.0156250.015625   1.000

POINT_DATA   16384
VECTORS u double

-0.026888 0.000030 1.000000 -0.036880 0.000019 1.000000 -0.041625 0.000037 1.000000 -0.050420 0.000025 1.000000 -0.054515 0.000044 1.000000 -0.062046 0.000032 1.000000 -0.065443 0.000051 1.000000 -0.071668 0.000038 1.000000 -0.074345 0.000058 1.000000 -0.079255 0.000045 1.000000 -0.081218 0.000065 1.000000 -0.084837 0.000052 1.000000 -0.086120 0.000071 1.000000 -0.088506 0.000058 1.000000 -0.089172 0.000077 1.000000 -0.090422 0.000064 1.000000 -0.090562 0.000083 1.000000 -0.090809 0.000071 1.000000 -0.090545 0.000089 1.000000 -0.089962 0.000077 1.000000 -0.089445 0.000094 1.000000 -0.088243 0.000083 1.000000 -0.087656 0.000099 1.000000 -0.086083 0.000089 1.000000 -0.085637 0.000103 1.000000 -0.083977 0.000095 1.000000 -0.083913 0.000108 1.000000 -0.082485 0.000101 1.000000 -0.083073 0.000113 1.000000 -0.082224 0.000107 1.000000 -0.083758 0.000118 1.000000 -0.083859 0.000114 1.000000 -0.086651 0.000122 1.000000 -0.088086 0.000120 1.000000 -0.092457 0.000128 1.000000 -0.095606 0.000128 1.000000 -0.101867 0.000133 1.000000 -0.107086 0.000135 1.000000 -0.115518 0.000138 1.000000 -0.123112 0.000142 1.000000 -0.133932 0.000144 1.000000 -0.144117 0.000149 1.000000 -0.157445 0.000149 1.000000 -0.170309 0.000156 1.000000 -0.186125 0.000153 1.000000 -0.201589 0.000161 1.000000 -0.219694 0.000156 1.000000 -0.237471 0.000165 1.000000 -0.257458 0.000157 1.000000 -0.277031 0.000167 1.000000 -0.298266 0.000156 1.000000 -0.318878 0.000165 1.000000 -0.340508 0.000152 1.000000 -0.361183 0.000160 1.000000 -0.382170 0.000143 1.000000 -0.401763 0.000150 1.000000 -0.420947 0.000130 1.000000 -0.438214 0.000136 1.000000 -0.454398 0.000112 1.000000 -0.468083 0.000116 1.000000 -0.480125 0.000089 1.000000 -0.489048 0.000090 1.000000 -0.495937 0.000060 1.000000 -0.499063 0.000058 1.000000 -0.499985 0.000026 1.000000 -0.496472 0.000022 1.000000 -0.490851 -0.000013 1.000000 -0.480086 -0.000018 1.000000 -0.467616 -0.000054 1.000000 -0.449255 -0.000060 1.000000 -0.429952 -0.000097 1.000000 -0.403990 -0.000102 1.000000 -0.378274 -0.000138 1.000000 -0.345153 -0.000142 1.000000 -0.313961 -0.000174 1.000000 -0.274720 -0.000175 1.000000 -0.239616 -0.000204 1.000000 -0.196008 -0.000201 1.000000 -0.159217 -0.000223 1.000000 -0.113727 -0.000215 1.000000 -0.078005 -0.000231 1.000000 -0.033658 -0.000217 1.000000 -0.001920 -0.000225 1.000000 0.038170 -0.000207 1.000000 0.063428 -0.000208 1.000000 0.096694 -0.000185 1.000000 0.114046 -0.000180 1.000000 0.139106 -0.000154 1.000000 0.148669 -0.000146 1.000000 0.165679 -0.000120 1.000000 0.169138 -0.000111 1.000000 0.179606 -0.000087 1.000000 0.179602 -0.000078 1.000000 0.185587 -0.000058 1.000000 0.184648 -0.000051 1.000000 0.187768 -0.000036 1.000000 0.187464 -0.000031 1.000000 0.188411 -0.000021 1.000000 0.189231 -0.000018 1.000000 0.187876 -0.000012 1.000000 0.189468 -0.000010 1.000000 0.185428 -0.000008 1.000000 0.187010 -0.000006 1.000000 0.180130 -0.000007 1.000000 0.180937 -0.000005 1.000000 0.171500 -0.000008 1.000000 0.171131 -0.000006 1.000000 0.159765 -0.000011 1.000000 0.158156 -0.000007 1.000000 0.145487 -0.000013 1.000000 0.142700 -0.000008 1.000000 0.129189 -0.000014 1.000000 0.125331 -0.000008 1.000000 0.111308 -0.000014 1.000000 0.106529 -0.000006 1.000000 0.092264 -0.000013 1.000000 0.086763 -0.000003 1.000000 0.072502 -0.000011 1.000000 0.066508 0.000000 1.000000 0.052488 -0.000008 1.000000 0.046239 0.000005 1.000000 0.032679 -0.000004 1.000000 0.026397 0.000011 1.000000 0.013495 0.000001 1.000000 0.007378 0.000017 1.000000 -0.004693 0.000007 1.000000 -0.010478 0.000023 1.000000 -0.021570 0.000012 1.000000 
-0.013662 0.007676 1.000000 -0.022945 0.007378 1.000000 -0.027906 0.006798 1.000000 -0.036203 0.006461 1.000000 -0.040474 0.005848 1.000000 -0.047727 0.005486 1.000000 -0.051258 0.004853 1.000000 -0.057430 0.004480 1.000000 -0.060198 0.003842 1.000000 -0.065282 0.003472 1.000000 -0.067292 0.002846 1.000000 -0.071306 0.002492 1.000000 -0.072593 0.001896 1.000000 -0.075589 0.001574 1.000000 -0.076216 0.001025 1.000000 -0.078276 0.000749 1.000000 -0.078339 0.000267 1.000000 -0.079581 0.000052 1.000000 -0.079202 -0.000345 1.000000 -0.079780 -0.000483 1.000000 -0.079116 -0.000775 1.000000 -0.079218 -0.000822 1.000000 -0.078456 -0.000991 1.000000 -0.078309 -0.000931 1.000000 -0.077665 -0.000959 1.000000 -0.077528 -0.000776 1.000000 -0.077250 -0.000647 1.000000 -0.077420 -0.000328 1.000000 -0.077782 -0.000026 1.000000 -0.078582 0.000441 1.000000 -0.079886 0.000927 1.000000 -0.081666 0.001552 1.000000 -0.084229 0.002229 1.000000 -0.087352 0.003016 1.000000 -0.091500 0.003881 1.000000 -0.096328 0.004826 1.000000 -0.102377 0.005867 1.000000 -0.109248 0.006955 1.000000 -0.117482 0.008146 1.000000 -0.126681 0.009344 1.000000 -0.137321 0.010642 1.000000 -0.149047 0.011901 1.000000 -0.162213 0.013241 1.000000 -0.176536 0.014492 1.000000 -0.192207 0.015789 1.000000 -0.209029 0.016943 1.000000 -0.227003 0.018095 1.000000 -0.246018 0.019045 1.000000 -0.265884 0.019935 1.000000 -0.286557 0.020569 1.000000 -0.307673 0.021078 1.000000 -0.329231 0.021285 1.000000 -0.350739 0.021304 1.000000 -0.372194 0.020991 1.000000 -0.393050 0.020433 1.000000 -0.413252 0.019539 1.000000 -0.432295 0.018356 1.000000 -0.450008 0.016862 1.000000 -0.466046 0.015048 1.000000 -0.480035 0.012980 1.000000 -0.491938 0.010572 1.000000 -0.501056 0.007997 1.000000 -0.507834 0.005068 1.000000 -0.511090 0.002084 1.000000 -0.511955 -0.001268 1.000000 -0.508548 -0.004543 1.000000 -0.502941 -0.008204 1.000000 -0.492284 -0.011634 1.000000 -0.479902 -0.015468 1.000000 -0.461648 -0.018890 1.000000 -0.442486 -0.022728 1.000000 -0.416590 -0.025940 1.000000 -0.391015 -0.029554 1.000000 -0.357854 -0.032296 1.000000 -0.326731 -0.035389 1.000000 -0.287265 -0.037346 1.000000 -0.252081 -0.039558 1.000000 -0.208010 -0.040398 1.000000 -0.170928 -0.041362 1.000000 -0.124739 -0.040820 1.000000 -0.088485 -0.040264 1.000000 -0.043279 -0.038258 1.000000 -0.010789 -0.036138 1.000000 0.030177 -0.032879 1.000000 0.056332 -0.029469 1.000000 0.090337 -0.025492 1.000000 0.108586 -0.021385 1.000000 0.134160 -0.017465 1.000000 0.144415 -0.013432 1.000000 0.161757 -0.010354 1.000000 0.165509 -0.007073 1.000000 0.176268 -0.005319 1.000000 0.176117 -0.003068 1.000000 0.182486 -0.002581 1.000000 0.181098 -0.001141 1.000000 0.184815 -0.001444 1.000000 0.183979 -0.000353 1.000000 0.185774 -0.000905 1.000000 0.186088 0.000249 1.000000 0.185837 -0.000132 1.000000 0.186965 0.001213 1.000000 0.184259 0.001220 1.000000 0.185395 0.002641 1.000000 0.180029 0.003028 1.000000 0.180388 0.004307 1.000000 0.172585 0.004892 1.000000 0.171776 0.005859 1.000000 0.162132 0.006474 1.000000 0.160108 0.007129 1.000000 0.149211 0.007711 1.000000 0.146028 0.008137 1.000000 0.134296 0.008666 1.000000 0.130051 0.008929 1.000000 0.117776 0.009382 1.000000 0.112615 0.009511 1.000000 0.100039 0.009865 1.000000 0.094160 0.009872 1.000000 0.081509 0.010111 1.000000 0.075146 0.010001 1.000000 0.062634 0.010121 1.000000 0.056029 0.009904 1.000000 0.043857 0.009911 1.000000 0.037238 0.009596 1.000000 0.025582 0.009504 1.000000 0.019152 0.009103 1.000000 0.008166 0.008927 1.000000 0.002096 0.008454 1.000000 -0.008092 0.008209 1.000000 
-0.027804 0.014883 1.000000 -0.037744 0.014263 1.000000 -0.042443 0.013295 1.000000 -0.051200 0.012594 1.000000 -0.055260 0.011567 1.000000 -0.062760 0.010815 1.000000 -0.066129 0.009754 1.000000 -0.072330 0.008979 1.000000 -0.074985 0.007909 1.000000 -0.079873 0.007139 1.000000 -0.081818 0.006089 1.000000 -0.085413 0.005353 1.000000 -0.086678 0.004354 1.000000 -0.089037 0.003681 1.000000 -0.089683 0.002765 1.000000 -0.090898 0.002187 1.000000 -0.091013 0.001387 1.000000 -0.091216 0.000934 1.000000 -0.090920 0.000288 1.000000 -0.090279 -0.000009 1.000000 -0.089721 -0.000468 1.000000 -0.088445 -0.000577 1.000000 -0.087801 -0.000811 1.000000 -0.086137 -0.000703 1.000000 -0.085616 -0.000677 1.000000 -0.083844 -0.000320 1.000000 -0.083685 -0.000001 1.000000 -0.082120 0.000632 1.000000 -0.082589 0.001276 1.000000 -0.081578 0.002211 1.000000 -0.082967 0.003201 1.000000 -0.082880 0.004457 1.000000 -0.085501 0.005809 1.000000 -0.086724 0.007392 1.000000 -0.090899 0.009103 1.000000 -0.093817 0.011005 1.000000 -0.099863 0.013053 1.000000 -0.104839 0.015240 1.000000 -0.113045 0.017572 1.000000 -0.120396 0.019981 1.000000 -0.130993 0.022510 1.000000 -0.140948 0.025041 1.000000 -0.154069 0.027638 1.000000 -0.166735 0.030149 1.000000 -0.182379 0.032645 1.000000 -0.197692 0.034957 1.000000 -0.215677 0.037146 1.000000 -0.233367 0.039046 1.000000 -0.253298 0.040696 1.000000 -0.272857 0.041956 1.000000 -0.294107 0.042830 1.000000 -0.314781 0.043231 1.000000 -0.336493 0.043115 1.000000 -0.357302 0.042471 1.000000 -0.378426 0.041202 1.000000 -0.398208 0.039396 1.000000 -0.417568 0.036886 1.000000 -0.435061 0.033887 1.000000 -0.451440 0.030139 1.000000 -0.465373 0.026007 1.000000 -0.477616 0.021110 1.000000 -0.486801 0.015986 1.000000 -0.493894 0.010094 1.000000 -0.497299 0.004179 1.000000 -0.498435 -0.002516 1.000000 -0.495227 -0.008992 1.000000 -0.489837 -0.016277 1.000000 -0.479411 -0.023056 1.000000 -0.467191 -0.030690 1.000000 -0.449193 -0.037477 1.000000 -0.430144 -0.045155 1.000000 -0.404534 -0.051573 1.000000 -0.379037 -0.058874 1.000000 -0.346198 -0.064426 1.000000 -0.315135 -0.070763 1.000000 -0.276031 -0.074826 1.000000 -0.240921 -0.079459 1.000000 -0.197251 -0.081354 1.000000 -0.160317 -0.083494 1.000000 -0.114571 -0.082658 1.000000 -0.078638 -0.081690 1.000000 -0.033933 -0.077913 1.000000 -0.002063 -0.073682 1.000000 0.038319 -0.067327 1.000000 0.063450 -0.060368 1.000000 0.096754 -0.052438 1.000000 0.113587 -0.044003 1.000000 0.138314 -0.035984 1.000000 0.146967 -0.027742 1.000000 0.163318 -0.021215 1.000000 0.165671 -0.014622 1.000000 0.175399 -0.010694 1.000000 0.174438 -0.006295 1.000000 0.179895 -0.005040 1.000000 0.178388 -0.002381 1.000000 0.181299 -0.002916 1.000000 0.180801 -0.000990 1.000000 0.181792 -0.002130 1.000000 0.182716 -0.000080 1.000000 0.181466 -0.000889 1.000000 0.183374 0.001568 1.000000 0.179386 0.001561 1.000000 0.181393 0.004223 1.000000 0.174503 0.005000 1.000000 0.175730 0.007439 1.000000 0.166282 0.008604 1.000000 0.166306 0.010446 1.000000 0.155033 0.011658 1.000000 0.153815 0.012914 1.000000 0.141345 0.014067 1.000000 0.138928 0.014907 1.000000 0.125663 0.015963 1.000000 0.122123 0.016512 1.000000 0.108344 0.017422 1.000000 0.103824 0.017731 1.000000 0.089777 0.018442 1.000000 0.084482 0.018527 1.000000 0.070409 0.019003 1.000000 0.064581 0.018874 1.000000 0.050718 0.019109 1.000000 0.044603 0.018782 1.000000 0.031173 0.018788 1.000000 0.025001 0.018285 1.000000 0.012206 0.018088 1.000000 0.006179 0.017433 1.000000 -0.005807 0.017063 1.000000 -0.011519 0.016280 1.000000 -0.022545 0.015770 1.000000 
-0.015322 0.022876 1.000000 -0.024492 0.022018 1.000000 -0.029363 0.020254 1.000000 -0.037574 0.019278 1.000000 -0.041776 0.017408 1.000000 -0.048964 0.016356 1.000000 -0.052441 0.014423 1.000000 -0.058565 0.013336 1.000000 -0.061290 0.011385 1.000000 -0.066333 0.010304 1.000000 -0.068306 0.008386 1.000000 -0.072283 0.007353 1.000000 -0.073533 0.005520 1.000000 -0.076487 0.004578 1.000000 -0.077073 0.002886 1.000000 -0.079080 0.002080 1.000000 -0.079092 0.000585 1.000000 -0.080264 -0.000041 1.000000 -0.079819 -0.001281 1.000000 -0.080303 -0.001683 1.000000 -0.079552 -0.002610 1.000000 -0.079531 -0.002741 1.000000 -0.078652 -0.003299 1.000000 -0.078345 -0.003116 1.000000 -0.077550 -0.003251 1.000000 -0.077211 -0.002708 1.000000 -0.076739 -0.002370 1.000000 -0.076658 -0.001424 1.000000 -0.076779 -0.000568 1.000000 -0.077278 0.000819 1.000000 -0.078288 0.002229 1.000000 -0.079714 0.004087 1.000000 -0.081931 0.006072 1.000000 -0.084651 0.008414 1.000000 -0.088406 0.010973 1.000000 -0.092790 0.013790 1.000000 -0.098409 0.016890 1.000000 -0.104811 0.020138 1.000000 -0.112596 0.023703 1.000000 -0.121325 0.027291 1.000000 -0.131521 0.031193 1.000000 -0.142804 0.034978 1.000000 -0.155562 0.039028 1.000000 -0.169504 0.042802 1.000000 -0.184836 0.046746 1.000000 -0.201372 0.050241 1.000000 -0.219110 0.053770 1.000000 -0.237966 0.056666 1.000000 -0.257723 0.059426 1.000000 -0.278380 0.061378 1.000000 -0.299527 0.063003 1.000000 -0.321215 0.063671 1.000000 -0.342886 0.063824 1.000000 -0.364603 0.062924 1.000000 -0.385728 0.061340 1.000000 -0.406291 0.058681 1.000000 -0.425672 0.055209 1.000000 -0.443805 0.050734 1.000000 -0.460211 0.045361 1.000000 -0.474649 0.039155 1.000000 -0.486924 0.032000 1.000000 -0.496512 0.024275 1.000000 -0.503664 0.015566 1.000000 -0.507425 0.006624 1.000000 -0.508686 -0.003340 1.000000 -0.505852 -0.013141 1.000000 -0.500694 -0.024021 1.000000 -0.490705 -0.034280 1.000000 -0.478838 -0.045686 1.000000 -0.461335 -0.055938 1.000000 -0.442724 -0.067387 1.000000 -0.417593 -0.077047 1.000000 -0.392525 -0.087890 1.000000 -0.360003 -0.096198 1.000000 -0.329222 -0.105556 1.000000 -0.290095 -0.111560 1.000000 -0.254979 -0.118338 1.000000 -0.210809 -0.121003 1.000000 -0.173499 -0.124041 1.000000 -0.126761 -0.122499 1.000000 -0.090109 -0.120902 1.000000 -0.044093 -0.114833 1.000000 -0.011307 -0.108390 1.000000 0.030352 -0.098391 1.000000 0.056367 -0.087904 1.000000 0.090507 -0.075630 1.000000 0.107918 -0.062944 1.000000 0.132791 -0.050845 1.000000 0.141443 -0.038435 1.000000 0.157366 -0.029057 1.000000 0.159004 -0.019155 1.000000 0.168201 -0.014085 1.000000 0.166046 -0.007564 1.000000 0.171279 -0.006532 1.000000 0.168564 -0.002545 1.000000 0.171830 -0.003856 1.000000 0.170488 -0.000846 1.000000 0.172347 -0.002821 1.000000 0.172826 0.000575 1.000000 0.172778 -0.000789 1.000000 0.174537 0.003293 1.000000 0.171964 0.003200 1.000000 0.173963 0.007525 1.000000 0.168636 0.008691 1.000000 0.169836 0.012528 1.000000 0.162058 0.014316 1.000000 0.162044 0.017107 1.000000 0.152640 0.018965 1.000000 0.151415 0.020817 1.000000 0.140964 0.022599 1.000000 0.138530 0.023819 1.000000 0.127323 0.025471 1.000000 0.123716 0.026247 1.000000 0.111950 0.027681 1.000000 0.107301 0.028079 1.000000 0.095178 0.029207 1.000000 0.089705 0.029240 1.000000 0.077443 0.030012 1.000000 0.071404 0.029692 1.000000 0.059223 0.030099 1.000000 0.052881 0.029448 1.000000 0.040986 0.029513 1.000000 0.034582 0.028564 1.000000 0.023156 0.028327 1.000000 0.016901 0.027116 1.000000 0.006101 0.026625 1.000000 0.000174 0.025192 1.000000 -0.009866 0.024494 1.000000 
-0.030472 0.029509 1.000000 -0.040266 0.028303 1.000000 -0.044829 0.026377 1.000000 -0.053476 0.025007 1.000000 -0.057431 0.022958 1.000000 -0.064847 0.021481 1.000000 -0.068136 0.019355 1.000000 -0.074269 0.017827 1.000000 -0.076862 0.015678 1.000000 -0.081688 0.014155 1.000000 -0.083580 0.012039 1.000000 -0.087110 0.010580 1.000000 -0.088326 0.008557 1.000000 -0.090607 0.007221 1.000000 -0.091198 0.005358 1.000000 -0.092314 0.004205 1.000000 -0.092362 0.002571 1.000000 -0.092435 0.001662 1.000000 -0.092051 0.000327 1.000000 -0.091243 -0.000277 1.000000 -0.090565 -0.001240 1.000000 -0.089075 -0.001477 1.000000 -0.088271 -0.001997 1.000000 -0.086337 -0.001805 1.000000 -0.085605 -0.001811 1.000000 -0.083498 -0.001131 1.000000 -0.083065 -0.000553 1.000000 -0.081095 0.000673 1.000000 -0.081217 0.001895 1.000000 -0.079724 0.003719 1.000000 -0.080687 0.005637 1.000000 -0.080040 0.008100 1.000000 -0.082154 0.010746 1.000000 -0.082741 0.013866 1.000000 -0.086334 0.017242 1.000000 -0.088554 0.021008 1.000000 -0.093957 0.025074 1.000000 -0.098196 0.029427 1.000000 -0.105723 0.034086 1.000000 -0.112330 0.038906 1.000000 -0.122249 0.043989 1.000000 -0.131497 0.049081 1.000000 -0.143989 0.054337 1.000000 -0.156037 0.059423 1.000000 -0.171152 0.064514 1.000000 -0.185989 0.069232 1.000000 -0.203596 0.073740 1.000000 -0.221000 0.077659 1.000000 -0.240746 0.081110 1.000000 -0.260242 0.083760 1.000000 -0.281520 0.085666 1.000000 -0.302363 0.086590 1.000000 -0.324307 0.086502 1.000000 -0.345497 0.085313 1.000000 -0.367022 0.082890 1.000000 -0.387350 0.079340 1.000000 -0.407220 0.074400 1.000000 -0.425367 0.068426 1.000000 -0.442307 0.060983 1.000000 -0.456949 0.052719 1.000000 -0.469759 0.042972 1.000000 -0.479685 0.032726 1.000000 -0.487344 0.021007 1.000000 -0.491534 0.009201 1.000000 -0.493258 -0.004089 1.000000 -0.490916 -0.016984 1.000000 -0.486176 -0.031424 1.000000 -0.476728 -0.044913 1.000000 -0.465237 -0.060059 1.000000 -0.448319 -0.073590 1.000000 -0.430038 -0.088897 1.000000 -0.405517 -0.101772 1.000000 -0.380715 -0.116464 1.000000 -0.348794 -0.127729 1.000000 -0.318185 -0.140671 1.000000 -0.279590 -0.149068 1.000000 -0.244536 -0.158746 1.000000 -0.200776 -0.162834 1.000000 -0.163468 -0.167542 1.000000 -0.117016 -0.166048 1.000000 -0.080475 -0.164358 1.000000 -0.034713 -0.156716 1.000000 -0.002446 -0.148127 1.000000 0.038825 -0.135001 1.000000 0.063577 -0.120523 1.000000 0.097012 -0.103989 1.000000 0.112258 -0.086287 1.000000 0.135969 -0.069508 1.000000 0.141802 -0.052317 1.000000 0.156096 -0.038776 1.000000 0.155001 -0.025457 1.000000 0.162439 -0.017736 1.000000 0.158572 -0.009373 1.000000 0.162496 -0.007558 1.000000 0.159396 -0.002932 1.000000 0.161763 -0.004840 1.000000 0.160718 -0.001506 1.000000 0.161943 -0.004469 1.000000 0.163155 -0.000511 1.000000 0.162207 -0.002600 1.000000 0.165057 0.002382 1.000000 0.161145 0.002136 1.000000 0.164499 0.007551 1.000000 0.157517 0.009127 1.000000 0.160077 0.014017 1.000000 0.150570 0.016396 1.000000 0.151843 0.019864 1.000000 0.140914 0.022288 1.000000 0.140939 0.024590 1.000000 0.129142 0.026951 1.000000 0.127860 0.028547 1.000000 0.115369 0.030777 1.000000 0.112775 0.031885 1.000000 0.099726 0.033837 1.000000 0.095957 0.034503 1.000000 0.082549 0.036038 1.000000 0.077848 0.036262 1.000000 0.064317 0.037304 1.000000 0.058966 0.037094 1.000000 0.045559 0.037632 1.000000 0.039833 0.037020 1.000000 0.026782 0.037087 1.000000 0.020931 0.036116 1.000000 0.008445 0.035768 1.000000 0.002682 0.034487 1.000000 -0.009057 0.033790 1.000000 -0.014553 0.032248 1.000000 -0.025386 0.031265 1.000000 
-0.018470 0.037756 1.000000 -0.027420 0.036375 1.000000 -0.032119 0.033463 1.000000 -0.040167 0.031879 1.000000 -0.044237 0.028779 1.000000 -0.051305 0.027062 1.000000 -0.054681 0.023845 1.000000 -0.060716 0.022061 1.000000 -0.063361 0.018804 1.000000 -0.068333 0.017022 1.000000 -0.070239 0.013808 1.000000 -0.074150 0.012099 1.000000 -0.075335 0.009016 1.000000 -0.078215 0.007451 1.000000 -0.078729 0.004593 1.000000 -0.080641 0.003244 1.000000 -0.080562 0.000707 1.000000 -0.081606 -0.000353 1.000000 -0.081041 -0.002473 1.000000 -0.081351 -0.003169 1.000000 -0.080438 -0.004777 1.000000 -0.080184 -0.005035 1.000000 -0.079089 -0.006038 1.000000 -0.078475 -0.005783 1.000000 -0.077394 -0.006090 1.000000 -0.076664 -0.005248 1.000000 -0.075823 -0.004773 1.000000 -0.075254 -0.003272 1.000000 -0.074909 -0.001939 1.000000 -0.074814 0.000289 1.000000 -0.075253 0.002545 1.000000 -0.075977 0.005553 1.000000 -0.077515 0.008774 1.000000 -0.079430 0.012594 1.000000 -0.082404 0.016786 1.000000 -0.085896 0.021413 1.000000 -0.090653 0.026532 1.000000 -0.096106 0.031904 1.000000 -0.102981 0.037837 1.000000 -0.110748 0.043817 1.000000 -0.120035 0.050361 1.000000 -0.130404 0.056719 1.000000 -0.142316 0.063567 1.000000 -0.155459 0.069964 1.000000 -0.170080 0.076698 1.000000 -0.186005 0.082686 1.000000 -0.203234 0.088781 1.000000 -0.221728 0.093816 1.000000 -0.241233 0.098668 1.000000 -0.261820 0.102151 1.000000 -0.282998 0.105123 1.000000 -0.304916 0.106459 1.000000 -0.326886 0.106958 1.000000 -0.349097 0.105638 1.000000 -0.370736 0.103193 1.000000 -0.391987 0.098880 1.000000 -0.412012 0.093226 1.000000 -0.430940 0.085820 1.000000 -0.448030 0.076943 1.000000 -0.463299 0.066607 1.000000 -0.476240 0.054736 1.000000 -0.486671 0.041860 1.000000 -0.494470 0.027415 1.000000 -0.499128 0.012539 1.000000 -0.501072 -0.003958 1.000000 -0.499276 -0.020223 1.000000 -0.494920 -0.038209 1.000000 -0.486192 -0.055219 1.000000 -0.475299 -0.074096 1.000000 -0.459294 -0.091137 1.000000 -0.441797 -0.110189 1.000000 -0.418277 -0.126370 1.000000 -0.394307 -0.144614 1.000000 -0.363233 -0.158728 1.000000 -0.333276 -0.174759 1.000000 -0.295048 -0.185209 1.000000 -0.260225 -0.197152 1.000000 -0.216059 -0.202071 1.000000 -0.178422 -0.207801 1.000000 -0.130699 -0.205491 1.000000 -0.093327 -0.203206 1.000000 -0.045683 -0.192862 1.000000 -0.012341 -0.181927 1.000000 0.030797 -0.164414 1.000000 0.056508 -0.146091 1.000000 0.090998 -0.124311 1.000000 0.106721 -0.101901 1.000000 0.130132 -0.080389 1.000000 0.135541 -0.058563 1.000000 0.148405 -0.042257 1.000000 0.145640 -0.025497 1.000000 0.151625 -0.017656 1.000000 0.145334 -0.007621 1.000000 0.148356 -0.007355 1.000000 0.143023 -0.001811 1.000000 0.145588 -0.005178 1.000000 0.143281 -0.001027 1.000000 0.145437 -0.005258 1.000000 0.146205 0.000311 1.000000 0.146507 -0.002691 1.000000 0.149526 0.004355 1.000000 0.147053 0.003758 1.000000 0.150928 0.011152 1.000000 0.145608 0.013114 1.000000 0.148637 0.019476 1.000000 0.140870 0.022550 1.000000 0.142594 0.026763 1.000000 0.133828 0.029869 1.000000 0.134350 0.032589 1.000000 0.124949 0.035678 1.000000 0.124068 0.037592 1.000000 0.113974 0.040556 1.000000 0.111613 0.041890 1.000000 0.100858 0.044498 1.000000 0.097175 0.045257 1.000000 0.085925 0.047317 1.000000 0.081207 0.047472 1.000000 0.069692 0.048894 1.000000 0.064258 0.048450 1.000000 0.052712 0.049231 1.000000 0.046865 0.048225 1.000000 0.035506 0.048414 1.000000 0.029511 0.046901 1.000000 0.018530 0.046576 1.000000 0.012612 0.044617 1.000000 0.002174 0.043860 1.000000 -0.003479 0.041521 1.000000 -0.013234 0.040413 1.000000 
-0.034630 0.043695 1.000000 -0.044196 0.041953 1.000000 -0.048543 0.039124 1.000000 -0.057021 0.037125 1.000000 -0.060811 0.034095 1.000000 -0.068102 0.031925 1.000000 -0.071268 0.028766 1.000000 -0.077302 0.026507 1.000000 -0.079801 0.023296 1.000000 -0.084539 0.021033 1.000000 -0.086357 0.017855 1.000000 -0.089793 0.015676 1.000000 -0.090941 0.012622 1.000000 -0.093107 0.010615 1.000000 -0.093625 0.007785 1.000000 -0.094591 0.006039 1.000000 -0.094547 0.003536 1.000000 -0.094422 0.002141 1.000000 -0.093912 0.000072 1.000000 -0.092844 -0.000880 1.000000 -0.091991 -0.002408 1.000000 -0.090165 -0.002827 1.000000 -0.089120 -0.003705 1.000000 -0.086759 -0.003500 1.000000 -0.085701 -0.003622 1.000000 -0.083062 -0.002702 1.000000 -0.082200 -0.001964 1.000000 -0.079577 -0.000241 1.000000 -0.079149 0.001455 1.000000 -0.076872 0.004063 1.000000 -0.077149 0.006801 1.000000 -0.075581 0.010362 1.000000 -0.076868 0.014199 1.000000 -0.076403 0.018755 1.000000 -0.079033 0.023708 1.000000 -0.080086 0.029257 1.000000 -0.084412 0.035284 1.000000 -0.087405 0.041755 1.000000 -0.093781 0.048728 1.000000 -0.099116 0.055961 1.000000 -0.107870 0.063645 1.000000 -0.115893 0.071362 1.000000 -0.127286 0.079392 1.000000 -0.138243 0.087187 1.000000 -0.152415 0.095059 1.000000 -0.166390 0.102386 1.000000 -0.183302 0.109463 1.000000 -0.200159 0.115657 1.000000 -0.219532 0.121202 1.000000 -0.238858 0.125525 1.000000 -0.260124 0.128761 1.000000 -0.281193 0.130478 1.000000 -0.303477 0.130683 1.000000 -0.325252 0.129163 1.000000 -0.347401 0.125780 1.000000 -0.368589 0.120616 1.000000 -0.389256 0.113353 1.000000 -0.408422 0.104444 1.000000 -0.426214 0.093343 1.000000 -0.441935 0.080929 1.000000 -0.455568 0.066344 1.000000 -0.466586 0.050957 1.000000 -0.475030 0.033464 1.000000 -0.480357 0.015803 1.000000 -0.482890 -0.003941 1.000000 -0.481821 -0.023136 1.000000 -0.478011 -0.044509 1.000000 -0.470070 -0.064533 1.000000 -0.459700 -0.086957 1.000000 -0.444550 -0.107092 1.000000 -0.427553 -0.129914 1.000000 -0.404950 -0.149263 1.000000 -0.381425 -0.171508 1.000000 -0.351273 -0.188760 1.000000 -0.321634 -0.208855 1.000000 -0.284222 -0.222118 1.000000 -0.249509 -0.237736 1.000000 -0.205926 -0.244637 1.000000 -0.168193 -0.252902 1.000000 -0.120786 -0.251143 1.000000 -0.083330 -0.249374 1.000000 -0.035869 -0.237702 1.000000 -0.002964 -0.224607 1.000000 0.039835 -0.203850 1.000000 0.063916 -0.180725 1.000000 0.097628 -0.154202 1.000000 0.110094 -0.125421 1.000000 0.132081 -0.098328 1.000000 0.132915 -0.070591 1.000000 0.143529 -0.048876 1.000000 0.136224 -0.028677 1.000000 0.139640 -0.017429 1.000000 0.130882 -0.006104 1.000000 0.132559 -0.005247 1.000000 0.127372 -0.000165 1.000000 0.129098 -0.005099 1.000000 0.127166 -0.001355 1.000000 0.129162 -0.007392 1.000000 0.130592 -0.001581 1.000000 0.129993 -0.005920 1.000000 0.134267 0.001836 1.000000 0.130091 0.000734 1.000000 0.135954 0.008997 1.000000 0.128612 0.011418 1.000000 0.133720 0.018755 1.000000 0.124100 0.022438 1.000000 0.127756 0.026907 1.000000 0.117752 0.030532 1.000000 0.120102 0.033468 1.000000 0.109707 0.037234 1.000000 0.110376 0.039523 1.000000 0.099261 0.043231 1.000000 0.098167 0.045001 1.000000 0.086311 0.048275 1.000000 0.083682 0.049436 1.000000 0.071280 0.052007 1.000000 0.067471 0.052495 1.000000 0.054791 0.054253 1.000000 0.050163 0.054073 1.000000 0.037474 0.055025 1.000000 0.032350 0.054226 1.000000 0.019897 0.054441 1.000000 0.014551 0.053092 1.000000 0.002554 0.052667 1.000000 -0.002789 0.050843 1.000000 -0.014137 0.049881 1.000000 -0.019289 0.047655 1.000000 -0.029820 0.046256 1.000000 
-0.022750 0.052132 1.000000 -0.031394 0.050287 1.000000 -0.035850 0.046288 1.000000 -0.043673 0.044147 1.000000 -0.047559 0.039861 1.000000 -0.054468 0.037518 1.000000 -0.057707 0.033045 1.000000 -0.063629 0.030595 1.000000 -0.066172 0.026041 1.000000 -0.071060 0.023578 1.000000 -0.072883 0.019062 1.000000 -0.076718 0.016683 1.000000 -0.077827 0.012330 1.000000 -0.080620 0.010135 1.000000 -0.081050 0.006077 1.000000 -0.082847 0.004166 1.000000 -0.082659 0.000538 1.000000 -0.083541 -0.000988 1.000000 -0.082827 -0.004052 1.000000 -0.082908 -0.005090 1.000000 -0.081787 -0.007456 1.000000 -0.081217 -0.007905 1.000000 -0.079835 -0.009444 1.000000 -0.078799 -0.009202 1.000000 -0.077330 -0.009786 1.000000 -0.076050 -0.008749 1.000000 -0.074696 -0.008259 1.000000 -0.073431 -0.006323 1.000000 -0.072427 -0.004644 1.000000 -0.071473 -0.001711 1.000000 -0.071089 0.001254 1.000000 -0.070784 0.005272 1.000000 -0.071328 0.009596 1.000000 -0.072046 0.014759 1.000000 -0.073860 0.020469 1.000000 -0.076009 0.026792 1.000000 -0.079464 0.033851 1.000000 -0.083470 0.041273 1.000000 -0.088949 0.049548 1.000000 -0.095228 0.057906 1.000000 -0.103099 0.067139 1.000000 -0.112027 0.076135 1.000000 -0.122596 0.085917 1.000000 -0.134454 0.095092 1.000000 -0.147916 0.104845 1.000000 -0.162824 0.113572 1.000000 -0.179191 0.122550 1.000000 -0.197042 0.130046 1.000000 -0.216073 0.137367 1.000000 -0.236465 0.142743 1.000000 -0.257606 0.147458 1.000000 -0.279793 0.149813 1.000000 -0.302146 0.151017 1.000000 -0.325035 0.149561 1.000000 -0.347386 0.146530 1.000000 -0.369600 0.140735 1.000000 -0.390513 0.133060 1.000000 -0.410530 0.122778 1.000000 -0.428524 0.110455 1.000000 -0.444871 0.095961 1.000000 -0.458620 0.079388 1.000000 -0.470074 0.061322 1.000000 -0.478584 0.041185 1.000000 -0.484291 0.020399 1.000000 -0.486968 -0.002493 1.000000 -0.486434 -0.025101 1.000000 -0.483018 -0.049960 1.000000 -0.475969 -0.073530 1.000000 -0.466379 -0.099616 1.000000 -0.452571 -0.123284 1.000000 -0.436753 -0.149789 1.000000 -0.415833 -0.172498 1.000000 -0.393707 -0.198291 1.000000 -0.365226 -0.218519 1.000000 -0.336855 -0.241811 1.000000 -0.300553 -0.257334 1.000000 -0.266573 -0.275448 1.000000 -0.222973 -0.283387 1.000000 -0.185183 -0.292941 1.000000 -0.136329 -0.290355 1.000000 -0.098096 -0.288122 1.000000 -0.048028 -0.273228 1.000000 -0.014018 -0.257632 1.000000 0.031558 -0.231294 1.000000 0.056622 -0.203884 1.000000 0.091826 -0.170489 1.000000 0.104911 -0.136355 1.000000 0.125955 -0.103209 1.000000 0.126554 -0.070010 1.000000 0.134143 -0.045566 1.000000 0.124430 -0.021608 1.000000 0.125678 -0.012314 1.000000 0.113021 -0.000541 1.000000 0.113033 -0.003846 1.000000 0.103997 0.001650 1.000000 0.106125 -0.004972 1.000000 0.102435 -0.001090 1.000000 0.105444 -0.008684 1.000000 0.106228 -0.000520 1.000000 0.106662 -0.006366 1.000000 0.111335 0.004257 1.000000 0.108309 0.002070 1.000000 0.115426 0.012631 1.000000 0.109982 0.015348 1.000000 0.116298 0.023989 1.000000 0.108599 0.028514 1.000000 0.113520 0.033111 1.000000 0.106378 0.037523 1.000000 0.109939 0.040635 1.000000 0.102522 0.045404 1.000000 0.104001 0.048037 1.000000 0.095646 0.052765 1.000000 0.094992 0.054841 1.000000 0.085673 0.058983 1.000000 0.083249 0.060288 1.000000 0.073206 0.063528 1.000000 0.069470 0.063961 1.000000 0.058990 0.066202 1.000000 0.054358 0.065767 1.000000 0.043704 0.067044 1.000000 0.038530 0.065801 1.000000 0.027930 0.066214 1.000000 0.022503 0.064244 1.000000 0.012155 0.063915 1.000000 0.006712 0.061308 1.000000 -0.003212 0.060361 1.000000 -0.008476 0.057204 1.000000 -0.017825 0.055754 1.000000 