# vtk DataFile Version 2.0
Comment goes here
ASCII

DATASET STRUCTURED_POINTS
DIMENSIONS    128   128   1

ORIGIN    0.000   0.000   0.000
SPACING   0.0156250.015625   1.000

POINT_DATA   16384
VECTORS u double

-0.073646 0.000014 1.000000 -0.078771 0.000012 1.000000 -0.080038 0.000014 1.000000 -0.084006 0.000012 1.000000 -0.084531 0.000014 1.000000 -0.087311 0.000012 1.000000 -0.087118 0.000014 1.000000 -0.088699 0.000012 1.000000 -0.087822 0.000014 1.000000 -0.088212 0.000011 1.000000 -0.086703 0.000013 1.000000 -0.085933 0.000011 1.000000 -0.083856 0.000013 1.000000 -0.081981 0.000010 1.000000 -0.079417 0.000012 1.000000 -0.076520 0.000010 1.000000 -0.073563 0.000012 1.000000 -0.069753 0.000009 1.000000 -0.066512 0.000011 1.000000 -0.061925 0.000008 1.000000 -0.058526 0.000010 1.000000 -0.053324 0.000008 1.000000 -0.049907 0.000010 1.000000 -0.044280 0.000007 1.000000 -0.040999 0.000009 1.000000 -0.035162 0.000007 1.000000 -0.032188 0.000009 1.000000 -0.026380 0.000007 1.000000 -0.023898 0.000008 1.000000 -0.018380 0.000007 1.000000 -0.016589 0.000009 1.000000 -0.011639 0.000007 1.000000 -0.010747 0.000009 1.000000 -0.006654 0.000008 1.000000 -0.006870 0.000010 1.000000 -0.003923 0.000009 1.000000 -0.005448 0.000011 1.000000 -0.003917 0.000011 1.000000 -0.006928 0.000012 1.000000 -0.007048 0.000012 1.000000 -0.011673 0.000014 1.000000 -0.013616 0.000014 1.000000 -0.019912 0.000015 1.000000 -0.023759 0.000016 1.000000 -0.031681 0.000016 1.000000 -0.037390 0.000017 1.000000 -0.046767 0.000017 1.000000 -0.054144 0.000018 1.000000 -0.064655 0.000016 1.000000 -0.073337 0.000017 1.000000 -0.084497 0.000015 1.000000 -0.093944 0.000015 1.000000 -0.105117 0.000012 1.000000 -0.114626 0.000011 1.000000 -0.125047 0.000006 1.000000 -0.133792 0.000005 1.000000 -0.142624 -0.000002 1.000000 -0.149715 -0.000004 1.000000 -0.156120 -0.000012 1.000000 -0.160688 -0.000015 1.000000 -0.163915 -0.000025 1.000000 -0.165201 -0.000029 1.000000 -0.164670 -0.000040 1.000000 -0.162112 -0.000044 1.000000 -0.157495 -0.000056 1.000000 -0.150802 -0.000061 1.000000 -0.142074 -0.000072 1.000000 -0.131277 -0.000077 1.000000 -0.118755 -0.000087 1.000000 -0.104244 -0.000090 1.000000 -0.088596 -0.000100 1.000000 -0.071122 -0.000101 1.000000 -0.053361 -0.000107 1.000000 -0.034021 -0.000105 1.000000 -0.015459 -0.000109 1.000000 0.004375 -0.000104 1.000000 0.022230 -0.000104 1.000000 0.041042 -0.000095 1.000000 0.056667 -0.000092 1.000000 0.073021 -0.000081 1.000000 0.085141 -0.000075 1.000000 0.097951 -0.000062 1.000000 0.105824 -0.000054 1.000000 0.114593 -0.000041 1.000000 0.118206 -0.000033 1.000000 0.123121 -0.000022 1.000000 0.123205 -0.000014 1.000000 0.125033 -0.000005 1.000000 0.122867 0.000000 1.000000 0.122715 0.000006 1.000000 0.119787 0.000009 1.000000 0.118800 0.000013 1.000000 0.116397 0.000014 1.000000 0.115405 0.000015 1.000000 0.114203 0.000015 1.000000 0.113433 0.000014 1.000000 0.113346 0.000014 1.000000 0.112412 0.000014 1.000000 0.112764 0.000014 1.000000 0.110889 0.000014 1.000000 0.110741 0.000015 1.000000 0.107120 0.000015 1.000000 0.105612 0.000016 1.000000 0.099751 0.000016 1.000000 0.096486 0.000017 1.000000 0.088461 0.000016 1.000000 0.083726 0.000017 1.000000 0.074104 0.000016 1.000000 0.068452 0.000016 1.000000 0.057863 0.000015 1.000000 0.051760 0.000015 1.000000 0.040704 0.000014 1.000000 0.034474 0.000014 1.000000 0.023323 0.000013 1.000000 0.017202 0.000013 1.000000 0.006245 0.000012 1.000000 0.000418 0.000013 1.000000 -0.010111 0.000012 1.000000 -0.015496 0.000013 1.000000 -0.025409 0.000012 1.000000 -0.030238 0.000013 1.000000 -0.039386 0.000012 1.000000 -0.043576 0.000014 1.000000 -0.051841 0.000012 1.000000 -0.055337 0.000014 1.000000 -0.062625 0.000012 1.000000 -0.065391 0.000014 1.000000 -0.071628 0.000012 1.000000 
-0.066667 0.003585 1.000000 -0.071355 0.003207 1.000000 -0.072774 0.002631 1.000000 -0.076431 0.002258 1.000000 -0.077079 0.001666 1.000000 -0.079681 0.001304 1.000000 -0.079579 0.000707 1.000000 -0.081117 0.000363 1.000000 -0.080301 -0.000231 1.000000 -0.080783 -0.000550 1.000000 -0.079301 -0.001128 1.000000 -0.078758 -0.001414 1.000000 -0.076675 -0.001964 1.000000 -0.075158 -0.002211 1.000000 -0.072554 -0.002720 1.000000 -0.070136 -0.002919 1.000000 -0.067109 -0.003373 1.000000 -0.063889 -0.003518 1.000000 -0.060548 -0.003904 1.000000 -0.056650 -0.003986 1.000000 -0.053125 -0.004291 1.000000 -0.048698 -0.004304 1.000000 -0.045128 -0.004514 1.000000 -0.040346 -0.004448 1.000000 -0.036891 -0.004552 1.000000 -0.031954 -0.004400 1.000000 -0.028785 -0.004384 1.000000 -0.023918 -0.004140 1.000000 -0.021223 -0.003993 1.000000 -0.016671 -0.003649 1.000000 -0.014652 -0.003363 1.000000 -0.010679 -0.002915 1.000000 -0.009546 -0.002485 1.000000 -0.006429 -0.001932 1.000000 -0.006394 -0.001358 1.000000 -0.004409 -0.000703 1.000000 -0.005676 0.000007 1.000000 -0.005085 0.000749 1.000000 -0.007833 0.001576 1.000000 -0.008862 0.002384 1.000000 -0.013222 0.003296 1.000000 -0.016036 0.004132 1.000000 -0.022068 0.005085 1.000000 -0.026741 0.005899 1.000000 -0.034406 0.006830 1.000000 -0.040891 0.007559 1.000000 -0.050020 0.008393 1.000000 -0.058120 0.008960 1.000000 -0.068395 0.009611 1.000000 -0.077741 0.009937 1.000000 -0.088684 0.010317 1.000000 -0.098731 0.010324 1.000000 -0.109707 0.010351 1.000000 -0.119748 0.009975 1.000000 -0.129996 0.009588 1.000000 -0.139201 0.008792 1.000000 -0.147886 0.007959 1.000000 -0.155364 0.006743 1.000000 -0.161651 0.005474 1.000000 -0.166533 0.003881 1.000000 -0.169676 0.002230 1.000000 -0.171209 0.000347 1.000000 -0.170632 -0.001585 1.000000 -0.168262 -0.003634 1.000000 -0.163642 -0.005713 1.000000 -0.157087 -0.007773 1.000000 -0.148402 -0.009836 1.000000 -0.137699 -0.011737 1.000000 -0.125261 -0.013606 1.000000 -0.110794 -0.015171 1.000000 -0.095258 -0.016662 1.000000 -0.077765 -0.017719 1.000000 -0.060124 -0.018659 1.000000 -0.040683 -0.019057 1.000000 -0.022221 -0.019307 1.000000 -0.002191 -0.018948 1.000000 0.015607 -0.018437 1.000000 0.034705 -0.017313 1.000000 0.050337 -0.016081 1.000000 0.067037 -0.014317 1.000000 0.079239 -0.012539 1.000000 0.092406 -0.010402 1.000000 0.100439 -0.008373 1.000000 0.109527 -0.006230 1.000000 0.113372 -0.004295 1.000000 0.118550 -0.002518 1.000000 0.118900 -0.000968 1.000000 0.120960 0.000167 1.000000 0.119018 0.001162 1.000000 0.119121 0.001549 1.000000 0.116297 0.001970 1.000000 0.115637 0.001709 1.000000 0.113185 0.001713 1.000000 0.112608 0.001113 1.000000 0.111225 0.001002 1.000000 0.110970 0.000444 1.000000 0.110638 0.000526 1.000000 0.110315 0.000306 1.000000 0.110406 0.000777 1.000000 0.109255 0.001026 1.000000 0.108847 0.001900 1.000000 0.106062 0.002580 1.000000 0.104277 0.003701 1.000000 0.099332 0.004580 1.000000 0.095750 0.005663 1.000000 0.088689 0.006397 1.000000 0.083636 0.007196 1.000000 0.075026 0.007653 1.000000 0.069077 0.008137 1.000000 0.059532 0.008361 1.000000 0.053148 0.008595 1.000000 0.043143 0.008656 1.000000 0.036637 0.008704 1.000000 0.026522 0.008649 1.000000 0.020126 0.008552 1.000000 0.010176 0.008404 1.000000 0.004077 0.008191 1.000000 -0.005488 0.007969 1.000000 -0.011138 0.007662 1.000000 -0.020143 0.007383 1.000000 -0.025227 0.007001 1.000000 -0.033535 0.006681 1.000000 -0.037967 0.006241 1.000000 -0.045475 0.005892 1.000000 -0.049193 0.005405 1.000000 -0.055820 0.005039 1.000000 -0.058788 0.004514 1.000000 -0.064471 0.004139 1.000000 
-0.074647 0.006899 1.000000 -0.079780 0.006119 1.000000 -0.081029 0.005090 1.000000 -0.085002 0.004317 1.000000 -0.085508 0.003264 1.000000 -0.088287 0.002512 1.000000 -0.088071 0.001450 1.000000 -0.089643 0.000733 1.000000 -0.088739 -0.000320 1.000000 -0.089110 -0.000988 1.000000 -0.087567 -0.002012 1.000000 -0.086767 -0.002615 1.000000 -0.084650 -0.003588 1.000000 -0.082734 -0.004111 1.000000 -0.080123 -0.005009 1.000000 -0.077172 -0.005436 1.000000 -0.074160 -0.006236 1.000000 -0.070283 -0.006551 1.000000 -0.066982 -0.007227 1.000000 -0.062315 -0.007416 1.000000 -0.058848 -0.007943 1.000000 -0.053554 -0.007989 1.000000 -0.050061 -0.008341 1.000000 -0.044330 -0.008230 1.000000 -0.040966 -0.008383 1.000000 -0.035012 -0.008099 1.000000 -0.031948 -0.008028 1.000000 -0.026012 -0.007555 1.000000 -0.023433 -0.007238 1.000000 -0.017777 -0.006565 1.000000 -0.015883 -0.005983 1.000000 -0.010789 -0.005098 1.000000 -0.009789 -0.004241 1.000000 -0.005549 -0.003144 1.000000 -0.005659 -0.002010 1.000000 -0.002567 -0.000708 1.000000 -0.003992 0.000687 1.000000 -0.002328 0.002167 1.000000 -0.005253 0.003788 1.000000 -0.005260 0.005401 1.000000 -0.009822 0.007187 1.000000 -0.011685 0.008860 1.000000 -0.017953 0.010721 1.000000 -0.021764 0.012354 1.000000 -0.029704 0.014166 1.000000 -0.035432 0.015631 1.000000 -0.044882 0.017245 1.000000 -0.052343 0.018393 1.000000 -0.062987 0.019638 1.000000 -0.071822 0.020306 1.000000 -0.083176 0.021005 1.000000 -0.092842 0.021038 1.000000 -0.104261 0.021029 1.000000 -0.114045 0.020300 1.000000 -0.124748 0.019459 1.000000 -0.133805 0.017895 1.000000 -0.142932 0.016161 1.000000 -0.150347 0.013761 1.000000 -0.157034 0.011158 1.000000 -0.161910 0.008009 1.000000 -0.165380 0.004650 1.000000 -0.166932 0.000927 1.000000 -0.166584 -0.002986 1.000000 -0.164229 -0.007034 1.000000 -0.159720 -0.011231 1.000000 -0.153152 -0.015301 1.000000 -0.144451 -0.019460 1.000000 -0.133692 -0.023218 1.000000 -0.121110 -0.026993 1.000000 -0.106542 -0.030093 1.000000 -0.090747 -0.033128 1.000000 -0.073119 -0.035235 1.000000 -0.055126 -0.037190 1.000000 -0.035544 -0.038009 1.000000 -0.016685 -0.038600 1.000000 0.003448 -0.037932 1.000000 0.021617 -0.037001 1.000000 0.040724 -0.034825 1.000000 0.056600 -0.032424 1.000000 0.073160 -0.028983 1.000000 0.085372 -0.025443 1.000000 0.098216 -0.021262 1.000000 0.105950 -0.017176 1.000000 0.114549 -0.012975 1.000000 0.117787 -0.009056 1.000000 0.122366 -0.005549 1.000000 0.121908 -0.002424 1.000000 0.123314 -0.000123 1.000000 0.120550 0.001838 1.000000 0.119975 0.002727 1.000000 0.116530 0.003494 1.000000 0.115217 0.003125 1.000000 0.112511 0.003043 1.000000 0.111377 0.001974 1.000000 0.110125 0.001653 1.000000 0.109396 0.000602 1.000000 0.109453 0.000669 1.000000 0.108694 0.000245 1.000000 0.109308 0.001075 1.000000 0.107661 0.001573 1.000000 0.107831 0.003208 1.000000 0.104430 0.004585 1.000000 0.103195 0.006745 1.000000 0.097473 0.008544 1.000000 0.094333 0.010660 1.000000 0.086362 0.012130 1.000000 0.081723 0.013680 1.000000 0.072164 0.014575 1.000000 0.066642 0.015510 1.000000 0.056139 0.015943 1.000000 0.050174 0.016405 1.000000 0.039196 0.016525 1.000000 0.033080 0.016635 1.000000 0.021983 0.016524 1.000000 0.015943 0.016359 1.000000 0.005020 0.016062 1.000000 -0.000751 0.015677 1.000000 -0.011260 0.015227 1.000000 -0.016606 0.014668 1.000000 -0.026508 0.014101 1.000000 -0.031307 0.013406 1.000000 -0.040452 0.012752 1.000000 -0.044618 0.011953 1.000000 -0.052884 0.011239 1.000000 -0.056359 0.010359 1.000000 -0.063654 0.009607 1.000000 -0.066402 0.008664 1.000000 -0.072646 0.007891 1.000000 
-0.068579 0.010719 1.000000 -0.073273 0.009589 1.000000 -0.074660 0.007852 1.000000 -0.078319 0.006736 1.000000 -0.078931 0.004951 1.000000 -0.081527 0.003867 1.000000 -0.081380 0.002062 1.000000 -0.082900 0.001031 1.000000 -0.082028 -0.000764 1.000000 -0.082477 -0.001721 1.000000 -0.080926 -0.003470 1.000000 -0.080330 -0.004331 1.000000 -0.078165 -0.005997 1.000000 -0.076573 -0.006739 1.000000 -0.073874 -0.008282 1.000000 -0.071358 -0.008881 1.000000 -0.068221 -0.010262 1.000000 -0.064880 -0.010696 1.000000 -0.061416 -0.011873 1.000000 -0.057372 -0.012120 1.000000 -0.053708 -0.013052 1.000000 -0.049111 -0.013090 1.000000 -0.045389 -0.013738 1.000000 -0.040413 -0.013544 1.000000 -0.036790 -0.013869 1.000000 -0.031635 -0.013419 1.000000 -0.028284 -0.013384 1.000000 -0.023176 -0.012655 1.000000 -0.020284 -0.012228 1.000000 -0.015471 -0.011199 1.000000 -0.013244 -0.010352 1.000000 -0.008996 -0.009009 1.000000 -0.007647 -0.007724 1.000000 -0.004247 -0.006062 1.000000 -0.003998 -0.004340 1.000000 -0.001734 -0.002370 1.000000 -0.002799 -0.000232 1.000000 -0.001950 0.002009 1.000000 -0.004522 0.004508 1.000000 -0.005333 0.006953 1.000000 -0.009565 0.009722 1.000000 -0.012222 0.012263 1.000000 -0.018195 0.015164 1.000000 -0.022799 0.017650 1.000000 -0.030495 0.020498 1.000000 -0.037021 0.022737 1.000000 -0.046289 0.025304 1.000000 -0.054558 0.027065 1.000000 -0.065093 0.029090 1.000000 -0.074745 0.030126 1.000000 -0.086066 0.031338 1.000000 -0.096551 0.031409 1.000000 -0.108008 0.031554 1.000000 -0.118597 0.030462 1.000000 -0.129398 0.029348 1.000000 -0.139222 0.026976 1.000000 -0.148486 0.024501 1.000000 -0.156602 0.020845 1.000000 -0.163441 0.017037 1.000000 -0.168927 0.012226 1.000000 -0.172543 0.007252 1.000000 -0.174593 0.001552 1.000000 -0.174374 -0.004288 1.000000 -0.172396 -0.010497 1.000000 -0.167992 -0.016790 1.000000 -0.161681 -0.023042 1.000000 -0.153057 -0.029296 1.000000 -0.142435 -0.035078 1.000000 -0.129898 -0.040755 1.000000 -0.115338 -0.045535 1.000000 -0.099540 -0.050085 1.000000 -0.081772 -0.053339 1.000000 -0.063708 -0.056234 1.000000 -0.043815 -0.057499 1.000000 -0.024804 -0.058299 1.000000 -0.004194 -0.057250 1.000000 0.014192 -0.055714 1.000000 0.033889 -0.052297 1.000000 0.049991 -0.048516 1.000000 0.067133 -0.043088 1.000000 0.079500 -0.037595 1.000000 0.092774 -0.030980 1.000000 0.100532 -0.024707 1.000000 0.109303 -0.018068 1.000000 0.112440 -0.012112 1.000000 0.116933 -0.006639 1.000000 0.116287 -0.001916 1.000000 0.117466 0.001525 1.000000 0.114433 0.004501 1.000000 0.113663 0.005569 1.000000 0.109861 0.006727 1.000000 0.108550 0.005728 1.000000 0.105480 0.005554 1.000000 0.104609 0.003499 1.000000 0.103052 0.002983 1.000000 0.102866 0.001116 1.000000 0.102750 0.001228 1.000000 0.102733 0.000451 1.000000 0.103301 0.001809 1.000000 0.102577 0.002502 1.000000 0.102799 0.005131 1.000000 0.100469 0.007216 1.000000 0.099249 0.010657 1.000000 0.094627 0.013442 1.000000 0.091281 0.016774 1.000000 0.084361 0.019007 1.000000 0.079509 0.021394 1.000000 0.071067 0.022734 1.000000 0.065402 0.024162 1.000000 0.056063 0.024829 1.000000 0.049968 0.025538 1.000000 0.040140 0.025751 1.000000 0.033864 0.025917 1.000000 0.023873 0.025785 1.000000 0.017637 0.025515 1.000000 0.007766 0.025098 1.000000 0.001776 0.024471 1.000000 -0.007738 0.023823 1.000000 -0.013312 0.022910 1.000000 -0.022283 0.022084 1.000000 -0.027309 0.020945 1.000000 -0.035598 0.019991 1.000000 -0.039984 0.018674 1.000000 -0.047482 0.017634 1.000000 -0.051164 0.016175 1.000000 -0.057790 0.015081 1.000000 -0.060726 0.013507 1.000000 -0.066412 0.012385 1.000000 
-0.077649 0.013759 1.000000 -0.082806 0.012200 1.000000 -0.084005 0.010136 1.000000 -0.087994 0.008588 1.000000 -0.088443 0.006472 1.000000 -0.091223 0.004962 1.000000 -0.090937 0.002824 1.000000 -0.092486 0.001380 1.000000 -0.091498 -0.000743 1.000000 -0.091817 -0.002090 1.000000 -0.090172 -0.004158 1.000000 -0.089286 -0.005376 1.000000 -0.087047 -0.007345 1.000000 -0.085008 -0.008402 1.000000 -0.082255 -0.010224 1.000000 -0.079143 -0.011089 1.000000 -0.075970 -0.012714 1.000000 -0.071893 -0.013356 1.000000 -0.068409 -0.014735 1.000000 -0.063504 -0.015123 1.000000 -0.059834 -0.016203 1.000000 -0.054263 -0.016308 1.000000 -0.050546 -0.017039 1.000000 -0.044500 -0.016830 1.000000 -0.040889 -0.017161 1.000000 -0.034585 -0.016605 1.000000 -0.031251 -0.016488 1.000000 -0.024931 -0.015555 1.000000 -0.022060 -0.014942 1.000000 -0.015991 -0.013605 1.000000 -0.013786 -0.012459 1.000000 -0.008256 -0.010695 1.000000 -0.006935 -0.008990 1.000000 -0.002249 -0.006793 1.000000 -0.002035 -0.004523 1.000000 0.001496 -0.001907 1.000000 0.000377 0.000902 1.000000 0.002451 0.003890 1.000000 -0.000207 0.007171 1.000000 0.000136 0.010443 1.000000 -0.004229 0.014077 1.000000 -0.005835 0.017491 1.000000 -0.012007 0.021298 1.000000 -0.015692 0.024653 1.000000 -0.023671 0.028388 1.000000 -0.029440 0.031426 1.000000 -0.039093 0.034783 1.000000 -0.046789 0.037196 1.000000 -0.057819 0.039824 1.000000 -0.067098 0.041279 1.000000 -0.079021 0.042811 1.000000 -0.089334 0.042981 1.000000 -0.101481 0.043075 1.000000 -0.112084 0.041690 1.000000 -0.123626 0.040083 1.000000 -0.133616 0.036982 1.000000 -0.143624 0.033541 1.000000 -0.152009 0.028717 1.000000 -0.159538 0.023482 1.000000 -0.165337 0.017111 1.000000 -0.169531 0.010317 1.000000 -0.171880 0.002758 1.000000 -0.172079 -0.005183 1.000000 -0.170334 -0.013416 1.000000 -0.166156 -0.021946 1.000000 -0.159970 -0.030236 1.000000 -0.151364 -0.038706 1.000000 -0.140737 -0.046377 1.000000 -0.128004 -0.054090 1.000000 -0.113298 -0.060451 1.000000 -0.097097 -0.066695 1.000000 -0.079051 -0.071067 1.000000 -0.060402 -0.075147 1.000000 -0.040134 -0.076913 1.000000 -0.020413 -0.078222 1.000000 0.000596 -0.076928 1.000000 0.019702 -0.075083 1.000000 0.039698 -0.070624 1.000000 0.056345 -0.065669 1.000000 0.073533 -0.058492 1.000000 0.086038 -0.051084 1.000000 0.098982 -0.042295 1.000000 0.106288 -0.033705 1.000000 0.114348 -0.024882 1.000000 0.116415 -0.016686 1.000000 0.119949 -0.009396 1.000000 0.117807 -0.002957 1.000000 0.117932 0.001730 1.000000 0.113328 0.005641 1.000000 0.111470 0.007299 1.000000 0.106430 0.008608 1.000000 0.104124 0.007506 1.000000 0.100512 0.006983 1.000000 0.098957 0.004402 1.000000 0.097583 0.003395 1.000000 0.096960 0.000905 1.000000 0.097430 0.000802 1.000000 0.097160 -0.000306 1.000000 0.098498 0.001231 1.000000 0.097481 0.002075 1.000000 0.098603 0.005316 1.000000 0.095863 0.008134 1.000000 0.095533 0.012587 1.000000 0.090286 0.016512 1.000000 0.087515 0.020926 1.000000 0.079748 0.023903 1.000000 0.075465 0.026974 1.000000 0.066186 0.028681 1.000000 0.061150 0.030514 1.000000 0.050967 0.031377 1.000000 0.045462 0.032327 1.000000 0.034735 0.032629 1.000000 0.028963 0.032902 1.000000 0.018026 0.032751 1.000000 0.012219 0.032466 1.000000 0.001388 0.031923 1.000000 -0.004225 0.031181 1.000000 -0.014682 0.030315 1.000000 -0.019913 0.029213 1.000000 -0.029789 0.028098 1.000000 -0.034498 0.026720 1.000000 -0.043634 0.025426 1.000000 -0.047728 0.023837 1.000000 -0.056002 0.022419 1.000000 -0.059417 0.020667 1.000000 -0.066731 0.019169 1.000000 -0.069426 0.017287 1.000000 -0.075696 0.015744 1.000000 
-0.072392 0.017828 1.000000 -0.077104 0.015946 1.000000 -0.078430 0.013040 1.000000 -0.082100 0.011173 1.000000 -0.082640 0.008180 1.000000 -0.085231 0.006362 1.000000 -0.084997 0.003326 1.000000 -0.086486 0.001591 1.000000 -0.085503 -0.001433 1.000000 -0.085888 -0.003047 1.000000 -0.084202 -0.006001 1.000000 -0.083502 -0.007456 1.000000 -0.081175 -0.010275 1.000000 -0.079434 -0.011531 1.000000 -0.076545 -0.014147 1.000000 -0.073835 -0.015167 1.000000 -0.070480 -0.017512 1.000000 -0.066897 -0.018257 1.000000 -0.063186 -0.020262 1.000000 -0.058853 -0.020696 1.000000 -0.054914 -0.022293 1.000000 -0.049979 -0.022379 1.000000 -0.045953 -0.023502 1.000000 -0.040590 -0.023200 1.000000 -0.036634 -0.023784 1.000000 -0.031044 -0.023057 1.000000 -0.027329 -0.023039 1.000000 -0.021739 -0.021846 1.000000 -0.018455 -0.021168 1.000000 -0.013119 -0.019473 1.000000 -0.010473 -0.018086 1.000000 -0.005669 -0.015860 1.000000 -0.003885 -0.013732 1.000000 0.000088 -0.010961 1.000000 0.000776 -0.008084 1.000000 0.003608 -0.004782 1.000000 0.002962 -0.001187 1.000000 0.004346 0.002593 1.000000 0.002140 0.006823 1.000000 0.001790 0.010975 1.000000 -0.002164 0.015693 1.000000 -0.004480 0.020041 1.000000 -0.010308 0.025020 1.000000 -0.014741 0.029315 1.000000 -0.022469 0.034246 1.000000 -0.029043 0.038159 1.000000 -0.038561 0.042654 1.000000 -0.047136 0.045791 1.000000 -0.058161 0.049399 1.000000 -0.068398 0.051328 1.000000 -0.080454 0.053574 1.000000 -0.091794 0.053869 1.000000 -0.104200 0.054304 1.000000 -0.115871 0.052608 1.000000 -0.127770 0.050880 1.000000 -0.138825 0.046974 1.000000 -0.149242 0.042895 1.000000 -0.158633 0.036759 1.000000 -0.166571 0.030365 1.000000 -0.173260 0.022219 1.000000 -0.177818 0.013795 1.000000 -0.180898 0.004099 1.000000 -0.181386 -0.005835 1.000000 -0.180195 -0.016420 1.000000 -0.176221 -0.027153 1.000000 -0.170414 -0.037834 1.000000 -0.161932 -0.048529 1.000000 -0.151513 -0.058438 1.000000 -0.138826 -0.068194 1.000000 -0.124151 -0.076442 1.000000 -0.107902 -0.084332 1.000000 -0.089674 -0.090034 1.000000 -0.070849 -0.095151 1.000000 -0.050139 -0.097488 1.000000 -0.030091 -0.099029 1.000000 -0.008366 -0.097365 1.000000 0.011183 -0.094816 1.000000 0.032084 -0.088939 1.000000 0.049159 -0.082351 1.000000 0.067229 -0.072782 1.000000 0.079953 -0.063045 1.000000 0.093461 -0.051229 1.000000 0.100634 -0.040072 1.000000 0.108718 -0.028194 1.000000 0.110341 -0.017713 1.000000 0.113375 -0.008032 1.000000 0.110656 0.000102 1.000000 0.110011 0.006004 1.000000 0.104755 0.010962 1.000000 0.102205 0.012467 1.000000 0.096380 0.014073 1.000000 0.093777 0.011646 1.000000 0.089482 0.010721 1.000000 0.088034 0.006429 1.000000 0.086112 0.004980 1.000000 0.086049 0.001269 1.000000 0.086291 0.001028 1.000000 0.086761 -0.000617 1.000000 0.088134 0.001488 1.000000 0.088111 0.002398 1.000000 0.089584 0.006750 1.000000 0.088165 0.010285 1.000000 0.088295 0.016234 1.000000 0.084481 0.021461 1.000000 0.081575 0.027313 1.000000 0.075040 0.031056 1.000000 0.070758 0.034956 1.000000 0.062854 0.037049 1.000000 0.057959 0.039381 1.000000 0.049156 0.040518 1.000000 0.043729 0.041769 1.000000 0.034282 0.042250 1.000000 0.028465 0.042626 1.000000 0.018705 0.042529 1.000000 0.012765 0.042153 1.000000 0.003033 0.041542 1.000000 -0.002761 0.040542 1.000000 -0.012184 0.039511 1.000000 -0.017615 0.038016 1.000000 -0.026526 0.036670 1.000000 -0.031442 0.034790 1.000000 -0.039692 0.033221 1.000000 -0.043990 0.031042 1.000000 -0.051472 0.029323 1.000000 -0.055081 0.026903 1.000000 -0.061709 0.025090 1.000000 -0.064583 0.022473 1.000000 -0.070284 0.020607 1.000000 
-0.082638 0.020579 1.000000 -0.087846 0.018238 1.000000 -0.088966 0.015133 1.000000 -0.092992 0.012799 1.000000 -0.093350 0.009603 1.000000 -0.096139 0.007318 1.000000 -0.095743 0.004078 1.000000 -0.097260 0.001887 1.000000 -0.096135 -0.001341 1.000000 -0.096372 -0.003391 1.000000 -0.094560 -0.006544 1.000000 -0.093533 -0.008403 1.000000 -0.091095 -0.011412 1.000000 -0.088853 -0.013032 1.000000 -0.085866 -0.015823 1.000000 -0.082487 -0.017155 1.000000 -0.079045 -0.019653 1.000000 -0.074637 -0.020650 1.000000 -0.070851 -0.022778 1.000000 -0.065549 -0.023395 1.000000 -0.061543 -0.025077 1.000000 -0.055512 -0.025269 1.000000 -0.051424 -0.026428 1.000000 -0.044856 -0.026149 1.000000 -0.040837 -0.026708 1.000000 -0.033950 -0.025910 1.000000 -0.030170 -0.025793 1.000000 -0.023209 -0.024429 1.000000 -0.019853 -0.023562 1.000000 -0.013092 -0.021587 1.000000 -0.010368 -0.019908 1.000000 -0.004105 -0.017283 1.000000 -0.002239 -0.014747 1.000000 0.003204 -0.011454 1.000000 0.003969 -0.008043 1.000000 0.008253 -0.004093 1.000000 0.007666 0.000165 1.000000 0.010452 0.004712 1.000000 0.008267 0.009726 1.000000 0.009233 0.014747 1.000000 0.005236 0.020348 1.000000 0.004104 0.025636 1.000000 -0.001862 0.031559 1.000000 -0.005284 0.036814 1.000000 -0.013279 0.042689 1.000000 -0.019058 0.047518 1.000000 -0.029000 0.052875 1.000000 -0.037033 0.056797 1.000000 -0.048660 0.061087 1.000000 -0.058632 0.063571 1.000000 -0.071465 0.066207 1.000000 -0.082821 0.066727 1.000000 -0.096156 0.067153 1.000000 -0.108100 0.065260 1.000000 -0.121028 0.063037 1.000000 -0.132561 0.058454 1.000000 -0.144031 0.053349 1.000000 -0.154028 0.046046 1.000000 -0.162954 0.038110 1.000000 -0.170287 0.028358 1.000000 -0.175680 0.017955 1.000000 -0.179354 0.006326 1.000000 -0.180453 -0.005886 1.000000 -0.179731 -0.018581 1.000000 -0.176105 -0.031727 1.000000 -0.170587 -0.044525 1.000000 -0.162171 -0.057606 1.000000 -0.151830 -0.069482 1.000000 -0.138924 -0.081452 1.000000 -0.124100 -0.091375 1.000000 -0.107349 -0.101172 1.000000 -0.088748 -0.108120 1.000000 -0.069147 -0.114682 1.000000 -0.047871 -0.117671 1.000000 -0.026818 -0.119994 1.000000 -0.004423 -0.118202 1.000000 0.016230 -0.115534 1.000000 0.037720 -0.108600 1.000000 0.055725 -0.100814 1.000000 0.074022 -0.089286 1.000000 0.087100 -0.077315 1.000000 0.100208 -0.062975 1.000000 0.106772 -0.048962 1.000000 0.113800 -0.034590 1.000000 0.113739 -0.021343 1.000000 0.115373 -0.009711 1.000000 0.110221 0.000408 1.000000 0.108185 0.007631 1.000000 0.100356 0.013447 1.000000 0.096364 0.015674 1.000000 0.088502 0.017035 1.000000 0.084506 0.014404 1.000000 0.079451 0.012726 1.000000 0.077275 0.007773 1.000000 0.075841 0.005381 1.000000 0.075298 0.000726 1.000000 0.076339 0.000090 1.000000 0.076728 -0.002149 1.000000 0.078929 -0.000119 1.000000 0.078643 0.000625 1.000000 0.081238 0.005263 1.000000 0.079519 0.009423 1.000000 0.081103 0.016271 1.000000 0.076939 0.023232 1.000000 0.074738 0.030367 1.000000 0.067565 0.034720 1.000000 0.064252 0.039161 1.000000 0.055831 0.041480 1.000000 0.051957 0.044211 1.000000 0.042501 0.045607 1.000000 0.037876 0.047201 1.000000 0.027584 0.047892 1.000000 0.022361 0.048479 1.000000 0.011650 0.048451 1.000000 0.006181 0.048138 1.000000 -0.004530 0.047448 1.000000 -0.009914 0.046399 1.000000 -0.020302 0.045170 1.000000 -0.025358 0.043555 1.000000 -0.035195 0.041925 1.000000 -0.039763 0.039887 1.000000 -0.048888 0.037974 1.000000 -0.052867 0.035617 1.000000 -0.061156 0.033511 1.000000 -0.064476 0.030904 1.000000 -0.071826 0.028671 1.000000 -0.074441 0.025862 1.000000 -0.080761 0.023554 1.000000 
-0.078088 0.024913 1.000000 -0.082838 0.022275 1.000000 -0.084082 0.018187 1.000000 -0.087782 0.015557 1.000000 -0.088223 0.011327 1.000000 -0.090818 0.008754 1.000000 -0.090458 0.004448 1.000000 -0.091911 0.001984 1.000000 -0.090768 -0.002322 1.000000 -0.091064 -0.004623 1.000000 -0.089179 -0.008840 1.000000 -0.088329 -0.010921 1.000000 -0.085760 -0.014955 1.000000 -0.083803 -0.016760 1.000000 -0.080630 -0.020513 1.000000 -0.077633 -0.021987 1.000000 -0.073951 -0.025362 1.000000 -0.070010 -0.026451 1.000000 -0.065932 -0.029349 1.000000 -0.061168 -0.030004 1.000000 -0.056821 -0.032330 1.000000 -0.051382 -0.032498 1.000000 -0.046906 -0.034158 1.000000 -0.040966 -0.033787 1.000000 -0.036515 -0.034690 1.000000 -0.030274 -0.033724 1.000000 -0.026019 -0.033780 1.000000 -0.019707 -0.032162 1.000000 -0.015836 -0.031285 1.000000 -0.009712 -0.028959 1.000000 -0.006436 -0.027073 1.000000 -0.000789 -0.023989 1.000000 0.001658 -0.021040 1.000000 0.006511 -0.017169 1.000000 0.007874 -0.013134 1.000000 0.011590 -0.008479 1.000000 0.011601 -0.003386 1.000000 0.013829 0.001991 1.000000 0.012218 0.008042 1.000000 0.012616 0.014007 1.000000 0.009136 0.020821 1.000000 0.007400 0.027139 1.000000 0.001858 0.034408 1.000000 -0.002240 0.040731 1.000000 -0.009941 0.048020 1.000000 -0.016502 0.053880 1.000000 -0.026317 0.060629 1.000000 -0.035268 0.065450 1.000000 -0.046960 0.070998 1.000000 -0.058002 0.074133 1.000000 -0.071102 0.077762 1.000000 -0.083670 0.078560 1.000000 -0.097459 0.079583 1.000000 -0.110721 0.077481 1.000000 -0.124243 0.075340 1.000000 -0.137130 0.069976 1.000000 -0.149262 0.064362 1.000000 -0.160557 0.055682 1.000000 -0.170128 0.046624 1.000000 -0.178612 0.034945 1.000000 -0.184556 0.022861 1.000000 -0.189166 0.008873 1.000000 -0.190683 -0.005458 1.000000 -0.190661 -0.020769 1.000000 -0.187319 -0.036297 1.000000 -0.182290 -0.051767 1.000000 -0.174056 -0.067286 1.000000 -0.164031 -0.081686 1.000000 -0.151234 -0.095925 1.000000 -0.136561 -0.108017 1.000000 -0.119832 -0.119684 1.000000 -0.101160 -0.128236 1.000000 -0.081430 -0.136027 1.000000 -0.059747 -0.139817 1.000000 -0.038331 -0.142477 1.000000 -0.015096 -0.140413 1.000000 0.006147 -0.136959 1.000000 0.028862 -0.128435 1.000000 0.047489 -0.118653 1.000000 0.067081 -0.104157 1.000000 0.080439 -0.089231 1.000000 0.094372 -0.070901 1.000000 0.100563 -0.053664 1.000000 0.107468 -0.035161 1.000000 0.106503 -0.019286 1.000000 0.107061 -0.004514 1.000000 0.101009 0.007290 1.000000 0.097480 0.015869 1.000000 0.088889 0.022783 1.000000 0.083648 0.024321 1.000000 0.074626 0.025931 1.000000 0.070283 0.020696 1.000000 0.064360 0.017952 1.000000 0.062119 0.010039 1.000000 0.059608 0.006958 1.000000 0.059695 0.000771 1.000000 0.060203 -0.000402 1.000000 0.060919 -0.003206 1.000000 0.062848 -0.000427 1.000000 0.063206 0.000088 1.000000 0.066292 0.005874 1.000000 0.066007 0.010421 1.000000 0.068970 0.018814 1.000000 0.067043 0.027826 1.000000 0.064643 0.036687 1.000000 0.059209 0.041542 1.000000 0.056579 0.046689 1.000000 0.050163 0.049344 1.000000 0.046996 0.052711 1.000000 0.039236 0.054599 1.000000 0.034917 0.056686 1.000000 0.026002 0.057764 1.000000 0.020794 0.058561 1.000000 0.011293 0.058710 1.000000 0.005704 0.058333 1.000000 -0.003873 0.057637 1.000000 -0.009426 0.056313 1.000000 -0.018734 0.054955 1.000000 -0.023976 0.052909 1.000000 -0.032799 0.051075 1.000000 -0.037560 0.048484 1.000000 -0.045755 0.046324 1.000000 -0.049926 0.043310 1.000000 -0.057388 0.040932 1.000000 -0.060896 0.037573 1.000000 -0.067534 0.035055 1.000000 -0.070324 0.031407 1.000000 -0.076057 0.028804 1.000000 