# vtk DataFile Version 2.0
Comment goes here
ASCII

DATASET STRUCTURED_POINTS
DIMENSIONS    128   128   1

ORIGIN    0.000   0.000   0.000
SPACING   0.0156250.015625   1.000

POINT_DATA   16384
SCALARS uMag double
LOOKUP_TABLE default

1.232068e-01 1.355019e-01 1.396926e-01 1.499459e-01 1.527278e-01 1.608748e-01 1.622699e-01 1.682814e-01 1.683449e-01 1.722316e-01 1.710530e-01 1.728694e-01 1.705730e-01 1.704206e-01 1.671643e-01 1.651924e-01 1.611665e-01 1.575718e-01 1.529954e-01 1.480199e-01 1.431380e-01 1.370649e-01 1.321444e-01 1.252947e-01 1.206205e-01 1.133473e-01 1.092186e-01 1.019016e-01 9.862768e-02 9.166641e-02 8.956131e-02 8.336632e-02 8.274188e-02 7.772335e-02 7.887859e-02 7.543093e-02 7.863731e-02 7.711900e-02 8.260028e-02 8.330839e-02 9.121506e-02 9.435477e-02 1.047337e-01 1.103844e-01 1.231461e-01 1.312271e-01 1.461148e-01 1.563555e-01 1.729213e-01 1.848420e-01 2.024375e-01 2.153480e-01 2.331361e-01 2.461573e-01 2.631500e-01 2.752614e-01 2.903829e-01 3.004936e-01 3.126630e-01 3.196961e-01 3.279171e-01 3.308937e-01 3.343360e-01 3.324469e-01 3.305079e-01 3.231646e-01 3.155103e-01 3.023802e-01 2.889734e-01 2.700126e-01 2.511448e-01 2.266444e-01 2.029836e-01 1.736362e-01 1.462854e-01 1.132567e-01 8.379105e-02 4.874980e-02 1.917191e-02 1.579244e-02 4.324912e-02 7.585772e-02 9.909389e-02 1.272938e-01 1.448124e-01 1.672057e-01 1.785271e-01 1.946974e-01 2.005301e-01 2.111053e-01 2.131531e-01 2.195188e-01 2.198890e-01 2.235394e-01 2.239205e-01 2.257605e-01 2.268925e-01 2.269955e-01 2.286816e-01 2.264397e-01 2.278077e-01 2.223465e-01 2.222087e-01 2.128056e-01 2.101397e-01 1.966279e-01 1.910928e-01 1.740549e-01 1.659968e-01 1.464058e-01 1.364912e-01 1.153423e-01 1.042818e-01 8.243027e-02 7.086023e-02 4.899093e-02 3.743867e-02 1.608286e-02 4.965061e-03 1.547061e-02 2.583649e-02 4.504016e-02 5.441868e-02 7.214822e-02 8.036916e-02 9.643224e-02 1.033764e-01 1.176178e-01 
1.115271e-01 1.228698e-01 1.273478e-01 1.368845e-01 1.399315e-01 1.475972e-01 1.492242e-01 1.549907e-01 1.552458e-01 1.591230e-01 1.580911e-01 1.601295e-01 1.579319e-01 1.582247e-01 1.550181e-01 1.537027e-01 1.496768e-01 1.469339e-01 1.423086e-01 1.383608e-01 1.333820e-01 1.284909e-01 1.234267e-01 1.178892e-01 1.130261e-01 1.071702e-01 1.028093e-01 9.699002e-02 9.344373e-02 8.803745e-02 8.562625e-02 8.102492e-02 8.007234e-02 7.667417e-02 7.749691e-02 7.569036e-02 7.857905e-02 7.871613e-02 8.390639e-02 8.626831e-02 9.390933e-02 9.867360e-02 1.088011e-01 1.160137e-01 1.285247e-01 1.380736e-01 1.527007e-01 1.642899e-01 1.805786e-01 1.937099e-01 2.110092e-01 2.249803e-01 2.424544e-01 2.563816e-01 2.730476e-01 2.859142e-01 3.007063e-01 3.114349e-01 3.232882e-01 3.308261e-01 3.387660e-01 3.421685e-01 3.453922e-01 3.438898e-01 3.418247e-01 3.348680e-01 3.272077e-01 3.144933e-01 3.012210e-01 2.827191e-01 2.641379e-01 2.401438e-01 2.169372e-01 1.881738e-01 1.615204e-01 1.293574e-01 1.012447e-01 6.869129e-02 4.467912e-02 3.179929e-02 4.458349e-02 7.178625e-02 9.353459e-02 1.209915e-01 1.384625e-01 1.608958e-01 1.725731e-01 1.889773e-01 1.952037e-01 2.060725e-01 2.083074e-01 2.150408e-01 2.152984e-01 2.194415e-01 2.194745e-01 2.220061e-01 2.226950e-01 2.237089e-01 2.249485e-01 2.238491e-01 2.248022e-01 2.207113e-01 2.201838e-01 2.123435e-01 2.092869e-01 1.974709e-01 1.915462e-01 1.763164e-01 1.678823e-01 1.501945e-01 1.399218e-01 1.207594e-01 1.093697e-01 8.961376e-02 7.779311e-02 5.829113e-02 4.678502e-02 2.908175e-02 2.014657e-02 1.666930e-02 2.268791e-02 3.771203e-02 4.676212e-02 6.246874e-02 7.083394e-02 8.539904e-02 9.260468e-02 1.056464e-01 
1.262375e-01 1.382324e-01 1.421518e-01 1.522140e-01 1.547945e-01 1.628167e-01 1.640607e-01 1.699880e-01 1.699385e-01 1.737644e-01 1.725027e-01 1.742696e-01 1.719133e-01 1.717137e-01 1.684152e-01 1.663912e-01 1.623345e-01 1.586765e-01 1.540738e-01 1.490176e-01 1.441051e-01 1.379280e-01 1.329621e-01 1.259780e-01 1.212313e-01 1.137862e-01 1.095461e-01 1.020141e-01 9.858154e-02 9.136224e-02 8.905466e-02 8.257262e-02 8.172537e-02 7.642787e-02 7.738783e-02 7.372931e-02 7.682480e-02 7.522181e-02 8.070727e-02 8.147236e-02 8.947931e-02 9.277658e-02 1.032998e-01 1.091406e-01 1.220400e-01 1.302860e-01 1.452744e-01 1.556239e-01 1.722431e-01 1.842101e-01 2.018149e-01 2.147195e-01 2.324843e-01 2.454680e-01 2.624216e-01 2.744914e-01 2.895797e-01 2.996769e-01 3.118464e-01 3.189309e-01 3.272196e-01 3.303542e-01 3.339744e-01 3.323960e-01 3.307964e-01 3.239670e-01 3.168747e-01 3.045193e-01 2.919730e-01 2.741226e-01 2.565238e-01 2.335995e-01 2.118195e-01 1.848264e-01 1.604720e-01 1.315657e-01 1.078864e-01 8.284307e-02 6.887026e-02 6.518992e-02 7.431897e-02 9.417654e-02 1.113914e-01 1.348934e-01 1.494709e-01 1.695849e-01 1.789937e-01 1.938251e-01 1.982116e-01 2.078571e-01 2.087684e-01 2.144610e-01 2.140423e-01 2.173061e-01 2.172864e-01 2.190150e-01 2.200702e-01 2.202714e-01 2.221424e-01 2.201045e-01 2.218939e-01 2.167026e-01 2.171751e-01 2.080946e-01 2.061005e-01 1.929503e-01 1.880922e-01 1.715561e-01 1.641981e-01 1.453257e-01 1.361506e-01 1.160196e-01 1.057954e-01 8.550829e-02 7.509041e-02 5.622114e-02 4.701772e-02 3.407163e-02 3.057069e-02 3.467875e-02 4.011649e-02 5.472876e-02 6.234889e-02 7.834464e-02 8.567402e-02 1.008785e-01 1.072726e-01 1.210243e-01 
1.177332e-01 1.284154e-01 1.322572e-01 1.413757e-01 1.439577e-01 1.513552e-01 1.526426e-01 1.582351e-01 1.582478e-01 1.620080e-01 1.608115e-01 1.627635e-01 1.604640e-01 1.606810e-01 1.574215e-01 1.560244e-01 1.519801e-01 1.491353e-01 1.445089e-01 1.404251e-01 1.354414e-01 1.303654e-01 1.252668e-01 1.194792e-01 1.145220e-01 1.083337e-01 1.037876e-01 9.753828e-02 9.369118e-02 8.775331e-02 8.492372e-02 7.971327e-02 7.826794e-02 7.425631e-02 7.461426e-02 7.231414e-02 7.489942e-02 7.478639e-02 7.991955e-02 8.231180e-02 9.011989e-02 9.511974e-02 1.055403e-01 1.130685e-01 1.258958e-01 1.357343e-01 1.506317e-01 1.624244e-01 1.789050e-01 1.921351e-01 2.095420e-01 2.235180e-01 2.410269e-01 2.548959e-01 2.715485e-01 2.843393e-01 2.991072e-01 3.098011e-01 3.216714e-01 3.292877e-01 3.373562e-01 3.410370e-01 3.445907e-01 3.436662e-01 3.422418e-01 3.362704e-01 3.296854e-01 3.184759e-01 3.068502e-01 2.904916e-01 2.742898e-01 2.532364e-01 2.333797e-01 2.086701e-01 1.868086e-01 1.606304e-01 1.398339e-01 1.170890e-01 1.034666e-01 9.430183e-02 9.549113e-02 1.055388e-01 1.168971e-01 1.354072e-01 1.472168e-01 1.651294e-01 1.732115e-01 1.869816e-01 1.905609e-01 1.995915e-01 1.996829e-01 2.050670e-01 2.037148e-01 2.070340e-01 2.061337e-01 2.084163e-01 2.088473e-01 2.100215e-01 2.115779e-01 2.108647e-01 2.126651e-01 2.091429e-01 2.098950e-01 2.027921e-01 2.011536e-01 1.901547e-01 1.856659e-01 1.715313e-01 1.645755e-01 1.483761e-01 1.396330e-01 1.224431e-01 1.127087e-01 9.568731e-02 8.591300e-02 7.069250e-02 6.231186e-02 5.204747e-02 4.772972e-02 4.732405e-02 4.923358e-02 5.799986e-02 6.352421e-02 7.581207e-02 8.213378e-02 9.486156e-02 1.007709e-01 1.127405e-01 
1.349690e-01 1.461681e-01 1.493357e-01 1.588762e-01 1.608862e-01 1.685619e-01 1.693720e-01 1.750628e-01 1.746865e-01 1.783402e-01 1.768374e-01 1.784629e-01 1.759341e-01 1.755982e-01 1.721799e-01 1.700041e-01 1.658633e-01 1.620201e-01 1.573486e-01 1.520570e-01 1.470659e-01 1.405852e-01 1.354998e-01 1.281242e-01 1.231811e-01 1.152351e-01 1.106836e-01 1.025216e-01 9.863373e-02 9.064861e-02 8.774077e-02 8.038680e-02 7.885438e-02 7.268240e-02 7.302016e-02 6.868237e-02 7.142034e-02 6.955060e-02 7.506268e-02 7.603790e-02 8.438450e-02 8.821584e-02 9.920549e-02 1.056670e-01 1.189960e-01 1.277658e-01 1.430576e-01 1.537425e-01 1.705114e-01 1.826078e-01 2.002193e-01 2.130790e-01 2.307415e-01 2.435692e-01 2.603619e-01 2.722492e-01 2.871843e-01 2.971737e-01 3.092825e-01 3.164497e-01 3.248763e-01 3.284134e-01 3.324995e-01 3.317828e-01 3.311290e-01 3.257671e-01 3.202727e-01 3.101422e-01 3.000408e-01 2.853377e-01 2.712602e-01 2.526127e-01 2.357221e-01 2.144433e-01 1.967026e-01 1.753271e-01 1.599293e-01 1.430684e-01 1.344653e-01 1.282873e-01 1.291810e-01 1.354552e-01 1.422861e-01 1.554041e-01 1.623345e-01 1.760698e-01 1.798442e-01 1.906880e-01 1.907057e-01 1.975579e-01 1.950364e-01 1.987044e-01 1.959550e-01 1.981074e-01 1.969681e-01 1.983937e-01 1.992144e-01 1.997188e-01 2.020571e-01 2.005614e-01 2.035540e-01 1.991153e-01 2.014959e-01 1.934458e-01 1.936005e-01 1.816322e-01 1.789198e-01 1.640582e-01 1.588789e-01 1.423280e-01 1.353697e-01 1.183315e-01 1.104590e-01 9.441289e-02 8.676878e-02 7.399684e-02 6.827790e-02 6.234533e-02 6.065736e-02 6.406523e-02 6.667056e-02 7.683702e-02 8.169466e-02 9.457341e-02 9.995864e-02 1.132190e-01 1.182389e-01 1.307596e-01 
1.293509e-01 1.389392e-01 1.416614e-01 1.500510e-01 1.517839e-01 1.587002e-01 1.593537e-01 1.646288e-01 1.641837e-01 1.677288e-01 1.662210e-01 1.680133e-01 1.655240e-01 1.655999e-01 1.622478e-01 1.606977e-01 1.566312e-01 1.535945e-01 1.489838e-01 1.446435e-01 1.396735e-01 1.342491e-01 1.291131e-01 1.228550e-01 1.177509e-01 1.109361e-01 1.060701e-01 9.900406e-02 9.460624e-02 8.763855e-02 8.400090e-02 7.756664e-02 7.510998e-02 6.979965e-02 6.914110e-02 6.574141e-02 6.763644e-02 6.696579e-02 7.198545e-02 7.448905e-02 8.270135e-02 8.827632e-02 9.935590e-02 1.076054e-01 1.211080e-01 1.315792e-01 1.470303e-01 1.592477e-01 1.761018e-01 1.895149e-01 2.071052e-01 2.210453e-01 2.385698e-01 2.522458e-01 2.687948e-01 2.813288e-01 2.959493e-01 3.064457e-01 3.182323e-01 3.258637e-01 3.340579e-01 3.381488e-01 3.422241e-01 3.423109e-01 3.420249e-01 3.378803e-01 3.332887e-01 3.249194e-01 3.163700e-01 3.040170e-01 2.921561e-01 2.763443e-01 2.621717e-01 2.438674e-01 2.288601e-01 2.097941e-01 1.960454e-01 1.791528e-01 1.692418e-01 1.585790e-01 1.544336e-01 1.529771e-01 1.538075e-01 1.602091e-01 1.627065e-01 1.723163e-01 1.734455e-01 1.819611e-01 1.803156e-01 1.856588e-01 1.814820e-01 1.842056e-01 1.796605e-01 1.813696e-01 1.786324e-01 1.805083e-01 1.803733e-01 1.818493e-01 1.838468e-01 1.837271e-01 1.870965e-01 1.845773e-01 1.880716e-01 1.826368e-01 1.841239e-01 1.749913e-01 1.736223e-01 1.620398e-01 1.581923e-01 1.452693e-01 1.395535e-01 1.263201e-01 1.195731e-01 1.072823e-01 1.005830e-01 9.089231e-02 8.556019e-02 8.046356e-02 7.781318e-02 7.866164e-02 7.915513e-02 8.524304e-02 8.804938e-02 9.724215e-02 1.011116e-01 1.114930e-01 1.154801e-01 1.258273e-01 
1.485349e-01 1.586686e-01 1.607536e-01 1.695612e-01 1.707180e-01 1.778926e-01 1.780379e-01 1.833800e-01 1.824955e-01 1.858915e-01 1.840117e-01 1.854223e-01 1.826257e-01 1.820794e-01 1.784804e-01 1.760674e-01 1.718079e-01 1.676742e-01 1.629150e-01 1.572543e-01 1.521675e-01 1.452127e-01 1.399747e-01 1.319901e-01 1.267788e-01 1.180540e-01 1.130533e-01 1.039044e-01 9.932405e-02 9.011205e-02 8.623540e-02 7.742167e-02 7.469803e-02 6.696030e-02 6.612457e-02 6.048640e-02 6.252155e-02 6.016635e-02 6.577711e-02 6.727740e-02 7.633239e-02 8.129730e-02 9.316657e-02 1.008472e-01 1.149277e-01 1.246762e-01 1.404624e-01 1.517464e-01 1.687194e-01 1.810133e-01 1.985562e-01 2.112638e-01 2.286370e-01 2.410679e-01 2.574339e-01 2.688277e-01 2.833145e-01 2.928985e-01 3.046896e-01 3.117540e-01 3.201843e-01 3.241560e-01 3.287929e-01 3.292894e-01 3.299844e-01 3.268441e-01 3.237559e-01 3.170539e-01 3.106588e-01 3.007285e-01 2.918320e-01 2.793045e-01 2.690439e-01 2.549141e-01 2.446997e-01 2.304044e-01 2.216898e-01 2.091101e-01 2.028821e-01 1.940398e-01 1.901785e-01 1.864253e-01 1.835675e-01 1.846709e-01 1.810387e-01 1.850789e-01 1.795825e-01 1.838242e-01 1.764156e-01 1.786231e-01 1.703080e-01 1.705932e-01 1.641417e-01 1.646844e-01 1.620603e-01 1.630523e-01 1.634000e-01 1.644454e-01 1.671092e-01 1.661749e-01 1.708031e-01 1.672780e-01 1.730850e-01 1.670382e-01 1.713414e-01 1.617826e-01 1.630900e-01 1.517007e-01 1.503950e-01 1.382516e-01 1.349169e-01 1.230528e-01 1.185828e-01 1.083849e-01 1.039320e-01 9.713406e-02 9.394063e-02 9.214320e-02 9.111962e-02 9.475017e-02 9.594508e-02 1.038268e-01 1.065310e-01 1.168333e-01 1.201837e-01 1.313636e-01 1.346870e-01 1.456890e-01 
1.452391e-01 1.535751e-01 1.549020e-01 1.624033e-01 1.630257e-01 1.693332e-01 1.691319e-01 1.739974e-01 1.729247e-01 1.761896e-01 1.742549e-01 1.758383e-01 1.730961e-01 1.729858e-01 1.695250e-01 1.677703e-01 1.637037e-01 1.604080e-01 1.558614e-01 1.511736e-01 1.462766e-01 1.403814e-01 1.352591e-01 1.283678e-01 1.231370e-01 1.154806e-01 1.102545e-01 1.020839e-01 9.699419e-02 8.860007e-02 8.385392e-02 7.563206e-02 7.163800e-02 6.424884e-02 6.184091e-02 5.647155e-02 5.705070e-02 5.534498e-02 6.018807e-02 6.303018e-02 7.206217e-02 7.881375e-02 9.106592e-02 1.006368e-01 1.152392e-01 1.267922e-01 1.430893e-01 1.559920e-01 1.733719e-01 1.870339e-01 2.048178e-01 2.186011e-01 2.360131e-01 2.492139e-01 2.654100e-01 2.772933e-01 2.914343e-01 3.013038e-01 3.126554e-01 3.199387e-01 3.279787e-01 3.323042e-01 3.368062e-01 3.380435e-01 3.391100e-01 3.373561e-01 3.353874e-01 3.309024e-01 3.265132e-01 3.196303e-01 3.135388e-01 3.045834e-01 2.974944e-01 2.867470e-01 2.792314e-01 2.669906e-01 2.593655e-01 2.461717e-01 2.384264e-01 2.254230e-01 2.173047e-01 2.064290e-01 1.977533e-01 1.910905e-01 1.820506e-01 1.801175e-01 1.711203e-01 1.716960e-01 1.625208e-01 1.623364e-01 1.519589e-01 1.509640e-01 1.418560e-01 1.412008e-01 1.358326e-01 1.374055e-01 1.362433e-01 1.380686e-01 1.399558e-01 1.400424e-01 1.451290e-01 1.434052e-01 1.514320e-01 1.491986e-01 1.563514e-01 1.508773e-01 1.549339e-01 1.483058e-01 1.494260e-01 1.420854e-01 1.406912e-01 1.332273e-01 1.301940e-01 1.235651e-01 1.199672e-01 1.152969e-01 1.121677e-01 1.104459e-01 1.085512e-01 1.102443e-01 1.098714e-01 1.146869e-01 1.156195e-01 1.226942e-01 1.244298e-01 1.327465e-01 1.347471e-01 1.434160e-01 
1.659181e-01 1.749358e-01 1.757688e-01 1.837680e-01 1.838931e-01 1.904967e-01 1.898132e-01 1.947496e-01 1.932196e-01 1.963100e-01 1.939489e-01 1.950987e-01 1.919649e-01 1.911569e-01 1.873414e-01 1.846283e-01 1.802438e-01 1.757395e-01 1.709092e-01 1.647782e-01 1.596250e-01 1.520705e-01 1.467086e-01 1.379604e-01 1.324908e-01 1.227954e-01 1.173110e-01 1.069293e-01 1.015373e-01 9.076059e-02 8.564440e-02 7.486343e-02 7.043085e-02 6.034383e-02 5.755040e-02 4.965432e-02 5.036214e-02 4.717869e-02 5.308153e-02 5.582849e-02 6.622001e-02 7.335294e-02 8.662140e-02 9.637287e-02 1.115291e-01 1.228428e-01 1.392792e-01 1.514887e-01 1.686598e-01 1.812169e-01 1.985139e-01 2.108751e-01 2.276070e-01 2.392112e-01 2.546437e-01 2.649425e-01 2.783745e-01 2.868884e-01 2.977467e-01 3.041237e-01 3.120522e-01 3.161065e-01 3.210238e-01 3.227419e-01 3.248550e-01 3.243748e-01 3.241570e-01 3.217413e-01 3.198908e-01 3.158940e-01 3.132495e-01 3.080316e-01 3.053797e-01 2.991284e-01 2.968566e-01 2.893911e-01 2.870778e-01 2.778813e-01 2.741277e-01 2.628603e-01 2.557273e-01 2.430811e-01 2.311520e-01 2.192514e-01 2.027771e-01 1.941328e-01 1.753845e-01 1.704948e-01 1.523799e-01 1.483817e-01 1.320059e-01 1.275852e-01 1.167887e-01 1.159591e-01 1.125764e-01 1.127957e-01 1.119551e-01 1.139497e-01 1.155164e-01 1.142604e-01 1.197175e-01 1.160167e-01 1.268247e-01 1.243386e-01 1.363920e-01 1.318976e-01 1.399784e-01 1.352934e-01 1.397501e-01 1.347189e-01 1.360786e-01 1.311423e-01 1.304322e-01 1.265247e-01 1.249104e-01 1.230679e-01 1.215660e-01 1.225596e-01 1.218377e-01 1.258725e-01 1.261488e-01 1.328084e-01 1.339169e-01 1.423960e-01 1.439702e-01 1.533760e-01 1.550171e-01 1.645521e-01 
1.643121e-01 1.714348e-01 1.712635e-01 1.778534e-01 1.772220e-01 1.828829e-01 1.816838e-01 1.861070e-01 1.842896e-01 1.872514e-01 1.848126e-01 1.861702e-01 1.831442e-01 1.828303e-01 1.792761e-01 1.772925e-01 1.732822e-01 1.696910e-01 1.652975e-01 1.602103e-01 1.554963e-01 1.490616e-01 1.440710e-01 1.364605e-01 1.312141e-01 1.226109e-01 1.171101e-01 1.077019e-01 1.019475e-01 9.193548e-02 8.597971e-02 7.562989e-02 6.971294e-02 5.954025e-02 5.446641e-02 4.583848e-02 4.386417e-02 4.012562e-02 4.467496e-02 4.847855e-02 5.913349e-02 6.817573e-02 8.228512e-02 9.403960e-02 1.101828e-01 1.233879e-01 1.407948e-01 1.547002e-01 1.727120e-01 1.866888e-01 2.045953e-01 2.180181e-01 2.350439e-01 2.472920e-01 2.626522e-01 2.731697e-01 2.861696e-01 2.945506e-01 3.047058e-01 3.107778e-01 3.179265e-01 3.218004e-01 3.261719e-01 3.282283e-01 3.304276e-01 3.312180e-01 3.321011e-01 3.321683e-01 3.326196e-01 3.322775e-01 3.329377e-01 3.320504e-01 3.330418e-01 3.308413e-01 3.315328e-01 3.265834e-01 3.254708e-01 3.160041e-01 3.108926e-01 2.957189e-01 2.844637e-01 2.643492e-01 2.462320e-01 2.248839e-01 2.020336e-01 1.848990e-01 1.623300e-01 1.519908e-01 1.341368e-01 1.267325e-01 1.095291e-01 1.048463e-01 9.085676e-02 8.630798e-02 7.750834e-02 7.971225e-02 7.666642e-02 7.844510e-02 7.781826e-02 7.637086e-02 8.150808e-02 7.807993e-02 9.196146e-02 9.542089e-02 1.134566e-01 1.163561e-01 1.293436e-01 1.319454e-01 1.398951e-01 1.407874e-01 1.444553e-01 1.439577e-01 1.446527e-01 1.436389e-01 1.426598e-01 1.420743e-01 1.404699e-01 1.410973e-01 1.395922e-01 1.419079e-01 1.408888e-01 1.449862e-01 1.445370e-01 1.501639e-01 1.501521e-01 1.568332e-01 1.570175e-01 1.641924e-01 
1.861889e-01 1.941907e-01 1.937280e-01 2.009587e-01 1.999663e-01 2.060122e-01 2.044011e-01 2.089340e-01 2.066677e-01 2.094481e-01 2.065366e-01 2.074136e-01 2.039033e-01 2.028109e-01 1.987735e-01 1.957243e-01 1.912435e-01 1.863187e-01 1.814767e-01 1.748128e-01 1.696778e-01 1.614513e-01 1.560669e-01 1.464774e-01 1.408572e-01 1.301120e-01 1.242419e-01 1.125446e-01 1.063993e-01 9.395098e-02 8.754307e-02 7.457906e-02 6.809422e-02 5.505726e-02 4.929844e-02 3.766687e-02 3.559088e-02 3.075471e-02 3.748689e-02 4.325579e-02 5.595719e-02 6.686192e-02 8.198418e-02 9.482691e-02 1.112806e-01 1.248345e-01 1.420274e-01 1.555771e-01 1.729153e-01 1.858620e-01 2.026750e-01 2.144619e-01 2.300402e-01 2.401922e-01 2.538789e-01 2.620881e-01 2.733989e-01 2.796125e-01 2.883510e-01 2.928069e-01 2.991283e-01 3.022985e-01 3.066824e-01 3.091282e-01 3.122710e-01 3.144841e-01 3.171793e-01 3.195076e-01 3.225723e-01 3.252157e-01 3.293881e-01 3.322881e-01 3.379284e-01 3.403977e-01 3.469376e-01 3.471932e-01 3.525468e-01 3.477019e-01 3.481678e-01 3.352882e-01 3.264988e-01 3.047632e-01 2.837715e-01 2.566362e-01 2.243451e-01 1.993615e-01 1.618521e-01 1.456582e-01 1.132788e-01 1.037971e-01 7.844023e-02 6.783943e-02 5.675162e-02 5.568074e-02 5.371712e-02 5.124556e-02 4.577846e-02 4.963201e-02 4.618355e-02 4.209500e-02 4.386357e-02 3.668512e-02 5.009876e-02 5.038323e-02 8.082218e-02 9.102962e-02 1.097049e-01 1.173021e-01 1.292051e-01 1.340811e-01 1.405203e-01 1.433495e-01 1.460781e-01 1.479662e-01 1.485560e-01 1.505832e-01 1.502040e-01 1.532029e-01 1.526163e-01 1.570552e-01 1.566588e-01 1.626137e-01 1.625134e-01 1.697321e-01 1.698374e-01 1.778605e-01 1.779816e-01 1.862650e-01 
1.856835e-01 1.917392e-01 1.900779e-01 1.958310e-01 1.938920e-01 1.989454e-01 1.966719e-01 2.006789e-01 1.980485e-01 2.007298e-01 1.977492e-01 1.989011e-01 1.955961e-01 1.950937e-01 1.914977e-01 1.892919e-01 1.854339e-01 1.815441e-01 1.774372e-01 1.719395e-01 1.675710e-01 1.605831e-01 1.559077e-01 1.475710e-01 1.425076e-01 1.329699e-01 1.274047e-01 1.168050e-01 1.106023e-01 9.906336e-02 9.209465e-02 7.973144e-02 7.194800e-02 5.893446e-02 5.061046e-02 3.757284e-02 3.060259e-02 2.198090e-02 2.571506e-02 3.247596e-02 4.621471e-02 5.932645e-02 7.584460e-02 9.073636e-02 1.086770e-01 1.241415e-01 1.428314e-01 1.581323e-01 1.768541e-01 1.912883e-01 2.092141e-01 2.220733e-01 2.383260e-01 2.489816e-01 2.627615e-01 2.708096e-01 2.815622e-01 2.869763e-01 2.945630e-01 2.977906e-01 3.026084e-01 3.045522e-01 3.075455e-01 3.094020e-01 3.119213e-01 3.148796e-01 3.183643e-01 3.232273e-01 3.287770e-01 3.356547e-01 3.436641e-01 3.518020e-01 3.617275e-01 3.693269e-01 3.794559e-01 3.834334e-01 3.905808e-01 3.866807e-01 3.862057e-01 3.701571e-01 3.570182e-01 3.271049e-01 2.985893e-01 2.589838e-01 2.184817e-01 1.804111e-01 1.392569e-01 1.140927e-01 9.150830e-02 7.748033e-02 6.658738e-02 5.601051e-02 4.051809e-02 2.259811e-02 5.941669e-03 1.522576e-02 7.515939e-03 1.355803e-02 5.326215e-03 1.422590e-02 1.442435e-02 1.888497e-02 1.284808e-02 2.268487e-02 4.160547e-02 7.176633e-02 9.853815e-02 1.166721e-01 1.328727e-01 1.439174e-01 1.525518e-01 1.590507e-01 1.628840e-01 1.666748e-01 1.676631e-01 1.701669e-01 1.696077e-01 1.718817e-01 1.706041e-01 1.733642e-01 1.718587e-01 1.754944e-01 1.740011e-01 1.786056e-01 1.771862e-01 1.826130e-01 1.812176e-01 1.871569e-01 
2.085634e-01 2.157381e-01 2.140186e-01 2.206059e-01 2.184786e-01 2.240516e-01 2.214668e-01 2.256558e-01 2.226025e-01 2.251142e-01 2.216157e-01 2.222445e-01 2.183490e-01 2.169804e-01 2.127481e-01 2.093554e-01 2.048442e-01 1.994793e-01 1.947300e-01 1.875081e-01 1.825313e-01 1.736122e-01 1.683779e-01 1.579449e-01 1.523765e-01 1.406156e-01 1.345901e-01 1.216715e-01 1.150288e-01 1.010939e-01 9.365990e-02 7.881739e-02 7.045829e-02 5.480242e-02 4.560612e-02 2.940995e-02 2.108984e-02 1.112590e-02 2.081828e-02 3.385272e-02 4.934884e-02 6.549017e-02 8.236994e-02 9.906244e-02 1.168410e-01 1.332683e-01 1.513522e-01 1.667889e-01 1.843963e-01 1.980682e-01 2.142882e-01 2.254329e-01 2.393499e-01 2.473806e-01 2.582670e-01 2.630068e-01 2.705652e-01 2.724809e-01 2.770625e-01 2.773505e-01 2.800087e-01 2.803573e-01 2.825894e-01 2.845871e-01 2.878270e-01 2.923557e-01 2.975967e-01 3.047396e-01 3.126004e-01 3.220695e-01 3.330384e-01 3.444181e-01 3.586880e-01 3.708820e-01 3.875207e-01 3.975559e-01 4.132423e-01 4.155353e-01 4.238622e-01 4.114013e-01 4.039381e-01 3.721320e-01 3.419281e-01 2.943059e-01 2.411963e-01 1.933333e-01 1.270802e-01 9.845323e-02 4.827777e-02 6.193023e-02 4.737138e-02 4.640285e-02 4.922115e-02 4.325905e-02 1.536967e-02 1.989450e-02 1.680566e-02 2.404204e-02 2.411646e-02 2.365209e-02 2.188883e-02 2.144323e-02 1.999101e-02 2.398889e-02 1.116880e-02 4.106952e-02 7.752916e-02 1.029319e-01 1.237512e-01 1.395869e-01 1.504692e-01 1.603064e-01 1.655343e-01 1.719686e-01 1.740226e-01 1.788378e-01 1.791718e-01 1.835845e-01 1.830667e-01 1.878485e-01 1.869730e-01 1.925142e-01 1.915157e-01 1.978834e-01 1.968191e-01 2.038312e-01 2.026508e-01 2.099602e-01 
2.086409e-01 2.138280e-01 2.107441e-01 2.157986e-01 2.125533e-01 2.170989e-01 2.137200e-01 2.173900e-01 2.139166e-01 2.163855e-01 2.128598e-01 2.138659e-01 2.103219e-01 2.096809e-01 2.061324e-01 2.037429e-01 2.001735e-01 1.960134e-01 1.923691e-01 1.864852e-01 1.826698e-01 1.751600e-01 1.710338e-01 1.620265e-01 1.574074e-01 1.470394e-01 1.417072e-01 1.301040e-01 1.238087e-01 1.110708e-01 1.035456e-01 8.974261e-02 8.072373e-02 6.589732e-02 5.515219e-02 3.932979e-02 2.670896e-02 9.919647e-03 5.254615e-03 2.236143e-02 3.905355e-02 5.718564e-02 7.554787e-02 9.399372e-02 1.135704e-01 1.317760e-01 1.518515e-01 1.690638e-01 1.886749e-01 2.039557e-01 2.219493e-01 2.342760e-01 2.494441e-01 2.579196e-01 2.692313e-01 2.734024e-01 2.803214e-01 2.805327e-01 2.833424e-01 2.809610e-01 2.809506e-01 2.782619e-01 2.776121e-01 2.772825e-01 2.785763e-01 2.827743e-01 2.881941e-01 2.977577e-01 3.083197e-01 3.226457e-01 3.381280e-01 3.557369e-01 3.750612e-01 3.936866e-01 4.147316e-01 4.302814e-01 4.486779e-01 4.541993e-01 4.623225e-01 4.488355e-01 4.365317e-01 3.967345e-01 3.557354e-01 2.911186e-01 2.247404e-01 1.544978e-01 8.409840e-02 3.780097e-02 5.050252e-02 9.034594e-02 1.444727e-01 7.845466e-02 5.972940e-02 7.035922e-02 4.495624e-02 1.779994e-02 1.268546e-02 1.346792e-02 2.488044e-02 3.751287e-02 4.460770e-02 4.946873e-02 5.459583e-02 5.578974e-02 6.033318e-02 5.745768e-02 8.762131e-02 1.147861e-01 1.368979e-01 1.558826e-01 1.675348e-01 1.791352e-01 1.848006e-01 1.918822e-01 1.940908e-01 1.986426e-01 1.987941e-01 2.021520e-01 2.010748e-01 2.041364e-01 2.023330e-01 2.056632e-01 2.034272e-01 2.073136e-01 2.048001e-01 2.092966e-01 2.065742e-01 2.115487e-01 
2.323708e-01 2.389591e-01 2.360693e-01 2.421988e-01 2.389622e-01 2.442056e-01 2.406365e-01 2.445928e-01 2.407311e-01 2.430591e-01 2.389640e-01 2.394057e-01 2.351438e-01 2.335374e-01 2.291680e-01 2.254507e-01 2.210105e-01 2.152111e-01 2.106999e-01 2.029236e-01 1.982929e-01 1.886990e-01 1.838442e-01 1.726212e-01 1.673779e-01 1.547186e-01 1.488644e-01 1.349465e-01 1.282084e-01 1.131847e-01 1.052532e-01 8.926080e-02 7.980993e-02 6.302545e-02 5.173969e-02 3.468308e-02 2.143809e-02 1.143652e-02 1.610594e-02 3.595056e-02 5.143709e-02 7.217262e-02 8.999211e-02 1.106241e-01 1.297060e-01 1.495389e-01 1.688782e-01 1.869613e-01 2.053309e-01 2.204791e-01 2.364577e-01 2.473829e-01 2.595190e-01 2.651129e-01 2.722409e-01 2.720432e-01 2.737663e-01 2.685737e-01 2.658333e-01 2.581954e-01 2.535984e-01 2.475848e-01 2.448070e-01 2.443174e-01 2.462621e-01 2.526478e-01 2.600049e-01 2.719234e-01 2.840793e-01 2.998470e-01 3.166670e-01 3.358242e-01 3.580164e-01 3.803996e-01 4.080925e-01 4.307915e-01 4.605263e-01 4.750038e-01 4.973736e-01 4.899610e-01 4.901008e-01 4.475330e-01 4.095843e-01 3.300764e-01 2.482749e-01 1.601614e-01 4.511053e-02 2.327533e-02 1.247459e-01 1.857887e-01 8.779212e-02 1.359804e-02 5.256688e-02 5.800972e-02 6.925523e-02 8.752906e-02 9.241131e-02 1.017544e-01 1.016634e-01 9.580881e-02 1.034274e-01 8.881195e-02 1.065335e-01 8.455773e-02 9.543738e-02 7.159817e-02 9.294778e-02 1.181746e-01 1.376231e-01 1.581525e-01 1.691813e-01 1.826958e-01 1.885348e-01 1.975700e-01 2.002757e-01 2.067955e-01 2.075770e-01 2.129287e-01 2.125298e-01 2.176101e-01 2.164871e-01 2.218353e-01 2.202476e-01 2.261022e-01 2.241727e-01 2.305217e-01 2.282857e-01 2.349232e-01 
2.325819e-01 2.371225e-01 2.327073e-01 2.372401e-01 2.327139e-01 2.368960e-01 2.324034e-01 2.358607e-01 2.315375e-01 2.339055e-01 2.298590e-01 2.308184e-01 2.271085e-01 2.264130e-01 2.230390e-01 2.205328e-01 2.174273e-01 2.130491e-01 2.100804e-01 2.038558e-01 2.008341e-01 1.928571e-01 1.895430e-01 1.799511e-01 1.760649e-01 1.650127e-01 1.602429e-01 1.478814e-01 1.418944e-01 1.283636e-01 1.208195e-01 1.062675e-01 9.685119e-02 8.152555e-02 7.003532e-02 5.467326e-02 4.153701e-02 3.010856e-02 2.286435e-02 3.313772e-02 4.534915e-02 6.555964e-02 8.391125e-02 1.054130e-01 1.262238e-01 1.475080e-01 1.691964e-01 1.890579e-01 2.100728e-01 2.270526e-01 2.456208e-01 2.580315e-01 2.722539e-01 2.784601e-01 2.866438e-01 2.856191e-01 2.868487e-01 2.789564e-01 2.738091e-01 2.615251e-01 2.526214e-01 2.406555e-01 2.325411e-01 2.267012e-01 2.245320e-01 2.289742e-01 2.359678e-01 2.505290e-01 2.662567e-01 2.877894e-01 3.101383e-01 3.361909e-01 3.639613e-01 3.934745e-01 4.260253e-01 4.558462e-01 4.891268e-01 5.099168e-01 5.331578e-01 5.294662e-01 5.244053e-01 4.786505e-01 4.231379e-01 3.246455e-01 2.143619e-01 9.817415e-02 3.985984e-02 1.282381e-01 2.109303e-01 9.693909e-02 7.565365e-02 2.351827e-02 7.889268e-02 1.322856e-01 1.017957e-01 8.208353e-02 9.344698e-02 6.407993e-02 6.966991e-02 4.130356e-02 5.740220e-02 2.586258e-02 5.173968e-02 1.809317e-02 5.268065e-02 8.895668e-02 1.154383e-01 1.455659e-01 1.607914e-01 1.807429e-01 1.904050e-01 2.034591e-01 2.091516e-01 2.176617e-01 2.204884e-01 2.261517e-01 2.269167e-01 2.309603e-01 2.302341e-01 2.335412e-01 2.317193e-01 2.349007e-01 2.322525e-01 2.356866e-01 2.323982e-01 2.362580e-01 2.324691e-01 2.367476e-01 
2.570056e-01 2.632800e-01 2.593287e-01 2.652288e-01 2.609280e-01 2.660316e-01 2.614840e-01 2.653641e-01 2.606881e-01 2.629581e-01 2.582741e-01 2.586240e-01 2.540365e-01 2.522573e-01 2.478359e-01 2.438319e-01 2.395955e-01 2.333810e-01 2.292870e-01 2.209717e-01 2.169095e-01 2.066729e-01 2.024621e-01 1.905235e-01 1.859160e-01 1.725060e-01 1.671922e-01 1.525346e-01 1.461552e-01 1.304727e-01 1.226437e-01 1.062184e-01 9.658922e-02 7.999198e-02 6.845241e-02 5.353688e-02 4.154655e-02 3.658857e-02 3.492003e-02 5.101894e-02 6.340277e-02 8.642855e-02 1.044102e-01 1.286636e-01 1.492311e-01 1.730028e-01 1.943308e-01 2.161045e-01 2.362866e-01 2.542191e-01 2.710475e-01 2.829716e-01 2.940447e-01 2.977703e-01 3.008860e-01 2.948834e-01 2.888093e-01 2.733634e-01 2.590588e-01 2.378149e-01 2.199176e-01 2.011065e-01 1.882819e-01 1.823430e-01 1.820857e-01 1.916114e-01 2.022861e-01 2.200429e-01 2.362389e-01 2.566933e-01 2.767918e-01 3.003279e-01 3.269218e-01 3.573700e-01 3.947714e-01 4.325334e-01 4.796613e-01 5.136818e-01 5.585112e-01 5.652914e-01 5.851895e-01 5.356149e-01 4.989323e-01 3.693553e-01 2.603863e-01 9.554499e-02 1.091843e-01 1.134384e-01 1.397996e-01 7.643756e-02 6.327071e-03 1.861386e-01 1.699817e-01 8.141156e-02 7.082241e-02 4.823772e-02 2.775095e-02 2.530640e-02 8.288755e-03 4.139513e-02 2.355907e-02 4.780451e-02 3.350725e-02 5.145840e-02 4.295475e-02 1.009726e-01 1.193209e-01 1.521459e-01 1.636514e-01 1.842289e-01 1.924787e-01 2.066311e-01 2.120615e-01 2.221168e-01 2.252263e-01 2.327129e-01 2.340322e-01 2.400820e-01 2.400584e-01 2.455008e-01 2.444664e-01 2.498635e-01 2.480426e-01 2.537099e-01 2.512432e-01 2.572703e-01 2.542450e-01 2.605262e-01 