# vtk DataFile Version 2.0
Comment goes here
ASCII

DATASET STRUCTURED_POINTS
DIMENSIONS    128   128   1

ORIGIN    0.000   0.000   0.000
SPACING   0.0156250.015625   1.000

POINT_DATA   16384
SCALARS uMag double
LOOKUP_TABLE default

2.330062e-01 2.293128e-01 2.260431e-01 2.216723e-01 2.178296e-01 2.126152e-01 2.081829e-01 2.020222e-01 1.970242e-01 1.898737e-01 1.843666e-01 1.762354e-01 1.702993e-01 1.612387e-01 1.549663e-01 1.450575e-01 1.385405e-01 1.278794e-01 1.211945e-01 1.098745e-01 1.030686e-01 9.116252e-02 8.423710e-02 7.177931e-02 6.467720e-02 5.164654e-02 4.424003e-02 3.054610e-02 2.262921e-02 8.103179e-03 6.112726e-04 1.621868e-02 2.609170e-02 4.310558e-02 5.456093e-02 7.336184e-02 8.685806e-02 1.078540e-01 1.238469e-01 1.474294e-01 1.663218e-01 1.928098e-01 2.148902e-01 2.444643e-01 2.698390e-01 3.024701e-01 3.309951e-01 3.663770e-01 3.975994e-01 4.350941e-01 4.682135e-01 5.068220e-01 5.406844e-01 5.790543e-01 6.121868e-01 6.486625e-01 6.793529e-01 7.120701e-01 7.384850e-01 7.654983e-01 7.858261e-01 8.052523e-01 8.178490e-01 8.280042e-01 8.315234e-01 8.310375e-01 8.245328e-01 8.124384e-01 7.954408e-01 7.712481e-01 7.438311e-01 7.076055e-01 6.704486e-01 6.229022e-01 5.773454e-01 5.199248e-01 4.679821e-01 4.029112e-01 3.471990e-01 2.774219e-01 2.209779e-01 1.499733e-01 9.598536e-02 2.746047e-02 2.105601e-02 8.357877e-02 1.241509e-01 1.778599e-01 2.090484e-01 2.524377e-01 2.743262e-01 3.075678e-01 3.218045e-01 3.463858e-01 3.552725e-01 3.728963e-01 3.781011e-01 3.898017e-01 3.922385e-01 3.980614e-01 3.979335e-01 3.975586e-01 3.946509e-01 3.881988e-01 3.825124e-01 3.711894e-01 3.635626e-01 3.496712e-01 3.414920e-01 3.273620e-01 3.198026e-01 3.070197e-01 3.006939e-01 2.899940e-01 2.850250e-01 2.765215e-01 2.727383e-01 2.661867e-01 2.632883e-01 2.582773e-01 2.559333e-01 2.520000e-01 2.499007e-01 2.465913e-01 2.444702e-01 2.413709e-01 2.390126e-01 2.357647e-01 
2.504428e-01 2.480053e-01 2.442010e-01 2.408103e-01 2.365055e-01 2.319797e-01 2.271653e-01 2.213915e-01 2.160965e-01 2.090270e-01 2.033115e-01 1.949573e-01 1.889028e-01 1.793240e-01 1.730228e-01 1.623157e-01 1.558575e-01 1.441394e-01 1.375978e-01 1.249900e-01 1.184085e-01 1.050196e-01 9.839867e-02 8.431145e-02 7.760112e-02 6.287615e-02 5.598754e-02 4.075096e-02 3.368486e-02 1.909248e-02 1.396690e-02 1.682447e-02 2.446448e-02 4.212901e-02 5.291183e-02 7.352205e-02 8.657372e-02 1.096243e-01 1.252632e-01 1.509645e-01 1.695613e-01 1.981561e-01 2.199851e-01 2.516035e-01 2.767585e-01 3.113289e-01 3.396519e-01 3.768291e-01 4.078509e-01 4.469621e-01 4.798661e-01 5.198844e-01 5.535028e-01 5.930591e-01 6.259110e-01 6.633496e-01 6.937243e-01 7.272012e-01 7.532797e-01 7.808918e-01 8.008906e-01 8.208165e-01 8.331319e-01 8.437593e-01 8.470900e-01 8.471151e-01 8.405530e-01 8.290511e-01 8.121449e-01 7.886304e-01 7.614420e-01 7.259432e-01 6.891121e-01 6.422771e-01 5.970914e-01 5.403154e-01 4.887586e-01 4.242972e-01 3.690412e-01 3.001186e-01 2.445532e-01 1.758945e-01 1.253257e-01 7.099805e-02 5.657632e-02 8.955400e-02 1.244244e-01 1.745332e-01 2.050799e-01 2.475059e-01 2.692958e-01 3.024049e-01 3.162534e-01 3.412687e-01 3.494567e-01 3.679644e-01 3.724394e-01 3.853890e-01 3.871833e-01 3.946182e-01 3.939164e-01 3.954874e-01 3.920079e-01 3.877367e-01 3.814187e-01 3.724018e-01 3.640894e-01 3.526187e-01 3.437367e-01 3.321253e-01 3.238598e-01 3.136457e-01 3.066068e-01 2.984702e-01 2.927763e-01 2.867822e-01 2.822626e-01 2.781272e-01 2.744870e-01 2.717666e-01 2.686852e-01 2.668877e-01 2.640673e-01 2.627117e-01 2.598984e-01 2.585445e-01 2.555352e-01 2.537993e-01 
2.331107e-01 2.295859e-01 2.264128e-01 2.221785e-01 2.184212e-01 2.133153e-01 2.089648e-01 2.028890e-01 1.979754e-01 1.908908e-01 1.854766e-01 1.773982e-01 1.715693e-01 1.625571e-01 1.564128e-01 1.465607e-01 1.402020e-01 1.296252e-01 1.231436e-01 1.119666e-01 1.054338e-01 9.378473e-02 8.725047e-02 7.527444e-02 6.878727e-02 5.673505e-02 5.045423e-02 3.910529e-02 3.385942e-02 2.664979e-02 2.612365e-02 3.089020e-02 3.749297e-02 5.085585e-02 6.108053e-02 7.827776e-02 9.111198e-02 1.111837e-01 1.267151e-01 1.496580e-01 1.681694e-01 1.941546e-01 2.158842e-01 2.450243e-01 2.700526e-01 3.022826e-01 3.304508e-01 3.654443e-01 3.962908e-01 4.333999e-01 4.661209e-01 5.043447e-01 5.377889e-01 5.757803e-01 6.084843e-01 6.446013e-01 6.748713e-01 7.072718e-01 7.333032e-01 7.600745e-01 7.800976e-01 7.994006e-01 8.118269e-01 8.220326e-01 8.255845e-01 8.253857e-01 8.191960e-01 8.076903e-01 7.913756e-01 7.681348e-01 7.418584e-01 7.070062e-01 6.715456e-01 6.258676e-01 5.826885e-01 5.277793e-01 4.791046e-01 4.175744e-01 3.664813e-01 3.024083e-01 2.532912e-01 1.941399e-01 1.555699e-01 1.218448e-01 1.156291e-01 1.358687e-01 1.583744e-01 1.988886e-01 2.226215e-01 2.603134e-01 2.779720e-01 3.080626e-01 3.195645e-01 3.422678e-01 3.494918e-01 3.660603e-01 3.702473e-01 3.815510e-01 3.834922e-01 3.892718e-01 3.891576e-01 3.888515e-01 3.863369e-01 3.798897e-01 3.746948e-01 3.632395e-01 3.560894e-01 3.421752e-01 3.345083e-01 3.205942e-01 3.135878e-01 3.012153e-01 2.954425e-01 2.852469e-01 2.807898e-01 2.728021e-01 2.694650e-01 2.633923e-01 2.608663e-01 2.562767e-01 2.542338e-01 2.506599e-01 2.487989e-01 2.457908e-01 2.438561e-01 2.410070e-01 2.387946e-01 2.357528e-01 
2.508547e-01 2.487762e-01 2.451408e-01 2.420403e-01 2.378757e-01 2.335787e-01 2.288879e-01 2.232883e-01 2.181109e-01 2.111694e-01 2.055749e-01 1.973133e-01 1.913929e-01 1.818870e-01 1.757438e-01 1.651121e-01 1.588506e-01 1.472429e-01 1.409581e-01 1.285452e-01 1.223144e-01 1.092846e-01 1.031670e-01 8.974824e-02 8.380713e-02 7.036757e-02 6.476926e-02 5.220528e-02 4.759736e-02 3.873959e-02 3.736607e-02 3.848593e-02 4.305006e-02 5.483038e-02 6.379986e-02 8.135816e-02 9.337453e-02 1.146085e-01 1.295178e-01 1.539535e-01 1.719489e-01 1.995545e-01 2.208333e-01 2.516112e-01 2.762256e-01 3.100351e-01 3.377994e-01 3.742534e-01 4.046781e-01 4.430778e-01 4.753327e-01 5.146377e-01 5.475503e-01 5.863917e-01 6.184900e-01 6.552282e-01 6.848297e-01 7.176591e-01 7.429993e-01 7.700834e-01 7.894669e-01 8.090829e-01 8.210302e-01 8.316948e-01 8.350612e-01 8.356179e-01 8.296716e-01 8.193397e-01 8.038062e-01 7.822162e-01 7.573172e-01 7.245745e-01 6.910896e-01 6.479041e-01 6.072689e-01 5.551741e-01 5.096000e-01 4.512877e-01 4.039210e-01 3.438588e-01 2.992242e-01 2.453210e-01 2.109521e-01 1.786352e-01 1.667900e-01 1.724460e-01 1.837653e-01 2.129878e-01 2.303953e-01 2.622894e-01 2.760640e-01 3.031569e-01 3.114391e-01 3.328956e-01 3.374262e-01 3.539074e-01 3.561952e-01 3.683229e-01 3.691105e-01 3.764575e-01 3.758378e-01 3.776307e-01 3.750321e-01 3.709062e-01 3.656490e-01 3.564420e-01 3.491332e-01 3.376876e-01 3.298661e-01 3.187541e-01 3.116090e-01 3.022659e-01 2.963256e-01 2.892301e-01 2.845368e-01 2.795957e-01 2.759379e-01 2.727782e-01 2.698509e-01 2.679918e-01 2.654833e-01 2.644258e-01 2.620566e-01 2.613273e-01 2.588648e-01 2.580361e-01 2.552985e-01 2.539993e-01 
2.334508e-01 2.304224e-01 2.275302e-01 2.236981e-01 2.201912e-01 2.154057e-01 2.112964e-01 2.054703e-01 2.008067e-01 1.939140e-01 1.887741e-01 1.808465e-01 1.753315e-01 1.664524e-01 1.606785e-01 1.509760e-01 1.450665e-01 1.347069e-01 1.287863e-01 1.179715e-01 1.121653e-01 1.011464e-01 9.559506e-02 8.472328e-02 7.963266e-02 6.950988e-02 6.528836e-02 5.712975e-02 5.467133e-02 5.078067e-02 5.155262e-02 5.435153e-02 5.919072e-02 6.851822e-02 7.692332e-02 9.107371e-02 1.025212e-01 1.204230e-01 1.348367e-01 1.561295e-01 1.736531e-01 1.982788e-01 2.190635e-01 2.469970e-01 2.710657e-01 3.021559e-01 3.293093e-01 3.631752e-01 3.929251e-01 4.288888e-01 4.604195e-01 4.974729e-01 5.296394e-01 5.664522e-01 5.978202e-01 6.327929e-01 6.617266e-01 6.930890e-01 7.178775e-01 7.438222e-01 7.628294e-01 7.816583e-01 7.934721e-01 8.037311e-01 8.072892e-01 8.078692e-01 8.025503e-01 7.927520e-01 7.784351e-01 7.580161e-01 7.351296e-01 7.043707e-01 6.739512e-01 6.337857e-01 5.975545e-01 5.498023e-01 5.102430e-01 4.579961e-01 4.184244e-01 3.666859e-01 3.313868e-01 2.880614e-01 2.624492e-01 2.383153e-01 2.273153e-01 2.287207e-01 2.307834e-01 2.497203e-01 2.568687e-01 2.803911e-01 2.864510e-01 3.075681e-01 3.111014e-01 3.283574e-01 3.309203e-01 3.443315e-01 3.454558e-01 3.556931e-01 3.559732e-01 3.616770e-01 3.615487e-01 3.614919e-01 3.603551e-01 3.540351e-01 3.505596e-01 3.386945e-01 3.331437e-01 3.192647e-01 3.132800e-01 3.001842e-01 2.949383e-01 2.839341e-01 2.798696e-01 2.712600e-01 2.683464e-01 2.619269e-01 2.599122e-01 2.552674e-01 2.538318e-01 2.504844e-01 2.493163e-01 2.467963e-01 2.456242e-01 2.434982e-01 2.421010e-01 2.399846e-01 2.381929e-01 2.357565e-01 
2.517282e-01 2.503514e-01 2.470371e-01 2.445056e-01 2.406101e-01 2.367618e-01 2.323107e-01 2.270516e-01 2.221035e-01 2.154084e-01 2.100494e-01 2.019601e-01 1.962975e-01 1.869177e-01 1.810726e-01 1.705609e-01 1.646606e-01 1.532237e-01 1.473954e-01 1.352850e-01 1.296539e-01 1.171766e-01 1.118749e-01 9.943639e-02 9.463899e-02 8.287033e-02 7.889124e-02 6.894688e-02 6.644295e-02 6.044510e-02 6.057912e-02 6.119816e-02 6.501072e-02 7.304393e-02 8.050829e-02 9.448729e-02 1.051825e-01 1.236621e-01 1.374657e-01 1.597535e-01 1.767675e-01 2.026031e-01 2.229480e-01 2.521779e-01 2.758449e-01 3.082217e-01 3.349723e-01 3.700317e-01 3.993311e-01 4.363197e-01 4.673029e-01 5.051486e-01 5.366267e-01 5.739561e-01 6.044703e-01 6.396763e-01 6.676008e-01 6.989589e-01 7.226458e-01 7.484633e-01 7.664078e-01 7.851781e-01 7.961712e-01 8.066954e-01 8.099339e-01 8.113807e-01 8.065146e-01 7.984178e-01 7.855459e-01 7.677760e-01 7.474292e-01 7.202046e-01 6.933655e-01 6.573770e-01 6.255542e-01 5.822543e-01 5.475717e-01 4.996317e-01 4.648443e-01 4.167138e-01 3.850865e-01 3.434053e-01 3.184197e-01 2.912333e-01 2.757228e-01 2.681419e-01 2.621497e-01 2.705869e-01 2.701293e-01 2.854282e-01 2.851626e-01 3.011502e-01 2.985538e-01 3.134681e-01 3.109040e-01 3.233355e-01 3.212721e-01 3.318263e-01 3.303020e-01 3.374957e-01 3.369386e-01 3.392678e-01 3.388572e-01 3.353573e-01 3.327450e-01 3.231371e-01 3.181921e-01 3.070389e-01 3.016325e-01 2.918770e-01 2.871629e-01 2.798310e-01 2.761673e-01 2.712877e-01 2.685955e-01 2.657927e-01 2.638156e-01 2.625844e-01 2.610245e-01 2.608433e-01 2.594223e-01 2.597974e-01 2.582795e-01 2.587614e-01 2.569591e-01 2.571483e-01 2.549221e-01 2.544727e-01 
2.340943e-01 2.318642e-01 2.294104e-01 2.262287e-01 2.231194e-01 2.188529e-01 2.151327e-01 2.097096e-01 2.054528e-01 1.988646e-01 1.941705e-01 1.864721e-01 1.814602e-01 1.727685e-01 1.675730e-01 1.580636e-01 1.528295e-01 1.427350e-01 1.376171e-01 1.272311e-01 1.223979e-01 1.120926e-01 1.077426e-01 9.801364e-02 9.441078e-02 8.596464e-02 8.349761e-02 7.735755e-02 7.658967e-02 7.404899e-02 7.562976e-02 7.776422e-02 8.214146e-02 8.919743e-02 9.648632e-02 1.080330e-01 1.182382e-01 1.337790e-01 1.469797e-01 1.662243e-01 1.825582e-01 2.053650e-01 2.249300e-01 2.511646e-01 2.739177e-01 3.033269e-01 3.290035e-01 3.611234e-01 3.891805e-01 4.232774e-01 4.528661e-01 4.879127e-01 5.178884e-01 5.525804e-01 5.815567e-01 6.143739e-01 6.408234e-01 6.701355e-01 6.925275e-01 7.167327e-01 7.336890e-01 7.513612e-01 7.618023e-01 7.718169e-01 7.750761e-01 7.766891e-01 7.725840e-01 7.654611e-01 7.543269e-01 7.385411e-01 7.212347e-01 6.972718e-01 6.751562e-01 6.439808e-01 6.188675e-01 5.821036e-01 5.560839e-01 5.163153e-01 4.914020e-01 4.524479e-01 4.300587e-01 3.968008e-01 3.773638e-01 3.544702e-01 3.376093e-01 3.271118e-01 3.124355e-01 3.120731e-01 2.994865e-01 3.044585e-01 2.934294e-01 3.005062e-01 2.912002e-01 3.001171e-01 2.964411e-01 3.043217e-01 3.001049e-01 3.090822e-01 3.056790e-01 3.113126e-01 3.107523e-01 3.110739e-01 3.129550e-01 3.073882e-01 3.078273e-01 2.952611e-01 2.930557e-01 2.797741e-01 2.771259e-01 2.660672e-01 2.640819e-01 2.558154e-01 2.547238e-01 2.489602e-01 2.486084e-01 2.448339e-01 2.449424e-01 2.426223e-01 2.428987e-01 2.415365e-01 2.417219e-01 2.408726e-01 2.407569e-01 2.400278e-01 2.394514e-01 2.384995e-01 2.373511e-01 2.358821e-01 
2.531500e-01 2.527865e-01 2.499143e-01 2.482095e-01 2.446916e-01 2.414967e-01 2.373882e-01 2.326223e-01 2.280057e-01 2.216601e-01 2.166412e-01 2.087821e-01 2.034856e-01 1.942525e-01 1.888172e-01 1.784197e-01 1.729942e-01 1.617084e-01 1.564488e-01 1.446177e-01 1.396885e-01 1.277339e-01 1.233182e-01 1.117771e-01 1.081018e-01 9.770497e-02 9.508917e-02 8.687777e-02 8.579347e-02 8.115490e-02 8.221272e-02 8.251873e-02 8.625953e-02 9.212465e-02 9.880343e-02 1.099083e-01 1.196000e-01 1.353118e-01 1.481107e-01 1.679531e-01 1.839934e-01 2.076736e-01 2.270361e-01 2.543002e-01 2.769060e-01 3.073925e-01 3.329186e-01 3.660534e-01 3.938771e-01 4.288121e-01 4.579910e-01 4.935878e-01 5.228842e-01 5.577486e-01 5.857066e-01 6.182763e-01 6.433538e-01 6.720384e-01 6.927821e-01 7.161372e-01 7.313720e-01 7.482711e-01 7.572608e-01 7.670089e-01 7.695448e-01 7.718865e-01 7.682743e-01 7.632899e-01 7.542414e-01 7.421790e-01 7.286605e-01 7.098034e-01 6.929093e-01 6.675895e-01 6.484700e-01 6.173321e-01 5.971187e-01 5.616329e-01 5.412519e-01 5.042364e-01 4.840928e-01 4.496972e-01 4.294974e-01 4.020383e-01 3.812601e-01 3.630374e-01 3.420815e-01 3.318904e-01 3.123451e-01 3.073938e-01 2.892244e-01 2.899336e-01 2.710075e-01 2.783629e-01 2.657738e-01 2.715235e-01 2.631141e-01 2.713761e-01 2.650793e-01 2.718489e-01 2.706587e-01 2.736135e-01 2.775996e-01 2.763141e-01 2.795221e-01 2.693198e-01 2.690766e-01 2.594005e-01 2.584370e-01 2.517930e-01 2.511563e-01 2.474793e-01 2.473441e-01 2.460253e-01 2.462622e-01 2.466665e-01 2.470578e-01 2.486127e-01 2.489337e-01 2.511330e-01 2.511862e-01 2.535818e-01 2.532090e-01 2.554019e-01 2.544857e-01 2.561215e-01 2.545836e-01 2.553514e-01 
2.351364e-01 2.339666e-01 2.320662e-01 2.297566e-01 2.271650e-01 2.235981e-01 2.203989e-01 2.155168e-01 2.118137e-01 2.056249e-01 2.015377e-01 1.941221e-01 1.897832e-01 1.812940e-01 1.768458e-01 1.675099e-01 1.631042e-01 1.532220e-01 1.490217e-01 1.389696e-01 1.351540e-01 1.253921e-01 1.221677e-01 1.132559e-01 1.108703e-01 1.034859e-01 1.022427e-01 9.716939e-02 9.742601e-02 9.545967e-02 9.758869e-02 9.934594e-02 1.036748e-01 1.094395e-01 1.162295e-01 1.260001e-01 1.354786e-01 1.491426e-01 1.615226e-01 1.789641e-01 1.944106e-01 2.155008e-01 2.340629e-01 2.585882e-01 2.801268e-01 3.077111e-01 3.318419e-01 3.618882e-01 3.879476e-01 4.196094e-01 4.466535e-01 4.788411e-01 5.056852e-01 5.371110e-01 5.624176e-01 5.916826e-01 6.140941e-01 6.398110e-01 6.581106e-01 6.790471e-01 6.923153e-01 7.075298e-01 7.152633e-01 7.241967e-01 7.263787e-01 7.288826e-01 7.260120e-01 7.223152e-01 7.153956e-01 7.060170e-01 6.964699e-01 6.820702e-01 6.715115e-01 6.527103e-01 6.425320e-01 6.198258e-01 6.105983e-01 5.845894e-01 5.755166e-01 5.474841e-01 5.363296e-01 5.086324e-01 4.923851e-01 4.677919e-01 4.439837e-01 4.237454e-01 3.922455e-01 3.747022e-01 3.395547e-01 3.227979e-01 2.903384e-01 2.781145e-01 2.505028e-01 2.504119e-01 2.434968e-01 2.415689e-01 2.280980e-01 2.372093e-01 2.255282e-01 2.306007e-01 2.277454e-01 2.274166e-01 2.349240e-01 2.320606e-01 2.415996e-01 2.285072e-01 2.329446e-01 2.225565e-01 2.258170e-01 2.192830e-01 2.224362e-01 2.188220e-01 2.219860e-01 2.204230e-01 2.235007e-01 2.233408e-01 2.261708e-01 2.269018e-01 2.293128e-01 2.305076e-01 2.323515e-01 2.336435e-01 2.348092e-01 2.358769e-01 2.362931e-01 2.368523e-01 2.364852e-01 2.362861e-01 
2.552207e-01 2.561411e-01 2.537885e-01 2.531424e-01 2.500828e-01 2.477290e-01 2.440499e-01 2.399153e-01 2.357233e-01 2.298131e-01 2.252310e-01 2.176354e-01 2.127999e-01 2.036967e-01 1.987559e-01 1.884096e-01 1.835219e-01 1.722813e-01 1.676157e-01 1.559119e-01 1.516515e-01 1.400016e-01 1.363496e-01 1.253699e-01 1.225622e-01 1.129901e-01 1.113101e-01 1.040150e-01 1.038049e-01 9.972866e-02 1.013724e-01 1.013392e-01 1.052097e-01 1.096875e-01 1.161026e-01 1.251557e-01 1.343879e-01 1.478583e-01 1.601506e-01 1.778346e-01 1.933657e-01 2.150418e-01 2.338501e-01 2.592081e-01 2.811102e-01 3.096600e-01 3.341855e-01 3.651876e-01 3.915437e-01 4.239789e-01 4.510545e-01 4.836418e-01 5.100661e-01 5.413361e-01 5.656033e-01 5.940310e-01 6.146910e-01 6.388844e-01 6.547787e-01 6.736983e-01 6.841940e-01 6.973539e-01 7.025094e-01 7.100740e-01 7.106751e-01 7.133643e-01 7.107835e-01 7.095633e-01 7.054334e-01 7.010729e-01 6.968487e-01 6.894881e-01 6.860263e-01 6.749433e-01 6.722028e-01 6.560434e-01 6.529606e-01 6.306324e-01 6.252069e-01 5.971675e-01 5.867800e-01 5.557135e-01 5.377169e-01 5.073637e-01 4.799943e-01 4.520481e-01 4.158070e-01 3.875032e-01 3.475706e-01 3.167912e-01 2.797100e-01 2.611896e-01 2.191980e-01 2.249732e-01 1.983001e-01 1.919983e-01 1.761814e-01 1.809571e-01 1.643564e-01 1.692253e-01 1.646353e-01 1.658187e-01 1.768365e-01 1.813203e-01 1.989412e-01 1.897099e-01 1.987515e-01 1.947262e-01 2.012395e-01 2.009760e-01 2.062590e-01 2.082768e-01 2.127224e-01 2.162186e-01 2.200028e-01 2.244441e-01 2.275909e-01 2.325377e-01 2.349976e-01 2.400614e-01 2.417703e-01 2.466002e-01 2.475065e-01 2.517799e-01 2.518544e-01 2.552725e-01 2.545103e-01 2.567999e-01 
2.366691e-01 2.367726e-01 2.354870e-01 2.342414e-01 2.322551e-01 2.295496e-01 2.269873e-01 2.227699e-01 2.197619e-01 2.140518e-01 2.107301e-01 2.036274e-01 2.001226e-01 1.918139e-01 1.882556e-01 1.790157e-01 1.755356e-01 1.657256e-01 1.624627e-01 1.525259e-01 1.496349e-01 1.400898e-01 1.377506e-01 1.291812e-01 1.276070e-01 1.206424e-01 1.200851e-01 1.153605e-01 1.161097e-01 1.142029e-01 1.165784e-01 1.179440e-01 1.222861e-01 1.272262e-01 1.338853e-01 1.425761e-01 1.518898e-01 1.644195e-01 1.766653e-01 1.930338e-01 2.083603e-01 2.284344e-01 2.467874e-01 2.702385e-01 2.913008e-01 3.175536e-01 3.407069e-01 3.689166e-01 3.932363e-01 4.223060e-01 4.466000e-01 4.752446e-01 4.981511e-01 5.250123e-01 5.451645e-01 5.689700e-01 5.852176e-01 6.049620e-01 6.166014e-01 6.317091e-01 6.386432e-01 6.490586e-01 6.518173e-01 6.579801e-01 6.576278e-01 6.603451e-01 6.583839e-01 6.586721e-01 6.569685e-01 6.558675e-01 6.564389e-01 6.546195e-01 6.590550e-01 6.561449e-01 6.646285e-01 6.587051e-01 6.690642e-01 6.572110e-01 6.648338e-01 6.451322e-01 6.441862e-01 6.178632e-01 6.030874e-01 5.742950e-01 5.421099e-01 5.137901e-01 4.626863e-01 4.307701e-01 3.666741e-01 3.242198e-01 2.681481e-01 2.301104e-01 1.762440e-01 1.731353e-01 1.743994e-01 1.572521e-01 1.193076e-01 1.338916e-01 1.073775e-01 1.064091e-01 9.769706e-02 9.007992e-02 1.038623e-01 1.023841e-01 1.390321e-01 1.336310e-01 1.506166e-01 1.502383e-01 1.630036e-01 1.648649e-01 1.749038e-01 1.777596e-01 1.859586e-01 1.894950e-01 1.963653e-01 2.003330e-01 2.060639e-01 2.101936e-01 2.148304e-01 2.188593e-01 2.224091e-01 2.260911e-01 2.285655e-01 2.316685e-01 2.330988e-01 2.354024e-01 2.358433e-01 2.371403e-01 
2.580158e-01 2.604467e-01 2.586411e-01 2.592608e-01 2.567104e-01 2.553710e-01 2.521939e-01 2.488183e-01 2.451402e-01 2.397383e-01 2.356906e-01 2.283710e-01 2.240895e-01 2.150659e-01 2.106909e-01 2.002820e-01 1.959605e-01 1.845854e-01 1.804756e-01 1.686457e-01 1.649223e-01 1.532318e-01 1.500934e-01 1.392083e-01 1.368847e-01 1.275269e-01 1.262845e-01 1.192002e-01 1.193449e-01 1.152440e-01 1.171190e-01 1.165916e-01 1.205700e-01 1.240241e-01 1.304970e-01 1.381622e-01 1.475122e-01 1.594876e-01 1.720332e-01 1.883058e-01 2.042208e-01 2.246260e-01 2.438525e-01 2.680020e-01 2.901748e-01 3.173872e-01 3.417811e-01 3.710420e-01 3.965518e-01 4.265208e-01 4.516924e-01 4.807748e-01 5.039144e-01 5.304094e-01 5.497945e-01 5.721266e-01 5.863216e-01 6.033379e-01 6.115743e-01 6.228677e-01 6.253882e-01 6.315641e-01 6.297987e-01 6.325397e-01 6.290051e-01 6.307375e-01 6.285829e-01 6.316795e-01 6.338282e-01 6.395990e-01 6.477546e-01 6.556062e-01 6.695518e-01 6.765887e-01 6.939471e-01 6.953775e-01 7.117913e-01 7.026425e-01 7.124844e-01 6.904942e-01 6.881344e-01 6.559939e-01 6.373336e-01 6.014094e-01 5.649501e-01 5.287677e-01 4.746264e-01 4.289741e-01 3.649394e-01 2.934927e-01 2.448987e-01 2.064586e-01 1.497218e-01 1.785393e-01 8.772406e-02 1.000851e-01 5.772580e-02 4.919796e-02 2.791320e-02 1.663293e-02 1.611819e-02 1.411326e-02 1.352038e-02 1.767236e-02 6.751503e-02 8.538817e-02 1.093875e-01 1.216413e-01 1.386962e-01 1.481676e-01 1.600153e-01 1.687271e-01 1.777389e-01 1.864047e-01 1.936072e-01 2.022676e-01 2.080398e-01 2.165228e-01 2.210104e-01 2.290915e-01 2.323674e-01 2.398090e-01 2.419290e-01 2.484863e-01 2.495089e-01 2.549324e-01 2.549262e-01 2.589692e-01 
2.387362e-01 2.402758e-01 2.396066e-01 2.395896e-01 2.382632e-01 2.365678e-01 2.347476e-01 2.313117e-01 2.291462e-01 2.239865e-01 2.216032e-01 2.148294e-01 2.123329e-01 2.041572e-01 2.016325e-01 1.923699e-01 1.898916e-01 1.799541e-01 1.776000e-01 1.674832e-01 1.653501e-01 1.556135e-01 1.538346e-01 1.450754e-01 1.438359e-01 1.366567e-01 1.362068e-01 1.311810e-01 1.318459e-01 1.294893e-01 1.316732e-01 1.324347e-01 1.366117e-01 1.408808e-01 1.475586e-01 1.556662e-01 1.653122e-01 1.774944e-01 1.904363e-01 2.067595e-01 2.230861e-01 2.433597e-01 2.628412e-01 2.865433e-01 3.085756e-01 3.348079e-01 3.583830e-01 3.858678e-01 4.095848e-01 4.367232e-01 4.588638e-01 4.838769e-01 5.025813e-01 5.237501e-01 5.373255e-01 5.533259e-01 5.606863e-01 5.709653e-01 5.721092e-01 5.771876e-01 5.734816e-01 5.750042e-01 5.689958e-01 5.693699e-01 5.641372e-01 5.658318e-01 5.643687e-01 5.693361e-01 5.743288e-01 5.838359e-01 5.974789e-01 6.116996e-01 6.349190e-01 6.517196e-01 6.827289e-01 6.965173e-01 7.295394e-01 7.322440e-01 7.580256e-01 7.433546e-01 7.520708e-01 7.208189e-01 7.054339e-01 6.668528e-01 6.240190e-01 5.887831e-01 5.119933e-01 4.733202e-01 3.587526e-01 2.853038e-01 2.112688e-01 1.332069e-01 1.113284e-01 1.369386e-01 2.272130e-02 3.266526e-02 2.851183e-02 3.484373e-02 2.772599e-02 3.532113e-02 2.942309e-02 3.206383e-02 2.799088e-02 3.845825e-02 1.044066e-02 3.500311e-02 7.062137e-02 8.535671e-02 1.076191e-01 1.173040e-01 1.329955e-01 1.413998e-01 1.537186e-01 1.617389e-01 1.717891e-01 1.794970e-01 1.876874e-01 1.949793e-01 2.015053e-01 2.082461e-01 2.132400e-01 2.192828e-01 2.228643e-01 2.280486e-01 2.303437e-01 2.344952e-01 2.356438e-01 2.385793e-01 
2.615325e-01 2.656633e-01 2.643803e-01 2.664570e-01 2.644390e-01 2.642839e-01 2.616734e-01 2.591850e-01 2.561176e-01 2.512947e-01 2.478955e-01 2.408548e-01 2.372381e-01 2.282228e-01 2.244952e-01 2.138749e-01 2.101422e-01 1.984025e-01 1.947794e-01 1.825047e-01 1.791278e-01 1.669772e-01 1.640184e-01 1.526960e-01 1.503764e-01 1.405965e-01 1.392000e-01 1.316475e-01 1.315336e-01 1.268286e-01 1.284411e-01 1.271204e-01 1.309826e-01 1.335060e-01 1.401825e-01 1.469393e-01 1.569520e-01 1.682311e-01 1.819484e-01 1.978608e-01 2.153927e-01 2.357736e-01 2.568887e-01 2.812055e-01 3.052633e-01 3.325440e-01 3.584396e-01 3.872369e-01 4.133723e-01 4.417887e-01 4.661085e-01 4.919190e-01 5.120623e-01 5.329745e-01 5.466073e-01 5.606772e-01 5.660438e-01 5.722212e-01 5.688664e-01 5.675904e-01 5.570534e-01 5.507614e-01 5.369176e-01 5.301801e-01 5.189042e-01 5.175288e-01 5.152999e-01 5.239196e-01 5.351359e-01 5.547263e-01 5.797715e-01 6.072743e-01 6.430920e-01 6.722107e-01 7.133647e-01 7.349671e-01 7.735693e-01 7.774602e-01 8.036456e-01 7.837592e-01 7.878044e-01 7.478379e-01 7.232641e-01 6.764702e-01 6.240728e-01 5.828060e-01 5.014853e-01 4.449613e-01 3.374878e-01 1.803846e-01 1.091248e-01 6.426886e-02 6.725164e-02 1.521988e-01 1.205829e-01 3.968994e-02 5.321537e-02 1.591131e-02 1.233548e-02 4.724023e-02 4.294978e-02 6.046217e-02 5.744197e-02 7.210408e-02 6.499015e-02 6.046449e-02 7.569541e-02 8.339727e-02 9.973460e-02 1.114072e-01 1.252386e-01 1.377563e-01 1.493106e-01 1.618251e-01 1.713486e-01 1.835044e-01 1.911927e-01 2.027876e-01 2.088009e-01 2.196700e-01 2.241454e-01 2.341144e-01 2.371780e-01 2.460455e-01 2.478221e-01 2.553588e-01 2.559775e-01 2.619357e-01 
2.412762e-01 2.443728e-01 2.442606e-01 2.456205e-01 2.449795e-01 2.444425e-01 2.434699e-01 2.409392e-01 2.397881e-01 2.352572e-01 2.340258e-01 2.275991e-01 2.263304e-01 2.182334e-01 2.169247e-01 2.075037e-01 2.061263e-01 1.958345e-01 1.943610e-01 1.837357e-01 1.821707e-01 1.718017e-01 1.702137e-01 1.607097e-01 1.592618e-01 1.512200e-01 1.501997e-01 1.441904e-01 1.440376e-01 1.406136e-01 1.419380e-01 1.416670e-01 1.452289e-01 1.487108e-01 1.553262e-01 1.631403e-01 1.735089e-01 1.860814e-01 2.006070e-01 2.180618e-01 2.367381e-01 2.587838e-01 2.811390e-01 3.069927e-01 3.320476e-01 3.603784e-01 3.866040e-01 4.155129e-01 4.408164e-01 4.678907e-01 4.896805e-01 5.121832e-01 5.275896e-01 5.428447e-01 5.491921e-01 5.552084e-01 5.508300e-01 5.471337e-01 5.324891e-01 5.209921e-01 4.996814e-01 4.851598e-01 4.638834e-01 4.532313e-01 4.397371e-01 4.391705e-01 4.390750e-01 4.510415e-01 4.664022e-01 4.901304e-01 5.209411e-01 5.546384e-01 6.001425e-01 6.400570e-01 6.971311e-01 7.340928e-01 7.937522e-01 8.126152e-01 8.597255e-01 8.466285e-01 8.655541e-01 8.193742e-01 8.002195e-01 7.380550e-01 6.818583e-01 6.345390e-01 5.235879e-01 4.934585e-01 2.440460e-01 1.411575e-01 1.194601e-01 3.336438e-02 1.396057e-01 1.059060e-01 1.605340e-01 1.517085e-01 1.302872e-01 1.361163e-01 1.247294e-01 1.146164e-01 1.201281e-01 9.904242e-02 1.220650e-01 9.770824e-02 1.059430e-01 6.319604e-02 7.475228e-02 6.875536e-02 8.540015e-02 9.175060e-02 1.079164e-01 1.177024e-01 1.317998e-01 1.422252e-01 1.540496e-01 1.642361e-01 1.739088e-01 1.835436e-01 1.912387e-01 2.001667e-01 2.060606e-01 2.141549e-01 2.184278e-01 2.255469e-01 2.283922e-01 2.343672e-01 2.359967e-01 2.406347e-01 
2.656284e-01 2.716272e-01 2.707961e-01 2.745223e-01 2.730393e-01 2.742521e-01 2.722772e-01 2.708217e-01 2.684869e-01 2.643284e-01 2.617319e-01 2.549799e-01 2.521857e-01 2.431051e-01 2.401506e-01 2.291582e-01 2.260677e-01 2.137136e-01 2.105178e-01 1.974547e-01 1.942145e-01 1.811585e-01 1.779917e-01 1.656782e-01 1.627896e-01 1.519325e-01 1.496487e-01 1.409143e-01 1.397248e-01 1.337381e-01 1.343295e-01 1.317181e-01 1.349611e-01 1.363947e-01 1.432205e-01 1.493639e-01 1.605369e-01 1.719000e-01 1.878166e-01 2.045931e-01 2.252094e-01 2.471685e-01 2.719905e-01 2.983930e-01 3.264354e-01 3.559432e-01 3.856426e-01 4.162387e-01 4.453640e-01 4.743343e-01 4.999610e-01 5.240167e-01 5.426599e-01 5.582999e-01 5.663413e-01 5.705344e-01 5.650910e-01 5.562669e-01 5.365368e-01 5.157574e-01 4.846040e-01 4.568364e-01 4.221499e-01 3.976367e-01 3.728938e-01 3.662087e-01 3.664724e-01 3.861613e-01 4.147651e-01 4.547600e-01 5.030558e-01 5.534867e-01 6.138356e-01 6.667203e-01 7.336847e-01 7.774313e-01 8.415796e-01 8.587471e-01 9.050362e-01 8.823767e-01 8.943500e-01 8.369031e-01 7.998094e-01 7.323676e-01 6.504668e-01 6.138632e-01 4.714791e-01 4.346496e-01 2.372405e-01 1.714044e-01 1.082180e-01 1.231094e-01 1.591012e-01 2.993205e-01 1.777072e-01 5.792770e-02 1.255236e-01 4.482149e-02 8.948107e-02 2.128309e-02 7.399537e-02 1.166694e-02 6.803354e-02 1.184200e-02 6.048956e-02 4.691594e-02 5.733784e-02 6.149446e-02 7.777536e-02 8.948960e-02 1.041709e-01 1.183309e-01 1.309424e-01 1.455896e-01 1.561416e-01 1.705424e-01 1.791388e-01 1.929853e-01 1.997611e-01 2.128658e-01 2.179652e-01 2.301480e-01 2.337214e-01 2.447698e-01 2.469771e-01 2.566364e-01 2.576488e-01 2.656299e-01 
2.440626e-01 2.488112e-01 2.491393e-01 2.520259e-01 2.520742e-01 2.528626e-01 2.528596e-01 2.513847e-01 2.514703e-01 2.476748e-01 2.478842e-01 2.418462e-01 2.421120e-01 2.340577e-01 2.342324e-01 2.245302e-01 2.244239e-01 2.135618e-01 2.129900e-01 2.015389e-01 2.003739e-01 1.889458e-01 1.871656e-01 1.763744e-01 1.741111e-01 1.645502e-01 1.621411e-01 1.543965e-01 1.524453e-01 1.471609e-01 1.466013e-01 1.445823e-01 1.466792e-01 1.489337e-01 1.550896e-01 1.626575e-01 1.739985e-01 1.876040e-01 2.046233e-01 2.244295e-01 2.469325e-01 2.724924e-01 2.996846e-01 3.299210e-01 3.604091e-01 3.935283e-01 4.252210e-01 4.586058e-01 4.886004e-01 5.187727e-01 5.433211e-01 5.660861e-01 5.807554e-01 5.916649e-01 5.918750e-01 5.871567e-01 5.693610e-01 5.473814e-01 5.111206e-01 4.742955e-01 4.249691e-01 3.820403e-01 3.335275e-01 3.019814e-01 2.762379e-01 2.764201e-01 2.873334e-01 3.167987e-01 3.533719e-01 3.964152e-01 4.478240e-01 4.999294e-01 5.663480e-01 6.281758e-01 7.117150e-01 7.749065e-01 8.662069e-01 9.055083e-01 9.801285e-01 9.669745e-01 1.000334e+00 9.288456e-01 9.040675e-01 7.963251e-01 7.348052e-01 6.650813e-01 5.597492e-01 4.674943e-01 1.266036e-01 9.053596e-02 1.636228e-01 2.822266e-01 3.181316e-01 8.545300e-02 6.207384e-02 2.421871e-02 1.040489e-02 5.941311e-02 1.025535e-02 6.735771e-02 1.769818e-02 7.063577e-02 2.819153e-02 6.805076e-02 4.602865e-02 5.336204e-03 4.693156e-02 4.788797e-02 7.222534e-02 7.973637e-02 9.765688e-02 1.076749e-01 1.223301e-01 1.332795e-01 1.454636e-01 1.565445e-01 1.665281e-01 1.773359e-01 1.852868e-01 1.955886e-01 2.016698e-01 2.112861e-01 2.156876e-01 2.244351e-01 2.273864e-01 2.350537e-01 2.368257e-01 2.431677e-01 