# vtk DataFile Version 2.0
Comment goes here
ASCII

DATASET STRUCTURED_POINTS
DIMENSIONS    128   128   1

ORIGIN    0.000   0.000   0.000
SPACING   0.0156250.015625   1.000

POINT_DATA   16384
SCALARS uMag double
LOOKUP_TABLE default

1.581186e-02 1.673671e-02 1.707601e-02 1.776419e-02 1.797539e-02 1.842484e-02 1.851259e-02 1.872382e-02 1.869381e-02 1.867060e-02 1.852999e-02 1.828002e-02 1.803783e-02 1.757309e-02 1.724046e-02 1.657755e-02 1.616796e-02 1.532820e-02 1.485768e-02 1.386718e-02 1.335449e-02 1.224408e-02 1.171098e-02 1.051617e-02 9.987624e-03 8.748453e-03 8.252911e-03 7.013787e-03 6.583317e-03 5.392622e-03 5.062867e-03 3.972307e-03 3.782043e-03 2.845513e-03 2.835636e-03 2.107411e-03 2.319105e-03 1.851143e-03 2.323031e-03 2.161215e-03 2.925327e-03 3.104571e-03 4.181122e-03 4.719450e-03 6.110639e-03 7.002637e-03 8.686015e-03 9.896437e-03 1.181879e-02 1.327752e-02 1.535069e-02 1.695058e-02 1.905075e-02 2.064998e-02 2.262206e-02 2.405216e-02 2.572008e-02 2.679975e-02 2.798227e-02 2.853574e-02 2.906579e-02 2.894276e-02 2.868723e-02 2.778093e-02 2.665753e-02 2.491803e-02 2.290724e-02 2.034925e-02 1.750149e-02 1.420822e-02 1.064809e-02 6.773428e-03 2.702334e-03 1.528254e-03 5.833365e-03 1.012695e-02 1.432593e-02 1.834251e-02 2.206597e-02 2.546272e-02 2.837473e-02 3.087608e-02 3.275666e-02 3.423079e-02 3.504950e-02 3.555573e-02 3.549785e-02 3.527391e-02 3.469631e-02 3.408383e-02 3.340906e-02 3.274156e-02 3.231879e-02 3.180205e-02 3.177829e-02 3.141499e-02 3.168505e-02 3.128962e-02 3.155256e-02 3.084282e-02 3.073600e-02 2.945902e-02 2.870497e-02 2.675578e-02 2.532435e-02 2.283287e-02 2.099936e-02 1.824302e-02 1.631335e-02 1.351760e-02 1.167081e-02 8.957058e-03 7.261634e-03 4.685396e-03 3.157164e-03 7.464753e-04 6.155817e-04 2.842609e-03 4.043203e-03 6.073145e-03 7.117597e-03 8.940235e-03 9.833974e-03 1.144132e-02 1.218961e-02 1.357502e-02 1.418273e-02 1.534038e-02 
1.360440e-02 1.439270e-02 1.477469e-02 1.536981e-02 1.561603e-02 1.601730e-02 1.613141e-02 1.634008e-02 1.632712e-02 1.634689e-02 1.621365e-02 1.605117e-02 1.580650e-02 1.547182e-02 1.512686e-02 1.463371e-02 1.420209e-02 1.356815e-02 1.306611e-02 1.231315e-02 1.175971e-02 1.091370e-02 1.033079e-02 9.421979e-03 8.834657e-03 7.897540e-03 7.334063e-03 6.407242e-03 5.899095e-03 5.024819e-03 4.606543e-03 3.829899e-03 3.539086e-03 2.907391e-03 2.786353e-03 2.351326e-03 2.451001e-03 2.272366e-03 2.644596e-03 2.773953e-03 3.448144e-03 3.909833e-03 4.896581e-03 5.697805e-03 6.996086e-03 8.127443e-03 9.715742e-03 1.114135e-02 1.296853e-02 1.461859e-02 1.659875e-02 1.836670e-02 2.037841e-02 2.212324e-02 2.401390e-02 2.556838e-02 2.716473e-02 2.834965e-02 2.947373e-02 3.011664e-02 3.060544e-02 3.056100e-02 3.028647e-02 2.945465e-02 2.834084e-02 2.668061e-02 2.471676e-02 2.225625e-02 1.950988e-02 1.636385e-02 1.301896e-02 9.488755e-03 6.191172e-03 4.296633e-03 5.832156e-03 9.283634e-03 1.308262e-02 1.693729e-02 2.050439e-02 2.386796e-02 2.670071e-02 2.922205e-02 3.106749e-02 3.259028e-02 3.340203e-02 3.397669e-02 3.392343e-02 3.378975e-02 3.320960e-02 3.271706e-02 3.201903e-02 3.150588e-02 3.103774e-02 3.070555e-02 3.061949e-02 3.046464e-02 3.066373e-02 3.049597e-02 3.068925e-02 3.023465e-02 3.006499e-02 2.907809e-02 2.825926e-02 2.662892e-02 2.511768e-02 2.296125e-02 2.104932e-02 1.864328e-02 1.664460e-02 1.421148e-02 1.230440e-02 9.966326e-03 8.224537e-03 6.059729e-03 4.539925e-03 2.752142e-03 1.879685e-03 2.188304e-03 3.098386e-03 4.645798e-03 5.692336e-03 7.194365e-03 8.131709e-03 9.476839e-03 1.027799e-02 1.144413e-02 1.210475e-02 1.308398e-02 
1.604919e-02 1.696245e-02 1.728666e-02 1.796768e-02 1.816830e-02 1.861296e-02 1.869350e-02 1.890099e-02 1.886640e-02 1.883968e-02 1.869660e-02 1.844282e-02 1.819983e-02 1.773067e-02 1.739852e-02 1.673042e-02 1.632212e-02 1.547637e-02 1.500735e-02 1.401006e-02 1.349827e-02 1.238027e-02 1.184630e-02 1.064299e-02 1.011015e-02 8.861202e-03 8.355525e-03 7.104415e-03 6.654503e-03 5.447513e-03 5.084336e-03 3.968910e-03 3.726708e-03 2.750189e-03 2.673712e-03 1.892450e-03 2.059546e-03 1.579502e-03 2.080976e-03 2.001030e-03 2.822349e-03 3.109026e-03 4.226490e-03 4.850549e-03 6.268910e-03 7.222717e-03 8.927773e-03 1.018438e-02 1.212775e-02 1.362421e-02 1.572008e-02 1.735389e-02 1.947961e-02 2.111164e-02 2.311276e-02 2.457624e-02 2.627734e-02 2.739266e-02 2.861373e-02 2.920798e-02 2.978481e-02 2.971326e-02 2.951884e-02 2.868535e-02 2.765016e-02 2.602562e-02 2.415841e-02 2.180361e-02 1.922816e-02 1.635660e-02 1.344712e-02 1.073189e-02 8.832605e-03 8.614562e-03 1.033821e-02 1.325117e-02 1.668974e-02 2.021521e-02 2.362340e-02 2.676932e-02 2.949450e-02 3.182338e-02 3.354716e-02 3.486829e-02 3.551900e-02 3.586592e-02 3.561440e-02 3.521739e-02 3.442868e-02 3.364072e-02 3.277183e-02 3.196214e-02 3.141503e-02 3.082855e-02 3.078034e-02 3.042309e-02 3.075283e-02 3.041034e-02 3.077898e-02 3.014494e-02 3.016601e-02 2.898596e-02 2.834765e-02 2.650429e-02 2.513726e-02 2.274246e-02 2.097842e-02 1.832969e-02 1.649681e-02 1.383204e-02 1.210533e-02 9.579789e-03 8.051982e-03 5.865025e-03 4.712585e-03 3.570799e-03 3.464047e-03 4.420844e-03 5.206780e-03 6.891902e-03 7.782374e-03 9.472744e-03 1.028813e-02 1.183200e-02 1.253315e-02 1.388436e-02 1.446104e-02 1.559913e-02 
1.407858e-02 1.483672e-02 1.517697e-02 1.575380e-02 1.597192e-02 1.636189e-02 1.645860e-02 1.665995e-02 1.663841e-02 1.665294e-02 1.651861e-02 1.635177e-02 1.611243e-02 1.577351e-02 1.543927e-02 1.494163e-02 1.452492e-02 1.388602e-02 1.340161e-02 1.264312e-02 1.210800e-02 1.125571e-02 1.068903e-02 9.772678e-03 9.195462e-03 8.248289e-03 7.682933e-03 6.740688e-03 6.209982e-03 5.308973e-03 4.834926e-03 4.008907e-03 3.613612e-03 2.892431e-03 2.612076e-03 2.041946e-03 1.987078e-03 1.722490e-03 2.101282e-03 2.313283e-03 3.108391e-03 3.711524e-03 4.823363e-03 5.751464e-03 7.157124e-03 8.391543e-03 1.007233e-02 1.158359e-02 1.349370e-02 1.521931e-02 1.727707e-02 1.911565e-02 2.120255e-02 2.301620e-02 2.498174e-02 2.660521e-02 2.827812e-02 2.953467e-02 3.074018e-02 3.146265e-02 3.204408e-02 3.209813e-02 3.193987e-02 3.124598e-02 3.029554e-02 2.884908e-02 2.714064e-02 2.503772e-02 2.273349e-02 2.023473e-02 1.774252e-02 1.547673e-02 1.378145e-02 1.310911e-02 1.369287e-02 1.543786e-02 1.791721e-02 2.078606e-02 2.367399e-02 2.648699e-02 2.890793e-02 3.105693e-02 3.257748e-02 3.378531e-02 3.427315e-02 3.452882e-02 3.411503e-02 3.363585e-02 3.265952e-02 3.181520e-02 3.073820e-02 2.993862e-02 2.921445e-02 2.873639e-02 2.858435e-02 2.843294e-02 2.873097e-02 2.865030e-02 2.904244e-02 2.872860e-02 2.882668e-02 2.804992e-02 2.749629e-02 2.611494e-02 2.475305e-02 2.281038e-02 2.106233e-02 1.887451e-02 1.709163e-02 1.489854e-02 1.323728e-02 1.119238e-02 9.737086e-03 8.015616e-03 6.903343e-03 5.846607e-03 5.365903e-03 5.419264e-03 5.700161e-03 6.618062e-03 7.270824e-03 8.463958e-03 9.182756e-03 1.037051e-02 1.103794e-02 1.211726e-02 1.268978e-02 1.361856e-02 
1.675278e-02 1.763428e-02 1.791546e-02 1.857672e-02 1.874685e-02 1.917817e-02 1.923781e-02 1.943477e-02 1.938688e-02 1.935006e-02 1.919986e-02 1.893490e-02 1.868979e-02 1.820755e-02 1.787714e-02 1.719369e-02 1.678968e-02 1.592630e-02 1.546244e-02 1.444540e-02 1.393735e-02 1.279772e-02 1.226283e-02 1.103611e-02 1.049312e-02 9.218612e-03 8.686998e-03 7.406790e-03 6.905629e-03 5.662405e-03 5.208830e-03 4.041615e-03 3.650592e-03 2.587476e-03 2.285419e-03 1.345608e-03 1.288759e-03 7.731916e-04 1.434889e-03 1.736214e-03 2.691886e-03 3.302750e-03 4.499283e-03 5.353317e-03 6.831315e-03 7.951137e-03 9.712135e-03 1.109696e-02 1.310000e-02 1.470495e-02 1.686795e-02 1.860181e-02 2.080404e-02 2.253425e-02 2.462247e-02 2.618626e-02 2.798656e-02 2.920849e-02 3.054418e-02 3.125885e-02 3.197319e-02 3.205067e-02 3.203202e-02 3.140318e-02 3.061175e-02 2.929442e-02 2.779557e-02 2.593241e-02 2.395658e-02 2.189642e-02 1.996996e-02 1.842888e-02 1.752915e-02 1.753465e-02 1.852441e-02 2.029919e-02 2.269611e-02 2.530373e-02 2.801336e-02 3.052461e-02 3.274211e-02 3.457304e-02 3.583386e-02 3.669444e-02 3.683964e-02 3.670794e-02 3.587147e-02 3.495468e-02 3.351735e-02 3.218565e-02 3.069921e-02 2.942785e-02 2.847429e-02 2.765348e-02 2.751858e-02 2.716769e-02 2.767077e-02 2.746806e-02 2.813635e-02 2.770194e-02 2.811703e-02 2.724366e-02 2.700955e-02 2.556406e-02 2.440607e-02 2.234338e-02 2.081692e-02 1.850246e-02 1.697620e-02 1.467848e-02 1.328139e-02 1.120057e-02 1.002182e-02 8.439368e-03 7.652631e-03 7.010743e-03 6.839149e-03 7.347823e-03 7.714150e-03 8.918873e-03 9.513520e-03 1.092853e-02 1.155658e-02 1.294631e-02 1.352385e-02 1.478602e-02 1.527756e-02 1.636295e-02 
1.500448e-02 1.570951e-02 1.597288e-02 1.651679e-02 1.668232e-02 1.705169e-02 1.711563e-02 1.730354e-02 1.726601e-02 1.727083e-02 1.713505e-02 1.696001e-02 1.673182e-02 1.638491e-02 1.607245e-02 1.556635e-02 1.517977e-02 1.453173e-02 1.408286e-02 1.331453e-02 1.281655e-02 1.195369e-02 1.142057e-02 1.049249e-02 9.938257e-03 8.976835e-03 8.414255e-03 7.452043e-03 6.890653e-03 5.957482e-03 5.400796e-03 4.518156e-03 3.961145e-03 3.134511e-03 2.567423e-03 1.782516e-03 1.253535e-03 6.344419e-04 1.056313e-03 1.621718e-03 2.691042e-03 3.596066e-03 4.915808e-03 6.069416e-03 7.653320e-03 9.068548e-03 1.091219e-02 1.257932e-02 1.464368e-02 1.651278e-02 1.872041e-02 2.069766e-02 2.293290e-02 2.488420e-02 2.699877e-02 2.876074e-02 3.058596e-02 3.198486e-02 3.335100e-02 3.422808e-02 3.498914e-02 3.522899e-02 3.528994e-02 3.484731e-02 3.419107e-02 3.311414e-02 3.182977e-02 3.028483e-02 2.860630e-02 2.691677e-02 2.528165e-02 2.397475e-02 2.304119e-02 2.275520e-02 2.310228e-02 2.410279e-02 2.563051e-02 2.747101e-02 2.946300e-02 3.140830e-02 3.310684e-02 3.454901e-02 3.543206e-02 3.600821e-02 3.585177e-02 3.547213e-02 3.434925e-02 3.318216e-02 3.141053e-02 2.983063e-02 2.793690e-02 2.648971e-02 2.517831e-02 2.433894e-02 2.401339e-02 2.383969e-02 2.430530e-02 2.433614e-02 2.507069e-02 2.496275e-02 2.561599e-02 2.529411e-02 2.541694e-02 2.473640e-02 2.370348e-02 2.226287e-02 2.090263e-02 1.915899e-02 1.783519e-02 1.607380e-02 1.484773e-02 1.323629e-02 1.215549e-02 1.087991e-02 1.005569e-02 9.335294e-03 8.901468e-03 8.871886e-03 8.862869e-03 9.415740e-03 9.708677e-03 1.058065e-02 1.101308e-02 1.198491e-02 1.244404e-02 1.338665e-02 1.380916e-02 1.465250e-02 
1.790148e-02 1.873862e-02 1.895489e-02 1.958820e-02 1.971161e-02 2.012378e-02 2.015110e-02 2.033246e-02 2.026399e-02 2.021157e-02 2.005056e-02 1.976781e-02 1.952001e-02 1.901661e-02 1.868998e-02 1.798169e-02 1.758603e-02 1.669442e-02 1.624100e-02 1.519315e-02 1.469425e-02 1.352235e-02 1.299073e-02 1.173160e-02 1.117963e-02 9.874123e-03 9.312530e-03 8.004500e-03 7.440164e-03 6.174805e-03 5.607165e-03 4.428528e-03 3.843807e-03 2.793975e-03 2.155407e-03 1.307102e-03 5.389312e-04 7.937502e-04 1.257334e-03 2.234000e-03 3.139196e-03 4.144492e-03 5.357700e-03 6.496070e-03 8.025012e-03 9.367312e-03 1.120190e-02 1.277358e-02 1.486910e-02 1.664332e-02 1.891646e-02 2.081372e-02 2.314332e-02 2.503756e-02 2.727054e-02 2.900257e-02 3.096656e-02 3.236522e-02 3.388813e-02 3.479775e-02 3.573294e-02 3.604356e-02 3.629811e-02 3.597452e-02 3.553942e-02 3.464761e-02 3.363223e-02 3.236727e-02 3.104282e-02 2.975929e-02 2.859652e-02 2.780057e-02 2.739946e-02 2.756319e-02 2.830337e-02 2.948189e-02 3.114280e-02 3.287530e-02 3.478812e-02 3.643161e-02 3.788881e-02 3.890595e-02 3.939554e-02 3.947176e-02 3.877032e-02 3.785127e-02 3.604908e-02 3.430070e-02 3.176466e-02 2.949897e-02 2.686958e-02 2.468852e-02 2.292653e-02 2.159628e-02 2.125786e-02 2.086310e-02 2.162439e-02 2.156906e-02 2.261823e-02 2.236031e-02 2.341722e-02 2.306294e-02 2.374893e-02 2.337100e-02 2.263820e-02 2.125640e-02 2.024375e-02 1.850028e-02 1.754689e-02 1.580095e-02 1.490015e-02 1.335474e-02 1.254819e-02 1.145008e-02 1.087016e-02 1.046333e-02 1.023069e-02 1.057253e-02 1.067770e-02 1.156428e-02 1.188443e-02 1.303536e-02 1.344427e-02 1.465429e-02 1.506836e-02 1.621554e-02 1.658665e-02 1.760028e-02 
1.634746e-02 1.698726e-02 1.714923e-02 1.765162e-02 1.774618e-02 1.808924e-02 1.810860e-02 1.827915e-02 1.822038e-02 1.821243e-02 1.807619e-02 1.789014e-02 1.767983e-02 1.732203e-02 1.704308e-02 1.652553e-02 1.618477e-02 1.552473e-02 1.512981e-02 1.434939e-02 1.390809e-02 1.303367e-02 1.255310e-02 1.161441e-02 1.110000e-02 1.012883e-02 9.582866e-03 8.610935e-03 8.030657e-03 7.086502e-03 6.461808e-03 5.567024e-03 4.878508e-03 4.046224e-03 3.266830e-03 2.519293e-03 1.652203e-03 1.245310e-03 1.127251e-03 1.996240e-03 3.044896e-03 4.214593e-03 5.660826e-03 7.043724e-03 8.802720e-03 1.042789e-02 1.246853e-02 1.433700e-02 1.660967e-02 1.867917e-02 2.110145e-02 2.328226e-02 2.573600e-02 2.789435e-02 3.023018e-02 3.220089e-02 3.425110e-02 3.586045e-02 3.746038e-02 3.855762e-02 3.957387e-02 4.006653e-02 4.042799e-02 4.031246e-02 4.003875e-02 3.941811e-02 3.864032e-02 3.772435e-02 3.669364e-02 3.577828e-02 3.484915e-02 3.426205e-02 3.381193e-02 3.379918e-02 3.405292e-02 3.463512e-02 3.549068e-02 3.641786e-02 3.746097e-02 3.832493e-02 3.902448e-02 3.941462e-02 3.932684e-02 3.894044e-02 3.783608e-02 3.655090e-02 3.446079e-02 3.235823e-02 2.950834e-02 2.682881e-02 2.363142e-02 2.097848e-02 1.855204e-02 1.683805e-02 1.609217e-02 1.578020e-02 1.638623e-02 1.635668e-02 1.732313e-02 1.719542e-02 1.861717e-02 1.895642e-02 2.059841e-02 2.182725e-02 2.142645e-02 2.082552e-02 2.023308e-02 1.912814e-02 1.858749e-02 1.741660e-02 1.679022e-02 1.567093e-02 1.497194e-02 1.406920e-02 1.343012e-02 1.290667e-02 1.245733e-02 1.239141e-02 1.218962e-02 1.253699e-02 1.255523e-02 1.318537e-02 1.334895e-02 1.411841e-02 1.435084e-02 1.514625e-02 1.538933e-02 1.613269e-02 
1.946933e-02 2.025918e-02 2.039667e-02 2.100002e-02 2.106561e-02 2.145686e-02 2.144372e-02 2.160705e-02 2.151284e-02 2.144104e-02 2.126697e-02 2.096089e-02 2.071096e-02 2.017913e-02 1.985951e-02 1.911776e-02 1.873605e-02 1.780705e-02 1.737165e-02 1.628448e-02 1.580380e-02 1.459349e-02 1.407514e-02 1.278237e-02 1.223208e-02 1.090305e-02 1.032331e-02 9.010190e-03 8.398349e-03 7.161215e-03 6.507693e-03 5.421932e-03 4.712056e-03 3.896634e-03 3.140700e-03 2.849417e-03 2.271832e-03 2.847771e-03 2.944053e-03 4.037267e-03 4.747393e-03 5.996222e-03 7.163935e-03 8.553073e-03 1.011956e-02 1.169851e-02 1.362300e-02 1.541999e-02 1.764280e-02 1.963921e-02 2.206854e-02 2.419121e-02 2.670047e-02 2.882551e-02 3.125881e-02 3.322650e-02 3.541235e-02 3.705294e-02 3.882545e-02 3.999287e-02 4.121793e-02 4.182484e-02 4.242805e-02 4.247475e-02 4.246909e-02 4.206098e-02 4.157369e-02 4.092488e-02 4.021661e-02 3.962993e-02 3.907548e-02 3.886875e-02 3.884222e-02 3.919789e-02 3.985478e-02 4.067127e-02 4.178807e-02 4.269370e-02 4.374757e-02 4.428407e-02 4.469966e-02 4.451196e-02 4.387308e-02 4.279828e-02 4.093399e-02 3.900523e-02 3.599428e-02 3.334672e-02 2.944759e-02 2.605142e-02 2.170827e-02 1.788763e-02 1.468548e-02 1.206625e-02 1.115863e-02 1.045755e-02 1.146373e-02 1.139178e-02 1.244949e-02 1.187669e-02 1.350840e-02 1.357238e-02 1.619131e-02 1.899370e-02 1.936178e-02 1.884821e-02 1.882479e-02 1.784118e-02 1.787354e-02 1.688054e-02 1.666412e-02 1.571830e-02 1.529240e-02 1.461063e-02 1.417306e-02 1.394446e-02 1.365563e-02 1.393307e-02 1.385048e-02 1.454255e-02 1.463464e-02 1.558039e-02 1.577914e-02 1.682577e-02 1.706665e-02 1.809914e-02 1.833411e-02 1.927267e-02 
1.807316e-02 1.864656e-02 1.869375e-02 1.915306e-02 1.916530e-02 1.948083e-02 1.944816e-02 1.960040e-02 1.951782e-02 1.949605e-02 1.936206e-02 1.916359e-02 1.897904e-02 1.860859e-02 1.837567e-02 1.784483e-02 1.756620e-02 1.689285e-02 1.657080e-02 1.577834e-02 1.541401e-02 1.453050e-02 1.412310e-02 1.318012e-02 1.272610e-02 1.175730e-02 1.124964e-02 1.028911e-02 9.716919e-03 8.797633e-03 8.147352e-03 7.301870e-03 6.563380e-03 5.833324e-03 5.024553e-03 4.500465e-03 3.764681e-03 3.692550e-03 3.514449e-03 4.179962e-03 4.922552e-03 6.123944e-03 7.541847e-03 9.077551e-03 1.096296e-02 1.278914e-02 1.503729e-02 1.713446e-02 1.965932e-02 2.197918e-02 2.467761e-02 2.712592e-02 2.986633e-02 3.230190e-02 3.492654e-02 3.717445e-02 3.951263e-02 4.139195e-02 4.328328e-02 4.464729e-02 4.597247e-02 4.675332e-02 4.746724e-02 4.771014e-02 4.786811e-02 4.773606e-02 4.749988e-02 4.723466e-02 4.684565e-02 4.668772e-02 4.640082e-02 4.649206e-02 4.647893e-02 4.678787e-02 4.704007e-02 4.735590e-02 4.764657e-02 4.766591e-02 4.762745e-02 4.710615e-02 4.641142e-02 4.528160e-02 4.379263e-02 4.211090e-02 3.984584e-02 3.762891e-02 3.468476e-02 3.188839e-02 2.838334e-02 2.478080e-02 2.042140e-02 1.580064e-02 1.168457e-02 7.078235e-03 4.870270e-03 3.558998e-03 4.117815e-03 3.693121e-03 3.512815e-03 2.423232e-03 4.137645e-03 5.110295e-03 9.537902e-03 1.667209e-02 1.817778e-02 1.760140e-02 1.837728e-02 1.814045e-02 1.897762e-02 1.868660e-02 1.886930e-02 1.833352e-02 1.801365e-02 1.745834e-02 1.694124e-02 1.657073e-02 1.607529e-02 1.599415e-02 1.563129e-02 1.584768e-02 1.564320e-02 1.609718e-02 1.602540e-02 1.662731e-02 1.664290e-02 1.730376e-02 1.736209e-02 1.800770e-02 
2.143336e-02 2.218288e-02 2.223594e-02 2.281440e-02 2.281667e-02 2.319021e-02 2.313218e-02 2.327845e-02 2.315575e-02 2.306297e-02 2.287523e-02 2.254161e-02 2.229141e-02 2.172472e-02 2.141662e-02 2.063359e-02 2.027314e-02 1.929888e-02 1.889162e-02 1.775906e-02 1.730957e-02 1.605906e-02 1.557005e-02 1.424942e-02 1.372088e-02 1.238631e-02 1.181492e-02 1.053324e-02 9.912884e-03 8.766969e-03 8.092917e-03 7.192788e-03 6.478337e-03 5.977833e-03 5.303052e-03 5.384582e-03 4.962536e-03 5.681124e-03 5.752706e-03 6.914738e-03 7.546441e-03 8.959021e-03 1.011387e-02 1.172419e-02 1.335502e-02 1.518079e-02 1.723455e-02 1.929409e-02 2.169616e-02 2.397005e-02 2.661392e-02 2.902755e-02 3.177327e-02 3.419648e-02 3.687894e-02 3.914295e-02 4.158995e-02 4.352059e-02 4.557724e-02 4.703796e-02 4.859118e-02 4.952283e-02 5.052062e-02 5.096396e-02 5.143121e-02 5.152610e-02 5.158278e-02 5.154671e-02 5.142043e-02 5.150095e-02 5.149170e-02 5.187082e-02 5.222270e-02 5.287869e-02 5.358539e-02 5.420147e-02 5.488871e-02 5.493835e-02 5.499131e-02 5.403092e-02 5.296079e-02 5.095940e-02 4.872118e-02 4.608560e-02 4.294784e-02 4.014756e-02 3.630377e-02 3.357486e-02 2.907958e-02 2.570259e-02 2.010263e-02 1.443984e-02 1.105959e-02 6.273907e-03 4.512066e-03 4.855409e-03 4.259305e-03 5.298422e-03 5.355242e-03 7.384069e-03 6.546831e-03 7.822032e-03 4.450345e-03 1.393308e-02 1.698186e-02 1.361948e-02 1.537683e-02 1.587170e-02 1.779128e-02 1.795011e-02 1.862374e-02 1.836234e-02 1.828277e-02 1.798536e-02 1.762199e-02 1.754541e-02 1.717783e-02 1.742943e-02 1.718256e-02 1.774864e-02 1.764485e-02 1.843950e-02 1.844839e-02 1.936327e-02 1.943853e-02 2.037348e-02 2.047193e-02 2.134553e-02 
2.015583e-02 2.067120e-02 2.059997e-02 2.102168e-02 2.094692e-02 2.123876e-02 2.115097e-02 2.128744e-02 2.118129e-02 2.114704e-02 2.101985e-02 2.080916e-02 2.065951e-02 2.027578e-02 2.010231e-02 1.955737e-02 1.935778e-02 1.867104e-02 1.844127e-02 1.763859e-02 1.737220e-02 1.648471e-02 1.617243e-02 1.523512e-02 1.486479e-02 1.391509e-02 1.347224e-02 1.254884e-02 1.201867e-02 1.116148e-02 1.053412e-02 9.787376e-03 9.071173e-03 8.494421e-03 7.748146e-03 7.440571e-03 6.838823e-03 6.959631e-03 6.833334e-03 7.521078e-03 8.152844e-03 9.378843e-03 1.076621e-02 1.242557e-02 1.442752e-02 1.645737e-02 1.893726e-02 2.129649e-02 2.412773e-02 2.675387e-02 2.979815e-02 3.258258e-02 3.567917e-02 3.846163e-02 4.143149e-02 4.401453e-02 4.667759e-02 4.886183e-02 5.106348e-02 5.270039e-02 5.434249e-02 5.539235e-02 5.646350e-02 5.703493e-02 5.763040e-02 5.796712e-02 5.827899e-02 5.866954e-02 5.892781e-02 5.956586e-02 5.994142e-02 6.080691e-02 6.131031e-02 6.211781e-02 6.251834e-02 6.274785e-02 6.255165e-02 6.160721e-02 6.022424e-02 5.780584e-02 5.502215e-02 5.162731e-02 4.810974e-02 4.499554e-02 4.180890e-02 3.963464e-02 3.697026e-02 3.511450e-02 3.315093e-02 3.060082e-02 2.771008e-02 2.083239e-02 1.640699e-02 1.186092e-02 1.195735e-02 1.181590e-02 1.483196e-02 1.807852e-02 2.121875e-02 2.271548e-02 2.526697e-02 2.512940e-02 2.551885e-02 2.662649e-02 1.593995e-02 8.452592e-03 1.387007e-02 1.646220e-02 1.969884e-02 2.061657e-02 2.157235e-02 2.160372e-02 2.149601e-02 2.121275e-02 2.069430e-02 2.041919e-02 1.982177e-02 1.971603e-02 1.919231e-02 1.930853e-02 1.891013e-02 1.923086e-02 1.895511e-02 1.942474e-02 1.924473e-02 1.979410e-02 1.967716e-02 2.023880e-02 
2.377839e-02 2.450412e-02 2.447476e-02 2.504094e-02 2.497989e-02 2.534454e-02 2.524094e-02 2.537502e-02 2.522353e-02 2.511059e-02 2.491017e-02 2.454610e-02 2.429866e-02 2.369123e-02 2.340035e-02 2.256853e-02 2.223818e-02 2.121142e-02 2.084471e-02 1.966218e-02 1.926030e-02 1.797062e-02 1.753208e-02 1.619371e-02 1.571410e-02 1.439680e-02 1.386972e-02 1.265761e-02 1.207821e-02 1.107412e-02 1.044859e-02 9.776820e-03 9.143041e-03 8.937916e-03 8.396023e-03 8.751602e-03 8.469539e-03 9.364458e-03 9.511760e-03 1.082022e-02 1.149460e-02 1.309936e-02 1.432863e-02 1.618461e-02 1.795436e-02 2.006770e-02 2.232978e-02 2.471131e-02 2.737901e-02 3.000373e-02 3.294697e-02 3.572885e-02 3.877818e-02 4.156595e-02 4.453089e-02 4.713034e-02 4.983187e-02 5.205455e-02 5.436123e-02 5.608558e-02 5.793374e-02 5.914968e-02 6.053402e-02 6.134382e-02 6.229592e-02 6.287599e-02 6.347493e-02 6.403569e-02 6.445706e-02 6.520572e-02 6.571598e-02 6.676248e-02 6.756720e-02 6.874144e-02 6.971083e-02 7.039080e-02 7.083705e-02 7.002513e-02 6.888162e-02 6.579421e-02 6.246942e-02 5.760029e-02 5.314627e-02 4.874841e-02 4.537094e-02 4.317265e-02 4.090211e-02 4.025619e-02 3.779627e-02 3.759715e-02 3.142656e-02 2.536631e-02 2.284415e-02 1.880763e-02 1.923678e-02 2.117772e-02 2.445606e-02 2.252291e-02 2.214810e-02 1.686801e-02 1.675462e-02 1.177903e-02 1.270232e-02 1.096838e-02 1.044847e-02 1.122887e-02 1.584391e-02 1.678194e-02 1.998824e-02 2.082072e-02 2.182661e-02 2.200708e-02 2.192701e-02 2.185496e-02 2.138441e-02 2.137750e-02 2.086024e-02 2.107538e-02 2.065785e-02 2.112945e-02 2.085012e-02 2.153546e-02 2.137825e-02 2.219764e-02 2.212535e-02 2.299071e-02 2.296376e-02 2.379375e-02 
2.258195e-02 2.305608e-02 2.287053e-02 2.326711e-02 2.310631e-02 2.338364e-02 2.324147e-02 2.336859e-02 2.324165e-02 2.319884e-02 2.308468e-02 2.286357e-02 2.275908e-02 2.236236e-02 2.226248e-02 2.170318e-02 2.159999e-02 2.090027e-02 2.078251e-02 1.997220e-02 1.982512e-02 1.893999e-02 1.874568e-02 1.782572e-02 1.756411e-02 1.665198e-02 1.630296e-02 1.544307e-02 1.499068e-02 1.422968e-02 1.367037e-02 1.306029e-02 1.241898e-02 1.202467e-02 1.138314e-02 1.129251e-02 1.082577e-02 1.114824e-02 1.112362e-02 1.194993e-02 1.261650e-02 1.396637e-02 1.541735e-02 1.725637e-02 1.943586e-02 2.172290e-02 2.450569e-02 2.719513e-02 3.042388e-02 3.343798e-02 3.692554e-02 4.012938e-02 4.366043e-02 4.685559e-02 5.020424e-02 5.314962e-02 5.611378e-02 5.857626e-02 6.101660e-02 6.284366e-02 6.471045e-02 6.590530e-02 6.724854e-02 6.801528e-02 6.898529e-02 6.969269e-02 7.051719e-02 7.153704e-02 7.244114e-02 7.394142e-02 7.503840e-02 7.686881e-02 7.806307e-02 7.971071e-02 8.056731e-02 8.110308e-02 8.067293e-02 7.883993e-02 7.582203e-02 7.074771e-02 6.463474e-02 5.767369e-02 5.121513e-02 4.778964e-02 4.613941e-02 4.845059e-02 4.847652e-02 5.044445e-02 5.161380e-02 5.251696e-02 5.166726e-02 3.913328e-02 3.236136e-02 2.946647e-02 2.341135e-02 7.836812e-03 6.123563e-03 2.178647e-02 2.944124e-02 3.745901e-02 4.132993e-02 4.530067e-02 4.709253e-02 4.912440e-02 4.816820e-02 3.335904e-02 2.867103e-02 2.527442e-02 2.585720e-02 2.606142e-02 2.626926e-02 2.627409e-02 2.580205e-02 2.552994e-02 2.477982e-02 2.448229e-02 2.370432e-02 2.353842e-02 2.284755e-02 2.287534e-02 2.230862e-02 2.252840e-02 2.208227e-02 2.245466e-02 2.210787e-02 2.257534e-02 2.230259e-02 2.280288e-02 
2.649947e-02 2.722776e-02 2.712496e-02 2.769960e-02 2.758030e-02 2.795111e-02 2.780466e-02 2.793569e-02 2.775725e-02 2.762747e-02 2.741661e-02 2.702014e-02 2.677926e-02 2.612508e-02 2.585781e-02 2.496900e-02 2.467858e-02 2.359135e-02 2.327919e-02 2.204190e-02 2.170648e-02 2.037919e-02 2.001564e-02 1.867036e-02 1.827106e-02 1.699303e-02 1.655015e-02 1.543941e-02 1.495088e-02 1.412185e-02 1.360298e-02 1.317622e-02 1.267721e-02 1.275454e-02 1.237557e-02 1.299951e-02 1.288332e-02 1.401309e-02 1.430759e-02 1.585095e-02 1.667101e-02 1.854835e-02 1.996134e-02 2.214131e-02 2.416536e-02 2.665475e-02 2.925362e-02 3.205999e-02 3.513310e-02 3.822048e-02 4.159611e-02 4.484973e-02 4.829400e-02 5.151149e-02 5.476657e-02 5.769284e-02 6.054749e-02 6.295884e-02 6.532677e-02 6.713643e-02 6.908093e-02 7.039355e-02 7.204215e-02 7.308811e-02 7.448991e-02 7.548595e-02 7.659861e-02 7.770233e-02 7.858836e-02 7.996864e-02 8.091697e-02 8.271973e-02 8.405904e-02 8.611197e-02 8.773302e-02 8.907133e-02 8.981124e-02 8.846607e-02 8.611761e-02 8.006071e-02 7.316324e-02 6.342898e-02 5.602746e-02 5.142625e-02 5.388542e-02 5.776639e-02 6.318885e-02 6.469890e-02 6.784151e-02 7.211000e-02 4.770664e-02 2.979851e-02 2.096831e-02 1.638761e-02 4.253720e-02 6.452080e-02 7.255493e-02 7.585127e-02 7.583825e-02 7.410292e-02 7.407827e-02 7.164439e-02 7.233331e-02 7.153046e-02 6.140181e-02 4.307396e-02 3.524268e-02 3.016812e-02 2.862688e-02 2.802154e-02 2.737229e-02 2.720982e-02 2.643660e-02 2.626346e-02 2.544136e-02 2.537714e-02 2.463930e-02 2.479195e-02 2.420479e-02 2.460539e-02 2.417862e-02 2.479618e-02 2.450608e-02 2.527298e-02 2.508190e-02 2.591584e-02 2.578498e-02 2.660349e-02 
2.535195e-02 2.580982e-02 2.552008e-02 2.591107e-02 2.566952e-02 2.594715e-02 2.575424e-02 2.588252e-02 2.573944e-02 2.569464e-02 2.560095e-02 2.537256e-02 2.532424e-02 2.491513e-02 2.490337e-02 2.432902e-02 2.433970e-02 2.362668e-02 2.364058e-02 2.282448e-02 2.281809e-02 2.194114e-02 2.188804e-02 2.099686e-02 2.087000e-02 2.001374e-02 1.978893e-02 1.901830e-02 1.868003e-02 1.804758e-02 1.759886e-02 1.716115e-02 1.663943e-02 1.646104e-02 1.596096e-02 1.611791e-02 1.581231e-02 1.638783e-02 1.651870e-02 1.758468e-02 1.839399e-02 1.999017e-02 2.162526e-02 2.375985e-02 2.623554e-02 2.889662e-02 3.211678e-02 3.526422e-02 3.904672e-02 4.258296e-02 4.666945e-02 5.041021e-02 5.448199e-02 5.815112e-02 6.187647e-02 6.514540e-02 6.826387e-02 7.084057e-02 7.325031e-02 7.499309e-02 7.677541e-02 7.778379e-02 7.913784e-02 7.978345e-02 8.094893e-02 8.180283e-02 8.303190e-02 8.458785e-02 8.607671e-02 8.846577e-02 9.028528e-02 9.327377e-02 9.534505e-02 9.834500e-02 1.002184e-01 1.019217e-01 1.020551e-01 1.000040e-01 9.548139e-02 8.695421e-02 7.543041e-02 6.218560e-02 5.123261e-02 5.351924e-02 6.350511e-02 8.065451e-02 8.410491e-02 9.274451e-02 1.008096e-01 6.473001e-02 4.358358e-02 1.048222e-02 5.222705e-02 8.841605e-02 8.563123e-02 7.341331e-02 6.138278e-02 4.812641e-02 4.041049e-02 3.331516e-02 2.879953e-02 2.502264e-02 2.241328e-02 2.065208e-02 3.432407e-02 3.898468e-02 3.711293e-02 3.618585e-02 3.408795e-02 3.354273e-02 3.213468e-02 3.165984e-02 3.046567e-02 2.998376e-02 2.890009e-02 2.850183e-02 2.754172e-02 2.730832e-02 2.648678e-02 2.645310e-02 2.576641e-02 2.592592e-02 2.535655e-02 2.567397e-02 2.519944e-02 2.562278e-02 2.522256e-02 2.569277e-02 
2.960442e-02 3.037226e-02 3.021137e-02 3.082416e-02 3.065619e-02 3.105505e-02 3.087133e-02 3.101304e-02 3.081098e-02 3.066999e-02 3.045145e-02 3.002088e-02 2.979034e-02 2.908203e-02 2.884456e-02 2.788820e-02 2.764752e-02 2.648919e-02 2.624600e-02 2.494664e-02 2.469756e-02 2.333187e-02 2.306941e-02 2.172539e-02 2.143947e-02 2.021826e-02 1.990015e-02 1.891469e-02 1.856453e-02 1.793362e-02 1.757219e-02 1.740551e-02 1.708792e-02 1.746081e-02 1.728458e-02 1.821345e-02 1.831119e-02 1.975237e-02 2.026946e-02 2.215097e-02 2.322063e-02 2.548566e-02 2.720995e-02 2.984116e-02 3.227362e-02 3.528480e-02 3.840763e-02 4.180561e-02 4.550080e-02 4.922891e-02 5.325360e-02 5.713663e-02 6.112583e-02 6.484910e-02 6.837957e-02 7.154466e-02 7.428596e-02 7.657293e-02 7.849391e-02 7.988923e-02 8.136088e-02 8.226673e-02 8.381616e-02 8.479648e-02 8.656368e-02 8.786741e-02 8.945080e-02 9.098666e-02 9.212315e-02 9.393428e-02 9.499286e-02 9.744931e-02 9.919911e-02 1.025526e-01 1.054044e-01 1.086307e-01 1.110035e-01 1.105111e-01 1.078841e-01 9.831055e-02 8.585521e-02 6.676373e-02 5.429734e-02 5.779690e-02 8.276714e-02 1.026241e-01 1.216111e-01 1.205799e-01 7.925734e-02 4.592061e-02 8.653263e-03 1.066724e-01 1.191041e-01 7.600003e-02 4.314792e-02 1.958758e-02 2.004813e-03 1.091047e-02 1.775409e-02 2.335088e-02 2.635758e-02 2.875628e-02 2.992658e-02 3.259903e-02 2.577511e-02 3.424517e-02 3.359707e-02 3.558545e-02 3.372844e-02 3.380087e-02 3.220379e-02 3.192024e-02 3.059577e-02 3.032252e-02 2.921992e-02 2.911014e-02 2.821796e-02 2.834737e-02 2.765629e-02 2.804133e-02 2.752830e-02 2.813808e-02 2.776788e-02 2.853946e-02 2.827207e-02 2.912567e-02 2.892304e-02 2.977418e-02 