# vtk DataFile Version 2.0
Comment goes here
ASCII

DATASET STRUCTURED_POINTS
DIMENSIONS    128   128   1

ORIGIN    0.000   0.000   0.000
SPACING   0.0156250.015625   1.000

POINT_DATA   16384
SCALARS uMag double
LOOKUP_TABLE default

8.831497e-02 8.161656e-02 7.851937e-02 7.196420e-02 6.840764e-02 6.204523e-02 5.811746e-02 5.200047e-02 4.779001e-02 4.196893e-02 3.756062e-02 3.207824e-02 2.754855e-02 2.243413e-02 1.784575e-02 1.310887e-02 8.504785e-03 4.129017e-03 4.743035e-04 4.537254e-03 9.154985e-03 1.299257e-02 1.767989e-02 2.142193e-02 2.627840e-02 3.010241e-02 3.527666e-02 3.940972e-02 4.510174e-02 4.981994e-02 5.628004e-02 6.190394e-02 6.942716e-02 7.631192e-02 8.522625e-02 9.374493e-02 1.043919e-01 1.149108e-01 1.276174e-01 1.404627e-01 1.555045e-01 1.709205e-01 1.884769e-01 2.065788e-01 2.266836e-01 2.474075e-01 2.699003e-01 2.929581e-01 3.174436e-01 3.422901e-01 3.681149e-01 3.939366e-01 4.201914e-01 4.459240e-01 4.714776e-01 4.958557e-01 5.194207e-01 5.410556e-01 5.612787e-01 5.787535e-01 5.943150e-01 6.062812e-01 6.159887e-01 6.212479e-01 6.241125e-01 6.216785e-01 6.169719e-01 6.061187e-01 5.934250e-01 5.737390e-01 5.530180e-01 5.244759e-01 4.961525e-01 4.592369e-01 4.243121e-01 3.801529e-01 3.403043e-01 2.907988e-01 2.484055e-01 1.962368e-01 1.542519e-01 1.027148e-01 6.432636e-02 1.691010e-02 1.500655e-02 5.525434e-02 7.878032e-02 1.099578e-01 1.247270e-01 1.465861e-01 1.539758e-01 1.678909e-01 1.705432e-01 1.787242e-01 1.794108e-01 1.837783e-01 1.843676e-01 1.858913e-01 1.871785e-01 1.858928e-01 1.878115e-01 1.835023e-01 1.855732e-01 1.784038e-01 1.802468e-01 1.710204e-01 1.726810e-01 1.626086e-01 1.643477e-01 1.544240e-01 1.563532e-01 1.470749e-01 1.490788e-01 1.405359e-01 1.423804e-01 1.344539e-01 1.359019e-01 1.284137e-01 1.292859e-01 1.220760e-01 1.222657e-01 1.152199e-01 1.146844e-01 1.077363e-01 1.064813e-01 9.960467e-02 9.766955e-02 9.086885e-02 
1.039671e-01 9.800413e-02 9.472453e-02 8.866530e-02 8.496881e-02 7.885312e-02 7.482953e-02 6.870560e-02 6.444464e-02 5.836444e-02 5.395194e-02 4.796641e-02 4.348035e-02 3.763505e-02 3.314225e-02 2.747605e-02 2.303427e-02 1.759626e-02 1.329553e-02 8.341325e-03 5.025444e-03 5.040558e-03 8.317686e-03 1.327899e-02 1.773160e-02 2.321305e-02 2.809276e-02 3.402555e-02 3.945654e-02 4.604985e-02 5.227117e-02 5.980997e-02 6.711783e-02 7.593007e-02 8.465631e-02 9.509074e-02 1.055801e-01 1.179793e-01 1.305596e-01 1.452255e-01 1.601702e-01 1.773216e-01 1.948046e-01 2.145299e-01 2.345765e-01 2.567845e-01 2.792236e-01 3.035992e-01 3.280239e-01 3.539980e-01 3.797437e-01 4.064848e-01 4.326339e-01 4.590693e-01 4.844874e-01 5.093568e-01 5.327610e-01 5.546978e-01 5.747492e-01 5.923769e-01 6.077812e-01 6.198071e-01 6.294071e-01 6.346973e-01 6.375432e-01 6.351717e-01 6.305690e-01 6.198504e-01 6.074006e-01 5.879295e-01 5.675835e-01 5.393076e-01 5.114534e-01 4.747984e-01 4.403807e-01 3.964199e-01 3.570619e-01 3.076898e-01 2.657628e-01 2.138333e-01 1.724700e-01 1.221155e-01 8.581873e-02 4.748951e-02 3.700817e-02 5.797638e-02 7.791943e-02 1.071991e-01 1.216989e-01 1.433048e-01 1.507001e-01 1.647877e-01 1.671614e-01 1.757666e-01 1.758942e-01 1.809614e-01 1.809305e-01 1.834467e-01 1.841649e-01 1.841581e-01 1.855669e-01 1.827821e-01 1.843667e-01 1.788999e-01 1.802504e-01 1.728407e-01 1.740152e-01 1.658556e-01 1.671389e-01 1.591915e-01 1.606967e-01 1.534085e-01 1.550093e-01 1.484231e-01 1.498769e-01 1.438370e-01 1.449047e-01 1.392050e-01 1.397106e-01 1.341674e-01 1.340093e-01 1.284861e-01 1.276272e-01 1.220354e-01 1.204866e-01 1.147786e-01 1.125835e-01 1.067436e-01 
8.900247e-02 8.245884e-02 7.943020e-02 7.302295e-02 6.952657e-02 6.331058e-02 5.944051e-02 5.347751e-02 4.933345e-02 4.369043e-02 3.937962e-02 3.413266e-02 2.978208e-02 2.503887e-02 2.084883e-02 1.685088e-02 1.335070e-02 1.093838e-02 9.913760e-03 1.078471e-02 1.329366e-02 1.613361e-02 2.006829e-02 2.341560e-02 2.792185e-02 3.153958e-02 3.651193e-02 4.051162e-02 4.606604e-02 5.068352e-02 5.703706e-02 6.257714e-02 7.001031e-02 7.682153e-02 8.565499e-02 9.410665e-02 1.046766e-01 1.151311e-01 1.277589e-01 1.405375e-01 1.554920e-01 1.708331e-01 1.882866e-01 2.062995e-01 2.262794e-01 2.468952e-01 2.692364e-01 2.921642e-01 3.164695e-01 3.411638e-01 3.667814e-01 3.924320e-01 4.184583e-01 4.440083e-01 4.693227e-01 4.935199e-01 5.168521e-01 5.383280e-01 5.583500e-01 5.757175e-01 5.911446e-01 6.030948e-01 6.127804e-01 6.181645e-01 6.211739e-01 6.190615e-01 6.147275e-01 6.044492e-01 5.924192e-01 5.736128e-01 5.539089e-01 5.265940e-01 4.997017e-01 4.644001e-01 4.313857e-01 3.892954e-01 3.519335e-01 3.051536e-01 2.660518e-01 2.179402e-01 1.808009e-01 1.371565e-01 1.082852e-01 8.305009e-02 7.606569e-02 8.693410e-02 9.781658e-02 1.204965e-01 1.303062e-01 1.489371e-01 1.537342e-01 1.661165e-01 1.672704e-01 1.747029e-01 1.746223e-01 1.787352e-01 1.790256e-01 1.806273e-01 1.819548e-01 1.808055e-01 1.830097e-01 1.787229e-01 1.812030e-01 1.739131e-01 1.761429e-01 1.667427e-01 1.687506e-01 1.586400e-01 1.607428e-01 1.509644e-01 1.532701e-01 1.442542e-01 1.466099e-01 1.383673e-01 1.405120e-01 1.328766e-01 1.345683e-01 1.273445e-01 1.284120e-01 1.214388e-01 1.217869e-01 1.149541e-01 1.145499e-01 1.077955e-01 1.066513e-01 9.995265e-02 9.811175e-02 9.147613e-02 
1.054770e-01 9.981024e-02 9.660658e-02 9.081075e-02 8.715362e-02 8.127269e-02 7.725529e-02 7.134499e-02 6.706397e-02 6.118916e-02 5.674300e-02 5.097684e-02 4.646625e-02 4.089469e-02 3.643038e-02 3.117479e-02 2.691277e-02 2.222108e-02 1.851360e-02 1.512818e-02 1.309717e-02 1.294574e-02 1.423959e-02 1.753143e-02 2.097063e-02 2.571918e-02 3.012002e-02 3.564768e-02 4.079487e-02 4.710061e-02 5.311876e-02 6.041744e-02 6.756211e-02 7.615783e-02 8.474589e-02 9.497976e-02 1.053487e-01 1.175600e-01 1.300304e-01 1.445166e-01 1.593518e-01 1.763251e-01 1.936858e-01 2.132254e-01 2.331227e-01 2.551266e-01 2.773758e-01 3.015192e-01 3.257027e-01 3.514088e-01 3.768561e-01 4.032903e-01 4.290851e-01 4.551794e-01 4.801992e-01 5.047103e-01 5.276992e-01 5.492959e-01 5.689625e-01 5.863280e-01 6.014514e-01 6.133815e-01 6.229053e-01 6.283801e-01 6.314784e-01 6.297011e-01 6.258158e-01 6.162265e-01 6.050902e-01 5.873825e-01 5.690561e-01 5.432311e-01 5.181787e-01 4.846688e-01 4.538776e-01 4.137548e-01 3.788806e-01 3.341554e-01 2.976666e-01 2.517358e-01 2.171247e-01 1.757280e-01 1.482053e-01 1.216690e-01 1.089399e-01 1.084018e-01 1.109156e-01 1.262584e-01 1.319589e-01 1.476006e-01 1.501564e-01 1.613412e-01 1.606883e-01 1.678048e-01 1.661699e-01 1.707078e-01 1.699461e-01 1.725941e-01 1.733584e-01 1.736266e-01 1.756367e-01 1.729436e-01 1.754071e-01 1.697779e-01 1.719458e-01 1.642461e-01 1.661376e-01 1.579659e-01 1.599908e-01 1.523957e-01 1.546566e-01 1.479409e-01 1.502358e-01 1.442856e-01 1.463233e-01 1.408949e-01 1.424313e-01 1.372884e-01 1.381656e-01 1.331227e-01 1.332617e-01 1.281889e-01 1.275701e-01 1.223854e-01 1.210304e-01 1.156905e-01 1.136481e-01 1.081396e-01 
9.108377e-02 8.498746e-02 8.215923e-02 7.617391e-02 7.284860e-02 6.704071e-02 6.332558e-02 5.777542e-02 5.379392e-02 4.859876e-02 4.450037e-02 3.978599e-02 3.577195e-02 3.172353e-02 2.811044e-02 2.503974e-02 2.238253e-02 2.078682e-02 1.988363e-02 2.014622e-02 2.135663e-02 2.312430e-02 2.591292e-02 2.852806e-02 3.228798e-02 3.542654e-02 3.989848e-02 4.355142e-02 4.873717e-02 5.307628e-02 5.913303e-02 6.443492e-02 7.161467e-02 7.821663e-02 8.682553e-02 9.509022e-02 1.054526e-01 1.157331e-01 1.281546e-01 1.407574e-01 1.554862e-01 1.706302e-01 1.878146e-01 2.055880e-01 2.252315e-01 2.455462e-01 2.674647e-01 2.900161e-01 3.138015e-01 3.380394e-01 3.630399e-01 3.881605e-01 4.134869e-01 4.384544e-01 4.630175e-01 4.866192e-01 5.092017e-01 5.301329e-01 5.494861e-01 5.664526e-01 5.814022e-01 5.932204e-01 6.027610e-01 6.084362e-01 6.118014e-01 6.105754e-01 6.072827e-01 5.986596e-01 5.885462e-01 5.723176e-01 5.555859e-01 5.318832e-01 5.091706e-01 4.785715e-01 4.510392e-01 4.147536e-01 3.841679e-01 3.443237e-01 3.130885e-01 2.731417e-01 2.442657e-01 2.095251e-01 1.864987e-01 1.640748e-01 1.499857e-01 1.447363e-01 1.390740e-01 1.462541e-01 1.440968e-01 1.542002e-01 1.516716e-01 1.596569e-01 1.564950e-01 1.618264e-01 1.596740e-01 1.631211e-01 1.625540e-01 1.645445e-01 1.659281e-01 1.652242e-01 1.682654e-01 1.639990e-01 1.678091e-01 1.601155e-01 1.636108e-01 1.536465e-01 1.567667e-01 1.466146e-01 1.498861e-01 1.406535e-01 1.441433e-01 1.359838e-01 1.394097e-01 1.320869e-01 1.351200e-01 1.283469e-01 1.307481e-01 1.242971e-01 1.259307e-01 1.196463e-01 1.204554e-01 1.142428e-01 1.142233e-01 1.080340e-01 1.072166e-01 1.010374e-01 9.947552e-02 9.332025e-02 
1.085515e-01 1.034517e-01 1.004010e-01 9.510321e-02 9.152536e-02 8.607910e-02 8.207223e-02 7.654421e-02 7.221604e-02 6.668977e-02 6.215873e-02 5.673721e-02 5.213691e-02 4.695278e-02 4.244676e-02 3.769213e-02 3.351656e-02 2.952154e-02 2.609531e-02 2.348480e-02 2.157064e-02 2.123938e-02 2.159844e-02 2.374836e-02 2.612924e-02 2.995056e-02 3.363507e-02 3.850814e-02 4.316172e-02 4.895052e-02 5.459122e-02 6.143805e-02 6.827409e-02 7.645744e-02 8.478949e-02 9.464524e-02 1.048033e-01 1.166689e-01 1.289620e-01 1.431279e-01 1.577981e-01 1.744608e-01 1.916388e-01 2.108542e-01 2.305156e-01 2.521544e-01 2.740788e-01 2.977880e-01 3.215268e-01 3.467058e-01 3.715679e-01 3.973682e-01 4.224327e-01 4.477898e-01 4.719535e-01 4.956553e-01 5.177155e-01 5.385026e-01 5.572669e-01 5.739483e-01 5.883511e-01 5.999100e-01 6.091090e-01 6.147704e-01 6.182030e-01 6.174480e-01 6.148430e-01 6.073797e-01 5.987411e-01 5.844659e-01 5.700636e-01 5.490561e-01 5.294495e-01 5.020474e-01 4.781470e-01 4.451347e-01 4.182638e-01 3.811869e-01 3.530756e-01 3.146462e-01 2.873253e-01 2.517946e-01 2.274610e-01 2.005001e-01 1.813750e-01 1.679800e-01 1.554190e-01 1.549517e-01 1.474072e-01 1.529513e-01 1.467190e-01 1.525824e-01 1.461377e-01 1.505369e-01 1.455426e-01 1.492108e-01 1.470382e-01 1.502077e-01 1.509355e-01 1.517871e-01 1.549725e-01 1.523684e-01 1.568262e-01 1.508516e-01 1.548787e-01 1.465290e-01 1.499895e-01 1.419692e-01 1.456266e-01 1.389676e-01 1.428356e-01 1.373998e-01 1.410979e-01 1.364529e-01 1.396240e-01 1.353972e-01 1.378235e-01 1.337556e-01 1.353355e-01 1.312550e-01 1.319600e-01 1.277550e-01 1.275996e-01 1.232011e-01 1.222252e-01 1.175962e-01 1.158564e-01 1.109862e-01 
9.461215e-02 8.920760e-02 8.670436e-02 8.135528e-02 7.829795e-02 7.307997e-02 6.958825e-02 6.459567e-02 6.081441e-02 5.616345e-02 5.227386e-02 4.811026e-02 4.434988e-02 4.086174e-02 3.755476e-02 3.498229e-02 3.255829e-02 3.115942e-02 3.007276e-02 2.998058e-02 3.045917e-02 3.153111e-02 3.342100e-02 3.534985e-02 3.832819e-02 4.089358e-02 4.473713e-02 4.790960e-02 5.257852e-02 5.649976e-02 6.211561e-02 6.705018e-02 7.384933e-02 8.013571e-02 8.841937e-02 9.642183e-02 1.065062e-01 1.165688e-01 1.287386e-01 1.411428e-01 1.556092e-01 1.705352e-01 1.873970e-01 2.048854e-01 2.240920e-01 2.440070e-01 2.653238e-01 2.873201e-01 3.103016e-01 3.338033e-01 3.577816e-01 3.819822e-01 4.060805e-01 4.299720e-01 4.531509e-01 4.755879e-01 4.967249e-01 5.165191e-01 5.345137e-01 5.505439e-01 5.644267e-01 5.757400e-01 5.847634e-01 5.906443e-01 5.943383e-01 5.943338e-01 5.925326e-01 5.864474e-01 5.793038e-01 5.671849e-01 5.551842e-01 5.373106e-01 5.212713e-01 4.981622e-01 4.791821e-01 4.516533e-01 4.309414e-01 4.002466e-01 3.788112e-01 3.468652e-01 3.251810e-01 2.947382e-01 2.727401e-01 2.472064e-01 2.249775e-01 2.074240e-01 1.862693e-01 1.776395e-01 1.598125e-01 1.578064e-01 1.440861e-01 1.452713e-01 1.354671e-01 1.378534e-01 1.332701e-01 1.358199e-01 1.337977e-01 1.370422e-01 1.380339e-01 1.380943e-01 1.422754e-01 1.377582e-01 1.441548e-01 1.356846e-01 1.417465e-01 1.307591e-01 1.360286e-01 1.262064e-01 1.317377e-01 1.238447e-01 1.294867e-01 1.229661e-01 1.281923e-01 1.224306e-01 1.268745e-01 1.214825e-01 1.249790e-01 1.197394e-01 1.222442e-01 1.170376e-01 1.185648e-01 1.133268e-01 1.139177e-01 1.086197e-01 1.083292e-01 1.029692e-01 1.018624e-01 9.646032e-02 
1.133075e-01 1.090016e-01 1.061858e-01 1.015731e-01 9.811916e-02 9.325274e-02 8.926271e-02 8.421912e-02 7.981254e-02 7.469304e-02 7.001022e-02 6.494448e-02 6.015250e-02 5.530820e-02 5.061504e-02 4.621970e-02 4.190560e-02 3.828828e-02 3.476014e-02 3.239429e-02 3.021003e-02 2.961914e-02 2.926933e-02 3.062741e-02 3.210336e-02 3.504907e-02 3.794887e-02 4.205118e-02 4.607397e-02 5.117772e-02 5.629675e-02 6.251285e-02 6.891450e-02 7.651850e-02 8.450584e-02 9.384617e-02 1.037545e-01 1.151773e-01 1.273056e-01 1.410936e-01 1.556510e-01 1.719723e-01 1.890345e-01 2.078987e-01 2.273715e-01 2.485903e-01 2.701771e-01 2.933337e-01 3.165140e-01 3.409481e-01 3.649738e-01 3.897926e-01 4.137140e-01 4.378399e-01 4.605686e-01 4.828266e-01 5.032375e-01 5.224785e-01 5.395395e-01 5.547786e-01 5.676826e-01 5.782177e-01 5.864812e-01 5.919512e-01 5.954506e-01 5.958069e-01 5.947419e-01 5.901403e-01 5.849440e-01 5.756001e-01 5.668326e-01 5.528872e-01 5.411409e-01 5.225915e-01 5.083994e-01 4.851685e-01 4.688794e-01 4.410898e-01 4.226911e-01 3.911443e-01 3.701598e-01 3.368617e-01 3.126691e-01 2.810483e-01 2.539471e-01 2.282502e-01 2.009049e-01 1.843402e-01 1.612643e-01 1.536997e-01 1.359793e-01 1.351849e-01 1.207337e-01 1.217814e-01 1.122183e-01 1.149535e-01 1.107364e-01 1.154076e-01 1.152515e-01 1.168293e-01 1.213533e-01 1.183343e-01 1.264407e-01 1.200382e-01 1.276686e-01 1.183044e-01 1.245936e-01 1.175761e-01 1.241684e-01 1.195885e-01 1.260930e-01 1.228452e-01 1.286211e-01 1.259332e-01 1.306710e-01 1.281451e-01 1.317682e-01 1.291978e-01 1.317267e-01 1.289895e-01 1.304754e-01 1.274907e-01 1.279915e-01 1.247047e-01 1.242792e-01 1.206577e-01 1.193666e-01 1.153983e-01 
9.970117e-02 9.517000e-02 9.310949e-02 8.854065e-02 8.583592e-02 8.130685e-02 7.808355e-02 7.369308e-02 7.010879e-02 6.597843e-02 6.223148e-02 5.850721e-02 5.484735e-02 5.169967e-02 4.843618e-02 4.605114e-02 4.354107e-02 4.208587e-02 4.066863e-02 4.022351e-02 4.009683e-02 4.059974e-02 4.173769e-02 4.302706e-02 4.525396e-02 4.719389e-02 5.034653e-02 5.292714e-02 5.696849e-02 6.033655e-02 6.538677e-02 6.982580e-02 7.613674e-02 8.201710e-02 8.991430e-02 9.762694e-02 1.074388e-01 1.173295e-01 1.293229e-01 1.416400e-01 1.559716e-01 1.708293e-01 1.875120e-01 2.048611e-01 2.237385e-01 2.433420e-01 2.640689e-01 2.854828e-01 3.075149e-01 3.300834e-01 3.526846e-01 3.755576e-01 3.978342e-01 4.200172e-01 4.409842e-01 4.614232e-01 4.801036e-01 4.977969e-01 5.133381e-01 5.274550e-01 5.392355e-01 5.492089e-01 5.569043e-01 5.624687e-01 5.660675e-01 5.672373e-01 5.670306e-01 5.640475e-01 5.606184e-01 5.538828e-01 5.480782e-01 5.380245e-01 5.308249e-01 5.177001e-01 5.098833e-01 4.935071e-01 4.850900e-01 4.648374e-01 4.545182e-01 4.297886e-01 4.148910e-01 3.860125e-01 3.634337e-01 3.324008e-01 3.006218e-01 2.708551e-01 2.324182e-01 2.074571e-01 1.702532e-01 1.529387e-01 1.250077e-01 1.177892e-01 9.990325e-02 9.982536e-02 9.542376e-02 9.649247e-02 9.150220e-02 9.823214e-02 9.655002e-02 9.726559e-02 1.017056e-01 9.561748e-02 1.063915e-01 9.667841e-02 1.079754e-01 9.592399e-02 1.052220e-01 9.740416e-02 1.070015e-01 1.019613e-01 1.109173e-01 1.069248e-01 1.145555e-01 1.108580e-01 1.170379e-01 1.133709e-01 1.181836e-01 1.144473e-01 1.180146e-01 1.141613e-01 1.165926e-01 1.125959e-01 1.139811e-01 1.098292e-01 1.102435e-01 1.059396e-01 1.054528e-01 1.010164e-01 
1.199483e-01 1.166137e-01 1.141232e-01 1.103328e-01 1.070560e-01 1.028618e-01 9.890039e-02 9.438477e-02 8.986834e-02 8.514695e-02 8.023686e-02 7.546147e-02 7.035656e-02 6.572122e-02 6.066794e-02 5.642065e-02 5.173110e-02 4.819022e-02 4.426324e-02 4.181803e-02 3.912227e-02 3.815033e-02 3.707611e-02 3.773243e-02 3.834920e-02 4.045016e-02 4.251580e-02 4.576377e-02 4.903463e-02 5.330272e-02 5.775390e-02 6.316593e-02 6.900360e-02 7.587325e-02 8.344417e-02 9.216999e-02 1.018472e-01 1.128085e-01 1.248935e-01 1.383688e-01 1.530257e-01 1.691372e-01 1.863525e-01 2.050271e-01 2.245838e-01 2.455226e-01 2.669813e-01 2.896390e-01 3.123314e-01 3.359161e-01 3.589607e-01 3.824664e-01 4.048200e-01 4.271037e-01 4.476580e-01 4.675660e-01 4.852873e-01 5.018199e-01 5.159148e-01 5.284012e-01 5.384700e-01 5.467060e-01 5.528352e-01 5.571203e-01 5.598741e-01 5.609037e-01 5.611988e-01 5.598169e-01 5.586952e-01 5.555653e-01 5.539210e-01 5.491734e-01 5.474731e-01 5.403993e-01 5.384035e-01 5.273688e-01 5.238588e-01 5.066772e-01 4.992794e-01 4.741562e-01 4.595364e-01 4.263295e-01 4.012269e-01 3.624052e-01 3.257833e-01 2.862389e-01 2.420501e-01 2.072747e-01 1.662623e-01 1.411938e-01 1.114027e-01 1.059242e-01 8.297445e-02 8.056275e-02 6.511705e-02 6.759753e-02 6.079002e-02 6.860136e-02 6.391638e-02 6.530467e-02 6.962673e-02 6.372462e-02 7.758779e-02 7.091383e-02 8.617517e-02 7.693052e-02 8.855191e-02 8.559333e-02 9.734955e-02 9.670730e-02 1.069032e-01 1.066326e-01 1.148545e-01 1.144883e-01 1.209338e-01 1.203655e-01 1.252896e-01 1.244643e-01 1.280635e-01 1.269265e-01 1.293365e-01 1.278324e-01 1.291452e-01 1.272240e-01 1.275046e-01 1.251275e-01 1.244289e-01 1.215737e-01 
1.065595e-01 1.030221e-01 1.015191e-01 9.781508e-02 9.554266e-02 9.174299e-02 8.882386e-02 8.502422e-02 8.162024e-02 7.794084e-02 7.425932e-02 7.084294e-02 6.714077e-02 6.414750e-02 6.072873e-02 5.832277e-02 5.551878e-02 5.384116e-02 5.195841e-02 5.108586e-02 5.032420e-02 5.023819e-02 5.063106e-02 5.123856e-02 5.268317e-02 5.389722e-02 5.626924e-02 5.810325e-02 6.137905e-02 6.400722e-02 6.833278e-02 7.209650e-02 7.778349e-02 8.313826e-02 9.059149e-02 9.800694e-02 1.076133e-01 1.174669e-01 1.294945e-01 1.419993e-01 1.565361e-01 1.717068e-01 1.886342e-01 2.062732e-01 2.252552e-01 2.449427e-01 2.654254e-01 2.865180e-01 3.077432e-01 3.293923e-01 3.504376e-01 3.716430e-01 3.914997e-01 4.112076e-01 4.289012e-01 4.461430e-01 4.608859e-01 4.749366e-01 4.862782e-01 4.967907e-01 5.047079e-01 5.117694e-01 5.166486e-01 5.207216e-01 5.232504e-01 5.250301e-01 5.260967e-01 5.263826e-01 5.270564e-01 5.266608e-01 5.281680e-01 5.276709e-01 5.311160e-01 5.302773e-01 5.359296e-01 5.329892e-01 5.392811e-01 5.308717e-01 5.337225e-01 5.160468e-01 5.092362e-01 4.802701e-01 4.572238e-01 4.186502e-01 3.755469e-01 3.326055e-01 2.720869e-01 2.298961e-01 1.662374e-01 1.289135e-01 8.554277e-02 7.120755e-02 4.918720e-02 4.926774e-02 5.318842e-02 5.200260e-02 3.659307e-02 4.973693e-02 4.032869e-02 3.942491e-02 3.885459e-02 2.859204e-02 4.290629e-02 2.897700e-02 5.334916e-02 4.644271e-02 6.480091e-02 6.399964e-02 8.056712e-02 7.987839e-02 9.276544e-02 9.144435e-02 1.014188e-01 9.970431e-02 1.075004e-01 1.055355e-01 1.116227e-01 1.094507e-01 1.141208e-01 1.117414e-01 1.151770e-01 1.125752e-01 1.148913e-01 1.120516e-01 1.133241e-01 1.102390e-01 1.105257e-01 1.072019e-01 
1.287928e-01 1.265630e-01 1.245008e-01 1.216303e-01 1.185955e-01 1.151273e-01 1.112148e-01 1.072321e-01 1.025774e-01 9.820653e-02 9.299047e-02 8.840261e-02 8.285526e-02 7.826887e-02 7.267496e-02 6.835882e-02 6.306502e-02 5.933961e-02 5.475655e-02 5.197751e-02 4.854722e-02 4.703457e-02 4.511361e-02 4.501258e-02 4.470136e-02 4.589963e-02 4.702705e-02 4.929485e-02 5.165141e-02 5.489257e-02 5.847702e-02 6.286425e-02 6.795468e-02 7.390119e-02 8.096145e-02 8.898506e-02 9.849132e-02 1.090517e-01 1.213371e-01 1.347184e-01 1.498900e-01 1.661445e-01 1.840553e-01 2.029777e-01 2.232184e-01 2.443260e-01 2.662193e-01 2.887398e-01 3.113490e-01 3.342349e-01 3.564041e-01 3.783966e-01 3.988472e-01 4.186099e-01 4.361042e-01 4.524279e-01 4.659945e-01 4.780502e-01 4.872296e-01 4.948146e-01 4.998512e-01 5.035528e-01 5.054561e-01 5.066412e-01 5.070699e-01 5.076165e-01 5.085716e-01 5.103418e-01 5.136627e-01 5.178564e-01 5.246774e-01 5.312113e-01 5.415481e-01 5.485485e-01 5.610046e-01 5.646377e-01 5.761206e-01 5.711847e-01 5.767214e-01 5.582519e-01 5.512646e-01 5.167458e-01 4.906077e-01 4.419181e-01 3.936468e-01 3.374078e-01 2.719749e-01 2.149610e-01 1.524177e-01 9.707244e-02 6.249046e-02 6.720248e-02 5.025427e-02 4.145976e-02 1.122193e-02 2.383433e-02 9.195675e-03 2.148267e-02 1.008960e-02 2.110100e-02 1.766346e-02 2.592874e-02 1.547542e-02 2.900714e-02 1.266980e-02 2.234682e-02 4.794284e-02 5.519181e-02 7.420197e-02 7.755573e-02 9.091184e-02 9.294056e-02 1.029658e-01 1.045148e-01 1.122922e-01 1.135422e-01 1.196115e-01 1.205534e-01 1.252097e-01 1.257836e-01 1.291914e-01 1.293241e-01 1.315715e-01 1.311907e-01 1.323222e-01 1.313642e-01 1.314041e-01 1.298219e-01 
1.155319e-01 1.130594e-01 1.122304e-01 1.094361e-01 1.076781e-01 1.046178e-01 1.020406e-01 9.880100e-02 9.556347e-02 9.226040e-02 8.857510e-02 8.535019e-02 8.148333e-02 7.849584e-02 7.475936e-02 7.217170e-02 6.890003e-02 6.685366e-02 6.435690e-02 6.294009e-02 6.143649e-02 6.065886e-02 6.021929e-02 6.002124e-02 6.057811e-02 6.089274e-02 6.233301e-02 6.318404e-02 6.548638e-02 6.708341e-02 7.043465e-02 7.322126e-02 7.805104e-02 8.265531e-02 8.954371e-02 9.661422e-02 1.060979e-01 1.161069e-01 1.284998e-01 1.416301e-01 1.569428e-01 1.730721e-01 1.910048e-01 2.097193e-01 2.296720e-01 2.502706e-01 2.713548e-01 2.928550e-01 3.139253e-01 3.351004e-01 3.548324e-01 3.743141e-01 3.913542e-01 4.078217e-01 4.210237e-01 4.334740e-01 4.422003e-01 4.502484e-01 4.546516e-01 4.587473e-01 4.598706e-01 4.612827e-01 4.608237e-01 4.613041e-01 4.611087e-01 4.623693e-01 4.640446e-01 4.674462e-01 4.723883e-01 4.790142e-01 4.886277e-01 4.991329e-01 5.145814e-01 5.281682e-01 5.492836e-01 5.622529e-01 5.859396e-01 5.913609e-01 6.106247e-01 6.004130e-01 6.048900e-01 5.738290e-01 5.519435e-01 5.017982e-01 4.452461e-01 3.866867e-01 2.948647e-01 2.381488e-01 1.274616e-01 6.220602e-02 1.064288e-02 2.781471e-02 4.478787e-02 7.003209e-02 2.741119e-02 2.849392e-02 2.064595e-02 2.630726e-02 2.017770e-02 2.449599e-02 1.983837e-02 2.251600e-02 1.872079e-02 2.398108e-02 2.923235e-02 3.066628e-02 5.243443e-02 5.207869e-02 6.979222e-02 6.872638e-02 8.242389e-02 8.150901e-02 9.234831e-02 9.160741e-02 1.003256e-01 9.962117e-02 1.066747e-01 1.058927e-01 1.115662e-01 1.106231e-01 1.150847e-01 1.139138e-01 1.172536e-01 1.158001e-01 1.180612e-01 1.162838e-01 1.174880e-01 1.153633e-01 
1.403050e-01 1.392826e-01 1.377667e-01 1.358887e-01 1.331746e-01 1.304648e-01 1.266308e-01 1.231661e-01 1.183481e-01 1.142616e-01 1.086581e-01 1.041396e-01 9.801311e-02 9.330735e-02 8.698513e-02 8.238791e-02 7.626007e-02 7.210931e-02 6.661847e-02 6.326820e-02 5.886755e-02 5.662161e-02 5.366869e-02 5.266892e-02 5.127949e-02 5.143406e-02 5.145254e-02 5.254241e-02 5.374899e-02 5.568208e-02 5.809252e-02 6.111410e-02 6.514039e-02 6.985821e-02 7.621364e-02 8.339816e-02 9.279077e-02 1.030708e-01 1.159157e-01 1.295905e-01 1.459144e-01 1.629263e-01 1.823921e-01 2.023437e-01 2.242737e-01 2.464182e-01 2.697910e-01 2.930097e-01 3.164638e-01 3.392749e-01 3.611623e-01 3.818133e-01 4.003510e-01 4.170385e-01 4.305910e-01 4.418223e-01 4.493129e-01 4.543590e-01 4.557222e-01 4.550391e-01 4.515378e-01 4.470009e-01 4.412231e-01 4.360306e-01 4.315206e-01 4.295789e-01 4.301075e-01 4.347865e-01 4.430948e-01 4.558894e-01 4.727037e-01 4.926263e-01 5.167592e-01 5.402679e-01 5.690119e-01 5.897918e-01 6.184605e-01 6.277771e-01 6.489471e-01 6.378811e-01 6.410506e-01 6.038256e-01 5.766874e-01 5.136654e-01 4.491118e-01 3.702183e-01 2.740115e-01 1.910849e-01 9.737118e-02 3.884534e-02 1.056723e-01 8.203654e-02 8.255027e-02 1.149227e-01 6.796094e-02 1.905772e-02 2.651654e-02 1.372645e-02 2.008184e-02 3.771382e-02 4.328247e-02 4.962924e-02 5.506815e-02 6.223498e-02 6.195680e-02 5.868052e-02 6.649770e-02 6.039976e-02 7.287529e-02 7.196238e-02 8.383860e-02 8.537710e-02 9.547103e-02 9.791254e-02 1.062913e-01 1.089591e-01 1.158649e-01 1.184341e-01 1.240540e-01 1.263292e-01 1.307651e-01 1.325981e-01 1.358830e-01 1.371461e-01 1.392695e-01 1.398513e-01 1.407830e-01 1.405933e-01 
1.271319e-01 1.257620e-01 1.257279e-01 1.238670e-01 1.227122e-01 1.203912e-01 1.182010e-01 1.154904e-01 1.124134e-01 1.094218e-01 1.056732e-01 1.025419e-01 9.840081e-02 9.529415e-02 9.109128e-02 8.818037e-02 8.427213e-02 8.171067e-02 7.843247e-02 7.632583e-02 7.392698e-02 7.230488e-02 7.088813e-02 6.970365e-02 6.921500e-02 6.839362e-02 6.869930e-02 6.824381e-02 6.928765e-02 6.942147e-02 7.141487e-02 7.271566e-02 7.626785e-02 7.967200e-02 8.570449e-02 9.223795e-02 1.016175e-01 1.119720e-01 1.251372e-01 1.394655e-01 1.563322e-01 1.743162e-01 1.943495e-01 2.152919e-01 2.375532e-01 2.603869e-01 2.835352e-01 3.067983e-01 3.291037e-01 3.509576e-01 3.703889e-01 3.887495e-01 4.031965e-01 4.160421e-01 4.237280e-01 4.296138e-01 4.297128e-01 4.284313e-01 4.217724e-01 4.149315e-01 4.043983e-01 3.954873e-01 3.854765e-01 3.789287e-01 3.736488e-01 3.729929e-01 3.748824e-01 3.815873e-01 3.914402e-01 4.058766e-01 4.243014e-01 4.468202e-01 4.748758e-01 5.045466e-01 5.423724e-01 5.739035e-01 6.176859e-01 6.397148e-01 6.797332e-01 6.778175e-01 6.991021e-01 6.623473e-01 6.457769e-01 5.735234e-01 5.019899e-01 4.151312e-01 2.754740e-01 2.265732e-01 5.091430e-02 1.320160e-01 4.802328e-02 3.192236e-02 7.999624e-02 9.941341e-02 1.057907e-01 1.044424e-01 9.855394e-02 1.026836e-01 1.029950e-01 8.953534e-02 1.030413e-01 7.973914e-02 1.070268e-01 7.472755e-02 9.387562e-02 6.613395e-02 7.508052e-02 6.185517e-02 7.407235e-02 6.830372e-02 8.018693e-02 7.799066e-02 8.843508e-02 8.783784e-02 9.679270e-02 9.687817e-02 1.045301e-01 1.048653e-01 1.113774e-01 1.117242e-01 1.171820e-01 1.173800e-01 1.218016e-01 1.217274e-01 1.250880e-01 1.246437e-01 1.269009e-01 1.260147e-01 
1.551059e-01 1.553782e-01 1.545444e-01 1.537219e-01 1.514215e-01 1.494954e-01 1.457780e-01 1.428096e-01 1.378046e-01 1.339293e-01 1.278512e-01 1.232773e-01 1.164244e-01 1.114271e-01 1.041766e-01 9.908750e-02 9.188553e-02 8.707461e-02 8.041579e-02 7.625797e-02 7.063515e-02 6.744259e-02 6.323969e-02 6.115630e-02 5.850045e-02 5.742355e-02 5.612964e-02 5.579034e-02 5.555298e-02 5.579181e-02 5.657380e-02 5.768286e-02 6.007163e-02 6.298946e-02 6.819659e-02 7.423628e-02 8.348819e-02 9.363131e-02 1.074910e-01 1.220181e-01 1.403427e-01 1.589886e-01 1.811644e-01 2.032735e-01 2.282970e-01 2.528058e-01 2.792370e-01 3.045851e-01 3.304910e-01 3.545666e-01 3.775383e-01 3.977528e-01 4.150853e-01 4.286821e-01 4.378104e-01 4.424831e-01 4.417293e-01 4.364948e-01 4.260114e-01 4.120745e-01 3.945936e-01 3.758534e-01 3.567441e-01 3.397719e-01 3.263297e-01 3.192903e-01 3.190094e-01 3.277937e-01 3.437725e-01 3.679735e-01 3.973361e-01 4.325366e-01 4.712880e-01 5.124520e-01 5.578559e-01 5.973959e-01 6.447957e-01 6.700628e-01 7.102246e-01 7.071522e-01 7.251854e-01 6.841073e-01 6.568633e-01 5.731031e-01 4.821170e-01 3.658502e-01 2.038591e-01 7.964288e-02 1.302559e-01 4.717013e-02 9.849730e-02 4.238262e-02 1.177951e-01 1.756039e-01 1.223054e-01 4.888642e-02 1.003857e-01 4.613774e-02 7.554731e-02 2.701879e-02 6.343970e-02 1.355262e-02 5.608119e-02 1.147568e-02 6.104673e-02 3.601074e-02 6.021848e-02 5.286785e-02 6.869945e-02 6.755277e-02 7.970313e-02 8.150473e-02 9.160626e-02 9.485386e-02 1.035250e-01 1.073986e-01 1.149203e-01 1.189574e-01 1.254514e-01 1.293512e-01 1.348349e-01 1.383644e-01 1.427843e-01 1.457414e-01 1.490017e-01 1.512062e-01 1.531949e-01 1.544925e-01 
1.420461e-01 1.417977e-01 1.426851e-01 1.417737e-01 1.413194e-01 1.397390e-01 1.379902e-01 1.357863e-01 1.328726e-01 1.301406e-01 1.262769e-01 1.231565e-01 1.186374e-01 1.153004e-01 1.104848e-01 1.071165e-01 1.023977e-01 9.917064e-02 9.492684e-02 9.196726e-02 8.849328e-02 8.584817e-02 8.328372e-02 8.090637e-02 7.920146e-02 7.698266e-02 7.594853e-02 7.381730e-02 7.329082e-02 7.140292e-02 7.152554e-02 7.054415e-02 7.210350e-02 7.343381e-02 7.796321e-02 8.343051e-02 9.252827e-02 1.033285e-01 1.176879e-01 1.338771e-01 1.532239e-01 1.741432e-01 1.976235e-01 2.222278e-01 2.485276e-01 2.753575e-01 3.026273e-01 3.296679e-01 3.554421e-01 3.800354e-01 4.012552e-01 4.201819e-01 4.334262e-01 4.432917e-01 4.453508e-01 4.434096e-01 4.323486e-01 4.177940e-01 3.945163e-01 3.699847e-01 3.398373e-01 3.124906e-01 2.854872e-01 2.662743e-01 2.533068e-01 2.510550e-01 2.560454e-01 2.697520e-01 2.882661e-01 3.127316e-01 3.408957e-01 3.750119e-01 4.140263e-01 4.591484e-01 5.126032e-01 5.646097e-01 6.302445e-01 6.723749e-01 7.374791e-01 7.451463e-01 7.912330e-01 7.448083e-01 7.437661e-01 6.306159e-01 5.584417e-01 3.988989e-01 2.109329e-01 9.969136e-02 9.778598e-02 9.908784e-02 3.447061e-02 2.267237e-01 2.021513e-01 4.792653e-02 2.590882e-02 4.396964e-02 2.340993e-02 3.948224e-02 1.046703e-02 5.128038e-02 1.741733e-02 5.530100e-02 2.612383e-02 5.384559e-02 6.536365e-02 2.563955e-02 5.868919e-02 5.040372e-02 7.031122e-02 6.676177e-02 8.004388e-02 7.849125e-02 8.889073e-02 8.867608e-02 9.759412e-02 9.826315e-02 1.062217e-01 1.074167e-01 1.145881e-01 1.160232e-01 1.224153e-01 1.238531e-01 1.293865e-01 1.306247e-01 1.351774e-01 1.360450e-01 1.394830e-01 1.398423e-01 