# vtk DataFile Version 2.0
Comment goes here
ASCII

DATASET STRUCTURED_POINTS
DIMENSIONS    128   128   1

ORIGIN    0.000   0.000   0.000
SPACING   0.0156250.015625   1.000

POINT_DATA   16384
SCALARS uMag double
LOOKUP_TABLE default

1.053669e-02 1.116991e-02 1.142164e-02 1.189946e-02 1.207316e-02 1.239410e-02 1.249266e-02 1.265692e-02 1.268372e-02 1.269361e-02 1.265285e-02 1.251320e-02 1.241012e-02 1.212855e-02 1.196961e-02 1.155666e-02 1.134972e-02 1.081894e-02 1.057335e-02 9.941270e-03 9.668055e-03 8.954128e-03 8.666092e-03 7.892633e-03 7.604540e-03 6.796603e-03 6.525327e-03 5.710550e-03 5.475174e-03 4.683531e-03 4.505317e-03 3.768690e-03 3.670828e-03 3.022310e-03 3.029306e-03 2.502104e-03 2.638691e-03 2.264507e-03 2.553935e-03 2.360719e-03 2.822341e-03 2.831371e-03 3.477505e-03 3.699865e-03 4.532061e-03 4.964751e-03 5.969777e-03 6.591924e-03 7.738047e-03 8.507924e-03 9.742308e-03 1.059609e-02 1.184427e-02 1.269746e-02 1.386588e-02 1.461818e-02 1.560023e-02 1.614385e-02 1.682937e-02 1.706007e-02 1.734703e-02 1.717597e-02 1.698244e-02 1.634689e-02 1.562128e-02 1.449212e-02 1.322034e-02 1.160615e-02 9.815793e-03 7.764457e-03 5.527249e-03 3.126994e-03 5.606726e-04 2.058789e-03 4.790167e-03 7.458038e-03 1.014899e-02 1.266244e-02 1.508404e-02 1.723168e-02 1.916791e-02 2.077144e-02 2.207129e-02 2.303571e-02 2.366458e-02 2.401466e-02 2.407904e-02 2.395888e-02 2.368441e-02 2.331267e-02 2.297590e-02 2.256936e-02 2.240148e-02 2.209068e-02 2.218622e-02 2.196339e-02 2.224170e-02 2.197234e-02 2.221437e-02 2.170205e-02 2.164674e-02 2.071912e-02 2.017074e-02 1.876289e-02 1.771242e-02 1.593078e-02 1.459882e-02 1.265372e-02 1.127561e-02 9.330628e-03 8.037636e-03 6.173975e-03 5.009668e-03 3.258321e-03 2.225607e-03 5.981656e-04 3.118090e-04 1.809225e-03 2.606360e-03 3.969087e-03 4.661868e-03 5.885866e-03 6.481238e-03 7.562801e-03 8.066378e-03 9.001920e-03 9.418177e-03 1.020418e-02 
8.880479e-03 9.412374e-03 9.695862e-03 1.010466e-02 1.030422e-02 1.058952e-02 1.070732e-02 1.086988e-02 1.090884e-02 1.095093e-02 1.091494e-02 1.084065e-02 1.073482e-02 1.055029e-02 1.038110e-02 1.009475e-02 9.870154e-03 9.492792e-03 9.222319e-03 8.767232e-03 8.462099e-03 7.945100e-03 7.618310e-03 7.057764e-03 6.724229e-03 6.141041e-03 5.817693e-03 5.235229e-03 4.941094e-03 4.385000e-03 4.141236e-03 3.639156e-03 3.469111e-03 3.050449e-03 2.979888e-03 2.675830e-03 2.732845e-03 2.575681e-03 2.787977e-03 2.806740e-03 3.195394e-03 3.409161e-03 3.984670e-03 4.400063e-03 5.161931e-03 5.772472e-03 6.706952e-03 7.490069e-03 8.566091e-03 9.479512e-03 1.064546e-02 1.162540e-02 1.280829e-02 1.377072e-02 1.487863e-02 1.572413e-02 1.665235e-02 1.727470e-02 1.791532e-02 1.821277e-02 1.846659e-02 1.835400e-02 1.814268e-02 1.756232e-02 1.683878e-02 1.576813e-02 1.452466e-02 1.298234e-02 1.125958e-02 9.318337e-03 7.237605e-03 5.116182e-03 3.240094e-03 2.769909e-03 4.336980e-03 6.638124e-03 9.118489e-03 1.155041e-02 1.387858e-02 1.601327e-02 1.789828e-02 1.952214e-02 2.079555e-02 2.180106e-02 2.241854e-02 2.282610e-02 2.288400e-02 2.283975e-02 2.255316e-02 2.228102e-02 2.191992e-02 2.163906e-02 2.143513e-02 2.127150e-02 2.132216e-02 2.126183e-02 2.148993e-02 2.139495e-02 2.158795e-02 2.126847e-02 2.116892e-02 2.045847e-02 1.986295e-02 1.869183e-02 1.758068e-02 1.604592e-02 1.465308e-02 1.296488e-02 1.153254e-02 9.852720e-03 8.511656e-03 6.921305e-03 5.717652e-03 4.260174e-03 3.219713e-03 1.999585e-03 1.333488e-03 1.341030e-03 1.891438e-03 2.888876e-03 3.582763e-03 4.569285e-03 5.197826e-03 6.085254e-03 6.628726e-03 7.401759e-03 7.857734e-03 8.511401e-03 
1.069226e-02 1.131789e-02 1.155947e-02 1.203252e-02 1.219898e-02 1.251660e-02 1.261007e-02 1.277160e-02 1.279498e-02 1.280219e-02 1.275930e-02 1.261667e-02 1.251245e-02 1.222739e-02 1.206803e-02 1.165098e-02 1.144400e-02 1.090844e-02 1.066283e-02 1.002523e-02 9.751488e-03 9.031257e-03 8.741492e-03 7.960766e-03 7.668829e-03 6.852303e-03 6.573867e-03 5.748512e-03 5.501177e-03 4.695834e-03 4.499339e-03 3.744312e-03 3.621263e-03 2.948568e-03 2.926552e-03 2.372688e-03 2.487358e-03 2.098268e-03 2.388132e-03 2.209769e-03 2.694220e-03 2.743941e-03 3.419701e-03 3.689546e-03 4.548335e-03 5.023800e-03 6.051247e-03 6.709183e-03 7.875339e-03 8.675441e-03 9.929338e-03 1.080975e-02 1.207828e-02 1.295611e-02 1.414658e-02 1.492275e-02 1.592924e-02 1.649728e-02 1.721048e-02 1.746831e-02 1.778789e-02 1.765072e-02 1.749855e-02 1.691126e-02 1.624423e-02 1.519284e-02 1.401706e-02 1.254500e-02 1.094482e-02 9.205066e-03 7.463803e-03 5.995111e-03 5.218877e-03 5.666069e-03 7.189933e-03 9.228860e-03 1.155437e-02 1.383211e-02 1.609947e-02 1.812207e-02 1.996462e-02 2.147605e-02 2.268915e-02 2.356253e-02 2.408668e-02 2.433225e-02 2.426585e-02 2.402565e-02 2.360318e-02 2.310815e-02 2.263419e-02 2.212964e-02 2.187482e-02 2.151857e-02 2.159927e-02 2.138343e-02 2.170778e-02 2.147576e-02 2.179604e-02 2.133547e-02 2.137136e-02 2.050974e-02 2.003720e-02 1.869918e-02 1.767878e-02 1.595579e-02 1.465507e-02 1.277339e-02 1.144758e-02 9.580718e-03 8.358115e-03 6.609245e-03 5.546665e-03 4.036743e-03 3.234426e-03 2.401832e-03 2.283674e-03 2.878997e-03 3.388572e-03 4.513229e-03 5.102015e-03 6.237029e-03 6.780146e-03 7.819722e-03 8.291988e-03 9.205152e-03 9.600782e-03 1.037405e-02 
9.193249e-03 9.704743e-03 9.958696e-03 1.035498e-02 1.053434e-02 1.081169e-02 1.091653e-02 1.107368e-02 1.110554e-02 1.114348e-02 1.110528e-02 1.102728e-02 1.092331e-02 1.073499e-02 1.057092e-02 1.028038e-02 1.006325e-02 9.681069e-03 9.419330e-03 8.958561e-03 8.662012e-03 8.138126e-03 7.817915e-03 7.248650e-03 6.917219e-03 6.322332e-03 5.993338e-03 5.394186e-03 5.082450e-03 4.501434e-03 4.223276e-03 3.683578e-03 3.458682e-03 2.986052e-03 2.843557e-03 2.474358e-03 2.464352e-03 2.258713e-03 2.448710e-03 2.472089e-03 2.896006e-03 3.162762e-03 3.803344e-03 4.289724e-03 5.121957e-03 5.802835e-03 6.803927e-03 7.651286e-03 8.788941e-03 9.760690e-03 1.098453e-02 1.201843e-02 1.325710e-02 1.427048e-02 1.543347e-02 1.632810e-02 1.731198e-02 1.798339e-02 1.868210e-02 1.903232e-02 1.935032e-02 1.930199e-02 1.916853e-02 1.867837e-02 1.806156e-02 1.713286e-02 1.605590e-02 1.475639e-02 1.332889e-02 1.183923e-02 1.035107e-02 9.120196e-03 8.286985e-03 8.217942e-03 8.922285e-03 1.028367e-02 1.206151e-02 1.398823e-02 1.596347e-02 1.781127e-02 1.948031e-02 2.089948e-02 2.198934e-02 2.280446e-02 2.321752e-02 2.341371e-02 2.322419e-02 2.293893e-02 2.236956e-02 2.184997e-02 2.121735e-02 2.073979e-02 2.035580e-02 2.009787e-02 2.010805e-02 2.005526e-02 2.036091e-02 2.032642e-02 2.066715e-02 2.044374e-02 2.053709e-02 1.997229e-02 1.955550e-02 1.855356e-02 1.751828e-02 1.611600e-02 1.480473e-02 1.324470e-02 1.193434e-02 1.039423e-02 9.199817e-03 7.781375e-03 6.751488e-03 5.557542e-03 4.765460e-03 3.995874e-03 3.612351e-03 3.560635e-03 3.695618e-03 4.253226e-03 4.666669e-03 5.436319e-03 5.910453e-03 6.689191e-03 7.138868e-03 7.852726e-03 8.247032e-03 8.866561e-03 
1.115308e-02 1.175797e-02 1.197056e-02 1.243044e-02 1.257603e-02 1.288439e-02 1.296313e-02 1.311691e-02 1.313035e-02 1.312978e-02 1.308073e-02 1.292932e-02 1.282191e-02 1.252649e-02 1.236609e-02 1.193681e-02 1.173007e-02 1.118032e-02 1.093508e-02 1.028131e-02 1.000660e-02 9.268102e-03 8.974099e-03 8.172686e-03 7.870613e-03 7.030203e-03 6.732259e-03 5.878225e-03 5.597539e-03 4.755782e-03 4.506817e-03 3.702763e-03 3.503660e-03 2.763054e-03 2.644732e-03 2.005324e-03 2.036637e-03 1.592823e-03 1.886937e-03 1.776281e-03 2.343253e-03 2.540033e-03 3.302072e-03 3.719147e-03 4.649208e-03 5.248955e-03 6.337047e-03 7.097795e-03 8.320256e-03 9.208248e-03 1.051887e-02 1.147816e-02 1.280704e-02 1.375891e-02 1.501547e-02 1.586384e-02 1.694376e-02 1.758542e-02 1.838147e-02 1.871987e-02 1.913593e-02 1.909682e-02 1.906380e-02 1.861111e-02 1.810482e-02 1.725798e-02 1.632335e-02 1.518491e-02 1.398329e-02 1.280149e-02 1.171497e-02 1.099613e-02 1.071261e-02 1.108314e-02 1.205506e-02 1.346734e-02 1.525270e-02 1.707917e-02 1.900850e-02 2.071749e-02 2.230953e-02 2.355556e-02 2.451222e-02 2.510884e-02 2.531366e-02 2.523902e-02 2.476968e-02 2.415947e-02 2.327217e-02 2.238549e-02 2.146609e-02 2.063719e-02 2.009136e-02 1.957906e-02 1.960156e-02 1.939688e-02 1.985350e-02 1.971688e-02 2.025970e-02 1.993357e-02 2.025395e-02 1.960545e-02 1.940685e-02 1.834385e-02 1.742615e-02 1.591242e-02 1.472947e-02 1.304714e-02 1.189474e-02 1.024575e-02 9.219024e-03 7.738214e-03 6.887066e-03 5.752655e-03 5.178735e-03 4.681891e-03 4.530377e-03 4.832461e-03 5.058319e-03 5.856036e-03 6.245631e-03 7.196007e-03 7.614146e-03 8.551929e-03 8.942065e-03 9.797048e-03 1.013609e-02 1.087508e-02 
9.802359e-03 1.027801e-02 1.047762e-02 1.085138e-02 1.099290e-02 1.125572e-02 1.133607e-02 1.148321e-02 1.150175e-02 1.153190e-02 1.148987e-02 1.140481e-02 1.130500e-02 1.110943e-02 1.095601e-02 1.065747e-02 1.045574e-02 1.006447e-02 9.820765e-03 9.349519e-03 9.070961e-03 8.534756e-03 8.229046e-03 7.644741e-03 7.319866e-03 6.705541e-03 6.369390e-03 5.743400e-03 5.403378e-03 4.783041e-03 4.446127e-03 3.846463e-03 3.521442e-03 2.956292e-03 2.664245e-03 2.160210e-03 1.974108e-03 1.634820e-03 1.753888e-03 1.799002e-03 2.325330e-03 2.732792e-03 3.518417e-03 4.157001e-03 5.126864e-03 5.945280e-03 7.072469e-03 8.043028e-03 9.298356e-03 1.038341e-02 1.171995e-02 1.286093e-02 1.421012e-02 1.532644e-02 1.659978e-02 1.759431e-02 1.869010e-02 1.946034e-02 2.027511e-02 2.072882e-02 2.117265e-02 2.124552e-02 2.125943e-02 2.093196e-02 2.050603e-02 1.981845e-02 1.901228e-02 1.808154e-02 1.705473e-02 1.610279e-02 1.516167e-02 1.454417e-02 1.414525e-02 1.425650e-02 1.475252e-02 1.567893e-02 1.693227e-02 1.832917e-02 1.984990e-02 2.125324e-02 2.255241e-02 2.358507e-02 2.431500e-02 2.474292e-02 2.474146e-02 2.450385e-02 2.381131e-02 2.302735e-02 2.186828e-02 2.081286e-02 1.957567e-02 1.864256e-02 1.783237e-02 1.733558e-02 1.723043e-02 1.716899e-02 1.760315e-02 1.763731e-02 1.823237e-02 1.814346e-02 1.864378e-02 1.840321e-02 1.846222e-02 1.796279e-02 1.710316e-02 1.602486e-02 1.492698e-02 1.363080e-02 1.259448e-02 1.130505e-02 1.037617e-02 9.209133e-03 8.407366e-03 7.477566e-03 6.863195e-03 6.307497e-03 5.961731e-03 5.873864e-03 5.823589e-03 6.143409e-03 6.311634e-03 6.864170e-03 7.140214e-03 7.772686e-03 8.077752e-03 8.699414e-03 8.989257e-03 9.551319e-03 
1.190421e-02 1.248022e-02 1.264906e-02 1.309031e-02 1.320389e-02 1.349884e-02 1.355477e-02 1.369693e-02 1.369492e-02 1.368220e-02 1.362369e-02 1.345817e-02 1.334609e-02 1.303379e-02 1.287235e-02 1.242315e-02 1.221765e-02 1.164496e-02 1.140157e-02 1.072208e-02 1.044764e-02 9.680873e-03 9.382620e-03 8.550461e-03 8.235715e-03 7.361728e-03 7.037478e-03 6.145890e-03 5.818270e-03 4.932380e-03 4.606309e-03 3.746020e-03 3.426283e-03 2.604972e-03 2.305014e-03 1.531776e-03 1.331311e-03 7.311825e-04 1.058762e-03 1.227880e-03 1.954641e-03 2.461203e-03 3.326858e-03 3.980342e-03 4.994533e-03 5.780583e-03 6.948948e-03 7.865574e-03 9.171066e-03 1.019750e-02 1.159778e-02 1.268636e-02 1.411418e-02 1.519093e-02 1.655761e-02 1.752914e-02 1.873193e-02 1.949807e-02 2.043200e-02 2.090275e-02 2.147626e-02 2.159090e-02 2.174423e-02 2.148985e-02 2.121622e-02 2.064541e-02 2.001747e-02 1.926865e-02 1.847489e-02 1.779554e-02 1.717341e-02 1.690860e-02 1.688227e-02 1.731734e-02 1.811522e-02 1.921364e-02 2.063176e-02 2.204138e-02 2.360598e-02 2.489586e-02 2.612249e-02 2.693450e-02 2.746105e-02 2.757669e-02 2.723212e-02 2.660971e-02 2.544784e-02 2.421231e-02 2.250200e-02 2.090870e-02 1.913419e-02 1.764883e-02 1.650342e-02 1.564573e-02 1.551608e-02 1.529030e-02 1.593909e-02 1.588644e-02 1.671317e-02 1.649133e-02 1.728547e-02 1.700999e-02 1.746962e-02 1.719418e-02 1.651046e-02 1.544717e-02 1.456069e-02 1.322472e-02 1.242491e-02 1.110627e-02 1.038784e-02 9.228681e-03 8.605866e-03 7.769690e-03 7.321606e-03 6.976109e-03 6.780518e-03 6.970755e-03 7.019277e-03 7.602213e-03 7.806866e-03 8.581070e-03 8.852806e-03 9.672395e-03 9.953806e-03 1.073396e-02 1.099290e-02 1.168542e-02 
1.068242e-02 1.111421e-02 1.124214e-02 1.158745e-02 1.167782e-02 1.192192e-02 1.196882e-02 1.210281e-02 1.210339e-02 1.212307e-02 1.207665e-02 1.198188e-02 1.188939e-02 1.168372e-02 1.154723e-02 1.123759e-02 1.105999e-02 1.065638e-02 1.044096e-02 9.956045e-03 9.706224e-03 9.154832e-03 8.873707e-03 8.272150e-03 7.962052e-03 7.327176e-03 6.989081e-03 6.336920e-03 5.969744e-03 5.313649e-03 4.913583e-03 4.261826e-03 3.822246e-03 3.175488e-03 2.689588e-03 2.040212e-03 1.520711e-03 8.820474e-04 6.724696e-04 8.743372e-04 1.678788e-03 2.379446e-03 3.369829e-03 4.228657e-03 5.372762e-03 6.375564e-03 7.667360e-03 8.806028e-03 1.022319e-02 1.146976e-02 1.296832e-02 1.426862e-02 1.578156e-02 1.705566e-02 1.849530e-02 1.964452e-02 2.090965e-02 2.183060e-02 2.281920e-02 2.342389e-02 2.405099e-02 2.428973e-02 2.450805e-02 2.438945e-02 2.420985e-02 2.381239e-02 2.332119e-02 2.279322e-02 2.216390e-02 2.171023e-02 2.119854e-02 2.104180e-02 2.092833e-02 2.122372e-02 2.167276e-02 2.240338e-02 2.332545e-02 2.428118e-02 2.535044e-02 2.621455e-02 2.701505e-02 2.747231e-02 2.764989e-02 2.747228e-02 2.683909e-02 2.594830e-02 2.452467e-02 2.301048e-02 2.098686e-02 1.908119e-02 1.682216e-02 1.502086e-02 1.336835e-02 1.229173e-02 1.189812e-02 1.175123e-02 1.228109e-02 1.222829e-02 1.298993e-02 1.284916e-02 1.392739e-02 1.417667e-02 1.536060e-02 1.630864e-02 1.582844e-02 1.530652e-02 1.469141e-02 1.377809e-02 1.325183e-02 1.231617e-02 1.177443e-02 1.089823e-02 1.033493e-02 9.625509e-03 9.122474e-03 8.687213e-03 8.327758e-03 8.218871e-03 8.040225e-03 8.227567e-03 8.210333e-03 8.603266e-03 8.695695e-03 9.193642e-03 9.342707e-03 9.866370e-03 1.003189e-02 1.052723e-02 
1.292717e-02 1.347255e-02 1.358823e-02 1.400947e-02 1.408337e-02 1.436346e-02 1.439073e-02 1.451916e-02 1.449767e-02 1.446958e-02 1.439933e-02 1.421508e-02 1.409771e-02 1.376255e-02 1.360096e-02 1.312466e-02 1.292258e-02 1.231907e-02 1.208068e-02 1.136751e-02 1.109701e-02 1.029482e-02 9.996018e-03 9.127934e-03 8.803641e-03 7.894574e-03 7.545937e-03 6.621660e-03 6.247164e-03 5.333123e-03 4.927202e-03 4.047161e-03 3.598212e-03 2.774184e-03 2.261395e-03 1.526473e-03 9.139781e-04 5.743418e-04 6.208144e-04 1.460984e-03 2.132299e-03 2.980539e-03 3.859724e-03 4.760690e-03 5.828875e-03 6.822317e-03 8.071574e-03 9.176274e-03 1.058354e-02 1.179021e-02 1.331065e-02 1.457793e-02 1.614337e-02 1.739927e-02 1.892079e-02 2.007109e-02 2.144636e-02 2.239042e-02 2.351596e-02 2.416822e-02 2.495574e-02 2.526865e-02 2.566410e-02 2.564740e-02 2.565229e-02 2.538519e-02 2.508084e-02 2.471645e-02 2.428687e-02 2.404189e-02 2.377045e-02 2.387415e-02 2.405962e-02 2.463876e-02 2.541484e-02 2.637876e-02 2.757694e-02 2.862907e-02 2.983468e-02 3.060021e-02 3.133317e-02 3.149412e-02 3.137885e-02 3.076548e-02 2.963156e-02 2.825884e-02 2.616503e-02 2.416913e-02 2.134662e-02 1.880688e-02 1.566772e-02 1.296912e-02 1.070185e-02 8.974661e-03 8.424729e-03 8.033586e-03 8.849950e-03 8.711225e-03 9.537351e-03 9.025806e-03 1.025652e-02 1.029418e-02 1.220977e-02 1.440609e-02 1.447204e-02 1.396937e-02 1.373870e-02 1.286982e-02 1.274174e-02 1.189834e-02 1.163663e-02 1.084870e-02 1.046765e-02 9.888332e-03 9.522979e-03 9.287822e-03 9.046835e-03 9.191171e-03 9.109513e-03 9.561511e-03 9.611572e-03 1.024985e-02 1.038076e-02 1.109365e-02 1.125967e-02 1.196574e-02 1.213402e-02 1.277827e-02 
1.180819e-02 1.219542e-02 1.224210e-02 1.255773e-02 1.258854e-02 1.281271e-02 1.282029e-02 1.293995e-02 1.291991e-02 1.292775e-02 1.287779e-02 1.277160e-02 1.269066e-02 1.247283e-02 1.236056e-02 1.203761e-02 1.189383e-02 1.147586e-02 1.130013e-02 1.080023e-02 1.059142e-02 1.002491e-02 9.780816e-03 9.164338e-03 8.881239e-03 8.231687e-03 7.903874e-03 7.237039e-03 6.856337e-03 6.185388e-03 5.740759e-03 5.074904e-03 4.552438e-03 3.897154e-03 3.281750e-03 2.647038e-03 1.936255e-03 1.409008e-03 8.613075e-04 1.215949e-03 1.872521e-03 2.772311e-03 3.834664e-03 4.880668e-03 6.162490e-03 7.350979e-03 8.813904e-03 1.014424e-02 1.175356e-02 1.320185e-02 1.490707e-02 1.641940e-02 1.814926e-02 1.964148e-02 2.130488e-02 2.267030e-02 2.416310e-02 2.529002e-02 2.650853e-02 2.730699e-02 2.816803e-02 2.860072e-02 2.906564e-02 2.917234e-02 2.926914e-02 2.917090e-02 2.900543e-02 2.887856e-02 2.862521e-02 2.864759e-02 2.851287e-02 2.879849e-02 2.895388e-02 2.949933e-02 2.999407e-02 3.066245e-02 3.135776e-02 3.191213e-02 3.249576e-02 3.267543e-02 3.277932e-02 3.239142e-02 3.175179e-02 3.072137e-02 2.926342e-02 2.761439e-02 2.543778e-02 2.324949e-02 2.051593e-02 1.777606e-02 1.442481e-02 1.117687e-02 8.136347e-03 5.033530e-03 3.652993e-03 3.054565e-03 3.456245e-03 2.986967e-03 2.844628e-03 1.885068e-03 3.187874e-03 3.954560e-03 7.276057e-03 1.287079e-02 1.380464e-02 1.314966e-02 1.349530e-02 1.312839e-02 1.358806e-02 1.323039e-02 1.324644e-02 1.273428e-02 1.241388e-02 1.191253e-02 1.147677e-02 1.113151e-02 1.073228e-02 1.061140e-02 1.032087e-02 1.042326e-02 1.025448e-02 1.053269e-02 1.046484e-02 1.085310e-02 1.085360e-02 1.128876e-02 1.132663e-02 1.175725e-02 
1.420539e-02 1.472490e-02 1.478346e-02 1.518797e-02 1.521826e-02 1.548530e-02 1.548061e-02 1.559539e-02 1.555214e-02 1.550682e-02 1.542380e-02 1.521704e-02 1.509479e-02 1.473127e-02 1.457147e-02 1.406144e-02 1.386629e-02 1.322495e-02 1.299660e-02 1.224347e-02 1.198345e-02 1.114175e-02 1.085037e-02 9.946454e-03 9.622238e-03 8.685231e-03 8.324255e-03 7.386029e-03 6.981309e-03 6.077503e-03 5.618781e-03 4.793082e-03 4.269057e-03 3.588937e-03 3.003190e-03 2.614456e-03 2.078846e-03 2.281438e-03 2.190074e-03 2.973657e-03 3.422318e-03 4.407453e-03 5.220479e-03 6.303643e-03 7.396766e-03 8.585883e-03 9.918060e-03 1.122841e-02 1.275992e-02 1.418461e-02 1.586090e-02 1.735930e-02 1.910558e-02 2.060158e-02 2.232434e-02 2.371527e-02 2.531011e-02 2.648706e-02 2.785152e-02 2.872797e-02 2.977682e-02 3.031692e-02 3.099794e-02 3.123421e-02 3.154588e-02 3.158137e-02 3.159672e-02 3.159411e-02 3.148390e-02 3.163803e-02 3.165932e-02 3.213320e-02 3.253715e-02 3.335626e-02 3.421848e-02 3.518422e-02 3.627001e-02 3.698724e-02 3.779695e-02 3.784171e-02 3.785101e-02 3.699790e-02 3.593498e-02 3.428017e-02 3.219509e-02 3.006301e-02 2.716059e-02 2.486205e-02 2.130988e-02 1.849499e-02 1.411626e-02 9.980372e-03 7.326590e-03 3.671056e-03 2.840128e-03 3.644408e-03 3.060762e-03 4.095290e-03 4.108488e-03 5.728199e-03 5.137122e-03 6.102592e-03 3.543807e-03 1.098795e-02 1.317549e-02 1.019998e-02 1.125912e-02 1.142729e-02 1.269903e-02 1.264449e-02 1.300712e-02 1.265673e-02 1.249557e-02 1.215349e-02 1.182090e-02 1.167723e-02 1.137155e-02 1.149488e-02 1.129650e-02 1.166394e-02 1.157990e-02 1.211907e-02 1.212217e-02 1.275001e-02 1.280536e-02 1.344922e-02 1.352639e-02 1.412943e-02 
1.316060e-02 1.350880e-02 1.347126e-02 1.376055e-02 1.372799e-02 1.393430e-02 1.389973e-02 1.400614e-02 1.396492e-02 1.396109e-02 1.390992e-02 1.379167e-02 1.372773e-02 1.349653e-02 1.341681e-02 1.307918e-02 1.297995e-02 1.254673e-02 1.242317e-02 1.190866e-02 1.175451e-02 1.117550e-02 1.098290e-02 1.035760e-02 1.011692e-02 9.463883e-03 9.163841e-03 8.500954e-03 8.128992e-03 7.473015e-03 7.016680e-03 6.384377e-03 5.835386e-03 5.249704e-03 4.617148e-03 4.129508e-03 3.488457e-03 3.247271e-03 2.888513e-03 3.182326e-03 3.530692e-03 4.356825e-03 5.319854e-03 6.448474e-03 7.799744e-03 9.144009e-03 1.076966e-02 1.230208e-02 1.413017e-02 1.581791e-02 1.777689e-02 1.955870e-02 2.156274e-02 2.334211e-02 2.528875e-02 2.694016e-02 2.871638e-02 3.010671e-02 3.160279e-02 3.262789e-02 3.375864e-02 3.438769e-02 3.511942e-02 3.542890e-02 3.580477e-02 3.597482e-02 3.612201e-02 3.637581e-02 3.647720e-02 3.698320e-02 3.721767e-02 3.800610e-02 3.847509e-02 3.940014e-02 4.004792e-02 4.079505e-02 4.134129e-02 4.149186e-02 4.146923e-02 4.068028e-02 3.969305e-02 3.799450e-02 3.611011e-02 3.403123e-02 3.176839e-02 2.984008e-02 2.759631e-02 2.581895e-02 2.394210e-02 2.182788e-02 1.927762e-02 1.459326e-02 1.168181e-02 8.573273e-03 8.572923e-03 9.044186e-03 1.151819e-02 1.410551e-02 1.673640e-02 1.784485e-02 1.995632e-02 1.982360e-02 2.022203e-02 2.107308e-02 1.251931e-02 6.220917e-03 1.011455e-02 1.188558e-02 1.415201e-02 1.462499e-02 1.517171e-02 1.500783e-02 1.480362e-02 1.445668e-02 1.399589e-02 1.370005e-02 1.321771e-02 1.307630e-02 1.267057e-02 1.270727e-02 1.240488e-02 1.259706e-02 1.238986e-02 1.269260e-02 1.255899e-02 1.292161e-02 1.283824e-02 1.321358e-02 
1.572763e-02 1.623227e-02 1.623476e-02 1.663072e-02 1.661714e-02 1.687656e-02 1.683915e-02 1.694287e-02 1.687727e-02 1.681444e-02 1.671881e-02 1.648656e-02 1.636081e-02 1.596381e-02 1.580875e-02 1.525855e-02 1.507514e-02 1.438946e-02 1.417808e-02 1.337998e-02 1.313971e-02 1.225694e-02 1.198503e-02 1.104969e-02 1.074115e-02 9.789828e-03 9.437410e-03 8.512437e-03 8.107464e-03 7.260133e-03 6.795814e-03 6.093665e-03 5.575601e-03 5.115872e-03 4.591283e-03 4.508648e-03 4.117840e-03 4.517868e-03 4.466070e-03 5.280410e-03 5.661585e-03 6.726699e-03 7.511836e-03 8.741499e-03 9.879681e-03 1.126049e-02 1.270525e-02 1.424402e-02 1.594347e-02 1.763155e-02 1.951735e-02 2.130976e-02 2.329237e-02 2.509997e-02 2.707236e-02 2.877086e-02 3.062098e-02 3.207950e-02 3.370747e-02 3.483068e-02 3.616185e-02 3.692771e-02 3.791555e-02 3.838693e-02 3.901613e-02 3.932349e-02 3.963773e-02 3.995600e-02 4.010893e-02 4.063430e-02 4.089636e-02 4.177900e-02 4.242569e-02 4.362944e-02 4.470967e-02 4.586459e-02 4.697438e-02 4.738036e-02 4.770422e-02 4.665815e-02 4.548299e-02 4.293381e-02 4.045585e-02 3.747533e-02 3.487145e-02 3.281943e-02 3.064944e-02 2.980383e-02 2.756717e-02 2.698171e-02 2.213907e-02 1.804192e-02 1.627429e-02 1.368853e-02 1.484701e-02 1.678634e-02 1.970646e-02 1.797720e-02 1.774757e-02 1.348609e-02 1.338620e-02 9.427946e-03 1.013336e-02 8.691869e-03 8.181136e-03 8.715762e-03 1.192441e-02 1.231408e-02 1.445767e-02 1.476837e-02 1.530579e-02 1.519583e-02 1.498802e-02 1.476688e-02 1.433131e-02 1.422093e-02 1.379716e-02 1.389166e-02 1.356990e-02 1.387419e-02 1.366862e-02 1.413710e-02 1.402765e-02 1.459500e-02 1.455132e-02 1.515185e-02 1.514497e-02 1.572114e-02 
1.472935e-02 1.504936e-02 1.492970e-02 1.520044e-02 1.510443e-02 1.529834e-02 1.522145e-02 1.531812e-02 1.525700e-02 1.524334e-02 1.519469e-02 1.506482e-02 1.502444e-02 1.477935e-02 1.474148e-02 1.438836e-02 1.434530e-02 1.389660e-02 1.383855e-02 1.331086e-02 1.322598e-02 1.263874e-02 1.251338e-02 1.188765e-02 1.170679e-02 1.106425e-02 1.081234e-02 1.017464e-02 9.837268e-03 9.226509e-03 8.793964e-03 8.235409e-03 7.710712e-03 7.240513e-03 6.658300e-03 6.340745e-03 5.808257e-03 5.759613e-03 5.505872e-03 5.870020e-03 6.161355e-03 6.978444e-03 7.883077e-03 9.074544e-03 1.048916e-02 1.198361e-02 1.378829e-02 1.554518e-02 1.763703e-02 1.961313e-02 2.188994e-02 2.401099e-02 2.635823e-02 2.850489e-02 3.079454e-02 3.280643e-02 3.490666e-02 3.660955e-02 3.840147e-02 3.965876e-02 4.105650e-02 4.183532e-02 4.281078e-02 4.323574e-02 4.384845e-02 4.419385e-02 4.460201e-02 4.517977e-02 4.559409e-02 4.659493e-02 4.719730e-02 4.859638e-02 4.946117e-02 5.098451e-02 5.196544e-02 5.304720e-02 5.360168e-02 5.339635e-02 5.258767e-02 5.033754e-02 4.746738e-02 4.356989e-02 3.971539e-02 3.698063e-02 3.519099e-02 3.584525e-02 3.560807e-02 3.679364e-02 3.769558e-02 3.825504e-02 3.690338e-02 2.889822e-02 2.482288e-02 2.308018e-02 1.874355e-02 6.350161e-03 5.170219e-03 1.733550e-02 2.357073e-02 2.979036e-02 3.285831e-02 3.606048e-02 3.732373e-02 3.912835e-02 3.776488e-02 2.609144e-02 2.203833e-02 1.896414e-02 1.897156e-02 1.870807e-02 1.858204e-02 1.830420e-02 1.777559e-02 1.739423e-02 1.673765e-02 1.640969e-02 1.578640e-02 1.559996e-02 1.507290e-02 1.505139e-02 1.463168e-02 1.475928e-02 1.443486e-02 1.467548e-02 1.442683e-02 1.473665e-02 1.454474e-02 1.487973e-02 
1.748977e-02 1.799684e-02 1.794880e-02 1.834964e-02 1.829517e-02 1.855642e-02 1.848778e-02 1.858576e-02 1.849872e-02 1.841963e-02 1.831255e-02 1.805241e-02 1.792526e-02 1.748951e-02 1.734288e-02 1.674566e-02 1.657983e-02 1.584301e-02 1.565703e-02 1.480924e-02 1.460024e-02 1.367609e-02 1.343888e-02 1.247875e-02 1.220586e-02 1.125650e-02 1.093912e-02 1.005540e-02 9.686109e-03 8.934132e-03 8.513438e-03 7.973990e-03 7.523895e-03 7.290715e-03 6.876266e-03 7.033978e-03 6.775429e-03 7.348898e-03 7.385661e-03 8.313832e-03 8.738603e-03 9.931054e-03 1.077343e-02 1.217669e-02 1.342774e-02 1.503310e-02 1.666104e-02 1.847737e-02 2.042649e-02 2.244647e-02 2.463031e-02 2.680074e-02 2.909950e-02 3.130451e-02 3.357586e-02 3.564618e-02 3.775392e-02 3.951234e-02 4.136349e-02 4.269740e-02 4.425802e-02 4.517763e-02 4.643977e-02 4.706850e-02 4.799779e-02 4.850195e-02 4.906508e-02 4.962003e-02 4.992842e-02 5.075212e-02 5.114106e-02 5.245490e-02 5.334200e-02 5.514653e-02 5.665561e-02 5.837643e-02 5.982805e-02 6.011782e-02 5.992026e-02 5.719754e-02 5.393208e-02 4.829585e-02 4.367599e-02 3.991483e-02 4.034167e-02 4.237043e-02 4.593757e-02 4.785966e-02 4.998990e-02 5.244185e-02 3.653691e-02 2.493905e-02 1.687345e-02 1.191163e-02 3.381617e-02 5.100973e-02 5.775555e-02 5.992781e-02 6.018660e-02 5.874117e-02 5.858979e-02 5.696707e-02 5.698958e-02 5.704331e-02 4.817082e-02 3.376408e-02 2.719855e-02 2.273300e-02 2.106674e-02 2.010668e-02 1.929584e-02 1.884862e-02 1.807720e-02 1.774888e-02 1.703291e-02 1.687018e-02 1.627757e-02 1.632663e-02 1.588139e-02 1.613904e-02 1.583028e-02 1.625629e-02 1.605593e-02 1.659168e-02 1.646753e-02 1.705019e-02 1.697299e-02 1.754360e-02 
1.651400e-02 1.682173e-02 1.662575e-02 1.689012e-02 1.673333e-02 1.692379e-02 1.680631e-02 1.689932e-02 1.682095e-02 1.680095e-02 1.675961e-02 1.661942e-02 1.661005e-02 1.635084e-02 1.636486e-02 1.599540e-02 1.602066e-02 1.555617e-02 1.557739e-02 1.503799e-02 1.503739e-02 1.444649e-02 1.440470e-02 1.378753e-02 1.368474e-02 1.306724e-02 1.288488e-02 1.229333e-02 1.201689e-02 1.147877e-02 1.110298e-02 1.064988e-02 1.018855e-02 9.862285e-03 9.366396e-03 9.228273e-03 8.812635e-03 8.948821e-03 8.805973e-03 9.307678e-03 9.651764e-03 1.056676e-02 1.151650e-02 1.283532e-02 1.437815e-02 1.607246e-02 1.812313e-02 2.016488e-02 2.260851e-02 2.495232e-02 2.764970e-02 3.020377e-02 3.298827e-02 3.559400e-02 3.828142e-02 4.071742e-02 4.313509e-02 4.515764e-02 4.717962e-02 4.859956e-02 5.016335e-02 5.094255e-02 5.204707e-02 5.238260e-02 5.310892e-02 5.343212e-02 5.397881e-02 5.475302e-02 5.537392e-02 5.683548e-02 5.774367e-02 5.985138e-02 6.117821e-02 6.362049e-02 6.524938e-02 6.720790e-02 6.823444e-02 6.805173e-02 6.645949e-02 6.210107e-02 5.586455e-02 4.779543e-02 4.054265e-02 4.033085e-02 4.580449e-02 5.753712e-02 6.147503e-02 6.853658e-02 7.535469e-02 5.213620e-02 3.577322e-02 7.521239e-03 4.193292e-02 7.000763e-02 6.848847e-02 5.823870e-02 4.843591e-02 3.803927e-02 3.164714e-02 2.632392e-02 2.235382e-02 1.987034e-02 1.719064e-02 1.655876e-02 2.754429e-02 3.043170e-02 2.843401e-02 2.704180e-02 2.498496e-02 2.408691e-02 2.270505e-02 2.203398e-02 2.094145e-02 2.039031e-02 1.947461e-02 1.906944e-02 1.830817e-02 1.807527e-02 1.745328e-02 1.739274e-02 1.688857e-02 1.697881e-02 1.656840e-02 1.677475e-02 1.643650e-02 1.671815e-02 1.643581e-02 1.675064e-02 
1.949646e-02 2.003010e-02 1.994105e-02 2.036587e-02 2.027638e-02 2.055323e-02 2.045672e-02 2.055714e-02 2.045065e-02 2.035793e-02 2.024105e-02 1.995065e-02 1.982442e-02 1.934372e-02 1.920940e-02 1.855683e-02 1.841478e-02 1.761851e-02 1.746714e-02 1.656377e-02 1.639890e-02 1.543241e-02 1.524709e-02 1.426848e-02 1.405362e-02 1.312134e-02 1.286772e-02 1.204876e-02 1.175131e-02 1.112178e-02 1.078755e-02 1.042976e-02 1.009016e-02 1.008080e-02 9.803847e-03 1.019018e-02 1.007990e-02 1.085693e-02 1.102980e-02 1.214669e-02 1.269984e-02 1.409864e-02 1.509439e-02 1.674534e-02 1.821093e-02 2.011920e-02 2.204600e-02 2.423184e-02 2.656613e-02 2.902781e-02 3.165594e-02 3.432523e-02 3.706539e-02 3.977366e-02 4.239549e-02 4.488139e-02 4.717331e-02 4.916346e-02 5.103664e-02 5.239252e-02 5.393827e-02 5.477189e-02 5.614718e-02 5.674569e-02 5.792137e-02 5.849820e-02 5.922687e-02 5.986715e-02 6.010857e-02 6.102375e-02 6.123460e-02 6.285869e-02 6.382096e-02 6.647567e-02 6.872327e-02 7.179837e-02 7.440057e-02 7.541860e-02 7.517316e-02 7.021773e-02 6.328296e-02 5.130773e-02 4.258447e-02 4.272447e-02 5.867168e-02 7.401163e-02 8.987101e-02 9.318500e-02 6.541206e-02 3.863919e-02 8.660599e-03 8.414546e-02 9.351336e-02 6.051309e-02 3.349190e-02 1.501777e-02 9.428914e-04 8.719339e-03 1.448828e-02 1.844947e-02 2.106766e-02 2.270503e-02 2.370064e-02 2.580220e-02 2.011795e-02 2.614289e-02 2.520021e-02 2.617938e-02 2.438023e-02 2.401167e-02 2.251505e-02 2.200392e-02 2.082228e-02 2.042853e-02 1.950202e-02 1.931043e-02 1.860260e-02 1.863875e-02 1.811753e-02 1.836802e-02 1.799777e-02 1.842211e-02 1.816567e-02 1.870793e-02 1.853075e-02 1.912928e-02 1.900220e-02 1.959622e-02 