# vtk DataFile Version 2.0
Comment goes here
ASCII

DATASET STRUCTURED_POINTS
DIMENSIONS    128   128   1

ORIGIN    0.000   0.000   0.000
SPACING   0.0156250.015625   1.000

POINT_DATA   16384
SCALARS uMag double
LOOKUP_TABLE default

1.767074e-01 1.706175e-01 1.690403e-01 1.627030e-01 1.601153e-01 1.534802e-01 1.499030e-01 1.429617e-01 1.384522e-01 1.312307e-01 1.258749e-01 1.184244e-01 1.123278e-01 1.047143e-01 9.799186e-02 9.028464e-02 8.304866e-02 7.530772e-02 6.765539e-02 5.991897e-02 5.191923e-02 4.419123e-02 3.587201e-02 2.811025e-02 1.944673e-02 1.155284e-02 2.457700e-03 5.730460e-03 1.541392e-02 2.412531e-02 3.462480e-02 4.415406e-02 5.576412e-02 6.646196e-02 7.953141e-02 9.178677e-02 1.066962e-01 1.209080e-01 1.380362e-01 1.545741e-01 1.742535e-01 1.934084e-01 2.158703e-01 2.377969e-01 2.631110e-01 2.877676e-01 3.157816e-01 3.428743e-01 3.731625e-01 4.021029e-01 4.339341e-01 4.638220e-01 4.961573e-01 5.257967e-01 5.573241e-01 5.852764e-01 6.144840e-01 6.391565e-01 6.644367e-01 6.841934e-01 7.039629e-01 7.172411e-01 7.300581e-01 7.354718e-01 7.401369e-01 7.365577e-01 7.321932e-01 7.188135e-01 7.049301e-01 6.813247e-01 6.578919e-01 6.240970e-01 5.916263e-01 5.482459e-01 5.078784e-01 4.562017e-01 4.097681e-01 3.518524e-01 3.018514e-01 2.405075e-01 1.899558e-01 1.285782e-01 8.071620e-02 2.293425e-02 1.919958e-02 7.004257e-02 1.041280e-01 1.456140e-01 1.706339e-01 2.018707e-01 2.185051e-01 2.403276e-01 2.507471e-01 2.651134e-01 2.719137e-01 2.807371e-01 2.857344e-01 2.900572e-01 2.941185e-01 2.939551e-01 2.971288e-01 2.921761e-01 2.940837e-01 2.844858e-01 2.849279e-01 2.717593e-01 2.712134e-01 2.563618e-01 2.557167e-01 2.409829e-01 2.409356e-01 2.274623e-01 2.282800e-01 2.165286e-01 2.181303e-01 2.080984e-01 2.102171e-01 2.016596e-01 2.039676e-01 1.965466e-01 1.987250e-01 1.920937e-01 1.938647e-01 1.877088e-01 1.888469e-01 1.829023e-01 1.832365e-01 1.772951e-01 
1.943461e-01 1.892047e-01 1.873418e-01 1.816972e-01 1.788642e-01 1.726540e-01 1.688752e-01 1.620841e-01 1.574189e-01 1.500717e-01 1.446074e-01 1.367599e-01 1.306030e-01 1.223319e-01 1.155976e-01 1.069893e-01 9.979020e-02 9.092833e-02 8.336343e-02 7.431782e-02 6.646266e-02 5.728294e-02 4.918883e-02 3.991959e-02 3.165953e-02 2.250831e-02 1.473139e-02 9.135203e-03 1.200255e-02 2.074488e-02 3.039218e-02 4.160614e-02 5.285578e-02 6.548370e-02 7.832281e-02 9.257427e-02 1.073202e-01 1.235310e-01 1.405442e-01 1.590444e-01 1.786480e-01 1.996952e-01 2.221118e-01 2.458284e-01 2.711172e-01 2.974290e-01 3.254247e-01 3.540060e-01 3.842684e-01 4.145024e-01 4.462860e-01 4.772508e-01 5.095050e-01 5.399940e-01 5.714006e-01 5.999806e-01 6.290303e-01 6.541337e-01 6.792327e-01 6.992700e-01 7.188612e-01 7.323339e-01 7.450127e-01 7.506077e-01 7.552163e-01 7.518718e-01 7.475681e-01 7.345197e-01 7.208315e-01 6.976594e-01 6.745452e-01 6.412501e-01 6.091818e-01 5.663047e-01 5.263685e-01 4.751417e-01 4.291256e-01 3.716199e-01 3.220476e-01 2.612995e-01 2.114640e-01 1.519072e-01 1.068418e-01 6.065725e-02 4.762260e-02 7.435711e-02 1.035311e-01 1.422865e-01 1.668509e-01 1.974502e-01 2.140824e-01 2.358809e-01 2.460182e-01 2.607628e-01 2.669879e-01 2.765544e-01 2.809413e-01 2.863478e-01 2.898827e-01 2.911367e-01 2.938642e-01 2.906212e-01 2.921106e-01 2.844264e-01 2.844268e-01 2.732880e-01 2.722815e-01 2.595633e-01 2.584684e-01 2.459488e-01 2.454712e-01 2.342448e-01 2.346443e-01 2.251201e-01 2.263068e-01 2.184381e-01 2.201413e-01 2.136482e-01 2.155412e-01 2.100572e-01 2.118261e-01 2.069792e-01 2.083526e-01 2.038046e-01 2.045640e-01 2.000281e-01 2.000089e-01 1.952559e-01 
1.774021e-01 1.714493e-01 1.699496e-01 1.637322e-01 1.612060e-01 1.546784e-01 1.511511e-01 1.443098e-01 1.398433e-01 1.327196e-01 1.274059e-01 1.200578e-01 1.140111e-01 1.065146e-01 9.986307e-02 9.230305e-02 8.518119e-02 7.764541e-02 7.019125e-02 6.277195e-02 5.514126e-02 4.796637e-02 4.041172e-02 3.379726e-02 2.705563e-02 2.226320e-02 1.929995e-02 2.023443e-02 2.488643e-02 3.121494e-02 3.993636e-02 4.852619e-02 5.927927e-02 6.947605e-02 8.201106e-02 9.393495e-02 1.084468e-01 1.224039e-01 1.391986e-01 1.555186e-01 1.748941e-01 1.938467e-01 2.160150e-01 2.377412e-01 2.627599e-01 2.872080e-01 3.149173e-01 3.417860e-01 3.717560e-01 4.004533e-01 4.319529e-01 4.615788e-01 4.935734e-01 5.229378e-01 5.541255e-01 5.818026e-01 6.106886e-01 6.351080e-01 6.601106e-01 6.796703e-01 6.992425e-01 7.124260e-01 7.251738e-01 7.306530e-01 7.354350e-01 7.321467e-01 7.281505e-01 7.153539e-01 7.021599e-01 6.794914e-01 6.571414e-01 6.246930e-01 5.937756e-01 5.522137e-01 5.139670e-01 4.646953e-01 4.211101e-01 3.664871e-01 3.204240e-01 2.641713e-01 2.197560e-01 1.685081e-01 1.334784e-01 1.043605e-01 9.751520e-02 1.130252e-01 1.309445e-01 1.617256e-01 1.802365e-01 2.070324e-01 2.201293e-01 2.396145e-01 2.478713e-01 2.609448e-01 2.665262e-01 2.747389e-01 2.790922e-01 2.833103e-01 2.871667e-01 2.870925e-01 2.904480e-01 2.855636e-01 2.879108e-01 2.782568e-01 2.791696e-01 2.658321e-01 2.657147e-01 2.508135e-01 2.506144e-01 2.360506e-01 2.364795e-01 2.233442e-01 2.246361e-01 2.132969e-01 2.153349e-01 2.057169e-01 2.082130e-01 2.000320e-01 2.026527e-01 1.955564e-01 1.979872e-01 1.916288e-01 1.936006e-01 1.876719e-01 1.889685e-01 1.832137e-01 1.836727e-01 1.778915e-01 
1.959564e-01 1.911049e-01 1.893712e-01 1.839731e-01 1.812287e-01 1.752292e-01 1.715046e-01 1.648958e-01 1.602571e-01 1.530722e-01 1.476156e-01 1.399217e-01 1.337655e-01 1.256553e-01 1.189325e-01 1.105160e-01 1.033665e-01 9.476517e-02 8.733224e-02 7.868186e-02 7.112227e-02 6.260187e-02 5.513922e-02 4.709250e-02 4.023479e-02 3.364421e-02 2.900981e-02 2.681815e-02 2.795983e-02 3.281853e-02 3.961392e-02 4.876105e-02 5.855857e-02 7.006951e-02 8.201671e-02 9.553212e-02 1.096238e-01 1.252735e-01 1.417448e-01 1.597752e-01 1.788927e-01 1.995199e-01 2.214752e-01 2.447955e-01 2.696264e-01 2.955449e-01 3.230697e-01 3.512425e-01 3.810081e-01 4.108035e-01 4.420564e-01 4.725429e-01 5.042319e-01 5.342031e-01 5.650206e-01 5.930592e-01 6.215224e-01 6.460995e-01 6.706637e-01 6.902585e-01 7.094437e-01 7.226606e-01 7.351695e-01 7.408289e-01 7.456368e-01 7.428279e-01 7.392399e-01 7.273443e-01 7.150327e-01 6.937480e-01 6.727979e-01 6.421984e-01 6.131858e-01 5.738544e-01 5.379633e-01 4.912085e-01 4.503699e-01 3.985428e-01 3.555944e-01 3.026156e-01 2.616620e-01 2.143065e-01 1.820019e-01 1.529471e-01 1.400175e-01 1.425488e-01 1.501523e-01 1.716514e-01 1.847018e-01 2.070723e-01 2.170372e-01 2.343871e-01 2.401361e-01 2.523960e-01 2.558917e-01 2.642590e-01 2.672062e-01 2.723770e-01 2.754696e-01 2.769063e-01 2.800388e-01 2.770029e-01 2.794546e-01 2.717696e-01 2.727785e-01 2.613712e-01 2.612604e-01 2.485137e-01 2.483347e-01 2.362228e-01 2.367042e-01 2.262050e-01 2.275425e-01 2.188770e-01 2.209146e-01 2.138981e-01 2.163299e-01 2.106110e-01 2.131045e-01 2.082923e-01 2.105446e-01 2.062680e-01 2.080248e-01 2.039574e-01 2.050176e-01 2.008865e-01 2.011004e-01 1.966893e-01 
1.795260e-01 1.739743e-01 1.727031e-01 1.668366e-01 1.644916e-01 1.582783e-01 1.548972e-01 1.483465e-01 1.440042e-01 1.371613e-01 1.319659e-01 1.249066e-01 1.189947e-01 1.118195e-01 1.053521e-01 9.818311e-02 9.134650e-02 8.433046e-02 7.734751e-02 7.067523e-02 6.384694e-02 5.781282e-02 5.163195e-02 4.678222e-02 4.218199e-02 3.954616e-02 3.806748e-02 3.888734e-02 4.163410e-02 4.600145e-02 5.238610e-02 5.940051e-02 6.843459e-02 7.752844e-02 8.878560e-02 9.988795e-02 1.133697e-01 1.266615e-01 1.425584e-01 1.582964e-01 1.768370e-01 1.952429e-01 2.165931e-01 2.377704e-01 2.619537e-01 2.858193e-01 3.126506e-01 3.388779e-01 3.679121e-01 3.958931e-01 4.263955e-01 4.552276e-01 4.861757e-01 5.146840e-01 5.448064e-01 5.716046e-01 5.994607e-01 6.230484e-01 6.471393e-01 6.660212e-01 6.849158e-01 6.977223e-01 7.101764e-01 7.157613e-01 7.208129e-01 7.183174e-01 7.153546e-01 7.042439e-01 6.930582e-01 6.731546e-01 6.539977e-01 6.255421e-01 5.992035e-01 5.629782e-01 5.308789e-01 4.884185e-01 4.526997e-01 4.066214e-01 3.702070e-01 3.247158e-01 2.913948e-01 2.529909e-01 2.275081e-01 2.048504e-01 1.917091e-01 1.899241e-01 1.884499e-01 2.008175e-01 2.043851e-01 2.198018e-01 2.230820e-01 2.358594e-01 2.378407e-01 2.471940e-01 2.494094e-01 2.558556e-01 2.582895e-01 2.623462e-01 2.654489e-01 2.656841e-01 2.695331e-01 2.648441e-01 2.686601e-01 2.588682e-01 2.613703e-01 2.474909e-01 2.487760e-01 2.338142e-01 2.350637e-01 2.211592e-01 2.231041e-01 2.111000e-01 2.138622e-01 2.038175e-01 2.071765e-01 1.988120e-01 2.024306e-01 1.953654e-01 1.989062e-01 1.927612e-01 1.959303e-01 1.903670e-01 1.929247e-01 1.876575e-01 1.894173e-01 1.842153e-01 1.850402e-01 1.797263e-01 
1.992499e-01 1.949600e-01 1.934792e-01 1.885590e-01 1.859881e-01 1.803958e-01 1.767763e-01 1.705169e-01 1.659268e-01 1.590482e-01 1.535991e-01 1.461874e-01 1.400189e-01 1.321934e-01 1.254686e-01 1.173774e-01 1.102803e-01 1.021013e-01 9.484090e-02 8.679545e-02 7.962947e-02 7.202827e-02 6.533290e-02 5.869685e-02 5.313973e-02 4.844683e-02 4.525557e-02 4.405424e-02 4.472971e-02 4.803562e-02 5.284402e-02 5.998224e-02 6.800674e-02 7.795048e-02 8.852912e-02 1.008413e-01 1.138287e-01 1.285020e-01 1.440238e-01 1.612182e-01 1.794720e-01 1.993478e-01 2.204760e-01 2.430842e-01 2.670827e-01 2.922847e-01 3.189332e-01 3.463418e-01 3.751540e-01 4.040983e-01 4.342967e-01 4.638173e-01 4.943429e-01 5.232269e-01 5.527897e-01 5.796476e-01 6.068192e-01 6.302008e-01 6.535408e-01 6.720708e-01 6.902650e-01 7.027693e-01 7.147511e-01 7.203406e-01 7.253710e-01 7.234641e-01 7.211621e-01 7.114565e-01 7.017955e-01 6.842291e-01 6.675357e-01 6.422924e-01 6.192849e-01 5.868993e-01 5.587700e-01 5.203686e-01 4.888696e-01 4.465475e-01 4.140033e-01 3.712797e-01 3.404856e-01 3.026473e-01 2.766945e-01 2.502951e-01 2.321160e-01 2.217788e-01 2.124568e-01 2.157040e-01 2.124748e-01 2.213904e-01 2.195069e-01 2.286206e-01 2.258680e-01 2.335709e-01 2.318125e-01 2.378847e-01 2.379809e-01 2.428731e-01 2.448225e-01 2.466476e-01 2.504950e-01 2.478582e-01 2.525677e-01 2.450281e-01 2.484353e-01 2.364312e-01 2.383483e-01 2.257544e-01 2.276239e-01 2.166406e-01 2.192003e-01 2.103836e-01 2.136741e-01 2.068301e-01 2.105786e-01 2.052819e-01 2.091433e-01 2.049434e-01 2.085980e-01 2.050852e-01 2.082657e-01 2.050863e-01 2.075789e-01 2.044354e-01 2.060748e-01 2.027238e-01 2.033888e-01 1.996386e-01 
1.831773e-01 1.782616e-01 1.773587e-01 1.720497e-01 1.699982e-01 1.642831e-01 1.611376e-01 1.550429e-01 1.508961e-01 1.444852e-01 1.394667e-01 1.328366e-01 1.271112e-01 1.203907e-01 1.141586e-01 1.075082e-01 1.010098e-01 9.462793e-02 8.815813e-02 8.229943e-02 7.624107e-02 7.125141e-02 6.613100e-02 6.249339e-02 5.902707e-02 5.734963e-02 5.633754e-02 5.714196e-02 5.908661e-02 6.249240e-02 6.733715e-02 7.312044e-02 8.054204e-02 8.849910e-02 9.829253e-02 1.084190e-01 1.205919e-01 1.330434e-01 1.477398e-01 1.627281e-01 1.801214e-01 1.978161e-01 2.180147e-01 2.384611e-01 2.614307e-01 2.844837e-01 3.099859e-01 3.352608e-01 3.628093e-01 3.896531e-01 4.184934e-01 4.459837e-01 4.751044e-01 5.020833e-01 5.302649e-01 5.554129e-01 5.813166e-01 6.032623e-01 6.255491e-01 6.429981e-01 6.604576e-01 6.723150e-01 6.839802e-01 6.894365e-01 6.946666e-01 6.932337e-01 6.917655e-01 6.832739e-01 6.752551e-01 6.598385e-01 6.458545e-01 6.239491e-01 6.050369e-01 5.774217e-01 5.550343e-01 5.229454e-01 4.987953e-01 4.641279e-01 4.398517e-01 4.053733e-01 3.820932e-01 3.513997e-01 3.295059e-01 3.062679e-01 2.858501e-01 2.721577e-01 2.539024e-01 2.487141e-01 2.338172e-01 2.336667e-01 2.222804e-01 2.245094e-01 2.165350e-01 2.203154e-01 2.182625e-01 2.217930e-01 2.208879e-01 2.252848e-01 2.263424e-01 2.271065e-01 2.313880e-01 2.268298e-01 2.336400e-01 2.238243e-01 2.297395e-01 2.148761e-01 2.189656e-01 2.043736e-01 2.084560e-01 1.962386e-01 2.010035e-01 1.912675e-01 1.966095e-01 1.888732e-01 1.944396e-01 1.881665e-01 1.935981e-01 1.883270e-01 1.933239e-01 1.886800e-01 1.930067e-01 1.886888e-01 1.921642e-01 1.879324e-01 1.904207e-01 1.860871e-01 1.874918e-01 1.829155e-01 
2.043601e-01 2.008701e-01 1.997548e-01 1.955165e-01 1.931978e-01 1.881846e-01 1.847163e-01 1.789476e-01 1.744221e-01 1.679630e-01 1.625103e-01 1.554688e-01 1.492544e-01 1.417797e-01 1.350026e-01 1.272836e-01 1.201763e-01 1.124453e-01 1.052810e-01 9.782765e-02 9.094142e-02 8.414721e-02 7.798330e-02 7.238356e-02 6.756771e-02 6.391164e-02 6.127370e-02 6.041981e-02 6.074516e-02 6.321346e-02 6.676098e-02 7.241526e-02 7.891562e-02 8.734274e-02 9.649232e-02 1.074565e-01 1.191781e-01 1.326880e-01 1.470844e-01 1.632701e-01 1.804944e-01 1.994707e-01 2.196085e-01 2.413661e-01 2.643454e-01 2.886702e-01 3.141954e-01 3.406148e-01 3.681250e-01 3.958832e-01 4.245398e-01 4.526088e-01 4.813201e-01 5.084547e-01 5.359452e-01 5.607856e-01 5.857108e-01 6.069280e-01 6.280227e-01 6.444828e-01 6.607165e-01 6.716235e-01 6.823244e-01 6.872921e-01 6.922069e-01 6.912248e-01 6.904973e-01 6.838021e-01 6.778878e-01 6.657938e-01 6.553527e-01 6.381178e-01 6.239310e-01 6.017329e-01 5.846456e-01 5.577495e-01 5.385859e-01 5.077306e-01 4.871065e-01 4.539810e-01 4.320626e-01 3.995203e-01 3.760462e-01 3.475929e-01 3.226257e-01 3.010295e-01 2.762869e-01 2.620723e-01 2.407715e-01 2.326075e-01 2.154413e-01 2.135364e-01 1.984275e-01 2.008127e-01 1.917726e-01 1.942785e-01 1.902177e-01 1.951701e-01 1.941729e-01 1.963724e-01 2.006229e-01 1.981717e-01 2.071649e-01 2.005076e-01 2.088774e-01 1.959190e-01 2.016434e-01 1.901956e-01 1.957775e-01 1.874248e-01 1.934949e-01 1.877271e-01 1.940755e-01 1.901271e-01 1.964013e-01 1.936475e-01 1.995415e-01 1.975049e-01 2.027785e-01 2.010859e-01 2.055529e-01 2.039040e-01 2.074192e-01 2.055683e-01 2.080191e-01 2.057659e-01 2.070697e-01 2.042560e-01 
1.885101e-01 1.844210e-01 1.840083e-01 1.794279e-01 1.777707e-01 1.727058e-01 1.698763e-01 1.643703e-01 1.604789e-01 1.546111e-01 1.498083e-01 1.436940e-01 1.381709e-01 1.319604e-01 1.259507e-01 1.198306e-01 1.136147e-01 1.078117e-01 1.017248e-01 9.651247e-02 9.095745e-02 8.666413e-02 8.211835e-02 7.912210e-02 7.611396e-02 7.479747e-02 7.381378e-02 7.446896e-02 7.581531e-02 7.856773e-02 8.231658e-02 8.717426e-02 9.328065e-02 1.002678e-01 1.087269e-01 1.179645e-01 1.288726e-01 1.405601e-01 1.540749e-01 1.684136e-01 1.846737e-01 2.017793e-01 2.208202e-01 2.406482e-01 2.623363e-01 2.846260e-01 3.086116e-01 3.328539e-01 3.585470e-01 3.839766e-01 4.105500e-01 4.361705e-01 4.625954e-01 4.872420e-01 5.123627e-01 5.348045e-01 5.574488e-01 5.765229e-01 5.956327e-01 6.103867e-01 6.251403e-01 6.349478e-01 6.448461e-01 6.494564e-01 6.543657e-01 6.538806e-01 6.540523e-01 6.488544e-01 6.449347e-01 6.355930e-01 6.285952e-01 6.157241e-01 6.068871e-01 5.909415e-01 5.813825e-01 5.624906e-01 5.526389e-01 5.307019e-01 5.197269e-01 4.949336e-01 4.806143e-01 4.540709e-01 4.335041e-01 4.072010e-01 3.784040e-01 3.540774e-01 3.182302e-01 2.961780e-01 2.594453e-01 2.401171e-01 2.102950e-01 1.983995e-01 1.768390e-01 1.749583e-01 1.717737e-01 1.703030e-01 1.633457e-01 1.700850e-01 1.653811e-01 1.663315e-01 1.695706e-01 1.638951e-01 1.759819e-01 1.668899e-01 1.802564e-01 1.643460e-01 1.737435e-01 1.614919e-01 1.706194e-01 1.622050e-01 1.714968e-01 1.655772e-01 1.746581e-01 1.702592e-01 1.787984e-01 1.753149e-01 1.830833e-01 1.801113e-01 1.869451e-01 1.841931e-01 1.899712e-01 1.872185e-01 1.918496e-01 1.889256e-01 1.923413e-01 1.891146e-01 1.912681e-01 1.876418e-01 
2.114693e-01 2.089730e-01 2.083212e-01 2.049342e-01 2.029381e-01 1.986461e-01 1.953700e-01 1.902044e-01 1.857532e-01 1.797936e-01 1.743154e-01 1.676897e-01 1.613759e-01 1.542604e-01 1.473450e-01 1.399641e-01 1.327246e-01 1.253529e-01 1.181151e-01 1.110855e-01 1.042341e-01 9.795173e-02 9.194868e-02 8.690549e-02 8.229933e-02 7.906014e-02 7.644314e-02 7.554516e-02 7.540666e-02 7.717631e-02 7.973527e-02 8.420885e-02 8.944373e-02 9.652896e-02 1.043880e-01 1.140699e-01 1.246102e-01 1.370004e-01 1.503680e-01 1.656231e-01 1.819522e-01 2.001567e-01 2.194636e-01 2.405262e-01 2.626270e-01 2.862070e-01 3.106639e-01 3.361297e-01 3.622270e-01 3.886510e-01 4.154068e-01 4.416054e-01 4.678274e-01 4.924545e-01 5.168486e-01 5.385479e-01 5.598774e-01 5.774816e-01 5.947562e-01 6.075031e-01 6.201572e-01 6.278620e-01 6.358712e-01 6.389756e-01 6.428684e-01 6.423001e-01 6.430401e-01 6.398900e-01 6.386308e-01 6.337352e-01 6.315036e-01 6.250371e-01 6.224239e-01 6.136312e-01 6.105359e-01 5.978231e-01 5.932719e-01 5.748760e-01 5.669601e-01 5.420886e-01 5.281446e-01 4.979029e-01 4.751760e-01 4.423051e-01 4.093361e-01 3.763837e-01 3.351892e-01 3.025682e-01 2.611711e-01 2.302541e-01 1.967334e-01 1.831162e-01 1.521557e-01 1.525870e-01 1.337163e-01 1.302230e-01 1.212883e-01 1.266783e-01 1.177114e-01 1.189783e-01 1.213449e-01 1.165439e-01 1.322671e-01 1.283741e-01 1.482347e-01 1.355560e-01 1.483749e-01 1.417238e-01 1.536812e-01 1.507225e-01 1.620189e-01 1.608958e-01 1.712678e-01 1.711173e-01 1.804739e-01 1.808279e-01 1.891136e-01 1.896461e-01 1.968029e-01 1.972579e-01 2.032269e-01 2.033934e-01 2.081176e-01 2.078169e-01 2.112439e-01 2.103247e-01 2.124115e-01 2.107500e-01 
1.957137e-01 1.925874e-01 1.927649e-01 1.890426e-01 1.878685e-01 1.835721e-01 1.811315e-01 1.763151e-01 1.727312e-01 1.674831e-01 1.629213e-01 1.573655e-01 1.520352e-01 1.463316e-01 1.404883e-01 1.348333e-01 1.287796e-01 1.234057e-01 1.174917e-01 1.126660e-01 1.072859e-01 1.033038e-01 9.888123e-02 9.604775e-02 9.299968e-02 9.159626e-02 9.027540e-02 9.052300e-02 9.116815e-02 9.322157e-02 9.596686e-02 9.996294e-02 1.049130e-01 1.110380e-01 1.183444e-01 1.268566e-01 1.367282e-01 1.479096e-01 1.605511e-01 1.746152e-01 1.901350e-01 2.071315e-01 2.254578e-01 2.452004e-01 2.660256e-01 2.880497e-01 3.108049e-01 3.343575e-01 3.582192e-01 3.822853e-01 4.062204e-01 4.295956e-01 4.524517e-01 4.738674e-01 4.945121e-01 5.128078e-01 5.303027e-01 5.446222e-01 5.583893e-01 5.683540e-01 5.782721e-01 5.840642e-01 5.904514e-01 5.927574e-01 5.962765e-01 5.961081e-01 5.977051e-01 5.962001e-01 5.971095e-01 5.953507e-01 5.970295e-01 5.957027e-01 5.994475e-01 5.981959e-01 6.043253e-01 6.011604e-01 6.080384e-01 5.996398e-01 6.032628e-01 5.866473e-01 5.813578e-01 5.560475e-01 5.361406e-01 5.047902e-01 4.663599e-01 4.322100e-01 3.751716e-01 3.372688e-01 2.715174e-01 2.275767e-01 1.779341e-01 1.490944e-01 1.100422e-01 1.073553e-01 1.144638e-01 1.066720e-01 8.209090e-02 9.437968e-02 7.790564e-02 7.457896e-02 7.245686e-02 6.064590e-02 7.792634e-02 6.773640e-02 1.016903e-01 9.175791e-02 1.112389e-01 1.075577e-01 1.253252e-01 1.237857e-01 1.392992e-01 1.384086e-01 1.519126e-01 1.513398e-01 1.631440e-01 1.626905e-01 1.729510e-01 1.724375e-01 1.812210e-01 1.804971e-01 1.878306e-01 1.867759e-01 1.926684e-01 1.911875e-01 1.956395e-01 1.936576e-01 1.966699e-01 1.941321e-01 
2.207786e-01 2.194209e-01 2.193141e-01 2.169121e-01 2.153021e-01 2.118456e-01 2.087997e-01 2.043245e-01 1.999551e-01 1.945485e-01 1.890171e-01 1.828206e-01 1.763404e-01 1.695503e-01 1.623857e-01 1.552525e-01 1.477190e-01 1.405466e-01 1.330098e-01 1.261549e-01 1.190309e-01 1.129005e-01 1.066522e-01 1.016928e-01 9.681032e-02 9.347308e-02 9.042229e-02 8.909465e-02 8.823698e-02 8.917297e-02 9.071763e-02 9.404663e-02 9.810826e-02 1.039421e-01 1.106595e-01 1.191904e-01 1.287787e-01 1.402673e-01 1.529574e-01 1.676272e-01 1.835474e-01 2.014562e-01 2.205240e-01 2.414612e-01 2.633099e-01 2.867308e-01 3.106730e-01 3.356712e-01 3.606976e-01 3.860239e-01 4.108485e-01 4.349933e-01 4.581636e-01 4.795193e-01 4.996048e-01 5.167137e-01 5.325650e-01 5.444310e-01 5.554635e-01 5.618729e-01 5.682905e-01 5.700470e-01 5.729197e-01 5.718540e-01 5.730037e-01 5.716127e-01 5.732869e-01 5.739864e-01 5.782691e-01 5.824878e-01 5.906060e-01 5.980020e-01 6.098042e-01 6.178119e-01 6.315089e-01 6.355407e-01 6.476610e-01 6.424068e-01 6.480681e-01 6.298731e-01 6.235009e-01 5.925709e-01 5.692101e-01 5.295724e-01 4.867968e-01 4.424572e-01 3.817336e-01 3.291533e-01 2.633694e-01 1.937648e-01 1.488496e-01 1.328834e-01 9.940726e-02 1.113175e-01 4.614902e-02 6.303885e-02 3.736834e-02 3.270810e-02 1.986179e-02 1.630602e-02 1.514248e-02 1.945778e-02 1.243278e-02 2.137153e-02 4.530061e-02 5.585262e-02 8.094534e-02 8.816086e-02 1.099139e-01 1.145765e-01 1.317776e-01 1.356311e-01 1.499947e-01 1.536239e-01 1.659463e-01 1.693774e-01 1.799793e-01 1.830937e-01 1.921128e-01 1.947736e-01 2.022699e-01 2.043473e-01 2.103402e-01 2.117126e-01 2.161976e-01 2.167525e-01 2.197144e-01 2.193523e-01 
2.049755e-01 2.028903e-01 2.037353e-01 2.009603e-01 2.003480e-01 1.969097e-01 1.949287e-01 1.908810e-01 1.876578e-01 1.830859e-01 1.787899e-01 1.738130e-01 1.686599e-01 1.634322e-01 1.576849e-01 1.523959e-01 1.463625e-01 1.412340e-01 1.352627e-01 1.305432e-01 1.250101e-01 1.209635e-01 1.162511e-01 1.131397e-01 1.096047e-01 1.076707e-01 1.056120e-01 1.050714e-01 1.047218e-01 1.057895e-01 1.073552e-01 1.103005e-01 1.140310e-01 1.192245e-01 1.254548e-01 1.333469e-01 1.424537e-01 1.534690e-01 1.657498e-01 1.801434e-01 1.956814e-01 2.134194e-01 2.319881e-01 2.526770e-01 2.736946e-01 2.965516e-01 3.190752e-01 3.429347e-01 3.656970e-01 3.890688e-01 4.105733e-01 4.317774e-01 4.504771e-01 4.678792e-01 4.824549e-01 4.947971e-01 5.045112e-01 5.112887e-01 5.163125e-01 5.180750e-01 5.195918e-01 5.179931e-01 5.179037e-01 5.153499e-01 5.156987e-01 5.146774e-01 5.172844e-01 5.198176e-01 5.263527e-01 5.338488e-01 5.459425e-01 5.588426e-01 5.775751e-01 5.941917e-01 6.187705e-01 6.340657e-01 6.603495e-01 6.664754e-01 6.867713e-01 6.764910e-01 6.813020e-01 6.527455e-01 6.333403e-01 5.923667e-01 5.428033e-01 4.992905e-01 4.140888e-01 3.664564e-01 2.488958e-01 1.695849e-01 1.117357e-01 5.217636e-02 4.962572e-02 9.498707e-02 2.463952e-02 3.094857e-02 2.589436e-02 3.075272e-02 2.173611e-02 2.999968e-02 2.279429e-02 2.776126e-02 2.181777e-02 3.265750e-02 1.665554e-02 2.448683e-02 6.056452e-02 6.615378e-02 9.186623e-02 9.489816e-02 1.150577e-01 1.175900e-01 1.344574e-01 1.368078e-01 1.512340e-01 1.532956e-01 1.656564e-01 1.672998e-01 1.778003e-01 1.789337e-01 1.876987e-01 1.882598e-01 1.953663e-01 1.953092e-01 2.008038e-01 2.000927e-01 2.040064e-01 2.026150e-01 
2.324592e-01 2.323398e-01 2.328458e-01 2.315328e-01 2.303689e-01 2.278428e-01 2.250683e-01 2.213572e-01 2.170818e-01 2.122699e-01 2.066610e-01 2.008930e-01 1.941784e-01 1.876607e-01 1.801281e-01 1.731271e-01 1.651209e-01 1.579573e-01 1.498727e-01 1.429140e-01 1.351872e-01 1.288340e-01 1.219251e-01 1.165882e-01 1.109508e-01 1.070158e-01 1.030526e-01 1.008405e-01 9.886669e-02 9.862475e-02 9.888391e-02 1.008449e-01 1.035963e-01 1.080801e-01 1.136857e-01 1.211385e-01 1.300381e-01 1.409363e-01 1.534992e-01 1.681697e-01 1.845220e-01 2.029844e-01 2.228959e-01 2.447657e-01 2.675953e-01 2.920300e-01 3.167049e-01 3.423784e-01 3.674032e-01 3.925315e-01 4.160578e-01 4.385187e-01 4.585201e-01 4.761142e-01 4.907105e-01 5.015848e-01 5.095193e-01 5.127166e-01 5.138949e-01 5.099238e-01 5.058074e-01 4.970667e-01 4.906927e-01 4.814925e-01 4.770487e-01 4.727769e-01 4.747103e-01 4.798672e-01 4.912652e-01 5.073693e-01 5.286613e-01 5.535792e-01 5.827357e-01 6.110579e-01 6.441586e-01 6.675444e-01 6.985395e-01 7.070976e-01 7.278116e-01 7.141136e-01 7.152573e-01 6.789746e-01 6.521752e-01 6.010227e-01 5.434583e-01 4.877194e-01 3.993210e-01 3.292821e-01 2.234918e-01 6.802564e-02 6.030510e-03 4.537711e-02 7.486788e-02 1.372157e-01 9.307517e-02 3.077377e-02 4.156136e-02 1.219362e-02 1.524065e-02 3.881529e-02 4.201623e-02 5.070536e-02 5.537524e-02 6.311375e-02 6.076975e-02 5.470768e-02 7.131865e-02 7.042325e-02 9.072874e-02 9.483070e-02 1.135126e-01 1.192516e-01 1.357112e-01 1.417610e-01 1.560879e-01 1.618930e-01 1.742655e-01 1.795669e-01 1.901331e-01 1.947842e-01 2.036401e-01 2.075319e-01 2.147250e-01 2.177569e-01 2.232977e-01 2.253701e-01 2.292468e-01 2.302643e-01 
2.164224e-01 2.154038e-01 2.169744e-01 2.152028e-01 2.152280e-01 2.127202e-01 2.112782e-01 2.080726e-01 2.052786e-01 2.014404e-01 1.974532e-01 1.930793e-01 1.881050e-01 1.833262e-01 1.776189e-01 1.726006e-01 1.664587e-01 1.613979e-01 1.551550e-01 1.502728e-01 1.442825e-01 1.398128e-01 1.344252e-01 1.306021e-01 1.261388e-01 1.231894e-01 1.199287e-01 1.180893e-01 1.162866e-01 1.158558e-01 1.158153e-01 1.172379e-01 1.194094e-01 1.233323e-01 1.283439e-01 1.355462e-01 1.440787e-01 1.552485e-01 1.677859e-01 1.832667e-01 1.998803e-01 2.195285e-01 2.397838e-01 2.629297e-01 2.858697e-01 3.113060e-01 3.354566e-01 3.614349e-01 3.848393e-01 4.091185e-01 4.294504e-01 4.494676e-01 4.642917e-01 4.775279e-01 4.847797e-01 4.893608e-01 4.880785e-01 4.835684e-01 4.747474e-01 4.629324e-01 4.500386e-01 4.352606e-01 4.236052e-01 4.119411e-01 4.066060e-01 4.034869e-01 4.073884e-01 4.153743e-01 4.293987e-01 4.487112e-01 4.732894e-01 5.031611e-01 5.387852e-01 5.762760e-01 6.216859e-01 6.587054e-01 7.076530e-01 7.302561e-01 7.706289e-01 7.645965e-01 7.819081e-01 7.421676e-01 7.232924e-01 6.599042e-01 5.979329e-01 5.375246e-01 4.136836e-01 3.777321e-01 1.143507e-01 1.986773e-02 3.680591e-02 3.348841e-02 1.076888e-01 1.060083e-01 1.329160e-01 1.228987e-01 1.129325e-01 1.158483e-01 1.130024e-01 9.770413e-02 1.107495e-01 8.491076e-02 1.136626e-01 8.232249e-02 9.783898e-02 6.071092e-02 7.713642e-02 6.601982e-02 8.685667e-02 8.588489e-02 1.060162e-01 1.086557e-01 1.266730e-01 1.302897e-01 1.460493e-01 1.496326e-01 1.632774e-01 1.664329e-01 1.781270e-01 1.806930e-01 1.905635e-01 1.924677e-01 2.005997e-01 2.018036e-01 2.082498e-01 2.087283e-01 2.135214e-01 2.132565e-01 
2.465855e-01 2.477699e-01 2.489501e-01 2.488132e-01 2.481612e-01 2.466560e-01 2.442073e-01 2.413379e-01 2.371865e-01 2.330189e-01 2.273263e-01 2.219952e-01 2.149942e-01 2.087041e-01 2.006970e-01 1.937185e-01 1.850699e-01 1.777301e-01 1.688552e-01 1.615224e-01 1.528691e-01 1.459318e-01 1.379545e-01 1.317923e-01 1.249175e-01 1.198709e-01 1.144634e-01 1.108185e-01 1.071800e-01 1.052074e-01 1.036509e-01 1.037253e-01 1.047231e-01 1.074654e-01 1.117447e-01 1.180147e-01 1.264140e-01 1.370437e-01 1.501643e-01 1.656158e-01 1.835558e-01 2.037566e-01 2.260539e-01 2.503728e-01 2.760182e-01 3.032379e-01 3.306570e-01 3.589119e-01 3.859364e-01 4.126823e-01 4.365861e-01 4.587031e-01 4.764028e-01 4.905471e-01 4.990855e-01 5.023757e-01 4.997721e-01 4.907812e-01 4.771581e-01 4.570190e-01 4.355956e-01 4.089952e-01 3.863767e-01 3.622854e-01 3.478304e-01 3.383723e-01 3.415855e-01 3.548817e-01 3.783276e-01 4.117336e-01 4.502209e-01 4.960964e-01 5.442531e-01 5.949844e-01 6.487638e-01 6.936250e-01 7.459325e-01 7.690590e-01 8.080196e-01 7.957192e-01 8.066316e-01 7.580012e-01 7.237903e-01 6.521456e-01 5.679059e-01 5.001425e-01 3.492618e-01 2.686934e-01 1.040623e-01 6.242431e-02 1.054059e-01 8.339487e-02 1.387766e-01 2.307381e-01 1.502804e-01 4.634591e-02 1.147252e-01 4.013598e-02 8.445585e-02 2.122031e-02 7.072981e-02 1.143781e-02 6.404212e-02 1.369792e-02 6.031946e-02 3.602821e-02 6.299004e-02 5.921234e-02 8.251134e-02 8.624118e-02 1.060764e-01 1.126286e-01 1.300143e-01 1.373906e-01 1.526847e-01 1.600101e-01 1.734016e-01 1.802848e-01 1.918980e-01 1.981381e-01 2.080445e-01 2.135066e-01 2.217298e-01 2.262957e-01 2.328210e-01 2.363730e-01 2.411609e-01 2.435826e-01 
2.300461e-01 2.300767e-01 2.324218e-01 2.316895e-01 2.324372e-01 2.309321e-01 2.301329e-01 2.278586e-01 2.255981e-01 2.225784e-01 2.189851e-01 2.152717e-01 2.105225e-01 2.062013e-01 2.005230e-01 1.957167e-01 1.893817e-01 1.842480e-01 1.775643e-01 1.722876e-01 1.655810e-01 1.603616e-01 1.539522e-01 1.489951e-01 1.431746e-01 1.386898e-01 1.337173e-01 1.299520e-01 1.260976e-01 1.234259e-01 1.210934e-01 1.201712e-01 1.200822e-01 1.219856e-01 1.252706e-01 1.313864e-01 1.393196e-01 1.508412e-01 1.642641e-01 1.816665e-01 2.006209e-01 2.235629e-01 2.473159e-01 2.747697e-01 3.019085e-01 3.321890e-01 3.606133e-01 3.912964e-01 4.181753e-01 4.460414e-01 4.678529e-01 4.890000e-01 5.017861e-01 5.120700e-01 5.120760e-01 5.080232e-01 4.929167e-01 4.731520e-01 4.438832e-01 4.109072e-01 3.737512e-01 3.357517e-01 3.030596e-01 2.748921e-01 2.613016e-01 2.580914e-01 2.688924e-01 2.899674e-01 3.175129e-01 3.533757e-01 3.919682e-01 4.392365e-01 4.902855e-01 5.486666e-01 6.149600e-01 6.767813e-01 7.521447e-01 7.951971e-01 8.608634e-01 8.581605e-01 8.933187e-01 8.333246e-01 8.176803e-01 7.091070e-01 6.461649e-01 5.414355e-01 4.076086e-01 3.022103e-01 1.309956e-02 9.835897e-02 9.320140e-02 2.544096e-01 2.589590e-01 6.361443e-02 2.117500e-02 3.097214e-02 1.594459e-02 4.956640e-02 9.832820e-03 6.025671e-02 1.515604e-02 6.435336e-02 2.484196e-02 6.214874e-02 5.513131e-02 1.685412e-02 6.206177e-02 5.715793e-02 8.507272e-02 8.598204e-02 1.073042e-01 1.105074e-01 1.286491e-01 1.327492e-01 1.486669e-01 1.528913e-01 1.668970e-01 1.708380e-01 1.830694e-01 1.865196e-01 1.970515e-01 1.999037e-01 2.087768e-01 2.109714e-01 2.182043e-01 2.197036e-01 2.253024e-01 2.260786e-01 