# vtk DataFile Version 2.0
Comment goes here
ASCII

DATASET STRUCTURED_POINTS
DIMENSIONS    128   128   1

ORIGIN    0.000   0.000   0.000
SPACING   0.0156250.015625   1.000

POINT_DATA   16384
SCALARS uMag double
LOOKUP_TABLE default

2.164678e-02 2.290607e-02 2.333062e-02 2.426017e-02 2.449688e-02 2.509365e-02 2.514922e-02 2.541392e-02 2.529688e-02 2.523488e-02 2.495611e-02 2.457832e-02 2.415158e-02 2.347503e-02 2.291730e-02 2.196561e-02 2.129737e-02 2.010097e-02 1.934652e-02 1.794272e-02 1.713040e-02 1.556343e-02 1.472596e-02 1.304690e-02 1.222174e-02 1.048842e-02 9.718098e-03 7.994844e-03 7.327183e-03 5.684323e-03 5.172337e-03 3.685262e-03 3.386483e-03 2.133996e-03 2.108950e-03 1.170587e-03 1.480057e-03 9.320869e-04 1.632865e-03 1.542691e-03 2.681596e-03 3.100462e-03 4.706610e-03 5.660780e-03 7.736444e-03 9.217460e-03 1.172836e-02 1.368355e-02 1.655000e-02 1.887501e-02 2.196597e-02 2.450160e-02 2.763400e-02 3.016971e-02 3.311518e-02 3.540086e-02 3.790116e-02 3.966756e-02 4.145786e-02 4.244359e-02 4.328096e-02 4.326207e-02 4.295448e-02 4.177165e-02 4.020286e-02 3.778206e-02 3.492946e-02 3.129477e-02 2.724018e-02 2.252032e-02 1.745582e-02 1.188703e-02 6.116906e-03 4.762571e-05 6.023326e-03 1.216816e-02 1.803359e-02 2.375193e-02 2.889485e-02 3.370067e-02 3.766065e-02 4.117815e-02 4.367026e-02 4.573515e-02 4.674282e-02 4.745655e-02 4.725466e-02 4.695541e-02 4.604067e-02 4.519792e-02 4.414509e-02 4.321377e-02 4.249512e-02 4.176238e-02 4.158202e-02 4.106774e-02 4.130106e-02 4.077450e-02 4.104458e-02 4.014103e-02 3.998815e-02 3.837390e-02 3.743909e-02 3.496473e-02 3.318946e-02 2.999902e-02 2.769925e-02 2.412708e-02 2.166755e-02 1.799548e-02 1.559808e-02 1.198788e-02 9.746922e-03 6.282410e-03 4.230824e-03 9.618945e-04 8.881846e-04 3.925813e-03 5.568733e-03 8.347847e-03 9.781385e-03 1.228148e-02 1.350619e-02 1.571186e-02 1.673035e-02 1.862964e-02 1.944566e-02 2.102889e-02 
1.889419e-02 1.998101e-02 2.045958e-02 2.127150e-02 2.155283e-02 2.208850e-02 2.217807e-02 2.243906e-02 2.234458e-02 2.233614e-02 2.206804e-02 2.179978e-02 2.137161e-02 2.085811e-02 2.028687e-02 1.954819e-02 1.885457e-02 1.791658e-02 1.712513e-02 1.601979e-02 1.515915e-02 1.392469e-02 1.302783e-02 1.170888e-02 1.081329e-02 9.460962e-03 8.608771e-03 7.280465e-03 6.518240e-03 5.276887e-03 4.654663e-03 3.566674e-03 3.136232e-03 2.267294e-03 2.084531e-03 1.502488e-03 1.655251e-03 1.470982e-03 2.060727e-03 2.356273e-03 3.392475e-03 4.175775e-03 5.669242e-03 6.954168e-03 8.909862e-03 1.068877e-02 1.307644e-02 1.529844e-02 1.804174e-02 2.060375e-02 2.357469e-02 2.631850e-02 2.933712e-02 3.205326e-02 3.489457e-02 3.733455e-02 3.974412e-02 4.164130e-02 4.335882e-02 4.445603e-02 4.524404e-02 4.532358e-02 4.499675e-02 4.390783e-02 4.235813e-02 4.003782e-02 3.725363e-02 3.374230e-02 2.982575e-02 2.528861e-02 2.049700e-02 1.532513e-02 1.038393e-02 6.556591e-03 7.105572e-03 1.149554e-02 1.666170e-02 2.209243e-02 2.699541e-02 3.173693e-02 3.558360e-02 3.911783e-02 4.156620e-02 4.368676e-02 4.469591e-02 4.548853e-02 4.530882e-02 4.511265e-02 4.421205e-02 4.350674e-02 4.243753e-02 4.168558e-02 4.091550e-02 4.040113e-02 4.014186e-02 3.987918e-02 4.002032e-02 3.977279e-02 3.995129e-02 3.936382e-02 3.912750e-02 3.787517e-02 3.685568e-02 3.478139e-02 3.290539e-02 3.013780e-02 2.774067e-02 2.461245e-02 2.206816e-02 1.885717e-02 1.638685e-02 1.325665e-02 1.096275e-02 8.031392e-03 6.007244e-03 3.595526e-03 2.509877e-03 3.132116e-03 4.421800e-03 6.589501e-03 8.023782e-03 1.011677e-02 1.139489e-02 1.326846e-02 1.435262e-02 1.597468e-02 1.685689e-02 1.821474e-02 
2.197947e-02 2.322239e-02 2.362607e-02 2.454571e-02 2.476793e-02 2.535833e-02 2.540426e-02 2.566428e-02 2.554145e-02 2.547528e-02 2.519389e-02 2.481170e-02 2.438495e-02 2.370336e-02 2.314773e-02 2.219019e-02 2.152559e-02 2.032256e-02 1.957249e-02 1.816147e-02 1.735319e-02 1.577870e-02 1.494331e-02 1.325680e-02 1.242931e-02 1.068896e-02 9.908049e-03 8.178293e-03 7.485463e-03 5.835819e-03 5.273275e-03 3.774979e-03 3.382247e-03 2.098777e-03 1.918451e-03 8.909994e-04 1.088493e-03 6.383051e-04 1.445581e-03 1.655940e-03 2.808511e-03 3.418905e-03 5.015221e-03 6.076657e-03 8.147809e-03 9.693477e-03 1.220935e-02 1.420964e-02 1.708962e-02 1.945192e-02 2.256360e-02 2.513475e-02 2.829412e-02 3.086670e-02 3.384505e-02 3.617087e-02 3.871041e-02 4.052229e-02 4.236011e-02 4.340034e-02 4.429799e-02 4.434991e-02 4.412436e-02 4.304234e-02 4.159485e-02 3.933095e-02 3.667491e-02 3.330886e-02 2.961319e-02 2.542285e-02 2.115405e-02 1.693118e-02 1.358981e-02 1.213857e-02 1.353733e-02 1.709009e-02 2.159009e-02 2.643619e-02 3.103634e-02 3.541956e-02 3.907138e-02 4.231761e-02 4.457098e-02 4.641595e-02 4.719001e-02 4.769235e-02 4.723767e-02 4.671902e-02 4.553696e-02 4.447393e-02 4.317743e-02 4.206551e-02 4.119119e-02 4.036813e-02 4.015759e-02 3.965081e-02 3.995927e-02 3.950316e-02 3.990655e-02 3.910333e-02 3.911389e-02 3.762597e-02 3.684544e-02 3.450975e-02 3.283324e-02 2.977478e-02 2.758363e-02 2.416219e-02 2.184583e-02 1.835904e-02 1.613479e-02 1.279111e-02 1.078939e-02 7.873679e-03 6.353999e-03 4.860668e-03 4.756413e-03 6.093250e-03 7.177800e-03 9.486633e-03 1.070948e-02 1.302623e-02 1.414264e-02 1.625926e-02 1.721220e-02 1.906313e-02 1.983591e-02 2.139138e-02 
1.955704e-02 2.060237e-02 2.102520e-02 2.181228e-02 2.205654e-02 2.257731e-02 2.264458e-02 2.289647e-02 2.279204e-02 2.277764e-02 2.251028e-02 2.223755e-02 2.181955e-02 2.130213e-02 2.074930e-02 2.000683e-02 1.933852e-02 1.839689e-02 1.763594e-02 1.652743e-02 1.570011e-02 1.446347e-02 1.359929e-02 1.227978e-02 1.141104e-02 1.006009e-02 9.220717e-03 7.894892e-03 7.117842e-03 5.875741e-03 5.187561e-03 4.081811e-03 3.493538e-03 2.552835e-03 2.057473e-03 1.265166e-03 9.801769e-04 6.626392e-04 1.448396e-03 2.056193e-03 3.289345e-03 4.305969e-03 5.941777e-03 7.383875e-03 9.453931e-03 1.134515e-02 1.383280e-02 1.614391e-02 1.897971e-02 2.162085e-02 2.468064e-02 2.750120e-02 3.060739e-02 3.340207e-02 3.633170e-02 3.885466e-02 4.135608e-02 4.334418e-02 4.516231e-02 4.636563e-02 4.727316e-02 4.748869e-02 4.731888e-02 4.642253e-02 4.510003e-02 4.307526e-02 4.064707e-02 3.761854e-02 3.430320e-02 3.061181e-02 2.693116e-02 2.336877e-02 2.053429e-02 1.886589e-02 1.895658e-02 2.077923e-02 2.378964e-02 2.755641e-02 3.133378e-02 3.517062e-02 3.835337e-02 4.131021e-02 4.326879e-02 4.494034e-02 4.550239e-02 4.587431e-02 4.522997e-02 4.459693e-02 4.320229e-02 4.205466e-02 4.051505e-02 3.939722e-02 3.830754e-02 3.760228e-02 3.725840e-02 3.699963e-02 3.726416e-02 3.713420e-02 3.756270e-02 3.716201e-02 3.726517e-02 3.628385e-02 3.561217e-02 3.385955e-02 3.220594e-02 2.972795e-02 2.757870e-02 2.475771e-02 2.252698e-02 1.966103e-02 1.754297e-02 1.483936e-02 1.295688e-02 1.067311e-02 9.236073e-03 7.876327e-03 7.304551e-03 7.484015e-03 7.928745e-03 9.256082e-03 1.017274e-02 1.185089e-02 1.283893e-02 1.449833e-02 1.540365e-02 1.690641e-02 1.767039e-02 1.895861e-02 
2.296612e-02 2.416421e-02 2.450836e-02 2.540065e-02 2.558118e-02 2.615390e-02 2.617194e-02 2.641883e-02 2.627925e-02 2.620113e-02 2.591226e-02 2.551721e-02 2.509077e-02 2.439428e-02 2.384531e-02 2.287048e-02 2.221726e-02 2.099478e-02 2.025866e-02 1.882679e-02 1.803197e-02 1.643646e-02 1.560962e-02 1.390359e-02 1.307325e-02 1.131709e-02 1.051209e-02 8.773203e-03 8.019653e-03 6.371740e-03 5.686521e-03 4.208034e-03 3.585526e-03 2.360037e-03 1.743959e-03 9.299061e-04 1.548601e-04 1.023336e-03 1.568947e-03 2.476359e-03 3.521745e-03 4.537226e-03 6.083958e-03 7.398077e-03 9.457384e-03 1.117118e-02 1.370575e-02 1.583160e-02 1.875511e-02 2.122546e-02 2.440112e-02 2.707708e-02 3.031801e-02 3.300001e-02 3.607638e-02 3.852115e-02 4.117660e-02 4.312252e-02 4.509975e-02 4.629940e-02 4.737253e-02 4.762899e-02 4.763874e-02 4.684156e-02 4.573118e-02 4.389202e-02 4.174884e-02 3.904857e-02 3.617287e-02 3.305615e-02 3.010762e-02 2.747924e-02 2.568793e-02 2.496551e-02 2.564641e-02 2.749537e-02 3.030451e-02 3.358966e-02 3.699932e-02 4.031745e-02 4.312901e-02 4.559273e-02 4.714198e-02 4.832831e-02 4.840421e-02 4.827850e-02 4.706913e-02 4.590193e-02 4.390964e-02 4.217365e-02 4.011089e-02 3.841709e-02 3.703999e-02 3.591468e-02 3.560052e-02 3.510126e-02 3.562852e-02 3.536246e-02 3.614225e-02 3.560621e-02 3.611550e-02 3.502187e-02 3.476969e-02 3.294196e-02 3.158058e-02 2.896816e-02 2.713751e-02 2.418402e-02 2.231412e-02 1.935094e-02 1.760140e-02 1.489683e-02 1.339910e-02 1.134789e-02 1.035458e-02 9.564435e-03 9.383011e-03 1.012165e-02 1.064533e-02 1.230319e-02 1.312390e-02 1.506071e-02 1.591922e-02 1.782009e-02 1.860159e-02 2.032669e-02 2.098104e-02 2.246176e-02 
2.085317e-02 2.182542e-02 2.214565e-02 2.288812e-02 2.306303e-02 2.355683e-02 2.358216e-02 2.381751e-02 2.369464e-02 2.366937e-02 2.340431e-02 2.312334e-02 2.272608e-02 2.220136e-02 2.168543e-02 2.093594e-02 2.031800e-02 1.936980e-02 1.866923e-02 1.755538e-02 1.679370e-02 1.555425e-02 1.475438e-02 1.343601e-02 1.262097e-02 1.127630e-02 1.046688e-02 9.152546e-03 8.363188e-03 7.135622e-03 6.367558e-03 5.274868e-03 4.506576e-03 3.578237e-03 2.758327e-03 2.021342e-03 1.126656e-03 1.046886e-03 1.419792e-03 2.468071e-03 3.763019e-03 5.084339e-03 6.863695e-03 8.534079e-03 1.076874e-02 1.284266e-02 1.550071e-02 1.797034e-02 2.097781e-02 2.376820e-02 2.699965e-02 2.996954e-02 3.324750e-02 3.619664e-02 3.929963e-02 4.198545e-02 4.466600e-02 4.683066e-02 4.884314e-02 5.024939e-02 5.138508e-02 5.185609e-02 5.198068e-02 5.143767e-02 5.052686e-02 4.902093e-02 4.719477e-02 4.493803e-02 4.250394e-02 3.991537e-02 3.743175e-02 3.519767e-02 3.350340e-02 3.250741e-02 3.242160e-02 3.318981e-02 3.474207e-02 3.683251e-02 3.913581e-02 4.155113e-02 4.356296e-02 4.542378e-02 4.642161e-02 4.719892e-02 4.688042e-02 4.642882e-02 4.488922e-02 4.340658e-02 4.104500e-02 3.898975e-02 3.645614e-02 3.451775e-02 3.270692e-02 3.152955e-02 3.096621e-02 3.067911e-02 3.115484e-02 3.118744e-02 3.204550e-02 3.192574e-02 3.272350e-02 3.231764e-02 3.251080e-02 3.163543e-02 3.046296e-02 2.865421e-02 2.707189e-02 2.487808e-02 2.330139e-02 2.106211e-02 1.956438e-02 1.750091e-02 1.616012e-02 1.453685e-02 1.352017e-02 1.264742e-02 1.214430e-02 1.220189e-02 1.225330e-02 1.308089e-02 1.351687e-02 1.475796e-02 1.536318e-02 1.672689e-02 1.735279e-02 1.866711e-02 1.922955e-02 2.039970e-02 
2.457812e-02 2.571360e-02 2.596807e-02 2.682179e-02 2.693850e-02 2.748605e-02 2.746103e-02 2.768873e-02 2.752332e-02 2.742701e-02 2.712699e-02 2.671163e-02 2.628665e-02 2.556620e-02 2.502929e-02 2.402659e-02 2.339364e-02 2.214027e-02 2.142946e-02 1.996560e-02 1.919674e-02 1.757111e-02 1.676475e-02 1.503481e-02 1.421094e-02 1.244355e-02 1.161933e-02 9.892304e-03 9.078277e-03 7.484484e-03 6.678543e-03 5.338256e-03 4.520644e-03 3.624466e-03 2.791954e-03 2.703783e-03 2.154571e-03 3.047920e-03 3.250909e-03 4.475226e-03 5.352221e-03 6.712675e-03 8.195267e-03 9.794291e-03 1.185244e-02 1.379186e-02 1.637191e-02 1.868600e-02 2.169200e-02 2.433463e-02 2.762257e-02 3.046984e-02 3.384779e-02 3.670906e-02 3.994520e-02 4.258317e-02 4.542389e-02 4.758469e-02 4.978248e-02 5.123407e-02 5.258265e-02 5.315665e-02 5.352903e-02 5.316046e-02 5.254697e-02 5.130928e-02 4.985723e-02 4.799575e-02 4.605468e-02 4.402035e-02 4.217792e-02 4.062250e-02 3.963106e-02 3.921736e-02 3.961886e-02 4.056094e-02 4.218854e-02 4.400529e-02 4.605354e-02 4.792233e-02 4.947281e-02 5.066445e-02 5.104608e-02 5.112208e-02 5.004442e-02 4.890803e-02 4.648244e-02 4.431388e-02 4.098786e-02 3.812970e-02 3.467927e-02 3.184951e-02 2.949141e-02 2.770847e-02 2.715811e-02 2.659685e-02 2.745157e-02 2.740727e-02 2.866231e-02 2.838155e-02 2.968942e-02 2.924724e-02 3.015965e-02 2.964248e-02 2.889591e-02 2.718134e-02 2.608956e-02 2.393791e-02 2.287425e-02 2.070259e-02 1.965534e-02 1.772867e-02 1.676888e-02 1.542180e-02 1.473656e-02 1.429126e-02 1.404370e-02 1.456895e-02 1.474860e-02 1.597889e-02 1.642952e-02 1.800374e-02 1.856229e-02 2.021227e-02 2.076791e-02 2.233065e-02 2.281787e-02 2.419678e-02 
2.273711e-02 2.361969e-02 2.380473e-02 2.449120e-02 2.457272e-02 2.503241e-02 2.500088e-02 2.521530e-02 2.506824e-02 2.502914e-02 2.476945e-02 2.447781e-02 2.411259e-02 2.357824e-02 2.311781e-02 2.235911e-02 2.181612e-02 2.085971e-02 2.024824e-02 1.912878e-02 1.846336e-02 1.722312e-02 1.651750e-02 1.520571e-02 1.447124e-02 1.314299e-02 1.238632e-02 1.110040e-02 1.032072e-02 9.136253e-03 8.323062e-03 7.296568e-03 6.433501e-03 5.625288e-03 4.722057e-03 4.245631e-03 3.490072e-03 3.638382e-03 3.661616e-03 4.613039e-03 5.674265e-03 7.139313e-03 8.948524e-03 1.081873e-02 1.320515e-02 1.548504e-02 1.835177e-02 2.102703e-02 2.427014e-02 2.726954e-02 3.074801e-02 3.393411e-02 3.746204e-02 4.063611e-02 4.398913e-02 4.690931e-02 4.984360e-02 5.225677e-02 5.453971e-02 5.622453e-02 5.767343e-02 5.848770e-02 5.901023e-02 5.893177e-02 5.856005e-02 5.770968e-02 5.662032e-02 5.525994e-02 5.377403e-02 5.227655e-02 5.082699e-02 4.960852e-02 4.864327e-02 4.803791e-02 4.783532e-02 4.793684e-02 4.841959e-02 4.901118e-02 4.974405e-02 5.039686e-02 5.079044e-02 5.103017e-02 5.057264e-02 5.000512e-02 4.841362e-02 4.682585e-02 4.411497e-02 4.153226e-02 3.793444e-02 3.456736e-02 3.050705e-02 2.704588e-02 2.389860e-02 2.157058e-02 2.047025e-02 1.999970e-02 2.066259e-02 2.067593e-02 2.182983e-02 2.173382e-02 2.347318e-02 2.387862e-02 2.595358e-02 2.738714e-02 2.709639e-02 2.640524e-02 2.588878e-02 2.460725e-02 2.410280e-02 2.271506e-02 2.204846e-02 2.070847e-02 1.991376e-02 1.884585e-02 1.810588e-02 1.752759e-02 1.701721e-02 1.703118e-02 1.682780e-02 1.737480e-02 1.744354e-02 1.835316e-02 1.859780e-02 1.968277e-02 2.000395e-02 2.111468e-02 2.143587e-02 2.246768e-02 
2.678067e-02 2.784941e-02 2.799521e-02 2.880782e-02 2.884568e-02 2.936624e-02 2.928744e-02 2.949362e-02 2.929606e-02 2.917769e-02 2.886460e-02 2.842300e-02 2.800192e-02 2.724950e-02 2.673127e-02 2.569125e-02 2.508907e-02 2.379512e-02 2.312352e-02 2.161964e-02 2.089343e-02 1.923401e-02 1.846707e-02 1.671775e-02 1.592164e-02 1.416127e-02 1.334350e-02 1.166835e-02 1.083108e-02 9.363412e-03 8.505523e-03 7.409420e-03 6.544967e-03 6.040008e-03 5.264552e-03 5.551515e-03 5.118754e-03 6.118237e-03 6.272941e-03 7.665869e-03 8.479561e-03 1.010531e-02 1.157708e-02 1.345670e-02 1.556123e-02 1.776282e-02 2.044020e-02 2.299737e-02 2.614245e-02 2.901952e-02 3.247793e-02 3.556076e-02 3.913162e-02 4.223545e-02 4.568292e-02 4.857496e-02 5.165021e-02 5.408583e-02 5.655824e-02 5.832633e-02 6.001927e-02 6.098843e-02 6.181401e-02 6.196963e-02 6.195872e-02 6.142392e-02 6.074978e-02 5.978580e-02 5.877273e-02 5.774758e-02 5.683275e-02 5.612938e-02 5.572716e-02 5.557600e-02 5.585021e-02 5.616988e-02 5.687400e-02 5.728719e-02 5.785836e-02 5.790195e-02 5.774087e-02 5.707568e-02 5.576809e-02 5.423967e-02 5.161239e-02 4.922712e-02 4.534872e-02 4.218783e-02 3.731021e-02 3.318743e-02 2.774370e-02 2.287403e-02 1.882244e-02 1.537614e-02 1.413411e-02 1.311140e-02 1.427686e-02 1.430481e-02 1.557450e-02 1.497416e-02 1.697868e-02 1.703716e-02 2.031962e-02 2.357531e-02 2.427047e-02 2.374781e-02 2.400092e-02 2.292927e-02 2.318068e-02 2.206598e-02 2.194746e-02 2.087968e-02 2.045803e-02 1.971561e-02 1.924775e-02 1.906805e-02 1.876255e-02 1.921313e-02 1.914974e-02 2.012080e-02 2.026663e-02 2.155998e-02 2.183262e-02 2.325477e-02 2.357215e-02 2.497294e-02 2.527179e-02 2.654410e-02 
2.516396e-02 2.595559e-02 2.598797e-02 2.661687e-02 2.659042e-02 2.701519e-02 2.691767e-02 2.711093e-02 2.693733e-02 2.688418e-02 2.663488e-02 2.633198e-02 2.601108e-02 2.546610e-02 2.507998e-02 2.431105e-02 2.386707e-02 2.290223e-02 2.240744e-02 2.128398e-02 2.074392e-02 1.950756e-02 1.892500e-02 1.762884e-02 1.700259e-02 1.570557e-02 1.502966e-02 1.379451e-02 1.305869e-02 1.194990e-02 1.114424e-02 1.022857e-02 9.359678e-03 8.715795e-03 7.851986e-03 7.597394e-03 6.962634e-03 7.267494e-03 7.273732e-03 8.239568e-03 9.172233e-03 1.072259e-02 1.253358e-02 1.457766e-02 1.711104e-02 1.961291e-02 2.272384e-02 2.564791e-02 2.918969e-02 3.245597e-02 3.625555e-02 3.972082e-02 4.356988e-02 4.702898e-02 5.069121e-02 5.389716e-02 5.713039e-02 5.983249e-02 6.242263e-02 6.441876e-02 6.622028e-02 6.741261e-02 6.838713e-02 6.882296e-02 6.906299e-02 6.893694e-02 6.865868e-02 6.825816e-02 6.774979e-02 6.734935e-02 6.687636e-02 6.661649e-02 6.630818e-02 6.611516e-02 6.588122e-02 6.548694e-02 6.502691e-02 6.411656e-02 6.306819e-02 6.150367e-02 5.967647e-02 5.761200e-02 5.508258e-02 5.274525e-02 4.964354e-02 4.697788e-02 4.334914e-02 4.009041e-02 3.596209e-02 3.160436e-02 2.638462e-02 2.040777e-02 1.531268e-02 9.304637e-03 6.341529e-03 4.370256e-03 5.019143e-03 4.635997e-03 4.463545e-03 3.303731e-03 5.383905e-03 6.437576e-03 1.193160e-02 2.034831e-02 2.244287e-02 2.202302e-02 2.331836e-02 2.326410e-02 2.453781e-02 2.435569e-02 2.476210e-02 2.425275e-02 2.398987e-02 2.343362e-02 2.288443e-02 2.253862e-02 2.198440e-02 2.198746e-02 2.157680e-02 2.194717e-02 2.172041e-02 2.238816e-02 2.231761e-02 2.317100e-02 2.320082e-02 2.412501e-02 2.419798e-02 2.509451e-02 
2.954328e-02 3.055509e-02 3.058475e-02 3.136368e-02 3.131543e-02 3.181419e-02 3.167594e-02 3.186303e-02 3.163020e-02 3.148896e-02 3.116292e-02 3.069095e-02 3.027762e-02 2.948633e-02 2.899473e-02 2.790888e-02 2.734968e-02 2.600694e-02 2.539108e-02 2.384182e-02 2.317914e-02 2.148681e-02 2.078485e-02 1.902738e-02 1.829052e-02 1.656325e-02 1.579276e-02 1.421352e-02 1.341032e-02 1.212579e-02 1.130071e-02 1.048705e-02 9.686810e-03 9.519112e-03 8.865806e-03 9.422491e-03 9.113285e-03 1.028787e-02 1.050966e-02 1.210445e-02 1.296900e-02 1.486401e-02 1.641737e-02 1.860284e-02 2.083953e-02 2.335477e-02 2.621611e-02 2.908385e-02 3.245370e-02 3.563705e-02 3.934238e-02 4.272647e-02 4.654660e-02 4.994339e-02 5.363081e-02 5.680647e-02 6.011922e-02 6.284038e-02 6.557980e-02 6.766847e-02 6.971126e-02 7.109134e-02 7.240662e-02 7.312574e-02 7.377894e-02 7.400029e-02 7.415500e-02 7.412371e-02 7.403647e-02 7.401466e-02 7.397895e-02 7.412946e-02 7.432894e-02 7.456312e-02 7.487905e-02 7.477755e-02 7.470891e-02 7.366969e-02 7.254710e-02 7.019719e-02 6.766590e-02 6.427482e-02 6.062312e-02 5.696971e-02 5.272807e-02 4.936620e-02 4.466551e-02 4.165672e-02 3.639280e-02 3.261152e-02 2.597959e-02 1.879194e-02 1.468120e-02 8.820001e-03 6.000329e-03 5.737626e-03 5.162005e-03 6.102970e-03 6.206147e-03 8.601826e-03 7.518197e-03 9.099960e-03 4.989734e-03 1.652528e-02 2.051756e-02 1.701184e-02 1.957990e-02 2.045044e-02 2.306765e-02 2.348936e-02 2.453551e-02 2.442790e-02 2.449373e-02 2.430693e-02 2.396718e-02 2.401565e-02 2.362515e-02 2.405262e-02 2.378031e-02 2.458500e-02 2.447168e-02 2.555852e-02 2.557466e-02 2.681303e-02 2.690373e-02 2.816651e-02 2.827718e-02 2.945699e-02 
2.810046e-02 2.881330e-02 2.868888e-02 2.926865e-02 2.912874e-02 2.952495e-02 2.935810e-02 2.953492e-02 2.933600e-02 2.927190e-02 2.904007e-02 2.872747e-02 2.846419e-02 2.790896e-02 2.761622e-02 2.683704e-02 2.651574e-02 2.554320e-02 2.519181e-02 2.406725e-02 2.368072e-02 2.245483e-02 2.202391e-02 2.075507e-02 2.026633e-02 1.901863e-02 1.845578e-02 1.729701e-02 1.664509e-02 1.564534e-02 1.490072e-02 1.413354e-02 1.332539e-02 1.287401e-02 1.210419e-02 1.207111e-02 1.156333e-02 1.206306e-02 1.214818e-02 1.325504e-02 1.420733e-02 1.591408e-02 1.780219e-02 2.006449e-02 2.279831e-02 2.557617e-02 2.900082e-02 3.224198e-02 3.616935e-02 3.977623e-02 4.398450e-02 4.779436e-02 5.203056e-02 5.581737e-02 5.981572e-02 6.331652e-02 6.683213e-02 6.979636e-02 7.264677e-02 7.490093e-02 7.700414e-02 7.851555e-02 7.991451e-02 8.082694e-02 8.168924e-02 8.229294e-02 8.286847e-02 8.347923e-02 8.400470e-02 8.479073e-02 8.536600e-02 8.621129e-02 8.669438e-02 8.715117e-02 8.710035e-02 8.645301e-02 8.516416e-02 8.268350e-02 7.949040e-02 7.500056e-02 6.996675e-02 6.456467e-02 5.911199e-02 5.492579e-02 5.076848e-02 4.849433e-02 4.548783e-02 4.366879e-02 4.178131e-02 3.888289e-02 3.589902e-02 2.673741e-02 2.072282e-02 1.470040e-02 1.505763e-02 1.418836e-02 1.769339e-02 2.154614e-02 2.509092e-02 2.701578e-02 2.991406e-02 2.982011e-02 3.015215e-02 3.153109e-02 1.903900e-02 1.074723e-02 1.773353e-02 2.117611e-02 2.542114e-02 2.684893e-02 2.828358e-02 2.858896e-02 2.865089e-02 2.850641e-02 2.799273e-02 2.780224e-02 2.713544e-02 2.711680e-02 2.650326e-02 2.674056e-02 2.625937e-02 2.674458e-02 2.640231e-02 2.707273e-02 2.684060e-02 2.761019e-02 2.744842e-02 2.822907e-02 
3.284623e-02 3.382442e-02 3.374119e-02 3.450455e-02 3.437059e-02 3.486068e-02 3.466245e-02 3.483840e-02 3.457038e-02 3.440893e-02 3.407198e-02 3.356737e-02 3.316689e-02 3.233055e-02 3.187460e-02 3.073465e-02 3.023208e-02 2.883272e-02 2.829133e-02 2.669253e-02 2.611767e-02 2.439553e-02 2.378910e-02 2.203734e-02 2.139791e-02 1.973053e-02 1.905548e-02 1.760947e-02 1.690138e-02 1.583535e-02 1.511588e-02 1.459371e-02 1.392592e-02 1.407156e-02 1.357855e-02 1.441281e-02 1.426523e-02 1.569030e-02 1.606001e-02 1.793455e-02 1.895444e-02 2.118477e-02 2.293283e-02 2.549852e-02 2.798959e-02 3.091004e-02 3.408659e-02 3.736814e-02 4.109387e-02 4.468392e-02 4.874678e-02 5.250923e-02 5.664069e-02 6.036152e-02 6.427746e-02 6.770489e-02 7.116515e-02 7.407891e-02 7.694639e-02 7.923182e-02 8.149667e-02 8.318366e-02 8.492803e-02 8.616553e-02 8.749501e-02 8.848211e-02 8.949985e-02 9.043188e-02 9.128300e-02 9.231498e-02 9.318505e-02 9.433174e-02 9.528365e-02 9.621442e-02 9.689913e-02 9.675173e-02 9.620226e-02 9.372912e-02 9.067411e-02 8.508685e-02 7.913948e-02 7.159239e-02 6.481548e-02 5.890455e-02 5.470201e-02 5.240922e-02 5.012301e-02 4.965123e-02 4.719141e-02 4.755656e-02 4.043535e-02 3.231675e-02 2.898474e-02 2.365453e-02 2.321044e-02 2.503307e-02 2.850881e-02 2.657611e-02 2.600877e-02 1.991622e-02 1.974556e-02 1.390914e-02 1.501099e-02 1.304670e-02 1.248687e-02 1.353685e-02 1.967542e-02 2.129404e-02 2.565270e-02 2.711739e-02 2.868107e-02 2.925313e-02 2.938367e-02 2.954863e-02 2.911022e-02 2.927781e-02 2.871385e-02 2.910414e-02 2.861752e-02 2.929860e-02 2.895577e-02 2.989346e-02 2.968712e-02 3.079200e-02 3.068211e-02 3.184584e-02 3.178461e-02 3.290176e-02 
3.152959e-02 3.218785e-02 3.191333e-02 3.246241e-02 3.221134e-02 3.259301e-02 3.235868e-02 3.252931e-02 3.230948e-02 3.224125e-02 3.203580e-02 3.171724e-02 3.152579e-02 3.096173e-02 3.078162e-02 2.999248e-02 2.981720e-02 2.883771e-02 2.865583e-02 2.753320e-02 2.732802e-02 2.611971e-02 2.586966e-02 2.464097e-02 2.432126e-02 2.314280e-02 2.272911e-02 2.167452e-02 2.115013e-02 2.029468e-02 1.966355e-02 1.908454e-02 1.839340e-02 1.817285e-02 1.754268e-02 1.776948e-02 1.742199e-02 1.818432e-02 1.841979e-02 1.978160e-02 2.087480e-02 2.285742e-02 2.494288e-02 2.753491e-02 3.058480e-02 3.375424e-02 3.762143e-02 4.130196e-02 4.575573e-02 4.981895e-02 5.456280e-02 5.880060e-02 6.349546e-02 6.762954e-02 7.194026e-02 7.566687e-02 7.933094e-02 8.239664e-02 8.529131e-02 8.757926e-02 8.975214e-02 9.134784e-02 9.299354e-02 9.419735e-02 9.559574e-02 9.684164e-02 9.827170e-02 9.992116e-02 1.015481e-01 1.036632e-01 1.054348e-01 1.076774e-01 1.092479e-01 1.108423e-01 1.114475e-01 1.111160e-01 1.094031e-01 1.055199e-01 9.985808e-02 9.149292e-02 8.161654e-02 7.117952e-02 6.168527e-02 5.754945e-02 5.599187e-02 6.004554e-02 6.021645e-02 6.293154e-02 6.438569e-02 6.579336e-02 6.605561e-02 4.859042e-02 3.927136e-02 3.552071e-02 2.761397e-02 9.186102e-03 6.781355e-03 2.566895e-02 3.458789e-02 4.424624e-02 4.887731e-02 5.348151e-02 5.584567e-02 5.796296e-02 5.762769e-02 3.996604e-02 3.492151e-02 3.146456e-02 3.280857e-02 3.364006e-02 3.430212e-02 3.470710e-02 3.438853e-02 3.432084e-02 3.355336e-02 3.336158e-02 3.248282e-02 3.239495e-02 3.157266e-02 3.169357e-02 3.099407e-02 3.134156e-02 3.077426e-02 3.131042e-02 3.085654e-02 3.151299e-02 3.114405e-02 3.184087e-02 
3.668365e-02 3.766536e-02 3.748235e-02 3.825975e-02 3.804760e-02 3.855100e-02 3.829695e-02 3.847587e-02 3.817556e-02 3.800017e-02 3.765581e-02 3.711770e-02 3.673585e-02 3.584808e-02 3.543727e-02 3.423379e-02 3.380213e-02 3.233691e-02 3.189001e-02 3.023630e-02 2.977572e-02 2.802593e-02 2.754865e-02 2.581504e-02 2.531468e-02 2.373004e-02 2.320097e-02 2.191690e-02 2.136296e-02 2.054001e-02 1.998910e-02 1.977150e-02 1.929314e-02 1.976785e-02 1.948315e-02 2.064608e-02 2.071709e-02 2.248312e-02 2.308385e-02 2.534362e-02 2.662855e-02 2.930667e-02 3.138430e-02 3.445800e-02 3.736610e-02 4.084070e-02 4.452181e-02 4.838108e-02 5.266357e-02 5.681759e-02 6.141311e-02 6.566586e-02 7.019824e-02 7.425740e-02 7.833877e-02 8.188548e-02 8.524036e-02 8.805588e-02 9.065129e-02 9.274832e-02 9.482817e-02 9.647683e-02 9.839844e-02 9.996364e-02 1.019115e-01 1.036181e-01 1.055118e-01 1.074070e-01 1.091662e-01 1.112707e-01 1.130252e-01 1.153396e-01 1.172392e-01 1.193941e-01 1.210553e-01 1.217170e-01 1.215043e-01 1.181333e-01 1.132673e-01 1.034408e-01 9.245017e-02 7.817732e-02 6.755198e-02 6.197542e-02 6.640500e-02 7.188570e-02 7.909656e-02 7.980395e-02 8.439081e-02 9.103137e-02 5.809481e-02 3.363023e-02 2.477715e-02 2.092346e-02 5.045004e-02 7.668813e-02 8.577931e-02 9.026471e-02 8.989490e-02 8.792127e-02 8.807439e-02 8.475208e-02 8.630006e-02 8.437153e-02 7.353102e-02 5.158028e-02 4.281884e-02 3.743855e-02 3.624282e-02 3.618725e-02 3.583808e-02 3.609477e-02 3.542430e-02 3.551049e-02 3.466152e-02 3.477631e-02 3.394751e-02 3.426392e-02 3.356577e-02 3.415424e-02 3.362113e-02 3.446627e-02 3.408404e-02 3.511482e-02 3.484506e-02 3.596290e-02 3.576050e-02 3.686002e-02 
3.545280e-02 3.609255e-02 3.568326e-02 3.623032e-02 3.587657e-02 3.626589e-02 3.596993e-02 3.615060e-02 3.591668e-02 3.585493e-02 3.568607e-02 3.536714e-02 3.526221e-02 3.469097e-02 3.464262e-02 3.384290e-02 3.383641e-02 3.284915e-02 3.286224e-02 3.174285e-02 3.174658e-02 3.056162e-02 3.052237e-02 2.934612e-02 2.922910e-02 2.814032e-02 2.791522e-02 2.699440e-02 2.664451e-02 2.597207e-02 2.550856e-02 2.516432e-02 2.464697e-02 2.471069e-02 2.427290e-02 2.482437e-02 2.468950e-02 2.580465e-02 2.626668e-02 2.800815e-02 2.935751e-02 3.176583e-02 3.419258e-02 3.728213e-02 4.081839e-02 4.456760e-02 4.908164e-02 5.340581e-02 5.861508e-02 6.333017e-02 6.881935e-02 7.362108e-02 7.888504e-02 8.337184e-02 8.791238e-02 9.167316e-02 9.515304e-02 9.791271e-02 1.003110e-01 1.020760e-01 1.037268e-01 1.048390e-01 1.062734e-01 1.073284e-01 1.090227e-01 1.106804e-01 1.128988e-01 1.155542e-01 1.183002e-01 1.218469e-01 1.249063e-01 1.288425e-01 1.318312e-01 1.352810e-01 1.373835e-01 1.385840e-01 1.376380e-01 1.333896e-01 1.256224e-01 1.125659e-01 9.531363e-02 7.648052e-02 6.128243e-02 6.607036e-02 8.021627e-02 1.024513e-01 1.050272e-01 1.152460e-01 1.244508e-01 7.564975e-02 5.045429e-02 1.335595e-02 6.123874e-02 1.051369e-01 1.006990e-01 8.702067e-02 7.312072e-02 5.721903e-02 4.843042e-02 3.959282e-02 3.478306e-02 2.960276e-02 2.735112e-02 2.425208e-02 4.037177e-02 4.700557e-02 4.549191e-02 4.527835e-02 4.332378e-02 4.330547e-02 4.201038e-02 4.186335e-02 4.067795e-02 4.036979e-02 3.920359e-02 3.889387e-02 3.779532e-02 3.762307e-02 3.663860e-02 3.667798e-02 3.582509e-02 3.609039e-02 3.536277e-02 3.582345e-02 3.520230e-02 3.579878e-02 3.526289e-02 3.592044e-02 
4.106672e-02 4.210413e-02 4.184356e-02 4.267728e-02 4.240086e-02 4.294938e-02 4.264764e-02 4.285030e-02 4.252256e-02 4.234297e-02 4.199520e-02 4.142329e-02 4.106544e-02 4.011805e-02 3.976107e-02 3.848124e-02 3.813416e-02 3.658968e-02 3.625713e-02 3.453884e-02 3.421949e-02 3.243991e-02 3.212651e-02 3.041864e-02 3.010035e-02 2.861526e-02 2.828343e-02 2.718354e-02 2.684191e-02 2.628523e-02 2.596439e-02 2.607742e-02 2.584951e-02 2.669626e-02 2.668232e-02 2.824930e-02 2.861266e-02 3.082751e-02 3.175448e-02 3.453082e-02 3.620431e-02 3.948376e-02 4.205128e-02 4.581634e-02 4.934986e-02 5.359855e-02 5.804698e-02 6.273562e-02 6.787822e-02 7.285134e-02 7.827085e-02 8.320887e-02 8.831623e-02 9.274390e-02 9.689806e-02 1.003032e-01 1.030592e-01 1.051479e-01 1.065883e-01 1.075981e-01 1.085089e-01 1.092849e-01 1.107537e-01 1.122192e-01 1.146661e-01 1.170267e-01 1.198243e-01 1.226368e-01 1.251278e-01 1.281171e-01 1.304250e-01 1.338201e-01 1.365986e-01 1.405742e-01 1.440819e-01 1.472485e-01 1.492918e-01 1.470191e-01 1.418344e-01 1.273730e-01 1.091733e-01 8.260014e-02 6.589372e-02 7.229231e-02 1.056466e-01 1.292417e-01 1.509611e-01 1.444553e-01 9.082639e-02 5.209581e-02 8.494477e-03 1.270172e-01 1.423286e-01 8.978089e-02 5.205288e-02 2.392033e-02 3.231365e-03 1.292591e-02 2.048891e-02 2.782453e-02 3.101867e-02 3.424846e-02 3.552807e-02 3.872495e-02 3.106093e-02 4.215062e-02 4.196554e-02 4.511932e-02 4.334808e-02 4.400515e-02 4.243496e-02 4.250465e-02 4.114515e-02 4.109765e-02 3.990375e-02 3.995958e-02 3.894266e-02 3.922899e-02 3.840324e-02 3.897066e-02 3.832918e-02 3.916256e-02 3.867714e-02 3.971233e-02 3.934234e-02 4.048524e-02 4.018741e-02 4.133101e-02 