# vtk DataFile Version 2.0
Comment goes here
ASCII

DATASET STRUCTURED_POINTS
DIMENSIONS    128   128   1

ORIGIN    0.000   0.000   0.000
SPACING   0.0156250.015625   1.000

POINT_DATA   16384
SCALARS uMag double
LOOKUP_TABLE default

3.904421e-03 4.175190e-03 4.295245e-03 4.507821e-03 4.604245e-03 4.757824e-03 4.831620e-03 4.926035e-03 4.978235e-03 5.014120e-03 5.045906e-03 5.024817e-03 5.037607e-03 4.962103e-03 4.957626e-03 4.831302e-03 4.811657e-03 4.639140e-03 4.606849e-03 4.393763e-03 4.351818e-03 4.104735e-03 4.056653e-03 3.783027e-03 3.732899e-03 3.440999e-03 3.393542e-03 3.092366e-03 3.052948e-03 2.752119e-03 2.726754e-03 2.436371e-03 2.431640e-03 2.162056e-03 2.184928e-03 1.946422e-03 2.003942e-03 1.806248e-03 1.905041e-03 1.756704e-03 1.902280e-03 1.809836e-03 2.005686e-03 1.972666e-03 2.219189e-03 2.245036e-03 2.538376e-03 2.617397e-03 2.948358e-03 3.068911e-03 3.422174e-03 3.566352e-03 3.920277e-03 4.064359e-03 4.391640e-03 4.507502e-03 4.776847e-03 4.834367e-03 5.013174e-03 4.983380e-03 5.041109e-03 4.899565e-03 4.811280e-03 4.541067e-03 4.290532e-03 3.884286e-03 3.466217e-03 2.927060e-03 2.348448e-03 1.690123e-03 9.709370e-04 2.177567e-04 6.086629e-04 1.421667e-03 2.308486e-03 3.135418e-03 4.023544e-03 4.808998e-03 5.631249e-03 6.315297e-03 7.005628e-03 7.534108e-03 8.042153e-03 8.381151e-03 8.688789e-03 8.838022e-03 8.970623e-03 8.967711e-03 8.991789e-03 8.901496e-03 8.904861e-03 8.794149e-03 8.852530e-03 8.760345e-03 8.902934e-03 8.821733e-03 9.013861e-03 8.894011e-03 9.047665e-03 8.820502e-03 8.832037e-03 8.438476e-03 8.231066e-03 7.651308e-03 7.227677e-03 6.509077e-03 5.972961e-03 5.201577e-03 4.656037e-03 3.893360e-03 3.391005e-03 2.663886e-03 2.218753e-03 1.535539e-03 1.145270e-03 5.084198e-04 1.666220e-04 4.224508e-04 7.219392e-04 1.261817e-03 1.524047e-03 2.013241e-03 2.242189e-03 2.679154e-03 2.877897e-03 3.261039e-03 3.431920e-03 3.759631e-03 
3.089066e-03 3.310118e-03 3.446173e-03 3.624801e-03 3.734235e-03 3.870171e-03 3.953605e-03 4.046980e-03 4.105195e-03 4.156629e-03 4.190650e-03 4.201340e-03 4.212514e-03 4.184312e-03 4.174365e-03 4.109828e-03 4.080914e-03 3.983333e-03 3.938072e-03 3.811489e-03 3.753007e-03 3.602214e-03 3.534182e-03 3.364723e-03 3.291399e-03 3.109557e-03 3.035831e-03 2.848606e-03 2.780032e-03 2.595097e-03 2.537900e-03 2.363517e-03 2.324557e-03 2.169443e-03 2.156098e-03 2.029184e-03 2.049080e-03 1.959101e-03 2.019587e-03 1.974385e-03 2.081674e-03 2.087172e-03 2.245228e-03 2.304251e-03 2.513667e-03 2.624863e-03 2.881848e-03 3.038794e-03 3.334264e-03 3.524800e-03 3.843684e-03 4.049649e-03 4.370707e-03 4.568403e-03 4.864876e-03 5.026518e-03 5.267831e-03 5.364021e-03 5.518517e-03 5.521498e-03 5.559880e-03 5.447003e-03 5.345929e-03 5.102669e-03 4.847928e-03 4.470025e-03 4.059194e-03 3.554547e-03 3.000905e-03 2.396291e-03 1.749256e-03 1.159343e-03 8.224331e-04 1.147524e-03 1.851338e-03 2.610106e-03 3.442178e-03 4.207993e-03 4.998403e-03 5.682408e-03 6.351973e-03 6.894300e-03 7.388436e-03 7.752880e-03 8.050347e-03 8.235772e-03 8.358835e-03 8.403474e-03 8.416115e-03 8.386061e-03 8.375249e-03 8.337318e-03 8.379491e-03 8.369266e-03 8.493682e-03 8.499264e-03 8.670615e-03 8.640835e-03 8.773337e-03 8.642884e-03 8.633949e-03 8.346305e-03 8.114445e-03 7.647377e-03 7.189966e-03 6.586981e-03 6.016013e-03 5.364370e-03 4.787464e-03 4.148419e-03 3.617970e-03 3.017455e-03 2.547125e-03 1.994714e-03 1.585489e-03 1.095659e-03 7.654524e-04 4.630761e-04 4.645004e-04 7.497869e-04 9.986908e-04 1.365410e-03 1.609279e-03 1.950276e-03 2.168779e-03 2.472181e-03 2.663015e-03 2.925850e-03 
3.964298e-03 4.231997e-03 4.347745e-03 4.558367e-03 4.651626e-03 4.803789e-03 4.875250e-03 4.968436e-03 5.018926e-03 5.053548e-03 5.084099e-03 5.061580e-03 5.073488e-03 4.996308e-03 4.991195e-03 4.862908e-03 4.842761e-03 4.667976e-03 4.635192e-03 4.419522e-03 4.376949e-03 4.126949e-03 4.077934e-03 3.801021e-03 3.749458e-03 3.453834e-03 3.404224e-03 3.098786e-03 3.056292e-03 2.750540e-03 2.721047e-03 2.424994e-03 2.415158e-03 2.139257e-03 2.156525e-03 1.911604e-03 1.964083e-03 1.761150e-03 1.857012e-03 1.706479e-03 1.852562e-03 1.762452e-03 1.962445e-03 1.936271e-03 2.189569e-03 2.225317e-03 2.526758e-03 2.616950e-03 2.956490e-03 3.088215e-03 3.450257e-03 3.604993e-03 3.967966e-03 4.121845e-03 4.458649e-03 4.583716e-03 4.863305e-03 4.929920e-03 5.120006e-03 5.100158e-03 5.170781e-03 5.041830e-03 4.969380e-03 4.717791e-03 4.489335e-03 4.114716e-03 3.734012e-03 3.257104e-03 2.761231e-03 2.257573e-03 1.802974e-03 1.581994e-03 1.707994e-03 2.174450e-03 2.859320e-03 3.584335e-03 4.404820e-03 5.148631e-03 5.942839e-03 6.604410e-03 7.278543e-03 7.789286e-03 8.279662e-03 8.597638e-03 8.878160e-03 8.998535e-03 9.091705e-03 9.052197e-03 9.028756e-03 8.900726e-03 8.860751e-03 8.723401e-03 8.758425e-03 8.659973e-03 8.807586e-03 8.738147e-03 8.959095e-03 8.858879e-03 9.051126e-03 8.844862e-03 8.893319e-03 8.521036e-03 8.332927e-03 7.768979e-03 7.333508e-03 6.620096e-03 6.071256e-03 5.305988e-03 4.761272e-03 4.011818e-03 3.522363e-03 2.821624e-03 2.401421e-03 1.779205e-03 1.444736e-03 1.003623e-03 8.581067e-04 9.329171e-04 1.081568e-03 1.494148e-03 1.708827e-03 2.156024e-03 2.362665e-03 2.781184e-03 2.966898e-03 3.340629e-03 3.502973e-03 3.825469e-03 
3.213753e-03 3.425769e-03 3.547503e-03 3.720642e-03 3.819973e-03 3.952385e-03 4.028892e-03 4.119786e-03 4.173577e-03 4.223010e-03 4.254617e-03 4.263437e-03 4.273800e-03 4.243637e-03 4.234099e-03 4.167365e-03 4.139685e-03 4.039566e-03 3.995927e-03 3.866361e-03 3.809394e-03 3.655039e-03 3.587847e-03 3.414052e-03 3.340248e-03 3.153011e-03 3.076784e-03 2.882725e-03 2.808934e-03 2.615290e-03 2.549630e-03 2.364321e-03 2.313605e-03 2.145436e-03 2.117972e-03 1.976970e-03 1.982800e-03 1.880307e-03 1.930575e-03 1.878159e-03 1.982768e-03 1.989325e-03 2.153654e-03 2.222304e-03 2.445513e-03 2.572738e-03 2.848294e-03 3.024806e-03 3.341236e-03 3.552585e-03 3.893366e-03 4.119962e-03 4.463181e-03 4.680580e-03 4.999275e-03 5.179498e-03 5.443171e-03 5.557298e-03 5.734696e-03 5.756510e-03 5.819405e-03 5.729534e-03 5.657070e-03 5.447031e-03 5.230422e-03 4.906771e-03 4.555653e-03 4.147213e-03 3.704078e-03 3.283824e-03 2.869157e-03 2.617122e-03 2.512505e-03 2.693736e-03 3.086789e-03 3.628820e-03 4.292109e-03 4.948173e-03 5.658047e-03 6.280244e-03 6.903867e-03 7.401448e-03 7.854475e-03 8.172477e-03 8.415163e-03 8.540890e-03 8.587043e-03 8.557258e-03 8.476072e-03 8.369808e-03 8.270789e-03 8.179885e-03 8.172550e-03 8.149764e-03 8.281072e-03 8.307348e-03 8.530215e-03 8.532990e-03 8.739156e-03 8.647663e-03 8.718680e-03 8.481030e-03 8.301172e-03 7.879847e-03 7.404801e-03 6.818482e-03 6.230398e-03 5.591403e-03 5.024923e-03 4.406562e-03 3.906892e-03 3.341003e-03 2.915490e-03 2.425335e-03 2.082403e-03 1.712498e-03 1.487716e-03 1.331432e-03 1.287886e-03 1.397968e-03 1.507464e-03 1.761481e-03 1.927437e-03 2.214278e-03 2.386906e-03 2.662322e-03 2.823527e-03 3.070848e-03 
4.141013e-03 4.400376e-03 4.503866e-03 4.709108e-03 4.793264e-03 4.941462e-03 5.006163e-03 5.095831e-03 5.141350e-03 5.172286e-03 5.199241e-03 5.172487e-03 5.181842e-03 5.099661e-03 5.092724e-03 4.958567e-03 4.937007e-03 4.755443e-03 4.721297e-03 4.497926e-03 4.453621e-03 4.194965e-03 4.143342e-03 3.856733e-03 3.801096e-03 3.494550e-03 3.438737e-03 3.120848e-03 3.069353e-03 2.749212e-03 2.707409e-03 2.394644e-03 2.369197e-03 2.074285e-03 2.073838e-03 1.808935e-03 1.844850e-03 1.624921e-03 1.710809e-03 1.553032e-03 1.700787e-03 1.618888e-03 1.832560e-03 1.829387e-03 2.104083e-03 2.171697e-03 2.497735e-03 2.622692e-03 2.987723e-03 3.153573e-03 3.541547e-03 3.728328e-03 4.118111e-03 4.301723e-03 4.666912e-03 4.819902e-03 5.130162e-03 5.224166e-03 5.448012e-03 5.457550e-03 5.566341e-03 5.473415e-03 5.446404e-03 5.245601e-03 5.076479e-03 4.781551e-03 4.489190e-03 4.145542e-03 3.797581e-03 3.510550e-03 3.270691e-03 3.231040e-03 3.339943e-03 3.675038e-03 4.173830e-03 4.761036e-03 5.467017e-03 6.128654e-03 6.865038e-03 7.473457e-03 8.109016e-03 8.571120e-03 9.011502e-03 9.265599e-03 9.462269e-03 9.490564e-03 9.456755e-03 9.296546e-03 9.114671e-03 8.856816e-03 8.665912e-03 8.431910e-03 8.379126e-03 8.252026e-03 8.404493e-03 8.364262e-03 8.667442e-03 8.616582e-03 8.920068e-03 8.767228e-03 8.934304e-03 8.634457e-03 8.527240e-03 8.041225e-03 7.571890e-03 6.887628e-03 6.311720e-03 5.569640e-03 5.039708e-03 4.327612e-03 3.878922e-03 3.240272e-03 2.875934e-03 2.360887e-03 2.099055e-03 1.803918e-03 1.691966e-03 1.718448e-03 1.766783e-03 2.040584e-03 2.172966e-03 2.539151e-03 2.694219e-03 3.069412e-03 3.221443e-03 3.571141e-03 3.710236e-03 4.018868e-03 
3.453812e-03 3.650299e-03 3.745930e-03 3.909296e-03 3.989762e-03 4.115745e-03 4.179148e-03 4.265420e-03 4.310812e-03 4.356445e-03 4.383530e-03 4.388739e-03 4.397725e-03 4.363742e-03 4.355256e-03 4.284240e-03 4.259275e-03 4.154233e-03 4.114126e-03 3.978826e-03 3.925243e-03 3.764121e-03 3.699060e-03 3.517123e-03 3.442948e-03 3.245677e-03 3.165193e-03 2.958473e-03 2.875100e-03 2.665229e-03 2.583377e-03 2.377309e-03 2.303143e-03 2.109220e-03 2.052061e-03 1.881595e-03 1.855845e-03 1.725218e-03 1.750946e-03 1.681194e-03 1.778730e-03 1.787465e-03 1.966073e-03 2.056744e-03 2.310526e-03 2.472933e-03 2.787861e-03 3.005715e-03 3.365200e-03 3.619585e-03 4.004654e-03 4.273595e-03 4.661456e-03 4.919275e-03 5.282793e-03 5.501030e-03 5.809847e-03 5.960120e-03 6.183505e-03 6.242000e-03 6.353201e-03 6.306010e-03 6.287684e-03 6.136049e-03 5.986564e-03 5.751682e-03 5.493266e-03 5.221994e-03 4.913814e-03 4.687249e-03 4.443333e-03 4.377456e-03 4.354689e-03 4.544770e-03 4.831689e-03 5.255477e-03 5.781584e-03 6.323322e-03 6.938077e-03 7.472304e-03 8.027772e-03 8.446713e-03 8.824479e-03 9.048108e-03 9.177477e-03 9.172528e-03 9.050341e-03 8.849470e-03 8.551907e-03 8.259333e-03 7.941315e-03 7.710254e-03 7.565873e-03 7.496784e-03 7.621073e-03 7.674035e-03 7.982562e-03 8.020662e-03 8.355262e-03 8.314955e-03 8.561515e-03 8.443297e-03 8.427902e-03 8.176797e-03 7.669969e-03 7.142882e-03 6.547188e-03 5.940974e-03 5.420940e-03 4.841618e-03 4.407345e-03 3.892077e-03 3.530724e-03 3.107842e-03 2.822684e-03 2.529824e-03 2.339170e-03 2.214587e-03 2.134809e-03 2.181552e-03 2.200307e-03 2.367184e-03 2.447071e-03 2.669854e-03 2.776722e-03 3.011423e-03 3.124266e-03 3.346463e-03 
4.427049e-03 4.675007e-03 4.760060e-03 4.957755e-03 5.027964e-03 5.170411e-03 5.224625e-03 5.308957e-03 5.346705e-03 5.371812e-03 5.393142e-03 5.359505e-03 5.364893e-03 5.274475e-03 5.264770e-03 5.120899e-03 5.097281e-03 4.904520e-03 4.868468e-03 4.632457e-03 4.585727e-03 4.313009e-03 4.257633e-03 3.955465e-03 3.893776e-03 3.569943e-03 3.504639e-03 3.167272e-03 3.101585e-03 2.759032e-03 2.697113e-03 2.358009e-03 2.305789e-03 1.979743e-03 1.946773e-03 1.646633e-03 1.649334e-03 1.396294e-03 1.460400e-03 1.287921e-03 1.439298e-03 1.377020e-03 1.618645e-03 1.663973e-03 1.977526e-03 2.105631e-03 2.472671e-03 2.659153e-03 3.065178e-03 3.289497e-03 3.719072e-03 3.960386e-03 4.393690e-03 4.628117e-03 5.040052e-03 5.240848e-03 5.602171e-03 5.742495e-03 6.022644e-03 6.080188e-03 6.251619e-03 6.214211e-03 6.258230e-03 6.129655e-03 6.044304e-03 5.850490e-03 5.662221e-03 5.458876e-03 5.239759e-03 5.118925e-03 4.999316e-03 5.072376e-03 5.200237e-03 5.524484e-03 5.950211e-03 6.470957e-03 7.106750e-03 7.705620e-03 8.399867e-03 8.951924e-03 9.547866e-03 9.939144e-03 1.030247e-02 1.044475e-02 1.049128e-02 1.034715e-02 1.007282e-02 9.676857e-03 9.177856e-03 8.646193e-03 8.126985e-03 7.667431e-03 7.400641e-03 7.187779e-03 7.305463e-03 7.288373e-03 7.705269e-03 7.689113e-03 8.137546e-03 8.017073e-03 8.391974e-03 8.229809e-03 8.365471e-03 8.172047e-03 7.667392e-03 7.082789e-03 6.521282e-03 5.835488e-03 5.381688e-03 4.734700e-03 4.369012e-03 3.808210e-03 3.511065e-03 3.087345e-03 2.870229e-03 2.646099e-03 2.531665e-03 2.539565e-03 2.528859e-03 2.723705e-03 2.785070e-03 3.080210e-03 3.177078e-03 3.504384e-03 3.612688e-03 3.932482e-03 4.039028e-03 4.329314e-03 
3.795146e-03 3.973196e-03 4.034756e-03 4.185960e-03 4.240986e-03 4.358681e-03 4.404087e-03 4.484204e-03 4.518026e-03 4.558427e-03 4.579447e-03 4.579549e-03 4.587058e-03 4.547592e-03 4.541241e-03 4.464068e-03 4.443770e-03 4.331713e-03 4.297582e-03 4.154248e-03 4.106562e-03 3.936162e-03 3.875349e-03 3.682506e-03 3.609159e-03 3.398718e-03 3.313663e-03 3.090530e-03 2.995015e-03 2.764085e-03 2.660232e-03 2.426606e-03 2.318482e-03 2.088455e-03 1.984514e-03 1.768474e-03 1.686722e-03 1.505910e-03 1.481551e-03 1.376076e-03 1.456984e-03 1.469798e-03 1.676364e-03 1.809581e-03 2.117987e-03 2.341636e-03 2.720582e-03 3.005306e-03 3.431190e-03 3.752948e-03 4.204996e-03 4.539878e-03 4.995187e-03 5.316300e-03 5.747948e-03 6.025762e-03 6.403487e-03 6.609294e-03 6.902457e-03 7.014352e-03 7.196968e-03 7.207058e-03 7.264428e-03 7.185141e-03 7.121208e-03 6.988270e-03 6.832826e-03 6.703080e-03 6.517626e-03 6.460363e-03 6.337414e-03 6.416469e-03 6.457527e-03 6.704177e-03 6.968816e-03 7.362179e-03 7.824501e-03 8.296752e-03 8.849455e-03 9.301671e-03 9.791977e-03 1.010856e-02 1.038187e-02 1.045544e-02 1.040182e-02 1.017313e-02 9.767062e-03 9.261321e-03 8.578853e-03 7.924206e-03 7.164769e-03 6.620455e-03 6.153611e-03 5.942922e-03 5.994106e-03 6.044211e-03 6.409035e-03 6.382861e-03 6.800824e-03 6.713267e-03 7.222555e-03 7.300081e-03 7.758912e-03 8.114637e-03 7.609666e-03 7.223031e-03 6.729709e-03 6.192074e-03 5.826663e-03 5.321183e-03 5.009212e-03 4.559258e-03 4.272103e-03 3.906636e-03 3.658381e-03 3.409019e-03 3.220984e-03 3.105780e-03 2.990192e-03 3.003212e-03 2.956775e-03 3.068164e-03 3.074823e-03 3.245090e-03 3.285294e-03 3.479961e-03 3.537422e-03 3.731879e-03 
4.813069e-03 5.049270e-03 5.111968e-03 5.301660e-03 5.354559e-03 5.490568e-03 5.531552e-03 5.609426e-03 5.637279e-03 5.654834e-03 5.668993e-03 5.626059e-03 5.626462e-03 5.524685e-03 5.511640e-03 5.354292e-03 5.328385e-03 5.120139e-03 5.082145e-03 4.828833e-03 4.779651e-03 4.487995e-03 4.428598e-03 4.105936e-03 4.037347e-03 3.691344e-03 3.614664e-03 3.253010e-03 3.169542e-03 2.799666e-03 2.711282e-03 2.340179e-03 2.250319e-03 1.884947e-03 1.801344e-03 1.451333e-03 1.393476e-03 1.082741e-03 1.098779e-03 8.969775e-04 1.058131e-03 1.047357e-03 1.342730e-03 1.483526e-03 1.854209e-03 2.079866e-03 2.500238e-03 2.776704e-03 3.235078e-03 3.542477e-03 4.026377e-03 4.345660e-03 4.837481e-03 5.145770e-03 5.622100e-03 5.892996e-03 6.325813e-03 6.533146e-03 6.892537e-03 7.016417e-03 7.274744e-03 7.308331e-03 7.446070e-03 7.401257e-03 7.415245e-03 7.326252e-03 7.241365e-03 7.165878e-03 7.048513e-03 7.062948e-03 7.024219e-03 7.202640e-03 7.365034e-03 7.738532e-03 8.162633e-03 8.691466e-03 9.326623e-03 9.913095e-03 1.061429e-02 1.112857e-02 1.170281e-02 1.200330e-02 1.226033e-02 1.222571e-02 1.203450e-02 1.161113e-02 1.094912e-02 1.017523e-02 9.143896e-03 8.129684e-03 6.978600e-03 6.034890e-03 5.293965e-03 4.847566e-03 4.787881e-03 4.736296e-03 5.221962e-03 5.101434e-03 5.551524e-03 5.258610e-03 5.834957e-03 5.787326e-03 6.579349e-03 7.499661e-03 7.172392e-03 6.743397e-03 6.395826e-03 5.824736e-03 5.616976e-03 5.100786e-03 4.894972e-03 4.437141e-03 4.218217e-03 3.874801e-03 3.683531e-03 3.505624e-03 3.376393e-03 3.378067e-03 3.321109e-03 3.471612e-03 3.474734e-03 3.719045e-03 3.761233e-03 4.047764e-03 4.110435e-03 4.401949e-03 4.472054e-03 4.743980e-03 
4.224094e-03 4.384015e-03 4.407204e-03 4.545864e-03 4.571220e-03 4.680012e-03 4.704015e-03 4.777216e-03 4.797287e-03 4.831513e-03 4.845657e-03 4.839481e-03 4.846036e-03 4.799682e-03 4.797154e-03 4.712229e-03 4.699182e-03 4.578412e-03 4.553408e-03 4.400351e-03 4.361919e-03 4.180676e-03 4.127297e-03 3.922214e-03 3.852330e-03 3.627694e-03 3.539748e-03 3.299501e-03 3.192052e-03 2.939550e-03 2.811583e-03 2.549522e-03 2.401246e-03 2.132128e-03 1.967159e-03 1.695552e-03 1.527545e-03 1.269371e-03 1.143924e-03 9.616500e-04 9.986176e-04 1.022632e-03 1.289924e-03 1.507459e-03 1.906289e-03 2.226271e-03 2.695426e-03 3.074532e-03 3.588843e-03 4.003106e-03 4.543752e-03 4.970107e-03 5.515661e-03 5.926422e-03 6.450593e-03 6.813779e-03 7.285990e-03 7.569997e-03 7.958406e-03 8.140467e-03 8.417706e-03 8.494394e-03 8.645729e-03 8.641310e-03 8.673442e-03 8.639967e-03 8.586994e-03 8.591502e-03 8.514406e-03 8.615957e-03 8.593839e-03 8.822274e-03 8.934319e-03 9.283702e-03 9.580964e-03 1.001669e-02 1.048767e-02 1.094932e-02 1.149439e-02 1.188550e-02 1.232415e-02 1.251023e-02 1.263668e-02 1.248122e-02 1.215043e-02 1.158316e-02 1.077539e-02 9.836497e-03 8.637186e-03 7.441842e-03 5.971922e-03 4.782173e-03 3.603113e-03 2.854305e-03 2.639235e-03 2.657449e-03 2.833737e-03 2.404784e-03 2.426589e-03 1.890257e-03 2.497763e-03 2.704358e-03 4.268962e-03 6.886535e-03 6.953444e-03 6.432045e-03 6.376415e-03 6.009159e-03 6.064202e-03 5.743101e-03 5.643819e-03 5.294671e-03 5.086331e-03 4.776477e-03 4.544723e-03 4.324642e-03 4.121062e-03 4.009294e-03 3.855543e-03 3.847128e-03 3.746224e-03 3.821040e-03 3.765727e-03 3.896884e-03 3.875880e-03 4.036949e-03 4.039082e-03 4.208000e-03 
5.290580e-03 5.517295e-03 5.555946e-03 5.739035e-03 5.772824e-03 5.902988e-03 5.929090e-03 6.000225e-03 6.016824e-03 6.025608e-03 6.031625e-03 5.977231e-03 5.972103e-03 5.855947e-03 5.839450e-03 5.664911e-03 5.637004e-03 5.409101e-03 5.369789e-03 5.094834e-03 5.044044e-03 4.729270e-03 4.666754e-03 4.319936e-03 4.245187e-03 3.874263e-03 3.786462e-03 3.399125e-03 3.297125e-03 2.900371e-03 2.782805e-03 2.382403e-03 2.248116e-03 1.848020e-03 1.697593e-03 1.299695e-03 1.141650e-03 7.502731e-04 6.389901e-04 3.602260e-04 5.682507e-04 7.326803e-04 1.110280e-03 1.415931e-03 1.842762e-03 2.197942e-03 2.670552e-03 3.058821e-03 3.573631e-03 3.985486e-03 4.532934e-03 4.954036e-03 5.517992e-03 5.926415e-03 6.484578e-03 6.852418e-03 7.377627e-03 7.676556e-03 8.138999e-03 8.348766e-03 8.719045e-03 8.836164e-03 9.089802e-03 9.132786e-03 9.258241e-03 9.267766e-03 9.280454e-03 9.316119e-03 9.275901e-03 9.408771e-03 9.426074e-03 9.719416e-03 9.926497e-03 1.040347e-02 1.088410e-02 1.150164e-02 1.221997e-02 1.286552e-02 1.364707e-02 1.415125e-02 1.472537e-02 1.489194e-02 1.498367e-02 1.465912e-02 1.410514e-02 1.327689e-02 1.209760e-02 1.090343e-02 9.235925e-03 7.709459e-03 5.633981e-03 3.832926e-03 2.327708e-03 6.682063e-04 8.667016e-05 1.333293e-03 8.835027e-04 1.383495e-03 1.307468e-03 2.115063e-03 1.891745e-03 2.348264e-03 1.185349e-03 5.720094e-03 6.724011e-03 5.021672e-03 5.361825e-03 5.222767e-03 5.654539e-03 5.427957e-03 5.468852e-03 5.147596e-03 4.996495e-03 4.727109e-03 4.536179e-03 4.393269e-03 4.235275e-03 4.236106e-03 4.134625e-03 4.259261e-03 4.211709e-03 4.422113e-03 4.415293e-03 4.671695e-03 4.691128e-03 4.960406e-03 4.994158e-03 5.251296e-03 
4.730522e-03 4.875000e-03 4.858329e-03 4.985861e-03 4.979339e-03 5.079865e-03 5.080464e-03 5.146827e-03 5.151970e-03 5.179630e-03 5.186881e-03 5.173623e-03 5.180459e-03 5.126094e-03 5.129775e-03 5.035804e-03 5.033318e-03 4.902563e-03 4.890626e-03 4.726827e-03 4.701912e-03 4.509319e-03 4.467690e-03 4.250646e-03 4.188393e-03 3.950936e-03 3.863994e-03 3.609470e-03 3.493655e-03 3.224359e-03 3.075436e-03 2.792288e-03 2.606170e-03 2.308471e-03 2.081773e-03 1.767193e-03 1.499123e-03 1.164881e-03 8.675826e-04 5.278347e-04 3.805942e-04 4.741046e-04 8.994263e-04 1.277112e-03 1.794337e-03 2.239816e-03 2.812400e-03 3.305679e-03 3.922934e-03 4.451501e-03 5.099386e-03 5.644097e-03 6.302764e-03 6.834832e-03 7.478047e-03 7.960111e-03 8.555740e-03 8.947905e-03 9.460387e-03 9.732345e-03 1.012876e-02 1.027648e-02 1.053713e-02 1.059699e-02 1.072806e-02 1.077552e-02 1.081600e-02 1.093907e-02 1.095475e-02 1.121387e-02 1.128311e-02 1.168740e-02 1.188748e-02 1.240190e-02 1.278839e-02 1.335217e-02 1.391428e-02 1.443899e-02 1.504220e-02 1.538823e-02 1.576661e-02 1.574910e-02 1.562019e-02 1.510245e-02 1.436084e-02 1.338493e-02 1.219996e-02 1.099188e-02 9.690177e-03 8.415137e-03 6.862682e-03 5.080940e-03 4.072538e-03 2.909250e-03 2.963100e-03 3.935966e-03 5.378787e-03 6.809056e-03 8.365329e-03 8.967207e-03 1.018872e-02 1.013218e-02 1.047832e-02 1.093231e-02 6.469182e-03 3.035801e-03 4.843121e-03 5.479112e-03 6.382354e-03 6.373101e-03 6.473041e-03 6.217548e-03 6.026536e-03 5.751121e-03 5.492402e-03 5.285351e-03 5.044299e-03 4.930266e-03 4.733216e-03 4.708848e-03 4.558728e-03 4.608394e-03 4.499619e-03 4.602784e-03 4.527380e-03 4.662797e-03 4.613010e-03 4.761210e-03 
5.853573e-03 6.075444e-03 6.090284e-03 6.270038e-03 6.284360e-03 6.410638e-03 6.421248e-03 6.486277e-03 6.491024e-03 6.490341e-03 6.487816e-03 6.420020e-03 6.409303e-03 6.275764e-03 6.256189e-03 6.060688e-03 6.031641e-03 5.779932e-03 5.740659e-03 5.440002e-03 5.389442e-03 5.048114e-03 4.984759e-03 4.611597e-03 4.533359e-03 4.137341e-03 4.041433e-03 3.631300e-03 3.514107e-03 3.098035e-03 2.954969e-03 2.540332e-03 2.365643e-03 1.959127e-03 1.745582e-03 1.354920e-03 1.093124e-03 7.401381e-04 4.222694e-04 3.480910e-04 4.366020e-04 8.827466e-04 1.228159e-03 1.687977e-03 2.123898e-03 2.602304e-03 3.110489e-03 3.615356e-03 4.185855e-03 4.717411e-03 5.337413e-03 5.885066e-03 6.536582e-03 7.077225e-03 7.736932e-03 8.236900e-03 8.877191e-03 9.299860e-03 9.890333e-03 1.020897e-02 1.071725e-02 1.092800e-02 1.132044e-02 1.144747e-02 1.169507e-02 1.178584e-02 1.188451e-02 1.200433e-02 1.200774e-02 1.223730e-02 1.227547e-02 1.269410e-02 1.294473e-02 1.358857e-02 1.418549e-02 1.499854e-02 1.590896e-02 1.671286e-02 1.766797e-02 1.817323e-02 1.872935e-02 1.862469e-02 1.838889e-02 1.754937e-02 1.648839e-02 1.522428e-02 1.374614e-02 1.271638e-02 1.122160e-02 1.040396e-02 8.179126e-03 6.644183e-03 5.875820e-03 5.605142e-03 7.220665e-03 8.784174e-03 1.068404e-02 9.797361e-03 9.663193e-03 7.445408e-03 7.324823e-03 5.228187e-03 5.612830e-03 4.680792e-03 4.200198e-03 4.413833e-03 5.834864e-03 5.763650e-03 6.552873e-03 6.393281e-03 6.451477e-03 6.170378e-03 5.958288e-03 5.713980e-03 5.460984e-03 5.329786e-03 5.118539e-03 5.115351e-03 4.965396e-03 5.073617e-03 4.980139e-03 5.169514e-03 5.119909e-03 5.357390e-03 5.338364e-03 5.593919e-03 5.594161e-03 5.842811e-03 
5.308822e-03 5.442307e-03 5.386157e-03 5.505522e-03 5.466399e-03 5.560494e-03 5.536802e-03 5.597259e-03 5.587171e-03 5.608435e-03 5.609532e-03 5.588745e-03 5.597817e-03 5.534564e-03 5.547564e-03 5.443494e-03 5.455615e-03 5.313962e-03 5.319792e-03 5.144839e-03 5.138531e-03 4.935065e-03 4.910496e-03 4.683282e-03 4.634163e-03 4.387479e-03 4.307417e-03 4.044663e-03 3.927190e-03 3.650592e-03 3.489184e-03 3.199639e-03 2.987798e-03 2.684992e-03 2.416521e-03 2.099863e-03 1.769934e-03 1.443011e-03 1.055106e-03 7.596473e-04 4.502769e-04 6.150296e-04 9.798524e-04 1.457742e-03 2.021900e-03 2.569588e-03 3.225491e-03 3.831665e-03 4.555087e-03 5.212563e-03 5.984285e-03 6.675669e-03 7.472846e-03 8.166087e-03 8.959855e-03 9.607330e-03 1.036149e-02 1.090563e-02 1.157684e-02 1.196652e-02 1.250921e-02 1.272762e-02 1.310825e-02 1.320198e-02 1.342131e-02 1.350397e-02 1.361103e-02 1.381569e-02 1.389348e-02 1.430210e-02 1.444423e-02 1.505949e-02 1.536290e-02 1.612855e-02 1.667302e-02 1.748811e-02 1.825082e-02 1.893901e-02 1.966997e-02 1.994222e-02 2.015057e-02 1.970138e-02 1.900937e-02 1.791852e-02 1.669386e-02 1.577693e-02 1.498614e-02 1.485360e-02 1.512350e-02 1.538044e-02 1.451015e-02 1.224951e-02 1.209276e-02 1.235397e-02 1.034996e-02 3.708883e-03 2.924884e-03 9.160697e-03 1.272311e-02 1.588277e-02 1.755737e-02 1.928094e-02 1.983440e-02 2.093640e-02 1.960994e-02 1.341691e-02 1.104882e-02 9.158112e-03 8.793709e-03 8.280601e-03 7.965310e-03 7.578797e-03 7.193542e-03 6.873882e-03 6.512218e-03 6.288430e-03 5.985397e-03 5.860752e-03 5.617141e-03 5.579871e-03 5.386257e-03 5.419349e-03 5.265575e-03 5.350512e-03 5.228337e-03 5.346560e-03 5.249995e-03 5.383845e-03 
6.499312e-03 6.723245e-03 6.716101e-03 6.897682e-03 6.893392e-03 7.019175e-03 7.014579e-03 7.075081e-03 7.068026e-03 7.057670e-03 7.046699e-03 6.963661e-03 6.947721e-03 6.793633e-03 6.771795e-03 6.551291e-03 6.522501e-03 6.242649e-03 6.205494e-03 5.875173e-03 5.827688e-03 5.456991e-03 5.396495e-03 4.996211e-03 4.919184e-03 4.500439e-03 4.402427e-03 3.976550e-03 3.852118e-03 3.430881e-03 3.273712e-03 2.870404e-03 2.673868e-03 2.306619e-03 2.066291e-03 1.768463e-03 1.493987e-03 1.345026e-03 1.114043e-03 1.259199e-03 1.259284e-03 1.670556e-03 1.918164e-03 2.432208e-03 2.844981e-03 3.411322e-03 3.946024e-03 4.560817e-03 5.193737e-03 5.857629e-03 6.568110e-03 7.271603e-03 8.035831e-03 8.751731e-03 9.541197e-03 1.022319e-02 1.100607e-02 1.159768e-02 1.234131e-02 1.279704e-02 1.346699e-02 1.377637e-02 1.432863e-02 1.452292e-02 1.489973e-02 1.503502e-02 1.519354e-02 1.534274e-02 1.532527e-02 1.559683e-02 1.557864e-02 1.610963e-02 1.636793e-02 1.725203e-02 1.802780e-02 1.919804e-02 2.045614e-02 2.157076e-02 2.281095e-02 2.325892e-02 2.363094e-02 2.283911e-02 2.183423e-02 2.009805e-02 1.881558e-02 1.810439e-02 1.854425e-02 1.974925e-02 2.082907e-02 2.186606e-02 1.767673e-02 1.463243e-02 9.631832e-03 5.380223e-03 1.831118e-02 2.712293e-02 3.115288e-02 3.192467e-02 3.226018e-02 3.144057e-02 3.122450e-02 3.059853e-02 3.018002e-02 3.074695e-02 2.523757e-02 1.759544e-02 1.381298e-02 1.107460e-02 9.798373e-03 8.855152e-03 8.166868e-03 7.657673e-03 7.142594e-03 6.831812e-03 6.440648e-03 6.290645e-03 6.006186e-03 5.994554e-03 5.796498e-03 5.896116e-03 5.764006e-03 5.944494e-03 5.860473e-03 6.091211e-03 6.040758e-03 6.293176e-03 6.264968e-03 6.513836e-03 
5.958101e-03 6.086540e-03 5.992375e-03 6.107929e-03 6.036368e-03 6.127001e-03 6.078856e-03 6.135160e-03 6.110174e-03 6.125734e-03 6.122046e-03 6.093558e-03 6.107480e-03 6.034582e-03 6.060688e-03 5.945547e-03 5.976985e-03 5.823691e-03 5.852611e-03 5.666477e-03 5.684474e-03 5.471323e-03 5.469798e-03 5.235334e-03 5.205753e-03 4.955061e-03 4.889113e-03 4.626351e-03 4.516081e-03 4.244427e-03 4.082496e-03 3.804515e-03 3.584909e-03 3.303854e-03 3.023989e-03 2.747630e-03 2.415220e-03 2.167956e-03 1.826669e-03 1.687844e-03 1.499585e-03 1.638744e-03 1.838681e-03 2.269615e-03 2.790604e-03 3.384318e-03 4.092999e-03 4.797679e-03 5.630099e-03 6.427888e-03 7.346243e-03 8.217347e-03 9.188271e-03 1.009528e-02 1.108202e-02 1.196125e-02 1.291908e-02 1.368126e-02 1.455332e-02 1.510311e-02 1.582081e-02 1.610294e-02 1.660320e-02 1.666532e-02 1.693346e-02 1.695410e-02 1.706135e-02 1.726381e-02 1.733191e-02 1.784817e-02 1.800398e-02 1.884978e-02 1.924279e-02 2.036943e-02 2.115468e-02 2.242093e-02 2.355468e-02 2.457645e-02 2.552026e-02 2.557991e-02 2.523970e-02 2.367398e-02 2.157573e-02 1.982484e-02 1.936614e-02 2.218585e-02 2.485007e-02 2.900909e-02 3.347510e-02 2.801084e-02 2.058712e-02 3.256946e-03 2.292132e-02 3.756289e-02 3.706513e-02 3.116101e-02 2.562173e-02 2.012403e-02 1.646007e-02 1.387121e-02 1.143454e-02 1.057745e-02 8.598349e-03 9.068867e-03 1.525108e-02 1.610216e-02 1.448744e-02 1.308437e-02 1.157134e-02 1.063686e-02 9.660658e-03 9.053519e-03 8.384277e-03 7.983550e-03 7.501723e-03 7.252649e-03 6.893262e-03 6.760923e-03 6.482489e-03 6.440400e-03 6.215936e-03 6.242759e-03 6.055501e-03 6.132734e-03 5.973041e-03 6.083491e-03 5.946582e-03 6.073799e-03 
7.228896e-03 7.464147e-03 7.438119e-03 7.628685e-03 7.607598e-03 7.737788e-03 7.718954e-03 7.777455e-03 7.759120e-03 7.739263e-03 7.720275e-03 7.620038e-03 7.599517e-03 7.421238e-03 7.398254e-03 7.148070e-03 7.121344e-03 6.808436e-03 6.776078e-03 6.411863e-03 6.371169e-03 5.968547e-03 5.915869e-03 5.488677e-03 5.419376e-03 4.982148e-03 4.890663e-03 4.458865e-03 4.339028e-03 3.929993e-03 3.775926e-03 3.411054e-03 3.219610e-03 2.928779e-03 2.706094e-03 2.534665e-03 2.311721e-03 2.321820e-03 2.174340e-03 2.408939e-03 2.430247e-03 2.856738e-03 3.083147e-03 3.635006e-03 4.051424e-03 4.693603e-03 5.275355e-03 6.002840e-03 6.726754e-03 7.543659e-03 8.384406e-03 9.285354e-03 1.021048e-02 1.116398e-02 1.213164e-02 1.306942e-02 1.403210e-02 1.485675e-02 1.577198e-02 1.639474e-02 1.723175e-02 1.762654e-02 1.834470e-02 1.856271e-02 1.906732e-02 1.917925e-02 1.934421e-02 1.941547e-02 1.924599e-02 1.942485e-02 1.917371e-02 1.972657e-02 1.986263e-02 2.105056e-02 2.205606e-02 2.385897e-02 2.572595e-02 2.746062e-02 2.917092e-02 2.938703e-02 2.904822e-02 2.638769e-02 2.335828e-02 2.060684e-02 2.291815e-02 2.877428e-02 3.769731e-02 4.396597e-02 3.698451e-02 2.344965e-02 6.659551e-03 4.433122e-02 4.895567e-02 3.246651e-02 1.704736e-02 7.412070e-03 1.627458e-04 4.885242e-03 8.115193e-03 9.878878e-03 1.140522e-02 1.206237e-02 1.266640e-02 1.373364e-02 1.068845e-02 1.340628e-02 1.242933e-02 1.229911e-02 1.095949e-02 1.032665e-02 9.315353e-03 8.799795e-03 8.097350e-03 7.775746e-03 7.294489e-03 7.148149e-03 6.818744e-03 6.815226e-03 6.589488e-03 6.696694e-03 6.542066e-03 6.729610e-03 6.623963e-03 6.862769e-03 6.790677e-03 7.053076e-03 7.003528e-03 7.263842e-03 