# vtk DataFile Version 2.0
Comment goes here
ASCII

DATASET STRUCTURED_POINTS
DIMENSIONS    128   128   1

ORIGIN    0.000   0.000   0.000
SPACING   0.0156250.015625   1.000

POINT_DATA   16384
SCALARS uMag double
LOOKUP_TABLE default

5.500184e-02 4.762192e-02 4.400967e-02 3.706043e-02 3.331268e-02 2.685751e-02 2.305879e-02 1.715050e-02 1.337381e-02 8.051320e-03 4.356195e-03 3.591144e-04 3.929349e-03 8.037343e-03 1.145850e-02 1.498480e-02 1.825593e-02 2.125573e-02 2.440314e-02 2.696549e-02 3.004707e-02 3.229857e-02 3.540801e-02 3.751603e-02 4.078657e-02 4.296147e-02 4.656869e-02 4.906458e-02 5.322745e-02 5.634052e-02 6.131968e-02 6.538311e-02 7.147520e-02 7.684928e-02 8.437562e-02 9.143165e-02 1.007201e-01 1.098169e-01 1.211756e-01 1.326282e-01 1.463112e-01 1.603513e-01 1.765169e-01 1.932484e-01 2.119133e-01 2.312655e-01 2.522592e-01 2.739443e-01 2.968721e-01 3.203548e-01 3.445761e-01 3.690639e-01 3.936964e-01 4.181570e-01 4.421103e-01 4.653204e-01 4.873600e-01 5.079809e-01 5.268155e-01 5.434848e-01 5.578623e-01 5.692863e-01 5.780823e-01 5.831140e-01 5.854024e-01 5.830991e-01 5.782037e-01 5.678708e-01 5.554115e-01 5.366509e-01 5.166030e-01 4.893890e-01 4.621710e-01 4.269659e-01 3.935542e-01 3.514535e-01 3.134895e-01 2.663477e-01 2.261708e-01 1.766224e-01 1.371425e-01 8.842157e-02 5.276605e-02 8.272156e-03 2.078935e-02 5.815084e-02 7.886273e-02 1.073688e-01 1.195671e-01 1.391452e-01 1.443763e-01 1.565053e-01 1.574845e-01 1.643804e-01 1.638610e-01 1.673881e-01 1.671904e-01 1.682652e-01 1.691246e-01 1.677777e-01 1.695784e-01 1.656126e-01 1.678304e-01 1.613842e-01 1.635519e-01 1.552887e-01 1.572734e-01 1.481364e-01 1.499773e-01 1.406905e-01 1.423350e-01 1.332290e-01 1.345069e-01 1.256345e-01 1.263559e-01 1.176600e-01 1.176934e-01 1.091122e-01 1.084088e-01 9.991660e-02 9.849870e-02 9.011035e-02 8.804830e-02 7.980920e-02 7.719970e-02 6.917385e-02 6.612410e-02 5.838414e-02 
6.981515e-02 6.308982e-02 5.935706e-02 5.283706e-02 4.901037e-02 4.275269e-02 3.891857e-02 3.297699e-02 2.921179e-02 2.363856e-02 2.001160e-02 1.487413e-02 1.147472e-02 7.011451e-03 4.367433e-03 3.889468e-03 5.912377e-03 9.681230e-03 1.247000e-02 1.628897e-02 1.909508e-02 2.280278e-02 2.565020e-02 2.935109e-02 3.236181e-02 3.623095e-02 3.958190e-02 4.384551e-02 4.776144e-02 5.269125e-02 5.744028e-02 6.334705e-02 6.923325e-02 7.645590e-02 8.380658e-02 9.269515e-02 1.018416e-01 1.127331e-01 1.239838e-01 1.371700e-01 1.507759e-01 1.664643e-01 1.825776e-01 2.008466e-01 2.194748e-01 2.402279e-01 2.611899e-01 2.841142e-01 3.070037e-01 3.315414e-01 3.557077e-01 3.810492e-01 4.056022e-01 4.307075e-01 4.545541e-01 4.782043e-01 5.001152e-01 5.209917e-01 5.396900e-01 5.564682e-01 5.707267e-01 5.821655e-01 5.908939e-01 5.959075e-01 5.982178e-01 5.959215e-01 5.911707e-01 5.809099e-01 5.687351e-01 5.501213e-01 5.304898e-01 5.034713e-01 4.767667e-01 4.417530e-01 4.088971e-01 3.669310e-01 3.295128e-01 2.824502e-01 2.428041e-01 1.934633e-01 1.546965e-01 1.072444e-01 7.400256e-02 4.052720e-02 3.603420e-02 5.937455e-02 7.744282e-02 1.045198e-01 1.165485e-01 1.360015e-01 1.412430e-01 1.535901e-01 1.542938e-01 1.616140e-01 1.605486e-01 1.647457e-01 1.639379e-01 1.659515e-01 1.662458e-01 1.661024e-01 1.673940e-01 1.648614e-01 1.665979e-01 1.617573e-01 1.634503e-01 1.569087e-01 1.584390e-01 1.511163e-01 1.525408e-01 1.451222e-01 1.463843e-01 1.391503e-01 1.400676e-01 1.330275e-01 1.334029e-01 1.264673e-01 1.261691e-01 1.192515e-01 1.182343e-01 1.112875e-01 1.095786e-01 1.025965e-01 1.002707e-01 9.327793e-02 9.043604e-02 8.347669e-02 8.022927e-02 7.335764e-02 
5.587695e-02 4.873967e-02 4.521269e-02 3.854146e-02 3.489736e-02 2.880489e-02 2.517744e-02 1.984623e-02 1.646864e-02 1.237996e-02 9.993768e-03 8.755453e-03 9.222112e-03 1.140384e-02 1.381816e-02 1.675022e-02 1.961645e-02 2.236714e-02 2.531196e-02 2.774274e-02 3.070671e-02 3.287356e-02 3.590432e-02 3.794662e-02 4.115588e-02 4.327211e-02 4.682552e-02 4.926616e-02 5.337971e-02 5.644218e-02 6.137767e-02 6.539840e-02 7.145476e-02 7.679638e-02 8.429564e-02 9.132861e-02 1.005958e-01 1.096743e-01 1.210114e-01 1.324428e-01 1.460950e-01 1.601027e-01 1.762194e-01 1.928997e-01 2.114897e-01 2.307666e-01 2.516543e-01 2.732380e-01 2.960267e-01 3.193831e-01 3.434344e-01 3.677759e-01 3.922138e-01 4.165170e-01 4.402621e-01 4.633177e-01 4.851528e-01 5.056425e-01 5.243015e-01 5.408915e-01 5.551568e-01 5.665914e-01 5.753834e-01 5.805627e-01 5.830089e-01 5.810431e-01 5.765273e-01 5.667757e-01 5.549803e-01 5.370942e-01 5.180556e-01 4.920498e-01 4.662456e-01 4.326198e-01 4.010893e-01 3.610058e-01 3.254861e-01 2.810051e-01 2.440688e-01 1.985333e-01 1.638779e-01 1.232213e-01 9.729300e-02 7.607804e-02 7.182355e-02 8.436272e-02 9.441984e-02 1.156861e-01 1.235501e-01 1.403450e-01 1.432596e-01 1.540597e-01 1.536894e-01 1.599350e-01 1.587284e-01 1.620402e-01 1.615934e-01 1.627425e-01 1.636676e-01 1.624319e-01 1.645158e-01 1.605469e-01 1.631583e-01 1.565942e-01 1.591517e-01 1.507662e-01 1.531274e-01 1.440202e-01 1.462569e-01 1.371669e-01 1.392032e-01 1.303865e-01 1.320130e-01 1.234534e-01 1.244622e-01 1.160678e-01 1.163312e-01 1.080309e-01 1.075123e-01 9.928166e-02 9.801563e-02 8.987348e-02 8.793908e-02 7.993518e-02 7.743488e-02 6.963811e-02 6.668342e-02 5.917339e-02 
7.145395e-02 6.510404e-02 6.141254e-02 5.525316e-02 5.143110e-02 4.553651e-02 4.168054e-02 3.613652e-02 3.234545e-02 2.726911e-02 2.366598e-02 1.927339e-02 1.609242e-02 1.294512e-02 1.086999e-02 1.033871e-02 1.055907e-02 1.283647e-02 1.466861e-02 1.791396e-02 2.029097e-02 2.373588e-02 2.635111e-02 2.988843e-02 3.274216e-02 3.647466e-02 3.969635e-02 4.382502e-02 4.762401e-02 5.241591e-02 5.706093e-02 6.283174e-02 6.863383e-02 7.572974e-02 8.302202e-02 9.179745e-02 1.009109e-01 1.117016e-01 1.229368e-01 1.360281e-01 1.496216e-01 1.652106e-01 1.812969e-01 1.994505e-01 2.180195e-01 2.386302e-01 2.594854e-01 2.822315e-01 3.049555e-01 3.292746e-01 3.532115e-01 3.782942e-01 4.025564e-01 4.273702e-01 4.508777e-01 4.742226e-01 4.957733e-01 5.163665e-01 5.347306e-01 5.513049e-01 5.653272e-01 5.767255e-01 5.854142e-01 5.906591e-01 5.932476e-01 5.915771e-01 5.875561e-01 5.784354e-01 5.675714e-01 5.507066e-01 5.330744e-01 5.084641e-01 4.845198e-01 4.525767e-01 4.232785e-01 3.850389e-01 3.519976e-01 3.094270e-01 2.750575e-01 2.315145e-01 1.992506e-01 1.604839e-01 1.354366e-01 1.117707e-01 1.010471e-01 1.022774e-01 1.047490e-01 1.195729e-01 1.238399e-01 1.381172e-01 1.390386e-01 1.488609e-01 1.468437e-01 1.528517e-01 1.502076e-01 1.539490e-01 1.525210e-01 1.546590e-01 1.550523e-01 1.551300e-01 1.570133e-01 1.545110e-01 1.570836e-01 1.520748e-01 1.545809e-01 1.478499e-01 1.501522e-01 1.429535e-01 1.451839e-01 1.382204e-01 1.402702e-01 1.336627e-01 1.352698e-01 1.288912e-01 1.298268e-01 1.235234e-01 1.236663e-01 1.173345e-01 1.166647e-01 1.102585e-01 1.088255e-01 1.023435e-01 1.002371e-01 9.370787e-02 9.103678e-02 8.450739e-02 8.138572e-02 7.491399e-02 
5.842740e-02 5.195178e-02 4.864930e-02 4.268788e-02 3.928246e-02 3.400731e-02 3.069082e-02 2.636557e-02 2.345051e-02 2.051383e-02 1.855081e-02 1.755901e-02 1.717886e-02 1.811232e-02 1.925238e-02 2.120749e-02 2.323041e-02 2.542147e-02 2.785701e-02 2.995241e-02 3.259480e-02 3.453118e-02 3.733691e-02 3.919191e-02 4.222063e-02 4.416344e-02 4.755462e-02 4.982730e-02 5.378970e-02 5.669548e-02 6.149642e-02 6.538436e-02 7.133279e-02 7.657577e-02 8.399901e-02 9.096758e-02 1.001848e-01 1.092202e-01 1.205150e-01 1.319014e-01 1.454919e-01 1.594250e-01 1.754301e-01 1.919799e-01 2.103806e-01 2.294510e-01 2.500508e-01 2.713405e-01 2.937320e-01 3.167066e-01 3.402532e-01 3.641367e-01 3.879780e-01 4.117728e-01 4.348623e-01 4.574016e-01 4.785752e-01 4.986045e-01 5.166746e-01 5.329503e-01 5.468075e-01 5.581928e-01 5.668960e-01 5.724368e-01 5.752785e-01 5.742480e-01 5.707936e-01 5.627157e-01 5.528335e-01 5.375048e-01 5.214066e-01 4.989459e-01 4.772526e-01 4.482050e-01 4.220356e-01 3.875583e-01 3.586140e-01 3.207654e-01 2.913650e-01 2.535178e-01 2.265507e-01 1.939052e-01 1.726411e-01 1.520663e-01 1.391323e-01 1.349029e-01 1.292810e-01 1.363051e-01 1.332735e-01 1.425320e-01 1.388287e-01 1.458123e-01 1.415668e-01 1.460047e-01 1.429572e-01 1.457272e-01 1.445884e-01 1.461122e-01 1.471948e-01 1.463259e-01 1.492458e-01 1.452045e-01 1.490758e-01 1.420884e-01 1.458933e-01 1.370977e-01 1.406445e-01 1.316934e-01 1.351767e-01 1.267654e-01 1.300056e-01 1.221020e-01 1.247650e-01 1.171464e-01 1.189896e-01 1.114830e-01 1.124070e-01 1.049279e-01 1.049409e-01 9.747439e-02 9.664770e-02 8.922448e-02 8.766155e-02 8.034179e-02 7.815964e-02 7.102279e-02 6.834274e-02 6.148250e-02 
7.467219e-02 6.900577e-02 6.539345e-02 5.986421e-02 5.604435e-02 5.074366e-02 4.682516e-02 4.186568e-02 3.797034e-02 3.350684e-02 2.979419e-02 2.607196e-02 2.280159e-02 2.024930e-02 1.789768e-02 1.713645e-02 1.631897e-02 1.754837e-02 1.828562e-02 2.077084e-02 2.245981e-02 2.546403e-02 2.765739e-02 3.089303e-02 3.344573e-02 3.691327e-02 3.987866e-02 4.373739e-02 4.729862e-02 5.181003e-02 5.624103e-02 6.173511e-02 6.736643e-02 7.420915e-02 8.139138e-02 8.995026e-02 9.901783e-02 1.096284e-01 1.208670e-01 1.338005e-01 1.474166e-01 1.628463e-01 1.789348e-01 1.968990e-01 2.154074e-01 2.357700e-01 2.564626e-01 2.788770e-01 3.013054e-01 3.251912e-01 3.486803e-01 3.732212e-01 3.968814e-01 4.210553e-01 4.438279e-01 4.664705e-01 4.872073e-01 5.071078e-01 5.246767e-01 5.406890e-01 5.540859e-01 5.652307e-01 5.736726e-01 5.792033e-01 5.821804e-01 5.815977e-01 5.788809e-01 5.719046e-01 5.635254e-01 5.500538e-01 5.362895e-01 5.163915e-01 4.977833e-01 4.717664e-01 4.491751e-01 4.177672e-01 3.924317e-01 3.570890e-01 3.306219e-01 2.939352e-01 2.682187e-01 2.342966e-01 2.113440e-01 1.857089e-01 1.675110e-01 1.550017e-01 1.426879e-01 1.425135e-01 1.345305e-01 1.397903e-01 1.327666e-01 1.379648e-01 1.307690e-01 1.343838e-01 1.287593e-01 1.318000e-01 1.292090e-01 1.318608e-01 1.323719e-01 1.329240e-01 1.359772e-01 1.334066e-01 1.378388e-01 1.324084e-01 1.367049e-01 1.295246e-01 1.334767e-01 1.266881e-01 1.306436e-01 1.247780e-01 1.284477e-01 1.231813e-01 1.261375e-01 1.210854e-01 1.230787e-01 1.180063e-01 1.189708e-01 1.137693e-01 1.137482e-01 1.083834e-01 1.074720e-01 1.019521e-01 1.002661e-01 9.462466e-02 9.228467e-02 8.657120e-02 8.369536e-02 7.797060e-02 
6.246618e-02 5.691145e-02 5.392670e-02 4.885749e-02 4.572989e-02 4.131953e-02 3.825188e-02 3.471873e-02 3.198942e-02 2.959069e-02 2.756661e-02 2.651036e-02 2.554813e-02 2.578742e-02 2.599571e-02 2.714065e-02 2.830469e-02 2.986866e-02 3.166665e-02 3.331633e-02 3.550666e-02 3.710383e-02 3.956992e-02 4.112935e-02 4.387065e-02 4.552521e-02 4.864613e-02 5.062877e-02 5.433040e-02 5.695954e-02 6.152487e-02 6.517954e-02 7.094416e-02 7.602533e-02 8.333616e-02 9.022350e-02 9.939770e-02 1.084147e-01 1.197078e-01 1.310977e-01 1.446789e-01 1.585834e-01 1.745115e-01 1.909446e-01 2.091397e-01 2.279554e-01 2.481683e-01 2.690290e-01 2.908159e-01 3.131695e-01 3.358796e-01 3.589568e-01 3.817452e-01 4.045848e-01 4.264560e-01 4.479639e-01 4.678484e-01 4.868870e-01 5.037422e-01 5.192347e-01 5.321510e-01 5.431797e-01 5.514670e-01 5.573396e-01 5.605795e-01 5.608555e-01 5.589226e-01 5.534076e-01 5.464771e-01 5.352067e-01 5.237613e-01 5.069860e-01 4.918086e-01 4.699957e-01 4.521097e-01 4.259910e-01 4.064902e-01 3.771961e-01 3.569434e-01 3.262334e-01 3.055571e-01 2.760415e-01 2.547765e-01 2.298159e-01 2.080246e-01 1.908195e-01 1.698476e-01 1.615489e-01 1.436990e-01 1.419764e-01 1.280467e-01 1.291751e-01 1.190587e-01 1.210285e-01 1.158693e-01 1.179759e-01 1.157217e-01 1.184638e-01 1.194316e-01 1.192057e-01 1.232993e-01 1.188138e-01 1.250712e-01 1.171520e-01 1.233813e-01 1.138255e-01 1.195937e-01 1.112676e-01 1.170684e-01 1.101256e-01 1.154516e-01 1.091913e-01 1.135180e-01 1.074449e-01 1.105644e-01 1.044645e-01 1.063847e-01 1.001982e-01 1.010202e-01 9.475809e-02 9.461286e-02 8.832167e-02 8.734516e-02 8.109361e-02 7.941873e-02 7.329257e-02 7.104878e-02 6.514921e-02 
7.938408e-02 7.460810e-02 7.111792e-02 6.636693e-02 6.255137e-02 5.792497e-02 5.390219e-02 4.952381e-02 4.543175e-02 4.146245e-02 3.747837e-02 3.414122e-02 3.051814e-02 2.812847e-02 2.524252e-02 2.418304e-02 2.249144e-02 2.297275e-02 2.269884e-02 2.444424e-02 2.533384e-02 2.780314e-02 2.943838e-02 3.226406e-02 3.439078e-02 3.747401e-02 4.005822e-02 4.350780e-02 4.670002e-02 5.077530e-02 5.486547e-02 5.992856e-02 6.529098e-02 7.175194e-02 7.877959e-02 8.703800e-02 9.608196e-02 1.064786e-01 1.178060e-01 1.305896e-01 1.443573e-01 1.596577e-01 1.758908e-01 1.936906e-01 2.122573e-01 2.323600e-01 2.529453e-01 2.749457e-01 2.970299e-01 3.202977e-01 3.431525e-01 3.668400e-01 3.895512e-01 4.126344e-01 4.341613e-01 4.555216e-01 4.747937e-01 4.933320e-01 5.093736e-01 5.241419e-01 5.361991e-01 5.465144e-01 5.541511e-01 5.596544e-01 5.627857e-01 5.634183e-01 5.622721e-01 5.581745e-01 5.531981e-01 5.445689e-01 5.363182e-01 5.232775e-01 5.123122e-01 4.948215e-01 4.816020e-01 4.595123e-01 4.442656e-01 4.175733e-01 4.001281e-01 3.694608e-01 3.491950e-01 3.164110e-01 2.926516e-01 2.612053e-01 2.343436e-01 2.088056e-01 1.816805e-01 1.657156e-01 1.429514e-01 1.363285e-01 1.188869e-01 1.184367e-01 1.042555e-01 1.048199e-01 9.522066e-02 9.768401e-02 9.346508e-02 9.763653e-02 9.765953e-02 9.880809e-02 1.032667e-01 9.999052e-02 1.077500e-01 1.015519e-01 1.091403e-01 1.012576e-01 1.080832e-01 1.026170e-01 1.095339e-01 1.058360e-01 1.120107e-01 1.088917e-01 1.137319e-01 1.106020e-01 1.139907e-01 1.106437e-01 1.126805e-01 1.090576e-01 1.098987e-01 1.059932e-01 1.057950e-01 1.016239e-01 1.005290e-01 9.612527e-02 9.426211e-02 8.967209e-02 8.715776e-02 8.243977e-02 
6.777936e-02 6.325107e-02 6.065102e-02 5.648119e-02 5.363600e-02 4.997245e-02 4.707336e-02 4.408008e-02 4.136752e-02 3.920817e-02 3.696943e-02 3.576057e-02 3.428105e-02 3.401435e-02 3.347152e-02 3.396586e-02 3.434424e-02 3.530687e-02 3.643400e-02 3.758982e-02 3.925281e-02 4.043265e-02 4.247234e-02 4.363823e-02 4.599564e-02 4.724113e-02 4.997889e-02 5.152792e-02 5.483992e-02 5.703984e-02 6.124157e-02 6.453158e-02 7.001696e-02 7.486282e-02 8.203143e-02 8.884759e-02 9.803269e-02 1.071280e-01 1.185529e-01 1.301105e-01 1.438712e-01 1.579437e-01 1.739987e-01 1.904980e-01 2.086547e-01 2.273327e-01 2.472306e-01 2.676588e-01 2.887583e-01 3.103177e-01 3.319050e-01 3.537978e-01 3.750146e-01 3.963072e-01 4.162135e-01 4.359124e-01 4.535809e-01 4.707358e-01 4.853640e-01 4.991786e-01 5.101923e-01 5.201124e-01 5.272303e-01 5.329822e-01 5.362297e-01 5.378043e-01 5.374976e-01 5.351038e-01 5.318319e-01 5.258311e-01 5.204196e-01 5.112003e-01 5.045728e-01 4.923240e-01 4.851611e-01 4.696185e-01 4.618049e-01 4.422162e-01 4.323067e-01 4.079043e-01 3.931235e-01 3.641066e-01 3.413834e-01 3.098368e-01 2.778843e-01 2.477145e-01 2.094404e-01 1.849473e-01 1.484821e-01 1.327946e-01 1.058980e-01 1.001242e-01 8.341330e-02 8.340665e-02 7.851848e-02 7.949335e-02 7.495303e-02 8.108821e-02 8.006602e-02 8.044565e-02 8.495740e-02 7.866362e-02 8.886567e-02 7.910348e-02 9.000249e-02 7.978653e-02 8.959883e-02 8.353075e-02 9.326501e-02 8.906193e-02 9.735070e-02 9.341525e-02 9.979513e-02 9.567886e-02 1.002806e-01 9.592858e-02 9.901098e-02 9.445060e-02 9.625128e-02 9.152363e-02 9.223705e-02 8.739192e-02 8.717827e-02 8.227851e-02 8.127616e-02 7.640011e-02 7.473638e-02 6.997860e-02 
8.553604e-02 8.176715e-02 7.845910e-02 7.454472e-02 7.075529e-02 6.679677e-02 6.264875e-02 5.877332e-02 5.441603e-02 5.078550e-02 4.640975e-02 4.323309e-02 3.909408e-02 3.663920e-02 3.308191e-02 3.165787e-02 2.909713e-02 2.893573e-02 2.768647e-02 2.872920e-02 2.875835e-02 3.063882e-02 3.161336e-02 3.394175e-02 3.553306e-02 3.811792e-02 4.019482e-02 4.308357e-02 4.575361e-02 4.920686e-02 5.279128e-02 5.723271e-02 6.219299e-02 6.812333e-02 7.494556e-02 8.283614e-02 9.191912e-02 1.021312e-01 1.137245e-01 1.264740e-01 1.406618e-01 1.560072e-01 1.727049e-01 1.905330e-01 2.094768e-01 2.294798e-01 2.502117e-01 2.718655e-01 2.937235e-01 3.162826e-01 3.384126e-01 3.609352e-01 3.823374e-01 4.037537e-01 4.233719e-01 4.425986e-01 4.594525e-01 4.755439e-01 4.888873e-01 5.011974e-01 5.106663e-01 5.189785e-01 5.246821e-01 5.292497e-01 5.317631e-01 5.332155e-01 5.334549e-01 5.325711e-01 5.315691e-01 5.289672e-01 5.276010e-01 5.233946e-01 5.221022e-01 5.155844e-01 5.140706e-01 5.035856e-01 5.005284e-01 4.837845e-01 4.766556e-01 4.516359e-01 4.369485e-01 4.032760e-01 3.777595e-01 3.379633e-01 3.008788e-01 2.605696e-01 2.164439e-01 1.823978e-01 1.425010e-01 1.202401e-01 9.235318e-02 8.865561e-02 6.785571e-02 6.411685e-02 4.967812e-02 5.271033e-02 4.639176e-02 5.396845e-02 5.028584e-02 5.133102e-02 5.584912e-02 4.940496e-02 6.242873e-02 5.492176e-02 6.897476e-02 6.160682e-02 7.379178e-02 7.249017e-02 8.428649e-02 8.419646e-02 9.354532e-02 9.309871e-02 9.994903e-02 9.901613e-02 1.038221e-01 1.024618e-01 1.056232e-01 1.038639e-01 1.056655e-01 1.035123e-01 1.041559e-01 1.016140e-01 1.012498e-01 9.833656e-02 9.708516e-02 9.383320e-02 9.179873e-02 8.825635e-02 
7.422383e-02 7.073133e-02 6.858926e-02 6.525978e-02 6.272083e-02 5.968003e-02 5.691951e-02 5.430261e-02 5.153839e-02 4.947807e-02 4.696904e-02 4.557007e-02 4.358983e-02 4.288902e-02 4.166392e-02 4.159302e-02 4.122563e-02 4.161415e-02 4.205137e-02 4.268468e-02 4.376429e-02 4.446244e-02 4.600255e-02 4.667985e-02 4.856187e-02 4.926445e-02 5.149578e-02 5.243134e-02 5.519134e-02 5.674834e-02 6.040417e-02 6.312781e-02 6.818500e-02 7.267539e-02 7.965224e-02 8.641564e-02 9.570529e-02 1.050529e-01 1.168528e-01 1.288878e-01 1.431957e-01 1.578383e-01 1.744644e-01 1.914648e-01 2.100345e-01 2.289653e-01 2.489160e-01 2.691640e-01 2.897528e-01 3.105276e-01 3.308650e-01 3.512425e-01 3.703632e-01 3.893722e-01 4.063477e-01 4.230953e-01 4.371790e-01 4.509938e-01 4.617657e-01 4.723185e-01 4.797746e-01 4.871263e-01 4.916652e-01 4.962123e-01 4.985288e-01 5.008775e-01 5.018575e-01 5.027153e-01 5.034078e-01 5.035105e-01 5.051006e-01 5.049827e-01 5.085203e-01 5.079382e-01 5.136352e-01 5.108472e-01 5.170762e-01 5.086765e-01 5.112702e-01 4.932682e-01 4.858832e-01 4.559513e-01 4.319741e-01 3.917446e-01 3.477030e-01 3.032019e-01 2.426730e-01 2.007662e-01 1.389444e-01 1.054985e-01 6.485710e-02 5.522881e-02 4.051851e-02 3.884352e-02 4.023024e-02 3.799392e-02 2.493189e-02 3.776564e-02 2.987010e-02 2.982608e-02 2.895938e-02 1.951851e-02 3.220025e-02 1.678764e-02 3.854938e-02 3.392180e-02 5.325149e-02 5.366554e-02 6.938716e-02 6.858998e-02 7.984153e-02 7.800115e-02 8.609791e-02 8.376876e-02 8.963537e-02 8.704083e-02 9.122300e-02 8.841613e-02 9.124258e-02 8.822785e-02 8.991088e-02 8.669649e-02 8.738708e-02 8.400227e-02 8.382058e-02 8.031847e-02 7.937196e-02 7.582757e-02 
9.317939e-02 9.047881e-02 8.744315e-02 8.438281e-02 8.067383e-02 7.735236e-02 7.309099e-02 6.963755e-02 6.498060e-02 6.156125e-02 5.671357e-02 5.353868e-02 4.876906e-02 4.609864e-02 4.175638e-02 3.988787e-02 3.639332e-02 3.559055e-02 3.332873e-02 3.366331e-02 3.276050e-02 3.400045e-02 3.422124e-02 3.597423e-02 3.693259e-02 3.890818e-02 4.035173e-02 4.250907e-02 4.447162e-02 4.706247e-02 4.990476e-02 5.345413e-02 5.779611e-02 6.298321e-02 6.950554e-02 7.695656e-02 8.617086e-02 9.629852e-02 1.084421e-01 1.214133e-01 1.364654e-01 1.522282e-01 1.699457e-01 1.882392e-01 2.081628e-01 2.285002e-01 2.499435e-01 2.715915e-01 2.936396e-01 3.156224e-01 3.371639e-01 3.583166e-01 3.781307e-01 3.972197e-01 4.141292e-01 4.300402e-01 4.431240e-01 4.550918e-01 4.639184e-01 4.717492e-01 4.765625e-01 4.807798e-01 4.825624e-01 4.843986e-01 4.847636e-01 4.859238e-01 4.868153e-01 4.890046e-01 4.922119e-01 4.965506e-01 5.031965e-01 5.096422e-01 5.197819e-01 5.266133e-01 5.389130e-01 5.424631e-01 5.538438e-01 5.489118e-01 5.542781e-01 5.355590e-01 5.280543e-01 4.924122e-01 4.651743e-01 4.141785e-01 3.645445e-01 3.059055e-01 2.401766e-01 1.836633e-01 1.237996e-01 7.576412e-02 5.056206e-02 5.610602e-02 4.220501e-02 2.480124e-02 1.736677e-02 1.484254e-02 2.040778e-03 2.149663e-02 1.116562e-02 2.395284e-02 2.009742e-02 2.904843e-02 1.806281e-02 3.322224e-02 2.960146e-03 1.247809e-02 4.018763e-02 4.700323e-02 6.429925e-02 6.680876e-02 7.816693e-02 7.940797e-02 8.740947e-02 8.824590e-02 9.403153e-02 9.457819e-02 9.870095e-02 9.888894e-02 1.016450e-01 1.013910e-01 1.029554e-01 1.022042e-01 1.026922e-01 1.014215e-01 1.009188e-01 9.913489e-02 9.771441e-02 9.544669e-02 
8.182103e-02 7.933653e-02 7.775617e-02 7.520876e-02 7.304139e-02 7.054191e-02 6.794430e-02 6.561670e-02 6.279289e-02 6.076600e-02 5.796808e-02 5.635942e-02 5.387177e-02 5.276065e-02 5.085684e-02 5.025122e-02 4.912514e-02 4.894077e-02 4.864360e-02 4.871931e-02 4.915072e-02 4.930279e-02 5.027099e-02 5.036347e-02 5.168300e-02 5.169567e-02 5.329079e-02 5.338880e-02 5.539391e-02 5.600027e-02 5.883915e-02 6.066037e-02 6.502800e-02 6.892384e-02 7.558358e-02 8.227223e-02 9.176765e-02 1.016019e-01 1.141219e-01 1.270966e-01 1.425132e-01 1.583643e-01 1.762907e-01 1.945428e-01 2.143492e-01 2.343086e-01 2.551196e-01 2.758611e-01 2.965724e-01 3.169614e-01 3.363062e-01 3.550873e-01 3.717743e-01 3.877438e-01 4.006791e-01 4.129359e-01 4.215087e-01 4.297291e-01 4.340827e-01 4.387097e-01 4.398438e-01 4.420525e-01 4.416068e-01 4.429738e-01 4.427409e-01 4.447640e-01 4.463007e-01 4.501497e-01 4.547969e-01 4.614406e-01 4.705622e-01 4.806677e-01 4.954415e-01 5.083910e-01 5.287487e-01 5.411380e-01 5.641321e-01 5.692160e-01 5.878875e-01 5.773222e-01 5.810268e-01 5.487738e-01 5.254310e-01 4.724662e-01 4.138222e-01 3.516345e-01 2.591883e-01 2.017899e-01 9.547844e-02 4.320064e-02 1.476194e-02 4.552783e-02 5.623067e-02 6.719867e-02 2.814467e-02 2.843326e-02 1.977244e-02 2.598263e-02 2.048184e-02 2.395703e-02 1.938668e-02 2.173516e-02 1.794810e-02 2.161063e-02 3.586538e-02 3.703462e-02 5.180453e-02 4.846246e-02 6.175213e-02 5.859389e-02 6.914200e-02 6.691857e-02 7.515940e-02 7.364188e-02 8.010373e-02 7.892257e-02 8.395397e-02 8.281573e-02 8.662686e-02 8.534096e-02 8.806151e-02 8.652492e-02 8.824313e-02 8.641934e-02 8.720507e-02 8.510583e-02 8.502473e-02 8.269657e-02 
1.025503e-01 1.009617e-01 9.832960e-02 9.613866e-02 9.260390e-02 8.989942e-02 8.557168e-02 8.248135e-02 7.751973e-02 7.421604e-02 6.883983e-02 6.554496e-02 6.004541e-02 5.703321e-02 5.178518e-02 4.937107e-02 4.482859e-02 4.332003e-02 3.994360e-02 3.951304e-02 3.757115e-02 3.810100e-02 3.746933e-02 3.857319e-02 3.881847e-02 4.008751e-02 4.079207e-02 4.204048e-02 4.308820e-02 4.450452e-02 4.625833e-02 4.849417e-02 5.182883e-02 5.590339e-02 6.190606e-02 6.878853e-02 7.822364e-02 8.843479e-02 1.015199e-01 1.151303e-01 1.316783e-01 1.484640e-01 1.680168e-01 1.875154e-01 2.093598e-01 2.308385e-01 2.539732e-01 2.763829e-01 2.995010e-01 3.214697e-01 3.430000e-01 3.629119e-01 3.811577e-01 3.973569e-01 4.107627e-01 4.218912e-01 4.294301e-01 4.348466e-01 4.364493e-01 4.366060e-01 4.334643e-01 4.300955e-01 4.246684e-01 4.206758e-01 4.163420e-01 4.152384e-01 4.155899e-01 4.204095e-01 4.280795e-01 4.402332e-01 4.560254e-01 4.747753e-01 4.977549e-01 5.200578e-01 5.478324e-01 5.679115e-01 5.960352e-01 6.054022e-01 6.264242e-01 6.156641e-01 6.185729e-01 5.804448e-01 5.520444e-01 4.852664e-01 4.181713e-01 3.335067e-01 2.363747e-01 1.522799e-01 6.561011e-02 6.184932e-02 1.274318e-01 9.062607e-02 8.200837e-02 1.077270e-01 6.214612e-02 1.679994e-02 2.187936e-02 1.485424e-02 2.259651e-02 3.896211e-02 4.504487e-02 5.126610e-02 5.637726e-02 6.402513e-02 6.533069e-02 6.203874e-02 6.541741e-02 5.636846e-02 6.470787e-02 6.146746e-02 7.014593e-02 7.037134e-02 7.782135e-02 7.954485e-02 8.563839e-02 8.781443e-02 9.265330e-02 9.472596e-02 9.839635e-02 1.000622e-01 1.026159e-01 1.037110e-01 1.051790e-01 1.056209e-01 1.060243e-01 1.057800e-01 1.051390e-01 1.042087e-01 
9.084873e-02 8.934753e-02 8.847474e-02 8.668045e-02 8.499539e-02 8.300357e-02 8.063778e-02 7.856525e-02 7.570967e-02 7.368893e-02 7.059708e-02 6.876432e-02 6.574210e-02 6.421572e-02 6.158811e-02 6.043712e-02 5.848509e-02 5.769607e-02 5.657648e-02 5.603951e-02 5.573061e-02 5.526409e-02 5.558110e-02 5.499439e-02 5.567802e-02 5.485601e-02 5.570429e-02 5.471384e-02 5.574358e-02 5.498214e-02 5.662098e-02 5.697938e-02 6.019086e-02 6.299740e-02 6.903272e-02 7.548715e-02 8.523426e-02 9.580893e-02 1.094637e-01 1.239716e-01 1.412270e-01 1.591442e-01 1.793714e-01 1.999459e-01 2.222096e-01 2.444166e-01 2.674328e-01 2.899123e-01 3.120393e-01 3.330945e-01 3.524055e-01 3.701189e-01 3.846082e-01 3.971297e-01 4.051004e-01 4.111331e-01 4.117808e-01 4.112025e-01 4.052853e-01 3.996755e-01 3.899073e-01 3.825545e-01 3.731073e-01 3.680475e-01 3.629285e-01 3.632036e-01 3.647123e-01 3.714423e-01 3.803154e-01 3.937966e-01 4.106987e-01 4.315008e-01 4.576885e-01 4.854176e-01 5.214010e-01 5.515281e-01 5.939997e-01 6.157885e-01 6.553693e-01 6.541586e-01 6.754376e-01 6.386353e-01 6.209610e-01 5.452099e-01 4.698068e-01 3.755390e-01 2.331203e-01 1.829653e-01 7.506959e-02 1.576408e-01 6.591014e-02 2.963689e-02 7.416251e-02 9.446743e-02 9.896950e-02 1.014606e-01 9.668994e-02 1.015130e-01 1.020166e-01 8.977868e-02 1.024821e-01 8.064445e-02 1.065634e-01 7.463030e-02 9.482164e-02 6.834775e-02 7.309155e-02 5.739363e-02 6.483598e-02 5.626576e-02 6.408044e-02 6.005545e-02 6.735011e-02 6.593400e-02 7.244662e-02 7.230963e-02 7.796003e-02 7.828803e-02 8.303737e-02 8.336218e-02 8.718307e-02 8.725174e-02 9.012514e-02 8.981620e-02 9.173203e-02 9.100449e-02 9.196398e-02 9.082745e-02 
1.141462e-01 1.137250e-01 1.116741e-01 1.103885e-01 1.071623e-01 1.050790e-01 1.007629e-01 9.800082e-02 9.274913e-02 8.948603e-02 8.353223e-02 8.000843e-02 7.367402e-02 7.019127e-02 6.389331e-02 6.080424e-02 5.505312e-02 5.272232e-02 4.807038e-02 4.676814e-02 4.363566e-02 4.336075e-02 4.176637e-02 4.215652e-02 4.164465e-02 4.215562e-02 4.209229e-02 4.230838e-02 4.228841e-02 4.219038e-02 4.240556e-02 4.267195e-02 4.427589e-02 4.650322e-02 5.144952e-02 5.745322e-02 6.713536e-02 7.766117e-02 9.217812e-02 1.070184e-01 1.258509e-01 1.444898e-01 1.669069e-01 1.886444e-01 2.136621e-01 2.374933e-01 2.637484e-01 2.882304e-01 3.138965e-01 3.370781e-01 3.598744e-01 3.793609e-01 3.967200e-01 4.099645e-01 4.194454e-01 4.243376e-01 4.243313e-01 4.200254e-01 4.106462e-01 3.983569e-01 3.821534e-01 3.655577e-01 3.475710e-01 3.326528e-01 3.197157e-01 3.136940e-01 3.127705e-01 3.208088e-01 3.349252e-01 3.568684e-01 3.837362e-01 4.160299e-01 4.522855e-01 4.908391e-01 5.342621e-01 5.724697e-01 6.189076e-01 6.448790e-01 6.853684e-01 6.846501e-01 7.036982e-01 6.639426e-01 6.365175e-01 5.481691e-01 4.531939e-01 3.238554e-01 1.616871e-01 3.105875e-02 1.578783e-01 6.518036e-02 9.548554e-02 3.393122e-02 1.115869e-01 1.654370e-01 1.163898e-01 5.332938e-02 9.746293e-02 4.923320e-02 7.325637e-02 2.910335e-02 6.116780e-02 1.447546e-02 5.357965e-02 1.067196e-02 6.192242e-02 3.623827e-02 5.658468e-02 4.660313e-02 5.785850e-02 5.422929e-02 6.241202e-02 6.282444e-02 6.983389e-02 7.257131e-02 7.881695e-02 8.253536e-02 8.800448e-02 9.186434e-02 9.646483e-02 9.998863e-02 1.036299e-01 1.065527e-01 1.091577e-01 1.113320e-01 1.128355e-01 1.141778e-01 1.145257e-01 1.149921e-01 
1.019234e-01 1.014038e-01 1.014266e-01 1.003922e-01 9.933983e-02 9.786147e-02 9.582861e-02 9.401040e-02 9.116995e-02 8.914588e-02 8.575474e-02 8.367901e-02 8.007112e-02 7.809882e-02 7.465751e-02 7.291333e-02 7.001294e-02 6.855069e-02 6.646709e-02 6.523378e-02 6.405191e-02 6.288087e-02 6.245485e-02 6.110486e-02 6.110973e-02 5.934569e-02 5.941061e-02 5.712345e-02 5.703083e-02 5.444145e-02 5.443821e-02 5.247721e-02 5.373753e-02 5.443474e-02 5.913428e-02 6.485042e-02 7.473208e-02 8.626666e-02 1.014939e-01 1.182230e-01 1.381456e-01 1.591316e-01 1.828367e-01 2.070346e-01 2.332874e-01 2.593467e-01 2.864251e-01 3.124936e-01 3.380853e-01 3.617107e-01 3.829307e-01 4.011327e-01 4.147395e-01 4.243728e-01 4.273073e-01 4.258471e-01 4.162317e-01 4.030107e-01 3.816305e-01 3.592778e-01 3.311294e-01 3.065234e-01 2.810402e-01 2.642572e-01 2.515897e-01 2.500744e-01 2.537481e-01 2.660722e-01 2.821065e-01 3.037126e-01 3.287828e-01 3.592380e-01 3.948534e-01 4.363194e-01 4.865155e-01 5.360705e-01 5.995125e-01 6.417963e-01 7.069097e-01 7.176534e-01 7.658049e-01 7.227503e-01 7.231351e-01 6.074156e-01 5.292233e-01 3.540627e-01 1.521725e-01 4.716290e-02 1.214434e-01 9.676181e-02 2.278384e-02 2.201005e-01 1.910650e-01 4.894886e-02 3.369564e-02 4.570570e-02 2.416061e-02 3.717707e-02 1.060436e-02 4.920341e-02 1.877983e-02 5.301433e-02 2.707375e-02 5.169781e-02 6.780628e-02 2.631684e-02 5.258572e-02 4.113983e-02 5.597352e-02 4.934983e-02 5.823320e-02 5.463134e-02 6.167176e-02 6.066398e-02 6.718516e-02 6.789100e-02 7.406149e-02 7.558767e-02 8.125795e-02 8.296804e-02 8.795966e-02 8.947023e-02 9.363770e-02 9.473876e-02 9.796946e-02 9.855661e-02 1.007644e-01 1.007971e-01 