# vtk DataFile Version 2.0
Comment goes here
ASCII

DATASET STRUCTURED_POINTS
DIMENSIONS    128   128   1

ORIGIN    0.000   0.000   0.000
SPACING   0.0156250.015625   1.000

POINT_DATA   16384
SCALARS uMag double
LOOKUP_TABLE default

1.473065e-02 2.438683e-02 2.891765e-02 3.748140e-02 4.148633e-02 4.888750e-02 5.231271e-02 5.850796e-02 6.132502e-02 6.630002e-02 6.850606e-02 7.227791e-02 7.389633e-02 7.651584e-02 7.759716e-02 7.915084e-02 7.977367e-02 8.038516e-02 8.065713e-02 8.048808e-02 8.054665e-02 7.979703e-02 7.981029e-02 7.871811e-02 7.888525e-02 7.772559e-02 7.827692e-02 7.735991e-02 7.855584e-02 7.822287e-02 8.035087e-02 8.096831e-02 8.433674e-02 8.628560e-02 9.121308e-02 9.487361e-02 1.016724e-01 1.074022e-01 1.163547e-01 1.244600e-01 1.357878e-01 1.464878e-01 1.603145e-01 1.737008e-01 1.900113e-01 2.060057e-01 2.246056e-01 2.429225e-01 2.634060e-01 2.835256e-01 3.052579e-01 3.264195e-01 3.485435e-01 3.697641e-01 3.912352e-01 4.113579e-01 4.310067e-01 4.487737e-01 4.653908e-01 4.795312e-01 4.919583e-01 5.012745e-01 5.084863e-01 5.119259e-01 5.130927e-01 5.097978e-01 5.043279e-01 4.936715e-01 4.812479e-01 4.628754e-01 4.435068e-01 4.174060e-01 3.915105e-01 3.581248e-01 3.266436e-01 2.870167e-01 2.515246e-01 2.074254e-01 1.701673e-01 1.241069e-01 8.786571e-02 4.290642e-02 1.063888e-02 3.005775e-02 5.581095e-02 8.961425e-02 1.073776e-01 1.328561e-01 1.427113e-01 1.599929e-01 1.636153e-01 1.742146e-01 1.742710e-01 1.802792e-01 1.793437e-01 1.824232e-01 1.821132e-01 1.829965e-01 1.838450e-01 1.824348e-01 1.841307e-01 1.800819e-01 1.818873e-01 1.750991e-01 1.762937e-01 1.671079e-01 1.673180e-01 1.563919e-01 1.555454e-01 1.434927e-01 1.416107e-01 1.288507e-01 1.259797e-01 1.127876e-01 1.090189e-01 9.561117e-02 9.109305e-02 7.767399e-02 7.259765e-02 5.937036e-02 5.394542e-02 4.110671e-02 3.553886e-02 2.327182e-02 1.774840e-02 6.217072e-03 9.000430e-04 9.753511e-03 
7.456365e-03 1.253281e-02 1.641571e-02 2.398456e-02 2.788888e-02 3.487697e-02 3.828875e-02 4.439050e-02 4.720263e-02 5.234710e-02 5.453271e-02 5.871380e-02 6.028688e-02 6.353842e-02 6.454570e-02 6.693686e-02 6.745591e-02 6.909099e-02 6.922999e-02 7.024912e-02 7.014736e-02 7.072736e-02 7.055583e-02 7.091082e-02 7.087300e-02 7.125457e-02 7.158686e-02 7.228322e-02 7.325430e-02 7.458738e-02 7.649501e-02 7.881405e-02 8.197763e-02 8.564745e-02 9.039498e-02 9.577838e-02 1.024274e-01 1.098616e-01 1.186944e-01 1.284621e-01 1.396955e-01 1.519903e-01 1.657399e-01 1.806267e-01 1.968673e-01 2.142420e-01 2.327686e-01 2.523209e-01 2.727174e-01 2.939062e-01 3.155293e-01 3.375777e-01 3.595649e-01 3.814816e-01 4.027877e-01 4.234188e-01 4.428810e-01 4.609858e-01 4.774098e-01 4.917500e-01 5.040020e-01 5.134270e-01 5.205149e-01 5.240275e-01 5.251585e-01 5.219542e-01 5.165692e-01 5.060592e-01 4.938596e-01 4.757006e-01 4.566916e-01 4.308517e-01 4.054244e-01 3.723061e-01 3.413617e-01 3.019778e-01 2.670678e-01 2.232433e-01 1.866894e-01 1.413341e-01 1.065159e-01 6.532780e-02 4.157058e-02 4.006264e-02 5.722100e-02 8.725313e-02 1.042708e-01 1.292116e-01 1.392051e-01 1.565103e-01 1.602316e-01 1.710508e-01 1.708952e-01 1.772827e-01 1.758731e-01 1.795558e-01 1.786994e-01 1.804372e-01 1.807720e-01 1.804684e-01 1.817015e-01 1.789876e-01 1.803606e-01 1.750902e-01 1.758626e-01 1.683219e-01 1.681262e-01 1.589426e-01 1.577165e-01 1.474643e-01 1.452229e-01 1.342772e-01 1.310576e-01 1.196570e-01 1.155463e-01 1.038811e-01 9.902881e-02 8.728447e-02 8.188721e-02 7.025449e-02 6.453067e-02 5.320571e-02 4.737753e-02 3.657788e-02 3.087889e-02 2.096457e-02 1.580238e-02 8.710887e-03 
2.104157e-02 2.862448e-02 3.227996e-02 4.006290e-02 4.361051e-02 5.062666e-02 5.377200e-02 5.974780e-02 6.238114e-02 6.722015e-02 6.930248e-02 7.298448e-02 7.451909e-02 7.707441e-02 7.809822e-02 7.960003e-02 8.018078e-02 8.074276e-02 8.097833e-02 8.075388e-02 8.077264e-02 7.995480e-02 7.991677e-02 7.873845e-02 7.883714e-02 7.757172e-02 7.803633e-02 7.699789e-02 7.809469e-02 7.763628e-02 7.966644e-02 8.017294e-02 8.346328e-02 8.533556e-02 9.022031e-02 9.385064e-02 1.006468e-01 1.063904e-01 1.153715e-01 1.235185e-01 1.348878e-01 1.456353e-01 1.594963e-01 1.729153e-01 1.892357e-01 2.052341e-01 2.238091e-01 2.420947e-01 2.625142e-01 2.825679e-01 3.041987e-01 3.252662e-01 3.472583e-01 3.683681e-01 3.896887e-01 4.097002e-01 4.291981e-01 4.468759e-01 4.633670e-01 4.774695e-01 4.898298e-01 4.991974e-01 5.064460e-01 5.100720e-01 5.114330e-01 5.085115e-01 5.034539e-01 4.934117e-01 4.816832e-01 4.642175e-01 4.458947e-01 4.210435e-01 3.966186e-01 3.648879e-01 3.354016e-01 2.979685e-01 2.651861e-01 2.242217e-01 1.909046e-01 1.503426e-01 1.211435e-01 9.004950e-02 7.559681e-02 7.487545e-02 8.310140e-02 1.045050e-01 1.160931e-01 1.372340e-01 1.439935e-01 1.592858e-01 1.610127e-01 1.705239e-01 1.693883e-01 1.748183e-01 1.732524e-01 1.761293e-01 1.756000e-01 1.765390e-01 1.774752e-01 1.761682e-01 1.781767e-01 1.741649e-01 1.764229e-01 1.696210e-01 1.713008e-01 1.621394e-01 1.628285e-01 1.520761e-01 1.517064e-01 1.399790e-01 1.385466e-01 1.262071e-01 1.237339e-01 1.110136e-01 1.075870e-01 9.469118e-02 9.047213e-02 7.762627e-02 7.283012e-02 6.030166e-02 5.518176e-02 4.333754e-02 3.821415e-02 2.779115e-02 2.330917e-02 1.687650e-02 1.536932e-02 1.835806e-02 
2.202983e-02 2.416813e-02 2.544707e-02 3.069091e-02 3.309439e-02 3.897173e-02 4.150883e-02 4.703537e-02 4.930553e-02 5.412969e-02 5.597119e-02 5.996559e-02 6.132169e-02 6.445875e-02 6.533183e-02 6.764382e-02 6.807838e-02 6.964350e-02 6.971953e-02 7.065699e-02 7.048809e-02 7.095708e-02 7.069143e-02 7.089252e-02 7.071648e-02 7.089478e-02 7.103853e-02 7.148772e-02 7.223050e-02 7.329419e-02 7.496383e-02 7.702778e-02 7.998695e-02 8.345641e-02 8.807306e-02 9.333768e-02 9.994790e-02 1.073461e-01 1.162224e-01 1.260140e-01 1.373425e-01 1.496862e-01 1.635436e-01 1.784703e-01 1.947958e-01 2.121750e-01 2.307367e-01 2.502422e-01 2.706071e-01 2.916919e-01 3.132100e-01 3.351003e-01 3.569126e-01 3.786299e-01 3.997057e-01 4.201200e-01 4.393251e-01 4.572345e-01 4.734219e-01 4.876469e-01 4.997538e-01 5.092259e-01 5.163570e-01 5.201835e-01 5.216656e-01 5.191607e-01 5.145679e-01 5.052606e-01 4.944263e-01 4.780712e-01 4.611177e-01 4.377477e-01 4.151606e-01 3.852177e-01 3.579816e-01 3.225561e-01 2.923469e-01 2.535735e-01 2.230244e-01 1.848424e-01 1.580853e-01 1.280958e-01 1.118732e-01 1.025606e-01 1.020337e-01 1.138319e-01 1.202045e-01 1.371551e-01 1.414720e-01 1.549917e-01 1.551570e-01 1.638731e-01 1.613076e-01 1.665057e-01 1.636588e-01 1.669102e-01 1.655026e-01 1.673264e-01 1.678002e-01 1.676948e-01 1.695697e-01 1.669576e-01 1.692800e-01 1.640504e-01 1.658324e-01 1.584073e-01 1.592014e-01 1.504412e-01 1.501956e-01 1.406626e-01 1.393351e-01 1.292777e-01 1.268539e-01 1.164168e-01 1.129763e-01 1.023167e-01 9.803062e-02 8.734667e-02 8.244474e-02 7.197969e-02 6.672356e-02 5.678831e-02 5.147355e-02 4.253684e-02 3.756246e-02 3.053333e-02 2.665404e-02 2.343302e-02 
3.332051e-02 3.852231e-02 4.061971e-02 4.687259e-02 4.935182e-02 5.544966e-02 5.786374e-02 6.326926e-02 6.539667e-02 6.986728e-02 7.160014e-02 7.503354e-02 7.632927e-02 7.870480e-02 7.956558e-02 8.092076e-02 8.138446e-02 8.180502e-02 8.194148e-02 8.155701e-02 8.146753e-02 8.045038e-02 8.027014e-02 7.883713e-02 7.874080e-02 7.715829e-02 7.736904e-02 7.596063e-02 7.675985e-02 7.591238e-02 7.764258e-02 7.779952e-02 8.084768e-02 8.247670e-02 8.723138e-02 9.076779e-02 9.756499e-02 1.033583e-01 1.124445e-01 1.207337e-01 1.322544e-01 1.431652e-01 1.571587e-01 1.706965e-01 1.870764e-01 2.031026e-01 2.216275e-01 2.398266e-01 2.600693e-01 2.799203e-01 3.012488e-01 3.220137e-01 3.435960e-01 3.643368e-01 3.851756e-01 4.048020e-01 4.238011e-01 4.411469e-01 4.572011e-01 4.711174e-01 4.832097e-01 4.926545e-01 4.999409e-01 5.040495e-01 5.059174e-01 5.040416e-01 5.001423e-01 4.918701e-01 4.821416e-01 4.673184e-01 4.520233e-01 4.308056e-01 4.106025e-01 3.835796e-01 3.596322e-01 3.280522e-01 3.021578e-01 2.683064e-01 2.430043e-01 2.107930e-01 1.893739e-01 1.649185e-01 1.508568e-01 1.408042e-01 1.350714e-01 1.393867e-01 1.379590e-01 1.484675e-01 1.466367e-01 1.562290e-01 1.524072e-01 1.587553e-01 1.541788e-01 1.579975e-01 1.547275e-01 1.570970e-01 1.559661e-01 1.571962e-01 1.583612e-01 1.573697e-01 1.602910e-01 1.563091e-01 1.599858e-01 1.530771e-01 1.562881e-01 1.471841e-01 1.493580e-01 1.392056e-01 1.402981e-01 1.296406e-01 1.295555e-01 1.185395e-01 1.172314e-01 1.059580e-01 1.035186e-01 9.216762e-02 8.880360e-02 7.765086e-02 7.364128e-02 6.308235e-02 5.876864e-02 4.941595e-02 4.526029e-02 3.818321e-02 3.493539e-02 3.184705e-02 3.054475e-02 3.245003e-02 
3.645921e-02 3.771002e-02 3.726649e-02 4.074735e-02 4.142582e-02 4.593303e-02 4.715679e-02 5.180041e-02 5.314824e-02 5.742852e-02 5.864840e-02 6.231130e-02 6.326582e-02 6.619686e-02 6.682241e-02 6.899252e-02 6.927663e-02 7.071663e-02 7.068671e-02 7.147591e-02 7.119540e-02 7.145799e-02 7.102858e-02 7.093615e-02 7.050647e-02 7.028688e-02 7.006823e-02 7.002000e-02 7.030585e-02 7.081204e-02 7.198898e-02 7.351317e-02 7.604042e-02 7.908347e-02 8.342631e-02 8.844666e-02 9.499002e-02 1.023324e-01 1.113285e-01 1.212008e-01 1.327657e-01 1.452478e-01 1.593728e-01 1.744193e-01 1.909654e-01 2.083865e-01 2.270609e-01 2.464919e-01 2.668210e-01 2.876960e-01 3.090092e-01 3.305551e-01 3.519939e-01 3.732532e-01 3.938122e-01 4.137012e-01 4.323026e-01 4.496991e-01 4.652937e-01 4.791409e-01 4.908139e-01 5.002168e-01 5.072759e-01 5.115631e-01 5.135857e-01 5.123222e-01 5.091582e-01 5.021174e-01 4.938653e-01 4.809914e-01 4.679816e-01 4.493870e-01 4.322024e-01 4.082468e-01 3.877874e-01 3.592806e-01 3.368390e-01 3.053909e-01 2.826712e-01 2.511649e-01 2.301817e-01 2.031505e-01 1.859552e-01 1.688939e-01 1.568669e-01 1.525661e-01 1.450660e-01 1.495968e-01 1.438302e-01 1.502572e-01 1.436694e-01 1.484621e-01 1.412803e-01 1.442784e-01 1.387152e-01 1.413191e-01 1.388860e-01 1.410980e-01 1.417777e-01 1.420477e-01 1.451682e-01 1.425885e-01 1.469571e-01 1.417308e-01 1.456904e-01 1.384914e-01 1.413575e-01 1.336340e-01 1.354082e-01 1.275107e-01 1.279975e-01 1.198316e-01 1.189336e-01 1.104669e-01 1.082846e-01 9.962600e-02 9.638970e-02 8.775092e-02 8.374941e-02 7.542059e-02 7.096795e-02 6.333072e-02 5.877170e-02 5.234879e-02 4.809994e-02 4.361115e-02 4.021071e-02 3.845514e-02 
4.681511e-02 5.058859e-02 5.131790e-02 5.615889e-02 5.742507e-02 6.245220e-02 6.390937e-02 6.856151e-02 6.997318e-02 7.392310e-02 7.514065e-02 7.820992e-02 7.914761e-02 8.125534e-02 8.187337e-02 8.300865e-02 8.330322e-02 8.351048e-02 8.350886e-02 8.288042e-02 8.264039e-02 8.131433e-02 8.092855e-02 7.909239e-02 7.869964e-02 7.660195e-02 7.640710e-02 7.437844e-02 7.467915e-02 7.315687e-02 7.436333e-02 7.389658e-02 7.651160e-02 7.770536e-02 8.223470e-02 8.562290e-02 9.245056e-02 9.837859e-02 1.077022e-01 1.163098e-01 1.281649e-01 1.394417e-01 1.537461e-01 1.675738e-01 1.841391e-01 2.002889e-01 2.188002e-01 2.369032e-01 2.568897e-01 2.764067e-01 2.972238e-01 3.174331e-01 3.382684e-01 3.582822e-01 3.781941e-01 3.970085e-01 4.149975e-01 4.315729e-01 4.466778e-01 4.600357e-01 4.714349e-01 4.807485e-01 4.878428e-01 4.924991e-01 4.949593e-01 4.945825e-01 4.923649e-01 4.868109e-01 4.801583e-01 4.695007e-01 4.589450e-01 4.434670e-01 4.298210e-01 4.100284e-01 3.943284e-01 3.710095e-01 3.543441e-01 3.287114e-01 3.119123e-01 2.858245e-01 2.691503e-01 2.452788e-01 2.284501e-01 2.099819e-01 1.928530e-01 1.821874e-01 1.655679e-01 1.623156e-01 1.474984e-01 1.481837e-01 1.355014e-01 1.369327e-01 1.271385e-01 1.287511e-01 1.234434e-01 1.252230e-01 1.231627e-01 1.253594e-01 1.265854e-01 1.260649e-01 1.302651e-01 1.259458e-01 1.321974e-01 1.248837e-01 1.309763e-01 1.219988e-01 1.268368e-01 1.180691e-01 1.217054e-01 1.131753e-01 1.153023e-01 1.066804e-01 1.071956e-01 9.841270e-02 9.748019e-02 8.870211e-02 8.662500e-02 7.816844e-02 7.530677e-02 6.762181e-02 6.437641e-02 5.807237e-02 5.490791e-02 5.074742e-02 4.820101e-02 4.687905e-02 4.542885e-02 4.703745e-02 
5.053970e-02 5.134120e-02 4.961473e-02 5.194527e-02 5.109642e-02 5.440580e-02 5.422845e-02 5.793164e-02 5.816625e-02 6.179851e-02 6.221395e-02 6.546060e-02 6.588031e-02 6.855057e-02 6.885058e-02 7.084536e-02 7.094551e-02 7.223399e-02 7.209097e-02 7.269672e-02 7.230192e-02 7.229737e-02 7.168161e-02 7.119143e-02 7.043964e-02 6.965567e-02 6.893557e-02 6.814663e-02 6.775231e-02 6.738477e-02 6.778017e-02 6.842004e-02 7.023140e-02 7.256400e-02 7.645500e-02 8.109141e-02 8.755815e-02 9.486638e-02 1.041259e-01 1.142142e-01 1.262523e-01 1.390557e-01 1.537132e-01 1.690528e-01 1.860579e-01 2.036399e-01 2.225939e-01 2.419789e-01 2.623287e-01 2.829037e-01 3.039278e-01 3.249015e-01 3.457235e-01 3.661561e-01 3.857958e-01 4.046673e-01 4.221288e-01 4.384415e-01 4.528303e-01 4.657283e-01 4.763715e-01 4.852467e-01 4.917858e-01 4.963334e-01 4.987549e-01 4.989527e-01 4.975479e-01 4.935622e-01 4.888323e-01 4.808852e-01 4.734272e-01 4.616681e-01 4.520636e-01 4.364901e-01 4.251887e-01 4.056862e-01 3.928573e-01 3.694412e-01 3.548156e-01 3.281213e-01 3.109956e-01 2.829171e-01 2.626533e-01 2.367130e-01 2.138676e-01 1.944529e-01 1.717847e-01 1.614052e-01 1.423950e-01 1.388946e-01 1.231951e-01 1.231139e-01 1.097189e-01 1.097721e-01 1.005961e-01 1.027732e-01 9.892488e-02 1.023222e-01 1.027441e-01 1.033458e-01 1.079553e-01 1.047077e-01 1.125470e-01 1.071768e-01 1.149619e-01 1.082804e-01 1.145526e-01 1.091155e-01 1.140615e-01 1.091435e-01 1.122544e-01 1.071498e-01 1.083274e-01 1.028564e-01 1.023378e-01 9.659464e-02 9.472802e-02 8.892275e-02 8.606599e-02 8.047615e-02 7.697373e-02 7.193723e-02 6.812778e-02 6.403927e-02 6.027120e-02 5.755107e-02 5.418478e-02 5.317847e-02 
6.028455e-02 6.317085e-02 6.279366e-02 6.652449e-02 6.665080e-02 7.067442e-02 7.112260e-02 7.498262e-02 7.558017e-02 7.894330e-02 7.954880e-02 8.219224e-02 8.269875e-02 8.448894e-02 8.482063e-02 8.569498e-02 8.580280e-02 8.575653e-02 8.561559e-02 8.469337e-02 8.430379e-02 8.259675e-02 8.199046e-02 7.964110e-02 7.889874e-02 7.611887e-02 7.540266e-02 7.251168e-02 7.211842e-02 6.960326e-02 7.002526e-02 6.859010e-02 7.052150e-02 7.102501e-02 7.520540e-02 7.839573e-02 8.532193e-02 9.155318e-02 1.013402e-01 1.105733e-01 1.230692e-01 1.350637e-01 1.499948e-01 1.644349e-01 1.814522e-01 1.979596e-01 2.166199e-01 2.347209e-01 2.544581e-01 2.735525e-01 2.936663e-01 3.130204e-01 3.326944e-01 3.514691e-01 3.698240e-01 3.871366e-01 4.033161e-01 4.183294e-01 4.316064e-01 4.436259e-01 4.535018e-01 4.620548e-01 4.683228e-01 4.731921e-01 4.759500e-01 4.771599e-01 4.767895e-01 4.745634e-01 4.717041e-01 4.664051e-01 4.619060e-01 4.539178e-01 4.486847e-01 4.381880e-01 4.328265e-01 4.195362e-01 4.137919e-01 3.969036e-01 3.891653e-01 3.678324e-01 3.552420e-01 3.296293e-01 3.092656e-01 2.815921e-01 2.525937e-01 2.270725e-01 1.927554e-01 1.736725e-01 1.416204e-01 1.305715e-01 1.064338e-01 1.021037e-01 8.673081e-02 8.651475e-02 8.097259e-02 8.185330e-02 7.801589e-02 8.292649e-02 8.269355e-02 8.240963e-02 8.719900e-02 8.110495e-02 9.133592e-02 8.281819e-02 9.412403e-02 8.601574e-02 9.517591e-02 8.963471e-02 9.703803e-02 9.219092e-02 9.721628e-02 9.219977e-02 9.493420e-02 8.968411e-02 9.054098e-02 8.525103e-02 8.468422e-02 7.964583e-02 7.808248e-02 7.366054e-02 7.150649e-02 6.812127e-02 6.577390e-02 6.383811e-02 6.167590e-02 6.146577e-02 5.979558e-02 6.130179e-02 
6.405999e-02 6.455625e-02 6.175218e-02 6.326896e-02 6.108030e-02 6.341217e-02 6.187608e-02 6.470246e-02 6.375389e-02 6.672494e-02 6.623183e-02 6.903668e-02 6.883896e-02 7.123708e-02 7.117399e-02 7.299901e-02 7.292366e-02 7.407520e-02 7.386174e-02 7.429555e-02 7.384461e-02 7.356664e-02 7.281449e-02 7.188333e-02 7.082099e-02 6.936564e-02 6.807778e-02 6.634136e-02 6.507796e-02 6.349877e-02 6.278204e-02 6.209226e-02 6.279212e-02 6.400285e-02 6.717410e-02 7.123968e-02 7.763765e-02 8.499965e-02 9.477615e-02 1.053471e-01 1.182447e-01 1.317037e-01 1.473201e-01 1.632793e-01 1.811458e-01 1.991516e-01 2.187064e-01 2.381911e-01 2.587417e-01 2.789893e-01 2.997013e-01 3.198508e-01 3.397780e-01 3.588731e-01 3.770327e-01 3.941177e-01 4.096101e-01 4.238612e-01 4.360159e-01 4.468837e-01 4.553996e-01 4.627243e-01 4.677591e-01 4.718067e-01 4.739708e-01 4.753489e-01 4.755830e-01 4.750327e-01 4.743854e-01 4.724941e-01 4.718502e-01 4.687268e-01 4.685118e-01 4.634729e-01 4.633326e-01 4.547437e-01 4.532265e-01 4.387574e-01 4.331573e-01 4.106714e-01 3.974021e-01 3.664349e-01 3.424292e-01 3.057296e-01 2.709094e-01 2.347827e-01 1.945324e-01 1.663038e-01 1.316441e-01 1.150712e-01 9.048202e-02 8.754085e-02 6.853355e-02 6.373404e-02 5.039390e-02 5.346793e-02 4.777680e-02 5.385621e-02 5.132445e-02 5.139733e-02 5.624134e-02 4.974895e-02 6.268231e-02 5.663495e-02 7.130470e-02 6.728117e-02 7.896844e-02 7.875956e-02 8.811350e-02 8.796608e-02 9.415558e-02 9.325338e-02 9.667445e-02 9.506430e-02 9.631879e-02 9.415464e-02 9.374995e-02 9.121263e-02 8.955540e-02 8.686648e-02 8.429880e-02 8.172173e-02 7.855052e-02 7.637529e-02 7.289136e-02 7.140513e-02 6.789195e-02 6.733282e-02 
7.316741e-02 7.544643e-02 7.416192e-02 7.703347e-02 7.614459e-02 7.929920e-02 7.877313e-02 8.188554e-02 8.164713e-02 8.442468e-02 8.437876e-02 8.658588e-02 8.663211e-02 8.809693e-02 8.813781e-02 8.874922e-02 8.869395e-02 8.839494e-02 8.816194e-02 8.694277e-02 8.646369e-02 8.435818e-02 8.358698e-02 8.067637e-02 7.960968e-02 7.604270e-02 7.476201e-02 7.080702e-02 6.956020e-02 6.571185e-02 6.504622e-02 6.218242e-02 6.306320e-02 6.247833e-02 6.610396e-02 6.902169e-02 7.615722e-02 8.298000e-02 9.358683e-02 1.039375e-01 1.175454e-01 1.308133e-01 1.468750e-01 1.624660e-01 1.804123e-01 1.977338e-01 2.169238e-01 2.353206e-01 2.550047e-01 2.737252e-01 2.930500e-01 3.112627e-01 3.293237e-01 3.461828e-01 3.621232e-01 3.768755e-01 3.900191e-01 4.021268e-01 4.121130e-01 4.213527e-01 4.282230e-01 4.347169e-01 4.389050e-01 4.430595e-01 4.452922e-01 4.476803e-01 4.488695e-01 4.501391e-01 4.513437e-01 4.521609e-01 4.545439e-01 4.553829e-01 4.599230e-01 4.605097e-01 4.672901e-01 4.658789e-01 4.730992e-01 4.662500e-01 4.695719e-01 4.531586e-01 4.461827e-01 4.177067e-01 3.941064e-01 3.553499e-01 3.125321e-01 2.704742e-01 2.133900e-01 1.765737e-01 1.210339e-01 9.593092e-02 6.014968e-02 5.324877e-02 4.238604e-02 3.939202e-02 3.755435e-02 3.481075e-02 2.458834e-02 3.511254e-02 2.897643e-02 2.805736e-02 2.791677e-02 1.864999e-02 3.118428e-02 1.714684e-02 3.950018e-02 3.927112e-02 5.596334e-02 5.746822e-02 6.972471e-02 7.003726e-02 7.799885e-02 7.752385e-02 8.236570e-02 8.143706e-02 8.401697e-02 8.278784e-02 8.369347e-02 8.232530e-02 8.199936e-02 8.071944e-02 7.953374e-02 7.861667e-02 7.690581e-02 7.662230e-02 7.469092e-02 7.524263e-02 7.335407e-02 7.481307e-02 
7.677018e-02 7.702244e-02 7.326250e-02 7.415362e-02 7.075466e-02 7.228378e-02 6.944853e-02 7.149527e-02 6.934113e-02 7.168899e-02 7.022597e-02 7.261001e-02 7.174682e-02 7.390434e-02 7.347613e-02 7.518153e-02 7.498381e-02 7.606353e-02 7.588078e-02 7.621434e-02 7.584091e-02 7.535687e-02 7.461367e-02 7.328894e-02 7.204423e-02 6.991680e-02 6.812516e-02 6.533831e-02 6.312513e-02 6.003862e-02 5.787808e-02 5.529464e-02 5.429799e-02 5.370977e-02 5.566652e-02 5.883269e-02 6.516564e-02 7.277094e-02 8.348313e-02 9.500112e-02 1.093422e-01 1.239971e-01 1.411994e-01 1.583144e-01 1.776593e-01 1.965713e-01 2.172784e-01 2.372236e-01 2.583764e-01 2.784394e-01 2.989797e-01 3.181156e-01 3.369071e-01 3.540394e-01 3.700023e-01 3.841869e-01 3.964910e-01 4.071179e-01 4.153968e-01 4.223780e-01 4.269028e-01 4.307887e-01 4.325308e-01 4.344890e-01 4.350198e-01 4.366150e-01 4.378145e-01 4.405815e-01 4.441739e-01 4.491018e-01 4.561761e-01 4.632027e-01 4.738226e-01 4.813467e-01 4.941882e-01 4.987245e-01 5.106361e-01 5.070302e-01 5.127036e-01 4.953755e-01 4.877061e-01 4.530355e-01 4.252831e-01 3.748287e-01 3.253909e-01 2.683208e-01 2.056641e-01 1.547343e-01 1.031792e-01 6.794094e-02 5.322519e-02 5.360249e-02 3.953469e-02 1.617889e-02 1.806495e-02 9.996462e-03 1.731727e-03 2.022832e-02 1.127605e-02 2.333011e-02 2.011336e-02 2.848923e-02 1.814389e-02 3.314473e-02 3.464630e-03 1.759541e-02 4.008618e-02 4.931016e-02 6.340408e-02 6.862195e-02 7.722542e-02 8.090552e-02 8.608568e-02 8.868954e-02 9.145554e-02 9.305694e-02 9.397301e-02 9.467352e-02 9.411650e-02 9.410033e-02 9.236724e-02 9.187938e-02 8.923338e-02 8.854854e-02 8.524053e-02 8.463499e-02 8.091626e-02 8.064111e-02 
8.502104e-02 8.685057e-02 8.481431e-02 8.700958e-02 8.522930e-02 8.765223e-02 8.621802e-02 8.866410e-02 8.760784e-02 8.984474e-02 8.914475e-02 9.094678e-02 9.053698e-02 9.170874e-02 9.148931e-02 9.187751e-02 9.172504e-02 9.122112e-02 9.099769e-02 8.953476e-02 8.909691e-02 8.664545e-02 8.585561e-02 8.242348e-02 8.117007e-02 7.681685e-02 7.505607e-02 6.994315e-02 6.779235e-02 6.231827e-02 6.026281e-02 5.537483e-02 5.463925e-02 5.225816e-02 5.490378e-02 5.735473e-02 6.484018e-02 7.270433e-02 8.464365e-02 9.682574e-02 1.121871e-01 1.275041e-01 1.454011e-01 1.629313e-01 1.825462e-01 2.014400e-01 2.218658e-01 2.411953e-01 2.613732e-01 2.800879e-01 2.988347e-01 3.158170e-01 3.319407e-01 3.461560e-01 3.586575e-01 3.693833e-01 3.777223e-01 3.847972e-01 3.891462e-01 3.931256e-01 3.944677e-01 3.965527e-01 3.964773e-01 3.981622e-01 3.984002e-01 4.010111e-01 4.030551e-01 4.075561e-01 4.126836e-01 4.198643e-01 4.293777e-01 4.398160e-01 4.548375e-01 4.679943e-01 4.884176e-01 5.011289e-01 5.239708e-01 5.296792e-01 5.478585e-01 5.379950e-01 5.406136e-01 5.084081e-01 4.833587e-01 4.292907e-01 3.694097e-01 3.063043e-01 2.163509e-01 1.623779e-01 6.694648e-02 4.316196e-02 3.378553e-02 5.582070e-02 6.267221e-02 6.189092e-02 2.609581e-02 2.686937e-02 1.856855e-02 2.535465e-02 2.151380e-02 2.383850e-02 1.977360e-02 2.164449e-02 1.809622e-02 2.088647e-02 3.528834e-02 2.955125e-02 3.855698e-02 3.733169e-02 4.980395e-02 5.264898e-02 6.172879e-02 6.559215e-02 7.167881e-02 7.524476e-02 7.909568e-02 8.190291e-02 8.401019e-02 8.601890e-02 8.673455e-02 8.811396e-02 8.773497e-02 8.874706e-02 8.754864e-02 8.847490e-02 8.671957e-02 8.780787e-02 8.574389e-02 8.716739e-02 
8.840226e-02 8.844841e-02 8.382446e-02 8.420854e-02 7.968557e-02 8.054094e-02 7.644397e-02 7.780450e-02 7.441914e-02 7.620179e-02 7.370975e-02 7.572349e-02 7.415374e-02 7.613905e-02 7.536339e-02 7.704511e-02 7.681671e-02 7.794598e-02 7.795460e-02 7.832882e-02 7.824813e-02 7.771293e-02 7.723196e-02 7.567611e-02 7.452065e-02 7.187609e-02 6.983566e-02 6.610089e-02 6.309187e-02 5.842195e-02 5.466590e-02 4.965653e-02 4.619030e-02 4.264790e-02 4.230946e-02 4.380546e-02 4.998784e-02 5.819991e-02 7.051381e-02 8.371650e-02 1.002833e-01 1.168926e-01 1.364792e-01 1.555111e-01 1.771682e-01 1.977483e-01 2.204497e-01 2.415542e-01 2.640594e-01 2.844335e-01 3.052854e-01 3.234906e-01 3.411314e-01 3.557282e-01 3.687425e-01 3.786024e-01 3.860764e-01 3.907648e-01 3.926816e-01 3.927821e-01 3.903010e-01 3.875402e-01 3.829989e-01 3.800790e-01 3.766554e-01 3.767037e-01 3.777184e-01 3.833118e-01 3.911594e-01 4.034161e-01 4.188764e-01 4.371510e-01 4.595224e-01 4.812671e-01 5.084801e-01 5.285654e-01 5.563279e-01 5.665942e-01 5.871968e-01 5.776797e-01 5.794019e-01 5.413139e-01 5.104117e-01 4.411599e-01 3.713024e-01 2.835597e-01 1.881737e-01 1.074227e-01 4.058780e-02 8.086954e-02 1.444119e-01 9.306442e-02 7.727551e-02 9.610385e-02 5.560577e-02 1.598869e-02 1.750641e-02 1.485408e-02 2.456738e-02 3.931751e-02 4.589127e-02 5.197745e-02 5.658031e-02 6.356102e-02 6.595238e-02 5.534128e-02 5.258136e-02 4.490610e-02 5.288380e-02 5.758947e-02 6.546414e-02 7.263630e-02 7.835639e-02 8.478679e-02 8.851172e-02 9.348793e-02 9.544480e-02 9.893064e-02 9.931431e-02 1.015008e-01 1.005017e-01 1.016662e-01 9.948197e-02 9.993046e-02 9.677009e-02 9.680779e-02 9.289730e-02 9.281158e-02 
9.542323e-02 9.690439e-02 9.425451e-02 9.590900e-02 9.335253e-02 9.516590e-02 9.289493e-02 9.476663e-02 9.292280e-02 9.468767e-02 9.334456e-02 9.480233e-02 9.395666e-02 9.490174e-02 9.447554e-02 9.472017e-02 9.457198e-02 9.395933e-02 9.389987e-02 9.230704e-02 9.211556e-02 8.944981e-02 8.888957e-02 8.508280e-02 8.391884e-02 7.892912e-02 7.695884e-02 7.079739e-02 6.792324e-02 6.075903e-02 5.719201e-02 4.971145e-02 4.658531e-02 4.111286e-02 4.176174e-02 4.312930e-02 5.108995e-02 6.067844e-02 7.461948e-02 8.955303e-02 1.074032e-01 1.256940e-01 1.462664e-01 1.667303e-01 1.890061e-01 2.105581e-01 2.333250e-01 2.546894e-01 2.764386e-01 2.960780e-01 3.150447e-01 3.312476e-01 3.455940e-01 3.567405e-01 3.649149e-01 3.699380e-01 3.712214e-01 3.701992e-01 3.653400e-01 3.599828e-01 3.515730e-01 3.451598e-01 3.371539e-01 3.334706e-01 3.295969e-01 3.311939e-01 3.334585e-01 3.409456e-01 3.499013e-01 3.632795e-01 3.795921e-01 3.994550e-01 4.245378e-01 4.509398e-01 4.855857e-01 5.148198e-01 5.560510e-01 5.781151e-01 6.165996e-01 6.165571e-01 6.361383e-01 5.994525e-01 5.782526e-01 4.989859e-01 4.182926e-01 3.176646e-01 1.751549e-01 1.267115e-01 1.018777e-01 1.798385e-01 8.189423e-02 2.519993e-02 6.716514e-02 8.424248e-02 8.861939e-02 9.695636e-02 9.440419e-02 1.007465e-01 1.011418e-01 9.113874e-02 1.020972e-01 8.291481e-02 1.060086e-01 7.631136e-02 9.514675e-02 6.106722e-02 5.630089e-02 3.832306e-02 4.227403e-02 4.373933e-02 5.058355e-02 5.820588e-02 6.415444e-02 7.173162e-02 7.620079e-02 8.239282e-02 8.535333e-02 9.004228e-02 9.159643e-02 9.499875e-02 9.530995e-02 9.774310e-02 9.700944e-02 9.880701e-02 9.724634e-02 9.871452e-02 9.655599e-02 9.794457e-02 
9.872620e-02 9.860604e-02 9.320739e-02 9.317322e-02 8.758762e-02 8.786542e-02 8.251061e-02 8.325920e-02 7.857896e-02 7.984949e-02 7.622766e-02 7.792972e-02 7.557783e-02 7.748319e-02 7.636644e-02 7.816133e-02 7.801397e-02 7.937061e-02 7.978083e-02 8.040798e-02 8.091058e-02 8.056957e-02 8.070658e-02 7.920342e-02 7.855076e-02 7.572066e-02 7.389815e-02 6.959797e-02 6.628827e-02 6.042051e-02 5.544812e-02 4.809842e-02 4.177568e-02 3.393681e-02 2.892944e-02 2.634870e-02 3.180407e-02 4.141586e-02 5.637525e-02 7.230365e-02 9.191273e-02 1.113379e-01 1.341094e-01 1.559595e-01 1.808827e-01 2.041636e-01 2.299899e-01 2.533859e-01 2.784538e-01 3.002105e-01 3.224375e-01 3.404121e-01 3.574497e-01 3.693862e-01 3.790064e-01 3.830972e-01 3.838525e-01 3.795277e-01 3.715843e-01 3.602498e-01 3.460501e-01 3.313854e-01 3.156878e-01 3.033044e-01 2.924319e-01 2.886108e-01 2.886746e-01 2.973722e-01 3.107569e-01 3.313901e-01 3.561814e-01 3.859176e-01 4.197064e-01 4.557634e-01 4.971859e-01 5.343786e-01 5.797706e-01 6.071752e-01 6.473474e-01 6.498133e-01 6.678383e-01 6.295207e-01 5.982605e-01 5.044579e-01 4.021866e-01 2.610003e-01 1.028082e-01 3.354378e-02 1.879935e-01 8.480640e-02 9.032467e-02 2.628313e-02 1.017390e-01 1.527599e-01 1.095214e-01 6.162390e-02 9.475954e-02 5.422294e-02 7.098946e-02 3.263437e-02 5.886560e-02 1.674871e-02 5.157775e-02 4.805888e-03 5.894932e-02 3.211337e-02 4.052569e-02 3.772041e-02 4.216640e-02 5.128771e-02 5.689667e-02 6.787837e-02 7.326695e-02 8.289513e-02 8.717050e-02 9.477587e-02 9.757622e-02 1.031853e-01 1.044165e-01 1.082722e-01 1.079755e-01 1.103922e-01 1.086817e-01 1.099914e-01 1.070250e-01 1.075540e-01 1.035249e-01 1.035839e-01 
1.039944e-01 1.052010e-01 1.020815e-01 1.032993e-01 1.000809e-01 1.013872e-01 9.834682e-02 9.973071e-02 9.712145e-02 9.848855e-02 9.650149e-02 9.769005e-02 9.641872e-02 9.722617e-02 9.664702e-02 9.685982e-02 9.683521e-02 9.625301e-02 9.655202e-02 9.499999e-02 9.532599e-02 9.265432e-02 9.266942e-02 8.874354e-02 8.808675e-02 8.277487e-02 8.107861e-02 7.424762e-02 7.116977e-02 6.271485e-02 5.803916e-02 4.805072e-02 4.210884e-02 3.187868e-02 2.801960e-02 2.599464e-02 3.440600e-02 4.686752e-02 6.356147e-02 8.223994e-02 1.031932e-01 1.253400e-01 1.493943e-01 1.738479e-01 1.999245e-01 2.254723e-01 2.520610e-01 2.770578e-01 3.020858e-01 3.243362e-01 3.451831e-01 3.620061e-01 3.757041e-01 3.842730e-01 3.880045e-01 3.860925e-01 3.781211e-01 3.652997e-01 3.463732e-01 3.254362e-01 3.003025e-01 2.781769e-01 2.558324e-01 2.421661e-01 2.319668e-01 2.327439e-01 2.370738e-01 2.495624e-01 2.642341e-01 2.839244e-01 3.062929e-01 3.333858e-01 3.656383e-01 4.033621e-01 4.501908e-01 4.972706e-01 5.582196e-01 6.011033e-01 6.653136e-01 6.799015e-01 7.275305e-01 6.878020e-01 6.845606e-01 5.643433e-01 4.741894e-01 2.832745e-01 7.213104e-02 2.473859e-02 1.447134e-01 9.160734e-02 1.005593e-02 2.098610e-01 1.791504e-01 5.552672e-02 4.578487e-02 4.721921e-02 2.541938e-02 3.375203e-02 1.048198e-02 4.649334e-02 2.036928e-02 5.045502e-02 2.847489e-02 5.014189e-02 5.553668e-02 1.137760e-02 7.844104e-03 1.701142e-02 2.006651e-02 3.491521e-02 4.003154e-02 5.314451e-02 5.868931e-02 6.958517e-02 7.444532e-02 8.307558e-02 8.674489e-02 9.330964e-02 9.562722e-02 1.004452e-01 1.014313e-01 1.048661e-01 1.046363e-01 1.070534e-01 1.057750e-01 1.075142e-01 1.053874e-01 1.067433e-01 