# vtk DataFile Version 2.0
Comment goes here
ASCII

DATASET STRUCTURED_POINTS
DIMENSIONS    128   128   1

ORIGIN    0.000   0.000   0.000
SPACING   0.0156250.015625   1.000

POINT_DATA   16384
SCALARS uMag double
LOOKUP_TABLE default

2.032365e-01 1.972995e-01 1.960748e-01 1.898434e-01 1.875843e-01 1.809731e-01 1.776691e-01 1.706418e-01 1.663249e-01 1.588877e-01 1.536256e-01 1.458179e-01 1.397051e-01 1.315894e-01 1.247359e-01 1.163853e-01 1.089047e-01 1.003894e-01 9.238469e-02 8.375790e-02 7.530703e-02 6.659043e-02 5.773185e-02 4.890175e-02 3.962099e-02 3.059610e-02 2.081425e-02 1.144626e-02 1.012183e-03 8.919861e-03 2.023348e-02 3.102123e-02 4.351265e-02 5.551177e-02 6.953840e-02 8.314924e-02 9.910418e-02 1.147428e-01 1.330198e-01 1.510769e-01 1.720234e-01 1.928121e-01 2.166716e-01 2.403665e-01 2.672154e-01 2.937879e-01 3.234708e-01 3.526290e-01 3.847043e-01 4.158462e-01 4.495504e-01 4.817425e-01 5.159863e-01 5.479764e-01 5.813791e-01 6.116492e-01 6.426138e-01 6.694715e-01 6.962942e-01 7.179901e-01 7.389894e-01 7.538436e-01 7.674886e-01 7.740067e-01 7.790293e-01 7.759958e-01 7.714792e-01 7.580299e-01 7.434812e-01 7.191702e-01 6.945895e-01 6.594679e-01 6.254254e-01 5.801426e-01 5.378539e-01 4.837639e-01 4.351316e-01 3.743591e-01 3.219303e-01 2.573392e-01 2.041430e-01 1.391613e-01 8.842484e-02 2.671469e-02 1.851890e-02 7.353656e-02 1.108663e-01 1.566100e-01 1.848320e-01 2.201663e-01 2.397158e-01 2.652276e-01 2.780738e-01 2.955561e-01 3.041878e-01 3.154868e-01 3.216653e-01 3.278240e-01 3.324348e-01 3.334776e-01 3.366312e-01 3.322543e-01 3.336390e-01 3.239967e-01 3.234926e-01 3.097356e-01 3.079546e-01 2.921497e-01 2.901593e-01 2.743233e-01 2.729864e-01 2.584432e-01 2.581449e-01 2.454743e-01 2.461977e-01 2.354560e-01 2.369556e-01 2.279124e-01 2.298522e-01 2.221545e-01 2.241889e-01 2.174572e-01 2.192710e-01 2.131483e-01 2.144727e-01 2.086479e-01 2.092670e-01 2.034848e-01 
2.212805e-01 2.163245e-01 2.148196e-01 2.093055e-01 2.068132e-01 2.006435e-01 1.971566e-01 1.902882e-01 1.858410e-01 1.782785e-01 1.729397e-01 1.647274e-01 1.585915e-01 1.498025e-01 1.429790e-01 1.337033e-01 1.263045e-01 1.166352e-01 1.087633e-01 9.878299e-02 9.051733e-02 8.028595e-02 7.167369e-02 6.122459e-02 5.228573e-02 4.165854e-02 3.247303e-02 2.204573e-02 1.393506e-02 1.093092e-02 1.750778e-02 2.888572e-02 4.059050e-02 5.437293e-02 6.802901e-02 8.362752e-02 9.934774e-02 1.170180e-01 1.351382e-01 1.552079e-01 1.760548e-01 1.987952e-01 2.225996e-01 2.481490e-01 2.749739e-01 3.032692e-01 3.329445e-01 3.636601e-01 3.957278e-01 4.282316e-01 4.619121e-01 4.952472e-01 5.294376e-01 5.623395e-01 5.956513e-01 6.266065e-01 6.574438e-01 6.847842e-01 7.114565e-01 7.334790e-01 7.543308e-01 7.694204e-01 7.829583e-01 7.896947e-01 7.946928e-01 7.919282e-01 7.875058e-01 7.744199e-01 7.601005e-01 7.362526e-01 7.120241e-01 6.774292e-01 6.438211e-01 5.990649e-01 5.572378e-01 5.036186e-01 4.554356e-01 3.950973e-01 3.431397e-01 2.791873e-01 2.267809e-01 1.637253e-01 1.159520e-01 6.617380e-02 5.093188e-02 7.869093e-02 1.104372e-01 1.530976e-01 1.807236e-01 2.153211e-01 2.348077e-01 2.602798e-01 2.727955e-01 2.906998e-01 2.987113e-01 3.108242e-01 3.163591e-01 3.236758e-01 3.277388e-01 3.302775e-01 3.329697e-01 3.303896e-01 3.313419e-01 3.237048e-01 3.227419e-01 3.111033e-01 3.088413e-01 2.952566e-01 2.927943e-01 2.792590e-01 2.774688e-01 2.652582e-01 2.645184e-01 2.541583e-01 2.544438e-01 2.459450e-01 2.470070e-01 2.401028e-01 2.416074e-01 2.359153e-01 2.375225e-01 2.326372e-01 2.340387e-01 2.295789e-01 2.305139e-01 2.261456e-01 2.264053e-01 2.218514e-01 
2.037426e-01 1.979479e-01 1.968107e-01 1.907009e-01 1.885116e-01 1.820070e-01 1.787602e-01 1.718298e-01 1.675623e-01 1.602174e-01 1.550024e-01 1.472888e-01 1.412277e-01 1.332162e-01 1.264291e-01 1.182052e-01 1.108213e-01 1.024751e-01 9.462377e-02 8.624326e-02 7.805166e-02 6.972746e-02 6.134035e-02 5.321007e-02 4.489524e-02 3.735821e-02 3.002803e-02 2.481821e-02 2.227993e-02 2.434332e-02 3.052614e-02 3.874669e-02 4.936846e-02 6.031367e-02 7.340062e-02 8.642799e-02 1.017780e-01 1.170180e-01 1.348352e-01 1.525767e-01 1.731323e-01 1.936429e-01 2.171433e-01 2.405732e-01 2.670739e-01 2.933796e-01 3.227127e-01 3.515927e-01 3.833094e-01 4.141575e-01 4.474923e-01 4.793752e-01 5.132421e-01 5.449141e-01 5.779413e-01 6.078987e-01 6.385060e-01 6.650791e-01 6.915890e-01 7.130628e-01 7.338309e-01 7.485723e-01 7.621171e-01 7.686896e-01 7.738034e-01 7.710570e-01 7.668922e-01 7.540301e-01 7.401677e-01 7.168063e-01 6.933237e-01 6.595714e-01 6.271223e-01 5.836956e-01 5.436021e-01 4.919814e-01 4.463229e-01 3.889623e-01 3.406812e-01 2.814216e-01 2.347347e-01 1.804341e-01 1.433386e-01 1.119724e-01 1.045367e-01 1.210867e-01 1.409103e-01 1.749114e-01 1.960592e-01 2.264581e-01 2.421175e-01 2.649770e-01 2.753982e-01 2.913643e-01 2.985849e-01 3.091066e-01 3.144836e-01 3.204285e-01 3.247118e-01 3.257900e-01 3.290542e-01 3.247365e-01 3.265427e-01 3.168565e-01 3.168381e-01 3.029204e-01 3.015999e-01 2.857568e-01 2.842550e-01 2.686117e-01 2.677986e-01 2.536271e-01 2.538511e-01 2.416326e-01 2.428384e-01 2.325521e-01 2.344715e-01 2.258438e-01 2.281341e-01 2.207952e-01 2.231142e-01 2.166831e-01 2.187239e-01 2.128495e-01 2.143531e-01 2.087330e-01 2.094929e-01 2.038802e-01 
2.225129e-01 2.178591e-01 2.165069e-01 2.112465e-01 2.088646e-01 2.029091e-01 1.994981e-01 1.928128e-01 1.884143e-01 1.810129e-01 1.757042e-01 1.676416e-01 1.615280e-01 1.528920e-01 1.460982e-01 1.369991e-01 1.296595e-01 1.202217e-01 1.124726e-01 1.028283e-01 9.480625e-02 8.510366e-02 7.696310e-02 6.741459e-02 5.941182e-02 5.048440e-02 4.330989e-02 3.645124e-02 3.238908e-02 3.154139e-02 3.452662e-02 4.162538e-02 5.045884e-02 6.206072e-02 7.418728e-02 8.854550e-02 1.032800e-01 1.201017e-01 1.374771e-01 1.568831e-01 1.771027e-01 1.992742e-01 2.225089e-01 2.475364e-01 2.738145e-01 3.016041e-01 3.307313e-01 3.609348e-01 3.924357e-01 4.244044e-01 4.574882e-01 4.902556e-01 5.238164e-01 5.561197e-01 5.887776e-01 6.191203e-01 6.493054e-01 6.760594e-01 7.021305e-01 7.236625e-01 7.440433e-01 7.588417e-01 7.721498e-01 7.789289e-01 7.840775e-01 7.818418e-01 7.781051e-01 7.661819e-01 7.532369e-01 7.313039e-01 7.092743e-01 6.774222e-01 6.469520e-01 6.058157e-01 5.681797e-01 5.191557e-01 4.763899e-01 4.219547e-01 3.770119e-01 3.212682e-01 2.784024e-01 2.284573e-01 1.946383e-01 1.639533e-01 1.506532e-01 1.537183e-01 1.625740e-01 1.864860e-01 2.016327e-01 2.270858e-01 2.392256e-01 2.596410e-01 2.672343e-01 2.822465e-01 2.871286e-01 2.977325e-01 3.015128e-01 3.083750e-01 3.117570e-01 3.143692e-01 3.173299e-01 3.149442e-01 3.168282e-01 3.092237e-01 3.093036e-01 2.974155e-01 2.961169e-01 2.825279e-01 2.810698e-01 2.679892e-01 2.672548e-01 2.558395e-01 2.561337e-01 2.467120e-01 2.479389e-01 2.403740e-01 2.422473e-01 2.361934e-01 2.383713e-01 2.334171e-01 2.355692e-01 2.313078e-01 2.331432e-01 2.292048e-01 2.304811e-01 2.265470e-01 2.270723e-01 2.228801e-01 
2.052949e-01 1.999162e-01 1.990358e-01 1.932824e-01 1.912989e-01 1.851071e-01 1.820287e-01 1.753818e-01 1.712590e-01 1.641826e-01 1.591032e-01 1.516598e-01 1.457438e-01 1.380256e-01 1.314193e-01 1.235428e-01 1.164141e-01 1.085164e-01 1.010556e-01 9.329963e-02 8.573482e-02 7.833666e-02 7.098629e-02 6.429577e-02 5.771291e-02 5.241220e-02 4.769429e-02 4.509124e-02 4.404644e-02 4.565567e-02 4.947664e-02 5.534780e-02 6.333990e-02 7.244362e-02 8.358751e-02 9.530838e-02 1.091897e-01 1.234357e-01 1.400511e-01 1.569658e-01 1.764607e-01 1.962240e-01 2.187276e-01 2.414315e-01 2.669474e-01 2.925062e-01 3.208306e-01 3.489130e-01 3.795744e-01 4.095565e-01 4.417808e-01 4.727282e-01 5.054372e-01 5.361222e-01 5.679727e-01 5.969342e-01 6.263995e-01 6.520412e-01 6.775277e-01 6.982437e-01 7.182262e-01 7.325313e-01 7.456837e-01 7.523249e-01 7.576278e-01 7.556613e-01 7.524796e-01 7.413171e-01 7.294570e-01 7.089034e-01 6.886684e-01 6.589859e-01 6.312490e-01 5.932823e-01 5.595743e-01 5.149688e-01 4.775627e-01 4.291096e-01 3.910858e-01 3.432616e-01 3.086154e-01 2.683650e-01 2.421574e-01 2.187986e-01 2.058987e-01 2.049868e-01 2.046943e-01 2.191049e-01 2.243264e-01 2.422576e-01 2.472012e-01 2.624717e-01 2.658515e-01 2.774391e-01 2.807396e-01 2.889771e-01 2.919554e-01 2.974059e-01 3.005501e-01 3.017820e-01 3.053213e-01 3.011884e-01 3.044254e-01 2.946626e-01 2.963014e-01 2.818706e-01 2.820671e-01 2.662026e-01 2.662897e-01 2.513827e-01 2.522341e-01 2.393028e-01 2.411427e-01 2.303441e-01 2.330083e-01 2.241024e-01 2.272699e-01 2.198755e-01 2.231962e-01 2.169096e-01 2.200597e-01 2.145051e-01 2.172067e-01 2.120549e-01 2.140803e-01 2.090558e-01 2.102266e-01 2.051084e-01 
2.250376e-01 2.209693e-01 2.199137e-01 2.151457e-01 2.129795e-01 2.074398e-01 2.041768e-01 1.978457e-01 1.935408e-01 1.864474e-01 1.811928e-01 1.734111e-01 1.673314e-01 1.589739e-01 1.522199e-01 1.434314e-01 1.361748e-01 1.271287e-01 1.195599e-01 1.104613e-01 1.027977e-01 9.390527e-02 8.642581e-02 7.811893e-02 7.126181e-02 6.420891e-02 5.879783e-02 5.426024e-02 5.177874e-02 5.157566e-02 5.358870e-02 5.858614e-02 6.514547e-02 7.444131e-02 8.461015e-02 9.717673e-02 1.103758e-01 1.258008e-01 1.419157e-01 1.601681e-01 1.792870e-01 2.004463e-01 2.226620e-01 2.467478e-01 2.720299e-01 2.988907e-01 3.269963e-01 3.562344e-01 3.866469e-01 4.175725e-01 4.494716e-01 4.810915e-01 5.133587e-01 5.444063e-01 5.756760e-01 6.046863e-01 6.334413e-01 6.588686e-01 6.835734e-01 7.039327e-01 7.231814e-01 7.371860e-01 7.498364e-01 7.564944e-01 7.617600e-01 7.604102e-01 7.578979e-01 7.481884e-01 7.378963e-01 7.197485e-01 7.020614e-01 6.756776e-01 6.513998e-01 6.173765e-01 5.878146e-01 5.474006e-01 5.144519e-01 4.699510e-01 4.361193e-01 3.913714e-01 3.596631e-01 3.203926e-01 2.941182e-01 2.673290e-01 2.495411e-01 2.399694e-01 2.315876e-01 2.363574e-01 2.342800e-01 2.450447e-01 2.442479e-01 2.553132e-01 2.533523e-01 2.630639e-01 2.619113e-01 2.695665e-01 2.698669e-01 2.759750e-01 2.777122e-01 2.804967e-01 2.838901e-01 2.819137e-01 2.860263e-01 2.786915e-01 2.812862e-01 2.688457e-01 2.697513e-01 2.563745e-01 2.571686e-01 2.453286e-01 2.468772e-01 2.372967e-01 2.397380e-01 2.323073e-01 2.354245e-01 2.297465e-01 2.332102e-01 2.288269e-01 2.323048e-01 2.287782e-01 2.319745e-01 2.289123e-01 2.315771e-01 2.286395e-01 2.305693e-01 2.274699e-01 2.285056e-01 2.250114e-01 
2.079737e-01 2.032543e-01 2.027849e-01 1.975995e-01 1.959481e-01 1.902560e-01 1.874510e-01 1.812555e-01 1.773657e-01 1.707119e-01 1.658451e-01 1.588168e-01 1.531175e-01 1.458336e-01 1.394807e-01 1.320934e-01 1.252995e-01 1.179953e-01 1.110131e-01 1.040215e-01 9.716172e-02 9.077965e-02 8.445178e-02 7.909074e-02 7.387149e-02 7.011692e-02 6.680569e-02 6.540018e-02 6.489438e-02 6.647459e-02 6.934417e-02 7.407639e-02 8.030388e-02 8.796845e-02 9.726874e-02 1.076555e-01 1.198503e-01 1.329330e-01 1.480224e-01 1.639030e-01 1.819743e-01 2.007668e-01 2.218802e-01 2.436056e-01 2.676957e-01 2.921982e-01 3.189988e-01 3.458848e-01 3.748751e-01 4.034761e-01 4.338554e-01 4.632202e-01 4.939157e-01 5.228403e-01 5.525572e-01 5.796548e-01 6.069678e-01 6.307793e-01 6.542579e-01 6.733851e-01 6.917327e-01 7.049708e-01 7.171513e-01 7.235892e-01 7.289232e-01 7.279938e-01 7.262196e-01 7.177067e-01 7.090155e-01 6.930421e-01 6.780997e-01 6.551287e-01 6.350813e-01 6.059656e-01 5.824006e-01 5.485212e-01 5.233110e-01 4.868114e-01 4.617741e-01 4.257875e-01 4.022230e-01 3.707674e-01 3.491733e-01 3.261980e-01 3.066004e-01 2.940618e-01 2.768518e-01 2.731651e-01 2.591361e-01 2.603432e-01 2.494311e-01 2.527856e-01 2.449447e-01 2.499103e-01 2.481246e-01 2.524838e-01 2.512917e-01 2.565111e-01 2.568996e-01 2.584236e-01 2.620116e-01 2.580442e-01 2.642740e-01 2.546910e-01 2.599526e-01 2.445947e-01 2.478590e-01 2.324530e-01 2.356477e-01 2.225893e-01 2.265224e-01 2.160688e-01 2.207330e-01 2.124687e-01 2.175657e-01 2.109691e-01 2.161512e-01 2.107450e-01 2.156949e-01 2.110711e-01 2.155211e-01 2.113387e-01 2.150705e-01 2.110478e-01 2.138880e-01 2.097966e-01 2.116131e-01 2.072737e-01 
2.289605e-01 2.257246e-01 2.250934e-01 2.210296e-01 2.191746e-01 2.142306e-01 2.111817e-01 2.053553e-01 2.011831e-01 1.945219e-01 1.893365e-01 1.819367e-01 1.758859e-01 1.678886e-01 1.611545e-01 1.527434e-01 1.455402e-01 1.369405e-01 1.295156e-01 1.210002e-01 1.136445e-01 1.055542e-01 9.863100e-02 9.141936e-02 8.542290e-02 7.973234e-02 7.536845e-02 7.208053e-02 7.026128e-02 7.031875e-02 7.184671e-02 7.574416e-02 8.085993e-02 8.842478e-02 9.690555e-02 1.077439e-01 1.193597e-01 1.332493e-01 1.479477e-01 1.648570e-01 1.826914e-01 2.026456e-01 2.236455e-01 2.465907e-01 2.706492e-01 2.963490e-01 3.231402e-01 3.511064e-01 3.800324e-01 4.094897e-01 4.396615e-01 4.695508e-01 4.998104e-01 5.288386e-01 5.578290e-01 5.845685e-01 6.108537e-01 6.338882e-01 6.561103e-01 6.742045e-01 6.912514e-01 7.035058e-01 7.146500e-01 7.205871e-01 7.255571e-01 7.251005e-01 7.240658e-01 7.174154e-01 7.108947e-01 6.983551e-01 6.870961e-01 6.689398e-01 6.538243e-01 6.302839e-01 6.122717e-01 5.837450e-01 5.638002e-01 5.312848e-01 5.101947e-01 4.757788e-01 4.538815e-01 4.208577e-01 3.979734e-01 3.700646e-01 3.461187e-01 3.257843e-01 3.020675e-01 2.890521e-01 2.682554e-01 2.606897e-01 2.433506e-01 2.417482e-01 2.257497e-01 2.293551e-01 2.197944e-01 2.227110e-01 2.179455e-01 2.232670e-01 2.212429e-01 2.240949e-01 2.274323e-01 2.257392e-01 2.341763e-01 2.280998e-01 2.359986e-01 2.226717e-01 2.277783e-01 2.156799e-01 2.205524e-01 2.115651e-01 2.169468e-01 2.106838e-01 2.164728e-01 2.122133e-01 2.181159e-01 2.152365e-01 2.209593e-01 2.189597e-01 2.242471e-01 2.227201e-01 2.273571e-01 2.259641e-01 2.297730e-01 2.282300e-01 2.310662e-01 2.291364e-01 2.308866e-01 2.283776e-01 
2.118977e-01 2.080337e-01 2.081057e-01 2.036650e-01 2.024584e-01 1.974257e-01 1.949901e-01 1.893894e-01 1.858130e-01 1.797079e-01 1.751183e-01 1.686118e-01 1.631763e-01 1.564105e-01 1.503364e-01 1.434916e-01 1.370283e-01 1.303254e-01 1.237686e-01 1.174740e-01 1.111765e-01 1.056118e-01 9.999780e-02 9.554990e-02 9.112566e-02 8.824184e-02 8.557269e-02 8.470938e-02 8.432694e-02 8.584414e-02 8.811023e-02 9.219122e-02 9.724985e-02 1.039483e-01 1.118277e-01 1.211898e-01 1.319294e-01 1.440560e-01 1.577409e-01 1.727560e-01 1.894671e-01 2.074385e-01 2.271723e-01 2.480291e-01 2.706213e-01 2.940887e-01 3.191579e-01 3.447152e-01 3.716306e-01 3.984977e-01 4.263776e-01 4.535348e-01 4.812814e-01 5.075279e-01 5.339044e-01 5.579569e-01 5.817043e-01 6.023295e-01 6.223059e-01 6.384657e-01 6.537806e-01 6.647551e-01 6.748680e-01 6.803214e-01 6.850977e-01 6.850697e-01 6.848089e-01 6.796529e-01 6.750954e-01 6.653817e-01 6.576639e-01 6.440327e-01 6.345217e-01 6.174850e-01 6.074119e-01 5.872190e-01 5.771093e-01 5.538994e-01 5.430140e-01 5.173575e-01 5.035718e-01 4.770085e-01 4.574715e-01 4.322083e-01 4.047984e-01 3.822345e-01 3.476319e-01 3.271177e-01 2.907259e-01 2.717404e-01 2.410149e-01 2.282097e-01 2.048025e-01 2.028581e-01 1.991405e-01 1.967381e-01 1.881800e-01 1.949882e-01 1.884727e-01 1.899064e-01 1.918810e-01 1.868907e-01 1.985251e-01 1.902291e-01 2.035579e-01 1.872424e-01 1.963760e-01 1.835191e-01 1.922000e-01 1.832575e-01 1.920897e-01 1.858065e-01 1.945459e-01 1.899651e-01 1.983371e-01 1.948398e-01 2.026200e-01 1.997728e-01 2.067756e-01 2.042507e-01 2.103232e-01 2.078627e-01 2.128807e-01 2.102783e-01 2.141435e-01 2.112352e-01 2.138740e-01 2.105330e-01 
2.344139e-01 2.322092e-01 2.321081e-01 2.289256e-01 2.274656e-01 2.232706e-01 2.204958e-01 2.153014e-01 2.112961e-01 2.051662e-01 2.000573e-01 1.931079e-01 1.870653e-01 1.794641e-01 1.726999e-01 1.646653e-01 1.574330e-01 1.492341e-01 1.418303e-01 1.337902e-01 1.265602e-01 1.190654e-01 1.124170e-01 1.059332e-01 1.003555e-01 9.544018e-02 9.150978e-02 8.878477e-02 8.711284e-02 8.714576e-02 8.823394e-02 9.136486e-02 9.547316e-02 1.017734e-01 1.089668e-01 1.183956e-01 1.287037e-01 1.412600e-01 1.547541e-01 1.704867e-01 1.872359e-01 2.061544e-01 2.261308e-01 2.480996e-01 2.710872e-01 2.957398e-01 3.212686e-01 3.479545e-01 3.752666e-01 4.030385e-01 4.310930e-01 4.587397e-01 4.862670e-01 5.124032e-01 5.380171e-01 5.612310e-01 5.835966e-01 6.026495e-01 6.206870e-01 6.347346e-01 6.478165e-01 6.565941e-01 6.646800e-01 6.685688e-01 6.722297e-01 6.721270e-01 6.724252e-01 6.694169e-01 6.676374e-01 6.625599e-01 6.598547e-01 6.528713e-01 6.499156e-01 6.402608e-01 6.369892e-01 6.231210e-01 6.185766e-01 5.989481e-01 5.912812e-01 5.655529e-01 5.522420e-01 5.221067e-01 5.005519e-01 4.690740e-01 4.377361e-01 4.069588e-01 3.672139e-01 3.360517e-01 2.948246e-01 2.632223e-01 2.283400e-01 2.121357e-01 1.774024e-01 1.794895e-01 1.584169e-01 1.529269e-01 1.422668e-01 1.466124e-01 1.354835e-01 1.370604e-01 1.378543e-01 1.339515e-01 1.492796e-01 1.468561e-01 1.673163e-01 1.543884e-01 1.674281e-01 1.604572e-01 1.722350e-01 1.690626e-01 1.800887e-01 1.789027e-01 1.890818e-01 1.890138e-01 1.983168e-01 1.988787e-01 2.072591e-01 2.080976e-01 2.154818e-01 2.163103e-01 2.226153e-01 2.231919e-01 2.283360e-01 2.284534e-01 2.323621e-01 2.318425e-01 2.344527e-01 2.331482e-01 
2.171964e-01 2.143250e-01 2.150397e-01 2.114792e-01 2.108147e-01 2.065713e-01 2.045950e-01 1.997079e-01 1.965221e-01 1.910671e-01 1.868125e-01 1.809032e-01 1.757617e-01 1.695515e-01 1.637477e-01 1.574303e-01 1.512334e-01 1.450434e-01 1.387689e-01 1.329821e-01 1.269926e-01 1.219244e-01 1.166274e-01 1.126250e-01 1.084597e-01 1.058831e-01 1.032885e-01 1.024770e-01 1.018440e-01 1.030822e-01 1.047152e-01 1.082288e-01 1.123538e-01 1.183451e-01 1.251564e-01 1.338409e-01 1.435324e-01 1.551275e-01 1.678679e-01 1.825293e-01 1.983930e-01 2.161296e-01 2.350183e-01 2.556172e-01 2.771981e-01 3.001754e-01 3.238466e-01 3.484312e-01 3.733215e-01 3.984789e-01 4.234882e-01 4.479916e-01 4.718829e-01 4.944366e-01 5.159821e-01 5.353930e-01 5.535616e-01 5.689341e-01 5.830762e-01 5.939848e-01 6.039471e-01 6.105257e-01 6.166458e-01 6.195420e-01 6.225606e-01 6.227684e-01 6.237671e-01 6.224319e-01 6.228236e-01 6.210461e-01 6.224641e-01 6.209292e-01 6.247776e-01 6.230921e-01 6.296716e-01 6.258120e-01 6.333533e-01 6.240890e-01 6.284641e-01 6.111881e-01 6.068072e-01 5.817075e-01 5.631586e-01 5.334574e-01 4.969816e-01 4.656375e-01 4.104470e-01 3.749022e-01 3.092381e-01 2.650891e-01 2.130225e-01 1.798320e-01 1.353170e-01 1.317918e-01 1.377475e-01 1.258807e-01 9.689095e-02 1.092033e-01 8.948707e-02 8.600043e-02 8.234017e-02 7.074063e-02 8.800742e-02 7.929760e-02 1.155156e-01 1.056164e-01 1.257756e-01 1.220299e-01 1.398598e-01 1.383953e-01 1.539071e-01 1.532097e-01 1.667852e-01 1.664996e-01 1.784890e-01 1.783999e-01 1.889591e-01 1.888652e-01 1.980412e-01 1.977665e-01 2.055616e-01 2.049596e-01 2.113600e-01 2.103116e-01 2.152997e-01 2.137092e-01 2.172709e-01 2.150649e-01 
2.415205e-01 2.404920e-01 2.410029e-01 2.388423e-01 2.378503e-01 2.345326e-01 2.320886e-01 2.276343e-01 2.238300e-01 2.183115e-01 2.132844e-01 2.068302e-01 2.007663e-01 1.935627e-01 1.866974e-01 1.789880e-01 1.716059e-01 1.636906e-01 1.561244e-01 1.483576e-01 1.409886e-01 1.337775e-01 1.270349e-01 1.208343e-01 1.151905e-01 1.104878e-01 1.064380e-01 1.037144e-01 1.017320e-01 1.014019e-01 1.018807e-01 1.042453e-01 1.074761e-01 1.127438e-01 1.189557e-01 1.273112e-01 1.367211e-01 1.483561e-01 1.611551e-01 1.762149e-01 1.924910e-01 2.109727e-01 2.306142e-01 2.522665e-01 2.748836e-01 2.991328e-01 3.240089e-01 3.499244e-01 3.760038e-01 4.023116e-01 4.282381e-01 4.533998e-01 4.776248e-01 4.999978e-01 5.209743e-01 5.390584e-01 5.555174e-01 5.682674e-01 5.795306e-01 5.866861e-01 5.929276e-01 5.952667e-01 5.976222e-01 5.969937e-01 5.974567e-01 5.964200e-01 5.974852e-01 5.985212e-01 6.025185e-01 6.070575e-01 6.153607e-01 6.229561e-01 6.353938e-01 6.432863e-01 6.578819e-01 6.613038e-01 6.743157e-01 6.680003e-01 6.743758e-01 6.551883e-01 6.495021e-01 6.186746e-01 5.964864e-01 5.590075e-01 5.183114e-01 4.778157e-01 4.193117e-01 3.694654e-01 3.036893e-01 2.323280e-01 1.858913e-01 1.606575e-01 1.189582e-01 1.378902e-01 6.305591e-02 7.723385e-02 4.595245e-02 3.848957e-02 2.351399e-02 1.620539e-02 1.589973e-02 1.842016e-02 1.315324e-02 2.043213e-02 5.344147e-02 6.507705e-02 9.124392e-02 9.905058e-02 1.211229e-01 1.263625e-01 1.437623e-01 1.481736e-01 1.627443e-01 1.669324e-01 1.795268e-01 1.835283e-01 1.944802e-01 1.981716e-01 2.076109e-01 2.108423e-01 2.188155e-01 2.214420e-01 2.279560e-01 2.298416e-01 2.348827e-01 2.359019e-01 2.394480e-01 2.394889e-01 
2.239648e-01 2.221606e-01 2.235891e-01 2.210034e-01 2.209660e-01 2.176165e-01 2.161887e-01 2.121189e-01 2.094066e-01 2.046910e-01 2.008359e-01 1.955841e-01 1.907679e-01 1.851277e-01 1.795753e-01 1.737345e-01 1.677150e-01 1.619015e-01 1.557276e-01 1.502062e-01 1.442304e-01 1.392970e-01 1.339016e-01 1.298718e-01 1.254524e-01 1.226466e-01 1.195899e-01 1.183215e-01 1.169880e-01 1.175657e-01 1.182944e-01 1.210460e-01 1.241813e-01 1.294802e-01 1.353921e-01 1.436438e-01 1.526956e-01 1.642598e-01 1.767175e-01 1.917910e-01 2.077105e-01 2.262174e-01 2.453533e-01 2.668692e-01 2.886197e-01 3.123323e-01 3.357214e-01 3.604316e-01 3.841346e-01 4.083140e-01 4.307473e-01 4.526766e-01 4.721758e-01 4.901849e-01 5.052945e-01 5.180998e-01 5.279540e-01 5.350428e-01 5.397382e-01 5.416796e-01 5.424285e-01 5.409325e-01 5.397935e-01 5.373583e-01 5.366370e-01 5.358545e-01 5.376816e-01 5.406498e-01 5.469935e-01 5.551280e-01 5.678178e-01 5.814521e-01 6.015541e-01 6.187438e-01 6.451560e-01 6.605054e-01 6.885345e-01 6.939717e-01 7.154209e-01 7.040354e-01 7.094421e-01 6.805114e-01 6.620221e-01 6.229159e-01 5.757184e-01 5.365820e-01 4.544200e-01 4.108794e-01 2.933547e-01 2.150401e-01 1.514888e-01 8.453623e-02 7.401098e-02 1.106173e-01 2.435237e-02 3.231049e-02 2.766871e-02 3.306208e-02 2.347688e-02 3.269506e-02 2.467795e-02 3.004823e-02 2.347876e-02 3.548576e-02 1.491605e-02 2.638278e-02 6.443967e-02 7.179683e-02 9.845295e-02 1.026106e-01 1.233569e-01 1.267739e-01 1.441479e-01 1.472800e-01 1.622232e-01 1.650125e-01 1.779200e-01 1.802482e-01 1.913191e-01 1.930901e-01 2.024377e-01 2.035801e-01 2.112729e-01 2.117319e-01 2.178128e-01 2.175454e-01 2.220447e-01 2.210187e-01 
2.503386e-01 2.505806e-01 2.517648e-01 2.507365e-01 2.502797e-01 2.479512e-01 2.458991e-01 2.422846e-01 2.387245e-01 2.338923e-01 2.289616e-01 2.230401e-01 2.169304e-01 2.101121e-01 2.030714e-01 1.956122e-01 1.879432e-01 1.801589e-01 1.722164e-01 1.644759e-01 1.566607e-01 1.493757e-01 1.421259e-01 1.357352e-01 1.295106e-01 1.244578e-01 1.197174e-01 1.164232e-01 1.136015e-01 1.124474e-01 1.119474e-01 1.132910e-01 1.155100e-01 1.197306e-01 1.250917e-01 1.326107e-01 1.415379e-01 1.527552e-01 1.655701e-01 1.807328e-01 1.975238e-01 2.165931e-01 2.371120e-01 2.596633e-01 2.832587e-01 3.084156e-01 3.339936e-01 3.603943e-01 3.864132e-01 4.122329e-01 4.367610e-01 4.598327e-01 4.807169e-01 4.987936e-01 5.139865e-01 5.251667e-01 5.332279e-01 5.365134e-01 5.372065e-01 5.330966e-01 5.278754e-01 5.188427e-01 5.109663e-01 5.015358e-01 4.956675e-01 4.915519e-01 4.927284e-01 4.986481e-01 5.103604e-01 5.277229e-01 5.504116e-01 5.766893e-01 6.080120e-01 6.372874e-01 6.727988e-01 6.962054e-01 7.291855e-01 7.365380e-01 7.582402e-01 7.426160e-01 7.437814e-01 7.066255e-01 6.799446e-01 6.314826e-01 5.758347e-01 5.271765e-01 4.417227e-01 3.776272e-01 2.700666e-01 1.123420e-01 4.277164e-02 4.492268e-02 7.089708e-02 1.441855e-01 1.039689e-01 3.514520e-02 4.620552e-02 1.298925e-02 1.463865e-02 4.152524e-02 4.305603e-02 5.385416e-02 5.697408e-02 6.614388e-02 6.306442e-02 5.594428e-02 7.367566e-02 7.414634e-02 9.522485e-02 1.006403e-01 1.198712e-01 1.267034e-01 1.436606e-01 1.506584e-01 1.654869e-01 1.721437e-01 1.850354e-01 1.911127e-01 2.022150e-01 2.075719e-01 2.169779e-01 2.215065e-01 2.292645e-01 2.328644e-01 2.389898e-01 2.415622e-01 2.460503e-01 2.474996e-01 
2.322027e-01 2.314816e-01 2.336696e-01 2.321194e-01 2.327897e-01 2.304244e-01 2.296460e-01 2.264966e-01 2.243628e-01 2.204836e-01 2.171187e-01 2.125944e-01 2.081600e-01 2.031110e-01 1.978101e-01 1.923963e-01 1.864758e-01 1.808975e-01 1.746466e-01 1.691411e-01 1.628864e-01 1.577212e-01 1.518162e-01 1.472812e-01 1.420935e-01 1.384957e-01 1.343991e-01 1.320723e-01 1.294572e-01 1.287960e-01 1.281088e-01 1.296219e-01 1.314157e-01 1.357523e-01 1.406848e-01 1.485603e-01 1.572751e-01 1.692830e-01 1.822060e-01 1.986112e-01 2.157761e-01 2.363875e-01 2.573465e-01 2.814616e-01 3.052481e-01 3.316204e-01 3.567330e-01 3.835594e-01 4.079801e-01 4.329493e-01 4.542437e-01 4.747136e-01 4.902827e-01 5.036549e-01 5.112168e-01 5.155511e-01 5.139042e-01 5.087361e-01 4.987032e-01 4.858778e-01 4.709751e-01 4.550638e-01 4.410321e-01 4.285659e-01 4.212552e-01 4.181778e-01 4.212453e-01 4.302913e-01 4.449723e-01 4.661029e-01 4.927818e-01 5.247880e-01 5.636467e-01 6.030675e-01 6.522181e-01 6.902563e-01 7.423970e-01 7.643790e-01 8.062278e-01 7.979857e-01 8.147509e-01 7.729850e-01 7.531790e-01 6.912613e-01 6.316080e-01 5.783025e-01 4.600693e-01 4.282199e-01 1.665905e-01 5.658908e-02 7.098898e-02 3.260413e-02 1.203825e-01 1.058560e-01 1.440013e-01 1.334678e-01 1.203333e-01 1.236730e-01 1.183455e-01 1.038040e-01 1.151593e-01 8.971940e-02 1.176497e-01 8.753712e-02 1.014316e-01 6.063704e-02 7.756422e-02 6.676107e-02 8.838886e-02 8.855012e-02 1.094335e-01 1.132248e-01 1.319504e-01 1.366102e-01 1.530544e-01 1.575724e-01 1.718818e-01 1.758715e-01 1.882060e-01 1.915085e-01 2.019921e-01 2.045361e-01 2.132574e-01 2.150074e-01 2.220292e-01 2.229654e-01 2.283348e-01 2.284452e-01 
2.607937e-01 2.623621e-01 2.642693e-01 2.644665e-01 2.646172e-01 2.633889e-01 2.618062e-01 2.591413e-01 2.558925e-01 2.518368e-01 2.470435e-01 2.417085e-01 2.355536e-01 2.291218e-01 2.218508e-01 2.145748e-01 2.064940e-01 1.986901e-01 1.901602e-01 1.821963e-01 1.736219e-01 1.659011e-01 1.577168e-01 1.506567e-01 1.433096e-01 1.373231e-01 1.312593e-01 1.267477e-01 1.224175e-01 1.197988e-01 1.177027e-01 1.174867e-01 1.182502e-01 1.211133e-01 1.255048e-01 1.322444e-01 1.410260e-01 1.523405e-01 1.660060e-01 1.822433e-01 2.008345e-01 2.218607e-01 2.449124e-01 2.700632e-01 2.965794e-01 3.246013e-01 3.530064e-01 3.819830e-01 4.100734e-01 4.373945e-01 4.623580e-01 4.848263e-01 5.034239e-01 5.176099e-01 5.266433e-01 5.295722e-01 5.267425e-01 5.168944e-01 5.020055e-01 4.804651e-01 4.566130e-01 4.282073e-01 4.024000e-01 3.767276e-01 3.595773e-01 3.499970e-01 3.526746e-01 3.678997e-01 3.932537e-01 4.295459e-01 4.713901e-01 5.200333e-01 5.723094e-01 6.251731e-01 6.832919e-01 7.289335e-01 7.848061e-01 8.064331e-01 8.469183e-01 8.309253e-01 8.407992e-01 7.889641e-01 7.525004e-01 6.835255e-01 6.001562e-01 5.471847e-01 4.004044e-01 3.384338e-01 1.508663e-01 1.045814e-01 1.068984e-01 1.001727e-01 1.465276e-01 2.575556e-01 1.620525e-01 4.986480e-02 1.201971e-01 4.060086e-02 8.738891e-02 2.031575e-02 7.285506e-02 1.131585e-02 6.637800e-02 1.396635e-02 6.078147e-02 3.783283e-02 6.247696e-02 5.977216e-02 8.330244e-02 8.824676e-02 1.085257e-01 1.162377e-01 1.341271e-01 1.425523e-01 1.583740e-01 1.666363e-01 1.805601e-01 1.882747e-01 2.004144e-01 2.073864e-01 2.178133e-01 2.239158e-01 2.326639e-01 2.377893e-01 2.448615e-01 2.489047e-01 2.542827e-01 2.571384e-01 
2.417425e-01 2.420728e-01 2.450508e-01 2.445761e-01 2.460433e-01 2.447556e-01 2.447566e-01 2.426524e-01 2.412463e-01 2.383348e-01 2.356043e-01 2.319175e-01 2.279771e-01 2.235809e-01 2.185853e-01 2.135864e-01 2.077350e-01 2.022844e-01 1.958221e-01 1.901129e-01 1.833249e-01 1.775858e-01 1.707889e-01 1.652791e-01 1.588133e-01 1.538268e-01 1.480604e-01 1.439577e-01 1.393272e-01 1.366127e-01 1.337174e-01 1.331604e-01 1.328837e-01 1.355925e-01 1.391078e-01 1.463668e-01 1.548455e-01 1.676655e-01 1.818063e-01 2.005319e-01 2.203087e-01 2.445556e-01 2.692377e-01 2.979625e-01 3.261539e-01 3.576336e-01 3.872280e-01 4.189653e-01 4.470829e-01 4.757525e-01 4.987625e-01 5.203319e-01 5.340821e-01 5.442598e-01 5.446887e-01 5.398430e-01 5.241946e-01 5.027994e-01 4.715607e-01 4.360357e-01 3.952371e-01 3.539781e-01 3.165443e-01 2.855692e-01 2.684613e-01 2.653298e-01 2.763241e-01 3.003378e-01 3.307763e-01 3.701746e-01 4.129502e-01 4.635608e-01 5.198445e-01 5.813490e-01 6.536519e-01 7.176914e-01 7.984282e-01 8.411859e-01 9.091790e-01 9.028370e-01 9.358302e-01 8.713701e-01 8.508616e-01 7.432180e-01 6.810182e-01 5.926883e-01 4.735526e-01 3.743444e-01 5.936075e-02 9.534746e-02 1.205196e-01 2.660859e-01 2.837646e-01 7.275212e-02 3.563917e-02 2.608072e-02 1.198802e-02 5.403547e-02 9.729773e-03 6.379243e-02 1.560362e-02 6.761095e-02 2.555593e-02 6.516246e-02 5.177100e-02 1.306616e-02 6.014063e-02 5.599133e-02 8.435144e-02 8.612590e-02 1.079180e-01 1.120803e-01 1.307822e-01 1.358422e-01 1.523587e-01 1.574833e-01 1.720817e-01 1.768325e-01 1.896250e-01 1.937806e-01 2.048348e-01 2.082867e-01 2.176526e-01 2.203490e-01 2.280670e-01 2.299845e-01 2.360897e-01 2.372173e-01 