# vtk DataFile Version 2.0
Comment goes here
ASCII

DATASET STRUCTURED_POINTS
DIMENSIONS    128   128   1

ORIGIN    0.000   0.000   0.000
SPACING   0.0156250.015625   1.000

POINT_DATA   16384
SCALARS uMag double
LOOKUP_TABLE default

2.185415e-01 2.130197e-01 2.116669e-01 2.057121e-01 2.034529e-01 1.969547e-01 1.937664e-01 1.866690e-01 1.825713e-01 1.748679e-01 1.699166e-01 1.616406e-01 1.559187e-01 1.471336e-01 1.407402e-01 1.315269e-01 1.245649e-01 1.150072e-01 1.075691e-01 9.773869e-02 8.989166e-02 7.983173e-02 7.160313e-02 6.131300e-02 5.267618e-02 4.209738e-02 3.296000e-02 2.196507e-02 1.216080e-02 5.467511e-04 1.016806e-02 2.268080e-02 3.462215e-02 4.838096e-02 6.192540e-02 7.732803e-02 9.288782e-02 1.103525e-01 1.283397e-01 1.482631e-01 1.690411e-01 1.917441e-01 2.155690e-01 2.412338e-01 2.681885e-01 2.967914e-01 3.267201e-01 3.579676e-01 3.904186e-01 4.236982e-01 4.578878e-01 4.922425e-01 5.270493e-01 5.611891e-01 5.951889e-01 6.275423e-01 6.590848e-01 6.878918e-01 7.152138e-01 7.386473e-01 7.600073e-01 7.763069e-01 7.901212e-01 7.977175e-01 8.026798e-01 8.002963e-01 7.954724e-01 7.822051e-01 7.671072e-01 7.424945e-01 7.171498e-01 6.812515e-01 6.462736e-01 5.997680e-01 5.564238e-01 5.007066e-01 4.509463e-01 3.881866e-01 3.345878e-01 2.676860e-01 2.132837e-01 1.456916e-01 9.369919e-02 2.910078e-02 1.744669e-02 7.558450e-02 1.142518e-01 1.632493e-01 1.927324e-01 2.313011e-01 2.518921e-01 2.804529e-01 2.939958e-01 3.142232e-01 3.231376e-01 3.368234e-01 3.428371e-01 3.510214e-01 3.550370e-01 3.577543e-01 3.599287e-01 3.568779e-01 3.569514e-01 3.482905e-01 3.462044e-01 3.331234e-01 3.295845e-01 3.142487e-01 3.104421e-01 2.949847e-01 2.918783e-01 2.777151e-01 2.757664e-01 2.635301e-01 2.627640e-01 2.525304e-01 2.527209e-01 2.442551e-01 2.450728e-01 2.380033e-01 2.391015e-01 2.330215e-01 2.340795e-01 2.286001e-01 2.293413e-01 2.241174e-01 2.243161e-01 2.190582e-01 
2.363771e-01 2.319702e-01 2.302150e-01 2.251078e-01 2.225021e-01 2.165705e-01 2.130966e-01 2.062763e-01 2.019577e-01 1.942389e-01 1.891338e-01 1.805532e-01 1.747453e-01 1.653760e-01 1.589641e-01 1.489027e-01 1.419884e-01 1.313405e-01 1.240146e-01 1.128800e-01 1.052091e-01 9.366697e-02 8.568168e-02 7.378195e-02 6.547371e-02 5.324957e-02 4.460346e-02 3.221551e-02 2.354856e-02 1.335157e-02 1.205223e-02 2.156104e-02 3.209607e-02 4.731138e-02 6.033033e-02 7.766739e-02 9.289463e-02 1.124080e-01 1.301528e-01 1.521378e-01 1.727339e-01 1.974580e-01 2.211461e-01 2.487499e-01 2.755993e-01 3.060212e-01 3.358612e-01 3.687721e-01 4.011345e-01 4.358895e-01 4.699742e-01 5.055912e-01 5.402630e-01 5.754377e-01 6.092644e-01 6.424279e-01 6.737603e-01 7.031753e-01 7.302635e-01 7.541479e-01 7.752775e-01 7.919344e-01 8.055603e-01 8.134937e-01 8.183528e-01 8.163538e-01 8.115485e-01 7.987564e-01 7.838160e-01 7.597740e-01 7.347133e-01 6.994443e-01 6.648363e-01 6.189542e-01 5.760114e-01 5.208571e-01 4.714925e-01 4.092577e-01 3.560886e-01 2.899247e-01 2.362925e-01 1.707663e-01 1.217547e-01 6.943751e-02 5.293973e-02 8.142993e-02 1.142211e-01 1.598152e-01 1.886685e-01 2.263776e-01 2.469010e-01 2.753663e-01 2.885699e-01 3.092103e-01 3.174877e-01 3.320038e-01 3.373535e-01 3.467221e-01 3.501646e-01 3.544153e-01 3.560944e-01 3.548919e-01 3.544867e-01 3.478945e-01 3.452887e-01 3.343971e-01 3.303026e-01 3.172666e-01 3.129019e-01 2.998349e-01 2.961785e-01 2.844477e-01 2.819509e-01 2.721341e-01 2.708145e-01 2.629402e-01 2.625700e-01 2.563663e-01 2.566194e-01 2.516839e-01 2.522213e-01 2.481199e-01 2.486300e-01 2.449484e-01 2.451644e-01 2.415331e-01 2.412390e-01 2.373453e-01 
2.188981e-01 2.135242e-01 2.122656e-01 2.064337e-01 2.042530e-01 1.978581e-01 1.947382e-01 1.877299e-01 1.836956e-01 1.760721e-01 1.711844e-01 1.629857e-01 1.573333e-01 1.486313e-01 1.423217e-01 1.332092e-01 1.263573e-01 1.169372e-01 1.096552e-01 1.000302e-01 9.242063e-02 8.269155e-02 7.485220e-02 6.514176e-02 5.721404e-02 4.778961e-02 4.019280e-02 3.206839e-02 2.669794e-02 2.416703e-02 2.655647e-02 3.368114e-02 4.280725e-02 5.466455e-02 6.698512e-02 8.146391e-02 9.630437e-02 1.131948e-01 1.306638e-01 1.501636e-01 1.705145e-01 1.928642e-01 2.163036e-01 2.416460e-01 2.682306e-01 2.965196e-01 3.260782e-01 3.570076e-01 3.890800e-01 4.220308e-01 4.558299e-01 4.898452e-01 5.242523e-01 5.580484e-01 5.916480e-01 6.236676e-01 6.548262e-01 6.833323e-01 7.103134e-01 7.335131e-01 7.546136e-01 7.707924e-01 7.844800e-01 7.921257e-01 7.971569e-01 7.950581e-01 7.905709e-01 7.778902e-01 7.634748e-01 7.398128e-01 7.155774e-01 6.810518e-01 6.476978e-01 6.030557e-01 5.619618e-01 5.087325e-01 4.620332e-01 4.027331e-01 3.534148e-01 2.919646e-01 2.442761e-01 1.876885e-01 1.496825e-01 1.165401e-01 1.087003e-01 1.259104e-01 1.464441e-01 1.829035e-01 2.050413e-01 2.383219e-01 2.548392e-01 2.805371e-01 2.915078e-01 3.100739e-01 3.174639e-01 3.302637e-01 3.353802e-01 3.432790e-01 3.468912e-01 3.496099e-01 3.518481e-01 3.488529e-01 3.493296e-01 3.406345e-01 3.390325e-01 3.257952e-01 3.227247e-01 3.073553e-01 3.040534e-01 2.888005e-01 2.862391e-01 2.724671e-01 2.710633e-01 2.593037e-01 2.590413e-01 2.492894e-01 2.499185e-01 2.418942e-01 2.430779e-01 2.363912e-01 2.377863e-01 2.320280e-01 2.333224e-01 2.281090e-01 2.290366e-01 2.240313e-01 2.243768e-01 2.192983e-01 
2.373037e-01 2.332126e-01 2.316233e-01 2.267761e-01 2.242981e-01 2.185797e-01 2.152043e-01 2.085591e-01 2.043178e-01 1.967451e-01 1.917042e-01 1.832520e-01 1.775052e-01 1.682615e-01 1.619203e-01 1.520025e-01 1.451868e-01 1.347314e-01 1.275597e-01 1.167138e-01 1.092974e-01 9.821991e-02 9.066953e-02 7.956197e-02 7.203270e-02 6.126606e-02 5.413959e-02 4.474141e-02 3.932450e-02 3.454078e-02 3.444408e-02 3.900939e-02 4.586714e-02 5.754061e-02 6.862678e-02 8.410179e-02 9.816480e-02 1.165027e-01 1.334078e-01 1.545281e-01 1.744362e-01 1.984509e-01 2.215239e-01 2.484980e-01 2.747620e-01 3.045896e-01 3.338452e-01 3.661682e-01 3.979273e-01 4.320810e-01 4.655303e-01 5.005223e-01 5.345222e-01 5.690497e-01 6.021758e-01 6.346872e-01 6.653163e-01 6.941143e-01 7.205470e-01 7.439185e-01 7.645217e-01 7.808727e-01 7.942162e-01 8.021836e-01 8.071491e-01 8.056753e-01 8.015273e-01 7.898985e-01 7.763272e-01 7.542045e-01 7.313682e-01 6.988504e-01 6.674441e-01 6.251985e-01 5.865583e-01 5.360375e-01 4.922642e-01 4.360272e-01 3.901370e-01 3.324112e-01 2.887251e-01 2.368581e-01 2.024617e-01 1.705087e-01 1.571238e-01 1.605348e-01 1.699155e-01 1.956753e-01 2.115970e-01 2.395291e-01 2.523500e-01 2.753565e-01 2.833354e-01 3.008188e-01 3.057308e-01 3.185363e-01 3.219407e-01 3.307108e-01 3.333258e-01 3.375800e-01 3.394380e-01 3.384253e-01 3.389183e-01 3.323825e-01 3.308184e-01 3.196855e-01 3.165730e-01 3.035400e-01 3.002150e-01 2.876248e-01 2.850692e-01 2.741716e-01 2.727554e-01 2.639248e-01 2.635895e-01 2.567007e-01 2.571784e-01 2.518757e-01 2.528318e-01 2.486808e-01 2.497860e-01 2.463497e-01 2.473108e-01 2.441853e-01 2.447556e-01 2.415863e-01 2.415686e-01 2.380573e-01 
2.199999e-01 2.150591e-01 2.140762e-01 2.086052e-01 2.066550e-01 2.005646e-01 1.976456e-01 1.908996e-01 1.870507e-01 1.796621e-01 1.749581e-01 1.669840e-01 1.615295e-01 1.530643e-01 1.469876e-01 1.381558e-01 1.316021e-01 1.225532e-01 1.156813e-01 1.065906e-01 9.957915e-02 9.066539e-02 8.374190e-02 7.532768e-02 6.885785e-02 6.153280e-02 5.624520e-02 5.120847e-02 4.855050e-02 4.775865e-02 4.950728e-02 5.414731e-02 6.056419e-02 6.975024e-02 7.986657e-02 9.244605e-02 1.056392e-01 1.211478e-01 1.372981e-01 1.557031e-01 1.749100e-01 1.963129e-01 2.186890e-01 2.431463e-01 2.686874e-01 2.960957e-01 3.245890e-01 3.546038e-01 3.855627e-01 4.175437e-01 4.501698e-01 4.831576e-01 5.163379e-01 5.490673e-01 5.814140e-01 6.123714e-01 6.423048e-01 6.698270e-01 6.956966e-01 7.180995e-01 7.383254e-01 7.540411e-01 7.672523e-01 7.749501e-01 7.801000e-01 7.787728e-01 7.752229e-01 7.642408e-01 7.518185e-01 7.309705e-01 7.100226e-01 6.795810e-01 6.510401e-01 6.118874e-01 5.773544e-01 5.312064e-01 4.930286e-01 4.427908e-01 4.041242e-01 3.544601e-01 3.193799e-01 2.775605e-01 2.512249e-01 2.270977e-01 2.144515e-01 2.140238e-01 2.142602e-01 2.302363e-01 2.360216e-01 2.560767e-01 2.614188e-01 2.789480e-01 2.824472e-01 2.962083e-01 2.993504e-01 3.095260e-01 3.119536e-01 3.191360e-01 3.213753e-01 3.241493e-01 3.265236e-01 3.237153e-01 3.255809e-01 3.168562e-01 3.169215e-01 3.031873e-01 3.016689e-01 2.862936e-01 2.846372e-01 2.701596e-01 2.693304e-01 2.568611e-01 2.571416e-01 2.468782e-01 2.481369e-01 2.398459e-01 2.417770e-01 2.350641e-01 2.373221e-01 2.317592e-01 2.340196e-01 2.292002e-01 2.311812e-01 2.267425e-01 2.282112e-01 2.238425e-01 2.246149e-01 2.200601e-01 
2.392128e-01 2.357344e-01 2.344653e-01 2.301240e-01 2.278940e-01 2.225911e-01 2.194074e-01 2.131023e-01 2.090106e-01 2.017191e-01 1.968001e-01 1.885900e-01 1.829542e-01 1.739396e-01 1.677206e-01 1.580553e-01 1.514033e-01 1.412747e-01 1.343523e-01 1.239807e-01 1.169648e-01 1.066184e-01 9.971987e-02 8.976571e-02 8.329199e-02 7.433317e-02 6.884710e-02 6.201893e-02 5.862866e-02 5.587614e-02 5.622149e-02 5.935279e-02 6.430633e-02 7.307804e-02 8.208299e-02 9.513808e-02 1.075208e-01 1.240084e-01 1.395441e-01 1.591854e-01 1.779096e-01 2.006651e-01 2.226497e-01 2.484818e-01 2.736863e-01 3.024143e-01 3.305852e-01 3.617919e-01 3.923962e-01 4.253720e-01 4.575633e-01 4.912877e-01 5.239112e-01 5.570784e-01 5.887221e-01 6.198136e-01 6.489070e-01 6.763084e-01 7.012599e-01 7.234065e-01 7.427590e-01 7.582797e-01 7.708524e-01 7.786769e-01 7.836650e-01 7.830683e-01 7.800856e-01 7.706741e-01 7.597495e-01 7.414273e-01 7.229957e-01 6.959737e-01 6.709031e-01 6.358164e-01 6.054867e-01 5.636642e-01 5.300550e-01 4.839411e-01 4.496446e-01 4.033040e-01 3.714135e-01 3.308990e-01 3.047827e-01 2.774821e-01 2.601472e-01 2.510027e-01 2.431536e-01 2.491218e-01 2.474282e-01 2.598510e-01 2.591761e-01 2.721107e-01 2.699340e-01 2.816333e-01 2.800466e-01 2.894772e-01 2.890219e-01 2.967213e-01 2.973915e-01 3.016812e-01 3.037944e-01 3.032100e-01 3.058887e-01 2.997126e-01 3.006925e-01 2.890275e-01 2.881826e-01 2.753801e-01 2.743968e-01 2.631000e-01 2.629253e-01 2.539468e-01 2.547712e-01 2.480331e-01 2.496701e-01 2.447741e-01 2.469099e-01 2.433794e-01 2.456886e-01 2.430578e-01 2.452466e-01 2.430904e-01 2.449091e-01 2.428525e-01 2.440969e-01 2.418170e-01 2.423270e-01 2.395547e-01 
2.219209e-01 2.176688e-01 2.171237e-01 2.122300e-01 2.106499e-01 2.050483e-01 2.024548e-01 1.961291e-01 1.925807e-01 1.855643e-01 1.811542e-01 1.735274e-01 1.683806e-01 1.602674e-01 1.545373e-01 1.461024e-01 1.399686e-01 1.314164e-01 1.250864e-01 1.166669e-01 1.103871e-01 1.024154e-01 9.649849e-02 8.939936e-02 8.428006e-02 7.866125e-02 7.497374e-02 7.167919e-02 7.026544e-02 7.022429e-02 7.187718e-02 7.563701e-02 8.068812e-02 8.816181e-02 9.650342e-02 1.073381e-01 1.188049e-01 1.327733e-01 1.473343e-01 1.643901e-01 1.821079e-01 2.022755e-01 2.231959e-01 2.464457e-01 2.704934e-01 2.966403e-01 3.235366e-01 3.521668e-01 3.813724e-01 4.117977e-01 4.424836e-01 4.737280e-01 5.047839e-01 5.356079e-01 5.656925e-01 5.946604e-01 6.222963e-01 6.478849e-01 6.715888e-01 6.923232e-01 7.107519e-01 7.253440e-01 7.374294e-01 7.448884e-01 7.499417e-01 7.496355e-01 7.474133e-01 7.390840e-01 7.298225e-01 7.135775e-01 6.980078e-01 6.743222e-01 6.536669e-01 6.234397e-01 5.993665e-01 5.640749e-01 5.385364e-01 5.004955e-01 4.753843e-01 4.379916e-01 4.146601e-01 3.822645e-01 3.612019e-01 3.380324e-01 3.191431e-01 3.071997e-01 2.906232e-01 2.880752e-01 2.743258e-01 2.768901e-01 2.657766e-01 2.705158e-01 2.620741e-01 2.685395e-01 2.661012e-01 2.717610e-01 2.695135e-01 2.760753e-01 2.751431e-01 2.780607e-01 2.802544e-01 2.776576e-01 2.824925e-01 2.741040e-01 2.778716e-01 2.632437e-01 2.648985e-01 2.500176e-01 2.515901e-01 2.390443e-01 2.414181e-01 2.315470e-01 2.347637e-01 2.271721e-01 2.309610e-01 2.251182e-01 2.291445e-01 2.245503e-01 2.285008e-01 2.247182e-01 2.283252e-01 2.249801e-01 2.280241e-01 2.247996e-01 2.271064e-01 2.237381e-01 2.251749e-01 2.214476e-01 
2.421999e-01 2.395959e-01 2.387794e-01 2.351645e-01 2.332894e-01 2.285847e-01 2.256777e-01 2.198604e-01 2.159841e-01 2.090893e-01 2.043414e-01 1.964612e-01 1.909713e-01 1.822517e-01 1.761784e-01 1.668162e-01 1.603434e-01 1.505833e-01 1.439195e-01 1.340571e-01 1.274403e-01 1.178369e-01 1.115534e-01 1.026751e-01 9.710179e-02 8.959396e-02 8.527213e-02 8.004731e-02 7.774245e-02 7.592717e-02 7.650146e-02 7.899077e-02 8.299630e-02 8.993037e-02 9.741409e-02 1.083724e-01 1.191876e-01 1.337502e-01 1.478378e-01 1.657926e-01 1.831867e-01 2.044409e-01 2.251576e-01 2.495879e-01 2.735102e-01 3.008396e-01 3.276290e-01 3.573429e-01 3.863814e-01 4.176816e-01 4.480502e-01 4.798512e-01 5.103509e-01 5.413235e-01 5.705477e-01 5.992148e-01 6.256728e-01 6.505531e-01 6.728348e-01 6.926151e-01 7.095672e-01 7.232644e-01 7.341391e-01 7.411969e-01 7.457311e-01 7.460104e-01 7.444123e-01 7.380728e-01 7.309238e-01 7.182531e-01 7.063751e-01 6.876521e-01 6.720009e-01 6.474966e-01 6.291002e-01 5.993075e-01 5.791955e-01 5.452962e-01 5.243198e-01 4.886880e-01 4.672314e-01 4.334940e-01 4.113578e-01 3.834652e-01 3.604201e-01 3.407589e-01 3.177676e-01 3.057015e-01 2.850745e-01 2.783876e-01 2.605264e-01 2.597448e-01 2.425416e-01 2.476078e-01 2.369285e-01 2.408631e-01 2.347931e-01 2.411324e-01 2.375806e-01 2.417443e-01 2.435312e-01 2.433245e-01 2.503249e-01 2.456863e-01 2.521226e-01 2.396016e-01 2.431419e-01 2.316639e-01 2.349385e-01 2.266031e-01 2.304194e-01 2.249097e-01 2.292162e-01 2.258163e-01 2.303488e-01 2.284157e-01 2.328964e-01 2.319017e-01 2.360830e-01 2.355872e-01 2.392594e-01 2.388897e-01 2.418796e-01 2.413163e-01 2.434846e-01 2.424543e-01 2.436930e-01 2.419671e-01 
2.247676e-01 2.214137e-01 2.214379e-01 2.173055e-01 2.162171e-01 2.112643e-01 2.091105e-01 2.033422e-01 2.002019e-01 1.936720e-01 1.896559e-01 1.824679e-01 1.777179e-01 1.700247e-01 1.647140e-01 1.567173e-01 1.510506e-01 1.430013e-01 1.372184e-01 1.294203e-01 1.238038e-01 1.166223e-01 1.115113e-01 1.053872e-01 1.011945e-01 9.665093e-02 9.386857e-02 9.148228e-02 9.064205e-02 9.094242e-02 9.251251e-02 9.584251e-02 1.001282e-01 1.066034e-01 1.137599e-01 1.233770e-01 1.335062e-01 1.462649e-01 1.594723e-01 1.753991e-01 1.917696e-01 2.108593e-01 2.303876e-01 2.525204e-01 2.750365e-01 2.999051e-01 3.250156e-01 3.520758e-01 3.791287e-01 4.075801e-01 4.356609e-01 4.644614e-01 4.924293e-01 5.203485e-01 5.469163e-01 5.726304e-01 5.964867e-01 6.187074e-01 6.386645e-01 6.562840e-01 6.714207e-01 6.836402e-01 6.934095e-01 6.998151e-01 7.041075e-01 7.046753e-01 7.038492e-01 6.988933e-01 6.937752e-01 6.838534e-01 6.756777e-01 6.614424e-01 6.516633e-01 6.336691e-01 6.235765e-01 6.021686e-01 5.923122e-01 5.678122e-01 5.574523e-01 5.307146e-01 5.177166e-01 4.906113e-01 4.720932e-01 4.470466e-01 4.207603e-01 3.990837e-01 3.653782e-01 3.459681e-01 3.097296e-01 2.914907e-01 2.598461e-01 2.471530e-01 2.219852e-01 2.207459e-01 2.158494e-01 2.135699e-01 2.031529e-01 2.107707e-01 2.023068e-01 2.049604e-01 2.052253e-01 2.017134e-01 2.120160e-01 2.053494e-01 2.175122e-01 2.019816e-01 2.097866e-01 1.975494e-01 2.048218e-01 1.965608e-01 2.040050e-01 1.985121e-01 2.059478e-01 2.022533e-01 2.094354e-01 2.068928e-01 2.136089e-01 2.117552e-01 2.178245e-01 2.163005e-01 2.215729e-01 2.200871e-01 2.244424e-01 2.227533e-01 2.260989e-01 2.240056e-01 2.262751e-01 2.236144e-01 
2.463797e-01 2.448645e-01 2.446033e-01 2.419030e-01 2.404727e-01 2.365252e-01 2.339709e-01 2.287690e-01 2.251684e-01 2.187647e-01 2.142297e-01 2.067392e-01 2.014159e-01 1.930164e-01 1.870844e-01 1.780144e-01 1.716859e-01 1.622435e-01 1.557639e-01 1.463075e-01 1.399595e-01 1.309144e-01 1.250275e-01 1.169005e-01 1.118686e-01 1.052659e-01 1.015645e-01 9.718716e-02 9.536426e-02 9.392412e-02 9.452210e-02 9.655788e-02 9.998594e-02 1.057184e-01 1.122048e-01 1.216072e-01 1.312816e-01 1.442657e-01 1.572395e-01 1.737431e-01 1.900967e-01 2.100382e-01 2.297451e-01 2.529252e-01 2.757652e-01 3.017752e-01 3.272672e-01 3.554276e-01 3.827915e-01 4.121319e-01 4.402916e-01 4.695774e-01 4.972150e-01 5.250313e-01 5.507025e-01 5.755971e-01 5.979074e-01 6.185861e-01 6.364068e-01 6.519561e-01 6.646358e-01 6.747146e-01 6.822280e-01 6.871462e-01 6.901244e-01 6.907260e-01 6.903310e-01 6.876697e-01 6.853042e-01 6.802001e-01 6.771207e-01 6.697303e-01 6.666741e-01 6.562433e-01 6.531530e-01 6.382044e-01 6.340930e-01 6.132536e-01 6.062416e-01 5.794937e-01 5.670653e-01 5.365098e-01 5.160871e-01 4.850603e-01 4.550216e-01 4.253876e-01 3.867218e-01 3.566430e-01 3.155669e-01 2.841351e-01 2.481251e-01 2.308958e-01 1.931708e-01 1.968824e-01 1.736327e-01 1.676663e-01 1.550721e-01 1.594769e-01 1.462393e-01 1.489098e-01 1.477778e-01 1.455094e-01 1.594676e-01 1.591617e-01 1.787821e-01 1.667110e-01 1.786737e-01 1.724696e-01 1.829345e-01 1.806408e-01 1.903001e-01 1.901223e-01 1.989722e-01 2.000099e-01 2.080588e-01 2.097898e-01 2.170094e-01 2.190491e-01 2.253780e-01 2.274088e-01 2.327747e-01 2.345222e-01 2.388553e-01 2.400775e-01 2.433168e-01 2.437999e-01 2.458971e-01 2.454565e-01 
2.286481e-01 2.263449e-01 2.270323e-01 2.238065e-01 2.233108e-01 2.191406e-01 2.175319e-01 2.124380e-01 2.098104e-01 2.038614e-01 2.003352e-01 1.936509e-01 1.893746e-01 1.821286e-01 1.772805e-01 1.697006e-01 1.644921e-01 1.568591e-01 1.515379e-01 1.441850e-01 1.390393e-01 1.323490e-01 1.277111e-01 1.221085e-01 1.183533e-01 1.142888e-01 1.118218e-01 1.097373e-01 1.089668e-01 1.092491e-01 1.105504e-01 1.134982e-01 1.171951e-01 1.230281e-01 1.294020e-01 1.382982e-01 1.475998e-01 1.597102e-01 1.721379e-01 1.875497e-01 2.031918e-01 2.218572e-01 2.406207e-01 2.622842e-01 2.838343e-01 3.079799e-01 3.317029e-01 3.575342e-01 3.825338e-01 4.089947e-01 4.341305e-01 4.599735e-01 4.839537e-01 5.078616e-01 5.293953e-01 5.501479e-01 5.681444e-01 5.848099e-01 5.985803e-01 6.106848e-01 6.200733e-01 6.276914e-01 6.330813e-01 6.367981e-01 6.390245e-01 6.397822e-01 6.400612e-01 6.389751e-01 6.388735e-01 6.370355e-01 6.383223e-01 6.364177e-01 6.405646e-01 6.382032e-01 6.454715e-01 6.406565e-01 6.491385e-01 6.387517e-01 6.441644e-01 6.258764e-01 6.225837e-01 5.970205e-01 5.797172e-01 5.504931e-01 5.154968e-01 4.855253e-01 4.316886e-01 3.976765e-01 3.322507e-01 2.886568e-01 2.347688e-01 1.995100e-01 1.510970e-01 1.477965e-01 1.520167e-01 1.380464e-01 1.054804e-01 1.186099e-01 9.619261e-02 9.351019e-02 8.803461e-02 7.764074e-02 9.386717e-02 8.737954e-02 1.239233e-01 1.150761e-01 1.344728e-01 1.316434e-01 1.483105e-01 1.478855e-01 1.622000e-01 1.626355e-01 1.750624e-01 1.759626e-01 1.868794e-01 1.880019e-01 1.975768e-01 1.986974e-01 2.069858e-01 2.079027e-01 2.149157e-01 2.154529e-01 2.211885e-01 2.211929e-01 2.256487e-01 2.249877e-01 2.281676e-01 2.267293e-01 
2.518466e-01 2.515823e-01 2.519464e-01 2.503151e-01 2.494027e-01 2.463499e-01 2.442182e-01 2.397433e-01 2.364780e-01 2.306438e-01 2.263635e-01 2.193014e-01 2.141596e-01 2.060728e-01 2.002600e-01 1.914221e-01 1.851664e-01 1.759190e-01 1.694874e-01 1.602360e-01 1.539360e-01 1.451458e-01 1.393282e-01 1.315180e-01 1.265774e-01 1.203071e-01 1.166767e-01 1.125159e-01 1.106481e-01 1.091189e-01 1.094495e-01 1.109618e-01 1.138777e-01 1.187075e-01 1.245428e-01 1.328729e-01 1.419202e-01 1.538855e-01 1.663761e-01 1.820463e-01 1.980866e-01 2.173904e-01 2.368772e-01 2.595096e-01 2.820546e-01 3.074028e-01 3.322810e-01 3.593845e-01 3.855171e-01 4.130781e-01 4.390667e-01 4.655257e-01 4.897594e-01 5.134517e-01 5.343059e-01 5.537032e-01 5.698302e-01 5.838491e-01 5.945156e-01 6.028473e-01 6.082271e-01 6.115989e-01 6.129095e-01 6.131308e-01 6.125336e-01 6.121444e-01 6.123561e-01 6.138280e-01 6.173873e-01 6.221253e-01 6.305252e-01 6.380274e-01 6.510799e-01 6.585133e-01 6.740924e-01 6.766466e-01 6.907848e-01 6.832849e-01 6.907382e-01 6.704045e-01 6.657279e-01 6.344231e-01 6.133837e-01 5.766969e-01 5.375156e-01 4.989956e-01 4.420334e-01 3.939898e-01 3.285072e-01 2.569453e-01 2.094241e-01 1.787822e-01 1.310226e-01 1.545407e-01 7.313949e-02 8.629533e-02 5.065433e-02 4.251336e-02 2.523170e-02 1.624192e-02 1.614876e-02 1.723911e-02 1.341627e-02 1.947539e-02 5.839727e-02 7.153526e-02 9.733202e-02 1.064397e-01 1.274425e-01 1.340495e-01 1.502670e-01 1.560822e-01 1.694576e-01 1.750696e-01 1.864967e-01 1.919293e-01 2.017659e-01 2.068801e-01 2.152749e-01 2.199001e-01 2.269186e-01 2.308828e-01 2.365534e-01 2.396887e-01 2.440221e-01 2.461670e-01 2.491675e-01 2.501725e-01 
2.336257e-01 2.324653e-01 2.338698e-01 2.316583e-01 2.318381e-01 2.285624e-01 2.276017e-01 2.232866e-01 2.212837e-01 2.160000e-01 2.130704e-01 2.069416e-01 2.032215e-01 1.964278e-01 1.920793e-01 1.848580e-01 1.800743e-01 1.727178e-01 1.677281e-01 1.605782e-01 1.556518e-01 1.490896e-01 1.445371e-01 1.389688e-01 1.351380e-01 1.309758e-01 1.282436e-01 1.258863e-01 1.246483e-01 1.244711e-01 1.251379e-01 1.275010e-01 1.305003e-01 1.357660e-01 1.415356e-01 1.500619e-01 1.590048e-01 1.710878e-01 1.834866e-01 1.992626e-01 2.151795e-01 2.345239e-01 2.537165e-01 2.761665e-01 2.980318e-01 3.227419e-01 3.462921e-01 3.720321e-01 3.959135e-01 4.211254e-01 4.437017e-01 4.666396e-01 4.861689e-01 5.051402e-01 5.200704e-01 5.337744e-01 5.431457e-01 5.510574e-01 5.549129e-01 5.575939e-01 5.571807e-01 5.563380e-01 5.538654e-01 5.519970e-01 5.500208e-01 5.497151e-01 5.506533e-01 5.539957e-01 5.600675e-01 5.684468e-01 5.816227e-01 5.953180e-01 6.166270e-01 6.335966e-01 6.616900e-01 6.764128e-01 7.061879e-01 7.105456e-01 7.334123e-01 7.207353e-01 7.271422e-01 6.973770e-01 6.798841e-01 6.412549e-01 5.956898e-01 5.585664e-01 4.784256e-01 4.372119e-01 3.203533e-01 2.438549e-01 1.760663e-01 1.047247e-01 8.953998e-02 1.213556e-01 2.371934e-02 3.275242e-02 2.831757e-02 3.409551e-02 2.514049e-02 3.397405e-02 2.647704e-02 3.102176e-02 2.514158e-02 3.676313e-02 1.339825e-02 2.869022e-02 6.656626e-02 7.615007e-02 1.020380e-01 1.079479e-01 1.277300e-01 1.327422e-01 1.491151e-01 1.537727e-01 1.677307e-01 1.720028e-01 1.839649e-01 1.877367e-01 1.979191e-01 2.010824e-01 2.096166e-01 2.120763e-01 2.190533e-01 2.207220e-01 2.262124e-01 2.270084e-01 2.310743e-01 2.309231e-01 
2.586194e-01 2.597203e-01 2.607489e-01 2.603142e-01 2.599811e-01 2.579471e-01 2.563098e-01 2.526680e-01 2.498081e-01 2.446179e-01 2.406471e-01 2.340450e-01 2.291097e-01 2.213137e-01 2.155988e-01 2.069070e-01 2.006385e-01 1.914237e-01 1.848705e-01 1.755699e-01 1.690447e-01 1.601462e-01 1.540045e-01 1.460285e-01 1.406651e-01 1.341404e-01 1.299819e-01 1.254177e-01 1.229130e-01 1.207758e-01 1.203917e-01 1.211036e-01 1.233274e-01 1.272888e-01 1.326220e-01 1.402239e-01 1.491334e-01 1.607123e-01 1.735330e-01 1.892673e-01 2.060913e-01 2.258852e-01 2.464694e-01 2.698539e-01 2.935523e-01 3.196140e-01 3.453301e-01 3.726737e-01 3.988453e-01 4.256157e-01 4.502632e-01 4.742668e-01 4.951544e-01 5.141207e-01 5.290846e-01 5.410901e-01 5.485572e-01 5.525807e-01 5.522122e-01 5.487342e-01 5.419891e-01 5.334878e-01 5.238218e-01 5.148819e-01 5.073702e-01 5.038078e-01 5.039919e-01 5.105700e-01 5.222743e-01 5.402835e-01 5.639498e-01 5.906491e-01 6.236859e-01 6.529469e-01 6.905287e-01 7.132931e-01 7.482342e-01 7.542449e-01 7.773686e-01 7.600481e-01 7.619768e-01 7.237795e-01 6.976614e-01 6.501981e-01 5.958006e-01 5.507188e-01 4.669631e-01 4.063575e-01 2.983177e-01 1.406086e-01 7.037028e-02 5.105748e-02 6.902422e-02 1.478514e-01 1.110048e-01 3.720090e-02 4.909976e-02 1.416552e-02 1.396333e-02 4.394621e-02 4.337771e-02 5.662032e-02 5.759282e-02 6.873516e-02 6.422022e-02 5.755507e-02 7.471572e-02 7.721425e-02 9.734686e-02 1.046945e-01 1.228277e-01 1.314601e-01 1.472733e-01 1.559936e-01 1.696668e-01 1.779969e-01 1.897477e-01 1.974565e-01 2.074568e-01 2.143949e-01 2.227653e-01 2.288031e-01 2.356238e-01 2.406303e-01 2.459542e-01 2.497927e-01 2.536555e-01 2.561888e-01 
2.396584e-01 2.396775e-01 2.418169e-01 2.406976e-01 2.416245e-01 2.393444e-01 2.391443e-01 2.357141e-01 2.344725e-01 2.299468e-01 2.277525e-01 2.222395e-01 2.191906e-01 2.128577e-01 2.090709e-01 2.021460e-01 1.977662e-01 1.905338e-01 1.857438e-01 1.785363e-01 1.735643e-01 1.667494e-01 1.618734e-01 1.558392e-01 1.513897e-01 1.465339e-01 1.428969e-01 1.396290e-01 1.372582e-01 1.360235e-01 1.354639e-01 1.367847e-01 1.386893e-01 1.431827e-01 1.482729e-01 1.565838e-01 1.655171e-01 1.781561e-01 1.913427e-01 2.085083e-01 2.259657e-01 2.474237e-01 2.686995e-01 2.937155e-01 3.178445e-01 3.451387e-01 3.706140e-01 3.983425e-01 4.231205e-01 4.489257e-01 4.705128e-01 4.917057e-01 5.073982e-01 5.213377e-01 5.287003e-01 5.334140e-01 5.310621e-01 5.260729e-01 5.146823e-01 5.018627e-01 4.849661e-01 4.689888e-01 4.526566e-01 4.402490e-01 4.309824e-01 4.282883e-01 4.304128e-01 4.401643e-01 4.552177e-01 4.771595e-01 5.054348e-01 5.381218e-01 5.794991e-01 6.192793e-01 6.714066e-01 7.092211e-01 7.641098e-01 7.849893e-01 8.285956e-01 8.184624e-01 8.356957e-01 7.922340e-01 7.723917e-01 7.107172e-01 6.524753e-01 6.023824e-01 4.872891e-01 4.569660e-01 1.991361e-01 9.149064e-02 9.162627e-02 3.250479e-02 1.286113e-01 1.058764e-01 1.508942e-01 1.410095e-01 1.247141e-01 1.290427e-01 1.213463e-01 1.083242e-01 1.176087e-01 9.352266e-02 1.198814e-01 9.162800e-02 1.035264e-01 6.146691e-02 7.724482e-02 6.778095e-02 8.853384e-02 9.054366e-02 1.105383e-01 1.161491e-01 1.339349e-01 1.403336e-01 1.558066e-01 1.620028e-01 1.753343e-01 1.809526e-01 1.923270e-01 1.972010e-01 2.067699e-01 2.108051e-01 2.186919e-01 2.218170e-01 2.281268e-01 2.302771e-01 2.351059e-01 2.362190e-01 
2.665755e-01 2.691211e-01 2.708317e-01 2.717083e-01 2.720140e-01 2.711261e-01 2.700695e-01 2.673791e-01 2.650206e-01 2.605649e-01 2.569907e-01 2.508948e-01 2.462236e-01 2.387064e-01 2.330954e-01 2.244670e-01 2.181166e-01 2.087679e-01 2.019253e-01 1.923112e-01 1.852714e-01 1.758884e-01 1.689945e-01 1.603561e-01 1.539986e-01 1.466119e-01 1.412327e-01 1.355888e-01 1.316973e-01 1.282913e-01 1.264998e-01 1.258879e-01 1.269432e-01 1.297925e-01 1.345330e-01 1.415693e-01 1.507513e-01 1.625732e-01 1.766467e-01 1.935231e-01 2.124995e-01 2.342512e-01 2.576632e-01 2.835957e-01 3.104611e-01 3.392882e-01 3.680430e-01 3.978075e-01 4.262418e-01 4.542879e-01 4.795483e-01 5.026338e-01 5.213860e-01 5.360407e-01 5.449207e-01 5.481319e-01 5.446075e-01 5.348193e-01 5.184473e-01 4.967236e-01 4.704897e-01 4.417167e-01 4.129264e-01 3.869973e-01 3.672648e-01 3.581336e-01 3.600099e-01 3.765491e-01 4.031353e-01 4.408241e-01 4.851153e-01 5.346858e-01 5.900475e-01 6.432654e-01 7.047451e-01 7.499507e-01 8.088661e-01 8.288795e-01 8.712904e-01 8.526279e-01 8.628604e-01 8.087919e-01 7.716713e-01 7.037410e-01 6.209282e-01 5.757161e-01 4.309596e-01 3.800836e-01 1.860259e-01 1.325067e-01 1.077089e-01 1.100584e-01 1.516446e-01 2.752750e-01 1.690167e-01 5.313429e-02 1.229313e-01 4.202386e-02 8.862045e-02 2.054590e-02 7.361040e-02 1.151333e-02 6.726985e-02 1.341458e-02 6.078994e-02 4.022651e-02 6.139529e-02 6.066606e-02 8.281029e-02 8.974751e-02 1.088240e-01 1.184588e-01 1.351299e-01 1.454136e-01 1.599883e-01 1.700666e-01 1.827311e-01 1.922270e-01 2.031210e-01 2.118307e-01 2.210591e-01 2.288322e-01 2.364718e-01 2.431655e-01 2.492710e-01 2.547363e-01 2.593472e-01 2.634287e-01 
2.465317e-01 2.477245e-01 2.505891e-01 2.506239e-01 2.523707e-01 2.511935e-01 2.518942e-01 2.494775e-01 2.491825e-01 2.455399e-01 2.442816e-01 2.394808e-01 2.372845e-01 2.314562e-01 2.283561e-01 2.216966e-01 2.177537e-01 2.105200e-01 2.058392e-01 1.983380e-01 1.930825e-01 1.856547e-01 1.800556e-01 1.730644e-01 1.674304e-01 1.612603e-01 1.559961e-01 1.510807e-01 1.467293e-01 1.436247e-01 1.409432e-01 1.404348e-01 1.404632e-01 1.436147e-01 1.476048e-01 1.555838e-01 1.646702e-01 1.783484e-01 1.931408e-01 2.127770e-01 2.331910e-01 2.583759e-01 2.836707e-01 3.133515e-01 3.421448e-01 3.745722e-01 4.047711e-01 4.373970e-01 4.661159e-01 4.955463e-01 5.191089e-01 5.412327e-01 5.553765e-01 5.658209e-01 5.662808e-01 5.613350e-01 5.450456e-01 5.231160e-01 4.901971e-01 4.536785e-01 4.099208e-01 3.673327e-01 3.260112e-01 2.939706e-01 2.738015e-01 2.711311e-01 2.820379e-01 3.077770e-01 3.404048e-01 3.813211e-01 4.272978e-01 4.788934e-01 5.390534e-01 6.012318e-01 6.779071e-01 7.421435e-01 8.269519e-01 8.686776e-01 9.390198e-01 9.300288e-01 9.626959e-01 8.953931e-01 8.727084e-01 7.653400e-01 7.034859e-01 6.238534e-01 5.115357e-01 4.158714e-01 8.796305e-02 9.339801e-02 1.385573e-01 2.733961e-01 2.987533e-01 7.815224e-02 4.628040e-02 2.415057e-02 9.975367e-03 5.645955e-02 9.854599e-03 6.550672e-02 1.648099e-02 6.911220e-02 2.663571e-02 6.658509e-02 4.957056e-02 1.017643e-02 5.761237e-02 5.498432e-02 8.261065e-02 8.600921e-02 1.069113e-01 1.127498e-01 1.304716e-01 1.372346e-01 1.527038e-01 1.595463e-01 1.730524e-01 1.795232e-01 1.912044e-01 1.970597e-01 2.070184e-01 2.121145e-01 2.204470e-01 2.246850e-01 2.314914e-01 2.347897e-01 2.401757e-01 2.424582e-01 