# vtk DataFile Version 2.0
Comment goes here
ASCII

DATASET STRUCTURED_POINTS
DIMENSIONS    128   128   1

ORIGIN    0.000   0.000   0.000
SPACING   0.0156250.015625   1.000

POINT_DATA   16384
SCALARS uMag double
LOOKUP_TABLE default

3.827262e-02 4.055474e-02 4.118297e-02 4.286320e-02 4.312283e-02 4.419255e-02 4.409578e-02 4.455428e-02 4.411829e-02 4.397427e-02 4.322187e-02 4.249485e-02 4.145516e-02 4.017661e-02 3.888558e-02 3.709968e-02 3.560051e-02 3.336472e-02 3.170822e-02 2.909349e-02 2.733852e-02 2.442944e-02 2.264338e-02 1.953819e-02 1.779759e-02 1.460807e-02 1.299913e-02 9.850222e-03 8.469154e-03 5.498017e-03 4.450605e-03 1.804772e-03 1.204890e-03 9.611130e-04 9.948103e-04 2.524880e-03 1.874614e-03 2.619257e-03 1.176804e-03 1.004393e-03 1.317045e-03 2.505718e-03 5.756200e-03 8.010563e-03 1.218622e-02 1.548705e-02 2.051189e-02 2.475330e-02 3.046349e-02 3.543919e-02 4.157340e-02 4.697134e-02 5.317136e-02 5.858099e-02 6.440638e-02 6.934153e-02 7.429999e-02 7.823761e-02 8.182972e-02 8.426115e-02 8.603418e-02 8.652210e-02 8.612480e-02 8.435685e-02 8.158688e-02 7.741847e-02 7.225673e-02 6.573918e-02 5.836989e-02 4.976457e-02 4.058291e-02 3.036319e-02 1.997083e-02 8.809675e-03 2.009814e-03 1.327746e-02 2.361341e-02 3.407332e-02 4.300385e-02 5.179449e-02 5.854737e-02 6.503584e-02 6.917345e-02 7.311180e-02 7.466353e-02 7.625233e-02 7.572316e-02 7.553895e-02 7.377560e-02 7.259357e-02 7.055222e-02 6.912621e-02 6.759471e-02 6.642511e-02 6.576646e-02 6.493645e-02 6.500208e-02 6.419307e-02 6.444686e-02 6.310916e-02 6.287498e-02 6.048391e-02 5.920775e-02 5.549674e-02 5.302735e-02 4.814883e-02 4.485350e-02 3.925144e-02 3.559902e-02 2.967814e-02 2.597817e-02 1.999984e-02 1.641089e-02 1.053892e-02 7.146498e-03 1.499272e-03 1.637683e-03 6.965168e-03 9.800388e-03 1.473143e-02 1.723007e-02 2.170460e-02 2.384318e-02 2.781517e-02 2.958003e-02 3.301413e-02 3.439919e-02 3.726791e-02 
3.416182e-02 3.617852e-02 3.688992e-02 3.838839e-02 3.871783e-02 3.969172e-02 3.964953e-02 4.009936e-02 3.970149e-02 3.963570e-02 3.890430e-02 3.834046e-02 3.730443e-02 3.627036e-02 3.496577e-02 3.350044e-02 3.197088e-02 3.012510e-02 2.842200e-02 2.625901e-02 2.444193e-02 2.203799e-02 2.017514e-02 1.762019e-02 1.578896e-02 1.318777e-02 1.147545e-02 8.950523e-03 7.455396e-03 5.159118e-03 3.995421e-03 2.203021e-03 1.556239e-03 1.395379e-03 1.330884e-03 2.083956e-03 1.581322e-03 1.808706e-03 9.713667e-04 1.264084e-03 2.884983e-03 4.553946e-03 7.540791e-03 1.026052e-02 1.421702e-02 1.794520e-02 2.276177e-02 2.738899e-02 3.289663e-02 3.821577e-02 4.415434e-02 4.985363e-02 5.586876e-02 6.153895e-02 6.719570e-02 7.235321e-02 7.716621e-02 8.129241e-02 8.477058e-02 8.736375e-02 8.906418e-02 8.969684e-02 8.927960e-02 8.765224e-02 8.492779e-02 8.091152e-02 7.587603e-02 6.954307e-02 6.240503e-02 5.405771e-02 4.527906e-02 3.553723e-02 2.605301e-02 1.666937e-02 1.123448e-02 1.449642e-02 2.246077e-02 3.200301e-02 4.037692e-02 4.896835e-02 5.549866e-02 6.198433e-02 6.605646e-02 7.006917e-02 7.165559e-02 7.335184e-02 7.290793e-02 7.285707e-02 7.117037e-02 7.016186e-02 6.813777e-02 6.694156e-02 6.535209e-02 6.447219e-02 6.369428e-02 6.321271e-02 6.313032e-02 6.272082e-02 6.282317e-02 6.194835e-02 6.157235e-02 5.971823e-02 5.830063e-02 5.518909e-02 5.256157e-02 4.832312e-02 4.487883e-02 3.995421e-02 3.617410e-02 3.096213e-02 2.715569e-02 2.192381e-02 1.826648e-02 1.324791e-02 9.941613e-03 5.825678e-03 4.267198e-03 5.869566e-03 8.193831e-03 1.217316e-02 1.466843e-02 1.851107e-02 2.072716e-02 2.418654e-02 2.604902e-02 2.905650e-02 3.054121e-02 3.306343e-02 
3.889483e-02 4.114595e-02 4.173528e-02 4.339737e-02 4.363023e-02 4.468919e-02 4.457516e-02 4.502678e-02 4.458138e-02 4.443208e-02 4.367706e-02 4.294494e-02 4.190870e-02 4.062450e-02 3.934235e-02 3.755018e-02 3.606463e-02 3.382246e-02 3.218343e-02 2.956349e-02 2.782851e-02 2.491779e-02 2.315229e-02 2.005354e-02 1.833101e-02 1.516519e-02 1.356701e-02 1.048076e-02 9.094994e-03 6.291122e-03 5.209434e-03 3.126374e-03 2.447181e-03 2.380340e-03 2.029462e-03 3.299866e-03 2.681033e-03 3.636016e-03 2.851911e-03 3.438705e-03 3.825337e-03 4.967222e-03 7.465335e-03 9.681388e-03 1.359109e-02 1.686855e-02 2.178809e-02 2.601560e-02 3.168605e-02 3.665741e-02 4.278369e-02 4.818843e-02 5.439865e-02 5.982828e-02 6.567702e-02 7.064807e-02 7.564346e-02 7.963700e-02 8.328485e-02 8.579920e-02 8.765754e-02 8.826720e-02 8.800288e-02 8.641555e-02 8.385578e-02 7.996198e-02 7.513942e-02 6.905987e-02 6.226684e-02 5.443240e-02 4.635820e-02 3.779847e-02 3.015882e-02 2.403090e-02 2.219438e-02 2.525287e-02 3.149852e-02 3.943645e-02 4.694421e-02 5.467048e-02 6.070217e-02 6.659722e-02 7.024837e-02 7.378013e-02 7.492352e-02 7.617883e-02 7.525727e-02 7.475871e-02 7.260597e-02 7.111488e-02 6.872618e-02 6.704161e-02 6.529160e-02 6.399064e-02 6.329455e-02 6.247931e-02 6.265764e-02 6.196306e-02 6.241363e-02 6.123411e-02 6.124447e-02 5.904356e-02 5.801213e-02 5.450829e-02 5.222417e-02 4.755350e-02 4.446635e-02 3.911498e-02 3.572413e-02 3.012500e-02 2.673759e-02 2.123781e-02 1.808373e-02 1.321414e-02 1.078861e-02 8.382463e-03 8.338090e-03 1.078745e-02 1.269382e-02 1.680179e-02 1.893784e-02 2.308126e-02 2.502812e-02 2.883513e-02 3.048135e-02 3.382414e-02 3.512966e-02 3.794550e-02 
3.539927e-02 3.734063e-02 3.795402e-02 3.940853e-02 3.967322e-02 4.062241e-02 4.054249e-02 4.097917e-02 4.056686e-02 4.049450e-02 3.976967e-02 3.920280e-02 3.819287e-02 3.715778e-02 3.589772e-02 3.443320e-02 3.296554e-02 3.112364e-02 2.949852e-02 2.734547e-02 2.562076e-02 2.323837e-02 2.147990e-02 1.896817e-02 1.724998e-02 1.473239e-02 1.313679e-02 1.077256e-02 9.388923e-03 7.401840e-03 6.318739e-03 5.038319e-03 4.295677e-03 3.994790e-03 3.433888e-03 3.770351e-03 3.148664e-03 3.586661e-03 3.283454e-03 4.046818e-03 5.221608e-03 6.913301e-03 9.649581e-03 1.237739e-02 1.628244e-02 2.001529e-02 2.486021e-02 2.949417e-02 3.506250e-02 4.039674e-02 4.640858e-02 5.213705e-02 5.823033e-02 6.394915e-02 6.968860e-02 7.492039e-02 7.982696e-02 8.406218e-02 8.765901e-02 9.041094e-02 9.227955e-02 9.314574e-02 9.298422e-02 9.170534e-02 8.938100e-02 8.589208e-02 8.148838e-02 7.596970e-02 6.984599e-02 6.281215e-02 5.574191e-02 4.829792e-02 4.188409e-02 3.645681e-02 3.385939e-02 3.415832e-02 3.733628e-02 4.265946e-02 4.829208e-02 5.469500e-02 5.971696e-02 6.495937e-02 6.804338e-02 7.123289e-02 7.204438e-02 7.308262e-02 7.193344e-02 7.125828e-02 6.887364e-02 6.723976e-02 6.456014e-02 6.283162e-02 6.079529e-02 5.963008e-02 5.873306e-02 5.826364e-02 5.836277e-02 5.814817e-02 5.861689e-02 5.803705e-02 5.816241e-02 5.671082e-02 5.583246e-02 5.319446e-02 5.097234e-02 4.718858e-02 4.420512e-02 3.979743e-02 3.658050e-02 3.198223e-02 2.880874e-02 2.437300e-02 2.147273e-02 1.770178e-02 1.549752e-02 1.338844e-02 1.266790e-02 1.330882e-02 1.425191e-02 1.681622e-02 1.847395e-02 2.160349e-02 2.333700e-02 2.641787e-02 2.797559e-02 3.076780e-02 3.204754e-02 3.444283e-02 
4.073978e-02 4.290629e-02 4.338492e-02 4.499722e-02 4.515315e-02 4.618261e-02 4.601868e-02 4.645135e-02 4.597878e-02 4.581463e-02 4.505236e-02 4.430549e-02 4.327989e-02 4.197910e-02 4.072376e-02 3.891301e-02 3.746853e-02 3.520752e-02 3.362120e-02 3.098611e-02 2.931171e-02 2.639671e-02 2.469401e-02 2.161464e-02 1.994877e-02 1.684974e-02 1.528957e-02 1.236496e-02 1.097970e-02 8.527606e-03 7.380629e-03 5.916932e-03 5.051695e-03 5.125607e-03 4.485405e-03 5.624565e-03 5.067905e-03 6.365144e-03 6.079533e-03 7.331921e-03 7.959831e-03 9.537296e-03 1.163747e-02 1.398370e-02 1.753874e-02 2.083790e-02 2.556646e-02 2.978836e-02 3.538046e-02 4.035087e-02 4.646623e-02 5.189103e-02 5.813244e-02 6.361455e-02 6.952699e-02 7.459402e-02 7.968941e-02 8.383691e-02 8.763841e-02 9.038663e-02 9.248498e-02 9.344270e-02 9.355604e-02 9.248373e-02 9.051454e-02 8.738376e-02 8.347579e-02 7.853544e-02 7.315241e-02 6.704060e-02 6.112121e-02 5.510250e-02 5.033857e-02 4.659334e-02 4.529022e-02 4.591758e-02 4.871878e-02 5.292256e-02 5.757091e-02 6.273403e-02 6.683318e-02 7.103553e-02 7.325666e-02 7.557661e-02 7.550529e-02 7.578100e-02 7.370303e-02 7.229554e-02 6.898458e-02 6.656706e-02 6.310440e-02 6.059166e-02 5.814881e-02 5.640735e-02 5.558795e-02 5.479270e-02 5.529810e-02 5.492094e-02 5.592146e-02 5.516865e-02 5.591278e-02 5.429232e-02 5.407607e-02 5.130434e-02 4.960351e-02 4.562476e-02 4.321172e-02 3.864500e-02 3.606010e-02 3.138871e-02 2.886273e-02 2.454394e-02 2.232878e-02 1.908617e-02 1.765616e-02 1.656728e-02 1.644848e-02 1.791911e-02 1.891524e-02 2.190892e-02 2.336473e-02 2.683227e-02 2.832750e-02 3.173849e-02 3.307647e-02 3.618308e-02 3.727165e-02 3.994559e-02 
3.782146e-02 3.963078e-02 4.006415e-02 4.144035e-02 4.158419e-02 4.248929e-02 4.233857e-02 4.275203e-02 4.231320e-02 4.222953e-02 4.151871e-02 4.094683e-02 3.998879e-02 3.895217e-02 3.777953e-02 3.631669e-02 3.496925e-02 3.313451e-02 3.165869e-02 2.952338e-02 2.797156e-02 2.562608e-02 2.405582e-02 2.161309e-02 2.008556e-02 1.768662e-02 1.626307e-02 1.408423e-02 1.281772e-02 1.107143e-02 9.989253e-03 8.886593e-03 7.965461e-03 7.594338e-03 6.774653e-03 6.998717e-03 6.338864e-03 6.977902e-03 6.907471e-03 8.043364e-03 9.215410e-03 1.111497e-02 1.374342e-02 1.656961e-02 2.046976e-02 2.425357e-02 2.918063e-02 3.384786e-02 3.954326e-02 4.491215e-02 5.106763e-02 5.684681e-02 6.308641e-02 6.888531e-02 7.477303e-02 8.012922e-02 8.519932e-02 8.962392e-02 9.342944e-02 9.646747e-02 9.863979e-02 9.993746e-02 1.002471e-01 9.961551e-02 9.802517e-02 9.549245e-02 9.219907e-02 8.805435e-02 8.353074e-02 7.837768e-02 7.342984e-02 6.826749e-02 6.408056e-02 6.031719e-02 5.823985e-02 5.719852e-02 5.782705e-02 5.957671e-02 6.195471e-02 6.511177e-02 6.753708e-02 7.045347e-02 7.160547e-02 7.316490e-02 7.245838e-02 7.223165e-02 6.975631e-02 6.790513e-02 6.420802e-02 6.131915e-02 5.729696e-02 5.437748e-02 5.135916e-02 4.948266e-02 4.827774e-02 4.777971e-02 4.819024e-02 4.827292e-02 4.936543e-02 4.924618e-02 5.037306e-02 4.974925e-02 5.016165e-02 4.875851e-02 4.740257e-02 4.465670e-02 4.269777e-02 3.936457e-02 3.730457e-02 3.385025e-02 3.179344e-02 2.858923e-02 2.670501e-02 2.424260e-02 2.285316e-02 2.169788e-02 2.113262e-02 2.156800e-02 2.186806e-02 2.357566e-02 2.444574e-02 2.681912e-02 2.791370e-02 3.047199e-02 3.155375e-02 3.400676e-02 3.493765e-02 3.711849e-02 
4.375405e-02 4.580319e-02 4.611552e-02 4.765839e-02 4.769678e-02 4.868526e-02 4.844441e-02 4.885058e-02 4.833625e-02 4.815048e-02 4.737794e-02 4.660839e-02 4.560134e-02 4.427408e-02 4.306370e-02 4.122299e-02 3.984699e-02 3.755593e-02 3.605757e-02 3.339932e-02 3.182641e-02 2.890694e-02 2.731067e-02 2.426450e-02 2.269793e-02 1.969994e-02 1.821565e-02 1.550397e-02 1.415095e-02 1.206100e-02 1.088183e-02 9.833506e-03 8.862685e-03 9.097234e-03 8.355579e-03 9.560028e-03 9.096404e-03 1.072126e-02 1.074169e-02 1.254418e-02 1.343080e-02 1.553287e-02 1.763981e-02 2.031742e-02 2.375289e-02 2.721327e-02 3.184345e-02 3.613208e-02 4.168682e-02 4.668760e-02 5.281700e-02 5.827430e-02 6.456557e-02 7.011060e-02 7.610422e-02 8.129113e-02 8.651260e-02 9.086845e-02 9.487651e-02 9.796369e-02 1.004082e-01 1.018921e-01 1.025721e-01 1.022854e-01 1.011995e-01 9.919627e-02 9.658474e-02 9.318534e-02 8.956608e-02 8.539448e-02 8.158106e-02 7.756832e-02 7.459299e-02 7.182470e-02 7.058562e-02 6.981125e-02 7.044099e-02 7.149278e-02 7.311268e-02 7.498717e-02 7.627337e-02 7.778663e-02 7.765580e-02 7.794977e-02 7.588544e-02 7.461695e-02 7.072286e-02 6.798267e-02 6.284538e-02 5.894687e-02 5.360523e-02 4.947997e-02 4.573120e-02 4.302380e-02 4.193593e-02 4.104484e-02 4.203282e-02 4.207435e-02 4.375386e-02 4.345148e-02 4.533351e-02 4.463177e-02 4.612697e-02 4.513711e-02 4.453560e-02 4.193587e-02 4.084090e-02 3.765164e-02 3.647724e-02 3.324188e-02 3.197234e-02 2.912828e-02 2.792322e-02 2.604460e-02 2.523086e-02 2.483496e-02 2.466940e-02 2.583056e-02 2.628810e-02 2.856970e-02 2.941191e-02 3.224607e-02 3.322348e-02 3.617981e-02 3.711575e-02 3.992033e-02 4.070480e-02 4.318679e-02 
4.134796e-02 4.299687e-02 4.319379e-02 4.447328e-02 4.445486e-02 4.530589e-02 4.505953e-02 4.544545e-02 4.497227e-02 4.487607e-02 4.418834e-02 4.361155e-02 4.273067e-02 4.169313e-02 4.064795e-02 3.918800e-02 3.801321e-02 3.618831e-02 3.492281e-02 3.281058e-02 3.149571e-02 2.919561e-02 2.787288e-02 2.550844e-02 2.421620e-02 2.193664e-02 2.070507e-02 1.868292e-02 1.752747e-02 1.594348e-02 1.486074e-02 1.386574e-02 1.284619e-02 1.250756e-02 1.159113e-02 1.187888e-02 1.126205e-02 1.212697e-02 1.223037e-02 1.370825e-02 1.500353e-02 1.721076e-02 1.990597e-02 2.295234e-02 2.696140e-02 3.089064e-02 3.598963e-02 4.075154e-02 4.665517e-02 5.209089e-02 5.845866e-02 6.429819e-02 7.073301e-02 7.660837e-02 8.267185e-02 8.814867e-02 9.339704e-02 9.802530e-02 1.020625e-01 1.054425e-01 1.079817e-01 1.098352e-01 1.107552e-01 1.109866e-01 1.103685e-01 1.090977e-01 1.072287e-01 1.047843e-01 1.021234e-01 9.899316e-02 9.609620e-02 9.284200e-02 9.024219e-02 8.738247e-02 8.543305e-02 8.331542e-02 8.205000e-02 8.076376e-02 7.987541e-02 7.923581e-02 7.820089e-02 7.776564e-02 7.601746e-02 7.514655e-02 7.225895e-02 7.034273e-02 6.621862e-02 6.294952e-02 5.774817e-02 5.311542e-02 4.716992e-02 4.201131e-02 3.725745e-02 3.362598e-02 3.165584e-02 3.089985e-02 3.159391e-02 3.178948e-02 3.331097e-02 3.334156e-02 3.577124e-02 3.624706e-02 3.932910e-02 4.100481e-02 4.117169e-02 4.019813e-02 4.007749e-02 3.837318e-02 3.813189e-02 3.624643e-02 3.563886e-02 3.383047e-02 3.295753e-02 3.160455e-02 3.077064e-02 3.021938e-02 2.969770e-02 3.009525e-02 2.999877e-02 3.123541e-02 3.150691e-02 3.330788e-02 3.380131e-02 3.586810e-02 3.643190e-02 3.852005e-02 3.903458e-02 4.096577e-02 
4.787321e-02 4.979854e-02 4.991014e-02 5.138064e-02 5.127415e-02 5.222103e-02 5.188428e-02 5.226345e-02 5.169737e-02 5.148764e-02 5.070423e-02 4.990670e-02 4.892717e-02 4.756512e-02 4.641815e-02 4.453727e-02 4.325718e-02 4.092628e-02 3.955123e-02 3.686390e-02 3.543409e-02 3.251236e-02 3.106824e-02 2.806949e-02 2.664986e-02 2.377844e-02 2.241887e-02 1.994076e-02 1.867344e-02 1.691694e-02 1.577552e-02 1.506153e-02 1.409413e-02 1.454441e-02 1.383104e-02 1.522988e-02 1.490555e-02 1.688294e-02 1.716575e-02 1.948855e-02 2.066076e-02 2.332456e-02 2.563429e-02 2.878077e-02 3.233041e-02 3.611156e-02 4.081905e-02 4.529468e-02 5.092291e-02 5.601697e-02 6.221788e-02 6.771713e-02 7.406910e-02 7.964686e-02 8.569303e-02 9.095133e-02 9.624778e-02 1.007746e-01 1.049472e-01 1.083826e-01 1.111824e-01 1.132818e-01 1.146265e-01 1.153101e-01 1.153031e-01 1.146820e-01 1.136075e-01 1.119793e-01 1.102709e-01 1.080707e-01 1.062287e-01 1.039169e-01 1.023485e-01 1.002400e-01 9.905857e-02 9.718694e-02 9.611321e-02 9.427582e-02 9.278777e-02 9.077126e-02 8.840874e-02 8.613413e-02 8.265012e-02 8.004279e-02 7.531606e-02 7.219126e-02 6.623413e-02 6.235320e-02 5.532762e-02 4.995088e-02 4.211844e-02 3.504199e-02 2.917453e-02 2.405155e-02 2.211110e-02 2.039564e-02 2.179537e-02 2.217413e-02 2.385278e-02 2.326950e-02 2.608523e-02 2.600564e-02 3.080667e-02 3.465180e-02 3.634988e-02 3.577579e-02 3.695984e-02 3.571502e-02 3.669338e-02 3.535088e-02 3.565173e-02 3.441278e-02 3.418542e-02 3.347163e-02 3.310395e-02 3.324786e-02 3.304756e-02 3.413214e-02 3.422264e-02 3.608478e-02 3.643084e-02 3.878212e-02 3.927290e-02 4.182146e-02 4.233800e-02 4.484422e-02 4.528883e-02 4.757148e-02 
4.589999e-02 4.738892e-02 4.732014e-02 4.850318e-02 4.829807e-02 4.909716e-02 4.874033e-02 4.910225e-02 4.859227e-02 4.848734e-02 4.783388e-02 4.725532e-02 4.647640e-02 4.544010e-02 4.455944e-02 4.310404e-02 4.214836e-02 4.033541e-02 3.933181e-02 3.724612e-02 3.621929e-02 3.396925e-02 3.293848e-02 3.065571e-02 2.963185e-02 2.746857e-02 2.645159e-02 2.457262e-02 2.355276e-02 2.211860e-02 2.108726e-02 2.022860e-02 1.920901e-02 1.900380e-02 1.810816e-02 1.858194e-02 1.807533e-02 1.923280e-02 1.952740e-02 2.138921e-02 2.289022e-02 2.550111e-02 2.840849e-02 3.181568e-02 3.608060e-02 4.029725e-02 4.570166e-02 5.066921e-02 5.689470e-02 6.245775e-02 6.911633e-02 7.501718e-02 8.167306e-02 8.756825e-02 9.377187e-02 9.927057e-02 1.046101e-01 1.093314e-01 1.134951e-01 1.171367e-01 1.199714e-01 1.223757e-01 1.239232e-01 1.251197e-01 1.256079e-01 1.258024e-01 1.255765e-01 1.250665e-01 1.244626e-01 1.234918e-01 1.226869e-01 1.213012e-01 1.202002e-01 1.181875e-01 1.164154e-01 1.134056e-01 1.104613e-01 1.062286e-01 1.018257e-01 9.669942e-02 9.115416e-02 8.612927e-02 8.031464e-02 7.627101e-02 7.079788e-02 6.740633e-02 6.219016e-02 5.832533e-02 5.306292e-02 4.728460e-02 4.039535e-02 3.128607e-02 2.409889e-02 1.499400e-02 1.047580e-02 7.477465e-03 8.078662e-03 7.874523e-03 7.736618e-03 6.560041e-03 9.375979e-03 1.030502e-02 1.821221e-02 2.884525e-02 3.258963e-02 3.279655e-02 3.566288e-02 3.618612e-02 3.870794e-02 3.891372e-02 4.005655e-02 3.978301e-02 3.986383e-02 3.950959e-02 3.907736e-02 3.900737e-02 3.847474e-02 3.889586e-02 3.849143e-02 3.944207e-02 3.923950e-02 4.062677e-02 4.059829e-02 4.225925e-02 4.233029e-02 4.408665e-02 4.417490e-02 4.586463e-02 
5.304131e-02 5.486285e-02 5.476084e-02 5.617501e-02 5.591078e-02 5.682877e-02 5.638629e-02 5.674700e-02 5.612456e-02 5.589430e-02 5.510222e-02 5.427471e-02 5.333288e-02 5.192936e-02 5.086460e-02 4.893412e-02 4.777746e-02 4.539763e-02 4.418158e-02 4.146032e-02 4.021636e-02 3.729567e-02 3.605202e-02 3.311412e-02 3.189430e-02 2.916911e-02 2.799218e-02 2.575920e-02 2.464421e-02 2.320878e-02 2.218719e-02 2.180087e-02 2.093786e-02 2.167460e-02 2.108995e-02 2.279448e-02 2.267062e-02 2.507269e-02 2.564456e-02 2.853182e-02 3.004948e-02 3.334997e-02 3.601055e-02 3.976569e-02 4.364145e-02 4.792352e-02 5.292326e-02 5.775227e-02 6.362580e-02 6.891767e-02 7.528865e-02 8.084304e-02 8.725894e-02 9.278290e-02 9.878044e-02 1.039408e-01 1.091240e-01 1.136158e-01 1.177318e-01 1.213425e-01 1.243263e-01 1.269730e-01 1.289369e-01 1.306625e-01 1.318334e-01 1.327738e-01 1.334153e-01 1.337517e-01 1.341019e-01 1.339902e-01 1.341812e-01 1.336291e-01 1.335501e-01 1.322650e-01 1.314220e-01 1.287719e-01 1.263225e-01 1.216288e-01 1.168082e-01 1.100417e-01 1.029388e-01 9.535437e-02 8.731009e-02 8.087398e-02 7.337350e-02 6.886222e-02 6.203456e-02 5.882990e-02 5.215349e-02 4.797117e-02 3.942050e-02 2.863288e-02 2.291334e-02 1.457579e-02 9.062455e-03 6.586518e-03 6.249742e-03 6.746479e-03 6.919763e-03 1.014585e-02 8.404032e-03 1.075751e-02 5.174891e-03 2.157663e-02 2.829599e-02 2.532642e-02 3.021060e-02 3.212905e-02 3.659481e-02 3.781994e-02 3.997816e-02 4.047585e-02 4.112336e-02 4.146181e-02 4.139108e-02 4.199612e-02 4.172054e-02 4.281088e-02 4.259592e-02 4.419754e-02 4.413022e-02 4.613203e-02 4.619287e-02 4.841657e-02 4.853895e-02 5.079365e-02 5.090186e-02 5.301336e-02 
5.141927e-02 5.277406e-02 5.243435e-02 5.354031e-02 5.314037e-02 5.390335e-02 5.343136e-02 5.378233e-02 5.323871e-02 5.313510e-02 5.252946e-02 5.195594e-02 5.130359e-02 5.027246e-02 4.959086e-02 4.814199e-02 4.744725e-02 4.564772e-02 4.495125e-02 4.289440e-02 4.220004e-02 4.000383e-02 3.930555e-02 3.710950e-02 3.639064e-02 3.434995e-02 3.358568e-02 3.186126e-02 3.102754e-02 2.977153e-02 2.886554e-02 2.820514e-02 2.728175e-02 2.730830e-02 2.652951e-02 2.729948e-02 2.697111e-02 2.851711e-02 2.905626e-02 3.139782e-02 3.319682e-02 3.634390e-02 3.961146e-02 4.355856e-02 4.826139e-02 5.296690e-02 5.886891e-02 6.422460e-02 7.094604e-02 7.675426e-02 8.381992e-02 8.979438e-02 9.668482e-02 1.024816e-01 1.087037e-01 1.139801e-01 1.191566e-01 1.236455e-01 1.276023e-01 1.311802e-01 1.339970e-01 1.367212e-01 1.387111e-01 1.408054e-01 1.424054e-01 1.441718e-01 1.457611e-01 1.474101e-01 1.491143e-01 1.505724e-01 1.521304e-01 1.529248e-01 1.536526e-01 1.529024e-01 1.517372e-01 1.482832e-01 1.439627e-01 1.368206e-01 1.284753e-01 1.178555e-01 1.062269e-01 9.486718e-02 8.343044e-02 7.610048e-02 6.882269e-02 6.655004e-02 6.269084e-02 6.135737e-02 6.024401e-02 5.685429e-02 5.453508e-02 3.963100e-02 2.967426e-02 1.987290e-02 2.155600e-02 1.853609e-02 2.307598e-02 2.821111e-02 3.238458e-02 3.547322e-02 3.887720e-02 3.909010e-02 3.903956e-02 4.117977e-02 2.547911e-02 1.677273e-02 2.763790e-02 3.326038e-02 4.007340e-02 4.296628e-02 4.579798e-02 4.704204e-02 4.777350e-02 4.824249e-02 4.797652e-02 4.825100e-02 4.760690e-02 4.803487e-02 4.733919e-02 4.808265e-02 4.748079e-02 4.856102e-02 4.808828e-02 4.943250e-02 4.906451e-02 5.054968e-02 5.023797e-02 5.172484e-02 
5.922147e-02 6.098451e-02 6.067590e-02 6.206996e-02 6.164920e-02 6.256614e-02 6.201729e-02 6.237872e-02 6.170069e-02 6.146009e-02 6.066424e-02 5.980832e-02 5.891535e-02 5.746488e-02 5.650127e-02 5.451150e-02 5.350576e-02 5.106699e-02 5.004605e-02 4.728499e-02 4.627100e-02 4.335340e-02 4.236156e-02 3.949561e-02 3.853367e-02 3.597099e-02 3.504225e-02 3.306769e-02 3.218024e-02 3.107555e-02 3.026060e-02 3.023322e-02 2.957025e-02 3.067526e-02 3.031205e-02 3.243517e-02 3.258812e-02 3.552226e-02 3.645121e-02 4.000691e-02 4.196610e-02 4.603552e-02 4.920749e-02 5.375726e-02 5.818794e-02 6.320357e-02 6.876090e-02 7.418000e-02 8.054794e-02 8.621386e-02 9.292317e-02 9.857864e-02 1.050763e-01 1.104062e-01 1.161663e-01 1.208862e-01 1.255536e-01 1.295191e-01 1.330412e-01 1.363207e-01 1.389841e-01 1.418241e-01 1.441148e-01 1.467826e-01 1.491132e-01 1.517283e-01 1.542405e-01 1.567388e-01 1.593378e-01 1.615298e-01 1.639752e-01 1.655053e-01 1.673148e-01 1.674256e-01 1.676005e-01 1.648886e-01 1.617389e-01 1.544230e-01 1.461527e-01 1.334806e-01 1.201108e-01 1.048766e-01 9.092472e-02 8.040294e-02 7.307562e-02 7.038114e-02 6.807616e-02 6.803393e-02 6.660227e-02 6.911293e-02 6.093832e-02 4.781703e-02 4.246210e-02 3.431656e-02 3.125485e-02 3.250559e-02 3.592027e-02 3.459974e-02 3.348295e-02 2.610108e-02 2.564855e-02 1.830386e-02 1.965599e-02 1.741974e-02 1.654154e-02 1.836632e-02 2.875328e-02 3.258283e-02 4.004589e-02 4.343412e-02 4.665089e-02 4.852432e-02 4.945506e-02 5.051914e-02 5.041057e-02 5.129257e-02 5.081152e-02 5.188268e-02 5.136158e-02 5.277628e-02 5.235180e-02 5.410641e-02 5.380147e-02 5.579297e-02 5.557166e-02 5.764828e-02 5.745253e-02 5.944995e-02 
5.787485e-02 5.914401e-02 5.854777e-02 5.961510e-02 5.902624e-02 5.978379e-02 5.920098e-02 5.956484e-02 5.899584e-02 5.891080e-02 5.836869e-02 5.781116e-02 5.730995e-02 5.628946e-02 5.583977e-02 5.439907e-02 5.400418e-02 5.221805e-02 5.187083e-02 4.984349e-02 4.952447e-02 4.738563e-02 4.706282e-02 4.496189e-02 4.459352e-02 4.269153e-02 4.223332e-02 4.069240e-02 4.011237e-02 3.908375e-02 3.838741e-02 3.800081e-02 3.726818e-02 3.762623e-02 3.705418e-02 3.823336e-02 3.815867e-02 4.021262e-02 4.107264e-02 4.403120e-02 4.624021e-02 5.010258e-02 5.390116e-02 5.862383e-02 6.399501e-02 6.947065e-02 7.614270e-02 8.217221e-02 8.966293e-02 9.593811e-02 1.036147e-01 1.097345e-01 1.169008e-01 1.224380e-01 1.284682e-01 1.330861e-01 1.376010e-01 1.411887e-01 1.442222e-01 1.469823e-01 1.490372e-01 1.514497e-01 1.533467e-01 1.559926e-01 1.585194e-01 1.618310e-01 1.653626e-01 1.693788e-01 1.736968e-01 1.779431e-01 1.822960e-01 1.858269e-01 1.890376e-01 1.904231e-01 1.908167e-01 1.879932e-01 1.832010e-01 1.737118e-01 1.612528e-01 1.439941e-01 1.239382e-01 1.036376e-01 8.467012e-02 7.759197e-02 7.499141e-02 8.348310e-02 8.383391e-02 8.854052e-02 9.112414e-02 9.440009e-02 9.962056e-02 6.882355e-02 5.371994e-02 4.897398e-02 3.628595e-02 1.196489e-02 7.384889e-03 3.303527e-02 4.453564e-02 5.758838e-02 6.391022e-02 6.961995e-02 7.346114e-02 7.538600e-02 7.707226e-02 5.364854e-02 4.885383e-02 4.632167e-02 5.018102e-02 5.308696e-02 5.525934e-02 5.703196e-02 5.742247e-02 5.818849e-02 5.766016e-02 5.801826e-02 5.711379e-02 5.746859e-02 5.647905e-02 5.704603e-02 5.611032e-02 5.696434e-02 5.613070e-02 5.724750e-02 5.651338e-02 5.780531e-02 5.714511e-02 5.849120e-02 
6.639978e-02 6.817493e-02 6.768470e-02 6.911630e-02 6.855320e-02 6.951375e-02 6.886630e-02 6.925963e-02 6.853149e-02 6.829811e-02 6.750541e-02 6.662595e-02 6.579332e-02 6.429040e-02 6.344637e-02 6.138529e-02 6.055739e-02 5.804610e-02 5.725636e-02 5.444552e-02 5.370682e-02 5.078999e-02 5.010417e-02 4.731687e-02 4.667582e-02 4.428914e-02 4.368089e-02 4.198206e-02 4.140443e-02 4.065627e-02 4.013949e-02 4.052233e-02 4.015616e-02 4.171936e-02 4.167285e-02 4.433376e-02 4.485387e-02 4.845283e-02 4.983459e-02 5.420889e-02 5.673795e-02 6.176662e-02 6.564296e-02 7.124005e-02 7.650022e-02 8.256551e-02 8.902410e-02 9.537876e-02 1.026049e-01 1.089449e-01 1.162866e-01 1.221852e-01 1.288595e-01 1.338469e-01 1.391197e-01 1.428555e-01 1.463166e-01 1.488266e-01 1.506927e-01 1.525411e-01 1.537668e-01 1.559167e-01 1.577988e-01 1.610313e-01 1.643506e-01 1.686888e-01 1.732192e-01 1.780514e-01 1.830579e-01 1.877177e-01 1.925948e-01 1.965738e-01 2.007879e-01 2.032394e-01 2.056340e-01 2.044170e-01 2.022039e-01 1.934829e-01 1.824802e-01 1.628248e-01 1.412197e-01 1.144936e-01 9.369541e-02 8.367697e-02 9.126468e-02 1.000139e-01 1.120424e-01 1.097689e-01 1.204113e-01 1.343480e-01 8.078892e-02 3.956136e-02 3.312499e-02 3.191513e-02 6.683864e-02 1.014102e-01 1.122643e-01 1.197505e-01 1.183709e-01 1.159343e-01 1.167283e-01 1.110260e-01 1.152419e-01 1.097840e-01 9.903599e-02 6.942377e-02 5.970139e-02 5.475794e-02 5.520412e-02 5.715611e-02 5.801016e-02 5.973988e-02 5.968300e-02 6.077103e-02 6.015011e-02 6.101734e-02 6.019029e-02 6.117622e-02 6.035814e-02 6.163722e-02 6.092591e-02 6.253222e-02 6.194594e-02 6.381216e-02 6.332257e-02 6.531896e-02 6.487720e-02 6.684473e-02 
6.526470e-02 6.651891e-02 6.569622e-02 6.678285e-02 6.602217e-02 6.682082e-02 6.613863e-02 6.655109e-02 6.596887e-02 6.592747e-02 6.546618e-02 6.493958e-02 6.461400e-02 6.361030e-02 6.342409e-02 6.199131e-02 6.193340e-02 6.015724e-02 6.020007e-02 5.819931e-02 5.829916e-02 5.621902e-02 5.631893e-02 5.432251e-02 5.435863e-02 5.261692e-02 5.252974e-02 5.121068e-02 5.096313e-02 5.022136e-02 4.982581e-02 4.979538e-02 4.934965e-02 5.014216e-02 4.986783e-02 5.157552e-02 5.183741e-02 5.453604e-02 5.580679e-02 5.954990e-02 6.229631e-02 6.709637e-02 7.162260e-02 7.742048e-02 8.374639e-02 9.037186e-02 9.818753e-02 1.053172e-01 1.139960e-01 1.211285e-01 1.297825e-01 1.362655e-01 1.438632e-01 1.490109e-01 1.545999e-01 1.579236e-01 1.609741e-01 1.624910e-01 1.632802e-01 1.637403e-01 1.635317e-01 1.642883e-01 1.649452e-01 1.673399e-01 1.703387e-01 1.749962e-01 1.805664e-01 1.871050e-01 1.943262e-01 2.016313e-01 2.091368e-01 2.159040e-01 2.223030e-01 2.270110e-01 2.305210e-01 2.304424e-01 2.274266e-01 2.176808e-01 2.023002e-01 1.779275e-01 1.463470e-01 1.125395e-01 8.362852e-02 9.210509e-02 1.144988e-01 1.491606e-01 1.495812e-01 1.641341e-01 1.759266e-01 9.708157e-02 6.455495e-02 1.962531e-02 7.883656e-02 1.397102e-01 1.300852e-01 1.143814e-01 9.740087e-02 7.584165e-02 6.531870e-02 5.234914e-02 4.770160e-02 3.872603e-02 3.832864e-02 3.127303e-02 5.267032e-02 6.474477e-02 6.503803e-02 6.745999e-02 6.653449e-02 6.839262e-02 6.786061e-02 6.895464e-02 6.818041e-02 6.866191e-02 6.761180e-02 6.782975e-02 6.663878e-02 6.688137e-02 6.567006e-02 6.611546e-02 6.495481e-02 6.567885e-02 6.459681e-02 6.559201e-02 6.458921e-02 6.578641e-02 6.485176e-02 6.614191e-02 
7.458799e-02 7.647279e-02 7.584223e-02 7.739232e-02 7.671253e-02 7.777990e-02 7.704865e-02 7.751823e-02 7.674885e-02 7.654781e-02 7.576585e-02 7.486993e-02 7.410806e-02 7.254495e-02 7.183705e-02 6.968708e-02 6.906207e-02 6.645711e-02 6.593347e-02 6.305444e-02 6.263639e-02 5.970959e-02 5.938585e-02 5.667642e-02 5.642324e-02 5.422154e-02 5.401192e-02 5.260781e-02 5.242896e-02 5.207181e-02 5.195072e-02 5.280451e-02 5.283668e-02 5.495164e-02 5.532264e-02 5.864371e-02 5.963107e-02 6.404141e-02 6.598695e-02 7.135971e-02 7.460745e-02 8.083252e-02 8.563661e-02 9.260253e-02 9.902195e-02 1.065551e-01 1.143593e-01 1.221424e-01 1.307502e-01 1.382555e-01 1.467304e-01 1.532126e-01 1.603526e-01 1.649582e-01 1.695437e-01 1.716041e-01 1.728753e-01 1.724150e-01 1.707689e-01 1.690714e-01 1.666194e-01 1.661955e-01 1.661201e-01 1.691262e-01 1.731583e-01 1.793287e-01 1.861521e-01 1.934610e-01 2.008641e-01 2.077840e-01 2.147767e-01 2.210644e-01 2.277293e-01 2.334627e-01 2.396280e-01 2.427233e-01 2.448112e-01 2.382968e-01 2.276755e-01 2.014249e-01 1.697450e-01 1.239504e-01 9.350984e-02 1.022854e-01 1.533894e-01 1.853041e-01 2.139327e-01 1.906188e-01 1.128294e-01 6.388628e-02 8.872485e-03 1.691154e-01 1.899432e-01 1.172774e-01 7.104958e-02 3.372950e-02 6.866389e-03 1.719953e-02 2.522433e-02 3.717841e-02 4.008639e-02 4.563578e-02 4.685612e-02 5.129436e-02 4.251647e-02 6.076063e-02 6.236584e-02 6.894760e-02 6.792166e-02 7.050653e-02 6.945714e-02 7.082087e-02 6.976279e-02 7.064266e-02 6.954544e-02 7.033229e-02 6.925715e-02 7.020764e-02 6.922203e-02 7.047715e-02 6.961551e-02 7.120969e-02 7.046885e-02 7.234756e-02 7.169702e-02 7.374094e-02 7.313723e-02 7.518821e-02 