# vtk DataFile Version 2.0
Comment goes here
ASCII

DATASET STRUCTURED_POINTS
DIMENSIONS    128   128   1

ORIGIN    0.000   0.000   0.000
SPACING   0.0156250.015625   1.000

POINT_DATA   16384
SCALARS uMag double
LOOKUP_TABLE default

1.310379e-02 1.387777e-02 1.417355e-02 1.475298e-02 1.494695e-02 1.533011e-02 1.542599e-02 1.561322e-02 1.561547e-02 1.560981e-02 1.552402e-02 1.533166e-02 1.516484e-02 1.479550e-02 1.455630e-02 1.402342e-02 1.372235e-02 1.304320e-02 1.269274e-02 1.188843e-02 1.150325e-02 1.059868e-02 1.019580e-02 9.219557e-03 8.818555e-03 7.802853e-03 7.426068e-03 6.406525e-03 6.079180e-03 5.094525e-03 4.844688e-03 3.936226e-03 3.794468e-03 3.005172e-03 3.003771e-03 2.376847e-03 2.548346e-03 2.125105e-03 2.500063e-03 2.316961e-03 2.920774e-03 3.005555e-03 3.854331e-03 4.221373e-03 5.317027e-03 5.962194e-03 7.287185e-03 8.182806e-03 9.695284e-03 1.078619e-02 1.241662e-02 1.361848e-02 1.526900e-02 1.647017e-02 1.801803e-02 1.908593e-02 2.039151e-02 2.118353e-02 2.210284e-02 2.248088e-02 2.288087e-02 2.272704e-02 2.250132e-02 2.173202e-02 2.081418e-02 1.939039e-02 1.776342e-02 1.569642e-02 1.339829e-02 1.075226e-02 7.879226e-03 4.772967e-03 1.481942e-03 1.909938e-03 5.401485e-03 8.850419e-03 1.227257e-02 1.551002e-02 1.856578e-02 2.131651e-02 2.373077e-02 2.576838e-02 2.735513e-02 2.856550e-02 2.929072e-02 2.971453e-02 2.972233e-02 2.954918e-02 2.912935e-02 2.863840e-02 2.813947e-02 2.760503e-02 2.731642e-02 2.690575e-02 2.694760e-02 2.665720e-02 2.693593e-02 2.660497e-02 2.685982e-02 2.624864e-02 2.616716e-02 2.506322e-02 2.440883e-02 2.272789e-02 2.148204e-02 1.934369e-02 1.775635e-02 1.540596e-02 1.374944e-02 1.138231e-02 9.812427e-03 7.529836e-03 6.102417e-03 3.947011e-03 2.670772e-03 6.615556e-04 4.692278e-04 2.320945e-03 3.314311e-03 5.000168e-03 5.863607e-03 7.376999e-03 8.117119e-03 9.452571e-03 1.007509e-02 1.122773e-02 1.173747e-02 1.270280e-02 
1.117081e-02 1.182591e-02 1.215887e-02 1.265732e-02 1.288167e-02 1.322296e-02 1.334157e-02 1.352672e-02 1.354349e-02 1.357546e-02 1.349565e-02 1.337974e-02 1.321021e-02 1.295444e-02 1.270384e-02 1.231916e-02 1.199811e-02 1.149859e-02 1.111979e-02 1.052274e-02 1.010107e-02 9.427127e-03 8.979796e-03 8.252953e-03 7.799654e-03 7.047245e-03 6.610265e-03 5.862855e-03 5.467134e-03 4.758227e-03 4.431335e-03 3.796901e-03 3.569140e-03 3.047326e-03 2.952500e-03 2.584395e-03 2.660800e-03 2.490737e-03 2.776605e-03 2.843957e-03 3.365536e-03 3.693209e-03 4.461737e-03 5.056737e-03 6.071079e-03 6.925104e-03 8.167625e-03 9.251601e-03 1.068174e-02 1.194032e-02 1.349028e-02 1.483945e-02 1.641331e-02 1.774206e-02 1.921913e-02 2.039595e-02 2.163894e-02 2.252304e-02 2.339073e-02 2.384692e-02 2.420968e-02 2.412439e-02 2.388011e-02 2.317562e-02 2.226333e-02 2.090838e-02 1.931865e-02 1.733626e-02 1.512221e-02 1.260500e-02 9.917849e-03 7.124807e-03 4.569635e-03 3.465319e-03 5.115024e-03 7.998753e-03 1.112648e-02 1.424694e-02 1.718016e-02 1.990909e-02 2.225884e-02 2.431699e-02 2.587293e-02 2.712828e-02 2.784378e-02 2.833066e-02 2.833665e-02 2.824682e-02 2.781867e-02 2.743789e-02 2.691436e-02 2.652044e-02 2.619065e-02 2.594633e-02 2.593446e-02 2.582992e-02 2.604810e-02 2.591843e-02 2.611409e-02 2.572710e-02 2.559233e-02 2.474221e-02 2.403214e-02 2.262916e-02 2.131329e-02 1.946599e-02 1.780916e-02 1.576237e-02 1.404432e-02 1.199100e-02 1.036695e-02 8.408625e-03 6.938262e-03 5.134988e-03 3.858663e-03 2.362061e-03 1.593574e-03 1.751419e-03 2.479959e-03 3.743812e-03 4.609274e-03 5.844070e-03 6.622692e-03 7.730180e-03 8.399104e-03 9.360995e-03 9.917038e-03 1.072709e-02 
1.329855e-02 1.406304e-02 1.434630e-02 1.491982e-02 1.510494e-02 1.548406e-02 1.557382e-02 1.575782e-02 1.575607e-02 1.574729e-02 1.565917e-02 1.546339e-02 1.529555e-02 1.492221e-02 1.468296e-02 1.414539e-02 1.384482e-02 1.316023e-02 1.281035e-02 1.199980e-02 1.161462e-02 1.070296e-02 1.029857e-02 9.314218e-03 8.908928e-03 7.883685e-03 7.498075e-03 6.466688e-03 6.123634e-03 5.123166e-03 4.847962e-03 3.916928e-03 3.738282e-03 2.916676e-03 2.870962e-03 2.205949e-03 2.346030e-03 1.906734e-03 2.291577e-03 2.146404e-03 2.789787e-03 2.944208e-03 3.831700e-03 4.265711e-03 5.391077e-03 6.089884e-03 7.438594e-03 8.376359e-03 9.910289e-03 1.103601e-02 1.268809e-02 1.392078e-02 1.559462e-02 1.682488e-02 1.839857e-02 1.949529e-02 2.082990e-02 2.165202e-02 2.260458e-02 2.301649e-02 2.345620e-02 2.334479e-02 2.317011e-02 2.246091e-02 2.161600e-02 2.028797e-02 1.878005e-02 1.688507e-02 1.481745e-02 1.253810e-02 1.023925e-02 8.183411e-03 6.890451e-03 7.077314e-03 8.756068e-03 1.124914e-02 1.413128e-02 1.701944e-02 1.984838e-02 2.241680e-02 2.469446e-02 2.660223e-02 2.806885e-02 2.915793e-02 2.974716e-02 3.003874e-02 2.988382e-02 2.956321e-02 2.896285e-02 2.832148e-02 2.765585e-02 2.700051e-02 2.660537e-02 2.613657e-02 2.615818e-02 2.587393e-02 2.620521e-02 2.591906e-02 2.626581e-02 2.571818e-02 2.574638e-02 2.472407e-02 2.416563e-02 2.257292e-02 2.137427e-02 1.931391e-02 1.777674e-02 1.551194e-02 1.392963e-02 1.166679e-02 1.019160e-02 8.059810e-03 6.766231e-03 4.924703e-03 3.950112e-03 2.969178e-03 2.858657e-03 3.633553e-03 4.278472e-03 5.675577e-03 6.411029e-03 7.814863e-03 8.490216e-03 9.773483e-03 1.035711e-02 1.148177e-02 1.196590e-02 1.291527e-02 
1.156089e-02 1.219092e-02 1.248846e-02 1.297160e-02 1.317193e-02 1.350363e-02 1.360710e-02 1.378587e-02 1.379479e-02 1.382201e-02 1.374046e-02 1.362045e-02 1.345433e-02 1.319447e-02 1.295153e-02 1.256238e-02 1.225218e-02 1.174760e-02 1.138151e-02 1.077861e-02 1.036979e-02 9.688885e-03 9.252211e-03 8.516644e-03 8.068561e-03 7.304337e-03 6.862595e-03 6.097693e-03 5.680960e-03 4.944179e-03 4.571912e-03 3.891624e-03 3.586079e-03 2.991673e-03 2.788218e-03 2.324684e-03 2.299595e-03 2.063775e-03 2.333611e-03 2.431720e-03 3.024757e-03 3.444862e-03 4.309464e-03 5.004288e-03 6.109744e-03 7.052456e-03 8.376264e-03 9.536968e-03 1.104056e-02 1.236746e-02 1.398599e-02 1.539846e-02 1.703846e-02 1.842780e-02 1.997041e-02 2.120672e-02 2.251630e-02 2.346091e-02 2.439868e-02 2.492090e-02 2.536211e-02 2.535769e-02 2.521010e-02 2.461879e-02 2.384058e-02 2.266222e-02 2.128187e-02 1.959824e-02 1.775107e-02 1.578250e-02 1.381761e-02 1.210458e-02 1.087701e-02 1.055506e-02 1.124203e-02 1.282567e-02 1.496978e-02 1.736809e-02 1.979998e-02 2.212127e-02 2.416443e-02 2.593895e-02 2.724389e-02 2.824792e-02 2.869979e-02 2.892075e-02 2.862149e-02 2.823660e-02 2.746674e-02 2.678440e-02 2.593331e-02 2.529637e-02 2.474674e-02 2.438139e-02 2.431524e-02 2.421547e-02 2.452133e-02 2.446479e-02 2.483364e-02 2.456474e-02 2.466067e-02 2.398884e-02 2.350126e-02 2.230830e-02 2.110506e-02 1.943154e-02 1.789712e-02 1.602353e-02 1.447370e-02 1.260945e-02 1.118051e-02 9.452977e-03 8.211004e-03 6.757925e-03 5.806806e-03 4.896030e-03 4.463584e-03 4.462376e-03 4.668373e-03 5.400422e-03 5.930418e-03 6.904294e-03 7.497519e-03 8.473076e-03 9.028950e-03 9.918479e-03 1.040012e-02 1.116824e-02 
1.387576e-02 1.461425e-02 1.486180e-02 1.541898e-02 1.557861e-02 1.594646e-02 1.601850e-02 1.619334e-02 1.617997e-02 1.616220e-02 1.606737e-02 1.586152e-02 1.569086e-02 1.530569e-02 1.506654e-02 1.451504e-02 1.421639e-02 1.351568e-02 1.316813e-02 1.233934e-02 1.195500e-02 1.102295e-02 1.061535e-02 9.608268e-03 9.192143e-03 8.141060e-03 7.732057e-03 6.669943e-03 6.284162e-03 5.244338e-03 4.898119e-03 3.911811e-03 3.623811e-03 2.718368e-03 2.523207e-03 1.736587e-03 1.744209e-03 1.242771e-03 1.678809e-03 1.713640e-03 2.485214e-03 2.875996e-03 3.860150e-03 4.488195e-03 5.686168e-03 6.534420e-03 7.945254e-03 9.001632e-03 1.059575e-02 1.182188e-02 1.353730e-02 1.486107e-02 1.660439e-02 1.792191e-02 1.957309e-02 2.075682e-02 2.217853e-02 2.309108e-02 2.414296e-02 2.465522e-02 2.521209e-02 2.522353e-02 2.519582e-02 2.465494e-02 2.401090e-02 2.293688e-02 2.173142e-02 2.024692e-02 1.867569e-02 1.707950e-02 1.559786e-02 1.450331e-02 1.394781e-02 1.418065e-02 1.520013e-02 1.682458e-02 1.893676e-02 2.116280e-02 2.349042e-02 2.559861e-02 2.750719e-02 2.904019e-02 3.015186e-02 3.087430e-02 3.105197e-02 3.094292e-02 3.029223e-02 2.952374e-02 2.836339e-02 2.725103e-02 2.605046e-02 2.499965e-02 2.425298e-02 2.358751e-02 2.353493e-02 2.325848e-02 2.374175e-02 2.357216e-02 2.417988e-02 2.379875e-02 2.416679e-02 2.340507e-02 2.318652e-02 2.193198e-02 2.088921e-02 1.910067e-02 1.774063e-02 1.574263e-02 1.439924e-02 1.242769e-02 1.121354e-02 9.435678e-03 8.419916e-03 7.064407e-03 6.383762e-03 5.815554e-03 5.653224e-03 6.056503e-03 6.350686e-03 7.346561e-03 7.835973e-03 9.011725e-03 9.532079e-03 1.068862e-02 1.117022e-02 1.222204e-02 1.263592e-02 1.354226e-02 
1.232174e-02 1.290765e-02 1.313996e-02 1.359555e-02 1.375089e-02 1.406507e-02 1.414000e-02 1.430701e-02 1.430123e-02 1.431961e-02 1.423523e-02 1.410746e-02 1.394868e-02 1.368101e-02 1.345380e-02 1.305619e-02 1.276808e-02 1.225407e-02 1.191391e-02 1.130038e-02 1.091805e-02 1.022501e-02 9.811057e-03 9.061046e-03 8.626175e-03 7.843472e-03 7.397757e-03 6.606922e-03 6.158735e-03 5.382281e-03 4.937234e-03 4.192395e-03 3.754049e-03 3.050466e-03 2.630849e-03 1.982084e-03 1.667599e-03 1.221711e-03 1.431467e-03 1.658717e-03 2.452151e-03 3.101375e-03 4.156239e-03 5.047586e-03 6.317540e-03 7.424268e-03 8.895972e-03 1.019957e-02 1.184120e-02 1.329904e-02 1.505036e-02 1.658773e-02 1.835847e-02 1.986970e-02 2.154328e-02 2.289996e-02 2.434286e-02 2.540871e-02 2.648576e-02 2.713702e-02 2.773132e-02 2.787958e-02 2.791467e-02 2.752860e-02 2.699106e-02 2.611539e-02 2.507926e-02 2.385581e-02 2.251776e-02 2.121956e-02 1.995256e-02 1.902201e-02 1.838554e-02 1.833753e-02 1.879445e-02 1.979377e-02 2.121390e-02 2.285401e-02 2.462940e-02 2.631168e-02 2.782162e-02 2.905854e-02 2.987090e-02 3.036788e-02 3.029102e-02 2.997545e-02 2.906702e-02 2.808478e-02 2.661731e-02 2.529513e-02 2.372820e-02 2.253685e-02 2.147652e-02 2.080944e-02 2.059701e-02 2.048058e-02 2.093360e-02 2.096570e-02 2.163282e-02 2.153334e-02 2.211149e-02 2.183049e-02 2.192077e-02 2.133252e-02 2.038181e-02 1.912273e-02 1.788817e-02 1.636800e-02 1.518320e-02 1.365803e-02 1.257720e-02 1.118869e-02 1.024514e-02 9.142786e-03 8.421642e-03 7.782418e-03 7.390669e-03 7.328842e-03 7.297106e-03 7.728700e-03 7.957113e-03 8.663477e-03 9.015642e-03 9.811474e-03 1.019190e-02 1.096793e-02 1.132310e-02 1.202037e-02 
1.481749e-02 1.551972e-02 1.571337e-02 1.624744e-02 1.636798e-02 1.671960e-02 1.676421e-02 1.692539e-02 1.689402e-02 1.686227e-02 1.675717e-02 1.653523e-02 1.636062e-02 1.595626e-02 1.571807e-02 1.514395e-02 1.484954e-02 1.412294e-02 1.378081e-02 1.292329e-02 1.254278e-02 1.157975e-02 1.117060e-02 1.013081e-02 9.702634e-03 8.617387e-03 8.178845e-03 7.080837e-03 6.638367e-03 5.559634e-03 5.115692e-03 4.084053e-03 3.635308e-03 2.668272e-03 2.207257e-03 1.301017e-03 8.617221e-04 1.332376e-04 8.836109e-04 1.535282e-03 2.408434e-03 3.184827e-03 4.238431e-03 5.136796e-03 6.406732e-03 7.464399e-03 8.955083e-03 1.018642e-02 1.187044e-02 1.325337e-02 1.507047e-02 1.654313e-02 1.840133e-02 1.986546e-02 2.164587e-02 2.297702e-02 2.454379e-02 2.560804e-02 2.682395e-02 2.750010e-02 2.824684e-02 2.845087e-02 2.865239e-02 2.836119e-02 2.800942e-02 2.728288e-02 2.646855e-02 2.547391e-02 2.442716e-02 2.346640e-02 2.259325e-02 2.209355e-02 2.190879e-02 2.224754e-02 2.305296e-02 2.423036e-02 2.580473e-02 2.740461e-02 2.917049e-02 3.065331e-02 3.201363e-02 3.293323e-02 3.345158e-02 3.354420e-02 3.302466e-02 3.224539e-02 3.076174e-02 2.925918e-02 2.713163e-02 2.519296e-02 2.298684e-02 2.114888e-02 1.969288e-02 1.859786e-02 1.836468e-02 1.805501e-02 1.876266e-02 1.870684e-02 1.964704e-02 1.940503e-02 2.033234e-02 2.001844e-02 2.059154e-02 2.026985e-02 1.955708e-02 1.833600e-02 1.738001e-02 1.583961e-02 1.495702e-02 1.342389e-02 1.260946e-02 1.125627e-02 1.053777e-02 9.569168e-03 9.052124e-03 8.673665e-03 8.457194e-03 8.719969e-03 8.794899e-03 9.525215e-03 9.785862e-03 1.074298e-02 1.108172e-02 1.209062e-02 1.243716e-02 1.339503e-02 1.370946e-02 1.455730e-02 
1.342354e-02 1.395530e-02 1.410155e-02 1.452236e-02 1.461693e-02 1.490863e-02 1.494467e-02 1.509635e-02 1.507089e-02 1.507751e-02 1.499045e-02 1.485212e-02 1.470547e-02 1.442705e-02 1.422439e-02 1.381518e-02 1.356114e-02 1.303452e-02 1.273433e-02 1.210733e-02 1.176631e-02 1.105902e-02 1.068200e-02 9.916773e-03 9.507339e-03 8.707592e-03 8.267092e-03 7.455508e-03 6.981748e-03 6.177648e-03 5.663290e-03 4.879140e-03 4.310060e-03 3.547606e-03 2.901663e-03 2.149675e-03 1.395967e-03 6.472160e-04 2.725661e-04 1.143867e-03 2.172150e-03 3.145604e-03 4.383324e-03 5.510313e-03 6.960839e-03 8.269768e-03 9.925307e-03 1.141724e-02 1.324604e-02 1.488804e-02 1.682963e-02 1.855150e-02 2.051552e-02 2.221209e-02 2.408191e-02 2.562289e-02 2.726555e-02 2.851386e-02 2.979699e-02 3.063460e-02 3.144939e-02 3.180625e-02 3.209336e-02 3.197279e-02 3.174699e-02 3.124041e-02 3.061013e-02 2.989742e-02 2.907570e-02 2.840862e-02 2.770304e-02 2.735859e-02 2.710161e-02 2.728063e-02 2.766763e-02 2.836721e-02 2.929727e-02 3.027831e-02 3.137267e-02 3.226433e-02 3.304218e-02 3.347768e-02 3.353700e-02 3.325270e-02 3.238622e-02 3.128740e-02 2.952419e-02 2.770250e-02 2.525481e-02 2.295163e-02 2.021292e-02 1.798124e-02 1.593469e-02 1.453805e-02 1.396925e-02 1.374015e-02 1.431049e-02 1.426648e-02 1.513267e-02 1.499537e-02 1.624912e-02 1.654649e-02 1.796338e-02 1.906265e-02 1.861859e-02 1.805822e-02 1.744715e-02 1.643511e-02 1.589461e-02 1.483819e-02 1.424814e-02 1.324712e-02 1.261087e-02 1.180119e-02 1.122591e-02 1.074266e-02 1.033500e-02 1.024347e-02 1.005092e-02 1.031384e-02 1.031271e-02 1.081939e-02 1.094626e-02 1.157480e-02 1.176487e-02 1.241926e-02 1.262343e-02 1.323802e-02 
1.610169e-02 1.676534e-02 1.689354e-02 1.740278e-02 1.747491e-02 1.780865e-02 1.781886e-02 1.796408e-02 1.791010e-02 1.786081e-02 1.774314e-02 1.749997e-02 1.732130e-02 1.689104e-02 1.665573e-02 1.605102e-02 1.576454e-02 1.500341e-02 1.467183e-02 1.377720e-02 1.340659e-02 1.240571e-02 1.200151e-02 1.092545e-02 1.049165e-02 9.374724e-03 8.912800e-03 7.792013e-03 7.299399e-03 6.214216e-03 5.682218e-03 4.676237e-03 4.087878e-03 3.220833e-03 2.554635e-03 1.975678e-03 1.309239e-03 1.567264e-03 1.636591e-03 2.600578e-03 3.280756e-03 4.339279e-03 5.362642e-03 6.509184e-03 7.821740e-03 9.102656e-03 1.067872e-02 1.211904e-02 1.391873e-02 1.550589e-02 1.746306e-02 1.914130e-02 2.116078e-02 2.283369e-02 2.479501e-02 2.633703e-02 2.810465e-02 2.938178e-02 3.082166e-02 3.171901e-02 3.271983e-02 3.317070e-02 3.366753e-02 3.367758e-02 3.367683e-02 3.333912e-02 3.294485e-02 3.244433e-02 3.188026e-02 3.147904e-02 3.107799e-02 3.105263e-02 3.115593e-02 3.166214e-02 3.241624e-02 3.335379e-02 3.455801e-02 3.558367e-02 3.675972e-02 3.744680e-02 3.805706e-02 3.806195e-02 3.770454e-02 3.686033e-02 3.536481e-02 3.370124e-02 3.114087e-02 2.880067e-02 2.542538e-02 2.243995e-02 1.868384e-02 1.541486e-02 1.266799e-02 1.048809e-02 9.757346e-03 9.214972e-03 1.012985e-02 1.001955e-02 1.096366e-02 1.041600e-02 1.185118e-02 1.190610e-02 1.417944e-02 1.670079e-02 1.691562e-02 1.640654e-02 1.626994e-02 1.533907e-02 1.528305e-02 1.436050e-02 1.411435e-02 1.324251e-02 1.283270e-02 1.219690e-02 1.179032e-02 1.155355e-02 1.128510e-02 1.149163e-02 1.140737e-02 1.197520e-02 1.204507e-02 1.283258e-02 1.299677e-02 1.387170e-02 1.407493e-02 1.493931e-02 1.514122e-02 1.592802e-02 
1.483663e-02 1.531329e-02 1.536205e-02 1.574661e-02 1.577057e-02 1.603853e-02 1.602902e-02 1.616424e-02 1.611649e-02 1.611006e-02 1.602204e-02 1.587152e-02 1.574297e-02 1.545182e-02 1.528347e-02 1.486057e-02 1.465344e-02 1.411248e-02 1.386726e-02 1.322607e-02 1.294252e-02 1.222220e-02 1.189857e-02 1.112247e-02 1.075487e-02 9.947268e-03 9.529064e-03 8.713619e-03 8.234860e-03 7.433026e-03 6.880505e-03 6.110999e-03 5.470331e-03 4.753763e-03 4.020169e-03 3.406346e-03 2.645631e-03 2.348659e-03 2.030956e-03 2.553035e-03 3.228896e-03 4.275989e-03 5.513275e-03 6.804112e-03 8.382858e-03 9.885063e-03 1.172981e-02 1.343388e-02 1.548604e-02 1.735733e-02 1.954256e-02 2.150852e-02 2.372776e-02 2.567710e-02 2.780777e-02 2.960072e-02 3.150642e-02 3.299727e-02 3.454598e-02 3.561667e-02 3.670622e-02 3.730431e-02 3.789135e-02 3.805966e-02 3.818456e-02 3.806607e-02 3.786261e-02 3.766840e-02 3.734673e-02 3.728933e-02 3.708519e-02 3.729649e-02 3.738753e-02 3.785246e-02 3.826279e-02 3.880554e-02 3.935002e-02 3.969264e-02 4.002175e-02 3.989883e-02 3.965040e-02 3.891793e-02 3.787861e-02 3.652252e-02 3.466247e-02 3.271244e-02 3.013813e-02 2.762519e-02 2.448377e-02 2.129750e-02 1.742056e-02 1.348409e-02 9.891442e-03 6.021480e-03 4.218363e-03 3.267744e-03 3.754802e-03 3.308545e-03 3.138678e-03 2.104208e-03 3.618891e-03 4.507590e-03 8.387392e-03 1.478897e-02 1.600836e-02 1.538083e-02 1.592901e-02 1.561892e-02 1.625918e-02 1.592865e-02 1.602040e-02 1.548957e-02 1.516210e-02 1.462690e-02 1.414434e-02 1.378037e-02 1.332864e-02 1.322252e-02 1.289315e-02 1.304811e-02 1.286013e-02 1.322201e-02 1.315175e-02 1.364255e-02 1.365076e-02 1.419444e-02 1.424324e-02 1.477720e-02 
1.770872e-02 1.833957e-02 1.839752e-02 1.888605e-02 1.890507e-02 1.922338e-02 1.919535e-02 1.932505e-02 1.924593e-02 1.917732e-02 1.904621e-02 1.877774e-02 1.859607e-02 1.813388e-02 1.790457e-02 1.726197e-02 1.698869e-02 1.618551e-02 1.587188e-02 1.493384e-02 1.458267e-02 1.354086e-02 1.315338e-02 1.204388e-02 1.161900e-02 1.048297e-02 1.001663e-02 8.901306e-03 8.386116e-03 7.347954e-03 6.774708e-03 5.888126e-03 5.254508e-03 4.634731e-03 3.982124e-03 3.821801e-03 3.339053e-03 3.819415e-03 3.814396e-03 4.780505e-03 5.311981e-03 6.504214e-03 7.479774e-03 8.820731e-03 1.017304e-02 1.167279e-02 1.335307e-02 1.502804e-02 1.697978e-02 1.881759e-02 2.096220e-02 2.290641e-02 2.513877e-02 2.708731e-02 2.927988e-02 3.109758e-02 3.311276e-02 3.465798e-02 3.636641e-02 3.752700e-02 3.882762e-02 3.955549e-02 4.039371e-02 4.072551e-02 4.111115e-02 4.116955e-02 4.119927e-02 4.117729e-02 4.105361e-02 4.117717e-02 4.118529e-02 4.163235e-02 4.202779e-02 4.280360e-02 4.362574e-02 4.447086e-02 4.541296e-02 4.585828e-02 4.635285e-02 4.595067e-02 4.547505e-02 4.408122e-02 4.246113e-02 4.031901e-02 3.770962e-02 3.522619e-02 3.183712e-02 2.930084e-02 2.525113e-02 2.213278e-02 1.711654e-02 1.221685e-02 9.201886e-03 4.975290e-03 3.702740e-03 4.294872e-03 3.701476e-03 4.755061e-03 4.789625e-03 6.621362e-03 5.906721e-03 7.028371e-03 4.052656e-03 1.251122e-02 1.511931e-02 1.191473e-02 1.330639e-02 1.363043e-02 1.521945e-02 1.526473e-02 1.577473e-02 1.546011e-02 1.533143e-02 1.500318e-02 1.464837e-02 1.453123e-02 1.419000e-02 1.437209e-02 1.414700e-02 1.460947e-02 1.451463e-02 1.517759e-02 1.518361e-02 1.595093e-02 1.601685e-02 1.680209e-02 1.689099e-02 1.762523e-02 
1.653871e-02 1.696710e-02 1.691502e-02 1.726768e-02 1.721677e-02 1.746385e-02 1.740581e-02 1.752631e-02 1.745607e-02 1.743727e-02 1.735169e-02 1.718868e-02 1.708546e-02 1.678060e-02 1.665736e-02 1.621963e-02 1.607315e-02 1.551735e-02 1.534297e-02 1.468870e-02 1.447989e-02 1.375049e-02 1.349849e-02 1.271974e-02 1.241350e-02 1.161241e-02 1.123882e-02 1.044256e-02 9.987548e-03 9.223255e-03 8.674861e-03 7.972099e-03 7.328922e-03 6.729384e-03 6.024406e-03 5.609336e-03 4.974801e-03 4.913120e-03 4.675794e-03 5.167899e-03 5.653027e-03 6.667812e-03 7.831275e-03 9.215653e-03 1.088074e-02 1.255868e-02 1.459809e-02 1.653417e-02 1.884909e-02 2.099638e-02 2.348411e-02 2.575894e-02 2.829874e-02 3.057363e-02 3.302651e-02 3.513993e-02 3.735950e-02 3.914405e-02 4.099640e-02 4.232382e-02 4.371395e-02 4.454715e-02 4.544865e-02 4.587959e-02 4.635906e-02 4.660127e-02 4.681896e-02 4.713259e-02 4.729992e-02 4.787251e-02 4.817291e-02 4.901618e-02 4.951481e-02 5.041719e-02 5.097663e-02 5.152013e-02 5.175261e-02 5.142307e-02 5.079106e-02 4.925299e-02 4.743380e-02 4.492916e-02 4.226524e-02 3.966803e-02 3.694134e-02 3.486463e-02 3.239484e-02 3.056049e-02 2.861791e-02 2.627437e-02 2.352134e-02 1.775433e-02 1.409844e-02 1.027689e-02 1.030544e-02 1.048786e-02 1.324163e-02 1.616668e-02 1.906765e-02 2.036506e-02 2.270960e-02 2.256854e-02 2.296801e-02 2.394637e-02 1.427763e-02 7.328917e-03 1.197689e-02 1.415476e-02 1.690167e-02 1.758816e-02 1.833018e-02 1.825322e-02 1.808764e-02 1.776264e-02 1.726505e-02 1.697156e-02 1.642615e-02 1.629653e-02 1.582866e-02 1.590052e-02 1.554887e-02 1.580144e-02 1.555999e-02 1.594248e-02 1.578651e-02 1.623878e-02 1.614002e-02 1.660482e-02 
1.962542e-02 2.023709e-02 2.022630e-02 2.070439e-02 2.067015e-02 2.098005e-02 2.091303e-02 2.103085e-02 2.092613e-02 2.083837e-02 2.069437e-02 2.039759e-02 2.021505e-02 1.971538e-02 1.949631e-02 1.880879e-02 1.855543e-02 1.770326e-02 1.741711e-02 1.643085e-02 1.611182e-02 1.502883e-02 1.467452e-02 1.353894e-02 1.314434e-02 1.200789e-02 1.156572e-02 1.048992e-02 9.992679e-03 9.053313e-03 8.499698e-03 7.793874e-03 7.205359e-03 6.855958e-03 6.310356e-03 6.441096e-03 6.099890e-03 6.745827e-03 6.790816e-03 7.843837e-03 8.363912e-03 9.687664e-03 1.068384e-02 1.221539e-02 1.365606e-02 1.539194e-02 1.723035e-02 1.917995e-02 2.134843e-02 2.349632e-02 2.589835e-02 2.818056e-02 3.068947e-02 3.298659e-02 3.545543e-02 3.760755e-02 3.989046e-02 4.173546e-02 4.371386e-02 4.513965e-02 4.673920e-02 4.772632e-02 4.891540e-02 4.954517e-02 5.032843e-02 5.075652e-02 5.119646e-02 5.162140e-02 5.188921e-02 5.252097e-02 5.289569e-02 5.387257e-02 5.460573e-02 5.582955e-02 5.688738e-02 5.786121e-02 5.869684e-02 5.856423e-02 5.822733e-02 5.623101e-02 5.405184e-02 5.039170e-02 4.696675e-02 4.328166e-02 4.028462e-02 3.814458e-02 3.590756e-02 3.516474e-02 3.278916e-02 3.237448e-02 2.681782e-02 2.175477e-02 1.961750e-02 1.628516e-02 1.710174e-02 1.906051e-02 2.218296e-02 2.032225e-02 2.002702e-02 1.522659e-02 1.512532e-02 1.063676e-02 1.145525e-02 9.859890e-03 9.347841e-03 1.000196e-02 1.389751e-02 1.454313e-02 1.720604e-02 1.776234e-02 1.852199e-02 1.854341e-02 1.838844e-02 1.823022e-02 1.776851e-02 1.770098e-02 1.722477e-02 1.737325e-02 1.700067e-02 1.738407e-02 1.714076e-02 1.771395e-02 1.758109e-02 1.827090e-02 1.821418e-02 1.894343e-02 1.892830e-02 1.962764e-02 
1.851788e-02 1.891163e-02 1.876175e-02 1.909248e-02 1.896710e-02 1.920049e-02 1.909417e-02 1.920480e-02 1.911406e-02 1.908568e-02 1.900748e-02 1.883304e-02 1.876352e-02 1.844479e-02 1.837834e-02 1.792523e-02 1.785384e-02 1.728331e-02 1.719630e-02 1.653103e-02 1.641497e-02 1.568190e-02 1.552093e-02 1.474979e-02 1.452627e-02 1.374831e-02 1.344427e-02 1.269161e-02 1.229158e-02 1.159783e-02 1.109470e-02 1.049833e-02 9.905518e-03 9.458301e-03 8.834589e-03 8.616455e-03 8.106934e-03 8.234929e-03 8.091156e-03 8.678409e-03 9.150461e-03 1.022102e-02 1.138581e-02 1.288644e-02 1.466779e-02 1.654501e-02 1.882228e-02 2.103442e-02 2.367960e-02 2.616809e-02 2.903974e-02 3.170200e-02 3.463856e-02 3.731656e-02 4.014305e-02 4.263465e-02 4.518320e-02 4.728062e-02 4.941757e-02 5.097025e-02 5.262018e-02 5.360758e-02 5.477322e-02 5.535720e-02 5.613861e-02 5.664360e-02 5.723584e-02 5.801205e-02 5.864244e-02 5.988029e-02 6.070972e-02 6.233113e-02 6.336112e-02 6.497739e-02 6.592417e-02 6.678669e-02 6.690410e-02 6.595487e-02 6.411656e-02 6.052848e-02 5.611692e-02 5.074290e-02 4.563435e-02 4.253960e-02 4.080798e-02 4.227170e-02 4.218410e-02 4.376914e-02 4.480817e-02 4.551946e-02 4.433820e-02 3.412264e-02 2.868113e-02 2.632631e-02 2.114799e-02 7.113948e-03 5.690085e-03 1.964340e-02 2.661318e-02 3.375414e-02 3.723098e-02 4.083682e-02 4.235835e-02 4.429749e-02 4.310494e-02 2.982223e-02 2.541208e-02 2.213982e-02 2.240912e-02 2.235698e-02 2.238136e-02 2.222854e-02 2.171513e-02 2.137557e-02 2.066225e-02 2.033984e-02 1.963250e-02 1.944944e-02 1.883676e-02 1.883502e-02 1.834046e-02 1.851038e-02 1.812538e-02 1.842852e-02 1.813209e-02 1.851736e-02 1.828697e-02 1.870116e-02 
2.184726e-02 2.246137e-02 2.238899e-02 2.287354e-02 2.279003e-02 2.310359e-02 2.299967e-02 2.311270e-02 2.298372e-02 2.287900e-02 2.272378e-02 2.239642e-02 2.221594e-02 2.167308e-02 2.146924e-02 2.072924e-02 2.050355e-02 1.959503e-02 1.934750e-02 1.830828e-02 1.803651e-02 1.691304e-02 1.661177e-02 1.545913e-02 1.512057e-02 1.400347e-02 1.361898e-02 1.261379e-02 1.217825e-02 1.137511e-02 1.089625e-02 1.039793e-02 9.912650e-03 9.821135e-03 9.414549e-03 9.795550e-03 9.600832e-03 1.044290e-02 1.060128e-02 1.182438e-02 1.243658e-02 1.395631e-02 1.507015e-02 1.684574e-02 1.846660e-02 2.049875e-02 2.259444e-02 2.489379e-02 2.738945e-02 2.993757e-02 3.270844e-02 3.542440e-02 3.829793e-02 4.102394e-02 4.380247e-02 4.632446e-02 4.883311e-02 5.094478e-02 5.308780e-02 5.468049e-02 5.646177e-02 5.758397e-02 5.905151e-02 5.987614e-02 6.103093e-02 6.175389e-02 6.256161e-02 6.336060e-02 6.392021e-02 6.500201e-02 6.564119e-02 6.720045e-02 6.830615e-02 7.026219e-02 7.184891e-02 7.343011e-02 7.457518e-02 7.411521e-02 7.291030e-02 6.859279e-02 6.358572e-02 5.596054e-02 4.999502e-02 4.580718e-02 4.723419e-02 5.022161e-02 5.473487e-02 5.651093e-02 5.910086e-02 6.238252e-02 4.224102e-02 2.752146e-02 1.896810e-02 1.414187e-02 3.829901e-02 5.796239e-02 6.538782e-02 6.811130e-02 6.824857e-02 6.664939e-02 6.655480e-02 6.453730e-02 6.486507e-02 6.452966e-02 5.495053e-02 3.853800e-02 3.129184e-02 2.647884e-02 2.484436e-02 2.403404e-02 2.328477e-02 2.296117e-02 2.217460e-02 2.190981e-02 2.113032e-02 2.100655e-02 2.033454e-02 2.042825e-02 1.990856e-02 2.023278e-02 1.986402e-02 2.038208e-02 2.013752e-02 2.078547e-02 2.062951e-02 2.133433e-02 2.123256e-02 2.192350e-02 
2.077410e-02 2.115341e-02 2.091356e-02 2.123801e-02 2.104204e-02 2.127343e-02 2.112149e-02 2.123038e-02 2.112278e-02 2.108973e-02 2.102500e-02 2.084128e-02 2.081466e-02 2.048222e-02 2.048482e-02 2.001558e-02 2.003409e-02 1.944856e-02 1.946563e-02 1.879112e-02 1.878603e-02 1.805466e-02 1.800452e-02 1.725142e-02 1.713279e-02 1.639466e-02 1.618610e-02 1.550066e-02 1.518702e-02 1.459375e-02 1.417363e-02 1.371668e-02 1.321553e-02 1.294913e-02 1.244032e-02 1.243514e-02 1.206416e-02 1.240634e-02 1.239119e-02 1.316078e-02 1.372646e-02 1.496485e-02 1.624157e-02 1.794903e-02 1.993900e-02 2.209846e-02 2.471409e-02 2.729530e-02 3.039234e-02 3.332832e-02 3.671336e-02 3.987020e-02 4.330578e-02 4.646806e-02 4.969927e-02 5.258963e-02 5.539842e-02 5.774109e-02 6.000554e-02 6.162239e-02 6.333739e-02 6.424585e-02 6.549396e-02 6.597171e-02 6.690408e-02 6.745776e-02 6.830508e-02 6.942908e-02 7.043363e-02 7.232968e-02 7.365311e-02 7.619592e-02 7.787896e-02 8.062236e-02 8.238799e-02 8.426486e-02 8.488772e-02 8.383130e-02 8.083683e-02 7.445801e-02 6.565294e-02 5.505152e-02 4.599769e-02 4.699385e-02 5.475550e-02 6.925535e-02 7.302318e-02 8.088260e-02 8.834279e-02 5.869150e-02 3.983207e-02 9.007770e-03 4.726996e-02 7.946387e-02 7.736555e-02 6.605626e-02 5.508987e-02 4.323077e-02 3.613974e-02 2.992511e-02 2.564587e-02 2.253073e-02 1.984488e-02 1.867781e-02 3.104416e-02 3.478866e-02 3.282234e-02 3.162758e-02 2.952464e-02 2.877836e-02 2.736408e-02 2.677270e-02 2.561423e-02 2.508346e-02 2.407242e-02 2.366010e-02 2.279178e-02 2.255114e-02 2.182510e-02 2.177282e-02 2.117579e-02 2.129684e-02 2.080724e-02 2.106581e-02 2.066092e-02 2.101010e-02 2.067106e-02 2.106012e-02 
2.438040e-02 2.502723e-02 2.490557e-02 2.542073e-02 2.529556e-02 2.563040e-02 2.549400e-02 2.561302e-02 2.546242e-02 2.534472e-02 2.518047e-02 2.482042e-02 2.464502e-02 2.405215e-02 2.386853e-02 2.306662e-02 2.287657e-02 2.190225e-02 2.170512e-02 2.060644e-02 2.039826e-02 1.923365e-02 1.900706e-02 1.784493e-02 1.759021e-02 1.650932e-02 1.621738e-02 1.530703e-02 1.497534e-02 1.433336e-02 1.397603e-02 1.370004e-02 1.336112e-02 1.352913e-02 1.329250e-02 1.393675e-02 1.392099e-02 1.501555e-02 1.535013e-02 1.683217e-02 1.763030e-02 1.944243e-02 2.078525e-02 2.290511e-02 2.483362e-02 2.727319e-02 2.977693e-02 3.255413e-02 3.555235e-02 3.864386e-02 4.196495e-02 4.525481e-02 4.863187e-02 5.188150e-02 5.499180e-02 5.786913e-02 6.044080e-02 6.263988e-02 6.460409e-02 6.603228e-02 6.760125e-02 6.849600e-02 6.998777e-02 7.076387e-02 7.222115e-02 7.311866e-02 7.422634e-02 7.526393e-02 7.589225e-02 7.721793e-02 7.780143e-02 7.983023e-02 8.116043e-02 8.418253e-02 8.673757e-02 8.992996e-02 9.244906e-02 9.276536e-02 9.137401e-02 8.416224e-02 7.451454e-02 5.903289e-02 4.847481e-02 5.030476e-02 7.084515e-02 8.857532e-02 1.060798e-01 1.073850e-01 7.269548e-02 4.246080e-02 8.708049e-03 9.573461e-02 1.066526e-01 6.850983e-02 3.843098e-02 1.734097e-02 1.451033e-03 9.841749e-03 1.619856e-02 2.096410e-02 2.380485e-02 2.581387e-02 2.690521e-02 2.930030e-02 2.300052e-02 3.022652e-02 2.940842e-02 3.087110e-02 2.902326e-02 2.885520e-02 2.729071e-02 2.687593e-02 2.560811e-02 2.526037e-02 2.423455e-02 2.407307e-02 2.326554e-02 2.334069e-02 2.273048e-02 2.304299e-02 2.260004e-02 2.311317e-02 2.280044e-02 2.345386e-02 2.323335e-02 2.395582e-02 2.379345e-02 2.451220e-02 