# vtk DataFile Version 2.0
Comment goes here
ASCII

DATASET STRUCTURED_POINTS
DIMENSIONS    128   128   1

ORIGIN    0.000   0.000   0.000
SPACING   0.0156250.015625   1.000

POINT_DATA   16384
SCALARS uMag double
LOOKUP_TABLE default

8.163600e-02 8.759681e-02 8.909017e-02 9.377147e-02 9.443887e-02 9.780519e-02 9.767169e-02 9.970746e-02 9.881360e-02 9.952608e-02 9.792857e-02 9.735055e-02 9.512282e-02 9.331479e-02 9.054716e-02 8.759868e-02 8.439824e-02 8.042860e-02 7.691891e-02 7.207720e-02 6.839799e-02 6.286269e-02 5.916970e-02 5.314799e-02 4.961288e-02 4.333957e-02 4.014973e-02 3.388544e-02 3.124319e-02 2.527138e-02 2.339181e-02 1.801375e-02 1.712025e-02 1.264707e-02 1.296348e-02 9.704214e-03 1.144259e-02 9.687469e-03 1.303085e-02 1.302924e-02 1.810915e-02 2.004255e-02 2.691212e-02 3.086342e-02 3.946800e-02 4.538963e-02 5.553838e-02 6.322347e-02 7.456687e-02 8.362894e-02 9.564818e-02 1.055157e-01 1.175302e-01 1.274622e-01 1.386604e-01 1.477863e-01 1.572810e-01 1.646657e-01 1.715711e-01 1.762993e-01 1.798205e-01 1.810899e-01 1.806133e-01 1.778244e-01 1.729959e-01 1.658284e-01 1.566117e-01 1.450797e-01 1.317933e-01 1.162800e-01 9.961225e-02 8.088216e-02 6.188428e-02 4.106671e-02 2.111024e-02 3.829437e-04 1.969191e-02 4.023104e-02 5.730756e-02 7.537851e-02 8.882813e-02 1.032435e-01 1.122321e-01 1.224056e-01 1.268606e-01 1.329186e-01 1.335560e-01 1.362460e-01 1.343798e-01 1.348305e-01 1.320289e-01 1.314396e-01 1.290856e-01 1.283482e-01 1.271938e-01 1.265731e-01 1.265659e-01 1.256785e-01 1.261376e-01 1.241757e-01 1.241236e-01 1.202333e-01 1.187478e-01 1.123847e-01 1.090004e-01 1.002129e-01 9.517879e-02 8.455236e-02 7.843131e-02 6.665366e-02 5.995446e-02 4.759134e-02 4.068925e-02 2.817255e-02 2.134826e-02 9.015032e-03 2.489847e-03 9.391576e-03 1.544266e-02 2.665889e-02 3.210248e-02 4.248549e-02 4.722534e-02 5.664243e-02 6.061314e-02 6.895829e-02 7.211905e-02 7.930650e-02 
7.413299e-02 7.958309e-02 8.121448e-02 8.553265e-02 8.631689e-02 8.947059e-02 8.942893e-02 9.140428e-02 9.057490e-02 9.137868e-02 8.981703e-02 8.947888e-02 8.725803e-02 8.583250e-02 8.304307e-02 8.061107e-02 7.736099e-02 7.403072e-02 7.044462e-02 6.635198e-02 6.257065e-02 5.787925e-02 5.405901e-02 4.895982e-02 4.527187e-02 3.998226e-02 3.661151e-02 3.137311e-02 2.851604e-02 2.359045e-02 2.145192e-02 1.711378e-02 1.590750e-02 1.244183e-02 1.241136e-02 1.014300e-02 1.158774e-02 1.088995e-02 1.403608e-02 1.514597e-02 2.005226e-02 2.305794e-02 2.973478e-02 3.467345e-02 4.306339e-02 4.987741e-02 5.979493e-02 6.827662e-02 7.937750e-02 8.914097e-02 1.009118e-01 1.113868e-01 1.231540e-01 1.336024e-01 1.445634e-01 1.541205e-01 1.634002e-01 1.711411e-01 1.778688e-01 1.828931e-01 1.862924e-01 1.878178e-01 1.872956e-01 1.847468e-01 1.799709e-01 1.730526e-01 1.640096e-01 1.527619e-01 1.397971e-01 1.246396e-01 1.084961e-01 9.029595e-02 7.222830e-02 5.263235e-02 3.539360e-02 2.165251e-02 2.355138e-02 3.821985e-02 5.333044e-02 7.057591e-02 8.351744e-02 9.786374e-02 1.067758e-01 1.171133e-01 1.217272e-01 1.280201e-01 1.289346e-01 1.318776e-01 1.302752e-01 1.310064e-01 1.283359e-01 1.280891e-01 1.256881e-01 1.253822e-01 1.240330e-01 1.239566e-01 1.236845e-01 1.234518e-01 1.236309e-01 1.224503e-01 1.221300e-01 1.191569e-01 1.174101e-01 1.120788e-01 1.084215e-01 1.007437e-01 9.545266e-02 8.600695e-02 7.966055e-02 6.912658e-02 6.223616e-02 5.118922e-02 4.415439e-02 3.312217e-02 2.636081e-02 1.631975e-02 1.127453e-02 9.975951e-03 1.374488e-02 2.251536e-02 2.778700e-02 3.688782e-02 4.171050e-02 5.014527e-02 5.426069e-02 6.179987e-02 6.511910e-02 7.165028e-02 
8.314100e-02 8.900916e-02 9.039405e-02 9.501956e-02 9.560712e-02 9.893951e-02 9.874850e-02 1.007623e-01 9.982933e-02 1.005250e-01 9.890409e-02 9.830971e-02 9.607225e-02 9.424495e-02 9.147941e-02 8.850652e-02 8.531772e-02 8.131701e-02 7.782529e-02 7.294473e-02 6.928497e-02 6.370191e-02 6.002235e-02 5.394222e-02 5.040295e-02 4.405705e-02 4.082762e-02 3.446907e-02 3.172482e-02 2.562101e-02 2.353977e-02 1.796028e-02 1.673379e-02 1.195064e-02 1.186995e-02 8.291706e-03 9.919573e-03 8.331132e-03 1.195863e-02 1.254526e-02 1.787540e-02 2.032681e-02 2.732903e-02 3.160331e-02 4.027432e-02 4.636078e-02 5.654334e-02 6.428871e-02 7.564710e-02 8.470758e-02 9.672916e-02 1.065661e-01 1.185760e-01 1.284756e-01 1.396710e-01 1.487878e-01 1.582955e-01 1.657191e-01 1.726743e-01 1.775152e-01 1.811521e-01 1.826363e-01 1.823801e-01 1.799416e-01 1.754893e-01 1.688523e-01 1.602405e-01 1.494930e-01 1.371640e-01 1.228497e-01 1.077710e-01 9.111695e-02 7.519936e-02 5.912474e-02 4.733598e-02 4.108986e-02 4.448299e-02 5.504449e-02 6.731470e-02 8.192448e-02 9.336055e-02 1.061409e-01 1.139556e-01 1.231927e-01 1.267967e-01 1.322348e-01 1.321621e-01 1.343702e-01 1.318706e-01 1.318917e-01 1.285558e-01 1.276151e-01 1.249301e-01 1.240191e-01 1.227956e-01 1.222046e-01 1.223373e-01 1.216284e-01 1.223595e-01 1.206424e-01 1.209619e-01 1.173572e-01 1.162947e-01 1.102395e-01 1.072451e-01 9.877522e-02 9.416495e-02 8.394584e-02 7.831756e-02 6.709959e-02 6.097042e-02 4.945886e-02 4.331139e-02 3.245991e-02 2.709922e-02 1.961619e-02 1.770818e-02 2.024637e-02 2.353785e-02 3.214919e-02 3.661885e-02 4.602766e-02 5.027591e-02 5.921971e-02 6.288813e-02 7.097102e-02 7.392598e-02 8.095916e-02 
7.716012e-02 8.239745e-02 8.377008e-02 8.796045e-02 8.855915e-02 9.163741e-02 9.146893e-02 9.339983e-02 9.249341e-02 9.326898e-02 9.167430e-02 9.131385e-02 8.909966e-02 8.765050e-02 8.490345e-02 8.244152e-02 7.926474e-02 7.589489e-02 7.240623e-02 6.826193e-02 6.459188e-02 5.983447e-02 5.612335e-02 5.094032e-02 4.733427e-02 4.193583e-02 3.858015e-02 3.319192e-02 3.022063e-02 2.506881e-02 2.259241e-02 1.787817e-02 1.599355e-02 1.188106e-02 1.083290e-02 7.691715e-03 8.521130e-03 7.810864e-03 1.145081e-02 1.339848e-02 1.891268e-02 2.268520e-02 2.981903e-02 3.526585e-02 4.398939e-02 5.108732e-02 6.124949e-02 6.985360e-02 8.112991e-02 9.091132e-02 1.028012e-01 1.132393e-01 1.250827e-01 1.354850e-01 1.464992e-01 1.560466e-01 1.653868e-01 1.732022e-01 1.800425e-01 1.852781e-01 1.889035e-01 1.908364e-01 1.907345e-01 1.888580e-01 1.847976e-01 1.788998e-01 1.709951e-01 1.612318e-01 1.500078e-01 1.370003e-01 1.235150e-01 1.085823e-01 9.476939e-02 8.063077e-02 7.025914e-02 6.258692e-02 6.143808e-02 6.546854e-02 7.283226e-02 8.350845e-02 9.240000e-02 1.033775e-01 1.099180e-01 1.183624e-01 1.213551e-01 1.264313e-01 1.260801e-01 1.280703e-01 1.253609e-01 1.252160e-01 1.215585e-01 1.205777e-01 1.174998e-01 1.168021e-01 1.152296e-01 1.151864e-01 1.151166e-01 1.151935e-01 1.158691e-01 1.151477e-01 1.155762e-01 1.132007e-01 1.123585e-01 1.077228e-01 1.048993e-01 9.792310e-02 9.354819e-02 8.496430e-02 7.966634e-02 7.024034e-02 6.451002e-02 5.497709e-02 4.932370e-02 4.068704e-02 3.592786e-02 3.011245e-02 2.780734e-02 2.771594e-02 2.900954e-02 3.416850e-02 3.745376e-02 4.461704e-02 4.829102e-02 5.569698e-02 5.908337e-02 6.603426e-02 6.885434e-02 7.503410e-02 
8.757092e-02 9.318850e-02 9.426647e-02 9.873938e-02 9.909805e-02 1.023373e-01 1.019800e-01 1.039334e-01 1.028868e-01 1.035356e-01 1.018470e-01 1.012059e-01 9.894140e-02 9.705815e-02 9.430113e-02 9.125692e-02 8.810596e-02 8.401478e-02 8.058123e-02 7.558875e-02 7.199391e-02 6.627577e-02 6.264722e-02 5.640651e-02 5.287304e-02 4.633605e-02 4.301995e-02 3.642835e-02 3.343362e-02 2.702887e-02 2.442653e-02 1.841881e-02 1.624816e-02 1.076456e-02 9.195149e-03 4.408053e-03 5.335312e-03 5.130007e-03 9.690357e-03 1.244704e-02 1.818291e-02 2.209396e-02 2.928628e-02 3.442555e-02 4.319451e-02 4.971921e-02 5.994841e-02 6.784086e-02 7.920661e-02 8.823040e-02 1.002254e-01 1.099311e-01 1.218912e-01 1.316455e-01 1.427916e-01 1.518266e-01 1.613283e-01 1.688128e-01 1.758700e-01 1.809970e-01 1.849342e-01 1.870168e-01 1.873746e-01 1.859405e-01 1.825573e-01 1.774374e-01 1.705211e-01 1.619409e-01 1.521541e-01 1.408648e-01 1.294712e-01 1.170062e-01 1.061626e-01 9.532080e-02 8.835588e-02 8.326046e-02 8.321485e-02 8.606020e-02 9.156598e-02 9.931269e-02 1.058976e-01 1.142825e-01 1.187369e-01 1.252067e-01 1.262663e-01 1.298668e-01 1.276795e-01 1.284977e-01 1.241161e-01 1.228689e-01 1.179072e-01 1.158623e-01 1.121702e-01 1.107011e-01 1.092857e-01 1.087555e-01 1.092842e-01 1.090781e-01 1.105449e-01 1.094906e-01 1.108932e-01 1.081324e-01 1.084294e-01 1.034123e-01 1.016534e-01 9.423460e-02 9.098599e-02 8.208340e-02 7.798194e-02 6.846219e-02 6.396120e-02 5.474326e-02 5.041710e-02 4.289749e-02 3.969844e-02 3.609149e-02 3.525161e-02 3.719185e-02 3.884424e-02 4.484712e-02 4.776189e-02 5.539844e-02 5.856544e-02 6.643375e-02 6.934339e-02 7.676776e-02 7.917206e-02 8.579822e-02 
8.302311e-02 8.789415e-02 8.879558e-02 9.276066e-02 9.301405e-02 9.595817e-02 9.555072e-02 9.740263e-02 9.635074e-02 9.707626e-02 9.542076e-02 9.502023e-02 9.282284e-02 9.133023e-02 8.867050e-02 8.615285e-02 8.312477e-02 7.968144e-02 7.638968e-02 7.215108e-02 6.870640e-02 6.383201e-02 6.034529e-02 5.502033e-02 5.159412e-02 4.602364e-02 4.273951e-02 3.713704e-02 3.403687e-02 2.860311e-02 2.566418e-02 2.054973e-02 1.766165e-02 1.290946e-02 9.893820e-03 5.359757e-03 2.720742e-03 2.881475e-03 7.963519e-03 1.223374e-02 1.848045e-02 2.367549e-02 3.136218e-02 3.767468e-02 4.685272e-02 5.441915e-02 6.494456e-02 7.372456e-02 8.526819e-02 9.502082e-02 1.070810e-01 1.173696e-01 1.292975e-01 1.395165e-01 1.505609e-01 1.599853e-01 1.693605e-01 1.772169e-01 1.841896e-01 1.897448e-01 1.937293e-01 1.963847e-01 1.970323e-01 1.964115e-01 1.936786e-01 1.896985e-01 1.838897e-01 1.768181e-01 1.686152e-01 1.591360e-01 1.496362e-01 1.389587e-01 1.297297e-01 1.197396e-01 1.127677e-01 1.059475e-01 1.029892e-01 1.012973e-01 1.023508e-01 1.053593e-01 1.082181e-01 1.133870e-01 1.154565e-01 1.201747e-01 1.199463e-01 1.226359e-01 1.198505e-01 1.200424e-01 1.152595e-01 1.133818e-01 1.077523e-01 1.051812e-01 1.007022e-01 9.908579e-02 9.701141e-02 9.699418e-02 9.724441e-02 9.782582e-02 9.930441e-02 9.931676e-02 1.011754e-01 9.996611e-02 1.011687e-01 9.823169e-02 9.721588e-02 9.185291e-02 8.950643e-02 8.282370e-02 7.970771e-02 7.250717e-02 6.892046e-02 6.198823e-02 5.841353e-02 5.280066e-02 4.996799e-02 4.694951e-02 4.562622e-02 4.608079e-02 4.652872e-02 5.007685e-02 5.180317e-02 5.719044e-02 5.947283e-02 6.556310e-02 6.786387e-02 7.392814e-02 7.592160e-02 8.152394e-02 
9.471771e-02 9.999157e-02 1.006121e-01 1.048722e-01 1.048816e-01 1.079904e-01 1.073756e-01 1.092437e-01 1.080200e-01 1.086010e-01 1.068074e-01 1.060957e-01 1.037921e-01 1.018217e-01 9.908466e-02 9.592832e-02 9.284763e-02 8.861520e-02 8.528913e-02 8.012558e-02 7.665563e-02 7.073853e-02 6.722286e-02 6.075930e-02 5.728399e-02 5.050645e-02 4.713308e-02 4.029343e-02 3.704062e-02 3.040184e-02 2.721822e-02 2.104968e-02 1.777493e-02 1.240658e-02 8.714810e-03 5.375582e-03 2.502711e-03 7.605594e-03 1.092259e-02 1.643773e-02 2.178470e-02 2.745666e-02 3.452845e-02 4.078219e-02 4.951114e-02 5.662840e-02 6.681960e-02 7.488671e-02 8.617496e-02 9.506465e-02 1.069221e-01 1.163021e-01 1.280674e-01 1.374319e-01 1.483605e-01 1.570817e-01 1.664173e-01 1.738164e-01 1.808789e-01 1.863087e-01 1.905867e-01 1.935185e-01 1.947507e-01 1.948554e-01 1.930885e-01 1.903079e-01 1.859300e-01 1.805395e-01 1.742941e-01 1.669600e-01 1.599347e-01 1.517518e-01 1.452909e-01 1.377327e-01 1.331499e-01 1.277601e-01 1.257425e-01 1.234561e-01 1.234731e-01 1.240010e-01 1.244608e-01 1.264644e-01 1.256234e-01 1.275072e-01 1.243022e-01 1.249052e-01 1.192612e-01 1.180251e-01 1.106424e-01 1.074241e-01 9.969065e-02 9.556966e-02 9.015783e-02 8.759505e-02 8.593409e-02 8.535367e-02 8.641543e-02 8.692227e-02 8.920212e-02 8.889341e-02 9.186737e-02 9.034797e-02 9.328756e-02 9.056216e-02 9.115079e-02 8.587653e-02 8.526442e-02 7.887761e-02 7.746736e-02 7.081573e-02 6.877960e-02 6.275453e-02 6.059026e-02 5.635807e-02 5.478657e-02 5.347893e-02 5.308695e-02 5.509692e-02 5.595111e-02 6.060525e-02 6.229676e-02 6.846358e-02 7.048684e-02 7.720606e-02 7.917241e-02 8.579018e-02 8.744453e-02 9.353365e-02 
9.143079e-02 9.586677e-02 9.615544e-02 9.984572e-02 9.963624e-02 1.024159e-01 1.016825e-01 1.034387e-01 1.021880e-01 1.028535e-01 1.011187e-01 1.006689e-01 9.850459e-02 9.695605e-02 9.443281e-02 9.184146e-02 8.904055e-02 8.550016e-02 8.250720e-02 7.814712e-02 7.504491e-02 7.002689e-02 6.688677e-02 6.140063e-02 5.827145e-02 5.252870e-02 4.942283e-02 4.364709e-02 4.052357e-02 3.493873e-02 3.168679e-02 2.651306e-02 2.294904e-02 1.846216e-02 1.441061e-02 1.140141e-02 7.716212e-03 9.512815e-03 1.129384e-02 1.691383e-02 2.249583e-02 2.895283e-02 3.669243e-02 4.390795e-02 5.336339e-02 6.144643e-02 7.228194e-02 8.121565e-02 9.300060e-02 1.025988e-01 1.147750e-01 1.246853e-01 1.365865e-01 1.463193e-01 1.572229e-01 1.662025e-01 1.754085e-01 1.830423e-01 1.899682e-01 1.957270e-01 2.000030e-01 2.034998e-01 2.050406e-01 2.060913e-01 2.051197e-01 2.037711e-01 2.007791e-01 1.972943e-01 1.929436e-01 1.877499e-01 1.827311e-01 1.763532e-01 1.712394e-01 1.642521e-01 1.593915e-01 1.524325e-01 1.479301e-01 1.417626e-01 1.375513e-01 1.330096e-01 1.289066e-01 1.264579e-01 1.221092e-01 1.212324e-01 1.161559e-01 1.154197e-01 1.093370e-01 1.072677e-01 1.000542e-01 9.575474e-02 8.735083e-02 8.191771e-02 7.525185e-02 7.162815e-02 6.859995e-02 6.850329e-02 6.895434e-02 6.988299e-02 7.178586e-02 7.217409e-02 7.572200e-02 7.587986e-02 8.090821e-02 8.175792e-02 8.395245e-02 8.161944e-02 8.292931e-02 7.952824e-02 7.985535e-02 7.598221e-02 7.523100e-02 7.149143e-02 7.010075e-02 6.729370e-02 6.591202e-02 6.476725e-02 6.393380e-02 6.482434e-02 6.477517e-02 6.756588e-02 6.821061e-02 7.238662e-02 7.344823e-02 7.838805e-02 7.956238e-02 8.471980e-02 8.575689e-02 9.070982e-02 
1.043248e-01 1.092380e-01 1.093098e-01 1.133449e-01 1.129228e-01 1.158948e-01 1.149554e-01 1.167343e-01 1.152850e-01 1.157916e-01 1.138660e-01 1.130702e-01 1.107230e-01 1.086428e-01 1.059446e-01 1.026441e-01 9.967506e-02 9.526249e-02 9.210573e-02 8.673041e-02 8.346418e-02 7.731401e-02 7.400288e-02 6.730212e-02 6.398649e-02 5.699528e-02 5.367887e-02 4.669762e-02 4.333371e-02 3.672298e-02 3.320655e-02 2.746160e-02 2.366676e-02 1.968767e-02 1.579592e-02 1.553001e-02 1.342239e-02 1.806447e-02 1.969766e-02 2.629584e-02 3.082447e-02 3.787838e-02 4.462047e-02 5.200562e-02 6.060042e-02 6.841406e-02 7.850267e-02 8.678065e-02 9.789602e-02 1.065405e-01 1.180925e-01 1.268648e-01 1.381727e-01 1.467213e-01 1.570789e-01 1.649899e-01 1.737555e-01 1.806143e-01 1.873086e-01 1.927581e-01 1.971470e-01 2.009313e-01 2.030645e-01 2.050522e-01 2.052443e-01 2.054388e-01 2.041973e-01 2.027360e-01 2.006511e-01 1.977802e-01 1.953762e-01 1.913733e-01 1.889224e-01 1.839812e-01 1.813443e-01 1.755294e-01 1.721650e-01 1.655851e-01 1.608366e-01 1.539858e-01 1.475119e-01 1.413357e-01 1.332697e-01 1.285324e-01 1.192171e-01 1.157776e-01 1.056071e-01 1.024296e-01 9.166910e-02 8.653175e-02 7.509107e-02 6.714286e-02 5.937618e-02 5.460783e-02 5.275483e-02 5.136501e-02 5.264081e-02 5.391069e-02 5.586625e-02 5.540716e-02 5.944286e-02 5.854346e-02 6.602201e-02 6.857796e-02 7.372187e-02 7.245436e-02 7.648954e-02 7.426406e-02 7.685458e-02 7.424522e-02 7.522758e-02 7.285351e-02 7.278749e-02 7.145944e-02 7.108256e-02 7.143963e-02 7.130481e-02 7.357379e-02 7.391685e-02 7.787389e-02 7.865000e-02 8.378954e-02 8.480359e-02 9.055476e-02 9.158022e-02 9.743385e-02 9.827411e-02 1.038183e-01 
1.020896e-01 1.061006e-01 1.057056e-01 1.091238e-01 1.083802e-01 1.109997e-01 1.098827e-01 1.115498e-01 1.100654e-01 1.106773e-01 1.088566e-01 1.083607e-01 1.062537e-01 1.046468e-01 1.023149e-01 9.964173e-02 9.715049e-02 9.350142e-02 9.091186e-02 8.641963e-02 8.377931e-02 7.861487e-02 7.594809e-02 7.031560e-02 6.761315e-02 6.174448e-02 5.895441e-02 5.310492e-02 5.012839e-02 4.458071e-02 4.128482e-02 3.638243e-02 3.266675e-02 2.893821e-02 2.498585e-02 2.345808e-02 2.050128e-02 2.265306e-02 2.313147e-02 2.864982e-02 3.307552e-02 4.023125e-02 4.760400e-02 5.561865e-02 6.514137e-02 7.377884e-02 8.483268e-02 9.392866e-02 1.058881e-01 1.152088e-01 1.273809e-01 1.366046e-01 1.482483e-01 1.569993e-01 1.673954e-01 1.753038e-01 1.838600e-01 1.906279e-01 1.969926e-01 2.024474e-01 2.065993e-01 2.107161e-01 2.129854e-01 2.158654e-01 2.168454e-01 2.186430e-01 2.189831e-01 2.197831e-01 2.199133e-01 2.195948e-01 2.194880e-01 2.176360e-01 2.167175e-01 2.126502e-01 2.099104e-01 2.029016e-01 1.972366e-01 1.870318e-01 1.778374e-01 1.654130e-01 1.532933e-01 1.412661e-01 1.282257e-01 1.196054e-01 1.078886e-01 1.031427e-01 9.376098e-02 9.021142e-02 8.263037e-02 7.629366e-02 6.622862e-02 5.507252e-02 4.544202e-02 3.574711e-02 3.058226e-02 2.993724e-02 2.987324e-02 3.018514e-02 3.003533e-02 2.908244e-02 3.280577e-02 3.256492e-02 4.380941e-02 5.394850e-02 6.297327e-02 6.572158e-02 7.327851e-02 7.504545e-02 8.022552e-02 8.079477e-02 8.328358e-02 8.303285e-02 8.365953e-02 8.334163e-02 8.303464e-02 8.330593e-02 8.274537e-02 8.401350e-02 8.358382e-02 8.596599e-02 8.579846e-02 8.915896e-02 8.921136e-02 9.325462e-02 9.339769e-02 9.776692e-02 9.785102e-02 1.021962e-01 
1.161516e-01 1.207557e-01 1.202432e-01 1.240912e-01 1.231941e-01 1.260593e-01 1.247540e-01 1.264653e-01 1.247594e-01 1.252029e-01 1.231299e-01 1.222495e-01 1.198636e-01 1.176610e-01 1.150291e-01 1.115623e-01 1.087563e-01 1.041368e-01 1.012243e-01 9.561414e-02 9.264854e-02 8.625752e-02 8.326823e-02 7.635348e-02 7.333622e-02 6.620654e-02 6.311605e-02 5.614756e-02 5.289937e-02 4.657704e-02 4.307916e-02 3.809422e-02 3.437414e-02 3.178526e-02 2.835697e-02 2.946297e-02 2.771546e-02 3.270078e-02 3.386947e-02 4.116669e-02 4.527409e-02 5.351099e-02 6.011156e-02 6.870661e-02 7.732495e-02 8.604231e-02 9.615552e-02 1.048218e-01 1.158082e-01 1.242146e-01 1.353555e-01 1.432544e-01 1.537908e-01 1.609468e-01 1.701849e-01 1.764517e-01 1.839017e-01 1.892882e-01 1.947971e-01 1.994755e-01 2.032892e-01 2.075111e-01 2.101988e-01 2.141410e-01 2.163776e-01 2.200097e-01 2.223153e-01 2.253779e-01 2.279380e-01 2.299964e-01 2.325730e-01 2.330219e-01 2.348790e-01 2.328457e-01 2.326972e-01 2.270212e-01 2.231680e-01 2.128220e-01 2.037735e-01 1.889446e-01 1.745572e-01 1.578336e-01 1.401882e-01 1.261068e-01 1.086696e-01 1.004289e-01 8.585872e-02 8.293191e-02 7.200359e-02 6.902607e-02 5.618705e-02 4.067981e-02 3.287208e-02 2.189677e-02 1.613790e-02 8.591918e-03 7.245012e-03 1.040395e-02 7.630363e-03 6.970553e-03 5.526669e-03 2.141419e-03 1.229379e-02 2.994759e-02 4.790567e-02 5.216129e-02 6.384816e-02 6.827560e-02 7.646430e-02 7.915645e-02 8.345375e-02 8.494633e-02 8.671503e-02 8.792523e-02 8.839256e-02 9.006063e-02 9.004134e-02 9.260324e-02 9.254020e-02 9.611338e-02 9.617147e-02 1.006157e-01 1.007823e-01 1.057996e-01 1.059734e-01 1.112026e-01 1.112558e-01 1.163362e-01 
1.147570e-01 1.184149e-01 1.173225e-01 1.205198e-01 1.192122e-01 1.217121e-01 1.201821e-01 1.217935e-01 1.200594e-01 1.206438e-01 1.187436e-01 1.182192e-01 1.162030e-01 1.145468e-01 1.124679e-01 1.097150e-01 1.076206e-01 1.038619e-01 1.017830e-01 9.716090e-02 9.510299e-02 8.980546e-02 8.773968e-02 8.199427e-02 7.985127e-02 7.391968e-02 7.158926e-02 6.576694e-02 6.311069e-02 5.773992e-02 5.463357e-02 5.014763e-02 4.659114e-02 4.361027e-02 3.998208e-02 3.940494e-02 3.684986e-02 3.954169e-02 3.976365e-02 4.558452e-02 4.944487e-02 5.729762e-02 6.444157e-02 7.336879e-02 8.303059e-02 9.244579e-02 1.038065e-01 1.132711e-01 1.254687e-01 1.345581e-01 1.466776e-01 1.549717e-01 1.660995e-01 1.732550e-01 1.826015e-01 1.884656e-01 1.955396e-01 2.002511e-01 2.050364e-01 2.090456e-01 2.120952e-01 2.160456e-01 2.183877e-01 2.228648e-01 2.256575e-01 2.308955e-01 2.349118e-01 2.405860e-01 2.457938e-01 2.509876e-01 2.564422e-01 2.597512e-01 2.637500e-01 2.633814e-01 2.636849e-01 2.575883e-01 2.517150e-01 2.381462e-01 2.241732e-01 2.031845e-01 1.814194e-01 1.570839e-01 1.320300e-01 1.131736e-01 9.300907e-02 8.626283e-02 7.615291e-02 7.565011e-02 7.635197e-02 7.333697e-02 7.316090e-02 4.964172e-02 3.395634e-02 1.409294e-02 2.079995e-02 1.294528e-02 1.944423e-02 2.658274e-02 3.039799e-02 3.613173e-02 3.928166e-02 4.087246e-02 3.899340e-02 4.349035e-02 3.470496e-02 4.003405e-02 5.964923e-02 7.035500e-02 8.209103e-02 8.818072e-02 9.381784e-02 9.702313e-02 9.919249e-02 1.009415e-01 1.013005e-01 1.026154e-01 1.021389e-01 1.036798e-01 1.029063e-01 1.050243e-01 1.042122e-01 1.070054e-01 1.062361e-01 1.096133e-01 1.088660e-01 1.126146e-01 1.118223e-01 1.156693e-01 
1.299996e-01 1.344039e-01 1.333177e-01 1.370646e-01 1.356834e-01 1.385092e-01 1.368212e-01 1.385151e-01 1.365379e-01 1.369506e-01 1.347265e-01 1.337758e-01 1.313650e-01 1.290382e-01 1.265088e-01 1.228622e-01 1.202804e-01 1.154364e-01 1.128545e-01 1.069982e-01 1.044439e-01 9.781957e-02 9.528549e-02 8.819625e-02 8.563333e-02 7.844753e-02 7.576591e-02 6.893571e-02 6.602423e-02 6.012575e-02 5.691489e-02 5.271100e-02 4.932613e-02 4.778567e-02 4.481009e-02 4.681907e-02 4.538496e-02 5.098766e-02 5.216458e-02 6.034310e-02 6.447353e-02 7.402225e-02 8.086054e-02 9.093279e-02 9.995691e-02 1.099745e-01 1.204912e-01 1.299617e-01 1.411253e-01 1.495635e-01 1.604137e-01 1.673719e-01 1.769352e-01 1.821252e-01 1.895985e-01 1.930761e-01 1.980846e-01 2.004234e-01 2.032838e-01 2.055834e-01 2.073915e-01 2.109335e-01 2.132344e-01 2.188062e-01 2.228506e-01 2.302241e-01 2.363434e-01 2.444345e-01 2.520612e-01 2.595085e-01 2.675462e-01 2.730098e-01 2.799587e-01 2.818447e-01 2.855536e-01 2.815035e-01 2.788846e-01 2.659353e-01 2.535898e-01 2.300565e-01 2.066228e-01 1.757556e-01 1.454229e-01 1.181950e-01 9.229711e-02 8.102923e-02 7.044127e-02 7.164642e-02 7.520902e-02 8.687524e-02 7.934878e-02 6.142655e-02 5.455223e-02 4.300442e-02 3.292958e-02 3.404380e-02 3.630220e-02 3.842809e-02 3.720291e-02 3.063477e-02 2.967971e-02 2.263946e-02 2.380715e-02 2.307331e-02 1.814458e-02 2.773631e-02 5.278936e-02 6.562584e-02 8.005717e-02 8.844797e-02 9.527367e-02 1.001607e-01 1.029611e-01 1.060730e-01 1.068779e-01 1.094451e-01 1.093443e-01 1.121126e-01 1.116736e-01 1.150110e-01 1.144947e-01 1.184816e-01 1.179643e-01 1.224776e-01 1.219318e-01 1.267224e-01 1.260742e-01 1.308327e-01 
1.292502e-01 1.326744e-01 1.309125e-01 1.339838e-01 1.321144e-01 1.345716e-01 1.326223e-01 1.342402e-01 1.322567e-01 1.328619e-01 1.309003e-01 1.303819e-01 1.284992e-01 1.268149e-01 1.250579e-01 1.222363e-01 1.206310e-01 1.167687e-01 1.153105e-01 1.105667e-01 1.092118e-01 1.037995e-01 1.024606e-01 9.663715e-02 9.518308e-02 8.924357e-02 8.750922e-02 8.178590e-02 7.960021e-02 7.447771e-02 7.172565e-02 6.768130e-02 6.442856e-02 6.209420e-02 5.880311e-02 5.896999e-02 5.671797e-02 6.006057e-02 6.032446e-02 6.682588e-02 7.060246e-02 7.945995e-02 8.675368e-02 9.695536e-02 1.071002e-01 1.177635e-01 1.297910e-01 1.401260e-01 1.528982e-01 1.621307e-01 1.743985e-01 1.817987e-01 1.923113e-01 1.973466e-01 2.050658e-01 2.076564e-01 2.120770e-01 2.128668e-01 2.143774e-01 2.148310e-01 2.149194e-01 2.169829e-01 2.179566e-01 2.231999e-01 2.272162e-01 2.359338e-01 2.438211e-01 2.548496e-01 2.657230e-01 2.770268e-01 2.888236e-01 2.981235e-01 3.082004e-01 3.129749e-01 3.181420e-01 3.150839e-01 3.111696e-01 2.961491e-01 2.784988e-01 2.487214e-01 2.152289e-01 1.748142e-01 1.325284e-01 1.028138e-01 7.830766e-02 8.835562e-02 8.713356e-02 9.877619e-02 1.087208e-01 1.208189e-01 1.444182e-01 8.834429e-02 6.548534e-02 6.420641e-02 4.471943e-02 1.558749e-02 2.820744e-03 3.388670e-02 4.735204e-02 6.329242e-02 7.142995e-02 7.741333e-02 8.356210e-02 8.386049e-02 8.982866e-02 6.670732e-02 7.362288e-02 8.208670e-02 9.422397e-02 1.034416e-01 1.096561e-01 1.149594e-01 1.173867e-01 1.203057e-01 1.207280e-01 1.225923e-01 1.219956e-01 1.236451e-01 1.225591e-01 1.244765e-01 1.231726e-01 1.255792e-01 1.241765e-01 1.270975e-01 1.256277e-01 1.289449e-01 1.273968e-01 1.308985e-01 
1.457119e-01 1.500758e-01 1.484629e-01 1.522405e-01 1.503941e-01 1.532868e-01 1.512188e-01 1.529761e-01 1.507266e-01 1.511634e-01 1.487943e-01 1.478030e-01 1.453891e-01 1.429457e-01 1.405628e-01 1.367282e-01 1.344397e-01 1.293571e-01 1.272009e-01 1.210897e-01 1.190656e-01 1.122162e-01 1.102770e-01 1.030470e-01 1.010954e-01 9.391189e-02 9.181070e-02 8.518309e-02 8.278918e-02 7.733489e-02 7.458033e-02 7.105216e-02 6.809665e-02 6.734860e-02 6.477792e-02 6.752479e-02 6.638368e-02 7.273675e-02 7.411210e-02 8.338603e-02 8.784509e-02 9.897222e-02 1.064383e-01 1.184014e-01 1.283279e-01 1.402267e-01 1.517350e-01 1.626886e-01 1.746321e-01 1.837227e-01 1.947531e-01 2.010862e-01 2.097953e-01 2.127088e-01 2.179067e-01 2.173471e-01 2.185227e-01 2.155381e-01 2.134676e-01 2.105432e-01 2.077196e-01 2.082574e-01 2.082558e-01 2.145636e-01 2.198192e-01 2.311634e-01 2.413088e-01 2.548253e-01 2.677940e-01 2.807982e-01 2.945528e-01 3.054035e-01 3.182433e-01 3.254632e-01 3.351172e-01 3.355254e-01 3.374656e-01 3.249930e-01 3.122234e-01 2.802905e-01 2.473501e-01 1.970746e-01 1.505412e-01 1.078094e-01 9.177645e-02 9.906916e-02 1.238950e-01 1.172346e-01 1.587473e-01 1.906940e-01 1.037496e-01 3.452602e-02 4.354701e-02 4.739426e-02 7.968743e-02 1.181625e-01 1.285734e-01 1.407425e-01 1.379475e-01 1.349459e-01 1.379713e-01 1.275689e-01 1.384329e-01 1.245734e-01 1.210802e-01 8.765770e-02 8.698277e-02 9.229014e-02 1.003893e-01 1.092599e-01 1.141090e-01 1.199649e-01 1.220332e-01 1.258370e-01 1.263063e-01 1.292369e-01 1.288743e-01 1.317202e-01 1.309644e-01 1.341702e-01 1.332448e-01 1.369862e-01 1.359758e-01 1.402222e-01 1.391278e-01 1.437005e-01 1.424810e-01 1.471079e-01 
1.454335e-01 1.487838e-01 1.464090e-01 1.494883e-01 1.470815e-01 1.496081e-01 1.472493e-01 1.489659e-01 1.467452e-01 1.474435e-01 1.454487e-01 1.449879e-01 1.432905e-01 1.416105e-01 1.402522e-01 1.373784e-01 1.363603e-01 1.324016e-01 1.316764e-01 1.268163e-01 1.262844e-01 1.207684e-01 1.202788e-01 1.143993e-01 1.137573e-01 1.078424e-01 1.068290e-01 1.012396e-01 9.965044e-02 9.479406e-02 9.251167e-02 8.887898e-02 8.599968e-02 8.421196e-02 8.123398e-02 8.203466e-02 8.001673e-02 8.405973e-02 8.444951e-02 9.186895e-02 9.582583e-02 1.060290e-01 1.138342e-01 1.257934e-01 1.368870e-01 1.494622e-01 1.627386e-01 1.747406e-01 1.887357e-01 1.988926e-01 2.118867e-01 2.188974e-01 2.290689e-01 2.318401e-01 2.375787e-01 2.356923e-01 2.361375e-01 2.305059e-01 2.262942e-01 2.197209e-01 2.136749e-01 2.105735e-01 2.074633e-01 2.117354e-01 2.158503e-01 2.279128e-01 2.398931e-01 2.566583e-01 2.737607e-01 2.913678e-01 3.100155e-01 3.256360e-01 3.427595e-01 3.542031e-01 3.667261e-01 3.702383e-01 3.724798e-01 3.605705e-01 3.430324e-01 3.066285e-01 2.601322e-01 1.991623e-01 1.313718e-01 1.025102e-01 1.123161e-01 1.758137e-01 1.825944e-01 2.133242e-01 2.343478e-01 1.118882e-01 7.710259e-02 2.649683e-02 8.960095e-02 1.664314e-01 1.453157e-01 1.313544e-01 1.174453e-01 9.001187e-02 8.130085e-02 6.150662e-02 6.179798e-02 4.425022e-02 5.197295e-02 3.525511e-02 6.373751e-02 9.133674e-02 1.018432e-01 1.149401e-01 1.198953e-01 1.281181e-01 1.311212e-01 1.361002e-01 1.374003e-01 1.403734e-01 1.404381e-01 1.424032e-01 1.416614e-01 1.433237e-01 1.420746e-01 1.438878e-01 1.423126e-01 1.445242e-01 1.427195e-01 1.454061e-01 1.434179e-01 1.465175e-01 1.443701e-01 1.477148e-01 
1.631625e-01 1.676925e-01 1.656277e-01 1.696125e-01 1.673400e-01 1.704450e-01 1.680139e-01 1.699471e-01 1.674336e-01 1.679728e-01 1.654713e-01 1.644837e-01 1.620944e-01 1.595485e-01 1.573618e-01 1.533312e-01 1.514110e-01 1.460704e-01 1.444396e-01 1.380557e-01 1.366834e-01 1.296032e-01 1.283972e-01 1.210368e-01 1.198460e-01 1.126840e-01 1.113164e-01 1.048956e-01 1.031639e-01 9.810330e-02 9.591623e-02 9.292429e-02 9.043557e-02 9.028189e-02 8.806631e-02 9.142380e-02 9.052240e-02 9.765008e-02 9.926436e-02 1.097711e-01 1.147226e-01 1.277020e-01 1.361208e-01 1.504583e-01 1.618155e-01 1.763207e-01 1.895551e-01 2.029209e-01 2.165233e-01 2.272718e-01 2.393598e-01 2.458960e-01 2.543634e-01 2.552317e-01 2.580863e-01 2.525350e-01 2.485673e-01 2.375200e-01 2.274610e-01 2.148039e-01 2.028822e-01 1.959377e-01 1.900287e-01 1.954356e-01 2.012016e-01 2.171595e-01 2.319591e-01 2.512424e-01 2.695731e-01 2.873754e-01 3.061334e-01 3.214132e-01 3.397888e-01 3.531305e-01 3.707706e-01 3.799377e-01 3.919138e-01 3.867653e-01 3.803711e-01 3.441453e-01 3.042539e-01 2.276751e-01 1.599886e-01 1.095015e-01 1.589911e-01 2.143124e-01 2.684792e-01 2.141685e-01 1.311068e-01 7.180330e-02 1.059156e-02 2.063823e-01 2.250207e-01 1.336347e-01 9.017626e-02 4.680264e-02 1.649617e-02 2.177851e-02 2.364047e-02 4.577679e-02 4.389575e-02 5.563473e-02 5.408052e-02 6.199786e-02 5.648807e-02 9.422179e-02 1.037537e-01 1.204451e-01 1.239801e-01 1.327002e-01 1.347239e-01 1.401874e-01 1.411272e-01 1.449235e-01 1.450250e-01 1.480885e-01 1.476176e-01 1.505813e-01 1.497475e-01 1.530095e-01 1.519410e-01 1.556926e-01 1.544445e-01 1.586967e-01 1.572735e-01 1.618889e-01 1.602698e-01 1.650007e-01 