# vtk DataFile Version 2.0
Comment goes here
ASCII

DATASET STRUCTURED_POINTS
DIMENSIONS    128   128   1

ORIGIN    0.000   0.000   0.000
SPACING   0.0156250.015625   1.000

POINT_DATA   16384
SCALARS uMag double
LOOKUP_TABLE default

1.866210e-02 1.974871e-02 2.013098e-02 2.093579e-02 2.116123e-02 2.168176e-02 2.175603e-02 2.199291e-02 2.192303e-02 2.188085e-02 2.167577e-02 2.136377e-02 2.103476e-02 2.046737e-02 2.002834e-02 1.922556e-02 1.869333e-02 1.768088e-02 1.707541e-02 1.588481e-02 1.522944e-02 1.389797e-02 1.321967e-02 1.179034e-02 1.112007e-02 9.641484e-03 9.014427e-03 7.540558e-03 6.996331e-03 5.586116e-03 5.168692e-03 3.885214e-03 3.642377e-03 2.551493e-03 2.533576e-03 1.701690e-03 1.959321e-03 1.450065e-03 2.030638e-03 1.900235e-03 2.842954e-03 3.134171e-03 4.463618e-03 5.198457e-03 6.916976e-03 8.088589e-03 1.016816e-02 1.173295e-02 1.410775e-02 1.597918e-02 1.854049e-02 2.058638e-02 2.318192e-02 2.522738e-02 2.766674e-02 2.950398e-02 3.157142e-02 3.297679e-02 3.445062e-02 3.520709e-02 3.588347e-02 3.580527e-02 3.552240e-02 3.447740e-02 3.313629e-02 3.106285e-02 2.864205e-02 2.555918e-02 2.212379e-02 1.813630e-02 1.384300e-02 9.144162e-03 4.243706e-03 8.848819e-04 6.050609e-03 1.124589e-02 1.626183e-02 2.110774e-02 2.552872e-02 2.961189e-02 3.304002e-02 3.603501e-02 3.821738e-02 3.997581e-02 4.088799e-02 4.148970e-02 4.136087e-02 4.109343e-02 4.034970e-02 3.961844e-02 3.875796e-02 3.795677e-02 3.738977e-02 3.676451e-02 3.666601e-02 3.622725e-02 3.648170e-02 3.602054e-02 3.628828e-02 3.548083e-02 3.535008e-02 3.390291e-02 3.305537e-02 3.084169e-02 2.923377e-02 2.639154e-02 2.432043e-02 2.115663e-02 1.895899e-02 1.572786e-02 1.360475e-02 1.044790e-02 8.480675e-03 5.467415e-03 3.680045e-03 8.487865e-04 7.537138e-04 3.376654e-03 4.794376e-03 7.189244e-03 8.424239e-03 1.057616e-02 1.163183e-02 1.352951e-02 1.441009e-02 1.604453e-02 1.675453e-02 1.811820e-02 
1.618151e-02 1.711369e-02 1.754427e-02 1.824381e-02 1.850901e-02 1.897495e-02 1.907933e-02 1.931312e-02 1.926297e-02 1.926908e-02 1.907294e-02 1.885945e-02 1.852839e-02 1.810755e-02 1.765550e-02 1.704408e-02 1.648802e-02 1.570765e-02 1.506778e-02 1.414512e-02 1.344504e-02 1.241193e-02 1.167884e-02 1.057240e-02 9.837289e-03 8.699952e-03 7.997693e-03 6.876981e-03 6.246261e-03 5.194170e-03 4.677012e-03 3.748635e-03 3.389933e-03 2.641802e-03 2.491978e-03 1.985957e-03 2.112069e-03 1.928706e-03 2.401580e-03 2.606772e-03 3.453227e-03 4.067689e-03 5.296962e-03 6.329190e-03 7.942074e-03 9.382813e-03 1.135377e-02 1.315994e-02 1.542597e-02 1.751186e-02 1.996700e-02 2.220126e-02 2.469598e-02 2.690468e-02 2.925153e-02 3.122831e-02 3.321481e-02 3.473836e-02 3.614672e-02 3.700377e-02 3.763489e-02 3.764525e-02 3.734318e-02 3.638237e-02 3.505539e-02 3.307179e-02 3.070837e-02 2.773592e-02 2.441997e-02 2.059774e-02 1.654875e-02 1.222230e-02 8.125999e-03 5.312723e-03 6.489911e-03 1.045889e-02 1.494209e-02 1.956989e-02 2.379550e-02 2.783140e-02 3.116401e-02 3.417772e-02 3.632066e-02 3.813128e-02 3.904029e-02 3.971569e-02 3.959954e-02 3.942892e-02 3.869020e-02 3.808795e-02 3.720702e-02 3.657311e-02 3.595735e-02 3.553399e-02 3.536481e-02 3.515640e-02 3.532935e-02 3.512178e-02 3.530906e-02 3.478738e-02 3.458372e-02 3.346268e-02 3.254066e-02 3.068654e-02 2.898856e-02 2.652532e-02 2.436648e-02 2.159978e-02 1.932538e-02 1.650600e-02 1.431635e-02 1.158711e-02 9.570198e-03 7.028727e-03 5.258977e-03 3.165485e-03 2.186733e-03 2.648904e-03 3.745895e-03 5.594814e-03 6.831387e-03 8.619817e-03 9.724038e-03 1.132477e-02 1.226462e-02 1.365097e-02 1.442050e-02 1.558239e-02 
1.894545e-02 2.001817e-02 2.038257e-02 2.117889e-02 2.139186e-02 2.190683e-02 2.197270e-02 2.220537e-02 2.213032e-02 2.208427e-02 2.187662e-02 2.156048e-02 2.123101e-02 2.065885e-02 2.022101e-02 1.941267e-02 1.888276e-02 1.786393e-02 1.726121e-02 1.606349e-02 1.541034e-02 1.407113e-02 1.339313e-02 1.195548e-02 1.128151e-02 9.793893e-03 9.156013e-03 7.671713e-03 7.104713e-03 5.680620e-03 5.221120e-03 3.914967e-03 3.601208e-03 2.466970e-03 2.348490e-03 1.444446e-03 1.636445e-03 1.134682e-03 1.781390e-03 1.813568e-03 2.817632e-03 3.259740e-03 4.617348e-03 5.452616e-03 7.187630e-03 8.425121e-03 1.052029e-02 1.213241e-02 1.452563e-02 1.643573e-02 1.901949e-02 2.110095e-02 2.372332e-02 2.580427e-02 2.827509e-02 3.014958e-02 3.225366e-02 3.369988e-02 3.521708e-02 3.602126e-02 3.675132e-02 3.673409e-02 3.652271e-02 3.556412e-02 3.432739e-02 3.238933e-02 3.013804e-02 2.729066e-02 2.417053e-02 2.065923e-02 1.709059e-02 1.364975e-02 1.106349e-02 1.029612e-02 1.193186e-02 1.520659e-02 1.918918e-02 2.337071e-02 2.737129e-02 3.112364e-02 3.430767e-02 3.708301e-02 3.906896e-02 4.064147e-02 4.135311e-02 4.176914e-02 4.141669e-02 4.095226e-02 3.996858e-02 3.903861e-02 3.795846e-02 3.699523e-02 3.628759e-02 3.558192e-02 3.545572e-02 3.502351e-02 3.534525e-02 3.494564e-02 3.533293e-02 3.461349e-02 3.462858e-02 3.329327e-02 3.258091e-02 3.048987e-02 2.896354e-02 2.623599e-02 2.425386e-02 2.121941e-02 1.914160e-02 1.606850e-02 1.409168e-02 1.116165e-02 9.397243e-03 6.851545e-03 5.516739e-03 4.203044e-03 4.097647e-03 5.241059e-03 6.173676e-03 8.162901e-03 9.216205e-03 1.121117e-02 1.217391e-02 1.399579e-02 1.482031e-02 1.641375e-02 1.708683e-02 1.842701e-02 
1.674668e-02 1.764323e-02 1.802530e-02 1.870335e-02 1.893612e-02 1.938898e-02 1.947358e-02 1.969914e-02 1.963972e-02 1.964018e-02 1.944378e-02 1.922581e-02 1.890233e-02 1.847732e-02 1.803957e-02 1.742389e-02 1.688756e-02 1.610271e-02 1.548637e-02 1.455907e-02 1.388410e-02 1.284628e-02 1.213669e-02 1.102536e-02 1.030745e-02 9.164268e-03 8.465745e-03 7.335811e-03 6.684102e-03 5.613201e-03 5.032449e-03 4.061328e-03 3.569757e-03 2.725907e-03 2.348124e-03 1.659681e-03 1.538946e-03 1.246072e-03 1.783176e-03 2.163183e-03 3.182818e-03 3.990078e-03 5.363063e-03 6.542794e-03 8.271684e-03 9.823891e-03 1.189386e-02 1.379008e-02 1.614555e-02 1.831079e-02 2.085043e-02 2.316001e-02 2.573721e-02 2.802090e-02 3.045037e-02 3.250415e-02 3.457578e-02 3.618124e-02 3.768134e-02 3.863142e-02 3.936895e-02 3.949624e-02 3.933064e-02 3.853429e-02 3.740180e-02 3.567172e-02 3.361273e-02 3.105939e-02 2.826396e-02 2.518840e-02 2.212206e-02 1.923716e-02 1.700386e-02 1.588148e-02 1.626755e-02 1.809677e-02 2.086867e-02 2.419729e-02 2.753569e-02 3.085545e-02 3.365696e-02 3.620033e-02 3.793865e-02 3.936837e-02 3.989232e-02 4.019716e-02 3.966751e-02 3.910423e-02 3.791876e-02 3.691794e-02 3.561063e-02 3.464944e-02 3.374458e-02 3.315215e-02 3.290701e-02 3.270186e-02 3.298578e-02 3.288024e-02 3.329208e-02 3.293416e-02 3.303454e-02 3.215457e-02 3.153953e-02 2.997160e-02 2.845955e-02 2.624868e-02 2.429560e-02 2.179186e-02 1.978181e-02 1.725455e-02 1.536324e-02 1.299257e-02 1.132330e-02 9.324423e-03 8.049654e-03 6.842681e-03 6.315082e-03 6.428173e-03 6.788485e-03 7.904709e-03 8.686503e-03 1.011452e-02 1.096516e-02 1.238102e-02 1.316515e-02 1.444898e-02 1.511578e-02 1.621796e-02 
1.978564e-02 2.082031e-02 2.113374e-02 2.190662e-02 2.208371e-02 2.258320e-02 2.262478e-02 2.284559e-02 2.275553e-02 2.269840e-02 2.248337e-02 2.215513e-02 2.182457e-02 2.123831e-02 2.080439e-02 1.997957e-02 1.945710e-02 1.841952e-02 1.782581e-02 1.660746e-02 1.596220e-02 1.460112e-02 1.392605e-02 1.246597e-02 1.178439e-02 1.027435e-02 9.610060e-03 8.103385e-03 7.478671e-03 6.030813e-03 5.462715e-03 4.126262e-03 3.621033e-03 2.434095e-03 1.986983e-03 9.453626e-04 6.821906e-04 4.727750e-04 1.324039e-03 1.971653e-03 3.024978e-03 3.852137e-03 5.238161e-03 6.323440e-03 8.089737e-03 9.499691e-03 1.163639e-02 1.337925e-02 1.582673e-02 1.784810e-02 2.049938e-02 2.268575e-02 2.538887e-02 2.757567e-02 3.014066e-02 3.212638e-02 3.433948e-02 3.590707e-02 3.755244e-02 3.849691e-02 3.938406e-02 3.954320e-02 3.953716e-02 3.882212e-02 3.787469e-02 3.630085e-02 3.448824e-02 3.221781e-02 2.980546e-02 2.723608e-02 2.481857e-02 2.276375e-02 2.144993e-02 2.113606e-02 2.201325e-02 2.386555e-02 2.649702e-02 2.946037e-02 3.253209e-02 3.544790e-02 3.796679e-02 4.010806e-02 4.151446e-02 4.252902e-02 4.263964e-02 4.250135e-02 4.147788e-02 4.042700e-02 3.871160e-02 3.717083e-02 3.539631e-02 3.390947e-02 3.274522e-02 3.177015e-02 3.154768e-02 3.112186e-02 3.163940e-02 3.140427e-02 3.212981e-02 3.164373e-02 3.210584e-02 3.112184e-02 3.087647e-02 2.923986e-02 2.797565e-02 2.563828e-02 2.395492e-02 2.132188e-02 1.962001e-02 1.699155e-02 1.541577e-02 1.302568e-02 1.168591e-02 9.871021e-03 8.979610e-03 8.263045e-03 8.084695e-03 8.704646e-03 9.147383e-03 1.057267e-02 1.127789e-02 1.294669e-02 1.368767e-02 1.532564e-02 1.600335e-02 1.749003e-02 1.806188e-02 1.933876e-02 
1.785117e-02 1.868494e-02 1.897766e-02 1.961710e-02 1.978916e-02 2.021828e-02 2.026564e-02 2.047616e-02 2.039952e-02 2.038959e-02 2.019346e-02 1.996713e-02 1.965928e-02 1.922645e-02 1.881754e-02 1.819389e-02 1.769710e-02 1.690406e-02 1.633475e-02 1.539936e-02 1.477455e-02 1.372924e-02 1.306702e-02 1.194910e-02 1.126754e-02 1.011823e-02 9.433596e-03 8.295905e-03 7.619577e-03 6.534176e-03 5.867790e-03 4.865469e-03 4.194385e-03 3.284645e-03 2.571684e-03 1.730718e-03 9.160238e-04 1.574642e-04 9.336585e-04 1.871181e-03 3.117928e-03 4.253608e-03 5.817008e-03 7.232408e-03 9.139229e-03 1.087846e-02 1.311885e-02 1.517634e-02 1.769746e-02 2.001262e-02 2.271532e-02 2.517210e-02 2.791161e-02 3.034422e-02 3.293714e-02 3.514397e-02 3.738346e-02 3.915003e-02 4.082936e-02 4.195891e-02 4.290129e-02 4.324881e-02 4.333981e-02 4.284418e-02 4.206308e-02 4.077468e-02 3.922592e-02 3.733465e-02 3.528926e-02 3.316744e-02 3.112494e-02 2.938139e-02 2.809330e-02 2.749000e-02 2.765514e-02 2.857928e-02 3.015146e-02 3.214365e-02 3.431217e-02 3.650272e-02 3.836860e-02 4.001873e-02 4.096326e-02 4.163224e-02 4.139476e-02 4.096886e-02 3.963514e-02 3.830023e-02 3.623019e-02 3.440488e-02 3.218858e-02 3.049130e-02 2.892941e-02 2.791900e-02 2.747618e-02 2.724499e-02 2.771807e-02 2.774892e-02 2.854709e-02 2.843244e-02 2.915880e-02 2.879530e-02 2.895230e-02 2.817590e-02 2.706898e-02 2.544510e-02 2.396895e-02 2.200080e-02 2.054637e-02 1.854691e-02 1.718177e-02 1.534516e-02 1.413170e-02 1.268217e-02 1.175911e-02 1.096048e-02 1.048921e-02 1.049908e-02 1.051759e-02 1.120227e-02 1.156437e-02 1.261455e-02 1.313141e-02 1.429257e-02 1.483365e-02 1.595572e-02 1.644744e-02 1.744840e-02 
2.115798e-02 2.213948e-02 2.237606e-02 2.311583e-02 2.323796e-02 2.371531e-02 2.371937e-02 2.392273e-02 2.380949e-02 2.373535e-02 2.350922e-02 2.316177e-02 2.283033e-02 2.222132e-02 2.179489e-02 2.094347e-02 2.043468e-02 1.936720e-02 1.879054e-02 1.754028e-02 1.691151e-02 1.551841e-02 1.485386e-02 1.336427e-02 1.267973e-02 1.114623e-02 1.045517e-02 8.936374e-03 8.246825e-03 6.807622e-03 6.116918e-03 4.831202e-03 4.118112e-03 3.088387e-03 2.311107e-03 1.803428e-03 1.125142e-03 1.831421e-03 2.118043e-03 3.238667e-03 4.132605e-03 5.328002e-03 6.681665e-03 8.053559e-03 9.845374e-03 1.148267e-02 1.368140e-02 1.561564e-02 1.815333e-02 2.034947e-02 2.311475e-02 2.547247e-02 2.831071e-02 3.067294e-02 3.339325e-02 3.556295e-02 3.795351e-02 3.971928e-02 4.157102e-02 4.274006e-02 4.387684e-02 4.431094e-02 4.462276e-02 4.427274e-02 4.375004e-02 4.268650e-02 4.145760e-02 3.990185e-02 3.827787e-02 3.663434e-02 3.514662e-02 3.399652e-02 3.332427e-02 3.323538e-02 3.383901e-02 3.493857e-02 3.661627e-02 3.842137e-02 4.042777e-02 4.220004e-02 4.372007e-02 4.482754e-02 4.527101e-02 4.534107e-02 4.445319e-02 4.341444e-02 4.129806e-02 3.932707e-02 3.639145e-02 3.381862e-02 3.077436e-02 2.826188e-02 2.619908e-02 2.463863e-02 2.419437e-02 2.371518e-02 2.452555e-02 2.447410e-02 2.562828e-02 2.535767e-02 2.654139e-02 2.614438e-02 2.694332e-02 2.649992e-02 2.575573e-02 2.420936e-02 2.315157e-02 2.120446e-02 2.019088e-02 1.823214e-02 1.725376e-02 1.551707e-02 1.462996e-02 1.340538e-02 1.276915e-02 1.233959e-02 1.209632e-02 1.252524e-02 1.266514e-02 1.371815e-02 1.410160e-02 1.545816e-02 1.594041e-02 1.736414e-02 1.784803e-02 1.919685e-02 1.962567e-02 2.081631e-02 
1.945512e-02 2.021179e-02 2.038672e-02 2.097757e-02 2.106778e-02 2.146670e-02 2.146351e-02 2.165480e-02 2.155542e-02 2.153204e-02 2.133814e-02 2.110077e-02 2.081745e-02 2.037411e-02 2.000903e-02 1.937473e-02 1.893740e-02 1.813385e-02 1.763485e-02 1.669002e-02 1.614020e-02 1.508782e-02 1.449724e-02 1.337599e-02 1.275264e-02 1.160479e-02 1.095266e-02 9.821864e-03 9.138603e-03 8.066610e-03 7.340956e-03 6.364363e-03 5.576178e-03 4.729944e-03 3.865125e-03 3.226720e-03 2.394988e-03 2.318826e-03 2.294610e-03 3.185861e-03 4.232940e-03 5.557654e-03 7.190446e-03 8.820066e-03 1.089098e-02 1.284071e-02 1.528619e-02 1.755085e-02 2.029664e-02 2.282087e-02 2.575752e-02 2.842897e-02 3.140631e-02 3.405976e-02 3.689232e-02 3.932514e-02 4.180804e-02 4.380753e-02 4.574247e-02 4.712326e-02 4.835203e-02 4.899745e-02 4.943786e-02 4.933582e-02 4.901326e-02 4.827678e-02 4.734517e-02 4.621159e-02 4.495821e-02 4.376403e-02 4.258511e-02 4.170439e-02 4.101573e-02 4.073912e-02 4.079340e-02 4.117422e-02 4.187791e-02 4.267394e-02 4.359446e-02 4.437801e-02 4.494815e-02 4.527249e-02 4.501183e-02 4.453063e-02 4.318462e-02 4.173616e-02 3.933058e-02 3.697409e-02 3.374138e-02 3.070681e-02 2.706935e-02 2.400580e-02 2.121272e-02 1.918736e-02 1.826403e-02 1.787095e-02 1.850797e-02 1.849770e-02 1.956020e-02 1.944660e-02 2.103009e-02 2.140530e-02 2.326631e-02 2.460595e-02 2.425596e-02 2.361149e-02 2.305081e-02 2.185642e-02 2.132809e-02 2.004702e-02 1.939529e-02 1.816307e-02 1.741125e-02 1.642231e-02 1.572817e-02 1.517279e-02 1.468897e-02 1.465792e-02 1.445231e-02 1.489412e-02 1.493551e-02 1.569981e-02 1.590261e-02 1.682414e-02 1.710030e-02 1.804778e-02 1.832993e-02 1.921231e-02 
2.303223e-02 2.395704e-02 2.410043e-02 2.480480e-02 2.485896e-02 2.531234e-02 2.526949e-02 2.545296e-02 2.531081e-02 2.521577e-02 2.497643e-02 2.460398e-02 2.427307e-02 2.363361e-02 2.321945e-02 2.233233e-02 2.184509e-02 2.073822e-02 2.018910e-02 1.889857e-02 1.829890e-02 1.686877e-02 1.622894e-02 1.471136e-02 1.403959e-02 1.249556e-02 1.179628e-02 1.029765e-02 9.569691e-03 8.204331e-03 7.440621e-03 6.325890e-03 5.523251e-03 4.838543e-03 4.054844e-03 4.065408e-03 3.571110e-03 4.372196e-03 4.497403e-03 5.734505e-03 6.491140e-03 7.927156e-03 9.244201e-03 1.087731e-02 1.270825e-02 1.459499e-02 1.688784e-02 1.905894e-02 2.173210e-02 2.416097e-02 2.709305e-02 2.968681e-02 3.271577e-02 3.532076e-02 3.825204e-02 4.067243e-02 4.329654e-02 4.532542e-02 4.744403e-02 4.890300e-02 5.036006e-02 5.114013e-02 5.185351e-02 5.194825e-02 5.193911e-02 5.146412e-02 5.088287e-02 5.007792e-02 4.921878e-02 4.842209e-02 4.769447e-02 4.725921e-02 4.706122e-02 4.719468e-02 4.768768e-02 4.829496e-02 4.924087e-02 4.993954e-02 5.078824e-02 5.110826e-02 5.126449e-02 5.085237e-02 4.989600e-02 4.859284e-02 4.635170e-02 4.418259e-02 4.073326e-02 3.781256e-02 3.341367e-02 2.963866e-02 2.473377e-02 2.037921e-02 1.674282e-02 1.370074e-02 1.262235e-02 1.175988e-02 1.284981e-02 1.282431e-02 1.399081e-02 1.340105e-02 1.522245e-02 1.528752e-02 1.824245e-02 2.128833e-02 2.181597e-02 2.129820e-02 2.140520e-02 2.037522e-02 2.051055e-02 1.945380e-02 1.928020e-02 1.826917e-02 1.783941e-02 1.712200e-02 1.666391e-02 1.645406e-02 1.615268e-02 1.651112e-02 1.643527e-02 1.726146e-02 1.737872e-02 1.849289e-02 1.872774e-02 1.995668e-02 2.023563e-02 2.144687e-02 2.171422e-02 2.281455e-02 
2.151907e-02 2.219737e-02 2.223913e-02 2.277975e-02 2.277521e-02 2.314286e-02 2.308084e-02 2.325225e-02 2.312767e-02 2.309013e-02 2.290229e-02 2.265282e-02 2.240401e-02 2.194873e-02 2.164304e-02 2.099663e-02 2.063881e-02 1.982394e-02 1.941840e-02 1.846495e-02 1.801476e-02 1.695899e-02 1.646485e-02 1.534824e-02 1.480750e-02 1.367525e-02 1.308112e-02 1.198038e-02 1.132193e-02 1.030023e-02 9.565207e-03 8.671809e-03 7.857844e-03 7.155353e-03 6.307139e-03 5.909598e-03 5.223153e-03 5.347802e-03 5.270733e-03 6.082668e-03 6.914117e-03 8.283482e-03 9.892883e-03 1.167933e-02 1.388335e-02 1.604363e-02 1.871516e-02 2.122094e-02 2.424439e-02 2.703200e-02 3.027108e-02 3.322237e-02 3.650887e-02 3.945103e-02 4.258901e-02 4.531096e-02 4.809424e-02 5.037972e-02 5.262031e-02 5.429434e-02 5.585832e-02 5.683781e-02 5.768168e-02 5.801340e-02 5.820986e-02 5.807427e-02 5.781270e-02 5.747724e-02 5.702495e-02 5.675075e-02 5.637235e-02 5.630388e-02 5.615439e-02 5.624033e-02 5.627290e-02 5.627181e-02 5.622169e-02 5.581872e-02 5.531552e-02 5.431022e-02 5.308574e-02 5.151055e-02 4.952420e-02 4.751580e-02 4.483816e-02 4.238375e-02 3.909000e-02 3.604594e-02 3.221364e-02 2.822094e-02 2.341521e-02 1.811348e-02 1.349730e-02 8.179251e-03 5.584750e-03 3.929086e-03 4.542033e-03 4.137581e-03 3.958276e-03 2.827963e-03 4.730735e-03 5.756298e-03 1.072250e-02 1.852661e-02 2.032326e-02 1.981726e-02 2.084318e-02 2.069252e-02 2.174145e-02 2.150034e-02 2.178828e-02 2.125992e-02 2.096174e-02 2.039949e-02 1.986015e-02 1.949557e-02 1.896580e-02 1.892080e-02 1.853060e-02 1.881851e-02 1.860088e-02 1.915658e-02 1.908456e-02 1.980717e-02 1.982991e-02 2.061748e-02 2.068387e-02 2.145024e-02 
2.538186e-02 2.625826e-02 2.630192e-02 2.697704e-02 2.695689e-02 2.739043e-02 2.729563e-02 2.746084e-02 2.728684e-02 2.716963e-02 2.691679e-02 2.651512e-02 2.618752e-02 2.551089e-02 2.511513e-02 2.418411e-02 2.372805e-02 2.257370e-02 2.206532e-02 2.072878e-02 2.017499e-02 1.870740e-02 1.811301e-02 1.657614e-02 1.594295e-02 1.441108e-02 1.373758e-02 1.230123e-02 1.158419e-02 1.035692e-02 9.598769e-03 8.725919e-03 7.957687e-03 7.613193e-03 6.942431e-03 7.263289e-03 6.899457e-03 7.845772e-03 7.992378e-03 9.364118e-03 1.010801e-02 1.175512e-02 1.310359e-02 1.499588e-02 1.692270e-02 1.908823e-02 2.153744e-02 2.399678e-02 2.687394e-02 2.959939e-02 3.276637e-02 3.566354e-02 3.894162e-02 4.185128e-02 4.503508e-02 4.775512e-02 5.063740e-02 5.296268e-02 5.536524e-02 5.713699e-02 5.893921e-02 6.008889e-02 6.124663e-02 6.181881e-02 6.237555e-02 6.252385e-02 6.262195e-02 6.258146e-02 6.246646e-02 6.249667e-02 6.247090e-02 6.274829e-02 6.303117e-02 6.350224e-02 6.403438e-02 6.432915e-02 6.467208e-02 6.422066e-02 6.372734e-02 6.211273e-02 6.035267e-02 5.768342e-02 5.476733e-02 5.162876e-02 4.794929e-02 4.485805e-02 4.057981e-02 3.769489e-02 3.279676e-02 2.919967e-02 2.306231e-02 1.663579e-02 1.288863e-02 7.557778e-03 5.275912e-03 5.334104e-03 4.743552e-03 5.743240e-03 5.823136e-03 8.039040e-03 7.079055e-03 8.507289e-03 4.757648e-03 1.526920e-02 1.877993e-02 1.531964e-02 1.747091e-02 1.814877e-02 2.041166e-02 2.069637e-02 2.154913e-02 2.135706e-02 2.134258e-02 2.109245e-02 2.073414e-02 2.071266e-02 2.032850e-02 2.066161e-02 2.039875e-02 2.107858e-02 2.096839e-02 2.190407e-02 2.191617e-02 2.298788e-02 2.307133e-02 2.416534e-02 2.427104e-02 2.529307e-02 
2.401365e-02 2.462370e-02 2.452839e-02 2.502565e-02 2.492125e-02 2.526264e-02 2.513859e-02 2.529365e-02 2.514459e-02 2.509503e-02 2.491904e-02 2.465827e-02 2.445517e-02 2.398777e-02 2.375765e-02 2.309869e-02 2.284062e-02 2.201478e-02 2.172574e-02 2.076613e-02 2.044018e-02 1.938705e-02 1.901476e-02 1.791396e-02 1.748241e-02 1.638377e-02 1.587747e-02 1.483332e-02 1.423730e-02 1.330207e-02 1.260949e-02 1.184250e-02 1.107241e-02 1.054737e-02 9.782018e-03 9.604142e-03 9.046992e-03 9.354228e-03 9.334657e-03 1.022626e-02 1.101438e-02 1.247181e-02 1.410217e-02 1.605507e-02 1.841468e-02 2.081261e-02 2.375616e-02 2.655279e-02 2.992406e-02 3.303998e-02 3.666078e-02 3.996071e-02 4.362596e-02 4.691634e-02 5.040447e-02 5.345357e-02 5.655142e-02 5.913174e-02 6.166837e-02 6.361603e-02 6.549757e-02 6.677428e-02 6.801240e-02 6.874424e-02 6.946792e-02 6.992450e-02 7.035575e-02 7.084434e-02 7.122143e-02 7.192902e-02 7.239442e-02 7.325771e-02 7.375206e-02 7.440626e-02 7.459682e-02 7.442259e-02 7.371039e-02 7.204099e-02 6.979489e-02 6.638577e-02 6.252401e-02 5.816093e-02 5.371356e-02 5.007242e-02 4.641306e-02 4.417640e-02 4.133591e-02 3.948646e-02 3.754208e-02 3.480700e-02 3.184025e-02 2.382860e-02 1.861451e-02 1.333401e-02 1.353990e-02 1.304626e-02 1.631211e-02 1.986759e-02 2.322157e-02 2.492787e-02 2.766346e-02 2.754157e-02 2.790884e-02 2.914970e-02 1.752505e-02 9.593205e-03 1.579204e-02 1.880613e-02 2.254264e-02 2.370802e-02 2.489519e-02 2.505452e-02 2.502300e-02 2.480021e-02 2.427650e-02 2.403574e-02 2.339774e-02 2.332881e-02 2.275627e-02 2.292734e-02 2.248549e-02 2.288346e-02 2.257388e-02 2.313924e-02 2.293371e-02 2.358866e-02 2.345067e-02 2.411745e-02 
2.818948e-02 2.903723e-02 2.898375e-02 2.964486e-02 2.955059e-02 2.997514e-02 2.982778e-02 2.998104e-02 2.977507e-02 2.963735e-02 2.937250e-02 2.893893e-02 2.861868e-02 2.789880e-02 2.752874e-02 2.654589e-02 2.613218e-02 2.492282e-02 2.447067e-02 2.308378e-02 2.259620e-02 2.109334e-02 2.057027e-02 1.902645e-02 1.846472e-02 1.697057e-02 1.636542e-02 1.503046e-02 1.438061e-02 1.333572e-02 1.265543e-02 1.204739e-02 1.138883e-02 1.135112e-02 1.082876e-02 1.141904e-02 1.120231e-02 1.235619e-02 1.261213e-02 1.419454e-02 1.503648e-02 1.694404e-02 1.842525e-02 2.062695e-02 2.274856e-02 2.525848e-02 2.796893e-02 3.079709e-02 3.398679e-02 3.709575e-02 4.059590e-02 4.387528e-02 4.746883e-02 5.073531e-02 5.418574e-02 5.721402e-02 6.031067e-02 6.289249e-02 6.549773e-02 6.751045e-02 6.958211e-02 7.103211e-02 7.260284e-02 7.361521e-02 7.475029e-02 7.551628e-02 7.630830e-02 7.703742e-02 7.765305e-02 7.853381e-02 7.920762e-02 8.030787e-02 8.118149e-02 8.225283e-02 8.309068e-02 8.338918e-02 8.336376e-02 8.176242e-02 7.970198e-02 7.540922e-02 7.082046e-02 6.465227e-02 5.908127e-02 5.394527e-02 5.017280e-02 4.792727e-02 4.564312e-02 4.508705e-02 4.259848e-02 4.265953e-02 3.596928e-02 2.888710e-02 2.596554e-02 2.126455e-02 2.127133e-02 2.316487e-02 2.655972e-02 2.460477e-02 2.413846e-02 1.842929e-02 1.829263e-02 1.286841e-02 1.388651e-02 1.202947e-02 1.149379e-02 1.240661e-02 1.777092e-02 1.903438e-02 2.280696e-02 2.394323e-02 2.521785e-02 2.558261e-02 2.559817e-02 2.563425e-02 2.517163e-02 2.524315e-02 2.469654e-02 2.499207e-02 2.453627e-02 2.510676e-02 2.479397e-02 2.560047e-02 2.541854e-02 2.637601e-02 2.628587e-02 2.729585e-02 2.725350e-02 2.822259e-02 
2.692364e-02 2.748575e-02 2.725870e-02 2.772789e-02 2.752525e-02 2.785182e-02 2.766701e-02 2.781394e-02 2.764398e-02 2.758768e-02 2.743109e-02 2.716173e-02 2.701654e-02 2.653785e-02 2.639996e-02 2.572848e-02 2.559049e-02 2.475431e-02 2.460472e-02 2.364185e-02 2.346480e-02 2.242120e-02 2.219692e-02 2.112446e-02 2.083052e-02 1.978502e-02 1.939926e-02 1.843909e-02 1.794525e-02 1.713107e-02 1.652952e-02 1.592645e-02 1.525346e-02 1.493638e-02 1.429448e-02 1.435363e-02 1.394258e-02 1.447686e-02 1.457941e-02 1.566390e-02 1.653839e-02 1.819301e-02 1.995249e-02 2.215664e-02 2.476105e-02 2.748083e-02 3.079615e-02 3.397791e-02 3.781257e-02 4.135521e-02 4.547013e-02 4.920325e-02 5.332356e-02 5.700814e-02 6.085429e-02 6.421492e-02 6.755318e-02 7.034117e-02 7.303596e-02 7.510989e-02 7.715267e-02 7.855113e-02 8.005591e-02 8.102948e-02 8.220645e-02 8.316085e-02 8.426564e-02 8.557649e-02 8.681313e-02 8.860506e-02 9.001490e-02 9.204982e-02 9.342033e-02 9.505543e-02 9.579074e-02 9.592029e-02 9.486918e-02 9.204786e-02 8.774276e-02 8.106606e-02 7.312132e-02 6.446904e-02 5.655050e-02 5.278701e-02 5.120377e-02 5.438159e-02 5.449122e-02 5.683368e-02 5.813851e-02 5.927432e-02 5.890895e-02 4.395398e-02 3.588952e-02 3.252959e-02 2.556292e-02 8.526816e-03 6.484533e-03 2.379154e-02 3.209422e-02 4.095069e-02 4.520593e-02 4.950837e-02 5.158193e-02 5.367138e-02 5.300459e-02 3.673691e-02 3.183953e-02 2.838316e-02 2.932584e-02 2.982614e-02 3.024751e-02 3.043926e-02 3.003275e-02 2.985181e-02 2.908387e-02 2.883005e-02 2.799488e-02 2.786058e-02 2.709959e-02 2.716796e-02 2.653261e-02 2.681123e-02 2.630406e-02 2.675381e-02 2.635435e-02 2.691196e-02 2.659295e-02 2.718724e-02 
3.144971e-02 3.230035e-02 3.216070e-02 3.283278e-02 3.267064e-02 3.310454e-02 3.290805e-02 3.306083e-02 3.282524e-02 3.267169e-02 3.239769e-02 3.193075e-02 3.162260e-02 3.085324e-02 3.051677e-02 2.947327e-02 2.911393e-02 2.784098e-02 2.746203e-02 2.601982e-02 2.562109e-02 2.408502e-02 2.366241e-02 2.212363e-02 2.167004e-02 2.023661e-02 1.974533e-02 1.854254e-02 1.801471e-02 1.718061e-02 1.663848e-02 1.630726e-02 1.581193e-02 1.607963e-02 1.574281e-02 1.662811e-02 1.660169e-02 1.803976e-02 1.848279e-02 2.037223e-02 2.141784e-02 2.368220e-02 2.541817e-02 2.803226e-02 3.048765e-02 3.346004e-02 3.659028e-02 3.991971e-02 4.359183e-02 4.721834e-02 5.120566e-02 5.497567e-02 5.897595e-02 6.264172e-02 6.633334e-02 6.960439e-02 7.274265e-02 7.539092e-02 7.791085e-02 7.989001e-02 8.193540e-02 8.342415e-02 8.522575e-02 8.651886e-02 8.818677e-02 8.951110e-02 9.098737e-02 9.245702e-02 9.374390e-02 9.546492e-02 9.678442e-02 9.883671e-02 1.004371e-01 1.025510e-01 1.041894e-01 1.052127e-01 1.054889e-01 1.031623e-01 9.958027e-02 9.167592e-02 8.277270e-02 7.081771e-02 6.186667e-02 5.681451e-02 6.028676e-02 6.499688e-02 7.131324e-02 7.246118e-02 7.626534e-02 8.166048e-02 5.298541e-02 3.182500e-02 2.290158e-02 1.865105e-02 4.658180e-02 7.075507e-02 7.934224e-02 8.322781e-02 8.304362e-02 8.118453e-02 8.124259e-02 7.837268e-02 7.947078e-02 7.813343e-02 6.758917e-02 4.741702e-02 3.908291e-02 3.382145e-02 3.242817e-02 3.207626e-02 3.156146e-02 3.159358e-02 3.085970e-02 3.080418e-02 2.995918e-02 2.997468e-02 2.918451e-02 2.941125e-02 2.876436e-02 2.925270e-02 2.877083e-02 2.949703e-02 2.916076e-02 3.005494e-02 2.982574e-02 3.079710e-02 3.063261e-02 3.158712e-02 
3.024997e-02 3.079445e-02 3.044827e-02 3.091328e-02 3.061921e-02 3.094929e-02 3.070845e-02 3.086045e-02 3.067532e-02 3.062074e-02 3.049236e-02 3.021870e-02 3.014425e-02 2.965536e-02 2.962654e-02 2.894188e-02 2.894410e-02 2.809708e-02 2.810949e-02 2.714506e-02 2.714140e-02 2.611330e-02 2.606362e-02 2.503155e-02 2.490505e-02 2.393223e-02 2.370184e-02 2.285332e-02 2.250315e-02 2.184521e-02 2.138261e-02 2.098376e-02 2.045778e-02 2.039100e-02 1.991626e-02 2.026022e-02 2.003511e-02 2.086930e-02 2.116077e-02 2.255148e-02 2.362358e-02 2.561083e-02 2.763133e-02 3.022835e-02 3.322215e-02 3.641567e-02 4.027190e-02 4.400363e-02 4.849377e-02 5.262689e-02 5.741810e-02 6.171098e-02 6.639470e-02 7.050859e-02 7.467164e-02 7.823307e-02 8.157551e-02 8.429272e-02 8.674720e-02 8.854029e-02 9.030211e-02 9.137895e-02 9.279691e-02 9.363548e-02 9.505727e-02 9.628022e-02 9.796869e-02 1.000366e-01 1.021078e-01 1.050479e-01 1.074461e-01 1.108976e-01 1.134009e-01 1.166315e-01 1.186099e-01 1.200794e-01 1.196786e-01 1.165525e-01 1.104248e-01 9.965995e-02 8.530701e-02 6.931364e-02 5.632082e-02 5.989259e-02 7.201203e-02 9.173090e-02 9.477023e-02 1.041926e-01 1.128373e-01 7.036441e-02 4.711068e-02 1.193557e-02 5.687328e-02 9.696338e-02 9.339451e-02 8.039255e-02 6.738517e-02 5.278259e-02 4.450287e-02 3.653313e-02 3.184283e-02 2.737626e-02 2.491439e-02 2.250694e-02 3.742743e-02 4.305452e-02 4.133499e-02 4.073729e-02 3.869012e-02 3.838920e-02 3.702187e-02 3.669626e-02 3.549376e-02 3.508672e-02 3.395163e-02 3.358780e-02 3.255094e-02 3.234023e-02 3.143231e-02 3.142888e-02 3.065657e-02 3.086378e-02 3.021476e-02 3.059918e-02 3.005236e-02 3.055782e-02 3.009188e-02 3.065134e-02 
3.517209e-02 3.606993e-02 3.586278e-02 3.658156e-02 3.636322e-02 3.683310e-02 3.659430e-02 3.676368e-02 3.650256e-02 3.634071e-02 3.606093e-02 3.555951e-02 3.526803e-02 3.444133e-02 3.414589e-02 3.303006e-02 3.273679e-02 3.138830e-02 3.109967e-02 2.959377e-02 2.930731e-02 2.773677e-02 2.744507e-02 2.591949e-02 2.561216e-02 2.425692e-02 2.392550e-02 2.287799e-02 2.252490e-02 2.192402e-02 2.157563e-02 2.154048e-02 2.126127e-02 2.186208e-02 2.176173e-02 2.299948e-02 2.322529e-02 2.504098e-02 2.575726e-02 2.807130e-02 2.943467e-02 3.219016e-02 3.432501e-02 3.750653e-02 4.047696e-02 4.409390e-02 4.786859e-02 5.190729e-02 5.632121e-02 6.068051e-02 6.540815e-02 6.984424e-02 7.441230e-02 7.853087e-02 8.240945e-02 8.575169e-02 8.855301e-02 9.080333e-02 9.254810e-02 9.380379e-02 9.505598e-02 9.592229e-02 9.746598e-02 9.867672e-02 1.007768e-01 1.025698e-01 1.047197e-01 1.068496e-01 1.086097e-01 1.109771e-01 1.126114e-01 1.155226e-01 1.177528e-01 1.214197e-01 1.245825e-01 1.277921e-01 1.299958e-01 1.286295e-01 1.247249e-01 1.127229e-01 9.740393e-02 7.460870e-02 6.010374e-02 6.514952e-02 9.439237e-02 1.161862e-01 1.365626e-01 1.329144e-01 8.526892e-02 4.911626e-02 8.566641e-03 1.170842e-01 1.309856e-01 8.307860e-02 4.768461e-02 2.177868e-02 2.599613e-03 1.193738e-02 1.918054e-02 2.563511e-02 2.875821e-02 3.156431e-02 3.279746e-02 3.573615e-02 2.846128e-02 3.822035e-02 3.778432e-02 4.033770e-02 3.850712e-02 3.885584e-02 3.725769e-02 3.713663e-02 3.578219e-02 3.560966e-02 3.445131e-02 3.441420e-02 3.345218e-02 3.365187e-02 3.288870e-02 3.335838e-02 3.277883e-02 3.349496e-02 3.306689e-02 3.396536e-02 3.364793e-02 3.464138e-02 3.439350e-02 3.538603e-02 