# vtk DataFile Version 2.0
Comment goes here
ASCII

DATASET STRUCTURED_POINTS
DIMENSIONS    128   128   1

ORIGIN    0.000   0.000   0.000
SPACING   0.0156250.015625   1.000

POINT_DATA   16384
SCALARS uMag double
LOOKUP_TABLE default

4.566943e-02 4.844825e-02 4.916748e-02 5.122444e-02 5.149465e-02 5.281733e-02 5.265286e-02 5.323890e-02 5.266074e-02 5.251954e-02 5.155605e-02 5.071036e-02 4.939794e-02 4.788518e-02 4.626875e-02 4.414199e-02 4.227545e-02 3.960393e-02 3.755049e-02 3.442001e-02 3.225264e-02 2.876565e-02 2.656758e-02 2.284321e-02 2.070860e-02 1.688253e-02 1.491704e-02 1.114098e-02 9.461973e-03 5.902514e-03 4.638537e-03 1.474786e-03 7.635389e-04 1.817076e-03 1.832909e-03 3.641314e-03 2.821063e-03 3.676620e-03 1.892258e-03 1.636442e-03 1.213049e-03 2.699071e-03 6.669378e-03 9.444010e-03 1.452522e-02 1.856403e-02 2.465938e-02 2.983398e-02 3.674194e-02 4.280409e-02 5.020775e-02 5.678348e-02 6.425229e-02 7.085082e-02 7.785874e-02 8.389966e-02 8.986157e-02 9.472053e-02 9.904525e-02 1.021144e-01 1.042680e-01 1.050233e-01 1.045938e-01 1.026587e-01 9.941164e-02 9.460920e-02 8.852868e-02 8.091601e-02 7.222792e-02 6.211394e-02 5.129441e-02 3.924181e-02 2.700975e-02 1.381813e-02 1.105862e-03 1.223879e-02 2.436462e-02 3.677985e-02 4.724013e-02 5.771973e-02 6.562111e-02 7.342772e-02 7.827118e-02 8.311566e-02 8.494331e-02 8.705188e-02 8.645052e-02 8.647743e-02 8.442221e-02 8.324859e-02 8.083972e-02 7.932877e-02 7.747818e-02 7.621376e-02 7.535295e-02 7.444880e-02 7.443076e-02 7.354318e-02 7.378310e-02 7.229895e-02 7.204723e-02 6.937200e-02 6.800180e-02 6.382097e-02 6.113572e-02 5.559544e-02 5.196306e-02 4.554076e-02 4.145666e-02 3.460265e-02 3.040654e-02 2.342429e-02 1.930198e-02 1.239177e-02 8.453716e-03 1.765849e-03 1.906063e-03 8.248795e-03 1.158810e-02 1.748542e-02 2.044067e-02 2.581312e-02 2.834803e-02 3.313392e-02 3.522559e-02 3.937707e-02 4.101325e-02 4.449290e-02 
4.099005e-02 4.346399e-02 4.427771e-02 4.612509e-02 4.647489e-02 4.768584e-02 4.758391e-02 4.815742e-02 4.762341e-02 4.756857e-02 4.663009e-02 4.596749e-02 4.466071e-02 4.342367e-02 4.179373e-02 4.002943e-02 3.813074e-02 3.590102e-02 3.379757e-02 3.117961e-02 2.894532e-02 2.603238e-02 2.375159e-02 2.065389e-02 1.842209e-02 1.526855e-02 1.319342e-02 1.013663e-02 8.340610e-03 5.580992e-03 4.216306e-03 2.227078e-03 1.654267e-03 2.148936e-03 2.138463e-03 3.130287e-03 2.487286e-03 2.752568e-03 1.542870e-03 1.587376e-03 3.187639e-03 5.171209e-03 8.803863e-03 1.210014e-02 1.692510e-02 2.144807e-02 2.730520e-02 3.291780e-02 3.959509e-02 4.604684e-02 5.322739e-02 6.014419e-02 6.740144e-02 7.429394e-02 8.110821e-02 8.739912e-02 9.319359e-02 9.826395e-02 1.024575e-01 1.057077e-01 1.077781e-01 1.086955e-01 1.082441e-01 1.064669e-01 1.032739e-01 9.864239e-02 9.270840e-02 8.530166e-02 7.687758e-02 6.704535e-02 5.667229e-02 4.511642e-02 3.381652e-02 2.226159e-02 1.418031e-02 1.510168e-02 2.355921e-02 3.462356e-02 4.435429e-02 5.455736e-02 6.218638e-02 6.998029e-02 7.475124e-02 7.968091e-02 8.156106e-02 8.379271e-02 8.330775e-02 8.348286e-02 8.153530e-02 8.054993e-02 7.817640e-02 7.691354e-02 7.500469e-02 7.405554e-02 7.305963e-02 7.254008e-02 7.235091e-02 7.190945e-02 7.197267e-02 7.100927e-02 7.059071e-02 6.852180e-02 6.698597e-02 6.348384e-02 6.061679e-02 5.580319e-02 5.200045e-02 4.634898e-02 4.211906e-02 3.607374e-02 3.175690e-02 2.562950e-02 2.143224e-02 1.550775e-02 1.167953e-02 6.808916e-03 5.042239e-03 7.047838e-03 9.802290e-03 1.459939e-02 1.754792e-02 2.219361e-02 2.481490e-02 2.901260e-02 3.121413e-02 3.487643e-02 3.662520e-02 3.970740e-02 
4.642618e-02 4.916694e-02 4.983843e-02 5.187322e-02 5.211039e-02 5.342014e-02 5.323425e-02 5.381230e-02 5.322244e-02 5.307535e-02 5.210867e-02 5.125741e-02 4.994949e-02 4.843059e-02 4.682569e-02 4.469206e-02 4.284337e-02 4.016494e-02 3.813474e-02 3.499898e-02 3.285885e-02 2.937147e-02 2.720260e-02 2.348908e-02 2.138251e-02 1.759193e-02 1.564865e-02 1.196609e-02 1.029681e-02 6.997619e-03 5.726150e-03 3.509744e-03 2.815866e-03 3.323242e-03 2.973973e-03 4.571900e-03 3.805588e-03 4.911616e-03 3.856109e-03 4.477137e-03 4.688046e-03 5.987047e-03 8.899060e-03 1.156892e-02 1.628365e-02 2.026079e-02 2.620931e-02 3.134136e-02 3.818803e-02 4.422191e-02 5.160369e-02 5.816618e-02 6.563436e-02 7.223743e-02 7.925977e-02 8.532714e-02 9.131967e-02 9.623295e-02 1.006118e-01 1.037721e-01 1.060172e-01 1.069143e-01 1.066359e-01 1.049154e-01 1.019135e-01 9.743549e-02 9.175102e-02 8.464423e-02 7.661645e-02 6.736083e-02 5.776054e-02 4.746165e-02 3.807127e-02 2.989266e-02 2.620862e-02 2.815536e-02 3.457387e-02 4.349739e-02 5.206194e-02 6.113619e-02 6.811429e-02 7.517010e-02 7.941373e-02 8.376866e-02 8.511326e-02 8.684084e-02 8.579211e-02 8.547295e-02 8.298400e-02 8.147375e-02 7.868175e-02 7.688794e-02 7.479780e-02 7.338954e-02 7.248903e-02 7.160309e-02 7.171011e-02 7.095308e-02 7.141129e-02 7.010589e-02 7.012751e-02 6.766401e-02 6.657294e-02 6.262173e-02 6.015763e-02 5.485060e-02 5.146686e-02 4.533104e-02 4.155546e-02 3.507612e-02 3.124834e-02 2.483250e-02 2.122519e-02 1.551164e-02 1.271964e-02 9.905147e-03 9.881645e-03 1.281288e-02 1.506611e-02 1.997974e-02 2.250734e-02 2.748093e-02 2.978765e-02 3.437332e-02 3.632255e-02 4.036251e-02 4.190241e-02 4.531718e-02 
4.249603e-02 4.487850e-02 4.557373e-02 4.736793e-02 4.763886e-02 4.882027e-02 4.867192e-02 4.923012e-02 4.867786e-02 4.861580e-02 4.768473e-02 4.701920e-02 4.574393e-02 4.450633e-02 4.293093e-02 4.116821e-02 3.934615e-02 3.712175e-02 3.511593e-02 3.251103e-02 3.039390e-02 2.750938e-02 2.536339e-02 2.232361e-02 2.024182e-02 1.720302e-02 1.529005e-02 1.246048e-02 1.083321e-02 8.522142e-03 7.302587e-03 5.976205e-03 5.210244e-03 5.139430e-03 4.558021e-03 5.121656e-03 4.389240e-03 4.934288e-03 4.441529e-03 5.248343e-03 6.434498e-03 8.369204e-03 1.158238e-02 1.482365e-02 1.952507e-02 2.400381e-02 2.985762e-02 3.543372e-02 4.215474e-02 4.858172e-02 5.582277e-02 6.273305e-02 7.005587e-02 7.696795e-02 8.385226e-02 9.019860e-02 9.607641e-02 1.012513e-01 1.055606e-01 1.089840e-01 1.112342e-01 1.124231e-01 1.122622e-01 1.108994e-01 1.081741e-01 1.041678e-01 9.897593e-02 9.251698e-02 8.526883e-02 7.692292e-02 6.847751e-02 5.943948e-02 5.151038e-02 4.435919e-02 4.035810e-02 3.947219e-02 4.225203e-02 4.781760e-02 5.399812e-02 6.135147e-02 6.706546e-02 7.329251e-02 7.684761e-02 8.078782e-02 8.175251e-02 8.323440e-02 8.195012e-02 8.143855e-02 7.872109e-02 7.705247e-02 7.396122e-02 7.211255e-02 6.971432e-02 6.844940e-02 6.732175e-02 6.681878e-02 6.682915e-02 6.661124e-02 6.707975e-02 6.645000e-02 6.658963e-02 6.496749e-02 6.404270e-02 6.106386e-02 5.867783e-02 5.437486e-02 5.111911e-02 4.606082e-02 4.249275e-02 3.716659e-02 3.359504e-02 2.841899e-02 2.512152e-02 2.070819e-02 1.820064e-02 1.576893e-02 1.499625e-02 1.584846e-02 1.700679e-02 2.013368e-02 2.211025e-02 2.590779e-02 2.796368e-02 3.170745e-02 3.354864e-02 3.695106e-02 3.845551e-02 4.138381e-02 
4.866901e-02 5.130606e-02 5.184178e-02 5.381587e-02 5.395810e-02 5.523253e-02 5.498475e-02 5.554092e-02 5.491728e-02 5.475376e-02 5.377822e-02 5.291097e-02 5.161691e-02 5.007995e-02 4.850981e-02 4.635582e-02 4.456079e-02 4.186187e-02 3.990145e-02 3.675021e-02 3.469190e-02 3.120360e-02 2.912246e-02 2.543994e-02 2.341792e-02 1.972330e-02 1.784793e-02 1.439302e-02 1.275489e-02 9.942509e-03 8.630535e-03 7.149398e-03 6.219122e-03 6.606570e-03 5.917415e-03 7.376981e-03 6.710830e-03 8.247966e-03 7.833045e-03 9.280387e-03 9.913015e-03 1.174342e-02 1.417285e-02 1.694521e-02 2.118009e-02 2.511788e-02 3.079175e-02 3.585054e-02 4.256397e-02 4.852989e-02 5.585965e-02 6.238037e-02 6.984452e-02 7.644855e-02 8.350332e-02 8.963161e-02 9.569959e-02 1.007551e-01 1.052766e-01 1.086893e-01 1.111874e-01 1.124880e-01 1.126370e-01 1.115297e-01 1.092187e-01 1.056493e-01 1.010435e-01 9.527279e-02 8.889418e-02 8.161418e-02 7.449428e-02 6.707242e-02 6.103794e-02 5.586703e-02 5.351327e-02 5.322692e-02 5.568649e-02 5.992084e-02 6.486256e-02 7.064297e-02 7.517938e-02 8.010934e-02 8.259412e-02 8.549178e-02 8.539917e-02 8.600919e-02 8.364407e-02 8.232954e-02 7.855618e-02 7.604210e-02 7.207170e-02 6.937342e-02 6.652944e-02 6.463926e-02 6.361134e-02 6.275259e-02 6.322173e-02 6.282932e-02 6.389496e-02 6.307329e-02 6.391045e-02 6.208878e-02 6.192000e-02 5.877188e-02 5.700329e-02 5.247053e-02 4.988846e-02 4.465317e-02 4.182634e-02 3.643521e-02 3.362521e-02 2.862062e-02 2.613497e-02 2.238733e-02 2.079684e-02 1.959115e-02 1.951416e-02 2.131896e-02 2.252395e-02 2.612177e-02 2.785347e-02 3.201865e-02 3.379035e-02 3.789756e-02 3.947773e-02 4.323011e-02 4.450788e-02 4.774896e-02 
4.544258e-02 4.766522e-02 4.814297e-02 4.984277e-02 4.996654e-02 5.109550e-02 5.085998e-02 5.139141e-02 5.080551e-02 5.073130e-02 4.981605e-02 4.914595e-02 4.793319e-02 4.669505e-02 4.522647e-02 4.346686e-02 4.179320e-02 3.957848e-02 3.775877e-02 3.517680e-02 3.327759e-02 3.044072e-02 2.853520e-02 2.558544e-02 2.375159e-02 2.086928e-02 1.918560e-02 1.660072e-02 1.513519e-02 1.312803e-02 1.191268e-02 1.075008e-02 9.742554e-03 9.490821e-03 8.590892e-03 9.008777e-03 8.252628e-03 9.077625e-03 8.935327e-03 1.026276e-02 1.153625e-02 1.373641e-02 1.678698e-02 2.010219e-02 2.473491e-02 2.920913e-02 3.510283e-02 4.064256e-02 4.746058e-02 5.384588e-02 6.120246e-02 6.808712e-02 7.552496e-02 8.244872e-02 8.944710e-02 9.586690e-02 1.018768e-01 1.072184e-01 1.117187e-01 1.154447e-01 1.180104e-01 1.196970e-01 1.200671e-01 1.194762e-01 1.176121e-01 1.147509e-01 1.108791e-01 1.060486e-01 1.006996e-01 9.455066e-02 8.861062e-02 8.223056e-02 7.698816e-02 7.194462e-02 6.891047e-02 6.682688e-02 6.683829e-02 6.811974e-02 7.031416e-02 7.358325e-02 7.605948e-02 7.938448e-02 8.056990e-02 8.255279e-02 8.172208e-02 8.176560e-02 7.898304e-02 7.718741e-02 7.303708e-02 7.000456e-02 6.545767e-02 6.229949e-02 5.883750e-02 5.678554e-02 5.532101e-02 5.479440e-02 5.514600e-02 5.527722e-02 5.643246e-02 5.632870e-02 5.757428e-02 5.686135e-02 5.738184e-02 5.574927e-02 5.439107e-02 5.125256e-02 4.920706e-02 4.539219e-02 4.318087e-02 3.920880e-02 3.695524e-02 3.326692e-02 3.118643e-02 2.837607e-02 2.685908e-02 2.560397e-02 2.503722e-02 2.566390e-02 2.608633e-02 2.820724e-02 2.927210e-02 3.217379e-02 3.348290e-02 3.660220e-02 3.788181e-02 4.087601e-02 4.196531e-02 4.463433e-02 
5.233062e-02 5.482422e-02 5.515618e-02 5.704593e-02 5.704317e-02 5.826889e-02 5.792566e-02 5.845170e-02 5.777602e-02 5.758903e-02 5.660085e-02 5.570931e-02 5.443917e-02 5.287355e-02 5.136135e-02 4.917458e-02 4.746843e-02 4.473677e-02 4.289173e-02 3.971658e-02 3.779342e-02 3.430518e-02 3.236898e-02 2.873507e-02 2.685345e-02 2.329466e-02 2.153509e-02 1.835654e-02 1.678227e-02 1.441338e-02 1.307708e-02 1.202400e-02 1.095280e-02 1.142070e-02 1.060007e-02 1.213087e-02 1.159107e-02 1.355037e-02 1.353970e-02 1.567600e-02 1.667149e-02 1.914513e-02 2.160052e-02 2.474725e-02 2.881042e-02 3.288187e-02 3.838748e-02 4.344020e-02 5.004861e-02 5.594720e-02 6.322543e-02 6.967176e-02 7.711919e-02 8.368482e-02 9.075399e-02 9.692185e-02 1.030561e-01 1.082768e-01 1.129661e-01 1.167277e-01 1.195743e-01 1.214777e-01 1.222600e-01 1.220910e-01 1.208167e-01 1.186070e-01 1.155532e-01 1.116302e-01 1.073728e-01 1.023998e-01 9.782313e-02 9.280698e-02 8.902243e-02 8.517948e-02 8.318800e-02 8.147659e-02 8.153242e-02 8.199630e-02 8.326094e-02 8.494568e-02 8.599581e-02 8.759031e-02 8.719497e-02 8.765976e-02 8.520438e-02 8.405456e-02 7.962544e-02 7.686924e-02 7.109052e-02 6.699022e-02 6.098042e-02 5.652236e-02 5.227981e-02 4.933590e-02 4.804303e-02 4.708284e-02 4.808170e-02 4.818388e-02 4.999114e-02 4.969269e-02 5.178021e-02 5.095959e-02 5.269712e-02 5.146740e-02 5.100492e-02 4.801737e-02 4.699002e-02 4.335460e-02 4.217899e-02 3.849019e-02 3.716213e-02 3.393694e-02 3.266241e-02 3.057892e-02 2.974378e-02 2.939914e-02 2.929546e-02 3.076212e-02 3.135619e-02 3.412394e-02 3.514381e-02 3.855792e-02 3.971980e-02 4.328108e-02 4.438189e-02 4.776815e-02 4.867952e-02 5.168646e-02 
4.973005e-02 5.175938e-02 5.195179e-02 5.353567e-02 5.346195e-02 5.452718e-02 5.417383e-02 5.467413e-02 5.404438e-02 5.395743e-02 5.306826e-02 5.239455e-02 5.127439e-02 5.003706e-02 4.872369e-02 4.696900e-02 4.550757e-02 4.330577e-02 4.174677e-02 3.919376e-02 3.759073e-02 3.481059e-02 3.321714e-02 3.036558e-02 2.883097e-02 2.609816e-02 2.466036e-02 2.226772e-02 2.094401e-02 1.912208e-02 1.790233e-02 1.683402e-02 1.569548e-02 1.544054e-02 1.441553e-02 1.489858e-02 1.419989e-02 1.532435e-02 1.542772e-02 1.721827e-02 1.869022e-02 2.129446e-02 2.442771e-02 2.799507e-02 3.271589e-02 3.730888e-02 4.334475e-02 4.890763e-02 5.589916e-02 6.224751e-02 6.977133e-02 7.659356e-02 8.416706e-02 9.104153e-02 9.814340e-02 1.045746e-01 1.106881e-01 1.161629e-01 1.208373e-01 1.248965e-01 1.278162e-01 1.301318e-01 1.311766e-01 1.316176e-01 1.308964e-01 1.295654e-01 1.274102e-01 1.246355e-01 1.215512e-01 1.178352e-01 1.144081e-01 1.103398e-01 1.071115e-01 1.032594e-01 1.005847e-01 9.739348e-02 9.533338e-02 9.305194e-02 9.136869e-02 8.999658e-02 8.824554e-02 8.744456e-02 8.508872e-02 8.415310e-02 8.073003e-02 7.885452e-02 7.421669e-02 7.089635e-02 6.515266e-02 6.023788e-02 5.364984e-02 4.801890e-02 4.271558e-02 3.872637e-02 3.643780e-02 3.564775e-02 3.630730e-02 3.661031e-02 3.823203e-02 3.833193e-02 4.099391e-02 4.146180e-02 4.491819e-02 4.657893e-02 4.701937e-02 4.589753e-02 4.600787e-02 4.411426e-02 4.401816e-02 4.191808e-02 4.136379e-02 3.936810e-02 3.849592e-02 3.704847e-02 3.621232e-02 3.570938e-02 3.521777e-02 3.582023e-02 3.579607e-02 3.737032e-02 3.774552e-02 3.997257e-02 4.058112e-02 4.311565e-02 4.378564e-02 4.634256e-02 4.693743e-02 4.930585e-02 
5.732962e-02 5.967257e-02 5.975879e-02 6.156123e-02 6.137971e-02 6.255678e-02 6.209441e-02 6.259075e-02 6.185042e-02 6.163841e-02 6.063668e-02 5.971584e-02 5.848075e-02 5.687782e-02 5.544672e-02 5.321610e-02 5.163342e-02 4.885822e-02 4.717315e-02 4.396756e-02 4.223180e-02 3.874604e-02 3.701139e-02 3.344089e-02 3.175673e-02 2.835701e-02 2.676769e-02 2.387147e-02 2.241472e-02 2.042547e-02 1.913529e-02 1.842415e-02 1.734244e-02 1.801086e-02 1.721159e-02 1.896792e-02 1.859949e-02 2.100588e-02 2.133105e-02 2.412129e-02 2.548703e-02 2.865450e-02 3.136637e-02 3.506973e-02 3.925281e-02 4.366402e-02 4.921419e-02 5.440203e-02 6.102417e-02 6.690461e-02 7.417165e-02 8.050741e-02 8.791106e-02 9.433975e-02 1.013403e-01 1.074220e-01 1.135074e-01 1.187867e-01 1.235398e-01 1.276152e-01 1.307752e-01 1.333647e-01 1.348684e-01 1.358596e-01 1.358513e-01 1.353295e-01 1.341400e-01 1.323847e-01 1.304809e-01 1.279175e-01 1.258025e-01 1.228895e-01 1.209383e-01 1.180030e-01 1.162776e-01 1.133966e-01 1.115822e-01 1.086501e-01 1.062414e-01 1.032063e-01 9.982761e-02 9.679352e-02 9.231271e-02 8.929121e-02 8.365400e-02 8.037761e-02 7.359988e-02 6.965164e-02 6.185873e-02 5.622752e-02 4.757734e-02 3.986415e-02 3.341343e-02 2.786127e-02 2.573641e-02 2.385327e-02 2.527805e-02 2.582883e-02 2.761377e-02 2.706579e-02 3.015255e-02 2.997310e-02 3.532153e-02 3.917361e-02 4.137397e-02 4.075766e-02 4.240070e-02 4.107599e-02 4.238136e-02 4.094147e-02 4.143934e-02 4.014740e-02 4.003400e-02 3.936776e-02 3.908042e-02 3.940435e-02 3.928402e-02 4.068199e-02 4.086490e-02 4.314961e-02 4.359792e-02 4.644370e-02 4.703565e-02 5.011033e-02 5.071321e-02 5.373969e-02 5.424282e-02 5.700766e-02 
5.526042e-02 5.709827e-02 5.697041e-02 5.843983e-02 5.813893e-02 5.914413e-02 5.865445e-02 5.912905e-02 5.845167e-02 5.835766e-02 5.750730e-02 5.683466e-02 5.583641e-02 5.460316e-02 5.348929e-02 5.174177e-02 5.054842e-02 4.836183e-02 4.712552e-02 4.460465e-02 4.335866e-02 4.063869e-02 3.940893e-02 3.665536e-02 3.545595e-02 3.286135e-02 3.169095e-02 2.946403e-02 2.830646e-02 2.664847e-02 2.548598e-02 2.455484e-02 2.340623e-02 2.328484e-02 2.227438e-02 2.297156e-02 2.240276e-02 2.389685e-02 2.424601e-02 2.653716e-02 2.828319e-02 3.140896e-02 3.480402e-02 3.881179e-02 4.381068e-02 4.871033e-02 5.505051e-02 6.077046e-02 6.805820e-02 7.441959e-02 8.217708e-02 8.889149e-02 9.659132e-02 1.032826e-01 1.103941e-01 1.166424e-01 1.226958e-01 1.280983e-01 1.327594e-01 1.369991e-01 1.401337e-01 1.430425e-01 1.447474e-01 1.463426e-01 1.469177e-01 1.473850e-01 1.472314e-01 1.468340e-01 1.462951e-01 1.452241e-01 1.444174e-01 1.426511e-01 1.413641e-01 1.386214e-01 1.363392e-01 1.322093e-01 1.283250e-01 1.226264e-01 1.168569e-01 1.101270e-01 1.029766e-01 9.660582e-02 8.930409e-02 8.453568e-02 7.798549e-02 7.442258e-02 6.855986e-02 6.465611e-02 5.904057e-02 5.290114e-02 4.547606e-02 3.533792e-02 2.746563e-02 1.740548e-02 1.245807e-02 9.421629e-03 9.928944e-03 9.822754e-03 9.703572e-03 8.574095e-03 1.161538e-02 1.238235e-02 2.111310e-02 3.217525e-02 3.669823e-02 3.727605e-02 4.087817e-02 4.165538e-02 4.469568e-02 4.506227e-02 4.652230e-02 4.636857e-02 4.662459e-02 4.639401e-02 4.605363e-02 4.614788e-02 4.566747e-02 4.631617e-02 4.595013e-02 4.719718e-02 4.702953e-02 4.877201e-02 4.877454e-02 5.082867e-02 5.092033e-02 5.308165e-02 5.317146e-02 5.525077e-02 
6.359455e-02 6.581200e-02 6.563679e-02 6.737224e-02 6.699591e-02 6.814075e-02 6.754673e-02 6.802502e-02 6.721393e-02 6.698255e-02 6.596967e-02 6.501871e-02 6.383109e-02 6.218434e-02 6.085759e-02 5.857307e-02 5.714794e-02 5.431910e-02 5.283801e-02 4.959624e-02 4.809995e-02 4.461934e-02 4.314385e-02 3.964894e-02 3.822306e-02 3.499743e-02 3.364206e-02 3.102828e-02 2.976058e-02 2.812586e-02 2.697337e-02 2.660767e-02 2.563511e-02 2.660738e-02 2.594694e-02 2.806001e-02 2.792666e-02 3.085784e-02 3.153627e-02 3.502973e-02 3.682208e-02 4.077668e-02 4.391479e-02 4.835371e-02 5.291240e-02 5.789402e-02 6.374812e-02 6.927728e-02 7.611117e-02 8.208560e-02 8.943731e-02 9.563809e-02 1.029640e-01 1.090854e-01 1.158434e-01 1.215515e-01 1.272978e-01 1.323022e-01 1.367833e-01 1.408953e-01 1.440979e-01 1.472524e-01 1.493773e-01 1.516107e-01 1.529736e-01 1.543792e-01 1.552900e-01 1.559753e-01 1.566486e-01 1.566781e-01 1.571503e-01 1.564358e-01 1.564437e-01 1.545980e-01 1.534684e-01 1.497780e-01 1.465055e-01 1.402710e-01 1.340204e-01 1.253576e-01 1.163504e-01 1.069267e-01 9.690886e-02 8.924641e-02 8.019074e-02 7.525624e-02 6.746837e-02 6.435068e-02 5.720970e-02 5.309835e-02 4.395517e-02 3.189073e-02 2.566213e-02 1.638772e-02 9.879205e-03 6.029122e-03 5.878121e-03 6.245615e-03 6.351926e-03 9.906285e-03 7.845910e-03 1.049359e-02 4.647377e-03 2.299672e-02 3.112133e-02 2.886799e-02 3.480471e-02 3.716261e-02 4.235561e-02 4.391759e-02 4.653726e-02 4.731744e-02 4.823743e-02 4.884164e-02 4.892691e-02 4.981810e-02 4.963438e-02 5.105677e-02 5.090141e-02 5.289021e-02 5.286586e-02 5.530344e-02 5.539466e-02 5.808417e-02 5.822111e-02 6.094598e-02 6.104623e-02 6.360428e-02 
6.196000e-02 6.363909e-02 6.318488e-02 6.456471e-02 6.402660e-02 6.499236e-02 6.436013e-02 6.482621e-02 6.410425e-02 6.401666e-02 6.322058e-02 6.255841e-02 6.171095e-02 6.048731e-02 5.961396e-02 5.787631e-02 5.700083e-02 5.483085e-02 5.397095e-02 5.148373e-02 5.064697e-02 4.798924e-02 4.716971e-02 4.451603e-02 4.369274e-02 4.123798e-02 4.037728e-02 3.832327e-02 3.738973e-02 3.592579e-02 3.490778e-02 3.418892e-02 3.314405e-02 3.327617e-02 3.239142e-02 3.343140e-02 3.306558e-02 3.503405e-02 3.567701e-02 3.857178e-02 4.068441e-02 4.448712e-02 4.831482e-02 5.298734e-02 5.848594e-02 6.394991e-02 7.082677e-02 7.693281e-02 8.471815e-02 9.122587e-02 9.933655e-02 1.059228e-01 1.137312e-01 1.200325e-01 1.269581e-01 1.326415e-01 1.382649e-01 1.431070e-01 1.472789e-01 1.512254e-01 1.541247e-01 1.573017e-01 1.593920e-01 1.620558e-01 1.639178e-01 1.663383e-01 1.684130e-01 1.706988e-01 1.730467e-01 1.749721e-01 1.771509e-01 1.780698e-01 1.791448e-01 1.779996e-01 1.766358e-01 1.721018e-01 1.667920e-01 1.577869e-01 1.475364e-01 1.343944e-01 1.201122e-01 1.061626e-01 9.202537e-02 8.317226e-02 7.424832e-02 7.195339e-02 6.763568e-02 6.662104e-02 6.597989e-02 6.253406e-02 6.073052e-02 4.365109e-02 3.224402e-02 2.088184e-02 2.333246e-02 1.935100e-02 2.422797e-02 2.976240e-02 3.402941e-02 3.758972e-02 4.105400e-02 4.145279e-02 4.115628e-02 4.362884e-02 2.746814e-02 1.962831e-02 3.201842e-02 3.851046e-02 4.630238e-02 4.981045e-02 5.321890e-02 5.488788e-02 5.593448e-02 5.670971e-02 5.659950e-02 5.712629e-02 5.654490e-02 5.721946e-02 5.653407e-02 5.754780e-02 5.692671e-02 5.831249e-02 5.780176e-02 5.948344e-02 5.906158e-02 6.090173e-02 6.051881e-02 6.235716e-02 
7.107625e-02 7.322386e-02 7.279551e-02 7.450879e-02 7.393862e-02 7.508621e-02 7.435914e-02 7.484418e-02 7.396272e-02 7.372613e-02 7.270774e-02 7.173054e-02 7.060393e-02 6.890860e-02 6.770943e-02 6.536084e-02 6.412695e-02 6.123337e-02 6.000014e-02 5.671501e-02 5.551107e-02 5.203629e-02 5.088018e-02 4.746984e-02 4.636859e-02 4.332905e-02 4.228092e-02 3.995639e-02 3.896162e-02 3.768813e-02 3.677215e-02 3.679266e-02 3.603987e-02 3.741619e-02 3.699900e-02 3.959595e-02 3.977709e-02 4.334909e-02 4.444644e-02 4.875872e-02 5.107702e-02 5.597531e-02 5.972058e-02 6.512378e-02 7.032680e-02 7.616939e-02 8.264283e-02 8.880827e-02 9.614717e-02 1.024266e-01 1.100514e-01 1.161482e-01 1.233926e-01 1.289819e-01 1.352296e-01 1.400651e-01 1.449279e-01 1.489618e-01 1.524459e-01 1.558889e-01 1.584422e-01 1.616772e-01 1.640048e-01 1.673503e-01 1.700359e-01 1.735307e-01 1.767432e-01 1.801420e-01 1.836615e-01 1.865688e-01 1.899363e-01 1.918133e-01 1.942861e-01 1.942039e-01 1.944980e-01 1.908566e-01 1.869784e-01 1.777976e-01 1.677039e-01 1.522120e-01 1.359533e-01 1.174653e-01 1.002659e-01 8.746383e-02 7.821081e-02 7.515804e-02 7.269174e-02 7.284916e-02 7.221746e-02 7.588160e-02 6.768482e-02 5.285093e-02 4.682188e-02 3.767435e-02 3.339409e-02 3.437201e-02 3.758134e-02 3.670607e-02 3.540987e-02 2.782469e-02 2.724430e-02 1.959093e-02 2.097469e-02 1.878801e-02 1.757433e-02 1.987518e-02 3.234300e-02 3.735624e-02 4.609722e-02 5.035297e-02 5.426962e-02 5.673627e-02 5.804425e-02 5.954142e-02 5.962722e-02 6.086976e-02 6.047858e-02 6.189593e-02 6.140516e-02 6.318520e-02 6.275647e-02 6.490825e-02 6.457643e-02 6.699281e-02 6.672534e-02 6.923814e-02 6.897529e-02 7.139645e-02 
6.978661e-02 7.136695e-02 7.060372e-02 7.194198e-02 7.117349e-02 7.213856e-02 7.136841e-02 7.185656e-02 7.109919e-02 7.104058e-02 7.031692e-02 6.967995e-02 6.901217e-02 6.780587e-02 6.721196e-02 6.548671e-02 6.497535e-02 6.282175e-02 6.238813e-02 5.993418e-02 5.955699e-02 5.696328e-02 5.660388e-02 5.405625e-02 5.366137e-02 5.136047e-02 5.087085e-02 4.901840e-02 4.838703e-02 4.717035e-02 4.639426e-02 4.597281e-02 4.513962e-02 4.563797e-02 4.497840e-02 4.648593e-02 4.640105e-02 4.897210e-02 4.998266e-02 5.363013e-02 5.622410e-02 6.090893e-02 6.535975e-02 7.098033e-02 7.724779e-02 8.362322e-02 9.135900e-02 9.820630e-02 1.068105e-01 1.137356e-01 1.224329e-01 1.289626e-01 1.369116e-01 1.425844e-01 1.490433e-01 1.535563e-01 1.581030e-01 1.614713e-01 1.642184e-01 1.668556e-01 1.685335e-01 1.711497e-01 1.729071e-01 1.762160e-01 1.791179e-01 1.834947e-01 1.879734e-01 1.932282e-01 1.988703e-01 2.042330e-01 2.099478e-01 2.142017e-01 2.184376e-01 2.199065e-01 2.206090e-01 2.169508e-01 2.113430e-01 1.997898e-01 1.850182e-01 1.643360e-01 1.404127e-01 1.159486e-01 9.259581e-02 8.353872e-02 7.967716e-02 8.989795e-02 9.029543e-02 9.590855e-02 9.918113e-02 1.034468e-01 1.113984e-01 7.519792e-02 5.801682e-02 5.328225e-02 3.884016e-02 1.279625e-02 7.144713e-03 3.479313e-02 4.701332e-02 6.106651e-02 6.792042e-02 7.387502e-02 7.826883e-02 7.997256e-02 8.256557e-02 5.769523e-02 5.370618e-02 5.217509e-02 5.727999e-02 6.119008e-02 6.406160e-02 6.647418e-02 6.723017e-02 6.841151e-02 6.805620e-02 6.871319e-02 6.786588e-02 6.847352e-02 6.746938e-02 6.828699e-02 6.729098e-02 6.841690e-02 6.749216e-02 6.890900e-02 6.806076e-02 6.967444e-02 6.888067e-02 7.055416e-02 
7.975130e-02 8.191494e-02 8.126307e-02 8.302481e-02 8.227722e-02 8.348297e-02 8.263153e-02 8.316291e-02 8.221720e-02 8.199894e-02 8.098321e-02 7.998813e-02 7.893659e-02 7.718848e-02 7.613961e-02 7.371453e-02 7.270490e-02 6.973148e-02 6.878988e-02 6.544945e-02 6.459190e-02 6.111844e-02 6.034512e-02 5.702328e-02 5.631903e-02 5.347526e-02 5.281632e-02 5.079433e-02 5.016540e-02 4.927804e-02 4.870189e-02 4.916514e-02 4.873996e-02 5.061913e-02 5.054719e-02 5.375469e-02 5.434120e-02 5.869340e-02 6.030333e-02 6.559732e-02 6.857410e-02 7.463373e-02 7.919901e-02 8.586701e-02 9.202889e-02 9.911651e-02 1.066096e-01 1.138352e-01 1.221053e-01 1.290574e-01 1.372996e-01 1.434596e-01 1.507299e-01 1.555824e-01 1.610123e-01 1.642600e-01 1.673877e-01 1.692342e-01 1.703862e-01 1.717219e-01 1.721857e-01 1.743570e-01 1.759095e-01 1.799020e-01 1.836657e-01 1.893435e-01 1.950544e-01 2.014099e-01 2.080136e-01 2.140093e-01 2.205298e-01 2.254223e-01 2.309983e-01 2.337697e-01 2.369190e-01 2.351558e-01 2.326463e-01 2.220420e-01 2.091331e-01 1.858132e-01 1.603606e-01 1.285251e-01 1.029464e-01 8.990805e-02 9.754470e-02 1.073856e-01 1.215773e-01 1.178946e-01 1.321477e-01 1.492506e-01 8.800528e-02 4.029520e-02 3.577713e-02 3.583513e-02 7.156357e-02 1.083471e-01 1.194816e-01 1.281029e-01 1.263224e-01 1.237601e-01 1.248857e-01 1.182296e-01 1.236544e-01 1.166093e-01 1.066379e-01 7.485318e-02 6.550638e-02 6.139684e-02 6.282927e-02 6.581690e-02 6.729178e-02 6.973031e-02 7.001968e-02 7.160401e-02 7.116059e-02 7.241618e-02 7.166143e-02 7.299671e-02 7.218429e-02 7.381594e-02 7.306703e-02 7.505028e-02 7.439626e-02 7.666733e-02 7.608584e-02 7.850433e-02 7.794799e-02 8.033409e-02 
7.873001e-02 8.029789e-02 7.926143e-02 8.062954e-02 7.965068e-02 8.067313e-02 7.977814e-02 8.033364e-02 7.955477e-02 7.955770e-02 7.892666e-02 7.833507e-02 7.787604e-02 7.669628e-02 7.641958e-02 7.470752e-02 7.460478e-02 7.246361e-02 7.250500e-02 7.007983e-02 7.021380e-02 6.768335e-02 6.783951e-02 6.540526e-02 6.550159e-02 6.337480e-02 6.333126e-02 6.171904e-02 6.148003e-02 6.057274e-02 6.014134e-02 6.010450e-02 5.958845e-02 6.056132e-02 6.022197e-02 6.232028e-02 6.259675e-02 6.591059e-02 6.737264e-02 7.194960e-02 7.515167e-02 8.096610e-02 8.625205e-02 9.316958e-02 1.005294e-01 1.082707e-01 1.172959e-01 1.254022e-01 1.353116e-01 1.431324e-01 1.528453e-01 1.595871e-01 1.678653e-01 1.727473e-01 1.784566e-01 1.809996e-01 1.835193e-01 1.839260e-01 1.836346e-01 1.830611e-01 1.816231e-01 1.819671e-01 1.819112e-01 1.848973e-01 1.882663e-01 1.944235e-01 2.014703e-01 2.099245e-01 2.192680e-01 2.283811e-01 2.380946e-01 2.462259e-01 2.544637e-01 2.598813e-01 2.644736e-01 2.641399e-01 2.609013e-01 2.493367e-01 2.316365e-01 2.032127e-01 1.665441e-01 1.266731e-01 9.103545e-02 9.911033e-02 1.236723e-01 1.634288e-01 1.633992e-01 1.799083e-01 1.926806e-01 1.028741e-01 6.863287e-02 2.162720e-02 8.350441e-02 1.496764e-01 1.377671e-01 1.218937e-01 1.044714e-01 8.118189e-02 7.041922e-02 5.596516e-02 5.177549e-02 4.122240e-02 4.194954e-02 3.313852e-02 5.625694e-02 7.076877e-02 7.223863e-02 7.609883e-02 7.586826e-02 7.867632e-02 7.861682e-02 8.033416e-02 7.984815e-02 8.074805e-02 7.984642e-02 8.036686e-02 7.922213e-02 7.971419e-02 7.847474e-02 7.915951e-02 7.791597e-02 7.889543e-02 7.768920e-02 7.896718e-02 7.780801e-02 7.931352e-02 7.819705e-02 7.980840e-02 
8.962351e-02 9.192060e-02 9.109383e-02 9.300232e-02 9.210713e-02 9.344881e-02 9.248995e-02 9.312353e-02 9.212377e-02 9.195717e-02 9.095332e-02 8.995233e-02 8.898906e-02 8.718222e-02 8.630464e-02 8.378483e-02 8.303072e-02 7.995403e-02 7.934677e-02 7.592950e-02 7.547271e-02 7.198630e-02 7.166163e-02 6.842365e-02 6.819368e-02 6.555039e-02 6.536960e-02 6.366506e-02 6.350201e-02 6.303277e-02 6.290421e-02 6.387045e-02 6.388142e-02 6.635670e-02 6.673181e-02 7.067026e-02 7.175667e-02 7.703423e-02 7.925977e-02 8.572180e-02 8.950441e-02 9.698649e-02 1.026102e-01 1.109136e-01 1.184023e-01 1.272297e-01 1.362484e-01 1.451252e-01 1.549283e-01 1.631486e-01 1.725906e-01 1.792338e-01 1.868814e-01 1.909637e-01 1.953783e-01 1.962126e-01 1.964961e-01 1.943023e-01 1.909336e-01 1.875253e-01 1.831401e-01 1.818786e-01 1.806679e-01 1.843528e-01 1.888215e-01 1.968801e-01 2.054696e-01 2.149970e-01 2.247512e-01 2.335881e-01 2.429507e-01 2.506496e-01 2.593992e-01 2.660469e-01 2.738291e-01 2.771587e-01 2.799146e-01 2.721448e-01 2.602206e-01 2.299257e-01 1.938610e-01 1.406166e-01 1.034339e-01 1.101441e-01 1.666052e-01 2.019999e-01 2.337245e-01 2.029849e-01 1.186536e-01 6.679155e-02 9.290659e-03 1.815290e-01 2.035361e-01 1.247498e-01 7.692647e-02 3.705111e-02 8.535369e-03 1.849373e-02 2.610652e-02 3.995782e-02 4.241487e-02 4.898695e-02 4.999944e-02 5.495190e-02 4.623404e-02 6.761202e-02 7.023160e-02 7.838336e-02 7.787907e-02 8.139680e-02 8.072124e-02 8.273086e-02 8.192439e-02 8.328442e-02 8.233366e-02 8.351032e-02 8.249823e-02 8.380261e-02 8.281660e-02 8.442742e-02 8.351728e-02 8.549084e-02 8.466375e-02 8.695202e-02 8.618360e-02 8.865965e-02 8.790967e-02 9.039629e-02 