# vtk DataFile Version 2.0
Comment goes here
ASCII

DATASET STRUCTURED_POINTS
DIMENSIONS    128   128   1

ORIGIN    0.000   0.000   0.000
SPACING   0.0156250.015625   1.000

POINT_DATA   16384
SCALARS uMag double
LOOKUP_TABLE default

8.083758e-02 9.202513e-02 9.772279e-02 1.072706e-01 1.117789e-01 1.196293e-01 1.229210e-01 1.290497e-01 1.311317e-01 1.355509e-01 1.364653e-01 1.392264e-01 1.390506e-01 1.402462e-01 1.390933e-01 1.388583e-01 1.368761e-01 1.353873e-01 1.327569e-01 1.302318e-01 1.271652e-01 1.238595e-01 1.205976e-01 1.168027e-01 1.136122e-01 1.096511e-01 1.068220e-01 1.030457e-01 1.008876e-01 9.766903e-02 9.650660e-02 9.423372e-02 9.439937e-02 9.346424e-02 9.528746e-02 9.607134e-02 9.986283e-02 1.027157e-01 1.087456e-01 1.139594e-01 1.224293e-01 1.302056e-01 1.412146e-01 1.516277e-01 1.651359e-01 1.780950e-01 1.938880e-01 2.091037e-01 2.267645e-01 2.437265e-01 2.626222e-01 2.805953e-01 2.998866e-01 3.179315e-01 3.366089e-01 3.536305e-01 3.705774e-01 3.853960e-01 3.994713e-01 4.109075e-01 4.210337e-01 4.279908e-01 4.332323e-01 4.347627e-01 4.343826e-01 4.297321e-01 4.232288e-01 4.118670e-01 3.990032e-01 3.806583e-01 3.615043e-01 3.362252e-01 3.112327e-01 2.794921e-01 2.495980e-01 2.124223e-01 1.791479e-01 1.382247e-01 1.036983e-01 6.137252e-02 2.818593e-02 1.274818e-02 4.190947e-02 7.863502e-02 1.015552e-01 1.318450e-01 1.473674e-01 1.701208e-01 1.785387e-01 1.940505e-01 1.970529e-01 2.067850e-01 2.068412e-01 2.126587e-01 2.120216e-01 2.152980e-01 2.152626e-01 2.164754e-01 2.172880e-01 2.161324e-01 2.172264e-01 2.131100e-01 2.134912e-01 2.059820e-01 2.046907e-01 1.938129e-01 1.903698e-01 1.766639e-01 1.711181e-01 1.553334e-01 1.480096e-01 1.308622e-01 1.221805e-01 1.042835e-01 9.468361e-02 7.655261e-02 6.645835e-02 4.852486e-02 3.832141e-02 2.094314e-02 1.096337e-02 5.567031e-03 1.504655e-02 3.049161e-02 3.924785e-02 5.341612e-02 6.127381e-02 7.401187e-02 
6.876780e-02 7.892983e-02 8.489485e-02 9.368743e-02 9.845838e-02 1.058066e-01 1.093360e-01 1.152108e-01 1.174945e-01 1.219046e-01 1.229777e-01 1.259691e-01 1.259051e-01 1.275613e-01 1.264710e-01 1.269140e-01 1.249444e-01 1.243345e-01 1.216669e-01 1.202017e-01 1.170494e-01 1.149623e-01 1.115682e-01 1.091265e-01 1.057601e-01 1.032625e-01 1.002182e-01 9.799196e-02 9.558568e-02 9.398308e-02 9.254911e-02 9.194093e-02 9.182478e-02 9.258972e-02 9.413553e-02 9.664237e-02 1.001729e-01 1.047557e-01 1.105461e-01 1.174746e-01 1.257233e-01 1.351713e-01 1.459684e-01 1.579803e-01 1.712748e-01 1.857310e-01 2.012978e-01 2.178830e-01 2.352964e-01 2.534789e-01 2.721003e-01 2.911290e-01 3.101171e-01 3.290444e-01 3.473924e-01 3.651252e-01 3.817255e-01 3.970983e-01 4.108263e-01 4.226881e-01 4.324911e-01 4.397858e-01 4.447602e-01 4.465886e-01 4.460328e-01 4.416881e-01 4.351323e-01 4.241184e-01 4.113454e-01 3.934024e-01 3.744850e-01 3.496496e-01 3.250267e-01 2.937497e-01 2.643486e-01 2.276752e-01 1.950731e-01 1.549179e-01 1.216369e-01 8.177858e-02 5.373311e-02 3.539457e-02 4.671729e-02 7.652125e-02 9.791500e-02 1.272171e-01 1.427981e-01 1.654401e-01 1.741893e-01 1.898158e-01 1.929833e-01 2.029563e-01 2.028518e-01 2.090594e-01 2.080022e-01 2.118940e-01 2.113502e-01 2.134297e-01 2.137459e-01 2.137145e-01 2.143502e-01 2.116022e-01 2.115489e-01 2.056129e-01 2.038866e-01 1.947275e-01 1.908491e-01 1.789775e-01 1.730051e-01 1.591380e-01 1.513946e-01 1.362135e-01 1.271165e-01 1.112118e-01 1.012088e-01 8.509789e-02 7.464424e-02 5.882293e-02 4.841094e-02 3.358499e-02 2.415790e-02 1.401328e-02 1.336725e-02 2.238040e-02 3.030933e-02 4.242297e-02 5.034020e-02 6.171345e-02 
8.414394e-02 9.485833e-02 1.002083e-01 1.094593e-01 1.137272e-01 1.213814e-01 1.245020e-01 1.304969e-01 1.324558e-01 1.367809e-01 1.376064e-01 1.402981e-01 1.400577e-01 1.411978e-01 1.399962e-01 1.397103e-01 1.376875e-01 1.361446e-01 1.334735e-01 1.308832e-01 1.277671e-01 1.243775e-01 1.210480e-01 1.171429e-01 1.138581e-01 1.097549e-01 1.067990e-01 1.028470e-01 1.005303e-01 9.710999e-02 9.576937e-02 9.328898e-02 9.328293e-02 9.216786e-02 9.386081e-02 9.452851e-02 9.825990e-02 1.010812e-01 1.071271e-01 1.123865e-01 1.209280e-01 1.287960e-01 1.398978e-01 1.504103e-01 1.639996e-01 1.770356e-01 1.928756e-01 2.081289e-01 2.257927e-01 2.427490e-01 2.616040e-01 2.795343e-01 2.987491e-01 3.167277e-01 3.353068e-01 3.522576e-01 3.691044e-01 3.838730e-01 3.978731e-01 4.093117e-01 4.194229e-01 4.264736e-01 4.318048e-01 4.335662e-01 4.334342e-01 4.292040e-01 4.231692e-01 4.124723e-01 4.003672e-01 3.829912e-01 3.649676e-01 3.410343e-01 3.176547e-01 2.877625e-01 2.601602e-01 2.256508e-01 1.958198e-01 1.594014e-01 1.310013e-01 9.917994e-02 8.111420e-02 7.279438e-02 7.921314e-02 9.948277e-02 1.149374e-01 1.395556e-01 1.515058e-01 1.716642e-01 1.778474e-01 1.918899e-01 1.933198e-01 2.021178e-01 2.011121e-01 2.063969e-01 2.051828e-01 2.082655e-01 2.080405e-01 2.093039e-01 2.102315e-01 2.092087e-01 2.106662e-01 2.066892e-01 2.076168e-01 2.002626e-01 1.995810e-01 1.889138e-01 1.860791e-01 1.727346e-01 1.677978e-01 1.525516e-01 1.458288e-01 1.293844e-01 1.212977e-01 1.042938e-01 9.532909e-02 7.842591e-02 6.915702e-02 5.328639e-02 4.462734e-02 3.221425e-02 2.699113e-02 2.609947e-02 2.940412e-02 3.980603e-02 4.657363e-02 5.900384e-02 6.594275e-02 7.785154e-02 
7.585262e-02 8.494353e-02 9.003063e-02 9.815974e-02 1.023335e-01 1.092535e-01 1.123684e-01 1.179615e-01 1.199579e-01 1.241812e-01 1.250595e-01 1.279247e-01 1.277330e-01 1.292986e-01 1.281268e-01 1.284941e-01 1.264696e-01 1.257803e-01 1.230641e-01 1.214974e-01 1.182810e-01 1.160521e-01 1.125548e-01 1.099130e-01 1.063815e-01 1.036108e-01 1.003216e-01 9.774362e-02 9.500897e-02 9.298822e-02 9.116405e-02 9.011142e-02 8.959797e-02 8.996022e-02 9.118073e-02 9.340218e-02 9.675045e-02 1.012108e-01 1.069872e-01 1.139469e-01 1.223187e-01 1.318976e-01 1.428910e-01 1.550657e-01 1.685634e-01 1.831582e-01 1.988855e-01 2.155507e-01 2.330527e-01 2.512428e-01 2.698703e-01 2.888376e-01 3.077539e-01 3.265677e-01 3.447842e-01 3.623811e-01 3.788229e-01 3.940821e-01 4.076746e-01 4.195073e-01 4.292698e-01 4.367034e-01 4.418280e-01 4.440662e-01 4.439691e-01 4.404211e-01 4.347650e-01 4.250520e-01 4.137569e-01 3.977260e-01 3.810000e-01 3.587843e-01 3.372099e-01 3.093831e-01 2.840875e-01 2.519795e-01 2.249401e-01 1.912978e-01 1.659641e-01 1.366017e-01 1.192857e-01 1.057994e-01 1.042273e-01 1.134496e-01 1.225389e-01 1.414860e-01 1.504374e-01 1.680832e-01 1.726967e-01 1.854726e-01 1.856690e-01 1.938073e-01 1.915456e-01 1.966468e-01 1.942791e-01 1.977599e-01 1.967278e-01 1.988805e-01 1.993826e-01 1.996020e-01 2.009745e-01 1.985315e-01 1.996203e-01 1.940733e-01 1.936227e-01 1.849665e-01 1.823613e-01 1.712991e-01 1.665989e-01 1.538757e-01 1.473741e-01 1.336151e-01 1.257226e-01 1.115183e-01 1.027476e-01 8.875694e-02 7.974591e-02 6.688232e-02 5.856182e-02 4.852529e-02 4.267741e-02 3.882377e-02 3.814948e-02 4.243516e-02 4.641219e-02 5.499737e-02 6.064165e-02 7.015445e-02 
9.333724e-02 1.028727e-01 1.073041e-01 1.157683e-01 1.193732e-01 1.264898e-01 1.291272e-01 1.347480e-01 1.363548e-01 1.404136e-01 1.409839e-01 1.434780e-01 1.430528e-01 1.440336e-01 1.426945e-01 1.422624e-01 1.401270e-01 1.384280e-01 1.356457e-01 1.328667e-01 1.296152e-01 1.259817e-01 1.224650e-01 1.182381e-01 1.146873e-01 1.101655e-01 1.068441e-01 1.023690e-01 9.958460e-02 9.555287e-02 9.367340e-02 9.055075e-02 9.001282e-02 8.832959e-02 8.961317e-02 8.991128e-02 9.345838e-02 9.618551e-02 1.022967e-01 1.077140e-01 1.165013e-01 1.246734e-01 1.360865e-01 1.469240e-01 1.607843e-01 1.740691e-01 1.900698e-01 2.054424e-01 2.231242e-01 2.400565e-01 2.587852e-01 2.765647e-01 2.955310e-01 3.132720e-01 3.315221e-01 3.482080e-01 3.647065e-01 3.792611e-01 3.929768e-01 4.043512e-01 4.143507e-01 4.216081e-01 4.271370e-01 4.295172e-01 4.300548e-01 4.270114e-01 4.223009e-01 4.135202e-01 4.035916e-01 3.890196e-01 3.742333e-01 3.541466e-01 3.352849e-01 3.104529e-01 2.888785e-01 2.608860e-01 2.387746e-01 2.106154e-01 1.912188e-01 1.681545e-01 1.556160e-01 1.446875e-01 1.414083e-01 1.451927e-01 1.477247e-01 1.598994e-01 1.624585e-01 1.753710e-01 1.749935e-01 1.846931e-01 1.814408e-01 1.874853e-01 1.833827e-01 1.871676e-01 1.843652e-01 1.869501e-01 1.861923e-01 1.876852e-01 1.889043e-01 1.882478e-01 1.907514e-01 1.871109e-01 1.897391e-01 1.828311e-01 1.840795e-01 1.740791e-01 1.731409e-01 1.610057e-01 1.579445e-01 1.444591e-01 1.395494e-01 1.253223e-01 1.189872e-01 1.046812e-01 9.751491e-02 8.403441e-02 7.686236e-02 6.565915e-02 5.975761e-02 5.328209e-02 5.053568e-02 5.126920e-02 5.267588e-02 5.952194e-02 6.363272e-02 7.320988e-02 7.825871e-02 8.834542e-02 
8.828791e-02 9.580340e-02 9.947652e-02 1.065132e-01 1.096496e-01 1.158199e-01 1.181833e-01 1.232664e-01 1.247302e-01 1.286094e-01 1.291232e-01 1.317550e-01 1.313260e-01 1.327249e-01 1.314063e-01 1.316356e-01 1.295185e-01 1.286845e-01 1.258914e-01 1.241388e-01 1.208189e-01 1.183271e-01 1.146539e-01 1.116366e-01 1.078097e-01 1.045184e-01 1.007738e-01 9.751050e-02 9.414158e-02 9.128253e-02 8.867328e-02 8.669812e-02 8.535200e-02 8.485046e-02 8.536860e-02 8.696914e-02 8.992670e-02 9.413403e-02 9.990305e-02 1.069601e-01 1.156323e-01 1.255264e-01 1.369746e-01 1.495248e-01 1.634834e-01 1.783911e-01 1.944782e-01 2.113196e-01 2.290183e-01 2.472166e-01 2.658522e-01 2.846621e-01 3.034035e-01 3.219256e-01 3.398179e-01 3.570483e-01 3.730817e-01 3.879914e-01 4.011949e-01 4.128261e-01 4.223685e-01 4.299235e-01 4.351968e-01 4.380957e-01 4.387601e-01 4.366530e-01 4.326402e-01 4.253833e-01 4.168756e-01 4.045038e-01 3.919256e-01 3.746683e-01 3.587214e-01 3.371119e-01 3.188663e-01 2.939982e-01 2.750071e-01 2.489709e-01 2.313147e-01 2.077180e-01 1.937631e-01 1.776240e-01 1.690524e-01 1.642048e-01 1.603510e-01 1.651876e-01 1.630698e-01 1.715853e-01 1.683061e-01 1.755020e-01 1.699100e-01 1.745457e-01 1.680897e-01 1.711106e-01 1.662321e-01 1.690795e-01 1.671055e-01 1.695282e-01 1.702869e-01 1.709090e-01 1.736725e-01 1.716597e-01 1.751802e-01 1.704336e-01 1.727501e-01 1.652045e-01 1.652951e-01 1.561350e-01 1.540743e-01 1.439247e-01 1.399121e-01 1.291685e-01 1.235992e-01 1.127715e-01 1.062508e-01 9.606045e-02 8.937781e-02 8.082751e-02 7.498460e-02 6.939832e-02 6.557479e-02 6.421762e-02 6.326949e-02 6.625737e-02 6.794106e-02 7.391552e-02 7.716730e-02 8.448604e-02 
1.068474e-01 1.149334e-01 1.181409e-01 1.255418e-01 1.282034e-01 1.345518e-01 1.364736e-01 1.415417e-01 1.426143e-01 1.462723e-01 1.464512e-01 1.486448e-01 1.479367e-01 1.486746e-01 1.471288e-01 1.464740e-01 1.441746e-01 1.422376e-01 1.392980e-01 1.362309e-01 1.327880e-01 1.287798e-01 1.249926e-01 1.202669e-01 1.163193e-01 1.111389e-01 1.072526e-01 1.019344e-01 9.839665e-02 9.334563e-02 9.055521e-02 8.631465e-02 8.483100e-02 8.211682e-02 8.264667e-02 8.226738e-02 8.548895e-02 8.808164e-02 9.436274e-02 1.001429e-01 1.094449e-01 1.182481e-01 1.302845e-01 1.417730e-01 1.561683e-01 1.699463e-01 1.862693e-01 2.018806e-01 2.196108e-01 2.364959e-01 2.549877e-01 2.724542e-01 2.909278e-01 3.081530e-01 3.257224e-01 3.417925e-01 3.575296e-01 3.715107e-01 3.845351e-01 3.955601e-01 4.051354e-01 4.124871e-01 4.181005e-01 4.212675e-01 4.226758e-01 4.213738e-01 4.186183e-01 4.127882e-01 4.061973e-01 3.960012e-01 3.861981e-01 3.720305e-01 3.599346e-01 3.424640e-01 3.292429e-01 3.094993e-01 2.963912e-01 2.759059e-01 2.638569e-01 2.447835e-01 2.340197e-01 2.189752e-01 2.089016e-01 2.001040e-01 1.898610e-01 1.876303e-01 1.768756e-01 1.788525e-01 1.677806e-01 1.703925e-01 1.594469e-01 1.610923e-01 1.521974e-01 1.538935e-01 1.490645e-01 1.510523e-01 1.494405e-01 1.516173e-01 1.529668e-01 1.527257e-01 1.566666e-01 1.531787e-01 1.588364e-01 1.526266e-01 1.575236e-01 1.488534e-01 1.513440e-01 1.417728e-01 1.419868e-01 1.319547e-01 1.300569e-01 1.198344e-01 1.162624e-01 1.064091e-01 1.018726e-01 9.327938e-02 8.869129e-02 8.254429e-02 7.895325e-02 7.647833e-02 7.480920e-02 7.655537e-02 7.709866e-02 8.237247e-02 8.463853e-02 9.202194e-02 9.521727e-02 1.034064e-01 
1.040688e-01 1.099817e-01 1.120643e-01 1.178466e-01 1.197103e-01 1.249539e-01 1.263443e-01 1.307694e-01 1.315221e-01 1.349481e-01 1.349704e-01 1.372945e-01 1.365502e-01 1.377329e-01 1.362304e-01 1.362850e-01 1.340675e-01 1.330523e-01 1.301894e-01 1.282007e-01 1.247824e-01 1.219496e-01 1.180834e-01 1.145677e-01 1.103825e-01 1.063824e-01 1.020444e-01 9.781649e-02 9.356593e-02 8.947051e-02 8.569105e-02 8.226921e-02 7.958380e-02 7.763575e-02 7.694854e-02 7.746938e-02 7.975299e-02 8.355710e-02 8.937138e-02 9.668187e-02 1.059548e-01 1.164763e-01 1.287697e-01 1.420216e-01 1.568074e-01 1.722840e-01 1.890086e-01 2.061667e-01 2.242116e-01 2.424173e-01 2.610587e-01 2.795575e-01 2.979589e-01 3.158879e-01 3.331362e-01 3.495775e-01 3.647598e-01 3.788297e-01 3.911392e-01 4.020942e-01 4.109426e-01 4.182740e-01 4.233784e-01 4.268608e-01 4.282736e-01 4.279446e-01 4.260160e-01 4.220906e-01 4.173785e-01 4.101321e-01 4.032933e-01 3.929520e-01 3.846315e-01 3.713107e-01 3.620187e-01 3.457697e-01 3.357254e-01 3.167702e-01 3.057482e-01 2.849426e-01 2.723113e-01 2.516908e-01 2.369258e-01 2.197584e-01 2.033671e-01 1.927358e-01 1.766074e-01 1.725708e-01 1.582120e-01 1.572348e-01 1.435306e-01 1.436109e-01 1.313585e-01 1.315415e-01 1.232375e-01 1.256709e-01 1.223176e-01 1.254679e-01 1.260007e-01 1.267793e-01 1.311321e-01 1.289844e-01 1.365007e-01 1.331066e-01 1.403051e-01 1.349346e-01 1.395070e-01 1.341731e-01 1.362650e-01 1.307026e-01 1.303365e-01 1.244034e-01 1.220191e-01 1.160184e-01 1.123338e-01 1.068413e-01 1.026802e-01 9.840891e-02 9.459978e-02 9.225723e-02 8.951574e-02 8.957174e-02 8.831772e-02 9.076272e-02 9.098522e-02 9.531743e-02 9.664997e-02 1.021287e-01 
1.231199e-01 1.297880e-01 1.316920e-01 1.379517e-01 1.395369e-01 1.450096e-01 1.460765e-01 1.504902e-01 1.509069e-01 1.540798e-01 1.537725e-01 1.555993e-01 1.545427e-01 1.549843e-01 1.531924e-01 1.522671e-01 1.497847e-01 1.475598e-01 1.444549e-01 1.410385e-01 1.373960e-01 1.329302e-01 1.288488e-01 1.235063e-01 1.191026e-01 1.130913e-01 1.085173e-01 1.021015e-01 9.758640e-02 9.114122e-02 8.707568e-02 8.119575e-02 7.826647e-02 7.391569e-02 7.320203e-02 7.170276e-02 7.440311e-02 7.685687e-02 8.352318e-02 9.005782e-02 1.003208e-01 1.102919e-01 1.234225e-01 1.360602e-01 1.513779e-01 1.660217e-01 1.829177e-01 1.989675e-01 2.168222e-01 2.336543e-01 2.517801e-01 2.687035e-01 2.863364e-01 3.025984e-01 3.189346e-01 3.337673e-01 3.480377e-01 3.607327e-01 3.722992e-01 3.822908e-01 3.907387e-01 3.976686e-01 4.028670e-01 4.066095e-01 4.087240e-01 4.093685e-01 4.088417e-01 4.066547e-01 4.041767e-01 3.995521e-01 3.960045e-01 3.893576e-01 3.856460e-01 3.772040e-01 3.738859e-01 3.634301e-01 3.601629e-01 3.469747e-01 3.420900e-01 3.254312e-01 3.161809e-01 2.963390e-01 2.801624e-01 2.593932e-01 2.358629e-01 2.180077e-01 1.903150e-01 1.783104e-01 1.522559e-01 1.452885e-01 1.240453e-01 1.201983e-01 1.059454e-01 1.059372e-01 1.003033e-01 1.015432e-01 9.833383e-02 1.023342e-01 1.024091e-01 1.019976e-01 1.066542e-01 1.019292e-01 1.120362e-01 1.066078e-01 1.180894e-01 1.124739e-01 1.204502e-01 1.161250e-01 1.211291e-01 1.170002e-01 1.191226e-01 1.148757e-01 1.147075e-01 1.106638e-01 1.090509e-01 1.058134e-01 1.036440e-01 1.018915e-01 9.996783e-02 1.002463e-01 9.915329e-02 1.016549e-01 1.016414e-01 1.061119e-01 1.070850e-01 1.129473e-01 1.145961e-01 1.211714e-01 
1.216953e-01 1.261682e-01 1.266882e-01 1.312285e-01 1.317424e-01 1.360049e-01 1.363079e-01 1.400077e-01 1.399415e-01 1.428603e-01 1.423132e-01 1.442968e-01 1.431987e-01 1.441519e-01 1.424661e-01 1.423455e-01 1.400608e-01 1.388678e-01 1.359908e-01 1.337642e-01 1.303129e-01 1.271221e-01 1.231232e-01 1.190645e-01 1.145563e-01 1.097570e-01 1.048063e-01 9.944465e-02 9.418899e-02 8.855059e-02 8.329419e-02 7.789998e-02 7.330627e-02 6.914629e-02 6.650809e-02 6.521146e-02 6.634110e-02 6.952395e-02 7.552080e-02 8.342247e-02 9.382665e-02 1.055131e-01 1.192525e-01 1.337095e-01 1.498493e-01 1.662797e-01 1.840401e-01 2.017408e-01 2.203618e-01 2.386022e-01 2.572667e-01 2.752452e-01 2.930733e-01 3.099407e-01 3.260451e-01 3.409820e-01 3.545696e-01 3.668982e-01 3.774003e-01 3.867056e-01 3.939046e-01 4.001281e-01 4.042385e-01 4.077008e-01 4.093621e-01 4.106771e-01 4.108353e-01 4.107140e-01 4.104057e-01 4.093939e-01 4.094764e-01 4.076612e-01 4.085125e-01 4.052359e-01 4.064288e-01 4.001388e-01 4.001408e-01 3.886350e-01 3.847310e-01 3.660425e-01 3.548647e-01 3.287781e-01 3.078416e-01 2.774339e-01 2.474761e-01 2.191253e-01 1.858566e-01 1.656449e-01 1.379292e-01 1.260692e-01 1.039138e-01 1.006319e-01 8.264684e-02 7.847397e-02 6.607230e-02 6.947710e-02 6.419257e-02 6.871125e-02 6.662131e-02 6.622679e-02 7.081373e-02 6.587254e-02 7.874174e-02 7.723472e-02 9.325646e-02 9.361918e-02 1.051539e-01 1.075041e-01 1.152471e-01 1.169054e-01 1.209574e-01 1.214709e-01 1.226212e-01 1.222501e-01 1.214342e-01 1.206521e-01 1.187314e-01 1.180761e-01 1.157800e-01 1.157543e-01 1.136484e-01 1.146223e-01 1.130736e-01 1.152047e-01 1.143612e-01 1.175715e-01 1.173845e-01 1.214086e-01 
1.409370e-01 1.463459e-01 1.469967e-01 1.521636e-01 1.526480e-01 1.572361e-01 1.573896e-01 1.611190e-01 1.608161e-01 1.634726e-01 1.626285e-01 1.640638e-01 1.626301e-01 1.627587e-01 1.607175e-01 1.595106e-01 1.568663e-01 1.543440e-01 1.511150e-01 1.473371e-01 1.435486e-01 1.386050e-01 1.342851e-01 1.282894e-01 1.234711e-01 1.165610e-01 1.112986e-01 1.036538e-01 9.806698e-02 8.996756e-02 8.434804e-02 7.632875e-02 7.138108e-02 6.458395e-02 6.184794e-02 5.846320e-02 6.027857e-02 6.263243e-02 7.010838e-02 7.813194e-02 9.007766e-02 1.020569e-01 1.169473e-01 1.314499e-01 1.482298e-01 1.642886e-01 1.821486e-01 1.989844e-01 2.171536e-01 2.340155e-01 2.516892e-01 2.678162e-01 2.841764e-01 2.988390e-01 3.131341e-01 3.257262e-01 3.373890e-01 3.475334e-01 3.563014e-01 3.639278e-01 3.699183e-01 3.752690e-01 3.789648e-01 3.825139e-01 3.846670e-01 3.869957e-01 3.885230e-01 3.902343e-01 3.921721e-01 3.938480e-01 3.972871e-01 3.993009e-01 4.050747e-01 4.070761e-01 4.150599e-01 4.152990e-01 4.235006e-01 4.186287e-01 4.226892e-01 4.087584e-01 4.026241e-01 3.774143e-01 3.556106e-01 3.213429e-01 2.824836e-01 2.466753e-01 1.966153e-01 1.679876e-01 1.213679e-01 1.036706e-01 7.147294e-02 6.316513e-02 5.033097e-02 4.929227e-02 4.607283e-02 4.490901e-02 3.634537e-02 4.404013e-02 3.888823e-02 3.634619e-02 3.711248e-02 2.852915e-02 4.145831e-02 3.329839e-02 5.887098e-02 6.506474e-02 8.121151e-02 8.731077e-02 9.840460e-02 1.030611e-01 1.096468e-01 1.128757e-01 1.161200e-01 1.183022e-01 1.193369e-01 1.209960e-01 1.207648e-01 1.224636e-01 1.217087e-01 1.239355e-01 1.231910e-01 1.262592e-01 1.258418e-01 1.298347e-01 1.298536e-01 1.346351e-01 1.350349e-01 1.403131e-01 
1.401299e-01 1.433581e-01 1.424232e-01 1.458141e-01 1.449916e-01 1.482986e-01 1.474754e-01 1.504481e-01 1.495131e-01 1.519229e-01 1.507751e-01 1.524300e-01 1.509816e-01 1.517336e-01 1.499082e-01 1.496544e-01 1.473841e-01 1.460642e-01 1.432859e-01 1.408762e-01 1.375275e-01 1.340337e-01 1.300515e-01 1.255015e-01 1.208232e-01 1.152649e-01 1.098398e-01 1.033506e-01 9.717150e-02 8.989995e-02 8.308746e-02 7.537859e-02 6.840886e-02 6.116710e-02 5.548478e-02 5.103951e-02 4.998162e-02 5.208491e-02 5.856789e-02 6.777818e-02 8.023813e-02 9.396072e-02 1.099926e-01 1.263612e-01 1.445445e-01 1.624720e-01 1.818153e-01 2.004297e-01 2.199965e-01 2.384076e-01 2.572047e-01 2.744670e-01 2.914700e-01 3.066560e-01 3.209229e-01 3.332706e-01 3.441136e-01 3.532052e-01 3.603813e-01 3.662994e-01 3.701595e-01 3.735627e-01 3.750989e-01 3.771658e-01 3.779054e-01 3.801007e-01 3.818178e-01 3.854872e-01 3.897588e-01 3.956790e-01 4.034418e-01 4.114125e-01 4.226029e-01 4.310429e-01 4.442375e-01 4.498309e-01 4.617902e-01 4.595903e-01 4.649763e-01 4.495457e-01 4.415101e-01 4.094132e-01 3.821311e-01 3.355057e-01 2.890257e-01 2.381373e-01 1.826304e-01 1.410763e-01 1.004690e-01 7.491043e-02 6.035704e-02 5.639932e-02 3.999176e-02 2.032948e-02 9.393951e-03 1.274433e-02 4.022672e-03 1.654092e-02 7.850288e-03 1.777598e-02 1.649879e-02 2.266193e-02 1.465404e-02 2.658015e-02 1.778218e-02 4.323061e-02 6.522990e-02 8.138849e-02 9.579364e-02 1.067090e-01 1.151141e-01 1.226300e-01 1.269537e-01 1.319558e-01 1.335543e-01 1.367714e-01 1.366152e-01 1.387243e-01 1.375338e-01 1.391356e-01 1.374493e-01 1.390281e-01 1.372308e-01 1.391213e-01 1.374573e-01 1.398279e-01 1.384156e-01 1.412751e-01 
1.593576e-01 1.636992e-01 1.632054e-01 1.673922e-01 1.668160e-01 1.705765e-01 1.698149e-01 1.728876e-01 1.718481e-01 1.740052e-01 1.726127e-01 1.736739e-01 1.718714e-01 1.717095e-01 1.694548e-01 1.679954e-01 1.652550e-01 1.624712e-01 1.592136e-01 1.551170e-01 1.513054e-01 1.459348e-01 1.415221e-01 1.349327e-01 1.298609e-01 1.221173e-01 1.163267e-01 1.075072e-01 1.009671e-01 9.119968e-02 8.399401e-02 7.358249e-02 6.616391e-02 5.603501e-02 5.005206e-02 4.325706e-02 4.326014e-02 4.557601e-02 5.472052e-02 6.556735e-02 8.022558e-02 9.534153e-02 1.127696e-01 1.300132e-01 1.489177e-01 1.671276e-01 1.865364e-01 2.047451e-01 2.236578e-01 2.408752e-01 2.582184e-01 2.734410e-01 2.881590e-01 3.005050e-01 3.117448e-01 3.206736e-01 3.280337e-01 3.335816e-01 3.373436e-01 3.402548e-01 3.414601e-01 3.430683e-01 3.433007e-01 3.451232e-01 3.460460e-01 3.492977e-01 3.522887e-01 3.577211e-01 3.639125e-01 3.720567e-01 3.825665e-01 3.937692e-01 4.094857e-01 4.231146e-01 4.436873e-01 4.566979e-01 4.789627e-01 4.850517e-01 5.018977e-01 4.926816e-01 4.935276e-01 4.623402e-01 4.361917e-01 3.839717e-01 3.258399e-01 2.666561e-01 1.839305e-01 1.378909e-01 5.804149e-02 5.270132e-02 3.880226e-02 5.194209e-02 5.770496e-02 5.404590e-02 2.098377e-02 2.308993e-02 1.679236e-02 2.364270e-02 2.227894e-02 2.319492e-02 2.053797e-02 2.140835e-02 1.894085e-02 2.185572e-02 2.386543e-02 2.044903e-02 4.495300e-02 6.333469e-02 8.090776e-02 9.526679e-02 1.056411e-01 1.161301e-01 1.219788e-01 1.295118e-01 1.324884e-01 1.379542e-01 1.391101e-01 1.433038e-01 1.433716e-01 1.469574e-01 1.464629e-01 1.499385e-01 1.492407e-01 1.529137e-01 1.522242e-01 1.562114e-01 1.556162e-01 1.598672e-01 
1.585880e-01 1.607499e-01 1.584834e-01 1.608435e-01 1.587341e-01 1.611546e-01 1.592067e-01 1.614964e-01 1.596808e-01 1.616242e-01 1.598813e-01 1.612627e-01 1.595068e-01 1.601303e-01 1.582533e-01 1.579552e-01 1.558318e-01 1.544870e-01 1.519789e-01 1.495000e-01 1.464592e-01 1.427906e-01 1.390610e-01 1.341690e-01 1.295880e-01 1.234502e-01 1.178521e-01 1.104520e-01 1.036804e-01 9.501737e-02 8.696388e-02 7.710683e-02 6.783590e-02 5.714816e-02 4.741724e-02 3.771912e-02 3.179253e-02 3.129341e-02 3.900999e-02 5.112464e-02 6.708750e-02 8.399963e-02 1.032332e-01 1.222997e-01 1.432556e-01 1.633546e-01 1.849649e-01 2.050861e-01 2.261934e-01 2.451791e-01 2.644631e-01 2.810259e-01 2.971018e-01 3.099991e-01 3.216470e-01 3.299841e-01 3.364843e-01 3.400786e-01 3.415721e-01 3.412382e-01 3.389651e-01 3.365693e-01 3.328338e-01 3.310313e-01 3.288309e-01 3.304406e-01 3.327468e-01 3.398217e-01 3.486145e-01 3.617778e-01 3.775770e-01 3.960265e-01 4.181278e-01 4.395957e-01 4.660445e-01 4.859237e-01 5.124267e-01 5.229502e-01 5.415742e-01 5.326798e-01 5.315580e-01 4.940083e-01 4.602863e-01 3.918115e-01 3.219732e-01 2.376396e-01 1.492298e-01 7.756237e-02 3.919050e-02 8.517094e-02 1.461755e-01 8.625338e-02 6.953119e-02 8.395150e-02 5.054903e-02 1.678259e-02 1.585493e-02 1.315470e-02 2.360813e-02 3.735049e-02 4.366183e-02 4.983056e-02 5.365430e-02 5.903420e-02 6.086904e-02 4.693009e-02 5.654815e-02 7.176065e-02 8.881621e-02 1.061027e-01 1.168408e-01 1.296994e-01 1.359523e-01 1.449271e-01 1.481614e-01 1.542257e-01 1.553490e-01 1.593664e-01 1.590148e-01 1.617099e-01 1.603677e-01 1.623282e-01 1.603712e-01 1.620475e-01 1.597618e-01 1.614656e-01 1.590607e-01 1.609682e-01 
1.775895e-01 1.810540e-01 1.795433e-01 1.828890e-01 1.813225e-01 1.843512e-01 1.827050e-01 1.851895e-01 1.834272e-01 1.851418e-01 1.832199e-01 1.839629e-01 1.818324e-01 1.814412e-01 1.790459e-01 1.774036e-01 1.746778e-01 1.717134e-01 1.685775e-01 1.642587e-01 1.606152e-01 1.549373e-01 1.506658e-01 1.436364e-01 1.385912e-01 1.302156e-01 1.242265e-01 1.144970e-01 1.073802e-01 9.627878e-02 8.787324e-02 7.540904e-02 6.569329e-02 5.209321e-02 4.174020e-02 2.890995e-02 2.391647e-02 2.606347e-02 3.882477e-02 5.462441e-02 7.295203e-02 9.223789e-02 1.127950e-01 1.335957e-01 1.553104e-01 1.765462e-01 1.983260e-01 2.188260e-01 2.393182e-01 2.576852e-01 2.753074e-01 2.899993e-01 3.031158e-01 3.127078e-01 3.199717e-01 3.236101e-01 3.244823e-01 3.224719e-01 3.178236e-01 3.121069e-01 3.045676e-01 2.986054e-01 2.920446e-01 2.895935e-01 2.874762e-01 2.907018e-01 2.946203e-01 3.035601e-01 3.137146e-01 3.278998e-01 3.447650e-01 3.645591e-01 3.894401e-01 4.150255e-01 4.486487e-01 4.768355e-01 5.161686e-01 5.375605e-01 5.731016e-01 5.728148e-01 5.881269e-01 5.508774e-01 5.247604e-01 4.443428e-01 3.613387e-01 2.612473e-01 1.255915e-01 8.290273e-02 1.124959e-01 1.847329e-01 8.594332e-02 1.993297e-02 6.078721e-02 7.276490e-02 7.833615e-02 9.084270e-02 9.095524e-02 9.879592e-02 9.885221e-02 9.121431e-02 1.001450e-01 8.385191e-02 1.036780e-01 7.795107e-02 9.283286e-02 5.625406e-02 5.878878e-02 6.855533e-02 8.255242e-02 1.011531e-01 1.112881e-01 1.260983e-01 1.327059e-01 1.436003e-01 1.475946e-01 1.555061e-01 1.575778e-01 1.634063e-01 1.641016e-01 1.686016e-01 1.683600e-01 1.721244e-01 1.712882e-01 1.747420e-01 1.735600e-01 1.769610e-01 1.755963e-01 1.790454e-01 
1.763971e-01 1.776441e-01 1.741550e-01 1.756013e-01 1.722541e-01 1.738731e-01 1.708103e-01 1.724882e-01 1.697951e-01 1.713489e-01 1.690397e-01 1.702429e-01 1.682555e-01 1.688676e-01 1.670702e-01 1.668638e-01 1.650704e-01 1.638519e-01 1.618414e-01 1.594602e-01 1.569932e-01 1.533398e-01 1.501683e-01 1.451626e-01 1.410337e-01 1.346080e-01 1.292611e-01 1.213419e-01 1.145074e-01 1.050025e-01 9.640496e-02 8.520135e-02 7.457834e-02 6.156074e-02 4.872467e-02 3.388236e-02 1.924199e-02 7.456181e-03 1.944376e-02 3.755248e-02 5.800709e-02 7.874681e-02 1.014950e-01 1.237705e-01 1.480126e-01 1.709962e-01 1.956482e-01 2.181630e-01 2.417309e-01 2.621809e-01 2.827829e-01 2.992249e-01 3.147540e-01 3.251777e-01 3.336754e-01 3.365563e-01 3.368403e-01 3.319159e-01 3.243627e-01 3.133524e-01 3.005075e-01 2.873428e-01 2.739041e-01 2.641650e-01 2.560782e-01 2.553193e-01 2.577049e-01 2.684634e-01 2.826216e-01 3.033948e-01 3.273622e-01 3.556687e-01 3.877611e-01 4.218750e-01 4.613641e-01 4.972702e-01 5.406153e-01 5.681616e-01 6.055337e-01 6.090422e-01 6.222021e-01 5.836058e-01 5.452469e-01 4.482839e-01 3.406354e-01 1.991855e-01 5.330997e-02 7.488917e-02 2.005668e-01 9.322241e-02 8.395336e-02 2.336193e-02 9.096533e-02 1.402630e-01 1.028339e-01 6.840397e-02 9.187466e-02 5.773648e-02 6.875789e-02 3.556915e-02 5.693131e-02 1.953944e-02 5.060431e-02 5.079413e-03 5.280526e-02 5.138146e-02 6.586463e-02 8.780178e-02 9.851064e-02 1.182233e-01 1.270842e-01 1.422287e-01 1.487158e-01 1.597354e-01 1.638855e-01 1.715977e-01 1.736957e-01 1.788998e-01 1.792994e-01 1.827018e-01 1.817537e-01 1.839545e-01 1.819803e-01 1.834711e-01 1.807574e-01 1.819230e-01 1.787260e-01 1.798452e-01 
1.949023e-01 1.976660e-01 1.952633e-01 1.979119e-01 1.954304e-01 1.978404e-01 1.953500e-01 1.973397e-01 1.948822e-01 1.962404e-01 1.938267e-01 1.943401e-01 1.919473e-01 1.914229e-01 1.889930e-01 1.872744e-01 1.847148e-01 1.816900e-01 1.788757e-01 1.744759e-01 1.712512e-01 1.654402e-01 1.616176e-01 1.543749e-01 1.497324e-01 1.410317e-01 1.353083e-01 1.250982e-01 1.179927e-01 1.061827e-01 9.735986e-02 8.381911e-02 7.292769e-02 5.749862e-02 4.420782e-02 2.673820e-02 1.081943e-02 8.845184e-03 2.760784e-02 4.928171e-02 7.072920e-02 9.427007e-02 1.179767e-01 1.428240e-01 1.679532e-01 1.931449e-01 2.183641e-01 2.424415e-01 2.658787e-01 2.868469e-01 3.061286e-01 3.215412e-01 3.339874e-01 3.412771e-01 3.443692e-01 3.415645e-01 3.338175e-01 3.207179e-01 3.030169e-01 2.826493e-01 2.597490e-01 2.393658e-01 2.201847e-01 2.095737e-01 2.029010e-01 2.068587e-01 2.135388e-01 2.276415e-01 2.428001e-01 2.622079e-01 2.836785e-01 3.089348e-01 3.393784e-01 3.743878e-01 4.187736e-01 4.634400e-01 5.215282e-01 5.636663e-01 6.244423e-01 6.400141e-01 6.820112e-01 6.422210e-01 6.296331e-01 5.051518e-01 4.043078e-01 2.111647e-01 3.337911e-02 6.639462e-02 1.496295e-01 8.558409e-02 4.608343e-03 1.973343e-01 1.695894e-01 6.382604e-02 5.622685e-02 4.772247e-02 2.674137e-02 2.979633e-02 9.389693e-03 4.343074e-02 2.081906e-02 4.806766e-02 2.939329e-02 4.929997e-02 3.796351e-02 5.129785e-02 5.582032e-02 8.627221e-02 9.362908e-02 1.151841e-01 1.228501e-01 1.392600e-01 1.456359e-01 1.580414e-01 1.626272e-01 1.718674e-01 1.747036e-01 1.815463e-01 1.828786e-01 1.880106e-01 1.881382e-01 1.921408e-01 1.913507e-01 1.946827e-01 1.932236e-01 1.962124e-01 1.942883e-01 1.971292e-01 