# vtk DataFile Version 2.0
Comment goes here
ASCII

DATASET STRUCTURED_POINTS
DIMENSIONS    128   128   1

ORIGIN    0.000   0.000   0.000
SPACING   0.0156250.015625   1.000

POINT_DATA   16384
SCALARS uMag double
LOOKUP_TABLE default

1.021871e-01 9.546075e-02 9.275951e-02 8.609301e-02 8.279481e-02 7.622971e-02 7.241605e-02 6.600390e-02 6.176314e-02 5.555907e-02 5.098140e-02 4.503740e-02 4.020911e-02 3.456717e-02 2.956426e-02 2.424904e-02 1.913018e-02 1.414167e-02 8.940742e-03 4.246966e-03 1.034880e-03 5.504444e-03 1.090493e-02 1.526651e-02 2.087055e-02 2.528939e-02 3.123319e-02 3.592729e-02 4.240154e-02 4.764127e-02 5.489052e-02 6.099433e-02 6.931155e-02 7.663596e-02 8.635057e-02 9.527319e-02 1.067312e-01 1.176253e-01 1.311604e-01 1.443607e-01 1.602559e-01 1.760159e-01 1.944574e-01 2.129001e-01 2.339267e-01 2.549933e-01 2.784453e-01 3.018490e-01 3.273265e-01 3.525184e-01 3.793568e-01 4.055135e-01 4.327851e-01 4.588271e-01 4.853754e-01 5.100168e-01 5.345235e-01 5.563514e-01 5.774281e-01 5.950000e-01 6.112906e-01 6.232325e-01 6.335091e-01 6.386001e-01 6.418422e-01 6.390778e-01 6.345325e-01 6.231749e-01 6.104105e-01 5.900420e-01 5.690133e-01 5.396150e-01 5.107525e-01 4.728194e-01 4.371382e-01 3.918182e-01 3.510141e-01 3.002242e-01 2.566937e-01 2.031359e-01 1.598471e-01 1.068371e-01 6.699881e-02 1.805900e-02 1.541143e-02 5.717479e-02 8.228246e-02 1.148814e-01 1.311567e-01 1.542499e-01 1.629736e-01 1.778696e-01 1.816306e-01 1.905202e-01 1.920834e-01 1.969012e-01 1.981447e-01 1.998762e-01 2.016126e-01 2.002839e-01 2.024596e-01 1.978337e-01 1.999742e-01 1.922070e-01 1.939539e-01 1.838971e-01 1.853679e-01 1.743552e-01 1.759219e-01 1.650931e-01 1.669697e-01 1.569337e-01 1.590665e-01 1.499701e-01 1.521393e-01 1.438697e-01 1.458152e-01 1.381660e-01 1.396636e-01 1.324283e-01 1.333172e-01 1.263294e-01 1.265128e-01 1.196563e-01 1.190913e-01 1.122973e-01 1.109826e-01 1.042215e-01 
1.182430e-01 1.123012e-01 1.093822e-01 1.032574e-01 9.978263e-02 9.350595e-02 8.955909e-02 8.317694e-02 7.884784e-02 7.241598e-02 6.779599e-02 6.137343e-02 5.655008e-02 5.019290e-02 4.524461e-02 3.900078e-02 3.399337e-02 2.790345e-02 2.289771e-02 1.703172e-02 1.218295e-02 7.140227e-03 4.906399e-03 7.883134e-03 1.255107e-02 1.843478e-02 2.401111e-02 3.047202e-02 3.667022e-02 4.378677e-02 5.079597e-02 5.882986e-02 6.693385e-02 7.620818e-02 8.573691e-02 9.660241e-02 1.079039e-01 1.207089e-01 1.341175e-01 1.491715e-01 1.649683e-01 1.824985e-01 2.008643e-01 2.209662e-01 2.419314e-01 2.645180e-01 2.879122e-01 3.126690e-01 3.380805e-01 3.644338e-01 3.911864e-01 4.182944e-01 4.454517e-01 4.722260e-01 4.986279e-01 5.237880e-01 5.481206e-01 5.702765e-01 5.911656e-01 6.089164e-01 6.250314e-01 6.370606e-01 6.472093e-01 6.523619e-01 6.555633e-01 6.528963e-01 6.484317e-01 6.372483e-01 6.247035e-01 6.045937e-01 5.839143e-01 5.548290e-01 5.264084e-01 4.887845e-01 4.535817e-01 4.085099e-01 3.681677e-01 3.175640e-01 2.744752e-01 2.212193e-01 1.785448e-01 1.268144e-01 8.914043e-02 4.958626e-02 3.853872e-02 6.018523e-02 8.149953e-02 1.120657e-01 1.280552e-01 1.508317e-01 1.595708e-01 1.746035e-01 1.780940e-01 1.873935e-01 1.884015e-01 1.939196e-01 1.945491e-01 1.972853e-01 1.984632e-01 1.984365e-01 2.001155e-01 1.970467e-01 1.987141e-01 1.926873e-01 1.939503e-01 1.857490e-01 1.867355e-01 1.776766e-01 1.787836e-01 1.699764e-01 1.714218e-01 1.634263e-01 1.651464e-01 1.580610e-01 1.598273e-01 1.535011e-01 1.550510e-01 1.492480e-01 1.503600e-01 1.448489e-01 1.453674e-01 1.399588e-01 1.397928e-01 1.343482e-01 1.334602e-01 1.278887e-01 1.262823e-01 1.205339e-01 
1.028961e-01 9.631538e-02 9.368193e-02 8.715260e-02 8.391125e-02 7.747905e-02 7.371545e-02 6.743835e-02 6.324829e-02 5.719205e-02 5.267947e-02 4.691524e-02 4.219375e-02 3.680198e-02 3.200903e-02 2.710557e-02 2.246863e-02 1.832641e-02 1.448358e-02 1.208416e-02 1.118374e-02 1.239564e-02 1.549865e-02 1.883320e-02 2.359233e-02 2.759521e-02 3.312989e-02 3.760139e-02 4.382906e-02 4.892193e-02 5.599595e-02 6.198736e-02 7.016406e-02 7.739392e-02 8.698582e-02 9.582383e-02 1.071675e-01 1.179816e-01 1.314033e-01 1.445230e-01 1.602990e-01 1.759716e-01 1.942812e-01 2.126238e-01 2.334994e-01 2.544479e-01 2.777253e-01 3.009894e-01 3.262665e-01 3.512963e-01 3.779098e-01 4.038846e-01 4.309121e-01 4.567594e-01 4.830548e-01 5.075014e-01 5.317633e-01 5.534174e-01 5.742826e-01 5.917319e-01 6.078794e-01 6.197912e-01 6.300391e-01 6.352436e-01 6.386264e-01 6.361768e-01 6.320028e-01 6.212198e-01 6.091215e-01 5.896409e-01 5.696368e-01 5.414848e-01 5.140685e-01 4.777832e-01 4.440396e-01 4.008440e-01 3.625750e-01 3.146016e-01 2.744504e-01 2.251073e-01 1.868412e-01 1.420429e-01 1.121777e-01 8.628786e-02 7.920954e-02 9.064217e-02 1.025277e-01 1.262905e-01 1.373663e-01 1.570550e-01 1.630487e-01 1.763024e-01 1.784740e-01 1.865480e-01 1.872860e-01 1.918127e-01 1.927167e-01 1.945155e-01 1.962682e-01 1.950824e-01 1.975410e-01 1.929531e-01 1.955178e-01 1.876417e-01 1.897918e-01 1.795560e-01 1.813816e-01 1.703179e-01 1.722504e-01 1.615584e-01 1.638164e-01 1.540434e-01 1.565388e-01 1.477504e-01 1.502348e-01 1.422661e-01 1.444708e-01 1.370938e-01 1.388002e-01 1.318052e-01 1.328628e-01 1.260874e-01 1.264093e-01 1.197427e-01 1.192931e-01 1.126708e-01 1.114530e-01 1.048492e-01 
1.198306e-01 1.141764e-01 1.113425e-01 1.054725e-01 1.020454e-01 9.599481e-02 9.206088e-02 8.588249e-02 8.153752e-02 7.529782e-02 7.064382e-02 6.441947e-02 5.956239e-02 5.343950e-02 4.849065e-02 4.257289e-02 3.766344e-02 3.211021e-02 2.745542e-02 2.263635e-02 1.881003e-02 1.589242e-02 1.463868e-02 1.584240e-02 1.841580e-02 2.282008e-02 2.742679e-02 3.319476e-02 3.888811e-02 4.558724e-02 5.226993e-02 5.999259e-02 6.784859e-02 7.685948e-02 8.618089e-02 9.680965e-02 1.079281e-01 1.205145e-01 1.337539e-01 1.486014e-01 1.642324e-01 1.815606e-01 1.997520e-01 2.196469e-01 2.404152e-01 2.627786e-01 2.859404e-01 3.104467e-01 3.355794e-01 3.616458e-01 3.880670e-01 4.148472e-01 4.416210e-01 4.680304e-01 4.940081e-01 5.187826e-01 5.426766e-01 5.644623e-01 5.849460e-01 6.024036e-01 6.182202e-01 6.301246e-01 6.401834e-01 6.454975e-01 6.489429e-01 6.468570e-01 6.431079e-01 6.330545e-01 6.218298e-01 6.035014e-01 5.848588e-01 5.582638e-01 5.326770e-01 4.982648e-01 4.667438e-01 4.256153e-01 3.898518e-01 3.440616e-01 3.065766e-01 2.595925e-01 2.239710e-01 1.816758e-01 1.533479e-01 1.263911e-01 1.135325e-01 1.133607e-01 1.165840e-01 1.327227e-01 1.394969e-01 1.559847e-01 1.596199e-01 1.715414e-01 1.718182e-01 1.795061e-01 1.786241e-01 1.835437e-01 1.833563e-01 1.862022e-01 1.873770e-01 1.876387e-01 1.899160e-01 1.869739e-01 1.895560e-01 1.833955e-01 1.855148e-01 1.770158e-01 1.787380e-01 1.696427e-01 1.714979e-01 1.630271e-01 1.652386e-01 1.578176e-01 1.602530e-01 1.538191e-01 1.561982e-01 1.505024e-01 1.525511e-01 1.473198e-01 1.488301e-01 1.438271e-01 1.446642e-01 1.397070e-01 1.397980e-01 1.347564e-01 1.340757e-01 1.288652e-01 1.274230e-01 1.219975e-01 
1.050539e-01 9.889618e-02 9.646285e-02 9.032854e-02 8.725200e-02 8.119665e-02 7.757237e-02 7.166846e-02 6.760953e-02 6.194536e-02 5.758585e-02 5.226867e-02 4.777468e-02 4.294379e-02 3.854417e-02 3.440739e-02 3.047120e-02 2.738403e-02 2.456733e-02 2.309659e-02 2.232414e-02 2.289018e-02 2.453874e-02 2.676488e-02 3.023684e-02 3.347228e-02 3.814027e-02 4.209743e-02 4.771917e-02 5.243284e-02 5.904339e-02 6.472823e-02 7.252066e-02 7.948759e-02 8.874159e-02 9.734562e-02 1.083772e-01 1.189743e-01 1.320916e-01 1.449962e-01 1.604544e-01 1.758951e-01 1.938506e-01 2.119228e-01 2.323850e-01 2.530048e-01 2.757905e-01 2.986519e-01 3.233479e-01 3.478938e-01 3.738361e-01 3.992502e-01 4.255298e-01 4.507589e-01 4.762605e-01 5.000708e-01 5.235452e-01 5.446095e-01 5.647731e-01 5.817750e-01 5.974175e-01 6.091538e-01 6.192359e-01 6.246963e-01 6.284220e-01 6.268384e-01 6.237029e-01 6.145754e-01 6.044036e-01 5.875280e-01 5.705227e-01 5.460443e-01 5.228587e-01 4.913818e-01 4.632101e-01 4.259881e-01 3.946481e-01 3.538752e-01 3.218463e-01 2.810806e-01 2.514886e-01 2.162011e-01 1.927271e-01 1.702380e-01 1.561981e-01 1.513931e-01 1.462845e-01 1.541213e-01 1.527700e-01 1.635150e-01 1.618181e-01 1.703572e-01 1.679423e-01 1.737138e-01 1.722119e-01 1.759594e-01 1.758775e-01 1.780328e-01 1.797559e-01 1.790336e-01 1.823158e-01 1.777992e-01 1.817488e-01 1.735158e-01 1.769949e-01 1.661827e-01 1.691516e-01 1.580126e-01 1.611280e-01 1.509664e-01 1.544322e-01 1.455301e-01 1.491377e-01 1.413025e-01 1.447276e-01 1.376565e-01 1.406217e-01 1.340428e-01 1.363574e-01 1.300627e-01 1.316124e-01 1.254557e-01 1.261838e-01 1.200708e-01 1.199620e-01 1.138412e-01 1.129109e-01 1.067657e-01 
1.230780e-01 1.179770e-01 1.153145e-01 1.099304e-01 1.065992e-01 1.009727e-01 9.706348e-02 9.125740e-02 8.687551e-02 8.097279e-02 7.623796e-02 7.034128e-02 6.538857e-02 5.962429e-02 5.461138e-02 4.914529e-02 4.427677e-02 3.935991e-02 3.495640e-02 3.103917e-02 2.769804e-02 2.560363e-02 2.431184e-02 2.494470e-02 2.632074e-02 2.949957e-02 3.298958e-02 3.782159e-02 4.273854e-02 4.874870e-02 5.486375e-02 6.202598e-02 6.942946e-02 7.795010e-02 8.689125e-02 9.707842e-02 1.078693e-01 1.200543e-01 1.330035e-01 1.474809e-01 1.628385e-01 1.798121e-01 1.977188e-01 2.172510e-01 2.376897e-01 2.596535e-01 2.824060e-01 3.064454e-01 3.310580e-01 3.565631e-01 3.823318e-01 4.084394e-01 4.344227e-01 4.600489e-01 4.851160e-01 5.090270e-01 5.319429e-01 5.528577e-01 5.723951e-01 5.891040e-01 6.041623e-01 6.156345e-01 6.253396e-01 6.307915e-01 6.345542e-01 6.334636e-01 6.309930e-01 6.230694e-01 6.143596e-01 5.995057e-01 5.848286e-01 5.631376e-01 5.430702e-01 5.149060e-01 4.903963e-01 4.565889e-01 4.290210e-01 3.911892e-01 3.623805e-01 3.233429e-01 2.954378e-01 2.595817e-01 2.349145e-01 2.080248e-01 1.889426e-01 1.759505e-01 1.638021e-01 1.637834e-01 1.568443e-01 1.627466e-01 1.571448e-01 1.633475e-01 1.574567e-01 1.621970e-01 1.577003e-01 1.615994e-01 1.598192e-01 1.631358e-01 1.641489e-01 1.650172e-01 1.684498e-01 1.656770e-01 1.703430e-01 1.639231e-01 1.680095e-01 1.588516e-01 1.621986e-01 1.532174e-01 1.567321e-01 1.491871e-01 1.530441e-01 1.469313e-01 1.508310e-01 1.457513e-01 1.493354e-01 1.448890e-01 1.478954e-01 1.437729e-01 1.460424e-01 1.420182e-01 1.434653e-01 1.393780e-01 1.399660e-01 1.357028e-01 1.354279e-01 1.309155e-01 1.297984e-01 1.249969e-01 
1.087478e-01 1.032514e-01 1.011458e-01 9.561863e-02 9.280660e-02 8.731365e-02 8.390082e-02 7.852803e-02 7.464571e-02 6.950039e-02 6.531184e-02 6.052601e-02 5.623877e-02 5.197780e-02 4.786696e-02 4.434459e-02 4.078787e-02 3.827669e-02 3.577151e-02 3.455958e-02 3.361548e-02 3.384454e-02 3.469523e-02 3.621739e-02 3.868776e-02 4.121209e-02 4.498002e-02 4.832928e-02 5.320031e-02 5.739896e-02 6.337525e-02 6.861597e-02 7.585914e-02 8.244305e-02 9.121448e-02 9.949241e-02 1.100935e-01 1.204115e-01 1.331281e-01 1.457777e-01 1.608304e-01 1.760029e-01 1.935012e-01 2.112452e-01 2.311464e-01 2.513281e-01 2.733993e-01 2.956688e-01 3.194590e-01 3.432291e-01 3.680570e-01 3.925044e-01 4.174724e-01 4.415686e-01 4.656100e-01 4.881876e-01 5.101482e-01 5.299979e-01 5.487428e-01 5.647265e-01 5.792524e-01 5.904062e-01 5.999338e-01 6.055378e-01 6.095709e-01 6.091742e-01 6.075286e-01 6.009439e-01 5.937654e-01 5.810545e-01 5.688365e-01 5.503022e-01 5.338906e-01 5.100905e-01 4.906339e-01 4.624437e-01 4.412264e-01 4.099874e-01 3.881116e-01 3.558479e-01 3.338819e-01 3.034472e-01 2.813890e-01 2.562016e-01 2.341407e-01 2.171082e-01 1.962834e-01 1.880475e-01 1.705811e-01 1.686922e-01 1.552821e-01 1.564929e-01 1.469680e-01 1.494629e-01 1.452899e-01 1.479340e-01 1.461575e-01 1.495165e-01 1.506479e-01 1.507109e-01 1.550833e-01 1.504090e-01 1.570667e-01 1.481873e-01 1.543948e-01 1.425463e-01 1.477449e-01 1.369001e-01 1.423220e-01 1.335146e-01 1.392058e-01 1.320107e-01 1.375229e-01 1.313360e-01 1.362824e-01 1.306673e-01 1.348242e-01 1.295048e-01 1.327646e-01 1.275672e-01 1.298872e-01 1.247018e-01 1.260749e-01 1.208347e-01 1.212752e-01 1.159466e-01 1.154856e-01 1.100632e-01 
1.281338e-01 1.238134e-01 1.214121e-01 1.167045e-01 1.135213e-01 1.084712e-01 1.045998e-01 9.927939e-02 9.483572e-02 8.934485e-02 8.446908e-02 7.893615e-02 7.379565e-02 6.838260e-02 6.318060e-02 5.809660e-02 5.309357e-02 4.862539e-02 4.418388e-02 4.074594e-02 3.739186e-02 3.554210e-02 3.392581e-02 3.415096e-02 3.467937e-02 3.696372e-02 3.945977e-02 4.336398e-02 4.741528e-02 5.259898e-02 5.799563e-02 6.441900e-02 7.121944e-02 7.907313e-02 8.751163e-02 9.710582e-02 1.074904e-01 1.191613e-01 1.317892e-01 1.458241e-01 1.609156e-01 1.774916e-01 1.951365e-01 2.142696e-01 2.343841e-01 2.558866e-01 2.781775e-01 3.016252e-01 3.255668e-01 3.502846e-01 3.751146e-01 4.001893e-01 4.249353e-01 4.492652e-01 4.728099e-01 4.951959e-01 5.163812e-01 5.356541e-01 5.534143e-01 5.685769e-01 5.820730e-01 5.924213e-01 6.011429e-01 6.063239e-01 6.101268e-01 6.101064e-01 6.091780e-01 6.041298e-01 5.989000e-01 5.890569e-01 5.800949e-01 5.656166e-01 5.535393e-01 5.344503e-01 5.198382e-01 4.961092e-01 4.793850e-01 4.512197e-01 4.324658e-01 4.007757e-01 3.796059e-01 3.464911e-01 3.223257e-01 2.911949e-01 2.642985e-01 2.391611e-01 2.120894e-01 1.957497e-01 1.728589e-01 1.650374e-01 1.473630e-01 1.463100e-01 1.318028e-01 1.329463e-01 1.235042e-01 1.261846e-01 1.220789e-01 1.267984e-01 1.266579e-01 1.282658e-01 1.329565e-01 1.298989e-01 1.383888e-01 1.317632e-01 1.397143e-01 1.295387e-01 1.358412e-01 1.278438e-01 1.343661e-01 1.289501e-01 1.355515e-01 1.317344e-01 1.378512e-01 1.348448e-01 1.401334e-01 1.374794e-01 1.417983e-01 1.392297e-01 1.425368e-01 1.398811e-01 1.421744e-01 1.393098e-01 1.406026e-01 1.374405e-01 1.377539e-01 1.342328e-01 1.335962e-01 1.296802e-01 
1.141412e-01 1.094906e-01 1.078352e-01 1.030692e-01 1.006131e-01 9.580073e-02 9.265519e-02 8.788926e-02 8.419861e-02 7.959601e-02 7.554436e-02 7.124673e-02 6.706664e-02 6.324171e-02 5.922507e-02 5.606592e-02 5.257039e-02 5.028305e-02 4.771163e-02 4.647344e-02 4.519099e-02 4.507776e-02 4.527592e-02 4.621994e-02 4.785699e-02 4.971513e-02 5.262435e-02 5.531142e-02 5.937185e-02 6.294774e-02 6.818243e-02 7.286199e-02 7.944565e-02 8.555726e-02 9.376844e-02 1.016875e-01 1.118370e-01 1.219142e-01 1.342725e-01 1.467714e-01 1.615101e-01 1.765601e-01 1.937075e-01 2.112682e-01 2.306786e-01 2.505121e-01 2.718428e-01 2.934947e-01 3.161949e-01 3.389906e-01 3.623097e-01 3.853749e-01 4.083968e-01 4.307107e-01 4.524229e-01 4.729070e-01 4.923021e-01 5.099365e-01 5.261310e-01 5.400766e-01 5.524199e-01 5.621139e-01 5.702555e-01 5.754480e-01 5.793563e-01 5.800856e-01 5.800405e-01 5.765767e-01 5.731627e-01 5.659359e-01 5.600183e-01 5.494939e-01 5.420899e-01 5.285504e-01 5.204937e-01 5.038059e-01 4.951843e-01 4.747927e-01 4.643802e-01 4.397761e-01 4.249547e-01 3.965390e-01 3.742083e-01 3.439239e-01 3.124700e-01 2.834485e-01 2.452280e-01 2.205220e-01 1.832372e-01 1.653811e-01 1.370906e-01 1.290658e-01 1.106377e-01 1.102767e-01 1.061443e-01 1.069800e-01 1.018222e-01 1.086197e-01 1.066528e-01 1.073493e-01 1.118395e-01 1.056893e-01 1.169421e-01 1.071523e-01 1.189964e-01 1.060730e-01 1.154518e-01 1.066248e-01 1.162222e-01 1.104033e-01 1.195976e-01 1.151293e-01 1.232646e-01 1.193233e-01 1.261997e-01 1.224380e-01 1.280601e-01 1.243154e-01 1.287421e-01 1.249233e-01 1.282162e-01 1.242654e-01 1.264764e-01 1.223572e-01 1.235299e-01 1.192247e-01 1.194014e-01 1.149120e-01 
1.352408e-01 1.318826e-01 1.298383e-01 1.259525e-01 1.229755e-01 1.186060e-01 1.147888e-01 1.100138e-01 1.054814e-01 1.004147e-01 9.532745e-02 9.011978e-02 8.467726e-02 7.951954e-02 7.396708e-02 6.909782e-02 6.374017e-02 5.945911e-02 5.468179e-02 5.136215e-02 4.764307e-02 4.570358e-02 4.354686e-02 4.331116e-02 4.303321e-02 4.452737e-02 4.607860e-02 4.906184e-02 5.218955e-02 5.644459e-02 6.100135e-02 6.653369e-02 7.260365e-02 7.964183e-02 8.749299e-02 9.639301e-02 1.063660e-01 1.174982e-01 1.298959e-01 1.435484e-01 1.585532e-01 1.748618e-01 1.924809e-01 2.113799e-01 2.314107e-01 2.525981e-01 2.746053e-01 2.975219e-01 3.208305e-01 3.446608e-01 3.683724e-01 3.920801e-01 4.151263e-01 4.375360e-01 4.587780e-01 4.787068e-01 4.970785e-01 5.135076e-01 5.281858e-01 5.404424e-01 5.510030e-01 5.589011e-01 5.654139e-01 5.692904e-01 5.723115e-01 5.729097e-01 5.733562e-01 5.715658e-01 5.704884e-01 5.670045e-01 5.653111e-01 5.602755e-01 5.584519e-01 5.511533e-01 5.489900e-01 5.378002e-01 5.341297e-01 5.169157e-01 5.094434e-01 4.845313e-01 4.700125e-01 4.373956e-01 4.126061e-01 3.747301e-01 3.385246e-01 2.998810e-01 2.559368e-01 2.212548e-01 1.799923e-01 1.537413e-01 1.232147e-01 1.165753e-01 9.253830e-02 9.050823e-02 7.462570e-02 7.641737e-02 6.941439e-02 7.703664e-02 7.186440e-02 7.320821e-02 7.748758e-02 7.164500e-02 8.612451e-02 7.973525e-02 9.600769e-02 8.598781e-02 9.780732e-02 9.395746e-02 1.057937e-01 1.045595e-01 1.151137e-01 1.145481e-01 1.233800e-01 1.229117e-01 1.301296e-01 1.295734e-01 1.353582e-01 1.346097e-01 1.391035e-01 1.380764e-01 1.413750e-01 1.399909e-01 1.421539e-01 1.403430e-01 1.414075e-01 1.391126e-01 1.391062e-01 1.362877e-01 
1.214968e-01 1.178198e-01 1.167329e-01 1.128271e-01 1.108134e-01 1.067439e-01 1.039122e-01 9.977114e-02 9.627144e-02 9.217731e-02 8.820669e-02 8.430275e-02 8.010995e-02 7.656057e-02 7.244771e-02 6.943053e-02 6.574554e-02 6.343436e-02 6.054113e-02 5.907411e-02 5.728748e-02 5.672720e-02 5.622926e-02 5.654721e-02 5.735036e-02 5.847238e-02 6.048422e-02 6.238491e-02 6.553843e-02 6.832697e-02 7.268870e-02 7.664131e-02 8.244404e-02 8.797005e-02 9.556494e-02 1.031180e-01 1.128738e-01 1.228436e-01 1.350392e-01 1.476644e-01 1.624115e-01 1.777295e-01 1.949315e-01 2.127540e-01 2.320876e-01 2.519886e-01 2.729011e-01 2.942168e-01 3.159404e-01 3.377911e-01 3.593850e-01 3.807339e-01 4.011652e-01 4.209215e-01 4.391889e-01 4.563540e-01 4.716447e-01 4.854781e-01 4.973202e-01 5.074808e-01 5.158344e-01 5.224396e-01 5.276782e-01 5.312421e-01 5.340444e-01 5.353249e-01 5.365794e-01 5.364370e-01 5.372271e-01 5.365219e-01 5.381006e-01 5.374361e-01 5.409389e-01 5.400665e-01 5.457860e-01 5.429178e-01 5.493020e-01 5.410730e-01 5.440726e-01 5.267801e-01 5.202483e-01 4.920399e-01 4.694719e-01 4.320844e-01 3.895537e-01 3.478317e-01 2.875407e-01 2.456587e-01 1.813570e-01 1.424949e-01 9.800535e-02 8.130165e-02 5.614618e-02 5.625535e-02 6.116419e-02 5.976596e-02 4.320111e-02 5.626985e-02 4.602575e-02 4.462712e-02 4.411252e-02 3.341644e-02 4.853308e-02 3.512330e-02 6.128099e-02 5.360722e-02 7.195572e-02 7.040242e-02 8.728917e-02 8.631924e-02 9.990284e-02 9.853685e-02 1.094001e-01 1.077376e-01 1.165102e-01 1.146256e-01 1.217119e-01 1.196155e-01 1.252663e-01 1.229436e-01 1.273145e-01 1.247439e-01 1.279293e-01 1.250897e-01 1.271465e-01 1.240233e-01 1.249903e-01 1.215819e-01 
1.447530e-01 1.424951e-01 1.409114e-01 1.379527e-01 1.352479e-01 1.316240e-01 1.278826e-01 1.236720e-01 1.190237e-01 1.143503e-01 1.089742e-01 1.040082e-01 9.813544e-02 9.309303e-02 8.701033e-02 8.215510e-02 7.620965e-02 7.185332e-02 6.645719e-02 6.295203e-02 5.856887e-02 5.626735e-02 5.334126e-02 5.249444e-02 5.129996e-02 5.194104e-02 5.247214e-02 5.444492e-02 5.652748e-02 5.969659e-02 6.324530e-02 6.768970e-02 7.286331e-02 7.891060e-02 8.608251e-02 9.420505e-02 1.038159e-01 1.144708e-01 1.268650e-01 1.403583e-01 1.556747e-01 1.720808e-01 1.902022e-01 2.093246e-01 2.298583e-01 2.512054e-01 2.734763e-01 2.962509e-01 3.193103e-01 3.424271e-01 3.650967e-01 3.872513e-01 4.082223e-01 4.280312e-01 4.460332e-01 4.622479e-01 4.762801e-01 4.880511e-01 4.976339e-01 5.047698e-01 5.101401e-01 5.132801e-01 5.154526e-01 5.160539e-01 5.167034e-01 5.167537e-01 5.179066e-01 5.193633e-01 5.228836e-01 5.269901e-01 5.340199e-01 5.406616e-01 5.511952e-01 5.584002e-01 5.710017e-01 5.748269e-01 5.863803e-01 5.816053e-01 5.871837e-01 5.690165e-01 5.621917e-01 5.284609e-01 5.027865e-01 4.555779e-01 4.080172e-01 3.534229e-01 2.883497e-01 2.315437e-01 1.680650e-01 1.096783e-01 7.206520e-02 7.480930e-02 5.599997e-02 5.068250e-02 1.138802e-02 2.900105e-02 1.328121e-02 2.221746e-02 1.060967e-02 2.004542e-02 1.677256e-02 2.476124e-02 1.449643e-02 2.744851e-02 1.840135e-02 2.797216e-02 5.291701e-02 6.006212e-02 7.974493e-02 8.325148e-02 9.752954e-02 9.975846e-02 1.108044e-01 1.125507e-01 1.213855e-01 1.228117e-01 1.299332e-01 1.310271e-01 1.367039e-01 1.374084e-01 1.417880e-01 1.420322e-01 1.451877e-01 1.448969e-01 1.468563e-01 1.459596e-01 1.467292e-01 1.451692e-01 
1.311990e-01 1.285726e-01 1.281703e-01 1.251804e-01 1.236946e-01 1.203934e-01 1.179202e-01 1.143915e-01 1.110785e-01 1.074367e-01 1.034880e-01 9.987459e-02 9.555216e-02 9.212923e-02 8.774815e-02 8.468726e-02 8.060080e-02 7.806464e-02 7.463068e-02 7.274658e-02 7.027054e-02 6.910236e-02 6.777124e-02 6.731107e-02 6.716288e-02 6.736852e-02 6.834206e-02 6.922264e-02 7.128035e-02 7.299734e-02 7.625834e-02 7.919054e-02 8.399789e-02 8.871778e-02 9.558497e-02 1.027229e-01 1.121683e-01 1.222224e-01 1.345846e-01 1.477830e-01 1.631118e-01 1.793660e-01 1.973907e-01 2.162956e-01 2.364270e-01 2.572657e-01 2.786093e-01 3.003629e-01 3.217545e-01 3.431462e-01 3.632334e-01 3.828375e-01 4.002360e-01 4.166759e-01 4.302122e-01 4.424424e-01 4.514632e-01 4.590834e-01 4.637422e-01 4.672280e-01 4.685834e-01 4.692793e-01 4.690479e-01 4.688244e-01 4.688660e-01 4.695694e-01 4.715064e-01 4.746103e-01 4.798653e-01 4.865125e-01 4.965149e-01 5.073384e-01 5.232443e-01 5.373223e-01 5.588967e-01 5.723381e-01 5.963773e-01 6.021207e-01 6.215789e-01 6.116563e-01 6.163145e-01 5.859558e-01 5.645796e-01 5.160299e-01 4.604562e-01 4.040612e-01 3.127542e-01 2.568517e-01 1.443874e-01 7.496180e-02 2.353179e-02 1.786679e-02 3.920562e-02 7.184172e-02 2.693670e-02 2.872315e-02 2.132396e-02 2.682020e-02 2.022588e-02 2.512848e-02 2.017670e-02 2.319802e-02 1.914884e-02 2.536738e-02 2.655339e-02 2.813988e-02 5.294577e-02 5.363054e-02 7.320578e-02 7.287350e-02 8.805399e-02 8.768072e-02 9.988653e-02 9.953698e-02 1.095360e-01 1.090900e-01 1.173307e-01 1.166964e-01 1.234598e-01 1.225798e-01 1.280357e-01 1.268667e-01 1.311055e-01 1.296089e-01 1.326692e-01 1.308116e-01 1.327052e-01 1.304646e-01 
1.571461e-01 1.560917e-01 1.550823e-01 1.531269e-01 1.507697e-01 1.479302e-01 1.442917e-01 1.406397e-01 1.358488e-01 1.315138e-01 1.257657e-01 1.209349e-01 1.144932e-01 1.094078e-01 1.026026e-01 9.755284e-02 9.077854e-02 8.609454e-02 7.980069e-02 7.583310e-02 7.049629e-02 6.757021e-02 6.361908e-02 6.195000e-02 5.963999e-02 5.925207e-02 5.858182e-02 5.934156e-02 6.015682e-02 6.196891e-02 6.422810e-02 6.726075e-02 7.124789e-02 7.601291e-02 8.232453e-02 8.953691e-02 9.884009e-02 1.091398e-01 1.218836e-01 1.356162e-01 1.518843e-01 1.690292e-01 1.885246e-01 2.086924e-01 2.307513e-01 2.531756e-01 2.767692e-01 3.002893e-01 3.240323e-01 3.471082e-01 3.693177e-01 3.901281e-01 4.089800e-01 4.256512e-01 4.394712e-01 4.504512e-01 4.581366e-01 4.626665e-01 4.641506e-01 4.627104e-01 4.592851e-01 4.538529e-01 4.481608e-01 4.421237e-01 4.377792e-01 4.352807e-01 4.361283e-01 4.407233e-01 4.495419e-01 4.627490e-01 4.802175e-01 5.008850e-01 5.256921e-01 5.499893e-01 5.792667e-01 6.005730e-01 6.294856e-01 6.389077e-01 6.599979e-01 6.488475e-01 6.518464e-01 6.151186e-01 5.882460e-01 5.272505e-01 4.637665e-01 3.881699e-01 2.926145e-01 2.108291e-01 1.144454e-01 2.652550e-02 9.339614e-02 7.696803e-02 8.225861e-02 1.185349e-01 7.120399e-02 2.051155e-02 2.878275e-02 1.329682e-02 1.918859e-02 3.747310e-02 4.289366e-02 4.928408e-02 5.496187e-02 6.185274e-02 6.115374e-02 5.735996e-02 6.693036e-02 6.174757e-02 7.596701e-02 7.596459e-02 8.937044e-02 9.157956e-02 1.030978e-01 1.060051e-01 1.157096e-01 1.186870e-01 1.268159e-01 1.295849e-01 1.363309e-01 1.387357e-01 1.442088e-01 1.461289e-01 1.503653e-01 1.516875e-01 1.546717e-01 1.552878e-01 1.569782e-01 1.567935e-01 
1.437630e-01 1.422237e-01 1.426215e-01 1.405740e-01 1.397041e-01 1.371771e-01 1.351106e-01 1.321712e-01 1.290445e-01 1.257972e-01 1.218163e-01 1.183984e-01 1.138375e-01 1.104100e-01 1.056023e-01 1.023364e-01 9.765358e-02 9.471141e-02 9.052638e-02 8.803532e-02 8.466627e-02 8.269383e-02 8.034137e-02 7.888635e-02 7.759941e-02 7.662360e-02 7.633920e-02 7.585476e-02 7.652791e-02 7.673100e-02 7.851930e-02 7.992399e-02 8.333589e-02 8.680211e-02 9.266351e-02 9.918638e-02 1.083418e-01 1.186633e-01 1.316054e-01 1.459608e-01 1.626719e-01 1.807939e-01 2.007740e-01 2.219687e-01 2.442806e-01 2.674476e-01 2.907279e-01 3.143467e-01 3.368272e-01 3.589822e-01 3.785839e-01 3.971034e-01 4.116668e-01 4.244422e-01 4.321524e-01 4.376696e-01 4.376917e-01 4.357152e-01 4.289162e-01 4.210982e-01 4.104485e-01 4.004272e-01 3.904297e-01 3.828972e-01 3.778357e-01 3.766101e-01 3.789530e-01 3.856843e-01 3.962292e-01 4.112966e-01 4.306267e-01 4.542270e-01 4.833176e-01 5.142048e-01 5.530061e-01 5.854583e-01 6.298589e-01 6.521475e-01 6.921787e-01 6.899287e-01 7.107911e-01 6.739744e-01 6.574061e-01 5.868520e-01 5.169115e-01 4.340213e-01 2.960235e-01 2.484165e-01 4.259233e-02 1.176747e-01 3.803244e-02 3.273925e-02 8.336262e-02 1.013024e-01 1.094990e-01 1.065462e-01 1.001995e-01 1.040606e-01 1.041677e-01 9.015239e-02 1.039555e-01 7.994201e-02 1.078451e-01 7.532977e-02 9.404600e-02 6.496231e-02 7.541638e-02 6.259135e-02 7.663671e-02 7.179273e-02 8.550578e-02 8.418401e-02 9.631805e-02 9.635578e-02 1.068140e-01 1.072855e-01 1.162547e-01 1.167754e-01 1.244408e-01 1.248316e-01 1.313058e-01 1.314576e-01 1.367787e-01 1.366045e-01 1.407568e-01 1.401808e-01 1.431204e-01 1.420818e-01 
1.730083e-01 1.732389e-01 1.729295e-01 1.720380e-01 1.701145e-01 1.680858e-01 1.645842e-01 1.614739e-01 1.565142e-01 1.524522e-01 1.462439e-01 1.414327e-01 1.342734e-01 1.289811e-01 1.212501e-01 1.157980e-01 1.079455e-01 1.026911e-01 9.521857e-02 9.052600e-02 8.394559e-02 8.013465e-02 7.488761e-02 7.215405e-02 6.848816e-02 6.683152e-02 6.471880e-02 6.397471e-02 6.321302e-02 6.326163e-02 6.379276e-02 6.487366e-02 6.714216e-02 7.007174e-02 7.510779e-02 8.110404e-02 9.007042e-02 1.001500e-01 1.136990e-01 1.282438e-01 1.463383e-01 1.651408e-01 1.872133e-01 2.096166e-01 2.346621e-01 2.595630e-01 2.861134e-01 3.118866e-01 3.379639e-01 3.624126e-01 3.855515e-01 4.059877e-01 4.234199e-01 4.369827e-01 4.460857e-01 4.503756e-01 4.494399e-01 4.434170e-01 4.326165e-01 4.175053e-01 3.996654e-01 3.795231e-01 3.601772e-01 3.419514e-01 3.286170e-01 3.210382e-01 3.214228e-01 3.307380e-01 3.478757e-01 3.734286e-01 4.041231e-01 4.409968e-01 4.810153e-01 5.237065e-01 5.701104e-01 6.105319e-01 6.583759e-01 6.834419e-01 7.232421e-01 7.190066e-01 7.360559e-01 6.941850e-01 6.663038e-01 5.847367e-01 4.951505e-01 3.859123e-01 2.245341e-01 1.049921e-01 1.168281e-01 3.806241e-02 9.992659e-02 4.736442e-02 1.210149e-01 1.819787e-01 1.259961e-01 4.754711e-02 1.023911e-01 4.488515e-02 7.693919e-02 2.608846e-02 6.466835e-02 1.320954e-02 5.738974e-02 1.182247e-02 6.081252e-02 3.565711e-02 6.096708e-02 5.425787e-02 7.173618e-02 7.155230e-02 8.545299e-02 8.811174e-02 9.987471e-02 1.037273e-01 1.138937e-01 1.181380e-01 1.269850e-01 1.312242e-01 1.388991e-01 1.428970e-01 1.494452e-01 1.530162e-01 1.584020e-01 1.613717e-01 1.655036e-01 1.677034e-01 1.704625e-01 1.717392e-01 
1.598122e-01 1.593692e-01 1.606845e-01 1.595897e-01 1.594302e-01 1.576769e-01 1.560741e-01 1.537034e-01 1.507717e-01 1.478714e-01 1.438131e-01 1.405116e-01 1.356130e-01 1.320691e-01 1.266868e-01 1.230738e-01 1.176090e-01 1.140931e-01 1.089502e-01 1.056633e-01 1.011904e-01 9.820284e-02 9.462348e-02 9.192905e-02 8.929565e-02 8.683256e-02 8.504775e-02 8.278215e-02 8.172979e-02 7.982517e-02 7.962379e-02 7.869789e-02 8.002566e-02 8.137376e-02 8.560516e-02 9.096941e-02 9.965337e-02 1.103189e-01 1.242696e-01 1.404550e-01 1.595177e-01 1.806358e-01 2.039890e-01 2.289785e-01 2.552848e-01 2.826256e-01 3.099857e-01 3.375761e-01 3.634576e-01 3.885305e-01 4.097953e-01 4.290054e-01 4.421472e-01 4.519689e-01 4.537053e-01 4.512793e-01 4.396485e-01 4.241028e-01 4.000743e-01 3.740736e-01 3.431907e-01 3.141105e-01 2.867118e-01 2.660846e-01 2.534242e-01 2.508918e-01 2.569256e-01 2.715842e-01 2.914964e-01 3.176627e-01 3.473620e-01 3.835582e-01 4.242252e-01 4.714327e-01 5.265042e-01 5.800052e-01 6.467086e-01 6.889765e-01 7.538776e-01 7.600587e-01 8.045557e-01 7.562753e-01 7.535810e-01 6.414302e-01 5.714040e-01 4.199698e-01 2.395079e-01 1.269278e-01 8.484848e-02 9.980115e-02 4.111348e-02 2.306313e-01 2.091783e-01 4.868832e-02 2.230157e-02 4.273732e-02 2.279662e-02 4.083054e-02 1.045014e-02 5.254198e-02 1.693036e-02 5.662180e-02 2.582656e-02 5.507913e-02 6.384603e-02 2.437248e-02 5.961280e-02 5.208336e-02 7.375154e-02 7.124365e-02 8.639329e-02 8.585278e-02 9.804598e-02 9.858994e-02 1.090973e-01 1.102168e-01 1.195319e-01 1.209143e-01 1.292372e-01 1.306732e-01 1.380541e-01 1.393785e-01 1.457732e-01 1.468379e-01 1.521445e-01 1.528142e-01 1.569046e-01 1.570623e-01 