# vtk DataFile Version 2.0
Comment goes here
ASCII

DATASET STRUCTURED_POINTS
DIMENSIONS    128   128   1

ORIGIN    0.000   0.000   0.000
SPACING   0.0156250.015625   1.000

POINT_DATA   16384
SCALARS uMag double
LOOKUP_TABLE default

4.192646e-02 4.444964e-02 4.512156e-02 4.698336e-02 4.724678e-02 4.843677e-02 4.830497e-02 4.882171e-02 4.831375e-02 4.816634e-02 4.730776e-02 4.651737e-02 4.534087e-02 4.394197e-02 4.248792e-02 4.052912e-02 3.884597e-02 3.639061e-02 3.453530e-02 3.166171e-02 2.970005e-02 2.650171e-02 2.450896e-02 2.109450e-02 1.915594e-02 1.564904e-02 1.386055e-02 1.039950e-02 8.867871e-03 5.604494e-03 4.446921e-03 1.544527e-03 8.868644e-04 1.483557e-03 1.510515e-03 3.176335e-03 2.443184e-03 3.239261e-03 1.627642e-03 1.408798e-03 1.175471e-03 2.518365e-03 6.128448e-03 8.649398e-03 1.327868e-02 1.695587e-02 2.251815e-02 2.723437e-02 3.354704e-02 3.907477e-02 4.584858e-02 5.184437e-02 5.868461e-02 6.469719e-02 7.112006e-02 7.661538e-02 8.208148e-02 8.648504e-02 9.044827e-02 9.320110e-02 9.516742e-02 9.578830e-02 9.537547e-02 9.351985e-02 9.050924e-02 8.601656e-02 8.039068e-02 7.331582e-02 6.528017e-02 5.590926e-02 4.590025e-02 3.475261e-02 2.343155e-02 1.124491e-02 5.329047e-04 1.284277e-02 2.407978e-02 3.552097e-02 4.521949e-02 5.485347e-02 6.218013e-02 6.932163e-02 7.380823e-02 7.818945e-02 7.987260e-02 8.170839e-02 8.113539e-02 8.104306e-02 7.912640e-02 7.793590e-02 7.570504e-02 7.422618e-02 7.253162e-02 7.130702e-02 7.054587e-02 6.967379e-02 6.969739e-02 6.884594e-02 6.909257e-02 6.767943e-02 6.743507e-02 6.490007e-02 6.357384e-02 5.962652e-02 5.704511e-02 5.183553e-02 4.836803e-02 4.235756e-02 3.848706e-02 3.210323e-02 2.815447e-02 2.167929e-02 1.782416e-02 1.143923e-02 7.775325e-03 1.614659e-03 1.787885e-03 7.615618e-03 1.070064e-02 1.610710e-02 1.883161e-02 2.374719e-02 2.608142e-02 3.045239e-02 3.237819e-02 3.616309e-02 3.767140e-02 4.083792e-02 
3.753468e-02 3.977295e-02 4.053378e-02 4.220013e-02 4.253834e-02 4.362477e-02 4.355161e-02 4.405797e-02 4.359122e-02 4.352632e-02 4.269083e-02 4.207378e-02 4.090201e-02 3.976341e-02 3.829589e-02 3.667880e-02 3.496445e-02 3.292516e-02 3.102161e-02 2.863032e-02 2.660422e-02 2.394564e-02 2.187322e-02 1.904742e-02 1.701508e-02 1.413896e-02 1.224425e-02 9.455630e-03 7.809223e-03 5.285866e-03 4.022441e-03 2.148486e-03 1.554436e-03 1.825488e-03 1.809453e-03 2.695268e-03 2.127327e-03 2.368931e-03 1.311737e-03 1.416366e-03 2.966721e-03 4.789883e-03 8.093694e-03 1.110557e-02 1.549521e-02 1.962670e-02 2.496457e-02 3.009167e-02 3.618685e-02 4.208031e-02 4.864405e-02 5.496045e-02 6.160191e-02 6.789130e-02 7.413263e-02 7.986382e-02 8.517321e-02 8.977658e-02 9.361713e-02 9.654127e-02 9.842972e-02 9.920408e-02 9.877051e-02 9.706424e-02 9.410371e-02 8.977276e-02 8.428376e-02 7.740445e-02 6.961709e-02 6.051656e-02 5.093317e-02 4.027361e-02 2.987313e-02 1.938910e-02 1.260373e-02 1.480788e-02 2.308222e-02 3.340425e-02 4.246275e-02 5.186030e-02 5.893959e-02 6.607328e-02 7.049059e-02 7.495115e-02 7.667752e-02 7.862809e-02 7.815554e-02 7.820358e-02 7.637872e-02 7.536888e-02 7.316403e-02 7.192405e-02 7.017121e-02 6.924915e-02 6.836074e-02 6.785526e-02 6.771927e-02 6.729064e-02 6.737321e-02 6.645186e-02 6.605321e-02 6.408984e-02 6.261008e-02 5.930186e-02 5.655045e-02 5.202427e-02 4.839709e-02 4.311079e-02 3.910358e-02 3.347856e-02 2.941627e-02 2.374175e-02 1.981509e-02 1.434985e-02 1.078456e-02 6.300615e-03 4.647861e-03 6.463275e-03 9.003507e-03 1.338596e-02 1.610586e-02 2.034268e-02 2.275903e-02 2.657993e-02 2.860959e-02 3.193686e-02 3.355137e-02 3.634617e-02 
4.261469e-02 4.510345e-02 4.573220e-02 4.757392e-02 4.780756e-02 4.898577e-02 4.883474e-02 4.934409e-02 4.882568e-02 4.867272e-02 4.781135e-02 4.701568e-02 4.584325e-02 4.443853e-02 4.299477e-02 4.102952e-02 3.936221e-02 3.690036e-02 3.506554e-02 3.218694e-02 3.024909e-02 2.705012e-02 2.508251e-02 2.167736e-02 1.976227e-02 1.628619e-02 1.451495e-02 1.113463e-02 9.607029e-03 6.564779e-03 5.390060e-03 3.273499e-03 2.599717e-03 2.912487e-03 2.579931e-03 4.028195e-03 3.338720e-03 4.362100e-03 3.424530e-03 4.011537e-03 4.253493e-03 5.456675e-03 8.132968e-03 1.057359e-02 1.487845e-02 1.850977e-02 2.394312e-02 2.862978e-02 3.489079e-02 4.040180e-02 4.716027e-02 5.315290e-02 5.999783e-02 6.602297e-02 7.246482e-02 7.799168e-02 8.349173e-02 8.795074e-02 9.196910e-02 9.480918e-02 9.686412e-02 9.761688e-02 9.734631e-02 9.568823e-02 9.290546e-02 8.871222e-02 8.345416e-02 7.685128e-02 6.943428e-02 6.087844e-02 5.203346e-02 4.259375e-02 3.407023e-02 2.690996e-02 2.416163e-02 2.671707e-02 3.308878e-02 4.154382e-02 4.959044e-02 5.799479e-02 6.450115e-02 7.097225e-02 7.491641e-02 7.885007e-02 8.008776e-02 8.156623e-02 8.057328e-02 8.015031e-02 7.782178e-02 7.630782e-02 7.371129e-02 7.196111e-02 7.003722e-02 6.867465e-02 6.787491e-02 6.701928e-02 6.716204e-02 6.643324e-02 6.688777e-02 6.564332e-02 6.565821e-02 6.332444e-02 6.226027e-02 5.853169e-02 5.615340e-02 5.116477e-02 4.792569e-02 4.218424e-02 3.859896e-02 3.256369e-02 2.895563e-02 2.300322e-02 1.962345e-02 1.433883e-02 1.173302e-02 9.133280e-03 9.104951e-03 1.179871e-02 1.387868e-02 1.838455e-02 2.071467e-02 2.526626e-02 2.739090e-02 3.157976e-02 3.337526e-02 3.705903e-02 3.847962e-02 4.158745e-02 
3.890372e-02 4.105883e-02 4.171174e-02 4.332970e-02 4.359639e-02 4.465583e-02 4.454087e-02 4.503310e-02 4.455027e-02 4.447858e-02 4.365034e-02 4.303043e-02 4.188774e-02 4.074851e-02 3.933082e-02 3.771517e-02 3.607042e-02 3.403612e-02 3.222079e-02 2.984157e-02 2.792083e-02 2.528814e-02 2.333618e-02 2.056245e-02 1.866305e-02 1.588875e-02 1.413592e-02 1.154632e-02 1.004446e-02 7.910004e-03 6.767233e-03 5.493395e-03 4.755983e-03 4.610266e-03 4.058134e-03 4.528458e-03 3.861898e-03 4.348716e-03 3.931923e-03 4.690637e-03 5.829593e-03 7.625076e-03 1.058006e-02 1.356001e-02 1.785598e-02 2.196363e-02 2.731123e-02 3.242162e-02 3.856772e-02 4.445576e-02 5.108586e-02 5.741372e-02 6.412697e-02 7.045099e-02 7.676888e-02 8.256558e-02 8.796378e-02 9.267453e-02 9.663272e-02 9.972328e-02 1.017861e-01 1.028132e-01 1.026531e-01 1.013282e-01 9.880205e-02 9.504729e-02 9.024571e-02 8.424763e-02 7.755619e-02 6.985657e-02 6.209279e-02 5.384411e-02 4.666872e-02 4.038019e-02 3.708964e-02 3.682412e-02 3.983076e-02 4.530361e-02 5.122443e-02 5.811144e-02 6.348249e-02 6.921448e-02 7.253119e-02 7.608643e-02 7.696811e-02 7.821459e-02 7.698963e-02 7.638131e-02 7.382194e-02 7.215656e-02 6.926426e-02 6.746401e-02 6.524243e-02 6.401907e-02 6.300520e-02 6.251394e-02 6.256902e-02 6.234987e-02 6.281898e-02 6.221234e-02 6.234414e-02 6.080601e-02 5.990175e-02 5.709273e-02 5.478434e-02 5.074165e-02 4.761847e-02 4.288803e-02 3.949374e-02 3.453574e-02 3.116308e-02 2.636255e-02 2.326485e-02 1.917894e-02 1.682556e-02 1.456187e-02 1.381881e-02 1.456898e-02 1.562125e-02 1.846453e-02 2.028101e-02 2.373914e-02 2.563228e-02 2.903800e-02 3.073565e-02 3.382596e-02 3.521626e-02 3.787102e-02 
4.465499e-02 4.704990e-02 4.755581e-02 4.934250e-02 4.949058e-02 5.063652e-02 5.042994e-02 5.091899e-02 5.037043e-02 5.020195e-02 4.933281e-02 4.852192e-02 4.736203e-02 4.594018e-02 4.452751e-02 4.254308e-02 4.092345e-02 3.844239e-02 3.666918e-02 3.377596e-02 3.190978e-02 2.870929e-02 2.681764e-02 2.343943e-02 2.159604e-02 1.820436e-02 1.648791e-02 1.330783e-02 1.179927e-02 9.186731e-03 7.964809e-03 6.532340e-03 5.650481e-03 5.927982e-03 5.280049e-03 6.592786e-03 5.986481e-03 7.396325e-03 7.034497e-03 8.370132e-03 8.974004e-03 1.066367e-02 1.290435e-02 1.545600e-02 1.933805e-02 2.295612e-02 2.815281e-02 3.279785e-02 3.895118e-02 4.442722e-02 5.115355e-02 5.713587e-02 6.399442e-02 7.004738e-02 7.653777e-02 8.214434e-02 8.773281e-02 9.234102e-02 9.650832e-02 9.959231e-02 1.018945e-01 1.030233e-01 1.031558e-01 1.020618e-01 9.992015e-02 9.656238e-02 9.230135e-02 8.693588e-02 8.104893e-02 7.434272e-02 6.781634e-02 6.108826e-02 5.568450e-02 5.122736e-02 4.940430e-02 4.959317e-02 5.224009e-02 5.648080e-02 6.128799e-02 6.676999e-02 7.109206e-02 7.565765e-02 7.800910e-02 8.060968e-02 8.052224e-02 8.095204e-02 7.872269e-02 7.734642e-02 7.379575e-02 7.131483e-02 6.759076e-02 6.497225e-02 6.232386e-02 6.049868e-02 5.957338e-02 5.874109e-02 5.922930e-02 5.884195e-02 5.987630e-02 5.908766e-02 5.987826e-02 5.815654e-02 5.796170e-02 5.500202e-02 5.326272e-02 4.900849e-02 4.650735e-02 4.160964e-02 3.890222e-02 3.387563e-02 3.120770e-02 2.655145e-02 2.420219e-02 2.071287e-02 1.920460e-02 1.806233e-02 1.796630e-02 1.960527e-02 2.070614e-02 2.399890e-02 2.559173e-02 2.940273e-02 3.103470e-02 3.478734e-02 3.624476e-02 3.966733e-02 4.084886e-02 4.379935e-02 
4.158310e-02 4.359270e-02 4.404745e-02 4.557935e-02 4.571260e-02 4.672398e-02 4.653058e-02 4.699798e-02 4.648560e-02 4.640235e-02 4.558953e-02 4.496506e-02 4.388007e-02 4.274012e-02 4.142009e-02 3.980729e-02 3.829745e-02 3.627224e-02 3.462533e-02 3.226743e-02 3.054301e-02 2.795406e-02 2.621768e-02 2.352563e-02 2.184725e-02 1.921367e-02 1.766385e-02 1.529343e-02 1.393378e-02 1.207494e-02 1.093644e-02 9.828578e-03 8.878843e-03 8.593118e-03 7.749830e-03 8.086049e-03 7.389417e-03 8.119470e-03 8.007071e-03 9.222636e-03 1.042362e-02 1.245683e-02 1.527747e-02 1.833921e-02 2.259525e-02 2.672261e-02 3.212893e-02 3.723606e-02 4.349302e-02 4.937734e-02 5.613669e-02 6.247794e-02 6.932210e-02 7.569344e-02 8.214315e-02 8.804042e-02 9.358734e-02 9.847757e-02 1.026366e-01 1.060226e-01 1.083960e-01 1.098881e-01 1.102301e-01 1.096147e-01 1.078868e-01 1.051824e-01 1.015965e-01 9.709935e-02 9.215792e-02 8.649742e-02 8.104783e-02 7.526997e-02 7.055127e-02 6.614810e-02 6.359365e-02 6.204256e-02 6.237117e-02 6.390446e-02 6.620046e-02 6.942564e-02 7.188127e-02 7.500350e-02 7.617146e-02 7.793500e-02 7.716127e-02 7.705605e-02 7.441915e-02 7.257937e-02 6.864649e-02 6.566927e-02 6.137615e-02 5.832270e-02 5.507652e-02 5.310176e-02 5.176497e-02 5.124702e-02 5.162943e-02 5.173379e-02 5.285957e-02 5.274679e-02 5.393389e-02 5.326562e-02 5.373066e-02 5.221448e-02 5.085249e-02 4.791269e-02 4.590698e-02 4.233670e-02 4.019993e-02 3.649141e-02 3.433664e-02 3.089520e-02 2.891397e-02 2.628195e-02 2.483012e-02 2.362807e-02 2.306329e-02 2.359518e-02 2.395693e-02 2.586924e-02 2.683637e-02 2.946976e-02 3.067071e-02 3.350404e-02 3.468360e-02 3.740104e-02 3.841001e-02 4.082851e-02 
4.798742e-02 5.025234e-02 5.057382e-02 5.228392e-02 5.230130e-02 5.340261e-02 5.311038e-02 5.357129e-02 5.297632e-02 5.278548e-02 5.190535e-02 5.107119e-02 4.993299e-02 4.848389e-02 4.712310e-02 4.510777e-02 4.356729e-02 4.105551e-02 3.938450e-02 3.646877e-02 3.472158e-02 3.152041e-02 2.975535e-02 2.642036e-02 2.469814e-02 2.142842e-02 1.980977e-02 1.687928e-02 1.542159e-02 1.321623e-02 1.196896e-02 1.095203e-02 9.946391e-03 1.032744e-02 9.561103e-03 1.093899e-02 1.044385e-02 1.223060e-02 1.223053e-02 1.418817e-02 1.511514e-02 1.739089e-02 1.965623e-02 2.256031e-02 2.629837e-02 3.006231e-02 3.512511e-02 3.979970e-02 4.588140e-02 5.133955e-02 5.804738e-02 6.401051e-02 7.088650e-02 7.695418e-02 8.349364e-02 8.918258e-02 9.486874e-02 9.966611e-02 1.040221e-01 1.074517e-01 1.101025e-01 1.117967e-01 1.125303e-01 1.122980e-01 1.111171e-01 1.090021e-01 1.061654e-01 1.024932e-01 9.854826e-02 9.396468e-02 8.976171e-02 8.523851e-02 8.185131e-02 7.854293e-02 7.692413e-02 7.568726e-02 7.603229e-02 7.680235e-02 7.825001e-02 8.004011e-02 8.121237e-02 8.276914e-02 8.250655e-02 8.288017e-02 8.061691e-02 7.939521e-02 7.522685e-02 7.246217e-02 6.699504e-02 6.297768e-02 5.729204e-02 5.298313e-02 4.897954e-02 4.614067e-02 4.494731e-02 4.401533e-02 4.501113e-02 4.508097e-02 4.682740e-02 4.652613e-02 4.851286e-02 4.775271e-02 4.936866e-02 4.826290e-02 4.772519e-02 4.493524e-02 4.387036e-02 4.046243e-02 3.928653e-02 3.582926e-02 3.453093e-02 3.150070e-02 3.026173e-02 2.828411e-02 2.746041e-02 2.709204e-02 2.695780e-02 2.827139e-02 2.879699e-02 3.131904e-02 3.224938e-02 3.536913e-02 3.643779e-02 3.969108e-02 4.070840e-02 4.379765e-02 4.464456e-02 4.738258e-02 
4.548337e-02 4.731657e-02 4.751120e-02 4.893713e-02 4.889127e-02 4.984402e-02 4.954462e-02 4.998293e-02 4.943215e-02 4.933651e-02 4.854898e-02 4.792055e-02 4.692114e-02 4.578156e-02 4.460356e-02 4.299527e-02 4.167861e-02 3.966563e-02 3.825504e-02 3.592436e-02 3.446741e-02 3.193115e-02 3.047562e-02 2.787392e-02 2.646401e-02 2.396732e-02 2.263767e-02 2.044380e-02 1.921149e-02 1.752648e-02 1.638544e-02 1.537475e-02 1.430899e-02 1.403181e-02 1.307589e-02 1.347326e-02 1.282688e-02 1.382162e-02 1.392586e-02 1.554999e-02 1.692358e-02 1.931660e-02 2.221831e-02 2.551641e-02 2.987252e-02 3.413112e-02 3.969470e-02 4.486058e-02 5.130868e-02 5.720898e-02 6.415877e-02 7.050115e-02 7.751185e-02 8.389968e-02 9.049047e-02 9.645691e-02 1.021464e-01 1.072080e-01 1.115717e-01 1.152974e-01 1.180330e-01 1.201186e-01 1.211046e-01 1.214367e-01 1.207674e-01 1.194582e-01 1.174431e-01 1.148227e-01 1.119443e-01 1.085102e-01 1.053404e-01 1.016703e-01 9.874789e-02 9.538745e-02 9.306824e-02 9.041526e-02 8.874853e-02 8.697193e-02 8.568615e-02 8.468935e-02 8.329867e-02 8.268508e-02 8.063446e-02 7.972706e-02 7.656990e-02 7.466181e-02 7.027520e-02 6.696348e-02 6.148222e-02 5.668937e-02 5.041228e-02 4.499681e-02 3.995810e-02 3.613010e-02 3.399556e-02 3.321419e-02 3.389364e-02 3.414022e-02 3.571527e-02 3.577912e-02 3.832845e-02 3.880284e-02 4.207473e-02 4.375186e-02 4.404888e-02 4.300496e-02 4.299581e-02 4.120055e-02 4.103146e-02 3.904280e-02 3.846274e-02 3.656411e-02 3.569236e-02 3.429440e-02 3.345977e-02 3.293359e-02 3.242699e-02 3.292637e-02 3.286581e-02 3.426904e-02 3.459194e-02 3.660232e-02 3.715275e-02 3.944871e-02 4.006506e-02 4.238217e-02 4.293644e-02 4.508043e-02 
5.253963e-02 5.466775e-02 5.476671e-02 5.639728e-02 5.625356e-02 5.730998e-02 5.691091e-02 5.734368e-02 5.669116e-02 5.647603e-02 5.558430e-02 5.472177e-02 5.361542e-02 5.213066e-02 5.084268e-02 4.878591e-02 4.735566e-02 4.480303e-02 4.327425e-02 4.032997e-02 3.874872e-02 3.554940e-02 3.396206e-02 3.068489e-02 2.913604e-02 2.601221e-02 2.454255e-02 2.187309e-02 2.051866e-02 1.867035e-02 1.746588e-02 1.678144e-02 1.577122e-02 1.635276e-02 1.560994e-02 1.719618e-02 1.685760e-02 1.904621e-02 1.934993e-02 2.189709e-02 2.315918e-02 2.606459e-02 2.856613e-02 3.198386e-02 3.584293e-02 3.993742e-02 4.506329e-02 4.989969e-02 5.602662e-02 6.152428e-02 6.826405e-02 7.419616e-02 8.108274e-02 8.710257e-02 9.363645e-02 9.932255e-02 1.050245e-01 1.099407e-01 1.144136e-01 1.181772e-01 1.211648e-01 1.235111e-01 1.249398e-01 1.257727e-01 1.257652e-01 1.251839e-01 1.240478e-01 1.223429e-01 1.205287e-01 1.181331e-01 1.161435e-01 1.135190e-01 1.117466e-01 1.092164e-01 1.077507e-01 1.053714e-01 1.039176e-01 1.015351e-01 9.958126e-02 9.706101e-02 9.418968e-02 9.153975e-02 8.755971e-02 8.474379e-02 7.956381e-02 7.635383e-02 6.998464e-02 6.605456e-02 5.863838e-02 5.311497e-02 4.486240e-02 3.744356e-02 3.127054e-02 2.590768e-02 2.386363e-02 2.205177e-02 2.346845e-02 2.393159e-02 2.566784e-02 2.510041e-02 2.805610e-02 2.792944e-02 3.300966e-02 3.687649e-02 3.881793e-02 3.822518e-02 3.963329e-02 3.835153e-02 3.949343e-02 3.810597e-02 3.850650e-02 3.724380e-02 3.707410e-02 3.638555e-02 3.605808e-02 3.629212e-02 3.613139e-02 3.737136e-02 3.750741e-02 3.957812e-02 3.997458e-02 4.256918e-02 4.310987e-02 4.591662e-02 4.647578e-02 4.923661e-02 4.971011e-02 5.222795e-02 
5.051673e-02 5.217465e-02 5.207715e-02 5.339798e-02 5.314608e-02 5.404311e-02 5.362122e-02 5.403491e-02 5.344281e-02 5.333955e-02 5.258940e-02 5.196096e-02 5.107430e-02 4.993786e-02 4.894264e-02 4.734089e-02 4.626857e-02 4.427011e-02 4.315254e-02 4.085245e-02 3.971873e-02 3.723914e-02 3.611212e-02 3.360202e-02 3.249450e-02 3.012677e-02 2.903854e-02 2.700019e-02 2.591888e-02 2.439035e-02 2.330332e-02 2.242720e-02 2.135558e-02 2.120896e-02 2.026977e-02 2.086572e-02 2.033977e-02 2.166712e-02 2.199413e-02 2.406447e-02 2.568554e-02 2.854483e-02 3.169010e-02 3.539078e-02 4.001790e-02 4.457456e-02 5.044552e-02 5.579406e-02 6.255323e-02 6.852606e-02 7.574012e-02 8.206282e-02 8.924940e-02 9.556015e-02 1.022282e-01 1.081191e-01 1.138269e-01 1.189035e-01 1.233267e-01 1.272770e-01 1.302707e-01 1.329303e-01 1.345626e-01 1.359546e-01 1.364881e-01 1.368095e-01 1.366170e-01 1.361504e-01 1.355718e-01 1.345370e-01 1.337202e-01 1.321315e-01 1.309234e-01 1.285353e-01 1.264922e-01 1.229150e-01 1.194846e-01 1.145152e-01 1.094161e-01 1.034892e-01 9.713594e-02 9.144340e-02 8.488905e-02 8.048619e-02 7.448175e-02 7.099878e-02 6.546191e-02 6.156468e-02 5.612182e-02 5.014678e-02 4.298354e-02 3.333448e-02 2.579129e-02 1.617469e-02 1.142194e-02 8.366981e-03 8.924156e-03 8.768628e-03 8.638763e-03 7.482475e-03 1.041652e-02 1.127202e-02 1.960499e-02 3.049117e-02 3.461429e-02 3.499578e-02 3.822181e-02 3.887197e-02 4.165455e-02 4.194364e-02 4.324710e-02 4.303547e-02 4.320470e-02 4.291302e-02 4.252653e-02 4.253821e-02 4.203099e-02 4.256436e-02 4.217830e-02 4.327459e-02 4.308878e-02 4.465019e-02 4.463677e-02 4.649006e-02 4.657128e-02 4.852524e-02 4.861447e-02 5.049370e-02 
5.824849e-02 6.026234e-02 6.012458e-02 6.169378e-02 6.137458e-02 6.240066e-02 6.188371e-02 6.229840e-02 6.158308e-02 6.134821e-02 6.044727e-02 5.955498e-02 5.849186e-02 5.696487e-02 5.577077e-02 5.366287e-02 5.237367e-02 4.977067e-02 4.842393e-02 4.544588e-02 4.407788e-02 4.088339e-02 3.952657e-02 3.631981e-02 3.500084e-02 3.203957e-02 3.077917e-02 2.837522e-02 2.719229e-02 2.568125e-02 2.460572e-02 2.425443e-02 2.335035e-02 2.422370e-02 2.361431e-02 2.553153e-02 2.541213e-02 2.807742e-02 2.870592e-02 3.188915e-02 3.354241e-02 3.716149e-02 4.005683e-02 4.414788e-02 4.836216e-02 5.299333e-02 5.842071e-02 6.360597e-02 6.996444e-02 7.561077e-02 8.248096e-02 8.837751e-02 9.526047e-02 1.011056e-01 1.074973e-01 1.129543e-01 1.184338e-01 1.232014e-01 1.275139e-01 1.313884e-01 1.344931e-01 1.373983e-01 1.394502e-01 1.414255e-01 1.426944e-01 1.438558e-01 1.446279e-01 1.451228e-01 1.456245e-01 1.455661e-01 1.458829e-01 1.452333e-01 1.451790e-01 1.435995e-01 1.425919e-01 1.394100e-01 1.365267e-01 1.310538e-01 1.254982e-01 1.177794e-01 1.097132e-01 1.012124e-01 9.218627e-02 8.514507e-02 7.688462e-02 7.216362e-02 6.486936e-02 6.169967e-02 5.479054e-02 5.062862e-02 4.177569e-02 3.033355e-02 2.434947e-02 1.553795e-02 9.513773e-03 6.407082e-03 6.155927e-03 6.571683e-03 6.726922e-03 1.011462e-02 8.221279e-03 1.072449e-02 4.964226e-03 2.232933e-02 2.971451e-02 2.705532e-02 3.245433e-02 3.459239e-02 3.942609e-02 4.082207e-02 4.321388e-02 4.385416e-02 4.463877e-02 4.511027e-02 4.511713e-02 4.586428e-02 4.563362e-02 4.688800e-02 4.670173e-02 4.849401e-02 4.844727e-02 5.066321e-02 5.073869e-02 5.319082e-02 5.332033e-02 5.580507e-02 5.590951e-02 5.823883e-02 
5.661782e-02 5.812965e-02 5.773442e-02 5.897220e-02 5.850528e-02 5.936478e-02 5.881505e-02 5.921922e-02 5.858901e-02 5.848986e-02 5.779170e-02 5.717136e-02 5.642425e-02 5.529568e-02 5.452103e-02 5.292817e-02 5.214592e-02 5.016341e-02 4.938816e-02 4.712051e-02 4.635808e-02 4.393793e-02 4.318257e-02 4.076729e-02 4.000051e-02 3.776532e-02 3.695837e-02 3.508456e-02 3.420829e-02 3.286583e-02 3.191357e-02 3.124188e-02 3.026999e-02 3.036499e-02 2.954700e-02 3.046233e-02 3.012798e-02 3.188839e-02 3.248795e-02 3.510296e-02 3.706194e-02 4.053091e-02 4.407852e-02 4.838393e-02 5.348480e-02 5.856994e-02 6.496202e-02 7.069978e-02 7.795914e-02 8.413075e-02 9.172806e-02 9.802782e-02 1.053889e-01 1.114612e-01 1.180485e-01 1.235525e-01 1.289669e-01 1.336539e-01 1.377327e-01 1.415103e-01 1.443815e-01 1.473386e-01 1.493885e-01 1.517645e-01 1.535000e-01 1.555826e-01 1.574125e-01 1.593645e-01 1.613819e-01 1.630569e-01 1.649107e-01 1.657510e-01 1.666322e-01 1.656685e-01 1.643788e-01 1.603684e-01 1.555238e-01 1.474339e-01 1.381062e-01 1.262135e-01 1.132386e-01 1.005876e-01 8.780991e-02 7.974108e-02 7.167307e-02 6.940122e-02 6.532921e-02 6.415078e-02 6.326794e-02 5.984106e-02 5.776962e-02 4.175910e-02 3.106132e-02 2.048363e-02 2.253534e-02 1.903833e-02 2.375183e-02 2.909554e-02 3.332758e-02 3.665312e-02 4.009715e-02 4.039964e-02 4.023186e-02 4.253672e-02 2.651922e-02 1.814048e-02 2.976864e-02 3.582746e-02 4.313774e-02 4.633969e-02 4.946287e-02 5.092001e-02 5.180948e-02 5.243114e-02 5.224207e-02 5.264127e-02 5.202700e-02 5.257603e-02 5.188402e-02 5.275970e-02 5.214717e-02 5.337666e-02 5.288446e-02 5.439336e-02 5.399860e-02 5.565673e-02 5.531019e-02 5.696790e-02 
6.507160e-02 6.702156e-02 6.665476e-02 6.820304e-02 6.770954e-02 6.873664e-02 6.810086e-02 6.851941e-02 6.774196e-02 6.749947e-02 6.659467e-02 6.567528e-02 6.466779e-02 6.309343e-02 6.201428e-02 5.984531e-02 5.872771e-02 5.606377e-02 5.493896e-02 5.192059e-02 5.081419e-02 4.762579e-02 4.655502e-02 4.342845e-02 4.240127e-02 3.961621e-02 3.863409e-02 3.650519e-02 3.557297e-02 3.440772e-02 3.355400e-02 3.357395e-02 3.287988e-02 3.413860e-02 3.376221e-02 3.613167e-02 3.630986e-02 3.956383e-02 4.058373e-02 4.451291e-02 4.665428e-02 5.113152e-02 5.459077e-02 5.956266e-02 6.438095e-02 6.981065e-02 7.583053e-02 8.163068e-02 8.849269e-02 9.448130e-02 1.016609e-01 1.075605e-01 1.144471e-01 1.199355e-01 1.259571e-01 1.307654e-01 1.355492e-01 1.395769e-01 1.430984e-01 1.464802e-01 1.491052e-01 1.521518e-01 1.544732e-01 1.574764e-01 1.599896e-01 1.630311e-01 1.658902e-01 1.688198e-01 1.718675e-01 1.743968e-01 1.772847e-01 1.789685e-01 1.810852e-01 1.810802e-01 1.812844e-01 1.780876e-01 1.745378e-01 1.662674e-01 1.570466e-01 1.429450e-01 1.281017e-01 1.112394e-01 9.567638e-02 8.405043e-02 7.582161e-02 7.297442e-02 7.061375e-02 7.067002e-02 6.961506e-02 7.268088e-02 6.447214e-02 5.046019e-02 4.475057e-02 3.608963e-02 3.242880e-02 3.354175e-02 3.686348e-02 3.575155e-02 3.453822e-02 2.702946e-02 2.651165e-02 1.898814e-02 2.036017e-02 1.813474e-02 1.711264e-02 1.915011e-02 3.053413e-02 3.492689e-02 4.302967e-02 4.684748e-02 5.041586e-02 5.258504e-02 5.370412e-02 5.498357e-02 5.497068e-02 5.603100e-02 5.559297e-02 5.683458e-02 5.632690e-02 5.792103e-02 5.749320e-02 5.944262e-02 5.912368e-02 6.132334e-02 6.107908e-02 6.336906e-02 6.314051e-02 6.534468e-02 
6.375070e-02 6.517060e-02 6.449355e-02 6.569144e-02 6.501593e-02 6.587254e-02 6.519954e-02 6.562135e-02 6.496182e-02 6.488663e-02 6.425745e-02 6.365797e-02 6.307714e-02 6.196300e-02 6.144473e-02 5.986279e-02 5.941306e-02 5.744630e-02 5.705917e-02 5.482400e-02 5.447921e-02 5.212104e-02 5.178354e-02 4.947019e-02 4.909285e-02 4.700521e-02 4.653683e-02 4.485654e-02 4.425830e-02 4.315380e-02 4.242756e-02 4.204187e-02 4.127165e-02 4.171605e-02 4.111486e-02 4.246977e-02 4.240450e-02 4.472235e-02 4.566953e-02 4.897229e-02 5.138189e-02 5.565252e-02 5.978281e-02 6.495265e-02 7.077757e-02 7.670585e-02 8.391741e-02 9.036519e-02 9.842312e-02 1.050400e-01 1.132399e-01 1.195882e-01 1.271605e-01 1.327942e-01 1.390545e-01 1.436511e-01 1.481984e-01 1.517062e-01 1.546142e-01 1.573362e-01 1.592206e-01 1.617470e-01 1.635895e-01 1.665655e-01 1.692885e-01 1.731204e-01 1.771251e-01 1.817430e-01 1.867135e-01 1.914994e-01 1.965157e-01 2.003896e-01 2.040876e-01 2.054946e-01 2.060088e-01 2.027432e-01 1.974994e-01 1.869471e-01 1.732801e-01 1.542781e-01 1.322453e-01 1.098617e-01 8.872900e-02 8.073929e-02 7.759105e-02 8.696428e-02 8.734268e-02 9.249413e-02 9.540285e-02 9.915393e-02 1.056919e-01 7.217335e-02 5.600532e-02 5.123284e-02 3.764350e-02 1.240234e-02 7.306665e-03 3.402056e-02 4.590956e-02 5.949428e-02 6.609640e-02 7.194455e-02 7.606772e-02 7.789296e-02 8.002894e-02 5.579663e-02 5.133278e-02 4.923991e-02 5.370430e-02 5.710138e-02 5.962003e-02 6.170977e-02 6.228053e-02 6.325195e-02 6.280732e-02 6.331224e-02 6.243357e-02 6.291176e-02 6.191260e-02 6.260153e-02 6.163413e-02 6.262044e-02 6.174065e-02 6.300348e-02 6.221267e-02 6.366115e-02 6.293544e-02 6.444059e-02 
7.299095e-02 7.495518e-02 7.438667e-02 7.597809e-02 7.532567e-02 7.640372e-02 7.565741e-02 7.611513e-02 7.528140e-02 7.505176e-02 7.415066e-02 7.321072e-02 7.227161e-02 7.064495e-02 6.970127e-02 6.745894e-02 6.654278e-02 6.380350e-02 6.294040e-02 5.987065e-02 5.907533e-02 5.588947e-02 5.516337e-02 5.212209e-02 5.145418e-02 4.885671e-02 4.822985e-02 4.639138e-02 4.579752e-02 4.500427e-02 4.447021e-02 4.491710e-02 4.453623e-02 4.627666e-02 4.623297e-02 4.917896e-02 4.974622e-02 5.372571e-02 5.523213e-02 6.006430e-02 6.282433e-02 6.836410e-02 7.259025e-02 7.871993e-02 8.443711e-02 9.101573e-02 9.800074e-02 1.048005e-01 1.125618e-01 1.192262e-01 1.270348e-01 1.330910e-01 1.400823e-01 1.450360e-01 1.504073e-01 1.539368e-01 1.572517e-01 1.594670e-01 1.609976e-01 1.626198e-01 1.634868e-01 1.656634e-01 1.673996e-01 1.710103e-01 1.745618e-01 1.795542e-01 1.846734e-01 1.902457e-01 1.960385e-01 2.013441e-01 2.070218e-01 2.114364e-01 2.163026e-01 2.188921e-01 2.216266e-01 2.201094e-01 2.176992e-01 2.079998e-01 1.959820e-01 1.744511e-01 1.508628e-01 1.215701e-01 9.841775e-02 8.700577e-02 9.474218e-02 1.040600e-01 1.171563e-01 1.141835e-01 1.265383e-01 1.420514e-01 8.458108e-02 4.006439e-02 3.451589e-02 3.393214e-02 6.936909e-02 1.051444e-01 1.161733e-01 1.242370e-01 1.226543e-01 1.201498e-01 1.211043e-01 1.149218e-01 1.197351e-01 1.134904e-01 1.030763e-01 7.228784e-02 6.268051e-02 5.809184e-02 5.900506e-02 6.145892e-02 6.261582e-02 6.469476e-02 6.480661e-02 6.613937e-02 6.560343e-02 6.666153e-02 6.586731e-02 6.702446e-02 6.620659e-02 6.765829e-02 6.692649e-02 6.871737e-02 6.809656e-02 7.016101e-02 6.962582e-02 7.182871e-02 7.133091e-02 7.350284e-02 
7.190994e-02 7.331631e-02 7.239043e-02 7.361304e-02 7.274757e-02 7.365351e-02 7.286958e-02 7.334942e-02 7.267366e-02 7.265113e-02 7.210967e-02 7.154851e-02 7.116067e-02 7.006852e-02 6.984117e-02 6.827032e-02 6.819372e-02 6.623894e-02 6.628447e-02 6.407798e-02 6.419818e-02 6.190219e-02 6.203373e-02 5.983067e-02 5.990114e-02 5.798210e-02 5.792241e-02 5.647460e-02 5.623919e-02 5.543429e-02 5.503160e-02 5.501793e-02 5.455100e-02 5.545189e-02 5.516154e-02 5.707869e-02 5.736517e-02 6.037994e-02 6.176224e-02 6.592551e-02 6.891304e-02 7.422068e-02 7.913826e-02 8.549726e-02 9.235191e-02 9.954098e-02 1.079752e-01 1.156055e-01 1.249159e-01 1.324124e-01 1.416135e-01 1.482526e-01 1.562079e-01 1.612549e-01 1.669198e-01 1.698890e-01 1.726889e-01 1.736874e-01 1.739533e-01 1.739291e-01 1.731275e-01 1.736982e-01 1.740216e-01 1.767133e-01 1.799120e-01 1.853051e-01 1.916157e-01 1.990926e-01 2.073655e-01 2.155563e-01 2.241467e-01 2.315786e-01 2.388686e-01 2.439109e-01 2.479224e-01 2.476861e-01 2.445027e-01 2.338007e-01 2.171825e-01 1.907222e-01 1.565135e-01 1.196549e-01 8.745841e-02 9.592932e-02 1.195192e-01 1.567228e-01 1.568724e-01 1.723842e-01 1.846664e-01 1.002223e-01 6.673720e-02 2.066970e-02 8.137740e-02 1.450456e-01 1.342818e-01 1.184433e-01 1.011747e-01 7.870136e-02 6.801935e-02 5.428979e-02 4.983944e-02 4.007564e-02 4.021193e-02 3.228591e-02 5.457803e-02 6.784482e-02 6.868635e-02 7.179539e-02 7.119508e-02 7.351482e-02 7.320830e-02 7.460745e-02 7.397050e-02 7.465662e-02 7.367540e-02 7.404054e-02 7.286833e-02 7.323175e-02 7.200305e-02 7.256429e-02 7.136009e-02 7.220798e-02 7.106305e-02 7.219566e-02 7.111522e-02 7.246238e-02 7.143860e-02 7.288490e-02 
8.201513e-02 8.410105e-02 8.337588e-02 8.509997e-02 8.431644e-02 8.551585e-02 8.467495e-02 8.522183e-02 8.434140e-02 8.415369e-02 8.326470e-02 8.231360e-02 8.145460e-02 7.976865e-02 7.897909e-02 7.664536e-02 7.595863e-02 7.312159e-02 7.255881e-02 6.941757e-02 6.898300e-02 6.578704e-02 6.546638e-02 6.250761e-02 6.227099e-02 5.986800e-02 5.968000e-02 5.814934e-02 5.798864e-02 5.760168e-02 5.749057e-02 5.842656e-02 5.846494e-02 6.078233e-02 6.117386e-02 6.481939e-02 6.587419e-02 7.072638e-02 7.282729e-02 7.874663e-02 8.227412e-02 8.912645e-02 9.435105e-02 1.019853e-01 1.089510e-01 1.171356e-01 1.255620e-01 1.339039e-01 1.431281e-01 1.510117e-01 1.599918e-01 1.665838e-01 1.739996e-01 1.783797e-01 1.828993e-01 1.843873e-01 1.851815e-01 1.838969e-01 1.814076e-01 1.788941e-01 1.755006e-01 1.746840e-01 1.740688e-01 1.774150e-01 1.816821e-01 1.887778e-01 1.964853e-01 2.048799e-01 2.134461e-01 2.213031e-01 2.294578e-01 2.364321e-01 2.441085e-01 2.502791e-01 2.572132e-01 2.603972e-01 2.627628e-01 2.555710e-01 2.442120e-01 2.158608e-01 1.818768e-01 1.323065e-01 9.857046e-02 1.066092e-01 1.605642e-01 1.941965e-01 2.243442e-01 1.973277e-01 1.159955e-01 6.549564e-02 9.072630e-03 1.757209e-01 1.972284e-01 1.213263e-01 7.414599e-02 3.544992e-02 7.687744e-03 1.788414e-02 2.575156e-02 3.865497e-02 4.136487e-02 4.741916e-02 4.855197e-02 5.324408e-02 4.444872e-02 6.423760e-02 6.632438e-02 7.367677e-02 7.289413e-02 7.593499e-02 7.506129e-02 7.674097e-02 7.580082e-02 7.691545e-02 7.588535e-02 7.686252e-02 7.581409e-02 7.693729e-02 7.594793e-02 7.737684e-02 7.648875e-02 7.826859e-02 7.748385e-02 7.956319e-02 7.885427e-02 8.110987e-02 8.043479e-02 8.269888e-02 