# vtk DataFile Version 2.0
Comment goes here
ASCII

DATASET STRUCTURED_POINTS
DIMENSIONS    128   128   1

ORIGIN    0.000   0.000   0.000
SPACING   0.0156250.015625   1.000

POINT_DATA   16384
SCALARS uMag double
LOOKUP_TABLE default

1.206540e-01 1.318168e-01 1.351679e-01 1.443939e-01 1.464352e-01 1.536619e-01 1.544233e-01 1.596203e-01 1.591601e-01 1.623337e-01 1.607407e-01 1.619379e-01 1.593310e-01 1.586428e-01 1.551707e-01 1.527334e-01 1.485735e-01 1.445679e-01 1.399237e-01 1.345745e-01 1.296729e-01 1.232451e-01 1.183337e-01 1.111295e-01 1.064730e-01 9.882738e-02 9.470505e-02 8.698081e-02 8.368255e-02 7.626380e-02 7.408541e-02 6.736932e-02 6.660548e-02 6.099103e-02 6.192495e-02 5.779765e-02 6.068628e-02 5.839817e-02 6.345224e-02 6.329657e-02 7.065527e-02 7.283643e-02 8.253766e-02 8.713767e-02 9.908615e-02 1.060309e-01 1.199679e-01 1.289979e-01 1.444785e-01 1.551292e-01 1.715134e-01 1.831141e-01 1.995785e-01 2.112726e-01 2.268483e-01 2.376401e-01 2.512754e-01 2.601009e-01 2.707451e-01 2.765576e-01 2.832533e-01 2.851133e-01 2.870834e-01 2.842370e-01 2.809544e-01 2.728957e-01 2.641321e-01 2.506470e-01 2.365057e-01 2.177082e-01 1.986519e-01 1.750210e-01 1.519010e-01 1.243204e-01 9.839938e-02 6.818093e-02 4.111781e-02 9.970452e-03 1.628669e-02 4.640120e-02 6.983765e-02 9.697252e-02 1.158871e-01 1.384730e-01 1.518621e-01 1.690411e-01 1.768818e-01 1.886783e-01 1.919609e-01 1.992239e-01 1.996832e-01 2.037764e-01 2.033289e-01 2.055598e-01 2.055913e-01 2.066315e-01 2.075879e-01 2.073151e-01 2.087859e-01 2.064660e-01 2.074786e-01 2.021684e-01 2.015485e-01 1.925039e-01 1.893467e-01 1.764228e-01 1.705609e-01 1.543663e-01 1.462621e-01 1.277567e-01 1.181040e-01 9.823538e-02 8.771179e-02 6.727460e-02 5.645851e-02 3.607959e-02 2.543645e-02 5.598404e-03 4.511745e-03 2.344061e-02 3.274820e-02 5.048576e-02 5.879557e-02 7.512181e-02 8.229647e-02 9.703569e-02 1.029826e-01 1.159918e-01 
1.098733e-01 1.201903e-01 1.237899e-01 1.323843e-01 1.346512e-01 1.414617e-01 1.424168e-01 1.474144e-01 1.471107e-01 1.503011e-01 1.488235e-01 1.502499e-01 1.477153e-01 1.474610e-01 1.440172e-01 1.422069e-01 1.380314e-01 1.348313e-01 1.301280e-01 1.257447e-01 1.207416e-01 1.154196e-01 1.103649e-01 1.043839e-01 9.954330e-02 9.321464e-02 8.886778e-02 8.253009e-02 7.896815e-02 7.298276e-02 7.050550e-02 6.525098e-02 6.416325e-02 6.002798e-02 6.063186e-02 5.800015e-02 6.057598e-02 5.980054e-02 6.457421e-02 6.593685e-02 7.304517e-02 7.672184e-02 8.618805e-02 9.222517e-02 1.039386e-01 1.122306e-01 1.259225e-01 1.361866e-01 1.514075e-01 1.631642e-01 1.792736e-01 1.918433e-01 2.080210e-01 2.205446e-01 2.358280e-01 2.473149e-01 2.606629e-01 2.700619e-01 2.804392e-01 2.867260e-01 2.931957e-01 2.954608e-01 2.972707e-01 2.947960e-01 2.914464e-01 2.837603e-01 2.750486e-01 2.619644e-01 2.480152e-01 2.296643e-01 2.109599e-01 1.878417e-01 1.652769e-01 1.383644e-01 1.133884e-01 8.449591e-02 5.993895e-02 3.558666e-02 2.894212e-02 4.523670e-02 6.528049e-02 9.088828e-02 1.092969e-01 1.317544e-01 1.452958e-01 1.626926e-01 1.709329e-01 1.830303e-01 1.867118e-01 1.943024e-01 1.949615e-01 1.994422e-01 1.989199e-01 2.016489e-01 2.013871e-01 2.030999e-01 2.036678e-01 2.042575e-01 2.053282e-01 2.040758e-01 2.047125e-01 2.006757e-01 1.997002e-01 1.921023e-01 1.885859e-01 1.772274e-01 1.710123e-01 1.564859e-01 1.480488e-01 1.313020e-01 1.213410e-01 1.033181e-01 9.252662e-02 7.407075e-02 6.309871e-02 4.510237e-02 3.478163e-02 1.981313e-02 1.473929e-02 2.066361e-02 2.826901e-02 4.320031e-02 5.141843e-02 6.605062e-02 7.339620e-02 8.681988e-02 9.300945e-02 1.049530e-01 
1.233513e-01 1.342788e-01 1.374008e-01 1.464788e-01 1.483483e-01 1.554798e-01 1.561116e-01 1.612448e-01 1.606878e-01 1.638145e-01 1.621509e-01 1.633079e-01 1.606517e-01 1.599221e-01 1.564174e-01 1.539314e-01 1.497506e-01 1.456841e-01 1.410244e-01 1.355971e-01 1.306773e-01 1.241488e-01 1.192061e-01 1.118723e-01 1.071585e-01 9.934698e-02 9.512710e-02 8.719280e-02 8.374469e-02 7.606748e-02 7.368492e-02 6.667021e-02 6.566896e-02 5.975132e-02 6.046962e-02 5.610648e-02 5.887652e-02 5.650149e-02 6.157807e-02 6.151138e-02 6.900657e-02 7.139663e-02 8.127808e-02 8.611587e-02 9.822835e-02 1.053704e-01 1.194260e-01 1.285818e-01 1.441300e-01 1.548343e-01 1.712422e-01 1.828408e-01 1.992989e-01 2.109610e-01 2.265180e-01 2.372793e-01 2.509058e-01 2.597369e-01 2.704098e-01 2.763022e-01 2.830985e-01 2.851536e-01 2.873386e-01 2.848470e-01 2.819449e-01 2.744495e-01 2.662952e-01 2.536408e-01 2.404226e-01 2.228131e-01 2.051340e-01 1.832355e-01 1.622538e-01 1.374751e-01 1.153548e-01 9.095124e-02 7.291936e-02 5.932523e-02 5.916668e-02 7.082524e-02 8.600719e-02 1.070609e-01 1.226423e-01 1.425304e-01 1.539879e-01 1.696967e-01 1.761483e-01 1.870031e-01 1.891654e-01 1.957202e-01 1.952702e-01 1.988269e-01 1.977597e-01 1.996942e-01 1.994487e-01 2.004368e-01 2.013988e-01 2.012617e-01 2.029580e-01 2.008722e-01 2.023097e-01 1.973004e-01 1.972609e-01 1.885644e-01 1.860248e-01 1.734747e-01 1.682441e-01 1.525500e-01 1.451165e-01 1.273215e-01 1.183965e-01 9.955939e-02 8.989679e-02 7.115408e-02 6.163554e-02 4.491577e-02 3.733740e-02 2.905841e-02 2.884984e-02 3.739121e-02 4.355784e-02 5.822581e-02 6.526918e-02 8.031775e-02 8.679913e-02 1.008755e-01 1.063765e-01 1.190014e-01 
1.153640e-01 1.251609e-01 1.282261e-01 1.364947e-01 1.383674e-01 1.449723e-01 1.456389e-01 1.505049e-01 1.499968e-01 1.530983e-01 1.514854e-01 1.528431e-01 1.502308e-01 1.499110e-01 1.464364e-01 1.445502e-01 1.403786e-01 1.370805e-01 1.324012e-01 1.278861e-01 1.229076e-01 1.174077e-01 1.123533e-01 1.061333e-01 1.012373e-01 9.459050e-02 9.009652e-02 8.334202e-02 7.950716e-02 7.299218e-02 7.010068e-02 6.421364e-02 6.260366e-02 5.779974e-02 5.788740e-02 5.469860e-02 5.694021e-02 5.589443e-02 6.063785e-02 6.207936e-02 6.942619e-02 7.342546e-02 8.326205e-02 8.969657e-02 1.017874e-01 1.104246e-01 1.244310e-01 1.349281e-01 1.503752e-01 1.622433e-01 1.784920e-01 1.910736e-01 2.073203e-01 2.197971e-01 2.351071e-01 2.465418e-01 2.599137e-01 2.693192e-01 2.797710e-01 2.861974e-01 2.928624e-01 2.954852e-01 2.977004e-01 2.958955e-01 2.932678e-01 2.866644e-01 2.791141e-01 2.676330e-01 2.554274e-01 2.393295e-01 2.231397e-01 2.031373e-01 1.841847e-01 1.617386e-01 1.421911e-01 1.203700e-01 1.044360e-01 9.011688e-02 8.524142e-02 8.755826e-02 9.564874e-02 1.103415e-01 1.223074e-01 1.393481e-01 1.491266e-01 1.635903e-01 1.692546e-01 1.794967e-01 1.811594e-01 1.873378e-01 1.862931e-01 1.896848e-01 1.878953e-01 1.899788e-01 1.890434e-01 1.906244e-01 1.911037e-01 1.919230e-01 1.933894e-01 1.925798e-01 1.940688e-01 1.906630e-01 1.909079e-01 1.840989e-01 1.818898e-01 1.713694e-01 1.664998e-01 1.530580e-01 1.460408e-01 1.307504e-01 1.222906e-01 1.062295e-01 9.711555e-02 8.150658e-02 7.272434e-02 5.946845e-02 5.265080e-02 4.551916e-02 4.345459e-02 4.643357e-02 4.971686e-02 5.963805e-02 6.516908e-02 7.719950e-02 8.294503e-02 9.493851e-02 1.000797e-01 1.111784e-01 
1.311759e-01 1.414751e-01 1.439574e-01 1.526305e-01 1.540110e-01 1.608787e-01 1.611372e-01 1.660920e-01 1.652543e-01 1.682486e-01 1.663804e-01 1.674221e-01 1.646239e-01 1.637745e-01 1.601780e-01 1.575503e-01 1.533136e-01 1.490693e-01 1.443720e-01 1.387168e-01 1.337546e-01 1.269335e-01 1.219130e-01 1.142041e-01 1.093396e-01 1.010487e-01 9.656169e-02 8.801922e-02 8.414659e-02 7.571259e-02 7.272957e-02 6.481775e-02 6.308502e-02 5.621801e-02 5.623722e-02 5.110356e-02 5.347920e-02 5.082897e-02 5.599607e-02 5.626405e-02 6.422094e-02 6.732843e-02 7.778120e-02 8.339412e-02 9.600095e-02 1.037623e-01 1.181595e-01 1.276959e-01 1.434239e-01 1.542730e-01 1.707220e-01 1.822810e-01 1.986816e-01 2.101991e-01 2.256530e-01 2.362615e-01 2.498068e-01 2.585864e-01 2.692852e-01 2.753473e-01 2.823829e-01 2.849564e-01 2.877224e-01 2.862306e-01 2.844013e-01 2.785223e-01 2.721030e-01 2.618236e-01 2.512005e-01 2.368906e-01 2.229129e-01 2.054737e-01 1.896269e-01 1.708190e-01 1.555663e-01 1.386637e-01 1.278422e-01 1.181114e-01 1.157626e-01 1.173356e-01 1.228557e-01 1.330456e-01 1.410040e-01 1.538527e-01 1.598399e-01 1.712284e-01 1.735030e-01 1.815440e-01 1.803159e-01 1.847507e-01 1.815438e-01 1.834711e-01 1.805628e-01 1.816298e-01 1.806133e-01 1.814509e-01 1.824121e-01 1.826667e-01 1.849434e-01 1.834823e-01 1.861351e-01 1.819859e-01 1.837707e-01 1.762077e-01 1.756450e-01 1.643255e-01 1.611080e-01 1.470768e-01 1.417346e-01 1.262059e-01 1.194442e-01 1.036618e-01 9.634651e-02 8.191904e-02 7.523929e-02 6.473126e-02 6.046006e-02 5.745889e-02 5.730105e-02 6.291208e-02 6.621751e-02 7.698811e-02 8.174453e-02 9.427163e-02 9.915588e-02 1.116719e-01 1.160297e-01 1.276716e-01 
1.257594e-01 1.346827e-01 1.367952e-01 1.444930e-01 1.456406e-01 1.518770e-01 1.520026e-01 1.566298e-01 1.557345e-01 1.586735e-01 1.568047e-01 1.580358e-01 1.552798e-01 1.548380e-01 1.513128e-01 1.492839e-01 1.451328e-01 1.416494e-01 1.370338e-01 1.322703e-01 1.273623e-01 1.215284e-01 1.165041e-01 1.098382e-01 1.048726e-01 9.763499e-02 9.290157e-02 8.537163e-02 8.105377e-02 7.353834e-02 6.986470e-02 6.273614e-02 6.006216e-02 5.385440e-02 5.279162e-02 4.833687e-02 4.978149e-02 4.811336e-02 5.280461e-02 5.449724e-02 6.242473e-02 6.722453e-02 7.788084e-02 8.521995e-02 9.809023e-02 1.074677e-01 1.220915e-01 1.330601e-01 1.489278e-01 1.609908e-01 1.774701e-01 1.900171e-01 2.063369e-01 2.186326e-01 2.339127e-01 2.451304e-01 2.584488e-01 2.677371e-01 2.782222e-01 2.847899e-01 2.917216e-01 2.949237e-01 2.978221e-01 2.972266e-01 2.959112e-01 2.913373e-01 2.859517e-01 2.774860e-01 2.685026e-01 2.565202e-01 2.447556e-01 2.299920e-01 2.166693e-01 2.003993e-01 1.872661e-01 1.716235e-01 1.610057e-01 1.492085e-01 1.434808e-01 1.388821e-01 1.386866e-01 1.419360e-01 1.449319e-01 1.529524e-01 1.557837e-01 1.644886e-01 1.650442e-01 1.715740e-01 1.692705e-01 1.726262e-01 1.681756e-01 1.693803e-01 1.650562e-01 1.658339e-01 1.635521e-01 1.649098e-01 1.651352e-01 1.663417e-01 1.683858e-01 1.682648e-01 1.713334e-01 1.690880e-01 1.719753e-01 1.669933e-01 1.676692e-01 1.590766e-01 1.571593e-01 1.462238e-01 1.421989e-01 1.300556e-01 1.245282e-01 1.122684e-01 1.060631e-01 9.503690e-02 8.922958e-02 8.120013e-02 7.706844e-02 7.394615e-02 7.254973e-02 7.512235e-02 7.645611e-02 8.345056e-02 8.649245e-02 9.581807e-02 9.947110e-02 1.095181e-01 1.130368e-01 1.228175e-01 
1.434784e-01 1.529282e-01 1.544774e-01 1.625815e-01 1.632248e-01 1.697130e-01 1.693964e-01 1.740904e-01 1.728148e-01 1.756124e-01 1.734236e-01 1.742905e-01 1.712723e-01 1.702371e-01 1.665039e-01 1.636540e-01 1.593434e-01 1.548189e-01 1.500838e-01 1.440712e-01 1.390715e-01 1.317952e-01 1.266907e-01 1.184036e-01 1.133490e-01 1.043247e-01 9.946986e-02 8.999710e-02 8.550042e-02 7.589072e-02 7.196160e-02 6.259261e-02 5.959597e-02 5.104824e-02 4.970930e-02 4.305482e-02 4.459841e-02 4.143556e-02 4.685454e-02 4.798984e-02 5.690691e-02 6.155845e-02 7.303474e-02 8.014434e-02 9.354914e-02 1.024297e-01 1.173300e-01 1.275157e-01 1.434581e-01 1.545076e-01 1.709185e-01 1.823148e-01 1.984840e-01 2.096075e-01 2.247221e-01 2.348752e-01 2.480900e-01 2.565541e-01 2.670844e-01 2.731943e-01 2.804143e-01 2.836318e-01 2.871582e-01 2.871314e-01 2.868796e-01 2.834830e-01 2.796957e-01 2.730621e-01 2.663226e-01 2.568799e-01 2.481206e-01 2.366427e-01 2.271307e-01 2.147974e-01 2.060336e-01 1.944533e-01 1.878528e-01 1.788938e-01 1.751579e-01 1.703628e-01 1.688613e-01 1.685874e-01 1.675301e-01 1.706096e-01 1.681370e-01 1.724630e-01 1.676498e-01 1.710482e-01 1.640729e-01 1.650420e-01 1.571525e-01 1.562908e-01 1.504255e-01 1.501791e-01 1.481647e-01 1.487300e-01 1.495672e-01 1.504174e-01 1.531828e-01 1.523862e-01 1.567049e-01 1.536997e-01 1.588122e-01 1.535435e-01 1.568082e-01 1.480139e-01 1.486258e-01 1.379952e-01 1.363849e-01 1.250545e-01 1.217736e-01 1.108855e-01 1.068096e-01 9.785857e-02 9.410984e-02 8.884959e-02 8.655410e-02 8.634433e-02 8.614100e-02 9.094073e-02 9.260287e-02 1.009838e-01 1.037464e-01 1.139842e-01 1.170878e-01 1.278516e-01 1.307470e-01 1.411469e-01 
1.401950e-01 1.481049e-01 1.490105e-01 1.560113e-01 1.562006e-01 1.619735e-01 1.613647e-01 1.656872e-01 1.642593e-01 1.669894e-01 1.647699e-01 1.658366e-01 1.628916e-01 1.622883e-01 1.587127e-01 1.564914e-01 1.523996e-01 1.486644e-01 1.441794e-01 1.390788e-01 1.343227e-01 1.280398e-01 1.231245e-01 1.158663e-01 1.108866e-01 1.028735e-01 9.790634e-02 8.936453e-02 8.448076e-02 7.564587e-02 7.095329e-02 6.211057e-02 5.787224e-02 4.950656e-02 4.643986e-02 3.967112e-02 3.945560e-02 3.653846e-02 4.117478e-02 4.359448e-02 5.271610e-02 5.918390e-02 7.123153e-02 8.019157e-02 9.423756e-02 1.048295e-01 1.203183e-01 1.320053e-01 1.484118e-01 1.607077e-01 1.774112e-01 1.897736e-01 2.060401e-01 2.178529e-01 2.328749e-01 2.434825e-01 2.564570e-01 2.652307e-01 2.754621e-01 2.818795e-01 2.888859e-01 2.926026e-01 2.961989e-01 2.970896e-01 2.974204e-01 2.955726e-01 2.930814e-01 2.887450e-01 2.840856e-01 2.775982e-01 2.715141e-01 2.632329e-01 2.564274e-01 2.467055e-01 2.397240e-01 2.289840e-01 2.221295e-01 2.110809e-01 2.044028e-01 1.943127e-01 1.877017e-01 1.803217e-01 1.736520e-01 1.702758e-01 1.634603e-01 1.635301e-01 1.564459e-01 1.574164e-01 1.495517e-01 1.487520e-01 1.393402e-01 1.373330e-01 1.293365e-01 1.280349e-01 1.237650e-01 1.249491e-01 1.245415e-01 1.260594e-01 1.281391e-01 1.283084e-01 1.331086e-01 1.319800e-01 1.393418e-01 1.380134e-01 1.439382e-01 1.391231e-01 1.424392e-01 1.362702e-01 1.370414e-01 1.301083e-01 1.286929e-01 1.217384e-01 1.189875e-01 1.130688e-01 1.100146e-01 1.062679e-01 1.038471e-01 1.031506e-01 1.019649e-01 1.045676e-01 1.047245e-01 1.101396e-01 1.113224e-01 1.186299e-01 1.203424e-01 1.285830e-01 1.303538e-01 1.387306e-01 
1.594776e-01 1.680346e-01 1.684891e-01 1.759702e-01 1.757132e-01 1.817758e-01 1.807375e-01 1.851341e-01 1.832997e-01 1.858678e-01 1.832688e-01 1.839245e-01 1.806302e-01 1.793628e-01 1.754698e-01 1.723361e-01 1.679586e-01 1.630746e-01 1.583332e-01 1.518643e-01 1.468749e-01 1.390247e-01 1.338886e-01 1.248851e-01 1.196817e-01 1.097648e-01 1.045503e-01 9.396013e-02 8.877843e-02 7.775335e-02 7.267799e-02 6.148312e-02 5.674085e-02 4.581881e-02 4.217151e-02 3.280129e-02 3.254366e-02 2.843647e-02 3.456176e-02 3.792535e-02 4.857933e-02 5.614977e-02 6.904589e-02 7.856687e-02 9.294014e-02 1.035041e-01 1.189500e-01 1.300718e-01 1.461525e-01 1.574275e-01 1.735884e-01 1.845907e-01 2.001711e-01 2.104434e-01 2.247324e-01 2.338214e-01 2.461439e-01 2.536536e-01 2.634697e-01 2.691128e-01 2.761072e-01 2.797338e-01 2.838701e-01 2.854669e-01 2.869937e-01 2.866639e-01 2.860815e-01 2.840246e-01 2.820224e-01 2.785096e-01 2.758555e-01 2.711563e-01 2.684906e-01 2.627264e-01 2.602588e-01 2.532740e-01 2.505093e-01 2.419887e-01 2.377451e-01 2.277331e-01 2.206453e-01 2.101903e-01 1.995199e-01 1.906387e-01 1.768675e-01 1.712503e-01 1.560024e-01 1.531575e-01 1.380937e-01 1.347429e-01 1.203053e-01 1.153037e-01 1.059096e-01 1.043571e-01 1.019618e-01 1.017604e-01 1.018326e-01 1.034754e-01 1.053230e-01 1.042539e-01 1.094579e-01 1.066668e-01 1.167911e-01 1.159257e-01 1.264414e-01 1.228715e-01 1.300976e-01 1.258412e-01 1.298072e-01 1.250359e-01 1.261909e-01 1.215712e-01 1.209285e-01 1.175060e-01 1.161893e-01 1.149944e-01 1.139218e-01 1.156080e-01 1.153080e-01 1.199097e-01 1.204741e-01 1.274517e-01 1.286528e-01 1.371746e-01 1.386520e-01 1.478685e-01 1.492671e-01 1.584465e-01 
1.578228e-01 1.647467e-01 1.643365e-01 1.706270e-01 1.697232e-01 1.750120e-01 1.735405e-01 1.775424e-01 1.754803e-01 1.779908e-01 1.753577e-01 1.762496e-01 1.730974e-01 1.723166e-01 1.687175e-01 1.662775e-01 1.623126e-01 1.582862e-01 1.540328e-01 1.485422e-01 1.440623e-01 1.372659e-01 1.325957e-01 1.246738e-01 1.198163e-01 1.109556e-01 1.058783e-01 9.625770e-02 9.089990e-02 8.068100e-02 7.498170e-02 6.431699e-02 5.829749e-02 4.740659e-02 4.145669e-02 3.107977e-02 2.725102e-02 2.140568e-02 2.600888e-02 3.068104e-02 4.211204e-02 5.175744e-02 6.569920e-02 7.715236e-02 9.259757e-02 1.049100e-01 1.213715e-01 1.340290e-01 1.509807e-01 1.635166e-01 1.803162e-01 1.922378e-01 2.081540e-01 2.189643e-01 2.332512e-01 2.425135e-01 2.545186e-01 2.619354e-01 2.712206e-01 2.767003e-01 2.831505e-01 2.868351e-01 2.907152e-01 2.929480e-01 2.948701e-01 2.960889e-01 2.968639e-01 2.974303e-01 2.978220e-01 2.978299e-01 2.982756e-01 2.973875e-01 2.977623e-01 2.951154e-01 2.946031e-01 2.888816e-01 2.860186e-01 2.758791e-01 2.689181e-01 2.539135e-01 2.416356e-01 2.233958e-01 2.062159e-01 1.888353e-01 1.694490e-01 1.573922e-01 1.399014e-01 1.335639e-01 1.201311e-01 1.143313e-01 9.970159e-02 9.376373e-02 8.171218e-02 7.639853e-02 6.936557e-02 7.098245e-02 6.903575e-02 7.010594e-02 6.974057e-02 6.838379e-02 7.317609e-02 7.084088e-02 8.422666e-02 8.996068e-02 1.062908e-01 1.097595e-01 1.219218e-01 1.243259e-01 1.317322e-01 1.322693e-01 1.356105e-01 1.348479e-01 1.354547e-01 1.343846e-01 1.335420e-01 1.331303e-01 1.318231e-01 1.327986e-01 1.316557e-01 1.343882e-01 1.336963e-01 1.381660e-01 1.379349e-01 1.438081e-01 1.438726e-01 1.506405e-01 1.507646e-01 1.578714e-01 
1.784445e-01 1.861983e-01 1.855054e-01 1.924089e-01 1.911677e-01 1.968301e-01 1.949786e-01 1.990923e-01 1.966174e-01 1.989607e-01 1.958918e-01 1.963289e-01 1.927279e-01 1.912061e-01 1.871563e-01 1.837006e-01 1.792936e-01 1.739967e-01 1.693185e-01 1.623293e-01 1.574471e-01 1.489545e-01 1.439045e-01 1.341212e-01 1.289000e-01 1.180446e-01 1.126055e-01 1.008853e-01 9.514296e-02 8.273983e-02 7.659107e-02 6.365352e-02 5.703966e-02 4.370382e-02 3.684789e-02 2.352647e-02 1.866516e-02 1.210681e-02 2.067191e-02 2.979936e-02 4.267901e-02 5.473683e-02 6.895281e-02 8.167566e-02 9.692304e-02 1.096917e-01 1.256164e-01 1.379988e-01 1.540923e-01 1.656619e-01 1.812892e-01 1.916272e-01 2.060975e-01 2.148599e-01 2.275327e-01 2.345455e-01 2.449602e-01 2.503016e-01 2.582985e-01 2.623148e-01 2.680960e-01 2.713103e-01 2.753966e-01 2.783254e-01 2.814174e-01 2.843914e-01 2.872099e-01 2.903104e-01 2.934843e-01 2.965766e-01 3.005245e-01 3.032137e-01 3.078936e-01 3.092704e-01 3.137824e-01 3.121200e-01 3.143693e-01 3.072747e-01 3.041497e-01 2.896765e-01 2.781272e-01 2.567342e-01 2.355661e-01 2.116355e-01 1.830110e-01 1.637069e-01 1.333306e-01 1.234221e-01 9.874920e-02 9.345955e-02 7.217726e-02 6.045751e-02 5.094198e-02 4.805066e-02 4.668948e-02 4.323321e-02 3.908546e-02 4.224554e-02 3.914324e-02 3.529989e-02 3.677976e-02 3.073258e-02 4.346111e-02 4.822142e-02 7.730291e-02 8.748472e-02 1.053508e-01 1.123495e-01 1.236180e-01 1.277844e-01 1.337163e-01 1.359483e-01 1.383758e-01 1.399013e-01 1.404065e-01 1.423243e-01 1.420242e-01 1.451076e-01 1.446793e-01 1.492957e-01 1.490517e-01 1.551748e-01 1.551591e-01 1.624639e-01 1.625577e-01 1.705516e-01 1.705661e-01 1.787029e-01 
1.779354e-01 1.840041e-01 1.822696e-01 1.879247e-01 1.858714e-01 1.907238e-01 1.883182e-01 1.920352e-01 1.892793e-01 1.915992e-01 1.885234e-01 1.892621e-01 1.859147e-01 1.849682e-01 1.814027e-01 1.787440e-01 1.750062e-01 1.706778e-01 1.667929e-01 1.608950e-01 1.568567e-01 1.495315e-01 1.452930e-01 1.367070e-01 1.321755e-01 1.225007e-01 1.175363e-01 1.069329e-01 1.013538e-01 8.995537e-02 8.354982e-02 7.145352e-02 6.400318e-02 5.126476e-02 4.259296e-02 2.922392e-02 1.941828e-02 5.607745e-03 8.979316e-03 2.142409e-02 3.545680e-02 4.960470e-02 6.506395e-02 7.955811e-02 9.620254e-02 1.106344e-01 1.280032e-01 1.419154e-01 1.593563e-01 1.722089e-01 1.889266e-01 2.001529e-01 2.152989e-01 2.244210e-01 2.372305e-01 2.440114e-01 2.539771e-01 2.585628e-01 2.656064e-01 2.685898e-01 2.731714e-01 2.755166e-01 2.786169e-01 2.814280e-01 2.843520e-01 2.885278e-01 2.925256e-01 2.984112e-01 3.042287e-01 3.114219e-01 3.189940e-01 3.263284e-01 3.346655e-01 3.401716e-01 3.472766e-01 3.480543e-01 3.508043e-01 3.432467e-01 3.376769e-01 3.187387e-01 3.013691e-01 2.711154e-01 2.415428e-01 2.059169e-01 1.694659e-01 1.399179e-01 1.079785e-01 9.304248e-02 8.134919e-02 7.393220e-02 6.802218e-02 5.211672e-02 3.682213e-02 1.620653e-02 6.417021e-03 9.965316e-03 3.647628e-03 1.314782e-02 9.558531e-03 1.837203e-02 1.948446e-02 2.341434e-02 1.820516e-02 2.714671e-02 4.369110e-02 7.013967e-02 9.652473e-02 1.131560e-01 1.287303e-01 1.384412e-01 1.464312e-01 1.518224e-01 1.551933e-01 1.582045e-01 1.589638e-01 1.610369e-01 1.604526e-01 1.626006e-01 1.614361e-01 1.642915e-01 1.629632e-01 1.668172e-01 1.654999e-01 1.703530e-01 1.690628e-01 1.746969e-01 1.733613e-01 1.794213e-01 
1.997576e-01 2.068855e-01 2.050693e-01 2.115204e-01 2.092724e-01 2.146254e-01 2.119156e-01 2.158126e-01 2.126506e-01 2.148142e-01 2.112437e-01 2.114866e-01 2.075748e-01 2.058025e-01 2.016269e-01 1.978346e-01 1.934673e-01 1.877301e-01 1.832226e-01 1.756811e-01 1.710493e-01 1.618913e-01 1.571036e-01 1.465435e-01 1.415128e-01 1.297723e-01 1.243526e-01 1.116438e-01 1.056336e-01 9.214932e-02 8.530121e-02 7.121797e-02 6.325280e-02 4.877000e-02 3.938653e-02 2.497796e-02 1.387916e-02 8.278854e-03 1.524952e-02 3.175166e-02 4.463792e-02 6.109419e-02 7.580437e-02 9.191747e-02 1.078122e-01 1.231865e-01 1.396125e-01 1.537010e-01 1.698567e-01 1.820135e-01 1.969840e-01 2.065728e-01 2.194457e-01 2.260225e-01 2.360783e-01 2.396348e-01 2.465943e-01 2.477899e-01 2.520434e-01 2.522645e-01 2.549258e-01 2.559681e-01 2.585801e-01 2.619324e-01 2.658764e-01 2.720463e-01 2.780926e-01 2.865996e-01 2.949652e-01 3.049179e-01 3.155451e-01 3.260008e-01 3.384734e-01 3.480077e-01 3.608929e-01 3.665838e-01 3.764533e-01 3.733617e-01 3.745005e-01 3.570492e-01 3.429633e-01 3.088166e-01 2.757680e-01 2.308444e-01 1.817846e-01 1.421333e-01 8.785524e-02 7.163958e-02 4.589526e-02 6.852553e-02 5.786849e-02 5.012857e-02 4.931089e-02 4.068792e-02 1.718459e-02 2.174701e-02 2.109086e-02 2.755021e-02 2.770117e-02 2.555313e-02 2.420888e-02 2.185564e-02 2.135786e-02 2.442535e-02 1.323050e-02 4.241972e-02 7.856450e-02 1.019941e-01 1.220124e-01 1.361118e-01 1.461621e-01 1.545428e-01 1.591246e-01 1.644881e-01 1.661377e-01 1.702804e-01 1.704244e-01 1.745063e-01 1.739497e-01 1.786497e-01 1.778156e-01 1.834211e-01 1.824831e-01 1.889680e-01 1.879409e-01 1.950526e-01 1.938643e-01 2.012111e-01 
1.999616e-01 2.053650e-01 2.023576e-01 2.075161e-01 2.043086e-01 2.088300e-01 2.054605e-01 2.089777e-01 2.055021e-01 2.077017e-01 2.041843e-01 2.048263e-01 2.013260e-01 2.002550e-01 1.968118e-01 1.939607e-01 1.905826e-01 1.859669e-01 1.826200e-01 1.763258e-01 1.729269e-01 1.650930e-01 1.615061e-01 1.523031e-01 1.483394e-01 1.379498e-01 1.333719e-01 1.219740e-01 1.165059e-01 1.042696e-01 9.761207e-02 8.471731e-02 7.657604e-02 6.329698e-02 5.345276e-02 4.055082e-02 2.933487e-02 2.125659e-02 1.726977e-02 2.920656e-02 4.040473e-02 5.730896e-02 7.271380e-02 8.998425e-02 1.073458e-01 1.241525e-01 1.423846e-01 1.579841e-01 1.760127e-01 1.895401e-01 2.061829e-01 2.167318e-01 2.307889e-01 2.376244e-01 2.480970e-01 2.509768e-01 2.573811e-01 2.569032e-01 2.595991e-01 2.573908e-01 2.577623e-01 2.562677e-01 2.565549e-01 2.582986e-01 2.609667e-01 2.675219e-01 2.743238e-01 2.856373e-01 2.969416e-01 3.116086e-01 3.265504e-01 3.426010e-01 3.595615e-01 3.745505e-01 3.909979e-01 4.009968e-01 4.124195e-01 4.111284e-01 4.104289e-01 3.903182e-01 3.693074e-01 3.258274e-01 2.802244e-01 2.189886e-01 1.564877e-01 1.004869e-01 4.468386e-02 3.613457e-02 6.688559e-02 1.005905e-01 1.477966e-01 8.086870e-02 5.943994e-02 6.701212e-02 4.428957e-02 1.757424e-02 9.123459e-03 1.837941e-02 3.026773e-02 4.391454e-02 5.142003e-02 5.639055e-02 6.218560e-02 6.231441e-02 6.842774e-02 6.288919e-02 9.083884e-02 1.154260e-01 1.361919e-01 1.530146e-01 1.635705e-01 1.733678e-01 1.782003e-01 1.839407e-01 1.856032e-01 1.892854e-01 1.891503e-01 1.920576e-01 1.908972e-01 1.938441e-01 1.920956e-01 1.955504e-01 1.934464e-01 1.975986e-01 1.952437e-01 2.000574e-01 1.974838e-01 2.027524e-01 
2.228846e-01 2.296230e-01 2.267562e-01 2.329423e-01 2.297064e-01 2.348982e-01 2.313179e-01 2.351138e-01 2.312444e-01 2.333141e-01 2.292340e-01 2.293395e-01 2.251367e-01 2.231433e-01 2.188991e-01 2.147765e-01 2.105481e-01 2.043622e-01 2.001662e-01 1.920625e-01 1.878615e-01 1.780436e-01 1.737360e-01 1.624423e-01 1.578581e-01 1.453412e-01 1.402439e-01 1.267602e-01 1.208575e-01 1.066788e-01 9.964580e-02 8.512638e-02 7.665951e-02 6.248618e-02 5.250926e-02 4.083306e-02 3.100982e-02 3.048197e-02 3.086416e-02 4.626421e-02 5.669699e-02 7.572842e-02 9.026620e-02 1.095336e-01 1.261132e-01 1.444962e-01 1.618055e-01 1.782999e-01 1.950161e-01 2.084883e-01 2.231714e-01 2.324404e-01 2.436498e-01 2.477591e-01 2.543463e-01 2.530316e-01 2.546130e-01 2.489175e-01 2.464570e-01 2.392271e-01 2.353944e-01 2.309439e-01 2.294753e-01 2.315555e-01 2.351996e-01 2.443876e-01 2.533759e-01 2.673693e-01 2.805299e-01 2.969099e-01 3.134917e-01 3.312273e-01 3.511962e-01 3.696777e-01 3.923943e-01 4.085994e-01 4.300984e-01 4.360105e-01 4.471678e-01 4.306550e-01 4.186801e-01 3.697094e-01 3.239832e-01 2.460446e-01 1.682584e-01 9.285371e-02 1.655960e-02 3.027042e-02 1.390301e-01 1.921052e-01 9.362288e-02 1.642966e-02 4.934918e-02 5.365383e-02 7.065194e-02 9.489218e-02 1.018549e-01 1.127136e-01 1.116998e-01 1.069524e-01 1.133802e-01 9.968100e-02 1.160515e-01 9.584080e-02 1.035506e-01 7.996578e-02 9.889204e-02 1.213104e-01 1.390957e-01 1.570314e-01 1.667920e-01 1.781860e-01 1.830557e-01 1.905110e-01 1.925451e-01 1.980071e-01 1.983828e-01 2.031294e-01 2.025333e-01 2.073665e-01 2.061903e-01 2.115454e-01 2.099883e-01 2.160022e-01 2.141383e-01 2.207089e-01 2.185395e-01 2.253887e-01 
2.234207e-01 2.283841e-01 2.241846e-01 2.290303e-01 2.246904e-01 2.290335e-01 2.246931e-01 2.281407e-01 2.239418e-01 2.261324e-01 2.221990e-01 2.228358e-01 2.192534e-01 2.181281e-01 2.149271e-01 2.119321e-01 2.090776e-01 2.042059e-01 2.015937e-01 1.949274e-01 1.923862e-01 1.840761e-01 1.813734e-01 1.716138e-01 1.684652e-01 1.574719e-01 1.535528e-01 1.415502e-01 1.365141e-01 1.237454e-01 1.172552e-01 1.040427e-01 9.584126e-02 8.278052e-02 7.290689e-02 6.152302e-02 5.124493e-02 4.616798e-02 4.145594e-02 5.000185e-02 5.708448e-02 7.431754e-02 8.866298e-02 1.081902e-01 1.260725e-01 1.455729e-01 1.649521e-01 1.829736e-01 2.021127e-01 2.171750e-01 2.342505e-01 2.447574e-01 2.578882e-01 2.623801e-01 2.699271e-01 2.676297e-01 2.687459e-01 2.603499e-01 2.556932e-01 2.440770e-01 2.363890e-01 2.266410e-01 2.205954e-01 2.184051e-01 2.189220e-01 2.272120e-01 2.365665e-01 2.535603e-01 2.704213e-01 2.922155e-01 3.140413e-01 3.379887e-01 3.631304e-01 3.879772e-01 4.151287e-01 4.376601e-01 4.620911e-01 4.733044e-01 4.839490e-01 4.694234e-01 4.494692e-01 3.947492e-01 3.280619e-01 2.312708e-01 1.241209e-01 6.902552e-02 9.004790e-02 1.633922e-01 2.230271e-01 1.013417e-01 7.498652e-02 2.443273e-02 7.918077e-02 1.404265e-01 1.120708e-01 9.744280e-02 1.006951e-01 7.236380e-02 7.365101e-02 4.780199e-02 5.946536e-02 3.177962e-02 5.284915e-02 2.442784e-02 5.666828e-02 9.678075e-02 1.217269e-01 1.489927e-01 1.625791e-01 1.797289e-01 1.879687e-01 1.987314e-01 2.033020e-01 2.101015e-01 2.121308e-01 2.166436e-01 2.169136e-01 2.203046e-01 2.193368e-01 2.224065e-01 2.205381e-01 2.238045e-01 2.212475e-01 2.249911e-01 2.218802e-01 2.261758e-01 2.226078e-01 2.273560e-01 
2.473462e-01 2.539741e-01 2.501567e-01 2.563147e-01 2.521317e-01 2.573604e-01 2.529145e-01 2.567708e-01 2.521888e-01 2.542896e-01 2.497079e-01 2.497636e-01 2.453088e-01 2.431455e-01 2.389130e-01 2.344802e-01 2.305153e-01 2.238797e-01 2.201622e-01 2.114902e-01 2.079242e-01 1.974555e-01 1.938655e-01 1.818848e-01 1.780177e-01 1.648319e-01 1.603671e-01 1.462995e-01 1.408710e-01 1.262938e-01 1.195358e-01 1.049901e-01 9.665330e-02 8.320931e-02 7.353682e-02 6.387159e-02 5.503730e-02 5.530174e-02 5.368912e-02 6.738559e-02 7.558215e-02 9.601823e-02 1.103597e-01 1.326536e-01 1.503215e-01 1.722743e-01 1.912558e-01 2.111802e-01 2.294972e-01 2.455574e-01 2.610202e-01 2.711620e-01 2.814366e-01 2.836607e-01 2.866245e-01 2.796498e-01 2.741195e-01 2.585276e-01 2.454555e-01 2.252722e-01 2.092889e-01 1.932259e-01 1.830323e-01 1.813272e-01 1.838803e-01 1.972769e-01 2.100550e-01 2.301507e-01 2.475884e-01 2.686763e-01 2.888939e-01 3.109539e-01 3.356916e-01 3.618133e-01 3.941442e-01 4.241872e-01 4.618341e-01 4.848778e-01 5.150225e-01 5.085063e-01 5.091950e-01 4.470587e-01 3.933355e-01 2.626019e-01 1.597104e-01 7.396997e-02 1.702850e-01 1.467575e-01 1.368601e-01 7.360648e-02 7.423668e-03 1.909609e-01 1.846583e-01 9.805829e-02 7.947006e-02 4.898363e-02 2.601676e-02 2.365632e-02 1.065739e-02 4.246417e-02 2.915990e-02 5.010925e-02 3.972915e-02 5.485909e-02 5.072539e-02 1.083676e-01 1.268993e-01 1.563782e-01 1.666799e-01 1.842619e-01 1.911613e-01 2.028655e-01 2.071473e-01 2.153560e-01 2.176104e-01 2.238276e-01 2.245813e-01 2.298740e-01 2.295312e-01 2.346427e-01 2.334787e-01 2.388740e-01 2.370565e-01 2.429495e-01 2.405689e-01 2.469502e-01 2.440531e-01 2.507261e-01 