# vtk DataFile Version 2.0
Comment goes here
ASCII

DATASET STRUCTURED_POINTS
DIMENSIONS    128   128   1

ORIGIN    0.000   0.000   0.000
SPACING   0.0156250.015625   1.000

POINT_DATA   16384
SCALARS uMag double
LOOKUP_TABLE default

7.311097e-02 6.623714e-02 6.283200e-02 5.621978e-02 5.250776e-02 4.621367e-02 4.228429e-02 3.636107e-02 3.229801e-02 2.679045e-02 2.266850e-02 1.760895e-02 1.349044e-02 8.894050e-03 4.824512e-03 6.841262e-04 3.312668e-03 7.031659e-03 1.095872e-02 1.432383e-02 1.821671e-02 2.133292e-02 2.526486e-02 2.827904e-02 3.236568e-02 3.546977e-02 3.987278e-02 4.330531e-02 4.823401e-02 5.227907e-02 5.798907e-02 6.297152e-02 6.975904e-02 7.603471e-02 8.422498e-02 9.216428e-02 1.020928e-01 1.120567e-01 1.240419e-01 1.363495e-01 1.506574e-01 1.655455e-01 1.823462e-01 1.999232e-01 2.192432e-01 2.394410e-01 2.611164e-01 2.836462e-01 3.072836e-01 3.316046e-01 3.565587e-01 3.818674e-01 4.072441e-01 4.324918e-01 4.571819e-01 4.811237e-01 5.038679e-01 5.251395e-01 5.446168e-01 5.618278e-01 5.767530e-01 5.885814e-01 5.977967e-01 6.030684e-01 6.056161e-01 6.033654e-01 5.985431e-01 5.880583e-01 5.754674e-01 5.563414e-01 5.359489e-01 5.081565e-01 4.803834e-01 4.443966e-01 4.102317e-01 3.671634e-01 3.282667e-01 2.799941e-01 2.387267e-01 1.879114e-01 1.472079e-01 9.711865e-02 6.014118e-02 1.422696e-02 1.619758e-02 5.495511e-02 7.698843e-02 1.067766e-01 1.201557e-01 1.408176e-01 1.470108e-01 1.599802e-01 1.616745e-01 1.691720e-01 1.691380e-01 1.730632e-01 1.731522e-01 1.744543e-01 1.754380e-01 1.741562e-01 1.759507e-01 1.718889e-01 1.740022e-01 1.673234e-01 1.693418e-01 1.607882e-01 1.626719e-01 1.533189e-01 1.552105e-01 1.459046e-01 1.478177e-01 1.389535e-01 1.407272e-01 1.323572e-01 1.337636e-01 1.257846e-01 1.266287e-01 1.189101e-01 1.190721e-01 1.115151e-01 1.109509e-01 1.035028e-01 1.022274e-01 9.487666e-02 9.294389e-02 8.570938e-02 8.319603e-02 7.611658e-02 
8.833225e-02 8.214311e-02 7.859350e-02 7.243173e-02 6.861783e-02 6.253122e-02 5.854388e-02 5.258190e-02 4.850586e-02 4.271640e-02 3.862789e-02 3.305450e-02 2.901951e-02 2.370174e-02 1.977902e-02 1.477135e-02 1.105355e-02 6.643609e-03 4.033383e-03 4.740414e-03 7.597662e-03 1.190214e-02 1.546632e-02 2.003986e-02 2.383529e-02 2.864703e-02 3.278065e-02 3.801142e-02 4.268548e-02 4.858585e-02 5.405901e-02 6.092745e-02 6.750154e-02 7.567035e-02 8.367598e-02 9.349308e-02 1.032693e-01 1.150730e-01 1.269390e-01 1.410249e-01 1.552441e-01 1.718243e-01 1.885609e-01 2.077178e-01 2.269898e-01 2.486286e-01 2.702613e-01 2.940674e-01 3.176558e-01 3.430652e-01 3.679532e-01 3.941449e-01 4.194306e-01 4.453477e-01 4.699188e-01 4.943214e-01 5.169235e-01 5.384685e-01 5.577948e-01 5.751307e-01 5.899215e-01 6.017806e-01 6.109125e-01 6.161838e-01 6.187377e-01 6.165145e-01 6.118216e-01 6.014324e-01 5.891112e-01 5.701579e-01 5.501668e-01 5.225965e-01 4.953204e-01 4.595499e-01 4.259215e-01 3.830083e-01 3.446329e-01 2.964514e-01 2.556807e-01 2.050627e-01 1.650080e-01 1.160674e-01 8.121491e-02 4.463502e-02 3.586730e-02 5.714501e-02 7.594452e-02 1.040239e-01 1.171654e-01 1.376385e-01 1.438322e-01 1.570030e-01 1.584149e-01 1.663429e-01 1.657511e-01 1.703667e-01 1.698352e-01 1.721079e-01 1.725189e-01 1.724826e-01 1.737616e-01 1.711818e-01 1.728048e-01 1.677821e-01 1.693107e-01 1.625276e-01 1.639358e-01 1.564474e-01 1.578991e-01 1.505162e-01 1.520237e-01 1.450904e-01 1.464806e-01 1.400039e-01 1.410412e-01 1.348831e-01 1.353713e-01 1.293752e-01 1.291980e-01 1.232425e-01 1.223610e-01 1.163718e-01 1.148060e-01 1.087500e-01 1.065584e-01 1.004338e-01 9.769684e-02 9.152308e-02 
7.381700e-02 6.711791e-02 6.378413e-02 5.734590e-02 5.370170e-02 4.759116e-02 4.373723e-02 3.802674e-02 3.407059e-02 2.884677e-02 2.492155e-02 2.032340e-02 1.666812e-02 1.305899e-02 1.041097e-02 9.034300e-03 9.332055e-03 1.105996e-02 1.376169e-02 1.649171e-02 1.990961e-02 2.275339e-02 2.645101e-02 2.931525e-02 3.326317e-02 3.626656e-02 4.057368e-02 4.392753e-02 4.878126e-02 5.275931e-02 5.840626e-02 6.333005e-02 7.006290e-02 7.628717e-02 8.442895e-02 9.232247e-02 1.022053e-01 1.121254e-01 1.240623e-01 1.363226e-01 1.505723e-01 1.654030e-01 1.821280e-01 1.996313e-01 2.188512e-01 2.389542e-01 2.605003e-01 2.829119e-01 3.063890e-01 3.305690e-01 3.553337e-01 3.804826e-01 4.056468e-01 4.307240e-01 4.551894e-01 4.789634e-01 5.014880e-01 5.226147e-01 5.419025e-01 5.590205e-01 5.738215e-01 5.856473e-01 5.948486e-01 6.002564e-01 6.029545e-01 6.010326e-01 5.965853e-01 5.866771e-01 5.747485e-01 5.564969e-01 5.371153e-01 5.105359e-01 4.841816e-01 4.497832e-01 4.175068e-01 3.764666e-01 3.400202e-01 2.944107e-01 2.563749e-01 2.095231e-01 1.735641e-01 1.312353e-01 1.035757e-01 7.962809e-02 7.334937e-02 8.434723e-02 9.452587e-02 1.163045e-01 1.249985e-01 1.426317e-01 1.463677e-01 1.579082e-01 1.581841e-01 1.649885e-01 1.642335e-01 1.679291e-01 1.677491e-01 1.691304e-01 1.701700e-01 1.690122e-01 1.710903e-01 1.670348e-01 1.695443e-01 1.627400e-01 1.651391e-01 1.564309e-01 1.586700e-01 1.493080e-01 1.515755e-01 1.424371e-01 1.447323e-01 1.361401e-01 1.382619e-01 1.301933e-01 1.318909e-01 1.242016e-01 1.252794e-01 1.178263e-01 1.181752e-01 1.108596e-01 1.104479e-01 1.032211e-01 1.020732e-01 9.492741e-02 9.310311e-02 8.606031e-02 8.364010e-02 7.674202e-02 
8.981102e-02 8.393672e-02 8.044994e-02 7.457229e-02 7.078464e-02 6.495767e-02 6.096469e-02 5.524903e-02 5.114482e-02 4.560813e-02 4.148680e-02 3.620932e-02 3.217264e-02 2.726974e-02 2.345861e-02 1.916743e-02 1.589540e-02 1.291725e-02 1.116935e-02 1.120142e-02 1.227204e-02 1.518983e-02 1.792270e-02 2.191515e-02 2.532442e-02 2.982238e-02 3.373054e-02 3.873786e-02 4.325104e-02 4.895975e-02 5.430366e-02 6.099375e-02 6.746073e-02 7.546093e-02 8.337964e-02 9.303841e-02 1.027454e-01 1.144003e-01 1.262081e-01 1.401507e-01 1.543114e-01 1.707461e-01 1.874093e-01 2.064091e-01 2.255770e-01 2.470369e-01 2.685207e-01 2.921171e-01 3.155011e-01 3.406639e-01 3.652867e-01 3.911934e-01 4.161548e-01 4.417546e-01 4.659551e-01 4.900257e-01 5.122379e-01 5.334714e-01 5.524360e-01 5.695395e-01 5.840695e-01 5.958608e-01 6.049325e-01 6.104114e-01 6.132286e-01 6.116139e-01 6.076423e-01 5.983848e-01 5.873729e-01 5.701707e-01 5.521849e-01 5.270356e-01 5.025338e-01 4.698569e-01 4.398083e-01 4.006526e-01 3.666842e-01 3.230267e-01 2.875666e-01 2.427572e-01 2.092346e-01 1.689371e-01 1.424224e-01 1.167882e-01 1.046036e-01 1.043014e-01 1.064421e-01 1.212470e-01 1.260510e-01 1.409180e-01 1.425294e-01 1.529926e-01 1.515427e-01 1.580825e-01 1.558327e-01 1.599659e-01 1.587691e-01 1.611764e-01 1.616660e-01 1.618784e-01 1.637527e-01 1.612270e-01 1.636970e-01 1.584956e-01 1.608232e-01 1.537864e-01 1.559247e-01 1.484818e-01 1.506988e-01 1.437118e-01 1.459863e-01 1.396445e-01 1.417225e-01 1.358841e-01 1.374882e-01 1.319397e-01 1.328770e-01 1.274391e-01 1.276160e-01 1.221679e-01 1.215690e-01 1.160422e-01 1.147042e-01 1.090704e-01 1.070610e-01 1.013212e-01 9.872527e-02 9.290041e-02 
7.592902e-02 6.972828e-02 6.659835e-02 6.064450e-02 5.718442e-02 5.156373e-02 4.789619e-02 4.271321e-02 3.898621e-02 3.438011e-02 3.079853e-02 2.698240e-02 2.388174e-02 2.121370e-02 1.917406e-02 1.813944e-02 1.783467e-02 1.853490e-02 1.996352e-02 2.176001e-02 2.428770e-02 2.655441e-02 2.969904e-02 3.219113e-02 3.577377e-02 3.850471e-02 4.254324e-02 4.567267e-02 5.030878e-02 5.408986e-02 5.955123e-02 6.430110e-02 7.087486e-02 7.694909e-02 8.495545e-02 9.272068e-02 1.024842e-01 1.122883e-01 1.241065e-01 1.362460e-01 1.503548e-01 1.650383e-01 1.815738e-01 1.988812e-01 2.178380e-01 2.376776e-01 2.588673e-01 2.809363e-01 3.039531e-01 3.277085e-01 3.519101e-01 3.765616e-01 4.010749e-01 4.256050e-01 4.493640e-01 4.725819e-01 4.943976e-01 5.150224e-01 5.336781e-01 5.504394e-01 5.647942e-01 5.765300e-01 5.856112e-01 5.913449e-01 5.944153e-01 5.934021e-01 5.900025e-01 5.817541e-01 5.717361e-01 5.560440e-01 5.396124e-01 5.165985e-01 4.943793e-01 4.645999e-01 4.377277e-01 4.023579e-01 3.725568e-01 3.336731e-01 3.032873e-01 2.642714e-01 2.362199e-01 2.022673e-01 1.798879e-01 1.579380e-01 1.440916e-01 1.388485e-01 1.329027e-01 1.396965e-01 1.369099e-01 1.464674e-01 1.432290e-01 1.506717e-01 1.468702e-01 1.517400e-01 1.490480e-01 1.521562e-01 1.512172e-01 1.529908e-01 1.541474e-01 1.533975e-01 1.563114e-01 1.522201e-01 1.560094e-01 1.487712e-01 1.524024e-01 1.431858e-01 1.465534e-01 1.372335e-01 1.406983e-01 1.321612e-01 1.356454e-01 1.279252e-01 1.310944e-01 1.239388e-01 1.264890e-01 1.196535e-01 1.214062e-01 1.147270e-01 1.156152e-01 1.090024e-01 1.090333e-01 1.024516e-01 1.016764e-01 9.512849e-02 9.362323e-02 8.713832e-02 8.499235e-02 7.861852e-02 
9.278947e-02 8.751016e-02 8.414962e-02 7.879869e-02 7.506322e-02 6.970273e-02 6.569462e-02 6.039984e-02 5.622713e-02 5.108994e-02 4.687135e-02 4.201027e-02 3.788828e-02 3.347540e-02 2.965229e-02 2.598183e-02 2.281254e-02 2.043485e-02 1.856720e-02 1.825120e-02 1.833141e-02 2.018208e-02 2.195594e-02 2.516549e-02 2.796372e-02 3.193620e-02 3.543725e-02 4.003263e-02 4.423626e-02 4.957538e-02 5.466383e-02 6.100453e-02 6.726122e-02 7.493304e-02 8.268961e-02 9.204736e-02 1.016400e-01 1.130226e-01 1.247523e-01 1.384431e-01 1.525377e-01 1.687236e-01 1.852990e-01 2.040287e-01 2.230492e-01 2.441908e-01 2.654305e-01 2.886345e-01 3.116470e-01 3.363226e-01 3.604267e-01 3.857410e-01 4.100334e-01 4.349422e-01 4.583437e-01 4.816578e-01 5.029948e-01 5.234776e-01 5.415893e-01 5.580705e-01 5.719232e-01 5.834025e-01 5.921840e-01 5.978981e-01 6.010722e-01 6.005095e-01 5.978251e-01 5.906966e-01 5.821702e-01 5.683703e-01 5.542729e-01 5.338724e-01 5.147503e-01 4.880664e-01 4.647994e-01 4.325792e-01 4.064387e-01 3.701683e-01 3.428112e-01 3.051170e-01 2.784795e-01 2.435052e-01 2.196684e-01 1.929846e-01 1.740480e-01 1.606424e-01 1.479121e-01 1.472662e-01 1.392926e-01 1.445688e-01 1.378179e-01 1.433267e-01 1.364182e-01 1.404280e-01 1.350339e-01 1.384037e-01 1.359412e-01 1.388818e-01 1.394273e-01 1.401727e-01 1.432204e-01 1.406925e-01 1.450686e-01 1.394541e-01 1.435705e-01 1.359520e-01 1.396695e-01 1.324846e-01 1.363657e-01 1.303795e-01 1.342606e-01 1.292106e-01 1.326563e-01 1.281095e-01 1.307973e-01 1.264373e-01 1.282176e-01 1.238543e-01 1.246960e-01 1.202233e-01 1.201608e-01 1.155245e-01 1.146250e-01 1.098050e-01 1.081515e-01 1.031515e-01 1.008344e-01 9.567637e-02 
7.943333e-02 7.398329e-02 7.117515e-02 6.592005e-02 6.273158e-02 5.776894e-02 5.433927e-02 4.978767e-02 4.628883e-02 4.229675e-02 3.895562e-02 3.571336e-02 3.284117e-02 3.058032e-02 2.857785e-02 2.750628e-02 2.674880e-02 2.688166e-02 2.747079e-02 2.854078e-02 3.024404e-02 3.189445e-02 3.439149e-02 3.639960e-02 3.948747e-02 4.181765e-02 4.545600e-02 4.822931e-02 5.252089e-02 5.597742e-02 6.113735e-02 6.560092e-02 7.192120e-02 7.776075e-02 8.556901e-02 9.315695e-02 1.027737e-01 1.124466e-01 1.241465e-01 1.361709e-01 1.501486e-01 1.646896e-01 1.810277e-01 1.981157e-01 2.167519e-01 2.362481e-01 2.569430e-01 2.785067e-01 3.008176e-01 3.238848e-01 3.471545e-01 3.709366e-01 3.943061e-01 4.178173e-01 4.402709e-01 4.623901e-01 4.828337e-01 5.023955e-01 5.197592e-01 5.356622e-01 5.490075e-01 5.603134e-01 5.689222e-01 5.749238e-01 5.783517e-01 5.785986e-01 5.766990e-01 5.709929e-01 5.639279e-01 5.523062e-01 5.405567e-01 5.232796e-01 5.076416e-01 4.851958e-01 4.667230e-01 4.398726e-01 4.197070e-01 3.896299e-01 3.686964e-01 3.372114e-01 3.159017e-01 2.856749e-01 2.638679e-01 2.382837e-01 2.160547e-01 1.982965e-01 1.769943e-01 1.682172e-01 1.501803e-01 1.481637e-01 1.342252e-01 1.353634e-01 1.253391e-01 1.275390e-01 1.226082e-01 1.249664e-01 1.227689e-01 1.258005e-01 1.267251e-01 1.266866e-01 1.307615e-01 1.263091e-01 1.325601e-01 1.244291e-01 1.305088e-01 1.203587e-01 1.258773e-01 1.170084e-01 1.227518e-01 1.155999e-01 1.211994e-01 1.150941e-01 1.199846e-01 1.143460e-01 1.182223e-01 1.127391e-01 1.155183e-01 1.100490e-01 1.117604e-01 1.062484e-01 1.069667e-01 1.013997e-01 1.012154e-01 9.560866e-02 9.461722e-02 8.900605e-02 8.730550e-02 8.174163e-02 
9.732243e-02 9.286072e-02 8.969584e-02 8.504963e-02 8.139822e-02 7.663490e-02 7.260493e-02 6.781157e-02 6.352503e-02 5.881264e-02 5.441195e-02 4.992447e-02 4.558513e-02 4.151857e-02 3.747577e-02 3.411412e-02 3.071107e-02 2.846592e-02 2.618737e-02 2.552393e-02 2.482660e-02 2.589769e-02 2.679341e-02 2.922535e-02 3.131765e-02 3.464744e-02 3.760601e-02 4.163718e-02 4.539276e-02 5.019622e-02 5.489996e-02 6.072524e-02 6.666777e-02 7.386296e-02 8.139751e-02 9.034041e-02 9.981508e-02 1.108543e-01 1.225580e-01 1.359650e-01 1.500863e-01 1.660155e-01 1.826098e-01 2.010610e-01 2.200187e-01 2.408021e-01 2.618202e-01 2.845259e-01 3.070866e-01 3.310695e-01 3.544365e-01 3.788258e-01 4.020690e-01 4.258130e-01 4.478698e-01 4.698196e-01 4.895942e-01 5.086235e-01 5.251137e-01 5.402529e-01 5.526795e-01 5.632327e-01 5.711366e-01 5.767397e-01 5.800167e-01 5.806118e-01 5.794745e-01 5.752059e-01 5.700926e-01 5.611635e-01 5.526291e-01 5.391660e-01 5.277823e-01 5.097595e-01 4.960174e-01 4.733144e-01 4.574948e-01 4.301605e-01 4.121635e-01 3.808990e-01 3.601674e-01 3.268921e-01 3.027707e-01 2.709252e-01 2.437537e-01 2.177811e-01 1.903199e-01 1.737528e-01 1.506304e-01 1.434047e-01 1.257195e-01 1.251175e-01 1.107586e-01 1.116044e-01 1.019746e-01 1.046289e-01 1.003609e-01 1.048444e-01 1.047318e-01 1.061517e-01 1.105812e-01 1.074801e-01 1.153160e-01 1.090523e-01 1.165522e-01 1.080155e-01 1.145387e-01 1.084806e-01 1.153016e-01 1.114128e-01 1.178615e-01 1.149425e-01 1.203550e-01 1.177008e-01 1.218480e-01 1.191518e-01 1.220445e-01 1.191737e-01 1.209033e-01 1.177929e-01 1.184665e-01 1.150821e-01 1.148024e-01 1.111295e-01 1.099924e-01 1.060333e-01 1.041299e-01 9.990261e-02 
8.434503e-02 7.981270e-02 7.743290e-02 7.299222e-02 7.014260e-02 6.589028e-02 6.271530e-02 5.876774e-02 5.544678e-02 5.194182e-02 4.870121e-02 4.579690e-02 4.291823e-02 4.077933e-02 3.858530e-02 3.734140e-02 3.612667e-02 3.580089e-02 3.571207e-02 3.617917e-02 3.715009e-02 3.819874e-02 4.003197e-02 4.148918e-02 4.400280e-02 4.582000e-02 4.894593e-02 5.122521e-02 5.504338e-02 5.802919e-02 6.276036e-02 6.680815e-02 7.277555e-02 7.829751e-02 8.586454e-02 9.326259e-02 1.027642e-01 1.123709e-01 1.240586e-01 1.360981e-01 1.501049e-01 1.646685e-01 1.809852e-01 1.980104e-01 2.164661e-01 2.357141e-01 2.559585e-01 2.769953e-01 2.984885e-01 3.206773e-01 3.426960e-01 3.652125e-01 3.868826e-01 4.087611e-01 4.291222e-01 4.493365e-01 4.674380e-01 4.850089e-01 5.000252e-01 5.141348e-01 5.254696e-01 5.355524e-01 5.429037e-01 5.486848e-01 5.520595e-01 5.535362e-01 5.532368e-01 5.506295e-01 5.472394e-01 5.409243e-01 5.352763e-01 5.256606e-01 5.187023e-01 5.059996e-01 4.984559e-01 4.824391e-01 4.742575e-01 4.542323e-01 4.440373e-01 4.193132e-01 4.043760e-01 3.752111e-01 3.524386e-01 3.208750e-01 2.888567e-01 2.585810e-01 2.200423e-01 1.950313e-01 1.580187e-01 1.413565e-01 1.138510e-01 1.073839e-01 9.007119e-02 9.011160e-02 8.545268e-02 8.655556e-02 8.176464e-02 8.827561e-02 8.690323e-02 8.751420e-02 9.194379e-02 8.579297e-02 9.617865e-02 8.644364e-02 9.739197e-02 8.630497e-02 9.582473e-02 8.905739e-02 9.881748e-02 9.443491e-02 1.031752e-01 9.944356e-02 1.065408e-01 1.028436e-01 1.082961e-01 1.044782e-01 1.084644e-01 1.044945e-01 1.072010e-01 1.030764e-01 1.046593e-01 1.003879e-01 1.009740e-01 9.657446e-02 9.627094e-02 9.177530e-02 9.068002e-02 8.613488e-02 
1.035318e-01 1.000502e-01 9.716262e-02 9.333841e-02 8.981554e-02 8.571649e-02 8.166797e-02 7.738848e-02 7.294772e-02 6.861288e-02 6.394361e-02 5.971564e-02 5.502192e-02 5.111114e-02 4.665437e-02 4.333544e-02 3.945790e-02 3.707714e-02 3.420380e-02 3.311925e-02 3.164659e-02 3.202958e-02 3.207310e-02 3.374207e-02 3.506387e-02 3.766666e-02 3.996135e-02 4.328652e-02 4.644490e-02 5.053756e-02 5.470178e-02 5.982957e-02 6.533145e-02 7.189773e-02 7.915320e-02 8.759437e-02 9.699416e-02 1.076885e-01 1.195171e-01 1.327226e-01 1.471129e-01 1.629297e-01 1.798397e-01 1.981815e-01 2.173751e-01 2.379429e-01 2.589743e-01 2.812360e-01 3.034421e-01 3.266298e-01 3.491444e-01 3.722838e-01 3.940872e-01 4.160705e-01 4.360822e-01 4.557883e-01 4.730032e-01 4.894557e-01 5.031059e-01 5.156417e-01 5.253470e-01 5.337498e-01 5.396093e-01 5.441490e-01 5.467324e-01 5.480653e-01 5.482879e-01 5.472199e-01 5.461171e-01 5.432852e-01 5.417398e-01 5.372640e-01 5.357257e-01 5.288977e-01 5.270971e-01 5.162708e-01 5.129369e-01 4.958702e-01 4.885505e-01 4.633302e-01 4.486091e-01 4.149652e-01 3.895650e-01 3.499929e-01 3.130103e-01 2.727830e-01 2.284494e-01 1.937677e-01 1.531227e-01 1.293342e-01 1.004024e-01 9.593271e-02 7.408176e-02 7.108024e-02 5.612097e-02 5.902713e-02 5.244646e-02 6.026045e-02 5.606950e-02 5.736529e-02 6.175154e-02 5.562396e-02 6.895244e-02 6.182792e-02 7.626193e-02 6.793208e-02 7.976973e-02 7.779113e-02 8.967352e-02 8.951508e-02 9.939762e-02 9.922774e-02 1.068382e-01 1.063574e-01 1.120282e-01 1.112251e-01 1.152959e-01 1.141646e-01 1.168847e-01 1.154012e-01 1.169440e-01 1.150790e-01 1.155675e-01 1.132980e-01 1.128259e-01 1.101412e-01 1.087873e-01 1.056924e-01 
9.076030e-02 8.723989e-02 8.539400e-02 8.181555e-02 7.936989e-02 7.582141e-02 7.291578e-02 6.950606e-02 6.631886e-02 6.317623e-02 5.993129e-02 5.719866e-02 5.416593e-02 5.198755e-02 4.946707e-02 4.796066e-02 4.623448e-02 4.544939e-02 4.470195e-02 4.458754e-02 4.484187e-02 4.526635e-02 4.640265e-02 4.722840e-02 4.908468e-02 5.025675e-02 5.274435e-02 5.435414e-02 5.753808e-02 5.985185e-02 6.398034e-02 6.742368e-02 7.289608e-02 7.798083e-02 8.525340e-02 9.246306e-02 1.019295e-01 1.116172e-01 1.235199e-01 1.358582e-01 1.502496e-01 1.652191e-01 1.819516e-01 1.993379e-01 2.180599e-01 2.374454e-01 2.576007e-01 2.783606e-01 2.992002e-01 3.205166e-01 3.411359e-01 3.620468e-01 3.814600e-01 4.009514e-01 4.182085e-01 4.353464e-01 4.496821e-01 4.637633e-01 4.747439e-01 4.854235e-01 4.930373e-01 5.003815e-01 5.050223e-01 5.094521e-01 5.118120e-01 5.139700e-01 5.149351e-01 5.155684e-01 5.161954e-01 5.160736e-01 5.175647e-01 5.172440e-01 5.206747e-01 5.199155e-01 5.255280e-01 5.225847e-01 5.287872e-01 5.202775e-01 5.229512e-01 5.049790e-01 4.978379e-01 4.682171e-01 4.446484e-01 4.050267e-01 3.613582e-01 3.173769e-01 2.567084e-01 2.144025e-01 1.514970e-01 1.159161e-01 7.380265e-02 6.190729e-02 4.354023e-02 4.297950e-02 4.570767e-02 4.420522e-02 2.997125e-02 4.308339e-02 3.445995e-02 3.405993e-02 3.333392e-02 2.349736e-02 3.693935e-02 2.222013e-02 4.495776e-02 3.909205e-02 5.800926e-02 5.801563e-02 7.433722e-02 7.376882e-02 8.593212e-02 8.446917e-02 9.353883e-02 9.160451e-02 9.843758e-02 9.623926e-02 1.013630e-01 9.896162e-02 1.026975e-01 1.000968e-01 1.026464e-01 9.983708e-02 1.013336e-01 9.831233e-02 9.885175e-02 9.562945e-02 9.529170e-02 9.189666e-02 
1.116521e-01 1.092660e-01 1.067565e-01 1.038305e-01 1.004993e-01 9.709473e-02 9.304668e-02 8.926038e-02 8.463618e-02 8.060429e-02 7.558704e-02 7.148898e-02 6.631123e-02 6.237482e-02 5.732826e-02 5.383478e-02 4.928009e-02 4.655878e-02 4.291501e-02 4.129291e-02 3.895121e-02 3.861785e-02 3.775326e-02 3.862029e-02 3.908208e-02 4.085814e-02 4.235029e-02 4.480635e-02 4.718062e-02 5.034401e-02 5.375069e-02 5.794037e-02 6.280703e-02 6.854721e-02 7.543243e-02 8.328917e-02 9.269001e-02 1.031118e-01 1.153283e-01 1.285599e-01 1.436497e-01 1.597073e-01 1.774845e-01 1.961456e-01 2.161807e-01 2.369669e-01 2.585804e-01 2.807426e-01 3.030099e-01 3.255381e-01 3.473267e-01 3.690093e-01 3.890702e-01 4.086206e-01 4.257477e-01 4.420008e-01 4.552495e-01 4.674030e-01 4.763292e-01 4.841775e-01 4.890272e-01 4.931165e-01 4.948872e-01 4.965066e-01 4.968350e-01 4.977659e-01 4.986247e-01 5.006439e-01 5.038464e-01 5.081125e-01 5.147865e-01 5.212410e-01 5.314230e-01 5.382765e-01 5.506050e-01 5.541156e-01 5.655113e-01 5.604815e-01 5.659155e-01 5.472049e-01 5.399554e-01 5.047205e-01 4.780187e-01 4.279621e-01 3.789463e-01 3.212385e-01 2.555197e-01 1.984998e-01 1.370772e-01 8.515279e-02 5.479689e-02 6.058888e-02 4.537004e-02 3.239636e-02 1.407717e-02 1.883214e-02 5.068637e-03 2.129615e-02 1.036402e-02 2.259231e-02 1.892566e-02 2.757012e-02 1.682637e-02 3.119495e-02 6.342170e-03 1.638409e-02 4.342801e-02 5.061690e-02 6.893623e-02 7.194243e-02 8.435683e-02 8.602503e-02 9.504261e-02 9.626348e-02 1.030265e-01 1.039734e-01 1.090488e-01 1.096930e-01 1.133873e-01 1.136549e-01 1.161417e-01 1.159592e-01 1.173396e-01 1.166473e-01 1.169844e-01 1.157405e-01 1.150807e-01 1.132644e-01 
9.892079e-02 9.645896e-02 9.526213e-02 9.256169e-02 9.059706e-02 8.773154e-02 8.512506e-02 8.219404e-02 7.911851e-02 7.624531e-02 7.292482e-02 7.025067e-02 6.695827e-02 6.462992e-02 6.167157e-02 5.981884e-02 5.749377e-02 5.619679e-02 5.473187e-02 5.398988e-02 5.347288e-02 5.320167e-02 5.356551e-02 5.364407e-02 5.473309e-02 5.508879e-02 5.678069e-02 5.748392e-02 5.981672e-02 6.116019e-02 6.442228e-02 6.694918e-02 7.168054e-02 7.610054e-02 8.295537e-02 8.993834e-02 9.945906e-02 1.094324e-01 1.218864e-01 1.349641e-01 1.503071e-01 1.663160e-01 1.842126e-01 2.027206e-01 2.225590e-01 2.428763e-01 2.637755e-01 2.849529e-01 3.057886e-01 3.266483e-01 3.461250e-01 3.653562e-01 3.821522e-01 3.984919e-01 4.114875e-01 4.239804e-01 4.325521e-01 4.408372e-01 4.451336e-01 4.496471e-01 4.506907e-01 4.526414e-01 4.521028e-01 4.531407e-01 4.528420e-01 4.545599e-01 4.560844e-01 4.597401e-01 4.644556e-01 4.710739e-01 4.803628e-01 4.906111e-01 5.056456e-01 5.188298e-01 5.395003e-01 5.520858e-01 5.753864e-01 5.805480e-01 5.995162e-01 5.890397e-01 5.931679e-01 5.614074e-01 5.388309e-01 4.871230e-01 4.294997e-01 3.689055e-01 2.766487e-01 2.193543e-01 1.106596e-01 5.092964e-02 4.760936e-03 3.743058e-02 5.083069e-02 6.853655e-02 2.787656e-02 2.844419e-02 2.013859e-02 2.605854e-02 2.026384e-02 2.410819e-02 1.954975e-02 2.200721e-02 1.827761e-02 2.263558e-02 3.276989e-02 3.428938e-02 5.257347e-02 5.080255e-02 6.632976e-02 6.422663e-02 7.631831e-02 7.468613e-02 8.415294e-02 8.293763e-02 9.044046e-02 8.943241e-02 9.539705e-02 9.441412e-02 9.910005e-02 9.800657e-02 1.015649e-01 1.002650e-01 1.027813e-01 1.012129e-01 1.027377e-01 1.008681e-01 1.014390e-01 9.926282e-02 
1.220818e-01 1.208801e-01 1.188737e-01 1.169037e-01 1.138496e-01 1.111568e-01 1.071455e-01 1.038227e-01 9.899670e-02 9.518830e-02 8.974866e-02 8.565254e-02 7.986282e-02 7.573087e-02 6.992110e-02 6.605684e-02 6.062435e-02 5.736991e-02 5.276159e-02 5.045106e-02 4.708664e-02 4.593556e-02 4.404319e-02 4.401507e-02 4.349338e-02 4.431330e-02 4.484005e-02 4.622739e-02 4.757798e-02 4.951678e-02 5.183814e-02 5.472373e-02 5.861289e-02 6.320374e-02 6.951745e-02 7.665649e-02 8.612835e-02 9.641146e-02 1.093867e-01 1.230351e-01 1.394583e-01 1.563567e-01 1.758418e-01 1.955744e-01 2.174297e-01 2.392644e-01 2.624794e-01 2.853368e-01 3.085770e-01 3.310327e-01 3.526885e-01 3.730591e-01 3.913905e-01 4.079456e-01 4.213571e-01 4.326679e-01 4.401080e-01 4.454829e-01 4.468845e-01 4.467670e-01 4.433578e-01 4.395378e-01 4.338424e-01 4.293512e-01 4.248330e-01 4.233630e-01 4.237067e-01 4.284528e-01 4.363510e-01 4.487746e-01 4.649978e-01 4.842543e-01 5.077447e-01 5.305591e-01 5.587709e-01 5.791112e-01 6.074900e-01 6.167543e-01 6.378806e-01 6.269014e-01 6.300248e-01 5.922698e-01 5.646037e-01 4.995591e-01 4.337706e-01 3.517323e-01 2.549630e-01 1.711840e-01 8.059219e-02 5.103488e-02 1.173114e-01 8.682259e-02 8.252062e-02 1.113369e-01 6.491061e-02 1.776838e-02 2.412888e-02 1.432511e-02 2.130104e-02 3.830886e-02 4.409861e-02 5.040794e-02 5.563907e-02 6.312810e-02 6.357628e-02 6.069095e-02 6.648065e-02 5.906020e-02 6.952800e-02 6.739379e-02 7.763708e-02 7.836608e-02 8.705220e-02 8.898789e-02 9.612751e-02 9.846350e-02 1.042572e-01 1.065682e-01 1.111657e-01 1.131938e-01 1.166736e-01 1.182441e-01 1.206336e-01 1.216199e-01 1.229183e-01 1.232280e-01 1.234239e-01 1.229940e-01 
1.092770e-01 1.078977e-01 1.074805e-01 1.056676e-01 1.042787e-01 1.020834e-01 9.982457e-02 9.733338e-02 9.436693e-02 9.169912e-02 8.825114e-02 8.555237e-02 8.190875e-02 7.933853e-02 7.582821e-02 7.353857e-02 7.049650e-02 6.860083e-02 6.630618e-02 6.484466e-02 6.344750e-02 6.236866e-02 6.184651e-02 6.103051e-02 6.122100e-02 6.055540e-02 6.127367e-02 6.077205e-02 6.198336e-02 6.193193e-02 6.393838e-02 6.502852e-02 6.858025e-02 7.187794e-02 7.801786e-02 8.459712e-02 9.419931e-02 1.046690e-01 1.180809e-01 1.324702e-01 1.495191e-01 1.674364e-01 1.875486e-01 2.082838e-01 2.305234e-01 2.530384e-01 2.760921e-01 2.989810e-01 3.211618e-01 3.426605e-01 3.619887e-01 3.800990e-01 3.945162e-01 4.073032e-01 4.150723e-01 4.211632e-01 4.214680e-01 4.206913e-01 4.143233e-01 4.082587e-01 3.980133e-01 3.900273e-01 3.801882e-01 3.744886e-01 3.691691e-01 3.690210e-01 3.706020e-01 3.772965e-01 3.865517e-01 4.004346e-01 4.180023e-01 4.395547e-01 4.665928e-01 4.951754e-01 5.320168e-01 5.627405e-01 6.058464e-01 6.276799e-01 6.675309e-01 6.659311e-01 6.873523e-01 6.505590e-01 6.336189e-01 5.595608e-01 4.861810e-01 3.954261e-01 2.542538e-01 2.044775e-01 6.271449e-02 1.456065e-01 5.748703e-02 3.088195e-02 7.691582e-02 9.715875e-02 1.023275e-01 1.028126e-01 9.743951e-02 1.018834e-01 1.023194e-01 8.945657e-02 1.025859e-01 8.001441e-02 1.066371e-01 7.449782e-02 9.421679e-02 6.767356e-02 7.487906e-02 6.081906e-02 7.084234e-02 6.374489e-02 7.357836e-02 7.030809e-02 7.903545e-02 7.778045e-02 8.533586e-02 8.508868e-02 9.158377e-02 9.177594e-02 9.729715e-02 9.758302e-02 1.021616e-01 1.023171e-01 1.059442e-01 1.058205e-01 1.084670e-01 1.079679e-01 1.096025e-01 1.086728e-01 
1.354248e-01 1.354902e-01 1.341389e-01 1.331830e-01 1.305138e-01 1.285525e-01 1.246291e-01 1.217426e-01 1.167027e-01 1.130397e-01 1.071010e-01 1.028798e-01 9.634146e-02 9.184559e-02 8.508651e-02 8.065601e-02 7.412838e-02 7.014042e-02 6.434625e-02 6.116778e-02 5.658477e-02 5.447044e-02 5.139205e-02 5.034396e-02 4.870468e-02 4.843151e-02 4.784021e-02 4.795052e-02 4.801789e-02 4.836218e-02 4.913325e-02 5.013926e-02 5.242604e-02 5.525633e-02 6.052800e-02 6.664912e-02 7.618388e-02 8.649924e-02 1.006975e-01 1.153228e-01 1.338979e-01 1.524816e-01 1.747716e-01 1.966507e-01 2.216616e-01 2.458088e-01 2.721372e-01 2.970551e-01 3.228193e-01 3.464795e-01 3.693332e-01 3.892458e-01 4.065518e-01 4.200654e-01 4.293196e-01 4.342240e-01 4.337816e-01 4.291562e-01 4.191484e-01 4.061902e-01 3.892533e-01 3.717270e-01 3.530610e-01 3.372069e-01 3.238733e-01 3.173436e-01 3.165844e-01 3.249085e-01 3.398261e-01 3.627785e-01 3.908146e-01 4.244470e-01 4.619033e-01 5.016559e-01 5.460354e-01 5.848137e-01 6.317249e-01 6.572752e-01 6.976622e-01 6.957440e-01 7.144584e-01 6.740559e-01 6.469897e-01 5.609000e-01 4.681221e-01 3.450056e-01 1.827475e-01 5.458600e-02 1.443044e-01 5.640935e-02 9.701817e-02 3.784860e-02 1.146804e-01 1.701556e-01 1.191069e-01 5.085324e-02 9.872804e-02 4.760281e-02 7.428829e-02 2.801763e-02 6.222676e-02 1.395581e-02 5.474081e-02 1.125089e-02 6.154770e-02 3.649964e-02 5.937365e-02 5.094703e-02 6.478458e-02 6.231515e-02 7.250811e-02 7.332740e-02 8.175560e-02 8.443555e-02 9.172638e-02 9.530218e-02 1.016578e-01 1.055123e-01 1.109730e-01 1.147034e-01 1.192336e-01 1.225606e-01 1.260858e-01 1.288017e-01 1.312298e-01 1.331734e-01 1.344106e-01 1.354578e-01 
1.225278e-01 1.222498e-01 1.227585e-01 1.218495e-01 1.211481e-01 1.196254e-01 1.177785e-01 1.157077e-01 1.128602e-01 1.103529e-01 1.067325e-01 1.039398e-01 9.985194e-02 9.695062e-02 9.275984e-02 8.992989e-02 8.602238e-02 8.341417e-02 8.013559e-02 7.782991e-02 7.540338e-02 7.337826e-02 7.183348e-02 6.996282e-02 6.912809e-02 6.723619e-02 6.683047e-02 6.481371e-02 6.464208e-02 6.267426e-02 6.292795e-02 6.177260e-02 6.339921e-02 6.466761e-02 6.942570e-02 7.509159e-02 8.461888e-02 9.572761e-02 1.105206e-01 1.268847e-01 1.465186e-01 1.673805e-01 1.909753e-01 2.153025e-01 2.415804e-01 2.679736e-01 2.951452e-01 3.216749e-01 3.473486e-01 3.714632e-01 3.926656e-01 4.112692e-01 4.246680e-01 4.344939e-01 4.369544e-01 4.353690e-01 4.249838e-01 4.112469e-01 3.888555e-01 3.655867e-01 3.363488e-01 3.105340e-01 2.841534e-01 2.662388e-01 2.532291e-01 2.512971e-01 2.554370e-01 2.683194e-01 2.854693e-01 3.083599e-01 3.349144e-01 3.670660e-01 4.043401e-01 4.475099e-01 4.992970e-01 5.499648e-01 6.144893e-01 6.566149e-01 7.217945e-01 7.309806e-01 7.783250e-01 7.336398e-01 7.336878e-01 6.193173e-01 5.444463e-01 3.768432e-01 1.815892e-01 7.280155e-02 1.101216e-01 9.807578e-02 2.834010e-02 2.232712e-01 1.961321e-01 4.799551e-02 2.971082e-02 4.493712e-02 2.381840e-02 3.827127e-02 1.051433e-02 5.016457e-02 1.806669e-02 5.407593e-02 2.655945e-02 5.266377e-02 6.724706e-02 2.720625e-02 5.745851e-02 4.787320e-02 6.549356e-02 6.043947e-02 7.153536e-02 6.874583e-02 7.728516e-02 7.631416e-02 8.376795e-02 8.410335e-02 9.092066e-02 9.203975e-02 9.828302e-02 9.974926e-02 1.053401e-01 1.068214e-01 1.116339e-01 1.128869e-01 1.167849e-01 1.176341e-01 1.204909e-01 1.208142e-01 