# vtk DataFile Version 2.0
Comment goes here
ASCII

DATASET STRUCTURED_POINTS
DIMENSIONS    128   128   1

ORIGIN    0.000   0.000   0.000
SPACING   0.0156250.015625   1.000

POINT_DATA   16384
SCALARS uMag double
LOOKUP_TABLE default

2.262054e-01 2.215677e-01 2.193848e-01 2.141343e-01 2.112621e-01 2.052598e-01 2.016783e-01 1.948458e-01 1.905748e-01 1.828890e-01 1.779817e-01 1.694673e-01 1.640010e-01 1.547200e-01 1.487851e-01 1.388243e-01 1.325121e-01 1.219682e-01 1.153563e-01 1.043190e-01 9.745706e-02 8.599255e-02 7.888743e-02 6.702060e-02 5.962291e-02 4.732205e-02 3.951457e-02 2.667856e-02 1.826842e-02 4.718611e-03 4.565344e-03 1.908669e-02 2.958911e-02 4.541187e-02 5.753716e-02 7.504559e-02 8.923299e-02 1.088360e-01 1.255224e-01 1.476107e-01 1.671816e-01 1.920727e-01 2.148019e-01 2.426754e-01 2.686585e-01 2.994872e-01 3.285743e-01 3.620582e-01 3.937968e-01 4.293110e-01 4.629080e-01 4.994758e-01 5.337922e-01 5.700937e-01 6.036790e-01 6.381030e-01 6.692738e-01 7.000104e-01 7.269659e-01 7.521317e-01 7.730928e-01 7.908688e-01 8.042189e-01 8.129811e-01 8.173910e-01 8.158187e-01 8.103449e-01 7.975049e-01 7.816662e-01 7.570844e-01 7.309286e-01 6.946694e-01 6.588408e-01 6.116007e-01 5.674011e-01 5.106026e-01 4.600128e-01 3.958540e-01 3.414704e-01 2.728748e-01 2.177334e-01 1.481680e-01 9.546930e-02 2.863157e-02 1.859876e-02 7.921201e-02 1.185193e-01 1.701608e-01 2.001740e-01 2.414466e-01 2.623555e-01 2.935575e-01 3.071115e-01 3.298252e-01 3.383875e-01 3.543597e-01 3.596289e-01 3.698939e-01 3.727789e-01 3.773732e-01 3.780567e-01 3.766681e-01 3.749186e-01 3.676872e-01 3.634843e-01 3.516108e-01 3.457360e-01 3.314560e-01 3.252007e-01 3.107422e-01 3.051763e-01 2.920321e-01 2.876888e-01 2.765335e-01 2.734853e-01 2.644048e-01 2.624539e-01 2.552014e-01 2.540353e-01 2.482138e-01 2.474980e-01 2.426677e-01 2.420913e-01 2.378267e-01 2.371225e-01 2.330404e-01 2.319913e-01 2.277644e-01 
2.437470e-01 2.403563e-01 2.376423e-01 2.333655e-01 2.300293e-01 2.247120e-01 2.207408e-01 2.142943e-01 2.097133e-01 2.021102e-01 1.969760e-01 1.882429e-01 1.826346e-01 1.728422e-01 1.668502e-01 1.561004e-01 1.498143e-01 1.382250e-01 1.317202e-01 1.194093e-01 1.127330e-01 9.980233e-02 9.296193e-02 7.948605e-02 7.244253e-02 5.847635e-02 5.116233e-02 3.685094e-02 2.935449e-02 1.626970e-02 1.221089e-02 1.878148e-02 2.749666e-02 4.440453e-02 5.590804e-02 7.530783e-02 8.907609e-02 1.107566e-01 1.271093e-01 1.513190e-01 1.706118e-01 1.976022e-01 2.200948e-01 2.499989e-01 2.757744e-01 3.085242e-01 3.374188e-01 3.726763e-01 4.042217e-01 4.413280e-01 4.747151e-01 5.126663e-01 5.467428e-01 5.842033e-01 6.175111e-01 6.528704e-01 6.837277e-01 7.151970e-01 7.418173e-01 7.675566e-01 7.881885e-01 8.064414e-01 8.195078e-01 8.287226e-01 8.329388e-01 8.318614e-01 8.263216e-01 8.140615e-01 7.983022e-01 7.743896e-01 7.484467e-01 7.129086e-01 6.773862e-01 6.308546e-01 5.870015e-01 5.308456e-01 4.806084e-01 4.170531e-01 3.630745e-01 2.953085e-01 2.409490e-01 1.736162e-01 1.240376e-01 7.038407e-02 5.464641e-02 8.520368e-02 1.187341e-01 1.668176e-01 1.962120e-01 2.365503e-01 2.573876e-01 2.884626e-01 3.016587e-01 3.247896e-01 3.326841e-01 3.495128e-01 3.540793e-01 3.655658e-01 3.678314e-01 3.740085e-01 3.741398e-01 3.746633e-01 3.723646e-01 3.672778e-01 3.624694e-01 3.528682e-01 3.463373e-01 3.344473e-01 3.275212e-01 3.155527e-01 3.093136e-01 2.987109e-01 2.936874e-01 2.850694e-01 2.813281e-01 2.747323e-01 2.720752e-01 2.672159e-01 2.653357e-01 2.617837e-01 2.603552e-01 2.576420e-01 2.563658e-01 2.540386e-01 2.526595e-01 2.503088e-01 2.486219e-01 2.458956e-01 
2.264388e-01 2.219584e-01 2.198717e-01 2.147486e-01 2.119605e-01 2.060607e-01 2.025575e-01 1.958072e-01 1.916146e-01 1.839958e-01 1.791721e-01 1.707158e-01 1.653438e-01 1.561210e-01 1.502981e-01 1.404083e-01 1.342355e-01 1.237951e-01 1.173657e-01 1.064967e-01 9.988822e-02 8.871386e-02 8.198740e-02 7.065100e-02 6.388056e-02 5.264926e-02 4.606882e-02 3.583430e-02 3.058755e-02 2.526115e-02 2.579199e-02 3.196984e-02 3.946630e-02 5.246751e-02 6.337731e-02 7.960081e-02 9.310024e-02 1.119447e-01 1.281399e-01 1.496936e-01 1.688568e-01 1.933203e-01 2.156763e-01 2.431741e-01 2.687931e-01 2.992680e-01 3.279857e-01 3.611205e-01 3.924759e-01 4.276373e-01 4.608346e-01 4.970443e-01 5.309472e-01 5.668912e-01 6.000586e-01 6.341391e-01 6.649053e-01 6.953351e-01 7.219272e-01 7.468561e-01 7.675349e-01 7.851890e-01 7.983911e-01 8.072028e-01 8.116646e-01 8.103771e-01 8.052307e-01 7.929766e-01 7.778222e-01 7.541897e-01 7.291599e-01 6.942714e-01 6.601028e-01 6.147263e-01 5.728382e-01 5.185374e-01 4.711047e-01 4.104444e-01 3.604918e-01 2.974724e-01 2.493014e-01 1.911554e-01 1.529952e-01 1.192350e-01 1.120207e-01 1.306342e-01 1.518620e-01 1.905354e-01 2.131599e-01 2.489124e-01 2.656763e-01 2.938645e-01 3.047696e-01 3.257140e-01 3.326864e-01 3.476909e-01 3.520048e-01 3.619320e-01 3.643681e-01 3.689441e-01 3.696650e-01 3.683396e-01 3.669847e-01 3.597373e-01 3.560167e-01 3.439950e-01 3.385867e-01 3.242743e-01 3.185230e-01 3.042723e-01 2.992527e-01 2.865088e-01 2.827131e-01 2.720493e-01 2.695079e-01 2.609278e-01 2.594183e-01 2.526279e-01 2.518297e-01 2.464122e-01 2.459937e-01 2.415058e-01 2.411651e-01 2.371856e-01 2.366662e-01 2.328194e-01 2.319156e-01 2.278815e-01 
2.444215e-01 2.413673e-01 2.388215e-01 2.348167e-01 2.316176e-01 2.265161e-01 2.226612e-01 2.163820e-01 2.119059e-01 2.044306e-01 1.993984e-01 1.907650e-01 1.852646e-01 1.755597e-01 1.696928e-01 1.590407e-01 1.529120e-01 1.414633e-01 1.351710e-01 1.230932e-01 1.167211e-01 1.041976e-01 9.781733e-02 8.507357e-02 7.877349e-02 6.619056e-02 6.019958e-02 4.874980e-02 4.391486e-02 3.667663e-02 3.572270e-02 3.855023e-02 4.389530e-02 5.595383e-02 6.560010e-02 8.250385e-02 9.517420e-02 1.153441e-01 1.309074e-01 1.540484e-01 1.726880e-01 1.988315e-01 2.207309e-01 2.499054e-01 2.751064e-01 3.071857e-01 3.354971e-01 3.701070e-01 4.010409e-01 4.374987e-01 4.702334e-01 5.075229e-01 5.409018e-01 5.776877e-01 6.102615e-01 6.449496e-01 6.750638e-01 7.059045e-01 7.318251e-01 7.570459e-01 7.771061e-01 7.950513e-01 8.077933e-01 8.170426e-01 8.213318e-01 8.207806e-01 8.158801e-01 8.047834e-01 7.903978e-01 7.684035e-01 7.447193e-01 7.119309e-01 6.796824e-01 6.367898e-01 5.973592e-01 5.458572e-01 5.013956e-01 4.439113e-01 3.974902e-01 3.383727e-01 2.943919e-01 2.412692e-01 2.069764e-01 1.745985e-01 1.618842e-01 1.663054e-01 1.764214e-01 2.040286e-01 2.204104e-01 2.505532e-01 2.635436e-01 2.888715e-01 2.966806e-01 3.164558e-01 3.208455e-01 3.358120e-01 3.383165e-01 3.491002e-01 3.504495e-01 3.565903e-01 3.568494e-01 3.575812e-01 3.561655e-01 3.511763e-01 3.474085e-01 3.375822e-01 3.320323e-01 3.201464e-01 3.142614e-01 3.027748e-01 2.976412e-01 2.878890e-01 2.839524e-01 2.763497e-01 2.735991e-01 2.680258e-01 2.662213e-01 2.623044e-01 2.611292e-01 2.584042e-01 2.575426e-01 2.555357e-01 2.547069e-01 2.529740e-01 2.519442e-01 2.500892e-01 2.486739e-01 2.463579e-01 
2.271701e-01 2.231517e-01 2.213457e-01 2.165980e-01 2.140562e-01 2.084589e-01 2.051863e-01 1.986785e-01 1.947164e-01 1.872941e-01 1.827151e-01 1.744270e-01 1.693282e-01 1.602694e-01 1.547650e-01 1.450698e-01 1.392847e-01 1.291202e-01 1.231842e-01 1.127500e-01 1.068001e-01 9.634365e-02 9.054262e-02 8.041611e-02 7.501493e-02 6.583489e-02 6.133830e-02 5.435139e-02 5.183501e-02 4.927251e-02 5.034146e-02 5.412319e-02 5.944681e-02 6.896279e-02 7.788872e-02 9.158155e-02 1.035717e-01 1.206154e-01 1.355886e-01 1.557618e-01 1.738482e-01 1.971602e-01 2.184969e-01 2.449564e-01 2.695562e-01 2.990317e-01 3.266908e-01 3.588171e-01 3.890493e-01 4.231661e-01 4.551649e-01 4.902881e-01 5.229242e-01 5.577564e-01 5.896179e-01 6.226037e-01 6.520812e-01 6.815059e-01 7.069163e-01 7.310365e-01 7.507688e-01 7.679547e-01 7.806137e-01 7.894761e-01 7.940037e-01 7.934875e-01 7.892494e-01 7.786929e-01 7.655381e-01 7.447171e-01 7.230287e-01 6.922220e-01 6.629796e-01 6.230973e-01 5.879562e-01 5.407689e-01 5.021356e-01 4.506455e-01 4.117403e-01 3.607856e-01 3.257589e-01 2.829368e-01 2.570241e-01 2.326827e-01 2.207749e-01 2.211824e-01 2.221272e-01 2.396791e-01 2.458754e-01 2.678796e-01 2.732788e-01 2.928807e-01 2.960814e-01 3.119021e-01 3.144324e-01 3.265557e-01 3.280017e-01 3.370480e-01 3.379696e-01 3.425435e-01 3.433228e-01 3.422199e-01 3.422394e-01 3.350373e-01 3.329934e-01 3.205035e-01 3.166511e-01 3.023376e-01 2.982341e-01 2.847711e-01 2.814883e-01 2.700781e-01 2.679737e-01 2.588539e-01 2.578416e-01 2.507813e-01 2.505805e-01 2.451657e-01 2.454455e-01 2.412169e-01 2.416634e-01 2.381772e-01 2.385189e-01 2.353721e-01 2.353874e-01 2.322278e-01 2.317448e-01 2.282754e-01 
2.458238e-01 2.434250e-01 2.412013e-01 2.377282e-01 2.347935e-01 2.301140e-01 2.264854e-01 2.205322e-01 2.162603e-01 2.090307e-01 2.041955e-01 1.957483e-01 1.904530e-01 1.809033e-01 1.752674e-01 1.647793e-01 1.589320e-01 1.477122e-01 1.417867e-01 1.300825e-01 1.242151e-01 1.123269e-01 1.066699e-01 9.499982e-02 8.976487e-02 7.895035e-02 7.452535e-02 6.574361e-02 6.292863e-02 5.828299e-02 5.841628e-02 6.026030e-02 6.436475e-02 7.297280e-02 8.086086e-02 9.469906e-02 1.058778e-01 1.237176e-01 1.380380e-01 1.593576e-01 1.769009e-01 2.015329e-01 2.224024e-01 2.502418e-01 2.744175e-01 3.052444e-01 3.324836e-01 3.658537e-01 3.956247e-01 4.308043e-01 4.622529e-01 4.981942e-01 5.301494e-01 5.655125e-01 5.965384e-01 6.297611e-01 6.582585e-01 6.876726e-01 7.120199e-01 7.359988e-01 7.547119e-01 7.718197e-01 7.837005e-01 7.928056e-01 7.970459e-01 7.973735e-01 7.936008e-01 7.847238e-01 7.729972e-01 7.548056e-01 7.356031e-01 7.083136e-01 6.825550e-01 6.468329e-01 6.159559e-01 5.731948e-01 5.392422e-01 4.920041e-01 4.576354e-01 4.101838e-01 3.785553e-01 3.372491e-01 3.117524e-01 2.843387e-01 2.678634e-01 2.594282e-01 2.523474e-01 2.596189e-01 2.583049e-01 2.723561e-01 2.716042e-01 2.863342e-01 2.836456e-01 2.972653e-01 2.948737e-01 3.061410e-01 3.045498e-01 3.140268e-01 3.132505e-01 3.193449e-01 3.197603e-01 3.209819e-01 3.217431e-01 3.172422e-01 3.160476e-01 3.057298e-01 3.024681e-01 2.908164e-01 2.872876e-01 2.771095e-01 2.743691e-01 2.665773e-01 2.648930e-01 2.594475e-01 2.586789e-01 2.551780e-01 2.550377e-01 2.529794e-01 2.531576e-01 2.520401e-01 2.522560e-01 2.516133e-01 2.516307e-01 2.510445e-01 2.506744e-01 2.497777e-01 2.488764e-01 2.473566e-01 
2.284692e-01 2.251905e-01 2.238256e-01 2.196822e-01 2.175334e-01 2.124242e-01 2.095244e-01 2.034063e-01 1.998192e-01 1.927078e-01 1.885246e-01 1.804934e-01 1.758282e-01 1.670061e-01 1.619921e-01 1.525598e-01 1.473461e-01 1.375351e-01 1.322865e-01 1.223837e-01 1.172874e-01 1.076545e-01 1.029398e-01 9.405919e-02 9.003997e-02 8.259848e-02 7.974085e-02 7.471463e-02 7.367982e-02 7.223351e-02 7.374000e-02 7.671570e-02 8.120032e-02 8.864624e-02 9.617040e-02 1.076309e-01 1.181549e-01 1.332165e-01 1.467885e-01 1.652512e-01 1.819858e-01 2.037726e-01 2.237505e-01 2.487680e-01 2.719364e-01 2.999582e-01 3.260503e-01 3.566326e-01 3.851109e-01 4.175390e-01 4.475674e-01 4.808374e-01 5.112900e-01 5.441286e-01 5.736423e-01 6.045714e-01 6.316429e-01 6.590868e-01 6.822070e-01 7.046294e-01 7.224344e-01 7.384812e-01 7.498927e-01 7.585100e-01 7.628449e-01 7.633487e-01 7.603881e-01 7.524861e-01 7.425093e-01 7.262953e-01 7.100892e-01 6.860472e-01 6.648970e-01 6.339624e-01 6.095982e-01 5.733267e-01 5.477585e-01 5.086070e-01 4.837722e-01 4.453607e-01 4.226249e-01 3.895874e-01 3.693881e-01 3.462027e-01 3.282867e-01 3.170074e-01 3.012445e-01 2.998512e-01 2.864669e-01 2.904127e-01 2.790768e-01 2.852521e-01 2.760909e-01 2.841026e-01 2.807467e-01 2.878644e-01 2.843165e-01 2.924393e-01 2.899382e-01 2.945628e-01 2.950354e-01 2.942396e-01 2.972438e-01 2.905871e-01 2.923250e-01 2.790034e-01 2.783693e-01 2.645640e-01 2.637094e-01 2.522094e-01 2.521388e-01 2.433917e-01 2.442318e-01 2.378760e-01 2.394028e-01 2.348983e-01 2.367991e-01 2.336167e-01 2.355895e-01 2.332543e-01 2.350403e-01 2.331364e-01 2.345272e-01 2.326939e-01 2.335294e-01 2.314573e-01 2.316216e-01 2.290510e-01 
2.480429e-01 2.465867e-01 2.448111e-01 2.421071e-01 2.395465e-01 2.354787e-01 2.321748e-01 2.266913e-01 2.227148e-01 2.158319e-01 2.112796e-01 2.030818e-01 1.980732e-01 1.887116e-01 1.833849e-01 1.730734e-01 1.675818e-01 1.565938e-01 1.511038e-01 1.397734e-01 1.344673e-01 1.232037e-01 1.182923e-01 1.076177e-01 1.033712e-01 9.399999e-02 9.080599e-02 8.375105e-02 8.217941e-02 7.874689e-02 7.950683e-02 8.087609e-02 8.454118e-02 9.108663e-02 9.786835e-02 1.091644e-01 1.190782e-01 1.345389e-01 1.476339e-01 1.668752e-01 1.832539e-01 2.060597e-01 2.257817e-01 2.519493e-01 2.749245e-01 3.041258e-01 3.300294e-01 3.617137e-01 3.899302e-01 4.232698e-01 4.528722e-01 4.867518e-01 5.165247e-01 5.495801e-01 5.780938e-01 6.088042e-01 6.345424e-01 6.613719e-01 6.829015e-01 7.044731e-01 7.206267e-01 7.358882e-01 7.459194e-01 7.542490e-01 7.579162e-01 7.591211e-01 7.566745e-01 7.508790e-01 7.429581e-01 7.304342e-01 7.179254e-01 6.989577e-01 6.828780e-01 6.577720e-01 6.392014e-01 6.085311e-01 5.885399e-01 5.536389e-01 5.331049e-01 4.965808e-01 4.758856e-01 4.416439e-01 4.205259e-01 3.927247e-01 3.707911e-01 3.518040e-01 3.297231e-01 3.186542e-01 2.983777e-01 2.927301e-01 2.744690e-01 2.747055e-01 2.563706e-01 2.629121e-01 2.509875e-01 2.561813e-01 2.486245e-01 2.562962e-01 2.510255e-01 2.568637e-01 2.568001e-01 2.585431e-01 2.636592e-01 2.610413e-01 2.654596e-01 2.543641e-01 2.555946e-01 2.452856e-01 2.460637e-01 2.388898e-01 2.401592e-01 2.359217e-01 2.377299e-01 2.357400e-01 2.378741e-01 2.374699e-01 2.396751e-01 2.402914e-01 2.423327e-01 2.434868e-01 2.451665e-01 2.464404e-01 2.476009e-01 2.486281e-01 2.491493e-01 2.496091e-01 2.494061e-01 2.490222e-01 
2.304344e-01 2.281314e-01 2.273305e-01 2.239917e-01 2.223595e-01 2.179033e-01 2.155051e-01 2.099061e-01 2.068297e-01 2.001238e-01 1.964772e-01 1.887641e-01 1.846736e-01 1.761181e-01 1.717267e-01 1.625579e-01 1.580262e-01 1.485375e-01 1.440455e-01 1.345973e-01 1.303518e-01 1.213800e-01 1.176256e-01 1.096566e-01 1.066927e-01 1.003565e-01 9.855074e-02 9.455902e-02 9.433620e-02 9.337804e-02 9.516108e-02 9.772339e-02 1.018552e-01 1.081175e-01 1.148433e-01 1.247661e-01 1.342835e-01 1.477731e-01 1.602655e-01 1.772489e-01 1.928578e-01 2.132481e-01 2.320072e-01 2.556244e-01 2.773885e-01 3.038808e-01 3.282688e-01 3.570579e-01 3.834190e-01 4.136751e-01 4.410863e-01 4.717379e-01 4.990414e-01 5.288254e-01 5.547123e-01 5.822645e-01 6.054018e-01 6.293832e-01 6.485679e-01 6.678093e-01 6.821175e-01 6.957516e-01 7.046524e-01 7.121972e-01 7.156194e-01 7.169945e-01 7.153575e-01 7.108405e-01 7.050494e-01 6.951844e-01 6.865567e-01 6.720061e-01 6.620658e-01 6.434234e-01 6.335004e-01 6.111954e-01 6.018394e-01 5.763454e-01 5.667801e-01 5.391790e-01 5.272123e-01 4.996370e-01 4.823136e-01 4.573808e-01 4.323293e-01 4.113372e-01 3.786513e-01 3.602312e-01 3.243735e-01 3.070337e-01 2.747652e-01 2.625759e-01 2.359350e-01 2.356041e-01 2.294331e-01 2.277007e-01 2.154560e-01 2.241860e-01 2.137812e-01 2.180055e-01 2.163732e-01 2.148209e-01 2.233774e-01 2.189675e-01 2.294331e-01 2.153289e-01 2.210183e-01 2.099088e-01 2.147966e-01 2.076664e-01 2.126679e-01 2.084316e-01 2.134929e-01 2.111956e-01 2.161213e-01 2.150891e-01 2.196811e-01 2.194108e-01 2.234929e-01 2.235820e-01 2.270109e-01 2.271228e-01 2.297911e-01 2.296372e-01 2.314717e-01 2.308022e-01 2.317614e-01 2.303627e-01 
2.511835e-01 2.509140e-01 2.496749e-01 2.479492e-01 2.458493e-01 2.425629e-01 2.396696e-01 2.347826e-01 2.311853e-01 2.247309e-01 2.205402e-01 2.126287e-01 2.079754e-01 1.987959e-01 1.938295e-01 1.836481e-01 1.785365e-01 1.676938e-01 1.626239e-01 1.515344e-01 1.467155e-01 1.358723e-01 1.315443e-01 1.215331e-01 1.179803e-01 1.095004e-01 1.070692e-01 1.009366e-01 1.000426e-01 9.711491e-02 9.820918e-02 9.918766e-02 1.026779e-01 1.079004e-01 1.140970e-01 1.235499e-01 1.326927e-01 1.462128e-01 1.585086e-01 1.759290e-01 1.915276e-01 2.126731e-01 2.315942e-01 2.561943e-01 2.782468e-01 3.058406e-01 3.305575e-01 3.604268e-01 3.870297e-01 4.181722e-01 4.455747e-01 4.767261e-01 5.035901e-01 5.333029e-01 5.581582e-01 5.849395e-01 6.063666e-01 6.288709e-01 6.457264e-01 6.629768e-01 6.746157e-01 6.862012e-01 6.926342e-01 6.987963e-01 7.007233e-01 7.022505e-01 7.009284e-01 6.988378e-01 6.957733e-01 6.908667e-01 6.874043e-01 6.798369e-01 6.767629e-01 6.658031e-01 6.630587e-01 6.472983e-01 6.438510e-01 6.220672e-01 6.159728e-01 5.883995e-01 5.770878e-01 5.461354e-01 5.269886e-01 4.962143e-01 4.675247e-01 4.387220e-01 4.012097e-01 3.720867e-01 3.314325e-01 3.004907e-01 2.637337e-01 2.461572e-01 2.060644e-01 2.111672e-01 1.859455e-01 1.801536e-01 1.656397e-01 1.706082e-01 1.553351e-01 1.594867e-01 1.562694e-01 1.561318e-01 1.682561e-01 1.707557e-01 1.889906e-01 1.785121e-01 1.885129e-01 1.835672e-01 1.916059e-01 1.906019e-01 1.977171e-01 1.989906e-01 2.053425e-01 2.079923e-01 2.136414e-01 2.171064e-01 2.220384e-01 2.258880e-01 2.300487e-01 2.339190e-01 2.372476e-01 2.408173e-01 2.432634e-01 2.462415e-01 2.477709e-01 2.498924e-01 2.504890e-01 2.515166e-01 
2.331620e-01 2.320195e-01 2.318581e-01 2.294914e-01 2.284717e-01 2.248119e-01 2.230311e-01 2.180643e-01 2.156300e-01 2.094064e-01 2.064346e-01 1.990758e-01 1.956909e-01 1.873933e-01 1.837296e-01 1.747648e-01 1.709702e-01 1.616829e-01 1.579245e-01 1.487286e-01 1.452003e-01 1.365734e-01 1.335029e-01 1.259767e-01 1.236324e-01 1.177721e-01 1.164631e-01 1.128282e-01 1.128951e-01 1.119789e-01 1.137763e-01 1.159523e-01 1.198325e-01 1.253436e-01 1.316487e-01 1.406457e-01 1.496944e-01 1.622699e-01 1.743198e-01 1.904953e-01 2.056796e-01 2.253479e-01 2.436047e-01 2.664610e-01 2.874749e-01 3.129630e-01 3.361279e-01 3.634178e-01 3.878334e-01 4.158390e-01 4.403490e-01 4.677953e-01 4.910824e-01 5.166231e-01 5.373668e-01 5.597485e-01 5.768343e-01 5.950829e-01 6.078172e-01 6.214058e-01 6.296596e-01 6.385990e-01 6.428213e-01 6.476293e-01 6.487576e-01 6.503174e-01 6.496957e-01 6.490839e-01 6.484131e-01 6.467063e-01 6.478651e-01 6.457524e-01 6.502585e-01 6.473694e-01 6.554363e-01 6.498219e-01 6.594049e-01 6.480601e-01 6.547120e-01 6.355275e-01 6.335167e-01 6.074365e-01 5.914794e-01 5.624027e-01 5.288549e-01 4.997146e-01 4.472152e-01 4.143206e-01 3.494291e-01 3.065393e-01 2.514002e-01 2.150390e-01 1.636583e-01 1.607823e-01 1.632757e-01 1.481269e-01 1.125561e-01 1.267190e-01 1.019119e-01 1.004136e-01 9.301105e-02 8.438317e-02 9.906488e-02 9.559052e-02 1.318992e-01 1.248778e-01 1.425031e-01 1.410077e-01 1.552547e-01 1.562196e-01 1.680660e-01 1.700402e-01 1.800978e-01 1.826674e-01 1.913375e-01 1.942234e-01 2.016700e-01 2.046089e-01 2.108838e-01 2.136338e-01 2.187542e-01 2.210956e-01 2.250775e-01 2.268087e-01 2.296781e-01 2.306128e-01 2.324106e-01 2.323795e-01 
2.553257e-01 2.564411e-01 2.557833e-01 2.552173e-01 2.536402e-01 2.512880e-01 2.488805e-01 2.447040e-01 2.415678e-01 2.356092e-01 2.318599e-01 2.242502e-01 2.200178e-01 2.109809e-01 2.064113e-01 1.962633e-01 1.915211e-01 1.806649e-01 1.759369e-01 1.648557e-01 1.603554e-01 1.496050e-01 1.455785e-01 1.357775e-01 1.325091e-01 1.243241e-01 1.221387e-01 1.162510e-01 1.155111e-01 1.125538e-01 1.136471e-01 1.141259e-01 1.174473e-01 1.216938e-01 1.276325e-01 1.358293e-01 1.447509e-01 1.569864e-01 1.691891e-01 1.854665e-01 2.011075e-01 2.212897e-01 2.403017e-01 2.640277e-01 2.860453e-01 3.126566e-01 3.369654e-01 3.654643e-01 3.909831e-01 4.200407e-01 4.453541e-01 4.733831e-01 4.968494e-01 5.221575e-01 5.421127e-01 5.631391e-01 5.781994e-01 5.938187e-01 6.032373e-01 6.130871e-01 6.170715e-01 6.218179e-01 6.216846e-01 6.230781e-01 6.211531e-01 6.216864e-01 6.208856e-01 6.229944e-01 6.260317e-01 6.310884e-01 6.395480e-01 6.470186e-01 6.606874e-01 6.677172e-01 6.843372e-01 6.861312e-01 7.015368e-01 6.930287e-01 7.017862e-01 6.804687e-01 6.770471e-01 6.452186e-01 6.254571e-01 5.891170e-01 5.513660e-01 5.140552e-01 4.585086e-01 4.117499e-01 3.468603e-01 2.754783e-01 2.272220e-01 1.930204e-01 1.405441e-01 1.671008e-01 8.071239e-02 9.369423e-02 5.436330e-02 4.614074e-02 2.663804e-02 1.630862e-02 1.608804e-02 1.522308e-02 1.341874e-02 1.809084e-02 6.360897e-02 7.917831e-02 1.033886e-01 1.141720e-01 1.326666e-01 1.409909e-01 1.546427e-01 1.622857e-01 1.731647e-01 1.807132e-01 1.897341e-01 1.971860e-01 2.047048e-01 2.118875e-01 2.180557e-01 2.247606e-01 2.296582e-01 2.356707e-01 2.393530e-01 2.444559e-01 2.469714e-01 2.509481e-01 2.523467e-01 2.549879e-01 
2.367002e-01 2.368499e-01 2.373515e-01 2.360937e-01 2.357554e-01 2.330188e-01 2.319646e-01 2.277331e-01 2.260796e-01 2.204060e-01 2.182607e-01 2.112782e-01 2.087406e-01 2.006676e-01 1.978349e-01 1.889752e-01 1.859508e-01 1.766872e-01 1.735927e-01 1.643752e-01 1.613625e-01 1.526915e-01 1.499547e-01 1.423586e-01 1.401429e-01 1.341493e-01 1.327570e-01 1.288635e-01 1.286554e-01 1.273080e-01 1.287036e-01 1.302958e-01 1.337660e-01 1.386544e-01 1.446934e-01 1.531999e-01 1.622614e-01 1.746318e-01 1.870346e-01 2.033546e-01 2.191847e-01 2.392855e-01 2.583159e-01 2.816960e-01 3.033322e-01 3.291113e-01 3.523656e-01 3.792803e-01 4.027867e-01 4.292477e-01 4.513420e-01 4.755746e-01 4.944697e-01 5.147553e-01 5.288430e-01 5.438556e-01 5.521264e-01 5.613149e-01 5.637994e-01 5.676956e-01 5.657029e-01 5.659785e-01 5.618790e-01 5.609904e-01 5.575810e-01 5.580703e-01 5.580306e-01 5.619375e-01 5.676959e-01 5.763719e-01 5.899944e-01 6.036870e-01 6.261429e-01 6.427785e-01 6.724972e-01 6.865261e-01 7.180679e-01 7.213998e-01 7.458472e-01 7.320118e-01 7.396864e-01 7.090762e-01 6.927512e-01 6.541305e-01 6.100411e-01 5.739376e-01 4.955187e-01 4.556862e-01 3.398161e-01 2.648635e-01 1.939028e-01 1.194894e-01 1.006094e-01 1.295422e-01 2.319361e-02 3.268840e-02 2.833307e-02 3.419926e-02 2.650429e-02 3.437741e-02 2.809870e-02 3.129505e-02 2.676392e-02 3.744287e-02 1.126810e-02 3.209258e-02 6.825831e-02 8.074401e-02 1.043915e-01 1.125175e-01 1.299450e-01 1.370231e-01 1.511075e-01 1.578253e-01 1.695787e-01 1.759348e-01 1.857646e-01 1.916382e-01 1.997580e-01 2.050182e-01 2.115727e-01 2.160882e-01 2.211974e-01 2.248320e-01 2.286096e-01 2.312217e-01 2.337840e-01 2.352314e-01 
2.604710e-01 2.631290e-01 2.630542e-01 2.638096e-01 2.627966e-01 2.615239e-01 2.596742e-01 2.563197e-01 2.537361e-01 2.483371e-01 2.451250e-01 2.378233e-01 2.340927e-01 2.251403e-01 2.210110e-01 2.107682e-01 2.063758e-01 1.953014e-01 1.908054e-01 1.794409e-01 1.750336e-01 1.639824e-01 1.598976e-01 1.497993e-01 1.463195e-01 1.378181e-01 1.352815e-01 1.289895e-01 1.277943e-01 1.242607e-01 1.248697e-01 1.245686e-01 1.275055e-01 1.308511e-01 1.366717e-01 1.440326e-01 1.532520e-01 1.649196e-01 1.779050e-01 1.940072e-01 2.108705e-01 2.312653e-01 2.517785e-01 2.759560e-01 2.994852e-01 3.264941e-01 3.519488e-01 3.803584e-01 4.061706e-01 4.340933e-01 4.582587e-01 4.834726e-01 5.037075e-01 5.239169e-01 5.379875e-01 5.512439e-01 5.575004e-01 5.627537e-01 5.608109e-01 5.585082e-01 5.498705e-01 5.424616e-01 5.307883e-01 5.228504e-01 5.135953e-01 5.109531e-01 5.100957e-01 5.174758e-01 5.291032e-01 5.476757e-01 5.721910e-01 5.990819e-01 6.336581e-01 6.626607e-01 7.021626e-01 7.241758e-01 7.610629e-01 7.658571e-01 7.906106e-01 7.718757e-01 7.749581e-01 7.358022e-01 7.105681e-01 6.634627e-01 6.102030e-01 5.671553e-01 4.847261e-01 4.262944e-01 3.183761e-01 1.608845e-01 9.000079e-02 5.716379e-02 6.819502e-02 1.497499e-01 1.158294e-01 3.832754e-02 5.145567e-02 1.510975e-02 1.285351e-02 4.556590e-02 4.272239e-02 5.846354e-02 5.704791e-02 7.027846e-02 6.400036e-02 5.892716e-02 7.473690e-02 8.027085e-02 9.807583e-02 1.079881e-01 1.236177e-01 1.346249e-01 1.479798e-01 1.590397e-01 1.703044e-01 1.809830e-01 1.903642e-01 2.004338e-01 2.081091e-01 2.174022e-01 2.235157e-01 2.318682e-01 2.365401e-01 2.437715e-01 2.471081e-01 2.530205e-01 2.551215e-01 2.595074e-01 
2.409897e-01 2.425175e-01 2.436548e-01 2.436213e-01 2.440123e-01 2.423208e-01 2.421073e-01 2.387183e-01 2.380099e-01 2.329606e-01 2.318314e-01 2.252508e-01 2.237428e-01 2.158583e-01 2.139933e-01 2.051282e-01 2.029254e-01 1.934875e-01 1.909858e-01 1.814474e-01 1.787281e-01 1.696010e-01 1.668098e-01 1.586176e-01 1.559844e-01 1.492395e-01 1.470969e-01 1.422920e-01 1.410960e-01 1.387208e-01 1.390681e-01 1.396483e-01 1.422691e-01 1.463888e-01 1.520732e-01 1.603213e-01 1.697622e-01 1.825909e-01 1.962029e-01 2.137647e-01 2.315576e-01 2.535862e-01 2.751021e-01 3.008363e-01 3.251086e-01 3.532388e-01 3.787579e-01 4.074052e-01 4.321137e-01 4.588823e-01 4.802511e-01 5.024140e-01 5.176726e-01 5.325547e-01 5.391665e-01 5.447673e-01 5.412275e-01 5.370513e-01 5.239484e-01 5.118660e-01 4.927818e-01 4.774982e-01 4.588160e-01 4.471325e-01 4.359433e-01 4.340565e-01 4.352787e-01 4.458297e-01 4.612289e-01 4.837646e-01 5.134825e-01 5.464184e-01 5.900224e-01 6.296597e-01 6.844119e-01 7.216233e-01 7.790329e-01 7.987478e-01 8.442248e-01 8.324769e-01 8.506700e-01 8.057709e-01 7.864067e-01 7.245137e-01 6.674748e-01 6.189348e-01 5.060793e-01 4.760708e-01 2.219918e-01 1.165743e-01 1.057629e-01 3.281065e-02 1.341389e-01 1.060575e-01 1.553675e-01 1.460991e-01 1.270360e-01 1.324221e-01 1.226257e-01 1.113476e-01 1.184803e-01 9.620671e-02 1.205847e-01 9.472195e-02 1.043723e-01 6.222097e-02 7.547437e-02 6.810054e-02 8.655030e-02 9.112066e-02 1.089698e-01 1.170634e-01 1.327421e-01 1.415478e-01 1.549047e-01 1.634829e-01 1.746801e-01 1.826792e-01 1.919135e-01 1.991621e-01 2.066158e-01 2.129888e-01 2.188325e-01 2.242062e-01 2.286092e-01 2.328478e-01 2.359843e-01 2.389412e-01 
2.664780e-01 2.708116e-01 2.712846e-01 2.735197e-01 2.730993e-01 2.730609e-01 2.718503e-01 2.694438e-01 2.675312e-01 2.627696e-01 2.602286e-01 2.532502e-01 2.501446e-01 2.412205e-01 2.376125e-01 2.271413e-01 2.231039e-01 2.115942e-01 2.072258e-01 1.952693e-01 1.907099e-01 1.789473e-01 1.743954e-01 1.634790e-01 1.592098e-01 1.497686e-01 1.461568e-01 1.387765e-01 1.363268e-01 1.315617e-01 1.309422e-01 1.293666e-01 1.314125e-01 1.336698e-01 1.392912e-01 1.460517e-01 1.560248e-01 1.678260e-01 1.825805e-01 1.996467e-01 2.191678e-01 2.412936e-01 2.651026e-01 2.915708e-01 3.186887e-01 3.481841e-01 3.770551e-01 4.075837e-01 4.359986e-01 4.648644e-01 4.899483e-01 5.138715e-01 5.322313e-01 5.477088e-01 5.558726e-01 5.598627e-01 5.551435e-01 5.460615e-01 5.278580e-01 5.067435e-01 4.779983e-01 4.497532e-01 4.180677e-01 3.927357e-01 3.706185e-01 3.624628e-01 3.636505e-01 3.814652e-01 4.091689e-01 4.477689e-01 4.941866e-01 5.440199e-01 6.020114e-01 6.549409e-01 7.192969e-01 7.636659e-01 8.253158e-01 8.437945e-01 8.882412e-01 8.674719e-01 8.786631e-01 8.228512e-01 7.858510e-01 7.182424e-01 6.360421e-01 5.953762e-01 4.519753e-01 4.082928e-01 2.117844e-01 1.522925e-01 1.080990e-01 1.165855e-01 1.551186e-01 2.870709e-01 1.730476e-01 5.555109e-02 1.240540e-01 4.350120e-02 8.892746e-02 2.108255e-02 7.370800e-02 1.165633e-02 6.758587e-02 1.224295e-02 6.050450e-02 4.393598e-02 5.885047e-02 6.098269e-02 7.990579e-02 8.968738e-02 1.062754e-01 1.186305e-01 1.329225e-01 1.458496e-01 1.580219e-01 1.707245e-01 1.809440e-01 1.930717e-01 2.014962e-01 2.128407e-01 2.196148e-01 2.299944e-01 2.352527e-01 2.444706e-01 2.483425e-01 2.561762e-01 2.587896e-01 2.649964e-01 
2.458000e-01 2.487612e-01 2.504615e-01 2.517631e-01 2.529196e-01 2.524085e-01 2.531720e-01 2.507568e-01 2.512091e-01 2.468864e-01 2.470344e-01 2.409087e-01 2.406923e-01 2.329841e-01 2.322998e-01 2.233392e-01 2.220727e-01 2.122812e-01 2.103455e-01 2.002063e-01 1.975793e-01 1.876049e-01 1.843634e-01 1.750660e-01 1.714176e-01 1.632956e-01 1.596147e-01 1.531721e-01 1.500511e-01 1.458681e-01 1.441819e-01 1.430235e-01 1.439573e-01 1.468246e-01 1.517315e-01 1.596991e-01 1.697220e-01 1.835728e-01 1.992629e-01 2.192088e-01 2.404218e-01 2.660433e-01 2.920081e-01 3.222476e-01 3.515771e-01 3.846650e-01 4.152720e-01 4.486213e-01 4.776207e-01 5.077855e-01 5.314775e-01 5.542903e-01 5.683431e-01 5.793752e-01 5.793861e-01 5.748746e-01 5.575621e-01 5.358684e-01 5.010922e-01 4.645916e-01 4.179821e-01 3.752623e-01 3.304226e-01 2.984682e-01 2.756715e-01 2.740402e-01 2.850574e-01 3.122597e-01 3.469584e-01 3.886698e-01 4.374876e-01 4.891767e-01 5.526131e-01 6.145173e-01 6.947816e-01 7.584206e-01 8.466258e-01 8.870579e-01 9.596681e-01 9.485017e-01 9.816286e-01 9.121713e-01 8.885689e-01 7.810656e-01 7.195837e-01 6.451206e-01 5.367262e-01 4.429566e-01 1.076793e-01 9.217105e-02 1.512194e-01 2.777463e-01 3.080932e-01 8.158457e-02 5.406207e-02 2.344286e-02 9.742431e-03 5.764992e-02 9.919350e-03 6.618688e-02 1.716126e-02 6.969746e-02 2.752283e-02 6.722194e-02 4.709318e-02 5.990903e-03 5.168878e-02 5.126692e-02 7.724143e-02 8.308479e-02 1.023205e-01 1.106274e-01 1.265293e-01 1.357744e-01 1.492517e-01 1.586156e-01 1.699819e-01 1.790284e-01 1.884614e-01 1.969369e-01 2.045920e-01 2.123146e-01 2.183587e-01 2.251631e-01 2.297870e-01 2.355002e-01 2.389195e-01 2.433543e-01 