# vtk DataFile Version 2.0
Comment goes here
ASCII

DATASET STRUCTURED_POINTS
DIMENSIONS    128   128   1

ORIGIN    0.000   0.000   0.000
SPACING   0.0156250.015625   1.000

POINT_DATA   16384
SCALARS uMag double
LOOKUP_TABLE default

3.129398e-02 3.313375e-02 3.368041e-02 3.503276e-02 3.528741e-02 3.614660e-02 3.611928e-02 3.648559e-02 3.618982e-02 3.607085e-02 3.552430e-02 3.493612e-02 3.416123e-02 3.312935e-02 3.215382e-02 3.071382e-02 2.957098e-02 2.776891e-02 2.649807e-02 2.439066e-02 2.303751e-02 2.069224e-02 1.930924e-02 1.680434e-02 1.545130e-02 1.287565e-02 1.162016e-02 9.072948e-03 7.990680e-03 5.580720e-03 4.755191e-03 2.599435e-03 2.120886e-03 3.418310e-04 3.047293e-04 9.738450e-04 4.752284e-04 1.134562e-03 1.342576e-05 5.199494e-05 1.867563e-03 2.735603e-03 5.287888e-03 6.999336e-03 1.028815e-02 1.282860e-02 1.679665e-02 2.008262e-02 2.460219e-02 2.846982e-02 3.333441e-02 3.753483e-02 4.245900e-02 4.666401e-02 5.129460e-02 5.511498e-02 5.905531e-02 6.207217e-02 6.491812e-02 6.672441e-02 6.810794e-02 6.835434e-02 6.798799e-02 6.642575e-02 6.414099e-02 6.065555e-02 5.643049e-02 5.106322e-02 4.503902e-02 3.799814e-02 3.048620e-02 2.214927e-02 1.362974e-02 4.536110e-03 4.358334e-03 1.353473e-02 2.206124e-02 3.057393e-02 3.796986e-02 4.510849e-02 5.072551e-02 5.596112e-02 5.942221e-02 6.254266e-02 6.385947e-02 6.502975e-02 6.461728e-02 6.432391e-02 6.289150e-02 6.179230e-02 6.014533e-02 5.887725e-02 5.767702e-02 5.665475e-02 5.619816e-02 5.547677e-02 5.562031e-02 5.491212e-02 5.517751e-02 5.400268e-02 5.379530e-02 5.170298e-02 5.054486e-02 4.731574e-02 4.509608e-02 4.088322e-02 3.795709e-02 3.316548e-02 2.996698e-02 2.495459e-02 2.176115e-02 1.674940e-02 1.369386e-02 8.813143e-03 5.958556e-03 1.297961e-03 1.317327e-03 5.688533e-03 8.036465e-03 1.206337e-02 1.412402e-02 1.776430e-02 1.952549e-02 2.274714e-02 2.420314e-02 2.698176e-02 2.813156e-02 3.044813e-02 
2.773052e-02 2.934275e-02 2.996088e-02 3.115775e-02 3.147208e-02 3.224990e-02 3.226883e-02 3.262898e-02 3.236496e-02 3.231481e-02 3.178494e-02 3.133888e-02 3.056538e-02 2.974574e-02 2.875636e-02 2.759413e-02 2.642250e-02 2.495792e-02 2.364380e-02 2.192678e-02 2.051634e-02 1.860688e-02 1.715310e-02 1.512167e-02 1.368470e-02 1.161279e-02 1.026022e-02 8.241124e-03 7.047839e-03 5.188954e-03 4.235474e-03 2.669136e-03 2.033714e-03 9.992175e-04 6.924570e-04 6.826979e-04 2.438296e-04 4.761889e-04 8.006605e-04 1.414267e-03 3.009276e-03 4.342636e-03 6.713354e-03 8.842391e-03 1.195601e-02 1.487358e-02 1.866852e-02 2.229321e-02 2.664247e-02 3.081132e-02 3.551097e-02 3.997595e-02 4.474427e-02 4.917843e-02 5.366694e-02 5.768322e-02 6.150084e-02 6.468397e-02 6.743325e-02 6.938193e-02 7.070282e-02 7.107608e-02 7.069052e-02 6.925072e-02 6.700116e-02 6.364778e-02 5.952609e-02 5.431995e-02 4.849054e-02 4.168012e-02 3.452208e-02 2.663751e-02 1.899923e-02 1.186042e-02 9.147114e-03 1.367532e-02 2.071395e-02 2.862815e-02 3.561392e-02 4.261767e-02 4.805945e-02 5.330170e-02 5.670586e-02 5.989248e-02 6.122889e-02 6.249417e-02 6.213904e-02 6.196653e-02 6.058293e-02 5.964348e-02 5.799814e-02 5.694120e-02 5.568456e-02 5.492531e-02 5.436556e-02 5.395549e-02 5.397382e-02 5.361806e-02 5.375672e-02 5.298680e-02 5.266192e-02 5.103714e-02 4.976120e-02 4.705228e-02 4.469803e-02 4.103865e-02 3.798472e-02 3.377723e-02 3.046872e-02 2.606584e-02 2.277967e-02 1.840688e-02 1.528900e-02 1.113091e-02 8.337217e-03 4.922741e-03 3.539384e-03 4.713363e-03 6.611603e-03 9.825163e-03 1.188395e-02 1.498362e-02 1.681269e-02 1.959497e-02 2.113584e-02 2.354847e-02 2.478456e-02 2.680385e-02 
3.179228e-02 3.360733e-02 3.412290e-02 3.546064e-02 3.569391e-02 3.654419e-02 3.650300e-02 3.686332e-02 3.655979e-02 3.643593e-02 3.588682e-02 3.529376e-02 3.452082e-02 3.348348e-02 3.251382e-02 3.106765e-02 2.993392e-02 2.812527e-02 2.686589e-02 2.475223e-02 2.341157e-02 2.106176e-02 1.969032e-02 1.718497e-02 1.583942e-02 1.327178e-02 1.201456e-02 9.492892e-03 8.390213e-03 6.045969e-03 5.161268e-03 3.188163e-03 2.557219e-03 1.474151e-03 1.002971e-03 1.617216e-03 1.108871e-03 1.967171e-03 1.640484e-03 2.273284e-03 3.136803e-03 4.155890e-03 6.349193e-03 8.113043e-03 1.126405e-02 1.382917e-02 1.774375e-02 2.104703e-02 2.555213e-02 2.943809e-02 3.430932e-02 3.853335e-02 4.347745e-02 4.771390e-02 5.237471e-02 5.623652e-02 6.021765e-02 6.328894e-02 6.618985e-02 6.806901e-02 6.952960e-02 6.987730e-02 6.962433e-02 6.820959e-02 6.609928e-02 6.283986e-02 5.889635e-02 5.389916e-02 4.836515e-02 4.200344e-02 3.548139e-02 2.869807e-02 2.283226e-02 1.873341e-02 1.853272e-02 2.220488e-02 2.795975e-02 3.474180e-02 4.112116e-02 4.748942e-02 5.256809e-02 5.735194e-02 6.043254e-02 6.322462e-02 6.420513e-02 6.508996e-02 6.434032e-02 6.376769e-02 6.199253e-02 6.061638e-02 5.866094e-02 5.716277e-02 5.576729e-02 5.462860e-02 5.413696e-02 5.342720e-02 5.366921e-02 5.305831e-02 5.349645e-02 5.245766e-02 5.246382e-02 5.053789e-02 4.958915e-02 4.654204e-02 4.447268e-02 4.043939e-02 3.768128e-02 3.310186e-02 3.011741e-02 2.537233e-02 2.243500e-02 1.781451e-02 1.511333e-02 1.104409e-02 8.975221e-03 6.933313e-03 6.852453e-03 8.826402e-03 1.039287e-02 1.374251e-02 1.550208e-02 1.887305e-02 2.047685e-02 2.356559e-02 2.492515e-02 2.763074e-02 2.871638e-02 3.099084e-02 
2.872167e-02 3.027298e-02 3.081129e-02 3.197234e-02 3.223400e-02 3.299125e-02 3.297936e-02 3.332800e-02 3.305179e-02 3.299524e-02 3.246973e-02 3.201995e-02 3.126593e-02 3.044400e-02 2.948804e-02 2.832465e-02 2.719912e-02 2.573519e-02 2.447825e-02 2.276542e-02 2.142105e-02 1.952242e-02 1.814039e-02 1.613171e-02 1.476724e-02 1.273894e-02 1.145158e-02 9.512625e-03 8.362699e-03 6.648265e-03 5.686306e-03 4.369014e-03 3.605914e-03 2.876278e-03 2.225131e-03 2.117789e-03 1.491621e-03 1.841981e-03 1.913305e-03 2.793132e-03 4.149738e-03 5.651120e-03 7.986959e-03 1.021443e-02 1.336696e-02 1.634942e-02 2.021261e-02 2.388959e-02 2.831943e-02 3.254005e-02 3.732533e-02 4.184880e-02 4.670518e-02 5.120927e-02 5.578899e-02 5.989085e-02 6.380741e-02 6.709793e-02 6.996387e-02 7.205318e-02 7.352648e-02 7.409434e-02 7.392666e-02 7.277076e-02 7.085167e-02 6.792980e-02 6.432793e-02 5.980229e-02 5.482197e-02 4.914436e-02 4.346455e-02 3.763038e-02 3.272152e-02 2.894906e-02 2.762337e-02 2.881968e-02 3.214395e-02 3.699691e-02 4.196736e-02 4.736373e-02 5.166853e-02 5.595977e-02 5.858889e-02 6.110916e-02 6.180591e-02 6.250628e-02 6.154054e-02 6.081295e-02 5.880810e-02 5.731007e-02 5.507770e-02 5.355008e-02 5.189362e-02 5.088426e-02 5.021835e-02 4.981665e-02 4.999490e-02 4.980379e-02 5.026499e-02 4.974858e-02 4.986347e-02 4.859231e-02 4.778123e-02 4.548999e-02 4.346727e-02 4.020070e-02 3.752185e-02 3.375002e-02 3.090456e-02 2.700767e-02 2.424076e-02 2.051121e-02 1.800790e-02 1.484346e-02 1.293657e-02 1.112333e-02 1.044802e-02 1.087874e-02 1.160852e-02 1.364314e-02 1.499264e-02 1.750304e-02 1.892798e-02 2.140068e-02 2.268889e-02 2.492683e-02 2.599434e-02 2.791106e-02 
3.327012e-02 3.501760e-02 3.544465e-02 3.674218e-02 3.691396e-02 3.773970e-02 3.765839e-02 3.800208e-02 3.767613e-02 3.753845e-02 3.698214e-02 3.637491e-02 3.560816e-02 3.455472e-02 3.360296e-02 3.213853e-02 3.103253e-02 2.920452e-02 2.798015e-02 2.584851e-02 2.454648e-02 2.218438e-02 2.084975e-02 1.834514e-02 1.702643e-02 1.448543e-02 1.323254e-02 1.078792e-02 9.647310e-03 7.481331e-03 6.485603e-03 4.893215e-03 4.045256e-03 3.511065e-03 2.805912e-03 3.479441e-03 2.982365e-03 4.088881e-03 4.011101e-03 5.150888e-03 5.924363e-03 7.313575e-03 9.204409e-03 1.115497e-02 1.410021e-02 1.676221e-02 2.058230e-02 2.394932e-02 2.843509e-02 3.238033e-02 3.728017e-02 4.157433e-02 4.657954e-02 5.090618e-02 5.565444e-02 5.963403e-02 6.373120e-02 6.695763e-02 7.001486e-02 7.210294e-02 7.378369e-02 7.442230e-02 7.449270e-02 7.349730e-02 7.187524e-02 6.923793e-02 6.604473e-02 6.199327e-02 5.762990e-02 5.273432e-02 4.803641e-02 4.343574e-02 3.993559e-02 3.754650e-02 3.719619e-02 3.853425e-02 4.150889e-02 4.549374e-02 4.973971e-02 5.420963e-02 5.783074e-02 6.131827e-02 6.327833e-02 6.509036e-02 6.506979e-02 6.511365e-02 6.336704e-02 6.198126e-02 5.918043e-02 5.696903e-02 5.405424e-02 5.181795e-02 4.979905e-02 4.827027e-02 4.766112e-02 4.696556e-02 4.749391e-02 4.715053e-02 4.807345e-02 4.740013e-02 4.805091e-02 4.663677e-02 4.639199e-02 4.399564e-02 4.240084e-02 3.896770e-02 3.675720e-02 3.283938e-02 3.051644e-02 2.653640e-02 2.430339e-02 2.063893e-02 1.869663e-02 1.593190e-02 1.466201e-02 1.367776e-02 1.351849e-02 1.466825e-02 1.546253e-02 1.788785e-02 1.907904e-02 2.189706e-02 2.312862e-02 2.589711e-02 2.700542e-02 2.952166e-02 3.043200e-02 3.259324e-02 
3.066159e-02 3.210588e-02 3.249745e-02 3.359445e-02 3.375775e-02 3.447807e-02 3.440831e-02 3.473641e-02 3.443775e-02 3.436990e-02 3.385395e-02 3.339766e-02 3.268262e-02 3.185664e-02 3.096667e-02 2.980129e-02 2.876592e-02 2.730337e-02 2.615701e-02 2.445206e-02 2.323333e-02 2.135423e-02 2.010508e-02 1.813510e-02 1.689921e-02 1.493873e-02 1.375825e-02 1.192706e-02 1.083609e-02 9.272968e-03 8.286013e-03 7.135569e-03 6.235370e-03 5.605929e-03 4.765975e-03 4.681050e-03 4.023260e-03 4.478782e-03 4.516157e-03 5.565655e-03 6.762707e-03 8.448178e-03 1.074868e-02 1.312604e-02 1.635069e-02 1.945070e-02 2.344375e-02 2.722235e-02 3.180909e-02 3.613048e-02 4.108293e-02 4.571758e-02 5.074363e-02 5.537780e-02 6.012968e-02 6.438899e-02 6.848894e-02 7.197701e-02 7.505790e-02 7.740753e-02 7.916304e-02 8.009311e-02 8.032991e-02 7.969915e-02 7.838373e-02 7.623507e-02 7.353401e-02 7.013352e-02 6.645699e-02 6.234516e-02 5.840876e-02 5.447493e-02 5.134201e-02 4.880454e-02 4.763196e-02 4.749101e-02 4.862839e-02 5.067488e-02 5.313300e-02 5.607431e-02 5.839371e-02 6.089142e-02 6.200196e-02 6.320079e-02 6.264414e-02 6.225353e-02 6.013203e-02 5.834830e-02 5.515936e-02 5.253284e-02 4.908480e-02 4.650406e-02 4.396006e-02 4.232879e-02 4.138751e-02 4.095564e-02 4.140853e-02 4.146110e-02 4.247368e-02 4.234845e-02 4.334943e-02 4.281367e-02 4.312990e-02 4.194420e-02 4.063136e-02 3.826374e-02 3.642491e-02 3.355168e-02 3.166107e-02 2.869801e-02 2.684595e-02 2.410077e-02 2.241682e-02 2.028501e-02 1.902684e-02 1.796766e-02 1.740901e-02 1.766632e-02 1.785121e-02 1.917469e-02 1.985911e-02 2.174492e-02 2.263487e-02 2.467957e-02 2.557289e-02 2.753503e-02 2.831535e-02 3.005842e-02 
3.568526e-02 3.733871e-02 3.763263e-02 3.887381e-02 3.895162e-02 3.974293e-02 3.959976e-02 3.991978e-02 3.955935e-02 3.940115e-02 3.883446e-02 3.820518e-02 3.744965e-02 3.637045e-02 3.544917e-02 3.395537e-02 3.289634e-02 3.103763e-02 2.987291e-02 2.771397e-02 2.647884e-02 2.410066e-02 2.283244e-02 2.033533e-02 1.907183e-02 1.658169e-02 1.535856e-02 1.303972e-02 1.188679e-02 9.965931e-03 8.904656e-03 7.695284e-03 6.750332e-03 6.566688e-03 5.807689e-03 6.607739e-03 6.168410e-03 7.494262e-03 7.571444e-03 9.114131e-03 9.971116e-03 1.176948e-02 1.361358e-02 1.586230e-02 1.873270e-02 2.158822e-02 2.537731e-02 2.887782e-02 3.338835e-02 3.744514e-02 4.241467e-02 4.682417e-02 5.193214e-02 5.639555e-02 6.127547e-02 6.542863e-02 6.969434e-02 7.315038e-02 7.643641e-02 7.883946e-02 8.085033e-02 8.193377e-02 8.249495e-02 8.213645e-02 8.124114e-02 7.950945e-02 7.736107e-02 7.455631e-02 7.160967e-02 6.829902e-02 6.528693e-02 6.230455e-02 6.016294e-02 5.843912e-02 5.793890e-02 5.800124e-02 5.914417e-02 6.064929e-02 6.254705e-02 6.451100e-02 6.597585e-02 6.738149e-02 6.749198e-02 6.766207e-02 6.599878e-02 6.471088e-02 6.138877e-02 5.879074e-02 5.434984e-02 5.078446e-02 4.617045e-02 4.249701e-02 3.928661e-02 3.690389e-02 3.603246e-02 3.525263e-02 3.620658e-02 3.620325e-02 3.773045e-02 3.743125e-02 3.909345e-02 3.850201e-02 3.976014e-02 3.897944e-02 3.828624e-02 3.605038e-02 3.492401e-02 3.215540e-02 3.100009e-02 2.819277e-02 2.699079e-02 2.450926e-02 2.338126e-02 2.170043e-02 2.091673e-02 2.047633e-02 2.025855e-02 2.113501e-02 2.146625e-02 2.329466e-02 2.396943e-02 2.626552e-02 2.706801e-02 2.946686e-02 3.024622e-02 3.251933e-02 3.318331e-02 3.519090e-02 
3.348543e-02 3.479913e-02 3.499772e-02 3.601510e-02 3.604622e-02 3.672068e-02 3.657272e-02 3.687578e-02 3.654804e-02 3.646682e-02 3.596723e-02 3.550338e-02 3.484688e-02 3.401622e-02 3.322333e-02 3.205580e-02 3.115129e-02 2.969118e-02 2.870280e-02 2.700908e-02 2.596611e-02 2.411314e-02 2.304454e-02 2.112281e-02 2.005475e-02 1.817125e-02 1.712350e-02 1.539999e-02 1.438163e-02 1.294734e-02 1.195510e-02 1.093002e-02 9.960645e-03 9.432619e-03 8.534692e-03 8.552883e-03 7.936430e-03 8.539926e-03 8.629843e-03 9.861082e-03 1.103705e-02 1.292377e-02 1.525046e-02 1.782251e-02 2.117005e-02 2.444415e-02 2.863303e-02 3.256880e-02 3.738953e-02 4.186148e-02 4.705847e-02 5.184780e-02 5.711228e-02 6.191579e-02 6.689650e-02 7.135303e-02 7.568523e-02 7.941970e-02 8.276948e-02 8.545104e-02 8.756843e-02 8.897355e-02 8.974395e-02 8.981044e-02 8.929191e-02 8.814837e-02 8.658404e-02 8.454400e-02 8.234281e-02 7.986176e-02 7.754029e-02 7.513444e-02 7.320489e-02 7.132720e-02 7.012517e-02 6.901824e-02 6.853551e-02 6.814071e-02 6.800205e-02 6.799224e-02 6.761772e-02 6.749977e-02 6.632200e-02 6.554791e-02 6.319306e-02 6.133464e-02 5.775700e-02 5.467077e-02 5.007079e-02 4.585848e-02 4.062400e-02 3.607498e-02 3.193222e-02 2.877080e-02 2.714424e-02 2.647684e-02 2.717976e-02 2.728888e-02 2.868274e-02 2.865519e-02 3.082666e-02 3.128995e-02 3.398044e-02 3.560414e-02 3.555171e-02 3.470213e-02 3.438927e-02 3.285511e-02 3.248384e-02 3.079433e-02 3.014093e-02 2.850922e-02 2.764419e-02 2.638601e-02 2.556559e-02 2.497732e-02 2.443788e-02 2.465176e-02 2.449454e-02 2.542345e-02 2.560111e-02 2.701301e-02 2.739904e-02 2.904027e-02 2.950325e-02 3.116791e-02 3.160493e-02 3.314516e-02 
3.898668e-02 4.054045e-02 4.067347e-02 4.185538e-02 4.181728e-02 4.257288e-02 4.235259e-02 4.264747e-02 4.224433e-02 4.206244e-02 4.148434e-02 4.082727e-02 4.008921e-02 3.897594e-02 3.809854e-02 3.656542e-02 3.557349e-02 3.367441e-02 3.259549e-02 3.040275e-02 2.926559e-02 2.687184e-02 2.570490e-02 2.322733e-02 2.205713e-02 1.964500e-02 1.849472e-02 1.634084e-02 1.523068e-02 1.358133e-02 1.253563e-02 1.166825e-02 1.073722e-02 1.083957e-02 1.012772e-02 1.111759e-02 1.078340e-02 1.235805e-02 1.259521e-02 1.451397e-02 1.553030e-02 1.775455e-02 1.971406e-02 2.234421e-02 2.530206e-02 2.845659e-02 3.234005e-02 3.606657e-02 4.069350e-02 4.492917e-02 5.003231e-02 5.459907e-02 5.984764e-02 6.446942e-02 6.949543e-02 7.383307e-02 7.826841e-02 8.196974e-02 8.549276e-02 8.825226e-02 9.063609e-02 9.225346e-02 9.340638e-02 9.383242e-02 9.382364e-02 9.318447e-02 9.225366e-02 9.084674e-02 8.939006e-02 8.763958e-02 8.614411e-02 8.449296e-02 8.338383e-02 8.212048e-02 8.154488e-02 8.065327e-02 8.035091e-02 7.953862e-02 7.896230e-02 7.788110e-02 7.649277e-02 7.492263e-02 7.238266e-02 7.019888e-02 6.634810e-02 6.345398e-02 5.832265e-02 5.463468e-02 4.842668e-02 4.345165e-02 3.651751e-02 3.023886e-02 2.504619e-02 2.051527e-02 1.882721e-02 1.735762e-02 1.869378e-02 1.891693e-02 2.045514e-02 1.985232e-02 2.236491e-02 2.236058e-02 2.657739e-02 3.027820e-02 3.153640e-02 3.098962e-02 3.176303e-02 3.058468e-02 3.124853e-02 2.998935e-02 3.009947e-02 2.891062e-02 2.857971e-02 2.782720e-02 2.739322e-02 2.737558e-02 2.711016e-02 2.790779e-02 2.791923e-02 2.939197e-02 2.964640e-02 3.154192e-02 3.193912e-02 3.400461e-02 3.443938e-02 3.647120e-02 3.685897e-02 3.870633e-02 
3.712962e-02 3.831213e-02 3.829354e-02 3.923053e-02 3.910939e-02 3.973867e-02 3.950034e-02 3.978012e-02 3.942116e-02 3.932852e-02 3.885414e-02 3.838419e-02 3.780597e-02 3.697144e-02 3.630515e-02 3.513611e-02 3.439964e-02 3.294337e-02 3.215469e-02 3.047544e-02 2.965054e-02 2.782938e-02 2.698018e-02 2.511426e-02 2.424652e-02 2.244723e-02 2.155919e-02 1.994745e-02 1.903123e-02 1.772869e-02 1.677929e-02 1.589571e-02 1.493676e-02 1.455940e-02 1.369487e-02 1.388876e-02 1.336672e-02 1.418360e-02 1.438600e-02 1.586297e-02 1.713083e-02 1.928676e-02 2.174106e-02 2.458821e-02 2.814795e-02 3.168401e-02 3.616219e-02 4.033691e-02 4.548661e-02 5.017211e-02 5.569530e-02 6.067475e-02 6.622954e-02 7.120709e-02 7.642954e-02 8.106180e-02 8.560467e-02 8.955199e-02 9.313547e-02 9.612670e-02 9.859075e-02 1.004885e-01 1.018320e-01 1.026767e-01 1.030657e-01 1.030709e-01 1.027985e-01 1.022753e-01 1.016667e-01 1.008892e-01 1.001712e-01 9.923652e-02 9.841905e-02 9.717553e-02 9.601063e-02 9.412603e-02 9.220221e-02 8.940540e-02 8.641048e-02 8.282473e-02 7.886500e-02 7.511232e-02 7.071103e-02 6.736564e-02 6.289779e-02 5.973682e-02 5.515118e-02 5.143745e-02 4.657262e-02 4.127837e-02 3.498751e-02 2.706436e-02 2.065474e-02 1.270690e-02 8.747212e-03 6.036678e-03 6.696770e-03 6.404842e-03 6.255203e-03 5.060871e-03 7.611269e-03 8.638427e-03 1.563054e-02 2.555260e-02 2.859656e-02 2.851122e-02 3.070650e-02 3.098421e-02 3.298926e-02 3.302702e-02 3.385377e-02 3.346321e-02 3.337916e-02 3.291435e-02 3.240650e-02 3.219321e-02 3.162590e-02 3.184630e-02 3.141891e-02 3.210475e-02 3.187870e-02 3.294644e-02 3.289373e-02 3.420061e-02 3.425329e-02 3.564630e-02 3.573113e-02 3.707414e-02 
4.313017e-02 4.459969e-02 4.456129e-02 4.569611e-02 4.553175e-02 4.626092e-02 4.595565e-02 4.623112e-02 4.578145e-02 4.557728e-02 4.498921e-02 4.430126e-02 4.358823e-02 4.243399e-02 4.161468e-02 4.003318e-02 3.912941e-02 3.718141e-02 3.621597e-02 3.398483e-02 3.297952e-02 3.057352e-02 2.954749e-02 2.710405e-02 2.607288e-02 2.376469e-02 2.274107e-02 2.078107e-02 1.977963e-02 1.841295e-02 1.746330e-02 1.692043e-02 1.608954e-02 1.648594e-02 1.589682e-02 1.715055e-02 1.697690e-02 1.886882e-02 1.931061e-02 2.164584e-02 2.289750e-02 2.560294e-02 2.780935e-02 3.091875e-02 3.412897e-02 3.770955e-02 4.185140e-02 4.592828e-02 5.080997e-02 5.531734e-02 6.064757e-02 6.541348e-02 7.083434e-02 7.559694e-02 8.073048e-02 8.518142e-02 8.968845e-02 9.353500e-02 9.717483e-02 1.002043e-01 1.028751e-01 1.050004e-01 1.067425e-01 1.080126e-01 1.089774e-01 1.095542e-01 1.099644e-01 1.100770e-01 1.101887e-01 1.100573e-01 1.100855e-01 1.097949e-01 1.097652e-01 1.091093e-01 1.086928e-01 1.071206e-01 1.056217e-01 1.024760e-01 9.917591e-02 9.427772e-02 8.909319e-02 8.328090e-02 7.711734e-02 7.183977e-02 6.574526e-02 6.166312e-02 5.571029e-02 5.250398e-02 4.632623e-02 4.220171e-02 3.432136e-02 2.491782e-02 1.978782e-02 1.241564e-02 7.963334e-03 6.517327e-03 6.049729e-03 6.738319e-03 6.901271e-03 9.804808e-03 8.338899e-03 1.038486e-02 5.309248e-03 1.980824e-02 2.535321e-02 2.199955e-02 2.591319e-02 2.739998e-02 3.112022e-02 3.200645e-02 3.369954e-02 3.392495e-02 3.431080e-02 3.440296e-02 3.419428e-02 3.453919e-02 3.419105e-02 3.498007e-02 3.472215e-02 3.597100e-02 3.587263e-02 3.747626e-02 3.751335e-02 3.931173e-02 3.942120e-02 4.124850e-02 4.136196e-02 4.307098e-02 
4.154745e-02 4.261846e-02 4.237797e-02 4.324901e-02 4.296874e-02 4.356438e-02 4.323180e-02 4.349757e-02 4.311000e-02 4.301283e-02 4.257473e-02 4.210312e-02 4.162323e-02 4.078720e-02 4.027573e-02 3.910641e-02 3.857234e-02 3.712133e-02 3.657002e-02 3.490832e-02 3.433950e-02 3.255594e-02 3.196226e-02 3.016118e-02 2.952800e-02 2.782532e-02 2.713299e-02 2.565024e-02 2.488128e-02 2.373733e-02 2.289267e-02 2.219494e-02 2.132394e-02 2.116278e-02 2.040688e-02 2.085542e-02 2.048373e-02 2.159910e-02 2.197876e-02 2.379785e-02 2.526240e-02 2.779974e-02 3.050805e-02 3.376057e-02 3.766822e-02 4.160787e-02 4.651947e-02 5.106699e-02 5.668547e-02 6.168435e-02 6.764074e-02 7.284933e-02 7.873386e-02 8.384414e-02 8.925456e-02 9.393839e-02 9.854540e-02 1.025210e-01 1.061357e-01 1.092390e-01 1.118583e-01 1.140981e-01 1.159055e-01 1.174753e-01 1.187843e-01 1.199996e-01 1.211362e-01 1.222778e-01 1.234268e-01 1.245442e-01 1.256117e-01 1.263899e-01 1.269292e-01 1.266623e-01 1.258724e-01 1.235727e-01 1.204241e-01 1.152038e-01 1.089231e-01 1.008421e-01 9.192968e-02 8.307571e-02 7.420090e-02 6.822620e-02 6.234609e-02 6.005202e-02 5.655697e-02 5.496457e-02 5.345368e-02 5.019704e-02 4.747970e-02 3.484955e-02 2.643701e-02 1.816310e-02 1.920897e-02 1.710018e-02 2.125938e-02 2.592643e-02 2.991362e-02 3.252880e-02 3.579141e-02 3.585080e-02 3.599486e-02 3.781725e-02 2.313963e-02 1.427160e-02 2.360277e-02 2.835046e-02 3.414263e-02 3.642616e-02 3.867708e-02 3.951169e-02 3.994269e-02 4.012834e-02 3.972919e-02 3.977949e-02 3.909610e-02 3.930900e-02 3.862284e-02 3.912984e-02 3.856097e-02 3.937138e-02 3.894344e-02 3.998781e-02 3.967368e-02 4.084322e-02 4.059667e-02 4.177258e-02 
4.808726e-02 4.950825e-02 4.930394e-02 5.041994e-02 5.013035e-02 5.085446e-02 5.046376e-02 5.073396e-02 5.023840e-02 5.001864e-02 4.942443e-02 4.870526e-02 4.802592e-02 4.682473e-02 4.607830e-02 4.443926e-02 4.364534e-02 4.163946e-02 4.081644e-02 3.854221e-02 3.770493e-02 3.529011e-02 3.444842e-02 3.205289e-02 3.121175e-02 2.902990e-02 2.819253e-02 2.644950e-02 2.562589e-02 2.455594e-02 2.377911e-02 2.357357e-02 2.292080e-02 2.365662e-02 2.326373e-02 2.486886e-02 2.492402e-02 2.722990e-02 2.794777e-02 3.079167e-02 3.237556e-02 3.566947e-02 3.826535e-02 4.199632e-02 4.564676e-02 4.982790e-02 5.444017e-02 5.904719e-02 6.438507e-02 6.930752e-02 7.501015e-02 8.003569e-02 8.566644e-02 9.050757e-02 9.563648e-02 1.000000e-01 1.043122e-01 1.079950e-01 1.113906e-01 1.143588e-01 1.169828e-01 1.193763e-01 1.215243e-01 1.235637e-01 1.255034e-01 1.273638e-01 1.292198e-01 1.309769e-01 1.327698e-01 1.344032e-01 1.360915e-01 1.374106e-01 1.387546e-01 1.391735e-01 1.394487e-01 1.377717e-01 1.355849e-01 1.302355e-01 1.240140e-01 1.142326e-01 1.038787e-01 9.183884e-02 8.095987e-02 7.244754e-02 6.660914e-02 6.412398e-02 6.184976e-02 6.162487e-02 5.960542e-02 6.113424e-02 5.318759e-02 4.199073e-02 3.741569e-02 3.034991e-02 2.840931e-02 2.992107e-02 3.344681e-02 3.179324e-02 3.089329e-02 2.390270e-02 2.357827e-02 1.672242e-02 1.800658e-02 1.582119e-02 1.512660e-02 1.661118e-02 2.519771e-02 2.804395e-02 3.424040e-02 3.680974e-02 3.933449e-02 4.064315e-02 4.121703e-02 4.187771e-02 4.160099e-02 4.215526e-02 4.161010e-02 4.237006e-02 4.183972e-02 4.292555e-02 4.251949e-02 4.391470e-02 4.364325e-02 4.524919e-02 4.507352e-02 4.675495e-02 4.661966e-02 4.823563e-02 
4.671508e-02 4.771256e-02 4.726143e-02 4.809618e-02 4.766135e-02 4.824667e-02 4.782334e-02 4.809288e-02 4.768356e-02 4.759440e-02 4.720563e-02 4.674001e-02 4.637882e-02 4.554490e-02 4.521547e-02 4.404691e-02 4.374769e-02 4.230240e-02 4.202399e-02 4.038184e-02 4.010584e-02 3.836550e-02 3.806480e-02 3.633953e-02 3.598072e-02 3.439295e-02 3.394235e-02 3.261695e-02 3.205216e-02 3.110908e-02 3.043890e-02 2.998661e-02 2.928116e-02 2.941311e-02 2.883969e-02 2.963408e-02 2.947860e-02 3.099805e-02 3.163234e-02 3.391975e-02 3.569379e-02 3.876669e-02 4.188088e-02 4.572568e-02 5.016895e-02 5.472604e-02 6.028766e-02 6.542452e-02 7.173193e-02 7.721926e-02 8.378069e-02 8.929337e-02 9.555959e-02 1.007189e-01 1.061820e-01 1.106423e-01 1.149668e-01 1.185279e-01 1.216724e-01 1.243712e-01 1.266283e-01 1.287557e-01 1.306551e-01 1.326737e-01 1.347663e-01 1.371370e-01 1.397569e-01 1.426950e-01 1.458055e-01 1.490903e-01 1.522561e-01 1.552006e-01 1.576033e-01 1.590342e-01 1.593746e-01 1.575282e-01 1.538470e-01 1.465886e-01 1.367578e-01 1.230724e-01 1.070983e-01 9.088664e-02 7.600438e-02 7.037410e-02 6.847733e-02 7.518332e-02 7.547105e-02 7.934060e-02 8.138144e-02 8.381292e-02 8.671384e-02 6.135245e-02 4.847673e-02 4.395540e-02 3.315719e-02 1.096506e-02 7.323818e-03 3.052460e-02 4.110350e-02 5.293127e-02 5.862436e-02 6.397073e-02 6.722717e-02 6.928868e-02 7.011333e-02 4.870900e-02 4.358729e-02 4.047434e-02 4.322987e-02 4.522865e-02 4.674527e-02 4.791963e-02 4.798059e-02 4.836704e-02 4.770115e-02 4.779644e-02 4.686692e-02 4.700540e-02 4.605604e-02 4.640898e-02 4.555056e-02 4.616941e-02 4.543443e-02 4.628849e-02 4.566688e-02 4.667534e-02 4.613890e-02 4.719683e-02 
5.384904e-02 5.527780e-02 5.492772e-02 5.607047e-02 5.566722e-02 5.642102e-02 5.595133e-02 5.623985e-02 5.570295e-02 5.548000e-02 5.488518e-02 5.413684e-02 5.350028e-02 5.224591e-02 5.158698e-02 4.987924e-02 4.921676e-02 4.714123e-02 4.649004e-02 4.416497e-02 4.353338e-02 4.110996e-02 4.049868e-02 3.816109e-02 3.756469e-02 3.552725e-02 3.493971e-02 3.343493e-02 3.286118e-02 3.211082e-02 3.158490e-02 3.175230e-02 3.135803e-02 3.250049e-02 3.238447e-02 3.444220e-02 3.480907e-02 3.764904e-02 3.873681e-02 4.222316e-02 4.426169e-02 4.830435e-02 5.146128e-02 5.601681e-02 6.033923e-02 6.536849e-02 7.073423e-02 7.614018e-02 8.223239e-02 8.780716e-02 9.412597e-02 9.953603e-02 1.054644e-01 1.103000e-01 1.152434e-01 1.191486e-01 1.227495e-01 1.256147e-01 1.279799e-01 1.301000e-01 1.318682e-01 1.338835e-01 1.359204e-01 1.384326e-01 1.412333e-01 1.443837e-01 1.477782e-01 1.512800e-01 1.548318e-01 1.583390e-01 1.617816e-01 1.650057e-01 1.681100e-01 1.703880e-01 1.723185e-01 1.718122e-01 1.702383e-01 1.636121e-01 1.549139e-01 1.391549e-01 1.217307e-01 1.001034e-01 8.371626e-02 7.590925e-02 8.263546e-02 9.016343e-02 1.001671e-01 9.920951e-02 1.069619e-01 1.178307e-01 7.234863e-02 3.782154e-02 3.002452e-02 2.764771e-02 6.093926e-02 9.259978e-02 1.029118e-01 1.092101e-01 1.082411e-01 1.059673e-01 1.064731e-01 1.017347e-01 1.048139e-01 1.008604e-01 8.976832e-02 6.292775e-02 5.332889e-02 4.798324e-02 4.764257e-02 4.869220e-02 4.899795e-02 5.007733e-02 4.972284e-02 5.035887e-02 4.960215e-02 5.012227e-02 4.925824e-02 4.993488e-02 4.913821e-02 5.010391e-02 4.944758e-02 5.071576e-02 5.020453e-02 5.170510e-02 5.130528e-02 5.291984e-02 5.258242e-02 5.417289e-02 
5.263391e-02 5.361373e-02 5.297608e-02 5.381987e-02 5.324420e-02 5.385509e-02 5.335036e-02 5.365074e-02 5.322979e-02 5.316717e-02 5.284214e-02 5.239313e-02 5.217100e-02 5.134312e-02 5.122199e-02 5.005358e-02 5.002019e-02 4.857826e-02 4.860698e-02 4.698343e-02 4.703702e-02 4.534348e-02 4.537576e-02 4.373748e-02 4.369862e-02 4.224752e-02 4.209307e-02 4.096046e-02 4.066557e-02 3.997522e-02 3.955590e-02 3.941885e-02 3.896051e-02 3.947303e-02 3.916152e-02 4.040642e-02 4.054437e-02 4.259288e-02 4.357182e-02 4.648115e-02 4.868981e-02 5.249277e-02 5.619092e-02 6.087556e-02 6.609787e-02 7.157475e-02 7.809534e-02 8.415559e-02 9.149597e-02 9.777770e-02 1.052452e-01 1.112386e-01 1.180158e-01 1.231408e-01 1.284607e-01 1.322392e-01 1.356542e-01 1.379501e-01 1.396171e-01 1.408276e-01 1.416081e-01 1.426173e-01 1.437676e-01 1.455862e-01 1.481069e-01 1.514157e-01 1.555451e-01 1.603577e-01 1.656021e-01 1.712663e-01 1.767787e-01 1.823224e-01 1.871468e-01 1.912885e-01 1.940348e-01 1.944029e-01 1.920113e-01 1.843704e-01 1.718187e-01 1.518600e-01 1.258623e-01 9.814570e-02 7.526598e-02 8.287534e-02 1.023714e-01 1.320283e-01 1.331980e-01 1.459345e-01 1.567271e-01 8.954764e-02 5.947483e-02 1.731012e-02 7.268697e-02 1.272749e-01 1.198528e-01 1.046987e-01 8.865170e-02 6.916540e-02 5.916586e-02 4.779513e-02 4.292885e-02 3.550662e-02 3.421097e-02 2.882476e-02 4.825890e-02 5.807514e-02 5.748043e-02 5.870313e-02 5.725316e-02 5.827431e-02 5.736212e-02 5.789791e-02 5.689981e-02 5.701316e-02 5.586667e-02 5.582695e-02 5.463230e-02 5.466725e-02 5.351633e-02 5.376204e-02 5.270505e-02 5.321187e-02 5.226281e-02 5.301287e-02 5.216359e-02 5.309047e-02 5.232428e-02 5.333203e-02 
6.042959e-02 6.194454e-02 6.148229e-02 6.271627e-02 6.222039e-02 6.305353e-02 6.251710e-02 6.285788e-02 6.228694e-02 6.207886e-02 6.148950e-02 6.071536e-02 6.012970e-02 5.881366e-02 5.825522e-02 5.646277e-02 5.595171e-02 5.378840e-02 5.333745e-02 5.094683e-02 5.055856e-02 4.811973e-02 4.778618e-02 4.550980e-02 4.521541e-02 4.333509e-02 4.306459e-02 4.181862e-02 4.157108e-02 4.117098e-02 4.097936e-02 4.157004e-02 4.152201e-02 4.315179e-02 4.340346e-02 4.602591e-02 4.680079e-02 5.031282e-02 5.188128e-02 5.617546e-02 5.881235e-02 6.381084e-02 6.773132e-02 7.337931e-02 7.865897e-02 8.487486e-02 9.136942e-02 9.796782e-02 1.052519e-01 1.118697e-01 1.192198e-01 1.252866e-01 1.317458e-01 1.365512e-01 1.411316e-01 1.440481e-01 1.461238e-01 1.470129e-01 1.468673e-01 1.465355e-01 1.457314e-01 1.459370e-01 1.467203e-01 1.490679e-01 1.525316e-01 1.570023e-01 1.621043e-01 1.674178e-01 1.726430e-01 1.778368e-01 1.827099e-01 1.877393e-01 1.926116e-01 1.975729e-01 2.024524e-01 2.055017e-01 2.073392e-01 2.023965e-01 1.936654e-01 1.719417e-01 1.453556e-01 1.072442e-01 8.285308e-02 9.171011e-02 1.363259e-01 1.649213e-01 1.906769e-01 1.744984e-01 1.051707e-01 5.983813e-02 8.570239e-03 1.539011e-01 1.728959e-01 1.075803e-01 6.407514e-02 3.001172e-02 5.318718e-03 1.564024e-02 2.371324e-02 3.378757e-02 3.694114e-02 4.152338e-02 4.283367e-02 4.677672e-02 3.826830e-02 5.354983e-02 5.432816e-02 5.945730e-02 5.804389e-02 5.978629e-02 5.845624e-02 5.924120e-02 5.800180e-02 5.845652e-02 5.726943e-02 5.771521e-02 5.662218e-02 5.726351e-02 5.631172e-02 5.725298e-02 5.646078e-02 5.771561e-02 5.706934e-02 5.857798e-02 5.804182e-02 5.969372e-02 5.922252e-02 6.087924e-02 