# vtk DataFile Version 2.0
Comment goes here
ASCII

DATASET STRUCTURED_POINTS
DIMENSIONS    128   128   1

ORIGIN    0.000   0.000   0.000
SPACING   0.0156250.015625   1.000

POINT_DATA   16384
SCALARS uMag double
LOOKUP_TABLE default

7.364565e-02 7.877099e-02 8.003770e-02 8.400559e-02 8.453091e-02 8.731136e-02 8.711788e-02 8.869873e-02 8.782250e-02 8.821202e-02 8.670321e-02 8.593257e-02 8.385604e-02 8.198122e-02 7.941682e-02 7.651995e-02 7.356256e-02 6.975259e-02 6.651202e-02 6.192491e-02 5.852593e-02 5.332448e-02 4.990688e-02 4.428030e-02 4.099914e-02 3.516232e-02 3.218803e-02 2.638015e-02 2.389811e-02 1.838015e-02 1.658893e-02 1.163929e-02 1.074674e-02 6.654094e-03 6.870213e-03 3.922515e-03 5.448148e-03 3.917078e-03 6.927726e-03 7.048002e-03 1.167258e-02 1.361636e-02 1.991155e-02 2.375904e-02 3.168108e-02 3.738992e-02 4.676705e-02 5.414428e-02 6.465460e-02 7.333664e-02 8.449716e-02 9.394388e-02 1.051168e-01 1.146258e-01 1.250472e-01 1.337916e-01 1.426237e-01 1.497149e-01 1.561199e-01 1.606885e-01 1.639147e-01 1.652011e-01 1.646702e-01 1.621124e-01 1.574949e-01 1.508015e-01 1.420736e-01 1.312774e-01 1.187549e-01 1.042438e-01 8.859587e-02 7.112205e-02 5.336122e-02 3.402076e-02 1.545890e-02 4.376296e-03 2.223003e-02 4.104197e-02 5.666689e-02 7.302093e-02 8.514137e-02 9.795115e-02 1.058242e-01 1.145927e-01 1.182064e-01 1.231206e-01 1.232053e-01 1.250333e-01 1.228665e-01 1.227150e-01 1.197866e-01 1.187997e-01 1.163971e-01 1.154046e-01 1.142035e-01 1.134328e-01 1.133460e-01 1.124116e-01 1.127639e-01 1.108885e-01 1.107410e-01 1.071196e-01 1.056124e-01 9.975122e-02 9.648596e-02 8.846125e-02 8.372631e-02 7.410372e-02 6.845179e-02 5.786269e-02 5.176008e-02 4.070357e-02 3.447447e-02 2.332275e-02 1.720199e-02 6.245168e-03 4.180506e-04 1.011060e-02 1.549612e-02 2.540857e-02 3.023804e-02 3.938563e-02 4.357614e-02 5.184122e-02 5.533655e-02 6.262537e-02 6.539075e-02 7.162791e-02 
6.676371e-02 7.142728e-02 7.282190e-02 7.646423e-02 7.709743e-02 7.969152e-02 7.958258e-02 8.111795e-02 8.030085e-02 8.078535e-02 7.930921e-02 7.877106e-02 7.670046e-02 7.519009e-02 7.260525e-02 7.019673e-02 6.719333e-02 6.398530e-02 6.067425e-02 5.679049e-02 5.329763e-02 4.888734e-02 4.535316e-02 4.059096e-02 3.717031e-02 3.225583e-02 2.911692e-02 2.427339e-02 2.159532e-02 1.706568e-02 1.503274e-02 1.107009e-02 9.864108e-03 6.713021e-03 6.536706e-03 4.465100e-03 5.676466e-03 5.140276e-03 7.989849e-03 9.176723e-03 1.362632e-02 1.655951e-02 2.264613e-02 2.738423e-02 3.507725e-02 4.158388e-02 5.071938e-02 5.880641e-02 6.906740e-02 7.837364e-02 8.928215e-02 9.926937e-02 1.101943e-01 1.201630e-01 1.303493e-01 1.394783e-01 1.481000e-01 1.555098e-01 1.617437e-01 1.665786e-01 1.696903e-01 1.712089e-01 1.706394e-01 1.683013e-01 1.637420e-01 1.572794e-01 1.487279e-01 1.381985e-01 1.259976e-01 1.118275e-01 9.670433e-02 7.975835e-02 6.295251e-02 4.492492e-02 2.943676e-02 1.907429e-02 2.415611e-02 3.878407e-02 5.284326e-02 6.854895e-02 8.022470e-02 9.298913e-02 1.007871e-01 1.097042e-01 1.134532e-01 1.185765e-01 1.189035e-01 1.209597e-01 1.190235e-01 1.191314e-01 1.163139e-01 1.156494e-01 1.131978e-01 1.126132e-01 1.112299e-01 1.109709e-01 1.106389e-01 1.103155e-01 1.104089e-01 1.092595e-01 1.088638e-01 1.060931e-01 1.043431e-01 9.943780e-02 9.591703e-02 8.891972e-02 8.394495e-02 7.541528e-02 6.955465e-02 6.011663e-02 5.383885e-02 4.400243e-02 3.765724e-02 2.789621e-02 2.186808e-02 1.319746e-02 9.149437e-03 9.675790e-03 1.351920e-02 2.145326e-02 2.618059e-02 3.419433e-02 3.847618e-02 4.585464e-02 4.948950e-02 5.604705e-02 5.896153e-02 6.460323e-02 
7.496548e-02 8.001439e-02 8.118918e-02 8.511150e-02 8.557001e-02 8.832313e-02 8.808261e-02 8.964605e-02 8.873917e-02 8.911550e-02 8.759023e-02 8.680667e-02 8.472625e-02 8.283619e-02 8.027896e-02 7.736294e-02 7.442197e-02 7.058815e-02 6.737071e-02 6.275486e-02 5.938172e-02 5.414690e-02 5.075158e-02 4.508751e-02 4.181498e-02 3.593687e-02 3.294099e-02 2.708708e-02 2.452506e-02 1.895048e-02 1.697213e-02 1.193266e-02 1.066842e-02 6.377869e-03 6.005265e-03 2.662942e-03 4.051038e-03 3.180476e-03 6.476211e-03 7.539236e-03 1.217114e-02 1.466477e-02 2.091033e-02 2.502574e-02 3.290904e-02 3.872695e-02 4.808122e-02 5.548083e-02 6.597718e-02 7.463733e-02 8.578707e-02 9.519604e-02 1.063602e-01 1.158378e-01 1.262566e-01 1.349962e-01 1.438427e-01 1.509756e-01 1.574299e-01 1.621084e-01 1.654450e-01 1.669343e-01 1.666107e-01 1.643792e-01 1.601149e-01 1.539142e-01 1.457562e-01 1.356931e-01 1.240821e-01 1.107105e-01 9.660442e-02 8.116585e-02 6.649802e-02 5.203864e-02 4.205186e-02 3.808813e-02 4.285249e-02 5.358419e-02 6.522970e-02 7.869142e-02 8.908247e-02 1.004910e-01 1.073328e-01 1.152817e-01 1.181348e-01 1.224919e-01 1.219319e-01 1.233137e-01 1.205640e-01 1.200059e-01 1.165822e-01 1.152596e-01 1.125523e-01 1.113940e-01 1.101374e-01 1.093975e-01 1.094551e-01 1.086939e-01 1.093128e-01 1.076725e-01 1.078789e-01 1.045303e-01 1.034153e-01 9.784682e-02 9.493319e-02 8.720929e-02 8.285973e-02 7.362068e-02 6.842335e-02 5.835884e-02 5.278783e-02 4.253659e-02 3.702671e-02 2.750062e-02 2.284324e-02 1.682790e-02 1.569486e-02 1.893863e-02 2.215622e-02 3.002527e-02 3.405654e-02 4.241381e-02 4.619080e-02 5.406554e-02 5.730362e-02 6.437484e-02 6.696445e-02 7.307365e-02 
6.941124e-02 7.389759e-02 7.507148e-02 7.860836e-02 7.908569e-02 8.161860e-02 8.140632e-02 8.290676e-02 8.203137e-02 8.249483e-02 8.100069e-02 8.044689e-02 7.839520e-02 7.686892e-02 7.433690e-02 7.190873e-02 6.898851e-02 6.575542e-02 6.255286e-02 5.863843e-02 5.527151e-02 5.082593e-02 4.742266e-02 4.262237e-02 3.931721e-02 3.436356e-02 3.129058e-02 2.640567e-02 2.368472e-02 1.909952e-02 1.680948e-02 1.273120e-02 1.086927e-02 7.401808e-03 5.900398e-03 2.936674e-03 2.808645e-03 2.799628e-03 6.385639e-03 8.762702e-03 1.363803e-02 1.731382e-02 2.368562e-02 2.883308e-02 3.674402e-02 4.344553e-02 5.275414e-02 6.090243e-02 7.129737e-02 8.058760e-02 9.159355e-02 1.015311e-01 1.125233e-01 1.224471e-01 1.326847e-01 1.418112e-01 1.504937e-01 1.579832e-01 1.643270e-01 1.693685e-01 1.726956e-01 1.745998e-01 1.744263e-01 1.727155e-01 1.688285e-01 1.633145e-01 1.558353e-01 1.466912e-01 1.361415e-01 1.240016e-01 1.114304e-01 9.763068e-02 8.497654e-02 7.229010e-02 6.335643e-02 5.740301e-02 5.749279e-02 6.231704e-02 6.966291e-02 7.977165e-02 8.794091e-02 9.780963e-02 1.035239e-01 1.107863e-01 1.130904e-01 1.171215e-01 1.163025e-01 1.174758e-01 1.145216e-01 1.137995e-01 1.100672e-01 1.087006e-01 1.056261e-01 1.046679e-01 1.030952e-01 1.028726e-01 1.027571e-01 1.027344e-01 1.033166e-01 1.026079e-01 1.029269e-01 1.007275e-01 9.981998e-02 9.557677e-02 9.280989e-02 8.647571e-02 8.233659e-02 7.461444e-02 6.972215e-02 6.131478e-02 5.611617e-02 4.769038e-02 4.264385e-02 3.513977e-02 3.101767e-02 2.627255e-02 2.453574e-02 2.504853e-02 2.649630e-02 3.137279e-02 3.441629e-02 4.082719e-02 4.412926e-02 5.065091e-02 5.365943e-02 5.972496e-02 6.220951e-02 6.755729e-02 
7.885839e-02 8.370021e-02 8.461457e-02 8.841228e-02 8.867913e-02 9.135739e-02 9.098088e-02 9.249651e-02 9.150082e-02 9.184037e-02 9.026777e-02 8.944734e-02 8.735680e-02 8.542245e-02 8.288829e-02 7.991629e-02 7.702663e-02 7.312338e-02 6.997826e-02 6.527988e-02 6.198898e-02 5.666072e-02 5.334035e-02 4.757587e-02 4.434420e-02 3.836462e-02 3.533341e-02 2.938532e-02 2.664420e-02 2.099523e-02 1.858157e-02 1.351144e-02 1.135360e-02 7.155498e-03 4.959763e-03 2.423731e-03 9.775146e-04 4.598115e-03 7.174392e-03 1.044435e-02 1.469868e-02 1.843884e-02 2.444905e-02 2.922355e-02 3.696190e-02 4.306135e-02 5.232690e-02 5.977297e-02 7.020685e-02 7.877888e-02 8.987235e-02 9.913589e-02 1.102445e-01 1.195860e-01 1.299622e-01 1.386391e-01 1.474888e-01 1.546977e-01 1.612572e-01 1.662197e-01 1.698449e-01 1.719018e-01 1.721570e-01 1.708611e-01 1.675988e-01 1.628027e-01 1.562348e-01 1.481813e-01 1.389631e-01 1.284163e-01 1.177967e-01 1.062994e-01 9.641317e-02 8.675430e-02 8.084148e-02 7.693076e-02 7.762537e-02 8.101626e-02 8.652804e-02 9.395934e-02 1.000608e-01 1.076400e-01 1.115043e-01 1.170240e-01 1.176043e-01 1.203165e-01 1.178442e-01 1.179443e-01 1.134678e-01 1.117092e-01 1.067773e-01 1.043946e-01 1.007543e-01 9.905527e-02 9.764174e-02 9.696459e-02 9.743363e-02 9.716088e-02 9.850594e-02 9.750350e-02 9.874599e-02 9.620722e-02 9.635912e-02 9.178384e-02 8.998152e-02 8.325312e-02 8.014133e-02 7.213369e-02 6.834058e-02 5.985068e-02 5.578349e-02 4.765677e-02 4.383386e-02 3.738376e-02 3.468932e-02 3.195310e-02 3.146618e-02 3.368351e-02 3.535422e-02 4.094978e-02 4.363602e-02 5.050183e-02 5.334970e-02 6.032315e-02 6.290897e-02 6.942943e-02 7.154621e-02 7.731645e-02 
7.455531e-02 7.873546e-02 7.950642e-02 8.285721e-02 8.304415e-02 8.546849e-02 8.506158e-02 8.650033e-02 8.551521e-02 8.594177e-02 8.441550e-02 8.383400e-02 8.182221e-02 8.026698e-02 7.784137e-02 7.537688e-02 7.262253e-02 6.934326e-02 6.635564e-02 6.238584e-02 5.926710e-02 5.476037e-02 5.161436e-02 4.675278e-02 4.367736e-02 3.866944e-02 3.574387e-02 3.081920e-02 2.808293e-02 2.347988e-02 2.089964e-02 1.684294e-02 1.427098e-02 1.096151e-02 8.121613e-03 5.990720e-03 3.190748e-03 5.060525e-03 7.151075e-03 1.112025e-02 1.584117e-02 2.053581e-02 2.706057e-02 3.281250e-02 4.095939e-02 4.795419e-02 5.750041e-02 6.571578e-02 7.630875e-02 8.551502e-02 9.665873e-02 1.064327e-01 1.175008e-01 1.272546e-01 1.375277e-01 1.465566e-01 1.552837e-01 1.628359e-01 1.693161e-01 1.746787e-01 1.783523e-01 1.809448e-01 1.814798e-01 1.809415e-01 1.783007e-01 1.745632e-01 1.690474e-01 1.623927e-01 1.546714e-01 1.457973e-01 1.369478e-01 1.270732e-01 1.186308e-01 1.096258e-01 1.034999e-01 9.772390e-02 9.547286e-02 9.454923e-02 9.590802e-02 9.908098e-02 1.018191e-01 1.065804e-01 1.083186e-01 1.123145e-01 1.117539e-01 1.136593e-01 1.106558e-01 1.101744e-01 1.053269e-01 1.029623e-01 9.740190e-02 9.449773e-02 9.012245e-02 8.826874e-02 8.625559e-02 8.605844e-02 8.629682e-02 8.676337e-02 8.814679e-02 8.814377e-02 8.983781e-02 8.876253e-02 8.977529e-02 8.716444e-02 8.602593e-02 8.121278e-02 7.892133e-02 7.296017e-02 7.007237e-02 6.370270e-02 6.047210e-02 5.440887e-02 5.125703e-02 4.646109e-02 4.404338e-02 4.165264e-02 4.063563e-02 4.134704e-02 4.189882e-02 4.525788e-02 4.689292e-02 5.176031e-02 5.383931e-02 5.923851e-02 6.130004e-02 6.661448e-02 6.838117e-02 7.324256e-02 
8.516171e-02 8.971901e-02 9.024434e-02 9.386865e-02 9.384288e-02 9.641696e-02 9.582988e-02 9.727879e-02 9.614477e-02 9.643152e-02 9.478607e-02 9.391011e-02 9.180692e-02 8.980355e-02 8.731163e-02 8.425152e-02 8.145193e-02 7.744043e-02 7.442262e-02 6.959896e-02 6.645636e-02 6.099320e-02 5.781766e-02 5.192135e-02 4.879530e-02 4.270767e-02 3.969210e-02 3.369590e-02 3.081151e-02 2.524641e-02 2.244641e-02 1.776415e-02 1.491616e-02 1.189321e-02 8.968604e-03 9.211918e-03 7.667459e-03 1.146469e-02 1.276542e-02 1.739865e-02 2.101090e-02 2.596226e-02 3.161350e-02 3.719154e-02 4.470687e-02 5.119693e-02 6.030555e-02 6.780362e-02 7.809817e-02 8.648086e-02 9.741938e-02 1.063564e-01 1.172835e-01 1.262717e-01 1.364608e-01 1.448766e-01 1.535941e-01 1.607636e-01 1.673510e-01 1.726324e-01 1.765947e-01 1.794653e-01 1.805494e-01 1.806886e-01 1.789401e-01 1.763016e-01 1.720989e-01 1.669733e-01 1.610417e-01 1.541109e-01 1.475110e-01 1.398787e-01 1.339150e-01 1.270358e-01 1.229546e-01 1.182848e-01 1.166686e-01 1.149643e-01 1.151899e-01 1.159793e-01 1.164648e-01 1.183537e-01 1.174628e-01 1.189407e-01 1.157240e-01 1.157813e-01 1.102218e-01 1.084535e-01 1.012530e-01 9.762999e-02 9.012625e-02 8.572483e-02 8.046418e-02 7.766530e-02 7.603171e-02 7.530107e-02 7.633927e-02 7.675794e-02 7.892903e-02 7.864558e-02 8.140874e-02 8.007576e-02 8.271893e-02 8.036996e-02 8.067115e-02 7.596355e-02 7.524576e-02 6.955361e-02 6.822143e-02 6.234029e-02 6.051894e-02 5.526797e-02 5.338767e-02 4.983218e-02 4.853364e-02 4.766396e-02 4.744589e-02 4.952232e-02 5.039869e-02 5.473889e-02 5.632136e-02 6.190387e-02 6.374495e-02 6.973551e-02 7.149927e-02 7.733740e-02 7.880508e-02 8.412547e-02 
8.196571e-02 8.578073e-02 8.602621e-02 8.915006e-02 8.894742e-02 9.123941e-02 9.056736e-02 9.193241e-02 9.079819e-02 9.118174e-02 8.961609e-02 8.900171e-02 8.705443e-02 8.546279e-02 8.319836e-02 8.068648e-02 7.817944e-02 7.483996e-02 7.216976e-02 6.813005e-02 6.537495e-02 6.079616e-02 5.802567e-02 5.310127e-02 5.036618e-02 4.531969e-02 4.263888e-02 3.771980e-02 3.506473e-02 3.054373e-02 2.782788e-02 2.400221e-02 2.110568e-02 1.836173e-02 1.531303e-02 1.436079e-02 1.208482e-02 1.397214e-02 1.462730e-02 1.885122e-02 2.273737e-02 2.812979e-02 3.445824e-02 4.079253e-02 4.903826e-02 5.635050e-02 6.609468e-02 7.434796e-02 8.512303e-02 9.412685e-02 1.053683e-01 1.147711e-01 1.258243e-01 1.351385e-01 1.453016e-01 1.539520e-01 1.625471e-01 1.699386e-01 1.764009e-01 1.819981e-01 1.859667e-01 1.893743e-01 1.907613e-01 1.917888e-01 1.908030e-01 1.894975e-01 1.866089e-01 1.832446e-01 1.790899e-01 1.741164e-01 1.693635e-01 1.633337e-01 1.585380e-01 1.520480e-01 1.475431e-01 1.412217e-01 1.370969e-01 1.316376e-01 1.278040e-01 1.238891e-01 1.201357e-01 1.180380e-01 1.139857e-01 1.130738e-01 1.082353e-01 1.071559e-01 1.012714e-01 9.876302e-02 9.176218e-02 8.711222e-02 7.900294e-02 7.326654e-02 6.681687e-02 6.292461e-02 6.001227e-02 5.970046e-02 6.020400e-02 6.100366e-02 6.284977e-02 6.320628e-02 6.655217e-02 6.682419e-02 7.149042e-02 7.258815e-02 7.432777e-02 7.232816e-02 7.335548e-02 7.036449e-02 7.061945e-02 6.723492e-02 6.657705e-02 6.334689e-02 6.214310e-02 5.978599e-02 5.861169e-02 5.776685e-02 5.709630e-02 5.806025e-02 5.808799e-02 6.069989e-02 6.133079e-02 6.511142e-02 6.609357e-02 7.048996e-02 7.155448e-02 7.609012e-02 7.701865e-02 8.132851e-02 
9.367516e-02 9.793421e-02 9.799190e-02 1.014344e-01 1.010470e-01 1.035138e-01 1.026616e-01 1.040424e-01 1.027330e-01 1.029627e-01 1.012268e-01 1.002849e-01 9.817198e-02 9.608142e-02 9.365569e-02 9.048203e-02 8.781684e-02 8.366726e-02 8.083957e-02 7.586193e-02 7.294582e-02 6.732872e-02 6.438793e-02 5.836291e-02 5.544185e-02 4.928994e-02 4.640316e-02 4.047039e-02 3.759318e-02 3.232631e-02 2.940079e-02 2.542486e-02 2.244022e-02 2.066285e-02 1.796829e-02 1.930744e-02 1.797250e-02 2.207606e-02 2.300124e-02 2.843177e-02 3.170037e-02 3.769535e-02 4.313832e-02 4.960094e-02 5.698491e-02 6.400280e-02 7.298998e-02 8.060176e-02 9.072339e-02 9.883433e-02 1.094992e-01 1.178675e-01 1.283990e-01 1.366614e-01 1.463612e-01 1.540834e-01 1.623163e-01 1.690553e-01 1.753436e-01 1.807106e-01 1.848130e-01 1.885226e-01 1.904730e-01 1.923764e-01 1.924662e-01 1.925674e-01 1.912780e-01 1.897358e-01 1.876331e-01 1.847310e-01 1.823214e-01 1.783816e-01 1.759320e-01 1.711907e-01 1.685762e-01 1.631281e-01 1.598473e-01 1.538023e-01 1.492631e-01 1.430574e-01 1.369816e-01 1.314150e-01 1.239470e-01 1.195825e-01 1.109884e-01 1.075643e-01 9.810928e-02 9.467699e-02 8.454556e-02 7.914080e-02 6.825012e-02 6.006365e-02 5.250440e-02 4.732154e-02 4.536922e-02 4.378948e-02 4.513338e-02 4.628352e-02 4.822341e-02 4.778985e-02 5.162324e-02 5.092820e-02 5.794041e-02 6.087941e-02 6.528720e-02 6.423294e-02 6.771269e-02 6.574520e-02 6.806144e-02 6.578916e-02 6.670200e-02 6.467921e-02 6.466207e-02 6.362035e-02 6.333477e-02 6.383030e-02 6.376860e-02 6.596763e-02 6.633087e-02 6.999733e-02 7.073630e-02 7.539983e-02 7.633680e-02 8.148543e-02 8.241910e-02 8.760421e-02 8.836174e-02 9.322358e-02 
9.141080e-02 9.486871e-02 9.452659e-02 9.742682e-02 9.677466e-02 9.893971e-02 9.795652e-02 9.925553e-02 9.794777e-02 9.829573e-02 9.669231e-02 9.604961e-02 9.419631e-02 9.256842e-02 9.052179e-02 8.795849e-02 8.577923e-02 8.237349e-02 8.011918e-02 7.600546e-02 7.372268e-02 6.907494e-02 6.679058e-02 6.181973e-02 5.953191e-02 5.448289e-02 5.215310e-02 4.730213e-02 4.485421e-02 4.051009e-02 3.785075e-02 3.437195e-02 3.147002e-02 2.931701e-02 2.642129e-02 2.621245e-02 2.422990e-02 2.649697e-02 2.684722e-02 3.134730e-02 3.471771e-02 4.068595e-02 4.680154e-02 5.375515e-02 6.207107e-02 6.980020e-02 7.974193e-02 8.808103e-02 9.902797e-02 1.077438e-01 1.190089e-01 1.277787e-01 1.386323e-01 1.470715e-01 1.568081e-01 1.645260e-01 1.725621e-01 1.792261e-01 1.852091e-01 1.906002e-01 1.944933e-01 1.985364e-01 2.006379e-01 2.033931e-01 2.042524e-01 2.058568e-01 2.060776e-01 2.066330e-01 2.066133e-01 2.060494e-01 2.057574e-01 2.037350e-01 2.026257e-01 1.985525e-01 1.956816e-01 1.889239e-01 1.832855e-01 1.736650e-01 1.647750e-01 1.532812e-01 1.418466e-01 1.309580e-01 1.189698e-01 1.113290e-01 1.007743e-01 9.644965e-02 8.796133e-02 8.433698e-02 7.730208e-02 7.084766e-02 6.144905e-02 5.000249e-02 4.065873e-02 3.039292e-02 2.522556e-02 2.403478e-02 2.414069e-02 2.436759e-02 2.426030e-02 2.331705e-02 2.689280e-02 2.688839e-02 3.765630e-02 4.819401e-02 5.612233e-02 5.843421e-02 6.507838e-02 6.664245e-02 7.134830e-02 7.191339e-02 7.419919e-02 7.404201e-02 7.462964e-02 7.442529e-02 7.416417e-02 7.449683e-02 7.400835e-02 7.522903e-02 7.486059e-02 7.705636e-02 7.692370e-02 7.995882e-02 8.002172e-02 8.362476e-02 8.376646e-02 8.761791e-02 8.770485e-02 9.149535e-02 
1.042123e-01 1.082186e-01 1.077780e-01 1.110733e-01 1.102884e-01 1.126757e-01 1.115259e-01 1.128588e-01 1.113510e-01 1.115346e-01 1.096996e-01 1.086919e-01 1.065787e-01 1.043906e-01 1.020606e-01 9.875512e-02 9.627482e-02 9.196605e-02 8.939930e-02 8.425150e-02 8.165128e-02 7.587922e-02 7.327921e-02 6.715191e-02 6.455856e-02 5.840873e-02 5.579642e-02 5.003963e-02 4.735699e-02 4.252463e-02 3.973406e-02 3.650953e-02 3.370665e-02 3.287562e-02 3.050835e-02 3.258638e-02 3.150498e-02 3.615502e-02 3.712078e-02 4.337768e-02 4.667005e-02 5.375446e-02 5.930001e-02 6.683159e-02 7.436042e-02 8.216575e-02 9.125036e-02 9.918861e-02 1.092533e-01 1.171361e-01 1.274869e-01 1.350715e-01 1.449626e-01 1.519963e-01 1.607362e-01 1.670278e-01 1.741161e-01 1.796017e-01 1.848584e-01 1.896187e-01 1.932464e-01 1.974439e-01 1.999583e-01 2.037110e-01 2.057350e-01 2.090076e-01 2.110230e-01 2.136057e-01 2.157815e-01 2.173233e-01 2.194301e-01 2.194200e-01 2.207583e-01 2.184228e-01 2.177816e-01 2.120738e-01 2.078850e-01 1.979088e-01 1.888791e-01 1.749319e-01 1.611557e-01 1.458087e-01 1.295377e-01 1.170022e-01 1.015436e-01 9.432621e-02 8.166182e-02 7.882111e-02 6.910546e-02 6.584167e-02 5.406184e-02 3.887935e-02 3.132621e-02 2.010065e-02 1.320141e-02 4.089019e-03 3.147393e-03 6.641776e-03 3.738231e-03 5.386448e-03 1.613891e-03 2.383986e-03 8.361151e-03 2.784033e-02 4.347708e-02 4.622295e-02 5.658972e-02 6.052316e-02 6.803852e-02 7.049273e-02 7.443262e-02 7.582409e-02 7.743641e-02 7.859656e-02 7.902090e-02 8.060941e-02 8.059691e-02 8.298951e-02 8.294373e-02 8.622655e-02 8.629463e-02 9.032580e-02 9.049387e-02 9.499692e-02 9.517197e-02 9.982034e-02 9.988712e-02 1.043591e-01 
1.027018e-01 1.058646e-01 1.049229e-01 1.076451e-01 1.065191e-01 1.085940e-01 1.072775e-01 1.085410e-01 1.070505e-01 1.073868e-01 1.057568e-01 1.051022e-01 1.033781e-01 1.017229e-01 9.995346e-02 9.734180e-02 9.557077e-02 9.209951e-02 9.035681e-02 8.617252e-02 8.446590e-02 7.976094e-02 7.806834e-02 7.307612e-02 7.134054e-02 6.633069e-02 6.446123e-02 5.973647e-02 5.762335e-02 5.352268e-02 5.108184e-02 4.799687e-02 4.527174e-02 4.367438e-02 4.102271e-02 4.144656e-02 3.973189e-02 4.255388e-02 4.295401e-02 4.803208e-02 5.131576e-02 5.806057e-02 6.423323e-02 7.204845e-02 8.063570e-02 8.907251e-02 9.939131e-02 1.080644e-01 1.193134e-01 1.278259e-01 1.391240e-01 1.470681e-01 1.575246e-01 1.645486e-01 1.733866e-01 1.792998e-01 1.860260e-01 1.908933e-01 1.954675e-01 1.996324e-01 2.025571e-01 2.065428e-01 2.087703e-01 2.130646e-01 2.156654e-01 2.204672e-01 2.241428e-01 2.291711e-01 2.338621e-01 2.383041e-01 2.430934e-01 2.456744e-01 2.489349e-01 2.480021e-01 2.476159e-01 2.412847e-01 2.349531e-01 2.216866e-01 2.077505e-01 1.878287e-01 1.669356e-01 1.445909e-01 1.215836e-01 1.054173e-01 8.823119e-02 8.337893e-02 7.525844e-02 7.490254e-02 7.553793e-02 7.235642e-02 7.205965e-02 4.935270e-02 3.427576e-02 1.663731e-02 2.242694e-02 1.533371e-02 2.144195e-02 2.816923e-02 3.219919e-02 3.742492e-02 4.070155e-02 4.196039e-02 4.051220e-02 4.443801e-02 3.307998e-02 3.489549e-02 5.289729e-02 6.257888e-02 7.343569e-02 7.893534e-02 8.408061e-02 8.696944e-02 8.890441e-02 9.048633e-02 9.076545e-02 9.196494e-02 9.149353e-02 9.290002e-02 9.217357e-02 9.409292e-02 9.334669e-02 9.585582e-02 9.516218e-02 9.816976e-02 9.750828e-02 1.008176e-01 1.001265e-01 1.034908e-01 
1.166232e-01 1.204733e-01 1.195447e-01 1.227698e-01 1.215815e-01 1.239501e-01 1.224906e-01 1.238206e-01 1.221051e-01 1.222712e-01 1.203375e-01 1.192762e-01 1.171785e-01 1.148905e-01 1.126914e-01 1.092416e-01 1.070026e-01 1.025193e-01 1.002913e-01 9.496425e-02 9.277763e-02 8.685799e-02 8.471434e-02 7.851728e-02 7.638388e-02 7.029621e-02 6.810872e-02 6.260221e-02 6.028590e-02 5.593212e-02 5.346210e-02 5.092474e-02 4.844755e-02 4.838063e-02 4.636398e-02 4.913097e-02 4.835128e-02 5.372095e-02 5.493408e-02 6.218961e-02 6.579386e-02 7.417076e-02 8.016307e-02 8.907823e-02 9.714589e-02 1.061528e-01 1.157391e-01 1.244235e-01 1.347684e-01 1.426987e-01 1.528958e-01 1.596541e-01 1.687601e-01 1.740529e-01 1.812702e-01 1.850968e-01 1.900253e-01 1.928378e-01 1.957298e-01 1.984443e-01 2.002921e-01 2.039877e-01 2.062156e-01 2.115453e-01 2.153106e-01 2.220517e-01 2.276529e-01 2.348453e-01 2.417318e-01 2.481706e-01 2.552852e-01 2.597605e-01 2.656556e-01 2.666857e-01 2.692998e-01 2.646829e-01 2.611136e-01 2.481511e-01 2.353456e-01 2.127263e-01 1.898716e-01 1.612408e-01 1.333166e-01 1.097797e-01 8.862481e-02 8.047630e-02 7.334480e-02 7.428233e-02 7.705786e-02 8.650060e-02 7.891098e-02 6.096254e-02 5.398039e-02 4.276712e-02 3.404391e-02 3.487507e-02 3.729779e-02 3.871098e-02 3.736589e-02 3.041506e-02 2.953236e-02 2.215984e-02 2.344110e-02 2.225954e-02 1.830095e-02 2.554123e-02 4.782529e-02 5.877111e-02 7.194032e-02 7.937712e-02 8.554872e-02 8.991065e-02 9.238231e-02 9.517576e-02 9.583451e-02 9.816122e-02 9.801545e-02 1.005385e-01 1.001088e-01 1.031461e-01 1.026683e-01 1.062773e-01 1.058172e-01 1.098743e-01 1.094037e-01 1.136764e-01 1.131253e-01 1.173314e-01 
1.157009e-01 1.186744e-01 1.171587e-01 1.197872e-01 1.181917e-01 1.202451e-01 1.185931e-01 1.198766e-01 1.182076e-01 1.185751e-01 1.169385e-01 1.163021e-01 1.147483e-01 1.130838e-01 1.116546e-01 1.090035e-01 1.077225e-01 1.041902e-01 1.030539e-01 9.880484e-02 9.777586e-02 9.302659e-02 9.202923e-02 8.703964e-02 8.596100e-02 8.102623e-02 7.972685e-02 7.517227e-02 7.351460e-02 6.969858e-02 6.760604e-02 6.493402e-02 6.249796e-02 6.143796e-02 5.907360e-02 6.012209e-02 5.868296e-02 6.219197e-02 6.279619e-02 6.871218e-02 7.220650e-02 8.003877e-02 8.660491e-02 9.567758e-02 1.049003e-01 1.145326e-01 1.256190e-01 1.351305e-01 1.470473e-01 1.557315e-01 1.672953e-01 1.744641e-01 1.844667e-01 1.895987e-01 1.970239e-01 2.000024e-01 2.043396e-01 2.057014e-01 2.072932e-01 2.083132e-01 2.085479e-01 2.109270e-01 2.119610e-01 2.170606e-01 2.208914e-01 2.289516e-01 2.363118e-01 2.462892e-01 2.562977e-01 2.663501e-01 2.770147e-01 2.850308e-01 2.938034e-01 2.973968e-01 3.012129e-01 2.972603e-01 2.921772e-01 2.768822e-01 2.586748e-01 2.297826e-01 1.970852e-01 1.595676e-01 1.208985e-01 9.750540e-02 8.028049e-02 9.245259e-02 9.205638e-02 1.018835e-01 1.096011e-01 1.193536e-01 1.392610e-01 8.689091e-02 6.488309e-02 6.251896e-02 4.381149e-02 1.499812e-02 3.958753e-03 3.486084e-02 4.818354e-02 6.394498e-02 7.189603e-02 7.792808e-02 8.380263e-02 8.435164e-02 8.979554e-02 6.545646e-02 6.932719e-02 7.518768e-02 8.566250e-02 9.362922e-02 9.905298e-02 1.036947e-01 1.057256e-01 1.082671e-01 1.085083e-01 1.101296e-01 1.094795e-01 1.109299e-01 1.098701e-01 1.115743e-01 1.103498e-01 1.124952e-01 1.112115e-01 1.138087e-01 1.124915e-01 1.154246e-01 1.140611e-01 1.171333e-01 
1.307941e-01 1.346313e-01 1.332578e-01 1.365313e-01 1.349589e-01 1.374040e-01 1.356404e-01 1.370394e-01 1.351182e-01 1.353146e-01 1.332901e-01 1.321998e-01 1.301389e-01 1.277555e-01 1.257270e-01 1.221235e-01 1.201870e-01 1.155144e-01 1.137078e-01 1.081918e-01 1.065213e-01 1.004584e-01 9.889039e-02 9.264662e-02 9.110581e-02 8.511712e-02 8.349692e-02 7.827103e-02 7.646712e-02 7.258075e-02 7.056312e-02 6.863503e-02 6.656607e-02 6.716567e-02 6.552102e-02 6.898049e-02 6.853640e-02 7.475325e-02 7.633152e-02 8.477629e-02 8.890894e-02 9.885539e-02 1.056271e-01 1.163438e-01 1.254100e-01 1.361831e-01 1.468311e-01 1.569070e-01 1.681123e-01 1.766696e-01 1.871712e-01 1.933862e-01 2.018335e-01 2.050766e-01 2.103038e-01 2.104886e-01 2.119632e-01 2.099969e-01 2.084037e-01 2.064788e-01 2.041185e-01 2.052176e-01 2.053983e-01 2.115076e-01 2.164869e-01 2.269219e-01 2.363569e-01 2.485632e-01 2.604939e-01 2.720561e-01 2.845119e-01 2.939104e-01 3.052066e-01 3.109990e-01 3.188843e-01 3.180030e-01 3.181149e-01 3.048753e-01 2.907027e-01 2.592948e-01 2.263891e-01 1.792534e-01 1.366682e-01 1.026823e-01 9.655380e-02 1.063742e-01 1.287326e-01 1.217678e-01 1.555303e-01 1.841623e-01 1.018149e-01 3.631720e-02 4.205630e-02 4.552142e-02 7.896096e-02 1.178694e-01 1.285229e-01 1.401638e-01 1.374364e-01 1.345653e-01 1.371344e-01 1.274708e-01 1.372144e-01 1.247231e-01 1.196954e-01 8.592411e-02 8.270347e-02 8.547897e-02 9.190766e-02 9.935976e-02 1.033755e-01 1.084318e-01 1.100602e-01 1.133674e-01 1.136128e-01 1.161907e-01 1.157348e-01 1.182759e-01 1.175103e-01 1.203991e-01 1.195212e-01 1.228988e-01 1.219798e-01 1.258023e-01 1.248373e-01 1.289306e-01 1.278772e-01 1.319873e-01 
1.303134e-01 1.332413e-01 1.312041e-01 1.338595e-01 1.318191e-01 1.339517e-01 1.319762e-01 1.333616e-01 1.315285e-01 1.319901e-01 1.303748e-01 1.298005e-01 1.284645e-01 1.268169e-01 1.257956e-01 1.231171e-01 1.224104e-01 1.188204e-01 1.183859e-01 1.140736e-01 1.138228e-01 1.090350e-01 1.088354e-01 1.038623e-01 1.035451e-01 9.870749e-02 9.808681e-02 9.372807e-02 9.263865e-02 8.912705e-02 8.749055e-02 8.523401e-02 8.316551e-02 8.262800e-02 8.057481e-02 8.225192e-02 8.108483e-02 8.536981e-02 8.624132e-02 9.319690e-02 9.708550e-02 1.063258e-01 1.135916e-01 1.243967e-01 1.346924e-01 1.461647e-01 1.585816e-01 1.696922e-01 1.829070e-01 1.924964e-01 2.048874e-01 2.117388e-01 2.215543e-01 2.246284e-01 2.303029e-01 2.291821e-01 2.298660e-01 2.253639e-01 2.216478e-01 2.163077e-01 2.108692e-01 2.086529e-01 2.059746e-01 2.103072e-01 2.143537e-01 2.255563e-01 2.368604e-01 2.521783e-01 2.681116e-01 2.840462e-01 3.011735e-01 3.150651e-01 3.303865e-01 3.400628e-01 3.505237e-01 3.523054e-01 3.523963e-01 3.391888e-01 3.199718e-01 2.835996e-01 2.371798e-01 1.796190e-01 1.181156e-01 1.035752e-01 1.222978e-01 1.802716e-01 1.837655e-01 2.101527e-01 2.283324e-01 1.108599e-01 7.583339e-02 2.594099e-02 8.926034e-02 1.651711e-01 1.458247e-01 1.314273e-01 1.161997e-01 8.941016e-02 7.995977e-02 6.125485e-02 6.034856e-02 4.434385e-02 5.038031e-02 3.539867e-02 6.286477e-02 8.762086e-02 9.579346e-02 1.066248e-01 1.102087e-01 1.170968e-01 1.192924e-01 1.234736e-01 1.243011e-01 1.267807e-01 1.265861e-01 1.282244e-01 1.273685e-01 1.287817e-01 1.275235e-01 1.291047e-01 1.276017e-01 1.295590e-01 1.278941e-01 1.302819e-01 1.284926e-01 1.312419e-01 1.293465e-01 1.322960e-01 
1.466413e-01 1.506531e-01 1.489047e-01 1.523866e-01 1.504684e-01 1.531212e-01 1.510717e-01 1.526397e-01 1.505230e-01 1.508175e-01 1.487153e-01 1.476320e-01 1.456328e-01 1.431624e-01 1.413477e-01 1.375787e-01 1.360088e-01 1.311255e-01 1.298256e-01 1.241002e-01 1.230499e-01 1.168333e-01 1.159596e-01 1.096711e-01 1.088515e-01 1.029684e-01 1.020483e-01 9.709602e-02 9.593197e-02 9.247126e-02 9.101061e-02 8.961251e-02 8.801086e-02 8.919846e-02 8.793610e-02 9.206898e-02 9.196005e-02 9.908592e-02 1.010723e-01 1.108557e-01 1.156558e-01 1.274559e-01 1.352997e-01 1.482958e-01 1.588490e-01 1.720831e-01 1.844779e-01 1.968182e-01 2.097054e-01 2.198165e-01 2.314389e-01 2.378468e-01 2.461921e-01 2.475326e-01 2.506686e-01 2.462239e-01 2.429553e-01 2.335659e-01 2.245590e-01 2.137892e-01 2.030284e-01 1.974566e-01 1.922427e-01 1.976247e-01 2.031495e-01 2.178326e-01 2.317198e-01 2.492951e-01 2.663843e-01 2.824801e-01 2.997480e-01 3.133489e-01 3.298958e-01 3.413829e-01 3.566557e-01 3.636719e-01 3.727245e-01 3.655305e-01 3.561585e-01 3.192053e-01 2.776872e-01 2.044364e-01 1.422385e-01 1.122138e-01 1.698962e-01 2.200217e-01 2.671653e-01 2.155846e-01 1.283686e-01 7.082065e-02 1.057031e-02 2.033509e-01 2.238610e-01 1.338620e-01 8.848819e-02 4.514012e-02 1.475733e-02 2.121447e-02 2.469981e-02 4.504621e-02 4.435454e-02 5.488606e-02 5.410666e-02 6.125063e-02 5.509626e-02 8.908825e-02 9.690571e-02 1.115341e-01 1.139785e-01 1.214032e-01 1.226909e-01 1.273010e-01 1.277650e-01 1.309791e-01 1.307930e-01 1.334289e-01 1.328070e-01 1.354146e-01 1.345325e-01 1.374514e-01 1.364158e-01 1.397988e-01 1.386521e-01 1.424899e-01 1.412294e-01 1.453808e-01 1.439805e-01 1.482089e-01 