# vtk DataFile Version 2.0
Comment goes here
ASCII

DATASET STRUCTURED_POINTS
DIMENSIONS    128   128   1

ORIGIN    0.000   0.000   0.000
SPACING   0.0156250.015625   1.000

POINT_DATA   16384
SCALARS uMag double
LOOKUP_TABLE default

1.166002e-01 1.280850e-01 1.340404e-01 1.436335e-01 1.480638e-01 1.557192e-01 1.586150e-01 1.643206e-01 1.657100e-01 1.694915e-01 1.694418e-01 1.713659e-01 1.699842e-01 1.701607e-01 1.675938e-01 1.661767e-01 1.626092e-01 1.597956e-01 1.554472e-01 1.514754e-01 1.465972e-01 1.417434e-01 1.366137e-01 1.311882e-01 1.261082e-01 1.204510e-01 1.157404e-01 1.102160e-01 1.062082e-01 1.011996e-01 9.823586e-02 9.413665e-02 9.255847e-02 8.976200e-02 8.989997e-02 8.878460e-02 9.094300e-02 9.185219e-02 9.628815e-02 9.950503e-02 1.064020e-01 1.121184e-01 1.215545e-01 1.298366e-01 1.417509e-01 1.525035e-01 1.666633e-01 1.795992e-01 1.955749e-01 2.101950e-01 2.273497e-01 2.429404e-01 2.604410e-01 2.760963e-01 2.929507e-01 3.076196e-01 3.227405e-01 3.352980e-01 3.475846e-01 3.569150e-01 3.653413e-01 3.704206e-01 3.741137e-01 3.740761e-01 3.723741e-01 3.665576e-01 3.590464e-01 3.470235e-01 3.335633e-01 3.151729e-01 2.959351e-01 2.713360e-01 2.468640e-01 2.166200e-01 1.879118e-01 1.530949e-01 1.216748e-01 8.393697e-02 5.184815e-02 1.338443e-02 1.698056e-02 5.365808e-02 7.990838e-02 1.123845e-01 1.326703e-01 1.591428e-01 1.726444e-01 1.923607e-01 1.995687e-01 2.129841e-01 2.155718e-01 2.240886e-01 2.243081e-01 2.295736e-01 2.293534e-01 2.324723e-01 2.327924e-01 2.340091e-01 2.348573e-01 2.336817e-01 2.342938e-01 2.299350e-01 2.291587e-01 2.209556e-01 2.177349e-01 2.055433e-01 1.994440e-01 1.838244e-01 1.750964e-01 1.569810e-01 1.462234e-01 1.265672e-01 1.144566e-01 9.408246e-02 8.124926e-02 6.081856e-02 4.780515e-02 2.783322e-02 1.508581e-02 4.032005e-03 1.615732e-02 3.411888e-02 4.534378e-02 6.191759e-02 7.202750e-02 8.703403e-02 9.586619e-02 1.091655e-01 
1.047229e-01 1.151166e-01 1.214662e-01 1.302153e-01 1.350190e-01 1.420765e-01 1.453095e-01 1.506652e-01 1.523458e-01 1.560256e-01 1.562143e-01 1.582815e-01 1.570812e-01 1.576383e-01 1.551930e-01 1.543823e-01 1.508756e-01 1.488783e-01 1.445300e-01 1.415652e-01 1.366273e-01 1.329489e-01 1.277015e-01 1.235955e-01 1.183420e-01 1.141230e-01 1.091864e-01 1.051940e-01 1.009126e-01 9.750693e-02 9.423012e-02 9.178627e-02 8.986821e-02 8.876645e-02 8.855471e-02 8.916402e-02 9.098000e-02 9.363254e-02 9.774379e-02 1.027034e-01 1.092929e-01 1.167235e-01 1.258602e-01 1.357957e-01 1.474065e-01 1.597208e-01 1.735620e-01 1.879416e-01 2.035763e-01 2.195009e-01 2.362884e-01 2.530301e-01 2.701376e-01 2.867830e-01 3.032236e-01 3.187238e-01 3.334203e-01 3.466635e-01 3.585321e-01 3.684279e-01 3.764664e-01 3.820269e-01 3.853928e-01 3.857951e-01 3.838596e-01 3.784838e-01 3.708628e-01 3.593122e-01 3.458873e-01 3.280131e-01 3.089640e-01 2.849206e-01 2.607938e-01 2.311479e-01 2.029742e-01 1.688969e-01 1.384054e-01 1.021686e-01 7.274652e-02 4.243723e-02 3.435574e-02 5.400253e-02 7.663288e-02 1.072039e-01 1.271643e-01 1.533520e-01 1.671726e-01 1.869715e-01 1.945878e-01 2.082003e-01 2.109873e-01 2.198006e-01 2.198967e-01 2.256029e-01 2.250051e-01 2.287861e-01 2.286285e-01 2.307525e-01 2.311194e-01 2.311062e-01 2.312652e-01 2.283170e-01 2.271059e-01 2.205238e-01 2.168588e-01 2.064363e-01 1.998826e-01 1.861549e-01 1.769747e-01 1.608510e-01 1.496483e-01 1.320620e-01 1.195228e-01 1.012984e-01 8.809122e-02 6.996694e-02 5.677843e-02 3.969873e-02 2.783961e-02 1.655636e-02 1.674277e-02 2.777895e-02 3.807995e-02 5.224616e-02 6.247511e-02 7.578970e-02 8.495364e-02 9.689868e-02 
1.198151e-01 1.309296e-01 1.365981e-01 1.459462e-01 1.501721e-01 1.576607e-01 1.604075e-01 1.659973e-01 1.672766e-01 1.709756e-01 1.708435e-01 1.727059e-01 1.712615e-01 1.713873e-01 1.687704e-01 1.673054e-01 1.636941e-01 1.608279e-01 1.564349e-01 1.523981e-01 1.474666e-01 1.425275e-01 1.373265e-01 1.317871e-01 1.266078e-01 1.208001e-01 1.159534e-01 1.102368e-01 1.060519e-01 1.008118e-01 9.763677e-02 9.328328e-02 9.148401e-02 8.844632e-02 8.839620e-02 8.710275e-02 8.915270e-02 8.998903e-02 9.441979e-02 9.767577e-02 1.046550e-01 1.104888e-01 1.200511e-01 1.284767e-01 1.405152e-01 1.513924e-01 1.656431e-01 1.786592e-01 1.946786e-01 2.093276e-01 2.264791e-01 2.420545e-01 2.595144e-01 2.751264e-01 2.919191e-01 3.065397e-01 3.215993e-01 3.341321e-01 3.463860e-01 3.557494e-01 3.642072e-01 3.694176e-01 3.732507e-01 3.734883e-01 3.720883e-01 3.667424e-01 3.597575e-01 3.484572e-01 3.358222e-01 3.184737e-01 3.004580e-01 2.773215e-01 2.546281e-01 2.264821e-01 2.004543e-01 1.689861e-01 1.421457e-01 1.112917e-01 8.954280e-02 7.168996e-02 7.023289e-02 8.321496e-02 9.932463e-02 1.241285e-01 1.402399e-01 1.634031e-01 1.744563e-01 1.923851e-01 1.978548e-01 2.101180e-01 2.113865e-01 2.191084e-01 2.184136e-01 2.232195e-01 2.225127e-01 2.254775e-01 2.256662e-01 2.269580e-01 2.279627e-01 2.269682e-01 2.279893e-01 2.238670e-01 2.236978e-01 2.157785e-01 2.132319e-01 2.013688e-01 1.959405e-01 1.807920e-01 1.727475e-01 1.553071e-01 1.452625e-01 1.265295e-01 1.152101e-01 9.615056e-02 8.435743e-02 6.614416e-02 5.503697e-02 4.030141e-02 3.319699e-02 3.082581e-02 3.447895e-02 4.600509e-02 5.460149e-02 6.899136e-02 7.793916e-02 9.191155e-02 1.000892e-01 1.127990e-01 
1.113543e-01 1.209408e-01 1.266037e-01 1.348214e-01 1.391428e-01 1.458442e-01 1.487348e-01 1.538507e-01 1.552895e-01 1.588076e-01 1.588287e-01 1.607851e-01 1.594719e-01 1.599476e-01 1.574278e-01 1.565464e-01 1.529879e-01 1.509133e-01 1.465187e-01 1.434523e-01 1.384542e-01 1.346312e-01 1.292869e-01 1.249736e-01 1.195612e-01 1.150532e-01 1.098714e-01 1.054946e-01 1.008662e-01 9.698238e-02 9.326390e-02 9.027943e-02 8.787177e-02 8.623983e-02 8.558255e-02 8.577679e-02 8.730031e-02 8.974245e-02 9.378021e-02 9.875238e-02 1.054698e-01 1.130748e-01 1.224609e-01 1.326369e-01 1.445273e-01 1.570651e-01 1.711478e-01 1.856835e-01 2.014837e-01 2.174783e-01 2.343437e-01 2.510744e-01 2.681797e-01 2.847559e-01 3.011363e-01 3.165465e-01 3.311614e-01 3.443448e-01 3.561634e-01 3.660969e-01 3.741895e-01 3.799702e-01 3.835885e-01 3.844945e-01 3.831246e-01 3.786481e-01 3.720360e-01 3.618952e-01 3.500624e-01 3.342225e-01 3.175026e-01 2.962480e-01 2.753868e-01 2.495074e-01 2.258866e-01 1.971129e-01 1.732433e-01 1.453575e-01 1.260907e-01 1.076302e-01 1.013425e-01 1.035654e-01 1.119303e-01 1.292469e-01 1.414368e-01 1.611991e-01 1.704055e-01 1.867095e-01 1.911167e-01 2.024681e-01 2.027575e-01 2.099921e-01 2.082227e-01 2.129631e-01 2.112480e-01 2.146962e-01 2.141675e-01 2.164088e-01 2.170377e-01 2.173676e-01 2.183509e-01 2.159035e-01 2.159633e-01 2.100386e-01 2.077939e-01 1.981197e-01 1.929862e-01 1.802909e-01 1.725547e-01 1.578362e-01 1.481166e-01 1.323391e-01 1.213899e-01 1.055263e-01 9.424399e-02 7.951298e-02 6.917658e-02 5.771705e-02 5.074762e-02 4.664733e-02 4.648894e-02 5.181727e-02 5.742789e-02 6.755005e-02 7.512982e-02 8.627229e-02 9.387040e-02 1.045384e-01 
1.290035e-01 1.391414e-01 1.440269e-01 1.527054e-01 1.563580e-01 1.633812e-01 1.657032e-01 1.709658e-01 1.719281e-01 1.753922e-01 1.750223e-01 1.767080e-01 1.750827e-01 1.750630e-01 1.723032e-01 1.707004e-01 1.669658e-01 1.639477e-01 1.594311e-01 1.552065e-01 1.501277e-01 1.449418e-01 1.395428e-01 1.336728e-01 1.282148e-01 1.219685e-01 1.167334e-01 1.104516e-01 1.057510e-01 9.981932e-02 9.601331e-02 9.088253e-02 8.840350e-02 8.460857e-02 8.396462e-02 8.210117e-02 8.380730e-02 8.441538e-02 8.884294e-02 9.224158e-02 9.950317e-02 1.057307e-01 1.157091e-01 1.246015e-01 1.370398e-01 1.483133e-01 1.628508e-01 1.761140e-01 1.922663e-01 2.069924e-01 2.241228e-01 2.396262e-01 2.569391e-01 2.723795e-01 2.889476e-01 3.033678e-01 3.181923e-01 3.305850e-01 3.426802e-01 3.520711e-01 3.605567e-01 3.660869e-01 3.702699e-01 3.712602e-01 3.706915e-01 3.666827e-01 3.611910e-01 3.519698e-01 3.416908e-01 3.273278e-01 3.127583e-01 2.937007e-01 2.758153e-01 2.530989e-01 2.335711e-01 2.092642e-01 1.908268e-01 1.688484e-01 1.555921e-01 1.422799e-01 1.382479e-01 1.387194e-01 1.429173e-01 1.541134e-01 1.605443e-01 1.750697e-01 1.791342e-01 1.918276e-01 1.920797e-01 2.008915e-01 1.981881e-01 2.035366e-01 2.001483e-01 2.036434e-01 2.015783e-01 2.041321e-01 2.039350e-01 2.054829e-01 2.068792e-01 2.063674e-01 2.085574e-01 2.050756e-01 2.068001e-01 1.997704e-01 1.993779e-01 1.885822e-01 1.852735e-01 1.717020e-01 1.657843e-01 1.505409e-01 1.426505e-01 1.267710e-01 1.177311e-01 1.024035e-01 9.330043e-02 8.024696e-02 7.270254e-02 6.473866e-02 6.113939e-02 6.131963e-02 6.306826e-02 7.054602e-02 7.589421e-02 8.683303e-02 9.347148e-02 1.052110e-01 1.118237e-01 1.230786e-01 
1.236047e-01 1.318685e-01 1.363526e-01 1.436443e-01 1.470996e-01 1.531578e-01 1.554166e-01 1.600909e-01 1.610765e-01 1.642945e-01 1.640000e-01 1.657508e-01 1.642266e-01 1.645524e-01 1.618972e-01 1.608868e-01 1.572394e-01 1.550239e-01 1.505550e-01 1.473023e-01 1.422074e-01 1.381171e-01 1.326099e-01 1.279101e-01 1.222194e-01 1.171667e-01 1.115399e-01 1.064272e-01 1.011462e-01 9.632373e-02 9.173941e-02 8.765388e-02 8.423831e-02 8.147754e-02 7.985770e-02 7.913550e-02 8.001168e-02 8.199340e-02 8.588630e-02 9.091713e-02 9.795093e-02 1.059758e-01 1.159350e-01 1.266578e-01 1.391654e-01 1.521922e-01 1.667916e-01 1.816540e-01 1.977951e-01 2.139162e-01 2.309226e-01 2.475888e-01 2.646483e-01 2.810138e-01 2.972051e-01 3.123337e-01 3.266902e-01 3.396282e-01 3.512282e-01 3.610939e-01 3.691588e-01 3.752277e-01 3.792048e-01 3.809661e-01 3.805765e-01 3.777498e-01 3.729966e-01 3.655180e-01 3.566736e-01 3.446822e-01 3.322897e-01 3.161632e-01 3.010864e-01 2.815813e-01 2.651214e-01 2.436799e-01 2.277210e-01 2.069583e-01 1.939629e-01 1.779943e-01 1.703243e-01 1.635117e-01 1.615550e-01 1.647174e-01 1.658094e-01 1.748031e-01 1.754513e-01 1.849419e-01 1.830499e-01 1.898849e-01 1.852225e-01 1.893807e-01 1.839285e-01 1.868134e-01 1.829156e-01 1.858275e-01 1.845322e-01 1.870368e-01 1.880201e-01 1.888762e-01 1.913902e-01 1.897867e-01 1.925586e-01 1.880900e-01 1.889716e-01 1.809965e-01 1.789337e-01 1.686593e-01 1.639630e-01 1.523752e-01 1.456279e-01 1.335685e-01 1.255878e-01 1.140438e-01 1.059014e-01 9.616299e-02 8.922173e-02 8.293696e-02 7.876165e-02 7.743806e-02 7.705448e-02 8.074474e-02 8.368295e-02 9.074975e-02 9.558118e-02 1.041529e-01 1.095946e-01 1.183899e-01 
1.430905e-01 1.519251e-01 1.557131e-01 1.634440e-01 1.662563e-01 1.725970e-01 1.742778e-01 1.790499e-01 1.795249e-01 1.826326e-01 1.818935e-01 1.833096e-01 1.814036e-01 1.811615e-01 1.781827e-01 1.763696e-01 1.724506e-01 1.692009e-01 1.645040e-01 1.599929e-01 1.547022e-01 1.491388e-01 1.434535e-01 1.370756e-01 1.312073e-01 1.242806e-01 1.184587e-01 1.112852e-01 1.057775e-01 9.872217e-02 9.388026e-02 8.742834e-02 8.376403e-02 7.860641e-02 7.686181e-02 7.392483e-02 7.498069e-02 7.518392e-02 7.965136e-02 8.340355e-02 9.126476e-02 9.831713e-02 1.091129e-01 1.189233e-01 1.321083e-01 1.441295e-01 1.591812e-01 1.728912e-01 1.892599e-01 2.040970e-01 2.211435e-01 2.364530e-01 2.534240e-01 2.684469e-01 2.844953e-01 2.983979e-01 3.126427e-01 3.245796e-01 3.361920e-01 3.453863e-01 3.536848e-01 3.595040e-01 3.640329e-01 3.660428e-01 3.666206e-01 3.646090e-01 3.613477e-01 3.553307e-01 3.486440e-01 3.388754e-01 3.294914e-01 3.164931e-01 3.054620e-01 2.900861e-01 2.787335e-01 2.622617e-01 2.519879e-01 2.362225e-01 2.280531e-01 2.152263e-01 2.092290e-01 2.014144e-01 1.965014e-01 1.945039e-01 1.890986e-01 1.916521e-01 1.847314e-01 1.889587e-01 1.804144e-01 1.834816e-01 1.741111e-01 1.755574e-01 1.679122e-01 1.695384e-01 1.656678e-01 1.676761e-01 1.667892e-01 1.688861e-01 1.705094e-01 1.704937e-01 1.742698e-01 1.714757e-01 1.765795e-01 1.712126e-01 1.749722e-01 1.663448e-01 1.669787e-01 1.567141e-01 1.545837e-01 1.435830e-01 1.392714e-01 1.283222e-01 1.227245e-01 1.129110e-01 1.072142e-01 9.995688e-02 9.553452e-02 9.232798e-02 9.039730e-02 9.201385e-02 9.297705e-02 9.875815e-02 1.019915e-01 1.103653e-01 1.148308e-01 1.242967e-01 1.290952e-01 1.385900e-01 
1.400740e-01 1.468300e-01 1.498945e-01 1.560490e-01 1.583990e-01 1.636305e-01 1.650526e-01 1.691446e-01 1.695173e-01 1.723357e-01 1.716118e-01 1.730907e-01 1.712837e-01 1.714151e-01 1.685876e-01 1.674141e-01 1.636667e-01 1.612738e-01 1.567342e-01 1.532437e-01 1.480565e-01 1.436193e-01 1.379381e-01 1.327292e-01 1.267124e-01 1.209312e-01 1.147481e-01 1.086283e-01 1.024829e-01 9.632685e-02 9.051639e-02 8.477129e-02 7.980181e-02 7.519474e-02 7.194100e-02 6.959318e-02 6.929585e-02 7.045684e-02 7.413130e-02 7.935867e-02 8.704657e-02 9.591313e-02 1.069317e-01 1.186533e-01 1.322291e-01 1.460983e-01 1.615516e-01 1.769468e-01 1.936210e-01 2.099086e-01 2.270895e-01 2.435629e-01 2.604499e-01 2.763232e-01 2.920539e-01 3.065040e-01 3.202237e-01 3.324681e-01 3.434289e-01 3.528196e-01 3.604878e-01 3.665951e-01 3.707344e-01 3.733904e-01 3.740939e-01 3.733742e-01 3.710304e-01 3.671796e-01 3.623891e-01 3.557194e-01 3.491883e-01 3.399882e-01 3.324164e-01 3.209055e-01 3.128639e-01 2.992513e-01 2.910336e-01 2.757480e-01 2.672428e-01 2.513439e-01 2.420902e-01 2.276259e-01 2.172293e-01 2.068697e-01 1.955903e-01 1.908930e-01 1.796214e-01 1.790641e-01 1.680696e-01 1.681279e-01 1.563037e-01 1.562828e-01 1.455996e-01 1.458678e-01 1.388820e-01 1.413967e-01 1.388409e-01 1.417790e-01 1.425734e-01 1.435892e-01 1.477885e-01 1.466841e-01 1.538954e-01 1.521326e-01 1.586659e-01 1.540269e-01 1.572601e-01 1.517646e-01 1.519496e-01 1.458129e-01 1.434003e-01 1.369591e-01 1.328422e-01 1.268085e-01 1.221121e-01 1.173960e-01 1.132654e-01 1.107543e-01 1.081427e-01 1.084008e-01 1.078062e-01 1.108003e-01 1.121202e-01 1.172486e-01 1.199364e-01 1.263496e-01 1.297232e-01 1.366223e-01 
1.608559e-01 1.683123e-01 1.708745e-01 1.775384e-01 1.793623e-01 1.849024e-01 1.858014e-01 1.899835e-01 1.898502e-01 1.925234e-01 1.913180e-01 1.924043e-01 1.901447e-01 1.896313e-01 1.863825e-01 1.843137e-01 1.801768e-01 1.766461e-01 1.717469e-01 1.668877e-01 1.613660e-01 1.553425e-01 1.493428e-01 1.423429e-01 1.360108e-01 1.282429e-01 1.217309e-01 1.134330e-01 1.069269e-01 9.840088e-02 9.218621e-02 8.388928e-02 7.849628e-02 7.124095e-02 6.769321e-02 6.292568e-02 6.283596e-02 6.238549e-02 6.702466e-02 7.158620e-02 8.060656e-02 8.921671e-02 1.014147e-01 1.128044e-01 1.271829e-01 1.404286e-01 1.562679e-01 1.706871e-01 1.873566e-01 2.023355e-01 2.191781e-01 2.340853e-01 2.503857e-01 2.645590e-01 2.795715e-01 2.923538e-01 3.053712e-01 3.161742e-01 3.266193e-01 3.349927e-01 3.425061e-01 3.481889e-01 3.526864e-01 3.556206e-01 3.573073e-01 3.576185e-01 3.569694e-01 3.549351e-01 3.526631e-01 3.486720e-01 3.456605e-01 3.401200e-01 3.372407e-01 3.303833e-01 3.281280e-01 3.197806e-01 3.177621e-01 3.073256e-01 3.039707e-01 2.909124e-01 2.838175e-01 2.686295e-01 2.557607e-01 2.406342e-01 2.218823e-01 2.099383e-01 1.879426e-01 1.806618e-01 1.594329e-01 1.546490e-01 1.360459e-01 1.322847e-01 1.196585e-01 1.197541e-01 1.149198e-01 1.161453e-01 1.138063e-01 1.170793e-01 1.174994e-01 1.171457e-01 1.217074e-01 1.183698e-01 1.283562e-01 1.257323e-01 1.371994e-01 1.332163e-01 1.404259e-01 1.367023e-01 1.402407e-01 1.362652e-01 1.367045e-01 1.326223e-01 1.310190e-01 1.275212e-01 1.251036e-01 1.230559e-01 1.209513e-01 1.210871e-01 1.201085e-01 1.227517e-01 1.232383e-01 1.281807e-01 1.299995e-01 1.366317e-01 1.393531e-01 1.469223e-01 1.500303e-01 1.578324e-01 
1.594874e-01 1.647631e-01 1.663608e-01 1.713207e-01 1.724600e-01 1.767836e-01 1.772523e-01 1.806892e-01 1.803479e-01 1.827154e-01 1.814899e-01 1.826680e-01 1.805400e-01 1.804662e-01 1.774615e-01 1.761237e-01 1.723002e-01 1.697302e-01 1.651653e-01 1.614303e-01 1.562090e-01 1.514033e-01 1.456081e-01 1.398456e-01 1.335515e-01 1.269623e-01 1.202404e-01 1.129776e-01 1.059172e-01 9.818763e-02 9.095797e-02 8.311043e-02 7.611555e-02 6.886891e-02 6.310713e-02 5.802670e-02 5.561180e-02 5.527847e-02 5.862824e-02 6.440441e-02 7.340421e-02 8.387364e-02 9.669885e-02 1.100883e-01 1.253242e-01 1.405075e-01 1.572257e-01 1.734177e-01 1.908467e-01 2.073403e-01 2.247037e-01 2.407735e-01 2.572561e-01 2.721641e-01 2.869556e-01 3.000162e-01 3.124043e-01 3.230813e-01 3.325716e-01 3.405785e-01 3.470104e-01 3.523807e-01 3.559995e-01 3.590910e-01 3.605377e-01 3.619401e-01 3.621321e-01 3.624815e-01 3.623980e-01 3.621376e-01 3.625501e-01 3.616745e-01 3.628556e-01 3.606747e-01 3.621064e-01 3.571464e-01 3.572972e-01 3.475794e-01 3.439497e-01 3.278826e-01 3.176532e-01 2.954925e-01 2.770182e-01 2.521641e-01 2.268876e-01 2.052791e-01 1.785429e-01 1.643536e-01 1.423689e-01 1.333153e-01 1.134890e-01 1.098253e-01 9.360747e-02 8.991654e-02 7.899361e-02 8.226416e-02 7.766790e-02 8.095345e-02 7.917712e-02 7.867334e-02 8.297570e-02 7.974237e-02 9.262968e-02 9.536490e-02 1.125721e-01 1.158444e-01 1.277165e-01 1.313917e-01 1.383530e-01 1.404702e-01 1.432674e-01 1.438493e-01 1.437864e-01 1.434872e-01 1.418887e-01 1.414892e-01 1.394639e-01 1.396647e-01 1.380238e-01 1.393180e-01 1.385348e-01 1.411279e-01 1.413370e-01 1.451418e-01 1.462003e-01 1.509121e-01 1.525100e-01 1.577167e-01 
1.812186e-01 1.873782e-01 1.887222e-01 1.943248e-01 1.951139e-01 1.998267e-01 1.998756e-01 2.034337e-01 2.026222e-01 2.048314e-01 2.031006e-01 2.038356e-01 2.011810e-01 2.003814e-01 1.968421e-01 1.945062e-01 1.901522e-01 1.863286e-01 1.812476e-01 1.760244e-01 1.703080e-01 1.638017e-01 1.575340e-01 1.498786e-01 1.431297e-01 1.344697e-01 1.272980e-01 1.177902e-01 1.102638e-01 1.001023e-01 9.236101e-02 8.186311e-02 7.428853e-02 6.416483e-02 5.785470e-02 5.000466e-02 4.776081e-02 4.615138e-02 5.129422e-02 5.767911e-02 6.884391e-02 8.019789e-02 9.456023e-02 1.084047e-01 1.244891e-01 1.395651e-01 1.565173e-01 1.720104e-01 1.891063e-01 2.043136e-01 2.208190e-01 2.350692e-01 2.502446e-01 2.629300e-01 2.761063e-01 2.867688e-01 2.974606e-01 3.058869e-01 3.139046e-01 3.201824e-01 3.256974e-01 3.301893e-01 3.337114e-01 3.369435e-01 3.392193e-01 3.417405e-01 3.436458e-01 3.459486e-01 3.484321e-01 3.509278e-01 3.549269e-01 3.577938e-01 3.639203e-01 3.666587e-01 3.745620e-01 3.754181e-01 3.830262e-01 3.788778e-01 3.820986e-01 3.694698e-01 3.630142e-01 3.403249e-01 3.199251e-01 2.899815e-01 2.554069e-01 2.257981e-01 1.830599e-01 1.615267e-01 1.228505e-01 1.097686e-01 8.064410e-02 7.108300e-02 5.800704e-02 5.822565e-02 5.505986e-02 5.398282e-02 4.664183e-02 5.219529e-02 4.753707e-02 4.429642e-02 4.520628e-02 3.809433e-02 5.080531e-02 4.885047e-02 7.786513e-02 8.841822e-02 1.058226e-01 1.144665e-01 1.253868e-01 1.314417e-01 1.371433e-01 1.410048e-01 1.432044e-01 1.457535e-01 1.460206e-01 1.481787e-01 1.477161e-01 1.502466e-01 1.498708e-01 1.532720e-01 1.534323e-01 1.578905e-01 1.587142e-01 1.641301e-01 1.655025e-01 1.715749e-01 1.732401e-01 1.795669e-01 
1.808363e-01 1.847586e-01 1.849559e-01 1.887631e-01 1.886828e-01 1.920983e-01 1.915698e-01 1.943414e-01 1.932387e-01 1.951532e-01 1.933963e-01 1.942871e-01 1.918369e-01 1.915857e-01 1.884355e-01 1.869715e-01 1.831358e-01 1.804312e-01 1.759334e-01 1.719968e-01 1.668573e-01 1.617246e-01 1.559510e-01 1.496757e-01 1.432558e-01 1.359008e-01 1.288026e-01 1.204374e-01 1.126213e-01 1.033342e-01 9.479111e-02 8.474110e-02 7.560368e-02 6.520467e-02 5.612249e-02 4.676868e-02 4.035718e-02 3.682846e-02 3.955022e-02 4.681754e-02 5.845893e-02 7.182214e-02 8.744485e-02 1.033451e-01 1.208875e-01 1.379434e-01 1.563795e-01 1.737197e-01 1.921795e-01 2.089865e-01 2.265660e-01 2.420060e-01 2.577828e-01 2.710769e-01 2.842197e-01 2.947870e-01 3.047202e-01 3.123420e-01 3.189202e-01 3.238640e-01 3.275007e-01 3.305482e-01 3.322418e-01 3.345811e-01 3.357914e-01 3.387518e-01 3.411007e-01 3.457625e-01 3.506020e-01 3.574191e-01 3.654291e-01 3.739435e-01 3.848358e-01 3.933908e-01 4.056081e-01 4.110414e-01 4.213595e-01 4.190792e-01 4.224493e-01 4.075437e-01 3.979103e-01 3.676823e-01 3.406738e-01 2.981846e-01 2.555303e-01 2.115899e-01 1.641521e-01 1.314031e-01 1.002430e-01 8.052705e-02 6.526321e-02 5.874282e-02 4.211150e-02 2.562814e-02 4.833220e-03 1.746100e-02 8.683328e-03 1.466927e-02 5.156278e-03 1.314243e-02 1.347250e-02 1.766450e-02 1.183868e-02 2.154427e-02 3.565450e-02 6.734276e-02 9.244046e-02 1.118896e-01 1.270657e-01 1.394974e-01 1.475010e-01 1.552724e-01 1.587417e-01 1.634683e-01 1.643055e-01 1.672405e-01 1.667415e-01 1.688478e-01 1.678740e-01 1.698507e-01 1.689379e-01 1.712330e-01 1.706553e-01 1.734809e-01 1.733030e-01 1.766679e-01 1.768032e-01 1.805646e-01 
2.032842e-01 2.083077e-01 2.085246e-01 2.131539e-01 2.129356e-01 2.168656e-01 2.160544e-01 2.190128e-01 2.174979e-01 2.192613e-01 2.169819e-01 2.173847e-01 2.143255e-01 2.132621e-01 2.094438e-01 2.068664e-01 2.023326e-01 1.982443e-01 1.930469e-01 1.874916e-01 1.816751e-01 1.747246e-01 1.683132e-01 1.600533e-01 1.530413e-01 1.435594e-01 1.359086e-01 1.252857e-01 1.169352e-01 1.052499e-01 9.614991e-02 8.351260e-02 7.372501e-02 6.042798e-02 5.051120e-02 3.786238e-02 3.105454e-02 2.665444e-02 3.324760e-02 4.381883e-02 5.855505e-02 7.412499e-02 9.129580e-02 1.084544e-01 1.266911e-01 1.442595e-01 1.627195e-01 1.798127e-01 1.976150e-01 2.133399e-01 2.295220e-01 2.429914e-01 2.566078e-01 2.670850e-01 2.773932e-01 2.845180e-01 2.912208e-01 2.952430e-01 2.987101e-01 3.005967e-01 3.019236e-01 3.031818e-01 3.039466e-01 3.061295e-01 3.079064e-01 3.120712e-01 3.160622e-01 3.226415e-01 3.297345e-01 3.388653e-01 3.498734e-01 3.615382e-01 3.770081e-01 3.903720e-01 4.096644e-01 4.217624e-01 4.416223e-01 4.465335e-01 4.601426e-01 4.501029e-01 4.478206e-01 4.170145e-01 3.897116e-01 3.401804e-01 2.852636e-01 2.318720e-01 1.581137e-01 1.209068e-01 5.584444e-02 5.884773e-02 4.041406e-02 4.543301e-02 5.053922e-02 4.730589e-02 1.652890e-02 1.991305e-02 1.574322e-02 2.260700e-02 2.309859e-02 2.277603e-02 2.142517e-02 2.114060e-02 1.989064e-02 2.318858e-02 1.256058e-02 3.580431e-02 6.974066e-02 9.608192e-02 1.157979e-01 1.329751e-01 1.433584e-01 1.544801e-01 1.595574e-01 1.669233e-01 1.690760e-01 1.742907e-01 1.749492e-01 1.791427e-01 1.791927e-01 1.831332e-01 1.831001e-01 1.872476e-01 1.873882e-01 1.919342e-01 1.922999e-01 1.972179e-01 1.977172e-01 2.028249e-01 
2.033213e-01 2.060529e-01 2.049711e-01 2.077223e-01 2.064707e-01 2.090334e-01 2.075141e-01 2.096606e-01 2.077916e-01 2.092972e-01 2.070163e-01 2.076761e-01 2.049388e-01 2.045802e-01 2.013541e-01 1.998437e-01 1.961004e-01 1.933470e-01 1.890538e-01 1.850060e-01 1.801168e-01 1.747558e-01 1.692038e-01 1.625325e-01 1.562237e-01 1.482538e-01 1.410646e-01 1.318052e-01 1.235853e-01 1.130363e-01 1.036214e-01 9.177901e-02 8.102374e-02 6.791757e-02 5.579975e-02 4.169485e-02 2.899311e-02 1.714053e-02 1.726314e-02 2.925959e-02 4.577680e-02 6.346172e-02 8.253225e-02 1.015720e-01 1.218336e-01 1.412858e-01 1.618725e-01 1.808503e-01 2.007424e-01 2.181990e-01 2.362031e-01 2.509853e-01 2.658533e-01 2.768943e-01 2.875555e-01 2.941853e-01 3.000712e-01 3.023735e-01 3.037569e-01 3.028207e-01 3.010209e-01 2.989145e-01 2.962157e-01 2.955899e-01 2.948076e-01 2.981462e-01 3.018594e-01 3.105904e-01 3.202761e-01 3.343916e-01 3.501855e-01 3.685692e-01 3.896103e-01 4.100847e-01 4.343972e-01 4.527275e-01 4.760181e-01 4.849007e-01 4.993286e-01 4.891333e-01 4.834747e-01 4.456087e-01 4.090188e-01 3.427221e-01 2.750460e-01 1.974207e-01 1.185515e-01 5.822533e-02 4.355796e-02 8.460164e-02 1.425464e-01 7.897211e-02 6.302939e-02 7.496373e-02 4.716597e-02 1.770974e-02 1.494954e-02 1.213471e-02 2.265948e-02 3.594785e-02 4.205668e-02 4.805642e-02 5.173910e-02 5.522461e-02 5.739851e-02 5.278065e-02 7.895304e-02 1.063768e-01 1.273637e-01 1.477218e-01 1.590190e-01 1.720606e-01 1.777436e-01 1.859490e-01 1.884075e-01 1.935687e-01 1.941624e-01 1.975111e-01 1.970793e-01 1.994800e-01 1.985587e-01 2.006077e-01 1.995234e-01 2.015983e-01 2.005182e-01 2.028118e-01 2.017830e-01 2.043348e-01 
2.262921e-01 2.303763e-01 2.296027e-01 2.333965e-01 2.322441e-01 2.354869e-01 2.338457e-01 2.362757e-01 2.340661e-01 2.354447e-01 2.326227e-01 2.327519e-01 2.293065e-01 2.280390e-01 2.239831e-01 2.212261e-01 2.165842e-01 2.122973e-01 2.070903e-01 2.012773e-01 1.955074e-01 1.882038e-01 1.818407e-01 1.730981e-01 1.660680e-01 1.559371e-01 1.481178e-01 1.366338e-01 1.278561e-01 1.150298e-01 1.050888e-01 9.090544e-02 7.958603e-02 6.401656e-02 5.114832e-02 3.418763e-02 1.994518e-02 4.271288e-03 1.690450e-02 3.561783e-02 5.411376e-02 7.439740e-02 9.428482e-02 1.151674e-01 1.358237e-01 1.565158e-01 1.770220e-01 1.964891e-01 2.156236e-01 2.325826e-01 2.488977e-01 2.619369e-01 2.739418e-01 2.817957e-01 2.882902e-01 2.903007e-01 2.908766e-01 2.875895e-01 2.832163e-01 2.768686e-01 2.702291e-01 2.645750e-01 2.595029e-01 2.583642e-01 2.580808e-01 2.632095e-01 2.688414e-01 2.795640e-01 2.908631e-01 3.060884e-01 3.232092e-01 3.429135e-01 3.668899e-01 3.911699e-01 4.224910e-01 4.484367e-01 4.839193e-01 5.026748e-01 5.328367e-01 5.300412e-01 5.389836e-01 4.999354e-01 4.686927e-01 3.887907e-01 3.065295e-01 2.116528e-01 8.668070e-02 5.189674e-02 1.153317e-01 1.826444e-01 8.517987e-02 1.573256e-02 5.593707e-02 6.380619e-02 7.155541e-02 8.673974e-02 8.946701e-02 9.826369e-02 9.811679e-02 9.198225e-02 9.960732e-02 8.509610e-02 1.027980e-01 8.036650e-02 9.201388e-02 6.525380e-02 8.265475e-02 1.076453e-01 1.260311e-01 1.479908e-01 1.588100e-01 1.738098e-01 1.798430e-01 1.899986e-01 1.931435e-01 2.002278e-01 2.016462e-01 2.069130e-01 2.073564e-01 2.116808e-01 2.116356e-01 2.156011e-01 2.153547e-01 2.193014e-01 2.189829e-01 2.230458e-01 2.226632e-01 2.268121e-01 
2.262660e-01 2.279758e-01 2.257548e-01 2.275700e-01 2.252205e-01 2.270181e-01 2.245405e-01 2.261392e-01 2.235254e-01 2.247060e-01 2.219373e-01 2.224652e-01 2.195082e-01 2.191552e-01 2.159585e-01 2.145231e-01 2.110153e-01 2.083376e-01 2.044260e-01 2.003945e-01 1.959644e-01 1.905133e-01 1.854264e-01 1.785243e-01 1.726151e-01 1.642489e-01 1.573223e-01 1.474797e-01 1.393110e-01 1.279679e-01 1.183099e-01 1.054284e-01 9.403040e-02 7.957925e-02 6.623137e-02 5.027863e-02 3.500671e-02 1.875118e-02 1.001642e-02 2.427240e-02 4.303621e-02 6.385868e-02 8.539770e-02 1.073927e-01 1.302918e-01 1.525333e-01 1.756908e-01 1.970241e-01 2.190168e-01 2.379203e-01 2.569885e-01 2.716499e-01 2.858523e-01 2.944528e-01 3.020289e-01 3.032978e-01 3.032685e-01 2.972590e-01 2.901734e-01 2.789804e-01 2.674932e-01 2.554277e-01 2.442332e-01 2.369850e-01 2.316993e-01 2.341045e-01 2.388538e-01 2.519588e-01 2.669945e-01 2.883441e-01 3.115698e-01 3.387986e-01 3.689110e-01 4.008789e-01 4.373853e-01 4.707734e-01 5.100145e-01 5.352433e-01 5.668894e-01 5.682641e-01 5.736971e-01 5.327330e-01 4.865296e-01 3.886626e-01 2.793429e-01 1.469345e-01 2.315330e-02 1.012815e-01 2.032090e-01 9.491792e-02 7.869762e-02 2.323610e-02 8.298007e-02 1.326831e-01 9.961866e-02 7.441433e-02 9.099981e-02 6.053160e-02 6.806275e-02 3.828976e-02 5.634892e-02 2.278071e-02 5.076526e-02 1.340200e-02 5.074083e-02 7.871088e-02 1.025304e-01 1.332123e-01 1.476638e-01 1.692073e-01 1.788648e-01 1.935033e-01 1.995534e-01 2.092948e-01 2.126867e-01 2.190478e-01 2.205404e-01 2.246433e-01 2.248177e-01 2.274985e-01 2.267867e-01 2.286654e-01 2.273754e-01 2.288965e-01 2.272349e-01 2.286931e-01 2.267872e-01 2.283461e-01 
2.495543e-01 2.529097e-01 2.513034e-01 2.544251e-01 2.524347e-01 2.551178e-01 2.526988e-01 2.547063e-01 2.518311e-01 2.529215e-01 2.495832e-01 2.495331e-01 2.457416e-01 2.443641e-01 2.401369e-01 2.372947e-01 2.326450e-01 2.282555e-01 2.231790e-01 2.172118e-01 2.116740e-01 2.041409e-01 1.980648e-01 1.890026e-01 1.822590e-01 1.717098e-01 1.641120e-01 1.521064e-01 1.434110e-01 1.299614e-01 1.198822e-01 1.050019e-01 9.324865e-02 7.704296e-02 6.344776e-02 4.659383e-02 3.206092e-02 2.155082e-02 2.337200e-02 4.131329e-02 5.946453e-02 8.266733e-02 1.043465e-01 1.287968e-01 1.520434e-01 1.764698e-01 1.998020e-01 2.227319e-01 2.443304e-01 2.638488e-01 2.814833e-01 2.952871e-01 3.064775e-01 3.121913e-01 3.146400e-01 3.105105e-01 3.029213e-01 2.889769e-01 2.723288e-01 2.518795e-01 2.309317e-01 2.117075e-01 1.953869e-01 1.875782e-01 1.842064e-01 1.914768e-01 2.004408e-01 2.166541e-01 2.325263e-01 2.524424e-01 2.733634e-01 2.975919e-01 3.263325e-01 3.589697e-01 4.003511e-01 4.418562e-01 4.954152e-01 5.344621e-01 5.887730e-01 6.015859e-01 6.342370e-01 5.910959e-01 5.673519e-01 4.401683e-01 3.339413e-01 1.502747e-01 6.511223e-02 9.040593e-02 1.442057e-01 8.062455e-02 5.173071e-03 1.882601e-01 1.660648e-01 7.197426e-02 6.404852e-02 4.786223e-02 2.752541e-02 2.666728e-02 8.154774e-03 4.143418e-02 2.150036e-02 4.698322e-02 3.093266e-02 4.964136e-02 3.757030e-02 8.836307e-02 1.037626e-01 1.379540e-01 1.487877e-01 1.710830e-01 1.794488e-01 1.951790e-01 2.010836e-01 2.123176e-01 2.161091e-01 2.242099e-01 2.263798e-01 2.323777e-01 2.333882e-01 2.380706e-01 2.382922e-01 2.422395e-01 2.419344e-01 2.455404e-01 2.448661e-01 2.483550e-01 2.473802e-01 2.508268e-01 