# vtk DataFile Version 2.0
Comment goes here
ASCII

DATASET STRUCTURED_POINTS
DIMENSIONS    128   128   1

ORIGIN    0.000   0.000   0.000
SPACING   0.0156250.015625   1.000

POINT_DATA   16384
SCALARS uX double
LOOKUP_TABLE default

1.547613e-01 1.486513e-01 1.466813e-01 1.403766e-01 1.374674e-01 1.309477e-01 1.271461e-01 1.204248e-01 1.158061e-01 1.089229e-01 1.035837e-01 9.659537e-02 9.064484e-02 8.361529e-02 7.716546e-02 7.015538e-02 6.331041e-02 5.636609e-02 4.921099e-02 4.235320e-02 3.494228e-02 2.815556e-02 2.050132e-02 1.372397e-02 5.786977e-03 -1.097222e-03 -9.416650e-03 -1.658434e-02 -2.545146e-02 -3.314194e-02 -4.278865e-02 -5.130112e-02 -6.202106e-02 -7.170514e-02 -8.384122e-02 -9.507921e-02 -1.090018e-01 -1.221813e-01 -1.382560e-01 -1.537324e-01 -1.722770e-01 -1.903261e-01 -2.115590e-01 -2.323223e-01 -2.563046e-01 -2.797322e-01 -3.063105e-01 -3.321089e-01 -3.608667e-01 -3.884593e-01 -4.186879e-01 -4.472004e-01 -4.778980e-01 -5.061755e-01 -5.360824e-01 -5.627419e-01 -5.904116e-01 -6.139283e-01 -6.378278e-01 -6.566406e-01 -6.752638e-01 -6.878851e-01 -6.998627e-01 -7.049734e-01 -7.091650e-01 -7.056883e-01 -7.012547e-01 -6.884135e-01 -6.748796e-01 -6.522548e-01 -6.295788e-01 -5.971885e-01 -5.658479e-01 -5.242577e-01 -4.853463e-01 -4.357946e-01 -3.910953e-01 -3.355892e-01 -2.875682e-01 -2.288815e-01 -1.805472e-01 -1.220521e-01 -7.665029e-02 -2.195003e-02 1.749576e-02 6.512286e-02 9.638248e-02 1.346517e-01 1.568741e-01 1.850836e-01 1.991525e-01 2.183181e-01 2.265620e-01 2.387507e-01 2.438454e-01 2.510064e-01 2.548101e-01 2.579827e-01 2.613554e-01 2.605604e-01 2.635172e-01 2.584725e-01 2.606007e-01 2.514583e-01 2.525062e-01 2.402774e-01 2.406062e-01 2.270055e-01 2.273340e-01 2.139483e-01 2.148104e-01 2.026038e-01 2.041536e-01 1.934762e-01 1.955769e-01 1.863777e-01 1.887522e-01 1.807839e-01 1.831241e-01 1.760748e-01 1.780993e-01 1.716641e-01 1.731407e-01 1.670542e-01 1.678058e-01 1.618541e-01 1.617571e-01 1.557805e-01 
1.719741e-01 1.667874e-01 1.645107e-01 1.588769e-01 1.556962e-01 1.495828e-01 1.455481e-01 1.389616e-01 1.341507e-01 1.271293e-01 1.216405e-01 1.142451e-01 1.081885e-01 1.004930e-01 9.398065e-02 8.606081e-02 7.919599e-02 7.111773e-02 6.398342e-02 5.579077e-02 4.843825e-02 4.014162e-02 3.257930e-02 2.414447e-02 1.632778e-02 7.666639e-03 -5.101379e-04 -9.546350e-03 -1.825529e-02 -2.787885e-02 -3.735919e-02 -4.784351e-02 -5.839649e-02 -7.006680e-02 -8.204273e-02 -9.525816e-02 -1.090341e-01 -1.241600e-01 -1.401071e-01 -1.574768e-01 -1.759166e-01 -1.957836e-01 -2.169358e-01 -2.394188e-01 -2.633428e-01 -2.883684e-01 -3.149062e-01 -3.421567e-01 -3.708841e-01 -3.997604e-01 -4.299587e-01 -4.595672e-01 -4.902234e-01 -5.193969e-01 -5.492416e-01 -5.765965e-01 -6.041779e-01 -6.282041e-01 -6.519916e-01 -6.711609e-01 -6.896614e-01 -7.025350e-01 -7.144016e-01 -7.197175e-01 -7.238368e-01 -7.205697e-01 -7.161233e-01 -7.035243e-01 -6.900386e-01 -6.676790e-01 -6.450839e-01 -6.129302e-01 -5.816438e-01 -5.401768e-01 -5.012123e-01 -4.515786e-01 -4.066362e-01 -3.507789e-01 -3.022600e-01 -2.429500e-01 -1.938307e-01 -1.345182e-01 -8.805444e-02 -3.249196e-02 8.221662e-03 5.658261e-02 8.915245e-02 1.279154e-01 1.512235e-01 1.797225e-01 1.943681e-01 2.137998e-01 2.220066e-01 2.346240e-01 2.392631e-01 2.471369e-01 2.503946e-01 2.546006e-01 2.574806e-01 2.580444e-01 2.605629e-01 2.571589e-01 2.588529e-01 2.515460e-01 2.521278e-01 2.418525e-01 2.417106e-01 2.301772e-01 2.300679e-01 2.188392e-01 2.192955e-01 2.092818e-01 2.104386e-01 2.019342e-01 2.036391e-01 1.965495e-01 1.985205e-01 1.925651e-01 1.944966e-01 1.893367e-01 1.909533e-01 1.862597e-01 1.873362e-01 1.828198e-01 1.831860e-01 1.786099e-01 1.781486e-01 1.733312e-01 
1.553927e-01 1.493695e-01 1.474448e-01 1.411982e-01 1.383086e-01 1.318212e-01 1.280158e-01 1.213045e-01 1.166619e-01 1.097703e-01 1.043910e-01 9.738057e-02 9.137870e-02 8.431886e-02 7.781224e-02 7.076991e-02 6.386936e-02 5.689764e-02 4.969545e-02 4.282239e-02 3.538062e-02 2.859817e-02 2.093725e-02 1.419112e-02 6.279340e-03 -5.397521e-04 -8.794974e-03 -1.585766e-02 -2.461573e-02 -3.215688e-02 -4.164580e-02 -4.996250e-02 -6.047487e-02 -6.991776e-02 -8.179915e-02 -9.275557e-02 -1.063835e-01 -1.192507e-01 -1.350028e-01 -1.501506e-01 -1.683620e-01 -1.860849e-01 -2.069952e-01 -2.274567e-01 -2.511504e-01 -2.743235e-01 -3.006697e-01 -3.262811e-01 -3.548818e-01 -3.823692e-01 -4.125258e-01 -4.410195e-01 -4.717296e-01 -5.000683e-01 -5.300600e-01 -5.568450e-01 -5.846517e-01 -6.083371e-01 -6.324031e-01 -6.514095e-01 -6.702113e-01 -6.830413e-01 -6.952019e-01 -7.005386e-01 -7.049201e-01 -7.016968e-01 -6.974674e-01 -6.849156e-01 -6.716027e-01 -6.492989e-01 -6.268501e-01 -5.947862e-01 -5.636536e-01 -5.223466e-01 -4.835909e-01 -4.342214e-01 -3.896020e-01 -3.341331e-01 -2.861200e-01 -2.273206e-01 -1.789641e-01 -1.202584e-01 -7.488369e-02 -1.998851e-02 1.926718e-02 6.690935e-02 9.767833e-02 1.356139e-01 1.569453e-01 1.844194e-01 1.972822e-01 2.155087e-01 2.225845e-01 2.339874e-01 2.383133e-01 2.450597e-01 2.484737e-01 2.516257e-01 2.549552e-01 2.542824e-01 2.574813e-01 2.524953e-01 2.550080e-01 2.457619e-01 2.471621e-01 2.347182e-01 2.353926e-01 2.217251e-01 2.224898e-01 2.092764e-01 2.106458e-01 1.987756e-01 2.008296e-01 1.905470e-01 1.930946e-01 1.842787e-01 1.870233e-01 1.793947e-01 1.820310e-01 1.752695e-01 1.775272e-01 1.713299e-01 1.729885e-01 1.670951e-01 1.679868e-01 1.621888e-01 1.621965e-01 1.563384e-01 
1.734471e-01 1.684490e-01 1.662585e-01 1.607520e-01 1.576068e-01 1.515643e-01 1.475192e-01 1.409534e-01 1.360927e-01 1.290494e-01 1.234792e-01 1.160289e-01 1.098692e-01 1.020973e-01 9.547177e-02 8.746716e-02 8.049232e-02 7.233537e-02 6.510886e-02 5.685909e-02 4.944766e-02 4.113138e-02 3.355922e-02 2.515794e-02 1.739584e-02 8.836151e-03 7.924312e-04 -8.061796e-03 -1.654772e-02 -2.589950e-02 -3.505942e-02 -4.517780e-02 -5.531119e-02 -6.652358e-02 -7.798649e-02 -9.066239e-02 -1.038467e-01 -1.183711e-01 -1.336725e-01 -1.504080e-01 -1.681828e-01 -1.874209e-01 -2.079312e-01 -2.298341e-01 -2.531863e-01 -2.777253e-01 -3.038061e-01 -3.307027e-01 -3.591237e-01 -3.878041e-01 -4.178652e-01 -4.474416e-01 -4.781261e-01 -5.074144e-01 -5.374257e-01 -5.650064e-01 -5.928491e-01 -6.171685e-01 -6.412649e-01 -6.607599e-01 -6.795826e-01 -6.928034e-01 -7.049964e-01 -7.106993e-01 -7.151650e-01 -7.123622e-01 -7.083100e-01 -6.962851e-01 -6.832574e-01 -6.615791e-01 -6.394878e-01 -6.080619e-01 -5.772666e-01 -5.364552e-01 -4.978876e-01 -4.486898e-01 -4.039861e-01 -3.482262e-01 -2.997834e-01 -2.402047e-01 -1.910719e-01 -1.312358e-01 -8.480554e-02 -2.873205e-02 1.171503e-02 6.017449e-02 9.199810e-02 1.300426e-01 1.518582e-01 1.787310e-01 1.911122e-01 2.085314e-01 2.142577e-01 2.252212e-01 2.280164e-01 2.350256e-01 2.373435e-01 2.414701e-01 2.442228e-01 2.450306e-01 2.480471e-01 2.448203e-01 2.473123e-01 2.398865e-01 2.411816e-01 2.305284e-01 2.310943e-01 2.194968e-01 2.202966e-01 2.094868e-01 2.109884e-01 2.017037e-01 2.038814e-01 1.962033e-01 1.988003e-01 1.925017e-01 1.952042e-01 1.899481e-01 1.924613e-01 1.878962e-01 1.899690e-01 1.857711e-01 1.872027e-01 1.830929e-01 1.837319e-01 1.794829e-01 1.792247e-01 1.746623e-01 
1.573638e-01 1.515940e-01 1.498009e-01 1.437225e-01 1.408875e-01 1.344914e-01 1.306708e-01 1.239835e-01 1.192646e-01 1.123414e-01 1.068364e-01 9.975276e-02 9.359030e-02 8.643222e-02 7.974758e-02 7.260056e-02 6.552449e-02 5.846213e-02 5.110889e-02 4.418104e-02 3.663606e-02 2.985720e-02 2.216485e-02 1.550307e-02 7.655196e-03 1.022399e-03 -7.051829e-03 -1.380776e-02 -2.224951e-02 -2.934945e-02 -3.837424e-02 -4.610810e-02 -5.600438e-02 -6.472502e-02 -7.584528e-02 -8.595417e-02 -9.869646e-02 -1.106189e-01 -1.253968e-01 -1.395456e-01 -1.567452e-01 -1.734716e-01 -1.933967e-01 -2.129312e-01 -2.357380e-01 -2.581235e-01 -2.837516e-01 -3.087780e-01 -3.368868e-01 -3.640364e-01 -3.939595e-01 -4.223779e-01 -4.531106e-01 -4.816163e-01 -5.118486e-01 -5.389913e-01 -5.671909e-01 -5.913569e-01 -6.158954e-01 -6.354444e-01 -6.547419e-01 -6.681465e-01 -6.808044e-01 -6.867576e-01 -6.916521e-01 -6.891273e-01 -6.854577e-01 -6.737258e-01 -6.610377e-01 -6.396751e-01 -6.178928e-01 -5.868210e-01 -5.563227e-01 -5.159136e-01 -4.776585e-01 -4.289095e-01 -3.845814e-01 -3.293097e-01 -2.813889e-01 -2.223361e-01 -1.739969e-01 -1.147314e-01 -6.952463e-02 -1.408734e-02 2.453624e-02 7.221820e-02 1.014868e-01 1.384126e-01 1.570073e-01 1.821824e-01 1.912519e-01 2.065193e-01 2.099392e-01 2.189247e-01 2.210481e-01 2.265275e-01 2.287279e-01 2.319275e-01 2.350173e-01 2.347345e-01 2.386460e-01 2.338206e-01 2.376250e-01 2.280675e-01 2.306480e-01 2.175044e-01 2.193422e-01 2.055730e-01 2.078087e-01 1.952701e-01 1.982751e-01 1.875215e-01 1.911274e-01 1.820704e-01 1.859486e-01 1.782815e-01 1.821071e-01 1.754796e-01 1.789735e-01 1.730540e-01 1.759862e-01 1.704837e-01 1.726700e-01 1.673412e-01 1.686408e-01 1.632924e-01 1.636059e-01 1.580946e-01 
1.765411e-01 1.719095e-01 1.698828e-01 1.646214e-01 1.615396e-01 1.556299e-01 1.515567e-01 1.450229e-01 1.400540e-01 1.329567e-01 1.272138e-01 1.196422e-01 1.132647e-01 1.053270e-01 9.846166e-02 9.027291e-02 8.306305e-02 7.473277e-02 6.730529e-02 5.892415e-02 5.137695e-02 4.300340e-02 3.539258e-02 2.704006e-02 1.936775e-02 1.099295e-02 3.196389e-03 -5.310531e-03 -1.336773e-02 -2.218994e-02 -3.072303e-02 -4.011925e-02 -4.942238e-02 -5.972265e-02 -7.016135e-02 -8.175408e-02 -9.374797e-02 -1.070560e-01 -1.210491e-01 -1.364931e-01 -1.529105e-01 -1.708581e-01 -1.900483e-01 -2.107515e-01 -2.329172e-01 -2.564401e-01 -2.815626e-01 -3.077090e-01 -3.354761e-01 -3.637277e-01 -3.934804e-01 -4.229623e-01 -4.536763e-01 -4.831671e-01 -5.134866e-01 -5.414863e-01 -5.698180e-01 -5.946728e-01 -6.193328e-01 -6.393985e-01 -6.587824e-01 -6.725842e-01 -6.853185e-01 -6.916604e-01 -6.966937e-01 -6.946875e-01 -6.913084e-01 -6.803347e-01 -6.681436e-01 -6.477951e-01 -6.266866e-01 -5.967649e-01 -5.669839e-01 -5.276083e-01 -4.899117e-01 -4.417598e-01 -3.976420e-01 -3.422615e-01 -2.941121e-01 -2.341553e-01 -1.851822e-01 -1.244014e-01 -7.825634e-02 -2.118247e-02 1.856695e-02 6.726253e-02 9.758519e-02 1.341461e-01 1.530398e-01 1.763625e-01 1.840429e-01 1.971633e-01 1.975312e-01 2.050911e-01 2.040963e-01 2.093681e-01 2.097179e-01 2.138346e-01 2.161421e-01 2.174354e-01 2.214263e-01 2.185298e-01 2.229068e-01 2.153150e-01 2.182835e-01 2.067650e-01 2.090274e-01 1.975388e-01 2.005070e-01 1.908665e-01 1.946813e-01 1.870615e-01 1.913424e-01 1.853865e-01 1.897329e-01 1.850073e-01 1.891056e-01 1.852101e-01 1.888204e-01 1.854036e-01 1.883364e-01 1.850948e-01 1.871988e-01 1.838757e-01 1.850342e-01 1.814201e-01 1.815509e-01 1.774844e-01 
1.608840e-01 1.555182e-01 1.539306e-01 1.481170e-01 1.453612e-01 1.391028e-01 1.352446e-01 1.285825e-01 1.237229e-01 1.167311e-01 1.110007e-01 1.037774e-01 9.732881e-02 8.998713e-02 8.298450e-02 7.564095e-02 6.824827e-02 6.101064e-02 5.337893e-02 4.633357e-02 3.858750e-02 3.178673e-02 2.401116e-02 1.746099e-02 9.687872e-03 3.336511e-03 -4.467300e-03 -1.073955e-02 -1.868285e-02 -2.507141e-02 -3.334631e-02 -4.012640e-02 -4.901128e-02 -5.653633e-02 -6.639184e-02 -7.508364e-02 -8.633882e-02 -9.666678e-02 -1.097925e-01 -1.222393e-01 -1.377063e-01 -1.527183e-01 -1.709391e-01 -1.888610e-01 -2.101160e-01 -2.311135e-01 -2.554669e-01 -2.794429e-01 -3.066585e-01 -3.331773e-01 -3.626495e-01 -3.908860e-01 -4.216077e-01 -4.503438e-01 -4.809335e-01 -5.086201e-01 -5.374201e-01 -5.623108e-01 -5.875515e-01 -6.078868e-01 -6.278813e-01 -6.420767e-01 -6.553924e-01 -6.621716e-01 -6.677279e-01 -6.661636e-01 -6.632453e-01 -6.527184e-01 -6.409376e-01 -6.210685e-01 -6.003380e-01 -5.709604e-01 -5.415439e-01 -5.027886e-01 -4.654644e-01 -4.179929e-01 -3.743035e-01 -3.196426e-01 -2.720870e-01 -2.128954e-01 -1.648694e-01 -1.049283e-01 -6.033484e-02 -4.178734e-03 3.312111e-02 8.081705e-02 1.074756e-01 1.427032e-01 1.565732e-01 1.776218e-01 1.797736e-01 1.896869e-01 1.864439e-01 1.913320e-01 1.905307e-01 1.936904e-01 1.935421e-01 1.972796e-01 1.993131e-01 1.996021e-01 2.044793e-01 1.997092e-01 2.061997e-01 1.962041e-01 2.012797e-01 1.868141e-01 1.911620e-01 1.777480e-01 1.830592e-01 1.722417e-01 1.783121e-01 1.697449e-01 1.759954e-01 1.690700e-01 1.750798e-01 1.692961e-01 1.747987e-01 1.697695e-01 1.745790e-01 1.699922e-01 1.739610e-01 1.695582e-01 1.725624e-01 1.681303e-01 1.700680e-01 1.654368e-01 1.662324e-01 1.612752e-01 
1.815297e-01 1.774242e-01 1.756231e-01 1.707096e-01 1.677054e-01 1.619758e-01 1.578426e-01 1.513361e-01 1.461851e-01 1.389832e-01 1.329581e-01 1.251776e-01 1.184461e-01 1.102288e-01 1.029726e-01 9.447312e-02 8.687540e-02 7.824700e-02 7.047892e-02 6.185943e-02 5.406604e-02 4.556282e-02 3.784890e-02 2.952432e-02 2.194031e-02 1.379787e-02 6.326458e-03 -1.701916e-03 -9.157874e-03 -1.722236e-02 -2.484950e-02 -3.318929e-02 -4.126908e-02 -5.021357e-02 -5.912076e-02 -6.908212e-02 -7.927320e-02 -9.072726e-02 -1.027152e-01 -1.161673e-01 -1.304794e-01 -1.464128e-01 -1.635300e-01 -1.823356e-01 -2.026123e-01 -2.245030e-01 -2.480735e-01 -2.729887e-01 -2.996689e-01 -3.271850e-01 -3.563882e-01 -3.856555e-01 -4.163481e-01 -4.460827e-01 -4.768078e-01 -5.053652e-01 -5.343554e-01 -5.598961e-01 -5.852731e-01 -6.059978e-01 -6.260162e-01 -6.404022e-01 -6.536638e-01 -6.606138e-01 -6.661723e-01 -6.650124e-01 -6.623392e-01 -6.526798e-01 -6.415318e-01 -6.230811e-01 -6.033749e-01 -5.758244e-01 -5.476377e-01 -5.107309e-01 -4.745186e-01 -4.283783e-01 -3.853784e-01 -3.310364e-01 -2.836414e-01 -2.235271e-01 -1.752657e-01 -1.133564e-01 -6.830334e-02 -9.834946e-03 2.823411e-02 7.735956e-02 1.052996e-01 1.395136e-01 1.544104e-01 1.714752e-01 1.719426e-01 1.782087e-01 1.694509e-01 1.719396e-01 1.652436e-01 1.677917e-01 1.648978e-01 1.693843e-01 1.700515e-01 1.717159e-01 1.767610e-01 1.739396e-01 1.819797e-01 1.745579e-01 1.809239e-01 1.678841e-01 1.737968e-01 1.634986e-01 1.707639e-01 1.638060e-01 1.715395e-01 1.668297e-01 1.742683e-01 1.709591e-01 1.777483e-01 1.752980e-01 1.812803e-01 1.793065e-01 1.843856e-01 1.825830e-01 1.866746e-01 1.847827e-01 1.878047e-01 1.855997e-01 1.874772e-01 1.847717e-01 1.854460e-01 1.820922e-01 
1.662704e-01 1.614361e-01 1.601106e-01 1.546391e-01 1.519717e-01 1.458788e-01 1.419447e-01 1.352896e-01 1.302062e-01 1.230869e-01 1.170096e-01 1.095553e-01 1.026691e-01 9.503059e-02 8.753987e-02 7.987671e-02 7.199208e-02 6.445990e-02 5.638410e-02 4.912058e-02 4.103371e-02 3.414466e-02 2.618921e-02 1.973479e-02 1.200055e-02 5.981726e-03 -1.509031e-03 -7.163535e-03 -1.447030e-02 -1.991590e-02 -2.719260e-02 -3.267827e-02 -4.018254e-02 -4.605574e-02 -5.415220e-02 -6.085606e-02 -7.000988e-02 -7.806905e-02 -8.882559e-02 -9.881653e-02 -1.117626e-01 -1.242644e-01 -1.399675e-01 -1.554905e-01 -1.744146e-01 -1.933080e-01 -2.157081e-01 -2.380508e-01 -2.638567e-01 -2.893466e-01 -3.180550e-01 -3.459198e-01 -3.765260e-01 -4.054915e-01 -4.364986e-01 -4.648502e-01 -4.943879e-01 -5.201471e-01 -5.462008e-01 -5.673949e-01 -5.880945e-01 -6.030415e-01 -6.169094e-01 -6.244044e-01 -6.304664e-01 -6.297936e-01 -6.275273e-01 -6.183179e-01 -6.075064e-01 -5.895402e-01 -5.701395e-01 -5.431981e-01 -5.153266e-01 -4.792097e-01 -4.433589e-01 -3.981840e-01 -3.556556e-01 -3.024332e-01 -2.557745e-01 -1.969784e-01 -1.499939e-01 -8.970013e-02 -4.682726e-02 9.772655e-03 4.434404e-02 9.173524e-02 1.143411e-01 1.471119e-01 1.542034e-01 1.688108e-01 1.600772e-01 1.620382e-01 1.479479e-01 1.477569e-01 1.465638e-01 1.453474e-01 1.401037e-01 1.460822e-01 1.441593e-01 1.442715e-01 1.493853e-01 1.433325e-01 1.548613e-01 1.446942e-01 1.551221e-01 1.389243e-01 1.488898e-01 1.379526e-01 1.490681e-01 1.419710e-01 1.527549e-01 1.476821e-01 1.574718e-01 1.535132e-01 1.621724e-01 1.588578e-01 1.663884e-01 1.634126e-01 1.698143e-01 1.669375e-01 1.721800e-01 1.691980e-01 1.732268e-01 1.699641e-01 1.727163e-01 1.690275e-01 1.704466e-01 1.662209e-01 
1.887768e-01 1.853350e-01 1.838031e-01 1.793210e-01 1.763922e-01 1.708706e-01 1.666278e-01 1.601221e-01 1.546940e-01 1.473115e-01 1.408690e-01 1.327619e-01 1.255101e-01 1.168648e-01 1.090313e-01 1.000549e-01 9.187624e-02 8.278102e-02 7.448770e-02 6.547490e-02 5.727556e-02 4.851875e-02 4.058425e-02 3.221274e-02 2.466005e-02 1.674247e-02 9.618365e-03 2.146481e-03 -4.588654e-03 -1.171523e-02 -1.820276e-02 -2.518970e-02 -3.168541e-02 -3.885243e-02 -4.573353e-02 -5.351524e-02 -6.127767e-02 -7.021229e-02 -7.945321e-02 -9.015391e-02 -1.015338e-01 -1.146379e-01 -1.288177e-01 -1.449096e-01 -1.624590e-01 -1.819666e-01 -2.032459e-01 -2.263144e-01 -2.513379e-01 -2.776963e-01 -3.059994e-01 -3.348478e-01 -3.653938e-01 -3.953559e-01 -4.265321e-01 -4.557254e-01 -4.854763e-01 -5.117373e-01 -5.378491e-01 -5.590931e-01 -5.795724e-01 -5.941817e-01 -6.075937e-01 -6.146556e-01 -6.202669e-01 -6.195256e-01 -6.171825e-01 -6.087258e-01 -5.985372e-01 -5.823895e-01 -5.644008e-01 -5.402080e-01 -5.142760e-01 -4.812643e-01 -4.473334e-01 -4.047317e-01 -3.635712e-01 -3.115085e-01 -2.655496e-01 -2.060012e-01 -1.594943e-01 -9.666901e-02 -5.459703e-02 5.395324e-03 3.922447e-02 8.895018e-02 1.127392e-01 1.434771e-01 1.543998e-01 1.600276e-01 1.518257e-01 1.501351e-01 1.275025e-01 1.242822e-01 1.097170e-01 1.089658e-01 1.008885e-01 1.059534e-01 1.013466e-01 1.012949e-01 1.060084e-01 1.007589e-01 1.149267e-01 1.088479e-01 1.230692e-01 1.090105e-01 1.238418e-01 1.185894e-01 1.335483e-01 1.317042e-01 1.448213e-01 1.442412e-01 1.554011e-01 1.554099e-01 1.648927e-01 1.651767e-01 1.732101e-01 1.735326e-01 1.802356e-01 1.803793e-01 1.857866e-01 1.855453e-01 1.896392e-01 1.888208e-01 1.915585e-01 1.899923e-01 1.913280e-01 1.888741e-01 
1.739033e-01 1.697023e-01 1.686783e-01 1.636038e-01 1.610176e-01 1.550961e-01 1.510293e-01 1.443386e-01 1.389259e-01 1.315926e-01 1.250185e-01 1.172102e-01 1.097009e-01 1.016157e-01 9.342687e-02 8.527967e-02 7.668198e-02 6.868982e-02 5.995277e-02 5.231940e-02 4.369497e-02 3.659550e-02 2.830145e-02 2.186703e-02 1.406985e-02 8.372021e-03 1.169309e-03 -3.796224e-03 -1.039419e-02 -1.472426e-02 -2.081330e-02 -2.471348e-02 -3.051303e-02 -3.431121e-02 -4.017764e-02 -4.433131e-02 -5.076252e-02 -5.585489e-02 -6.348032e-02 -7.019902e-02 -7.974815e-02 -8.884002e-02 -1.010822e-01 -1.132779e-01 -1.289277e-01 -1.448323e-01 -1.644186e-01 -1.843694e-01 -2.080742e-01 -2.319786e-01 -2.594678e-01 -2.866506e-01 -3.169400e-01 -3.460540e-01 -3.774758e-01 -4.065450e-01 -4.368842e-01 -4.635392e-01 -4.903685e-01 -5.122642e-01 -5.334050e-01 -5.486904e-01 -5.626118e-01 -5.702275e-01 -5.761816e-01 -5.758195e-01 -5.736683e-01 -5.654517e-01 -5.553342e-01 -5.394222e-01 -5.214523e-01 -4.977033e-01 -4.718363e-01 -4.396535e-01 -4.059220e-01 -3.645759e-01 -3.238528e-01 -2.734508e-01 -2.283981e-01 -1.710413e-01 -1.263109e-01 -6.656628e-02 -2.765892e-02 2.819064e-02 5.682668e-02 1.024775e-01 1.182102e-01 1.470893e-01 1.454015e-01 1.495566e-01 1.249561e-01 1.183070e-01 8.841784e-02 8.633478e-02 9.471372e-02 8.842620e-02 6.639391e-02 7.679637e-02 6.647065e-02 5.964897e-02 6.285370e-02 4.946639e-02 6.783037e-02 5.558224e-02 8.097934e-02 6.944943e-02 9.362020e-02 9.114862e-02 1.112768e-01 1.102119e-01 1.264029e-01 1.256186e-01 1.389479e-01 1.383106e-01 1.495339e-01 1.489400e-01 1.584710e-01 1.577812e-01 1.658159e-01 1.648772e-01 1.714826e-01 1.701411e-01 1.753095e-01 1.734192e-01 1.771054e-01 1.745367e-01 1.766855e-01 1.733345e-01 
1.986847e-01 1.960233e-01 1.947885e-01 1.908029e-01 1.879318e-01 1.826259e-01 1.782050e-01 1.716493e-01 1.658249e-01 1.581555e-01 1.511302e-01 1.425420e-01 1.345662e-01 1.253011e-01 1.166597e-01 1.069906e-01 9.798725e-02 8.820072e-02 7.914036e-02 6.951769e-02 6.068904e-02 5.148775e-02 4.314561e-02 3.458076e-02 2.692795e-02 1.915321e-02 1.232149e-02 5.409373e-03 -5.612560e-04 -6.640044e-03 -1.182331e-02 -1.722065e-02 -2.182593e-02 -2.683487e-02 -3.122578e-02 -3.629303e-02 -4.099760e-02 -4.672408e-02 -5.242973e-02 -5.955209e-02 -6.707706e-02 -7.642202e-02 -8.665447e-02 -9.905794e-02 -1.128546e-01 -1.290394e-01 -1.470791e-01 -1.674904e-01 -1.900866e-01 -2.146955e-01 -2.415884e-01 -2.696976e-01 -2.998748e-01 -3.299905e-01 -3.616183e-01 -3.914867e-01 -4.220507e-01 -4.489552e-01 -4.756727e-01 -4.970070e-01 -5.174462e-01 -5.313953e-01 -5.440577e-01 -5.500323e-01 -5.545823e-01 -5.530955e-01 -5.500914e-01 -5.421310e-01 -5.323824e-01 -5.186495e-01 -5.025461e-01 -4.828320e-01 -4.599512e-01 -4.328300e-01 -4.022184e-01 -3.655074e-01 -3.269926e-01 -2.792641e-01 -2.353185e-01 -1.776949e-01 -1.341743e-01 -7.108907e-02 -3.540696e-02 2.586034e-02 4.907621e-02 9.941489e-02 1.129652e-01 1.384508e-01 1.472370e-01 1.252138e-01 1.104206e-01 1.096506e-01 8.308031e-02 7.760302e-02 1.739734e-02 5.017836e-02 2.801615e-02 1.075254e-02 1.286150e-02 -9.796213e-03 -2.805848e-03 -1.979622e-02 -3.043673e-03 -2.061401e-02 2.255803e-02 3.234266e-02 6.801695e-02 7.509675e-02 9.904427e-02 1.033573e-01 1.210199e-01 1.245231e-01 1.386066e-01 1.418796e-01 1.535709e-01 1.566463e-01 1.664899e-01 1.692458e-01 1.774899e-01 1.797626e-01 1.864990e-01 1.881114e-01 1.933439e-01 1.941164e-01 1.978026e-01 1.975649e-01 1.996476e-01 1.982527e-01 
1.841672e-01 1.806781e-01 1.799837e-01 1.753402e-01 1.728157e-01 1.670490e-01 1.627755e-01 1.559808e-01 1.501091e-01 1.424442e-01 1.351921e-01 1.268698e-01 1.185125e-01 1.097880e-01 1.006440e-01 9.179955e-02 8.221294e-02 7.354030e-02 6.386253e-02 5.564594e-02 4.621716e-02 3.871652e-02 2.984742e-02 2.328176e-02 1.523506e-02 9.765268e-03 2.735735e-03 -1.554471e-03 -7.462558e-03 -1.058835e-02 -1.538668e-02 -1.748617e-02 -2.132984e-02 -2.268852e-02 -2.590242e-02 -2.697400e-02 -3.007286e-02 -3.149027e-02 -3.518469e-02 -3.775301e-02 -4.293177e-02 -4.759320e-02 -5.527031e-02 -6.303022e-02 -7.424483e-02 -8.604826e-02 -1.017070e-01 -1.182587e-01 -1.389184e-01 -1.604508e-01 -1.860579e-01 -2.120781e-01 -2.417205e-01 -2.708094e-01 -3.025860e-01 -3.323761e-01 -3.635275e-01 -3.910021e-01 -4.184071e-01 -4.405666e-01 -4.615230e-01 -4.762166e-01 -4.891413e-01 -4.955925e-01 -5.001909e-01 -4.988344e-01 -4.956711e-01 -4.874872e-01 -4.773326e-01 -4.631986e-01 -4.465152e-01 -4.266568e-01 -4.032383e-01 -3.766893e-01 -3.458011e-01 -3.105356e-01 -2.721994e-01 -2.267080e-01 -1.837686e-01 -1.293339e-01 -8.817025e-02 -3.012182e-02 1.345160e-03 5.423456e-02 7.019476e-02 1.098690e-01 1.106336e-01 1.303140e-01 1.162342e-01 9.830428e-02 4.541717e-02 2.450544e-02 2.960563e-02 6.817227e-02 1.480378e-02 -1.171534e-02 9.449289e-03 -2.706472e-02 -1.676802e-02 -2.690269e-02 -1.989724e-02 -2.253470e-02 -1.980149e-02 -2.597378e-02 5.383193e-03 2.242106e-02 5.553319e-02 6.140969e-02 8.523895e-02 8.808535e-02 1.065924e-01 1.089453e-01 1.242142e-01 1.264280e-01 1.394026e-01 1.413848e-01 1.525179e-01 1.541230e-01 1.636232e-01 1.647084e-01 1.726428e-01 1.730665e-01 1.794156e-01 1.790368e-01 1.837333e-01 1.824187e-01 1.853788e-01 1.830157e-01 
2.116306e-01 2.098528e-01 2.089361e-01 2.054986e-01 2.026575e-01 1.975576e-01 1.928743e-01 1.861937e-01 1.798298e-01 1.717349e-01 1.639285e-01 1.546640e-01 1.457191e-01 1.355931e-01 1.258634e-01 1.152287e-01 1.050988e-01 9.433160e-02 8.419593e-02 7.367446e-02 6.391807e-02 5.400137e-02 4.498056e-02 3.598838e-02 2.801148e-02 2.020345e-02 1.350973e-02 7.062586e-03 1.797610e-03 -3.220820e-03 -7.034277e-03 -1.069440e-02 -1.318914e-02 -1.573030e-02 -1.722802e-02 -1.908628e-02 -2.012549e-02 -2.195127e-02 -2.330108e-02 -2.595728e-02 -2.860570e-02 -3.313461e-02 -3.823802e-02 -4.578378e-02 -5.456264e-02 -6.623545e-02 -7.980197e-02 -9.647217e-02 -1.155815e-01 -1.376022e-01 -1.623387e-01 -1.892241e-01 -2.186772e-01 -2.488212e-01 -2.808753e-01 -3.114765e-01 -3.429087e-01 -3.703245e-01 -3.973925e-01 -4.180562e-01 -4.375445e-01 -4.492219e-01 -4.595060e-01 -4.621634e-01 -4.636183e-01 -4.591471e-01 -4.536180e-01 -4.445702e-01 -4.341398e-01 -4.224482e-01 -4.082389e-01 -3.942474e-01 -3.755200e-01 -3.571021e-01 -3.312746e-01 -3.040306e-01 -2.688764e-01 -2.286913e-01 -1.864194e-01 -1.328844e-01 -9.241092e-02 -2.988196e-02 -4.425952e-03 5.828091e-02 5.813786e-02 1.105513e-01 9.167492e-02 1.111719e-01 1.158380e-01 8.273033e-03 -2.318620e-02 -5.448002e-02 -6.690769e-02 -1.280387e-01 -6.651034e-02 -2.335031e-02 -3.669676e-02 1.220244e-02 1.300818e-02 3.604440e-02 4.056776e-02 4.884146e-02 5.257112e-02 6.013271e-02 5.674685e-02 5.227109e-02 6.746480e-02 6.736216e-02 8.574254e-02 8.962826e-02 1.065636e-01 1.120236e-01 1.268446e-01 1.326671e-01 1.455382e-01 1.511730e-01 1.623168e-01 1.674738e-01 1.770215e-01 1.814931e-01 1.894782e-01 1.930713e-01 1.994528e-01 2.019710e-01 2.066623e-01 2.079114e-01 2.108101e-01 2.106141e-01 
1.973831e-01 1.946692e-01 1.943321e-01 1.901389e-01 1.876514e-01 1.820051e-01 1.774379e-01 1.704471e-01 1.639644e-01 1.558197e-01 1.476759e-01 1.386416e-01 1.291694e-01 1.195678e-01 1.091602e-01 9.935285e-02 8.844135e-02 7.880782e-02 6.784052e-02 5.875912e-02 4.817984e-02 4.000951e-02 3.023858e-02 2.330201e-02 1.471738e-02 9.283460e-03 2.199727e-03 -1.537166e-03 -6.894256e-03 -8.840321e-03 -1.236589e-02 -1.256018e-02 -1.430875e-02 -1.296038e-02 -1.318825e-02 -1.071443e-02 -9.920112e-03 -6.977536e-03 -5.930884e-03 -3.430291e-03 -3.177804e-03 -2.268389e-03 -4.098703e-03 -6.106368e-03 -1.145636e-02 -1.775646e-02 -2.803525e-02 -3.983878e-02 -5.614887e-02 -7.418728e-02 -9.694059e-02 -1.210638e-01 -1.495442e-01 -1.783181e-01 -2.103451e-01 -2.408535e-01 -2.728265e-01 -3.009920e-01 -3.286120e-01 -3.502680e-01 -3.699229e-01 -3.823732e-01 -3.924729e-01 -3.955135e-01 -3.966742e-01 -3.920833e-01 -3.860847e-01 -3.761598e-01 -3.647150e-01 -3.514214e-01 -3.355956e-01 -3.200930e-01 -2.995982e-01 -2.808872e-01 -2.536785e-01 -2.278238e-01 -1.920812e-01 -1.546735e-01 -1.134060e-01 -6.383667e-02 -2.661596e-02 2.966896e-02 5.068645e-02 9.998402e-02 9.394022e-02 1.226641e-01 8.753412e-02 7.372613e-02 9.919053e-03 -1.552627e-02 1.064297e-02 5.496232e-03 -3.460077e-02 9.317315e-02 9.185885e-02 1.010528e-01 1.070753e-01 9.276119e-02 1.087516e-01 8.709195e-02 1.077439e-01 7.829531e-02 1.109827e-01 7.656153e-02 9.514702e-02 5.876512e-02 7.118122e-02 6.151844e-02 7.810068e-02 7.877133e-02 9.544424e-02 9.924994e-02 1.145915e-01 1.190769e-01 1.328453e-01 1.371625e-01 1.493895e-01 1.531984e-01 1.639149e-01 1.670237e-01 1.761978e-01 1.784457e-01 1.859836e-01 1.872093e-01 1.929762e-01 1.930196e-01 1.968675e-01 1.955851e-01 
2.278949e-01 2.271029e-01 2.265315e-01 2.236904e-01 2.208517e-01 2.159381e-01 2.108987e-01 2.039984e-01 1.969316e-01 1.882422e-01 1.794249e-01 1.692472e-01 1.590458e-01 1.477661e-01 1.366159e-01 1.246816e-01 1.130618e-01 1.009550e-01 8.936473e-02 7.757668e-02 6.651218e-02 5.552016e-02 4.545522e-02 3.570144e-02 2.706835e-02 1.893890e-02 1.210724e-02 5.907864e-03 1.157491e-03 -2.916709e-03 -5.431243e-03 -7.333787e-03 -7.627891e-03 -7.505632e-03 -5.815769e-03 -4.055774e-03 -8.904087e-04 1.839310e-03 5.659485e-03 8.387250e-03 1.171406e-02 1.317481e-02 1.456018e-02 1.325696e-02 1.104558e-02 5.384977e-03 -2.100463e-03 -1.357092e-02 -2.772153e-02 -4.594634e-02 -6.741848e-02 -9.233458e-02 -1.204979e-01 -1.504821e-01 -1.829266e-01 -2.144379e-01 -2.468896e-01 -2.747667e-01 -3.018694e-01 -3.207596e-01 -3.378796e-01 -3.446439e-01 -3.499078e-01 -3.454977e-01 -3.405263e-01 -3.293423e-01 -3.182530e-01 -3.053706e-01 -2.923704e-01 -2.815932e-01 -2.691794e-01 -2.621801e-01 -2.494279e-01 -2.436895e-01 -2.251188e-01 -2.127750e-01 -1.815650e-01 -1.538791e-01 -1.108142e-01 -6.519729e-02 -2.402006e-02 3.684657e-02 5.342917e-02 1.203004e-01 8.408206e-02 1.561194e-01 5.090190e-02 9.630231e-02 -6.633103e-02 5.429376e-03 -1.036680e-01 -5.393884e-02 3.598913e-02 1.431270e-01 1.340336e-01 4.496925e-02 1.091406e-01 4.071537e-02 8.037213e-02 2.003631e-02 6.596057e-02 5.053005e-03 5.934436e-02 -1.356029e-02 6.020281e-02 3.465484e-02 6.021083e-02 5.747614e-02 7.545837e-02 8.078464e-02 9.684834e-02 1.046830e-01 1.193802e-01 1.277182e-01 1.410654e-01 1.491562e-01 1.611483e-01 1.686528e-01 1.792586e-01 1.859496e-01 1.950859e-01 2.007452e-01 2.082758e-01 2.126684e-01 2.184202e-01 2.213017e-01 2.250912e-01 2.262304e-01 
2.137316e-01 2.118538e-01 2.119170e-01 2.081889e-01 2.057207e-01 2.001502e-01 1.951984e-01 1.879010e-01 1.806388e-01 1.718390e-01 1.625607e-01 1.525806e-01 1.416860e-01 1.309259e-01 1.188955e-01 1.078084e-01 9.517556e-02 8.424161e-02 7.156528e-02 6.126876e-02 4.911010e-02 3.992060e-02 2.882358e-02 2.118034e-02 1.165449e-02 5.950707e-03 -1.548121e-03 -4.985139e-03 -1.008086e-02 -1.101816e-02 -1.345142e-02 -1.179026e-02 -1.146824e-02 -7.295269e-03 -4.352468e-03 2.001687e-03 7.137714e-03 1.504086e-02 2.158946e-02 3.006344e-02 3.685145e-02 4.455672e-02 5.001911e-02 5.528830e-02 5.753513e-02 5.848296e-02 5.547012e-02 5.021937e-02 4.007380e-02 2.714788e-02 8.696962e-03 -1.238488e-02 -3.888691e-02 -6.686697e-02 -9.899579e-02 -1.302723e-01 -1.631660e-01 -1.919505e-01 -2.192730e-01 -2.392649e-01 -2.557595e-01 -2.632280e-01 -2.675029e-01 -2.635200e-01 -2.581149e-01 -2.470292e-01 -2.357769e-01 -2.215628e-01 -2.071652e-01 -1.928116e-01 -1.771517e-01 -1.657695e-01 -1.488596e-01 -1.406873e-01 -1.183439e-01 -1.068787e-01 -7.307974e-02 -4.896507e-02 -6.905155e-03 3.378042e-02 6.792141e-02 1.243223e-01 1.354748e-01 1.878621e-01 1.601334e-01 2.082438e-01 1.772446e-01 1.228944e-01 -1.636851e-02 5.294695e-02 -4.766303e-02 2.216830e-01 2.163867e-01 -3.021098e-02 4.699362e-03 1.387111e-02 1.654133e-02 -3.370054e-02 4.322037e-03 -5.348449e-02 -1.115641e-02 -5.882982e-02 -2.093407e-02 -5.601351e-02 -1.542369e-03 8.267302e-03 3.604293e-02 4.345237e-02 6.235462e-02 6.961020e-02 8.600362e-02 9.335544e-02 1.085144e-01 1.156218e-01 1.297020e-01 1.363026e-01 1.492586e-01 1.551809e-01 1.669076e-01 1.720009e-01 1.823414e-01 1.864356e-01 1.951831e-01 1.980815e-01 2.049951e-01 2.064869e-01 2.113183e-01 2.112042e-01 