# vtk DataFile Version 2.0
Comment goes here
ASCII

DATASET STRUCTURED_POINTS
DIMENSIONS    128   128   1

ORIGIN    0.000   0.000   0.000
SPACING   0.0156250.015625   1.000

POINT_DATA   16384
SCALARS uX double
LOOKUP_TABLE default

-6.142141e-02 -6.541320e-02 -6.639149e-02 -6.941314e-02 -6.977658e-02 -7.180613e-02 -7.157355e-02 -7.260362e-02 -7.180431e-02 -7.184424e-02 -7.051864e-02 -6.959657e-02 -6.779688e-02 -6.596144e-02 -6.375206e-02 -6.107349e-02 -5.853126e-02 -5.510216e-02 -5.231657e-02 -4.825215e-02 -4.532558e-02 -4.076377e-02 -3.781192e-02 -3.291318e-02 -3.006558e-02 -2.501254e-02 -2.241299e-02 -1.740958e-02 -1.521610e-02 -1.048567e-02 -8.869336e-03 -4.651250e-03 -3.793105e-03 -3.367708e-04 -4.219178e-04 2.022458e-03 8.145378e-04 2.009409e-03 -4.810279e-04 -7.424063e-04 -4.636545e-03 -6.507351e-03 -1.186478e-02 -1.541820e-02 -2.221122e-02 -2.741248e-02 -3.550061e-02 -4.218109e-02 -5.129002e-02 -5.912832e-02 -6.883868e-02 -7.735431e-02 -8.710605e-02 -9.567156e-02 -1.047885e-01 -1.126637e-01 -1.204005e-01 -1.267892e-01 -1.323975e-01 -1.365223e-01 -1.393299e-01 -1.405154e-01 -1.400058e-01 -1.377589e-01 -1.336408e-01 -1.277173e-01 -1.199759e-01 -1.104270e-01 -9.935397e-02 -8.655242e-02 -7.275624e-02 -5.740055e-02 -4.179632e-02 -2.488933e-02 -8.656529e-03 8.557786e-03 2.406935e-02 4.023238e-02 5.366975e-02 6.750880e-02 7.775337e-02 8.832897e-02 9.475224e-02 1.016722e-01 1.043109e-01 1.078086e-01 1.073658e-01 1.081951e-01 1.058520e-01 1.050528e-01 1.021564e-01 1.007726e-01 9.846109e-02 9.722581e-02 9.606865e-02 9.515934e-02 9.503323e-02 9.407382e-02 9.432800e-02 9.260079e-02 9.236633e-02 8.915026e-02 8.766452e-02 8.254455e-02 7.950367e-02 7.259375e-02 6.833293e-02 6.016449e-02 5.521537e-02 4.633645e-02 4.110439e-02 3.191975e-02 2.665957e-02 1.745832e-02 1.234329e-02 3.349794e-03 -1.484047e-03 -1.008623e-02 -1.452772e-02 -2.258884e-02 -2.655107e-02 -3.395152e-02 -3.737129e-02 -4.401676e-02 -4.685169e-02 -5.266766e-02 -5.489221e-02 -5.981942e-02 
-5.543617e-02 -5.905531e-02 -6.016704e-02 -6.292700e-02 -6.339837e-02 -6.528252e-02 -6.513070e-02 -6.613463e-02 -6.538774e-02 -6.552125e-02 -6.421916e-02 -6.350823e-02 -6.170311e-02 -6.019167e-02 -5.794837e-02 -5.569957e-02 -5.309587e-02 -5.019306e-02 -4.731969e-02 -4.386707e-02 -4.082795e-02 -3.695103e-02 -3.386352e-02 -2.970945e-02 -2.670483e-02 -2.244247e-02 -1.966633e-02 -1.548582e-02 -1.309797e-02 -9.209314e-03 -7.382656e-03 -4.012661e-03 -2.930144e-03 -3.167851e-04 -1.655605e-04 1.451033e-03 4.891793e-04 8.800341e-04 -1.357309e-03 -2.391922e-03 -6.029067e-03 -8.636797e-03 -1.373698e-02 -1.798677e-02 -2.452644e-02 -3.038026e-02 -3.822349e-02 -4.550997e-02 -5.438715e-02 -6.278222e-02 -7.227853e-02 -8.129875e-02 -9.085820e-02 -9.987282e-02 -1.088227e-01 -1.170883e-01 -1.246859e-01 -1.314044e-01 -1.369043e-01 -1.412985e-01 -1.440317e-01 -1.454299e-01 -1.448837e-01 -1.427992e-01 -1.386862e-01 -1.328819e-01 -1.251883e-01 -1.157194e-01 -1.047327e-01 -9.196837e-02 -7.828565e-02 -6.291324e-02 -4.743046e-02 -3.043781e-02 -1.431148e-02 3.067206e-03 1.850878e-02 3.490883e-02 4.832846e-02 6.244974e-02 7.273813e-02 8.359872e-02 9.013121e-02 9.730082e-02 1.001081e-01 1.038100e-01 1.035655e-01 1.045819e-01 1.024065e-01 1.018284e-01 9.900333e-02 9.791422e-02 9.554946e-02 9.469114e-02 9.337229e-02 9.292500e-02 9.258354e-02 9.216586e-02 9.219218e-02 9.110094e-02 9.063980e-02 8.815518e-02 8.642538e-02 8.210482e-02 7.878171e-02 7.271412e-02 6.817289e-02 6.089148e-02 5.568437e-02 4.772103e-02 4.224572e-02 3.398072e-02 2.848127e-02 2.018464e-02 1.483068e-02 6.713733e-03 1.642840e-03 -6.121618e-03 -1.079490e-02 -1.806790e-02 -2.225313e-02 -2.892645e-02 -3.255714e-02 -3.854809e-02 -4.157878e-02 -4.682414e-02 -4.922636e-02 -5.367737e-02 
-6.224860e-02 -6.624722e-02 -6.721275e-02 -7.023849e-02 -7.058720e-02 -7.261604e-02 -7.236553e-02 -7.338820e-02 -7.256673e-02 -7.259098e-02 -7.123824e-02 -7.029102e-02 -6.845869e-02 -6.658781e-02 -6.433997e-02 -6.161518e-02 -5.902846e-02 -5.554212e-02 -5.270581e-02 -4.857308e-02 -4.558934e-02 -4.094817e-02 -3.793240e-02 -3.294342e-02 -3.002488e-02 -2.487109e-02 -2.219348e-02 -1.707954e-02 -1.480122e-02 -9.951897e-03 -8.245068e-03 -3.902109e-03 -2.950076e-03 6.333386e-04 6.416976e-04 3.209902e-03 2.089524e-03 3.397611e-03 9.812613e-04 8.132401e-04 -3.029473e-03 -4.837550e-03 -1.017655e-02 -1.370933e-02 -2.052729e-02 -2.576083e-02 -3.392607e-02 -4.070008e-02 -4.994349e-02 -5.794022e-02 -6.784192e-02 -7.657781e-02 -8.656983e-02 -9.540620e-02 -1.047965e-01 -1.129738e-01 -1.209941e-01 -1.276907e-01 -1.335663e-01 -1.379765e-01 -1.410092e-01 -1.424316e-01 -1.420838e-01 -1.400047e-01 -1.359713e-01 -1.301330e-01 -1.223917e-01 -1.128383e-01 -1.016782e-01 -8.877936e-02 -7.481007e-02 -5.926646e-02 -4.341036e-02 -2.623741e-02 -9.696369e-03 7.829053e-03 2.365714e-02 4.011578e-02 5.380120e-02 6.783860e-02 7.817377e-02 8.877642e-02 9.506930e-02 1.018187e-01 1.041059e-01 1.072755e-01 1.063292e-01 1.067530e-01 1.038626e-01 1.026650e-01 9.930154e-02 9.761717e-02 9.503675e-02 9.367220e-02 9.247840e-02 9.160915e-02 9.162495e-02 9.082632e-02 9.132633e-02 8.980626e-02 8.985976e-02 8.683871e-02 8.558623e-02 8.058555e-02 7.763516e-02 7.077487e-02 6.659090e-02 5.849164e-02 5.366354e-02 4.487540e-02 3.977409e-02 3.066872e-02 2.551414e-02 1.636551e-02 1.132350e-02 2.359216e-03 -2.426600e-03 -1.101468e-02 -1.542364e-02 -2.347947e-02 -2.741813e-02 -3.481876e-02 -3.822031e-02 -4.486973e-02 -4.768982e-02 -5.351226e-02 -5.572398e-02 -6.065873e-02 
-5.700964e-02 -6.063511e-02 -6.172335e-02 -6.448624e-02 -6.492972e-02 -6.680955e-02 -6.662290e-02 -6.761166e-02 -6.682095e-02 -6.692533e-02 -6.556892e-02 -6.481246e-02 -6.294154e-02 -6.136636e-02 -5.904523e-02 -5.671328e-02 -5.401938e-02 -5.101317e-02 -4.803697e-02 -4.446017e-02 -4.130520e-02 -3.728297e-02 -3.406609e-02 -2.974543e-02 -2.659744e-02 -2.214747e-02 -1.921380e-02 -1.482573e-02 -1.226686e-02 -8.153121e-03 -6.144118e-03 -2.535987e-03 -1.264220e-03 1.593063e-03 1.933028e-03 3.788620e-03 3.004009e-03 3.614340e-03 1.527964e-03 6.748576e-04 -2.855812e-03 -5.341586e-03 -1.040029e-02 -1.461076e-02 -2.119461e-02 -2.711360e-02 -3.510427e-02 -4.257738e-02 -5.171583e-02 -6.042649e-02 -7.029712e-02 -7.975576e-02 -8.978696e-02 -9.934008e-02 -1.088274e-01 -1.176923e-01 -1.258476e-01 -1.331743e-01 -1.391993e-01 -1.441543e-01 -1.473286e-01 -1.491891e-01 -1.489596e-01 -1.472012e-01 -1.432552e-01 -1.376184e-01 -1.299316e-01 -1.204611e-01 -1.093185e-01 -9.637913e-02 -8.237987e-02 -6.665933e-02 -5.071077e-02 -3.321282e-02 -1.651010e-02 1.477142e-03 1.751594e-02 3.451485e-02 4.840320e-02 6.294793e-02 7.340184e-02 8.434665e-02 9.062188e-02 9.746213e-02 9.960293e-02 1.026310e-01 1.014547e-01 1.016269e-01 9.844358e-02 9.704950e-02 9.333867e-02 9.165554e-02 8.874719e-02 8.762894e-02 8.617509e-02 8.579775e-02 8.567719e-02 8.554034e-02 8.601691e-02 8.531213e-02 8.542326e-02 8.334244e-02 8.209895e-02 7.805598e-02 7.490034e-02 6.896208e-02 6.458354e-02 5.747887e-02 5.253547e-02 4.478496e-02 3.958403e-02 3.149609e-02 2.621006e-02 1.803004e-02 1.281930e-02 4.770543e-03 -2.081268e-04 -7.933944e-03 -1.254566e-02 -1.979682e-02 -2.393800e-02 -3.060009e-02 -3.419722e-02 -4.018481e-02 -4.318858e-02 -4.843650e-02 -5.081567e-02 -5.527271e-02 
-6.472921e-02 -6.875053e-02 -6.967891e-02 -7.271914e-02 -7.302468e-02 -7.505344e-02 -7.474995e-02 -7.575215e-02 -7.486481e-02 -7.484339e-02 -7.340962e-02 -7.238792e-02 -7.045794e-02 -6.848135e-02 -6.611839e-02 -6.325534e-02 -6.053550e-02 -5.687773e-02 -5.388982e-02 -4.955235e-02 -4.639784e-02 -4.151876e-02 -3.831215e-02 -3.305250e-02 -2.992208e-02 -2.446578e-02 -2.155474e-02 -1.610844e-02 -1.357583e-02 -8.368157e-03 -6.389108e-03 -1.668594e-03 -4.327526e-04 3.536559e-03 3.829407e-03 6.775867e-03 5.924263e-03 7.581154e-03 5.395581e-03 5.519236e-03 1.841596e-03 2.355175e-04 -5.035551e-03 -8.491058e-03 -1.537018e-02 -2.068471e-02 -2.906783e-02 -3.610751e-02 -4.574258e-02 -5.420220e-02 -6.466918e-02 -7.405720e-02 -8.476514e-02 -9.440978e-02 -1.046186e-01 -1.137019e-01 -1.225740e-01 -1.301960e-01 -1.368752e-01 -1.421446e-01 -1.458538e-01 -1.479900e-01 -1.481290e-01 -1.465582e-01 -1.427829e-01 -1.372106e-01 -1.294817e-01 -1.199337e-01 -1.085358e-01 -9.537454e-02 -8.091850e-02 -6.484665e-02 -4.826905e-02 -3.032947e-02 -1.288626e-02 5.557765e-03 2.233522e-02 3.968668e-02 5.413560e-02 6.878179e-02 7.940645e-02 9.008646e-02 9.597776e-02 1.021825e-01 1.033723e-01 1.055185e-01 1.030099e-01 1.022014e-01 9.762458e-02 9.522233e-02 9.041887e-02 8.782232e-02 8.444029e-02 8.269489e-02 8.141520e-02 8.065101e-02 8.107777e-02 8.072941e-02 8.191615e-02 8.096731e-02 8.188952e-02 7.945863e-02 7.898813e-02 7.439758e-02 7.170229e-02 6.503670e-02 6.114884e-02 5.334576e-02 4.897023e-02 4.051326e-02 3.584621e-02 2.699091e-02 2.215448e-02 1.315403e-02 8.318682e-03 -5.696416e-04 -5.222483e-03 -1.377548e-02 -1.809327e-02 -2.613662e-02 -3.000756e-02 -3.741029e-02 -4.075859e-02 -4.742111e-02 -5.019764e-02 -5.604105e-02 -5.821526e-02 -6.317461e-02 
-6.015361e-02 -6.379561e-02 -6.483962e-02 -6.761235e-02 -6.800255e-02 -6.987748e-02 -6.962324e-02 -7.058489e-02 -6.970808e-02 -6.975681e-02 -6.829280e-02 -6.744726e-02 -6.544544e-02 -6.374428e-02 -6.126803e-02 -5.877088e-02 -5.589722e-02 -5.268517e-02 -4.950417e-02 -4.567990e-02 -4.229439e-02 -3.798234e-02 -3.450812e-02 -2.985484e-02 -2.642146e-02 -2.159627e-02 -1.834836e-02 -1.354409e-02 -1.064282e-02 -6.076066e-03 -3.700048e-03 3.897813e-04 2.045188e-03 5.399172e-03 6.125393e-03 8.472009e-03 8.054958e-03 9.121958e-03 7.355214e-03 6.887622e-03 3.592026e-03 1.376917e-03 -3.573173e-03 -7.675315e-03 -1.432001e-02 -2.033899e-02 -2.859769e-02 -3.641587e-02 -4.605358e-02 -5.537273e-02 -6.597502e-02 -7.629593e-02 -8.726158e-02 -9.788631e-02 -1.084470e-01 -1.185130e-01 -1.277870e-01 -1.363368e-01 -1.434158e-01 -1.494993e-01 -1.535575e-01 -1.563479e-01 -1.567519e-01 -1.556521e-01 -1.520457e-01 -1.467599e-01 -1.391068e-01 -1.296687e-01 -1.182575e-01 -1.050277e-01 -9.045986e-02 -7.411918e-02 -5.730869e-02 -3.887001e-02 -2.106182e-02 -1.891688e-03 1.533924e-02 3.355203e-02 4.841374e-02 6.384906e-02 7.466116e-02 8.578916e-02 9.151403e-02 9.764077e-02 9.835493e-02 9.994215e-02 9.682366e-02 9.524435e-02 9.000446e-02 8.695268e-02 8.141335e-02 7.856318e-02 7.458269e-02 7.295984e-02 7.122456e-02 7.097138e-02 7.123009e-02 7.153784e-02 7.278762e-02 7.271481e-02 7.397792e-02 7.271264e-02 7.265149e-02 6.931230e-02 6.643484e-02 6.086437e-02 5.697295e-02 5.041946e-02 4.619815e-02 3.898788e-02 3.441382e-02 2.669428e-02 2.182964e-02 1.385765e-02 8.904878e-03 9.679442e-04 -3.849220e-03 -1.151138e-02 -1.601272e-02 -2.322566e-02 -2.728475e-02 -3.392643e-02 -3.745953e-02 -4.344200e-02 -4.639432e-02 -5.164971e-02 -5.398530e-02 -5.845768e-02 
-6.886027e-02 -7.292660e-02 -7.379774e-02 -7.686939e-02 -7.710724e-02 -7.914251e-02 -7.875426e-02 -7.972791e-02 -7.873344e-02 -7.864016e-02 -7.707319e-02 -7.593034e-02 -7.383889e-02 -7.168809e-02 -6.913430e-02 -6.604203e-02 -6.310150e-02 -5.915886e-02 -5.591986e-02 -5.124188e-02 -4.780486e-02 -4.252996e-02 -3.900773e-02 -3.329741e-02 -2.981622e-02 -2.385542e-02 -2.055681e-02 -1.455462e-02 -1.159771e-02 -5.788043e-03 -3.351511e-03 2.007130e-03 3.724524e-03 8.351429e-03 9.133133e-03 1.273132e-02 1.234969e-02 1.461702e-02 1.284597e-02 1.349288e-02 1.012786e-02 8.902809e-03 3.788586e-03 5.113242e-04 -6.422862e-03 -1.182143e-02 -2.052178e-02 -2.795667e-02 -3.820463e-02 -4.739692e-02 -5.877693e-02 -6.922638e-02 -8.111203e-02 -9.209370e-02 -1.036644e-01 -1.142609e-01 -1.245585e-01 -1.337344e-01 -1.417601e-01 -1.484742e-01 -1.533143e-01 -1.566512e-01 -1.576026e-01 -1.568928e-01 -1.535573e-01 -1.484572e-01 -1.407831e-01 -1.313031e-01 -1.195807e-01 -1.060778e-01 -9.091870e-02 -7.408709e-02 -5.642566e-02 -3.731815e-02 -1.845323e-02 1.469776e-03 1.982839e-02 3.869555e-02 5.449376e-02 7.021771e-02 8.140155e-02 9.220631e-02 9.739453e-02 1.025604e-01 1.017526e-01 1.020344e-01 9.673202e-02 9.383592e-02 8.630956e-02 8.190469e-02 7.456764e-02 7.043638e-02 6.578458e-02 6.347555e-02 6.217445e-02 6.149864e-02 6.251449e-02 6.276981e-02 6.480122e-02 6.451479e-02 6.680750e-02 6.529896e-02 6.652021e-02 6.287979e-02 6.052205e-02 5.444056e-02 5.140914e-02 4.448058e-02 4.119787e-02 3.346438e-02 2.961969e-02 2.117643e-02 1.683716e-02 8.029098e-03 3.482683e-03 -5.321250e-03 -9.790554e-03 -1.830566e-02 -2.249063e-02 -3.052051e-02 -3.428692e-02 -4.169590e-02 -4.495967e-02 -5.164690e-02 -5.435444e-02 -6.023742e-02 -6.235322e-02 -6.735984e-02 
-6.486035e-02 -6.853716e-02 -6.952225e-02 -7.232006e-02 -7.263701e-02 -7.451418e-02 -7.416400e-02 -7.509315e-02 -7.409120e-02 -7.406296e-02 -7.244024e-02 -7.146595e-02 -6.926951e-02 -6.738291e-02 -6.467533e-02 -6.193310e-02 -5.879130e-02 -5.527282e-02 -5.178675e-02 -4.759357e-02 -4.386525e-02 -3.912077e-02 -3.526417e-02 -3.011393e-02 -2.625607e-02 -2.086888e-02 -1.715203e-02 -1.172183e-02 -8.306591e-03 -3.054458e-03 -1.227780e-04 4.701724e-03 6.944702e-03 1.106429e-02 1.239112e-02 1.550526e-02 1.567164e-02 1.746651e-02 1.622315e-02 1.638901e-02 1.350153e-02 1.175883e-02 7.036721e-03 3.171601e-03 -3.493861e-03 -9.585521e-03 -1.817646e-02 -2.643968e-02 -3.676475e-02 -4.693716e-02 -5.859105e-02 -7.016624e-02 -8.250794e-02 -9.472457e-02 -1.068892e-01 -1.187614e-01 -1.297192e-01 -1.401189e-01 -1.487848e-01 -1.565741e-01 -1.619550e-01 -1.661447e-01 -1.674884e-01 -1.673800e-01 -1.642824e-01 -1.595494e-01 -1.519860e-01 -1.426765e-01 -1.309671e-01 -1.174541e-01 -1.022063e-01 -8.514581e-02 -6.724464e-02 -4.760411e-02 -2.829059e-02 -7.465506e-03 1.152748e-02 3.159123e-02 4.801295e-02 6.491549e-02 7.635845e-02 8.782208e-02 9.262180e-02 9.751649e-02 9.579294e-02 9.492801e-02 8.868382e-02 8.432764e-02 7.599155e-02 7.045286e-02 6.204051e-02 5.764795e-02 5.226911e-02 4.997715e-02 4.778572e-02 4.768016e-02 4.826457e-02 4.878091e-02 5.060121e-02 5.086003e-02 5.364621e-02 5.341466e-02 5.591823e-02 5.425465e-02 5.156528e-02 4.708257e-02 4.469193e-02 3.962303e-02 3.702477e-02 3.082421e-02 2.727512e-02 2.003836e-02 1.571163e-02 7.943957e-03 3.280751e-03 -4.554955e-03 -9.187108e-03 -1.678094e-02 -2.114260e-02 -2.830541e-02 -3.225190e-02 -3.886450e-02 -4.230722e-02 -4.828472e-02 -5.116538e-02 -5.643779e-02 -5.871460e-02 -6.321850e-02 
-7.463364e-02 -7.877899e-02 -7.958051e-02 -8.271213e-02 -8.286467e-02 -8.492349e-02 -8.442425e-02 -8.536981e-02 -8.423099e-02 -8.404604e-02 -8.229636e-02 -8.099000e-02 -7.867496e-02 -7.628407e-02 -7.346509e-02 -7.005425e-02 -6.680707e-02 -6.246727e-02 -5.888008e-02 -5.372708e-02 -4.989921e-02 -4.407206e-02 -4.011374e-02 -3.377425e-02 -2.980793e-02 -2.314140e-02 -1.930467e-02 -1.252184e-02 -8.971602e-03 -2.311354e-03 7.715860e-04 7.039748e-03 9.447041e-03 1.502221e-02 1.651697e-02 2.106967e-02 2.139022e-02 2.457097e-02 2.344163e-02 2.489751e-02 2.204848e-02 2.144969e-02 1.664767e-02 1.372518e-02 6.815139e-03 1.409279e-03 -7.634086e-03 -1.551704e-02 -2.653306e-02 -3.666288e-02 -4.925306e-02 -6.112784e-02 -7.462317e-02 -8.744875e-02 -1.009150e-01 -1.136311e-01 -1.259305e-01 -1.372988e-01 -1.472158e-01 -1.559690e-01 -1.623846e-01 -1.674096e-01 -1.694793e-01 -1.699826e-01 -1.672579e-01 -1.628575e-01 -1.553116e-01 -1.460364e-01 -1.340061e-01 -1.202317e-01 -1.043372e-01 -8.673000e-02 -6.785280e-02 -4.740169e-02 -2.678825e-02 -4.965201e-03 1.555400e-02 3.658115e-02 5.443753e-02 7.183907e-02 8.402411e-02 9.502273e-02 9.917414e-02 1.025233e-01 9.847312e-02 9.567348e-02 8.599061e-02 8.020197e-02 6.835730e-02 6.135982e-02 5.020752e-02 4.400723e-02 3.802380e-02 3.537259e-02 3.451474e-02 3.354812e-02 3.495203e-02 3.566615e-02 3.772181e-02 3.725705e-02 4.077880e-02 3.986258e-02 4.460872e-02 4.325949e-02 4.129394e-02 3.734991e-02 3.706143e-02 3.237675e-02 3.130654e-02 2.469196e-02 2.195278e-02 1.387440e-02 1.002289e-02 1.303658e-03 -2.987867e-03 -1.176143e-02 -1.604650e-02 -2.453634e-02 -2.856289e-02 -3.657781e-02 -4.020725e-02 -4.762527e-02 -5.077617e-02 -5.750250e-02 -6.012029e-02 -6.606865e-02 -6.811177e-02 -7.319861e-02 
-7.111341e-02 -7.485685e-02 -7.577826e-02 -7.862987e-02 -7.886234e-02 -8.076104e-02 -8.029343e-02 -8.119484e-02 -8.003348e-02 -7.991471e-02 -7.808509e-02 -7.694797e-02 -7.449485e-02 -7.236729e-02 -6.935330e-02 -6.628904e-02 -6.279224e-02 -5.886945e-02 -5.498066e-02 -5.030017e-02 -4.612081e-02 -4.080488e-02 -3.644626e-02 -3.063852e-02 -2.622313e-02 -2.009022e-02 -1.575507e-02 -9.489979e-03 -5.391817e-03 7.816641e-04 4.460259e-03 1.028300e-02 1.332808e-02 1.850259e-02 2.066583e-02 2.485693e-02 2.585742e-02 2.869909e-02 2.823275e-02 2.934371e-02 2.710268e-02 2.611332e-02 2.181761e-02 1.840999e-02 1.185243e-02 5.813882e-03 -3.082547e-03 -1.179442e-02 -2.291112e-02 -3.409841e-02 -4.705722e-02 -6.021928e-02 -7.433651e-02 -8.863540e-02 -1.029171e-01 -1.171969e-01 -1.304008e-01 -1.432848e-01 -1.540640e-01 -1.641356e-01 -1.712502e-01 -1.772858e-01 -1.798259e-01 -1.810060e-01 -1.785415e-01 -1.745513e-01 -1.671418e-01 -1.581228e-01 -1.461987e-01 -1.325975e-01 -1.167998e-01 -9.923212e-02 -8.034303e-02 -5.960456e-02 -3.869062e-02 -1.600860e-02 5.196715e-03 2.772425e-02 4.642832e-02 6.559216e-02 7.814872e-02 9.027700e-02 9.365471e-02 9.654294e-02 9.076653e-02 8.583380e-02 7.489101e-02 6.651379e-02 5.441533e-02 4.574071e-02 3.319751e-02 2.791207e-02 2.199438e-02 1.906581e-02 1.602275e-02 1.615541e-02 1.634046e-02 1.571906e-02 1.638917e-02 1.527721e-02 1.865106e-02 1.823317e-02 2.581688e-02 2.824081e-02 2.621003e-02 2.595381e-02 2.856452e-02 2.680758e-02 2.704234e-02 2.195200e-02 1.941710e-02 1.235715e-02 8.364296e-03 5.938812e-04 -3.892225e-03 -1.169611e-02 -1.616469e-02 -2.368710e-02 -2.788758e-02 -3.497791e-02 -3.878117e-02 -4.534996e-02 -4.867792e-02 -5.465217e-02 -5.744679e-02 -6.275363e-02 -6.496525e-02 -6.952867e-02 
-8.203120e-02 -8.630811e-02 -8.703962e-02 -9.027757e-02 -9.033760e-02 -9.245254e-02 -9.182414e-02 -9.275443e-02 -9.143956e-02 -9.115198e-02 -8.917336e-02 -8.766675e-02 -8.506777e-02 -8.237405e-02 -7.921679e-02 -7.539969e-02 -7.176177e-02 -6.691388e-02 -6.288482e-02 -5.712417e-02 -5.280259e-02 -4.626968e-02 -4.176223e-02 -3.461884e-02 -3.004163e-02 -2.247182e-02 -1.795462e-02 -1.016819e-02 -5.861051e-03 1.900967e-03 5.819547e-03 1.327871e-02 1.659372e-02 2.342888e-02 2.588307e-02 3.172854e-02 3.302163e-02 3.747169e-02 3.726774e-02 3.989056e-02 3.783666e-02 3.820096e-02 3.396006e-02 3.167708e-02 2.497718e-02 1.975934e-02 1.045889e-02 2.193831e-03 -9.640262e-03 -2.080636e-02 -3.481814e-02 -4.840177e-02 -6.388218e-02 -7.901183e-02 -9.488060e-02 -1.103068e-01 -1.251749e-01 -1.393730e-01 -1.517098e-01 -1.630865e-01 -1.714770e-01 -1.786435e-01 -1.820627e-01 -1.840827e-01 -1.820696e-01 -1.785754e-01 -1.712252e-01 -1.623584e-01 -1.501594e-01 -1.363926e-01 -1.200195e-01 -1.019862e-01 -8.219027e-02 -6.067149e-02 -3.842062e-02 -1.463501e-02 8.398573e-03 3.217702e-02 5.295560e-02 7.290341e-02 8.692993e-02 9.836059e-02 1.012210e-01 1.013969e-01 9.213249e-02 8.396681e-02 6.745174e-02 5.818309e-02 4.078337e-02 3.153244e-02 1.502032e-02 6.559536e-03 1.026757e-03 1.375801e-04 1.272545e-03 -1.732351e-03 -2.199523e-03 -1.209179e-03 -2.184017e-03 -5.617057e-03 -3.808754e-03 -7.004265e-03 1.400297e-03 3.988578e-03 8.552583e-03 1.431015e-02 2.225860e-02 2.127830e-02 2.290024e-02 1.661346e-02 1.433649e-02 5.908333e-03 2.095284e-03 -6.849097e-03 -1.105241e-02 -1.987012e-02 -2.398687e-02 -3.243746e-02 -3.626947e-02 -4.424466e-02 -4.769648e-02 -5.511742e-02 -5.812700e-02 -6.491067e-02 -6.742466e-02 -7.347659e-02 -7.544348e-02 -8.066048e-02 
-7.888182e-02 -8.274452e-02 -8.361239e-02 -8.656639e-02 -8.671571e-02 -8.867264e-02 -8.807554e-02 -8.896791e-02 -8.761900e-02 -8.740644e-02 -8.532497e-02 -8.399788e-02 -8.122730e-02 -7.880773e-02 -7.541293e-02 -7.195293e-02 -6.801576e-02 -6.359405e-02 -5.920838e-02 -5.392654e-02 -4.919420e-02 -4.317372e-02 -3.820256e-02 -3.158406e-02 -2.648919e-02 -1.943440e-02 -1.434289e-02 -7.039731e-03 -2.098562e-03 5.231179e-03 9.844941e-03 1.693674e-02 2.100533e-02 2.754372e-02 3.080007e-02 3.641379e-02 3.853800e-02 4.280191e-02 4.342634e-02 4.587354e-02 4.460025e-02 4.474838e-02 4.118248e-02 3.857752e-02 3.237930e-02 2.665940e-02 1.761625e-02 8.595555e-03 -3.288736e-03 -1.552106e-02 -2.992906e-02 -4.490824e-02 -6.112393e-02 -7.793424e-02 -9.480510e-02 -1.120718e-01 -1.280641e-01 -1.440613e-01 -1.574489e-01 -1.703522e-01 -1.795346e-01 -1.877843e-01 -1.916464e-01 -1.942906e-01 -1.924397e-01 -1.892805e-01 -1.820199e-01 -1.734703e-01 -1.615220e-01 -1.482607e-01 -1.323982e-01 -1.150316e-01 -9.584531e-02 -7.480414e-02 -5.284650e-02 -2.874707e-02 -5.268676e-03 2.010628e-02 4.197268e-02 6.456454e-02 7.925309e-02 9.294133e-02 9.440341e-02 9.421767e-02 8.136903e-02 6.921563e-02 5.071125e-02 3.623195e-02 2.125323e-02 8.932170e-03 -9.798629e-03 -1.093241e-02 -1.047763e-02 -1.433755e-02 -2.154021e-02 -1.770007e-02 -2.361395e-02 -2.948976e-02 -3.406249e-02 -3.864184e-02 -4.184036e-02 -4.288719e-02 -4.190817e-02 -3.976675e-02 -1.207419e-02 5.528397e-03 1.964397e-02 2.022379e-02 2.165522e-02 1.531988e-02 1.220558e-02 4.169705e-03 -1.716294e-04 -8.283011e-03 -1.276838e-02 -2.055219e-02 -2.484501e-02 -3.222476e-02 -3.620877e-02 -4.316420e-02 -4.677802e-02 -5.327466e-02 -5.646340e-02 -6.244019e-02 -6.514396e-02 -7.051694e-02 -7.267126e-02 -7.734149e-02 
-9.101854e-02 -9.550714e-02 -9.618576e-02 -9.960190e-02 -9.957668e-02 -1.018018e-01 -1.010368e-01 -1.019811e-01 -1.004651e-01 -1.000751e-01 -9.782460e-02 -9.608737e-02 -9.314512e-02 -9.008864e-02 -8.652046e-02 -8.221040e-02 -7.809926e-02 -7.263333e-02 -6.807305e-02 -6.157466e-02 -5.666459e-02 -4.927747e-02 -4.411984e-02 -3.600540e-02 -3.070658e-02 -2.204497e-02 -1.672103e-02 -7.716376e-03 -2.502854e-03 6.607805e-03 1.154311e-02 2.047862e-02 2.492166e-02 3.334541e-02 3.702357e-02 4.453508e-02 4.710981e-02 5.324297e-02 5.431168e-02 5.854400e-02 5.765543e-02 5.943280e-02 5.612058e-02 5.490216e-02 4.874065e-02 4.406758e-02 3.475265e-02 2.634214e-02 1.379601e-02 1.657160e-03 -1.385120e-02 -2.929355e-02 -4.703492e-02 -6.483910e-02 -8.356008e-02 -1.022405e-01 -1.202114e-01 -1.378493e-01 -1.530840e-01 -1.676181e-01 -1.782702e-01 -1.879257e-01 -1.927432e-01 -1.964346e-01 -1.950380e-01 -1.925304e-01 -1.853356e-01 -1.770794e-01 -1.649424e-01 -1.516918e-01 -1.354822e-01 -1.179088e-01 -9.819826e-02 -7.670296e-02 -5.381650e-02 -2.883492e-02 -3.616379e-03 2.315123e-02 4.773715e-02 7.156282e-02 8.910215e-02 1.019338e-01 1.039397e-01 9.877734e-02 8.110834e-02 6.223075e-02 3.377858e-02 2.022283e-02 -4.006567e-03 -1.249155e-02 -3.444271e-02 -4.655949e-02 -4.079456e-02 -2.937575e-02 -3.188318e-02 -3.544665e-02 -3.644231e-02 -3.801991e-02 -3.635284e-02 -2.954407e-02 -2.873481e-02 -2.126919e-02 -2.262839e-02 -2.034085e-02 1.605121e-02 2.247156e-02 3.133335e-02 2.367868e-02 2.166418e-02 1.122124e-02 6.899854e-03 -3.175856e-03 -7.625321e-03 -1.696391e-02 -2.113272e-02 -2.987694e-02 -3.372864e-02 -4.200881e-02 -4.554869e-02 -5.340784e-02 -5.661947e-02 -6.402622e-02 -6.686726e-02 -7.373774e-02 -7.614684e-02 -8.236289e-02 -8.426800e-02 -8.969208e-02 
-8.811351e-02 -9.217842e-02 -9.302398e-02 -9.615667e-02 -9.624118e-02 -9.831639e-02 -9.758979e-02 -9.850985e-02 -9.695227e-02 -9.665512e-02 -9.427956e-02 -9.274297e-02 -8.959406e-02 -8.683562e-02 -8.298476e-02 -7.905805e-02 -7.459574e-02 -6.958387e-02 -6.461129e-02 -5.861979e-02 -5.324152e-02 -4.639261e-02 -4.071264e-02 -3.314279e-02 -2.726519e-02 -1.912728e-02 -1.316239e-02 -4.632759e-03 1.291501e-03 1.000145e-02 1.572410e-02 2.435336e-02 2.966306e-02 3.788584e-02 4.250472e-02 4.991811e-02 5.349061e-02 5.960919e-02 6.170058e-02 6.596269e-02 6.607220e-02 6.786324e-02 6.545710e-02 6.415505e-02 5.872438e-02 5.377262e-02 4.492023e-02 3.593138e-02 2.348873e-02 1.037867e-02 -5.453037e-03 -2.231169e-02 -4.081736e-02 -6.045350e-02 -8.030394e-02 -1.010799e-01 -1.203540e-01 -1.400633e-01 -1.564845e-01 -1.726998e-01 -1.841250e-01 -1.947830e-01 -1.998174e-01 -2.038222e-01 -2.022370e-01 -1.997117e-01 -1.923539e-01 -1.843257e-01 -1.725613e-01 -1.602699e-01 -1.452597e-01 -1.294750e-01 -1.116046e-01 -9.222734e-02 -7.104227e-02 -4.733875e-02 -2.257696e-02 5.151477e-03 3.098632e-02 5.854345e-02 7.754267e-02 9.522569e-02 9.521193e-02 9.149904e-02 6.602426e-02 4.039870e-02 6.815106e-03 -1.987919e-02 -3.422293e-02 -5.775946e-02 -7.952519e-02 -6.432217e-02 -6.118709e-02 -5.917894e-02 -3.860530e-02 -1.084359e-02 5.633825e-03 3.530687e-02 4.836126e-02 6.342873e-02 7.147166e-02 7.748937e-02 8.298696e-02 8.227032e-02 8.720965e-02 6.187485e-02 5.054647e-02 3.128378e-02 2.247941e-02 9.458562e-03 3.159769e-03 -6.588468e-03 -1.155004e-02 -1.973411e-02 -2.402162e-02 -3.144451e-02 -3.535326e-02 -4.235817e-02 -4.599019e-02 -5.269093e-02 -5.604867e-02 -6.243790e-02 -6.547055e-02 -7.147228e-02 -7.409998e-02 -7.959773e-02 -8.172635e-02 -8.658121e-02 
-1.015388e-01 -1.063583e-01 -1.070254e-01 -1.107261e-01 -1.106421e-01 -1.130598e-01 -1.121637e-01 -1.131721e-01 -1.114373e-01 -1.109581e-01 -1.083949e-01 -1.064028e-01 -1.030570e-01 -9.957906e-02 -9.552561e-02 -9.063492e-02 -8.596844e-02 -7.977424e-02 -7.459830e-02 -6.723506e-02 -6.165291e-02 -5.327103e-02 -4.738029e-02 -3.814091e-02 -3.203399e-02 -2.210968e-02 -1.588085e-02 -5.462762e-03 7.783364e-04 1.146727e-02 1.757690e-02 2.826437e-02 3.404310e-02 4.438810e-02 4.955962e-02 5.913514e-02 6.332996e-02 7.161247e-02 7.436149e-02 8.073257e-02 8.147646e-02 8.524279e-02 8.336338e-02 8.380165e-02 7.868194e-02 7.511529e-02 6.623447e-02 5.814652e-02 4.521434e-02 3.240290e-02 1.553071e-02 -1.707797e-03 -2.181986e-02 -4.250892e-02 -6.442357e-02 -8.680236e-02 -1.083394e-01 -1.299543e-01 -1.484623e-01 -1.665700e-01 -1.795474e-01 -1.918128e-01 -1.977103e-01 -2.029069e-01 -2.016202e-01 -1.998674e-01 -1.924888e-01 -1.848865e-01 -1.730050e-01 -1.609237e-01 -1.459052e-01 -1.303068e-01 -1.126626e-01 -9.355672e-02 -7.261494e-02 -4.890479e-02 -2.352085e-02 5.205366e-03 3.370385e-02 6.308500e-02 8.696656e-02 1.042969e-01 1.085620e-01 9.636141e-02 6.726153e-02 2.554517e-02 -2.624575e-02 -4.868124e-02 -9.343719e-02 -1.143824e-01 -6.282576e-02 -3.418407e-02 -2.843253e-02 4.148607e-02 6.902067e-02 1.080999e-01 1.220353e-01 1.325531e-01 1.333848e-01 1.307500e-01 1.337295e-01 1.251090e-01 1.335634e-01 1.230338e-01 1.154713e-01 7.196319e-02 5.056341e-02 2.499831e-02 1.385223e-02 -8.748050e-04 -7.059366e-03 -1.743357e-02 -2.170053e-02 -3.041385e-02 -3.395353e-02 -4.203443e-02 -4.527693e-02 -5.309060e-02 -5.616335e-02 -6.379129e-02 -6.669157e-02 -7.407908e-02 -7.674242e-02 -8.376143e-02 -8.609202e-02 -9.257236e-02 -9.445955e-02 -1.002087e-01 
-9.872976e-02 -1.031216e-01 -1.040044e-01 -1.074287e-01 -1.074885e-01 -1.097720e-01 -1.089303e-01 -1.099369e-01 -1.081566e-01 -1.077982e-01 -1.050872e-01 -1.033288e-01 -9.973760e-02 -9.659593e-02 -9.220975e-02 -8.774618e-02 -8.267250e-02 -7.698164e-02 -7.133634e-02 -6.453374e-02 -5.842881e-02 -5.064077e-02 -4.417683e-02 -3.553512e-02 -2.880091e-02 -1.944452e-02 -1.252448e-02 -2.608845e-03 4.401394e-03 1.468797e-02 2.165952e-02 3.207416e-02 3.881896e-02 4.904014e-02 5.528481e-02 6.489003e-02 7.025449e-02 7.870491e-02 8.269146e-02 8.932941e-02 9.132866e-02 9.539477e-02 9.471530e-02 9.539225e-02 9.132114e-02 8.781188e-02 7.971377e-02 7.136251e-02 5.882427e-02 4.528730e-02 2.831083e-02 9.775877e-03 -1.099484e-02 -3.356672e-02 -5.663693e-02 -8.132583e-02 -1.042799e-01 -1.282345e-01 -1.479934e-01 -1.678777e-01 -1.814438e-01 -1.943895e-01 -1.999440e-01 -2.046755e-01 -2.023797e-01 -1.997023e-01 -1.914647e-01 -1.836077e-01 -1.720262e-01 -1.613431e-01 -1.484598e-01 -1.363130e-01 -1.225630e-01 -1.084849e-01 -9.200051e-02 -7.306130e-02 -5.039829e-02 -2.330793e-02 6.059850e-03 3.932279e-02 6.627832e-02 9.302441e-02 9.572698e-02 9.297194e-02 4.836764e-02 3.326468e-03 -6.195020e-02 -1.109099e-01 -1.363053e-01 -8.407408e-02 -7.007024e-02 -1.554910e-02 6.449456e-02 1.318845e-01 1.360409e-01 1.219590e-01 1.102558e-01 8.573063e-02 7.692207e-02 5.936117e-02 5.746934e-02 4.349870e-02 4.725376e-02 3.501303e-02 4.868873e-02 2.668236e-02 1.816735e-02 2.778984e-03 -3.648144e-03 -1.343944e-02 -1.774397e-02 -2.507700e-02 -2.847710e-02 -3.494335e-02 -3.807498e-02 -4.433659e-02 -4.743592e-02 -5.371846e-02 -5.682347e-02 -6.314708e-02 -6.620008e-02 -7.248035e-02 -7.537522e-02 -8.146873e-02 -8.407381e-02 -8.980143e-02 -9.197318e-02 -9.713561e-02 
-1.135089e-01 -1.188305e-01 -1.195587e-01 -1.236955e-01 -1.236027e-01 -1.263310e-01 -1.253250e-01 -1.264724e-01 -1.245079e-01 -1.239665e-01 -1.210496e-01 -1.187828e-01 -1.149682e-01 -1.110078e-01 -1.063890e-01 -1.008251e-01 -9.551870e-02 -8.848285e-02 -8.261153e-02 -7.425897e-02 -6.793589e-02 -5.842990e-02 -5.174913e-02 -4.125186e-02 -3.428712e-02 -2.295907e-02 -1.577229e-02 -3.781564e-03 3.559161e-03 1.601848e-02 2.341276e-02 3.609505e-02 4.337891e-02 5.595753e-02 6.287105e-02 7.490951e-02 8.106852e-02 9.199820e-02 9.687660e-02 1.059876e-01 1.089173e-01 1.153701e-01 1.155665e-01 1.184325e-01 1.150544e-01 1.133951e-01 1.056489e-01 9.864556e-02 8.594661e-02 7.309104e-02 5.529107e-02 3.664336e-02 1.431807e-02 -9.193777e-03 -3.445248e-02 -6.078215e-02 -8.622171e-02 -1.122036e-01 -1.341872e-01 -1.560622e-01 -1.710350e-01 -1.856149e-01 -1.916029e-01 -1.975620e-01 -1.951459e-01 -1.933496e-01 -1.848955e-01 -1.776035e-01 -1.658997e-01 -1.555230e-01 -1.428696e-01 -1.311453e-01 -1.184823e-01 -1.056571e-01 -9.147612e-02 -7.441328e-02 -5.423168e-02 -2.794955e-02 1.284177e-03 3.631081e-02 6.843894e-02 9.651923e-02 1.111314e-01 9.644212e-02 6.396454e-02 -1.798637e-02 -9.203204e-02 -1.019095e-01 -8.798292e-02 -3.046639e-02 8.035314e-03 1.588171e-01 1.833668e-01 1.155241e-01 8.130831e-02 3.909889e-02 1.197869e-02 -2.005101e-02 -2.520446e-02 -4.348120e-02 -4.403646e-02 -5.311951e-02 -5.313345e-02 -5.850511e-02 -4.804730e-02 -3.863723e-02 -3.007108e-02 -3.052635e-02 -2.898644e-02 -3.332416e-02 -3.398330e-02 -3.951652e-02 -4.095759e-02 -4.711541e-02 -4.901376e-02 -5.567758e-02 -5.791584e-02 -6.499201e-02 -6.746239e-02 -7.481085e-02 -7.738525e-02 -8.481953e-02 -8.735094e-02 -9.464736e-02 -9.697529e-02 -1.038825e-01 -1.058394e-01 -1.120893e-01 