# vtk DataFile Version 2.0
Comment goes here
ASCII

DATASET STRUCTURED_POINTS
DIMENSIONS    128   128   1

ORIGIN    0.000   0.000   0.000
SPACING   0.0156250.015625   1.000

POINT_DATA   16384
SCALARS uX double
LOOKUP_TABLE default

2.436559e-01 2.403119e-01 2.366334e-01 2.326073e-01 2.283523e-01 2.234641e-01 2.186108e-01 2.127455e-01 2.073141e-01 2.004181e-01 1.944642e-01 1.865379e-01 1.801428e-01 1.712318e-01 1.644912e-01 1.546726e-01 1.476833e-01 1.370510e-01 1.298956e-01 1.185425e-01 1.112742e-01 9.927356e-02 9.190030e-02 7.928700e-02 7.175682e-02 5.850994e-02 5.069897e-02 3.672710e-02 2.843129e-02 1.356286e-02 4.495390e-03 -1.152413e-02 -2.172772e-02 -3.922943e-02 -5.099651e-02 -7.037049e-02 -8.416509e-02 -1.058298e-01 -1.221139e-01 -1.464720e-01 -1.656541e-01 -1.930352e-01 -2.154082e-01 -2.460012e-01 -2.716733e-01 -3.054539e-01 -3.342795e-01 -3.709397e-01 -4.024597e-01 -4.413518e-01 -4.747538e-01 -5.148587e-01 -5.489705e-01 -5.889038e-01 -6.222282e-01 -6.602901e-01 -6.910850e-01 -7.253557e-01 -7.517555e-01 -7.802264e-01 -8.003878e-01 -8.211105e-01 -8.333643e-01 -8.445939e-01 -8.475795e-01 -8.478967e-01 -8.406677e-01 -8.290726e-01 -8.111759e-01 -7.871647e-01 -7.587034e-01 -7.223461e-01 -6.840382e-01 -6.360659e-01 -5.892926e-01 -5.311806e-01 -4.779919e-01 -4.119947e-01 -3.550293e-01 -2.841166e-01 -2.264159e-01 -1.540832e-01 -9.882303e-02 -2.878999e-02 2.102484e-02 8.520931e-02 1.270957e-01 1.825582e-01 2.150169e-01 2.601482e-01 2.831677e-01 3.180194e-01 3.331594e-01 3.591293e-01 3.686456e-01 3.874017e-01 3.929484e-01 4.055393e-01 4.080530e-01 4.145533e-01 4.142749e-01 4.143849e-01 4.111322e-01 4.049844e-01 3.987870e-01 3.876068e-01 3.793412e-01 3.654714e-01 3.565736e-01 3.423974e-01 3.340891e-01 3.212454e-01 3.141820e-01 3.034491e-01 2.977822e-01 2.893010e-01 2.848745e-01 2.784132e-01 2.749298e-01 2.700788e-01 2.672038e-01 2.634940e-01 2.609092e-01 2.578759e-01 2.553044e-01 2.525203e-01 2.497355e-01 2.468273e-01 
2.608743e-01 2.587434e-01 2.545623e-01 2.514773e-01 2.467878e-01 2.425539e-01 2.373403e-01 2.318328e-01 2.261202e-01 2.192812e-01 2.131280e-01 2.049603e-01 1.984489e-01 1.890060e-01 1.822316e-01 1.716048e-01 1.646614e-01 1.529636e-01 1.459296e-01 1.332771e-01 1.261994e-01 1.126917e-01 1.055702e-01 9.127078e-02 8.404408e-02 6.896100e-02 6.149429e-02 4.556517e-02 3.764230e-02 2.072363e-02 1.204493e-02 -6.091239e-03 -1.590340e-02 -3.556320e-02 -4.694905e-02 -6.849902e-02 -8.193444e-02 -1.057705e-01 -1.217274e-01 -1.482300e-01 -1.671242e-01 -1.966001e-01 -2.187282e-01 -2.513423e-01 -2.768121e-01 -3.125144e-01 -3.411755e-01 -3.796312e-01 -4.110151e-01 -4.515495e-01 -4.848314e-01 -5.264008e-01 -5.603941e-01 -6.015958e-01 -6.347900e-01 -6.739166e-01 -7.045611e-01 -7.397012e-01 -7.659301e-01 -7.951023e-01 -8.150836e-01 -8.363841e-01 -8.484702e-01 -8.602093e-01 -8.630658e-01 -8.638748e-01 -8.565751e-01 -8.454824e-01 -8.275719e-01 -8.040638e-01 -7.756130e-01 -7.397060e-01 -7.013698e-01 -6.537095e-01 -6.067885e-01 -5.487596e-01 -4.952283e-01 -4.290255e-01 -3.714712e-01 -3.000666e-01 -2.415097e-01 -1.684778e-01 -1.121029e-01 -4.130744e-02 9.829719e-03 7.467505e-02 1.179539e-01 1.738698e-01 2.075239e-01 2.529466e-01 2.766287e-01 3.118225e-01 3.269219e-01 3.535074e-01 3.624931e-01 3.821999e-01 3.871111e-01 4.009631e-01 4.028960e-01 4.109940e-01 4.101744e-01 4.121986e-01 4.083737e-01 4.043575e-01 3.975065e-01 3.885740e-01 3.796122e-01 3.681135e-01 3.585354e-01 3.468426e-01 3.378789e-01 3.275757e-01 3.198616e-01 3.116616e-01 3.053314e-01 2.993226e-01 2.942156e-01 2.901270e-01 2.859516e-01 2.833433e-01 2.797762e-01 2.781522e-01 2.748888e-01 2.737590e-01 2.705356e-01 2.694482e-01 2.660506e-01 2.646083e-01 
2.435855e-01 2.404042e-01 2.367969e-01 2.328945e-01 2.286829e-01 2.238830e-01 2.190498e-01 2.132411e-01 2.078113e-01 2.009439e-01 1.949779e-01 1.870574e-01 1.806422e-01 1.717199e-01 1.649573e-01 1.551178e-01 1.481118e-01 1.374574e-01 1.302983e-01 1.189314e-01 1.116807e-01 9.968466e-02 9.235866e-02 7.977889e-02 7.233389e-02 5.915941e-02 5.147903e-02 3.762730e-02 2.951351e-02 1.481986e-02 5.989561e-03 -9.796638e-03 -1.970737e-02 -3.691735e-02 -4.833950e-02 -6.736841e-02 -8.077460e-02 -1.020517e-01 -1.179179e-01 -1.418627e-01 -1.606167e-01 -1.875812e-01 -2.095396e-01 -2.397395e-01 -2.650369e-01 -2.984761e-01 -3.269927e-01 -3.633903e-01 -3.946879e-01 -4.334169e-01 -4.666959e-01 -5.067479e-01 -5.408364e-01 -5.808242e-01 -6.142119e-01 -6.524197e-01 -6.833399e-01 -7.178221e-01 -7.443788e-01 -7.730983e-01 -7.934208e-01 -8.144062e-01 -8.268077e-01 -8.383037e-01 -8.414200e-01 -8.420085e-01 -8.349010e-01 -8.235880e-01 -8.058134e-01 -7.820945e-01 -7.537597e-01 -7.176878e-01 -6.795059e-01 -6.317803e-01 -5.851278e-01 -5.271913e-01 -4.741278e-01 -4.082216e-01 -3.514179e-01 -2.805293e-01 -2.230682e-01 -1.507361e-01 -9.582550e-02 -2.583301e-02 2.349287e-02 8.749983e-02 1.286839e-01 1.836863e-01 2.151008e-01 2.593692e-01 2.809734e-01 3.146512e-01 3.283044e-01 3.531422e-01 3.615567e-01 3.795102e-01 3.843039e-01 3.965780e-01 3.987270e-01 4.052086e-01 4.049737e-01 4.051386e-01 4.021961e-01 3.959868e-01 3.901198e-01 3.787214e-01 3.708155e-01 3.568899e-01 3.485112e-01 3.345900e-01 3.269387e-01 3.145829e-01 3.082074e-01 2.980579e-01 2.930215e-01 2.851178e-01 2.812234e-01 2.752830e-01 2.722273e-01 2.678242e-01 2.652836e-01 2.619496e-01 2.596220e-01 2.568998e-01 2.545233e-01 2.519941e-01 2.493545e-01 2.466523e-01 
2.609180e-01 2.591303e-01 2.550826e-01 2.522594e-01 2.476495e-01 2.436020e-01 2.384238e-01 2.330335e-01 2.273213e-01 2.205379e-01 2.143598e-01 2.061957e-01 1.996453e-01 1.901664e-01 1.833512e-01 1.726639e-01 1.656921e-01 1.539271e-01 1.468925e-01 1.341860e-01 1.271518e-01 1.136250e-01 1.066078e-01 9.234560e-02 8.530024e-02 7.033185e-02 6.313811e-02 4.741961e-02 3.987296e-02 2.327505e-02 1.508278e-02 -2.614502e-03 -1.182959e-02 -3.093276e-02 -4.161880e-02 -6.250499e-02 -7.515573e-02 -9.824307e-02 -1.133591e-01 -1.390622e-01 -1.570986e-01 -1.857694e-01 -2.070706e-01 -2.389274e-01 -2.636537e-01 -2.987027e-01 -3.267543e-01 -3.647127e-01 -3.956624e-01 -4.358940e-01 -4.689400e-01 -5.104183e-01 -5.443717e-01 -5.856835e-01 -6.190039e-01 -6.584051e-01 -6.892890e-01 -7.248137e-01 -7.513325e-01 -7.809436e-01 -8.012111e-01 -8.229675e-01 -8.353080e-01 -8.475134e-01 -8.505974e-01 -8.519046e-01 -8.448350e-01 -8.343008e-01 -8.166541e-01 -7.937695e-01 -7.656249e-01 -7.303636e-01 -6.923548e-01 -6.452741e-01 -5.986724e-01 -5.410585e-01 -4.878413e-01 -4.218324e-01 -3.646444e-01 -2.932336e-01 -2.351797e-01 -1.620403e-01 -1.063560e-01 -3.552150e-02 1.472541e-02 7.927474e-02 1.213712e-01 1.762906e-01 2.081752e-01 2.516659e-01 2.727116e-01 3.053748e-01 3.173274e-01 3.416185e-01 3.480295e-01 3.661521e-01 3.693769e-01 3.825351e-01 3.837114e-01 3.917456e-01 3.910420e-01 3.932439e-01 3.900799e-01 3.860586e-01 3.798776e-01 3.705685e-01 3.623434e-01 3.508132e-01 3.423187e-01 3.312259e-01 3.236149e-01 3.143574e-01 3.080332e-01 3.010438e-01 2.959678e-01 2.911410e-01 2.870803e-01 2.840533e-01 2.807121e-01 2.790178e-01 2.760989e-01 2.752457e-01 2.724780e-01 2.719911e-01 2.691416e-01 2.685850e-01 2.654641e-01 2.644539e-01 
2.434228e-01 2.407203e-01 2.373168e-01 2.337792e-01 2.296902e-01 2.251507e-01 2.203723e-01 2.147292e-01 2.092994e-01 2.025141e-01 1.965076e-01 1.885995e-01 1.821194e-01 1.731577e-01 1.663245e-01 1.564154e-01 1.493539e-01 1.386249e-01 1.314488e-01 1.200309e-01 1.128263e-01 1.008336e-01 9.364228e-02 8.115150e-02 7.395469e-02 6.098534e-02 5.368948e-02 4.018631e-02 3.261203e-02 1.843180e-02 1.030797e-02 -4.787301e-03 -1.382212e-02 -3.016297e-02 -4.054966e-02 -5.854550e-02 -7.078151e-02 -9.089317e-02 -1.054958e-01 -1.281927e-01 -1.456477e-01 -1.713490e-01 -1.920448e-01 -2.210471e-01 -2.451982e-01 -2.775927e-01 -3.051586e-01 -3.407469e-01 -3.713556e-01 -4.095757e-01 -4.424671e-01 -4.823437e-01 -5.163475e-01 -5.564854e-01 -5.900498e-01 -6.286819e-01 -6.599620e-01 -6.950594e-01 -7.220623e-01 -7.514960e-01 -7.722624e-01 -7.939893e-01 -8.067793e-01 -8.190136e-01 -8.224571e-01 -8.237937e-01 -8.169847e-01 -8.064619e-01 -7.889995e-01 -7.661239e-01 -7.381343e-01 -7.029149e-01 -6.650970e-01 -6.181333e-01 -5.718439e-01 -5.144701e-01 -4.617990e-01 -3.962100e-01 -3.399374e-01 -2.691783e-01 -2.125311e-01 -1.402787e-01 -8.655323e-02 -1.676374e-02 3.097382e-02 9.440350e-02 1.334324e-01 1.870460e-01 2.152923e-01 2.569057e-01 2.740703e-01 3.040394e-01 3.129443e-01 3.342246e-01 3.394211e-01 3.547886e-01 3.571918e-01 3.685570e-01 3.694121e-01 3.758689e-01 3.757292e-01 3.761156e-01 3.743031e-01 3.680176e-01 3.633298e-01 3.512444e-01 3.446057e-01 3.306506e-01 3.240701e-01 3.111321e-01 3.056305e-01 2.948948e-01 2.906550e-01 2.823198e-01 2.791690e-01 2.729998e-01 2.706594e-01 2.662551e-01 2.644323e-01 2.613389e-01 2.597564e-01 2.575186e-01 2.559264e-01 2.541126e-01 2.522941e-01 2.505110e-01 2.482872e-01 2.461896e-01 
2.611060e-01 2.599873e-01 2.561871e-01 2.538752e-01 2.494106e-01 2.457267e-01 2.406085e-01 2.354447e-01 2.297239e-01 2.230435e-01 2.168069e-01 2.086404e-01 2.020029e-01 1.924403e-01 1.855338e-01 1.747113e-01 1.676718e-01 1.557558e-01 1.487076e-01 1.358743e-01 1.289135e-01 1.153273e-01 1.085041e-01 9.429443e-02 8.759644e-02 7.283530e-02 6.617247e-02 5.085417e-02 4.404642e-02 2.807173e-02 2.084178e-02 4.008496e-03 -4.018154e-03 -2.201529e-02 -3.130078e-02 -5.085816e-02 -6.193028e-02 -8.350884e-02 -9.692446e-02 -1.210064e-01 -1.372988e-01 -1.643270e-01 -1.839375e-01 -2.142388e-01 -2.374352e-01 -2.711318e-01 -2.979203e-01 -3.348378e-01 -3.648782e-01 -4.044629e-01 -4.370030e-01 -4.782652e-01 -5.121124e-01 -5.536170e-01 -5.871665e-01 -6.270879e-01 -6.584204e-01 -6.946706e-01 -7.217179e-01 -7.521348e-01 -7.728905e-01 -7.954513e-01 -8.081806e-01 -8.211826e-01 -8.245786e-01 -8.267413e-01 -8.199918e-01 -8.104638e-01 -7.932376e-01 -7.715512e-01 -7.439626e-01 -7.100183e-01 -6.726547e-01 -6.268174e-01 -5.808720e-01 -5.241968e-01 -4.716436e-01 -4.061297e-01 -3.497600e-01 -2.784427e-01 -2.215896e-01 -1.483483e-01 -9.435813e-02 -2.353961e-02 2.462707e-02 8.855244e-02 1.282102e-01 1.810894e-01 2.095733e-01 2.489131e-01 2.645708e-01 2.917123e-01 2.966726e-01 3.161694e-01 3.172122e-01 3.319280e-01 3.315341e-01 3.432457e-01 3.425793e-01 3.504604e-01 3.499287e-01 3.526082e-01 3.511757e-01 3.474666e-01 3.429974e-01 3.328618e-01 3.265283e-01 3.152571e-01 3.094536e-01 3.000191e-01 2.954710e-01 2.886057e-01 2.851862e-01 2.807272e-01 2.781312e-01 2.756584e-01 2.735975e-01 2.726332e-01 2.708570e-01 2.709207e-01 2.692075e-01 2.698339e-01 2.679863e-01 2.687360e-01 2.665812e-01 2.670502e-01 2.644444e-01 2.642730e-01 
2.433091e-01 2.413748e-01 2.382803e-01 2.353297e-01 2.314229e-01 2.273020e-01 2.225976e-01 2.172174e-01 2.117729e-01 2.051111e-01 1.990229e-01 1.911208e-01 1.845176e-01 1.754726e-01 1.685051e-01 1.584586e-01 1.512860e-01 1.404076e-01 1.331819e-01 1.216501e-01 1.144987e-01 1.024794e-01 9.548685e-02 8.311017e-02 7.630006e-02 6.363773e-02 5.695592e-02 4.400017e-02 3.730031e-02 2.394623e-02 1.697973e-02 3.013548e-03 -4.573865e-03 -1.947809e-02 -2.814053e-02 -4.441250e-02 -5.468572e-02 -7.283588e-02 -8.530390e-02 -1.058830e-01 -1.211271e-01 -1.446666e-01 -1.631966e-01 -1.901302e-01 -2.122983e-01 -2.428681e-01 -2.687726e-01 -3.029261e-01 -3.323136e-01 -3.696058e-01 -4.017891e-01 -4.413069e-01 -4.751208e-01 -5.154551e-01 -5.492729e-01 -5.885618e-01 -6.203924e-01 -6.564493e-01 -6.841164e-01 -7.146370e-01 -7.360154e-01 -7.588227e-01 -7.720779e-01 -7.853416e-01 -7.891101e-01 -7.914772e-01 -7.849433e-01 -7.755551e-01 -7.584311e-01 -7.368621e-01 -7.093355e-01 -6.755449e-01 -6.382891e-01 -5.926918e-01 -5.470059e-01 -4.907080e-01 -4.387235e-01 -3.738125e-01 -3.185444e-01 -2.481855e-01 -1.931942e-01 -1.213418e-01 -7.008131e-02 -9.494076e-04 4.366246e-02 1.059179e-01 1.411757e-01 1.924358e-01 2.153869e-01 2.524104e-01 2.615833e-01 2.848039e-01 2.845776e-01 2.995104e-01 3.002006e-01 3.103824e-01 3.081373e-01 3.182546e-01 3.159593e-01 3.223354e-01 3.220372e-01 3.228030e-01 3.236374e-01 3.177481e-01 3.158062e-01 3.024627e-01 2.987764e-01 2.854645e-01 2.828195e-01 2.723394e-01 2.709801e-01 2.634182e-01 2.628865e-01 2.577161e-01 2.576193e-01 2.542969e-01 2.543727e-01 2.524147e-01 2.524688e-01 2.514360e-01 2.513001e-01 2.507835e-01 2.503009e-01 2.499182e-01 2.489442e-01 2.483436e-01 2.467519e-01 2.456189e-01 
2.616151e-01 2.614598e-01 2.579864e-01 2.564141e-01 2.521350e-01 2.489762e-01 2.439226e-01 2.390807e-01 2.333255e-01 2.267805e-01 2.204355e-01 2.122429e-01 2.054528e-01 1.957368e-01 1.886690e-01 1.776100e-01 1.704413e-01 1.582586e-01 1.511589e-01 1.380896e-01 1.312040e-01 1.174785e-01 1.109083e-01 9.672405e-02 9.050750e-02 7.600332e-02 7.009747e-02 5.532825e-02 4.959259e-02 3.450813e-02 2.869239e-02 1.312181e-02 6.860017e-03 -9.495014e-03 -1.668115e-02 -3.424094e-02 -4.292583e-02 -6.221139e-02 -7.303304e-02 -9.462566e-02 -1.082339e-01 -1.327132e-01 -1.496970e-01 -1.775572e-01 -1.983524e-01 -2.298988e-01 -2.546807e-01 -2.899144e-01 -3.184864e-01 -3.569906e-01 -3.886862e-01 -4.295359e-01 -4.631602e-01 -5.048854e-01 -5.387266e-01 -5.793607e-01 -6.112985e-01 -6.485352e-01 -6.762542e-01 -7.077040e-01 -7.289832e-01 -7.524771e-01 -7.654839e-01 -7.793266e-01 -7.828192e-01 -7.858938e-01 -7.792589e-01 -7.709477e-01 -7.540763e-01 -7.340640e-01 -7.071758e-01 -6.752900e-01 -6.388865e-01 -5.951577e-01 -5.502414e-01 -4.952714e-01 -4.437640e-01 -3.792566e-01 -3.242525e-01 -2.533128e-01 -1.987028e-01 -1.255804e-01 -7.500648e-02 -4.485570e-03 3.955846e-02 1.024250e-01 1.380610e-01 1.877477e-01 2.117448e-01 2.440332e-01 2.518877e-01 2.696846e-01 2.618906e-01 2.741343e-01 2.669381e-01 2.756912e-01 2.691656e-01 2.784957e-01 2.737347e-01 2.809997e-01 2.801396e-01 2.834377e-01 2.857443e-01 2.837478e-01 2.831109e-01 2.715275e-01 2.696363e-01 2.600935e-01 2.598980e-01 2.542323e-01 2.550438e-01 2.523792e-01 2.534209e-01 2.528709e-01 2.537832e-01 2.547182e-01 2.553592e-01 2.572943e-01 2.575865e-01 2.600975e-01 2.599667e-01 2.626554e-01 2.620166e-01 2.645019e-01 2.632644e-01 2.651860e-01 2.632640e-01 2.642913e-01 
2.434353e-01 2.425200e-01 2.398006e-01 2.376333e-01 2.339396e-01 2.303761e-01 2.257428e-01 2.207064e-01 2.152129e-01 2.086993e-01 2.024689e-01 1.945462e-01 1.877411e-01 1.785438e-01 1.713549e-01 1.610725e-01 1.537062e-01 1.425667e-01 1.352278e-01 1.234768e-01 1.163506e-01 1.042273e-01 9.745885e-02 8.517014e-02 7.884399e-02 6.653779e-02 6.065759e-02 4.839674e-02 4.286638e-02 3.060504e-02 2.521278e-02 1.277755e-02 7.185675e-03 -5.735542e-03 -1.199251e-02 -2.585025e-02 -3.335478e-02 -4.872212e-02 -5.814616e-02 -7.568303e-02 -8.773951e-02 -1.081336e-01 -1.235042e-01 -1.473864e-01 -1.666247e-01 -1.944594e-01 -2.178727e-01 -2.498296e-01 -2.773491e-01 -3.131675e-01 -3.442263e-01 -3.830969e-01 -4.165444e-01 -4.570422e-01 -4.911354e-01 -5.312462e-01 -5.637547e-01 -6.010282e-01 -6.294688e-01 -6.613015e-01 -6.832704e-01 -7.072612e-01 -7.207771e-01 -7.350424e-01 -7.387855e-01 -7.421139e-01 -7.354773e-01 -7.272686e-01 -7.102249e-01 -6.902672e-01 -6.631598e-01 -6.314046e-01 -5.948599e-01 -5.514185e-01 -5.065700e-01 -4.520943e-01 -4.010760e-01 -3.373962e-01 -2.836693e-01 -2.141724e-01 -1.620564e-01 -9.127949e-02 -4.462468e-02 2.279241e-02 6.167670e-02 1.215751e-01 1.509497e-01 1.986489e-01 2.144483e-01 2.447917e-01 2.419787e-01 2.551698e-01 2.381948e-01 2.441991e-01 2.433792e-01 2.429690e-01 2.313175e-01 2.412519e-01 2.312653e-01 2.366994e-01 2.347711e-01 2.349061e-01 2.411819e-01 2.374883e-01 2.419769e-01 2.270246e-01 2.304907e-01 2.206362e-01 2.257895e-01 2.205641e-01 2.258080e-01 2.233478e-01 2.279144e-01 2.271762e-01 2.309311e-01 2.313411e-01 2.343333e-01 2.354957e-01 2.377763e-01 2.393539e-01 2.409308e-01 2.426035e-01 2.434433e-01 2.448985e-01 2.449409e-01 2.458765e-01 2.450526e-01 2.451871e-01 
2.626462e-01 2.637107e-01 2.606003e-01 2.599710e-01 2.558863e-01 2.533960e-01 2.483874e-01 2.439463e-01 2.381092e-01 2.317135e-01 2.251885e-01 2.169222e-01 2.098907e-01 1.999207e-01 1.925949e-01 1.811590e-01 1.737686e-01 1.611568e-01 1.539316e-01 1.404628e-01 1.336134e-01 1.196079e-01 1.133044e-01 9.905380e-02 9.340404e-02 7.914027e-02 7.416768e-02 6.003217e-02 5.565430e-02 4.166953e-02 3.767915e-02 2.372468e-02 1.977579e-02 5.572214e-03 1.174404e-03 -1.372067e-02 -1.919485e-02 -3.537392e-02 -4.266356e-02 -6.083444e-02 -7.074167e-02 -9.166610e-02 -1.049802e-01 -1.293827e-01 -1.467750e-01 -1.752212e-01 -1.971130e-01 -2.298630e-01 -2.562751e-01 -2.931237e-01 -3.235288e-01 -3.636603e-01 -3.968717e-01 -4.387709e-01 -4.729177e-01 -5.143955e-01 -5.470366e-01 -5.854219e-01 -6.138310e-01 -6.463411e-01 -6.679329e-01 -6.921458e-01 -7.049294e-01 -7.191848e-01 -7.220667e-01 -7.255977e-01 -7.183825e-01 -7.110892e-01 -6.941519e-01 -6.761242e-01 -6.499461e-01 -6.210080e-01 -5.859338e-01 -5.455697e-01 -5.021416e-01 -4.500835e-01 -3.999656e-01 -3.372843e-01 -2.841075e-01 -2.140031e-01 -1.629763e-01 -9.041017e-02 -4.619082e-02 2.339141e-02 5.922704e-02 1.203472e-01 1.489613e-01 1.939273e-01 2.134842e-01 2.336809e-01 2.344475e-01 2.390409e-01 2.087079e-01 2.131100e-01 1.943021e-01 1.936384e-01 1.770334e-01 1.823220e-01 1.685316e-01 1.728427e-01 1.693521e-01 1.708906e-01 1.797890e-01 1.829189e-01 1.919745e-01 1.795609e-01 1.894031e-01 1.866426e-01 1.969947e-01 1.985230e-01 2.070089e-01 2.103817e-01 2.168521e-01 2.212430e-01 2.260806e-01 2.311006e-01 2.346576e-01 2.400130e-01 2.425171e-01 2.479219e-01 2.494917e-01 2.546466e-01 2.553226e-01 2.599149e-01 2.596894e-01 2.634023e-01 2.622438e-01 2.647714e-01 
2.439815e-01 2.442949e-01 2.419731e-01 2.407585e-01 2.372777e-01 2.343919e-01 2.298020e-01 2.251737e-01 2.195748e-01 2.132151e-01 2.067597e-01 1.987655e-01 1.916543e-01 1.822039e-01 1.746768e-01 1.640196e-01 1.563415e-01 1.447795e-01 1.372226e-01 1.250882e-01 1.179115e-01 1.055402e-01 9.896749e-02 8.666787e-02 8.086429e-02 6.888701e-02 6.393469e-02 5.244012e-02 4.831400e-02 3.734119e-02 3.388590e-02 2.332453e-02 2.023493e-02 9.803588e-03 6.612395e-03 -4.152480e-03 -8.074846e-03 -1.981392e-02 -2.524142e-02 -3.874523e-02 -4.655372e-02 -6.270709e-02 -7.380123e-02 -9.349404e-02 -1.086990e-01 -1.327001e-01 -1.526175e-01 -1.814131e-01 -2.062472e-01 -2.398538e-01 -2.692282e-01 -3.070069e-01 -3.398106e-01 -3.803300e-01 -4.146556e-01 -4.556748e-01 -4.889215e-01 -5.275694e-01 -5.567592e-01 -5.899377e-01 -6.122139e-01 -6.371521e-01 -6.503107e-01 -6.650656e-01 -6.679071e-01 -6.715761e-01 -6.639213e-01 -6.564565e-01 -6.388160e-01 -6.205242e-01 -5.935892e-01 -5.645585e-01 -5.288678e-01 -4.887361e-01 -4.449817e-01 -3.934967e-01 -3.435964e-01 -2.819361e-01 -2.300929e-01 -1.619603e-01 -1.141744e-01 -4.535669e-02 -6.736279e-03 5.702579e-02 8.530599e-02 1.402380e-01 1.599435e-01 2.014300e-01 2.085296e-01 2.283570e-01 2.105998e-01 2.141548e-01 1.664814e-01 1.644182e-01 1.747043e-01 1.562176e-01 1.167572e-01 1.324758e-01 1.082261e-01 1.051490e-01 9.954243e-02 9.110546e-02 1.054496e-01 1.026950e-01 1.271680e-01 1.184362e-01 1.411380e-01 1.425858e-01 1.605244e-01 1.639037e-01 1.771453e-01 1.810731e-01 1.909489e-01 1.952194e-01 2.027482e-01 2.072432e-01 2.130526e-01 2.176223e-01 2.220717e-01 2.265308e-01 2.298079e-01 2.339390e-01 2.361213e-01 2.396808e-01 2.407787e-01 2.435080e-01 2.434963e-01 2.451372e-01 
2.643564e-01 2.668633e-01 2.641089e-01 2.646062e-01 2.606940e-01 2.590022e-01 2.539944e-01 2.500199e-01 2.440311e-01 2.377803e-01 2.309806e-01 2.225662e-01 2.151776e-01 2.048157e-01 1.971032e-01 1.851011e-01 1.773582e-01 1.640942e-01 1.566242e-01 1.425210e-01 1.356159e-01 1.211091e-01 1.150261e-01 1.005294e-01 9.546590e-02 8.133420e-02 7.740159e-02 6.389321e-02 6.108960e-02 4.832917e-02 4.651231e-02 3.445633e-02 3.331915e-02 2.172782e-02 2.078071e-02 9.200819e-03 7.766115e-03 -4.468587e-03 -7.242639e-03 -2.098653e-02 -2.608467e-02 -4.232322e-02 -5.078728e-02 -7.054109e-02 -8.335291e-02 -1.075376e-01 -1.254581e-01 -1.546990e-01 -1.780673e-01 -2.124781e-01 -2.409904e-01 -2.799413e-01 -3.124517e-01 -3.543876e-01 -3.888083e-01 -4.312104e-01 -4.646095e-01 -5.042164e-01 -5.332008e-01 -5.665554e-01 -5.879260e-01 -6.121565e-01 -6.236547e-01 -6.371761e-01 -6.379963e-01 -6.407216e-01 -6.314820e-01 -6.243492e-01 -6.064071e-01 -5.904143e-01 -5.648407e-01 -5.400260e-01 -5.068919e-01 -4.718873e-01 -4.306685e-01 -3.835442e-01 -3.350062e-01 -2.754409e-01 -2.239329e-01 -1.551466e-01 -1.086973e-01 -3.701359e-02 -3.457552e-03 6.438280e-02 8.377787e-02 1.424413e-01 1.559105e-01 1.937820e-01 2.083063e-01 1.999623e-01 2.040213e-01 1.985767e-01 1.496551e-01 1.535449e-01 6.772000e-02 1.034473e-01 5.478125e-02 3.803339e-02 2.704580e-02 3.084307e-03 5.112096e-03 -1.244035e-02 4.121325e-03 -1.118025e-02 4.152522e-02 5.870502e-02 9.773230e-02 1.114048e-01 1.350380e-01 1.455433e-01 1.610693e-01 1.706214e-01 1.815881e-01 1.908711e-01 1.989332e-01 2.080479e-01 2.140587e-01 2.229229e-01 2.273519e-01 2.358043e-01 2.389075e-01 2.467308e-01 2.486338e-01 2.555670e-01 2.563149e-01 2.620674e-01 2.616608e-01 2.659330e-01 
2.450454e-01 2.467635e-01 2.448235e-01 2.447125e-01 2.414172e-01 2.393175e-01 2.347219e-01 2.305548e-01 2.247741e-01 2.185582e-01 2.117722e-01 2.036310e-01 1.960823e-01 1.862426e-01 1.782270e-01 1.670078e-01 1.588591e-01 1.466523e-01 1.387229e-01 1.259677e-01 1.186062e-01 1.057578e-01 9.928483e-02 8.678068e-02 8.146212e-02 6.968482e-02 6.570418e-02 5.494281e-02 5.237090e-02 4.278127e-02 4.154485e-02 3.311044e-02 3.296145e-02 2.545843e-02 2.594786e-02 1.891891e-02 1.938137e-02 1.212533e-02 1.168213e-02 3.267613e-03 8.576747e-04 -9.830359e-03 -1.538184e-02 -2.955311e-02 -3.941863e-02 -5.823734e-02 -7.341567e-02 -9.780283e-02 -1.188909e-01 -1.492711e-01 -1.761938e-01 -2.122089e-01 -2.439524e-01 -2.842038e-01 -3.186484e-01 -3.605822e-01 -3.945707e-01 -4.346604e-01 -4.644281e-01 -4.987626e-01 -5.207201e-01 -5.459120e-01 -5.575207e-01 -5.715607e-01 -5.718817e-01 -5.744613e-01 -5.641150e-01 -5.562346e-01 -5.367526e-01 -5.197966e-01 -4.925895e-01 -4.671434e-01 -4.326063e-01 -3.976456e-01 -3.554203e-01 -3.089385e-01 -2.600337e-01 -2.015905e-01 -1.512017e-01 -8.461779e-02 -4.211258e-02 2.454781e-02 5.055772e-02 1.084507e-01 1.173867e-01 1.627847e-01 1.643857e-01 1.921718e-01 1.865088e-01 1.771960e-01 1.292731e-01 1.321696e-01 1.140242e-01 1.422048e-01 2.120651e-02 -4.983896e-03 9.776468e-03 -3.505893e-02 -2.457993e-02 -3.611341e-02 -2.878352e-02 -3.030637e-02 -2.806450e-02 -3.514706e-02 7.740887e-03 3.279809e-02 7.123123e-02 8.429819e-02 1.092815e-01 1.189269e-01 1.364051e-01 1.452825e-01 1.582946e-01 1.668442e-01 1.768767e-01 1.851014e-01 1.929626e-01 2.007905e-01 2.069419e-01 2.142628e-01 2.189595e-01 2.256178e-01 2.289820e-01 2.347753e-01 2.368438e-01 2.415334e-01 2.422942e-01 2.456233e-01 
2.667860e-01 2.709392e-01 2.685001e-01 2.703019e-01 2.665165e-01 2.657520e-01 2.606822e-01 2.572356e-01 2.510074e-01 2.448839e-01 2.376935e-01 2.290307e-01 2.211429e-01 2.102101e-01 2.019485e-01 1.891339e-01 1.808655e-01 1.666534e-01 1.587676e-01 1.437074e-01 1.365928e-01 1.212625e-01 1.152809e-01 1.002467e-01 9.570579e-02 8.147854e-02 7.860143e-02 6.559145e-02 6.448346e-02 5.295368e-02 5.356612e-02 4.358533e-02 4.567852e-02 3.707815e-02 4.018787e-02 3.252783e-02 3.594222e-02 2.849361e-02 3.124976e-02 2.300410e-02 2.391523e-02 1.363076e-02 1.135572e-02 -2.347994e-03 -9.180957e-03 -2.766875e-02 -4.027300e-02 -6.466969e-02 -8.383987e-02 -1.147317e-01 -1.405215e-01 -1.776011e-01 -2.089845e-01 -2.507054e-01 -2.853291e-01 -3.287193e-01 -3.629273e-01 -4.037905e-01 -4.331207e-01 -4.668390e-01 -4.870539e-01 -5.099322e-01 -5.182994e-01 -5.288748e-01 -5.250897e-01 -5.245219e-01 -5.107016e-01 -5.018533e-01 -4.812385e-01 -4.669160e-01 -4.418288e-01 -4.228118e-01 -3.929173e-01 -3.666218e-01 -3.291076e-01 -2.905076e-01 -2.435893e-01 -1.893663e-01 -1.377988e-01 -7.074940e-02 -2.768590e-02 4.376906e-02 6.268397e-02 1.292209e-01 1.182248e-01 1.772251e-01 1.537736e-01 1.871323e-01 1.826616e-01 8.689109e-02 5.192661e-02 -5.437656e-04 -3.887913e-02 -1.547810e-01 -9.249338e-02 -3.499753e-02 -5.344323e-02 1.713814e-02 9.701917e-03 4.814490e-02 4.360130e-02 6.274996e-02 5.667464e-02 7.206171e-02 6.611507e-02 6.215756e-02 7.738960e-02 8.329459e-02 1.014699e-01 1.126425e-01 1.280847e-01 1.408386e-01 1.530718e-01 1.659992e-01 1.755638e-01 1.881726e-01 1.956190e-01 2.077019e-01 2.134230e-01 2.248204e-01 2.290587e-01 2.395769e-01 2.424593e-01 2.518499e-01 2.534222e-01 2.613890e-01 2.616470e-01 2.678672e-01 
2.465688e-01 2.498529e-01 2.482541e-01 2.493958e-01 2.462424e-01 2.450405e-01 2.403772e-01 2.367252e-01 2.306719e-01 2.245818e-01 2.173415e-01 2.089572e-01 2.008149e-01 1.904132e-01 1.817256e-01 1.697043e-01 1.608832e-01 1.477394e-01 1.392293e-01 1.255291e-01 1.177826e-01 1.041260e-01 9.757729e-02 8.455847e-02 7.959461e-02 6.775995e-02 6.468987e-02 5.449231e-02 5.351121e-02 4.526143e-02 4.641060e-02 4.022573e-02 4.334875e-02 3.910142e-02 4.380092e-02 4.107410e-02 4.667598e-02 4.473186e-02 5.026712e-02 4.804050e-02 5.225673e-02 4.838484e-02 4.980143e-02 4.270370e-02 3.972659e-02 2.774974e-02 1.886373e-02 5.103078e-04 -1.543408e-02 -4.117781e-02 -6.457938e-02 -9.781992e-02 -1.278841e-01 -1.673626e-01 -2.017304e-01 -2.444999e-01 -2.791980e-01 -3.207331e-01 -3.507447e-01 -3.857914e-01 -4.063395e-01 -4.304716e-01 -4.385382e-01 -4.496934e-01 -4.448675e-01 -4.438125e-01 -4.281053e-01 -4.176279e-01 -3.943480e-01 -3.777991e-01 -3.497560e-01 -3.290022e-01 -2.964496e-01 -2.697860e-01 -2.301442e-01 -1.924076e-01 -1.440593e-01 -9.119393e-02 -4.025908e-02 2.491166e-02 6.313308e-02 1.301076e-01 1.397608e-01 1.928913e-01 1.703773e-01 2.056935e-01 1.742004e-01 1.729341e-01 1.376025e-01 1.168969e-01 8.819953e-02 -5.473791e-03 -8.422941e-02 8.833074e-02 1.145907e-01 1.416330e-01 1.323887e-01 1.205358e-01 1.269911e-01 1.112874e-01 1.228650e-01 9.894759e-02 1.247795e-01 9.709931e-02 1.084123e-01 6.458034e-02 7.560110e-02 7.049939e-02 8.645246e-02 9.412909e-02 1.093299e-01 1.203575e-01 1.333158e-01 1.448546e-01 1.555805e-01 1.668049e-01 1.756028e-01 1.862559e-01 1.933977e-01 2.033470e-01 2.090074e-01 2.181065e-01 2.223659e-01 2.304158e-01 2.332818e-01 2.400310e-01 2.414643e-01 2.466268e-01 
2.697900e-01 2.758004e-01 2.736186e-01 2.769203e-01 2.732062e-01 2.735165e-01 2.683140e-01 2.654683e-01 2.589029e-01 2.528870e-01 2.451749e-01 2.361430e-01 2.275912e-01 2.158671e-01 2.068626e-01 1.929265e-01 1.839177e-01 1.683783e-01 1.598518e-01 1.434099e-01 1.358642e-01 1.192687e-01 1.131868e-01 9.718856e-02 9.300804e-02 7.830965e-02 7.638999e-02 6.359317e-02 6.417705e-02 5.372577e-02 5.689365e-02 4.901392e-02 5.463264e-02 4.927164e-02 5.694145e-02 5.371190e-02 6.272016e-02 6.085968e-02 7.015291e-02 6.851041e-02 7.669899e-02 7.376184e-02 7.917316e-02 7.315013e-02 7.394807e-02 6.292567e-02 5.731780e-02 3.951354e-02 2.607034e-02 2.105236e-04 -2.168725e-02 -5.585043e-02 -8.546258e-02 -1.265421e-01 -1.612497e-01 -2.057198e-01 -2.408390e-01 -2.830625e-01 -3.124323e-01 -3.457798e-01 -3.634040e-01 -3.826323e-01 -3.849347e-01 -3.887682e-01 -3.762453e-01 -3.680976e-01 -3.455250e-01 -3.315949e-01 -3.056344e-01 -2.919442e-01 -2.674272e-01 -2.566050e-01 -2.328067e-01 -2.208778e-01 -1.905254e-01 -1.669685e-01 -1.220508e-01 -7.751581e-02 -2.163894e-02 4.227032e-02 8.820215e-02 1.615115e-01 1.682881e-01 2.372278e-01 1.823754e-01 2.629185e-01 1.663600e-01 2.492961e-01 8.587927e-02 1.400150e-01 -1.080719e-01 -8.015558e-02 7.199901e-02 2.296834e-01 1.805834e-01 6.056066e-02 1.241794e-01 4.575233e-02 8.857193e-02 1.975671e-02 7.113889e-02 4.868215e-03 6.552098e-02 -1.146701e-02 5.797098e-02 3.368247e-02 5.835750e-02 6.238415e-02 7.862821e-02 9.153051e-02 1.049971e-01 1.203989e-01 1.317660e-01 1.475397e-01 1.570054e-01 1.724496e-01 1.802179e-01 1.950707e-01 2.013239e-01 2.154146e-01 2.202758e-01 2.334014e-01 2.369251e-01 2.488145e-01 2.509948e-01 2.613103e-01 2.620992e-01 2.704583e-01 
2.482753e-01 2.532992e-01 2.519960e-01 2.545629e-01 2.515076e-01 2.513409e-01 2.465480e-01 2.434841e-01 2.370642e-01 2.310878e-01 2.232592e-01 2.145237e-01 2.056124e-01 1.944434e-01 1.848711e-01 1.717535e-01 1.620176e-01 1.475690e-01 1.382164e-01 1.231511e-01 1.147505e-01 9.983798e-02 9.295160e-02 7.897172e-02 7.412588e-02 6.182172e-02 5.947431e-02 4.950061e-02 5.000187e-02 4.286780e-02 4.641199e-02 4.241719e-02 4.898479e-02 4.815043e-02 5.744453e-02 5.944529e-02 7.083019e-02 7.493674e-02 8.739114e-02 9.243616e-02 1.045358e-01 1.089179e-01 1.188653e-01 1.206068e-01 1.263285e-01 1.232081e-01 1.225490e-01 1.123406e-01 1.033974e-01 8.426140e-02 6.589977e-02 3.697129e-02 9.528127e-03 -2.831610e-02 -6.228634e-02 -1.056898e-01 -1.410438e-01 -1.839944e-01 -2.136923e-01 -2.486882e-01 -2.660050e-01 -2.868487e-01 -2.882051e-01 -2.929485e-01 -2.790465e-01 -2.704384e-01 -2.455622e-01 -2.290639e-01 -1.992625e-01 -1.812702e-01 -1.518910e-01 -1.370333e-01 -1.084668e-01 -9.510936e-02 -6.061397e-02 -3.853644e-02 9.894635e-03 5.163902e-02 1.073196e-01 1.688159e-01 2.060134e-01 2.794541e-01 2.737118e-01 3.321835e-01 2.685141e-01 3.301870e-01 3.010492e-01 2.857264e-01 8.618955e-02 4.007985e-02 -1.265436e-01 2.477515e-01 2.675587e-01 -7.404483e-02 -5.152471e-02 -2.235928e-02 -5.934491e-03 -4.951148e-02 -4.197358e-03 -6.484794e-02 -1.539248e-02 -6.876705e-02 -2.572486e-02 -6.614589e-02 -1.868701e-02 5.901873e-03 2.959472e-02 4.565514e-02 6.116915e-02 7.584026e-02 8.884395e-02 1.033189e-01 1.147972e-01 1.289210e-01 1.389889e-01 1.525813e-01 1.612871e-01 1.742487e-01 1.816459e-01 1.938821e-01 1.999985e-01 2.113620e-01 2.161788e-01 2.264466e-01 2.298963e-01 2.387723e-01 2.407511e-01 2.478855e-01 