# vtk DataFile Version 2.0
Comment goes here
ASCII

DATASET STRUCTURED_POINTS
DIMENSIONS    128   128   1

ORIGIN    0.000   0.000   0.000
SPACING   0.0156250.015625   1.000

POINT_DATA   16384
SCALARS uX double
LOOKUP_TABLE default

1.926100e-01 1.865619e-01 1.852435e-01 1.789266e-01 1.765697e-01 1.699126e-01 1.665185e-01 1.594964e-01 1.551070e-01 1.477342e-01 1.424244e-01 1.347455e-01 1.286149e-01 1.206940e-01 1.138557e-01 1.057646e-01 9.833288e-02 9.013786e-02 8.221485e-02 7.396318e-02 6.562488e-02 5.733100e-02 4.861344e-02 4.024604e-02 3.113237e-02 2.260305e-02 1.301271e-02 4.167300e-03 -6.051521e-03 -1.543748e-02 -2.651051e-02 -3.673055e-02 -4.895342e-02 -6.036139e-02 -7.408706e-02 -8.707905e-02 -1.026949e-01 -1.176803e-01 -1.355736e-01 -1.529349e-01 -1.734468e-01 -1.934883e-01 -2.168576e-01 -2.397460e-01 -2.660466e-01 -2.917480e-01 -3.208263e-01 -3.490480e-01 -3.804691e-01 -4.106149e-01 -4.436288e-01 -4.747790e-01 -5.083172e-01 -5.392428e-01 -5.719527e-01 -6.011692e-01 -6.314883e-01 -6.573451e-01 -6.836085e-01 -7.044044e-01 -7.249698e-01 -7.390748e-01 -7.524467e-01 -7.584129e-01 -7.633495e-01 -7.599990e-01 -7.555976e-01 -7.420911e-01 -7.278579e-01 -7.037589e-01 -6.796793e-01 -6.450340e-01 -6.116518e-01 -5.670915e-01 -5.255904e-01 -4.724425e-01 -4.246946e-01 -3.650561e-01 -3.135879e-01 -2.503006e-01 -1.981358e-01 -1.346133e-01 -8.498519e-02 -2.487600e-02 1.916961e-02 7.247492e-02 1.085700e-01 1.525535e-01 1.795635e-01 2.131886e-01 2.316451e-01 2.556009e-01 2.675542e-01 2.837037e-01 2.916861e-01 3.019051e-01 3.077000e-01 3.130311e-01 3.175150e-01 3.179763e-01 3.212317e-01 3.165163e-01 3.182013e-01 3.084569e-01 3.084160e-01 2.947628e-01 2.935531e-01 2.779894e-01 2.766090e-01 2.610711e-01 2.603206e-01 2.460664e-01 2.462875e-01 2.338544e-01 2.350067e-01 2.244305e-01 2.262600e-01 2.173052e-01 2.194776e-01 2.117968e-01 2.139748e-01 2.072004e-01 2.090807e-01 2.028715e-01 2.041996e-01 1.982622e-01 1.988374e-01 1.929345e-01 
2.105255e-01 2.054253e-01 2.038343e-01 1.982014e-01 1.956144e-01 1.893653e-01 1.857866e-01 1.788893e-01 1.743627e-01 1.668304e-01 1.614321e-01 1.533139e-01 1.471433e-01 1.385139e-01 1.316830e-01 1.226301e-01 1.152510e-01 1.058614e-01 9.803295e-02 8.837834e-02 8.017211e-02 7.029399e-02 6.174045e-02 5.163622e-02 4.271191e-02 3.232244e-02 2.293926e-02 1.213939e-02 2.137206e-03 -9.269546e-03 -2.012527e-02 -3.240588e-02 -4.441974e-02 -5.790307e-02 -7.143664e-02 -8.649519e-02 -1.019436e-01 -1.189642e-01 -1.367210e-01 -1.560638e-01 -1.764743e-01 -1.984211e-01 -2.217253e-01 -2.464194e-01 -2.726892e-01 -3.000724e-01 -3.291484e-01 -3.589033e-01 -3.903416e-01 -4.218478e-01 -4.548868e-01 -4.872041e-01 -5.207622e-01 -5.526483e-01 -5.853610e-01 -6.153297e-01 -6.456274e-01 -6.720426e-01 -6.982614e-01 -7.194550e-01 -7.399644e-01 -7.543565e-01 -7.676827e-01 -7.738840e-01 -7.788117e-01 -7.756970e-01 -7.713434e-01 -7.581023e-01 -7.439735e-01 -7.201596e-01 -6.962104e-01 -6.618160e-01 -6.285286e-01 -5.840988e-01 -5.425755e-01 -4.893452e-01 -4.413771e-01 -3.813802e-01 -3.294326e-01 -2.655101e-01 -2.125770e-01 -1.482214e-01 -9.754375e-02 -3.655210e-02 8.761372e-03 6.282640e-02 1.002516e-01 1.447603e-01 1.728902e-01 2.068447e-01 2.259027e-01 2.501869e-01 2.620938e-01 2.787712e-01 2.862649e-01 2.973123e-01 3.025310e-01 3.090079e-01 3.129801e-01 3.149148e-01 3.177194e-01 3.147669e-01 3.160043e-01 3.082184e-01 3.076908e-01 2.961054e-01 2.944004e-01 2.810147e-01 2.791756e-01 2.659069e-01 2.647364e-01 2.527881e-01 2.526073e-01 2.424571e-01 2.432086e-01 2.348446e-01 2.362683e-01 2.294195e-01 2.311836e-01 2.254745e-01 2.272483e-01 2.222864e-01 2.237748e-01 2.191951e-01 2.201515e-01 2.156375e-01 2.158684e-01 2.111609e-01 
1.931166e-01 1.871741e-01 1.859183e-01 1.796746e-01 1.773518e-01 1.707394e-01 1.673539e-01 1.603517e-01 1.559489e-01 1.485755e-01 1.432348e-01 1.355396e-01 1.293655e-01 1.214186e-01 1.145303e-01 1.064100e-01 9.892866e-02 9.070868e-02 8.274421e-02 7.447963e-02 6.611635e-02 5.782987e-02 4.911239e-02 4.078096e-02 3.170089e-02 2.324395e-02 1.372855e-02 4.998810e-03 -5.097213e-03 -1.431900e-02 -2.521698e-02 -3.522166e-02 -4.721585e-02 -5.835805e-02 -7.180400e-02 -8.448487e-02 -9.977736e-02 -1.144164e-01 -1.319556e-01 -1.489506e-01 -1.690956e-01 -1.887711e-01 -2.117834e-01 -2.343297e-01 -2.603083e-01 -2.857164e-01 -3.145322e-01 -3.425321e-01 -3.737703e-01 -4.037822e-01 -4.367047e-01 -4.678155e-01 -5.013539e-01 -5.323294e-01 -5.651192e-01 -5.944586e-01 -6.249158e-01 -6.509462e-01 -6.773806e-01 -6.983791e-01 -7.191274e-01 -7.334506e-01 -7.470060e-01 -7.532045e-01 -7.583251e-01 -7.552286e-01 -7.510179e-01 -7.377951e-01 -7.237631e-01 -6.999741e-01 -6.760993e-01 -6.417667e-01 -6.085741e-01 -5.642869e-01 -5.229375e-01 -4.699750e-01 -4.223306e-01 -3.627574e-01 -3.113593e-01 -2.480199e-01 -1.959320e-01 -1.322863e-01 -8.280094e-02 -2.258897e-02 2.116711e-02 7.441481e-02 1.099559e-01 1.535552e-01 1.796281e-01 2.124598e-01 2.296365e-01 2.525536e-01 2.632241e-01 2.784531e-01 2.855500e-01 2.952154e-01 3.004941e-01 3.057068e-01 3.100362e-01 3.105764e-01 3.140090e-01 3.093531e-01 3.114052e-01 3.015674e-01 3.018806e-01 2.880004e-01 2.871508e-01 2.715141e-01 2.706114e-01 2.552702e-01 2.550956e-01 2.412317e-01 2.420403e-01 2.300717e-01 2.317551e-01 2.216341e-01 2.239100e-01 2.153608e-01 2.178939e-01 2.105571e-01 2.130207e-01 2.065303e-01 2.086341e-01 2.026551e-01 2.041560e-01 1.984017e-01 1.991076e-01 1.933466e-01 
2.117475e-01 2.068737e-01 2.054032e-01 1.999282e-01 1.974057e-01 1.912523e-01 1.876885e-01 1.808318e-01 1.762774e-01 1.687389e-01 1.632784e-01 1.551172e-01 1.488603e-01 1.401630e-01 1.332337e-01 1.241018e-01 1.166263e-01 1.071622e-01 9.925471e-02 8.954688e-02 8.129548e-02 7.140294e-02 6.285518e-02 5.279285e-02 4.394207e-02 3.366740e-02 2.444090e-02 1.384313e-02 4.093547e-03 -7.012995e-03 -1.751175e-02 -2.938855e-02 -4.093875e-02 -5.391632e-02 -6.688528e-02 -8.134662e-02 -9.614484e-02 -1.124974e-01 -1.295445e-01 -1.481797e-01 -1.678576e-01 -1.890977e-01 -2.116918e-01 -2.357274e-01 -2.613595e-01 -2.881814e-01 -3.167408e-01 -3.460749e-01 -3.771570e-01 -4.084129e-01 -4.412776e-01 -4.735243e-01 -5.070879e-01 -5.390680e-01 -5.719389e-01 -6.021295e-01 -6.326917e-01 -6.594097e-01 -6.859469e-01 -7.074830e-01 -7.283235e-01 -7.430795e-01 -7.567332e-01 -7.633317e-01 -7.685941e-01 -7.659436e-01 -7.619582e-01 -7.492798e-01 -7.355713e-01 -7.124175e-01 -6.889293e-01 -6.552369e-01 -6.224045e-01 -5.786099e-01 -5.374735e-01 -4.846828e-01 -4.369960e-01 -3.771480e-01 -3.253958e-01 -2.613206e-01 -2.085713e-01 -1.438628e-01 -9.345545e-02 -3.213574e-02 1.270455e-02 6.672102e-02 1.032736e-01 1.469540e-01 1.735158e-01 2.057082e-01 2.223734e-01 2.444280e-01 2.536119e-01 2.683842e-01 2.737710e-01 2.836933e-01 2.877085e-01 2.939033e-01 2.975277e-01 2.996126e-01 3.027896e-01 3.000204e-01 3.020261e-01 2.941531e-01 2.943437e-01 2.823589e-01 2.813919e-01 2.679337e-01 2.670907e-01 2.542962e-01 2.543122e-01 2.432065e-01 2.442148e-01 2.350336e-01 2.368447e-01 2.294168e-01 2.317223e-01 2.257046e-01 2.281764e-01 2.231742e-01 2.255063e-01 2.211317e-01 2.230559e-01 2.189564e-01 2.202492e-01 2.161210e-01 2.166055e-01 2.122000e-01 
1.946985e-01 1.890646e-01 1.879902e-01 1.819599e-01 1.797341e-01 1.732501e-01 1.698860e-01 1.629381e-01 1.584909e-01 1.511102e-01 1.456715e-01 1.379221e-01 1.316114e-01 1.235804e-01 1.165349e-01 1.083203e-01 1.006821e-01 9.237949e-02 8.428178e-02 7.596996e-02 6.752203e-02 5.924854e-02 5.052092e-02 4.228773e-02 3.329773e-02 2.504819e-02 1.574702e-02 7.355004e-03 -2.382430e-03 -1.111987e-02 -2.150082e-02 -3.086562e-02 -4.217923e-02 -5.252729e-02 -6.513588e-02 -7.688260e-02 -9.120230e-02 -1.047966e-01 -1.212652e-01 -1.371504e-01 -1.561814e-01 -1.747427e-01 -1.966656e-01 -2.181656e-01 -2.431561e-01 -2.676621e-01 -2.956669e-01 -3.229791e-01 -3.536465e-01 -3.832365e-01 -4.158657e-01 -4.468411e-01 -4.803648e-01 -5.114749e-01 -5.444905e-01 -5.741825e-01 -6.050366e-01 -6.315643e-01 -6.584859e-01 -6.800561e-01 -7.013142e-01 -7.162411e-01 -7.302954e-01 -7.371286e-01 -7.427425e-01 -7.403446e-01 -7.366500e-01 -7.242270e-01 -7.107559e-01 -6.878706e-01 -6.645885e-01 -6.312006e-01 -5.985772e-01 -5.551464e-01 -5.142718e-01 -4.619234e-01 -4.146263e-01 -3.553182e-01 -3.041897e-01 -2.407693e-01 -1.890020e-01 -1.250625e-01 -7.611264e-02 -1.565019e-02 2.715528e-02 8.021363e-02 1.140633e-01 1.565061e-01 1.797191e-01 2.100863e-01 2.232410e-01 2.428805e-01 2.495015e-01 2.618690e-01 2.664093e-01 2.743354e-01 2.779863e-01 2.829321e-01 2.866470e-01 2.874490e-01 2.913861e-01 2.869170e-01 2.902316e-01 2.801511e-01 2.816749e-01 2.670628e-01 2.674429e-01 2.516985e-01 2.524207e-01 2.378509e-01 2.395429e-01 2.269773e-01 2.296005e-01 2.190768e-01 2.223454e-01 2.135910e-01 2.171720e-01 2.098189e-01 2.133955e-01 2.070651e-01 2.103524e-01 2.046904e-01 2.074397e-01 2.021321e-01 2.041337e-01 1.989142e-01 1.999996e-01 1.946536e-01 
2.143069e-01 2.098719e-01 2.086301e-01 2.034598e-01 2.010571e-01 1.950859e-01 1.915438e-01 1.847596e-01 1.801415e-01 1.725813e-01 1.669877e-01 1.587301e-01 1.522906e-01 1.434457e-01 1.363081e-01 1.270049e-01 1.193231e-01 1.096951e-01 1.016142e-01 9.178346e-02 8.342495e-02 7.348584e-02 6.493168e-02 5.493466e-02 4.621233e-02 3.614874e-02 2.721732e-02 1.700630e-02 7.745207e-03 -2.775900e-03 -1.257421e-02 -2.365421e-02 -3.428547e-02 -4.625628e-02 -5.809722e-02 -7.136098e-02 -8.485106e-02 -9.985500e-02 -1.154648e-01 -1.326618e-01 -1.508461e-01 -1.706405e-01 -1.917766e-01 -2.144554e-01 -2.387682e-01 -2.644237e-01 -2.919041e-01 -3.203536e-01 -3.506805e-01 -3.813981e-01 -4.138789e-01 -4.459537e-01 -4.795010e-01 -5.116426e-01 -5.448055e-01 -5.754090e-01 -6.064685e-01 -6.337432e-01 -6.608651e-01 -6.830075e-01 -7.044280e-01 -7.197992e-01 -7.339953e-01 -7.412517e-01 -7.470545e-01 -7.451967e-01 -7.418265e-01 -7.301716e-01 -7.172168e-01 -6.953450e-01 -6.727433e-01 -6.404940e-01 -6.085865e-01 -5.661695e-01 -5.258576e-01 -4.740922e-01 -4.270446e-01 -3.676476e-01 -3.164047e-01 -2.521643e-01 -1.999759e-01 -1.346723e-01 -8.506406e-02 -2.313849e-02 2.054287e-02 7.448211e-02 1.092709e-01 1.512570e-01 1.747862e-01 2.031559e-01 2.148834e-01 2.321338e-01 2.353638e-01 2.461865e-01 2.472132e-01 2.547882e-01 2.562450e-01 2.619575e-01 2.646274e-01 2.669995e-01 2.708742e-01 2.684963e-01 2.723734e-01 2.644847e-01 2.664076e-01 2.535181e-01 2.543585e-01 2.410200e-01 2.425843e-01 2.311188e-01 2.337822e-01 2.246067e-01 2.280795e-01 2.209229e-01 2.248214e-01 2.192574e-01 2.232494e-01 2.188477e-01 2.226545e-01 2.190133e-01 2.223944e-01 2.191484e-01 2.218937e-01 2.187184e-01 2.206480e-01 2.172645e-01 2.182317e-01 2.144107e-01 
1.975132e-01 1.923695e-01 1.915785e-01 1.858854e-01 1.838069e-01 1.775217e-01 1.741806e-01 1.673092e-01 1.627753e-01 1.553682e-01 1.497522e-01 1.418967e-01 1.353423e-01 1.271535e-01 1.198275e-01 1.114357e-01 1.035145e-01 9.505167e-02 8.670728e-02 7.829171e-02 6.967532e-02 6.139622e-02 5.262212e-02 4.452374e-02 3.565299e-02 2.771964e-02 1.874480e-02 1.088728e-02 1.719032e-03 -6.236142e-03 -1.577888e-02 -2.409593e-02 -3.429051e-02 -4.332417e-02 -5.454069e-02 -6.472671e-02 -7.741352e-02 -8.924690e-02 -1.039022e-01 -1.179005e-01 -1.350271e-01 -1.516771e-01 -1.717202e-01 -1.914073e-01 -2.146749e-01 -2.375997e-01 -2.641727e-01 -2.902600e-01 -3.199007e-01 -3.487162e-01 -3.807929e-01 -4.114841e-01 -4.449336e-01 -4.762195e-01 -5.095684e-01 -5.397974e-01 -5.712612e-01 -5.985453e-01 -6.261974e-01 -6.486064e-01 -6.705878e-01 -6.863567e-01 -7.010709e-01 -7.087590e-01 -7.149968e-01 -7.135545e-01 -7.105288e-01 -6.992705e-01 -6.865870e-01 -6.651243e-01 -6.427529e-01 -6.109663e-01 -5.792872e-01 -5.374134e-01 -4.973819e-01 -4.462537e-01 -3.996342e-01 -3.409947e-01 -2.904882e-01 -2.271806e-01 -1.762422e-01 -1.120831e-01 -6.442661e-02 -3.787629e-03 3.708840e-02 8.973062e-02 1.206494e-01 1.611600e-01 1.795157e-01 2.055230e-01 2.113724e-01 2.250659e-01 2.241341e-01 2.315247e-01 2.326042e-01 2.371831e-01 2.376562e-01 2.425593e-01 2.444330e-01 2.455959e-01 2.500960e-01 2.457969e-01 2.518370e-01 2.415901e-01 2.457592e-01 2.297690e-01 2.328693e-01 2.175270e-01 2.216990e-01 2.090986e-01 2.143252e-01 2.043102e-01 2.100511e-01 2.020478e-01 2.078716e-01 2.013606e-01 2.069730e-01 2.015265e-01 2.067038e-01 2.019590e-01 2.065074e-01 2.021481e-01 2.058907e-01 2.016415e-01 2.044194e-01 2.000461e-01 2.017245e-01 1.970373e-01 
2.184055e-01 2.145965e-01 2.136706e-01 2.089331e-01 2.066894e-01 2.009710e-01 1.974432e-01 1.907481e-01 1.860163e-01 1.784026e-01 1.725893e-01 1.641634e-01 1.574266e-01 1.483330e-01 1.408556e-01 1.312641e-01 1.232412e-01 1.133315e-01 1.049546e-01 9.489987e-02 8.634063e-02 7.628870e-02 6.768161e-02 5.773740e-02 4.916252e-02 3.936994e-02 3.083619e-02 2.116182e-02 1.259187e-02 2.911007e-03 -5.870831e-03 -1.578370e-02 -2.505852e-02 -3.553260e-02 -4.568603e-02 -5.714730e-02 -6.865736e-02 -8.160861e-02 -9.501861e-02 -1.100028e-01 -1.258761e-01 -1.434210e-01 -1.622752e-01 -1.828178e-01 -2.050395e-01 -2.288332e-01 -2.545775e-01 -2.815896e-01 -3.106745e-01 -3.404878e-01 -3.723032e-01 -4.040443e-01 -4.375005e-01 -4.698234e-01 -5.033692e-01 -5.345236e-01 -5.662577e-01 -5.942553e-01 -6.221313e-01 -6.449910e-01 -6.670777e-01 -6.830854e-01 -6.978080e-01 -7.056962e-01 -7.119739e-01 -7.109474e-01 -7.081817e-01 -6.977905e-01 -6.857377e-01 -6.656844e-01 -6.443203e-01 -6.143378e-01 -5.838556e-01 -5.437865e-01 -5.048269e-01 -4.549760e-01 -4.090401e-01 -3.507016e-01 -3.004629e-01 -2.363198e-01 -1.854418e-01 -1.195403e-01 -7.189390e-02 -9.238562e-03 3.193018e-02 8.577299e-02 1.177389e-01 1.570889e-01 1.765844e-01 1.983050e-01 2.026176e-01 2.120199e-01 2.048076e-01 2.097001e-01 2.041058e-01 2.077451e-01 2.049048e-01 2.100919e-01 2.101589e-01 2.125788e-01 2.169925e-01 2.148849e-01 2.225295e-01 2.153307e-01 2.208937e-01 2.063992e-01 2.112409e-01 1.992197e-01 2.056376e-01 1.972344e-01 2.044390e-01 1.986563e-01 2.058681e-01 2.018362e-01 2.086730e-01 2.058078e-01 2.120855e-01 2.099591e-01 2.155518e-01 2.138107e-01 2.185976e-01 2.169293e-01 2.207848e-01 2.189091e-01 2.217093e-01 2.193803e-01 2.210141e-01 2.180251e-01 
2.017845e-01 1.972816e-01 1.968525e-01 1.915966e-01 1.896978e-01 1.836620e-01 1.803298e-01 1.735388e-01 1.688598e-01 1.613880e-01 1.554970e-01 1.474625e-01 1.405355e-01 1.320910e-01 1.243349e-01 1.156551e-01 1.072942e-01 9.856160e-02 8.982189e-02 8.121000e-02 7.230178e-02 6.395857e-02 5.505827e-02 4.708837e-02 3.832007e-02 3.076720e-02 2.218421e-02 1.501419e-02 6.581470e-03 -3.332745e-04 -8.754540e-03 -1.564737e-02 -2.431110e-02 -3.152804e-02 -4.080749e-02 -4.880531e-02 -5.918647e-02 -6.851792e-02 -8.057751e-02 -9.185954e-02 -1.062232e-01 -1.200841e-01 -1.373613e-01 -1.543642e-01 -1.750580e-01 -1.956016e-01 -2.199966e-01 -2.441987e-01 -2.722374e-01 -2.998146e-01 -3.309809e-01 -3.611501e-01 -3.943928e-01 -4.258283e-01 -4.595623e-01 -4.904483e-01 -5.226685e-01 -5.508724e-01 -5.793859e-01 -6.027363e-01 -6.254669e-01 -6.420638e-01 -6.573329e-01 -6.657738e-01 -6.724527e-01 -6.718836e-01 -6.693746e-01 -6.593647e-01 -6.474602e-01 -6.277924e-01 -6.065257e-01 -5.770316e-01 -5.466589e-01 -5.072465e-01 -4.684801e-01 -4.194769e-01 -3.739493e-01 -3.166980e-01 -2.673370e-01 -2.046668e-01 -1.554828e-01 -9.160265e-02 -4.675882e-02 1.345133e-02 5.056293e-02 1.021715e-01 1.285690e-01 1.662861e-01 1.778919e-01 1.972603e-01 1.917981e-01 1.966664e-01 1.827647e-01 1.835507e-01 1.839529e-01 1.819295e-01 1.756811e-01 1.820615e-01 1.784652e-01 1.791636e-01 1.831816e-01 1.778035e-01 1.891256e-01 1.795369e-01 1.895667e-01 1.717261e-01 1.810786e-01 1.684909e-01 1.792908e-01 1.709635e-01 1.817087e-01 1.757973e-01 1.857681e-01 1.812907e-01 1.903225e-01 1.867538e-01 1.948329e-01 1.918244e-01 1.989334e-01 1.962045e-01 2.022881e-01 1.995910e-01 2.045615e-01 2.016730e-01 2.054262e-01 2.021500e-01 2.045834e-01 2.007557e-01 
2.242893e-01 2.212626e-01 2.207147e-01 2.165149e-01 2.144502e-01 2.090355e-01 2.054980e-01 1.988890e-01 1.939756e-01 1.862551e-01 1.801145e-01 1.714231e-01 1.642491e-01 1.547755e-01 1.467967e-01 1.367642e-01 1.282298e-01 1.178802e-01 1.090433e-01 9.861752e-02 8.971738e-02 7.943585e-02 7.067807e-02 6.072008e-02 5.225711e-02 4.273974e-02 3.465067e-02 2.560824e-02 1.787895e-02 9.243644e-03 1.748328e-03 -6.666345e-03 -1.418011e-02 -2.269044e-02 -3.060997e-02 -3.966410e-02 -4.850883e-02 -5.867496e-02 -6.907733e-02 -8.101308e-02 -9.367752e-02 -1.080752e-01 -1.237102e-01 -1.412142e-01 -1.604349e-01 -1.815310e-01 -2.047332e-01 -2.296137e-01 -2.568296e-01 -2.852500e-01 -3.160060e-01 -3.471610e-01 -3.803752e-01 -4.128388e-01 -4.468074e-01 -4.785920e-01 -5.111162e-01 -5.398922e-01 -5.685634e-01 -5.920298e-01 -6.146269e-01 -6.309296e-01 -6.457970e-01 -6.538174e-01 -6.600606e-01 -6.594123e-01 -6.568128e-01 -6.475409e-01 -6.362349e-01 -6.183778e-01 -5.984922e-01 -5.717314e-01 -5.432403e-01 -5.068740e-01 -4.699231e-01 -4.233735e-01 -3.790976e-01 -3.228815e-01 -2.742238e-01 -2.108089e-01 -1.624129e-01 -9.625782e-02 -5.291134e-02 1.026176e-02 4.577156e-02 9.939972e-02 1.264515e-01 1.619913e-01 1.776727e-01 1.874877e-01 1.836875e-01 1.831765e-01 1.589986e-01 1.573397e-01 1.424852e-01 1.404591e-01 1.305949e-01 1.348547e-01 1.280040e-01 1.282384e-01 1.314117e-01 1.270783e-01 1.411564e-01 1.366445e-01 1.509069e-01 1.352370e-01 1.501200e-01 1.437040e-01 1.589799e-01 1.564649e-01 1.700294e-01 1.691118e-01 1.808102e-01 1.807202e-01 1.908375e-01 1.912120e-01 1.999875e-01 2.005578e-01 2.081135e-01 2.086331e-01 2.149943e-01 2.152236e-01 2.203513e-01 2.200590e-01 2.238793e-01 2.228504e-01 2.252792e-01 2.233259e-01 
2.077485e-01 2.040016e-01 2.039888e-01 1.992442e-01 1.975393e-01 1.917818e-01 1.884277e-01 1.817000e-01 1.767991e-01 1.692019e-01 1.629159e-01 1.546035e-01 1.471472e-01 1.383185e-01 1.299490e-01 1.208344e-01 1.118366e-01 1.026824e-01 9.335157e-02 8.440232e-02 7.502496e-02 6.650462e-02 5.733829e-02 4.943064e-02 4.068294e-02 3.351122e-02 2.531794e-02 1.892392e-02 1.132658e-02 5.649397e-03 -1.427018e-03 -6.570782e-03 -1.333806e-02 -1.827076e-02 -2.509245e-02 -3.028420e-02 -3.768050e-02 -4.374528e-02 -5.238185e-02 -6.005451e-02 -7.070803e-02 -8.079551e-02 -9.428888e-02 -1.075896e-01 -1.246912e-01 -1.418785e-01 -1.631637e-01 -1.846358e-01 -2.103174e-01 -2.360245e-01 -2.657741e-01 -2.950537e-01 -3.278560e-01 -3.593284e-01 -3.934350e-01 -4.250295e-01 -4.580837e-01 -4.872617e-01 -5.166284e-01 -5.408038e-01 -5.640465e-01 -5.810897e-01 -5.964158e-01 -6.050156e-01 -6.114814e-01 -6.111742e-01 -6.085692e-01 -5.994419e-01 -5.879539e-01 -5.702032e-01 -5.500574e-01 -5.235874e-01 -4.948735e-01 -4.591475e-01 -4.221183e-01 -3.765990e-01 -3.325668e-01 -2.778231e-01 -2.301296e-01 -1.689322e-01 -1.228123e-01 -6.016998e-02 -2.090566e-02 3.729706e-02 6.675916e-02 1.154607e-01 1.343143e-01 1.675350e-01 1.707788e-01 1.794511e-01 1.583207e-01 1.541597e-01 1.191417e-01 1.155192e-01 1.263049e-01 1.148884e-01 8.743271e-02 9.853290e-02 8.411032e-02 7.709519e-02 7.851780e-02 6.522988e-02 8.392726e-02 7.347890e-02 1.005576e-01 8.759909e-02 1.131188e-01 1.099913e-01 1.313346e-01 1.300303e-01 1.472891e-01 1.464909e-01 1.608015e-01 1.602995e-01 1.724821e-01 1.721436e-01 1.826582e-01 1.823298e-01 1.913973e-01 1.909110e-01 1.986041e-01 1.977852e-01 2.040864e-01 2.027600e-01 2.076015e-01 2.056022e-01 2.088974e-01 2.060803e-01 
2.321867e-01 2.300689e-01 2.299389e-01 2.263600e-01 2.244779e-01 2.193991e-01 2.158119e-01 2.092663e-01 2.040852e-01 1.961808e-01 1.895824e-01 1.804987e-01 1.727185e-01 1.626972e-01 1.540188e-01 1.433493e-01 1.340887e-01 1.230892e-01 1.135765e-01 1.025737e-01 9.313249e-02 8.243858e-02 7.336498e-02 6.325463e-02 5.479452e-02 4.548045e-02 3.780591e-02 2.941375e-02 2.259793e-02 1.514056e-02 9.131664e-03 2.484061e-03 -2.919629e-03 -9.042334e-03 -1.421305e-02 -2.026995e-02 -2.576118e-02 -3.238643e-02 -3.892671e-02 -4.690932e-02 -5.537052e-02 -6.560495e-02 -7.693631e-02 -9.033577e-02 -1.054557e-01 -1.228223e-01 -1.424639e-01 -1.643146e-01 -1.888288e-01 -2.151880e-01 -2.443256e-01 -2.745168e-01 -3.072366e-01 -3.397367e-01 -3.741223e-01 -4.065776e-01 -4.399622e-01 -4.694695e-01 -4.988401e-01 -5.225234e-01 -5.451563e-01 -5.608910e-01 -5.749930e-01 -5.819251e-01 -5.869570e-01 -5.854668e-01 -5.819463e-01 -5.730359e-01 -5.618721e-01 -5.463179e-01 -5.280271e-01 -5.056405e-01 -4.798788e-01 -4.491967e-01 -4.151340e-01 -3.740665e-01 -3.319436e-01 -2.795520e-01 -2.326929e-01 -1.709996e-01 -1.262188e-01 -6.039729e-02 -2.522378e-02 3.786805e-02 6.047376e-02 1.136056e-01 1.290281e-01 1.590577e-01 1.723842e-01 1.535503e-01 1.465982e-01 1.432804e-01 1.103326e-01 1.074666e-01 3.782183e-02 7.122386e-02 4.038007e-02 2.107454e-02 2.008749e-02 -5.066329e-03 1.778813e-03 -1.709077e-02 1.189226e-03 -1.693711e-02 3.193143e-02 4.180364e-02 8.074959e-02 8.821200e-02 1.142388e-01 1.190177e-01 1.382221e-01 1.422331e-01 1.575969e-01 1.614076e-01 1.742607e-01 1.779087e-01 1.888783e-01 1.922491e-01 2.016296e-01 2.045599e-01 2.124639e-01 2.147669e-01 2.211998e-01 2.226764e-01 2.275831e-01 2.280341e-01 2.313331e-01 2.305750e-01 
2.155851e-01 2.126780e-01 2.131188e-01 2.089363e-01 2.074270e-01 2.019573e-01 1.985379e-01 1.918368e-01 1.866209e-01 1.788150e-01 1.719916e-01 1.632747e-01 1.551025e-01 1.457268e-01 1.365223e-01 1.267842e-01 1.169051e-01 1.071278e-01 9.695346e-02 8.746736e-02 7.737740e-02 6.849950e-02 5.885171e-02 5.086406e-02 4.197096e-02 3.509775e-02 2.720158e-02 2.158432e-02 1.482956e-02 1.049988e-02 4.903298e-03 1.754127e-03 -2.826212e-03 -5.068885e-03 -8.962551e-03 -1.076294e-02 -1.450819e-02 -1.653246e-02 -2.088154e-02 -2.398947e-02 -2.988810e-02 -3.509464e-02 -4.362431e-02 -5.202016e-02 -6.429123e-02 -7.691214e-02 -9.389812e-02 -1.115362e-01 -1.338470e-01 -1.568082e-01 -1.844192e-01 -2.122561e-01 -2.442465e-01 -2.755379e-01 -3.099418e-01 -3.422424e-01 -3.761567e-01 -4.062667e-01 -4.363276e-01 -4.609467e-01 -4.841174e-01 -5.007171e-01 -5.150519e-01 -5.225117e-01 -5.274498e-01 -5.260308e-01 -5.220845e-01 -5.128098e-01 -5.009006e-01 -4.847871e-01 -4.655655e-01 -4.428856e-01 -4.162317e-01 -3.859289e-01 -3.511978e-01 -3.112563e-01 -2.689190e-01 -2.183365e-01 -1.723292e-01 -1.135208e-01 -7.158420e-02 -1.101464e-02 1.864496e-02 7.239863e-02 8.644768e-02 1.276889e-01 1.308619e-01 1.538393e-01 1.454690e-01 1.290145e-01 7.869819e-02 6.527412e-02 6.382838e-02 9.854773e-02 2.104033e-02 -8.068435e-03 1.184107e-02 -3.017077e-02 -1.817362e-02 -3.053653e-02 -2.203454e-02 -2.572896e-02 -2.186644e-02 -2.998255e-02 7.606983e-03 2.548751e-02 6.264277e-02 6.933252e-02 9.582563e-02 9.946498e-02 1.199324e-01 1.230280e-01 1.398816e-01 1.427921e-01 1.571544e-01 1.598113e-01 1.722393e-01 1.745206e-01 1.852831e-01 1.870597e-01 1.962548e-01 1.973873e-01 2.050060e-01 2.053437e-01 2.113130e-01 2.107023e-01 2.149205e-01 2.132188e-01 
2.422366e-01 2.411336e-01 2.414499e-01 2.385610e-01 2.368570e-01 2.321336e-01 2.284474e-01 2.219270e-01 2.163782e-01 2.081910e-01 2.009830e-01 1.913503e-01 1.827648e-01 1.719890e-01 1.623734e-01 1.508212e-01 1.405704e-01 1.286520e-01 1.181875e-01 1.063323e-01 9.607916e-02 8.471069e-02 7.507437e-02 6.458415e-02 5.592577e-02 4.664609e-02 3.925561e-02 3.143012e-02 2.549624e-02 1.924760e-02 1.482358e-02 1.011858e-02 7.085319e-03 3.699683e-03 1.729448e-03 -7.829171e-04 -2.255797e-03 -4.581547e-03 -6.373803e-03 -9.437047e-03 -1.260178e-02 -1.752725e-02 -2.329787e-02 -3.132727e-02 -4.100551e-02 -5.335352e-02 -6.812773e-02 -8.576626e-02 -1.064524e-01 -1.298214e-01 -1.565383e-01 -1.852085e-01 -2.170398e-01 -2.494082e-01 -2.841721e-01 -3.173540e-01 -3.516733e-01 -3.818182e-01 -4.116782e-01 -4.348719e-01 -4.566692e-01 -4.702444e-01 -4.819331e-01 -4.854886e-01 -4.871634e-01 -4.824687e-01 -4.759981e-01 -4.657680e-01 -4.535148e-01 -4.399268e-01 -4.232611e-01 -4.066811e-01 -3.848407e-01 -3.628482e-01 -3.330883e-01 -3.010143e-01 -2.613561e-01 -2.154937e-01 -1.693688e-01 -1.107590e-01 -6.904390e-02 -3.792849e-03 1.918413e-02 8.221242e-02 7.817250e-02 1.324442e-01 1.138094e-01 1.394532e-01 1.451094e-01 3.810568e-02 6.953735e-03 -3.344928e-02 -5.508795e-02 -1.391419e-01 -7.551118e-02 -2.899828e-02 -4.363175e-02 1.253241e-02 1.117961e-02 3.859214e-02 4.121599e-02 5.178602e-02 5.362670e-02 6.233444e-02 5.981085e-02 5.437712e-02 7.192063e-02 7.253909e-02 9.327919e-02 9.825796e-02 1.171546e-01 1.236741e-01 1.401303e-01 1.469194e-01 1.612249e-01 1.677564e-01 1.802290e-01 1.862444e-01 1.970781e-01 2.023923e-01 2.116575e-01 2.160877e-01 2.237614e-01 2.271088e-01 2.331063e-01 2.351621e-01 2.393697e-01 2.399322e-01 
2.253435e-01 2.233387e-01 2.242676e-01 2.206843e-01 2.193712e-01 2.141875e-01 2.106554e-01 2.039315e-01 1.982972e-01 1.901813e-01 1.826595e-01 1.733863e-01 1.642832e-01 1.541641e-01 1.438637e-01 1.332704e-01 1.222151e-01 1.115597e-01 1.002269e-01 8.993972e-02 7.881860e-02 6.932567e-02 5.889251e-02 5.059259e-02 4.128612e-02 3.452615e-02 2.672031e-02 2.176751e-02 1.573976e-02 1.274884e-02 8.642596e-03 7.617385e-03 5.398789e-03 6.149953e-03 5.561951e-03 7.665477e-03 8.185446e-03 1.094955e-02 1.176026e-02 1.421161e-02 1.419849e-02 1.510111e-02 1.289204e-02 1.081495e-02 4.881788e-03 -1.666018e-03 -1.282215e-02 -2.516903e-02 -4.272888e-02 -6.171549e-02 -8.614701e-02 -1.117111e-01 -1.423186e-01 -1.730699e-01 -2.076355e-01 -2.406174e-01 -2.754085e-01 -3.063591e-01 -3.368022e-01 -3.611762e-01 -3.832191e-01 -3.977792e-01 -4.093001e-01 -4.133291e-01 -4.145432e-01 -4.096206e-01 -4.023047e-01 -3.909650e-01 -3.772317e-01 -3.618481e-01 -3.431532e-01 -3.249894e-01 -3.010253e-01 -2.786829e-01 -2.470994e-01 -2.161404e-01 -1.752795e-01 -1.315547e-01 -8.592759e-02 -3.044268e-02 7.709222e-03 6.723822e-02 8.397849e-02 1.330750e-01 1.207540e-01 1.505164e-01 1.187508e-01 1.102588e-01 5.919780e-02 3.418682e-02 4.210435e-02 3.061574e-03 -5.158291e-02 9.124045e-02 9.960511e-02 1.127066e-01 1.159933e-01 1.007402e-01 1.154663e-01 9.366100e-02 1.132511e-01 8.361424e-02 1.158964e-01 8.209901e-02 9.974691e-02 5.921874e-02 7.354208e-02 6.411355e-02 8.290158e-02 8.460879e-02 1.032263e-01 1.080965e-01 1.251144e-01 1.305669e-01 1.458261e-01 1.510250e-01 1.646331e-01 1.692717e-01 1.813151e-01 1.852297e-01 1.957138e-01 1.987613e-01 2.076138e-01 2.096389e-01 2.167319e-01 2.175679e-01 2.227465e-01 2.222308e-01 
2.544133e-01 2.544260e-01 2.552227e-01 2.530933e-01 2.515690e-01 2.472202e-01 2.433880e-01 2.368486e-01 2.308264e-01 2.222427e-01 2.142580e-01 2.038935e-01 1.942772e-01 1.825014e-01 1.716727e-01 1.589417e-01 1.473860e-01 1.342165e-01 1.224606e-01 1.094018e-01 9.798814e-02 8.559358e-02 7.505484e-02 6.385394e-02 5.468742e-02 4.515629e-02 3.779554e-02 3.032451e-02 2.510541e-02 1.996086e-02 1.707966e-02 1.435896e-02 1.382225e-02 1.340317e-02 1.497257e-02 1.646212e-02 1.960093e-02 2.229248e-02 2.612529e-02 2.897651e-02 3.227683e-02 3.392369e-02 3.514770e-02 3.397277e-02 3.136114e-02 2.563815e-02 1.741259e-02 5.554152e-03 -9.762701e-03 -2.882673e-02 -5.195157e-02 -7.825991e-02 -1.085842e-01 -1.405659e-01 -1.756416e-01 -2.097103e-01 -2.451227e-01 -2.758990e-01 -3.059835e-01 -3.276594e-01 -3.472608e-01 -3.560535e-01 -3.626561e-01 -3.589543e-01 -3.537373e-01 -3.418442e-01 -3.290789e-01 -3.145673e-01 -2.991615e-01 -2.864949e-01 -2.715115e-01 -2.624808e-01 -2.468041e-01 -2.381323e-01 -2.154616e-01 -1.981709e-01 -1.612932e-01 -1.265077e-01 -7.763030e-02 -2.471572e-02 1.907395e-02 8.419299e-02 9.703264e-02 1.630987e-01 1.188070e-01 1.924467e-01 9.036064e-02 1.523823e-01 -1.242405e-02 5.284597e-02 -1.061229e-01 -6.606062e-02 4.757803e-02 1.718422e-01 1.511876e-01 4.821033e-02 1.163124e-01 4.019682e-02 8.461548e-02 1.834997e-02 6.902666e-02 3.874298e-03 6.283253e-02 -1.383224e-02 6.024350e-02 3.314706e-02 6.069467e-02 5.887221e-02 7.869240e-02 8.524432e-02 1.029530e-01 1.119599e-01 1.281366e-01 1.375393e-01 1.522441e-01 1.613086e-01 1.745830e-01 1.830012e-01 1.948560e-01 2.024290e-01 2.128155e-01 2.193463e-01 2.281530e-01 2.334174e-01 2.404845e-01 2.442364e-01 2.493799e-01 2.513722e-01 
2.368670e-01 2.358223e-01 2.372903e-01 2.343447e-01 2.332443e-01 2.283472e-01 2.246655e-01 2.178676e-01 2.117132e-01 2.031775e-01 1.947860e-01 1.847872e-01 1.745152e-01 1.634281e-01 1.517351e-01 1.400154e-01 1.274397e-01 1.155994e-01 1.027303e-01 9.131214e-02 7.876255e-02 6.831558e-02 5.669657e-02 4.775242e-02 3.764819e-02 3.069676e-02 2.263749e-02 1.809811e-02 1.252627e-02 1.071084e-02 7.937285e-03 9.002813e-03 9.151048e-03 1.304196e-02 1.598253e-02 2.236718e-02 2.764880e-02 3.585908e-02 4.264784e-02 5.163490e-02 5.867714e-02 6.699941e-02 7.262828e-02 7.849183e-02 8.070347e-02 8.208096e-02 7.871665e-02 7.358270e-02 6.266570e-02 4.939751e-02 2.967258e-02 7.653495e-03 -2.067670e-02 -5.029657e-02 -8.480949e-02 -1.184589e-01 -1.541980e-01 -1.859399e-01 -2.162882e-01 -2.393587e-01 -2.584956e-01 -2.683585e-01 -2.740861e-01 -2.709724e-01 -2.651451e-01 -2.531404e-01 -2.396554e-01 -2.233873e-01 -2.059085e-01 -1.893952e-01 -1.707010e-01 -1.573843e-01 -1.373139e-01 -1.265268e-01 -9.975266e-02 -8.345828e-02 -4.324110e-02 -1.155030e-02 3.719777e-02 8.634475e-02 1.230543e-01 1.856183e-01 1.907561e-01 2.437862e-01 2.016691e-01 2.529092e-01 2.275352e-01 1.877284e-01 2.324791e-02 4.872675e-02 -7.419655e-02 2.316557e-01 2.381104e-01 -4.789072e-02 -1.349590e-02 2.264233e-03 9.948858e-03 -3.949429e-02 2.649421e-03 -5.814179e-02 -1.126112e-02 -6.328283e-02 -2.129299e-02 -6.062849e-02 -6.737450e-03 6.884908e-03 3.516462e-02 4.417626e-02 6.415993e-02 7.257219e-02 9.023623e-02 9.859277e-02 1.150392e-01 1.230502e-01 1.383807e-01 1.458084e-01 1.599766e-01 1.666768e-01 1.795987e-01 1.854493e-01 1.969950e-01 2.018520e-01 2.118402e-01 2.155252e-01 2.237319e-01 2.260410e-01 2.322220e-01 2.329466e-01 