# vtk DataFile Version 2.0
Comment goes here
ASCII

DATASET STRUCTURED_POINTS
DIMENSIONS    128   128   1

ORIGIN    0.000   0.000   0.000
SPACING   0.0156250.015625   1.000

POINT_DATA   16384
SCALARS uX double
LOOKUP_TABLE default

-6.090190e-02 -7.171423e-02 -7.707126e-02 -8.640624e-02 -9.076791e-02 -9.856283e-02 -1.018938e-01 -1.081181e-01 -1.104153e-01 -1.150730e-01 -1.163654e-01 -1.194977e-01 -1.198477e-01 -1.215349e-01 -1.210376e-01 -1.214006e-01 -1.201840e-01 -1.193842e-01 -1.176081e-01 -1.158468e-01 -1.137019e-01 -1.112188e-01 -1.089246e-01 -1.059955e-01 -1.037992e-01 -1.007334e-01 -9.890744e-02 -9.604399e-02 -9.488358e-02 -9.258646e-02 -9.240531e-02 -9.105627e-02 -9.217977e-02 -9.216786e-02 -9.492237e-02 -9.662880e-02 -1.013256e-01 -1.051029e-01 -1.120161e-01 -1.181608e-01 -1.274982e-01 -1.362173e-01 -1.480858e-01 -1.594591e-01 -1.738267e-01 -1.877673e-01 -2.044261e-01 -2.206458e-01 -2.391825e-01 -2.571681e-01 -2.769499e-01 -2.959581e-01 -3.161407e-01 -3.352184e-01 -3.547819e-01 -3.728145e-01 -3.906267e-01 -4.064097e-01 -4.213087e-01 -4.336336e-01 -4.445171e-01 -4.522544e-01 -4.581586e-01 -4.603258e-01 -4.604833e-01 -4.562904e-01 -4.501684e-01 -4.390493e-01 -4.263806e-01 -4.080305e-01 -3.888594e-01 -3.632996e-01 -3.380597e-01 -3.057454e-01 -2.753684e-01 -2.373254e-01 -2.033459e-01 -1.612862e-01 -1.258714e-01 -8.219856e-02 -4.800950e-02 -5.618739e-03 2.455903e-02 6.272526e-02 8.655393e-02 1.181206e-01 1.343314e-01 1.580789e-01 1.668954e-01 1.830626e-01 1.861769e-01 1.962480e-01 1.962066e-01 2.021283e-01 2.013016e-01 2.045493e-01 2.043493e-01 2.054899e-01 2.062641e-01 2.050663e-01 2.063350e-01 2.022921e-01 2.031442e-01 1.959338e-01 1.954802e-01 1.852228e-01 1.830025e-01 1.702602e-01 1.662637e-01 1.517236e-01 1.461625e-01 1.304324e-01 1.235992e-01 1.071791e-01 9.940234e-02 8.271498e-02 7.433646e-02 5.774838e-02 4.910052e-02 3.292972e-02 2.431575e-02 8.833975e-03 5.164743e-04 -1.404793e-02 -2.185055e-02 -3.530833e-02 -4.242036e-02 -5.461697e-02 
-4.805404e-02 -5.804866e-02 -6.372277e-02 -7.244894e-02 -7.708529e-02 -8.449146e-02 -8.805093e-02 -9.411346e-02 -9.658993e-02 -1.013152e-01 -1.027361e-01 -1.061627e-01 -1.065896e-01 -1.087910e-01 -1.083196e-01 -1.094051e-01 -1.081650e-01 -1.082808e-01 -1.064348e-01 -1.057638e-01 -1.035061e-01 -1.022671e-01 -9.982184e-02 -9.826843e-02 -9.588793e-02 -9.430618e-02 -9.226864e-02 -9.097434e-02 -8.958102e-02 -8.891534e-02 -8.848610e-02 -8.880885e-02 -8.967516e-02 -9.135453e-02 -9.384845e-02 -9.724590e-02 -1.016839e-01 -1.071331e-01 -1.137933e-01 -1.215727e-01 -1.306658e-01 -1.409645e-01 -1.525991e-01 -1.654786e-01 -1.796225e-01 -1.949777e-01 -2.114212e-01 -2.289452e-01 -2.472718e-01 -2.664331e-01 -2.860053e-01 -3.060444e-01 -3.260132e-01 -3.459646e-01 -3.653066e-01 -3.840505e-01 -4.016331e-01 -4.179705e-01 -4.326372e-01 -4.453778e-01 -4.560394e-01 -4.640853e-01 -4.697980e-01 -4.722062e-01 -4.722263e-01 -4.682450e-01 -4.620582e-01 -4.511448e-01 -4.384869e-01 -4.203326e-01 -4.012265e-01 -3.758151e-01 -3.506456e-01 -3.183669e-01 -2.879967e-01 -2.498027e-01 -2.156927e-01 -1.732443e-01 -1.375029e-01 -9.320662e-02 -5.846862e-02 -1.529633e-02 1.563446e-02 5.460259e-02 7.931528e-02 1.115576e-01 1.286448e-01 1.528635e-01 1.623535e-01 1.788309e-01 1.822362e-01 1.925912e-01 1.924181e-01 1.987255e-01 1.974756e-01 2.013251e-01 2.006110e-01 2.026052e-01 2.028807e-01 2.027941e-01 2.035994e-01 2.009051e-01 2.013055e-01 1.956309e-01 1.947113e-01 1.861115e-01 1.834178e-01 1.724233e-01 1.679622e-01 1.552256e-01 1.492079e-01 1.352970e-01 1.280080e-01 1.133880e-01 1.051527e-01 9.021891e-02 8.138040e-02 6.647625e-02 5.737124e-02 4.279295e-02 3.373023e-02 1.972776e-02 1.097594e-02 -2.244153e-03 -1.046054e-02 -2.273029e-02 -3.022950e-02 -4.141433e-02 
-6.215548e-02 -7.292011e-02 -7.823101e-02 -8.752885e-02 -9.185221e-02 -9.961655e-02 -1.029143e-01 -1.091107e-01 -1.113768e-01 -1.160057e-01 -1.172671e-01 -1.203665e-01 -1.206830e-01 -1.223307e-01 -1.217954e-01 -1.221098e-01 -1.208490e-01 -1.199893e-01 -1.181608e-01 -1.163265e-01 -1.141189e-01 -1.115477e-01 -1.091782e-01 -1.061439e-01 -1.038571e-01 -1.006670e-01 -9.873260e-02 -9.572405e-02 -9.443495e-02 -9.197067e-02 -9.163900e-02 -9.010070e-02 -9.105173e-02 -9.083021e-02 -9.339234e-02 -9.487310e-02 -9.936259e-02 -1.029055e-01 -1.096047e-01 -1.155169e-01 -1.246453e-01 -1.331478e-01 -1.448269e-01 -1.560153e-01 -1.702293e-01 -1.840334e-01 -2.005899e-01 -2.167359e-01 -2.352336e-01 -2.532179e-01 -2.730296e-01 -2.921110e-01 -3.123893e-01 -3.316082e-01 -3.513214e-01 -3.695490e-01 -3.875470e-01 -4.035612e-01 -4.186637e-01 -4.312405e-01 -4.423324e-01 -4.503352e-01 -4.564496e-01 -4.588985e-01 -4.592742e-01 -4.553880e-01 -4.495011e-01 -4.387196e-01 -4.263037e-01 -4.083125e-01 -3.893946e-01 -3.641806e-01 -3.391550e-01 -3.071129e-01 -2.768574e-01 -2.389418e-01 -2.049474e-01 -1.628203e-01 -1.272557e-01 -8.333190e-02 -4.893416e-02 -6.206244e-03 2.408895e-02 6.251093e-02 8.618888e-02 1.177534e-01 1.334230e-01 1.568099e-01 1.647097e-01 1.802127e-01 1.822362e-01 1.915786e-01 1.906052e-01 1.960129e-01 1.946374e-01 1.976799e-01 1.972995e-01 1.984818e-01 1.993739e-01 1.982952e-01 1.999022e-01 1.959569e-01 1.972667e-01 1.901086e-01 1.900999e-01 1.798737e-01 1.780467e-01 1.654061e-01 1.617796e-01 1.474258e-01 1.422054e-01 1.267025e-01 1.201632e-01 1.039703e-01 9.643543e-02 7.995442e-02 7.177197e-02 5.536309e-02 4.687450e-02 3.085536e-02 2.237157e-02 7.015381e-03 -1.195517e-03 -1.565828e-02 -2.337395e-02 -3.675140e-02 -4.379299e-02 -5.592740e-02 
-5.039461e-02 -6.028006e-02 -6.586646e-02 -7.450803e-02 -7.907150e-02 -8.641025e-02 -8.990593e-02 -9.591087e-02 -9.832725e-02 -1.029977e-01 -1.043573e-01 -1.077257e-01 -1.080856e-01 -1.102195e-01 -1.096715e-01 -1.106750e-01 -1.093450e-01 -1.093595e-01 -1.074065e-01 -1.066103e-01 -1.042244e-01 -1.028317e-01 -1.002326e-01 -9.849215e-02 -9.592716e-02 -9.412033e-02 -9.186255e-02 -9.030100e-02 -8.864711e-02 -8.766922e-02 -8.693614e-02 -8.690140e-02 -8.742051e-02 -8.870063e-02 -9.080830e-02 -9.377340e-02 -9.779604e-02 -1.027947e-01 -1.090272e-01 -1.163595e-01 -1.250360e-01 -1.349187e-01 -1.461768e-01 -1.587034e-01 -1.725430e-01 -1.876411e-01 -2.038830e-01 -2.212738e-01 -2.395248e-01 -2.586944e-01 -2.783271e-01 -2.985179e-01 -3.186758e-01 -3.389062e-01 -3.585403e-01 -3.776590e-01 -3.955991e-01 -4.123695e-01 -4.274208e-01 -4.406227e-01 -4.516707e-01 -4.601965e-01 -4.662958e-01 -4.692179e-01 -4.696452e-01 -4.662430e-01 -4.605123e-01 -4.502675e-01 -4.381262e-01 -4.207178e-01 -4.021587e-01 -3.774982e-01 -3.528231e-01 -3.211637e-01 -2.911160e-01 -2.532405e-01 -2.191774e-01 -1.766170e-01 -1.406337e-01 -9.579806e-02 -6.066607e-02 -1.672739e-02 1.446852e-02 5.405379e-02 7.857253e-02 1.108663e-01 1.270607e-01 1.505223e-01 1.583856e-01 1.734385e-01 1.747530e-01 1.835733e-01 1.814541e-01 1.866539e-01 1.841281e-01 1.875354e-01 1.863463e-01 1.883963e-01 1.888624e-01 1.890032e-01 1.904813e-01 1.880077e-01 1.893364e-01 1.838279e-01 1.838006e-01 1.753113e-01 1.734102e-01 1.626717e-01 1.589659e-01 1.466492e-01 1.413241e-01 1.279013e-01 1.212022e-01 1.070595e-01 9.930391e-02 8.480131e-02 7.634815e-02 6.182019e-02 5.302630e-02 3.876978e-02 2.996016e-02 1.622796e-02 7.682447e-03 -5.315270e-03 -1.336422e-02 -2.545508e-02 -3.281931e-02 -4.386330e-02 
-6.584225e-02 -7.647047e-02 -8.164616e-02 -9.083867e-02 -9.505009e-02 -1.027282e-01 -1.059289e-01 -1.120466e-01 -1.142229e-01 -1.187699e-01 -1.199412e-01 -1.229462e-01 -1.231661e-01 -1.246986e-01 -1.240544e-01 -1.242261e-01 -1.228383e-01 -1.218025e-01 -1.198234e-01 -1.177738e-01 -1.153857e-01 -1.125543e-01 -1.099674e-01 -1.066220e-01 -1.040730e-01 -1.005147e-01 -9.826510e-02 -9.482540e-02 -9.316045e-02 -9.019800e-02 -8.942432e-02 -8.731998e-02 -8.776154e-02 -8.691063e-02 -8.890101e-02 -8.970103e-02 -9.357033e-02 -9.640245e-02 -1.024571e-01 -1.076601e-01 -1.161545e-01 -1.239908e-01 -1.350903e-01 -1.457043e-01 -1.594427e-01 -1.728149e-01 -1.890477e-01 -2.049497e-01 -2.233139e-01 -2.412727e-01 -2.611590e-01 -2.804409e-01 -3.009931e-01 -3.206179e-01 -3.407671e-01 -3.595608e-01 -3.780995e-01 -3.947825e-01 -4.104706e-01 -4.237693e-01 -4.354500e-01 -4.442051e-01 -4.509041e-01 -4.541478e-01 -4.551289e-01 -4.521160e-01 -4.468923e-01 -4.370924e-01 -4.254126e-01 -4.084965e-01 -3.903464e-01 -3.662069e-01 -3.418656e-01 -3.107157e-01 -2.808914e-01 -2.434554e-01 -2.094869e-01 -1.672479e-01 -1.312834e-01 -8.666176e-02 -5.165417e-02 -7.925064e-03 2.272824e-02 6.193487e-02 8.515822e-02 1.167313e-01 1.307385e-01 1.530239e-01 1.580795e-01 1.715113e-01 1.701345e-01 1.772222e-01 1.734236e-01 1.773367e-01 1.744133e-01 1.769145e-01 1.760221e-01 1.774079e-01 1.786195e-01 1.778701e-01 1.804770e-01 1.767489e-01 1.795053e-01 1.724651e-01 1.738701e-01 1.637210e-01 1.631373e-01 1.508654e-01 1.484135e-01 1.346929e-01 1.305263e-01 1.157427e-01 1.100822e-01 9.457590e-02 8.774828e-02 7.187687e-02 6.426242e-02 4.837823e-02 4.035129e-02 2.477500e-02 1.667020e-02 1.680253e-03 -6.218929e-03 -2.038592e-02 -2.784659e-02 -4.099118e-02 -4.782589e-02 -5.978107e-02 
-5.491211e-02 -6.458965e-02 -7.000828e-02 -7.849045e-02 -8.291517e-02 -9.012836e-02 -9.350317e-02 -9.940184e-02 -1.017047e-01 -1.062744e-01 -1.075183e-01 -1.107788e-01 -1.110122e-01 -1.130198e-01 -1.123270e-01 -1.131756e-01 -1.116754e-01 -1.114972e-01 -1.093411e-01 -1.083053e-01 -1.056757e-01 -1.039872e-01 -1.010946e-01 -9.899248e-02 -9.607391e-02 -9.382965e-02 -9.114734e-02 -8.906351e-02 -8.690402e-02 -8.531228e-02 -8.398515e-02 -8.324296e-02 -8.307776e-02 -8.356218e-02 -8.490205e-02 -8.699891e-02 -9.018857e-02 -9.427492e-02 -9.964126e-02 -1.060595e-01 -1.138831e-01 -1.229057e-01 -1.333829e-01 -1.451690e-01 -1.583659e-01 -1.729106e-01 -1.887126e-01 -2.057972e-01 -2.238616e-01 -2.430113e-01 -2.627340e-01 -2.831968e-01 -3.037066e-01 -3.244667e-01 -3.446599e-01 -3.644966e-01 -3.831190e-01 -4.007105e-01 -4.164803e-01 -4.305371e-01 -4.422830e-01 -4.516757e-01 -4.584506e-01 -4.622917e-01 -4.634276e-01 -4.610807e-01 -4.561724e-01 -4.471979e-01 -4.360437e-01 -4.201278e-01 -4.026826e-01 -3.796124e-01 -3.560181e-01 -3.257693e-01 -2.965110e-01 -2.594894e-01 -2.256730e-01 -1.830821e-01 -1.467285e-01 -1.009144e-01 -6.504934e-02 -1.955819e-02 1.214763e-02 5.306115e-02 7.717061e-02 1.096343e-01 1.240196e-01 1.459003e-01 1.504581e-01 1.624471e-01 1.594026e-01 1.650689e-01 1.589398e-01 1.619822e-01 1.569346e-01 1.596419e-01 1.575331e-01 1.598202e-01 1.606014e-01 1.611082e-01 1.639089e-01 1.617154e-01 1.650581e-01 1.598545e-01 1.617695e-01 1.534793e-01 1.533046e-01 1.432306e-01 1.411779e-01 1.298565e-01 1.259763e-01 1.135992e-01 1.080651e-01 9.488247e-02 8.804225e-02 7.438245e-02 6.665569e-02 5.285667e-02 4.465044e-02 3.101700e-02 2.268873e-02 9.480211e-03 1.329503e-03 -1.123766e-02 -1.896499e-02 -3.071052e-02 -3.781528e-02 -4.858889e-02 
-7.171295e-02 -8.213170e-02 -8.709468e-02 -9.612835e-02 -1.001648e-01 -1.077149e-01 -1.107651e-01 -1.167664e-01 -1.188039e-01 -1.232286e-01 -1.242614e-01 -1.271228e-01 -1.271940e-01 -1.285488e-01 -1.277365e-01 -1.276852e-01 -1.261013e-01 -1.247878e-01 -1.225755e-01 -1.201845e-01 -1.175161e-01 -1.142702e-01 -1.113441e-01 -1.075009e-01 -1.045402e-01 -1.003898e-01 -9.764116e-02 -9.350428e-02 -9.123838e-02 -8.746487e-02 -8.597689e-02 -8.294377e-02 -8.255268e-02 -8.065996e-02 -8.170485e-02 -8.136711e-02 -8.419815e-02 -8.582950e-02 -9.079095e-02 -9.478127e-02 -1.021844e-01 -1.088650e-01 -1.189497e-01 -1.285481e-01 -1.414338e-01 -1.540196e-01 -1.696480e-01 -1.850746e-01 -2.031528e-01 -2.210049e-01 -2.409599e-01 -2.605202e-01 -2.814824e-01 -3.017350e-01 -3.225677e-01 -3.422534e-01 -3.616400e-01 -3.793683e-01 -3.959519e-01 -4.103513e-01 -4.228951e-01 -4.327638e-01 -4.402838e-01 -4.446869e-01 -4.465103e-01 -4.447927e-01 -4.405297e-01 -4.322541e-01 -4.217200e-01 -4.065788e-01 -3.897271e-01 -3.674927e-01 -3.444252e-01 -3.150100e-01 -2.861279e-01 -2.498214e-01 -2.161408e-01 -1.740281e-01 -1.375756e-01 -9.198379e-02 -5.602314e-02 -1.066371e-02 2.059491e-02 6.116088e-02 8.359358e-02 1.152252e-01 1.263074e-01 1.467141e-01 1.467147e-01 1.564464e-01 1.489484e-01 1.520781e-01 1.435418e-01 1.452692e-01 1.402777e-01 1.421159e-01 1.403822e-01 1.423983e-01 1.438612e-01 1.434519e-01 1.475444e-01 1.437923e-01 1.492251e-01 1.422599e-01 1.463690e-01 1.363585e-01 1.381360e-01 1.268132e-01 1.265642e-01 1.141749e-01 1.118356e-01 9.835209e-02 9.410543e-02 7.973925e-02 7.400386e-02 5.911015e-02 5.236503e-02 3.731523e-02 3.000037e-02 1.512847e-02 7.615060e-03 -6.792193e-03 -1.420053e-02 -2.789823e-02 -3.495535e-02 -4.773291e-02 -5.423988e-02 -6.591560e-02 
-6.127047e-02 -7.066030e-02 -7.584640e-02 -8.411234e-02 -8.834651e-02 -9.539334e-02 -9.860359e-02 -1.043643e-01 -1.065134e-01 -1.109533e-01 -1.120405e-01 -1.151608e-01 -1.152226e-01 -1.170631e-01 -1.161731e-01 -1.168134e-01 -1.150805e-01 -1.146391e-01 -1.122047e-01 -1.108379e-01 -1.078728e-01 -1.057717e-01 -1.024727e-01 -9.986146e-02 -9.644941e-02 -9.358367e-02 -9.030291e-02 -8.746964e-02 -8.458895e-02 -8.210687e-02 -7.992133e-02 -7.814117e-02 -7.697340e-02 -7.627614e-02 -7.647482e-02 -7.726557e-02 -7.919848e-02 -8.189319e-02 -8.593181e-02 -9.093416e-02 -9.742708e-02 -1.050932e-01 -1.143264e-01 -1.249166e-01 -1.370604e-01 -1.506786e-01 -1.657238e-01 -1.822511e-01 -1.999420e-01 -2.189720e-01 -2.387489e-01 -2.595444e-01 -2.805168e-01 -3.020073e-01 -3.229801e-01 -3.438238e-01 -3.633947e-01 -3.821144e-01 -3.988417e-01 -4.140162e-01 -4.266213e-01 -4.370784e-01 -4.446147e-01 -4.495489e-01 -4.514666e-01 -4.504234e-01 -4.465007e-01 -4.392370e-01 -4.294219e-01 -4.157169e-01 -3.999700e-01 -3.794852e-01 -3.577309e-01 -3.300291e-01 -3.023207e-01 -2.671528e-01 -2.341077e-01 -1.920082e-01 -1.554085e-01 -1.084300e-01 -7.163207e-02 -2.379041e-02 8.568970e-03 5.170335e-02 7.502630e-02 1.079047e-01 1.194456e-01 1.387611e-01 1.383740e-01 1.451171e-01 1.351639e-01 1.361822e-01 1.239169e-01 1.240071e-01 1.153803e-01 1.176226e-01 1.141608e-01 1.170845e-01 1.178908e-01 1.184666e-01 1.229540e-01 1.204600e-01 1.272513e-01 1.225101e-01 1.279117e-01 1.200011e-01 1.229817e-01 1.145419e-01 1.153802e-01 1.059566e-01 1.043047e-01 9.359019e-02 8.968032e-02 7.789185e-02 7.227132e-02 5.980210e-02 5.304122e-02 4.027211e-02 3.286015e-02 2.011238e-02 1.244618e-02 -1.533443e-05 -7.616381e-03 -1.956990e-02 -2.684680e-02 -3.810269e-02 -4.484384e-02 -5.523775e-02 
-7.935457e-02 -8.951592e-02 -9.420663e-02 -1.030516e-01 -1.068667e-01 -1.142692e-01 -1.171315e-01 -1.229999e-01 -1.248658e-01 -1.291483e-01 -1.300104e-01 -1.326995e-01 -1.325876e-01 -1.337225e-01 -1.327027e-01 -1.323699e-01 -1.305431e-01 -1.288741e-01 -1.263721e-01 -1.235399e-01 -1.205215e-01 -1.167363e-01 -1.133835e-01 -1.088884e-01 -1.054041e-01 -1.004726e-01 -9.708051e-02 -9.201554e-02 -8.896271e-02 -8.409797e-02 -8.165858e-02 -7.736058e-02 -7.584056e-02 -7.250980e-02 -7.224926e-02 -7.031779e-02 -7.168836e-02 -7.161055e-02 -7.500397e-02 -7.723697e-02 -8.304137e-02 -8.801196e-02 -9.657264e-02 -1.046283e-01 -1.161914e-01 -1.275355e-01 -1.421755e-01 -1.567900e-01 -1.743289e-01 -1.918947e-01 -2.118253e-01 -2.316591e-01 -2.530990e-01 -2.741332e-01 -2.958395e-01 -3.166760e-01 -3.371483e-01 -3.562043e-01 -3.738808e-01 -3.896107e-01 -4.031125e-01 -4.142390e-01 -4.225732e-01 -4.282322e-01 -4.308600e-01 -4.305870e-01 -4.273306e-01 -4.209088e-01 -4.117649e-01 -3.990198e-01 -3.839795e-01 -3.646060e-01 -3.435707e-01 -3.170905e-01 -2.899972e-01 -2.560015e-01 -2.232750e-01 -1.820740e-01 -1.453708e-01 -9.891096e-02 -6.180018e-02 -1.430865e-02 1.775843e-02 6.023628e-02 8.135287e-02 1.130138e-01 1.195078e-01 1.371952e-01 1.294886e-01 1.335578e-01 1.164726e-01 1.137994e-01 9.902274e-02 9.912901e-02 9.327771e-02 9.449789e-02 9.112030e-02 9.476758e-02 9.536305e-02 9.445906e-02 9.974927e-02 9.452392e-02 1.042553e-01 9.703823e-02 1.061872e-01 9.695244e-02 1.031100e-01 9.431579e-02 9.768054e-02 8.767705e-02 8.783321e-02 7.620145e-02 7.367060e-02 6.078314e-02 5.633081e-02 4.268603e-02 3.698162e-02 2.300855e-02 1.657351e-02 2.619604e-03 -4.144274e-03 -1.778996e-02 -2.456650e-02 -3.765360e-02 -4.418764e-02 -5.649308e-02 -6.257496e-02 -7.389790e-02 
-6.896903e-02 -7.801814e-02 -8.292784e-02 -9.094633e-02 -9.495756e-02 -1.018220e-01 -1.048427e-01 -1.104582e-01 -1.124321e-01 -1.167373e-01 -1.176463e-01 -1.206188e-01 -1.204847e-01 -1.221434e-01 -1.210269e-01 -1.214331e-01 -1.194315e-01 -1.186872e-01 -1.159298e-01 -1.141748e-01 -1.108178e-01 -1.082254e-01 -1.044476e-01 -1.012215e-01 -9.722104e-02 -9.359387e-02 -8.958845e-02 -8.582297e-02 -8.205306e-02 -7.844554e-02 -7.518051e-02 -7.206592e-02 -6.961120e-02 -6.736774e-02 -6.607055e-02 -6.512061e-02 -6.537063e-02 -6.617440e-02 -6.839520e-02 -7.143271e-02 -7.605948e-02 -8.179708e-02 -8.923666e-02 -9.807458e-02 -1.086449e-01 -1.208447e-01 -1.346938e-01 -1.502888e-01 -1.672991e-01 -1.859967e-01 -2.056897e-01 -2.267886e-01 -2.482583e-01 -2.706125e-01 -2.925270e-01 -3.146019e-01 -3.353164e-01 -3.553674e-01 -3.731620e-01 -3.895272e-01 -4.029271e-01 -4.143466e-01 -4.224029e-01 -4.282186e-01 -4.306058e-01 -4.307140e-01 -4.275781e-01 -4.221486e-01 -4.137810e-01 -4.028810e-01 -3.893799e-01 -3.726449e-01 -3.537092e-01 -3.301967e-01 -3.052392e-01 -2.736909e-01 -2.424664e-01 -2.021836e-01 -1.658915e-01 -1.180998e-01 -8.042863e-02 -2.950598e-02 3.357811e-03 4.985149e-02 7.132430e-02 1.049553e-01 1.119433e-01 1.272749e-01 1.208851e-01 1.186615e-01 9.909136e-02 9.581789e-02 7.632072e-02 7.319791e-02 6.016080e-02 6.366520e-02 5.825690e-02 6.195134e-02 6.114292e-02 5.999047e-02 6.542734e-02 6.006223e-02 7.186831e-02 6.754757e-02 7.971147e-02 7.389550e-02 8.319584e-02 7.894409e-02 8.423767e-02 7.780632e-02 7.878104e-02 7.010590e-02 6.787184e-02 5.769127e-02 5.332622e-02 4.226033e-02 3.654782e-02 2.503050e-02 1.852639e-02 6.875025e-03 -8.161832e-06 -1.153909e-02 -1.847809e-02 -2.966887e-02 -3.639941e-02 -4.705209e-02 -5.335253e-02 -6.328591e-02 
-8.819382e-02 -9.808306e-02 -1.024643e-01 -1.111219e-01 -1.146904e-01 -1.219555e-01 -1.246126e-01 -1.303601e-01 -1.320420e-01 -1.361899e-01 -1.368709e-01 -1.393858e-01 -1.390797e-01 -1.399802e-01 -1.387399e-01 -1.380960e-01 -1.360100e-01 -1.339397e-01 -1.311270e-01 -1.277902e-01 -1.243938e-01 -1.199859e-01 -1.161669e-01 -1.109123e-01 -1.068466e-01 -1.009956e-01 -9.687421e-02 -9.070286e-02 -8.673648e-02 -8.055130e-02 -7.697895e-02 -7.112416e-02 -6.822461e-02 -6.309067e-02 -6.119343e-02 -5.722326e-02 -5.671528e-02 -5.440381e-02 -5.572712e-02 -5.560924e-02 -5.924387e-02 -6.186541e-02 -6.829215e-02 -7.415898e-02 -8.379683e-02 -9.329862e-02 -1.064146e-01 -1.197234e-01 -1.363179e-01 -1.532697e-01 -1.729527e-01 -1.929342e-01 -2.148246e-01 -2.367057e-01 -2.594083e-01 -2.815780e-01 -3.032978e-01 -3.238537e-01 -3.426793e-01 -3.597691e-01 -3.740703e-01 -3.862806e-01 -3.950542e-01 -4.016529e-01 -4.046179e-01 -4.054987e-01 -4.028830e-01 -3.982619e-01 -3.904402e-01 -3.804891e-01 -3.676509e-01 -3.521552e-01 -3.340617e-01 -3.121588e-01 -2.881406e-01 -2.584262e-01 -2.279358e-01 -1.893469e-01 -1.531951e-01 -1.066681e-01 -6.850224e-02 -1.866627e-02 1.429670e-02 5.900168e-02 7.763797e-02 1.085718e-01 1.073926e-01 1.210980e-01 1.024227e-01 9.849118e-02 6.704002e-02 5.692477e-02 3.767571e-02 4.150541e-02 4.002814e-02 4.103448e-02 3.204887e-02 3.803746e-02 3.524146e-02 2.962903e-02 3.376382e-02 2.332789e-02 3.765424e-02 2.646808e-02 4.736888e-02 4.583601e-02 6.113608e-02 5.839273e-02 6.637533e-02 5.941886e-02 6.180600e-02 5.201270e-02 5.088540e-02 3.949111e-02 3.619287e-02 2.391153e-02 1.925706e-02 6.521012e-03 1.043432e-03 -1.183321e-02 -1.774733e-02 -3.049717e-02 -3.654331e-02 -4.891896e-02 -5.484408e-02 -6.661004e-02 -7.219777e-02 -8.312998e-02 
-7.734639e-02 -8.603463e-02 -9.064828e-02 -9.841964e-02 -1.021984e-01 -1.088954e-01 -1.117239e-01 -1.172173e-01 -1.190169e-01 -1.232137e-01 -1.239466e-01 -1.267955e-01 -1.264667e-01 -1.279622e-01 -1.266188e-01 -1.268013e-01 -1.245284e-01 -1.234813e-01 -1.203956e-01 -1.182401e-01 -1.144818e-01 -1.113699e-01 -1.070957e-01 -1.032054e-01 -9.858360e-02 -9.411644e-02 -8.932755e-02 -8.451078e-02 -7.975292e-02 -7.484673e-02 -7.034705e-02 -6.565581e-02 -6.168539e-02 -5.757070e-02 -5.446013e-02 -5.135169e-02 -4.950272e-02 -4.790223e-02 -4.778980e-02 -4.826193e-02 -5.042029e-02 -5.356437e-02 -5.855042e-02 -6.494675e-02 -7.327420e-02 -8.339959e-02 -9.543926e-02 -1.095499e-01 -1.253971e-01 -1.433851e-01 -1.627070e-01 -1.839531e-01 -2.058526e-01 -2.291247e-01 -2.520845e-01 -2.755579e-01 -2.975514e-01 -3.190355e-01 -3.378670e-01 -3.552614e-01 -3.690931e-01 -3.809500e-01 -3.888086e-01 -3.947115e-01 -3.966683e-01 -3.971421e-01 -3.940154e-01 -3.899931e-01 -3.827418e-01 -3.749187e-01 -3.640399e-01 -3.522923e-01 -3.373520e-01 -3.202735e-01 -2.998207e-01 -2.747587e-01 -2.471265e-01 -2.113159e-01 -1.764989e-01 -1.293080e-01 -9.115902e-02 -3.668452e-02 -3.926528e-03 4.747986e-02 6.403151e-02 9.862834e-02 9.593510e-02 1.043797e-01 9.307315e-02 7.190763e-02 4.013734e-02 4.250668e-02 2.654686e-02 1.843724e-02 -1.114846e-02 1.043844e-02 2.268370e-03 -6.178113e-03 -4.958328e-03 -1.750163e-02 -1.415576e-02 -2.418607e-02 -1.293098e-02 -2.775082e-02 3.774184e-03 2.095459e-02 4.279077e-02 4.625067e-02 5.527484e-02 5.119626e-02 5.344868e-02 4.618149e-02 4.486516e-02 3.610615e-02 3.269816e-02 2.310045e-02 1.837149e-02 8.260195e-03 2.697855e-03 -7.692976e-03 -1.372629e-02 -2.418454e-02 -3.039139e-02 -4.070955e-02 -4.683295e-02 -5.680580e-02 -6.261864e-02 -7.204537e-02 
-9.750183e-02 -1.071437e-01 -1.112023e-01 -1.197113e-01 -1.230309e-01 -1.302043e-01 -1.326622e-01 -1.383348e-01 -1.398441e-01 -1.438978e-01 -1.444123e-01 -1.467838e-01 -1.463003e-01 -1.469850e-01 -1.455426e-01 -1.445934e-01 -1.422689e-01 -1.397906e-01 -1.366904e-01 -1.328305e-01 -1.290809e-01 -1.240190e-01 -1.197569e-01 -1.136955e-01 -1.090627e-01 -1.022215e-01 -9.736458e-02 -8.998157e-02 -8.505864e-02 -7.739763e-02 -7.259269e-02 -6.495742e-02 -6.050016e-02 -5.325233e-02 -4.944042e-02 -4.301756e-02 -4.023650e-02 -3.516418e-02 -3.389829e-02 -3.079002e-02 -3.161726e-02 -3.115440e-02 -3.471637e-02 -3.759993e-02 -4.453777e-02 -5.140367e-02 -6.225087e-02 -7.354226e-02 -8.856986e-02 -1.043676e-01 -1.233909e-01 -1.432226e-01 -1.654081e-01 -1.880905e-01 -2.118462e-01 -2.354613e-01 -2.585340e-01 -2.806583e-01 -3.005416e-01 -3.187823e-01 -3.333934e-01 -3.460802e-01 -3.543995e-01 -3.610355e-01 -3.632581e-01 -3.643674e-01 -3.614302e-01 -3.579556e-01 -3.508764e-01 -3.436399e-01 -3.330644e-01 -3.222996e-01 -3.080596e-01 -2.927622e-01 -2.735368e-01 -2.510825e-01 -2.248964e-01 -1.920158e-01 -1.581038e-01 -1.135330e-01 -7.493671e-02 -2.299254e-02 1.102719e-02 5.796670e-02 7.183965e-02 9.867344e-02 8.137517e-02 8.643767e-02 5.118647e-02 3.740676e-02 -1.529677e-02 -4.409119e-02 -2.878580e-02 4.631559e-03 -1.887588e-03 -1.817020e-02 -5.345775e-03 -2.305562e-02 -1.972007e-02 -2.265237e-02 -1.905997e-02 -1.917431e-02 -1.786421e-02 -1.904793e-02 1.108075e-03 1.889822e-02 3.651109e-02 3.595144e-02 4.294597e-02 3.583485e-02 3.771976e-02 2.849016e-02 2.768600e-02 1.747174e-02 1.496699e-02 4.081701e-03 3.991833e-04 -1.097850e-02 -1.547347e-02 -2.715370e-02 -3.216104e-02 -4.392540e-02 -4.918076e-02 -6.078987e-02 -6.605386e-02 -7.725734e-02 -8.231130e-02 -9.285674e-02 
-8.558567e-02 -9.392921e-02 -9.825181e-02 -1.058115e-01 -1.093721e-01 -1.159512e-01 -1.186088e-01 -1.240387e-01 -1.256901e-01 -1.298404e-01 -1.304259e-01 -1.332126e-01 -1.327198e-01 -1.341100e-01 -1.325727e-01 -1.325845e-01 -1.300772e-01 -1.287750e-01 -1.254032e-01 -1.228891e-01 -1.187773e-01 -1.151805e-01 -1.104606e-01 -1.059286e-01 -1.007323e-01 -9.542666e-02 -8.988490e-02 -8.398371e-02 -7.823443e-02 -7.194347e-02 -6.614888e-02 -5.972023e-02 -5.409140e-02 -4.784721e-02 -4.267240e-02 -3.702912e-02 -3.270033e-02 -2.818703e-02 -2.521755e-02 -2.248073e-02 -2.150522e-02 -2.129138e-02 -2.303890e-02 -2.614530e-02 -3.137439e-02 -3.855744e-02 -4.794127e-02 -5.977241e-02 -7.372479e-02 -9.038949e-02 -1.088345e-01 -1.298899e-01 -1.520101e-01 -1.761605e-01 -2.002185e-01 -2.252344e-01 -2.486278e-01 -2.715917e-01 -2.913167e-01 -3.093285e-01 -3.228678e-01 -3.340717e-01 -3.403568e-01 -3.447178e-01 -3.445016e-01 -3.436352e-01 -3.389006e-01 -3.350118e-01 -3.278492e-01 -3.227298e-01 -3.144476e-01 -3.087175e-01 -2.990170e-01 -2.911422e-01 -2.775121e-01 -2.631595e-01 -2.417058e-01 -2.150125e-01 -1.835465e-01 -1.404283e-01 -1.024208e-01 -4.474448e-02 -1.255726e-02 4.663362e-02 5.177732e-02 8.838361e-02 5.669333e-02 5.044040e-02 3.664996e-02 -4.209215e-02 -7.901643e-02 -7.423079e-02 -6.956360e-02 -8.332884e-02 -4.356973e-02 -1.452383e-02 -1.533087e-02 1.354876e-02 2.288145e-02 3.676917e-02 4.380156e-02 5.022270e-02 5.382706e-02 5.958077e-02 5.643358e-02 4.741987e-02 4.830735e-02 3.837604e-02 3.921142e-02 3.103099e-02 3.081744e-02 2.336178e-02 2.183595e-02 1.428105e-02 1.151205e-02 3.499485e-03 -3.120965e-04 -8.853688e-03 -1.346242e-02 -2.245320e-02 -2.760363e-02 -3.688647e-02 -4.232709e-02 -5.170541e-02 -5.719443e-02 -6.645197e-02 -7.176012e-02 -8.067257e-02 
-1.064007e-01 -1.158629e-01 -1.196086e-01 -1.280484e-01 -1.311394e-01 -1.383060e-01 -1.405941e-01 -1.462757e-01 -1.476490e-01 -1.516862e-01 -1.520762e-01 -1.543720e-01 -1.537581e-01 -1.542832e-01 -1.526921e-01 -1.514833e-01 -1.489826e-01 -1.461343e-01 -1.428206e-01 -1.384712e-01 -1.344555e-01 -1.287707e-01 -1.241644e-01 -1.173229e-01 -1.122271e-01 -1.044112e-01 -9.891519e-02 -9.031125e-02 -8.450087e-02 -7.531020e-02 -6.928805e-02 -5.974854e-02 -5.366410e-02 -4.408004e-02 -3.816613e-02 -2.894116e-02 -2.355092e-02 -1.521735e-02 -1.085393e-02 -4.090091e-03 -1.419976e-03 2.954194e-03 3.115530e-03 4.175920e-03 9.200088e-04 -2.277063e-03 -9.836217e-03 -1.810545e-02 -3.063688e-02 -4.443683e-02 -6.210954e-02 -8.124134e-02 -1.033820e-01 -1.266725e-01 -1.514769e-01 -1.766016e-01 -2.011290e-01 -2.248306e-01 -2.455594e-01 -2.644817e-01 -2.784925e-01 -2.904702e-01 -2.967175e-01 -3.016947e-01 -3.012834e-01 -3.008932e-01 -2.959422e-01 -2.921695e-01 -2.845569e-01 -2.791216e-01 -2.702237e-01 -2.643935e-01 -2.545572e-01 -2.479216e-01 -2.353554e-01 -2.241455e-01 -2.050046e-01 -1.828104e-01 -1.540290e-01 -1.155706e-01 -7.839897e-02 -2.530277e-02 1.086200e-02 6.123007e-02 7.006604e-02 8.619207e-02 3.025752e-02 1.652217e-03 -9.116967e-02 -1.092865e-01 -5.335565e-02 -1.562540e-03 -1.161758e-02 7.019624e-02 6.723692e-02 8.140620e-02 9.118500e-02 8.828964e-02 9.854797e-02 8.710042e-02 1.004428e-01 8.113988e-02 1.042498e-01 7.627945e-02 9.213047e-02 5.608727e-02 4.934596e-02 2.878808e-02 2.666310e-02 1.476147e-02 1.419699e-02 5.006526e-03 4.121020e-03 -4.701584e-03 -6.467832e-03 -1.571478e-02 -1.840655e-02 -2.826050e-02 -3.174069e-02 -4.212991e-02 -4.619825e-02 -5.693499e-02 -6.137139e-02 -7.221062e-02 -7.679205e-02 -8.745956e-02 -9.196740e-02 -1.021760e-01 
-9.272191e-02 -1.007731e-01 -1.048312e-01 -1.122503e-01 -1.156288e-01 -1.221760e-01 -1.247073e-01 -1.301700e-01 -1.317244e-01 -1.359301e-01 -1.364249e-01 -1.392526e-01 -1.386578e-01 -1.400448e-01 -1.383829e-01 -1.383250e-01 -1.356634e-01 -1.342077e-01 -1.306452e-01 -1.278769e-01 -1.235252e-01 -1.195514e-01 -1.145177e-01 -1.094527e-01 -1.038263e-01 -9.778304e-02 -9.163212e-02 -8.472401e-02 -7.810496e-02 -7.046043e-02 -6.344130e-02 -5.523085e-02 -4.792734e-02 -3.940043e-02 -3.202014e-02 -2.354637e-02 -1.643460e-02 -8.541242e-03 -2.219513e-03 4.384060e-03 9.197076e-03 1.361889e-02 1.601583e-02 1.721699e-02 1.615454e-02 1.303681e-02 7.453020e-03 -9.803174e-04 -1.195778e-02 -2.634324e-02 -4.307481e-02 -6.332062e-02 -8.523031e-02 -1.100849e-01 -1.352427e-01 -1.619754e-01 -1.869599e-01 -2.115091e-01 -2.319616e-01 -2.499670e-01 -2.620835e-01 -2.708018e-01 -2.732399e-01 -2.732499e-01 -2.679577e-01 -2.628261e-01 -2.537840e-01 -2.476488e-01 -2.386069e-01 -2.347601e-01 -2.283430e-01 -2.289011e-01 -2.255065e-01 -2.297181e-01 -2.256462e-01 -2.274596e-01 -2.153045e-01 -2.047681e-01 -1.789195e-01 -1.471807e-01 -1.100271e-01 -5.285898e-02 -1.918435e-02 5.314312e-02 4.297777e-02 9.738791e-02 -1.666383e-02 -3.557453e-02 -1.555830e-01 -8.408080e-02 -8.466581e-02 -2.279442e-02 2.477136e-02 9.680304e-02 1.033143e-01 6.409477e-02 9.263402e-02 5.582067e-02 6.886169e-02 3.261069e-02 5.592108e-02 1.567099e-02 4.886462e-02 2.085422e-03 5.422155e-02 2.511788e-02 2.804289e-02 1.286101e-02 1.252651e-02 4.690705e-03 4.291664e-03 -1.268977e-03 -2.234664e-03 -7.625609e-03 -9.492235e-03 -1.546562e-02 -1.827157e-02 -2.502021e-02 -2.864729e-02 -3.612532e-02 -4.038457e-02 -4.843744e-02 -5.311036e-02 -6.153007e-02 -6.638770e-02 -7.493797e-02 -7.975033e-02 -8.817975e-02 