# vtk DataFile Version 2.0
Comment goes here
ASCII

DATASET STRUCTURED_POINTS
DIMENSIONS    128   128   1

ORIGIN    0.000   0.000   0.000
SPACING   0.0156250.015625   1.000

POINT_DATA   16384
SCALARS uX double
LOOKUP_TABLE default

-1.055508e-01 -1.144916e-01 -1.168780e-01 -1.241557e-01 -1.254380e-01 -1.309989e-01 -1.312074e-01 -1.350246e-01 -1.342124e-01 -1.362896e-01 -1.345336e-01 -1.349087e-01 -1.323099e-01 -1.310580e-01 -1.277414e-01 -1.249763e-01 -1.210899e-01 -1.169644e-01 -1.126782e-01 -1.073836e-01 -1.028878e-01 -9.665211e-02 -9.215590e-02 -8.524196e-02 -8.097144e-02 -7.367425e-02 -6.987101e-02 -6.251404e-02 -5.943277e-02 -5.236305e-02 -5.026773e-02 -4.384879e-02 -4.300652e-02 -3.760811e-02 -3.827942e-02 -3.426316e-02 -3.668780e-02 -3.438780e-02 -3.876525e-02 -3.846343e-02 -4.492810e-02 -4.682454e-02 -5.541666e-02 -5.959651e-02 -7.023080e-02 -7.663062e-02 -8.906659e-02 -9.744468e-02 -1.112639e-01 -1.211804e-01 -1.357774e-01 -1.465908e-01 -1.611835e-01 -1.720698e-01 -1.857354e-01 -1.957325e-01 -2.074688e-01 -2.155464e-01 -2.243550e-01 -2.295022e-01 -2.344820e-01 -2.358016e-01 -2.362418e-01 -2.330390e-01 -2.284961e-01 -2.203515e-01 -2.107072e-01 -1.975318e-01 -1.830308e-01 -1.651047e-01 -1.463782e-01 -1.243773e-01 -1.024523e-01 -7.745669e-02 -5.373961e-02 -2.720448e-02 -3.409646e-03 2.293534e-02 4.494968e-02 6.930297e-02 8.780895e-02 1.085937e-01 1.223394e-01 1.385192e-01 1.470358e-01 1.583246e-01 1.620603e-01 1.689354e-01 1.691470e-01 1.726727e-01 1.710923e-01 1.725963e-01 1.709159e-01 1.715112e-01 1.707984e-01 1.709344e-01 1.713507e-01 1.707347e-01 1.716846e-01 1.694957e-01 1.699552e-01 1.652471e-01 1.641290e-01 1.562224e-01 1.528210e-01 1.416551e-01 1.360148e-01 1.221977e-01 1.148488e-01 9.922597e-02 9.078987e-02 7.414041e-02 6.516152e-02 4.811913e-02 3.904210e-02 2.210656e-02 1.328703e-02 -3.151098e-03 -1.143631e-02 -2.707398e-02 -3.461736e-02 -4.921955e-02 -5.587178e-02 -6.925415e-02 -7.491241e-02 -8.692730e-02 -9.152492e-02 -1.020519e-01 
-9.593659e-02 -1.042374e-01 -1.068573e-01 -1.136609e-01 -1.151384e-01 -1.204001e-01 -1.207624e-01 -1.244606e-01 -1.237585e-01 -1.258986e-01 -1.242078e-01 -1.248257e-01 -1.222469e-01 -1.214120e-01 -1.180709e-01 -1.158876e-01 -1.119340e-01 -1.085427e-01 -1.041491e-01 -9.972606e-02 -9.508585e-02 -8.984202e-02 -8.516788e-02 -7.934775e-02 -7.486988e-02 -6.874928e-02 -6.471352e-02 -5.859673e-02 -5.526212e-02 -4.947744e-02 -4.711234e-02 -4.200545e-02 -4.088133e-02 -3.680537e-02 -3.718700e-02 -3.448837e-02 -3.661957e-02 -3.561860e-02 -3.970269e-02 -4.066886e-02 -4.684386e-02 -4.996589e-02 -5.827531e-02 -6.362783e-02 -7.398928e-02 -8.149883e-02 -9.367429e-02 -1.030894e-01 -1.166624e-01 -1.275335e-01 -1.418999e-01 -1.535763e-01 -1.679550e-01 -1.796045e-01 -1.930735e-01 -2.037285e-01 -2.152871e-01 -2.239162e-01 -2.325690e-01 -2.381663e-01 -2.430179e-01 -2.446980e-01 -2.450457e-01 -2.421299e-01 -2.375391e-01 -2.296238e-01 -2.199821e-01 -2.069860e-01 -1.925354e-01 -1.747323e-01 -1.560886e-01 -1.341312e-01 -1.122931e-01 -8.722738e-02 -6.356437e-02 -3.681441e-02 -1.300392e-02 1.370960e-02 3.583804e-02 6.068524e-02 7.941982e-02 1.007579e-01 1.148481e-01 1.315588e-01 1.405138e-01 1.522521e-01 1.564565e-01 1.636971e-01 1.642942e-01 1.681575e-01 1.667625e-01 1.686518e-01 1.669173e-01 1.679968e-01 1.670391e-01 1.678033e-01 1.678870e-01 1.680508e-01 1.686503e-01 1.674090e-01 1.675246e-01 1.639272e-01 1.624537e-01 1.557772e-01 1.519790e-01 1.421100e-01 1.360588e-01 1.235967e-01 1.158487e-01 1.016224e-01 9.279982e-02 7.756160e-02 6.820194e-02 5.256006e-02 4.310461e-02 2.753788e-02 1.834325e-02 3.223527e-03 -5.430246e-03 -1.981823e-02 -2.771950e-02 -4.115921e-02 -4.815409e-02 -6.047956e-02 -6.646042e-02 -7.754166e-02 -8.243691e-02 -9.216980e-02 
-1.070321e-01 -1.159761e-01 -1.183291e-01 -1.256090e-01 -1.268560e-01 -1.324138e-01 -1.325828e-01 -1.363880e-01 -1.355302e-01 -1.375832e-01 -1.357742e-01 -1.361108e-01 -1.334508e-01 -1.321447e-01 -1.287584e-01 -1.259228e-01 -1.219586e-01 -1.177461e-01 -1.133743e-01 -1.079764e-01 -1.033876e-01 -9.703296e-02 -9.243636e-02 -8.538843e-02 -8.101020e-02 -7.356473e-02 -6.964643e-02 -6.212791e-02 -5.892443e-02 -5.168146e-02 -4.945757e-02 -4.285616e-02 -4.188082e-02 -3.629457e-02 -3.683177e-02 -3.262790e-02 -3.492277e-02 -3.244313e-02 -3.670273e-02 -3.623915e-02 -4.260760e-02 -4.437196e-02 -5.290074e-02 -5.699113e-02 -6.760669e-02 -7.397239e-02 -8.644473e-02 -9.485465e-02 -1.087724e-01 -1.187929e-01 -1.335520e-01 -1.445413e-01 -1.593536e-01 -1.704795e-01 -1.844083e-01 -1.946932e-01 -2.067161e-01 -2.151089e-01 -2.242044e-01 -2.296717e-01 -2.349181e-01 -2.365429e-01 -2.372131e-01 -2.342853e-01 -2.299263e-01 -2.220150e-01 -2.125016e-01 -1.995060e-01 -1.850747e-01 -1.672600e-01 -1.485291e-01 -1.265520e-01 -1.045346e-01 -7.945958e-02 -5.555908e-02 -2.884419e-02 -4.801414e-03 2.178458e-02 4.404093e-02 6.861628e-02 8.725112e-02 1.081401e-01 1.217960e-01 1.378907e-01 1.460480e-01 1.570542e-01 1.601952e-01 1.666381e-01 1.661265e-01 1.691546e-01 1.668874e-01 1.679640e-01 1.658219e-01 1.661946e-01 1.653237e-01 1.654561e-01 1.659601e-01 1.655093e-01 1.667189e-01 1.647774e-01 1.656130e-01 1.611667e-01 1.604360e-01 1.527183e-01 1.495721e-01 1.384776e-01 1.330152e-01 1.192527e-01 1.120765e-01 9.653229e-02 8.826402e-02 7.170275e-02 6.286909e-02 4.590745e-02 3.694773e-02 2.007950e-02 1.135369e-02 -5.030875e-03 -1.323997e-02 -2.883716e-02 -3.631769e-02 -5.089195e-02 -5.749186e-02 -7.085789e-02 -7.647220e-02 -8.848046e-02 -9.304027e-02 -1.035673e-01 
-9.877512e-02 -1.070706e-01 -1.096276e-01 -1.164267e-01 -1.178368e-01 -1.230870e-01 -1.233725e-01 -1.270449e-01 -1.262528e-01 -1.283468e-01 -1.265500e-01 -1.270971e-01 -1.243951e-01 -1.234614e-01 -1.199796e-01 -1.176679e-01 -1.135566e-01 -1.100066e-01 -1.054392e-01 -1.008271e-01 -9.599779e-02 -9.053493e-02 -8.565692e-02 -7.958846e-02 -7.489204e-02 -6.849471e-02 -6.422578e-02 -5.780535e-02 -5.422341e-02 -4.811084e-02 -4.548590e-02 -4.003150e-02 -3.863877e-02 -3.420312e-02 -3.431421e-02 -3.125485e-02 -3.312429e-02 -3.177697e-02 -3.562316e-02 -3.627720e-02 -4.225738e-02 -4.512522e-02 -5.330523e-02 -5.848747e-02 -6.880818e-02 -7.625680e-02 -8.850099e-02 -9.798554e-02 -1.117507e-01 -1.228337e-01 -1.375182e-01 -1.495475e-01 -1.643578e-01 -1.764837e-01 -1.904694e-01 -2.016917e-01 -2.138112e-01 -2.230556e-01 -2.322674e-01 -2.384835e-01 -2.438510e-01 -2.461163e-01 -2.469078e-01 -2.445192e-01 -2.402853e-01 -2.328238e-01 -2.234444e-01 -2.108135e-01 -1.965192e-01 -1.789655e-01 -1.603481e-01 -1.384819e-01 -1.165087e-01 -9.133117e-02 -6.735754e-02 -4.027925e-02 -1.602595e-02 1.117186e-02 3.374244e-02 5.907442e-02 7.804355e-02 9.965288e-02 1.135722e-01 1.301632e-01 1.384627e-01 1.496417e-01 1.527820e-01 1.591182e-01 1.584100e-01 1.612279e-01 1.585274e-01 1.595341e-01 1.568458e-01 1.574413e-01 1.560610e-01 1.567948e-01 1.569608e-01 1.574092e-01 1.584710e-01 1.576949e-01 1.585503e-01 1.554964e-01 1.548163e-01 1.485751e-01 1.452809e-01 1.355952e-01 1.299078e-01 1.176012e-01 1.102201e-01 9.619329e-02 8.772250e-02 7.269111e-02 6.362795e-02 4.816963e-02 3.894855e-02 2.353519e-02 1.452510e-02 -4.693430e-04 -8.974766e-03 -2.326356e-02 -3.104348e-02 -4.440925e-02 -5.130412e-02 -6.357954e-02 -6.947723e-02 -8.052915e-02 -8.535341e-02 -9.507246e-02 
-1.114549e-01 -1.204132e-01 -1.226685e-01 -1.299592e-01 -1.311028e-01 -1.366554e-01 -1.367077e-01 -1.404802e-01 -1.394867e-01 -1.414702e-01 -1.395028e-01 -1.397263e-01 -1.368832e-01 -1.354163e-01 -1.318220e-01 -1.287759e-01 -1.245795e-01 -1.201069e-01 -1.154800e-01 -1.097736e-01 -1.049079e-01 -9.819784e-02 -9.330313e-02 -8.585489e-02 -8.115723e-02 -7.326869e-02 -6.900929e-02 -6.100773e-02 -5.744162e-02 -4.967989e-02 -4.707367e-02 -3.992466e-02 -3.855224e-02 -3.240042e-02 -3.253536e-02 -2.776420e-02 -2.966713e-02 -2.664107e-02 -3.054132e-02 -2.958151e-02 -3.565205e-02 -3.700578e-02 -4.533207e-02 -4.913665e-02 -5.968101e-02 -6.592483e-02 -7.848991e-02 -8.697498e-02 -1.011721e-01 -1.114850e-01 -1.267155e-01 -1.382146e-01 -1.536727e-01 -1.655020e-01 -1.802086e-01 -1.913427e-01 -2.042133e-01 -2.135370e-01 -2.234795e-01 -2.298912e-01 -2.359200e-01 -2.384440e-01 -2.397873e-01 -2.376715e-01 -2.338524e-01 -2.266374e-01 -2.175180e-01 -2.050759e-01 -1.908740e-01 -1.734283e-01 -1.547251e-01 -1.328728e-01 -1.106316e-01 -8.537788e-02 -6.097561e-02 -3.376856e-02 -9.006089e-03 1.828279e-02 4.127259e-02 6.651686e-02 8.556002e-02 1.067628e-01 1.201511e-01 1.359693e-01 1.430126e-01 1.531404e-01 1.544363e-01 1.595652e-01 1.568129e-01 1.583179e-01 1.539145e-01 1.536712e-01 1.501372e-01 1.498537e-01 1.485490e-01 1.486570e-01 1.494010e-01 1.494103e-01 1.513203e-01 1.500503e-01 1.519931e-01 1.483200e-01 1.488467e-01 1.417610e-01 1.394157e-01 1.285693e-01 1.237107e-01 1.101940e-01 1.036265e-01 8.839265e-02 8.068133e-02 6.442089e-02 5.603810e-02 3.932899e-02 3.071922e-02 1.405383e-02 5.604087e-03 -1.062060e-02 -1.860510e-02 -3.408189e-02 -4.137631e-02 -5.586844e-02 -6.231334e-02 -7.563306e-02 -8.111759e-02 -9.310968e-02 -9.755838e-02 -1.080903e-01 
-1.044069e-01 -1.127003e-01 -1.151371e-01 -1.219357e-01 -1.232160e-01 -1.284510e-01 -1.285870e-01 -1.322147e-01 -1.312456e-01 -1.332533e-01 -1.312469e-01 -1.316569e-01 -1.287102e-01 -1.275827e-01 -1.238212e-01 -1.212558e-01 -1.168314e-01 -1.129670e-01 -1.080550e-01 -1.030680e-01 -9.786464e-02 -9.196766e-02 -8.668707e-02 -8.012634e-02 -7.499901e-02 -6.805278e-02 -6.332414e-02 -5.630057e-02 -5.223023e-02 -4.546474e-02 -4.232489e-02 -3.617587e-02 -3.424794e-02 -2.908965e-02 -2.865754e-02 -2.486850e-02 -2.620695e-02 -2.415268e-02 -2.750927e-02 -2.751816e-02 -3.308825e-02 -3.542017e-02 -4.331474e-02 -4.812315e-02 -5.833106e-02 -6.562083e-02 -7.796886e-02 -8.755445e-02 -1.016711e-01 -1.131421e-01 -1.284334e-01 -1.411373e-01 -1.567860e-01 -1.698386e-01 -1.848365e-01 -1.971698e-01 -2.103896e-01 -2.208395e-01 -2.311428e-01 -2.385667e-01 -2.449325e-01 -2.483349e-01 -2.499779e-01 -2.486146e-01 -2.450675e-01 -2.385044e-01 -2.296486e-01 -2.177754e-01 -2.038331e-01 -1.868532e-01 -1.683721e-01 -1.468065e-01 -1.246746e-01 -9.940852e-02 -7.491637e-02 -4.728945e-02 -2.220381e-02 5.920803e-03 2.938467e-02 5.571124e-02 7.518035e-02 9.737272e-02 1.109336e-01 1.272795e-01 1.341856e-01 1.441908e-01 1.451246e-01 1.495860e-01 1.462145e-01 1.468609e-01 1.414337e-01 1.406496e-01 1.360236e-01 1.356526e-01 1.334108e-01 1.340869e-01 1.343357e-01 1.352314e-01 1.370407e-01 1.370102e-01 1.392982e-01 1.372977e-01 1.384319e-01 1.332477e-01 1.310192e-01 1.217802e-01 1.169894e-01 1.051806e-01 9.873482e-02 8.525755e-02 7.759499e-02 6.304099e-02 5.459348e-02 3.951612e-02 3.075477e-02 1.564750e-02 6.993920e-03 -7.751595e-03 -1.596906e-02 -3.006065e-02 -3.760372e-02 -5.082382e-02 -5.752364e-02 -6.970319e-02 -7.543984e-02 -8.643939e-02 -9.112746e-02 -1.008265e-01 
-1.187522e-01 -1.277494e-01 -1.298517e-01 -1.371754e-01 -1.381550e-01 -1.437125e-01 -1.435774e-01 -1.473069e-01 -1.460930e-01 -1.479699e-01 -1.457425e-01 -1.457847e-01 -1.426396e-01 -1.409101e-01 -1.369720e-01 -1.335797e-01 -1.289999e-01 -1.240981e-01 -1.190510e-01 -1.128350e-01 -1.075147e-01 -1.002180e-01 -9.483522e-02 -8.672648e-02 -8.150692e-02 -7.288721e-02 -6.807059e-02 -5.927088e-02 -5.511106e-02 -4.648981e-02 -4.325458e-02 -3.519427e-02 -3.316362e-02 -2.606470e-02 -2.552580e-02 -1.979658e-02 -2.103376e-02 -1.707441e-02 -2.035245e-02 -1.853177e-02 -2.407104e-02 -2.469514e-02 -3.263846e-02 -3.591144e-02 -4.628341e-02 -5.226193e-02 -6.492384e-02 -7.346984e-02 -8.807612e-02 -9.881501e-02 -1.147808e-01 -1.270759e-01 -1.435685e-01 -1.565249e-01 -1.724927e-01 -1.850028e-01 -1.992510e-01 -2.100864e-01 -2.213974e-01 -2.293379e-01 -2.366166e-01 -2.405900e-01 -2.429970e-01 -2.421937e-01 -2.392316e-01 -2.331673e-01 -2.247037e-01 -2.132292e-01 -1.994746e-01 -1.827609e-01 -1.642412e-01 -1.427798e-01 -1.203511e-01 -9.500833e-02 -6.994341e-02 -4.208257e-02 -1.620781e-02 1.218805e-02 3.643472e-02 6.282244e-02 8.264257e-02 1.043909e-01 1.173536e-01 1.326316e-01 1.376761e-01 1.462200e-01 1.442150e-01 1.471323e-01 1.404160e-01 1.393264e-01 1.310960e-01 1.285429e-01 1.227295e-01 1.214848e-01 1.196789e-01 1.196624e-01 1.206704e-01 1.212954e-01 1.239562e-01 1.234327e-01 1.270175e-01 1.244773e-01 1.275002e-01 1.217891e-01 1.209192e-01 1.106807e-01 1.071953e-01 9.446416e-02 8.926611e-02 7.479943e-02 6.816422e-02 5.248989e-02 4.487212e-02 2.859398e-02 2.054211e-02 4.209870e-03 -3.802709e-03 -1.976386e-02 -2.738796e-02 -4.266590e-02 -4.965901e-02 -6.401837e-02 -7.021281e-02 -8.346336e-02 -8.874029e-02 -1.007171e-01 -1.049903e-01 -1.155445e-01 
-1.127366e-01 -1.210482e-01 -1.233200e-01 -1.301389e-01 -1.312381e-01 -1.364696e-01 -1.363926e-01 -1.399702e-01 -1.387440e-01 -1.406362e-01 -1.383214e-01 -1.385369e-01 -1.352278e-01 -1.338187e-01 -1.296419e-01 -1.267041e-01 -1.218149e-01 -1.174869e-01 -1.120650e-01 -1.065248e-01 -1.007702e-01 -9.423239e-02 -8.836093e-02 -8.107375e-02 -7.531563e-02 -6.755882e-02 -6.215756e-02 -5.424140e-02 -4.945464e-02 -4.171898e-02 -3.781942e-02 -3.063199e-02 -2.790712e-02 -2.165940e-02 -2.040812e-02 -1.550684e-02 -1.603091e-02 -1.288339e-02 -1.547166e-02 -1.446300e-02 -1.936688e-02 -2.082789e-02 -2.822703e-02 -3.239257e-02 -4.235138e-02 -4.931052e-02 -6.172802e-02 -7.136989e-02 -8.592894e-02 -9.789216e-02 -1.140182e-01 -1.276561e-01 -1.445001e-01 -1.588786e-01 -1.753423e-01 -1.892858e-01 -2.041027e-01 -2.163001e-01 -2.281729e-01 -2.373316e-01 -2.451040e-01 -2.501193e-01 -2.529353e-01 -2.530220e-01 -2.504182e-01 -2.451597e-01 -2.370665e-01 -2.263801e-01 -2.130511e-01 -1.971116e-01 -1.790455e-01 -1.582378e-01 -1.361690e-01 -1.111421e-01 -8.616663e-02 -5.803196e-02 -3.186175e-02 -2.480500e-03 2.234701e-02 5.023676e-02 7.055935e-02 9.375533e-02 1.067273e-01 1.226793e-01 1.272043e-01 1.352568e-01 1.326469e-01 1.341356e-01 1.267648e-01 1.239884e-01 1.141914e-01 1.108562e-01 1.034436e-01 1.016878e-01 9.814763e-02 9.879201e-02 9.888010e-02 9.998847e-02 1.021848e-01 1.025161e-01 1.065458e-01 1.057415e-01 1.103391e-01 1.074794e-01 1.070215e-01 9.885194e-02 9.617100e-02 8.579201e-02 8.133885e-02 6.903339e-02 6.275583e-02 4.898818e-02 4.143945e-02 2.691751e-02 1.878834e-02 4.123280e-03 -4.034867e-03 -1.841204e-02 -2.621897e-02 -4.001592e-02 -4.721716e-02 -6.022332e-02 -6.664293e-02 -7.868929e-02 -8.419830e-02 -9.513542e-02 -9.963468e-02 -1.093236e-01 
-1.288058e-01 -1.378904e-01 -1.397996e-01 -1.472013e-01 -1.479702e-01 -1.535633e-01 -1.531812e-01 -1.568748e-01 -1.553636e-01 -1.571106e-01 -1.545277e-01 -1.543306e-01 -1.507690e-01 -1.486829e-01 -1.442693e-01 -1.404012e-01 -1.352918e-01 -1.297980e-01 -1.241728e-01 -1.172535e-01 -1.113112e-01 -1.032057e-01 -9.715882e-02 -8.814066e-02 -8.221367e-02 -7.258749e-02 -6.701624e-02 -5.711622e-02 -5.215004e-02 -4.233945e-02 -3.824383e-02 -2.891452e-02 -2.597322e-02 -1.754334e-02 -1.605757e-02 -8.965322e-03 -9.247765e-03 -3.938929e-03 -6.300069e-03 -3.207001e-03 -7.931632e-03 -7.441894e-03 -1.475415e-02 -1.716770e-02 -2.718421e-02 -3.265970e-02 -4.533275e-02 -5.382614e-02 -6.888231e-02 -8.008556e-02 -9.697114e-02 -1.102646e-01 -1.281154e-01 -1.425535e-01 -1.602124e-01 -1.745654e-01 -1.906676e-01 -2.035330e-01 -2.166642e-01 -2.266404e-01 -2.355400e-01 -2.414200e-01 -2.451674e-01 -2.460876e-01 -2.442006e-01 -2.396918e-01 -2.321088e-01 -2.220524e-01 -2.090336e-01 -1.935736e-01 -1.755972e-01 -1.550803e-01 -1.328150e-01 -1.078389e-01 -8.228259e-02 -5.393030e-02 -2.675300e-02 3.008669e-03 2.907146e-02 5.713447e-02 7.830124e-02 1.008885e-01 1.133357e-01 1.275972e-01 1.294401e-01 1.353369e-01 1.281035e-01 1.279847e-01 1.153208e-01 1.106985e-01 9.652328e-02 9.056354e-02 8.204611e-02 8.025868e-02 7.865331e-02 7.798784e-02 7.876551e-02 7.991669e-02 8.217572e-02 8.136853e-02 8.619498e-02 8.418606e-02 9.168087e-02 8.894270e-02 9.075443e-02 8.244416e-02 8.239798e-02 7.192617e-02 6.943715e-02 5.642259e-02 5.138389e-02 3.652402e-02 2.985903e-02 1.412244e-02 6.747832e-03 -9.147249e-03 -1.660271e-02 -3.219952e-02 -3.934447e-02 -5.434448e-02 -6.093134e-02 -7.511254e-02 -8.097210e-02 -9.414349e-02 -9.914871e-02 -1.111301e-01 -1.151791e-01 -1.257954e-01 
-1.236115e-01 -1.319891e-01 -1.340703e-01 -1.409569e-01 -1.418403e-01 -1.471043e-01 -1.467637e-01 -1.503063e-01 -1.487526e-01 -1.505166e-01 -1.478014e-01 -1.477781e-01 -1.439935e-01 -1.422254e-01 -1.375017e-01 -1.340817e-01 -1.285814e-01 -1.236499e-01 -1.175611e-01 -1.113001e-01 -1.048293e-01 -9.745757e-02 -9.082382e-02 -8.259220e-02 -7.602444e-02 -6.721362e-02 -6.095047e-02 -5.187081e-02 -4.616345e-02 -3.715656e-02 -3.227307e-02 -2.371371e-02 -1.994339e-02 -1.223975e-02 -9.894694e-03 -3.484621e-03 -2.896064e-03 1.763377e-03 2.569106e-04 2.709330e-03 -1.215314e-03 -1.393962e-03 -8.008857e-03 -1.116505e-02 -2.064129e-02 -2.698486e-02 -3.932940e-02 -4.886306e-02 -6.384728e-02 -7.629220e-02 -9.338360e-02 -1.081162e-01 -1.264334e-01 -1.424575e-01 -1.607775e-01 -1.767627e-01 -1.936101e-01 -2.080209e-01 -2.218521e-01 -2.331655e-01 -2.426203e-01 -2.495786e-01 -2.537189e-01 -2.555199e-01 -2.539503e-01 -2.502847e-01 -2.430998e-01 -2.340271e-01 -2.216252e-01 -2.073720e-01 -1.902456e-01 -1.710423e-01 -1.496794e-01 -1.257633e-01 -1.008128e-01 -7.274076e-02 -4.554639e-02 -1.486007e-02 1.181341e-02 4.192418e-02 6.367551e-02 8.855255e-02 1.006511e-01 1.160028e-01 1.164655e-01 1.212865e-01 1.132126e-01 1.103452e-01 9.818056e-02 9.054239e-02 7.433715e-02 6.896516e-02 5.919588e-02 5.569856e-02 5.023887e-02 5.129636e-02 5.028450e-02 5.024937e-02 5.079976e-02 4.945347e-02 5.391251e-02 5.250500e-02 6.282909e-02 6.498114e-02 6.828809e-02 6.394999e-02 6.710019e-02 6.038197e-02 5.950281e-02 4.896299e-02 4.437395e-02 3.145001e-02 2.481637e-02 1.089127e-02 3.437327e-03 -1.068281e-02 -1.825267e-02 -3.213873e-02 -3.942795e-02 -5.282754e-02 -5.959232e-02 -7.232047e-02 -7.838832e-02 -9.027860e-02 -9.551103e-02 -1.063976e-01 -1.106756e-01 -1.203904e-01 
-1.414375e-01 -1.506936e-01 -1.523923e-01 -1.599508e-01 -1.604814e-01 -1.661704e-01 -1.654968e-01 -1.691860e-01 -1.673119e-01 -1.689245e-01 -1.658976e-01 -1.654170e-01 -1.613293e-01 -1.588022e-01 -1.537858e-01 -1.493202e-01 -1.435411e-01 -1.373000e-01 -1.309488e-01 -1.231424e-01 -1.164259e-01 -1.073031e-01 -1.004373e-01 -9.027857e-02 -8.348536e-02 -7.259873e-02 -6.610612e-02 -5.482664e-02 -4.887311e-02 -3.756491e-02 -3.240617e-02 -2.146613e-02 -1.738245e-02 -7.243143e-03 -4.544666e-03 4.326162e-03 5.299390e-03 1.240578e-02 1.129220e-02 1.612674e-02 1.256352e-02 1.463697e-02 8.295257e-03 7.181846e-03 -2.180439e-03 -6.780374e-03 -1.924766e-02 -2.742862e-02 -4.284222e-02 -5.440463e-02 -7.227428e-02 -8.664170e-02 -1.060779e-01 -1.222491e-01 -1.419537e-01 -1.585294e-01 -1.768871e-01 -1.922065e-01 -2.075018e-01 -2.198920e-01 -2.306181e-01 -2.386907e-01 -2.438404e-01 -2.467085e-01 -2.459026e-01 -2.432127e-01 -2.366034e-01 -2.283924e-01 -2.164293e-01 -2.029120e-01 -1.860983e-01 -1.674855e-01 -1.462314e-01 -1.226876e-01 -9.743023e-02 -6.937876e-02 -4.118271e-02 -1.014588e-02 1.826035e-02 4.863533e-02 7.214338e-02 9.609216e-02 1.082293e-01 1.205196e-01 1.172517e-01 1.182173e-01 1.025103e-01 9.869887e-02 7.792905e-02 6.977717e-02 4.686115e-02 3.625804e-02 2.718412e-02 2.838165e-02 2.955518e-02 2.601675e-02 2.338017e-02 2.509581e-02 2.351222e-02 1.885235e-02 2.149974e-02 1.635281e-02 2.783998e-02 2.891953e-02 4.110866e-02 4.242224e-02 5.174664e-02 4.605042e-02 4.731878e-02 3.570671e-02 3.198196e-02 1.764436e-02 1.169932e-02 -3.557019e-03 -1.027664e-02 -2.564665e-02 -3.245623e-02 -4.756904e-02 -5.412090e-02 -6.875394e-02 -7.483667e-02 -8.880156e-02 -9.425669e-02 -1.073604e-01 -1.120507e-01 -1.240869e-01 -1.278871e-01 -1.386405e-01 
-1.368109e-01 -1.453418e-01 -1.472339e-01 -1.542729e-01 -1.549284e-01 -1.602938e-01 -1.596567e-01 -1.632065e-01 -1.612671e-01 -1.629118e-01 -1.597115e-01 -1.594212e-01 -1.550524e-01 -1.528601e-01 -1.474617e-01 -1.434604e-01 -1.372088e-01 -1.315451e-01 -1.246429e-01 -1.175079e-01 -1.101732e-01 -1.017934e-01 -9.425064e-02 -8.488094e-02 -7.735663e-02 -6.727718e-02 -6.000024e-02 -4.951731e-02 -4.272461e-02 -3.217529e-02 -2.612061e-02 -1.587956e-02 -1.084403e-02 -1.329869e-03 2.369440e-03 1.069117e-02 1.269772e-02 1.931855e-02 1.924185e-02 2.362493e-02 2.105886e-02 2.266800e-02 1.722585e-02 1.557247e-02 6.942191e-03 1.653444e-03 -1.032485e-02 -1.941633e-02 -3.465235e-02 -4.740172e-02 -6.544702e-02 -8.128971e-02 -1.012449e-01 -1.191219e-01 -1.396042e-01 -1.579728e-01 -1.772031e-01 -1.941913e-01 -2.102450e-01 -2.239704e-01 -2.351706e-01 -2.441521e-01 -2.494658e-01 -2.529392e-01 -2.521657e-01 -2.501074e-01 -2.437311e-01 -2.365746e-01 -2.253759e-01 -2.135993e-01 -1.982171e-01 -1.819723e-01 -1.625912e-01 -1.415232e-01 -1.179510e-01 -9.151163e-02 -6.403550e-02 -3.267840e-02 -3.753877e-03 2.929237e-02 5.359919e-02 8.148513e-02 9.262123e-02 1.072692e-01 1.002791e-01 9.915943e-02 8.136160e-02 7.154029e-02 5.601265e-02 4.077169e-02 1.500344e-02 1.470516e-02 1.166441e-02 3.720773e-03 -9.683141e-03 -1.131791e-03 -8.970379e-03 -1.583531e-02 -1.983301e-02 -2.728818e-02 -2.905229e-02 -3.262007e-02 -2.848175e-02 -2.945697e-02 4.863614e-03 2.198250e-02 3.881664e-02 3.695769e-02 3.880525e-02 2.856185e-02 2.439289e-02 1.155736e-02 5.319614e-03 -8.121727e-03 -1.496786e-02 -2.840766e-02 -3.529556e-02 -4.852188e-02 -5.517762e-02 -6.805828e-02 -7.429772e-02 -8.669113e-02 -9.235462e-02 -1.040907e-01 -1.090244e-01 -1.199068e-01 -1.239611e-01 -1.337765e-01 
-1.563975e-01 -1.659589e-01 -1.674601e-01 -1.753000e-01 -1.755900e-01 -1.814748e-01 -1.804840e-01 -1.842323e-01 -1.819420e-01 -1.834391e-01 -1.798871e-01 -1.790946e-01 -1.743749e-01 -1.713329e-01 -1.655898e-01 -1.604124e-01 -1.538295e-01 -1.466944e-01 -1.394810e-01 -1.306161e-01 -1.229934e-01 -1.126633e-01 -1.048537e-01 -9.334900e-02 -8.557013e-02 -7.320181e-02 -6.566792e-02 -5.276728e-02 -4.569603e-02 -3.262020e-02 -2.624472e-02 -1.338578e-02 -7.969060e-03 4.236036e-03 8.387657e-03 1.944957e-02 2.197772e-02 3.135367e-02 3.184822e-02 3.895160e-02 3.696448e-02 4.118958e-02 3.626711e-02 3.703402e-02 2.877308e-02 2.559750e-02 1.373033e-02 6.321884e-03 -9.169050e-03 -2.078212e-02 -3.952741e-02 -5.486233e-02 -7.597490e-02 -9.398551e-02 -1.159931e-01 -1.350550e-01 -1.559794e-01 -1.740498e-01 -1.917063e-01 -2.066954e-01 -2.191925e-01 -2.294563e-01 -2.356990e-01 -2.403990e-01 -2.402823e-01 -2.393717e-01 -2.335228e-01 -2.274185e-01 -2.167299e-01 -2.059236e-01 -1.911225e-01 -1.758279e-01 -1.570990e-01 -1.369543e-01 -1.138316e-01 -8.802459e-02 -6.013333e-02 -2.875519e-02 2.148189e-03 3.556155e-02 6.317747e-02 8.983322e-02 1.030834e-01 1.119290e-01 1.006817e-01 9.067154e-02 5.893192e-02 4.970320e-02 1.742896e-02 9.119516e-03 -2.455920e-02 -4.564738e-02 -3.382866e-02 -1.524291e-02 -2.041194e-02 -2.732243e-02 -2.584947e-02 -3.331268e-02 -3.176256e-02 -2.848121e-02 -2.692612e-02 -2.221763e-02 -2.282948e-02 -2.277865e-02 1.551656e-02 2.640623e-02 3.941651e-02 3.087815e-02 3.009045e-02 1.606811e-02 1.125264e-02 -3.624309e-03 -9.468575e-03 -2.426826e-02 -3.032652e-02 -4.494998e-02 -5.096072e-02 -6.539134e-02 -7.120789e-02 -8.536438e-02 -9.084927e-02 -1.045765e-01 -1.095809e-01 -1.226655e-01 -1.270301e-01 -1.392185e-01 -1.427803e-01 -1.537959e-01 
-1.520351e-01 -1.608595e-01 -1.625994e-01 -1.699241e-01 -1.703684e-01 -1.759461e-01 -1.750005e-01 -1.786344e-01 -1.762640e-01 -1.778242e-01 -1.740605e-01 -1.734935e-01 -1.684340e-01 -1.657653e-01 -1.595659e-01 -1.548949e-01 -1.477561e-01 -1.412442e-01 -1.333937e-01 -1.252491e-01 -1.169247e-01 -1.073881e-01 -9.882350e-02 -8.815638e-02 -7.957441e-02 -6.805441e-02 -5.966740e-02 -4.759005e-02 -3.960867e-02 -2.729589e-02 -1.994408e-02 -7.757229e-03 -1.290584e-03 1.035509e-02 1.563125e-02 2.625454e-02 2.997178e-02 3.902023e-02 4.074304e-02 4.759903e-02 4.683522e-02 5.083859e-02 4.706981e-02 4.756277e-02 4.030137e-02 3.670222e-02 2.558124e-02 1.749319e-02 2.394351e-03 -1.024847e-02 -2.903303e-02 -4.579376e-02 -6.739160e-02 -8.717319e-02 -1.100173e-01 -1.310030e-01 -1.528817e-01 -1.726942e-01 -1.910829e-01 -2.072565e-01 -2.199532e-01 -2.306438e-01 -2.364848e-01 -2.410579e-01 -2.402581e-01 -2.392945e-01 -2.331193e-01 -2.278188e-01 -2.178436e-01 -2.092996e-01 -1.966567e-01 -1.852232e-01 -1.699086e-01 -1.546281e-01 -1.351642e-01 -1.136712e-01 -8.807002e-02 -5.827154e-02 -2.720024e-02 9.097900e-03 3.819763e-02 7.185835e-02 8.353610e-02 9.896475e-02 7.838124e-02 6.611483e-02 2.528299e-02 3.318912e-04 -1.348324e-02 -5.344938e-02 -8.663823e-02 -6.607340e-02 -6.288343e-02 -6.557312e-02 -3.959431e-02 -1.423819e-02 -2.825364e-03 2.617663e-02 3.920866e-02 5.367731e-02 6.238040e-02 6.762848e-02 7.396727e-02 7.172860e-02 8.016730e-02 5.931231e-02 5.208082e-02 3.230850e-02 2.462421e-02 8.832971e-03 2.108054e-03 -1.145517e-02 -1.767348e-02 -3.031603e-02 -3.636149e-02 -4.871426e-02 -5.469036e-02 -6.697689e-02 -7.284312e-02 -8.506332e-02 -9.069892e-02 -1.027255e-01 -1.079651e-01 -1.195936e-01 -1.242480e-01 -1.352254e-01 -1.390963e-01 -1.491419e-01 
-1.733537e-01 -1.834194e-01 -1.847748e-01 -1.930792e-01 -1.931571e-01 -1.993873e-01 -1.980758e-01 -2.019851e-01 -1.992386e-01 -2.006663e-01 -1.965134e-01 -1.953972e-01 -1.899402e-01 -1.863182e-01 -1.797240e-01 -1.737262e-01 -1.662091e-01 -1.580403e-01 -1.498412e-01 -1.397596e-01 -1.311240e-01 -1.194200e-01 -1.105814e-01 -9.756107e-02 -8.873198e-02 -7.470831e-02 -6.608093e-02 -5.137457e-02 -4.313144e-02 -2.808009e-02 -2.041263e-02 -5.387038e-03 1.481088e-03 1.605803e-02 2.184674e-02 3.548203e-02 3.983460e-02 5.195299e-02 5.442474e-02 6.436759e-02 6.442899e-02 7.146972e-02 6.853060e-02 7.191368e-02 6.537680e-02 6.438925e-02 5.374412e-02 4.782990e-02 3.279779e-02 2.172313e-02 2.456416e-03 -1.347987e-02 -3.616715e-02 -5.592009e-02 -8.036744e-02 -1.020324e-01 -1.257443e-01 -1.467085e-01 -1.667484e-01 -1.842502e-01 -1.980777e-01 -2.100790e-01 -2.165026e-01 -2.223574e-01 -2.218738e-01 -2.221811e-01 -2.163198e-01 -2.121937e-01 -2.026395e-01 -1.951365e-01 -1.832030e-01 -1.729135e-01 -1.588815e-01 -1.451862e-01 -1.275446e-01 -1.078266e-01 -8.360209e-02 -5.477116e-02 -2.275448e-02 1.391061e-02 4.799627e-02 8.077799e-02 1.003016e-01 1.058520e-01 8.622296e-02 5.146700e-02 -1.411290e-02 -3.967326e-02 -1.105177e-01 -1.279126e-01 -6.193642e-02 -2.104568e-02 -2.252412e-02 4.870465e-02 6.616325e-02 9.987787e-02 1.132459e-01 1.226699e-01 1.252397e-01 1.209738e-01 1.275052e-01 1.144278e-01 1.296826e-01 1.108759e-01 1.143474e-01 6.832499e-02 4.884374e-02 1.997455e-02 9.269200e-03 -9.027377e-03 -1.550869e-02 -2.996527e-02 -3.509734e-02 -4.846828e-02 -5.331532e-02 -6.658525e-02 -7.145619e-02 -8.489771e-02 -8.980165e-02 -1.033771e-01 -1.081951e-01 -1.217123e-01 -1.262651e-01 -1.394442e-01 -1.435226e-01 -1.560299e-01 -1.594127e-01 -1.708848e-01 
-1.688941e-01 -1.782200e-01 -1.798877e-01 -1.876922e-01 -1.879759e-01 -1.939287e-01 -1.926860e-01 -1.965215e-01 -1.936878e-01 -1.952273e-01 -1.908257e-01 -1.899906e-01 -1.841314e-01 -1.809453e-01 -1.738148e-01 -1.683942e-01 -1.602335e-01 -1.527682e-01 -1.438461e-01 -1.345755e-01 -1.251622e-01 -1.143513e-01 -1.046965e-01 -9.261835e-02 -8.294028e-02 -6.986779e-02 -6.035322e-02 -4.656183e-02 -3.737875e-02 -2.315958e-02 -1.447960e-02 -1.603138e-04 7.812738e-03 2.184319e-02 2.884310e-02 4.211068e-02 4.778252e-02 5.971039e-02 6.359349e-02 7.349592e-02 7.502204e-02 8.211593e-02 8.062952e-02 8.407086e-02 7.888038e-02 7.783598e-02 6.830886e-02 6.207732e-02 4.779440e-02 3.599163e-02 1.697277e-02 -2.127142e-04 -2.322415e-02 -4.473887e-02 -7.000683e-02 -9.371674e-02 -1.184368e-01 -1.412156e-01 -1.619032e-01 -1.802983e-01 -1.938233e-01 -2.053257e-01 -2.102839e-01 -2.145342e-01 -2.119438e-01 -2.106931e-01 -2.032390e-01 -1.990301e-01 -1.896668e-01 -1.846843e-01 -1.756252e-01 -1.710016e-01 -1.625788e-01 -1.573053e-01 -1.465928e-01 -1.359706e-01 -1.169982e-01 -9.430474e-02 -6.309506e-02 -2.570293e-02 1.134546e-02 5.482338e-02 7.377651e-02 9.806036e-02 5.977999e-02 3.712704e-02 -6.039150e-02 -1.105886e-01 -1.548603e-01 -9.336515e-02 -7.402817e-02 -1.938497e-02 4.847552e-02 1.224073e-01 1.260119e-01 1.106395e-01 1.091948e-01 8.158026e-02 7.900398e-02 5.492497e-02 6.158108e-02 3.824534e-02 5.284461e-02 3.038708e-02 5.186255e-02 2.205833e-02 1.271740e-02 -6.921971e-03 -1.376731e-02 -2.654549e-02 -3.128921e-02 -4.171848e-02 -4.591848e-02 -5.600212e-02 -6.034788e-02 -7.080957e-02 -7.547606e-02 -8.648149e-02 -9.140502e-02 -1.028663e-01 -1.078726e-01 -1.195723e-01 -1.244326e-01 -1.360775e-01 -1.405347e-01 -1.517823e-01 -1.555677e-01 -1.660455e-01 