# vtk DataFile Version 2.0
Comment goes here
ASCII

DATASET STRUCTURED_POINTS
DIMENSIONS    128   128   1

ORIGIN    0.000   0.000   0.000
SPACING   0.0156250.015625   1.000

POINT_DATA   16384
SCALARS uX double
LOOKUP_TABLE default

-2.170237e-03 -2.338983e-03 -2.416605e-03 -2.551978e-03 -2.617816e-03 -2.719252e-03 -2.773867e-03 -2.841177e-03 -2.885099e-03 -2.918556e-03 -2.952349e-03 -2.952751e-03 -2.977068e-03 -2.945780e-03 -2.961402e-03 -2.900364e-03 -2.908236e-03 -2.819958e-03 -2.821221e-03 -2.708748e-03 -2.704766e-03 -2.571641e-03 -2.564030e-03 -2.414247e-03 -2.404901e-03 -2.242854e-03 -2.233972e-03 -2.064401e-03 -2.058496e-03 -1.886422e-03 -1.886320e-03 -1.716963e-03 -1.725758e-03 -1.564423e-03 -1.585397e-03 -1.437307e-03 -1.473771e-03 -1.343848e-03 -1.398905e-03 -1.291457e-03 -1.367674e-03 -1.286008e-03 -1.384982e-03 -1.330940e-03 -1.452789e-03 -1.426239e-03 -1.569049e-03 -1.567403e-03 -1.726715e-03 -1.744552e-03 -1.912988e-03 -1.941920e-03 -2.109081e-03 -2.137983e-03 -2.290748e-03 -2.306435e-03 -2.429745e-03 -2.418123e-03 -2.496239e-03 -2.443801e-03 -2.461905e-03 -2.357341e-03 -2.303236e-03 -2.138843e-03 -2.004466e-03 -1.777104e-03 -1.559653e-03 -1.271143e-03 -9.737579e-04 -6.308888e-04 -2.629968e-04 1.226031e-04 5.451292e-04 9.569972e-04 1.411884e-03 1.828695e-03 2.287879e-03 2.683968e-03 3.115551e-03 3.462983e-03 3.835407e-03 4.108464e-03 4.397145e-03 4.578916e-03 4.774012e-03 4.862880e-03 4.974958e-03 4.987186e-03 5.046732e-03 5.011908e-03 5.060245e-03 5.009428e-03 5.082468e-03 5.033469e-03 5.144330e-03 5.092757e-03 5.222408e-03 5.143792e-03 5.245601e-03 5.106731e-03 5.126270e-03 4.898696e-03 4.795050e-03 4.469024e-03 4.243277e-03 3.842819e-03 3.552340e-03 3.120884e-03 2.821643e-03 2.390028e-03 2.110907e-03 1.693671e-03 1.443510e-03 1.046720e-03 8.255192e-04 4.521894e-04 2.572246e-04 -9.066362e-05 -2.625285e-04 -5.834537e-04 -7.350681e-04 -1.027762e-03 -1.161518e-03 -1.424835e-03 -1.542657e-03 -1.775495e-03 -1.878875e-03 -2.080164e-03 
-1.632063e-03 -1.768794e-03 -1.858500e-03 -1.971856e-03 -2.047423e-03 -2.137331e-03 -2.199150e-03 -2.265693e-03 -2.314172e-03 -2.357658e-03 -2.393291e-03 -2.414313e-03 -2.437728e-03 -2.437205e-03 -2.449207e-03 -2.428414e-03 -2.430011e-03 -2.390594e-03 -2.383024e-03 -2.327001e-03 -2.311756e-03 -2.241520e-03 -2.220366e-03 -2.138676e-03 -2.113674e-03 -2.023653e-03 -1.997179e-03 -1.902295e-03 -1.877050e-03 -1.781090e-03 -1.760094e-03 -1.667113e-03 -1.653665e-03 -1.567897e-03 -1.565489e-03 -1.491207e-03 -1.503373e-03 -1.444675e-03 -1.474758e-03 -1.435263e-03 -1.486085e-03 -1.468546e-03 -1.541976e-03 -1.547810e-03 -1.644251e-03 -1.673014e-03 -1.790844e-03 -1.839726e-03 -1.974773e-03 -2.038208e-03 -2.183364e-03 -2.252883e-03 -2.397997e-03 -2.462460e-03 -2.594654e-03 -2.640959e-03 -2.745445e-03 -2.759734e-03 -2.821127e-03 -2.790353e-03 -2.794327e-03 -2.707898e-03 -2.642891e-03 -2.494037e-03 -2.352678e-03 -2.139224e-03 -1.919259e-03 -1.643742e-03 -1.348435e-03 -1.017796e-03 -6.560524e-04 -2.813264e-04 1.321739e-04 5.357885e-04 9.803932e-04 1.393156e-03 1.842385e-03 2.240023e-03 2.663024e-03 3.018386e-03 3.383804e-03 3.671255e-03 3.953912e-03 4.156312e-03 4.345356e-03 4.461194e-03 4.566289e-03 4.612675e-03 4.663943e-03 4.671490e-03 4.710534e-03 4.710041e-03 4.773169e-03 4.780002e-03 4.879920e-03 4.886677e-03 5.003490e-03 4.984968e-03 5.073135e-03 4.997793e-03 5.002934e-03 4.842687e-03 4.720240e-03 4.463340e-03 4.211332e-03 3.881606e-03 3.564294e-03 3.207495e-03 2.884231e-03 2.530540e-03 2.229549e-03 1.891471e-03 1.620302e-03 1.302095e-03 1.060087e-03 7.633738e-04 5.476992e-04 2.732739e-04 8.097907e-05 -1.707606e-04 -3.422258e-04 -5.711202e-04 -7.238113e-04 -9.298032e-04 -1.065303e-03 -1.248333e-03 -1.367811e-03 -1.527769e-03 
-2.192733e-03 -2.361895e-03 -2.439185e-03 -2.574838e-03 -2.640397e-03 -2.741929e-03 -2.796278e-03 -2.863454e-03 -2.907094e-03 -2.940152e-03 -2.973620e-03 -2.973340e-03 -2.997266e-03 -2.965008e-03 -2.980156e-03 -2.917866e-03 -2.925167e-03 -2.835368e-03 -2.835947e-03 -2.721704e-03 -2.716913e-03 -2.581792e-03 -2.573231e-03 -2.421253e-03 -2.410805e-03 -2.246390e-03 -2.236248e-03 -2.064168e-03 -2.056848e-03 -1.882166e-03 -1.880512e-03 -1.708505e-03 -1.715656e-03 -1.551710e-03 -1.571024e-03 -1.420477e-03 -1.455385e-03 -1.323310e-03 -1.377082e-03 -1.267982e-03 -1.343399e-03 -1.260815e-03 -1.359729e-03 -1.305755e-03 -1.428560e-03 -1.403310e-03 -1.548351e-03 -1.549419e-03 -1.712425e-03 -1.734459e-03 -1.908102e-03 -1.942601e-03 -2.116331e-03 -2.151828e-03 -2.312134e-03 -2.334871e-03 -2.466062e-03 -2.461195e-03 -2.546733e-03 -2.499948e-03 -2.524165e-03 -2.423446e-03 -2.373384e-03 -2.210555e-03 -2.077588e-03 -1.849303e-03 -1.630287e-03 -1.338371e-03 -1.036271e-03 -6.875726e-04 -3.117384e-04 8.210860e-05 5.157827e-04 9.383286e-04 1.407262e-03 1.836920e-03 2.312070e-03 2.722134e-03 3.169509e-03 3.529798e-03 3.914510e-03 4.195989e-03 4.489543e-03 4.672027e-03 4.861705e-03 4.942226e-03 5.038772e-03 5.035794e-03 5.074125e-03 5.023013e-03 5.052383e-03 4.991307e-03 5.056040e-03 5.007038e-03 5.124783e-03 5.082446e-03 5.232198e-03 5.166942e-03 5.292941e-03 5.165767e-03 5.204099e-03 4.981001e-03 4.878026e-03 4.542865e-03 4.292579e-03 3.875079e-03 3.561046e-03 3.117856e-03 2.806925e-03 2.369936e-03 2.087608e-03 1.668076e-03 1.418337e-03 1.020275e-03 8.005579e-04 4.263011e-04 2.329336e-04 -1.157004e-04 -2.861353e-04 -6.076913e-04 -7.581093e-04 -1.051375e-03 -1.184171e-03 -1.448038e-03 -1.565114e-03 -1.798487e-03 -1.901302e-03 -2.103087e-03 
-1.669876e-03 -1.806755e-03 -1.896014e-03 -2.009442e-03 -2.084620e-03 -2.174446e-03 -2.235856e-03 -2.302092e-03 -2.350078e-03 -2.392973e-03 -2.427977e-03 -2.448079e-03 -2.470691e-03 -2.468894e-03 -2.479887e-03 -2.457451e-03 -2.457808e-03 -2.416374e-03 -2.407312e-03 -2.348898e-03 -2.331886e-03 -2.258890e-03 -2.235673e-03 -2.150864e-03 -2.123483e-03 -2.029996e-03 -2.000817e-03 -1.902148e-03 -1.873881e-03 -1.773867e-03 -1.749569e-03 -1.652354e-03 -1.635411e-03 -1.545372e-03 -1.539426e-03 -1.461050e-03 -1.469870e-03 -1.407553e-03 -1.434812e-03 -1.392565e-03 -1.441515e-03 -1.422564e-03 -1.495590e-03 -1.501871e-03 -1.599933e-03 -1.631509e-03 -1.753514e-03 -1.807964e-03 -1.950125e-03 -2.022032e-03 -2.177344e-03 -2.258008e-03 -2.416009e-03 -2.493576e-03 -2.640569e-03 -2.700733e-03 -2.820615e-03 -2.847953e-03 -2.923685e-03 -2.903501e-03 -2.919049e-03 -2.839388e-03 -2.781760e-03 -2.635074e-03 -2.495980e-03 -2.279977e-03 -2.056753e-03 -1.774284e-03 -1.470070e-03 -1.128381e-03 -7.519537e-04 -3.620149e-04 7.214810e-05 4.955182e-04 9.666161e-04 1.403662e-03 1.883757e-03 2.308549e-03 2.762905e-03 3.143875e-03 3.534424e-03 3.838917e-03 4.132269e-03 4.335912e-03 4.514911e-03 4.613082e-03 4.687294e-03 4.702018e-03 4.710278e-03 4.685128e-03 4.685310e-03 4.666033e-03 4.711988e-03 4.720566e-03 4.833552e-03 4.857697e-03 5.011642e-03 5.016177e-03 5.150786e-03 5.096849e-03 5.142071e-03 4.992402e-03 4.875081e-03 4.602079e-03 4.297037e-03 3.934125e-03 3.569191e-03 3.191766e-03 2.847271e-03 2.485793e-03 2.180222e-03 1.839661e-03 1.570161e-03 1.250886e-03 1.011993e-03 7.146311e-04 5.019797e-04 2.271905e-04 3.745941e-05 -2.144330e-04 -3.838414e-04 -6.127915e-04 -7.639005e-04 -9.699515e-04 -1.104282e-03 -1.287423e-03 -1.406065e-03 -1.566176e-03 
-2.260210e-03 -2.430670e-03 -2.507003e-03 -2.643553e-03 -2.708308e-03 -2.810170e-03 -2.863757e-03 -2.930558e-03 -2.973377e-03 -3.005257e-03 -3.037769e-03 -3.035449e-03 -3.058221e-03 -3.023045e-03 -3.036790e-03 -2.970725e-03 -2.976329e-03 -2.881942e-03 -2.880488e-03 -2.760909e-03 -2.753705e-03 -2.612571e-03 -2.601177e-03 -2.442581e-03 -2.428842e-03 -2.257286e-03 -2.243367e-03 -2.063716e-03 -2.052136e-03 -1.869569e-03 -1.863223e-03 -1.683181e-03 -1.685331e-03 -1.513435e-03 -1.527660e-03 -1.369582e-03 -1.399663e-03 -1.260932e-03 -1.310637e-03 -1.196347e-03 -1.269110e-03 -1.183513e-03 -1.281974e-03 -1.227957e-03 -1.353373e-03 -1.331825e-03 -1.483370e-03 -1.492505e-03 -1.666532e-03 -1.701264e-03 -1.890662e-03 -1.942195e-03 -2.136008e-03 -2.191858e-03 -2.375393e-03 -2.420025e-03 -2.575638e-03 -2.591837e-03 -2.700465e-03 -2.671349e-03 -2.714636e-03 -2.625942e-03 -2.588548e-03 -2.430628e-03 -2.302216e-03 -2.071184e-03 -1.847637e-03 -1.545464e-03 -1.229301e-03 -8.631397e-04 -4.634688e-04 -4.492551e-05 4.224770e-04 8.772861e-04 1.389306e-03 1.858512e-03 2.383608e-03 2.837807e-03 3.335821e-03 3.737924e-03 4.163285e-03 4.473145e-03 4.783938e-03 4.969568e-03 5.142317e-03 5.194978e-03 5.239670e-03 5.184281e-03 5.149731e-03 5.040961e-03 5.002732e-03 4.903555e-03 4.934627e-03 4.881133e-03 5.014638e-03 4.997112e-03 5.207585e-03 5.179410e-03 5.379148e-03 5.285415e-03 5.387619e-03 5.182460e-03 5.091652e-03 4.732256e-03 4.395511e-03 3.928228e-03 3.545409e-03 3.075498e-03 2.739239e-03 2.293293e-03 2.008435e-03 1.585294e-03 1.340051e-03 9.391889e-04 7.250480e-04 3.482573e-04 1.600047e-04 -1.907836e-04 -3.568518e-04 -6.802420e-04 -8.270648e-04 -1.122009e-03 -1.251944e-03 -1.517456e-03 -1.632326e-03 -1.867328e-03 -1.968484e-03 -2.171804e-03 
-1.745361e-03 -1.882609e-03 -1.971060e-03 -2.084709e-03 -2.159187e-03 -2.248920e-03 -2.309577e-03 -2.375256e-03 -2.422308e-03 -2.464061e-03 -2.497847e-03 -2.516138e-03 -2.537173e-03 -2.532842e-03 -2.541841e-03 -2.516122e-03 -2.514023e-03 -2.468551e-03 -2.456528e-03 -2.393327e-03 -2.372805e-03 -2.294280e-03 -2.266957e-03 -2.175892e-03 -2.143766e-03 -2.043318e-03 -2.008726e-03 -1.902434e-03 -1.868087e-03 -1.759876e-03 -1.728892e-03 -1.623066e-03 -1.598983e-03 -1.500187e-03 -1.486934e-03 -1.400068e-03 -1.401868e-03 -1.331922e-03 -1.353106e-03 -1.304880e-03 -1.349575e-03 -1.327274e-03 -1.398933e-03 -1.405601e-03 -1.506379e-03 -1.543186e-03 -1.673154e-03 -1.738591e-03 -1.894868e-03 -1.983949e-03 -2.159878e-03 -2.263540e-03 -2.448126e-03 -2.553103e-03 -2.730997e-03 -2.820445e-03 -2.972763e-03 -3.027844e-03 -3.133950e-03 -3.136310e-03 -3.176424e-03 -3.111078e-03 -3.069120e-03 -2.926893e-03 -2.792728e-03 -2.571327e-03 -2.341702e-03 -2.045037e-03 -1.723138e-03 -1.359428e-03 -9.538406e-04 -5.338715e-04 -5.824542e-05 4.046329e-04 9.301563e-04 1.417403e-03 1.963072e-03 2.446534e-03 2.970209e-03 3.409255e-03 3.858005e-03 4.203388e-03 4.523782e-03 4.732104e-03 4.889845e-03 4.946133e-03 4.947815e-03 4.883776e-03 4.786702e-03 4.677340e-03 4.577115e-03 4.506613e-03 4.500026e-03 4.504162e-03 4.633285e-03 4.683109e-03 4.905299e-03 4.942360e-03 5.165764e-03 5.146436e-03 5.287205e-03 5.168917e-03 5.091578e-03 4.798738e-03 4.358160e-03 3.935855e-03 3.485660e-03 3.088880e-03 2.725802e-03 2.364583e-03 2.064873e-03 1.725719e-03 1.465671e-03 1.145927e-03 9.151489e-04 6.167965e-04 4.106422e-04 1.352357e-04 -4.930230e-05 -3.013794e-04 -4.667022e-04 -6.956627e-04 -8.436677e-04 -1.049789e-03 -1.181861e-03 -1.365230e-03 -1.482290e-03 -1.642759e-03 
-2.372620e-03 -2.545429e-03 -2.620310e-03 -2.758533e-03 -2.822077e-03 -2.924641e-03 -2.977062e-03 -3.043350e-03 -3.084890e-03 -3.114868e-03 -3.145857e-03 -3.140154e-03 -3.161060e-03 -3.120999e-03 -3.132455e-03 -3.060046e-03 -3.062868e-03 -2.960767e-03 -2.955972e-03 -2.827419e-03 -2.816244e-03 -2.665001e-03 -2.648929e-03 -2.479215e-03 -2.460017e-03 -2.276458e-03 -2.256242e-03 -2.063839e-03 -2.045106e-03 -1.849213e-03 -1.834913e-03 -1.641216e-03 -1.634784e-03 -1.449265e-03 -1.454622e-03 -1.283485e-03 -1.304970e-03 -1.154491e-03 -1.196695e-03 -1.072961e-03 -1.140430e-03 -1.048933e-03 -1.145685e-03 -1.090733e-03 -1.219588e-03 -1.203529e-03 -1.365222e-03 -1.387511e-03 -1.579672e-03 -1.635895e-03 -1.852006e-03 -1.933059e-03 -2.161646e-03 -2.253385e-03 -2.477791e-03 -2.561532e-03 -2.760629e-03 -2.814777e-03 -2.964855e-03 -2.967671e-03 -3.045364e-03 -2.978343e-03 -2.963957e-03 -2.814830e-03 -2.695089e-03 -2.459340e-03 -2.228742e-03 -1.909163e-03 -1.569829e-03 -1.174597e-03 -7.353135e-04 -2.759595e-04 2.482828e-04 7.572168e-04 1.343849e-03 1.881976e-03 2.497109e-03 3.032396e-03 3.626370e-03 4.109990e-03 4.617155e-03 4.986171e-03 5.335841e-03 5.530721e-03 5.672992e-03 5.668308e-03 5.606726e-03 5.437557e-03 5.246523e-03 5.007084e-03 4.815052e-03 4.623548e-03 4.562835e-03 4.481036e-03 4.613140e-03 4.616390e-03 4.920017e-03 4.928518e-03 5.236708e-03 5.176215e-03 5.401549e-03 5.239697e-03 5.228622e-03 4.857914e-03 4.330292e-03 3.808815e-03 3.347223e-03 2.881436e-03 2.550794e-03 2.117815e-03 1.853744e-03 1.433768e-03 1.204866e-03 8.011662e-04 5.987200e-04 2.179185e-04 3.870599e-05 -3.155289e-04 -4.742454e-04 -8.004971e-04 -9.413597e-04 -1.238968e-03 -1.364214e-03 -1.632447e-03 -1.743761e-03 -1.981564e-03 -2.080100e-03 -2.286132e-03 
-1.858218e-03 -1.996214e-03 -2.083680e-03 -2.197865e-03 -2.271488e-03 -2.361269e-03 -2.420959e-03 -2.485952e-03 -2.531728e-03 -2.571876e-03 -2.603932e-03 -2.619571e-03 -2.638313e-03 -2.630212e-03 -2.636280e-03 -2.605645e-03 -2.599916e-03 -2.548382e-03 -2.531972e-03 -2.461577e-03 -2.435847e-03 -2.349012e-03 -2.315585e-03 -2.215106e-03 -2.175900e-03 -2.064952e-03 -2.022234e-03 -1.904395e-03 -1.860848e-03 -1.740137e-03 -1.698928e-03 -1.579846e-03 -1.544696e-03 -1.432242e-03 -1.407458e-03 -1.307114e-03 -1.297563e-03 -1.215186e-03 -1.226169e-03 -1.167761e-03 -1.204744e-03 -1.176051e-03 -1.244191e-03 -1.250072e-03 -1.353495e-03 -1.397042e-03 -1.537854e-03 -1.619266e-03 -1.796317e-03 -1.911633e-03 -2.119174e-03 -2.259102e-03 -2.485619e-03 -2.634851e-03 -2.862533e-03 -3.000101e-03 -3.205488e-03 -3.306668e-03 -3.462928e-03 -3.502816e-03 -3.583576e-03 -3.541722e-03 -3.525567e-03 -3.390093e-03 -3.264109e-03 -3.033399e-03 -2.794189e-03 -2.475108e-03 -2.126940e-03 -1.730422e-03 -1.282027e-03 -8.186807e-04 -2.814567e-04 2.394547e-04 8.491174e-04 1.414637e-03 2.067859e-03 2.650300e-03 3.295631e-03 3.840954e-03 4.399590e-03 4.826505e-03 5.204142e-03 5.426380e-03 5.548717e-03 5.522063e-03 5.382973e-03 5.152851e-03 4.841019e-03 4.546967e-03 4.228523e-03 4.041816e-03 3.899132e-03 3.870102e-03 3.982541e-03 4.024499e-03 4.305553e-03 4.319046e-03 4.621737e-03 4.595758e-03 4.895480e-03 4.840131e-03 4.960908e-03 4.717117e-03 3.988975e-03 3.555559e-03 3.076222e-03 2.746669e-03 2.443701e-03 2.125681e-03 1.870940e-03 1.543897e-03 1.307935e-03 9.879839e-04 7.711405e-04 4.708438e-04 2.744910e-04 -1.775470e-06 -1.786552e-04 -4.306765e-04 -5.900047e-04 -8.186938e-04 -9.622081e-04 -1.168311e-03 -1.297204e-03 -1.480951e-03 -1.595874e-03 -1.757021e-03 
-2.529863e-03 -2.706382e-03 -2.779538e-03 -2.920508e-03 -2.982628e-03 -3.086510e-03 -3.137527e-03 -3.203335e-03 -3.243262e-03 -3.270711e-03 -3.299708e-03 -3.289300e-03 -3.307706e-03 -3.260752e-03 -3.269101e-03 -3.187694e-03 -3.186717e-03 -3.073659e-03 -3.064287e-03 -2.922999e-03 -2.906369e-03 -2.740798e-03 -2.718279e-03 -2.532818e-03 -2.506056e-03 -2.305491e-03 -2.276477e-03 -2.065970e-03 -2.037134e-03 -1.822229e-03 -1.796539e-03 -1.583204e-03 -1.564270e-03 -1.358925e-03 -1.351074e-03 -1.160603e-03 -1.168899e-03 -1.000583e-03 -1.030743e-03 -8.920739e-04 -9.502283e-04 -8.485237e-04 -9.407496e-04 -8.825158e-04 -1.014071e-03 -1.004045e-03 -1.178258e-03 -1.218116e-03 -1.434928e-03 -1.521748e-03 -1.776043e-03 -1.900758e-03 -2.180778e-03 -2.327091e-03 -2.613497e-03 -2.757941e-03 -3.024232e-03 -3.138069e-03 -3.352961e-03 -3.406211e-03 -3.538005e-03 -3.504929e-03 -3.526826e-03 -3.391008e-03 -3.285438e-03 -3.042181e-03 -2.802412e-03 -2.457251e-03 -2.085957e-03 -1.650125e-03 -1.156243e-03 -6.415435e-04 -3.790979e-05 5.454958e-04 1.240543e-03 1.879432e-03 2.633871e-03 3.298328e-03 4.052539e-03 4.678228e-03 5.333965e-03 5.815586e-03 6.245158e-03 6.462544e-03 6.555187e-03 6.439419e-03 6.176359e-03 5.777377e-03 5.279117e-03 4.766806e-03 4.258872e-03 3.870897e-03 3.593747e-03 3.415184e-03 3.440697e-03 3.383393e-03 3.766746e-03 3.715103e-03 4.060764e-03 3.924132e-03 4.287739e-03 4.170166e-03 4.492330e-03 4.260216e-03 3.396374e-03 3.017262e-03 2.676562e-03 2.382695e-03 2.193915e-03 1.827991e-03 1.632691e-03 1.221036e-03 1.021698e-03 6.110171e-04 4.248466e-04 3.708907e-05 -1.299775e-04 -4.888967e-04 -6.375367e-04 -9.672748e-04 -1.099924e-03 -1.400920e-03 -1.519792e-03 -1.791803e-03 -1.898407e-03 -2.140349e-03 -2.235532e-03 -2.445731e-03 
-2.007958e-03 -2.147363e-03 -2.233952e-03 -2.349268e-03 -2.422129e-03 -2.512337e-03 -2.571041e-03 -2.635407e-03 -2.679714e-03 -2.717920e-03 -2.747838e-03 -2.760057e-03 -2.775868e-03 -2.762789e-03 -2.765050e-03 -2.727864e-03 -2.717390e-03 -2.657755e-03 -2.635598e-03 -2.555587e-03 -2.523026e-03 -2.425085e-03 -2.383635e-03 -2.270567e-03 -2.222014e-03 -2.096987e-03 -2.043463e-03 -1.910057e-03 -1.854142e-03 -1.716432e-03 -1.661278e-03 -1.523937e-03 -1.473413e-03 -1.341822e-03 -1.300640e-03 -1.180962e-03 -1.154756e-03 -1.053945e-03 -1.049262e-03 -9.749264e-04 -9.990430e-04 -9.590974e-04 -1.019590e-03 -1.021594e-03 -1.125556e-03 -1.175645e-03 -1.328451e-03 -1.429798e-03 -1.633370e-03 -1.784216e-03 -2.034883e-03 -2.226383e-03 -2.512646e-03 -2.727097e-03 -3.028026e-03 -3.238441e-03 -3.523729e-03 -3.695909e-03 -3.928696e-03 -4.026562e-03 -4.169381e-03 -4.162897e-03 -4.185457e-03 -4.058349e-03 -3.943943e-03 -3.697062e-03 -3.443998e-03 -3.091570e-03 -2.708402e-03 -2.268472e-03 -1.765876e-03 -1.249908e-03 -6.347353e-04 -4.292514e-05 6.795510e-04 1.350594e-03 2.161934e-03 2.895703e-03 3.738431e-03 4.466060e-03 5.220359e-03 5.802062e-03 6.292569e-03 6.547869e-03 6.609590e-03 6.418321e-03 6.011302e-03 5.438333e-03 4.712287e-03 4.031924e-03 3.278204e-03 2.872492e-03 2.429555e-03 2.313726e-03 2.298065e-03 2.157908e-03 2.325215e-03 2.050430e-03 2.201398e-03 1.947588e-03 2.325388e-03 2.258538e-03 3.025252e-03 3.176671e-03 2.077011e-03 2.120497e-03 2.093049e-03 2.098237e-03 2.050786e-03 1.821956e-03 1.652516e-03 1.327273e-03 1.118664e-03 7.882426e-04 5.853671e-04 2.795540e-04 9.444819e-05 -1.826797e-04 -3.498797e-04 -6.008879e-04 -7.524652e-04 -9.801298e-04 -1.117958e-03 -1.323811e-03 -1.448873e-03 -1.633241e-03 -1.745785e-03 -1.908158e-03 
-2.731759e-03 -2.913862e-03 -2.985352e-03 -3.130605e-03 -3.191370e-03 -3.297557e-03 -3.347154e-03 -3.412768e-03 -3.450924e-03 -3.475341e-03 -3.502008e-03 -3.485582e-03 -3.500955e-03 -3.445015e-03 -3.449526e-03 -3.356317e-03 -3.350612e-03 -3.223175e-03 -3.208089e-03 -3.050119e-03 -3.026666e-03 -2.842375e-03 -2.811762e-03 -2.605769e-03 -2.569449e-03 -2.346720e-03 -2.306478e-03 -2.072320e-03 -2.030411e-03 -1.790529e-03 -1.749840e-03 -1.510445e-03 -1.474683e-03 -1.242628e-03 -1.216506e-03 -9.994188e-04 -9.888084e-04 -7.951665e-04 -8.071505e-04 -6.462275e-04 -6.889911e-04 -5.705725e-04 -6.530133e-04 -5.867613e-04 -7.176904e-04 -7.120194e-04 -8.988099e-04 -9.591584e-04 -1.205740e-03 -1.332224e-03 -1.636461e-03 -1.821134e-03 -2.171924e-03 -2.396277e-03 -2.771186e-03 -3.005070e-03 -3.369837e-03 -3.573340e-03 -3.884741e-03 -4.014162e-03 -4.226853e-03 -4.244135e-03 -4.319880e-03 -4.202066e-03 -4.117400e-03 -3.861101e-03 -3.609489e-03 -3.227515e-03 -2.815331e-03 -2.327106e-03 -1.765804e-03 -1.185635e-03 -4.843582e-04 1.865366e-04 1.021561e-03 1.790159e-03 2.741581e-03 3.595851e-03 4.601925e-03 5.463765e-03 6.377845e-03 7.065301e-03 7.647582e-03 7.906461e-03 7.907299e-03 7.562150e-03 6.907902e-03 6.047886e-03 4.971532e-03 3.920905e-03 2.833069e-03 2.115715e-03 1.461958e-03 1.074389e-03 6.622193e-04 2.068945e-04 4.730431e-04 5.849482e-05 -2.773938e-05 -5.634633e-04 -4.846545e-04 -8.071511e-04 -1.299196e-05 3.526080e-04 8.664454e-05 1.040434e-03 1.669108e-03 1.809686e-03 1.924673e-03 1.589194e-03 1.454990e-03 1.004619e-03 8.193057e-04 3.815562e-04 2.071270e-04 -1.926228e-04 -3.463781e-04 -7.100768e-04 -8.460873e-04 -1.178821e-03 -1.301022e-03 -1.605640e-03 -1.716626e-03 -1.993496e-03 -2.094540e-03 -2.342299e-03 -2.433761e-03 -2.650059e-03 
-2.193876e-03 -2.335810e-03 -2.422040e-03 -2.539509e-03 -2.612035e-03 -2.703404e-03 -2.761362e-03 -2.825419e-03 -2.868249e-03 -2.904341e-03 -2.931838e-03 -2.939948e-03 -2.952271e-03 -2.933022e-03 -2.930660e-03 -2.885268e-03 -2.868995e-03 -2.799187e-03 -2.770004e-03 -2.677929e-03 -2.637023e-03 -2.525175e-03 -2.473914e-03 -2.345090e-03 -2.285059e-03 -2.142372e-03 -2.075464e-03 -1.922416e-03 -1.850978e-03 -1.691595e-03 -1.618628e-03 -1.457650e-03 -1.387041e-03 -1.230147e-03 -1.166931e-03 -1.020965e-03 -9.715610e-04 -8.447065e-04 -8.170814e-04 -7.189024e-04 -7.225752e-04 -6.638177e-04 -7.095705e-04 -7.015624e-04 -8.006888e-04 -8.541469e-04 -1.017023e-03 -1.140063e-03 -1.373831e-03 -1.569052e-03 -1.874341e-03 -2.135116e-03 -2.502054e-03 -2.808713e-03 -3.213191e-03 -3.530649e-03 -3.932695e-03 -4.211947e-03 -4.558718e-03 -4.744587e-03 -4.979744e-03 -5.024892e-03 -5.102865e-03 -4.983267e-03 -4.882128e-03 -4.604849e-03 -4.329385e-03 -3.925576e-03 -3.496748e-03 -3.001967e-03 -2.438353e-03 -1.869643e-03 -1.171433e-03 -5.125475e-04 3.402119e-04 1.131225e-03 2.154046e-03 3.100257e-03 4.246419e-03 5.273058e-03 6.362002e-03 7.225140e-03 7.919027e-03 8.231546e-03 8.158115e-03 7.612559e-03 6.666708e-03 5.378149e-03 3.891735e-03 2.443333e-03 9.477866e-04 2.930988e-04 -5.791548e-04 -7.760238e-04 -9.500529e-04 -1.880175e-03 -2.898738e-03 -3.943836e-03 -5.024450e-03 -5.455658e-03 -6.297438e-03 -6.264428e-03 -6.583478e-03 -5.963525e-03 -2.308433e-03 1.246200e-04 1.668751e-03 1.969072e-03 2.117751e-03 1.764542e-03 1.569967e-03 1.148657e-03 9.229960e-04 5.543017e-04 3.550361e-04 4.069570e-05 -1.327133e-04 -4.078443e-04 -5.629454e-04 -8.101054e-04 -9.520342e-04 -1.177133e-03 -1.308287e-03 -1.513562e-03 -1.634544e-03 -1.820045e-03 -1.930436e-03 -2.095008e-03 
-2.978062e-03 -3.168403e-03 -3.238743e-03 -3.390495e-03 -3.450345e-03 -3.560346e-03 -3.608795e-03 -3.674837e-03 -3.711271e-03 -3.732305e-03 -3.756447e-03 -3.732670e-03 -3.744578e-03 -3.677408e-03 -3.677435e-03 -3.569385e-03 -3.558116e-03 -3.412606e-03 -3.390791e-03 -3.211927e-03 -3.180443e-03 -2.972812e-03 -2.932654e-03 -2.701164e-03 -2.653499e-03 -2.403298e-03 -2.349575e-03 -2.086061e-03 -2.028194e-03 -1.757123e-03 -1.697728e-03 -1.425420e-03 -1.368115e-03 -1.101722e-03 -1.051460e-03 -7.992784e-04 -7.626781e-04 -5.344363e-04 -5.200595e-04 -3.270973e-04 -3.455725e-04 -2.007777e-04 -2.646223e-04 -1.819376e-04 -3.048669e-04 -2.981131e-04 -4.935513e-04 -5.742742e-04 -8.527603e-04 -1.026855e-03 -1.392135e-03 -1.655273e-03 -2.099266e-03 -2.431805e-03 -2.929471e-03 -3.292698e-03 -3.799148e-03 -4.135998e-03 -4.589226e-03 -4.832842e-03 -5.164630e-03 -5.255192e-03 -5.408221e-03 -5.311778e-03 -5.254541e-03 -4.972395e-03 -4.702586e-03 -4.264408e-03 -3.799923e-03 -3.245051e-03 -2.607263e-03 -1.960562e-03 -1.155781e-03 -4.052409e-04 5.851504e-04 1.491304e-03 2.693103e-03 3.799630e-03 5.176587e-03 6.410736e-03 7.751712e-03 8.795407e-03 9.639030e-03 9.936951e-03 9.712533e-03 8.829021e-03 7.344123e-03 5.542446e-03 3.418495e-03 1.391097e-03 -5.147006e-04 -1.557697e-03 -1.995274e-03 -2.964647e-03 -4.275510e-03 -5.530551e-03 -6.822160e-03 -6.355396e-03 -6.306406e-03 -4.941660e-03 -4.889996e-03 -3.507431e-03 -3.852174e-03 -3.026310e-03 2.023753e-03 2.661629e-03 3.513441e-03 2.767795e-03 2.535519e-03 1.738533e-03 1.432901e-03 8.129327e-04 5.836472e-04 9.755668e-05 -7.219250e-05 -4.804592e-04 -6.172037e-04 -9.802348e-04 -1.099521e-03 -1.432335e-03 -1.541468e-03 -1.849327e-03 -1.951153e-03 -2.234245e-03 -2.329368e-03 -2.585291e-03 -2.673213e-03 -2.898346e-03 
-2.415069e-03 -2.561361e-03 -2.648300e-03 -2.769552e-03 -2.842608e-03 -2.936353e-03 -2.994125e-03 -3.058524e-03 -3.100080e-03 -3.134076e-03 -3.158995e-03 -3.162373e-03 -3.170716e-03 -3.144082e-03 -3.136325e-03 -3.080998e-03 -3.057927e-03 -2.975797e-03 -2.938400e-03 -2.831768e-03 -2.781149e-03 -2.652596e-03 -2.589939e-03 -2.442246e-03 -2.368843e-03 -2.204995e-03 -2.122355e-03 -1.945639e-03 -1.855680e-03 -1.669884e-03 -1.575214e-03 -1.384919e-03 -1.289191e-03 -1.100151e-03 -1.008482e-03 -8.280466e-04 -7.474754e-04 -5.850132e-04 -5.249269e-04 -3.921589e-04 -3.646058e-04 -2.757086e-04 -2.954278e-04 -2.666905e-04 -3.506059e-04 -3.993172e-04 -5.651204e-04 -7.072543e-04 -9.705910e-04 -1.216813e-03 -1.586593e-03 -1.936311e-03 -2.408026e-03 -2.841967e-03 -3.389951e-03 -3.863424e-03 -4.435024e-03 -4.876468e-03 -5.393480e-03 -5.714590e-03 -6.087550e-03 -6.208251e-03 -6.363474e-03 -6.244254e-03 -6.151566e-03 -5.812758e-03 -5.493988e-03 -5.003329e-03 -4.510376e-03 -3.943833e-03 -3.319182e-03 -2.714271e-03 -1.953648e-03 -1.271260e-03 -3.074776e-04 5.723624e-04 1.837192e-03 3.040279e-03 4.617202e-03 6.099258e-03 7.726042e-03 9.064482e-03 1.007631e-02 1.043582e-02 9.972376e-03 8.585855e-03 6.428524e-03 3.589977e-03 7.400525e-04 -2.166351e-03 -4.229428e-03 -5.515388e-03 -6.797822e-03 -7.637206e-03 -6.230691e-03 -1.964666e-03 1.879878e-03 5.825252e-03 8.203783e-03 1.026209e-02 1.138720e-02 1.255265e-02 1.288573e-02 1.344769e-02 1.236578e-02 8.514262e-03 6.471554e-03 4.235257e-03 3.171129e-03 2.048395e-03 1.530199e-03 9.142728e-04 6.300851e-04 2.306810e-04 4.038548e-05 -2.650241e-04 -4.181420e-04 -6.795887e-04 -8.172708e-04 -1.054600e-03 -1.184455e-03 -1.404739e-03 -1.528614e-03 -1.733261e-03 -1.850583e-03 -2.038367e-03 -2.147538e-03 -2.316021e-03 
-3.268531e-03 -3.470908e-03 -3.541212e-03 -3.702625e-03 -3.762472e-03 -3.878494e-03 -3.926411e-03 -3.993931e-03 -4.028918e-03 -4.046371e-03 -4.067929e-03 -4.035385e-03 -4.043476e-03 -3.962562e-03 -3.957521e-03 -3.831210e-03 -3.813625e-03 -3.645935e-03 -3.616516e-03 -3.412171e-03 -3.371660e-03 -3.135781e-03 -3.084911e-03 -2.822777e-03 -2.762318e-03 -2.479246e-03 -2.410131e-03 -2.111502e-03 -2.035060e-03 -1.726482e-03 -1.644763e-03 -1.332389e-03 -1.248590e-03 -9.395625e-04 -8.585413e-04 -5.615368e-04 -4.903846e-04 -2.162034e-04 -1.648375e-04 7.305186e-05 9.138275e-05 2.764965e-04 2.449629e-04 3.579014e-04 2.563962e-04 2.757787e-04 8.223192e-05 -1.296952e-05 -3.196128e-04 -5.456452e-04 -9.800468e-04 -1.341281e-03 -1.903498e-03 -2.382905e-03 -3.048163e-03 -3.597714e-03 -4.307724e-03 -4.844594e-03 -5.507635e-03 -5.924989e-03 -6.432891e-03 -6.630385e-03 -6.891943e-03 -6.815388e-03 -6.787806e-03 -6.450185e-03 -6.144435e-03 -5.610961e-03 -5.073104e-03 -4.427045e-03 -3.706814e-03 -3.006110e-03 -2.117569e-03 -1.341963e-03 -2.287035e-04 7.554964e-04 2.214011e-03 3.589308e-03 5.449764e-03 7.213194e-03 9.196794e-03 1.080402e-02 1.202401e-02 1.224908e-02 1.139186e-02 9.109373e-03 5.636040e-03 1.791691e-03 -2.414151e-03 -6.300034e-03 -7.834558e-03 -8.429465e-03 -5.434739e-03 3.219730e-03 1.103743e-02 1.631508e-02 1.950812e-02 2.040096e-02 2.093512e-02 2.052543e-02 2.041121e-02 2.006463e-02 1.973938e-02 2.021020e-02 1.605564e-02 1.016811e-02 6.891518e-03 4.065681e-03 2.779672e-03 1.517026e-03 1.022696e-03 3.467458e-04 1.253263e-04 -3.365541e-04 -4.676808e-04 -8.486885e-04 -9.515599e-04 -1.298382e-03 -1.393440e-03 -1.720999e-03 -1.814189e-03 -2.125095e-03 -2.217151e-03 -2.508865e-03 -2.598566e-03 -2.866274e-03 -2.951663e-03 -3.189630e-03 
-2.670562e-03 -2.824062e-03 -2.913482e-03 -3.040985e-03 -3.115971e-03 -3.213932e-03 -3.272448e-03 -3.338246e-03 -3.378954e-03 -3.411065e-03 -3.433343e-03 -3.431386e-03 -3.435275e-03 -3.399935e-03 -3.385997e-03 -3.318845e-03 -3.287988e-03 -3.191233e-03 -3.144518e-03 -3.020749e-03 -2.959234e-03 -2.811194e-03 -2.735850e-03 -2.566302e-03 -2.478019e-03 -2.289723e-03 -2.189432e-03 -1.985261e-03 -1.874174e-03 -1.657382e-03 -1.537357e-03 -1.311992e-03 -1.186026e-03 -9.574902e-04 -8.303315e-04 -6.060570e-04 -4.849317e-04 -2.751406e-04 -1.705450e-04 1.098896e-05 8.450690e-05 2.198329e-04 2.430710e-04 3.098264e-04 2.588137e-04 2.308233e-04 7.773853e-05 -7.282300e-05 -3.568153e-04 -6.546251e-04 -1.093396e-03 -1.551303e-03 -2.153416e-03 -2.759247e-03 -3.503239e-03 -4.204048e-03 -5.023052e-03 -5.714493e-03 -6.490561e-03 -7.026216e-03 -7.609826e-03 -7.844766e-03 -8.106701e-03 -7.967031e-03 -7.860754e-03 -7.392787e-03 -6.979226e-03 -6.326410e-03 -5.727641e-03 -5.052627e-03 -4.371953e-03 -3.770791e-03 -3.016599e-03 -2.435027e-03 -1.469130e-03 -6.514885e-04 7.920100e-04 2.196867e-03 4.292021e-03 6.366623e-03 8.762959e-03 1.080411e-02 1.221106e-02 1.246925e-02 1.087523e-02 7.454150e-03 2.309386e-03 -4.081572e-03 -1.041620e-02 -1.216646e-02 -1.112120e-02 -1.462830e-03 1.251789e-02 2.078997e-02 2.227976e-02 1.930215e-02 1.620683e-02 1.286496e-02 1.053840e-02 8.946664e-03 7.311163e-03 6.890587e-03 5.446844e-03 5.926883e-03 6.782482e-03 4.494183e-03 3.507243e-03 2.102084e-03 1.531573e-03 8.189972e-04 5.472441e-04 1.422996e-04 -9.692286e-06 -2.956196e-04 -4.112400e-04 -6.540811e-04 -7.637715e-04 -9.911689e-04 -1.103637e-03 -1.324000e-03 -1.439911e-03 -1.653965e-03 -1.771132e-03 -1.976375e-03 -2.091634e-03 -2.284144e-03 -2.394066e-03 -2.569346e-03 