# vtk DataFile Version 2.0
Comment goes here
ASCII

DATASET STRUCTURED_POINTS
DIMENSIONS    128   128   1

ORIGIN    0.000   0.000   0.000
SPACING   0.0156250.015625   1.000

POINT_DATA   16384
SCALARS uX double
LOOKUP_TABLE default

-4.191972e-02 -4.444248e-02 -4.511428e-02 -4.697576e-02 -4.723913e-02 -4.842891e-02 -4.829714e-02 -4.881377e-02 -4.830590e-02 -4.815851e-02 -4.730008e-02 -4.650982e-02 -4.533353e-02 -4.393485e-02 -4.248106e-02 -4.052258e-02 -3.883973e-02 -3.638477e-02 -3.452979e-02 -3.165667e-02 -2.969536e-02 -2.649754e-02 -2.450514e-02 -2.109124e-02 -1.915302e-02 -1.564669e-02 -1.385852e-02 -1.039802e-02 -8.866665e-03 -5.603815e-03 -4.446442e-03 -1.544513e-03 -8.869582e-04 1.483079e-03 1.510030e-03 3.175596e-03 2.442567e-03 3.238533e-03 1.627177e-03 1.408384e-03 -1.175412e-03 -2.518077e-03 -6.127574e-03 -8.648090e-03 -1.327662e-02 -1.695319e-02 -2.251458e-02 -2.723001e-02 -3.354168e-02 -3.906849e-02 -4.584124e-02 -5.183603e-02 -5.867522e-02 -6.468679e-02 -7.110869e-02 -7.660307e-02 -8.206835e-02 -8.647113e-02 -9.043377e-02 -9.318607e-02 -9.515209e-02 -9.577275e-02 -9.535998e-02 -9.350450e-02 -9.049433e-02 -8.600218e-02 -8.037710e-02 -7.330315e-02 -6.526862e-02 -5.589896e-02 -4.589134e-02 -3.474521e-02 -2.342568e-02 -1.124065e-02 5.321938e-04 1.284345e-02 2.407901e-02 3.551860e-02 4.521583e-02 5.484842e-02 6.217410e-02 6.931451e-02 7.380050e-02 7.818096e-02 7.986385e-02 8.169920e-02 8.112623e-02 8.103371e-02 7.911726e-02 7.792674e-02 7.569615e-02 7.421735e-02 7.252303e-02 7.129850e-02 7.053749e-02 6.966547e-02 6.968912e-02 6.883774e-02 6.908436e-02 6.767134e-02 6.742699e-02 6.489222e-02 6.356606e-02 5.961914e-02 5.703792e-02 5.182890e-02 4.836169e-02 4.235193e-02 3.848182e-02 3.209880e-02 2.815049e-02 2.167619e-02 1.782155e-02 1.143753e-02 7.774144e-03 1.614387e-03 -1.787639e-03 -7.614485e-03 -1.069902e-02 -1.610464e-02 -1.882870e-02 -2.374349e-02 -2.607733e-02 -3.044759e-02 -3.237306e-02 -3.615734e-02 -3.766538e-02 -4.083138e-02 
-3.748467e-02 -3.973396e-02 -4.050695e-02 -4.217946e-02 -4.252479e-02 -4.361404e-02 -4.354370e-02 -4.405039e-02 -4.358252e-02 -4.351595e-02 -4.267558e-02 -4.205508e-02 -4.087479e-02 -3.973103e-02 -3.825139e-02 -3.662733e-02 -3.489731e-02 -3.284896e-02 -3.092622e-02 -2.852324e-02 -2.647447e-02 -2.380056e-02 -2.170199e-02 -1.885531e-02 -1.679324e-02 -1.388661e-02 -1.195797e-02 -9.118866e-03 -7.431487e-03 -4.801274e-03 -3.473467e-03 -1.205656e-03 -3.645249e-04 1.378728e-03 1.600893e-03 2.654638e-03 2.126604e-03 2.332000e-03 9.330880e-04 1.498404e-04 -2.216972e-03 -4.094511e-03 -7.486013e-03 -1.050960e-02 -1.492322e-02 -1.906977e-02 -2.442386e-02 -2.957539e-02 -3.569195e-02 -4.162021e-02 -4.821433e-02 -5.457467e-02 -6.125532e-02 -6.759462e-02 -7.388072e-02 -7.966269e-02 -8.501672e-02 -8.966493e-02 -9.354232e-02 -9.649731e-02 -9.840579e-02 -9.918820e-02 -9.874795e-02 -9.701746e-02 -9.401242e-02 -8.961345e-02 -8.402721e-02 -7.701759e-02 -6.905289e-02 -5.971686e-02 -4.980155e-02 -3.865091e-02 -2.743206e-02 -1.519428e-02 -3.513426e-03 8.904959e-03 2.007283e-02 3.166855e-02 4.133303e-02 5.115031e-02 5.848334e-02 6.580725e-02 7.034176e-02 7.488068e-02 7.664841e-02 7.861647e-02 7.814585e-02 7.818795e-02 7.635388e-02 7.534033e-02 7.313160e-02 7.189768e-02 7.014740e-02 6.923350e-02 6.834751e-02 6.784566e-02 6.770980e-02 6.728181e-02 6.736251e-02 6.643858e-02 6.603042e-02 6.405270e-02 6.254644e-02 5.920409e-02 5.640832e-02 5.183565e-02 4.815733e-02 4.282018e-02 3.875974e-02 3.307201e-02 2.894573e-02 2.316872e-02 1.913814e-02 1.343810e-02 9.597402e-03 4.098517e-03 5.192178e-04 -4.677587e-03 -7.936368e-03 -1.275059e-02 -1.564283e-02 -2.001325e-02 -2.250646e-02 -2.638804e-02 -2.846160e-02 -3.182139e-02 -3.346394e-02 -3.627752e-02 
-4.246714e-02 -4.499463e-02 -4.565919e-02 -4.752330e-02 -4.777819e-02 -4.896717e-02 -4.882484e-02 -4.933605e-02 -4.881486e-02 -4.865638e-02 -4.778134e-02 -4.697358e-02 -4.577698e-02 -4.435386e-02 -4.287579e-02 -4.088559e-02 -3.917427e-02 -3.668015e-02 -3.479225e-02 -3.187245e-02 -2.987352e-02 -2.662147e-02 -2.458644e-02 -2.111084e-02 -1.912467e-02 -1.554937e-02 -1.370781e-02 -1.017157e-02 -8.581561e-03 -5.237178e-03 -4.016683e-03 -1.029186e-03 -3.057126e-04 2.151127e-03 2.243923e-03 3.993395e-03 3.321822e-03 4.193146e-03 2.632974e-03 2.473804e-03 -7.642283e-05 -1.383661e-03 -4.985568e-03 -7.503930e-03 -1.215937e-02 -1.587563e-02 -2.150578e-02 -2.630926e-02 -3.273596e-02 -3.840174e-02 -4.533549e-02 -5.151697e-02 -5.855650e-02 -6.479232e-02 -7.144035e-02 -7.717941e-02 -8.287703e-02 -8.752256e-02 -9.170073e-02 -9.466959e-02 -9.681166e-02 -9.760066e-02 -9.730601e-02 -9.555426e-02 -9.259240e-02 -8.813000e-02 -8.247812e-02 -7.535670e-02 -6.721981e-02 -5.772655e-02 -4.754415e-02 -3.620353e-02 -2.464550e-02 -1.220836e-02 -1.539077e-04 1.243829e-02 2.395791e-02 3.565702e-02 4.557775e-02 5.538179e-02 6.279811e-02 6.996162e-02 7.435362e-02 7.858722e-02 7.999110e-02 8.154321e-02 8.056319e-02 8.012118e-02 7.776075e-02 7.623072e-02 7.362204e-02 7.189043e-02 6.997802e-02 6.864269e-02 6.785254e-02 6.700820e-02 6.715168e-02 6.642441e-02 6.687445e-02 6.562184e-02 6.560675e-02 6.322046e-02 6.206294e-02 5.820081e-02 5.565959e-02 5.048711e-02 4.706215e-02 4.111670e-02 3.734047e-02 3.104298e-02 2.720299e-02 2.080175e-02 1.703498e-02 1.069770e-02 7.093651e-03 9.581778e-04 -2.406612e-03 -8.223168e-03 -1.128408e-02 -1.668700e-02 -1.939510e-02 -2.431129e-02 -2.663354e-02 -3.100761e-02 -3.292411e-02 -3.671357e-02 -3.821414e-02 -4.138569e-02 
-3.851795e-02 -4.077122e-02 -4.153127e-02 -4.320514e-02 -4.353470e-02 -4.462028e-02 -4.452965e-02 -4.502534e-02 -4.453128e-02 -4.444441e-02 -4.357089e-02 -4.291924e-02 -4.169808e-02 -4.051111e-02 -3.898240e-02 -3.730224e-02 -3.551455e-02 -3.339659e-02 -3.140719e-02 -2.892060e-02 -2.679571e-02 -2.402382e-02 -2.183909e-02 -1.887983e-02 -1.672100e-02 -1.368726e-02 -1.165097e-02 -8.670845e-03 -6.865277e-03 -4.081802e-03 -2.626758e-03 -1.966550e-04 7.775200e-04 2.686734e-03 3.042153e-03 4.257458e-03 3.854418e-03 4.205793e-03 2.912011e-03 2.244823e-03 -5.128096e-05 -1.859663e-03 -5.231546e-03 -8.251217e-03 -1.271339e-02 -1.693872e-02 -2.242437e-02 -2.775078e-02 -3.409107e-02 -4.029578e-02 -4.720551e-02 -5.393767e-02 -6.101280e-02 -6.779883e-02 -7.453130e-02 -8.080014e-02 -8.661314e-02 -9.174298e-02 -9.604568e-02 -9.942816e-02 -1.016832e-01 -1.027955e-01 -1.025871e-01 -1.010581e-01 -9.814872e-02 -9.380747e-02 -8.817280e-02 -8.107383e-02 -7.291795e-02 -6.334874e-02 -5.310607e-02 -4.158617e-02 -2.991853e-02 -1.719521e-02 -4.980515e-03 7.990523e-03 1.970090e-02 3.182130e-02 4.191399e-02 5.209205e-02 5.959613e-02 6.698396e-02 7.133310e-02 7.558028e-02 7.681415e-02 7.819644e-02 7.696111e-02 7.627765e-02 7.361227e-02 7.191019e-02 6.897791e-02 6.725225e-02 6.506399e-02 6.393494e-02 6.294961e-02 6.249613e-02 6.255344e-02 6.233962e-02 6.279602e-02 6.216931e-02 6.222080e-02 6.055098e-02 5.940198e-02 5.625964e-02 5.353126e-02 4.905616e-02 4.547118e-02 4.029529e-02 3.644262e-02 3.095181e-02 2.705373e-02 2.143718e-02 1.758412e-02 1.198561e-02 8.260942e-03 2.817397e-03 -6.908901e-04 -5.859632e-03 -9.074230e-03 -1.387472e-02 -1.673764e-02 -2.110218e-02 -2.357453e-02 -2.745523e-02 -2.951302e-02 -3.287531e-02 -3.450494e-02 -3.732278e-02 
-4.411010e-02 -4.665320e-02 -4.729675e-02 -4.917015e-02 -4.940023e-02 -5.058813e-02 -5.041467e-02 -5.091068e-02 -5.034994e-02 -5.015908e-02 -4.923447e-02 -4.837483e-02 -4.711753e-02 -4.562147e-02 -4.407079e-02 -4.198568e-02 -4.018921e-02 -3.757773e-02 -3.559150e-02 -3.253170e-02 -3.042044e-02 -2.700571e-02 -2.484336e-02 -2.118251e-02 -1.905306e-02 -1.527045e-02 -1.326901e-02 -9.504674e-03 -7.738514e-03 -4.147962e-03 -2.737089e-03 5.097256e-04 1.433109e-03 4.154335e-03 4.448286e-03 6.455103e-03 5.973234e-03 7.078080e-03 5.678616e-03 5.707556e-03 3.266873e-03 2.076645e-03 -1.492433e-03 -3.992790e-03 -8.718504e-03 -1.254256e-02 -1.836929e-02 -2.342724e-02 -3.019156e-02 -3.626760e-02 -4.368033e-02 -5.041941e-02 -5.806015e-02 -6.497075e-02 -7.230139e-02 -7.878033e-02 -8.518189e-02 -9.056360e-02 -9.539593e-02 -9.902245e-02 -1.016992e-01 -1.030000e-01 -1.030650e-01 -1.016304e-01 -9.881938e-02 -9.445408e-02 -8.873142e-02 -8.148055e-02 -7.305253e-02 -6.320789e-02 -5.252277e-02 -4.062167e-02 -2.836965e-02 -1.519503e-02 -2.307520e-03 1.112174e-02 2.349901e-02 3.598650e-02 4.659731e-02 5.693005e-02 6.463442e-02 7.186534e-02 7.596686e-02 7.973148e-02 8.026154e-02 8.092644e-02 7.867944e-02 7.716700e-02 7.343396e-02 7.087221e-02 6.709525e-02 6.459674e-02 6.202821e-02 6.036428e-02 5.949893e-02 5.872489e-02 5.921787e-02 5.883489e-02 5.986059e-02 5.904967e-02 5.973666e-02 5.780620e-02 5.722817e-02 5.366632e-02 5.122131e-02 4.620503e-02 4.296611e-02 3.729761e-02 3.388536e-02 2.789731e-02 2.442069e-02 1.824782e-02 1.474584e-02 8.538236e-03 5.100918e-03 -9.735605e-04 -4.236830e-03 -1.002987e-02 -1.302589e-02 -1.842413e-02 -2.108719e-02 -2.600904e-02 -2.829777e-02 -3.268416e-02 -3.457446e-02 -3.838043e-02 -3.985925e-02 -4.304864e-02 
-4.058527e-02 -4.284883e-02 -4.358474e-02 -4.526380e-02 -4.556343e-02 -4.664398e-02 -4.651412e-02 -4.698983e-02 -4.644439e-02 -4.631856e-02 -4.537943e-02 -4.466668e-02 -4.336430e-02 -4.209182e-02 -4.046538e-02 -3.867368e-02 -3.677111e-02 -3.451446e-02 -3.239233e-02 -2.973899e-02 -2.746258e-02 -2.449511e-02 -2.213884e-02 -1.895453e-02 -1.660281e-02 -1.331440e-02 -1.106291e-02 -7.799389e-03 -5.756499e-03 -2.663680e-03 -9.515859e-04 1.808004e-03 3.053132e-03 5.301889e-03 5.931591e-03 7.480902e-03 7.339018e-03 7.996832e-03 6.928051e-03 6.511001e-03 4.374342e-03 2.725193e-03 -5.870598e-04 -3.576449e-03 -8.114639e-03 -1.247571e-02 -1.820512e-02 -2.386287e-02 -3.063580e-02 -3.738141e-02 -4.491469e-02 -5.238726e-02 -6.025244e-02 -6.793817e-02 -7.557273e-02 -8.282938e-02 -8.957512e-02 -9.568602e-02 -1.008552e-01 -1.051092e-01 -1.080701e-01 -1.098544e-01 -1.101187e-01 -1.090019e-01 -1.062926e-01 -1.020790e-01 -9.636354e-02 -8.910927e-02 -8.060095e-02 -7.060451e-02 -5.975026e-02 -4.754146e-02 -3.502093e-02 -2.136971e-02 -8.113212e-03 5.948254e-03 1.875281e-02 3.194570e-02 4.293206e-02 5.387243e-02 6.174579e-02 6.927306e-02 7.322498e-02 7.683754e-02 7.692535e-02 7.704699e-02 7.420707e-02 7.200475e-02 6.762739e-02 6.451987e-02 6.008747e-02 5.739810e-02 5.433826e-02 5.279327e-02 5.159622e-02 5.122129e-02 5.161547e-02 5.172754e-02 5.284014e-02 5.269343e-02 5.369124e-02 5.265640e-02 5.241126e-02 4.979696e-02 4.713094e-02 4.296090e-02 3.970858e-02 3.504094e-02 3.178145e-02 2.678639e-02 2.341525e-02 1.812826e-02 1.462492e-02 9.203015e-03 5.684316e-03 3.266164e-04 -3.060703e-03 -8.187341e-03 -1.132533e-02 -1.610421e-02 -1.891399e-02 -2.326882e-02 -2.570203e-02 -2.958207e-02 -3.160995e-02 -3.497864e-02 -3.658404e-02 -3.941232e-02 
-4.685117e-02 -4.942471e-02 -5.003622e-02 -5.192968e-02 -5.212116e-02 -5.331142e-02 -5.308837e-02 -5.356253e-02 -5.293763e-02 -5.269541e-02 -5.168946e-02 -5.074512e-02 -4.938757e-02 -4.777103e-02 -4.610009e-02 -4.385740e-02 -4.191985e-02 -3.911312e-02 -3.696404e-02 -3.367112e-02 -3.137392e-02 -2.768812e-02 -2.531494e-02 -2.134508e-02 -1.897790e-02 -1.484873e-02 -1.258101e-02 -8.434035e-03 -6.372737e-03 -2.367091e-03 -6.346125e-04 3.052567e-03 4.317315e-03 7.491789e-03 8.134115e-03 1.058783e-02 1.044102e-02 1.195905e-02 1.085240e-02 1.122478e-02 8.997290e-03 8.036950e-03 4.557312e-03 2.124569e-03 -2.682250e-03 -6.649156e-03 -1.277027e-02 -1.822098e-02 -2.552229e-02 -3.226122e-02 -4.045862e-02 -4.812065e-02 -5.676460e-02 -6.480934e-02 -7.329300e-02 -8.102790e-02 -8.862750e-02 -9.526589e-02 -1.012153e-01 -1.059665e-01 -1.095563e-01 -1.117321e-01 -1.124121e-01 -1.115235e-01 -1.089792e-01 -1.047975e-01 -9.898436e-02 -9.155653e-02 -8.269364e-02 -7.232634e-02 -6.087633e-02 -4.812032e-02 -3.478843e-02 -2.045334e-02 -6.223004e-03 8.578510e-03 2.240239e-02 3.624148e-02 4.807667e-02 5.935093e-02 6.760262e-02 7.494555e-02 7.853538e-02 8.140772e-02 8.034016e-02 7.938014e-02 7.485618e-02 7.150082e-02 6.535522e-02 6.105877e-02 5.522494e-02 5.144376e-02 4.781454e-02 4.565143e-02 4.472549e-02 4.399815e-02 4.500524e-02 4.506182e-02 4.682186e-02 4.650847e-02 4.833791e-02 4.713987e-02 4.788011e-02 4.505055e-02 4.264352e-02 3.814456e-02 3.554437e-02 3.069037e-02 2.819263e-02 2.286913e-02 2.008653e-02 1.428133e-02 1.118999e-02 5.142454e-03 1.932226e-03 -4.083328e-03 -7.212463e-03 -1.298779e-02 -1.589344e-02 -2.129198e-02 -2.388760e-02 -2.882159e-02 -3.105792e-02 -3.546670e-02 -3.731578e-02 -4.115200e-02 -4.259717e-02 -4.582011e-02 
-4.368744e-02 -4.597252e-02 -4.667699e-02 -4.837018e-02 -4.862922e-02 -4.970816e-02 -4.952300e-02 -4.997380e-02 -4.935394e-02 -4.917366e-02 -4.813792e-02 -4.733650e-02 -4.591348e-02 -4.451486e-02 -4.274276e-02 -4.078534e-02 -3.871148e-02 -3.624809e-02 -3.392827e-02 -3.102601e-02 -2.852413e-02 -2.526433e-02 -2.265277e-02 -1.913148e-02 -1.649210e-02 -1.282114e-02 -1.024730e-02 -6.555935e-03 -4.155039e-03 -5.919391e-04 1.511771e-03 4.776951e-03 6.440249e-03 9.216427e-03 1.027664e-02 1.235329e-02 1.263088e-02 1.378390e-02 1.308962e-02 1.309258e-02 1.124084e-02 9.883236e-03 6.712810e-03 3.826217e-03 -7.710396e-04 -5.278983e-03 -1.132247e-02 -1.742825e-02 -2.480931e-02 -3.233292e-02 -4.077850e-02 -4.935049e-02 -5.840006e-02 -6.744874e-02 -7.645740e-02 -8.522962e-02 -9.340967e-02 -1.010356e-01 -1.075415e-01 -1.131418e-01 -1.171887e-01 -1.200056e-01 -1.209932e-01 -1.205080e-01 -1.181109e-01 -1.141087e-01 -1.083042e-01 -1.008695e-01 -9.190639e-02 -8.137113e-02 -6.971884e-02 -5.661898e-02 -4.295506e-02 -2.804930e-02 -1.332359e-02 2.308560e-03 1.676026e-02 3.161147e-02 4.403851e-02 5.624161e-02 6.475611e-02 7.253992e-02 7.582272e-02 7.833551e-02 7.646333e-02 7.442478e-02 6.898132e-02 6.433525e-02 5.733447e-02 5.210275e-02 4.530800e-02 4.135719e-02 3.713510e-02 3.505129e-02 3.350116e-02 3.319054e-02 3.388894e-02 3.408447e-02 3.570982e-02 3.576755e-02 3.806909e-02 3.786707e-02 3.970915e-02 3.842070e-02 3.556141e-02 3.237545e-02 3.031848e-02 2.701354e-02 2.512960e-02 2.104346e-02 1.853586e-02 1.366579e-02 1.060026e-02 5.335863e-03 2.037072e-03 -3.258704e-03 -6.517320e-03 -1.160961e-02 -1.465682e-02 -1.941193e-02 -2.215159e-02 -2.649359e-02 -2.887251e-02 -3.275294e-02 -3.473958e-02 -3.812101e-02 -3.969422e-02 -4.254314e-02 
-5.069305e-02 -5.331921e-02 -5.389260e-02 -5.582419e-02 -5.596777e-02 -5.717041e-02 -5.688297e-02 -5.733393e-02 -5.662294e-02 -5.631430e-02 -5.519701e-02 -5.413771e-02 -5.264152e-02 -5.085841e-02 -4.902052e-02 -4.655830e-02 -4.442484e-02 -4.134534e-02 -3.897046e-02 -3.535162e-02 -3.279697e-02 -2.873204e-02 -2.606699e-02 -2.166443e-02 -1.896735e-02 -1.435161e-02 -1.171237e-02 -7.025593e-03 -4.548950e-03 4.654706e-05 2.237038e-03 6.556318e-03 8.314784e-03 1.214866e-02 1.330497e-02 1.642068e-02 1.678160e-02 1.892743e-02 1.828284e-02 1.919869e-02 1.733464e-02 1.677044e-02 1.349106e-02 1.123466e-02 6.393806e-03 2.308734e-03 -4.148967e-03 -1.007747e-02 -1.806947e-02 -2.568526e-02 -3.494496e-02 -4.387836e-02 -5.392226e-02 -6.356848e-02 -7.369290e-02 -8.322918e-02 -9.255326e-02 -1.010087e-01 -1.085720e-01 -1.149508e-01 -1.198551e-01 -1.232910e-01 -1.248495e-01 -1.247455e-01 -1.225895e-01 -1.186939e-01 -1.127979e-01 -1.051947e-01 -9.582780e-02 -8.486903e-02 -7.252210e-02 -5.876744e-02 -4.413007e-02 -2.836662e-02 -1.240972e-02 4.214078e-03 2.005840e-02 3.585185e-02 4.956246e-02 6.230913e-02 7.151062e-02 7.903071e-02 8.185766e-02 8.318274e-02 7.951209e-02 7.586733e-02 6.776229e-02 6.177775e-02 5.208127e-02 4.548019e-02 3.657396e-02 3.111237e-02 2.630690e-02 2.376979e-02 2.302288e-02 2.203953e-02 2.345564e-02 2.374771e-02 2.561274e-02 2.506352e-02 2.798466e-02 2.728451e-02 3.095442e-02 2.999447e-02 2.742856e-02 2.491385e-02 2.460256e-02 2.179640e-02 2.118672e-02 1.685686e-02 1.499885e-02 9.493772e-03 6.787176e-03 7.860704e-04 -2.242970e-03 -8.264862e-03 -1.127364e-02 -1.705514e-02 -1.986039e-02 -2.526561e-02 -2.777547e-02 -3.272685e-02 -3.489375e-02 -3.933603e-02 -4.113159e-02 -4.501586e-02 -4.641953e-02 -4.969796e-02 
-4.782327e-02 -5.014947e-02 -5.082158e-02 -5.254630e-02 -5.275979e-02 -5.384819e-02 -5.359614e-02 -5.402342e-02 -5.330922e-02 -5.306381e-02 -5.190240e-02 -5.098809e-02 -4.940614e-02 -4.784300e-02 -4.587815e-02 -4.370243e-02 -4.140191e-02 -3.866518e-02 -3.608434e-02 -3.285254e-02 -3.005373e-02 -2.640659e-02 -2.345911e-02 -1.949046e-02 -1.647183e-02 -1.229107e-02 -9.289854e-03 -5.024738e-03 -2.144701e-03 2.054895e-03 4.689719e-03 8.647686e-03 1.088797e-02 1.439854e-02 1.606596e-02 1.889251e-02 1.977918e-02 2.165713e-02 2.153026e-02 2.217649e-02 2.079065e-02 1.992181e-02 1.704120e-02 1.440317e-02 9.835614e-03 5.245372e-03 -1.111680e-03 -7.712749e-03 -1.581682e-02 -2.430281e-02 -3.390902e-02 -4.391326e-02 -5.452866e-02 -6.540888e-02 -7.627892e-02 -8.712728e-02 -9.727745e-02 -1.069974e-01 -1.153453e-01 -1.228022e-01 -1.283318e-01 -1.325515e-01 -1.345042e-01 -1.348559e-01 -1.328653e-01 -1.291495e-01 -1.232591e-01 -1.156607e-01 -1.062241e-01 -9.517073e-02 -8.271022e-02 -6.874281e-02 -5.388517e-02 -3.766013e-02 -2.125085e-02 -3.749378e-03 1.283700e-02 2.994471e-02 4.448910e-02 5.864674e-02 6.825046e-02 7.654368e-02 7.879326e-02 7.951132e-02 7.439726e-02 6.877603e-02 5.941030e-02 5.116313e-02 4.084636e-02 3.291104e-02 2.275894e-02 1.810973e-02 1.332041e-02 1.081075e-02 8.628268e-03 8.335655e-03 8.722637e-03 7.785701e-03 8.490288e-03 7.293977e-03 1.018154e-02 9.848521e-03 1.609865e-02 1.821917e-02 1.525824e-02 1.598981e-02 1.821603e-02 1.786536e-02 1.839113e-02 1.524734e-02 1.356372e-02 8.797420e-03 5.967648e-03 6.466424e-04 -2.549574e-03 -7.868066e-03 -1.103250e-02 -1.610434e-02 -1.905468e-02 -2.377647e-02 -2.642882e-02 -3.074919e-02 -3.305921e-02 -3.694057e-02 -3.887783e-02 -4.228243e-02 -4.382085e-02 -4.670764e-02 
-5.563617e-02 -5.834892e-02 -5.888596e-02 -6.088520e-02 -6.097839e-02 -6.221336e-02 -6.185203e-02 -6.228627e-02 -6.147090e-02 -6.108617e-02 -5.982976e-02 -5.862846e-02 -5.695649e-02 -5.496227e-02 -5.291163e-02 -5.016850e-02 -4.778555e-02 -4.435605e-02 -4.169457e-02 -3.765754e-02 -3.477728e-02 -3.022616e-02 -2.719252e-02 -2.223480e-02 -1.912031e-02 -1.387860e-02 -1.076634e-02 -5.381245e-03 -2.370039e-03 2.995371e-03 5.784355e-03 1.093914e-02 1.335548e-02 1.807565e-02 1.993383e-02 2.395912e-02 2.503579e-02 2.807054e-02 2.810739e-02 2.982843e-02 2.854351e-02 2.861804e-02 2.572873e-02 2.384521e-02 1.910533e-02 1.501963e-02 8.271946e-03 1.868523e-03 -6.889311e-03 -1.552549e-02 -2.606924e-02 -3.658162e-02 -4.839880e-02 -6.010970e-02 -7.237337e-02 -8.428531e-02 -9.589423e-02 -1.067718e-01 -1.164803e-01 -1.250244e-01 -1.316547e-01 -1.367403e-01 -1.394192e-01 -1.403153e-01 -1.386365e-01 -1.351121e-01 -1.291447e-01 -1.214097e-01 -1.115634e-01 -1.000948e-01 -8.693587e-02 -7.231079e-02 -5.646090e-02 -3.933687e-02 -2.158625e-02 -2.945644e-03 1.534899e-02 3.368714e-02 5.007320e-02 6.505351e-02 7.592361e-02 8.381645e-02 8.566845e-02 8.432285e-02 7.645456e-02 6.821361e-02 5.455761e-02 4.525805e-02 3.098246e-02 2.216659e-02 9.077947e-03 2.002727e-03 -2.695895e-03 -4.087363e-03 -3.753917e-03 -6.385027e-03 -6.155203e-03 -5.991235e-03 -6.630827e-03 -9.663865e-03 -8.199637e-03 -1.072487e-02 -3.891217e-03 -1.372261e-03 1.110781e-03 7.376135e-03 1.417404e-02 1.455841e-02 1.619318e-02 1.205256e-02 1.051275e-02 4.617370e-03 1.874668e-03 -4.395050e-03 -7.409946e-03 -1.353019e-02 -1.644983e-02 -2.224228e-02 -2.492900e-02 -3.032789e-02 -3.272603e-02 -3.769092e-02 -3.976964e-02 -4.425704e-02 -4.599026e-02 -4.994735e-02 -5.130828e-02 -5.467471e-02 
-5.298659e-02 -5.538672e-02 -5.603543e-02 -5.782178e-02 -5.799309e-02 -5.911305e-02 -5.878878e-02 -5.920267e-02 -5.837829e-02 -5.806333e-02 -5.674933e-02 -5.570200e-02 -5.392367e-02 -5.216014e-02 -4.995583e-02 -4.751090e-02 -4.492924e-02 -4.185419e-02 -3.895115e-02 -3.531143e-02 -3.214799e-02 -2.802156e-02 -2.466288e-02 -2.014009e-02 -1.665680e-02 -1.184218e-02 -8.314207e-03 -3.330582e-03 1.467013e-04 5.152139e-03 8.459829e-03 1.330805e-02 1.629478e-02 2.076734e-02 2.324107e-02 2.707430e-02 2.879702e-02 3.168042e-02 3.236864e-02 3.395068e-02 3.328508e-02 3.319007e-02 3.083808e-02 2.869801e-02 2.435280e-02 1.985749e-02 1.329585e-02 6.262631e-03 -2.579020e-03 -1.211902e-02 -2.305731e-02 -3.476773e-02 -4.729050e-02 -6.045695e-02 -7.367723e-02 -8.719073e-02 -9.987780e-02 -1.123193e-01 -1.230449e-01 -1.328986e-01 -1.403015e-01 -1.462710e-01 -1.493712e-01 -1.506883e-01 -1.491122e-01 -1.456776e-01 -1.396605e-01 -1.319193e-01 -1.220751e-01 -1.106977e-01 -9.769384e-02 -8.326381e-02 -6.761371e-02 -5.053395e-02 -3.271788e-02 -1.352379e-02 5.409161e-03 2.523368e-02 4.272181e-02 5.985145e-02 7.141289e-02 8.090063e-02 8.173496e-02 7.966972e-02 6.895744e-02 5.705888e-02 4.152064e-02 2.780319e-02 1.453534e-02 3.497350e-03 -1.142926e-02 -1.276827e-02 -1.307778e-02 -1.575768e-02 -2.030163e-02 -1.878345e-02 -2.364232e-02 -2.887661e-02 -3.326101e-02 -3.665151e-02 -3.996363e-02 -4.038097e-02 -4.018869e-02 -3.783068e-02 -1.432194e-02 1.662567e-03 1.371947e-02 1.507001e-02 1.644389e-02 1.201492e-02 9.707587e-03 3.960123e-03 7.403588e-04 -4.978782e-03 -8.248746e-03 -1.363097e-02 -1.670830e-02 -2.171696e-02 -2.453510e-02 -2.917900e-02 -3.171193e-02 -3.598775e-02 -3.821170e-02 -4.209446e-02 -4.397934e-02 -4.742554e-02 -4.893556e-02 -5.188938e-02 
-6.167556e-02 -6.452699e-02 -6.504114e-02 -6.715423e-02 -6.720428e-02 -6.850546e-02 -6.806788e-02 -6.850226e-02 -6.756870e-02 -6.710502e-02 -6.568385e-02 -6.431704e-02 -6.243281e-02 -6.018404e-02 -5.787511e-02 -5.478952e-02 -5.210447e-02 -4.824748e-02 -4.524128e-02 -4.069443e-02 -3.742530e-02 -3.228299e-02 -2.881119e-02 -2.317919e-02 -1.956839e-02 -1.356503e-02 -9.886747e-03 -3.647112e-03 1.182062e-05 6.328865e-03 9.856304e-03 1.605893e-02 1.930597e-02 2.515937e-02 2.792923e-02 3.314684e-02 3.518638e-02 3.942524e-02 4.042258e-02 4.328637e-02 4.287848e-02 4.393285e-02 4.172778e-02 4.053277e-02 3.615123e-02 3.231542e-02 2.545573e-02 1.871504e-02 9.242057e-03 -4.387624e-04 -1.238646e-02 -2.470117e-02 -3.860445e-02 -5.280840e-02 -6.769768e-02 -8.257322e-02 -9.705003e-02 -1.109924e-01 -1.233978e-01 -1.346628e-01 -1.434044e-01 -1.504882e-01 -1.544374e-01 -1.564495e-01 -1.552146e-01 -1.520435e-01 -1.459453e-01 -1.381104e-01 -1.278877e-01 -1.161681e-01 -1.025903e-01 -8.765143e-02 -7.123912e-02 -5.346817e-02 -3.454379e-02 -1.433182e-02 6.339042e-03 2.756594e-02 4.748180e-02 6.584481e-02 7.974927e-02 8.875623e-02 8.987209e-02 8.403849e-02 6.933357e-02 5.222012e-02 2.908830e-02 1.563986e-02 -4.091036e-03 -1.313821e-02 -3.004132e-02 -3.908161e-02 -3.554115e-02 -2.844025e-02 -3.021687e-02 -3.331519e-02 -3.548843e-02 -3.507443e-02 -3.389285e-02 -2.677152e-02 -2.632569e-02 -1.898535e-02 -2.035216e-02 -1.777660e-02 1.402641e-02 1.904269e-02 2.613472e-02 1.996873e-02 1.817565e-02 1.012977e-02 6.680616e-03 -8.080701e-04 -4.199722e-03 -1.092930e-02 -1.399869e-02 -2.014439e-02 -2.290849e-02 -2.861500e-02 -3.111066e-02 -3.644337e-02 -3.868243e-02 -4.364359e-02 -4.561309e-02 -5.016196e-02 -5.183141e-02 -5.589986e-02 -5.722837e-02 -6.073280e-02 
-5.916317e-02 -6.169002e-02 -6.233858e-02 -6.423479e-02 -6.437878e-02 -6.556752e-02 -6.517379e-02 -6.559583e-02 -6.465005e-02 -6.426876e-02 -6.277695e-02 -6.158078e-02 -5.956844e-02 -5.757065e-02 -5.507944e-02 -5.231542e-02 -4.939832e-02 -4.592137e-02 -4.263734e-02 -3.851416e-02 -3.492380e-02 -3.023103e-02 -2.639437e-02 -2.121747e-02 -1.719503e-02 -1.163019e-02 -7.487745e-03 -1.647463e-03 2.535333e-03 8.513299e-03 1.263105e-02 1.857198e-02 2.247954e-02 2.815871e-02 3.165685e-02 3.678739e-02 3.961095e-02 4.383563e-02 4.564765e-02 4.853873e-02 4.893511e-02 5.000730e-02 4.853740e-02 4.727978e-02 4.348865e-02 3.942161e-02 3.291949e-02 2.568191e-02 1.624401e-02 5.711529e-03 -6.595252e-03 -2.016951e-02 -3.485017e-02 -5.070048e-02 -6.672634e-02 -8.350080e-02 -9.930403e-02 -1.151358e-01 -1.287875e-01 -1.415897e-01 -1.512036e-01 -1.591828e-01 -1.634556e-01 -1.656671e-01 -1.642884e-01 -1.608992e-01 -1.545390e-01 -1.465646e-01 -1.364054e-01 -1.250632e-01 -1.121415e-01 -9.820946e-02 -8.291676e-02 -6.639677e-02 -4.845005e-02 -2.882006e-02 -8.136671e-03 1.422425e-02 3.545305e-02 5.693016e-02 7.220401e-02 8.475840e-02 8.439982e-02 7.885724e-02 5.816849e-02 3.467993e-02 7.528197e-03 -1.659538e-02 -3.061973e-02 -4.988237e-02 -6.596682e-02 -5.621558e-02 -5.318749e-02 -5.063806e-02 -3.467203e-02 -9.147820e-03 7.288965e-03 3.362725e-02 4.548514e-02 5.899668e-02 6.593759e-02 7.178088e-02 7.606153e-02 7.644433e-02 7.869978e-02 5.547498e-02 4.455326e-02 2.805780e-02 2.029886e-02 9.818091e-03 4.631735e-03 -2.770990e-03 -6.627078e-03 -1.254754e-02 -1.573780e-02 -2.091584e-02 -2.374063e-02 -2.850110e-02 -3.107922e-02 -3.554684e-02 -3.790664e-02 -4.210380e-02 -4.422656e-02 -4.811957e-02 -4.996127e-02 -5.348438e-02 -5.498818e-02 -5.805814e-02 
-6.879844e-02 -7.186706e-02 -7.238848e-02 -7.468477e-02 -7.471203e-02 -7.613189e-02 -7.562468e-02 -7.608933e-02 -7.502863e-02 -7.449091e-02 -7.288079e-02 -7.132798e-02 -6.919423e-02 -6.664712e-02 -6.403303e-02 -6.054153e-02 -5.750175e-02 -5.313826e-02 -4.973203e-02 -4.458426e-02 -4.086977e-02 -3.503483e-02 -3.106626e-02 -2.464757e-02 -2.047598e-02 -1.358426e-02 -9.263097e-03 -2.021885e-03 2.382951e-03 9.827131e-03 1.422302e-02 2.168674e-02 2.593715e-02 3.318381e-02 3.709012e-02 4.381377e-02 4.709913e-02 5.291184e-02 5.521096e-02 5.963844e-02 6.049863e-02 6.298990e-02 6.188963e-02 6.184788e-02 5.824017e-02 5.508262e-02 4.847089e-02 4.172502e-02 3.177730e-02 2.121722e-02 7.918155e-03 -6.266093e-03 -2.244180e-02 -3.947182e-02 -5.741141e-02 -7.581200e-02 -9.373111e-02 -1.113927e-01 -1.270346e-01 -1.415545e-01 -1.526957e-01 -1.619990e-01 -1.671465e-01 -1.701504e-01 -1.690405e-01 -1.659404e-01 -1.594331e-01 -1.513880e-01 -1.408837e-01 -1.293026e-01 -1.160430e-01 -1.018985e-01 -8.639548e-02 -6.976583e-02 -5.156938e-02 -3.161318e-02 -9.963006e-03 1.351819e-02 3.726594e-02 6.048331e-02 7.971869e-02 9.218641e-02 9.466412e-02 8.262168e-02 5.806717e-02 2.242654e-02 -1.889119e-02 -3.967609e-02 -7.379964e-02 -9.361384e-02 -5.600821e-02 -3.519963e-02 -2.691153e-02 3.372695e-02 6.267464e-02 9.800044e-02 1.114397e-01 1.202284e-01 1.212095e-01 1.189724e-01 1.207122e-01 1.144921e-01 1.196574e-01 1.133147e-01 1.024636e-01 6.474900e-02 4.540863e-02 2.398097e-02 1.431122e-02 2.509222e-03 -2.601200e-03 -1.048573e-02 -1.381058e-02 -2.013792e-02 -2.276035e-02 -2.844177e-02 -3.076517e-02 -3.613990e-02 -3.830023e-02 -4.346653e-02 -4.548643e-02 -5.042973e-02 -5.227910e-02 -5.692608e-02 -5.854854e-02 -6.279341e-02 -6.411998e-02 -6.784025e-02 
-6.632924e-02 -6.906395e-02 -6.975542e-02 -7.183427e-02 -7.198094e-02 -7.329528e-02 -7.284480e-02 -7.331055e-02 -7.223695e-02 -7.180097e-02 -7.010658e-02 -6.874943e-02 -6.646305e-02 -6.419760e-02 -6.136897e-02 -5.823531e-02 -5.492694e-02 -5.098487e-02 -4.726318e-02 -4.258423e-02 -3.851187e-02 -3.317294e-02 -2.880434e-02 -2.288475e-02 -1.826642e-02 -1.184960e-02 -7.025853e-03 -2.064030e-04 4.769207e-03 1.187314e-02 1.692130e-02 2.415110e-02 2.914630e-02 3.628291e-02 4.103134e-02 4.777484e-02 5.199368e-02 5.794605e-02 6.124867e-02 6.590485e-02 6.779756e-02 7.055106e-02 7.044831e-02 7.061944e-02 6.788586e-02 6.478172e-02 5.881016e-02 5.182662e-02 4.216141e-02 3.093563e-02 1.744542e-02 2.058872e-03 -1.485115e-02 -3.364323e-02 -5.282507e-02 -7.340980e-02 -9.287609e-02 -1.127854e-01 -1.298882e-01 -1.461721e-01 -1.582049e-01 -1.682650e-01 -1.734142e-01 -1.760421e-01 -1.741834e-01 -1.701092e-01 -1.627756e-01 -1.541378e-01 -1.436178e-01 -1.327086e-01 -1.208431e-01 -1.089996e-01 -9.624750e-02 -8.314649e-02 -6.809743e-02 -5.139679e-02 -3.148056e-02 -8.707161e-03 1.611580e-02 4.285137e-02 6.473293e-02 8.437388e-02 8.562350e-02 7.934458e-02 4.291947e-02 1.625632e-03 -4.868443e-02 -9.179565e-02 -1.152309e-01 -7.371686e-02 -6.221048e-02 -1.288620e-02 6.308855e-02 1.197531e-01 1.247716e-01 1.113374e-01 9.858057e-02 7.727008e-02 6.783435e-02 5.381259e-02 4.983616e-02 3.989807e-02 4.016869e-02 3.220535e-02 4.263931e-02 2.514387e-02 1.808550e-02 5.776128e-03 4.768249e-04 -7.160912e-03 -1.060176e-02 -1.605806e-02 -1.864900e-02 -2.324162e-02 -2.553303e-02 -2.983239e-02 -3.204500e-02 -3.626353e-02 -3.845265e-02 -4.263432e-02 -4.477576e-02 -4.888050e-02 -5.091054e-02 -5.485261e-02 -5.668726e-02 -6.035452e-02 -6.190043e-02 -6.516659e-02 
-7.698446e-02 -8.038500e-02 -8.096613e-02 -8.354568e-02 -8.358726e-02 -8.520209e-02 -8.464255e-02 -8.518363e-02 -8.399151e-02 -8.339285e-02 -8.156913e-02 -7.981124e-02 -7.738700e-02 -7.449450e-02 -7.152399e-02 -6.755799e-02 -6.410854e-02 -5.915554e-02 -5.529633e-02 -4.945630e-02 -4.524874e-02 -3.862503e-02 -3.411701e-02 -2.681070e-02 -2.203642e-02 -1.414644e-02 -9.132816e-03 -7.629733e-04 4.457200e-03 1.318452e-02 1.855320e-02 2.747726e-02 3.288686e-02 4.178453e-02 4.705086e-02 5.561090e-02 6.044696e-02 6.824682e-02 7.224198e-02 7.873277e-02 8.134391e-02 8.585059e-02 8.641311e-02 8.815935e-02 8.592777e-02 8.409645e-02 7.832656e-02 7.216930e-02 6.225490e-02 5.126346e-02 3.693829e-02 2.108310e-02 2.683305e-03 -1.730295e-02 -3.856195e-02 -6.093853e-02 -8.279913e-02 -1.047869e-01 -1.241302e-01 -1.423446e-01 -1.559537e-01 -1.674254e-01 -1.732537e-01 -1.766611e-01 -1.748168e-01 -1.709981e-01 -1.633729e-01 -1.546620e-01 -1.437904e-01 -1.326902e-01 -1.206961e-01 -1.089027e-01 -9.666481e-02 -8.437370e-02 -7.073483e-02 -5.534573e-02 -3.685938e-02 -1.447741e-02 1.088785e-02 3.931048e-02 6.567493e-02 8.646566e-02 9.610668e-02 8.043639e-02 4.998497e-02 -1.939053e-02 -8.140554e-02 -9.377991e-02 -7.924723e-02 -3.734226e-02 8.709040e-03 1.400125e-01 1.629949e-01 1.065664e-01 7.101370e-02 3.339374e-02 7.582037e-03 -1.787515e-02 -2.531356e-02 -3.863220e-02 -4.114374e-02 -4.741614e-02 -4.841868e-02 -5.252734e-02 -4.053540e-02 -3.020601e-02 -2.198185e-02 -2.132863e-02 -1.969699e-02 -2.261661e-02 -2.296731e-02 -2.685451e-02 -2.783853e-02 -3.212511e-02 -3.343684e-02 -3.801448e-02 -3.956010e-02 -4.436698e-02 -4.607297e-02 -5.101878e-02 -5.279979e-02 -5.776181e-02 -5.951982e-02 -6.434960e-02 -6.597763e-02 -7.050838e-02 -7.189500e-02 -7.594955e-02 