# vtk DataFile Version 2.0
Comment goes here
ASCII

DATASET STRUCTURED_POINTS
DIMENSIONS    128   128   1

ORIGIN    0.000   0.000   0.000
SPACING   0.0156250.015625   1.000

POINT_DATA   16384
SCALARS uX double
LOOKUP_TABLE default

-8.922347e-02 -9.604752e-02 -9.778310e-02 -1.032103e-01 -1.040366e-01 -1.080259e-01 -1.079702e-01 -1.105026e-01 -1.096097e-01 -1.106914e-01 -1.090243e-01 -1.086895e-01 -1.063301e-01 -1.046435e-01 -1.016924e-01 -9.875071e-02 -9.532716e-02 -9.125968e-02 -8.750097e-02 -8.246933e-02 -7.853009e-02 -7.272779e-02 -6.877950e-02 -6.243079e-02 -5.866136e-02 -5.201974e-02 -4.863294e-02 -4.197892e-02 -3.919313e-02 -3.283069e-02 -3.087633e-02 -2.512725e-02 -2.424173e-02 -1.943694e-02 -1.985618e-02 -1.632288e-02 -1.826837e-02 -1.631234e-02 -1.997297e-02 -1.985553e-02 -2.536417e-02 -2.727402e-02 -3.467973e-02 -3.870121e-02 -4.793900e-02 -5.401941e-02 -6.488129e-02 -7.280157e-02 -8.491386e-02 -9.426825e-02 -1.070814e-01 -1.172726e-01 -1.300698e-01 -1.403255e-01 -1.522553e-01 -1.616703e-01 -1.718042e-01 -1.794069e-01 -1.868190e-01 -1.916577e-01 -1.955166e-01 -1.967542e-01 -1.964149e-01 -1.934202e-01 -1.885037e-01 -1.809280e-01 -1.713807e-01 -1.592146e-01 -1.453462e-01 -1.289567e-01 -1.114582e-01 -9.160469e-02 -7.154506e-02 -4.936788e-02 -2.815567e-02 -5.118532e-03 1.559650e-02 3.783931e-02 5.635315e-02 7.618163e-02 9.101466e-02 1.071357e-01 1.173491e-01 1.290694e-01 1.345066e-01 1.418667e-01 1.432021e-01 1.469043e-01 1.454663e-01 1.466443e-01 1.440669e-01 1.439676e-01 1.417273e-01 1.413051e-01 1.402364e-01 1.397997e-01 1.398955e-01 1.390720e-01 1.396578e-01 1.376195e-01 1.376881e-01 1.335408e-01 1.321128e-01 1.252657e-01 1.218071e-01 1.122794e-01 1.069920e-01 9.538377e-02 8.883297e-02 7.588444e-02 6.861828e-02 5.496053e-02 4.740537e-02 3.353013e-02 2.601397e-02 1.230590e-02 5.087904e-03 -8.149110e-03 -1.486567e-02 -2.739239e-02 -3.345400e-02 -4.508301e-02 -5.037930e-02 -6.096300e-02 -6.541887e-02 -7.483915e-02 -7.840730e-02 -8.656826e-02 
-8.099389e-02 -8.729139e-02 -8.921001e-02 -9.425550e-02 -9.523116e-02 -9.899110e-02 -9.904866e-02 -1.015084e-01 -1.006910e-01 -1.018576e-01 -1.002275e-01 -1.001332e-01 -9.777217e-02 -9.647614e-02 -9.348577e-02 -9.107615e-02 -8.757723e-02 -8.417198e-02 -8.030394e-02 -7.605121e-02 -7.197131e-02 -6.704930e-02 -6.293203e-02 -5.754852e-02 -5.358504e-02 -4.797650e-02 -4.437391e-02 -3.880377e-02 -3.578390e-02 -3.053955e-02 -2.833622e-02 -2.372374e-02 -2.257777e-02 -1.891355e-02 -1.906421e-02 -1.666235e-02 -1.833442e-02 -1.748902e-02 -2.087467e-02 -2.183674e-02 -2.707208e-02 -3.002127e-02 -3.715857e-02 -4.217111e-02 -5.114854e-02 -5.816426e-02 -6.877689e-02 -7.756955e-02 -8.944657e-02 -9.960330e-02 -1.121977e-01 -1.231142e-01 -1.357114e-01 -1.466090e-01 -1.583596e-01 -1.683279e-01 -1.783057e-01 -1.863714e-01 -1.936537e-01 -1.988679e-01 -2.026280e-01 -2.041617e-01 -2.037610e-01 -2.009948e-01 -1.960608e-01 -1.886578e-01 -1.791404e-01 -1.670973e-01 -1.533023e-01 -1.369809e-01 -1.195855e-01 -9.972735e-02 -7.977602e-02 -5.749680e-02 -3.636748e-02 -1.311088e-02 7.576356e-03 3.015579e-02 4.871974e-02 6.897104e-02 8.394580e-02 1.005180e-01 1.109690e-01 1.231063e-01 1.288642e-01 1.365721e-01 1.382634e-01 1.422595e-01 1.411206e-01 1.425957e-01 1.401624e-01 1.404238e-01 1.381350e-01 1.381683e-01 1.368913e-01 1.370295e-01 1.368405e-01 1.367120e-01 1.369953e-01 1.357884e-01 1.355576e-01 1.323764e-01 1.306334e-01 1.248496e-01 1.210341e-01 1.126257e-01 1.069751e-01 9.653897e-02 8.964363e-02 7.790335e-02 7.030802e-02 5.786809e-02 4.999002e-02 3.731897e-02 2.948249e-02 1.694716e-02 9.412692e-03 -2.698457e-03 -9.724294e-03 -2.118728e-02 -2.754705e-02 -3.819009e-02 -4.376940e-02 -5.346057e-02 -5.818030e-02 -6.681662e-02 -7.062547e-02 -7.812503e-02 
-9.045245e-02 -9.728317e-02 -9.899447e-02 -1.044259e-01 -1.052257e-01 -1.092137e-01 -1.091272e-01 -1.116498e-01 -1.107204e-01 -1.117812e-01 -1.100708e-01 -1.097022e-01 -1.072920e-01 -1.055576e-01 -1.025481e-01 -9.954388e-02 -9.605442e-02 -9.190947e-02 -8.807733e-02 -8.295350e-02 -7.893338e-02 -7.302447e-02 -6.898784e-02 -6.251855e-02 -5.865322e-02 -5.187770e-02 -4.838743e-02 -4.158721e-02 -3.869077e-02 -3.217147e-02 -3.010039e-02 -2.418651e-02 -2.318049e-02 -1.820705e-02 -1.850591e-02 -1.480606e-02 -1.663711e-02 -1.452462e-02 -1.808463e-02 -1.783085e-02 -2.326253e-02 -2.506789e-02 -3.243139e-02 -3.639287e-02 -4.563446e-02 -5.171150e-02 -6.263294e-02 -7.061622e-02 -8.284995e-02 -9.233888e-02 -1.053356e-01 -1.157313e-01 -1.287671e-01 -1.392877e-01 -1.514958e-01 -1.612185e-01 -1.716486e-01 -1.795784e-01 -1.872795e-01 -1.924388e-01 -1.965555e-01 -1.980834e-01 -1.979513e-01 -1.951971e-01 -1.904243e-01 -1.830247e-01 -1.735491e-01 -1.614828e-01 -1.476071e-01 -1.312299e-01 -1.136382e-01 -9.369971e-02 -7.345769e-02 -5.109776e-02 -2.962582e-02 -6.329596e-03 1.468044e-02 3.720284e-02 5.596695e-02 7.600809e-02 9.094303e-02 1.071198e-01 1.172011e-01 1.287739e-01 1.338243e-01 1.408567e-01 1.416107e-01 1.448761e-01 1.427769e-01 1.434954e-01 1.403258e-01 1.398580e-01 1.372506e-01 1.366564e-01 1.354997e-01 1.350925e-01 1.353180e-01 1.346743e-01 1.355301e-01 1.337377e-01 1.341569e-01 1.302551e-01 1.291529e-01 1.224702e-01 1.191903e-01 1.097238e-01 1.045648e-01 9.301573e-02 8.661280e-02 7.374613e-02 6.663063e-02 5.305401e-02 4.562531e-02 3.181421e-02 2.439377e-02 1.073147e-02 3.584644e-03 -9.620875e-03 -1.628285e-02 -2.878889e-02 -3.480696e-02 -4.642421e-02 -5.168478e-02 -6.226437e-02 -6.669028e-02 -7.611252e-02 -7.965463e-02 -8.782134e-02 
-8.334519e-02 -8.964614e-02 -9.151908e-02 -9.656598e-02 -9.749074e-02 -1.012439e-01 -1.012414e-01 -1.036803e-01 -1.027907e-01 -1.039178e-01 -1.022010e-01 -1.020447e-01 -9.958148e-02 -9.819830e-02 -9.508987e-02 -9.256645e-02 -8.893374e-02 -8.538726e-02 -8.137003e-02 -7.694839e-02 -7.270418e-02 -6.758565e-02 -6.328904e-02 -5.768172e-02 -5.352377e-02 -4.766487e-02 -4.385280e-02 -3.800728e-02 -3.476369e-02 -2.922184e-02 -2.678280e-02 -2.185575e-02 -2.046663e-02 -1.647879e-02 -1.638657e-02 -1.366373e-02 -1.510475e-02 -1.395693e-02 -1.713899e-02 -1.783729e-02 -2.291594e-02 -2.566356e-02 -3.271305e-02 -3.761157e-02 -4.659241e-02 -5.360602e-02 -6.433260e-02 -7.325457e-02 -8.536822e-02 -9.579580e-02 -1.087500e-01 -1.200753e-01 -1.331410e-01 -1.445651e-01 -1.568622e-01 -1.674388e-01 -1.779972e-01 -1.867050e-01 -1.945518e-01 -2.003906e-01 -2.046521e-01 -2.067472e-01 -2.067486e-01 -2.044465e-01 -1.997934e-01 -1.927346e-01 -1.833648e-01 -1.715284e-01 -1.577379e-01 -1.414655e-01 -1.239180e-01 -1.039274e-01 -8.365742e-02 -6.105086e-02 -3.945259e-02 -1.570028e-02 5.530336e-03 2.867564e-02 4.770353e-02 6.841695e-02 8.357453e-02 1.003078e-01 1.105005e-01 1.223750e-01 1.274119e-01 1.344576e-01 1.350929e-01 1.381762e-01 1.358365e-01 1.363557e-01 1.328004e-01 1.323131e-01 1.292717e-01 1.289392e-01 1.273964e-01 1.275754e-01 1.275627e-01 1.277470e-01 1.285175e-01 1.277716e-01 1.282324e-01 1.255600e-01 1.244882e-01 1.190841e-01 1.156154e-01 1.073664e-01 1.019817e-01 9.170830e-02 8.513162e-02 7.359380e-02 6.631532e-02 5.406362e-02 4.644312e-02 3.391815e-02 2.627178e-02 1.384318e-02 6.447749e-03 -5.585281e-03 -1.250563e-02 -2.391171e-02 -3.018812e-02 -4.079208e-02 -4.630375e-02 -5.597171e-02 -6.063532e-02 -6.926174e-02 -7.302218e-02 -8.052116e-02 
-9.412945e-02 -1.009838e-01 -1.026240e-01 -1.080721e-01 -1.087937e-01 -1.127811e-01 -1.126036e-01 -1.150993e-01 -1.140614e-01 -1.150615e-01 -1.132220e-01 -1.127534e-01 -1.101917e-01 -1.083146e-01 -1.051308e-01 -1.019395e-01 -9.825291e-02 -9.387617e-02 -8.982477e-02 -8.442495e-02 -8.016370e-02 -7.393564e-02 -6.963592e-02 -6.280565e-02 -5.865489e-02 -5.147835e-02 -4.768005e-02 -4.044152e-02 -3.721518e-02 -3.022487e-02 -2.780487e-02 -2.139485e-02 -2.002719e-02 -1.454429e-02 -1.447988e-02 -1.027449e-02 -1.175760e-02 -9.166994e-03 -1.241773e-02 -1.174313e-02 -1.693351e-02 -1.841065e-02 -2.563441e-02 -2.939862e-02 -3.863656e-02 -4.468462e-02 -5.576888e-02 -6.392207e-02 -7.650484e-02 -8.637951e-02 -9.991370e-02 -1.109076e-01 -1.246481e-01 -1.359510e-01 -1.489853e-01 -1.596213e-01 -1.709322e-01 -1.798348e-01 -1.883944e-01 -1.945077e-01 -1.993880e-01 -2.017797e-01 -2.022609e-01 -2.002251e-01 -1.958808e-01 -1.890152e-01 -1.797642e-01 -1.680176e-01 -1.541461e-01 -1.378424e-01 -1.200123e-01 -9.986802e-02 -7.912642e-02 -5.626669e-02 -3.405316e-02 -1.001123e-02 1.187209e-02 3.522763e-02 5.475797e-02 7.544693e-02 9.070862e-02 1.070507e-01 1.167298e-01 1.278293e-01 1.316761e-01 1.376882e-01 1.366388e-01 1.385782e-01 1.344360e-01 1.337572e-01 1.287520e-01 1.271528e-01 1.234440e-01 1.223403e-01 1.209524e-01 1.206140e-01 1.212053e-01 1.210619e-01 1.226560e-01 1.215365e-01 1.229963e-01 1.198280e-01 1.197962e-01 1.136703e-01 1.109370e-01 1.016962e-01 9.699462e-02 8.571271e-02 7.984909e-02 6.729877e-02 6.068668e-02 4.738005e-02 4.034065e-02 2.672341e-02 1.958361e-02 6.053977e-03 -8.870741e-04 -1.400159e-02 -2.050460e-02 -3.295039e-02 -3.884028e-02 -5.042362e-02 -5.557854e-02 -6.614767e-02 -7.048513e-02 -7.991591e-02 -8.338153e-02 -9.156884e-02 
-8.802588e-02 -9.434019e-02 -9.612620e-02 -1.011825e-01 -1.020094e-01 -1.057549e-01 -1.056356e-01 -1.080383e-01 -1.070066e-01 -1.080589e-01 -1.061706e-01 -1.058934e-01 -1.032271e-01 -1.016722e-01 -9.832875e-02 -9.557984e-02 -9.168076e-02 -8.785379e-02 -8.353992e-02 -7.878251e-02 -7.421217e-02 -6.870282e-02 -6.405071e-02 -5.799814e-02 -5.345494e-02 -4.709748e-02 -4.287007e-02 -3.647517e-02 -3.278697e-02 -2.664991e-02 -2.374052e-02 -1.818153e-02 -1.630433e-02 -1.166275e-02 -1.107904e-02 -7.703066e-03 -8.671291e-03 -6.901909e-03 -9.660510e-03 -9.808591e-03 -1.455182e-02 -1.686789e-02 -2.371460e-02 -2.835199e-02 -3.730885e-02 -4.428244e-02 -5.520486e-02 -6.434969e-02 -7.690611e-02 -8.784277e-02 -1.014904e-01 -1.136063e-01 -1.275882e-01 -1.400452e-01 -1.534194e-01 -1.651973e-01 -1.769031e-01 -1.868817e-01 -1.958420e-01 -2.029153e-01 -2.081604e-01 -2.113627e-01 -2.121494e-01 -2.107657e-01 -2.066652e-01 -2.003028e-01 -1.912428e-01 -1.798588e-01 -1.661260e-01 -1.500281e-01 -1.322591e-01 -1.121098e-01 -9.130023e-02 -6.814764e-02 -4.569010e-02 -2.101867e-02 1.272127e-03 2.553992e-02 4.552212e-02 6.719880e-02 8.275249e-02 9.983585e-02 1.094800e-01 1.207928e-01 1.242902e-01 1.299304e-01 1.283705e-01 1.295629e-01 1.247749e-01 1.233300e-01 1.174415e-01 1.154523e-01 1.108993e-01 1.098374e-01 1.077444e-01 1.079909e-01 1.082478e-01 1.089260e-01 1.105034e-01 1.105058e-01 1.123240e-01 1.106572e-01 1.111576e-01 1.066930e-01 1.039202e-01 9.609019e-02 9.141292e-02 8.166757e-02 7.593880e-02 6.494712e-02 5.840125e-02 4.656943e-02 3.947578e-02 2.723934e-02 1.995572e-02 7.729272e-03 5.949354e-04 -1.128842e-02 -1.800790e-02 -2.930266e-02 -3.541779e-02 -4.594518e-02 -5.132530e-02 -6.094954e-02 -6.550464e-02 -7.411563e-02 -7.778345e-02 -8.528700e-02 
-1.002228e-01 -1.071283e-01 -1.086576e-01 -1.141449e-01 -1.147431e-01 -1.187402e-01 -1.184165e-01 -1.208764e-01 -1.196618e-01 -1.205679e-01 -1.185160e-01 -1.178861e-01 -1.150740e-01 -1.129628e-01 -1.094901e-01 -1.059898e-01 -1.019769e-01 -9.721627e-02 -9.280249e-02 -8.694525e-02 -8.228641e-02 -7.552942e-02 -7.079675e-02 -6.336822e-02 -5.874808e-02 -5.090644e-02 -4.660107e-02 -3.863426e-02 -3.486309e-02 -2.708763e-02 -2.408815e-02 -1.684705e-02 -1.487389e-02 -8.531836e-03 -7.852496e-03 -2.786816e-03 -3.672116e-03 -2.577440e-04 -2.965538e-03 -1.552627e-03 -6.303501e-03 -7.186832e-03 -1.413147e-02 -1.751190e-02 -2.669117e-02 -3.263091e-02 -4.393164e-02 -5.230755e-02 -6.541985e-02 -7.588176e-02 -9.026685e-02 -1.022112e-01 -1.170916e-01 -1.296630e-01 -1.440482e-01 -1.561803e-01 -1.689370e-01 -1.794392e-01 -1.894045e-01 -1.970862e-01 -2.032085e-01 -2.070189e-01 -2.084915e-01 -2.076424e-01 -2.039981e-01 -1.980404e-01 -1.891881e-01 -1.780390e-01 -1.642550e-01 -1.481957e-01 -1.301055e-01 -1.097844e-01 -8.837490e-02 -6.485110e-02 -4.153574e-02 -1.636141e-02 6.935684e-03 3.166809e-02 5.253977e-02 7.436186e-02 9.026060e-02 1.068854e-01 1.158812e-01 1.260727e-01 1.277416e-01 1.319014e-01 1.276247e-01 1.273305e-01 1.195928e-01 1.165657e-01 1.082920e-01 1.047375e-01 9.925086e-02 9.739245e-02 9.579583e-02 9.546690e-02 9.653292e-02 9.705810e-02 9.949300e-02 9.914254e-02 1.021818e-01 1.001238e-01 1.022914e-01 9.741080e-02 9.561970e-02 8.699444e-02 8.344223e-02 7.300441e-02 6.840896e-02 5.661079e-02 5.097245e-02 3.816216e-02 3.176596e-02 1.845249e-02 1.174167e-02 -1.588362e-03 -8.215766e-03 -2.118855e-02 -2.744207e-02 -3.979059e-02 -4.547462e-02 -5.700401e-02 -6.198844e-02 -7.254527e-02 -7.674131e-02 -8.619461e-02 -8.953978e-02 -9.777204e-02 
-9.498840e-02 -1.013394e-01 -1.030069e-01 -1.080938e-01 -1.087845e-01 -1.125342e-01 -1.122482e-01 -1.146097e-01 -1.133712e-01 -1.143220e-01 -1.121807e-01 -1.117307e-01 -1.087627e-01 -1.069567e-01 -1.032630e-01 -1.001812e-01 -9.588553e-02 -9.164280e-02 -8.688829e-02 -8.163261e-02 -7.657927e-02 -7.048988e-02 -6.531267e-02 -5.859896e-02 -5.348739e-02 -4.638867e-02 -4.154786e-02 -3.433382e-02 -2.998652e-02 -2.295792e-02 -1.934656e-02 -1.283476e-02 -1.022195e-02 -4.585947e-03 -3.251622e-03 1.129523e-03 8.963321e-04 3.637414e-03 1.554114e-03 2.285905e-03 -1.899294e-03 -3.498579e-03 -9.972753e-03 -1.413644e-02 -2.297910e-02 -2.980294e-02 -4.093691e-02 -5.032573e-02 -6.346762e-02 -7.508516e-02 -8.970485e-02 -1.029384e-01 -1.182416e-01 -1.321969e-01 -1.471468e-01 -1.606889e-01 -1.740804e-01 -1.859309e-01 -1.965192e-01 -2.054037e-01 -2.120683e-01 -2.168836e-01 -2.187864e-01 -2.187412e-01 -2.154290e-01 -2.101140e-01 -2.015377e-01 -1.909161e-01 -1.773829e-01 -1.617367e-01 -1.438491e-01 -1.237443e-01 -1.023971e-01 -7.873347e-02 -5.522159e-02 -2.939298e-02 -5.604006e-03 2.030615e-02 4.179448e-02 6.503304e-02 8.128696e-02 9.899394e-02 1.077260e-01 1.180842e-01 1.189485e-01 1.222164e-01 1.171264e-01 1.153270e-01 1.068658e-01 1.024008e-01 9.279544e-02 8.872303e-02 8.208357e-02 7.998729e-02 7.703273e-02 7.736871e-02 7.773497e-02 7.865592e-02 8.072944e-02 8.112663e-02 8.464601e-02 8.418984e-02 8.785512e-02 8.552842e-02 8.377585e-02 7.706611e-02 7.426365e-02 6.601763e-02 6.216302e-02 5.228393e-02 4.698065e-02 3.578588e-02 2.942721e-02 1.756480e-02 1.074952e-02 -1.212665e-03 -8.002065e-03 -1.967434e-02 -2.611456e-02 -3.724439e-02 -4.312838e-02 -5.354268e-02 -5.873384e-02 -6.829873e-02 -7.270062e-02 -8.129964e-02 -8.483983e-02 -9.236508e-02 
-1.086741e-01 -1.156770e-01 -1.170677e-01 -1.226354e-01 -1.230754e-01 -1.271089e-01 -1.265926e-01 -1.290214e-01 -1.275682e-01 -1.283575e-01 -1.260143e-01 -1.251693e-01 -1.220106e-01 -1.195793e-01 -1.157056e-01 -1.117781e-01 -1.073128e-01 -1.020195e-01 -9.710488e-02 -9.061278e-02 -8.540666e-02 -7.791609e-02 -7.258965e-02 -6.433181e-02 -5.906913e-02 -5.030498e-02 -4.530477e-02 -3.632545e-02 -3.180434e-02 -2.293237e-02 -1.912870e-02 -1.071885e-02 -7.895336e-03 -3.332695e-04 1.223569e-03 7.526838e-03 7.512824e-03 1.213311e-02 1.024041e-02 1.276126e-02 8.702331e-03 8.746436e-03 2.289250e-03 -4.388322e-04 -9.424166e-03 -1.508465e-02 -2.657001e-02 -3.512736e-02 -4.886694e-02 -6.002952e-02 -7.550706e-02 -8.867995e-02 -1.050791e-01 -1.193482e-01 -1.355673e-01 -1.497358e-01 -1.644661e-01 -1.771569e-01 -1.890296e-01 -1.988504e-01 -2.066301e-01 -2.123637e-01 -2.151339e-01 -2.158975e-01 -2.131718e-01 -2.084927e-01 -2.002202e-01 -1.900208e-01 -1.765127e-01 -1.610465e-01 -1.428916e-01 -1.226992e-01 -1.007489e-01 -7.671089e-02 -5.221020e-02 -2.575291e-02 -6.270517e-04 2.597618e-02 4.886116e-02 7.241462e-02 8.946494e-02 1.065339e-01 1.145777e-01 1.231496e-01 1.213021e-01 1.223797e-01 1.130112e-01 1.096556e-01 9.658313e-02 9.045515e-02 7.715207e-02 7.079371e-02 6.331241e-02 6.101997e-02 5.984904e-02 5.902476e-02 6.017581e-02 6.124457e-02 6.345544e-02 6.289483e-02 6.720993e-02 6.578533e-02 7.215563e-02 7.010178e-02 6.992067e-02 6.341429e-02 6.309222e-02 5.498606e-02 5.295495e-02 4.247409e-02 3.823477e-02 2.601521e-02 2.035800e-02 7.351331e-03 1.115494e-03 -1.198986e-02 -1.823979e-02 -3.102645e-02 -3.695478e-02 -4.916634e-02 -5.457290e-02 -6.602907e-02 -7.078453e-02 -8.133482e-02 -8.534563e-02 -9.484892e-02 -9.804117e-02 -1.063600e-01 
-1.041530e-01 -1.105857e-01 -1.121185e-01 -1.172788e-01 -1.178083e-01 -1.215929e-01 -1.211009e-01 -1.234326e-01 -1.219300e-01 -1.227654e-01 -1.202944e-01 -1.196292e-01 -1.162638e-01 -1.141344e-01 -1.099778e-01 -1.064615e-01 -1.016421e-01 -9.685422e-02 -9.152023e-02 -8.561061e-02 -7.992546e-02 -7.307519e-02 -6.721445e-02 -5.963370e-02 -5.378432e-02 -4.571230e-02 -4.007475e-02 -3.178153e-02 -2.657410e-02 -1.836386e-02 -1.382811e-02 -6.042297e-03 -2.447752e-03 4.533833e-03 6.888025e-03 1.265056e-02 1.343979e-02 1.754387e-02 1.643068e-02 1.843238e-02 1.508999e-02 1.457290e-02 8.721654e-03 5.342213e-03 -3.200571e-03 -9.654398e-03 -2.091234e-02 -3.045177e-02 -4.422035e-02 -5.658311e-02 -7.236428e-02 -8.695256e-02 -1.039118e-01 -1.197631e-01 -1.367348e-01 -1.525537e-01 -1.681218e-01 -1.823969e-01 -1.950649e-01 -2.062708e-01 -2.146976e-01 -2.215400e-01 -2.247722e-01 -2.263886e-01 -2.239950e-01 -2.200248e-01 -2.120743e-01 -2.025784e-01 -1.894906e-01 -1.747865e-01 -1.571558e-01 -1.376829e-01 -1.162069e-01 -9.255012e-02 -6.819896e-02 -4.138703e-02 -1.587815e-02 1.205437e-02 3.569716e-02 6.128057e-02 7.877864e-02 9.761782e-02 1.049734e-01 1.138005e-01 1.102336e-01 1.095601e-01 9.909244e-02 9.295126e-02 8.008919e-02 7.158195e-02 5.653140e-02 5.096947e-02 4.299387e-02 3.965468e-02 3.527373e-02 3.595564e-02 3.552939e-02 3.525213e-02 3.581549e-02 3.464160e-02 3.864961e-02 3.782883e-02 4.716698e-02 4.970880e-02 5.028696e-02 4.778818e-02 5.067081e-02 4.605591e-02 4.555517e-02 3.715777e-02 3.326020e-02 2.257646e-02 1.686062e-02 5.288471e-03 -1.090605e-03 -1.276955e-02 -1.917387e-02 -3.056916e-02 -3.666122e-02 -4.756204e-02 -5.314871e-02 -6.341117e-02 -6.836318e-02 -7.786085e-02 -8.207677e-02 -9.068278e-02 -9.407537e-02 -1.016594e-01 
-1.193899e-01 -1.265654e-01 -1.278081e-01 -1.335246e-01 -1.337877e-01 -1.379083e-01 -1.371650e-01 -1.395871e-01 -1.378419e-01 -1.385060e-01 -1.357978e-01 -1.346938e-01 -1.310956e-01 -1.282643e-01 -1.238802e-01 -1.194120e-01 -1.143716e-01 -1.084014e-01 -1.028538e-01 -9.555512e-02 -8.966234e-02 -8.124169e-02 -7.517520e-02 -6.586778e-02 -5.980752e-02 -4.987610e-02 -4.401330e-02 -3.374989e-02 -2.829294e-02 -1.802288e-02 -1.320513e-02 -3.292002e-03 6.205866e-04 9.771313e-03 1.247537e-02 2.041680e-02 2.157248e-02 2.782387e-02 2.706492e-02 3.112948e-02 2.808527e-02 2.948114e-02 2.381370e-02 2.212036e-02 1.357799e-02 8.499281e-03 -3.013413e-03 -1.157134e-02 -2.591093e-02 -3.775325e-02 -5.445375e-02 -6.901727e-02 -8.722681e-02 -1.035330e-01 -1.220043e-01 -1.386806e-01 -1.558540e-01 -1.712572e-01 -1.854591e-01 -1.979053e-01 -2.076362e-01 -2.156855e-01 -2.199035e-01 -2.225895e-01 -2.208579e-01 -2.177599e-01 -2.101905e-01 -2.013392e-01 -1.883964e-01 -1.740946e-01 -1.563798e-01 -1.370465e-01 -1.151854e-01 -9.134941e-02 -6.614090e-02 -3.876076e-02 -1.174776e-02 1.703579e-02 4.269752e-02 6.881076e-02 8.798660e-02 1.058838e-01 1.129054e-01 1.185634e-01 1.110815e-01 1.066114e-01 8.913003e-02 8.212328e-02 6.196965e-02 5.302827e-02 3.241527e-02 2.246838e-02 1.508350e-02 1.525941e-02 1.671303e-02 1.322464e-02 1.148466e-02 1.305650e-02 1.159664e-02 7.459632e-03 9.700611e-03 5.444356e-03 1.582567e-02 1.799219e-02 2.671659e-02 3.032590e-02 3.927390e-02 3.559725e-02 3.695747e-02 2.736457e-02 2.405327e-02 1.190600e-02 6.639967e-03 -6.249568e-03 -1.210249e-02 -2.497179e-02 -3.080142e-02 -4.333011e-02 -4.885191e-02 -6.086716e-02 -6.592243e-02 -7.728409e-02 -8.175901e-02 -9.232129e-02 -9.611723e-02 -1.057205e-01 -1.087455e-01 -1.172201e-01 
-1.153980e-01 -1.219897e-01 -1.233939e-01 -1.287008e-01 -1.290627e-01 -1.329399e-01 -1.322167e-01 -1.345519e-01 -1.327373e-01 -1.334603e-01 -1.305882e-01 -1.296772e-01 -1.258213e-01 -1.233048e-01 -1.185744e-01 -1.145289e-01 -1.090619e-01 -1.036066e-01 -9.756107e-02 -9.085122e-02 -8.439720e-02 -7.661788e-02 -6.993242e-02 -6.129488e-02 -5.456044e-02 -4.530177e-02 -3.870939e-02 -2.909599e-02 -2.285261e-02 -1.318677e-02 -7.525218e-03 1.846972e-03 6.657453e-03 1.533922e-02 1.898509e-02 2.652633e-02 2.864778e-02 3.455001e-02 3.474867e-02 3.848118e-02 3.634110e-02 3.737179e-02 3.249690e-02 3.034086e-02 2.241161e-02 1.669957e-02 5.549728e-03 -3.883754e-03 -1.817300e-02 -3.118673e-02 -4.818550e-02 -6.422922e-02 -8.307355e-02 -1.011159e-01 -1.204780e-01 -1.390120e-01 -1.571787e-01 -1.743568e-01 -1.894570e-01 -2.033806e-01 -2.137458e-01 -2.228517e-01 -2.273935e-01 -2.307773e-01 -2.291909e-01 -2.266854e-01 -2.193540e-01 -2.113185e-01 -1.989810e-01 -1.859368e-01 -1.692964e-01 -1.515942e-01 -1.310595e-01 -1.087586e-01 -8.457833e-02 -5.781312e-02 -3.091419e-02 -1.027134e-03 2.549517e-02 5.448170e-02 7.437876e-02 9.553328e-02 1.011559e-01 1.077544e-01 9.628096e-02 8.848102e-02 6.888379e-02 5.599398e-02 4.003965e-02 2.598632e-02 2.639219e-03 1.883104e-03 1.108820e-03 -5.103422e-03 -1.607024e-02 -9.405964e-03 -1.679830e-02 -2.340126e-02 -2.797955e-02 -3.429224e-02 -3.694380e-02 -3.929605e-02 -3.671584e-02 -3.583037e-02 -3.240803e-03 1.488150e-02 3.105882e-02 3.021505e-02 3.179646e-02 2.289229e-02 1.891675e-02 7.757702e-03 2.067484e-03 -9.440332e-03 -1.550147e-02 -2.682552e-02 -3.278281e-02 -4.377209e-02 -4.942248e-02 -5.999739e-02 -6.521409e-02 -7.528173e-02 -7.995369e-02 -8.939120e-02 -9.340729e-02 -1.020651e-01 -1.053134e-01 -1.130245e-01 
-1.322319e-01 -1.396962e-01 -1.408071e-01 -1.467791e-01 -1.468672e-01 -1.511585e-01 -1.501693e-01 -1.526346e-01 -1.505540e-01 -1.511030e-01 -1.479612e-01 -1.465659e-01 -1.424372e-01 -1.391329e-01 -1.341301e-01 -1.290117e-01 -1.232772e-01 -1.164901e-01 -1.101854e-01 -1.019158e-01 -9.521134e-02 -8.567609e-02 -7.874487e-02 -6.818489e-02 -6.120030e-02 -4.987862e-02 -4.301839e-02 -3.122333e-02 -2.467872e-02 -1.273153e-02 -6.720317e-03 5.014442e-03 1.023367e-02 2.133782e-02 2.545340e-02 3.544843e-02 3.808920e-02 4.643701e-02 4.717592e-02 5.329118e-02 5.166319e-02 5.494141e-02 5.047994e-02 5.034565e-02 4.264169e-02 3.862013e-02 2.740713e-02 1.922158e-02 4.485863e-03 -7.822572e-03 -2.571460e-02 -4.165932e-02 -6.184244e-02 -8.038986e-02 -1.014399e-01 -1.209930e-01 -1.409984e-01 -1.595366e-01 -1.763673e-01 -1.917803e-01 -2.035436e-01 -2.140881e-01 -2.196058e-01 -2.242749e-01 -2.233059e-01 -2.218887e-01 -2.149441e-01 -2.077829e-01 -1.957134e-01 -1.833426e-01 -1.669246e-01 -1.497305e-01 -1.293381e-01 -1.073405e-01 -8.293808e-02 -5.603375e-02 -2.797717e-02 2.702831e-03 3.175938e-02 6.161903e-02 8.480341e-02 1.047866e-01 1.117574e-01 1.124809e-01 9.606992e-02 7.991131e-02 4.761945e-02 3.576569e-02 6.124750e-03 -2.035332e-03 -3.107014e-02 -4.833445e-02 -3.922441e-02 -2.312235e-02 -2.752918e-02 -3.278337e-02 -3.245880e-02 -3.739426e-02 -3.562957e-02 -3.044155e-02 -2.917892e-02 -2.281382e-02 -2.387519e-02 -2.269112e-02 1.684571e-02 2.587592e-02 3.736009e-02 2.869961e-02 2.710493e-02 1.406868e-02 9.125548e-03 -4.168329e-03 -9.707249e-03 -2.256655e-02 -2.804999e-02 -4.049637e-02 -4.576709e-02 -5.786055e-02 -6.284558e-02 -7.456596e-02 -7.918589e-02 -9.043425e-02 -9.458961e-02 -1.052079e-01 -1.087831e-01 -1.185731e-01 -1.214449e-01 -1.301856e-01 
-1.285494e-01 -1.354220e-01 -1.367337e-01 -1.423014e-01 -1.425137e-01 -1.465765e-01 -1.456143e-01 -1.480141e-01 -1.458501e-01 -1.464838e-01 -1.431436e-01 -1.419700e-01 -1.375310e-01 -1.345725e-01 -1.291570e-01 -1.244944e-01 -1.182581e-01 -1.120211e-01 -1.051397e-01 -9.749511e-02 -9.015104e-02 -8.129230e-02 -7.366603e-02 -6.380642e-02 -5.607345e-02 -4.544505e-02 -3.778008e-02 -2.663900e-02 -1.922691e-02 -7.864055e-03 -9.158348e-04 1.032896e-02 1.655808e-02 2.728153e-02 3.247564e-02 4.220015e-02 4.597221e-02 5.414293e-02 5.603497e-02 6.202939e-02 6.152813e-02 6.468292e-02 6.125567e-02 6.091559e-02 5.407117e-02 4.966514e-02 3.904461e-02 3.019303e-02 1.569238e-02 2.346198e-03 -1.573435e-02 -3.313396e-02 -5.393761e-02 -7.431409e-02 -9.632751e-02 -1.179107e-01 -1.390099e-01 -1.594706e-01 -1.772174e-01 -1.940827e-01 -2.062957e-01 -2.175939e-01 -2.230110e-01 -2.278518e-01 -2.264869e-01 -2.251650e-01 -2.180710e-01 -2.116074e-01 -2.002257e-01 -1.896827e-01 -1.751216e-01 -1.609760e-01 -1.433925e-01 -1.250687e-01 -1.034807e-01 -7.943962e-02 -5.278098e-02 -2.227926e-02 7.582961e-03 4.110013e-02 6.583559e-02 9.216362e-02 9.708580e-02 1.019371e-01 7.624199e-02 5.506134e-02 1.541046e-02 -1.173526e-02 -2.601932e-02 -5.819634e-02 -8.758898e-02 -6.776490e-02 -6.498667e-02 -6.536350e-02 -4.075401e-02 -1.316034e-02 1.316109e-03 3.210252e-02 4.575583e-02 6.122294e-02 7.007600e-02 7.581140e-02 8.225434e-02 8.029281e-02 8.792261e-02 6.365351e-02 5.393840e-02 3.329409e-02 2.452393e-02 9.213945e-03 2.245083e-03 -1.018189e-02 -1.617066e-02 -2.729180e-02 -3.281772e-02 -4.338466e-02 -4.865664e-02 -5.896631e-02 -6.401730e-02 -7.412817e-02 -7.889660e-02 -8.873580e-02 -9.310825e-02 -1.025253e-01 -1.063602e-01 -1.151571e-01 -1.183001e-01 -1.262519e-01 
-1.470057e-01 -1.549313e-01 -1.559600e-01 -1.623440e-01 -1.622861e-01 -1.668730e-01 -1.656379e-01 -1.682280e-01 -1.657791e-01 -1.662442e-01 -1.626040e-01 -1.608969e-01 -1.561461e-01 -1.523007e-01 -1.465695e-01 -1.406933e-01 -1.341471e-01 -1.264065e-01 -1.192292e-01 -1.098327e-01 -1.022104e-01 -9.139242e-02 -8.350231e-02 -7.151251e-02 -6.351864e-02 -5.061828e-02 -4.267664e-02 -2.914321e-02 -2.141486e-02 -7.554198e-03 -2.248871e-04 1.361142e-02 2.030831e-02 3.370399e-02 3.946544e-02 5.192320e-02 5.636008e-02 6.729290e-02 6.992429e-02 7.865921e-02 7.892272e-02 8.472272e-02 8.200662e-02 8.411634e-02 7.782000e-02 7.554233e-02 6.517288e-02 5.798365e-02 4.329581e-02 3.100170e-02 1.218086e-02 -4.887034e-03 -2.702012e-02 -4.781398e-02 -7.164324e-02 -9.429597e-02 -1.174231e-01 -1.393773e-01 -1.589699e-01 -1.774649e-01 -1.910011e-01 -2.038539e-01 -2.100010e-01 -2.162614e-01 -2.152597e-01 -2.152126e-01 -2.083772e-01 -2.029951e-01 -1.919208e-01 -1.822667e-01 -1.682354e-01 -1.549684e-01 -1.383199e-01 -1.210689e-01 -1.006549e-01 -7.754063e-02 -5.127768e-02 -2.066248e-02 1.121134e-02 4.601463e-02 7.613351e-02 1.018314e-01 1.132530e-01 1.081663e-01 8.094126e-02 3.911332e-02 -2.333263e-02 -4.786137e-02 -1.084575e-01 -1.282291e-01 -6.510659e-02 -2.845867e-02 -2.673469e-02 4.740953e-02 7.041055e-02 1.089995e-01 1.229509e-01 1.339054e-01 1.353608e-01 1.319428e-01 1.369047e-01 1.254119e-01 1.381098e-01 1.223689e-01 1.206731e-01 7.358512e-02 5.205297e-02 2.331902e-02 1.172051e-02 -5.779777e-03 -1.255160e-02 -2.575516e-02 -3.079990e-02 -4.256630e-02 -4.706677e-02 -5.845199e-02 -6.279605e-02 -7.413316e-02 -7.839213e-02 -8.970163e-02 -9.381094e-02 -1.049599e-01 -1.087905e-01 -1.195607e-01 -1.229511e-01 -1.330729e-01 -1.358472e-01 -1.450233e-01 
-1.433702e-01 -1.507046e-01 -1.519984e-01 -1.579933e-01 -1.581039e-01 -1.624888e-01 -1.613000e-01 -1.638593e-01 -1.613190e-01 -1.619095e-01 -1.580363e-01 -1.565967e-01 -1.514786e-01 -1.480300e-01 -1.418134e-01 -1.364503e-01 -1.293223e-01 -1.221961e-01 -1.143625e-01 -1.056623e-01 -9.732730e-02 -8.726234e-02 -7.861385e-02 -6.740186e-02 -5.860583e-02 -4.647037e-02 -3.767589e-02 -2.485340e-02 -1.620808e-02 -2.963768e-03 5.362712e-03 1.871281e-02 2.650083e-02 3.956554e-02 4.651801e-02 5.880941e-02 6.452999e-02 7.544982e-02 7.943266e-02 8.827229e-02 8.990891e-02 9.586849e-02 9.447793e-02 9.671099e-02 9.160010e-02 8.929145e-02 7.985446e-02 7.234160e-02 5.820944e-02 4.515829e-02 2.640474e-02 8.042107e-03 -1.456625e-02 -3.719176e-02 -6.196521e-02 -8.678957e-02 -1.110551e-01 -1.350657e-01 -1.555093e-01 -1.753123e-01 -1.888905e-01 -2.018253e-01 -2.070026e-01 -2.122764e-01 -2.097256e-01 -2.085718e-01 -2.006087e-01 -1.952841e-01 -1.846394e-01 -1.772504e-01 -1.659862e-01 -1.576427e-01 -1.460667e-01 -1.359256e-01 -1.215193e-01 -1.056407e-01 -8.353790e-02 -5.684681e-02 -2.484706e-02 1.267935e-02 4.608453e-02 8.274133e-02 9.294499e-02 1.028595e-01 5.717616e-02 1.955264e-02 -6.634975e-02 -1.185920e-01 -1.523097e-01 -9.276098e-02 -7.509822e-02 -1.823427e-02 5.839953e-02 1.334441e-01 1.369128e-01 1.222143e-01 1.150593e-01 8.793198e-02 8.181632e-02 6.011446e-02 6.252560e-02 4.306316e-02 5.265565e-02 3.457718e-02 5.266197e-02 2.538736e-02 1.579499e-02 -2.715044e-03 -9.809257e-03 -2.179099e-02 -2.663765e-02 -3.611224e-02 -4.018758e-02 -4.904209e-02 -5.304578e-02 -6.200484e-02 -6.615218e-02 -7.541733e-02 -7.969309e-02 -8.922432e-02 -9.350463e-02 -1.031386e-01 -1.072452e-01 -1.167469e-01 -1.204734e-01 -1.295626e-01 -1.326898e-01 -1.410595e-01 
-1.634531e-01 -1.720836e-01 -1.731214e-01 -1.801368e-01 -1.799932e-01 -1.850523e-01 -1.835921e-01 -1.864262e-01 -1.835858e-01 -1.840214e-01 -1.798179e-01 -1.777887e-01 -1.723178e-01 -1.678641e-01 -1.612872e-01 -1.545429e-01 -1.470650e-01 -1.382337e-01 -1.300767e-01 -1.194050e-01 -1.107823e-01 -9.853413e-02 -8.963205e-02 -7.607127e-02 -6.704207e-02 -5.242587e-02 -4.339318e-02 -2.797840e-02 -1.905530e-02 -3.116083e-03 5.566914e-03 2.171306e-02 2.997423e-02 4.593647e-02 5.350845e-02 6.879410e-02 7.529463e-02 8.928807e-02 9.420185e-02 1.061567e-01 1.088344e-01 1.178848e-01 1.175657e-01 1.227641e-01 1.186310e-01 1.190215e-01 1.102994e-01 1.050414e-01 9.116084e-02 7.972089e-02 6.056170e-02 4.298756e-02 1.920516e-02 -3.541971e-03 -3.017471e-02 -5.594043e-02 -8.237500e-02 -1.078405e-01 -1.301317e-01 -1.514948e-01 -1.660273e-01 -1.804046e-01 -1.856377e-01 -1.923597e-01 -1.896155e-01 -1.899859e-01 -1.820433e-01 -1.780507e-01 -1.675916e-01 -1.610737e-01 -1.503179e-01 -1.427584e-01 -1.327050e-01 -1.243198e-01 -1.131346e-01 -1.000383e-01 -8.193903e-02 -5.722465e-02 -2.715895e-02 1.128183e-02 4.916032e-02 8.707180e-02 1.129169e-01 1.091226e-01 8.614361e-02 1.553719e-03 -8.518838e-02 -9.949202e-02 -9.590605e-02 -1.531999e-02 7.216226e-03 1.706879e-01 1.913858e-01 1.137325e-01 8.713391e-02 4.323518e-02 1.813760e-02 -2.118123e-02 -2.105568e-02 -4.598468e-02 -4.232417e-02 -5.566417e-02 -5.309664e-02 -6.085586e-02 -5.343479e-02 -4.787189e-02 -3.971368e-02 -4.223570e-02 -4.078876e-02 -4.694666e-02 -4.773834e-02 -5.532781e-02 -5.709932e-02 -6.571135e-02 -6.817746e-02 -7.771179e-02 -8.073051e-02 -9.104706e-02 -9.445613e-02 -1.053369e-01 -1.089400e-01 -1.201020e-01 -1.236769e-01 -1.347860e-01 -1.380928e-01 -1.487759e-01 -1.515662e-01 -1.614252e-01 