# vtk DataFile Version 2.0
Comment goes here
ASCII

DATASET STRUCTURED_POINTS
DIMENSIONS    128   128   1

ORIGIN    0.000   0.000   0.000
SPACING   0.0156250.015625   1.000

POINT_DATA   16384
SCALARS uX double
LOOKUP_TABLE default

-6.142761e-02 -6.541990e-02 -6.639836e-02 -6.942041e-02 -6.978396e-02 -7.181381e-02 -7.158128e-02 -7.261155e-02 -7.181222e-02 -7.185225e-02 -7.052659e-02 -6.960452e-02 -6.780472e-02 -6.596918e-02 -6.375965e-02 -6.108090e-02 -5.853848e-02 -5.510912e-02 -5.232332e-02 -4.825858e-02 -4.533178e-02 -4.076959e-02 -3.781751e-02 -3.291835e-02 -3.007053e-02 -2.501705e-02 -2.241731e-02 -1.741345e-02 -1.521981e-02 -1.048895e-02 -8.872513e-03 -4.654029e-03 -3.795849e-03 -3.391737e-04 -4.243649e-04 2.020276e-03 8.122192e-04 2.007261e-03 -4.834137e-04 -7.447309e-04 -4.639214e-03 -6.510080e-03 -1.186796e-02 -1.542156e-02 -2.221513e-02 -2.741669e-02 -3.550546e-02 -4.218635e-02 -5.129597e-02 -5.913475e-02 -6.884583e-02 -7.736200e-02 -8.711443e-02 -9.568049e-02 -1.047981e-01 -1.126738e-01 -1.204110e-01 -1.268002e-01 -1.324088e-01 -1.365340e-01 -1.393417e-01 -1.405273e-01 -1.400176e-01 -1.377705e-01 -1.336522e-01 -1.277283e-01 -1.199864e-01 -1.104369e-01 -9.936304e-02 -8.656067e-02 -7.276353e-02 -5.740683e-02 -4.180150e-02 -2.489337e-02 -8.659414e-03 8.556117e-03 2.406881e-02 4.023305e-02 5.367146e-02 6.751163e-02 7.775706e-02 8.833364e-02 9.475756e-02 1.016783e-01 1.043175e-01 1.078157e-01 1.073732e-01 1.082028e-01 1.058598e-01 1.050608e-01 1.021645e-01 1.007808e-01 9.846921e-02 9.723401e-02 9.607684e-02 9.516756e-02 9.504148e-02 9.408206e-02 9.433630e-02 9.260901e-02 9.237459e-02 8.915834e-02 8.767260e-02 8.255229e-02 7.951131e-02 7.260088e-02 6.833984e-02 6.017074e-02 5.522128e-02 4.634159e-02 4.110911e-02 3.192361e-02 2.666295e-02 1.746080e-02 1.234528e-02 3.350867e-03 -1.483475e-03 -1.008655e-02 -1.452853e-02 -2.259050e-02 -2.655318e-02 -3.395443e-02 -3.737462e-02 -4.402082e-02 -4.685611e-02 -5.267274e-02 -5.489759e-02 -5.982538e-02 
-5.544205e-02 -5.906168e-02 -6.017358e-02 -6.293393e-02 -6.340541e-02 -6.528986e-02 -6.513808e-02 -6.614221e-02 -6.539531e-02 -6.552893e-02 -6.422676e-02 -6.351585e-02 -6.171061e-02 -6.019909e-02 -5.795563e-02 -5.570667e-02 -5.310278e-02 -5.019973e-02 -4.732615e-02 -4.387322e-02 -4.083387e-02 -3.695660e-02 -3.386885e-02 -2.971440e-02 -2.670955e-02 -2.244679e-02 -1.967045e-02 -1.548952e-02 -1.310152e-02 -9.212469e-03 -7.385707e-03 -4.015353e-03 -2.932799e-03 -3.191378e-04 -1.679579e-04 1.448862e-03 4.868697e-04 8.778565e-04 -1.359728e-03 -2.394318e-03 -6.031812e-03 -8.639639e-03 -1.374028e-02 -1.799029e-02 -2.453052e-02 -3.038467e-02 -3.822853e-02 -4.551546e-02 -5.439333e-02 -6.278892e-02 -7.228595e-02 -8.130673e-02 -9.086689e-02 -9.988207e-02 -1.088325e-01 -1.170987e-01 -1.246969e-01 -1.314158e-01 -1.369160e-01 -1.413105e-01 -1.440439e-01 -1.454421e-01 -1.448959e-01 -1.428113e-01 -1.386979e-01 -1.328933e-01 -1.251991e-01 -1.157296e-01 -1.047421e-01 -9.197699e-02 -7.829331e-02 -6.291988e-02 -4.743602e-02 -3.044221e-02 -1.431473e-02 3.065191e-03 1.850790e-02 3.490918e-02 4.832985e-02 6.245229e-02 7.274155e-02 8.360314e-02 9.013631e-02 9.730673e-02 1.001144e-01 1.038170e-01 1.035727e-01 1.045896e-01 1.024142e-01 1.018364e-01 9.901129e-02 9.792232e-02 9.555752e-02 9.469929e-02 9.338042e-02 9.293318e-02 9.259174e-02 9.217407e-02 9.220043e-02 9.110914e-02 9.064804e-02 8.816326e-02 8.643344e-02 8.211258e-02 7.878936e-02 7.272130e-02 6.817984e-02 6.089780e-02 5.569035e-02 4.772627e-02 4.225053e-02 3.398471e-02 2.848478e-02 2.018728e-02 1.483282e-02 6.714991e-03 1.643591e-03 -6.121726e-03 -1.079550e-02 -1.806932e-02 -2.225501e-02 -2.892910e-02 -3.256021e-02 -3.855187e-02 -4.158291e-02 -4.682893e-02 -4.923144e-02 -5.368301e-02 
-6.225489e-02 -6.625400e-02 -6.721971e-02 -7.024584e-02 -7.059467e-02 -7.262381e-02 -7.237334e-02 -7.339620e-02 -7.257472e-02 -7.259907e-02 -7.124626e-02 -7.029905e-02 -6.846660e-02 -6.659561e-02 -6.434761e-02 -6.162264e-02 -5.903573e-02 -5.554913e-02 -5.271260e-02 -4.857954e-02 -4.559556e-02 -4.095401e-02 -3.793800e-02 -3.294860e-02 -3.002983e-02 -2.487559e-02 -2.219778e-02 -1.708338e-02 -1.480491e-02 -9.955138e-03 -8.248200e-03 -3.904833e-03 -2.952757e-03 6.310092e-04 6.393309e-04 3.207811e-03 2.087303e-03 3.395572e-03 9.789899e-04 8.110396e-04 -3.032014e-03 -4.840140e-03 -1.017959e-02 -1.371254e-02 -2.053105e-02 -2.576489e-02 -3.393076e-02 -4.070518e-02 -4.994927e-02 -5.794650e-02 -6.784892e-02 -7.658535e-02 -8.657807e-02 -9.541499e-02 -1.048059e-01 -1.129837e-01 -1.210046e-01 -1.277016e-01 -1.335775e-01 -1.379881e-01 -1.410209e-01 -1.424434e-01 -1.420956e-01 -1.400163e-01 -1.359826e-01 -1.301439e-01 -1.224021e-01 -1.128481e-01 -1.016873e-01 -8.878765e-02 -7.481741e-02 -5.927280e-02 -4.341561e-02 -2.624152e-02 -9.699338e-03 7.827297e-03 2.365652e-02 4.011636e-02 5.380282e-02 6.784135e-02 7.817738e-02 8.878100e-02 9.507453e-02 1.018247e-01 1.041124e-01 1.072825e-01 1.063364e-01 1.067606e-01 1.038702e-01 1.026728e-01 9.930936e-02 9.762512e-02 9.504464e-02 9.368017e-02 9.248635e-02 9.161714e-02 9.163297e-02 9.083434e-02 9.133441e-02 8.981427e-02 8.986784e-02 8.684661e-02 8.559414e-02 8.059314e-02 7.764266e-02 7.078187e-02 6.659769e-02 5.849776e-02 5.366933e-02 4.488042e-02 3.977869e-02 3.067245e-02 2.551740e-02 1.636788e-02 1.132537e-02 2.360177e-03 -2.426137e-03 -1.101511e-02 -1.542455e-02 -2.348123e-02 -2.742034e-02 -3.482177e-02 -3.822372e-02 -4.487389e-02 -4.769433e-02 -5.351743e-02 -5.572945e-02 -6.066478e-02 
-5.701570e-02 -6.064165e-02 -6.173006e-02 -6.449334e-02 -6.493693e-02 -6.681705e-02 -6.663045e-02 -6.761940e-02 -6.682868e-02 -6.693316e-02 -6.557667e-02 -6.482022e-02 -6.294917e-02 -6.137391e-02 -5.905261e-02 -5.672048e-02 -5.402638e-02 -5.101993e-02 -4.804350e-02 -4.446639e-02 -4.131117e-02 -3.728858e-02 -3.407146e-02 -2.975039e-02 -2.660217e-02 -2.215177e-02 -1.921789e-02 -1.482939e-02 -1.227035e-02 -8.156198e-03 -6.147076e-03 -2.538567e-03 -1.266748e-03 1.590859e-03 1.930792e-03 3.786631e-03 3.001895e-03 3.612378e-03 1.525774e-03 6.727090e-04 -2.858300e-03 -5.344154e-03 -1.040331e-02 -1.461398e-02 -2.119838e-02 -2.711770e-02 -3.510901e-02 -4.258255e-02 -5.172170e-02 -6.043288e-02 -7.030424e-02 -7.976345e-02 -8.979535e-02 -9.934905e-02 -1.088370e-01 -1.177025e-01 -1.258583e-01 -1.331855e-01 -1.392108e-01 -1.441661e-01 -1.473406e-01 -1.492012e-01 -1.489716e-01 -1.472132e-01 -1.432669e-01 -1.376298e-01 -1.299424e-01 -1.204713e-01 -1.093280e-01 -9.638783e-02 -8.238763e-02 -6.666610e-02 -5.071647e-02 -3.321738e-02 -1.651352e-02 1.474947e-03 1.751487e-02 3.451502e-02 4.840441e-02 6.295029e-02 7.340507e-02 8.435089e-02 9.062679e-02 9.746784e-02 9.960908e-02 1.026377e-01 1.014616e-01 1.016342e-01 9.845098e-02 9.705712e-02 9.334625e-02 9.166324e-02 8.875482e-02 8.763664e-02 8.618276e-02 8.580547e-02 8.568493e-02 8.554810e-02 8.602473e-02 8.531991e-02 8.543111e-02 8.335015e-02 8.210668e-02 7.806343e-02 7.490772e-02 6.896899e-02 6.459025e-02 5.748494e-02 5.254121e-02 4.478995e-02 3.958860e-02 3.149983e-02 2.621333e-02 1.803245e-02 1.282121e-02 4.771577e-03 -2.075910e-04 -7.934264e-03 -1.254647e-02 -1.979844e-02 -2.394007e-02 -3.060293e-02 -3.420047e-02 -4.018877e-02 -4.319290e-02 -4.844146e-02 -5.082093e-02 -5.527853e-02 
-6.473577e-02 -6.875758e-02 -6.968613e-02 -7.272675e-02 -7.303240e-02 -7.506145e-02 -7.475800e-02 -7.576040e-02 -7.487304e-02 -7.485171e-02 -7.341786e-02 -7.239615e-02 -7.046604e-02 -6.848936e-02 -6.612622e-02 -6.326297e-02 -6.054292e-02 -5.688487e-02 -5.389673e-02 -4.955891e-02 -4.640415e-02 -4.152466e-02 -3.831780e-02 -3.305770e-02 -2.992704e-02 -2.447027e-02 -2.155900e-02 -1.611222e-02 -1.357943e-02 -8.371284e-03 -6.392106e-03 -1.671153e-03 -4.352481e-04 3.534447e-03 3.827279e-03 6.774047e-03 5.922333e-03 7.579437e-03 5.393651e-03 5.517405e-03 1.839442e-03 2.333394e-04 -5.038164e-03 -8.493825e-03 -1.537349e-02 -2.068830e-02 -2.907205e-02 -3.611213e-02 -4.574789e-02 -5.420800e-02 -6.467571e-02 -7.406428e-02 -8.477293e-02 -9.441814e-02 -1.046277e-01 -1.137114e-01 -1.225841e-01 -1.302066e-01 -1.368862e-01 -1.421559e-01 -1.458653e-01 -1.480016e-01 -1.481406e-01 -1.465696e-01 -1.427941e-01 -1.372215e-01 -1.294921e-01 -1.199436e-01 -1.085449e-01 -9.538293e-02 -8.092596e-02 -6.485316e-02 -4.827450e-02 -3.033381e-02 -1.288947e-02 5.555755e-03 2.233434e-02 3.968700e-02 5.413695e-02 6.878427e-02 7.940980e-02 9.009078e-02 9.598270e-02 1.021882e-01 1.033784e-01 1.055251e-01 1.030167e-01 1.022085e-01 9.763172e-02 9.522967e-02 9.042610e-02 8.782964e-02 8.444751e-02 8.270217e-02 8.142245e-02 8.065830e-02 8.108509e-02 8.073675e-02 8.192358e-02 8.097470e-02 8.189700e-02 7.946597e-02 7.899555e-02 7.440471e-02 7.170939e-02 6.504329e-02 6.115526e-02 5.335150e-02 4.897566e-02 4.051790e-02 3.585044e-02 2.699428e-02 2.215739e-02 1.315605e-02 8.320210e-03 -5.690152e-04 -5.222345e-03 -1.377623e-02 -1.809449e-02 -2.613868e-02 -3.001006e-02 -3.741360e-02 -4.076229e-02 -4.742555e-02 -5.020242e-02 -5.604650e-02 -5.822100e-02 -6.318093e-02 
-6.016001e-02 -6.380249e-02 -6.484666e-02 -6.761979e-02 -6.801008e-02 -6.988531e-02 -6.963110e-02 -7.059294e-02 -6.971611e-02 -6.976493e-02 -6.830084e-02 -6.745530e-02 -6.545333e-02 -6.375207e-02 -6.127564e-02 -5.877831e-02 -5.590442e-02 -5.269211e-02 -4.951085e-02 -4.568625e-02 -4.230048e-02 -3.798803e-02 -3.451355e-02 -2.985983e-02 -2.642619e-02 -2.160055e-02 -1.835240e-02 -1.354767e-02 -1.064619e-02 -6.078990e-03 -3.702826e-03 3.874226e-04 2.042909e-03 5.397257e-03 6.123475e-03 8.470380e-03 8.053230e-03 9.120424e-03 7.353476e-03 6.885964e-03 3.590050e-03 1.374895e-03 -3.575627e-03 -7.677946e-03 -1.432319e-02 -2.034247e-02 -2.860180e-02 -3.642041e-02 -4.605882e-02 -5.537849e-02 -6.598152e-02 -7.630300e-02 -8.726938e-02 -9.789471e-02 -1.084561e-01 -1.185226e-01 -1.277972e-01 -1.363475e-01 -1.434268e-01 -1.495107e-01 -1.535691e-01 -1.563597e-01 -1.567637e-01 -1.556638e-01 -1.520572e-01 -1.467711e-01 -1.391175e-01 -1.296790e-01 -1.182670e-01 -1.050366e-01 -9.046777e-02 -7.412616e-02 -5.731464e-02 -3.887487e-02 -2.106556e-02 -1.894232e-03 1.533781e-02 3.355183e-02 4.841457e-02 6.385106e-02 7.466402e-02 8.579305e-02 9.151855e-02 9.764610e-02 9.836063e-02 9.994843e-02 9.683010e-02 9.525114e-02 9.001124e-02 8.695962e-02 8.142017e-02 7.857007e-02 7.458946e-02 7.296665e-02 7.123130e-02 7.097817e-02 7.123689e-02 7.154469e-02 7.279454e-02 7.272173e-02 7.398495e-02 7.271957e-02 7.265853e-02 6.931910e-02 6.644165e-02 6.087072e-02 5.697914e-02 5.042501e-02 4.620338e-02 3.899236e-02 3.441789e-02 2.669753e-02 2.183243e-02 1.385959e-02 8.906330e-03 9.685347e-04 -3.849114e-03 -1.151212e-02 -1.601392e-02 -2.322769e-02 -2.728721e-02 -3.392966e-02 -3.746315e-02 -4.344633e-02 -4.639900e-02 -5.165503e-02 -5.399091e-02 -5.846385e-02 
-6.886726e-02 -7.293408e-02 -7.380538e-02 -7.687743e-02 -7.711538e-02 -7.915095e-02 -7.876272e-02 -7.973657e-02 -7.874206e-02 -7.864887e-02 -7.708181e-02 -7.593894e-02 -7.384734e-02 -7.169641e-02 -6.914243e-02 -6.604994e-02 -6.310919e-02 -5.916623e-02 -5.592697e-02 -5.124862e-02 -4.781132e-02 -4.253598e-02 -3.901347e-02 -3.330266e-02 -2.982120e-02 -2.385988e-02 -2.056102e-02 -1.455830e-02 -1.160118e-02 -5.790990e-03 -3.354295e-03 2.004835e-03 3.722328e-03 8.349669e-03 9.131392e-03 1.272994e-02 1.234823e-02 1.461583e-02 1.284460e-02 1.349166e-02 1.012635e-02 8.901313e-03 3.786678e-03 5.092997e-04 -6.425411e-03 -1.182424e-02 -2.052520e-02 -2.796047e-02 -3.820913e-02 -4.740191e-02 -5.878266e-02 -6.923266e-02 -8.111904e-02 -9.210130e-02 -1.036727e-01 -1.142698e-01 -1.245679e-01 -1.337443e-01 -1.417704e-01 -1.484849e-01 -1.533252e-01 -1.566623e-01 -1.576138e-01 -1.569039e-01 -1.535683e-01 -1.484679e-01 -1.407934e-01 -1.313129e-01 -1.195898e-01 -1.060862e-01 -9.092631e-02 -7.409382e-02 -5.643139e-02 -3.732283e-02 -1.845681e-02 1.467365e-03 1.982709e-02 3.869545e-02 5.449469e-02 7.021977e-02 8.140447e-02 9.221021e-02 9.739902e-02 1.025656e-01 1.017581e-01 1.020404e-01 9.673815e-02 9.384237e-02 8.631587e-02 8.191114e-02 7.457386e-02 7.044264e-02 6.579068e-02 6.348169e-02 6.218054e-02 6.150477e-02 6.252065e-02 6.277602e-02 6.480751e-02 6.452109e-02 6.681394e-02 6.530530e-02 6.652673e-02 6.288607e-02 6.052841e-02 5.444643e-02 5.141489e-02 4.448565e-02 4.120266e-02 3.346837e-02 2.962329e-02 2.117919e-02 1.683947e-02 8.030523e-03 3.483641e-03 -5.321180e-03 -9.790955e-03 -1.830694e-02 -2.249236e-02 -3.052308e-02 -3.428991e-02 -4.169968e-02 -4.496384e-02 -5.165180e-02 -5.435967e-02 -6.024332e-02 -6.235940e-02 -6.736660e-02 
-6.486726e-02 -6.854455e-02 -6.952979e-02 -7.232800e-02 -7.264504e-02 -7.452250e-02 -7.417234e-02 -7.510169e-02 -7.409969e-02 -7.407153e-02 -7.244870e-02 -7.147440e-02 -6.927780e-02 -6.739109e-02 -6.468329e-02 -6.194085e-02 -5.879880e-02 -5.528002e-02 -5.179367e-02 -4.760013e-02 -4.387150e-02 -3.912660e-02 -3.526969e-02 -3.011898e-02 -2.626082e-02 -2.087312e-02 -1.715600e-02 -1.172528e-02 -8.309808e-03 -3.057166e-03 -1.252998e-04 4.699681e-03 6.942779e-03 1.106280e-02 1.238967e-02 1.550415e-02 1.567048e-02 1.746560e-02 1.622208e-02 1.638808e-02 1.350031e-02 1.175762e-02 7.035103e-03 3.169852e-03 -3.496133e-03 -9.588064e-03 -1.817963e-02 -2.644325e-02 -3.676902e-02 -4.694194e-02 -5.859658e-02 -7.017236e-02 -8.251480e-02 -9.473205e-02 -1.068974e-01 -1.187701e-01 -1.297286e-01 -1.401287e-01 -1.487951e-01 -1.565848e-01 -1.619659e-01 -1.661559e-01 -1.674996e-01 -1.673913e-01 -1.642935e-01 -1.595603e-01 -1.519965e-01 -1.426866e-01 -1.309765e-01 -1.174629e-01 -1.022143e-01 -8.515302e-02 -6.725088e-02 -4.760934e-02 -2.829477e-02 -7.468541e-03 1.152553e-02 3.159050e-02 4.801324e-02 6.491696e-02 7.636076e-02 8.782544e-02 9.262574e-02 9.752124e-02 9.579799e-02 9.493361e-02 8.868948e-02 8.433360e-02 7.599740e-02 7.045880e-02 6.204619e-02 5.765362e-02 5.227458e-02 4.998260e-02 4.779105e-02 4.768555e-02 4.826995e-02 4.878636e-02 5.060672e-02 5.086557e-02 5.365190e-02 5.342031e-02 5.592410e-02 5.426039e-02 5.157117e-02 4.708801e-02 4.469727e-02 3.962772e-02 3.702920e-02 3.082788e-02 2.727842e-02 2.004086e-02 1.571370e-02 7.945187e-03 3.281522e-03 -4.555026e-03 -9.187641e-03 -1.678231e-02 -2.114441e-02 -2.830802e-02 -3.225493e-02 -3.886829e-02 -4.231139e-02 -4.828959e-02 -5.117058e-02 -5.644363e-02 -5.872072e-02 -6.322519e-02 
-7.464123e-02 -7.878708e-02 -7.958874e-02 -8.272077e-02 -8.287340e-02 -8.493251e-02 -8.443329e-02 -8.537903e-02 -8.424016e-02 -8.405529e-02 -8.230550e-02 -8.099910e-02 -7.868388e-02 -7.629285e-02 -7.347365e-02 -7.006256e-02 -6.681512e-02 -6.247498e-02 -5.888750e-02 -5.373407e-02 -4.990589e-02 -4.407825e-02 -4.011961e-02 -3.377958e-02 -2.981294e-02 -2.314584e-02 -1.930882e-02 -1.252540e-02 -8.974901e-03 -2.314066e-03 7.690820e-04 7.037804e-03 9.445242e-03 1.502092e-02 1.651574e-02 2.106888e-02 2.138940e-02 2.457049e-02 2.344101e-02 2.489712e-02 2.204784e-02 2.144914e-02 1.664673e-02 1.372419e-02 6.813647e-03 1.407581e-03 -7.636392e-03 -1.551969e-02 -2.653640e-02 -3.666669e-02 -4.925762e-02 -6.113295e-02 -7.462903e-02 -8.745521e-02 -1.009221e-01 -1.136389e-01 -1.259388e-01 -1.373077e-01 -1.472251e-01 -1.559787e-01 -1.623946e-01 -1.674199e-01 -1.694897e-01 -1.699930e-01 -1.672682e-01 -1.628677e-01 -1.553214e-01 -1.460459e-01 -1.340150e-01 -1.202401e-01 -1.043448e-01 -8.673691e-02 -6.785878e-02 -4.740674e-02 -2.679227e-02 -4.968128e-03 1.555214e-02 3.658047e-02 5.443787e-02 7.184056e-02 8.402644e-02 9.502605e-02 9.917800e-02 1.025279e-01 9.847791e-02 9.567875e-02 8.599576e-02 8.020742e-02 6.836244e-02 6.136504e-02 5.021232e-02 4.401195e-02 3.802829e-02 3.537711e-02 3.451926e-02 3.355266e-02 3.495655e-02 3.567076e-02 3.772646e-02 3.726171e-02 4.078361e-02 3.986732e-02 4.461377e-02 4.326443e-02 4.129918e-02 3.735466e-02 3.706614e-02 3.238078e-02 3.131035e-02 2.469500e-02 2.195548e-02 1.387627e-02 1.002435e-02 1.304259e-03 -2.987702e-03 -1.176213e-02 -1.604764e-02 -2.453834e-02 -2.856532e-02 -3.658106e-02 -4.021091e-02 -4.762971e-02 -5.078097e-02 -5.750803e-02 -6.012614e-02 -6.607517e-02 -6.811855e-02 -7.320598e-02 
-7.112098e-02 -7.486491e-02 -7.578647e-02 -7.863847e-02 -7.887102e-02 -8.077001e-02 -8.030240e-02 -8.120400e-02 -8.004258e-02 -7.992389e-02 -7.809414e-02 -7.695699e-02 -7.450368e-02 -7.237598e-02 -6.936174e-02 -6.629724e-02 -6.280015e-02 -5.887703e-02 -5.498791e-02 -5.030701e-02 -4.612731e-02 -4.081089e-02 -3.645193e-02 -3.064365e-02 -2.622792e-02 -2.009444e-02 -1.575897e-02 -9.493292e-03 -5.394844e-03 7.792197e-04 4.458052e-03 1.028135e-02 1.332661e-02 1.850162e-02 2.066495e-02 2.485648e-02 2.585697e-02 2.869898e-02 2.823253e-02 2.934371e-02 2.710244e-02 2.611316e-02 2.181709e-02 1.840941e-02 1.185135e-02 5.812584e-03 -3.084452e-03 -1.179669e-02 -2.291408e-02 -3.410186e-02 -4.706142e-02 -6.022406e-02 -7.434205e-02 -8.864156e-02 -1.029240e-01 -1.172044e-01 -1.304089e-01 -1.432934e-01 -1.540731e-01 -1.641451e-01 -1.712600e-01 -1.772960e-01 -1.798361e-01 -1.810164e-01 -1.785517e-01 -1.745614e-01 -1.671516e-01 -1.581323e-01 -1.462078e-01 -1.326061e-01 -1.168078e-01 -9.923943e-02 -8.034950e-02 -5.961018e-02 -3.869530e-02 -1.601223e-02 5.194100e-03 2.772282e-02 4.642788e-02 6.559293e-02 7.815032e-02 9.027969e-02 9.365791e-02 9.654696e-02 9.077070e-02 8.583847e-02 7.489560e-02 6.651862e-02 5.441997e-02 4.574531e-02 3.320165e-02 2.791610e-02 2.199815e-02 1.906948e-02 1.602620e-02 1.615896e-02 1.634394e-02 1.572261e-02 1.639271e-02 1.528075e-02 1.865472e-02 1.823678e-02 2.582083e-02 2.824481e-02 2.621449e-02 2.595782e-02 2.856856e-02 2.681103e-02 2.704560e-02 2.195456e-02 1.941935e-02 1.235863e-02 8.365392e-03 5.941748e-04 -3.892352e-03 -1.169705e-02 -1.616605e-02 -2.368927e-02 -2.789017e-02 -3.498127e-02 -3.878493e-02 -4.535447e-02 -4.868279e-02 -5.465774e-02 -5.745268e-02 -6.276016e-02 -6.497204e-02 -6.953604e-02 
-8.203954e-02 -8.631696e-02 -8.704860e-02 -9.028697e-02 -9.034707e-02 -9.246231e-02 -9.183391e-02 -9.276438e-02 -9.144944e-02 -9.116193e-02 -8.918317e-02 -8.767651e-02 -8.507731e-02 -8.238342e-02 -7.922591e-02 -7.540852e-02 -7.177030e-02 -6.692203e-02 -6.289263e-02 -5.713149e-02 -5.280956e-02 -4.627610e-02 -4.176828e-02 -3.462429e-02 -3.004672e-02 -2.247626e-02 -1.795871e-02 -1.017162e-02 -5.864166e-03 1.898523e-03 5.817367e-03 1.327717e-02 1.659239e-02 2.342815e-02 2.588246e-02 3.172847e-02 3.302159e-02 3.747208e-02 3.726806e-02 3.989120e-02 3.783709e-02 3.820157e-02 3.396034e-02 3.167738e-02 2.497703e-02 1.975905e-02 1.045802e-02 2.192671e-03 -9.642100e-03 -2.080863e-02 -3.482115e-02 -4.840531e-02 -6.388647e-02 -7.901672e-02 -9.488620e-02 -1.103130e-01 -1.251818e-01 -1.393804e-01 -1.517177e-01 -1.630949e-01 -1.714856e-01 -1.786525e-01 -1.820717e-01 -1.840920e-01 -1.820788e-01 -1.785846e-01 -1.712341e-01 -1.623672e-01 -1.501677e-01 -1.364007e-01 -1.200269e-01 -1.019931e-01 -8.219638e-02 -6.067685e-02 -3.842509e-02 -1.463852e-02 8.396062e-03 3.217563e-02 5.295522e-02 7.290418e-02 8.693157e-02 9.836323e-02 1.012242e-01 1.014007e-01 9.213633e-02 8.397102e-02 6.745556e-02 5.818721e-02 4.078693e-02 3.153605e-02 1.502318e-02 6.562086e-03 1.029109e-03 1.401013e-04 1.275254e-03 -1.729755e-03 -2.197168e-03 -1.206648e-03 -2.181582e-03 -5.614728e-03 -3.806340e-03 -7.002026e-03 1.402922e-03 3.991191e-03 8.555950e-03 1.431311e-02 2.226173e-02 2.128088e-02 2.290271e-02 1.661523e-02 1.433799e-02 5.909058e-03 2.095653e-03 -6.849542e-03 -1.105325e-02 -1.987179e-02 -2.398894e-02 -3.244035e-02 -3.627276e-02 -4.424875e-02 -4.770094e-02 -5.512265e-02 -5.813258e-02 -6.491698e-02 -6.743128e-02 -7.348387e-02 -7.545103e-02 -8.066862e-02 
-7.889020e-02 -8.275340e-02 -8.362140e-02 -8.657581e-02 -8.672519e-02 -8.868242e-02 -8.808531e-02 -8.897787e-02 -8.762887e-02 -8.741638e-02 -8.533475e-02 -8.400761e-02 -8.123680e-02 -7.881706e-02 -7.542197e-02 -7.196169e-02 -6.802418e-02 -6.360210e-02 -5.921606e-02 -5.393374e-02 -4.920101e-02 -4.317999e-02 -3.820843e-02 -3.158932e-02 -2.649406e-02 -1.943861e-02 -1.434673e-02 -7.042903e-03 -2.101390e-03 5.229022e-03 9.843081e-03 1.693553e-02 2.100436e-02 2.754335e-02 3.079986e-02 3.641412e-02 3.853839e-02 4.280274e-02 4.342711e-02 4.587464e-02 4.460117e-02 4.474948e-02 4.118327e-02 3.857834e-02 3.237967e-02 2.665963e-02 1.761591e-02 8.594915e-03 -3.290052e-03 -1.552282e-02 -2.993156e-02 -4.491128e-02 -6.112773e-02 -7.793865e-02 -9.481022e-02 -1.120775e-01 -1.280705e-01 -1.440682e-01 -1.574562e-01 -1.703601e-01 -1.795426e-01 -1.877928e-01 -1.916550e-01 -1.942993e-01 -1.924484e-01 -1.892893e-01 -1.820284e-01 -1.734789e-01 -1.615302e-01 -1.482687e-01 -1.324056e-01 -1.150387e-01 -9.585178e-02 -7.481002e-02 -5.285162e-02 -2.875135e-02 -5.272062e-03 2.010398e-02 4.197134e-02 6.456444e-02 7.925383e-02 9.294326e-02 9.440576e-02 9.422088e-02 8.137209e-02 6.921911e-02 5.071433e-02 3.623517e-02 2.125630e-02 8.934985e-03 -9.796668e-03 -1.093044e-02 -1.047557e-02 -1.433592e-02 -2.153934e-02 -1.769860e-02 -2.361275e-02 -2.948872e-02 -3.406144e-02 -3.864114e-02 -4.183955e-02 -4.288662e-02 -4.190731e-02 -3.976606e-02 -1.207252e-02 5.530163e-03 1.964613e-02 2.022559e-02 2.165699e-02 1.532105e-02 1.220651e-02 4.169935e-03 -1.717312e-04 -8.283859e-03 -1.276960e-02 -2.055417e-02 -2.484737e-02 -3.222789e-02 -3.621228e-02 -4.316846e-02 -4.678265e-02 -5.328002e-02 -5.646910e-02 -6.244659e-02 -6.515066e-02 -7.052429e-02 -7.267886e-02 -7.734967e-02 
-9.102778e-02 -9.551690e-02 -9.619565e-02 -9.961222e-02 -9.958706e-02 -1.018125e-01 -1.010474e-01 -1.019919e-01 -1.004759e-01 -1.000859e-01 -9.783523e-02 -9.609793e-02 -9.315543e-02 -9.009876e-02 -8.653027e-02 -8.221988e-02 -7.810838e-02 -7.264202e-02 -6.808135e-02 -6.158242e-02 -5.667193e-02 -4.928419e-02 -4.412614e-02 -3.601101e-02 -3.071178e-02 -2.204943e-02 -1.672509e-02 -7.719680e-03 -2.505789e-03 6.605636e-03 1.154126e-02 2.047752e-02 2.492083e-02 3.334530e-02 3.702364e-02 4.453579e-02 4.711063e-02 5.324434e-02 5.431304e-02 5.854580e-02 5.765709e-02 5.943475e-02 5.612226e-02 5.490398e-02 4.874207e-02 4.406896e-02 3.475350e-02 2.634278e-02 1.379601e-02 1.656801e-03 -1.385227e-02 -2.929511e-02 -4.703722e-02 -6.484196e-02 -8.356364e-02 -1.022446e-01 -1.202161e-01 -1.378546e-01 -1.530897e-01 -1.676243e-01 -1.782767e-01 -1.879326e-01 -1.927501e-01 -1.964419e-01 -1.950453e-01 -1.925379e-01 -1.853429e-01 -1.770868e-01 -1.649494e-01 -1.516989e-01 -1.354888e-01 -1.179152e-01 -9.820417e-02 -7.670841e-02 -5.382128e-02 -2.883897e-02 -3.619607e-03 2.314901e-02 4.773589e-02 7.156275e-02 8.910302e-02 1.019358e-01 1.039422e-01 9.878041e-02 8.111115e-02 6.223361e-02 3.378048e-02 2.022500e-02 -4.005358e-03 -1.249009e-02 -3.444252e-02 -4.656023e-02 -4.079470e-02 -2.937485e-02 -3.188262e-02 -3.544633e-02 -3.644165e-02 -3.801995e-02 -3.635280e-02 -2.954435e-02 -2.873498e-02 -2.126955e-02 -2.262869e-02 -2.034136e-02 1.605150e-02 2.247230e-02 3.133457e-02 2.367960e-02 2.166509e-02 1.122154e-02 6.899939e-03 -3.176480e-03 -7.626247e-03 -1.696559e-02 -2.113474e-02 -2.987973e-02 -3.373178e-02 -4.201273e-02 -4.555297e-02 -5.341289e-02 -5.662487e-02 -6.403238e-02 -6.687374e-02 -7.374495e-02 -7.615435e-02 -8.237107e-02 -8.427643e-02 -8.970113e-02 
-8.812282e-02 -9.218825e-02 -9.303393e-02 -9.616706e-02 -9.625161e-02 -9.832714e-02 -9.760050e-02 -9.852076e-02 -9.696306e-02 -9.666598e-02 -9.429021e-02 -9.275355e-02 -8.960437e-02 -8.684573e-02 -8.299453e-02 -7.906749e-02 -7.460479e-02 -6.959249e-02 -6.461948e-02 -5.862744e-02 -5.324872e-02 -4.639919e-02 -4.071876e-02 -3.314823e-02 -2.727018e-02 -1.913153e-02 -1.316620e-02 -4.635811e-03 1.288855e-03 9.999576e-03 1.572259e-02 2.435260e-02 2.966260e-02 3.788610e-02 4.250521e-02 4.991926e-02 5.349189e-02 5.961103e-02 6.170244e-02 6.596499e-02 6.607440e-02 6.786575e-02 6.545937e-02 6.415746e-02 5.872640e-02 5.377461e-02 4.492170e-02 3.593265e-02 2.348936e-02 1.037894e-02 -5.453473e-03 -2.231261e-02 -4.081901e-02 -6.045571e-02 -8.030683e-02 -1.010834e-01 -1.203580e-01 -1.400678e-01 -1.564895e-01 -1.727053e-01 -1.841307e-01 -1.947890e-01 -1.998234e-01 -2.038285e-01 -2.022433e-01 -1.997183e-01 -1.923603e-01 -1.843323e-01 -1.725677e-01 -1.602764e-01 -1.452660e-01 -1.294813e-01 -1.116106e-01 -9.223314e-02 -7.104763e-02 -4.734362e-02 -2.258117e-02 5.148142e-03 3.098388e-02 5.854227e-02 7.754242e-02 9.522685e-02 9.521351e-02 9.150164e-02 6.602620e-02 4.040082e-02 6.815921e-03 -1.987861e-02 -3.422214e-02 -5.775995e-02 -7.952718e-02 -6.432293e-02 -6.118800e-02 -5.918031e-02 -3.860568e-02 -1.084400e-02 5.633046e-03 3.530640e-02 4.836093e-02 6.342851e-02 7.147164e-02 7.748924e-02 8.298711e-02 8.227009e-02 8.721019e-02 6.187541e-02 5.054727e-02 3.128413e-02 2.247966e-02 9.458227e-03 3.159212e-03 -6.589664e-03 -1.155152e-02 -1.973625e-02 -2.402408e-02 -3.144767e-02 -3.535675e-02 -4.236238e-02 -4.599473e-02 -5.269619e-02 -5.605427e-02 -6.244422e-02 -6.547719e-02 -7.147961e-02 -7.410760e-02 -7.960601e-02 -8.173487e-02 -8.659033e-02 
-1.015491e-01 -1.063691e-01 -1.070363e-01 -1.107375e-01 -1.106535e-01 -1.130715e-01 -1.121755e-01 -1.131840e-01 -1.114491e-01 -1.109699e-01 -1.084065e-01 -1.064143e-01 -1.030682e-01 -9.959005e-02 -9.553623e-02 -9.064517e-02 -8.597828e-02 -7.978358e-02 -7.460718e-02 -6.724333e-02 -6.166071e-02 -5.327812e-02 -4.738690e-02 -3.814674e-02 -3.203935e-02 -2.211421e-02 -1.588493e-02 -5.465981e-03 7.755454e-04 1.146535e-02 1.757537e-02 2.826370e-02 3.404276e-02 4.438858e-02 4.956036e-02 5.913666e-02 6.333165e-02 7.161485e-02 7.436394e-02 8.073558e-02 8.147942e-02 8.524618e-02 8.336658e-02 8.380513e-02 7.868508e-02 7.511853e-02 6.623725e-02 5.814921e-02 4.521645e-02 3.240476e-02 1.553190e-02 -1.706996e-03 -2.181975e-02 -4.250929e-02 -6.442460e-02 -8.680391e-02 -1.083415e-01 -1.299569e-01 -1.484653e-01 -1.665734e-01 -1.795509e-01 -1.918168e-01 -1.977142e-01 -2.029113e-01 -2.016245e-01 -1.998721e-01 -1.924934e-01 -1.848915e-01 -1.730099e-01 -1.609289e-01 -1.459103e-01 -1.303120e-01 -1.126677e-01 -9.356176e-02 -7.261970e-02 -4.890921e-02 -2.352475e-02 5.202223e-03 3.370155e-02 6.308390e-02 8.696655e-02 1.042982e-01 1.085641e-01 9.636417e-02 6.726388e-02 2.554675e-02 -2.624644e-02 -4.868217e-02 -9.344092e-02 -1.143860e-01 -6.282637e-02 -3.418294e-02 -2.843237e-02 4.148744e-02 6.902100e-02 1.081004e-01 1.220357e-01 1.325538e-01 1.333855e-01 1.307506e-01 1.337305e-01 1.251094e-01 1.335647e-01 1.230340e-01 1.154727e-01 7.196371e-02 5.056378e-02 2.499789e-02 1.385161e-02 -8.760833e-04 -7.060858e-03 -1.743570e-02 -2.170290e-02 -3.041689e-02 -3.395683e-02 -4.203844e-02 -4.528123e-02 -5.309563e-02 -5.616869e-02 -6.379738e-02 -6.669798e-02 -7.408624e-02 -7.674988e-02 -8.376962e-02 -8.610050e-02 -9.258153e-02 -9.446897e-02 -1.002188e-01 
-9.874011e-02 -1.031325e-01 -1.040154e-01 -1.074402e-01 -1.075001e-01 -1.097838e-01 -1.089421e-01 -1.099489e-01 -1.081685e-01 -1.078101e-01 -1.050989e-01 -1.033404e-01 -9.974886e-02 -9.660696e-02 -9.222037e-02 -8.775643e-02 -8.268229e-02 -7.699093e-02 -7.134514e-02 -6.454193e-02 -5.843649e-02 -5.064774e-02 -4.418328e-02 -3.554080e-02 -2.880608e-02 -1.944886e-02 -1.252832e-02 -2.611823e-03 4.398880e-03 1.468633e-02 2.165830e-02 3.207381e-02 3.881898e-02 4.904100e-02 5.528596e-02 6.489197e-02 7.025663e-02 7.870775e-02 8.269439e-02 8.933293e-02 9.133216e-02 9.539872e-02 9.471908e-02 9.539632e-02 9.132490e-02 8.781575e-02 7.971719e-02 7.136586e-02 5.882706e-02 4.528985e-02 2.831273e-02 9.777402e-03 -1.099398e-02 -3.356632e-02 -5.663714e-02 -8.132654e-02 -1.042810e-01 -1.282361e-01 -1.479953e-01 -1.678800e-01 -1.814460e-01 -1.943921e-01 -1.999465e-01 -2.046784e-01 -2.023823e-01 -1.997054e-01 -1.914677e-01 -1.836112e-01 -1.720297e-01 -1.613471e-01 -1.484639e-01 -1.363176e-01 -1.225677e-01 -1.084899e-01 -9.200561e-02 -7.306647e-02 -5.040323e-02 -2.331244e-02 6.056079e-03 3.932016e-02 6.627685e-02 9.302473e-02 9.572811e-02 9.297473e-02 4.836923e-02 3.328369e-03 -6.195210e-02 -1.109126e-01 -1.363086e-01 -8.407559e-02 -7.007116e-02 -1.554961e-02 6.449341e-02 1.318853e-01 1.360414e-01 1.219596e-01 1.102571e-01 8.573137e-02 7.692332e-02 5.936157e-02 5.747058e-02 4.349883e-02 4.725506e-02 3.501315e-02 4.868963e-02 2.668210e-02 1.816677e-02 2.777660e-03 -3.649679e-03 -1.344152e-02 -1.774623e-02 -2.507978e-02 -2.848008e-02 -3.494689e-02 -3.807875e-02 -4.434098e-02 -4.744057e-02 -5.372378e-02 -5.682908e-02 -6.315338e-02 -6.620669e-02 -7.248766e-02 -7.538284e-02 -8.147706e-02 -8.408242e-02 -8.981071e-02 -9.198271e-02 -9.714577e-02 
-1.135203e-01 -1.188425e-01 -1.195708e-01 -1.237080e-01 -1.236153e-01 -1.263439e-01 -1.253379e-01 -1.264855e-01 -1.245208e-01 -1.239795e-01 -1.210624e-01 -1.187954e-01 -1.149805e-01 -1.110198e-01 -1.064006e-01 -1.008362e-01 -9.552936e-02 -8.849293e-02 -8.262109e-02 -7.426784e-02 -6.794422e-02 -5.843745e-02 -5.175613e-02 -4.125799e-02 -3.429272e-02 -2.296374e-02 -1.577645e-02 -3.784760e-03 3.556446e-03 1.601675e-02 2.341146e-02 3.609473e-02 4.337898e-02 5.595855e-02 6.287238e-02 7.491175e-02 8.107100e-02 9.200151e-02 9.688005e-02 1.059918e-01 1.089215e-01 1.153749e-01 1.155712e-01 1.184376e-01 1.150593e-01 1.134002e-01 1.056537e-01 9.865041e-02 8.595097e-02 7.309530e-02 5.529475e-02 3.664679e-02 1.432089e-02 -9.191298e-03 -3.445057e-02 -6.078062e-02 -8.622058e-02 -1.122029e-01 -1.341866e-01 -1.560620e-01 -1.710346e-01 -1.856149e-01 -1.916027e-01 -1.975623e-01 -1.951460e-01 -1.933503e-01 -1.848962e-01 -1.776049e-01 -1.659012e-01 -1.555252e-01 -1.428719e-01 -1.311483e-01 -1.184856e-01 -1.056609e-01 -9.148010e-02 -7.441750e-02 -5.423595e-02 -2.795354e-02 1.280652e-03 3.630837e-02 6.843767e-02 9.651976e-02 1.111336e-01 9.644547e-02 6.396863e-02 -1.798409e-02 -9.203212e-02 -1.019093e-01 -8.798411e-02 -3.046341e-02 8.034914e-03 1.588195e-01 1.833690e-01 1.155241e-01 8.130973e-02 3.909980e-02 1.197991e-02 -2.005132e-02 -2.520376e-02 -4.348184e-02 -4.403630e-02 -5.312018e-02 -5.313368e-02 -5.850576e-02 -4.804880e-02 -3.863944e-02 -3.007341e-02 -3.052911e-02 -2.898926e-02 -3.332738e-02 -3.398661e-02 -3.952028e-02 -4.096149e-02 -4.711984e-02 -4.901837e-02 -5.568281e-02 -5.792130e-02 -6.499815e-02 -6.746880e-02 -7.481798e-02 -7.739267e-02 -8.482770e-02 -8.735941e-02 -9.465658e-02 -9.698479e-02 -1.038927e-01 -1.058499e-01 -1.121004e-01 