# vtk DataFile Version 2.0
Comment goes here
ASCII

DATASET STRUCTURED_POINTS
DIMENSIONS    128   128   1

ORIGIN    0.000   0.000   0.000
SPACING   0.0156250.015625   1.000

POINT_DATA   16384
SCALARS uX double
LOOKUP_TABLE default

-8.008400e-04 -8.765451e-04 -9.133988e-04 -9.759557e-04 -1.009195e-03 -1.058320e-03 -1.088147e-03 -1.123703e-03 -1.150283e-03 -1.172314e-03 -1.195794e-03 -1.204550e-03 -1.225084e-03 -1.221032e-03 -1.238795e-03 -1.222620e-03 -1.237823e-03 -1.210421e-03 -1.223323e-03 -1.185779e-03 -1.196700e-03 -1.150271e-03 -1.159599e-03 -1.105687e-03 -1.113886e-03 -1.054014e-03 -1.061635e-03 -9.974169e-04 -1.005099e-03 -9.382133e-04 -9.466807e-04 -8.788404e-04 -8.888914e-04 -8.218043e-04 -8.342852e-04 -7.696061e-04 -7.853679e-04 -7.246344e-04 -7.444675e-04 -6.890181e-04 -7.135619e-04 -6.644328e-04 -6.940613e-04 -6.518665e-04 -6.865530e-04 -6.513560e-04 -6.905289e-04 -6.617208e-04 -7.041306e-04 -6.803423e-04 -7.239655e-04 -7.030423e-04 -7.450580e-04 -7.241312e-04 -7.610010e-04 -7.366788e-04 -7.643522e-04 -7.330318e-04 -7.472760e-04 -7.055472e-04 -7.023675e-04 -6.474442e-04 -6.235353e-04 -5.536312e-04 -5.067864e-04 -4.213628e-04 -3.507839e-04 -2.506392e-04 -1.571226e-04 -4.435019e-05 6.963497e-05 1.917478e-04 3.220629e-04 4.491219e-04 5.900389e-04 7.166041e-04 8.610289e-04 9.807579e-04 1.120745e-03 1.226840e-03 1.354573e-03 1.440756e-03 1.550056e-03 1.612058e-03 1.700131e-03 1.737230e-03 1.805968e-03 1.821677e-03 1.877533e-03 1.878545e-03 1.930339e-03 1.923631e-03 1.978598e-03 1.967821e-03 2.027465e-03 2.010686e-03 2.068598e-03 2.038485e-03 2.081380e-03 2.028227e-03 2.041282e-03 1.957006e-03 1.928681e-03 1.810389e-03 1.740062e-03 1.593996e-03 1.498227e-03 1.336272e-03 1.232300e-03 1.064574e-03 9.630635e-04 7.962953e-04 7.021433e-04 5.404887e-04 4.552317e-04 3.012133e-04 2.247649e-04 7.991445e-05 1.151785e-05 -1.232042e-04 -1.845003e-04 -3.084293e-04 -3.635461e-04 -4.761443e-04 -5.258769e-04 -6.266483e-04 -6.716376e-04 -7.601018e-04 
-5.468296e-04 -6.070725e-04 -6.501687e-04 -7.020216e-04 -7.403344e-04 -7.837533e-04 -8.173979e-04 -8.523812e-04 -8.814580e-04 -9.080723e-04 -9.326915e-04 -9.510923e-04 -9.713932e-04 -9.818397e-04 -9.980066e-04 -1.000870e-03 -1.013144e-03 -1.008909e-03 -1.017599e-03 -1.006866e-03 -1.012354e-03 -9.958326e-04 -9.985830e-04 -9.770911e-04 -9.776555e-04 -9.521097e-04 -9.511322e-04 -9.225423e-04 -9.207605e-04 -8.902188e-04 -8.884598e-04 -8.571248e-04 -8.562924e-04 -8.253626e-04 -8.264117e-04 -7.970861e-04 -8.009791e-04 -7.743988e-04 -7.820410e-04 -7.592092e-04 -7.713581e-04 -7.530370e-04 -7.701870e-04 -7.567744e-04 -7.790200e-04 -7.704150e-04 -7.973048e-04 -7.927797e-04 -8.231801e-04 -8.212868e-04 -8.532852e-04 -8.518276e-04 -8.827116e-04 -8.788221e-04 -9.051691e-04 -8.955139e-04 -9.134146e-04 -8.945294e-04 -8.999411e-04 -8.686595e-04 -8.578463e-04 -8.117407e-04 -7.817219e-04 -7.194531e-04 -6.683691e-04 -5.898553e-04 -5.171840e-04 -4.235650e-04 -3.301894e-04 -2.236510e-04 -1.118425e-04 4.567314e-06 1.311612e-04 2.536023e-04 3.899329e-04 5.137095e-04 6.533581e-04 7.728746e-04 9.083649e-04 1.017404e-03 1.141067e-03 1.233685e-03 1.339186e-03 1.411245e-03 1.495500e-03 1.546333e-03 1.611006e-03 1.644214e-03 1.695728e-03 1.718041e-03 1.765329e-03 1.783359e-03 1.833618e-03 1.849919e-03 1.904158e-03 1.915396e-03 1.966568e-03 1.965263e-03 2.000723e-03 1.977989e-03 1.983400e-03 1.931358e-03 1.894062e-03 1.809112e-03 1.727089e-03 1.615300e-03 1.507332e-03 1.381109e-03 1.265589e-03 1.134793e-03 1.022341e-03 8.930285e-04 7.882207e-04 6.638371e-04 5.680170e-04 4.504404e-04 3.634935e-04 2.536662e-04 1.749174e-04 7.323919e-05 1.875746e-06 -9.153337e-05 -1.562699e-04 -2.414013e-04 -3.001383e-04 -3.769997e-04 -4.302160e-04 -4.987909e-04 
-8.091629e-04 -8.850640e-04 -9.217817e-04 -9.844819e-04 -1.017618e-03 -1.066813e-03 -1.096558e-03 -1.132093e-03 -1.158598e-03 -1.180505e-03 -1.203908e-03 -1.212431e-03 -1.232877e-03 -1.228483e-03 -1.246140e-03 -1.229518e-03 -1.244591e-03 -1.216645e-03 -1.229389e-03 -1.191216e-03 -1.201944e-03 -1.154813e-03 -1.163908e-03 -1.109235e-03 -1.117160e-03 -1.056479e-03 -1.063782e-03 -9.987228e-04 -1.006044e-03 -9.383003e-04 -9.463699e-04 -8.776738e-04 -8.873033e-04 -8.193866e-04 -8.314440e-04 -7.659935e-04 -7.813624e-04 -7.199572e-04 -7.394730e-04 -6.835028e-04 -7.078624e-04 -6.584234e-04 -6.880684e-04 -6.458393e-04 -6.808148e-04 -6.459195e-04 -6.857209e-04 -6.575950e-04 -7.010204e-04 -6.783070e-04 -7.233450e-04 -7.038538e-04 -7.476433e-04 -7.284101e-04 -7.673100e-04 -7.447867e-04 -7.745815e-04 -7.449634e-04 -7.612099e-04 -7.208713e-04 -7.193487e-04 -6.653154e-04 -6.425136e-04 -5.728753e-04 -5.264327e-04 -4.406062e-04 -3.696308e-04 -2.684357e-04 -1.736850e-04 -5.926563e-05 5.679011e-05 1.811027e-04 3.142847e-04 4.440654e-04 5.885337e-04 7.182711e-04 8.666739e-04 9.898017e-04 1.133702e-03 1.242935e-03 1.373765e-03 1.462080e-03 1.572781e-03 1.635141e-03 1.722273e-03 1.757611e-03 1.823124e-03 1.835476e-03 1.886916e-03 1.884424e-03 1.932581e-03 1.924017e-03 1.978198e-03 1.968339e-03 2.031140e-03 2.017972e-03 2.082472e-03 2.057154e-03 2.107408e-03 2.058241e-03 2.077022e-03 1.994160e-03 1.966152e-03 1.844787e-03 1.766274e-03 1.614375e-03 1.510090e-03 1.343155e-03 1.233902e-03 1.062840e-03 9.588968e-04 7.900563e-04 6.951395e-04 5.322232e-04 4.470108e-04 2.922253e-04 2.161563e-04 7.082407e-05 2.904240e-06 -1.321518e-04 -1.929862e-04 -3.171855e-04 -3.719035e-04 -4.847513e-04 -5.341625e-04 -6.351756e-04 -6.799175e-04 -7.686092e-04 
-5.601050e-04 -6.204072e-04 -6.633432e-04 -7.152415e-04 -7.534380e-04 -7.968599e-04 -8.304032e-04 -8.653210e-04 -8.942871e-04 -9.207468e-04 -9.452258e-04 -9.633685e-04 -9.834845e-04 -9.935609e-04 -1.009486e-03 -1.011864e-03 -1.023830e-03 -1.018996e-03 -1.027303e-03 -1.015859e-03 -1.020883e-03 -1.003545e-03 -1.005744e-03 -9.833347e-04 -9.832559e-04 -9.566992e-04 -9.549851e-04 -9.253016e-04 -9.226939e-04 -8.909922e-04 -8.883308e-04 -8.557954e-04 -8.540098e-04 -8.218790e-04 -8.219674e-04 -7.914983e-04 -7.944885e-04 -7.669023e-04 -7.737895e-04 -7.501928e-04 -7.618500e-04 -7.431285e-04 -7.601868e-04 -7.468726e-04 -7.695729e-04 -7.616927e-04 -7.897197e-04 -7.866405e-04 -8.189571e-04 -8.192575e-04 -8.539724e-04 -8.553800e-04 -8.896911e-04 -8.891329e-04 -9.193939e-04 -9.132004e-04 -9.351486e-04 -9.194271e-04 -9.285793e-04 -8.997223e-04 -8.918938e-04 -8.471242e-04 -8.189689e-04 -7.567784e-04 -7.062193e-04 -6.265621e-04 -5.530095e-04 -4.572012e-04 -3.615545e-04 -2.519653e-04 -1.365080e-04 -1.625571e-05 1.153893e-04 2.425278e-04 3.852810e-04 5.146538e-04 6.617836e-04 7.875174e-04 9.306825e-04 1.045665e-03 1.175666e-03 1.272420e-03 1.381013e-03 1.453732e-03 1.536326e-03 1.583553e-03 1.641796e-03 1.668252e-03 1.710809e-03 1.726460e-03 1.766480e-03 1.781855e-03 1.830985e-03 1.850463e-03 1.911572e-03 1.930095e-03 1.993710e-03 2.001088e-03 2.050686e-03 2.035637e-03 2.053535e-03 2.004975e-03 1.969708e-03 1.878877e-03 1.778426e-03 1.654647e-03 1.528662e-03 1.392860e-03 1.266904e-03 1.130153e-03 1.013177e-03 8.804420e-04 7.743015e-04 6.480417e-04 5.523382e-04 4.338185e-04 3.475478e-04 2.373192e-04 1.593842e-04 5.758442e-05 -1.301944e-05 -1.064387e-04 -1.705467e-04 -2.556720e-04 -3.139290e-04 -3.908085e-04 -4.436805e-04 -5.123023e-04 
-8.341125e-04 -9.106199e-04 -9.469465e-04 -1.010094e-03 -1.042939e-03 -1.092358e-03 -1.121869e-03 -1.157351e-03 -1.183642e-03 -1.205182e-03 -1.228362e-03 -1.236187e-03 -1.256376e-03 -1.250950e-03 -1.268295e-03 -1.250324e-03 -1.265013e-03 -1.235427e-03 -1.247697e-03 -1.207626e-03 -1.217777e-03 -1.168530e-03 -1.176930e-03 -1.119961e-03 -1.127062e-03 -1.063946e-03 -1.070289e-03 -1.002695e-03 -1.008924e-03 -9.385911e-04 -9.454521e-04 -8.741678e-04 -8.825078e-04 -8.120749e-04 -8.228250e-04 -7.550242e-04 -7.691647e-04 -7.056982e-04 -7.241996e-04 -6.666123e-04 -6.903462e-04 -6.399189e-04 -6.695350e-04 -6.271478e-04 -6.629169e-04 -6.288878e-04 -6.705196e-04 -6.444327e-04 -6.908851e-04 -6.714369e-04 -7.207508e-04 -7.056556e-04 -7.548604e-04 -7.408688e-04 -7.860139e-04 -7.690942e-04 -8.054539e-04 -7.811640e-04 -8.036332e-04 -7.676589e-04 -7.713039e-04 -7.200707e-04 -7.007378e-04 -6.319484e-04 -5.867999e-04 -4.997510e-04 -4.276215e-04 -3.232319e-04 -2.247767e-04 -1.053794e-04 1.692577e-05 1.478634e-04 2.897519e-04 4.277658e-04 5.831371e-04 7.226130e-04 8.834313e-04 1.017243e-03 1.173623e-03 1.293019e-03 1.434002e-03 1.529489e-03 1.645031e-03 1.708810e-03 1.793044e-03 1.822575e-03 1.877290e-03 1.878096e-03 1.914249e-03 1.899347e-03 1.934366e-03 1.918899e-03 1.969348e-03 1.961990e-03 2.034362e-03 2.033075e-03 2.119502e-03 2.110073e-03 2.184319e-03 2.148402e-03 2.187685e-03 2.110658e-03 2.086677e-03 1.954859e-03 1.844538e-03 1.672585e-03 1.540099e-03 1.358090e-03 1.233793e-03 1.053329e-03 9.433787e-04 7.688271e-04 6.724929e-04 5.061179e-04 4.215144e-04 2.646400e-04 1.899450e-04 4.330835e-05 -2.307096e-05 -1.590416e-04 -2.184453e-04 -3.434096e-04 -3.969194e-04 -5.104999e-04 -5.589518e-04 -6.606936e-04 -7.047072e-04 -7.940953e-04 
-5.865666e-04 -6.470124e-04 -6.896612e-04 -7.416775e-04 -7.796713e-04 -8.231237e-04 -8.564898e-04 -8.912962e-04 -9.200613e-04 -9.462252e-04 -9.704403e-04 -9.880741e-04 -1.007833e-03 -1.017172e-03 -1.032623e-03 -1.034029e-03 -1.045388e-03 -1.039350e-03 -1.046900e-03 -1.034030e-03 -1.038132e-03 -1.019154e-03 -1.020255e-03 -9.960033e-04 -9.946388e-04 -9.660507e-04 -9.628585e-04 -9.309727e-04 -9.266991e-04 -8.926532e-04 -8.881596e-04 -8.531854e-04 -8.494486e-04 -8.148596e-04 -8.129597e-04 -7.801259e-04 -7.812179e-04 -7.515194e-04 -7.567784e-04 -7.315312e-04 -7.420658e-04 -7.224117e-04 -7.391372e-04 -7.258946e-04 -7.493650e-04 -7.428428e-04 -7.730441e-04 -7.728321e-04 -8.089563e-04 -8.137226e-04 -8.539563e-04 -8.613021e-04 -9.026866e-04 -9.091293e-04 -9.475668e-04 -9.487277e-04 -9.792064e-04 -9.702564e-04 -9.873339e-04 -9.636785e-04 -9.621807e-04 -9.202554e-04 -8.960405e-04 -8.339742e-04 -7.845295e-04 -7.024134e-04 -6.270803e-04 -5.267125e-04 -4.265113e-04 -3.107533e-04 -1.880241e-04 -6.015256e-05 8.162291e-05 2.181107e-04 3.740182e-04 5.148608e-04 6.778128e-04 8.168767e-04 9.769155e-04 1.105317e-03 1.249901e-03 1.356597e-03 1.472867e-03 1.547700e-03 1.626965e-03 1.665824e-03 1.708899e-03 1.718499e-03 1.738711e-03 1.736803e-03 1.757367e-03 1.764961e-03 1.809110e-03 1.835592e-03 1.911555e-03 1.945832e-03 2.036557e-03 2.062026e-03 2.141619e-03 2.143534e-03 2.193665e-03 2.156046e-03 2.134691e-03 2.030539e-03 1.875641e-03 1.722965e-03 1.556764e-03 1.402657e-03 1.258752e-03 1.111864e-03 9.888887e-04 8.504394e-04 7.434328e-04 6.140568e-04 5.194829e-04 3.994715e-04 3.149752e-04 2.042076e-04 1.280908e-04 2.621804e-05 -4.279095e-05 -1.361341e-04 -1.989686e-04 -2.840392e-04 -3.413505e-04 -4.182602e-04 -4.704719e-04 -5.392026e-04 
-8.756334e-04 -9.532258e-04 -9.889525e-04 -1.052918e-03 -1.085324e-03 -1.135175e-03 -1.164335e-03 -1.199768e-03 -1.225738e-03 -1.246687e-03 -1.269524e-03 -1.276183e-03 -1.295968e-03 -1.288806e-03 -1.305652e-03 -1.285402e-03 -1.299470e-03 -1.267110e-03 -1.278609e-03 -1.235333e-03 -1.244538e-03 -1.191719e-03 -1.198974e-03 -1.138134e-03 -1.143869e-03 -1.076647e-03 -1.081389e-03 -1.009519e-03 -1.013910e-03 -9.392017e-04 -9.440069e-04 -8.683313e-04 -8.744508e-04 -7.997211e-04 -8.081837e-04 -7.363303e-04 -7.482719e-04 -6.811991e-04 -6.978145e-04 -6.373294e-04 -6.597879e-04 -6.074922e-04 -6.368084e-04 -5.939451e-04 -6.307983e-04 -5.980511e-04 -6.425554e-04 -6.198110e-04 -6.712497e-04 -6.573523e-04 -7.139126e-04 -7.064630e-04 -7.650334e-04 -7.603153e-04 -8.164314e-04 -8.095574e-04 -8.575871e-04 -8.429394e-04 -8.765652e-04 -8.485297e-04 -8.614959e-04 -8.153603e-04 -8.023339e-04 -7.350965e-04 -6.924074e-04 -6.032173e-04 -5.292788e-04 -4.193617e-04 -3.147261e-04 -1.868834e-04 -5.406226e-05 8.796424e-05 2.446600e-04 3.965213e-04 5.708314e-04 7.271724e-04 9.102906e-04 1.063537e-03 1.243359e-03 1.382407e-03 1.543587e-03 1.654040e-03 1.780281e-03 1.848000e-03 1.927495e-03 1.945586e-03 1.978333e-03 1.954198e-03 1.957004e-03 1.913582e-03 1.917496e-03 1.884516e-03 1.922164e-03 1.916007e-03 2.001623e-03 2.021410e-03 2.150456e-03 2.169691e-03 2.285331e-03 2.271986e-03 2.354872e-03 2.293150e-03 2.295404e-03 2.144345e-03 1.949687e-03 1.739808e-03 1.558329e-03 1.355981e-03 1.214206e-03 1.021944e-03 9.076638e-04 7.255508e-04 6.298491e-04 4.587520e-04 3.766000e-04 2.169061e-04 1.451796e-04 -3.189310e-06 -6.668787e-05 -2.039133e-04 -2.608044e-04 -3.869116e-04 -4.383771e-04 -5.531452e-04 -6.000183e-04 -7.030036e-04 -7.458469e-04 -8.364584e-04 
-6.260284e-04 -6.867622e-04 -7.290638e-04 -7.813324e-04 -8.190962e-04 -8.626612e-04 -8.958233e-04 -9.305149e-04 -9.590279e-04 -9.847837e-04 -1.008641e-03 -1.025531e-03 -1.044784e-03 -1.053022e-03 -1.067786e-03 -1.067732e-03 -1.078197e-03 -1.070347e-03 -1.076776e-03 -1.061755e-03 -1.064490e-03 -1.043039e-03 -1.042504e-03 -1.015473e-03 -1.012186e-03 -9.805276e-04 -9.751111e-04 -9.398852e-04 -9.330843e-04 -8.954624e-04 -8.881602e-04 -8.494336e-04 -8.426652e-04 -8.042481e-04 -7.992050e-04 -7.626263e-04 -7.606449e-04 -7.275181e-04 -7.300405e-04 -7.020010e-04 -7.104975e-04 -6.890924e-04 -7.049314e-04 -6.914515e-04 -7.157058e-04 -7.109517e-04 -7.441353e-04 -7.481225e-04 -7.898678e-04 -8.014989e-04 -8.502099e-04 -8.669766e-04 -9.195323e-04 -9.373545e-04 -9.889801e-04 -1.002325e-03 -1.046776e-03 -1.049192e-03 -1.079369e-03 -1.064480e-03 -1.073455e-03 -1.036245e-03 -1.018483e-03 -9.564497e-04 -9.087779e-04 -8.224047e-04 -7.442709e-04 -6.364821e-04 -5.293861e-04 -4.041829e-04 -2.707002e-04 -1.317119e-04 2.510837e-05 1.752068e-04 3.513560e-04 5.098019e-04 6.985342e-04 8.598119e-04 1.049265e-03 1.202127e-03 1.374152e-03 1.500936e-03 1.633548e-03 1.714541e-03 1.789520e-03 1.813002e-03 1.827018e-03 1.801036e-03 1.774127e-03 1.731305e-03 1.705838e-03 1.691637e-03 1.716266e-03 1.752309e-03 1.848951e-03 1.901541e-03 2.029400e-03 2.071969e-03 2.185046e-03 2.205354e-03 2.315022e-03 2.302501e-03 2.352603e-03 2.234565e-03 1.939486e-03 1.746229e-03 1.531553e-03 1.366109e-03 1.214362e-03 1.060615e-03 9.387224e-04 7.948383e-04 6.908629e-04 5.582113e-04 4.671660e-04 3.457974e-04 2.647777e-04 1.538213e-04 8.079476e-05 -2.078583e-05 -8.726652e-05 -1.802764e-04 -2.411864e-04 -3.260908e-04 -3.820326e-04 -4.589903e-04 -5.102899e-04 -5.792357e-04 
-9.336219e-04 -1.012907e-03 -1.047906e-03 -1.113177e-03 -1.145069e-03 -1.195653e-03 -1.224409e-03 -1.259862e-03 -1.285452e-03 -1.305613e-03 -1.328029e-03 -1.333054e-03 -1.352320e-03 -1.342688e-03 -1.358877e-03 -1.335370e-03 -1.348603e-03 -1.312278e-03 -1.322732e-03 -1.274878e-03 -1.282791e-03 -1.224879e-03 -1.230560e-03 -1.164209e-03 -1.168050e-03 -1.094989e-03 -1.097489e-03 -1.019534e-03 -1.021319e-03 -9.403653e-04 -9.422151e-04 -8.602347e-04 -8.631049e-04 -7.821478e-04 -7.871869e-04 -7.093767e-04 -7.179247e-04 -6.454384e-04 -6.589987e-04 -5.940139e-04 -6.141826e-04 -5.587755e-04 -5.871124e-04 -5.430893e-04 -5.809125e-04 -5.495604e-04 -5.976539e-04 -5.794081e-04 -6.376457e-04 -6.316982e-04 -6.986163e-04 -7.025287e-04 -7.749294e-04 -7.843720e-04 -8.570912e-04 -8.658805e-04 -9.318977e-04 -9.325065e-04 -9.835444e-04 -9.681602e-04 -9.957805e-04 -9.577441e-04 -9.546944e-04 -8.898599e-04 -8.512170e-04 -7.586602e-04 -6.823600e-04 -5.641143e-04 -4.507867e-04 -3.107566e-04 -1.631087e-04 -5.644458e-06 1.721187e-04 3.431828e-04 5.452378e-04 7.260187e-04 9.435407e-04 1.127323e-03 1.345932e-03 1.519029e-03 1.716689e-03 1.856219e-03 2.004894e-03 2.083270e-03 2.157644e-03 2.156119e-03 2.148675e-03 2.074289e-03 2.009065e-03 1.902154e-03 1.835028e-03 1.757965e-03 1.754199e-03 1.729586e-03 1.804635e-03 1.834787e-03 2.020226e-03 2.058572e-03 2.197232e-03 2.185922e-03 2.321898e-03 2.280136e-03 2.403313e-03 2.250952e-03 1.873942e-03 1.656744e-03 1.460937e-03 1.269921e-03 1.140953e-03 9.458505e-04 8.403462e-04 6.515979e-04 5.622624e-04 3.863107e-04 3.098199e-04 1.474111e-04 8.085849e-05 -6.905907e-05 -1.280559e-04 -2.665107e-04 -3.197075e-04 -4.471781e-04 -4.957663e-04 -6.121658e-04 -6.568974e-04 -7.617173e-04 -8.030287e-04 -8.955090e-04 
-6.781933e-04 -7.394684e-04 -7.814693e-04 -8.342286e-04 -8.718265e-04 -9.156739e-04 -9.486795e-04 -9.833184e-04 -1.011586e-03 -1.036864e-03 -1.060313e-03 -1.076245e-03 -1.094874e-03 -1.101653e-03 -1.115542e-03 -1.113529e-03 -1.122838e-03 -1.112550e-03 -1.117518e-03 -1.099605e-03 -1.100547e-03 -1.075775e-03 -1.073087e-03 -1.042323e-03 -1.036489e-03 -1.000701e-03 -9.923157e-04 -9.525781e-04 -9.423667e-04 -8.998775e-04 -8.887317e-04 -8.448385e-04 -8.338469e-04 -7.900729e-04 -7.805503e-04 -7.386130e-04 -7.321161e-04 -6.939258e-04 -6.922413e-04 -6.598623e-04 -6.649522e-04 -6.405053e-04 -6.543850e-04 -6.398674e-04 -6.643915e-04 -6.613902e-04 -6.979235e-04 -7.072073e-04 -7.561697e-04 -7.771737e-04 -8.374833e-04 -8.677509e-04 -9.362525e-04 -9.709874e-04 -1.042045e-03 -1.074024e-03 -1.139550e-03 -1.159708e-03 -1.209911e-03 -1.208805e-03 -1.233786e-03 -1.203794e-03 -1.195659e-03 -1.133175e-03 -1.087828e-03 -9.942737e-04 -9.118395e-04 -7.926282e-04 -6.760618e-04 -5.377845e-04 -3.904990e-04 -2.377189e-04 -6.184524e-05 1.046265e-04 3.077634e-04 4.893282e-04 7.157025e-04 9.104407e-04 1.147454e-03 1.342429e-03 1.563847e-03 1.730353e-03 1.897322e-03 1.995714e-03 2.068712e-03 2.066782e-03 2.028205e-03 1.928455e-03 1.804014e-03 1.663916e-03 1.529080e-03 1.450767e-03 1.403628e-03 1.436660e-03 1.528522e-03 1.534038e-03 1.635223e-03 1.606627e-03 1.655539e-03 1.625328e-03 1.759501e-03 1.753771e-03 2.062805e-03 2.022102e-03 1.502375e-03 1.411094e-03 1.294158e-03 1.196543e-03 1.101207e-03 9.576918e-04 8.559005e-04 7.082507e-04 6.134901e-04 4.779452e-04 3.934781e-04 2.716680e-04 1.961701e-04 8.606496e-05 1.757675e-05 -8.290640e-05 -1.458835e-04 -2.380948e-04 -2.964779e-04 -3.810572e-04 -4.353034e-04 -5.123746e-04 -5.626268e-04 -6.319875e-04 
-1.007919e-03 -1.089716e-03 -1.123981e-03 -1.191231e-03 -1.222636e-03 -1.274400e-03 -1.302781e-03 -1.338413e-03 -1.363633e-03 -1.382850e-03 -1.404817e-03 -1.407731e-03 -1.426408e-03 -1.413521e-03 -1.428931e-03 -1.401110e-03 -1.413333e-03 -1.371755e-03 -1.380927e-03 -1.327020e-03 -1.333333e-03 -1.268711e-03 -1.272423e-03 -1.198834e-03 -1.200284e-03 -1.119565e-03 -1.119198e-03 -1.033261e-03 -1.031662e-03 -9.424910e-04 -9.404293e-04 -8.500945e-04 -8.485670e-04 -7.592587e-04 -7.595342e-04 -6.735903e-04 -6.772413e-04 -5.971641e-04 -6.060730e-04 -5.345123e-04 -5.508315e-04 -4.905066e-04 -5.165461e-04 -4.700762e-04 -5.080853e-04 -4.776929e-04 -5.295020e-04 -5.165629e-04 -5.830629e-04 -5.875037e-04 -6.679776e-04 -6.875814e-04 -7.789764e-04 -8.087636e-04 -9.051064e-04 -9.370861e-04 -1.029368e-03 -1.053046e-03 -1.129934e-03 -1.133861e-03 -1.183387e-03 -1.157596e-03 -1.169446e-03 -1.107939e-03 -1.075406e-03 -9.774492e-04 -8.981575e-04 -7.676787e-04 -6.429520e-04 -4.863843e-04 -3.197044e-04 -1.429683e-04 6.168572e-05 2.558354e-04 4.944599e-04 7.063959e-04 9.727007e-04 1.200703e-03 1.480126e-03 1.710123e-03 1.972211e-03 2.168167e-03 2.364012e-03 2.470477e-03 2.544514e-03 2.511197e-03 2.430869e-03 2.252918e-03 2.046408e-03 1.792101e-03 1.561410e-03 1.378742e-03 1.259804e-03 1.117328e-03 1.012127e-03 8.911856e-04 1.026602e-03 9.263165e-04 8.690119e-04 7.007118e-04 6.990976e-04 5.825437e-04 8.841754e-04 9.411238e-04 7.603956e-04 9.948127e-04 1.109951e-03 1.044807e-03 1.011625e-03 8.232748e-04 7.435526e-04 5.460240e-04 4.681019e-04 2.871790e-04 2.194672e-04 5.546072e-05 -3.516548e-06 -1.539490e-04 -2.066869e-04 -3.458925e-04 -3.942035e-04 -5.231243e-04 -5.680832e-04 -6.866225e-04 -7.287764e-04 -8.361909e-04 -8.757487e-04 -9.709533e-04 
-7.426487e-04 -8.048952e-04 -8.467937e-04 -9.004398e-04 -9.380610e-04 -9.824873e-04 -1.015482e-03 -1.050221e-03 -1.078323e-03 -1.103107e-03 -1.126150e-03 -1.140932e-03 -1.158858e-03 -1.163816e-03 -1.176668e-03 -1.172181e-03 -1.180095e-03 -1.166719e-03 -1.169911e-03 -1.148340e-03 -1.147095e-03 -1.118132e-03 -1.112806e-03 -1.077341e-03 -1.068369e-03 -1.027377e-03 -1.015296e-03 -9.698481e-04 -9.553352e-04 -9.066312e-04 -8.905530e-04 -8.399701e-04 -8.234403e-04 -7.725919e-04 -7.570333e-04 -7.078272e-04 -6.950278e-04 -6.497097e-04 -6.418564e-04 -6.030170e-04 -6.026852e-04 -5.731991e-04 -5.832648e-04 -5.661225e-04 -5.895517e-04 -5.875342e-04 -6.269975e-04 -6.421429e-04 -6.994044e-04 -7.322379e-04 -8.073011e-04 -8.558661e-04 -9.459491e-04 -1.004820e-03 -1.103398e-03 -1.163078e-03 -1.259468e-03 -1.306809e-03 -1.386941e-03 -1.407237e-03 -1.456119e-03 -1.436952e-03 -1.442537e-03 -1.378183e-03 -1.335037e-03 -1.228887e-03 -1.139197e-03 -1.001972e-03 -8.725228e-04 -7.166079e-04 -5.533888e-04 -3.860059e-04 -1.897538e-04 -8.310241e-06 2.258400e-04 4.324426e-04 7.090544e-04 9.501803e-04 1.260957e-03 1.526655e-03 1.836060e-03 2.081246e-03 2.320441e-03 2.464777e-03 2.545993e-03 2.502669e-03 2.363995e-03 2.102148e-03 1.766815e-03 1.385983e-03 9.973023e-04 7.370111e-04 4.716526e-04 4.488352e-04 4.315780e-04 -2.422912e-05 -5.040837e-04 -1.015805e-03 -1.504862e-03 -1.744715e-03 -2.147578e-03 -2.117066e-03 -2.378240e-03 -1.988747e-03 -4.504203e-04 4.371350e-04 9.524573e-04 9.951141e-04 1.005948e-03 8.474366e-04 7.621581e-04 5.993489e-04 5.125815e-04 3.732776e-04 2.969727e-04 1.768321e-04 1.088393e-04 1.674775e-06 -6.077483e-05 -1.588101e-04 -2.173666e-04 -3.081392e-04 -3.635381e-04 -4.476688e-04 -5.000765e-04 -5.774634e-04 -6.267207e-04 -6.968714e-04 
-1.098326e-03 -1.183771e-03 -1.217461e-03 -1.287632e-03 -1.318715e-03 -1.372302e-03 -1.400447e-03 -1.436540e-03 -1.461482e-03 -1.479644e-03 -1.501199e-03 -1.501497e-03 -1.519562e-03 -1.502556e-03 -1.517107e-03 -1.483795e-03 -1.494871e-03 -1.446613e-03 -1.454309e-03 -1.392735e-03 -1.397190e-03 -1.324112e-03 -1.325517e-03 -1.242849e-03 -1.241463e-03 -1.151177e-03 -1.147356e-03 -1.051456e-03 -1.045704e-03 -9.462429e-04 -9.392726e-04 -8.383937e-04 -8.311995e-04 -7.312023e-04 -7.251417e-04 -6.285615e-04 -6.254333e-04 -5.351155e-04 -5.372206e-04 -4.563646e-04 -4.665242e-04 -3.986624e-04 -4.201552e-04 -3.690161e-04 -4.053808e-04 -3.745722e-04 -4.292059e-04 -4.216470e-04 -4.971262e-04 -5.141721e-04 -6.112546e-04 -6.515296e-04 -7.678922e-04 -8.260147e-04 -9.549900e-04 -1.020655e-03 -1.150533e-03 -1.208730e-03 -1.323437e-03 -1.356640e-03 -1.438389e-03 -1.430840e-03 -1.464296e-03 -1.406851e-03 -1.382804e-03 -1.275519e-03 -1.191912e-03 -1.042767e-03 -9.031594e-04 -7.241336e-04 -5.344426e-04 -3.356800e-04 -1.001316e-04 1.167306e-04 3.982143e-04 6.430222e-04 9.726620e-04 1.258925e-03 1.629514e-03 1.952156e-03 2.326790e-03 2.632615e-03 2.926461e-03 3.101062e-03 3.187172e-03 3.091343e-03 2.854488e-03 2.430013e-03 1.895868e-03 1.268825e-03 6.740946e-04 3.022967e-04 8.696350e-05 -5.496650e-04 -1.329770e-03 -2.151176e-03 -2.739309e-03 -2.755155e-03 -2.682207e-03 -2.202296e-03 -2.186049e-03 -1.548572e-03 -1.845571e-03 -1.223773e-03 8.747276e-04 1.108758e-03 1.416528e-03 1.113883e-03 1.036232e-03 7.424025e-04 6.468058e-04 4.189529e-04 3.459864e-04 1.605409e-04 1.033472e-04 -5.883123e-05 -1.077138e-04 -2.563076e-04 -3.009724e-04 -4.399860e-04 -4.823364e-04 -6.128042e-04 -6.535865e-04 -7.750089e-04 -8.143762e-04 -9.254704e-04 -9.632704e-04 -1.062398e-03 
-8.188871e-04 -8.828014e-04 -9.249959e-04 -9.801479e-04 -1.018141e-03 -1.063614e-03 -1.096865e-03 -1.131973e-03 -1.160075e-03 -1.184410e-03 -1.207106e-03 -1.220562e-03 -1.237741e-03 -1.240496e-03 -1.252176e-03 -1.244661e-03 -1.250965e-03 -1.233806e-03 -1.234936e-03 -1.208904e-03 -1.205116e-03 -1.171072e-03 -1.162672e-03 -1.121534e-03 -1.108884e-03 -1.061618e-03 -1.045164e-03 -9.928059e-04 -9.731252e-04 -9.168290e-04 -8.947050e-04 -8.358189e-04 -8.123281e-04 -7.524973e-04 -7.291149e-04 -6.703941e-04 -6.491053e-04 -5.940690e-04 -5.774713e-04 -5.292968e-04 -5.206674e-04 -4.831516e-04 -4.864373e-04 -4.638893e-04 -4.835531e-04 -4.804812e-04 -5.211104e-04 -5.415923e-04 -6.071491e-04 -6.537688e-04 -7.463678e-04 -8.186558e-04 -9.368451e-04 -1.029348e-03 -1.166130e-03 -1.266659e-03 -1.407981e-03 -1.497215e-03 -1.622266e-03 -1.676382e-03 -1.761211e-03 -1.758593e-03 -1.783336e-03 -1.713716e-03 -1.670584e-03 -1.541119e-03 -1.437388e-03 -1.269767e-03 -1.121444e-03 -9.406692e-04 -7.607798e-04 -5.813871e-04 -3.696222e-04 -1.843058e-04 7.629207e-05 2.985593e-04 6.336743e-04 9.310374e-04 1.350804e-03 1.731429e-03 2.195307e-03 2.593680e-03 2.979497e-03 3.228446e-03 3.326033e-03 3.180194e-03 2.779757e-03 2.077898e-03 1.201001e-03 2.027814e-04 -6.275174e-04 -1.462107e-03 -2.489391e-03 -3.273205e-03 -2.758160e-03 -1.085388e-03 6.792641e-04 2.281283e-03 3.337768e-03 4.169758e-03 4.636794e-03 5.135944e-03 5.217801e-03 5.485477e-03 4.838928e-03 3.231707e-03 2.395526e-03 1.565782e-03 1.202188e-03 8.268932e-04 6.682271e-04 4.658853e-04 3.767662e-04 2.386711e-04 1.728955e-04 6.068044e-05 2.981853e-06 -9.738978e-05 -1.521493e-04 -2.458696e-04 -2.992699e-04 -3.879832e-04 -4.402315e-04 -5.240154e-04 -5.747437e-04 -6.529387e-04 -7.015307e-04 -7.731394e-04 
-1.204654e-03 -1.295338e-03 -1.328823e-03 -1.403223e-03 -1.434314e-03 -1.490636e-03 -1.518809e-03 -1.555801e-03 -1.580649e-03 -1.597689e-03 -1.618933e-03 -1.616058e-03 -1.633536e-03 -1.611411e-03 -1.625063e-03 -1.584899e-03 -1.594736e-03 -1.538167e-03 -1.544247e-03 -1.473196e-03 -1.475603e-03 -1.392151e-03 -1.390992e-03 -1.297276e-03 -1.292696e-03 -1.190836e-03 -1.183058e-03 -1.075142e-03 -1.064525e-03 -9.526313e-04 -9.397579e-04 -8.260350e-04 -8.118168e-04 -6.985952e-04 -6.843997e-04 -5.743381e-04 -5.621297e-04 -4.583718e-04 -4.508519e-04 -3.571683e-04 -3.578895e-04 -2.787624e-04 -2.921698e-04 -2.327535e-04 -2.640768e-04 -2.299329e-04 -2.848146e-04 -2.812807e-04 -3.649815e-04 -3.960081e-04 -5.120225e-04 -5.783500e-04 -7.263475e-04 -8.231109e-04 -9.964281e-04 -1.110787e-03 -1.294338e-03 -1.404578e-03 -1.574890e-03 -1.653131e-03 -1.782434e-03 -1.802271e-03 -1.866545e-03 -1.813105e-03 -1.799602e-03 -1.675008e-03 -1.583524e-03 -1.403736e-03 -1.243331e-03 -1.031704e-03 -8.147760e-04 -5.923503e-04 -3.259863e-04 -9.625991e-05 2.258543e-04 4.899963e-04 8.900788e-04 1.239362e-03 1.737085e-03 2.202953e-03 2.768181e-03 3.281905e-03 3.764238e-03 4.071908e-03 4.148315e-03 3.822388e-03 3.076837e-03 1.877471e-03 3.791365e-04 -1.332655e-03 -2.659069e-03 -3.602276e-03 -2.485259e-03 1.159723e-03 4.676982e-03 6.885470e-03 8.254892e-03 8.635792e-03 8.847333e-03 8.644625e-03 8.610639e-03 8.414671e-03 8.291923e-03 8.464852e-03 6.439357e-03 3.890361e-03 2.535926e-03 1.464402e-03 1.024794e-03 5.958460e-04 4.551915e-04 2.247493e-04 1.650189e-04 -5.343770e-06 -4.441198e-05 -1.950362e-04 -2.297181e-04 -3.724651e-04 -4.071527e-04 -5.449398e-04 -5.805832e-04 -7.130978e-04 -7.495503e-04 -8.751387e-04 -9.118717e-04 -1.028284e-03 -1.064630e-03 -1.169397e-03 
-9.063732e-04 -9.730230e-04 -1.016161e-03 -1.073736e-03 -1.112644e-03 -1.159850e-03 -1.193763e-03 -1.229645e-03 -1.258004e-03 -1.281999e-03 -1.304459e-03 -1.316410e-03 -1.332822e-03 -1.332946e-03 -1.343331e-03 -1.332159e-03 -1.336652e-03 -1.314942e-03 -1.313751e-03 -1.282398e-03 -1.275761e-03 -1.235717e-03 -1.223883e-03 -1.176103e-03 -1.159331e-03 -1.104755e-03 -1.083349e-03 -1.022928e-03 -9.972973e-04 -9.320600e-04 -9.028134e-04 -8.339793e-04 -8.020521e-04 -7.311845e-04 -6.979930e-04 -6.271828e-04 -5.948072e-04 -5.268752e-04 -4.982560e-04 -4.369497e-04 -4.160758e-04 -3.662211e-04 -3.582637e-04 -3.258020e-04 -3.371129e-04 -3.289090e-04 -3.667420e-04 -3.899760e-04 -4.617139e-04 -5.225895e-04 -6.341761e-04 -7.356405e-04 -8.889331e-04 -1.027257e-03 -1.216297e-03 -1.376993e-03 -1.584062e-03 -1.739011e-03 -1.932930e-03 -2.042482e-03 -2.183120e-03 -2.207317e-03 -2.259007e-03 -2.176966e-03 -2.126569e-03 -1.952100e-03 -1.818324e-03 -1.595304e-03 -1.415084e-03 -1.194918e-03 -9.986703e-04 -8.145753e-04 -6.042571e-04 -4.461001e-04 -1.847600e-04 1.494318e-05 3.981345e-04 7.426405e-04 1.309218e-03 1.862884e-03 2.584694e-03 3.259609e-03 3.907906e-03 4.321921e-03 4.319027e-03 3.718616e-03 2.329142e-03 1.051599e-04 -2.641265e-03 -4.598670e-03 -4.744969e-03 -7.542844e-04 5.290154e-03 8.877851e-03 9.424703e-03 8.108482e-03 6.719531e-03 5.240486e-03 4.309527e-03 3.611190e-03 2.975530e-03 2.822466e-03 2.182214e-03 2.627561e-03 2.772760e-03 1.756557e-03 1.317820e-03 8.048257e-04 6.208890e-04 3.967213e-04 3.238730e-04 1.967607e-04 1.529345e-04 5.474389e-05 1.483846e-05 -7.539727e-05 -1.176596e-04 -2.060452e-04 -2.515342e-04 -3.392952e-04 -3.873323e-04 -4.739086e-04 -5.233744e-04 -6.074710e-04 -6.571361e-04 -7.371366e-04 -7.857712e-04 -8.599462e-04 