# vtk DataFile Version 2.0
Comment goes here
ASCII

DATASET STRUCTURED_POINTS
DIMENSIONS    128   128   1

ORIGIN    0.000   0.000   0.000
SPACING   0.0156250.015625   1.000

POINT_DATA   16384
SCALARS uX double
LOOKUP_TABLE default

-4.566274e-02 -4.844113e-02 -4.916023e-02 -5.121686e-02 -5.148701e-02 -5.280947e-02 -5.264501e-02 -5.323094e-02 -5.265286e-02 -5.251165e-02 -5.154831e-02 -5.070272e-02 -4.939050e-02 -4.787795e-02 -4.626176e-02 -4.413530e-02 -4.226904e-02 -3.959791e-02 -3.754478e-02 -3.441476e-02 -3.224771e-02 -2.876123e-02 -2.656349e-02 -2.283967e-02 -2.070538e-02 -1.687987e-02 -1.491466e-02 -1.113916e-02 -9.460399e-03 -5.901459e-03 -4.637666e-03 -1.474374e-03 -7.632183e-04 1.817009e-03 1.832844e-03 3.640990e-03 2.820864e-03 3.676298e-03 1.892196e-03 1.636411e-03 -1.212612e-03 -2.698437e-03 -6.668180e-03 -9.442418e-03 -1.452291e-02 -1.856114e-02 -2.465565e-02 -2.982952e-02 -3.673653e-02 -4.279782e-02 -5.020048e-02 -5.677528e-02 -6.424310e-02 -7.084069e-02 -7.784769e-02 -8.388773e-02 -8.984888e-02 -9.470711e-02 -9.903128e-02 -1.020999e-01 -1.042533e-01 -1.050083e-01 -1.045789e-01 -1.026439e-01 -9.939729e-02 -9.459534e-02 -8.851558e-02 -8.090376e-02 -7.221674e-02 -6.210391e-02 -5.128570e-02 -3.923450e-02 -2.700390e-02 -1.381379e-02 -1.101271e-03 1.223968e-02 2.436416e-02 3.677787e-02 4.723692e-02 5.771518e-02 6.561561e-02 7.342115e-02 7.826400e-02 8.310772e-02 8.493509e-02 8.704319e-02 8.644182e-02 8.646850e-02 8.441345e-02 8.323976e-02 8.083113e-02 7.932021e-02 7.746982e-02 7.620544e-02 7.534476e-02 7.444065e-02 7.442266e-02 7.353512e-02 7.377504e-02 7.229100e-02 7.203928e-02 6.936427e-02 6.799413e-02 6.381368e-02 6.112859e-02 5.558885e-02 5.195674e-02 4.553513e-02 4.145141e-02 3.459819e-02 3.040252e-02 2.342114e-02 1.929932e-02 1.239001e-02 8.452459e-03 1.765496e-03 -1.905902e-03 -8.247751e-03 -1.158657e-02 -1.748305e-02 -2.043786e-02 -2.580952e-02 -2.834403e-02 -3.312921e-02 -3.522054e-02 -3.937139e-02 -4.100730e-02 -4.448641e-02 
-4.093578e-02 -4.342190e-02 -4.424893e-02 -4.610312e-02 -4.646072e-02 -4.767479e-02 -4.757594e-02 -4.814982e-02 -4.761454e-02 -4.755785e-02 -4.661398e-02 -4.594755e-02 -4.463135e-02 -4.338860e-02 -4.174524e-02 -3.997325e-02 -3.805719e-02 -3.581748e-02 -3.369274e-02 -3.106189e-02 -2.880240e-02 -2.587253e-02 -2.356259e-02 -2.044173e-02 -1.817662e-02 -1.498897e-02 -1.287546e-02 -9.761261e-03 -7.917891e-03 -5.032639e-03 -3.589152e-03 -1.101566e-03 -1.969961e-04 1.714869e-03 1.936250e-03 3.091501e-03 2.487109e-03 2.711838e-03 1.151233e-03 2.921748e-04 -2.328595e-03 -4.386471e-03 -8.126850e-03 -1.143941e-02 -1.629367e-02 -2.083496e-02 -2.671102e-02 -3.235167e-02 -3.905282e-02 -4.554362e-02 -5.275751e-02 -5.972309e-02 -6.702306e-02 -7.397062e-02 -8.083362e-02 -8.718033e-02 -9.302342e-02 -9.814297e-02 -1.023767e-01 -1.056609e-01 -1.077534e-01 -1.086802e-01 -1.082222e-01 -1.064196e-01 -1.031794e-01 -9.847590e-02 -9.243848e-02 -8.489419e-02 -7.628240e-02 -6.620402e-02 -5.548471e-02 -4.342671e-02 -3.130347e-02 -1.805433e-02 -5.439322e-03 8.019593e-03 2.007326e-02 3.265811e-02 4.308474e-02 5.376530e-02 6.167769e-02 6.968433e-02 7.458521e-02 7.960238e-02 8.152886e-02 8.378071e-02 8.329873e-02 8.346793e-02 8.151063e-02 8.052118e-02 7.814316e-02 7.688651e-02 7.498006e-02 7.403955e-02 7.304610e-02 7.253049e-02 7.234143e-02 7.190070e-02 7.196194e-02 7.099596e-02 7.056747e-02 6.848396e-02 6.692040e-02 6.338311e-02 6.046928e-02 5.560696e-02 5.174958e-02 4.604361e-02 4.175607e-02 3.564241e-02 3.125582e-02 2.501624e-02 2.070584e-02 1.452444e-02 1.039717e-02 4.413815e-03 5.530208e-04 -5.117809e-03 -8.642601e-03 -1.390901e-02 -1.704319e-02 -2.183469e-02 -2.453912e-02 -2.880330e-02 -3.105251e-02 -3.475056e-02 -3.652987e-02 -3.963278e-02 
-4.626413e-02 -4.904773e-02 -4.975867e-02 -5.181823e-02 -5.207882e-02 -5.340049e-02 -5.322416e-02 -5.380423e-02 -5.321122e-02 -5.305798e-02 -5.207606e-02 -5.121140e-02 -4.987653e-02 -4.833728e-02 -4.669409e-02 -4.453294e-02 -4.263508e-02 -3.992108e-02 -3.783151e-02 -3.465035e-02 -3.244174e-02 -2.889584e-02 -2.665111e-02 -2.285967e-02 -2.067265e-02 -1.677155e-02 -1.474774e-02 -1.088921e-02 -9.146196e-03 -5.497883e-03 -4.165052e-03 -9.079393e-04 -1.247851e-04 2.550677e-03 2.638371e-03 4.538709e-03 3.785661e-03 4.724166e-03 2.996065e-03 2.806524e-03 -5.402556e-06 -1.450853e-03 -5.411287e-03 -8.180701e-03 -1.328868e-02 -1.736677e-02 -2.353327e-02 -2.879862e-02 -3.582678e-02 -4.203395e-02 -4.960652e-02 -5.637830e-02 -6.405777e-02 -7.089287e-02 -7.813899e-02 -8.443915e-02 -9.064633e-02 -9.576388e-02 -1.003169e-01 -1.036185e-01 -1.059598e-01 -1.068983e-01 -1.065965e-01 -1.047780e-01 -1.015863e-01 -9.682344e-02 -9.072021e-02 -8.306623e-02 -7.427663e-02 -6.404097e-02 -5.304407e-02 -4.079440e-02 -2.831787e-02 -1.486738e-02 -1.863211e-03 1.176974e-02 2.418876e-02 3.687296e-02 4.756299e-02 5.821989e-02 6.621157e-02 7.404055e-02 7.878077e-02 8.347049e-02 8.500159e-02 8.681399e-02 8.578304e-02 8.544555e-02 8.292310e-02 8.139537e-02 7.858917e-02 7.681425e-02 7.473525e-02 7.335583e-02 7.246528e-02 7.159171e-02 7.169948e-02 7.094427e-02 7.139767e-02 7.008417e-02 7.007447e-02 6.755764e-02 6.636901e-02 6.228039e-02 5.964459e-02 5.414496e-02 5.056242e-02 4.420809e-02 4.022517e-02 3.346061e-02 2.937927e-02 2.247361e-02 1.844419e-02 1.158345e-02 7.708393e-03 1.046815e-03 -2.585161e-03 -8.916118e-03 -1.222971e-02 -1.812322e-02 -2.106079e-02 -2.643386e-02 -2.895571e-02 -3.374493e-02 -3.582637e-02 -3.998280e-02 -4.161039e-02 -4.509554e-02 
-4.207310e-02 -4.456377e-02 -4.537612e-02 -4.723203e-02 -4.757178e-02 -4.878204e-02 -4.866033e-02 -4.922234e-02 -4.865767e-02 -4.857886e-02 -4.759791e-02 -4.689737e-02 -4.553560e-02 -4.424546e-02 -4.254751e-02 -4.071391e-02 -3.873385e-02 -3.641763e-02 -3.421908e-02 -3.149632e-02 -2.915272e-02 -2.611515e-02 -2.371023e-02 -2.046563e-02 -1.809410e-02 -1.476675e-02 -1.253510e-02 -9.265972e-03 -7.293148e-03 -4.239568e-03 -2.656968e-03 8.846101e-06 1.058659e-03 3.152837e-03 3.519540e-03 4.852472e-03 4.384371e-03 4.770124e-03 3.324359e-03 2.594298e-03 5.140763e-05 -1.927644e-03 -5.644783e-03 -8.948231e-03 -1.385192e-02 -1.847237e-02 -2.448613e-02 -3.030847e-02 -3.724511e-02 -4.402603e-02 -5.157275e-02 -5.893050e-02 -6.664688e-02 -7.406731e-02 -8.140189e-02 -8.826586e-02 -9.459447e-02 -1.002281e-01 -1.049130e-01 -1.086568e-01 -1.111189e-01 -1.124050e-01 -1.121975e-01 -1.106213e-01 -1.074899e-01 -1.028627e-01 -9.678401e-02 -8.916149e-02 -8.035923e-02 -7.005040e-02 -5.899767e-02 -4.656412e-02 -3.397943e-02 -2.022979e-02 -7.063205e-03 6.969653e-03 1.958462e-02 3.271661e-02 4.358460e-02 5.464210e-02 6.272563e-02 7.079915e-02 7.549755e-02 8.021021e-02 8.157079e-02 8.321180e-02 8.192529e-02 8.133798e-02 7.850864e-02 7.679993e-02 7.366280e-02 7.189126e-02 6.952531e-02 6.836016e-02 6.726189e-02 6.679990e-02 6.681255e-02 6.660083e-02 6.705577e-02 6.640622e-02 6.646204e-02 6.470638e-02 6.352588e-02 6.020441e-02 5.737615e-02 5.261977e-02 4.887051e-02 4.333310e-02 3.926766e-02 3.335831e-02 2.921224e-02 2.313918e-02 1.901539e-02 1.293973e-02 8.934665e-03 3.009350e-03 -7.762012e-04 -6.417231e-03 -9.894744e-03 -1.514633e-02 -1.824876e-02 -2.303382e-02 -2.571538e-02 -2.997859e-02 -3.221028e-02 -3.591114e-02 -3.767594e-02 -4.078366e-02 
-4.806890e-02 -5.086964e-02 -5.155690e-02 -5.362683e-02 -5.385945e-02 -5.518019e-02 -5.496885e-02 -5.553259e-02 -5.489523e-02 -5.470683e-02 -5.366949e-02 -5.274828e-02 -5.134571e-02 -4.972681e-02 -4.800282e-02 -4.573788e-02 -4.374550e-02 -4.090306e-02 -3.870458e-02 -3.537012e-02 -3.303738e-02 -2.931328e-02 -2.692818e-02 -2.293378e-02 -2.058916e-02 -1.646090e-02 -1.426162e-02 -1.015315e-02 -8.217203e-03 -4.299131e-03 -2.758158e-03 7.831702e-04 1.784563e-03 4.749944e-03 5.057017e-03 7.239910e-03 6.693735e-03 7.889389e-03 6.336877e-03 6.355950e-03 3.664711e-03 2.351905e-03 -1.569845e-03 -4.312302e-03 -9.491470e-03 -1.367677e-02 -2.004872e-02 -2.557765e-02 -3.296083e-02 -3.959778e-02 -4.767508e-02 -5.503418e-02 -6.334781e-02 -7.089636e-02 -7.886308e-02 -8.594848e-02 -9.289971e-02 -9.880229e-02 -1.040484e-01 -1.080565e-01 -1.109672e-01 -1.124624e-01 -1.125484e-01 -1.110851e-01 -1.080641e-01 -1.034270e-01 -9.726372e-02 -8.949754e-02 -8.041777e-02 -6.983508e-02 -5.832607e-02 -4.550651e-02 -3.231624e-02 -1.810582e-02 -4.240496e-03 1.026113e-02 2.356840e-02 3.707344e-02 4.847621e-02 5.968343e-02 6.796541e-02 7.586228e-02 8.028551e-02 8.448347e-02 8.508735e-02 8.597448e-02 8.360765e-02 8.215682e-02 7.819082e-02 7.558889e-02 7.155530e-02 6.897997e-02 6.621508e-02 6.449522e-02 6.352991e-02 6.273492e-02 6.320931e-02 6.282227e-02 6.387843e-02 6.303479e-02 6.376395e-02 6.173096e-02 6.116239e-02 5.739627e-02 5.488506e-02 4.955272e-02 4.617991e-02 4.011317e-02 3.651700e-02 3.007255e-02 2.637331e-02 1.970413e-02 1.595275e-02 9.226760e-03 5.527246e-03 -1.070427e-03 -4.594801e-03 -1.090065e-02 -1.414478e-02 -2.003292e-02 -2.292173e-02 -2.830053e-02 -3.078573e-02 -3.558803e-02 -3.764053e-02 -4.181479e-02 -4.341815e-02 -4.692275e-02 
-4.434822e-02 -4.685061e-02 -4.763552e-02 -4.949760e-02 -4.980343e-02 -5.100866e-02 -5.084270e-02 -5.138321e-02 -5.076086e-02 -5.063963e-02 -4.958528e-02 -4.881791e-02 -4.736553e-02 -4.598161e-02 -4.417493e-02 -4.221885e-02 -4.011127e-02 -3.764265e-02 -3.529712e-02 -3.239107e-02 -2.988007e-02 -2.662750e-02 -2.403350e-02 -2.054157e-02 -1.795792e-02 -1.435078e-02 -1.188301e-02 -8.302650e-03 -6.069992e-03 -2.676813e-03 -8.133246e-04 2.214108e-03 3.559504e-03 6.026373e-03 6.691915e-03 8.391770e-03 8.208065e-03 8.931284e-03 7.730837e-03 7.278013e-03 4.910061e-03 3.111095e-03 -5.377794e-04 -3.798763e-03 -8.778633e-03 -1.353358e-02 -1.980159e-02 -2.596674e-02 -3.335767e-02 -4.070462e-02 -4.890744e-02 -5.704414e-02 -6.559252e-02 -7.396295e-02 -8.224816e-02 -9.015891e-02 -9.747157e-02 -1.041497e-01 -1.097508e-01 -1.144293e-01 -1.176417e-01 -1.196580e-01 -1.199593e-01 -1.188448e-01 -1.159396e-01 -1.114782e-01 -1.053343e-01 -9.758133e-02 -8.843098e-02 -7.770458e-02 -6.603262e-02 -5.290285e-02 -3.944495e-02 -2.474253e-02 -1.050268e-02 4.659934e-03 1.840492e-02 3.265369e-02 4.444194e-02 5.629519e-02 6.474834e-02 7.296762e-02 7.723221e-02 8.128297e-02 8.142955e-02 8.175787e-02 7.878604e-02 7.661861e-02 7.199762e-02 6.882329e-02 6.411471e-02 6.133459e-02 5.805735e-02 5.645838e-02 5.513825e-02 5.476609e-02 5.513036e-02 5.527099e-02 5.641171e-02 5.627487e-02 5.732315e-02 5.624017e-02 5.602009e-02 5.326219e-02 5.053346e-02 4.610001e-02 4.271726e-02 3.770679e-02 3.426774e-02 2.887150e-02 2.527826e-02 1.954696e-02 1.579010e-02 9.898500e-03 6.110421e-03 2.755844e-04 -3.381478e-03 -8.977310e-03 -1.237252e-02 -1.760046e-02 -2.064510e-02 -2.541940e-02 -2.805792e-02 -3.232040e-02 -3.451886e-02 -3.822690e-02 -3.996447e-02 -4.308396e-02 
-5.107921e-02 -5.391348e-02 -5.456456e-02 -5.665682e-02 -5.684587e-02 -5.816969e-02 -5.790254e-02 -5.844291e-02 -5.773357e-02 -5.748949e-02 -5.636115e-02 -5.534770e-02 -5.383328e-02 -5.208286e-02 -5.022504e-02 -4.778784e-02 -4.563880e-02 -4.258273e-02 -4.020386e-02 -3.661418e-02 -3.407597e-02 -3.005500e-02 -2.743751e-02 -2.310463e-02 -2.049860e-02 -1.599073e-02 -1.349933e-02 -8.971766e-03 -6.712747e-03 -2.340075e-03 -4.477613e-04 3.575839e-03 4.949519e-03 8.411412e-03 9.097931e-03 1.177083e-02 1.158939e-02 1.323913e-02 1.200574e-02 1.240442e-02 9.946885e-03 8.892504e-03 5.072306e-03 2.415317e-03 -2.843769e-03 -7.167640e-03 -1.384576e-02 -1.977907e-02 -2.772513e-02 -3.505379e-02 -4.395555e-02 -5.228349e-02 -6.165215e-02 -7.039591e-02 -7.957596e-02 -8.798986e-02 -9.620301e-02 -1.034411e-01 -1.098663e-01 -1.150782e-01 -1.189572e-01 -1.214013e-01 -1.221470e-01 -1.212933e-01 -1.185717e-01 -1.141678e-01 -1.079338e-01 -1.000238e-01 -9.051553e-02 -7.942414e-02 -6.714199e-02 -5.346008e-02 -3.916549e-02 -2.376498e-02 -8.516825e-03 7.404846e-03 2.220701e-02 3.711702e-02 4.978345e-02 6.196959e-02 7.080478e-02 7.881329e-02 8.267847e-02 8.594045e-02 8.485079e-02 8.404555e-02 7.928126e-02 7.592098e-02 6.942191e-02 6.501983e-02 5.882728e-02 5.491328e-02 5.104657e-02 4.881315e-02 4.780025e-02 4.706293e-02 4.807517e-02 4.816503e-02 4.998550e-02 4.967531e-02 5.159936e-02 5.033857e-02 5.116500e-02 4.817473e-02 4.575130e-02 4.095829e-02 3.827316e-02 3.304720e-02 3.041138e-02 2.465329e-02 2.168043e-02 1.539187e-02 1.207090e-02 5.511668e-03 2.051508e-03 -4.483635e-03 -7.865239e-03 -1.415126e-02 -1.729809e-02 -2.318554e-02 -2.600103e-02 -3.139219e-02 -3.381995e-02 -3.864612e-02 -4.065307e-02 -4.486012e-02 -4.642596e-02 -4.996724e-02 
-4.776119e-02 -5.028796e-02 -5.103699e-02 -5.291541e-02 -5.317513e-02 -5.437941e-02 -5.415099e-02 -5.466490e-02 -5.395892e-02 -5.377852e-02 -5.261603e-02 -5.175174e-02 -5.016474e-02 -4.864255e-02 -4.667377e-02 -4.453575e-02 -4.223802e-02 -3.954226e-02 -3.697778e-02 -3.379816e-02 -3.103807e-02 -2.746423e-02 -2.458889e-02 -2.072672e-02 -1.782684e-02 -1.379957e-02 -1.097830e-02 -6.928348e-03 -4.303997e-03 -3.949414e-04 1.896078e-03 5.477843e-03 7.278869e-03 1.032387e-02 1.145774e-02 1.373586e-02 1.400802e-02 1.527518e-02 1.448187e-02 1.449260e-02 1.243561e-02 1.096309e-02 7.472406e-03 4.336807e-03 -6.984222e-04 -5.593463e-03 -1.218695e-02 -1.881202e-02 -2.683893e-02 -3.499607e-02 -4.415531e-02 -5.344384e-02 -6.323482e-02 -7.303857e-02 -8.276599e-02 -9.227618e-02 -1.010954e-01 -1.093796e-01 -1.163874e-01 -1.225033e-01 -1.268637e-01 -1.299975e-01 -1.310724e-01 -1.306631e-01 -1.281078e-01 -1.239172e-01 -1.177097e-01 -1.098195e-01 -1.002279e-01 -8.898762e-02 -7.651761e-02 -6.249961e-02 -4.788143e-02 -3.190114e-02 -1.615632e-02 6.264293e-04 1.606724e-02 3.203892e-02 4.530926e-02 5.847941e-02 6.757593e-02 7.606345e-02 7.959741e-02 8.250176e-02 8.057292e-02 7.865538e-02 7.295494e-02 6.825449e-02 6.090004e-02 5.551726e-02 4.833770e-02 4.423766e-02 3.975612e-02 3.759498e-02 3.590783e-02 3.562031e-02 3.630283e-02 3.655411e-02 3.822678e-02 3.832095e-02 4.072572e-02 4.051808e-02 4.248726e-02 4.112594e-02 3.826283e-02 3.484837e-02 3.273200e-02 2.912803e-02 2.712726e-02 2.267079e-02 1.997996e-02 1.468130e-02 1.138348e-02 5.657240e-03 2.101668e-03 -3.666174e-03 -7.185402e-03 -1.274286e-02 -1.603966e-02 -2.124084e-02 -2.420880e-02 -2.896875e-02 -3.154743e-02 -3.581044e-02 -3.796300e-02 -4.168543e-02 -4.338677e-02 -4.652953e-02 
-5.529685e-02 -5.818916e-02 -5.879703e-02 -6.093172e-02 -6.106654e-02 -6.240476e-02 -6.206500e-02 -6.258089e-02 -6.177487e-02 -6.145895e-02 -6.020601e-02 -5.906749e-02 -5.739835e-02 -5.546620e-02 -5.342252e-02 -5.074544e-02 -4.837883e-02 -4.502441e-02 -4.239538e-02 -3.844902e-02 -3.562632e-02 -3.119031e-02 -2.825114e-02 -2.344454e-02 -2.047588e-02 -1.543534e-02 -1.253662e-02 -7.418254e-03 -4.704992e-03 3.130839e-04 2.705160e-03 7.420208e-03 9.331516e-03 1.351466e-02 1.475993e-02 1.815720e-02 1.852714e-02 2.086488e-02 2.013332e-02 2.113004e-02 1.906854e-02 1.845521e-02 1.485699e-02 1.240730e-02 7.121378e-03 2.692158e-03 -4.332918e-03 -1.075282e-02 -1.941934e-02 -2.765743e-02 -3.767059e-02 -4.732638e-02 -5.816097e-02 -6.858432e-02 -7.948300e-02 -8.979309e-02 -9.981348e-02 -1.089731e-01 -1.170921e-01 -1.240376e-01 -1.293014e-01 -1.331055e-01 -1.347868e-01 -1.348057e-01 -1.325154e-01 -1.284701e-01 -1.221837e-01 -1.141527e-01 -1.041589e-01 -9.250954e-02 -7.933513e-02 -6.466265e-02 -4.904818e-02 -3.219667e-02 -1.518332e-02 2.614774e-03 1.949714e-02 3.643404e-02 5.103491e-02 6.475078e-02 7.455194e-02 8.273601e-02 8.577005e-02 8.740663e-02 8.355995e-02 7.995946e-02 7.142915e-02 6.536321e-02 5.514389e-02 4.836751e-02 3.894792e-02 3.327401e-02 2.820691e-02 2.560564e-02 2.483346e-02 2.383735e-02 2.526756e-02 2.564329e-02 2.756008e-02 2.702526e-02 3.007845e-02 2.933499e-02 3.322258e-02 3.218690e-02 2.968818e-02 2.693616e-02 2.664922e-02 2.353484e-02 2.286723e-02 1.813617e-02 1.612841e-02 1.015165e-02 7.234582e-03 7.258417e-04 -2.541609e-03 -9.080308e-03 -1.233205e-02 -1.862171e-02 -2.165937e-02 -2.755199e-02 -3.027383e-02 -3.568271e-02 -3.803430e-02 -4.289645e-02 -4.484430e-02 -4.910370e-02 -5.062325e-02 -5.422542e-02 
-5.230929e-02 -5.488244e-02 -5.559421e-02 -5.750853e-02 -5.771621e-02 -5.893213e-02 -5.862799e-02 -5.911721e-02 -5.830511e-02 -5.805413e-02 -5.675092e-02 -5.576335e-02 -5.399897e-02 -5.229655e-02 -5.011320e-02 -4.773562e-02 -4.518622e-02 -4.219024e-02 -3.933665e-02 -3.579498e-02 -3.270684e-02 -2.870749e-02 -2.546202e-02 -2.110858e-02 -1.779196e-02 -1.320520e-02 -9.915579e-03 -5.236408e-03 -2.088372e-03 2.518129e-03 5.388187e-03 9.728456e-03 1.215707e-02 1.600561e-02 1.779860e-02 2.089704e-02 2.182934e-02 2.389012e-02 2.371139e-02 2.442849e-02 2.287698e-02 2.194616e-02 1.877315e-02 1.592397e-02 1.093047e-02 5.971070e-03 -9.432213e-04 -8.069617e-03 -1.684815e-02 -2.600030e-02 -3.637014e-02 -4.715047e-02 -5.857592e-02 -7.029516e-02 -8.196568e-02 -9.365464e-02 -1.045308e-01 -1.150221e-01 -1.239550e-01 -1.320416e-01 -1.379569e-01 -1.426001e-01 -1.446981e-01 -1.452201e-01 -1.431162e-01 -1.392926e-01 -1.330350e-01 -1.250483e-01 -1.150129e-01 -1.033068e-01 -9.005091e-02 -7.519687e-02 -5.939140e-02 -4.209140e-02 -2.464192e-02 -5.947201e-03 1.168002e-02 2.998839e-02 4.543571e-02 6.064341e-02 7.084121e-02 7.986346e-02 8.226968e-02 8.330349e-02 7.793910e-02 7.229750e-02 6.249173e-02 5.407552e-02 4.329794e-02 3.511890e-02 2.442260e-02 1.959289e-02 1.457204e-02 1.195563e-02 9.602137e-03 9.381283e-03 9.745903e-03 8.859098e-03 9.566150e-03 8.376862e-03 1.137689e-02 1.102629e-02 1.756533e-02 1.975505e-02 1.690438e-02 1.751477e-02 1.985777e-02 1.930639e-02 1.981431e-02 1.633540e-02 1.450571e-02 9.318044e-03 6.270117e-03 4.899080e-04 -2.953725e-03 -8.739897e-03 -1.215554e-02 -1.768708e-02 -2.087761e-02 -2.604095e-02 -2.891311e-02 -3.364924e-02 -3.615202e-02 -4.041661e-02 -4.251429e-02 -4.626305e-02 -4.792511e-02 -5.111054e-02 
-6.072037e-02 -6.370831e-02 -6.427460e-02 -6.648446e-02 -6.656191e-02 -6.793683e-02 -6.751352e-02 -6.801248e-02 -6.708910e-02 -6.669123e-02 -6.528249e-02 -6.398972e-02 -6.212433e-02 -5.996206e-02 -5.768147e-02 -5.469763e-02 -5.205388e-02 -4.831685e-02 -4.537027e-02 -4.096650e-02 -3.778400e-02 -3.281606e-02 -2.947076e-02 -2.405678e-02 -2.062956e-02 -1.490432e-02 -1.148747e-02 -5.605554e-03 -2.308406e-03 3.551053e-03 6.595113e-03 1.222268e-02 1.484892e-02 1.999957e-02 2.200596e-02 2.639595e-02 2.754075e-02 3.084925e-02 3.085477e-02 3.273299e-02 3.129861e-02 3.138970e-02 2.821712e-02 2.618982e-02 2.102319e-02 1.662115e-02 9.302948e-03 2.409424e-03 -7.050245e-03 -1.633715e-02 -2.768615e-02 -3.897991e-02 -5.166113e-02 -6.423628e-02 -7.736264e-02 -9.015774e-02 -1.025570e-01 -1.142615e-01 -1.246149e-01 -1.338517e-01 -1.409177e-01 -1.464915e-01 -1.493533e-01 -1.504810e-01 -1.487149e-01 -1.451360e-01 -1.388182e-01 -1.307368e-01 -1.203016e-01 -1.082087e-01 -9.425677e-02 -7.875818e-02 -6.195168e-02 -4.374889e-02 -2.493041e-02 -5.075604e-03 1.431278e-02 3.388062e-02 5.123995e-02 6.727787e-02 7.879272e-02 8.735429e-02 8.932863e-02 8.815361e-02 7.986366e-02 7.146412e-02 5.709365e-02 4.765329e-02 3.264839e-02 2.364691e-02 9.809122e-03 2.407109e-03 -2.460122e-03 -3.786946e-03 -3.278915e-03 -5.997034e-03 -5.878433e-03 -5.542172e-03 -6.242157e-03 -9.367505e-03 -7.824615e-03 -1.049425e-02 -3.319343e-03 -7.748688e-04 2.059348e-03 8.356251e-03 1.545286e-02 1.564728e-02 1.731767e-02 1.278943e-02 1.111796e-02 4.742350e-03 1.793205e-03 -4.987971e-03 -8.234524e-03 -1.486917e-02 -1.802154e-02 -2.431765e-02 -2.722555e-02 -3.310880e-02 -3.570872e-02 -4.113138e-02 -4.338653e-02 -4.829776e-02 -5.017697e-02 -5.451622e-02 -5.598810e-02 -5.968710e-02 
-5.798356e-02 -6.063974e-02 -6.132369e-02 -6.330756e-02 -6.346644e-02 -6.471885e-02 -6.433256e-02 -6.480876e-02 -6.387251e-02 -6.354658e-02 -6.207238e-02 -6.093982e-02 -5.895619e-02 -5.703442e-02 -5.458448e-02 -5.191165e-02 -4.905003e-02 -4.568264e-02 -4.247216e-02 -3.848255e-02 -3.499160e-02 -3.046602e-02 -2.676761e-02 -2.180607e-02 -1.797919e-02 -1.269738e-02 -8.831102e-03 -3.364839e-03 4.350494e-04 5.923301e-03 9.525620e-03 1.483882e-02 1.807757e-02 2.297623e-02 2.564213e-02 2.983854e-02 3.167397e-02 3.483119e-02 3.553158e-02 3.727056e-02 3.649576e-02 3.641436e-02 3.381371e-02 3.152146e-02 2.677606e-02 2.194776e-02 1.483206e-02 7.281429e-03 -2.257078e-03 -1.248739e-02 -2.423768e-02 -3.678160e-02 -5.018566e-02 -6.427934e-02 -7.838705e-02 -9.285355e-02 -1.063587e-01 -1.196976e-01 -1.310939e-01 -1.417050e-01 -1.495636e-01 -1.560763e-01 -1.593743e-01 -1.609691e-01 -1.593213e-01 -1.558768e-01 -1.495346e-01 -1.414992e-01 -1.311091e-01 -1.191727e-01 -1.054377e-01 -9.020772e-02 -7.367131e-02 -5.557521e-02 -3.674808e-02 -1.635952e-02 3.646176e-03 2.475184e-02 4.322587e-02 6.153287e-02 7.373654e-02 8.402164e-02 8.488601e-02 8.302374e-02 7.171569e-02 5.953327e-02 4.324653e-02 2.919399e-02 1.546547e-02 4.096016e-03 -1.165850e-02 -1.297861e-02 -1.307603e-02 -1.596017e-02 -2.101087e-02 -1.904152e-02 -2.411426e-02 -2.950857e-02 -3.395691e-02 -3.758800e-02 -4.090726e-02 -4.143638e-02 -4.110725e-02 -3.876599e-02 -1.432105e-02 2.154858e-03 1.471058e-02 1.596339e-02 1.736811e-02 1.257378e-02 1.010487e-02 3.910187e-03 4.641326e-04 -5.719128e-03 -9.231693e-03 -1.507461e-02 -1.839173e-02 -2.385018e-02 -2.689588e-02 -3.197371e-02 -3.471554e-02 -3.940403e-02 -4.181258e-02 -4.608032e-02 -4.812002e-02 -5.191616e-02 -5.354590e-02 -5.680671e-02 
-6.734142e-02 -7.048253e-02 -7.102171e-02 -7.335787e-02 -7.338547e-02 -7.483479e-02 -7.432482e-02 -7.482595e-02 -7.376944e-02 -7.328711e-02 -7.169374e-02 -7.022159e-02 -6.811914e-02 -6.567977e-02 -6.311148e-02 -5.975402e-02 -5.677465e-02 -5.257068e-02 -4.924211e-02 -4.428114e-02 -4.066898e-02 -3.505477e-02 -3.122689e-02 -2.507587e-02 -2.110386e-02 -1.454640e-02 -1.051033e-02 -3.695266e-03 3.081690e-04 7.205953e-03 1.105275e-02 1.782252e-02 2.134920e-02 2.773389e-02 3.072591e-02 3.641323e-02 3.859660e-02 4.321483e-02 4.425459e-02 4.737695e-02 4.688641e-02 4.804852e-02 4.561425e-02 4.434967e-02 3.957664e-02 3.547488e-02 2.805562e-02 2.084519e-02 1.065319e-02 3.073666e-04 -1.249183e-02 -2.563860e-02 -4.047802e-02 -5.563126e-02 -7.147302e-02 -8.734445e-02 -1.027065e-01 -1.176055e-01 -1.307417e-01 -1.428337e-01 -1.520773e-01 -1.597787e-01 -1.639571e-01 -1.663210e-01 -1.650357e-01 -1.619233e-01 -1.555180e-01 -1.474479e-01 -1.366990e-01 -1.244670e-01 -1.101811e-01 -9.447604e-02 -7.719923e-02 -5.843068e-02 -3.850103e-02 -1.709060e-02 4.688021e-03 2.722530e-02 4.821912e-02 6.778137e-02 8.244761e-02 9.217459e-02 9.335678e-02 8.745583e-02 7.194296e-02 5.422116e-02 2.984290e-02 1.620682e-02 -4.515271e-03 -1.352466e-02 -3.147134e-02 -4.110508e-02 -3.712708e-02 -2.913828e-02 -3.100522e-02 -3.416755e-02 -3.611655e-02 -3.603872e-02 -3.473034e-02 -2.757307e-02 -2.704796e-02 -1.958955e-02 -2.096575e-02 -1.839802e-02 1.454034e-02 1.982455e-02 2.727730e-02 2.076913e-02 1.890259e-02 1.034927e-02 6.703012e-03 -1.311806e-03 -4.927401e-03 -1.217337e-02 -1.546738e-02 -2.211758e-02 -2.509884e-02 -3.129793e-02 -3.399873e-02 -3.980944e-02 -4.223716e-02 -4.765628e-02 -4.979289e-02 -5.477207e-02 -5.658149e-02 -6.104342e-02 -6.247901e-02 -6.633011e-02 
-6.476507e-02 -6.756289e-02 -6.824418e-02 -7.035122e-02 -7.047713e-02 -7.180755e-02 -7.134163e-02 -7.182909e-02 -7.075579e-02 -7.035904e-02 -6.868552e-02 -6.739113e-02 -6.514623e-02 -6.296837e-02 -6.019904e-02 -5.717655e-02 -5.394242e-02 -5.013417e-02 -4.650170e-02 -4.198157e-02 -3.801911e-02 -3.287221e-02 -2.864760e-02 -2.296890e-02 -1.855052e-02 -1.244701e-02 -7.908981e-03 -1.505637e-03 3.062831e-03 9.613326e-03 1.409517e-02 2.059994e-02 2.483531e-02 3.104755e-02 3.481889e-02 4.042545e-02 4.344554e-02 4.805908e-02 4.996600e-02 5.312615e-02 5.348976e-02 5.467839e-02 5.302381e-02 5.170026e-02 4.755407e-02 4.321629e-02 3.618058e-02 2.845695e-02 1.831398e-02 7.086402e-03 -6.070286e-03 -2.052142e-02 -3.614759e-02 -5.300532e-02 -7.000035e-02 -8.783754e-02 -1.045441e-01 -1.213999e-01 -1.357945e-01 -1.494820e-01 -1.595994e-01 -1.682391e-01 -1.727339e-01 -1.753284e-01 -1.738955e-01 -1.705999e-01 -1.639505e-01 -1.558003e-01 -1.451721e-01 -1.334168e-01 -1.198915e-01 -1.053323e-01 -8.931458e-02 -7.195033e-02 -5.313392e-02 -3.241628e-02 -1.070148e-02 1.297465e-02 3.529082e-02 5.813081e-02 7.419451e-02 8.774023e-02 8.731572e-02 8.188162e-02 5.997818e-02 3.569175e-02 7.085195e-03 -1.779761e-02 -3.200686e-02 -5.211740e-02 -6.933899e-02 -5.842913e-02 -5.531016e-02 -5.277090e-02 -3.575191e-02 -9.512673e-03 7.129591e-03 3.439230e-02 4.659413e-02 6.054910e-02 6.776713e-02 7.370611e-02 7.826200e-02 7.845516e-02 8.122772e-02 5.729407e-02 4.613310e-02 2.892783e-02 2.087174e-02 9.815023e-03 4.362579e-03 -3.533669e-03 -7.631737e-03 -1.400686e-02 -1.742546e-02 -2.304143e-02 -2.608514e-02 -3.127513e-02 -3.406212e-02 -3.895119e-02 -4.150619e-02 -4.611236e-02 -4.841121e-02 -5.269346e-02 -5.468563e-02 -5.856898e-02 -6.019069e-02 -6.358159e-02 
-7.514171e-02 -7.852243e-02 -7.906719e-02 -8.160619e-02 -8.160581e-02 -8.318768e-02 -8.259779e-02 -8.313488e-02 -8.193482e-02 -8.137427e-02 -7.956903e-02 -7.789594e-02 -7.551479e-02 -7.275122e-02 -6.984306e-02 -6.604333e-02 -6.266985e-02 -5.791326e-02 -5.414147e-02 -4.852442e-02 -4.442033e-02 -3.804980e-02 -3.367514e-02 -2.666529e-02 -2.207841e-02 -1.455165e-02 -9.813490e-03 -1.906526e-03 2.908416e-03 1.103359e-02 1.582187e-02 2.396305e-02 2.857389e-02 3.647146e-02 4.068771e-02 4.800795e-02 5.152962e-02 5.785229e-02 6.028703e-02 6.510214e-02 6.596806e-02 6.868793e-02 6.743526e-02 6.742888e-02 6.348762e-02 6.014502e-02 5.300597e-02 4.583964e-02 3.517427e-02 2.396082e-02 9.778882e-03 -5.266602e-03 -2.243933e-02 -4.048732e-02 -5.945972e-02 -7.895734e-02 -9.784432e-02 -1.165835e-01 -1.330204e-01 -1.484932e-01 -1.601683e-01 -1.702097e-01 -1.755901e-01 -1.790613e-01 -1.779019e-01 -1.749803e-01 -1.681964e-01 -1.600529e-01 -1.491074e-01 -1.371785e-01 -1.233628e-01 -1.086481e-01 -9.248866e-02 -7.506867e-02 -5.607813e-02 -3.507167e-02 -1.242524e-02 1.238045e-02 3.728971e-02 6.191797e-02 8.216480e-02 9.557028e-02 9.825583e-02 8.587103e-02 6.005755e-02 2.279048e-02 -2.085061e-02 -4.210917e-02 -7.836796e-02 -9.864004e-02 -5.794567e-02 -3.543445e-02 -2.751448e-02 3.557104e-02 6.456566e-02 1.010235e-01 1.146797e-01 1.239057e-01 1.248410e-01 1.225195e-01 1.244878e-01 1.177716e-01 1.235791e-01 1.164088e-01 1.060337e-01 6.683809e-02 4.688753e-02 2.446333e-02 1.439929e-02 1.938732e-03 -3.433969e-03 -1.184406e-02 -1.538019e-02 -2.218874e-02 -2.500494e-02 -3.115660e-02 -3.366719e-02 -3.951119e-02 -4.185328e-02 -4.748715e-02 -4.967990e-02 -5.508265e-02 -5.709007e-02 -6.217857e-02 -6.393705e-02 -6.859357e-02 -7.002627e-02 -7.411516e-02 
-7.262271e-02 -7.565189e-02 -7.637718e-02 -7.868797e-02 -7.881326e-02 -8.028485e-02 -7.975265e-02 -8.029127e-02 -7.907327e-02 -7.861933e-02 -7.671866e-02 -7.524991e-02 -7.269915e-02 -7.022927e-02 -6.708444e-02 -6.365745e-02 -5.998899e-02 -5.567108e-02 -5.155401e-02 -4.642467e-02 -4.193012e-02 -3.607511e-02 -3.126536e-02 -2.477342e-02 -1.970215e-02 -1.266687e-02 -7.385478e-03 8.702411e-05 5.517032e-03 1.329468e-02 1.878372e-02 2.669027e-02 3.209886e-02 3.989275e-02 4.500820e-02 5.236139e-02 5.687666e-02 6.335746e-02 6.685697e-02 7.192228e-02 7.388052e-02 7.688403e-02 7.668424e-02 7.690843e-02 7.388924e-02 7.061024e-02 6.414942e-02 5.674453e-02 4.638829e-02 3.449424e-02 2.013607e-02 3.857544e-03 -1.404472e-02 -3.390091e-02 -5.411665e-02 -7.585535e-02 -9.628878e-02 -1.173326e-01 -1.352172e-01 -1.524955e-01 -1.650280e-01 -1.758403e-01 -1.811708e-01 -1.842590e-01 -1.823040e-01 -1.784099e-01 -1.707907e-01 -1.621050e-01 -1.512063e-01 -1.400808e-01 -1.278147e-01 -1.156255e-01 -1.024588e-01 -8.886478e-02 -7.329363e-02 -5.583214e-02 -3.511134e-02 -1.115748e-02 1.481154e-02 4.310108e-02 6.610296e-02 8.718894e-02 8.854989e-02 8.262071e-02 4.412446e-02 1.443310e-03 -5.194551e-02 -9.660956e-02 -1.204210e-01 -7.636172e-02 -6.430800e-02 -1.349456e-02 6.411141e-02 1.233730e-01 1.282600e-01 1.145867e-01 1.018234e-01 7.970027e-02 7.024741e-02 5.544933e-02 5.177226e-02 4.102154e-02 4.189128e-02 3.307373e-02 4.421003e-02 2.574202e-02 1.834458e-02 5.344585e-03 -2.292097e-04 -8.342737e-03 -1.198844e-02 -1.783980e-02 -2.061096e-02 -2.558076e-02 -2.804960e-02 -3.273225e-02 -3.512593e-02 -3.973993e-02 -4.211239e-02 -4.669909e-02 -4.902074e-02 -5.353264e-02 -5.573213e-02 -6.007300e-02 -6.205741e-02 -6.610262e-02 -6.776900e-02 -7.137847e-02 
-8.409246e-02 -8.783868e-02 -8.844593e-02 -9.129783e-02 -9.130958e-02 -9.310831e-02 -9.245689e-02 -9.308150e-02 -9.173258e-02 -9.110932e-02 -8.906456e-02 -8.717084e-02 -8.446543e-02 -8.132738e-02 -7.802249e-02 -7.370663e-02 -6.987824e-02 -6.447944e-02 -6.020596e-02 -5.383421e-02 -4.918582e-02 -4.195528e-02 -3.698748e-02 -2.901017e-02 -2.376359e-02 -1.514961e-02 -9.657029e-03 -5.222425e-04 5.177054e-03 1.469611e-02 2.053526e-02 3.026007e-02 3.611857e-02 4.580303e-02 5.147820e-02 6.078188e-02 6.596177e-02 7.442654e-02 7.866958e-02 8.570555e-02 8.843351e-02 9.332186e-02 9.383436e-02 9.575617e-02 9.327630e-02 9.137830e-02 8.514105e-02 7.865115e-02 6.804715e-02 5.645229e-02 4.123711e-02 2.452812e-02 5.091766e-03 -1.594758e-02 -3.829925e-02 -6.184352e-02 -8.472845e-02 -1.078847e-01 -1.280441e-01 -1.473038e-01 -1.614085e-01 -1.737023e-01 -1.796774e-01 -1.836387e-01 -1.816676e-01 -1.781362e-01 -1.702248e-01 -1.615659e-01 -1.503455e-01 -1.391056e-01 -1.267739e-01 -1.146973e-01 -1.021585e-01 -8.945973e-02 -7.547806e-02 -5.943603e-02 -4.034201e-02 -1.684135e-02 9.580799e-03 3.961030e-02 6.730607e-02 8.958779e-02 1.000715e-01 8.415775e-02 5.271561e-02 -1.991519e-02 -8.470053e-02 -9.646857e-02 -8.159058e-02 -3.658147e-02 8.660521e-03 1.449763e-01 1.686034e-01 1.094621e-01 7.368810e-02 3.480038e-02 8.423519e-03 -1.846959e-02 -2.562444e-02 -3.994281e-02 -4.217123e-02 -4.898259e-02 -4.985431e-02 -5.419288e-02 -4.231463e-02 -3.199348e-02 -2.361148e-02 -2.314345e-02 -2.152099e-02 -2.472757e-02 -2.514985e-02 -2.937076e-02 -3.045626e-02 -3.511405e-02 -3.654964e-02 -4.153346e-02 -4.322077e-02 -4.846359e-02 -5.032309e-02 -5.572586e-02 -5.766442e-02 -6.309268e-02 -6.500307e-02 -7.029421e-02 -7.205920e-02 -7.703029e-02 -7.852758e-02 -8.298405e-02 