# vtk DataFile Version 2.0
Comment goes here
ASCII

DATASET STRUCTURED_POINTS
DIMENSIONS    128   128   1

ORIGIN    0.000   0.000   0.000
SPACING   0.0156250.015625   1.000

POINT_DATA   16384
SCALARS uX double
LOOKUP_TABLE default

1.979250e-01 1.919237e-01 1.906611e-01 1.843806e-01 1.820782e-01 1.754402e-01 1.720930e-01 1.650670e-01 1.607121e-01 1.533082e-01 1.480169e-01 1.402773e-01 1.341466e-01 1.261344e-01 1.192763e-01 1.110639e-01 1.035925e-01 9.524814e-02 8.726631e-02 7.884001e-02 7.042521e-02 6.193482e-02 5.312473e-02 4.454254e-02 3.532197e-02 2.656291e-02 1.685259e-02 7.765187e-03 -2.586054e-03 -1.222456e-02 -2.344259e-02 -3.392529e-02 -4.630682e-02 -5.798850e-02 -7.188839e-02 -8.516743e-02 -1.009757e-01 -1.162650e-01 -1.343719e-01 -1.520581e-01 -1.728078e-01 -1.931997e-01 -2.168335e-01 -2.401017e-01 -2.666947e-01 -2.928081e-01 -3.222057e-01 -3.508721e-01 -3.826361e-01 -4.132564e-01 -4.466303e-01 -4.782779e-01 -5.121829e-01 -5.436175e-01 -5.766870e-01 -6.064076e-01 -6.370620e-01 -6.633973e-01 -6.899523e-01 -7.111776e-01 -7.319713e-01 -7.464321e-01 -7.599512e-01 -7.661768e-01 -7.711662e-01 -7.679602e-01 -7.635100e-01 -7.500210e-01 -7.356374e-01 -7.114244e-01 -6.870997e-01 -6.522114e-01 -6.185021e-01 -5.735789e-01 -5.316844e-01 -4.780668e-01 -4.298741e-01 -3.696728e-01 -3.177187e-01 -2.537864e-01 -2.010972e-01 -1.368545e-01 -8.666057e-02 -2.576258e-02 1.889008e-02 7.303748e-02 1.097658e-01 1.546123e-01 1.822455e-01 2.167056e-01 2.357269e-01 2.604393e-01 2.728587e-01 2.896520e-01 2.979801e-01 3.087160e-01 3.147252e-01 3.204464e-01 3.250175e-01 3.257450e-01 3.289739e-01 3.244021e-01 3.259615e-01 3.162411e-01 3.159929e-01 3.022595e-01 3.007876e-01 2.850741e-01 2.834113e-01 2.676947e-01 2.666731e-01 2.522453e-01 2.522283e-01 2.396487e-01 2.406080e-01 2.299232e-01 2.316092e-01 2.225865e-01 2.246637e-01 2.169533e-01 2.190799e-01 2.123082e-01 2.141743e-01 2.079922e-01 2.093357e-01 2.034410e-01 2.040531e-01 1.981992e-01 
2.159095e-01 2.108655e-01 2.093288e-01 2.037403e-01 2.012074e-01 1.949840e-01 1.914532e-01 1.845572e-01 1.800675e-01 1.725078e-01 1.671315e-01 1.589548e-01 1.527890e-01 1.440690e-01 1.372243e-01 1.280493e-01 1.206376e-01 1.110963e-01 1.032172e-01 9.338412e-02 8.511026e-02 7.503047e-02 6.639381e-02 5.606840e-02 4.704689e-02 3.642020e-02 2.692677e-02 1.587641e-02 5.751334e-03 -5.917404e-03 -1.690909e-02 -2.946269e-02 -4.162689e-02 -5.539512e-02 -6.909561e-02 -8.445325e-02 -1.000880e-01 -1.174253e-01 -1.353912e-01 -1.550726e-01 -1.757179e-01 -1.980296e-01 -2.215969e-01 -2.466862e-01 -2.732485e-01 -3.010598e-01 -3.304570e-01 -3.606730e-01 -3.924576e-01 -4.244551e-01 -4.578585e-01 -4.906901e-01 -5.246202e-01 -5.570319e-01 -5.901100e-01 -6.205986e-01 -6.512377e-01 -6.781464e-01 -7.046629e-01 -7.262996e-01 -7.470433e-01 -7.618034e-01 -7.752826e-01 -7.817541e-01 -7.867399e-01 -7.837793e-01 -7.793816e-01 -7.661665e-01 -7.518911e-01 -7.279703e-01 -7.037787e-01 -6.691472e-01 -6.355342e-01 -5.907459e-01 -5.488293e-01 -4.951324e-01 -4.467186e-01 -3.861609e-01 -3.337263e-01 -2.691601e-01 -2.157016e-01 -1.506266e-01 -9.938231e-02 -3.760196e-02 8.320464e-03 6.322860e-02 1.012914e-01 1.466653e-01 1.754249e-01 2.102186e-01 2.298470e-01 2.548956e-01 2.672697e-01 2.846047e-01 2.924417e-01 3.040221e-01 3.094526e-01 3.163347e-01 3.203922e-01 3.226083e-01 3.253844e-01 3.225917e-01 3.237006e-01 3.159555e-01 3.152159e-01 3.035667e-01 3.015938e-01 2.880748e-01 2.859475e-01 2.725174e-01 2.710701e-01 2.589659e-01 2.585416e-01 2.482624e-01 2.488153e-01 2.403597e-01 2.416340e-01 2.347336e-01 2.363965e-01 2.306730e-01 2.323896e-01 2.274445e-01 2.289134e-01 2.243738e-01 2.253409e-01 2.208814e-01 2.211453e-01 2.164976e-01 
1.983955e-01 1.925028e-01 1.913054e-01 1.851008e-01 1.828347e-01 1.762436e-01 1.729073e-01 1.659032e-01 1.615370e-01 1.541343e-01 1.488140e-01 1.410597e-01 1.348874e-01 1.268506e-01 1.199442e-01 1.117038e-01 1.041845e-01 9.581620e-02 8.779473e-02 7.935644e-02 7.091853e-02 6.243651e-02 5.362849e-02 4.508342e-02 3.589863e-02 2.721343e-02 1.758047e-02 8.610670e-03 -1.615035e-03 -1.108688e-02 -2.212677e-02 -3.239100e-02 -4.454036e-02 -5.595248e-02 -6.956881e-02 -8.253228e-02 -9.801305e-02 -1.129509e-01 -1.306993e-01 -1.480137e-01 -1.683921e-01 -1.884122e-01 -2.116846e-01 -2.346050e-01 -2.608717e-01 -2.866864e-01 -3.158177e-01 -3.442576e-01 -3.758356e-01 -4.063184e-01 -4.395986e-01 -4.712046e-01 -5.051084e-01 -5.365922e-01 -5.697411e-01 -5.995856e-01 -6.303782e-01 -6.568894e-01 -6.836159e-01 -7.050468e-01 -7.260234e-01 -7.407054e-01 -7.544072e-01 -7.608674e-01 -7.660386e-01 -7.630878e-01 -7.588246e-01 -7.456192e-01 -7.314320e-01 -7.075277e-01 -6.834026e-01 -6.488250e-01 -6.153009e-01 -5.706488e-01 -5.289040e-01 -4.754712e-01 -4.273843e-01 -3.672511e-01 -3.153750e-01 -2.513979e-01 -1.987996e-01 -1.344449e-01 -8.441078e-02 -2.342254e-02 2.092506e-02 7.500477e-02 1.111683e-01 1.556240e-01 1.823122e-01 2.159718e-01 2.337020e-01 2.573625e-01 2.684819e-01 2.843358e-01 2.917605e-01 3.019221e-01 3.073953e-01 3.129819e-01 3.173804e-01 3.181782e-01 3.215725e-01 3.170579e-01 3.189796e-01 3.091660e-01 3.092706e-01 2.953091e-01 2.941993e-01 2.784135e-01 2.772347e-01 2.617200e-01 2.612842e-01 2.472552e-01 2.478374e-01 2.357323e-01 2.372342e-01 2.270145e-01 2.291569e-01 2.205488e-01 2.229948e-01 2.156361e-01 2.180548e-01 2.115734e-01 2.136682e-01 2.077214e-01 2.092420e-01 2.035346e-01 2.042807e-01 1.985724e-01 
2.170588e-01 2.122472e-01 2.108359e-01 2.054106e-01 2.029468e-01 1.968238e-01 1.933123e-01 1.864610e-01 1.819477e-01 1.743854e-01 1.689511e-01 1.607345e-01 1.544864e-01 1.457010e-01 1.387620e-01 1.295101e-01 1.220059e-01 1.123920e-01 1.044377e-01 9.455321e-02 8.623820e-02 7.614589e-02 6.751928e-02 5.723804e-02 4.829470e-02 3.778570e-02 2.845412e-02 1.760964e-02 7.742970e-03 -3.620675e-03 -1.424887e-02 -2.639252e-02 -3.808582e-02 -5.134081e-02 -6.446874e-02 -7.922039e-02 -9.419644e-02 -1.108558e-01 -1.281030e-01 -1.470659e-01 -1.669696e-01 -1.885634e-01 -2.114117e-01 -2.358314e-01 -2.617477e-01 -2.889872e-01 -3.178605e-01 -3.476467e-01 -3.790690e-01 -4.108095e-01 -4.440342e-01 -4.767913e-01 -5.107245e-01 -5.432293e-01 -5.764650e-01 -6.071778e-01 -6.380820e-01 -6.652981e-01 -6.921341e-01 -7.141193e-01 -7.351942e-01 -7.503243e-01 -7.641290e-01 -7.710024e-01 -7.763184e-01 -7.738243e-01 -7.697875e-01 -7.571347e-01 -7.432703e-01 -7.200069e-01 -6.962664e-01 -6.623326e-01 -6.291658e-01 -5.850087e-01 -5.434743e-01 -4.902158e-01 -4.420867e-01 -3.816829e-01 -3.294586e-01 -2.647537e-01 -2.115064e-01 -1.461007e-01 -9.516135e-02 -3.307787e-02 1.233899e-02 6.717806e-02 1.043462e-01 1.488773e-01 1.760550e-01 2.090696e-01 2.262853e-01 2.490756e-01 2.586906e-01 2.740860e-01 2.797768e-01 2.901938e-01 2.943801e-01 3.009469e-01 3.046212e-01 3.069689e-01 3.100945e-01 3.074811e-01 3.093489e-01 3.015185e-01 3.014947e-01 2.894440e-01 2.882132e-01 2.746236e-01 2.735056e-01 2.605603e-01 2.603201e-01 2.490760e-01 2.498641e-01 2.405742e-01 2.422092e-01 2.347097e-01 2.368853e-01 2.308338e-01 2.332205e-01 2.282189e-01 2.305065e-01 2.261611e-01 2.280759e-01 2.240266e-01 2.253382e-01 2.212728e-01 2.217970e-01 2.174583e-01 
1.998673e-01 1.942919e-01 1.932834e-01 1.872999e-01 1.851378e-01 1.786820e-01 1.753737e-01 1.684300e-01 1.640258e-01 1.566211e-01 1.512090e-01 1.434050e-01 1.371021e-01 1.289851e-01 1.219274e-01 1.135960e-01 1.059256e-01 9.747754e-02 8.932844e-02 8.084571e-02 7.232888e-02 6.386282e-02 5.505073e-02 4.660739e-02 3.751928e-02 2.904588e-02 1.963451e-02 1.100813e-02 1.149332e-03 -7.830846e-03 -1.834431e-02 -2.795948e-02 -3.941773e-02 -5.002455e-02 -6.279191e-02 -7.480811e-02 -8.930352e-02 -1.031817e-01 -1.198464e-01 -1.360347e-01 -1.552855e-01 -1.741744e-01 -1.963440e-01 -2.182011e-01 -2.434670e-01 -2.683636e-01 -2.966726e-01 -3.244106e-01 -3.554086e-01 -3.854585e-01 -4.184386e-01 -4.499025e-01 -4.837877e-01 -5.154042e-01 -5.487776e-01 -5.789777e-01 -6.101680e-01 -6.371836e-01 -6.643986e-01 -6.864106e-01 -7.078972e-01 -7.231924e-01 -7.373901e-01 -7.444923e-01 -7.501495e-01 -7.479007e-01 -7.441418e-01 -7.317354e-01 -7.180939e-01 -6.950886e-01 -6.715397e-01 -6.378996e-01 -6.049300e-01 -5.611270e-01 -5.198487e-01 -4.670266e-01 -4.192913e-01 -3.594292e-01 -3.078454e-01 -2.438078e-01 -1.915719e-01 -1.269577e-01 -7.751274e-02 -1.631347e-02 2.703404e-02 8.089254e-02 1.153321e-01 1.586119e-01 1.824188e-01 2.135945e-01 2.272680e-01 2.476095e-01 2.546205e-01 2.675515e-01 2.723659e-01 2.807180e-01 2.844997e-01 2.897682e-01 2.934931e-01 2.945274e-01 2.983894e-01 2.940586e-01 2.972308e-01 2.871799e-01 2.884945e-01 2.737983e-01 2.739271e-01 2.580375e-01 2.585066e-01 2.437808e-01 2.452448e-01 2.325416e-01 2.349745e-01 2.243452e-01 2.274661e-01 2.186426e-01 2.221192e-01 2.147332e-01 2.182465e-01 2.119158e-01 2.151771e-01 2.095419e-01 2.122971e-01 2.070363e-01 2.090693e-01 2.039087e-01 2.050442e-01 1.997610e-01 
2.194689e-01 2.151077e-01 2.139346e-01 2.088245e-01 2.064895e-01 2.005580e-01 1.970769e-01 1.903064e-01 1.857379e-01 1.781613e-01 1.726023e-01 1.642956e-01 1.578731e-01 1.489455e-01 1.418062e-01 1.323876e-01 1.246851e-01 1.149111e-01 1.067914e-01 9.678760e-02 8.837364e-02 7.823857e-02 6.961420e-02 5.940276e-02 5.059726e-02 4.030505e-02 3.127896e-02 2.082867e-02 1.146216e-02 6.935766e-04 -9.221088e-03 -2.055579e-02 -3.131559e-02 -4.354901e-02 -5.553296e-02 -6.906960e-02 -8.272039e-02 -9.801136e-02 -1.138033e-01 -1.313066e-01 -1.496986e-01 -1.698240e-01 -1.911967e-01 -2.142370e-01 -2.388175e-01 -2.648695e-01 -2.926490e-01 -3.215326e-01 -3.521878e-01 -3.833760e-01 -4.162084e-01 -4.487853e-01 -4.826975e-01 -5.153620e-01 -5.488886e-01 -5.800190e-01 -6.114219e-01 -6.392046e-01 -6.666275e-01 -6.892317e-01 -7.108869e-01 -7.266445e-01 -7.409875e-01 -7.485279e-01 -7.543742e-01 -7.526767e-01 -7.492393e-01 -7.376085e-01 -7.244776e-01 -7.024898e-01 -6.796139e-01 -6.471135e-01 -6.148516e-01 -5.720614e-01 -5.313389e-01 -4.790991e-01 -4.316118e-01 -3.716644e-01 -3.199762e-01 -2.551309e-01 -2.024993e-01 -1.365431e-01 -8.647733e-02 -2.384135e-02 2.034514e-02 7.506317e-02 1.104216e-01 1.532306e-01 1.773538e-01 2.065130e-01 2.187552e-01 2.366744e-01 2.402478e-01 2.516198e-01 2.528666e-01 2.608482e-01 2.623868e-01 2.683952e-01 2.710365e-01 2.736335e-01 2.774090e-01 2.751864e-01 2.789128e-01 2.710817e-01 2.727910e-01 2.598324e-01 2.604234e-01 2.469612e-01 2.482850e-01 2.366957e-01 2.391496e-01 2.298747e-01 2.331761e-01 2.259526e-01 2.297193e-01 2.241226e-01 2.280219e-01 2.236200e-01 2.273716e-01 2.237589e-01 2.271192e-01 2.239251e-01 2.266795e-01 2.235732e-01 2.255361e-01 2.222311e-01 2.232501e-01 2.195092e-01 
2.024923e-01 1.974210e-01 1.967076e-01 1.910737e-01 1.890701e-01 1.828244e-01 1.795500e-01 1.726931e-01 1.682129e-01 1.607910e-01 1.552121e-01 1.473101e-01 1.407737e-01 1.325058e-01 1.251774e-01 1.166747e-01 1.087310e-01 1.001278e-01 9.174161e-02 8.315988e-02 7.448436e-02 6.601761e-02 5.716930e-02 4.886651e-02 3.990877e-02 3.175876e-02 2.268608e-02 1.460353e-02 5.327814e-03 -2.858085e-03 -1.251766e-02 -2.106994e-02 -3.139162e-02 -4.066557e-02 -5.202149e-02 -6.245522e-02 -7.529683e-02 -8.738937e-02 -1.022186e-01 -1.164929e-01 -1.338169e-01 -1.507659e-01 -1.710334e-01 -1.910489e-01 -2.145709e-01 -2.378590e-01 -2.647173e-01 -2.912066e-01 -3.211621e-01 -3.504188e-01 -3.828350e-01 -4.140031e-01 -4.478073e-01 -4.795963e-01 -5.133012e-01 -5.440435e-01 -5.758451e-01 -6.036295e-01 -6.315778e-01 -6.544451e-01 -6.766556e-01 -6.928088e-01 -7.076612e-01 -7.156302e-01 -7.218977e-01 -7.206095e-01 -7.174977e-01 -7.062533e-01 -6.933714e-01 -6.717795e-01 -6.491108e-01 -6.170578e-01 -5.850040e-01 -5.427420e-01 -5.022872e-01 -4.506733e-01 -4.036154e-01 -3.444243e-01 -2.934945e-01 -2.295979e-01 -1.782614e-01 -1.134850e-01 -6.543108e-02 -4.127803e-03 3.719746e-02 9.057972e-02 1.220326e-01 1.633494e-01 1.822741e-01 2.090658e-01 2.153779e-01 2.296975e-01 2.290236e-01 2.368573e-01 2.381300e-01 2.429840e-01 2.434638e-01 2.485964e-01 2.503627e-01 2.517189e-01 2.560777e-01 2.519231e-01 2.578129e-01 2.476250e-01 2.515958e-01 2.355174e-01 2.383943e-01 2.229206e-01 2.268925e-01 2.141753e-01 2.192384e-01 2.091374e-01 2.147510e-01 2.066946e-01 2.124256e-01 2.058928e-01 2.114455e-01 2.060063e-01 2.111557e-01 2.064436e-01 2.109937e-01 2.066878e-01 2.104581e-01 2.062775e-01 2.091042e-01 2.048081e-01 2.065510e-01 2.019422e-01 
2.233340e-01 2.196151e-01 2.187712e-01 2.141088e-01 2.119458e-01 2.062809e-01 2.028272e-01 1.961583e-01 1.914892e-01 1.838705e-01 1.781047e-01 1.696396e-01 1.629326e-01 1.537647e-01 1.462982e-01 1.365983e-01 1.285670e-01 1.185175e-01 1.101141e-01 9.989187e-02 9.128974e-02 8.104752e-02 7.238339e-02 6.223133e-02 5.358751e-02 4.357465e-02 3.496194e-02 2.505920e-02 1.640140e-02 6.487245e-03 -2.391269e-03 -1.254086e-02 -2.192234e-02 -3.263697e-02 -4.290947e-02 -5.461755e-02 -6.626265e-02 -7.947125e-02 -9.303664e-02 -1.082946e-01 -1.243483e-01 -1.421903e-01 -1.612544e-01 -1.821243e-01 -2.045889e-01 -2.287468e-01 -2.547684e-01 -2.821862e-01 -3.115816e-01 -3.418438e-01 -3.739982e-01 -4.062282e-01 -4.400424e-01 -4.728852e-01 -5.067933e-01 -5.384819e-01 -5.705623e-01 -5.990836e-01 -6.272644e-01 -6.506060e-01 -6.729279e-01 -6.893411e-01 -7.042036e-01 -7.123890e-01 -7.186928e-01 -7.178312e-01 -7.149711e-01 -7.045998e-01 -6.923370e-01 -6.721567e-01 -6.504819e-01 -6.202317e-01 -5.893601e-01 -5.488976e-01 -5.095000e-01 -4.591563e-01 -4.127730e-01 -3.538801e-01 -3.032255e-01 -2.385046e-01 -1.872635e-01 -1.207753e-01 -7.279439e-02 -9.517074e-03 3.203053e-02 8.657813e-02 1.190357e-01 1.591703e-01 1.792441e-01 2.017124e-01 2.065126e-01 2.164489e-01 2.093863e-01 2.147154e-01 2.092087e-01 2.130838e-01 2.101695e-01 2.155093e-01 2.154090e-01 2.179977e-01 2.222313e-01 2.202956e-01 2.277873e-01 2.207070e-01 2.260761e-01 2.115063e-01 2.161449e-01 2.040254e-01 2.102795e-01 2.018085e-01 2.088870e-01 2.030708e-01 2.101867e-01 2.061508e-01 2.129184e-01 2.100750e-01 2.163097e-01 2.142284e-01 2.198043e-01 2.181286e-01 2.229241e-01 2.213377e-01 2.252253e-01 2.234432e-01 2.262954e-01 2.240656e-01 2.257668e-01 2.228761e-01 
2.064844e-01 2.020716e-01 2.017352e-01 1.965552e-01 1.947463e-01 1.887658e-01 1.855155e-01 1.787536e-01 1.741436e-01 1.666704e-01 1.608317e-01 1.527626e-01 1.458684e-01 1.373550e-01 1.296110e-01 1.208291e-01 1.124598e-01 1.035943e-01 9.482669e-02 8.605541e-02 7.710210e-02 6.857809e-02 5.961820e-02 5.145171e-02 4.261215e-02 3.485241e-02 2.618895e-02 1.880659e-02 1.028590e-02 3.156874e-03 -5.359275e-03 -1.246650e-02 -2.123276e-02 -2.866442e-02 -3.805621e-02 -4.627142e-02 -5.677814e-02 -6.633411e-02 -7.853692e-02 -9.005680e-02 -1.045864e-01 -1.187059e-01 -1.361765e-01 -1.534669e-01 -1.743856e-01 -1.952535e-01 -2.199074e-01 -2.444766e-01 -2.728082e-01 -3.007990e-01 -3.322885e-01 -3.629170e-01 -3.965050e-01 -4.284381e-01 -4.625256e-01 -4.939324e-01 -5.264936e-01 -5.552162e-01 -5.840310e-01 -6.078644e-01 -6.308254e-01 -6.478307e-01 -6.632296e-01 -6.719677e-01 -6.786543e-01 -6.782443e-01 -6.756138e-01 -6.656119e-01 -6.534644e-01 -6.336527e-01 -6.120408e-01 -5.822587e-01 -5.514648e-01 -5.116365e-01 -4.724084e-01 -4.228910e-01 -3.769089e-01 -3.190914e-01 -2.693365e-01 -2.061000e-01 -1.566135e-01 -9.219195e-02 -4.710353e-02 1.365699e-02 5.106290e-02 1.033091e-01 1.301564e-01 1.686328e-01 1.808022e-01 2.009472e-01 1.958933e-01 2.012773e-01 1.873173e-01 1.883408e-01 1.888889e-01 1.868126e-01 1.803355e-01 1.868227e-01 1.829075e-01 1.837550e-01 1.875254e-01 1.823127e-01 1.935011e-01 1.840691e-01 1.939526e-01 1.760171e-01 1.852308e-01 1.725584e-01 1.832690e-01 1.749021e-01 1.855891e-01 1.796718e-01 1.896030e-01 1.851437e-01 1.941518e-01 1.906209e-01 1.986935e-01 1.957403e-01 2.028620e-01 2.002043e-01 2.063206e-01 2.037082e-01 2.087304e-01 2.059363e-01 2.097579e-01 2.065808e-01 2.090957e-01 2.053658e-01 
2.288876e-01 2.259709e-01 2.255209e-01 2.214152e-01 2.194479e-01 2.141049e-01 2.106588e-01 2.040933e-01 1.992605e-01 1.915507e-01 1.854757e-01 1.767591e-01 1.696329e-01 1.600970e-01 1.521467e-01 1.420160e-01 1.334905e-01 1.230094e-01 1.141632e-01 1.035774e-01 9.465157e-02 8.418715e-02 7.539024e-02 6.523284e-02 5.672012e-02 4.699310e-02 3.884614e-02 2.958936e-02 2.179569e-02 1.294548e-02 5.379756e-03 -3.248103e-03 -1.083934e-02 -1.956115e-02 -2.756781e-02 -3.683413e-02 -4.577968e-02 -5.616352e-02 -6.668557e-02 -7.885143e-02 -9.166020e-02 -1.063088e-01 -1.221185e-01 -1.399034e-01 -1.593340e-01 -1.807499e-01 -2.042003e-01 -2.294473e-01 -2.569500e-01 -2.857884e-01 -3.168664e-01 -3.484912e-01 -3.820543e-01 -4.150329e-01 -4.493627e-01 -4.816914e-01 -5.145667e-01 -5.438890e-01 -5.728714e-01 -5.968487e-01 -6.196823e-01 -6.364174e-01 -6.514133e-01 -6.597474e-01 -6.659886e-01 -6.655080e-01 -6.627709e-01 -6.535101e-01 -6.419429e-01 -6.239426e-01 -6.036931e-01 -5.766425e-01 -5.477099e-01 -5.109198e-01 -4.734826e-01 -4.264022e-01 -3.816468e-01 -3.248465e-01 -2.757866e-01 -2.118039e-01 -1.631392e-01 -9.647454e-02 -5.297355e-02 1.069224e-02 4.637318e-02 1.005913e-01 1.279994e-01 1.642752e-01 1.805353e-01 1.910660e-01 1.878503e-01 1.875923e-01 1.631023e-01 1.617798e-01 1.468179e-01 1.446981e-01 1.344910e-01 1.386633e-01 1.314284e-01 1.317639e-01 1.346298e-01 1.304934e-01 1.444433e-01 1.402150e-01 1.543746e-01 1.386228e-01 1.534526e-01 1.470213e-01 1.622864e-01 1.598059e-01 1.733683e-01 1.725097e-01 1.842061e-01 1.841889e-01 1.943071e-01 1.947649e-01 2.035495e-01 2.042138e-01 2.117915e-01 2.124154e-01 2.188145e-01 2.191573e-01 2.243399e-01 2.241675e-01 2.280586e-01 2.271520e-01 2.296648e-01 2.278308e-01 
2.120644e-01 2.084283e-01 2.085255e-01 2.038773e-01 2.022809e-01 1.965988e-01 1.933463e-01 1.866671e-01 1.818556e-01 1.742751e-01 1.680620e-01 1.597313e-01 1.523282e-01 1.434448e-01 1.351073e-01 1.259024e-01 1.169154e-01 1.076384e-01 9.829844e-02 8.919863e-02 7.979484e-02 7.110231e-02 6.189557e-02 5.380095e-02 4.500241e-02 3.763579e-02 2.938445e-02 2.279371e-02 1.513344e-02 9.262422e-03 2.119286e-03 -3.212713e-03 -1.005104e-02 -1.516606e-02 -2.206537e-02 -2.743582e-02 -3.492024e-02 -4.116502e-02 -4.990546e-02 -5.776667e-02 -6.854588e-02 -7.883956e-02 -9.248667e-02 -1.060214e-01 -1.233104e-01 -1.407701e-01 -1.622803e-01 -1.840726e-01 -2.100187e-01 -2.361011e-01 -2.661528e-01 -2.958662e-01 -3.290015e-01 -3.609625e-01 -3.954198e-01 -4.275443e-01 -4.609446e-01 -4.906670e-01 -5.203433e-01 -5.450369e-01 -5.685131e-01 -5.859982e-01 -6.014417e-01 -6.103593e-01 -6.167984e-01 -6.166528e-01 -6.138717e-01 -6.047399e-01 -5.929435e-01 -5.750286e-01 -5.544703e-01 -5.276866e-01 -4.984861e-01 -4.623076e-01 -4.247535e-01 -3.786687e-01 -3.341340e-01 -2.787732e-01 -2.306905e-01 -1.689165e-01 -1.226001e-01 -5.949039e-02 -2.019955e-02 3.839798e-02 6.790874e-02 1.170859e-01 1.362638e-01 1.701468e-01 1.739923e-01 1.834486e-01 1.627891e-01 1.591028e-01 1.232254e-01 1.195036e-01 1.305424e-01 1.183900e-01 9.008492e-02 1.013613e-01 8.628966e-02 7.933076e-02 8.041752e-02 6.721869e-02 8.585940e-02 7.569598e-02 1.028820e-01 8.988930e-02 1.155322e-01 1.124562e-01 1.339065e-01 1.326862e-01 1.500224e-01 1.493173e-01 1.636829e-01 1.632761e-01 1.755023e-01 1.752612e-01 1.858179e-01 1.855913e-01 1.947073e-01 1.943289e-01 2.020817e-01 2.013771e-01 2.077513e-01 2.065444e-01 2.114724e-01 2.095946e-01 2.129879e-01 2.102898e-01 
2.363397e-01 2.343543e-01 2.343400e-01 2.308780e-01 2.291133e-01 2.241292e-01 2.206553e-01 2.141757e-01 2.090985e-01 2.012259e-01 1.947171e-01 1.856271e-01 1.779188e-01 1.678516e-01 1.592252e-01 1.484709e-01 1.392423e-01 1.281224e-01 1.186227e-01 1.074692e-01 9.802468e-02 8.715678e-02 7.806692e-02 6.776702e-02 5.928139e-02 4.977008e-02 4.206408e-02 3.347410e-02 2.662326e-02 1.897304e-02 1.292653e-02 6.094358e-03 6.496281e-04 -5.648748e-03 -1.086671e-02 -1.709279e-02 -2.264215e-02 -2.943547e-02 -3.605096e-02 -4.420868e-02 -5.276933e-02 -6.319619e-02 -7.465857e-02 -8.827945e-02 -1.035686e-01 -1.211976e-01 -1.410514e-01 -1.632169e-01 -1.879885e-01 -2.147241e-01 -2.441625e-01 -2.747964e-01 -3.078538e-01 -3.408605e-01 -3.756062e-01 -4.086181e-01 -4.423614e-01 -4.724457e-01 -5.021379e-01 -5.263726e-01 -5.492443e-01 -5.654475e-01 -5.796602e-01 -5.869245e-01 -5.919097e-01 -5.905836e-01 -5.868589e-01 -5.779419e-01 -5.664429e-01 -5.507256e-01 -5.320025e-01 -5.093066e-01 -4.830394e-01 -4.519014e-01 -4.172829e-01 -3.756254e-01 -3.329512e-01 -2.798987e-01 -2.326040e-01 -1.703002e-01 -1.253281e-01 -5.905417e-02 -2.395751e-02 3.946538e-02 6.192760e-02 1.154986e-01 1.310393e-01 1.617472e-01 1.755510e-01 1.573830e-01 1.515759e-01 1.479324e-01 1.139179e-01 1.115408e-01 4.056119e-02 7.404769e-02 4.186682e-02 2.241293e-02 2.087483e-02 -4.528771e-03 2.222789e-03 -1.685321e-02 1.586761e-03 -1.660417e-02 3.290570e-02 4.296933e-02 8.228675e-02 8.993026e-02 1.161636e-01 1.211090e-01 1.404382e-01 1.446032e-01 1.600471e-01 1.640010e-01 1.769111e-01 1.806961e-01 1.917143e-01 1.952203e-01 2.046513e-01 2.077188e-01 2.156819e-01 2.181256e-01 2.246301e-01 2.262504e-01 2.312426e-01 2.318381e-01 2.352357e-01 2.346188e-01 
2.193910e-01 2.166172e-01 2.171870e-01 2.131248e-01 2.117461e-01 2.063768e-01 2.030835e-01 1.964560e-01 1.913558e-01 1.835905e-01 1.768672e-01 1.681536e-01 1.600617e-01 1.506501e-01 1.415039e-01 1.316913e-01 1.218480e-01 1.119608e-01 1.018015e-01 9.217565e-02 8.208288e-02 7.304289e-02 6.337860e-02 5.521489e-02 4.629611e-02 3.924150e-02 3.131464e-02 2.551849e-02 1.873128e-02 1.423151e-02 8.602444e-03 5.295927e-03 6.828176e-04 -1.703403e-03 -5.632516e-03 -7.564832e-03 -1.135272e-02 -1.350274e-02 -1.790795e-02 -2.114392e-02 -2.711971e-02 -3.246752e-02 -4.110325e-02 -4.966628e-02 -6.207965e-02 -7.490718e-02 -9.207756e-02 -1.099750e-01 -1.325158e-01 -1.558012e-01 -1.836881e-01 -2.119227e-01 -2.442303e-01 -2.759950e-01 -3.107457e-01 -3.435859e-01 -3.778537e-01 -4.085419e-01 -4.389255e-01 -4.641114e-01 -4.875217e-01 -5.046092e-01 -5.190438e-01 -5.268453e-01 -5.317037e-01 -5.304407e-01 -5.262346e-01 -5.169311e-01 -5.046198e-01 -4.883182e-01 -4.685997e-01 -4.455884e-01 -4.183721e-01 -3.875872e-01 -3.522475e-01 -3.116725e-01 -2.687386e-01 -2.174329e-01 -1.709806e-01 -1.115075e-01 -6.945473e-02 -8.437180e-03 2.096814e-02 7.495489e-02 8.868778e-02 1.302184e-01 1.335771e-01 1.570267e-01 1.493030e-01 1.332589e-01 8.333970e-02 7.119813e-02 6.866592e-02 1.027673e-01 2.163024e-02 -7.687122e-03 1.200237e-02 -3.067172e-02 -1.848653e-02 -3.109108e-02 -2.241291e-02 -2.619211e-02 -2.221233e-02 -3.050849e-02 7.801239e-03 2.589632e-02 6.350128e-02 7.039123e-02 9.715291e-02 1.009806e-01 1.216187e-01 1.248841e-01 1.418523e-01 1.449152e-01 1.593615e-01 1.621589e-01 1.746574e-01 1.770734e-01 1.879046e-01 1.898154e-01 1.990853e-01 2.003543e-01 2.080586e-01 2.085359e-01 2.146039e-01 2.141346e-01 2.184643e-01 2.169025e-01 
2.458051e-01 2.448584e-01 2.453095e-01 2.425641e-01 2.410009e-01 2.364006e-01 2.328550e-01 2.264293e-01 2.210142e-01 2.128865e-01 2.057993e-01 1.961854e-01 1.877032e-01 1.769029e-01 1.673700e-01 1.557506e-01 1.455612e-01 1.335363e-01 1.231132e-01 1.111185e-01 1.008897e-01 8.935721e-02 7.973260e-02 6.906342e-02 6.040877e-02 5.094519e-02 4.355492e-02 3.554978e-02 2.961596e-02 2.319932e-02 1.877687e-02 1.392031e-02 1.088959e-02 7.370262e-03 5.400526e-03 2.770076e-03 1.290169e-03 -1.144126e-03 -2.958497e-03 -6.130337e-03 -9.341211e-03 -1.438783e-02 -2.023796e-02 -2.841559e-02 -3.821532e-02 -5.075422e-02 -6.569866e-02 -8.358622e-02 -1.044953e-01 -1.281857e-01 -1.551784e-01 -1.842531e-01 -2.164081e-01 -2.492682e-01 -2.843913e-01 -3.181428e-01 -3.528314e-01 -3.835935e-01 -4.137905e-01 -4.375908e-01 -4.596319e-01 -4.737232e-01 -4.854959e-01 -4.894003e-01 -4.909572e-01 -4.864066e-01 -4.796274e-01 -4.693549e-01 -4.566623e-01 -4.428911e-01 -4.257163e-01 -4.088308e-01 -3.864290e-01 -3.639773e-01 -3.335885e-01 -3.008627e-01 -2.605354e-01 -2.138744e-01 -1.671926e-01 -1.078247e-01 -6.591703e-02 -1.845828e-04 2.247507e-02 8.568156e-02 8.109601e-02 1.357161e-01 1.169635e-01 1.434469e-01 1.488705e-01 4.240367e-02 1.120350e-02 -3.036414e-02 -5.335270e-02 -1.406872e-01 -7.687662e-02 -2.975605e-02 -4.453142e-02 1.272772e-02 1.105389e-02 3.918209e-02 4.145653e-02 5.247022e-02 5.393602e-02 6.293077e-02 6.040262e-02 5.480500e-02 7.252915e-02 7.328539e-02 9.422717e-02 9.941161e-02 1.184587e-01 1.251770e-01 1.417367e-01 1.487060e-01 1.630857e-01 1.697829e-01 1.823160e-01 1.884894e-01 1.993814e-01 2.048515e-01 2.141815e-01 2.187693e-01 2.265199e-01 2.300279e-01 2.361178e-01 2.383365e-01 2.426527e-01 2.433774e-01 
2.284864e-01 2.266387e-01 2.277166e-01 2.242815e-01 2.231248e-01 2.180723e-01 2.146968e-01 2.080784e-01 2.025935e-01 1.945493e-01 1.871626e-01 1.779214e-01 1.689334e-01 1.588032e-01 1.485948e-01 1.379473e-01 1.269596e-01 1.162103e-01 1.049227e-01 9.450847e-02 8.341345e-02 7.376943e-02 6.334847e-02 5.488389e-02 4.558147e-02 3.865413e-02 3.084970e-02 2.573702e-02 1.971245e-02 1.657749e-02 1.247879e-02 1.133095e-02 9.124428e-03 9.776451e-03 9.202483e-03 1.122843e-02 1.175908e-02 1.446114e-02 1.527146e-02 1.766642e-02 1.763252e-02 1.847132e-02 1.621115e-02 1.404739e-02 8.023484e-03 1.349371e-03 -9.944762e-03 -2.247491e-02 -4.022508e-02 -5.946897e-02 -8.414509e-02 -1.100559e-01 -1.409601e-01 -1.721582e-01 -2.070638e-01 -2.405913e-01 -2.757443e-01 -3.073146e-01 -3.380988e-01 -3.631059e-01 -3.853998e-01 -4.005105e-01 -4.121075e-01 -4.165030e-01 -4.175560e-01 -4.127634e-01 -4.050574e-01 -3.936394e-01 -3.793706e-01 -3.637736e-01 -3.444880e-01 -3.260094e-01 -3.014237e-01 -2.786194e-01 -2.463503e-01 -2.147089e-01 -1.731121e-01 -1.285054e-01 -8.227805e-02 -2.591406e-02 1.236234e-02 7.247031e-02 8.863777e-02 1.378964e-01 1.247200e-01 1.547928e-01 1.233687e-01 1.156504e-01 6.633895e-02 4.158792e-02 4.659352e-02 2.520648e-03 -5.428088e-02 9.088498e-02 1.008449e-01 1.147700e-01 1.174330e-01 1.021793e-01 1.165503e-01 9.488695e-02 1.141640e-01 8.463511e-02 1.167315e-01 8.310520e-02 1.005360e-01 5.943598e-02 7.389021e-02 6.452819e-02 8.349219e-02 8.538328e-02 1.041409e-01 1.091958e-01 1.263160e-01 1.319357e-01 1.472726e-01 1.526242e-01 1.662984e-01 1.710817e-01 1.831901e-01 1.872476e-01 1.978037e-01 2.009968e-01 2.099342e-01 2.121101e-01 2.193045e-01 2.202966e-01 2.255945e-01 2.252377e-01 
2.572282e-01 2.574226e-01 2.583737e-01 2.564190e-01 2.550629e-01 2.508723e-01 2.472144e-01 2.408066e-01 2.349561e-01 2.264677e-01 2.186440e-01 2.083311e-01 1.988583e-01 1.870861e-01 1.763792e-01 1.636033e-01 1.521460e-01 1.388868e-01 1.272072e-01 1.140215e-01 1.026657e-01 9.011722e-02 7.962321e-02 6.825355e-02 5.912483e-02 4.942277e-02 4.209883e-02 3.446661e-02 2.928802e-02 2.400189e-02 2.116755e-02 1.833157e-02 1.784795e-02 1.734252e-02 1.896793e-02 2.039804e-02 2.358923e-02 2.624144e-02 3.011366e-02 3.293431e-02 3.624979e-02 3.785977e-02 3.906278e-02 3.782691e-02 3.514712e-02 2.931983e-02 2.097026e-02 8.944380e-03 -6.557650e-03 -2.587183e-02 -4.924432e-02 -7.590358e-02 -1.065347e-01 -1.389814e-01 -1.744128e-01 -2.090609e-01 -2.448544e-01 -2.762970e-01 -3.067393e-01 -3.290965e-01 -3.489502e-01 -3.583225e-01 -3.649692e-01 -3.616252e-01 -3.561752e-01 -3.443699e-01 -3.311275e-01 -3.164997e-01 -3.005047e-01 -2.876370e-01 -2.720753e-01 -2.628044e-01 -2.465649e-01 -2.375238e-01 -2.142009e-01 -1.962552e-01 -1.585698e-01 -1.228072e-01 -7.313724e-02 -1.916982e-02 2.497147e-02 9.079381e-02 1.031555e-01 1.693081e-01 1.240097e-01 1.980712e-01 9.650164e-02 1.607519e-01 -4.085580e-03 6.019748e-02 -1.063949e-01 -6.767490e-02 4.951403e-02 1.764907e-01 1.538344e-01 4.899125e-02 1.172813e-01 4.033821e-02 8.515645e-02 1.821352e-02 6.938544e-02 3.755859e-03 6.324100e-02 -1.384966e-02 6.022630e-02 3.304007e-02 6.076846e-02 5.912942e-02 7.907300e-02 8.582898e-02 1.036219e-01 1.128182e-01 1.290534e-01 1.386285e-01 1.533765e-01 1.626016e-01 1.759131e-01 1.844861e-01 1.963808e-01 2.041088e-01 2.145456e-01 2.212360e-01 2.301097e-01 2.355412e-01 2.426966e-01 2.466237e-01 2.518790e-01 2.540523e-01 
2.391618e-01 2.382991e-01 2.399373e-01 2.371726e-01 2.362590e-01 2.315313e-01 2.280441e-01 2.213926e-01 2.154303e-01 2.070069e-01 1.987954e-01 1.888659e-01 1.787536e-01 1.676875e-01 1.561290e-01 1.443807e-01 1.319123e-01 1.199974e-01 1.072100e-01 9.567898e-02 8.318979e-02 7.260275e-02 6.102923e-02 5.193098e-02 4.186474e-02 3.475905e-02 2.673750e-02 2.205686e-02 1.652847e-02 1.459585e-02 1.187522e-02 1.285537e-02 1.306672e-02 1.690750e-02 1.991861e-02 2.628684e-02 3.164003e-02 3.986091e-02 4.671270e-02 5.572581e-02 6.281078e-02 7.115898e-02 7.679773e-02 8.266867e-02 8.484572e-02 8.619203e-02 8.273948e-02 7.751491e-02 6.645026e-02 5.301043e-02 3.307612e-02 1.078193e-02 -1.781855e-02 -4.783875e-02 -8.267768e-02 -1.168662e-01 -1.529708e-01 -1.853770e-01 -2.160872e-01 -2.398785e-01 -2.592848e-01 -2.697862e-01 -2.755599e-01 -2.728363e-01 -2.667222e-01 -2.547781e-01 -2.406940e-01 -2.242447e-01 -2.060350e-01 -1.892815e-01 -1.699094e-01 -1.563719e-01 -1.356914e-01 -1.245907e-01 -9.712603e-02 -8.020792e-02 -3.910718e-02 -6.389120e-03 4.322607e-02 9.357659e-02 1.305711e-01 1.941066e-01 1.983988e-01 2.517463e-01 2.077021e-01 2.596016e-01 2.345977e-01 1.970374e-01 2.910342e-02 4.797884e-02 -7.842404e-02 2.331039e-01 2.411828e-01 -5.031512e-02 -1.641044e-02 3.408315e-04 8.810936e-03 -4.039715e-02 2.260590e-03 -5.881610e-02 -1.141083e-02 -6.388895e-02 -2.146745e-02 -6.124100e-02 -7.471967e-03 6.803615e-03 3.506576e-02 4.435157e-02 6.435102e-02 7.294637e-02 9.063665e-02 9.914664e-02 1.156196e-01 1.237692e-01 1.391248e-01 1.466826e-01 1.608777e-01 1.677052e-01 1.806613e-01 1.866422e-01 1.982358e-01 2.032312e-01 2.132871e-01 2.171223e-01 2.254215e-01 2.278940e-01 2.341948e-01 2.350946e-01 