# vtk DataFile Version 2.0
Comment goes here
ASCII

DATASET STRUCTURED_POINTS
DIMENSIONS    128   128   1

ORIGIN    0.000   0.000   0.000
SPACING   0.0156250.015625   1.000

POINT_DATA   16384
SCALARS uX double
LOOKUP_TABLE default

-2.164024e-02 -2.289917e-02 -2.332361e-02 -2.425289e-02 -2.448955e-02 -2.508616e-02 -2.514176e-02 -2.540640e-02 -2.528944e-02 -2.522749e-02 -2.494887e-02 -2.457121e-02 -2.414468e-02 -2.346836e-02 -2.291088e-02 -2.195951e-02 -2.129156e-02 -2.009555e-02 -1.934142e-02 -1.793808e-02 -1.712610e-02 -1.555963e-02 -1.472250e-02 -1.304398e-02 -1.221915e-02 -1.048638e-02 -9.716371e-03 -7.993648e-03 -7.326264e-03 -5.683900e-03 -5.172130e-03 -3.685491e-03 -3.386849e-03 -2.134709e-03 -2.109697e-03 -1.171565e-03 -1.480946e-03 -9.330652e-04 -1.633612e-03 -1.543361e-03 -2.681877e-03 -3.100483e-03 -4.706073e-03 -5.659791e-03 -7.734730e-03 -9.215104e-03 -1.172512e-02 -1.367950e-02 -1.654495e-02 -1.886901e-02 -2.195889e-02 -2.449351e-02 -2.762480e-02 -3.015949e-02 -3.310393e-02 -3.538868e-02 -3.788810e-02 -3.965375e-02 -4.144341e-02 -4.242866e-02 -4.326571e-02 -4.324669e-02 -4.293917e-02 -4.175661e-02 -4.018830e-02 -3.776821e-02 -3.491650e-02 -3.128294e-02 -2.722962e-02 -2.251126e-02 -1.744834e-02 -1.188132e-02 -6.112956e-03 -3.964415e-05 6.023415e-03 1.216633e-02 1.803004e-02 2.374660e-02 2.888805e-02 3.369239e-02 3.765128e-02 4.116770e-02 4.365917e-02 4.572342e-02 4.673088e-02 4.744435e-02 4.724259e-02 4.694337e-02 4.602895e-02 4.518640e-02 4.413394e-02 4.320286e-02 4.248451e-02 4.175196e-02 4.157176e-02 4.105762e-02 4.129098e-02 4.076453e-02 4.103460e-02 4.013124e-02 3.997840e-02 3.836448e-02 3.742985e-02 3.495601e-02 3.318108e-02 2.999135e-02 2.769205e-02 2.412072e-02 2.166174e-02 1.799060e-02 1.559379e-02 1.198454e-02 9.744182e-03 6.280625e-03 4.229625e-03 9.616262e-04 -8.878972e-04 -3.924642e-03 -5.567053e-03 -8.345346e-03 -9.778430e-03 -1.227778e-02 -1.350210e-02 -1.570711e-02 -1.672528e-02 -1.862401e-02 -1.943977e-02 -2.102253e-02 
-1.886470e-02 -1.995678e-02 -2.044176e-02 -2.125665e-02 -2.154190e-02 -2.207904e-02 -2.217045e-02 -2.243185e-02 -2.233740e-02 -2.232852e-02 -2.205878e-02 -2.178935e-02 -2.135800e-02 -2.084267e-02 -2.026679e-02 -1.952562e-02 -1.882604e-02 -1.788487e-02 -1.708630e-02 -1.597700e-02 -1.510836e-02 -1.386906e-02 -1.296368e-02 -1.163892e-02 -1.073494e-02 -9.375788e-03 -8.516413e-03 -7.180462e-03 -6.414236e-03 -5.165294e-03 -4.545987e-03 -3.453343e-03 -3.039329e-03 -2.176269e-03 -2.029053e-03 -1.470322e-03 -1.651875e-03 -1.469781e-03 -2.038359e-03 -2.297231e-03 -3.301451e-03 -4.050343e-03 -5.521474e-03 -6.785259e-03 -8.728046e-03 -1.049751e-02 -1.288034e-02 -1.510242e-02 -1.784828e-02 -2.041829e-02 -2.339855e-02 -2.615677e-02 -2.919025e-02 -3.192521e-02 -3.478483e-02 -3.724526e-02 -3.967353e-02 -4.158926e-02 -4.332195e-02 -4.443152e-02 -4.522668e-02 -4.530756e-02 -4.497478e-02 -4.387056e-02 -4.229562e-02 -3.993576e-02 -3.709739e-02 -3.350834e-02 -2.948745e-02 -2.479739e-02 -1.978160e-02 -1.422269e-02 -8.508237e-03 -2.416922e-03 3.595194e-03 9.786399e-03 1.561077e-02 2.140402e-02 2.652275e-02 3.142223e-02 3.537574e-02 3.899095e-02 4.149219e-02 4.364792e-02 4.467579e-02 4.547586e-02 4.529635e-02 4.509684e-02 4.419189e-02 4.348516e-02 4.241503e-02 4.166672e-02 4.089866e-02 4.038832e-02 4.013030e-02 3.986899e-02 4.001016e-02 3.976277e-02 3.994022e-02 3.935060e-02 3.910787e-02 3.784431e-02 3.680699e-02 3.470758e-02 3.280306e-02 3.000459e-02 2.757740e-02 2.442027e-02 2.184802e-02 1.860609e-02 1.610451e-02 1.292601e-02 1.058186e-02 7.540635e-03 5.384217e-03 2.523967e-03 5.682469e-04 -2.080081e-03 -3.827447e-03 -6.241429e-03 -7.776144e-03 -9.940433e-03 -1.126120e-02 -1.316575e-02 -1.427350e-02 -1.591162e-02 -1.680861e-02 -1.817550e-02 
-2.190044e-02 -2.316173e-02 -2.358312e-02 -2.451364e-02 -2.474683e-02 -2.534296e-02 -2.539425e-02 -2.565613e-02 -2.553373e-02 -2.546629e-02 -2.518081e-02 -2.479461e-02 -2.435960e-02 -2.367146e-02 -2.310374e-02 -2.213715e-02 -2.145707e-02 -2.024239e-02 -1.947408e-02 -1.804863e-02 -1.722026e-02 -1.562826e-02 -1.477237e-02 -1.306495e-02 -1.221880e-02 -1.045388e-02 -9.659895e-03 -7.902033e-03 -7.208063e-03 -5.528033e-03 -4.987403e-03 -3.461398e-03 -3.132385e-03 -1.840507e-03 -1.784973e-03 -8.087171e-04 -1.089527e-03 -5.078995e-04 -1.184773e-03 -1.068738e-03 -2.192265e-03 -2.597354e-03 -4.201083e-03 -5.158267e-03 -7.249155e-03 -8.754527e-03 -1.130252e-02 -1.330693e-02 -1.623514e-02 -1.863568e-02 -2.181332e-02 -2.444905e-02 -2.768975e-02 -3.034441e-02 -3.341250e-02 -3.582632e-02 -3.845258e-02 -4.034368e-02 -4.225009e-02 -4.334346e-02 -4.427389e-02 -4.433346e-02 -4.408501e-02 -4.294282e-02 -4.139211e-02 -3.896968e-02 -3.609081e-02 -3.241119e-02 -2.828543e-02 -2.347834e-02 -1.829914e-02 -1.260352e-02 -6.679457e-03 -4.444072e-04 5.802575e-03 1.212491e-02 1.817750e-02 2.406249e-02 2.936008e-02 3.428149e-02 3.831799e-02 4.186029e-02 4.431436e-02 4.629409e-02 4.714232e-02 4.767612e-02 4.722429e-02 4.669422e-02 4.549707e-02 4.442726e-02 4.312836e-02 4.202764e-02 4.116114e-02 4.035082e-02 4.014441e-02 3.964094e-02 3.994946e-02 3.949354e-02 3.989481e-02 3.908500e-02 3.907536e-02 3.754627e-02 3.670244e-02 3.426780e-02 3.248599e-02 2.930448e-02 2.700465e-02 2.346602e-02 2.105131e-02 1.743170e-02 1.509660e-02 1.153292e-02 9.345086e-03 5.910559e-03 3.895345e-03 6.419485e-04 -1.185406e-03 -4.216445e-03 -5.845208e-03 -8.622407e-03 -1.004665e-02 -1.254717e-02 -1.376536e-02 -1.597269e-02 -1.698634e-02 -1.888793e-02 -1.970015e-02 -2.128580e-02 
-1.934698e-02 -2.044037e-02 -2.092020e-02 -2.173517e-02 -2.201421e-02 -2.254908e-02 -2.263243e-02 -2.288823e-02 -2.278317e-02 -2.276450e-02 -2.248109e-02 -2.219699e-02 -2.174853e-02 -2.121313e-02 -2.061645e-02 -1.984944e-02 -1.912511e-02 -1.815206e-02 -1.732458e-02 -1.617715e-02 -1.527513e-02 -1.399129e-02 -1.304775e-02 -1.167193e-02 -1.072466e-02 -9.307941e-03 -8.399956e-03 -7.000209e-03 -6.180128e-03 -4.861914e-03 -4.184130e-03 -3.018219e-03 -2.542576e-03 -1.604769e-03 -1.395414e-03 -7.643211e-04 -8.873533e-04 -6.407459e-04 -1.160248e-03 -1.369618e-03 -2.341739e-03 -3.064814e-03 -4.529725e-03 -5.800958e-03 -7.772851e-03 -9.592343e-03 -1.204819e-02 -1.437018e-02 -1.723872e-02 -1.996156e-02 -2.311479e-02 -2.607526e-02 -2.932540e-02 -3.230038e-02 -3.540549e-02 -3.812385e-02 -4.080403e-02 -4.296954e-02 -4.493366e-02 -4.625706e-02 -4.723649e-02 -4.747100e-02 -4.725391e-02 -4.622682e-02 -4.468592e-02 -4.231964e-02 -3.942883e-02 -3.574971e-02 -3.159038e-02 -2.672956e-02 -2.149249e-02 -1.568642e-02 -9.675186e-03 -3.270250e-03 3.094638e-03 9.639472e-03 1.582906e-02 2.196135e-02 2.738398e-02 3.252535e-02 3.663031e-02 4.030369e-02 4.273188e-02 4.471539e-02 4.543509e-02 4.586132e-02 4.520184e-02 4.452462e-02 4.307682e-02 4.191308e-02 4.036263e-02 3.928818e-02 3.822250e-02 3.756400e-02 3.723419e-02 3.698903e-02 3.725395e-02 3.712475e-02 3.754663e-02 3.712856e-02 3.717726e-02 3.609104e-02 3.525277e-02 3.325156e-02 3.132455e-02 2.855867e-02 2.613753e-02 2.306840e-02 2.060000e-02 1.747920e-02 1.511021e-02 1.203273e-02 9.795607e-03 6.817791e-03 4.731490e-03 1.904715e-03 -8.899878e-06 -2.641187e-03 -4.363322e-03 -6.769975e-03 -8.288781e-03 -1.045003e-02 -1.176011e-02 -1.366402e-02 -1.476418e-02 -1.640313e-02 -1.729434e-02 -1.866277e-02 
-2.268152e-02 -2.395055e-02 -2.436310e-02 -2.529800e-02 -2.552105e-02 -2.611631e-02 -2.615497e-02 -2.640906e-02 -2.627051e-02 -2.618698e-02 -2.588107e-02 -2.546948e-02 -2.500917e-02 -2.428572e-02 -2.368739e-02 -2.267522e-02 -2.195886e-02 -2.068822e-02 -1.987755e-02 -1.838575e-02 -1.750847e-02 -1.583982e-02 -1.492789e-02 -1.313365e-02 -1.222377e-02 -1.036217e-02 -9.496355e-03 -7.632584e-03 -6.858712e-03 -5.064832e-03 -4.437071e-03 -2.791596e-03 -2.370343e-03 -9.572043e-04 -8.082297e-04 2.852548e-04 9.290052e-05 7.795022e-04 1.772898e-04 3.752382e-04 -6.988926e-04 -1.058283e-03 -2.651540e-03 -3.613865e-03 -5.747821e-03 -7.323538e-03 -9.981588e-03 -1.213300e-02 -1.524750e-02 -1.787681e-02 -2.131846e-02 -2.425998e-02 -2.783282e-02 -3.085307e-02 -3.429900e-02 -3.710823e-02 -4.012376e-02 -4.240036e-02 -4.466599e-02 -4.609204e-02 -4.731023e-02 -4.761176e-02 -4.754606e-02 -4.652902e-02 -4.503526e-02 -4.260918e-02 -3.965321e-02 -3.584017e-02 -3.150340e-02 -2.643754e-02 -2.091772e-02 -1.484516e-02 -8.461355e-03 -1.747388e-03 5.049860e-03 1.191163e-02 1.853916e-02 2.493943e-02 3.072133e-02 3.600606e-02 4.028824e-02 4.390938e-02 4.624722e-02 4.795523e-02 4.830046e-02 4.826513e-02 4.702666e-02 4.577724e-02 4.369564e-02 4.192365e-02 3.985432e-02 3.823331e-02 3.690911e-02 3.586300e-02 3.557519e-02 3.509276e-02 3.562013e-02 3.535344e-02 3.613149e-02 3.557752e-02 3.601721e-02 3.475746e-02 3.424347e-02 3.196393e-02 3.014159e-02 2.702335e-02 2.476634e-02 2.139095e-02 1.917227e-02 1.574909e-02 1.363110e-02 1.021373e-02 8.188030e-03 4.835173e-03 2.921732e-03 -2.951108e-04 -2.061860e-03 -5.080468e-03 -6.671923e-03 -9.448069e-03 -1.084755e-02 -1.335249e-02 -1.455308e-02 -1.676783e-02 -1.776835e-02 -1.967896e-02 -2.048089e-02 -2.207576e-02 
-2.031203e-02 -2.140905e-02 -2.187943e-02 -2.269559e-02 -2.296297e-02 -2.349435e-02 -2.356218e-02 -2.380767e-02 -2.368187e-02 -2.364431e-02 -2.333393e-02 -2.302099e-02 -2.253860e-02 -2.196342e-02 -2.132535e-02 -2.050692e-02 -1.973336e-02 -1.869676e-02 -1.781175e-02 -1.658824e-02 -1.561984e-02 -1.424703e-02 -1.322753e-02 -1.174956e-02 -1.071600e-02 -9.183854e-03 -8.178648e-03 -6.650554e-03 -5.722236e-03 -4.263993e-03 -3.467902e-03 -2.152931e-03 -1.551509e-03 -4.603244e-04 -1.226834e-04 6.586464e-04 6.583959e-04 1.041308e-03 6.274951e-04 5.260667e-04 -3.727510e-04 -1.034076e-03 -2.476522e-03 -3.752311e-03 -5.772631e-03 -7.683096e-03 -1.027709e-02 -1.279292e-02 -1.590276e-02 -1.893037e-02 -2.243108e-02 -2.580167e-02 -2.949331e-02 -3.296067e-02 -3.657105e-02 -3.982263e-02 -4.302479e-02 -4.570898e-02 -4.815433e-02 -4.992215e-02 -5.128516e-02 -5.183841e-02 -5.186274e-02 -5.099617e-02 -4.952988e-02 -4.715532e-02 -4.416671e-02 -4.031562e-02 -3.589123e-02 -3.070414e-02 -2.504166e-02 -1.876153e-02 -1.217347e-02 -5.157545e-03 1.907417e-03 9.159347e-03 1.609403e-02 2.292560e-02 2.898660e-02 3.464191e-02 3.907337e-02 4.287284e-02 4.514327e-02 4.674767e-02 4.679913e-02 4.640833e-02 4.472441e-02 4.302518e-02 4.043418e-02 3.831768e-02 3.575273e-02 3.402903e-02 3.234872e-02 3.139660e-02 3.090477e-02 3.067041e-02 3.114750e-02 3.117840e-02 3.203411e-02 3.188474e-02 3.255467e-02 3.185173e-02 3.155866e-02 2.985337e-02 2.782194e-02 2.521115e-02 2.291094e-02 2.016112e-02 1.803631e-02 1.523853e-02 1.319404e-02 1.033070e-02 8.310866e-03 5.444893e-03 3.484806e-03 7.093804e-04 -1.132571e-03 -3.741905e-03 -5.420845e-03 -7.816748e-03 -9.307175e-03 -1.146369e-02 -1.275396e-02 -1.465714e-02 -1.574304e-02 -1.738422e-02 -1.826468e-02 -1.963696e-02 
-2.398517e-02 -2.526910e-02 -2.566831e-02 -2.661255e-02 -2.682000e-02 -2.741569e-02 -2.743437e-02 -2.767700e-02 -2.751238e-02 -2.740315e-02 -2.706381e-02 -2.661062e-02 -2.610862e-02 -2.532668e-02 -2.467777e-02 -2.358978e-02 -2.281340e-02 -2.144949e-02 -2.056878e-02 -1.896633e-02 -1.800817e-02 -1.621160e-02 -1.520694e-02 -1.326766e-02 -1.225206e-02 -1.022859e-02 -9.243074e-03 -7.201350e-03 -6.293433e-03 -4.307214e-03 -3.531953e-03 -1.683100e-03 -1.103853e-03 5.178667e-04 8.293672e-04 2.127406e-03 2.092224e-03 2.965909e-03 2.500966e-03 2.850376e-03 1.874130e-03 1.607901e-03 4.931763e-05 -9.040760e-04 -3.092864e-03 -4.770256e-03 -7.597828e-03 -9.983738e-03 -1.340117e-02 -1.640963e-02 -2.029317e-02 -2.375306e-02 -2.789256e-02 -3.154215e-02 -3.564139e-02 -3.913836e-02 -4.283307e-02 -4.578419e-02 -4.867962e-02 -5.068875e-02 -5.241238e-02 -5.313747e-02 -5.339409e-02 -5.259745e-02 -5.121050e-02 -4.878705e-02 -4.571534e-02 -4.169383e-02 -3.702583e-02 -3.155339e-02 -2.549533e-02 -1.882716e-02 -1.170646e-02 -4.220700e-03 3.482929e-03 1.124323e-02 1.885393e-02 2.614683e-02 3.279249e-02 3.872888e-02 4.347029e-02 4.723020e-02 4.936223e-02 5.054915e-02 4.996324e-02 4.886806e-02 4.619202e-02 4.366161e-02 3.999413e-02 3.700128e-02 3.355388e-02 3.104946e-02 2.894102e-02 2.751642e-02 2.709071e-02 2.659035e-02 2.744012e-02 2.737863e-02 2.865435e-02 2.836692e-02 2.957053e-02 2.877027e-02 2.907853e-02 2.724067e-02 2.524761e-02 2.244059e-02 2.050001e-02 1.766680e-02 1.601124e-02 1.303431e-02 1.135669e-02 8.183078e-03 6.417293e-03 3.166394e-03 1.393507e-03 -1.789974e-03 -3.477074e-03 -6.489234e-03 -8.029644e-03 -1.080956e-02 -1.217261e-02 -1.468670e-02 -1.586004e-02 -1.808808e-02 -1.906803e-02 -2.099488e-02 -2.178090e-02 -2.339284e-02 
-2.176068e-02 -2.286576e-02 -2.332416e-02 -2.414488e-02 -2.439680e-02 -2.492551e-02 -2.497173e-02 -2.520396e-02 -2.504831e-02 -2.498415e-02 -2.463418e-02 -2.427925e-02 -2.374658e-02 -2.311261e-02 -2.241299e-02 -2.151806e-02 -2.067121e-02 -1.953979e-02 -1.856921e-02 -1.723202e-02 -1.616493e-02 -1.465902e-02 -1.352654e-02 -1.189544e-02 -1.073320e-02 -9.027407e-03 -7.876463e-03 -6.154255e-03 -5.062397e-03 -3.390746e-03 -2.413951e-03 -8.694531e-04 -7.319055e-05 1.257413e-03 1.797458e-03 2.817663e-03 3.016050e-03 3.621558e-03 3.385514e-03 3.468622e-03 2.703320e-03 2.160678e-03 7.783193e-04 -4.771014e-04 -2.543660e-03 -4.565914e-03 -7.344874e-03 -1.013422e-02 -1.359303e-02 -1.707316e-02 -2.109632e-02 -2.509423e-02 -2.946655e-02 -3.370226e-02 -3.810537e-02 -4.220026e-02 -4.623071e-02 -4.974105e-02 -5.295418e-02 -5.542998e-02 -5.740470e-02 -5.846215e-02 -5.887037e-02 -5.825537e-02 -5.691250e-02 -5.453147e-02 -5.141005e-02 -4.731859e-02 -4.252679e-02 -3.689191e-02 -3.064215e-02 -2.371366e-02 -1.631786e-02 -8.445068e-03 -3.622586e-04 7.931728e-03 1.600862e-02 2.393542e-02 3.103220e-02 3.754239e-02 4.253263e-02 4.655615e-02 4.855845e-02 4.949740e-02 4.839499e-02 4.657896e-02 4.319354e-02 3.979335e-02 3.538162e-02 3.177239e-02 2.757509e-02 2.498016e-02 2.240268e-02 2.105636e-02 2.027928e-02 1.999497e-02 2.064413e-02 2.061365e-02 2.181950e-02 2.172197e-02 2.329533e-02 2.312882e-02 2.422069e-02 2.336474e-02 2.093840e-02 1.897734e-02 1.737638e-02 1.556204e-02 1.432579e-02 1.214902e-02 1.066647e-02 8.082287e-03 6.343031e-03 3.576162e-03 1.751552e-03 -9.909731e-04 -2.758433e-03 -5.352919e-03 -6.982455e-03 -9.368381e-03 -1.082239e-02 -1.297297e-02 -1.423617e-02 -1.613867e-02 -1.720503e-02 -1.885072e-02 -1.971702e-02 -2.109714e-02 
-2.581373e-02 -2.712302e-02 -2.750667e-02 -2.846854e-02 -2.865699e-02 -2.925735e-02 -2.925042e-02 -2.948026e-02 -2.928095e-02 -2.913805e-02 -2.875317e-02 -2.824317e-02 -2.768371e-02 -2.682058e-02 -2.610164e-02 -2.490768e-02 -2.404817e-02 -2.255360e-02 -2.157596e-02 -1.981843e-02 -1.874846e-02 -1.677258e-02 -1.563963e-02 -1.349682e-02 -1.233449e-02 -1.008325e-02 -8.930548e-03 -6.637154e-03 -5.540196e-03 -3.279848e-03 -2.293814e-03 -1.519098e-04 6.569612e-04 2.583723e-03 3.136629e-03 4.739915e-03 4.945133e-03 6.106192e-03 5.860767e-03 6.454222e-03 5.648837e-03 5.550255e-03 4.078530e-03 3.177027e-03 9.503996e-04 -8.328544e-04 -3.864109e-03 -6.551582e-03 -1.037207e-02 -1.390190e-02 -1.840291e-02 -2.260248e-02 -2.755864e-02 -3.212841e-02 -3.718938e-02 -4.170831e-02 -4.641651e-02 -5.037867e-02 -5.421999e-02 -5.710368e-02 -5.958603e-02 -6.094174e-02 -6.168051e-02 -6.120902e-02 -5.998841e-02 -5.757816e-02 -5.436487e-02 -5.007642e-02 -4.498882e-02 -3.900540e-02 -3.226954e-02 -2.485697e-02 -1.679455e-02 -8.317094e-03 5.970413e-04 9.581058e-03 1.859387e-02 2.719376e-02 3.516706e-02 4.212527e-02 4.763553e-02 5.161698e-02 5.344169e-02 5.372244e-02 5.160116e-02 4.873356e-02 4.375576e-02 3.929549e-02 3.322959e-02 2.850781e-02 2.298698e-02 1.932218e-02 1.620951e-02 1.442097e-02 1.383369e-02 1.309861e-02 1.422689e-02 1.411806e-02 1.550753e-02 1.494969e-02 1.693437e-02 1.648209e-02 1.878246e-02 1.821939e-02 1.578613e-02 1.438524e-02 1.392361e-02 1.253271e-02 1.213935e-02 9.854890e-03 8.792962e-03 5.823628e-03 4.307978e-03 1.081968e-03 -5.799799e-04 -3.776916e-03 -5.395670e-03 -8.420615e-03 -9.906594e-03 -1.269670e-02 -1.401441e-02 -1.654153e-02 -1.767897e-02 -1.992622e-02 -2.087938e-02 -2.283126e-02 -2.359760e-02 -2.523716e-02 
-2.369343e-02 -2.481458e-02 -2.526145e-02 -2.609380e-02 -2.632907e-02 -2.685931e-02 -2.687991e-02 -2.709868e-02 -2.690554e-02 -2.680912e-02 -2.640790e-02 -2.599923e-02 -2.540053e-02 -2.468967e-02 -2.390878e-02 -2.291290e-02 -2.196927e-02 -2.071227e-02 -1.962891e-02 -1.814102e-02 -1.694411e-02 -1.526158e-02 -1.398054e-02 -1.214580e-02 -1.081386e-02 -8.876195e-03 -7.531774e-03 -5.548547e-03 -4.237263e-03 -2.275722e-03 -1.052895e-03 8.077071e-04 1.874313e-03 3.540654e-03 4.368377e-03 5.731668e-03 6.221517e-03 7.157636e-03 7.194908e-03 7.567272e-03 7.025575e-03 6.692264e-03 5.442553e-03 4.269389e-03 2.195717e-03 7.679577e-05 -2.900049e-03 -6.013838e-03 -9.905087e-03 -1.397129e-02 -1.868457e-02 -2.353378e-02 -2.884082e-02 -3.415144e-02 -3.967200e-02 -4.497039e-02 -5.018791e-02 -5.488911e-02 -5.920992e-02 -6.270421e-02 -6.555706e-02 -6.732657e-02 -6.827586e-02 -6.800054e-02 -6.682776e-02 -6.443113e-02 -6.114501e-02 -5.675532e-02 -5.152933e-02 -4.538362e-02 -3.846809e-02 -3.082836e-02 -2.251157e-02 -1.366904e-02 -4.352511e-03 5.230792e-03 1.482881e-02 2.426991e-02 3.289237e-02 4.072227e-02 4.662168e-02 5.105186e-02 5.263615e-02 5.247886e-02 4.946358e-02 4.526216e-02 3.925995e-02 3.324877e-02 2.636658e-02 2.073883e-02 1.421854e-02 1.108744e-02 7.741658e-03 6.087253e-03 4.855349e-03 4.345668e-03 4.694054e-03 3.676553e-03 4.263341e-03 3.183255e-03 5.220807e-03 4.987804e-03 9.218264e-03 1.074920e-02 7.842220e-03 8.728909e-03 1.005073e-02 1.033118e-02 1.074419e-02 9.229124e-03 8.304029e-03 5.788600e-03 4.201089e-03 1.385194e-03 -3.824305e-04 -3.154286e-03 -4.873298e-03 -7.467130e-03 -9.047055e-03 -1.141977e-02 -1.282933e-02 -1.496891e-02 -1.619774e-02 -1.809843e-02 -1.914123e-02 -2.079495e-02 -2.164608e-02 -2.304085e-02 
-2.816943e-02 -2.951989e-02 -2.988938e-02 -3.088237e-02 -3.105160e-02 -3.166533e-02 -3.162964e-02 -3.184880e-02 -3.160786e-02 -3.142562e-02 -3.098419e-02 -3.040337e-02 -2.977137e-02 -2.880473e-02 -2.799685e-02 -2.666668e-02 -2.570162e-02 -2.403875e-02 -2.293839e-02 -2.098119e-02 -1.977005e-02 -1.756346e-02 -1.626866e-02 -1.386386e-02 -1.251583e-02 -9.970584e-03 -8.604677e-03 -5.984525e-03 -4.643488e-03 -2.023794e-03 -7.609785e-04 1.770399e-03 2.887374e-03 5.227160e-03 6.112843e-03 8.139833e-03 8.688251e-03 1.026220e-02 1.034624e-02 1.130958e-02 1.078402e-02 1.096825e-02 9.678577e-03 8.917612e-03 6.716832e-03 4.869457e-03 1.644931e-03 -1.372252e-03 -5.661586e-03 -9.832040e-03 -1.511107e-02 -2.027301e-02 -2.630731e-02 -3.211805e-02 -3.848822e-02 -4.441761e-02 -5.053204e-02 -5.590584e-02 -6.106930e-02 -6.517174e-02 -6.870797e-02 -7.092516e-02 -7.231915e-02 -7.227114e-02 -7.126969e-02 -6.886709e-02 -6.548685e-02 -6.088238e-02 -5.532836e-02 -4.879792e-02 -4.135024e-02 -3.318350e-02 -2.413556e-02 -1.462483e-02 -4.355732e-03 6.042505e-03 1.681400e-02 2.713907e-02 3.700562e-02 4.549839e-02 5.227760e-02 5.664661e-02 5.808258e-02 5.680276e-02 5.218373e-02 4.630596e-02 3.772882e-02 3.063022e-02 2.135669e-02 1.465541e-02 6.393703e-03 1.711627e-03 -1.862720e-03 -3.214446e-03 -3.821900e-03 -5.726675e-03 -5.138443e-03 -5.814411e-03 -6.138281e-03 -8.420948e-03 -7.490893e-03 -9.094053e-03 -4.579906e-03 -2.516922e-03 -1.637630e-03 3.325152e-03 7.831998e-03 8.702003e-03 9.869703e-03 7.723289e-03 6.883764e-03 3.641884e-03 2.097192e-03 -1.325039e-03 -2.989757e-03 -6.269777e-03 -7.845247e-03 -1.089210e-02 -1.231604e-02 -1.511080e-02 -1.636938e-02 -1.890704e-02 -1.999819e-02 -2.226961e-02 -2.319085e-02 -2.517924e-02 -2.592496e-02 -2.760737e-02 
-2.610938e-02 -2.726047e-02 -2.770080e-02 -2.855749e-02 -2.877880e-02 -2.931963e-02 -2.931351e-02 -2.952243e-02 -2.928607e-02 -2.915439e-02 -2.869130e-02 -2.821879e-02 -2.753876e-02 -2.673385e-02 -2.585225e-02 -2.473151e-02 -2.366809e-02 -2.225533e-02 -2.103301e-02 -1.935816e-02 -1.800207e-02 -1.610051e-02 -1.463768e-02 -1.255010e-02 -1.101009e-02 -8.783276e-03 -7.199890e-03 -4.888556e-03 -3.302744e-03 -9.723384e-04 5.639265e-04 2.833511e-03 4.252590e-03 6.362854e-03 7.576589e-03 9.406453e-03 1.030194e-02 1.170504e-02 1.214235e-02 1.294715e-02 1.276079e-02 1.277582e-02 1.178253e-02 1.080951e-02 8.825374e-03 6.683414e-03 3.553244e-03 1.166653e-04 -4.242633e-03 -8.993002e-03 -1.453731e-02 -2.045502e-02 -2.695537e-02 -3.367634e-02 -4.067822e-02 -4.760125e-02 -5.442924e-02 -6.076035e-02 -6.659596e-02 -7.147661e-02 -7.551492e-02 -7.821712e-02 -7.986164e-02 -7.997806e-02 -7.898582e-02 -7.651072e-02 -7.300014e-02 -6.823978e-02 -6.254859e-02 -5.591035e-02 -4.839119e-02 -4.018177e-02 -3.107241e-02 -2.144069e-02 -1.094025e-02 -8.362236e-05 1.127045e-02 2.257707e-02 3.331104e-02 4.312100e-02 5.052470e-02 5.578652e-02 5.679414e-02 5.491154e-02 4.861336e-02 4.027220e-02 3.016656e-02 2.010225e-02 1.054842e-02 2.378455e-03 -7.195990e-03 -8.380975e-03 -1.002271e-02 -1.162555e-02 -1.353648e-02 -1.415993e-02 -1.761041e-02 -2.146587e-02 -2.505435e-02 -2.700775e-02 -2.984416e-02 -2.979341e-02 -3.013159e-02 -2.808130e-02 -1.148475e-02 4.814782e-05 8.315213e-03 9.734155e-03 1.074344e-02 8.324637e-03 6.973839e-03 3.769036e-03 1.907972e-03 -1.202366e-03 -3.036785e-03 -5.876965e-03 -7.558394e-03 -1.013087e-02 -1.164283e-02 -1.397653e-02 -1.532366e-02 -1.743706e-02 -1.862148e-02 -2.051733e-02 -2.153428e-02 -2.320235e-02 -2.404121e-02 -2.546254e-02 
-3.105338e-02 -3.246923e-02 -3.283136e-02 -3.387667e-02 -3.403094e-02 -3.467311e-02 -3.460880e-02 -3.482399e-02 -3.453662e-02 -3.431216e-02 -3.380421e-02 -3.313979e-02 -3.242055e-02 -3.132815e-02 -3.041263e-02 -2.891541e-02 -2.782292e-02 -2.595343e-02 -2.470586e-02 -2.250405e-02 -2.112467e-02 -1.863622e-02 -1.714919e-02 -1.442471e-02 -1.285573e-02 -9.951069e-03 -8.329393e-03 -5.307365e-03 -3.669221e-03 -6.027516e-04 1.003909e-03 4.027339e-03 5.537019e-03 8.410029e-03 9.733327e-03 1.232307e-02 1.334066e-02 1.548420e-02 1.604260e-02 1.754509e-02 1.745631e-02 1.809454e-02 1.714274e-02 1.667766e-02 1.463660e-02 1.283904e-02 9.504578e-03 6.197935e-03 1.438673e-03 -3.440124e-03 -9.615242e-03 -1.594190e-02 -2.330879e-02 -3.070191e-02 -3.876286e-02 -4.655019e-02 -5.452907e-02 -6.179145e-02 -6.872258e-02 -7.444582e-02 -7.936889e-02 -8.268517e-02 -8.489334e-02 -8.531836e-02 -8.453782e-02 -8.206878e-02 -7.845639e-02 -7.346211e-02 -6.742873e-02 -6.040016e-02 -5.236803e-02 -4.367437e-02 -3.390178e-02 -2.368679e-02 -1.229925e-02 -6.677222e-04 1.194199e-02 2.426528e-02 3.662853e-02 4.738441e-02 5.629010e-02 6.150601e-02 6.268146e-02 5.876138e-02 5.001597e-02 3.851361e-02 2.387458e-02 1.325872e-02 9.038253e-05 -7.996162e-03 -1.852180e-02 -2.408588e-02 -2.286497e-02 -2.053903e-02 -2.207507e-02 -2.475019e-02 -2.767728e-02 -2.597744e-02 -2.558965e-02 -1.968002e-02 -1.962501e-02 -1.389466e-02 -1.500642e-02 -1.283732e-02 9.842779e-03 1.317019e-02 1.785593e-02 1.396039e-02 1.275002e-02 7.858628e-03 5.711805e-03 1.349330e-03 -6.468788e-04 -4.413530e-03 -6.135672e-03 -9.463349e-03 -1.095894e-02 -1.397126e-02 -1.529055e-02 -1.805326e-02 -1.922431e-02 -2.175952e-02 -2.279092e-02 -2.509194e-02 -2.597884e-02 -2.802102e-02 -2.875032e-02 -3.049880e-02 
-2.900546e-02 -3.020941e-02 -3.065489e-02 -3.155682e-02 -3.177221e-02 -3.233943e-02 -3.230925e-02 -3.251688e-02 -3.223372e-02 -3.206698e-02 -3.153221e-02 -3.098743e-02 -3.021073e-02 -2.929519e-02 -2.829313e-02 -2.702377e-02 -2.581768e-02 -2.421921e-02 -2.283285e-02 -2.093570e-02 -1.939346e-02 -1.723223e-02 -1.555814e-02 -1.317102e-02 -1.138926e-02 -8.818794e-03 -6.955760e-03 -4.251222e-03 -2.339390e-03 4.391381e-04 2.355650e-03 5.131661e-03 6.990055e-03 9.663729e-03 1.137452e-02 1.381527e-02 1.525420e-02 1.729383e-02 1.829521e-02 1.972360e-02 2.007744e-02 2.064383e-02 2.010022e-02 1.952418e-02 1.780976e-02 1.580749e-02 1.265955e-02 8.991094e-03 4.214583e-03 -1.244167e-03 -7.695492e-03 -1.485935e-02 -2.278633e-02 -3.126349e-02 -4.013575e-02 -4.916596e-02 -5.809532e-02 -6.658296e-02 -7.441609e-02 -8.111404e-02 -8.667803e-02 -9.051885e-02 -9.296667e-02 -9.342009e-02 -9.250785e-02 -8.974492e-02 -8.584628e-02 -8.055736e-02 -7.437321e-02 -6.734099e-02 -5.947791e-02 -5.116090e-02 -4.181509e-02 -3.213528e-02 -2.107775e-02 -9.599600e-03 3.277523e-03 1.642958e-02 2.983422e-02 4.248823e-02 5.246117e-02 5.961378e-02 6.015530e-02 5.596383e-02 4.381018e-02 2.793010e-02 1.045938e-02 -6.886836e-03 -1.844634e-02 -3.210461e-02 -4.165003e-02 -3.842468e-02 -3.645503e-02 -3.455456e-02 -2.541018e-02 -6.521631e-03 6.765310e-03 2.536584e-02 3.421858e-02 4.389783e-02 4.872204e-02 5.336175e-02 5.583749e-02 5.699229e-02 5.659260e-02 3.986637e-02 3.159146e-02 2.044757e-02 1.507025e-02 8.435440e-03 5.099894e-03 7.214465e-04 -1.591185e-03 -4.883942e-03 -6.692692e-03 -9.436609e-03 -1.097850e-02 -1.341490e-02 -1.479250e-02 -1.702446e-02 -1.827542e-02 -2.033740e-02 -2.146629e-02 -2.335634e-02 -2.435020e-02 -2.604614e-02 -2.688287e-02 -2.835163e-02 
-3.446523e-02 -3.598330e-02 -3.635271e-02 -3.748244e-02 -3.763216e-02 -3.832635e-02 -3.823776e-02 -3.846153e-02 -3.812517e-02 -3.785877e-02 -3.727505e-02 -3.651504e-02 -3.569354e-02 -3.445222e-02 -3.340984e-02 -3.171305e-02 -3.047127e-02 -2.835525e-02 -2.693726e-02 -2.444520e-02 -2.287350e-02 -2.005268e-02 -1.834784e-02 -1.524798e-02 -1.342899e-02 -1.010238e-02 -8.189088e-03 -4.692772e-03 -2.710269e-03 8.895210e-04 2.904295e-03 6.525581e-03 8.515372e-03 1.205200e-02 1.392931e-02 1.724137e-02 1.887794e-02 2.178220e-02 2.299957e-02 2.526215e-02 2.582578e-02 2.716041e-02 2.678156e-02 2.685850e-02 2.520952e-02 2.368196e-02 2.043248e-02 1.698826e-02 1.186982e-02 6.314812e-03 -7.820802e-04 -8.410107e-03 -1.731385e-02 -2.661945e-02 -3.676019e-02 -4.690011e-02 -5.725940e-02 -6.696610e-02 -7.617799e-02 -8.397603e-02 -9.063482e-02 -9.525267e-02 -9.835939e-02 -9.917335e-02 -9.847627e-02 -9.569552e-02 -9.166132e-02 -8.609760e-02 -7.955865e-02 -7.214445e-02 -6.384826e-02 -5.518499e-02 -4.542769e-02 -3.549188e-02 -2.397443e-02 -1.212999e-02 1.625281e-03 1.562299e-02 3.076312e-02 4.466366e-02 5.704215e-02 6.439168e-02 6.631672e-02 5.854312e-02 4.349270e-02 2.051347e-02 -5.656885e-03 -2.183229e-02 -4.332837e-02 -5.807802e-02 -3.985526e-02 -2.938924e-02 -2.048368e-02 2.090798e-02 4.592080e-02 7.120482e-02 8.202197e-02 8.756334e-02 8.880026e-02 8.715770e-02 8.775733e-02 8.448818e-02 8.622142e-02 8.430371e-02 7.291035e-02 4.670015e-02 3.266521e-02 1.840407e-02 1.178456e-02 4.342512e-03 1.069457e-03 -3.599171e-03 -5.569495e-03 -9.115320e-03 -1.056890e-02 -1.362969e-02 -1.486349e-02 -1.768433e-02 -1.880748e-02 -2.147180e-02 -2.251588e-02 -2.503377e-02 -2.599526e-02 -2.834012e-02 -2.919851e-02 -3.132433e-02 -3.205091e-02 -3.390203e-02 
-3.237671e-02 -3.366981e-02 -3.414157e-02 -3.512098e-02 -3.534562e-02 -3.596389e-02 -3.591692e-02 -3.613797e-02 -3.580662e-02 -3.560845e-02 -3.499232e-02 -3.436801e-02 -3.347811e-02 -3.243504e-02 -3.129128e-02 -2.984865e-02 -2.847618e-02 -2.666164e-02 -2.508697e-02 -2.293301e-02 -2.118067e-02 -1.872172e-02 -1.681237e-02 -1.408337e-02 -1.203376e-02 -9.070728e-03 -6.896105e-03 -3.739016e-03 -1.458042e-03 1.843780e-03 4.201563e-03 7.581516e-03 9.965766e-03 1.332977e-02 1.565741e-02 1.887199e-02 2.101410e-02 2.389396e-02 2.566303e-02 2.796026e-02 2.910070e-02 3.049924e-02 3.068533e-02 3.080640e-02 2.965447e-02 2.808110e-02 2.518499e-02 2.151606e-02 1.651639e-02 1.046079e-02 3.156713e-03 -5.328104e-03 -1.482719e-02 -2.536703e-02 -3.647901e-02 -4.813779e-02 -5.970849e-02 -7.097008e-02 -8.135590e-02 -9.036483e-02 -9.780431e-02 -1.029229e-01 -1.061559e-01 -1.066559e-01 -1.054762e-01 -1.018998e-01 -9.720114e-02 -9.099672e-02 -8.420030e-02 -7.688720e-02 -6.914687e-02 -6.158196e-02 -5.318323e-02 -4.510155e-02 -3.517223e-02 -2.501718e-02 -1.200052e-02 1.823531e-03 1.788286e-02 3.398976e-02 4.815954e-02 5.940751e-02 6.077937e-02 5.525641e-02 3.347007e-02 5.334805e-03 -2.639563e-02 -5.686838e-02 -7.677296e-02 -5.302564e-02 -4.512093e-02 -8.430189e-03 4.973837e-02 8.753907e-02 9.261473e-02 8.180609e-02 7.114923e-02 5.620324e-02 4.820357e-02 3.933620e-02 3.475882e-02 2.953573e-02 2.734606e-02 2.408738e-02 3.020584e-02 1.902099e-02 1.433833e-02 6.587838e-03 3.197262e-03 -1.413018e-03 -3.498313e-03 -6.595156e-03 -8.067971e-03 -1.052727e-02 -1.176847e-02 -1.397667e-02 -1.514547e-02 -1.725502e-02 -1.840129e-02 -2.045658e-02 -2.157910e-02 -2.357259e-02 -2.464584e-02 -2.654327e-02 -2.752993e-02 -2.928255e-02 -3.014003e-02 -3.169185e-02 
-3.840494e-02 -4.007979e-02 -4.048186e-02 -4.174280e-02 -4.190632e-02 -4.268725e-02 -4.258371e-02 -4.283573e-02 -4.244996e-02 -4.214503e-02 -4.147597e-02 -4.060813e-02 -3.966756e-02 -3.825156e-02 -3.706091e-02 -3.512845e-02 -3.371430e-02 -3.130869e-02 -2.969792e-02 -2.686848e-02 -2.508406e-02 -2.188133e-02 -1.993989e-02 -1.641266e-02 -1.432425e-02 -1.051918e-02 -8.289921e-03 -4.254116e-03 -1.891723e-03 2.321472e-03 4.799088e-03 9.121066e-03 1.167420e-02 1.600900e-02 1.856192e-02 2.277155e-02 2.519630e-02 2.908480e-02 3.118474e-02 3.448302e-02 3.597890e-02 3.833462e-02 3.885820e-02 3.983690e-02 3.893970e-02 3.804704e-02 3.523534e-02 3.197362e-02 2.678388e-02 2.075761e-02 1.288589e-02 3.965961e-03 -6.545728e-03 -1.801129e-02 -3.056090e-02 -4.354981e-02 -5.682386e-02 -6.958949e-02 -8.163808e-02 -9.198991e-02 -1.006959e-01 -1.066998e-01 -1.105994e-01 -1.114358e-01 -1.103995e-01 -1.067258e-01 -1.018269e-01 -9.527667e-02 -8.809435e-02 -8.037500e-02 -7.226896e-02 -6.450264e-02 -5.605927e-02 -4.830762e-02 -3.884132e-02 -2.937320e-02 -1.682403e-02 -3.141619e-03 1.359114e-02 3.084350e-02 4.775661e-02 5.982867e-02 6.531204e-02 5.437614e-02 3.375521e-02 -1.098500e-02 -5.363436e-02 -6.856333e-02 -5.955999e-02 -3.517341e-02 8.165685e-03 9.981727e-02 1.162815e-01 7.923238e-02 4.979321e-02 2.287464e-02 3.185455e-03 -1.287846e-02 -2.027070e-02 -2.774968e-02 -3.091426e-02 -3.423182e-02 -3.546155e-02 -3.826214e-02 -2.745676e-02 -1.873569e-02 -1.232318e-02 -1.104895e-02 -9.579627e-03 -1.093902e-02 -1.091725e-02 -1.294042e-02 -1.335304e-02 -1.559603e-02 -1.621091e-02 -1.858740e-02 -1.933925e-02 -2.181245e-02 -2.265966e-02 -2.518320e-02 -2.608197e-02 -2.859435e-02 -2.949638e-02 -3.192421e-02 -3.277810e-02 -3.503996e-02 -3.579316e-02 -3.780375e-02 