# vtk DataFile Version 2.0
Comment goes here
ASCII

DATASET STRUCTURED_POINTS
DIMENSIONS    128   128   1

ORIGIN    0.000   0.000   0.000
SPACING   0.0156250.015625   1.000

POINT_DATA   16384
SCALARS uX double
LOOKUP_TABLE default

-3.129398e-02 -3.313375e-02 -3.368041e-02 -3.503276e-02 -3.528741e-02 -3.614660e-02 -3.611928e-02 -3.648559e-02 -3.618982e-02 -3.607085e-02 -3.552430e-02 -3.493612e-02 -3.416123e-02 -3.312935e-02 -3.215382e-02 -3.071382e-02 -2.957098e-02 -2.776891e-02 -2.649807e-02 -2.439066e-02 -2.303751e-02 -2.069224e-02 -1.930924e-02 -1.680434e-02 -1.545130e-02 -1.287565e-02 -1.162016e-02 -9.072948e-03 -7.990680e-03 -5.580720e-03 -4.755191e-03 -2.599435e-03 -2.120885e-03 -3.418280e-04 -3.047212e-04 9.738424e-04 4.752190e-04 1.134557e-03 1.285959e-05 -5.182242e-05 -1.867557e-03 -2.735598e-03 -5.287885e-03 -6.999334e-03 -1.028815e-02 -1.282860e-02 -1.679665e-02 -2.008262e-02 -2.460219e-02 -2.846982e-02 -3.333441e-02 -3.753483e-02 -4.245900e-02 -4.666401e-02 -5.129460e-02 -5.511498e-02 -5.905531e-02 -6.207217e-02 -6.491812e-02 -6.672441e-02 -6.810794e-02 -6.835433e-02 -6.798799e-02 -6.642574e-02 -6.414099e-02 -6.065555e-02 -5.643048e-02 -5.106321e-02 -4.503901e-02 -3.799813e-02 -3.048618e-02 -2.214923e-02 -1.362968e-02 -4.535943e-03 4.358151e-03 1.353467e-02 2.206121e-02 3.057391e-02 3.796984e-02 4.510848e-02 5.072550e-02 5.596111e-02 5.942220e-02 6.254265e-02 6.385947e-02 6.502975e-02 6.461728e-02 6.432391e-02 6.289150e-02 6.179230e-02 6.014533e-02 5.887725e-02 5.767702e-02 5.665475e-02 5.619816e-02 5.547677e-02 5.562031e-02 5.491212e-02 5.517751e-02 5.400268e-02 5.379530e-02 5.170298e-02 5.054486e-02 4.731574e-02 4.509608e-02 4.088322e-02 3.795709e-02 3.316548e-02 2.996698e-02 2.495459e-02 2.176115e-02 1.674940e-02 1.369386e-02 8.813143e-03 5.958556e-03 1.297960e-03 -1.317326e-03 -5.688533e-03 -8.036465e-03 -1.206337e-02 -1.412402e-02 -1.776430e-02 -1.952549e-02 -2.274714e-02 -2.420314e-02 -2.698176e-02 -2.813156e-02 -3.044813e-02 
-2.769792e-02 -2.931844e-02 -2.994578e-02 -3.114737e-02 -3.146713e-02 -3.224721e-02 -3.226838e-02 -3.262896e-02 -3.236431e-02 -3.231310e-02 -3.177990e-02 -3.133147e-02 -3.055205e-02 -2.972879e-02 -2.873101e-02 -2.756388e-02 -2.638147e-02 -2.491055e-02 -2.358341e-02 -2.185835e-02 -2.043285e-02 -1.851319e-02 -1.704261e-02 -1.499805e-02 -1.354301e-02 -1.145362e-02 -1.008257e-02 -8.038775e-03 -6.828264e-03 -4.930379e-03 -3.964869e-03 -2.321912e-03 -1.692707e-03 -4.200240e-04 -2.228490e-04 5.619439e-04 2.312402e-04 4.144778e-04 -5.334098e-04 -1.052637e-03 -2.691112e-03 -3.989426e-03 -6.363953e-03 -8.479726e-03 -1.159369e-02 -1.451164e-02 -1.831143e-02 -2.194762e-02 -2.630926e-02 -3.049936e-02 -3.521971e-02 -3.971402e-02 -4.451032e-02 -4.897917e-02 -5.350011e-02 -5.755241e-02 -6.140241e-02 -6.461757e-02 -6.739328e-02 -6.936373e-02 -7.069823e-02 -7.107604e-02 -7.068373e-02 -6.922351e-02 -6.693809e-02 -6.352947e-02 -5.933031e-02 -5.401737e-02 -4.804396e-02 -4.103389e-02 -3.359135e-02 -2.525616e-02 -1.681374e-02 -7.684958e-03 1.137534e-03 1.039078e-02 1.886321e-02 2.749045e-02 3.485736e-02 4.213308e-02 4.774892e-02 5.312208e-02 5.660909e-02 5.985077e-02 6.121599e-02 6.249297e-02 6.213807e-02 6.196056e-02 6.056974e-02 5.962765e-02 5.797977e-02 5.692776e-02 5.567341e-02 5.492029e-02 5.436233e-02 5.395469e-02 5.397307e-02 5.361759e-02 5.375477e-02 5.298224e-02 5.264926e-02 5.101109e-02 4.971259e-02 4.697301e-02 4.458175e-02 4.088263e-02 3.778765e-02 3.353955e-02 3.019025e-02 2.574029e-02 2.240654e-02 1.795883e-02 1.476435e-02 1.043656e-02 7.441320e-03 3.314584e-03 5.580967e-04 -3.304498e-03 -5.791625e-03 -9.341404e-03 -1.153664e-02 -1.473801e-02 -1.662683e-02 -1.945476e-02 -2.102937e-02 -2.346632e-02 -2.472377e-02 -2.675712e-02 
-3.168881e-02 -3.353201e-02 -3.407377e-02 -3.542796e-02 -3.567691e-02 -3.653539e-02 -3.650099e-02 -3.686319e-02 -3.655843e-02 -3.643125e-02 -3.587342e-02 -3.527240e-02 -3.448364e-02 -3.343392e-02 -3.244172e-02 -3.097866e-02 -2.981615e-02 -2.798570e-02 -2.669200e-02 -2.455085e-02 -2.317140e-02 -2.078703e-02 -1.937407e-02 -1.682475e-02 -1.543783e-02 -1.281260e-02 -1.151918e-02 -8.917593e-03 -7.793444e-03 -5.325034e-03 -4.454219e-03 -2.237207e-03 -1.711178e-03 1.298859e-04 2.145558e-04 1.552818e-03 1.098617e-03 1.811118e-03 7.262411e-04 7.027514e-04 -1.089410e-03 -1.934691e-03 -4.483181e-03 -6.197301e-03 -9.508850e-03 -1.208407e-02 -1.610731e-02 -1.946523e-02 -2.407617e-02 -2.805488e-02 -3.304697e-02 -3.739496e-02 -4.247765e-02 -4.685841e-02 -5.166776e-02 -5.567819e-02 -5.980174e-02 -6.300484e-02 -6.601975e-02 -6.798899e-02 -6.950873e-02 -6.987729e-02 -6.959929e-02 -6.810576e-02 -6.585179e-02 -6.237487e-02 -5.811879e-02 -5.269813e-02 -4.658092e-02 -3.942639e-02 -3.176222e-02 -2.325599e-02 -1.453215e-02 -5.224144e-03 3.909723e-03 1.332264e-02 2.209171e-02 3.082275e-02 3.841282e-02 4.569756e-02 5.140067e-02 5.665968e-02 6.005443e-02 6.305535e-02 6.415018e-02 6.508329e-02 6.433818e-02 6.374850e-02 6.194869e-02 6.056102e-02 5.859873e-02 5.711613e-02 5.573105e-02 5.461279e-02 5.412830e-02 5.342576e-02 5.366813e-02 5.305785e-02 5.349264e-02 5.244593e-02 5.242662e-02 5.045221e-02 4.942405e-02 4.625776e-02 4.405293e-02 3.986367e-02 3.695787e-02 3.221711e-02 2.908889e-02 2.414771e-02 2.104106e-02 1.609073e-02 1.310684e-02 8.265314e-03 5.459179e-03 8.186896e-04 -1.766479e-03 -6.129412e-03 -8.458603e-03 -1.248351e-02 -1.453183e-02 -1.817336e-02 -1.992584e-02 -2.315050e-02 -2.459995e-02 -2.738251e-02 -2.852702e-02 -3.084771e-02 
-2.843774e-02 -3.006068e-02 -3.067949e-02 -3.188158e-02 -3.219094e-02 -3.296792e-02 -3.297559e-02 -3.332787e-02 -3.304562e-02 -3.297954e-02 -3.242386e-02 -3.195289e-02 -3.114555e-02 -3.029125e-02 -2.925971e-02 -2.805245e-02 -2.683013e-02 -2.530956e-02 -2.393601e-02 -2.215142e-02 -2.067263e-02 -1.868328e-02 -1.715203e-02 -1.502743e-02 -1.350389e-02 -1.132414e-02 -9.876471e-03 -7.732423e-03 -6.437362e-03 -4.430507e-03 -3.373542e-03 -1.615212e-03 -8.899727e-04 5.005733e-04 7.942510e-04 1.693430e-03 1.453369e-03 1.739156e-03 8.672453e-04 4.278815e-04 -1.160498e-03 -2.414630e-03 -4.777986e-03 -6.899435e-03 -1.005474e-02 -1.304183e-02 -1.694752e-02 -2.072684e-02 -2.526663e-02 -2.967808e-02 -3.464905e-02 -3.943780e-02 -4.454714e-02 -4.936683e-02 -5.424168e-02 -5.867296e-02 -6.288592e-02 -6.647140e-02 -6.958139e-02 -7.187403e-02 -7.347712e-02 -7.409434e-02 -7.387545e-02 -7.254809e-02 -7.032320e-02 -6.692996e-02 -6.267229e-02 -5.725639e-02 -5.110695e-02 -4.387982e-02 -3.614954e-02 -2.749049e-02 -1.866085e-02 -9.117622e-03 1.622806e-04 9.881270e-03 1.881980e-02 2.788769e-02 3.562948e-02 4.321000e-02 4.899115e-02 5.442263e-02 5.777915e-02 6.078037e-02 6.171857e-02 6.250363e-02 6.151757e-02 6.072609e-02 5.863935e-02 5.711506e-02 5.485892e-02 5.339253e-02 5.176736e-02 5.083016e-02 5.018681e-02 4.981097e-02 4.999063e-02 4.980217e-02 5.025359e-02 4.971738e-02 4.976399e-02 4.837094e-02 4.735155e-02 4.476281e-02 4.239027e-02 3.875879e-02 3.571262e-02 3.159420e-02 2.840345e-02 2.411804e-02 2.096840e-02 1.665564e-02 1.360633e-02 9.363541e-03 6.463085e-03 2.382000e-03 -3.171662e-04 -4.157212e-03 -6.609463e-03 -1.014855e-02 -1.232133e-02 -1.551818e-02 -1.739154e-02 -2.021864e-02 -2.178193e-02 -2.422041e-02 -2.546894e-02 -2.750497e-02 
-3.287401e-02 -3.472849e-02 -3.525607e-02 -3.661673e-02 -3.684908e-02 -3.770634e-02 -3.765106e-02 -3.800171e-02 -3.767029e-02 -3.751908e-02 -3.692763e-02 -3.628848e-02 -3.545830e-02 -3.435531e-02 -3.331326e-02 -3.178118e-02 -3.055987e-02 -2.864435e-02 -2.728235e-02 -2.503998e-02 -2.358205e-02 -2.108031e-02 -1.957788e-02 -1.689516e-02 -1.540697e-02 -1.263267e-02 -1.122561e-02 -8.460220e-03 -7.210214e-03 -4.565202e-03 -3.557703e-03 -1.154881e-03 -4.847066e-04 1.545454e-03 1.775643e-03 3.297321e-03 2.980526e-03 3.858194e-03 2.889296e-03 2.996373e-03 1.281681e-03 5.126861e-04 -2.016837e-03 -3.730556e-03 -7.102638e-03 -9.774274e-03 -1.395638e-02 -1.752395e-02 -2.240446e-02 -2.671315e-02 -3.208650e-02 -3.687776e-02 -4.243866e-02 -4.735135e-02 -5.270328e-02 -5.729178e-02 -6.197369e-02 -6.574501e-02 -6.927600e-02 -7.174303e-02 -7.367928e-02 -7.442137e-02 -7.441446e-02 -7.313243e-02 -7.097619e-02 -6.753053e-02 -6.318857e-02 -5.761652e-02 -5.123142e-02 -4.374911e-02 -3.564303e-02 -2.664457e-02 -1.732197e-02 -7.383427e-03 2.463555e-03 1.258380e-02 2.208783e-02 3.148424e-02 3.967492e-02 4.741152e-02 5.338760e-02 5.871653e-02 6.190595e-02 6.452467e-02 6.492227e-02 6.510955e-02 6.332518e-02 6.182184e-02 5.888139e-02 5.661173e-02 5.367122e-02 5.153580e-02 4.958870e-02 4.818339e-02 4.761965e-02 4.696187e-02 4.749262e-02 4.715051e-02 4.806800e-02 4.737315e-02 4.793595e-02 4.632843e-02 4.575669e-02 4.282121e-02 4.063774e-02 3.656296e-02 3.377088e-02 2.925886e-02 2.641562e-02 2.173611e-02 1.892558e-02 1.416881e-02 1.140269e-02 6.670343e-03 4.000875e-03 -5.892109e-04 -3.092289e-03 -7.436635e-03 -9.714532e-03 -1.373639e-02 -1.575005e-02 -1.939653e-02 -2.112391e-02 -2.435830e-02 -2.578864e-02 -2.858371e-02 -2.971281e-02 -3.204668e-02 
-2.991828e-02 -3.154765e-02 -3.215063e-02 -3.335543e-02 -3.364512e-02 -3.441752e-02 -3.439915e-02 -3.473622e-02 -3.441950e-02 -3.432479e-02 -3.372466e-02 -3.320944e-02 -3.234664e-02 -3.143088e-02 -3.033216e-02 -2.904510e-02 -2.774330e-02 -2.612378e-02 -2.465787e-02 -2.275451e-02 -2.116966e-02 -1.904114e-02 -1.738912e-02 -1.510447e-02 -1.344434e-02 -1.108347e-02 -9.482561e-03 -7.136895e-03 -5.671936e-03 -3.444912e-03 -2.202981e-03 -2.100913e-04 7.110306e-04 2.343181e-03 2.835916e-03 3.972224e-03 3.922103e-03 4.424050e-03 3.715468e-03 3.449497e-03 1.975121e-03 8.250322e-04 -1.500558e-03 -3.616897e-03 -6.839327e-03 -9.949377e-03 -1.405330e-02 -1.810706e-02 -2.299407e-02 -2.784253e-02 -3.331241e-02 -3.869237e-02 -4.443356e-02 -4.996574e-02 -5.556174e-02 -6.076848e-02 -6.572563e-02 -7.007195e-02 -7.386946e-02 -7.682469e-02 -7.898055e-02 -8.008956e-02 -8.022824e-02 -7.917486e-02 -7.707949e-02 -7.372546e-02 -6.936266e-02 -6.375641e-02 -5.727571e-02 -4.964126e-02 -4.136531e-02 -3.209296e-02 -2.251903e-02 -1.217597e-02 -1.996142e-03 8.647683e-03 1.853129e-02 2.850355e-02 3.702991e-02 4.525616e-02 5.139395e-02 5.695273e-02 6.002932e-02 6.250581e-02 6.252452e-02 6.224515e-02 5.992637e-02 5.783893e-02 5.430654e-02 5.158502e-02 4.805949e-02 4.577768e-02 4.340396e-02 4.210830e-02 4.127856e-02 4.094619e-02 4.140592e-02 4.146074e-02 4.246522e-02 4.230610e-02 4.314618e-02 4.226824e-02 4.197815e-02 3.980631e-02 3.740205e-02 3.400832e-02 3.118934e-02 2.749813e-02 2.478410e-02 2.092042e-02 1.820486e-02 1.417196e-02 1.141167e-02 7.317250e-03 4.585730e-03 5.749985e-04 -2.026766e-03 -5.833709e-03 -8.225959e-03 -1.174874e-02 -1.388115e-02 -1.707069e-02 -1.891521e-02 -2.174141e-02 -2.328336e-02 -2.572580e-02 -2.695763e-02 -2.900032e-02 
-3.485214e-02 -3.672850e-02 -3.723457e-02 -3.860920e-02 -3.881582e-02 -3.967395e-02 -3.958552e-02 -3.991934e-02 -3.954475e-02 -3.935528e-02 -3.870872e-02 -3.800723e-02 -3.710869e-02 -3.591762e-02 -3.479307e-02 -3.314630e-02 -3.182763e-02 -2.977048e-02 -2.829543e-02 -2.588440e-02 -2.429661e-02 -2.159917e-02 -1.994861e-02 -1.704319e-02 -1.538694e-02 -1.236322e-02 -1.076680e-02 -7.726324e-03 -6.265225e-03 -3.322040e-03 -2.083277e-03 6.356238e-04 1.552475e-03 3.907570e-03 4.390523e-03 6.231762e-03 6.158636e-03 7.329967e-03 6.573676e-03 6.921142e-03 5.359089e-03 4.743473e-03 2.271924e-03 5.865808e-04 -2.859664e-03 -5.665946e-03 -1.008930e-02 -1.398594e-02 -1.929961e-02 -2.414795e-02 -3.015198e-02 -3.568504e-02 -4.205191e-02 -4.786834e-02 -5.414652e-02 -5.972710e-02 -6.537012e-02 -7.012220e-02 -7.454527e-02 -7.787306e-02 -8.053011e-02 -8.191774e-02 -8.238134e-02 -8.146728e-02 -7.948888e-02 -7.611069e-02 -7.164625e-02 -6.584788e-02 -5.905169e-02 -5.106635e-02 -4.227451e-02 -3.251087e-02 -2.224257e-02 -1.129971e-02 -2.911160e-04 1.099755e-02 2.174913e-02 3.229163e-02 4.155023e-02 5.009423e-02 5.658466e-02 6.203377e-02 6.486106e-02 6.675235e-02 6.587016e-02 6.468393e-02 6.102105e-02 5.792319e-02 5.296384e-02 4.919208e-02 4.452098e-02 4.129018e-02 3.841238e-02 3.656085e-02 3.589452e-02 3.524961e-02 3.620620e-02 3.618652e-02 3.773026e-02 3.741999e-02 3.894881e-02 3.794560e-02 3.845246e-02 3.611207e-02 3.384531e-02 3.019838e-02 2.788769e-02 2.407445e-02 2.198319e-02 1.787511e-02 1.564269e-02 1.120069e-02 8.776182e-03 4.178959e-03 1.696266e-03 -2.846194e-03 -5.241395e-03 -9.573294e-03 -1.178052e-02 -1.580437e-02 -1.776664e-02 -2.142365e-02 -2.311197e-02 -2.636388e-02 -2.776420e-02 -3.058197e-02 -3.168724e-02 -3.404569e-02 
-3.214096e-02 -3.378412e-02 -3.436673e-02 -3.557996e-02 -3.584323e-02 -3.661284e-02 -3.655795e-02 -3.687571e-02 -3.650918e-02 -3.637427e-02 -3.570879e-02 -3.512924e-02 -3.418414e-02 -3.317763e-02 -3.197886e-02 -3.057315e-02 -2.915295e-02 -2.738586e-02 -2.578244e-02 -2.370172e-02 -2.195910e-02 -1.962247e-02 -1.779073e-02 -1.526624e-02 -1.340236e-02 -1.076916e-02 -8.938546e-03 -6.288126e-03 -4.566535e-03 -2.004234e-03 -4.799669e-04 1.873686e-03 3.097920e-03 5.106564e-03 5.912847e-03 7.425228e-03 7.681669e-03 8.535235e-03 8.100428e-03 8.128846e-03 6.860863e-03 5.906760e-03 3.677906e-03 1.611881e-03 -1.670051e-03 -4.923858e-03 -9.288135e-03 -1.372113e-02 -1.910265e-02 -2.458917e-02 -3.079804e-02 -3.706786e-02 -4.376827e-02 -5.039430e-02 -5.710351e-02 -6.351630e-02 -6.963432e-02 -7.517197e-02 -8.004679e-02 -8.403977e-02 -8.706064e-02 -8.893539e-02 -8.963153e-02 -8.900256e-02 -8.711511e-02 -8.383315e-02 -7.933645e-02 -7.347924e-02 -6.655373e-02 -5.837937e-02 -4.936953e-02 -3.927882e-02 -2.868418e-02 -1.723851e-02 -5.770052e-03 6.221190e-03 1.753982e-02 2.891895e-02 3.871368e-02 4.801199e-02 5.476448e-02 6.055536e-02 6.316010e-02 6.472467e-02 6.316739e-02 6.105307e-02 5.655337e-02 5.235287e-02 4.657012e-02 4.201535e-02 3.647659e-02 3.312148e-02 2.971175e-02 2.794769e-02 2.679950e-02 2.647075e-02 2.717567e-02 2.723595e-02 2.868015e-02 2.864724e-02 3.060775e-02 3.042444e-02 3.189010e-02 3.081948e-02 2.809282e-02 2.553896e-02 2.367865e-02 2.116622e-02 1.960402e-02 1.652462e-02 1.453483e-02 1.085901e-02 8.464254e-03 4.501418e-03 1.950068e-03 -2.012468e-03 -4.512070e-03 -8.294456e-03 -1.061694e-02 -1.412296e-02 -1.620284e-02 -1.938290e-02 -2.118766e-02 -2.401329e-02 -2.552585e-02 -2.797619e-02 -2.918591e-02 -3.124192e-02 
-3.762652e-02 -3.954050e-02 -4.002120e-02 -4.142244e-02 -4.159740e-02 -4.246310e-02 -4.233187e-02 -4.264725e-02 -4.221492e-02 -4.197563e-02 -4.125379e-02 -4.046742e-02 -3.947448e-02 -3.816139e-02 -3.692244e-02 -3.511567e-02 -3.366194e-02 -3.140669e-02 -2.977502e-02 -2.712793e-02 -2.536044e-02 -2.238900e-02 -2.053336e-02 -1.731574e-02 -1.542617e-02 -1.205182e-02 -1.019092e-02 -6.761758e-03 -5.003084e-03 -1.635344e-03 -6.641462e-05 3.107378e-03 4.382199e-03 7.211694e-03 8.069232e-03 1.038615e-02 1.068450e-02 1.230519e-02 1.188727e-02 1.261952e-02 1.132167e-02 1.097743e-02 8.644826e-03 7.060396e-03 3.570416e-03 6.349236e-04 -4.071250e-03 -8.379916e-03 -1.425951e-02 -1.983497e-02 -2.670506e-02 -3.327660e-02 -4.078452e-02 -4.789730e-02 -5.551376e-02 -6.254001e-02 -6.958932e-02 -7.578257e-02 -8.151785e-02 -8.611149e-02 -8.982690e-02 -9.215817e-02 -9.330914e-02 -9.293037e-02 -9.121955e-02 -8.795529e-02 -8.335289e-02 -7.728572e-02 -6.998874e-02 -6.139765e-02 -5.177017e-02 -4.107836e-02 -2.963306e-02 -1.742550e-02 -4.894457e-03 7.965554e-03 2.047721e-02 3.268681e-02 4.358359e-02 5.339235e-02 6.075952e-02 6.640108e-02 6.868810e-02 6.932129e-02 6.634659e-02 6.288459e-02 5.625020e-02 5.082436e-02 4.286484e-02 3.704397e-02 2.978719e-02 2.512885e-02 2.115028e-02 1.891970e-02 1.824982e-02 1.735741e-02 1.867060e-02 1.873671e-02 2.039762e-02 1.982664e-02 2.230885e-02 2.173804e-02 2.473692e-02 2.399155e-02 2.138481e-02 1.947705e-02 1.907749e-02 1.705040e-02 1.656124e-02 1.331609e-02 1.186725e-02 7.684053e-03 5.582130e-03 1.021770e-03 -1.313374e-03 -5.866117e-03 -8.166954e-03 -1.250888e-02 -1.463929e-02 -1.867181e-02 -2.056938e-02 -2.424140e-02 -2.587804e-02 -2.915566e-02 -3.051688e-02 -3.337014e-02 -3.444595e-02 -3.684468e-02 
-3.510647e-02 -3.677652e-02 -3.733877e-02 -3.857203e-02 -3.880616e-02 -3.958008e-02 -3.948139e-02 -3.978010e-02 -3.935066e-02 -3.916729e-02 -3.841697e-02 -3.775526e-02 -3.670188e-02 -3.557685e-02 -3.424579e-02 -3.268365e-02 -3.110690e-02 -2.914454e-02 -2.735971e-02 -2.504400e-02 -2.309369e-02 -2.048108e-02 -1.841285e-02 -1.556964e-02 -1.343699e-02 -1.044039e-02 -8.304858e-03 -5.245011e-03 -3.179275e-03 -1.620914e-04 1.746169e-03 4.595797e-03 6.239861e-03 8.775107e-03 1.002587e-02 1.207634e-02 1.278092e-02 1.415374e-02 1.413760e-02 1.462314e-02 1.369782e-02 1.308200e-02 1.106050e-02 9.146054e-03 5.867809e-03 2.505875e-03 -2.127673e-03 -6.995620e-03 -1.297640e-02 -1.926961e-02 -2.643457e-02 -3.388545e-02 -4.187566e-02 -4.999840e-02 -5.824276e-02 -6.633816e-02 -7.408177e-02 -8.129734e-02 -8.768858e-02 -9.314015e-02 -9.737052e-02 -1.003039e-01 -1.017641e-01 -1.017027e-01 -1.000940e-01 -9.690703e-02 -9.225612e-02 -8.611327e-02 -7.868952e-02 -6.993796e-02 -6.013615e-02 -4.919073e-02 -3.747780e-02 -2.482398e-02 -1.183474e-02 1.793344e-03 1.499726e-02 2.830645e-02 3.996718e-02 5.092458e-02 5.869898e-02 6.493736e-02 6.681272e-02 6.688721e-02 6.272673e-02 5.756346e-02 4.975630e-02 4.239021e-02 3.367301e-02 2.673044e-02 1.833728e-02 1.437247e-02 1.029067e-02 8.168926e-03 6.480953e-03 6.034881e-03 6.435868e-03 5.411650e-03 6.078690e-03 4.907547e-03 7.405966e-03 7.127658e-03 1.242700e-02 1.429566e-02 1.122233e-02 1.213044e-02 1.392917e-02 1.399213e-02 1.449193e-02 1.223009e-02 1.094158e-02 7.353387e-03 5.154509e-03 1.136905e-03 -1.334920e-03 -5.325364e-03 -7.754457e-03 -1.152741e-02 -1.377760e-02 -1.726071e-02 -1.927571e-02 -2.243914e-02 -2.419329e-02 -2.701760e-02 -2.849477e-02 -3.095938e-02 -3.214528e-02 -3.422593e-02 
-4.119984e-02 -4.317545e-02 -4.363253e-02 -4.508109e-02 -4.522332e-02 -4.611026e-02 -4.593035e-02 -4.623112e-02 -4.572910e-02 -4.543211e-02 -4.461643e-02 -4.372475e-02 -4.261231e-02 -4.114415e-02 -3.975960e-02 -3.774768e-02 -3.612214e-02 -3.361227e-02 -3.178198e-02 -2.883153e-02 -2.683687e-02 -2.351349e-02 -2.139888e-02 -1.778003e-02 -1.559505e-02 -1.176875e-02 -9.570593e-03 -5.637470e-03 -3.494863e-03 4.285861e-04 2.430453e-03 6.207693e-03 7.961712e-03 1.143190e-02 1.280404e-02 1.577877e-02 1.660489e-02 1.886760e-02 1.895404e-02 2.026426e-02 1.939444e-02 1.949952e-02 1.744954e-02 1.610672e-02 1.267244e-02 9.683651e-03 4.721171e-03 -1.866215e-05 -6.539820e-03 -1.298386e-02 -2.092038e-02 -2.880948e-02 -3.778950e-02 -4.660785e-02 -5.600310e-02 -6.497513e-02 -7.392707e-02 -8.208173e-02 -8.960231e-02 -9.591549e-02 -1.010584e-01 -1.046489e-01 -1.067041e-01 -1.070145e-01 -1.056440e-01 -1.025233e-01 -9.777103e-02 -9.141791e-02 -8.359922e-02 -7.440952e-02 -6.395878e-02 -5.238245e-02 -3.976938e-02 -2.629475e-02 -1.211810e-02 2.521656e-03 1.720502e-02 3.160114e-02 4.483526e-02 5.655578e-02 6.541771e-02 7.143135e-02 7.302779e-02 7.149994e-02 6.514321e-02 5.781137e-02 4.656548e-02 3.809671e-02 2.621850e-02 1.826005e-02 7.541151e-03 1.588688e-03 -2.578442e-03 -4.034056e-03 -4.207724e-03 -6.516026e-03 -6.041912e-03 -6.352345e-03 -6.824151e-03 -9.522294e-03 -8.314490e-03 -1.038256e-02 -4.656695e-03 -2.288655e-03 -7.001773e-04 5.113075e-03 1.084649e-02 1.158939e-02 1.303008e-02 9.947998e-03 8.771469e-03 4.248806e-03 2.111812e-03 -2.687027e-03 -5.018613e-03 -9.665452e-03 -1.190149e-02 -1.626134e-02 -1.830252e-02 -2.233445e-02 -2.414756e-02 -2.783097e-02 -2.940133e-02 -3.271229e-02 -3.402739e-02 -3.693350e-02 -3.797875e-02 -4.044075e-02 
-3.881297e-02 -4.053225e-02 -4.108117e-02 -4.235493e-02 -4.256315e-02 -4.335622e-02 -4.321090e-02 -4.349687e-02 -4.299435e-02 -4.275855e-02 -4.190542e-02 -4.114648e-02 -3.995947e-02 -3.868972e-02 -3.719447e-02 -3.543913e-02 -3.366834e-02 -3.146401e-02 -2.945540e-02 -2.684846e-02 -2.464321e-02 -2.168868e-02 -1.933090e-02 -1.609232e-02 -1.363006e-02 -1.018078e-02 -7.668738e-03 -4.094905e-03 -1.598995e-03 1.995980e-03 4.392613e-03 7.882354e-03 1.007235e-02 1.330139e-02 1.514627e-02 1.792470e-02 1.924960e-02 2.135030e-02 2.194232e-02 2.310328e-02 2.271640e-02 2.265121e-02 2.102099e-02 1.944124e-02 1.631302e-02 1.296599e-02 8.139480e-03 2.863507e-03 -3.745610e-03 -1.094999e-02 -1.923600e-02 -2.812792e-02 -3.772223e-02 -4.775555e-02 -5.798078e-02 -6.828523e-02 -7.817229e-02 -8.761967e-02 -9.602176e-02 -1.034018e-01 -1.092099e-01 -1.134931e-01 -1.158976e-01 -1.164918e-01 -1.151741e-01 -1.120378e-01 -1.071779e-01 -1.007090e-01 -9.279540e-02 -8.355789e-02 -7.311603e-02 -6.157520e-02 -4.899542e-02 -3.544200e-02 -2.107936e-02 -5.894590e-03 9.436499e-03 2.509982e-02 3.935067e-02 5.282057e-02 6.235927e-02 6.959965e-02 7.047327e-02 6.822607e-02 5.959243e-02 4.912154e-02 3.613914e-02 2.392864e-02 1.233830e-02 2.556854e-03 -9.746768e-03 -1.104686e-02 -1.204941e-02 -1.417017e-02 -1.729602e-02 -1.698499e-02 -2.116370e-02 -2.579130e-02 -2.986559e-02 -3.252781e-02 -3.569567e-02 -3.582995e-02 -3.596814e-02 -3.366771e-02 -1.334925e-02 6.816331e-04 1.098796e-02 1.246874e-02 1.369167e-02 1.030630e-02 8.479841e-03 4.036764e-03 1.497698e-03 -2.876197e-03 -5.422320e-03 -9.483257e-03 -1.185189e-02 -1.558417e-02 -1.773535e-02 -2.116003e-02 -2.308495e-02 -2.621202e-02 -2.790176e-02 -3.072261e-02 -3.216155e-02 -3.465185e-02 -3.581844e-02 -3.794325e-02 
-4.557228e-02 -4.764650e-02 -4.809005e-02 -4.961852e-02 -4.973393e-02 -5.066563e-02 -5.043628e-02 -5.073352e-02 -5.015307e-02 -4.979509e-02 -4.886857e-02 -4.785334e-02 -4.659681e-02 -4.494098e-02 -4.337986e-02 -4.111712e-02 -3.928377e-02 -3.646214e-02 -3.439316e-02 -3.107204e-02 -2.880622e-02 -2.505392e-02 -2.263140e-02 -1.852406e-02 -1.598741e-02 -1.160976e-02 -9.007144e-03 -4.455443e-03 -1.846041e-03 2.766830e-03 5.305369e-03 9.842963e-03 1.220572e-02 1.650006e-02 1.854570e-02 2.238960e-02 2.393248e-02 2.707422e-02 2.788030e-02 3.002342e-02 2.981302e-02 3.062513e-02 2.908685e-02 2.822192e-02 2.504222e-02 2.218123e-02 1.709423e-02 1.200769e-02 4.867210e-03 -2.500660e-03 -1.163041e-02 -2.106485e-02 -3.181468e-02 -4.274385e-02 -5.437216e-02 -6.583157e-02 -7.723163e-02 -8.793115e-02 -9.776173e-02 -1.062916e-01 -1.132439e-01 -1.183953e-01 -1.215242e-01 -1.226036e-01 -1.215631e-01 -1.185283e-01 -1.135609e-01 -1.068860e-01 -9.858308e-02 -8.893504e-02 -7.791194e-02 -6.583239e-02 -5.249609e-02 -3.826586e-02 -2.285759e-02 -6.738357e-03 1.013862e-02 2.704725e-02 4.336893e-02 5.795580e-02 6.943671e-02 7.642273e-02 7.750265e-02 7.234241e-02 6.044677e-02 4.577559e-02 2.672999e-02 1.435383e-02 -2.198870e-03 -1.102547e-02 -2.473449e-02 -3.201601e-02 -2.971053e-02 -2.514963e-02 -2.674686e-02 -2.965277e-02 -3.234901e-02 -3.113126e-02 -3.036145e-02 -2.364605e-02 -2.342722e-02 -1.671521e-02 -1.800240e-02 -1.554500e-02 1.215358e-02 1.634892e-02 2.229206e-02 1.723269e-02 1.571045e-02 9.232722e-03 6.417050e-03 5.076690e-04 -2.191899e-03 -7.404664e-03 -9.796574e-03 -1.448423e-02 -1.660404e-02 -2.090465e-02 -2.279861e-02 -2.678081e-02 -2.847111e-02 -3.214979e-02 -3.363623e-02 -3.699031e-02 -3.825704e-02 -4.124274e-02 -4.226443e-02 -4.482512e-02 
-4.325446e-02 -4.505948e-02 -4.561242e-02 -4.695999e-02 -4.715382e-02 -4.799144e-02 -4.780249e-02 -4.808996e-02 -4.750749e-02 -4.722043e-02 -4.624777e-02 -4.537930e-02 -4.403315e-02 -4.259364e-02 -4.090175e-02 -3.891686e-02 -3.691465e-02 -3.442233e-02 -3.214918e-02 -2.919650e-02 -2.669276e-02 -2.333348e-02 -2.063896e-02 -1.693268e-02 -1.408740e-02 -1.010096e-02 -7.148578e-03 -2.959937e-03 4.607821e-05 4.341288e-03 7.328902e-03 1.160860e-02 1.447648e-02 1.858187e-02 2.118774e-02 2.491288e-02 2.706283e-02 3.014628e-02 3.158748e-02 3.370905e-02 3.412962e-02 3.491667e-02 3.395737e-02 3.300596e-02 3.028957e-02 2.720675e-02 2.239102e-02 1.686417e-02 9.722882e-03 1.618455e-03 -7.850597e-03 -1.836545e-02 -2.981905e-02 -4.215585e-02 -5.480536e-02 -6.788430e-02 -8.047752e-02 -9.278159e-02 -1.037402e-01 -1.135620e-01 -1.213137e-01 -1.271908e-01 -1.306239e-01 -1.318082e-01 -1.306287e-01 -1.273075e-01 -1.220454e-01 -1.151110e-01 -1.067334e-01 -9.722730e-02 -8.658219e-02 -7.515157e-02 -6.255234e-02 -4.917311e-02 -3.437967e-02 -1.858276e-02 -1.522832e-03 1.641532e-02 3.395634e-02 5.108449e-02 6.381158e-02 7.352638e-02 7.355431e-02 6.830830e-02 5.171014e-02 3.151091e-02 9.050643e-03 -1.210700e-02 -2.517543e-02 -4.176169e-02 -5.448454e-02 -4.814524e-02 -4.552219e-02 -4.314554e-02 -3.056185e-02 -7.919660e-03 7.304161e-03 3.017124e-02 4.069354e-02 5.250804e-02 5.846536e-02 6.383256e-02 6.722682e-02 6.807097e-02 6.889889e-02 4.853472e-02 3.872515e-02 2.472696e-02 1.805916e-02 9.446569e-03 5.146591e-03 -7.417466e-04 -3.836880e-03 -8.412572e-03 -1.090899e-02 -1.482239e-02 -1.699543e-02 -2.053549e-02 -2.249945e-02 -2.578368e-02 -2.757400e-02 -3.063371e-02 -3.224533e-02 -3.506537e-02 -3.647160e-02 -3.901066e-02 -4.017373e-02 -4.237634e-02 
-5.074059e-02 -5.296955e-02 -5.342179e-02 -5.507945e-02 -5.518340e-02 -5.619663e-02 -5.592353e-02 -5.623759e-02 -5.557343e-02 -5.515640e-02 -5.410303e-02 -5.294772e-02 -5.152190e-02 -4.964499e-02 -4.787533e-02 -4.531417e-02 -4.323689e-02 -4.004467e-02 -3.769883e-02 -3.393941e-02 -3.136307e-02 -2.710665e-02 -2.433482e-02 -1.965568e-02 -1.672099e-02 -1.169797e-02 -8.634510e-03 -3.354871e-03 -2.054256e-04 5.227899e-03 8.401435e-03 1.385947e-02 1.696305e-02 2.227809e-02 2.517096e-02 3.012299e-02 3.260352e-02 3.690817e-02 3.870284e-02 4.200433e-02 4.276410e-02 4.463820e-02 4.394777e-02 4.392127e-02 4.132835e-02 3.892295e-02 3.399552e-02 2.880423e-02 2.122292e-02 1.302418e-02 2.711504e-03 -8.383627e-03 -2.110983e-02 -3.450304e-02 -4.879164e-02 -6.329471e-02 -7.771650e-02 -9.159599e-02 -1.042956e-01 -1.155608e-01 -1.246715e-01 -1.316072e-01 -1.358373e-01 -1.375769e-01 -1.366463e-01 -1.334177e-01 -1.279998e-01 -1.208413e-01 -1.120846e-01 -1.022207e-01 -9.115256e-02 -7.940402e-02 -6.645095e-02 -5.285684e-02 -3.765980e-02 -2.148473e-02 -3.445817e-03 1.551191e-02 3.523911e-02 5.389528e-02 6.983983e-02 7.962052e-02 8.171667e-02 7.140991e-02 5.130606e-02 2.149096e-02 -1.242613e-02 -3.125991e-02 -5.899763e-02 -7.670979e-02 -4.873700e-02 -3.315055e-02 -2.422121e-02 2.757321e-02 5.527804e-02 8.618394e-02 9.856550e-02 1.058364e-01 1.069561e-01 1.050009e-01 1.061203e-01 1.013979e-01 1.047432e-01 1.007547e-01 8.914853e-02 5.672945e-02 3.974720e-02 2.171076e-02 1.345263e-02 3.775458e-03 -4.548437e-04 -6.727014e-03 -9.382823e-03 -1.428609e-02 -1.631889e-02 -2.064011e-02 -2.240705e-02 -2.644411e-02 -2.807125e-02 -3.191847e-02 -3.343514e-02 -3.709300e-02 -3.848427e-02 -4.190541e-02 -4.313453e-02 -4.624575e-02 -4.726555e-02 -4.998057e-02 
-4.842068e-02 -5.036848e-02 -5.095725e-02 -5.242956e-02 -5.263150e-02 -5.355301e-02 -5.333057e-02 -5.364352e-02 -5.297761e-02 -5.264615e-02 -5.153741e-02 -5.054932e-02 -4.901666e-02 -4.738221e-02 -4.545885e-02 -4.320709e-02 -4.093481e-02 -3.810819e-02 -3.553107e-02 -3.217983e-02 -2.933893e-02 -2.551656e-02 -2.244683e-02 -1.820793e-02 -1.493836e-02 -1.033974e-02 -6.897311e-03 -2.002948e-03 1.579301e-03 6.689496e-03 1.036045e-02 1.557807e-02 1.925318e-02 2.442586e-02 2.796956e-02 3.288402e-02 3.609178e-02 4.045784e-02 4.304105e-02 4.648027e-02 4.805826e-02 5.010269e-02 5.020809e-02 5.031641e-02 4.842191e-02 4.602234e-02 4.159868e-02 3.616974e-02 2.878532e-02 1.998411e-02 9.452886e-03 -2.707199e-03 -1.613665e-02 -3.107976e-02 -4.653267e-02 -6.295089e-02 -7.882374e-02 -9.467010e-02 -1.087622e-01 -1.215678e-01 -1.315776e-01 -1.391673e-01 -1.434965e-01 -1.448801e-01 -1.433339e-01 -1.391795e-01 -1.329904e-01 -1.251629e-01 -1.162360e-01 -1.067122e-01 -9.658922e-02 -8.650571e-02 -7.558211e-02 -6.465038e-02 -5.179377e-02 -3.805273e-02 -2.121210e-02 -2.633448e-03 1.813935e-02 3.973139e-02 5.793124e-02 7.326816e-02 7.446789e-02 6.802621e-02 3.861299e-02 3.033387e-03 -3.795014e-02 -7.534026e-02 -9.733379e-02 -6.421964e-02 -5.446149e-02 -1.081895e-02 5.781198e-02 1.055634e-01 1.107770e-01 9.842288e-02 8.632231e-02 6.792855e-02 5.895799e-02 4.743645e-02 4.292295e-02 3.539406e-02 3.420016e-02 2.870161e-02 3.695847e-02 2.255056e-02 1.662390e-02 6.541636e-03 2.160830e-03 -3.974649e-03 -6.750153e-03 -1.100774e-02 -1.303758e-02 -1.652467e-02 -1.828101e-02 -2.148239e-02 -2.315896e-02 -2.626085e-02 -2.791252e-02 -3.096178e-02 -3.257757e-02 -3.555278e-02 -3.708966e-02 -3.993325e-02 -4.133217e-02 -4.396640e-02 -4.516105e-02 -4.749763e-02 
-5.669968e-02 -5.916619e-02 -5.966575e-02 -6.152425e-02 -6.164436e-02 -6.279300e-02 -6.248960e-02 -6.285204e-02 -6.210219e-02 -6.163339e-02 -6.043673e-02 -5.912508e-02 -5.750194e-02 -5.536733e-02 -5.335382e-02 -5.044199e-02 -4.808278e-02 -4.445724e-02 -4.179774e-02 -3.753116e-02 -3.461084e-02 -2.977781e-02 -2.662614e-02 -2.129888e-02 -1.793519e-02 -1.218346e-02 -8.621330e-03 -2.517065e-03 1.226461e-03 7.599425e-03 1.148992e-02 1.802140e-02 2.198890e-02 2.852385e-02 3.244162e-02 3.875913e-02 4.242131e-02 4.821363e-02 5.131501e-02 5.617079e-02 5.829365e-02 6.169140e-02 6.230628e-02 6.362644e-02 6.211633e-02 6.068336e-02 5.640356e-02 5.157187e-02 4.395970e-02 3.525791e-02 2.400453e-02 1.134489e-02 -3.372166e-03 -1.943743e-02 -3.670049e-02 -5.475074e-02 -7.273877e-02 -9.044434e-02 -1.065607e-01 -1.210510e-01 -1.325489e-01 -1.412983e-01 -1.463465e-01 -1.482566e-01 -1.468050e-01 -1.426693e-01 -1.362223e-01 -1.281223e-01 -1.188004e-01 -1.089326e-01 -9.853217e-02 -8.835037e-02 -7.763100e-02 -6.726334e-02 -5.531001e-02 -4.256462e-02 -2.662448e-02 -8.292928e-03 1.316339e-02 3.620811e-02 5.809738e-02 7.443063e-02 8.183542e-02 6.794199e-02 4.176165e-02 -1.615847e-02 -6.896802e-02 -8.291733e-02 -7.043750e-02 -3.757613e-02 8.569959e-03 1.218078e-01 1.419972e-01 9.475740e-02 6.134342e-02 2.849721e-02 5.241621e-03 -1.563435e-02 -2.339648e-02 -3.374188e-02 -3.678596e-02 -4.152091e-02 -4.273928e-02 -4.619188e-02 -3.444111e-02 -2.459367e-02 -1.710995e-02 -1.603712e-02 -1.443570e-02 -1.652696e-02 -1.667006e-02 -1.958300e-02 -2.026500e-02 -2.348058e-02 -2.442732e-02 -2.784636e-02 -2.897771e-02 -3.255163e-02 -3.381061e-02 -3.747248e-02 -3.879544e-02 -4.245497e-02 -4.376993e-02 -4.731842e-02 -4.854763e-02 -5.186361e-02 -5.292668e-02 -5.588189e-02 