# vtk DataFile Version 2.0
Comment goes here
ASCII

DATASET STRUCTURED_POINTS
DIMENSIONS    128   128   1

ORIGIN    0.000   0.000   0.000
SPACING   0.0156250.015625   1.000

POINT_DATA   16384
SCALARS uX double
LOOKUP_TABLE default

1.767074e-01 1.706175e-01 1.690403e-01 1.627030e-01 1.601153e-01 1.534802e-01 1.499030e-01 1.429617e-01 1.384522e-01 1.312307e-01 1.258749e-01 1.184244e-01 1.123278e-01 1.047143e-01 9.799186e-02 9.028464e-02 8.304866e-02 7.530772e-02 6.765539e-02 5.991897e-02 5.191923e-02 4.419123e-02 3.587201e-02 2.811025e-02 1.944673e-02 1.155283e-02 2.457624e-03 -5.730421e-03 -1.541389e-02 -2.412529e-02 -3.462477e-02 -4.415404e-02 -5.576410e-02 -6.646194e-02 -7.953138e-02 -9.178674e-02 -1.066962e-01 -1.209080e-01 -1.380362e-01 -1.545741e-01 -1.742535e-01 -1.934084e-01 -2.158702e-01 -2.377969e-01 -2.631109e-01 -2.877676e-01 -3.157816e-01 -3.428743e-01 -3.731625e-01 -4.021028e-01 -4.339341e-01 -4.638220e-01 -4.961573e-01 -5.257967e-01 -5.573241e-01 -5.852764e-01 -6.144840e-01 -6.391564e-01 -6.644367e-01 -6.841934e-01 -7.039628e-01 -7.172411e-01 -7.300581e-01 -7.354718e-01 -7.401369e-01 -7.365577e-01 -7.321932e-01 -7.188135e-01 -7.049301e-01 -6.813247e-01 -6.578919e-01 -6.240970e-01 -5.916263e-01 -5.482459e-01 -5.078784e-01 -4.562017e-01 -4.097681e-01 -3.518524e-01 -3.018514e-01 -2.405074e-01 -1.899557e-01 -1.285780e-01 -8.071588e-02 -2.293326e-02 1.919837e-02 7.004229e-02 1.041278e-01 1.456139e-01 1.706338e-01 2.018706e-01 2.185051e-01 2.403276e-01 2.507471e-01 2.651134e-01 2.719136e-01 2.807371e-01 2.857344e-01 2.900572e-01 2.941185e-01 2.939551e-01 2.971288e-01 2.921761e-01 2.940837e-01 2.844858e-01 2.849279e-01 2.717593e-01 2.712134e-01 2.563618e-01 2.557167e-01 2.409829e-01 2.409356e-01 2.274623e-01 2.282800e-01 2.165286e-01 2.181303e-01 2.080984e-01 2.102171e-01 2.016596e-01 2.039676e-01 1.965466e-01 1.987250e-01 1.920937e-01 1.938647e-01 1.877088e-01 1.888469e-01 1.829023e-01 1.832364e-01 1.772951e-01 
1.943178e-01 1.891664e-01 1.873005e-01 1.816430e-01 1.788054e-01 1.725793e-01 1.687941e-01 1.619840e-01 1.573106e-01 1.499411e-01 1.444667e-01 1.365935e-01 1.304242e-01 1.221233e-01 1.153735e-01 1.067298e-01 9.951018e-02 9.060373e-02 8.300883e-02 7.390177e-02 6.599673e-02 5.671948e-02 4.852742e-02 3.906595e-02 3.055616e-02 2.084089e-02 1.191918e-02 1.816607e-03 -7.681151e-03 -1.837264e-02 -2.868227e-02 -4.023092e-02 -5.165524e-02 -6.438698e-02 -7.728279e-02 -9.156309e-02 -1.063182e-01 -1.225234e-01 -1.395225e-01 -1.580002e-01 -1.775794e-01 -1.985979e-01 -2.209898e-01 -2.446806e-01 -2.699531e-01 -2.962505e-01 -3.242461e-01 -3.528316e-01 -3.831161e-01 -4.133780e-01 -4.452091e-01 -4.762275e-01 -5.085543e-01 -5.391203e-01 -5.706200e-01 -5.992941e-01 -6.284485e-01 -6.536529e-01 -6.788563e-01 -6.989883e-01 -7.186696e-01 -7.322166e-01 -7.449564e-01 -7.505905e-01 -7.552161e-01 -7.518613e-01 -7.475152e-01 -7.343925e-01 -7.205862e-01 -6.972603e-01 -6.739338e-01 -6.403877e-01 -6.079916e-01 -5.647434e-01 -5.243378e-01 -4.725841e-01 -4.259178e-01 -3.676522e-01 -3.171610e-01 -2.551925e-01 -2.038619e-01 -1.416633e-01 -9.274218e-02 -3.409120e-02 9.313156e-03 6.090012e-02 9.631229e-02 1.383040e-01 1.644337e-01 1.959761e-01 2.132045e-01 2.353215e-01 2.457004e-01 2.605446e-01 2.668713e-01 2.764666e-01 2.809017e-01 2.863166e-01 2.898759e-01 2.911327e-01 2.938629e-01 2.906173e-01 2.920853e-01 2.843895e-01 2.843556e-01 2.732018e-01 2.721725e-01 2.594473e-01 2.583538e-01 2.458375e-01 2.453778e-01 2.341591e-01 2.345804e-01 2.250627e-01 2.262675e-01 2.184023e-01 2.201178e-01 2.136254e-01 2.155261e-01 2.100409e-01 2.118145e-01 2.069650e-01 2.083412e-01 2.037894e-01 2.045500e-01 2.000087e-01 1.999895e-01 1.952289e-01 
1.772990e-01 1.713065e-01 1.697838e-01 1.635129e-01 1.609521e-01 1.543557e-01 1.507808e-01 1.438542e-01 1.393257e-01 1.320991e-01 1.267070e-01 1.192366e-01 1.130917e-01 1.054491e-01 9.867224e-02 9.093317e-02 8.364354e-02 7.587519e-02 6.817756e-02 6.042582e-02 5.239723e-02 4.467391e-02 3.635062e-02 2.862146e-02 1.998683e-02 1.216093e-02 3.135113e-03 -4.943014e-03 -1.451033e-02 -2.306502e-02 -3.339738e-02 -4.272069e-02 -5.411140e-02 -6.455490e-02 -7.735539e-02 -8.931307e-02 -1.039112e-01 -1.177919e-01 -1.345791e-01 -1.507674e-01 -1.700937e-01 -1.889001e-01 -2.110189e-01 -2.326210e-01 -2.576264e-01 -2.820066e-01 -3.097702e-01 -3.366559e-01 -3.667714e-01 -3.955897e-01 -4.273370e-01 -4.571935e-01 -4.895336e-01 -5.192264e-01 -5.508352e-01 -5.789096e-01 -6.082545e-01 -6.330960e-01 -6.585454e-01 -6.784980e-01 -6.984489e-01 -7.119384e-01 -7.249398e-01 -7.305804e-01 -7.354339e-01 -7.321063e-01 -7.279405e-01 -7.148456e-01 -7.011744e-01 -6.778830e-01 -6.546674e-01 -6.211911e-01 -5.889203e-01 -5.458182e-01 -5.056063e-01 -4.541150e-01 -4.077767e-01 -3.499161e-01 -2.999599e-01 -2.385399e-01 -1.880232e-01 -1.264865e-01 -7.871668e-02 -2.079251e-02 2.109455e-02 7.191205e-02 1.054738e-01 1.465973e-01 1.707029e-01 2.011704e-01 2.165592e-01 2.373851e-01 2.465736e-01 2.600777e-01 2.660455e-01 2.743775e-01 2.789165e-01 2.831670e-01 2.871257e-01 2.870646e-01 2.904476e-01 2.855581e-01 2.878436e-01 2.781494e-01 2.789453e-01 2.655524e-01 2.653582e-01 2.504320e-01 2.502441e-01 2.356931e-01 2.361905e-01 2.230826e-01 2.244515e-01 2.131346e-01 2.152317e-01 2.056249e-01 2.081582e-01 1.999792e-01 2.026210e-01 1.955212e-01 1.979634e-01 1.915974e-01 1.935746e-01 1.876338e-01 1.889309e-01 1.831573e-01 1.836108e-01 1.778016e-01 
1.957105e-01 1.907691e-01 1.890077e-01 1.834941e-01 1.807068e-01 1.745645e-01 1.707812e-01 1.640014e-01 1.592883e-01 1.519037e-01 1.463562e-01 1.384325e-01 1.321668e-01 1.237918e-01 1.169343e-01 1.082064e-01 1.008816e-01 9.189600e-02 8.421349e-02 7.504870e-02 6.708984e-02 5.779314e-02 4.959759e-02 4.017175e-02 3.172505e-02 2.211628e-02 1.333914e-02 3.427620e-03 -5.831821e-03 -1.623754e-02 -2.620702e-02 -3.737017e-02 -4.835039e-02 -6.059875e-02 -7.295221e-02 -8.666168e-02 -1.007913e-01 -1.163585e-01 -1.326745e-01 -1.504771e-01 -1.693515e-01 -1.896974e-01 -2.114069e-01 -2.344735e-01 -2.591347e-01 -2.849031e-01 -3.124056e-01 -3.405988e-01 -3.705464e-01 -4.005804e-01 -4.322514e-01 -4.632138e-01 -4.955544e-01 -5.262203e-01 -5.578806e-01 -5.867741e-01 -6.161909e-01 -6.416886e-01 -6.672062e-01 -6.876676e-01 -7.076771e-01 -7.215749e-01 -7.346436e-01 -7.406653e-01 -7.456339e-01 -7.427394e-01 -7.387770e-01 -7.262195e-01 -7.128547e-01 -6.901971e-01 -6.673553e-01 -6.345228e-01 -6.026021e-01 -5.599997e-01 -5.199898e-01 -4.686771e-01 -4.222779e-01 -3.641429e-01 -3.137991e-01 -2.516323e-01 -2.004022e-01 -1.377808e-01 -8.902683e-02 -2.997077e-02 1.305399e-02 6.465560e-02 9.925631e-02 1.404667e-01 1.650670e-01 1.949041e-01 2.097994e-01 2.297788e-01 2.375433e-01 2.505901e-01 2.549278e-01 2.635134e-01 2.668648e-01 2.720929e-01 2.754069e-01 2.768639e-01 2.800287e-01 2.769723e-01 2.792282e-01 2.714352e-01 2.721187e-01 2.605699e-01 2.602615e-01 2.474591e-01 2.473191e-01 2.352466e-01 2.359097e-01 2.254817e-01 2.270193e-01 2.184094e-01 2.206030e-01 2.136134e-01 2.161481e-01 2.104328e-01 2.129891e-01 2.081653e-01 2.104549e-01 2.061556e-01 2.079340e-01 2.038324e-01 2.049025e-01 2.007229e-01 2.009355e-01 1.964571e-01 
1.791421e-01 1.734341e-01 1.720696e-01 1.659913e-01 1.635068e-01 1.570208e-01 1.534483e-01 1.465603e-01 1.419700e-01 1.347225e-01 1.292165e-01 1.216800e-01 1.153839e-01 1.076471e-01 1.006998e-01 9.285774e-02 8.539894e-02 7.754019e-02 6.969745e-02 6.189093e-02 5.376570e-02 4.604713e-02 3.770086e-02 3.005991e-02 2.150082e-02 1.386941e-02 5.040755e-03 -2.716552e-03 -1.194562e-02 -2.003781e-02 -2.987737e-02 -3.858830e-02 -4.932688e-02 -5.900979e-02 -7.100562e-02 -8.206869e-02 -9.573065e-02 -1.086115e-01 -1.243679e-01 -1.394956e-01 -1.577495e-01 -1.754936e-01 -1.965649e-01 -2.171729e-01 -2.412306e-01 -2.647582e-01 -2.917477e-01 -3.179895e-01 -3.475652e-01 -3.759965e-01 -4.074736e-01 -4.372180e-01 -4.695572e-01 -4.993944e-01 -5.312338e-01 -5.596570e-01 -5.893963e-01 -6.147203e-01 -6.406506e-01 -6.611539e-01 -6.816101e-01 -6.956821e-01 -7.091849e-01 -7.154447e-01 -7.208050e-01 -7.181699e-01 -7.145458e-01 -7.022555e-01 -6.891805e-01 -6.668072e-01 -6.442239e-01 -6.117130e-01 -5.800467e-01 -5.378209e-01 -4.981014e-01 -4.472311e-01 -4.012217e-01 -3.436028e-01 -2.938447e-01 -2.322764e-01 -1.819522e-01 -1.200132e-01 -7.261935e-02 -1.432233e-02 2.675756e-02 7.748403e-02 1.094460e-01 1.494756e-01 1.707824e-01 1.988533e-01 2.103243e-01 2.280066e-01 2.333219e-01 2.441555e-01 2.477266e-01 2.545286e-01 2.576274e-01 2.617585e-01 2.652745e-01 2.655440e-01 2.695328e-01 2.648316e-01 2.684027e-01 2.584424e-01 2.604382e-01 2.463198e-01 2.473205e-01 2.322766e-01 2.336401e-01 2.198095e-01 2.220704e-01 2.101790e-01 2.132495e-01 2.032841e-01 2.068592e-01 1.985287e-01 2.022740e-01 1.952116e-01 1.988201e-01 1.926601e-01 1.958644e-01 1.902728e-01 1.928466e-01 1.875338e-01 1.892923e-01 1.840185e-01 1.848197e-01 1.793967e-01 
1.986243e-01 1.940901e-01 1.925270e-01 1.872910e-01 1.845958e-01 1.786119e-01 1.748245e-01 1.680963e-01 1.632955e-01 1.558711e-01 1.501682e-01 1.421325e-01 1.356634e-01 1.271277e-01 1.200425e-01 1.111322e-01 1.035829e-01 9.442371e-02 8.655025e-02 7.725326e-02 6.916949e-02 5.981607e-02 5.159519e-02 4.222217e-02 3.388276e-02 2.446869e-02 1.596215e-02 6.415608e-03 -2.384122e-03 -1.223289e-02 -2.153576e-02 -3.193827e-02 -4.203883e-02 -5.332477e-02 -6.459491e-02 -7.715919e-02 -9.003027e-02 -1.043084e-01 -1.192404e-01 -1.356702e-01 -1.531065e-01 -1.720752e-01 -1.923823e-01 -2.141607e-01 -2.375555e-01 -2.622225e-01 -2.886936e-01 -3.160594e-01 -3.452914e-01 -3.748322e-01 -4.061481e-01 -4.369681e-01 -4.693089e-01 -5.001479e-01 -5.321048e-01 -5.614053e-01 -5.913144e-01 -6.173489e-01 -6.434421e-01 -6.644823e-01 -6.850655e-01 -6.995516e-01 -7.131666e-01 -7.198274e-01 -7.253550e-01 -7.232469e-01 -7.199340e-01 -7.084072e-01 -6.958424e-01 -6.744858e-01 -6.525826e-01 -6.212205e-01 -5.902730e-01 -5.490766e-01 -5.099199e-01 -4.596470e-01 -4.138719e-01 -3.561651e-01 -3.062445e-01 -2.438302e-01 -1.929928e-01 -1.296341e-01 -8.145709e-02 -2.162983e-02 2.044341e-02 7.210234e-02 1.050668e-01 1.446726e-01 1.663002e-01 1.924262e-01 2.024925e-01 2.178810e-01 2.199555e-01 2.292842e-01 2.295140e-01 2.360186e-01 2.370761e-01 2.420414e-01 2.446317e-01 2.464795e-01 2.504759e-01 2.478026e-01 2.519512e-01 2.440881e-01 2.464831e-01 2.340360e-01 2.354797e-01 2.227758e-01 2.249321e-01 2.141089e-01 2.172722e-01 2.086573e-01 2.125055e-01 2.057926e-01 2.099324e-01 2.046870e-01 2.087881e-01 2.045851e-01 2.083786e-01 2.048300e-01 2.080909e-01 2.048507e-01 2.073886e-01 2.041556e-01 2.058131e-01 2.023331e-01 2.029878e-01 1.990567e-01 
1.824144e-01 1.771590e-01 1.760411e-01 1.702669e-01 1.678960e-01 1.615791e-01 1.579982e-01 1.511603e-01 1.464539e-01 1.391564e-01 1.334457e-01 1.257826e-01 1.192176e-01 1.113052e-01 1.040540e-01 9.601947e-02 8.825607e-02 8.022349e-02 7.211345e-02 6.419015e-02 5.587584e-02 4.813769e-02 3.972306e-02 3.220025e-02 2.373588e-02 1.639937e-02 7.868436e-03 6.178450e-04 -8.076036e-03 -1.542189e-02 -2.446365e-02 -3.217217e-02 -4.183916e-02 -5.026313e-02 -6.092141e-02 -7.048931e-02 -8.257947e-02 -9.377412e-02 -1.077836e-01 -1.211064e-01 -1.375258e-01 -1.534450e-01 -1.727071e-01 -1.915896e-01 -2.139927e-01 -2.360226e-01 -2.616423e-01 -2.867337e-01 -3.153349e-01 -3.430515e-01 -3.740152e-01 -4.035155e-01 -4.358038e-01 -4.658336e-01 -4.980139e-01 -5.269675e-01 -5.573109e-01 -5.833651e-01 -6.100140e-01 -6.313188e-01 -6.524898e-01 -6.673667e-01 -6.815345e-01 -6.886234e-01 -6.946335e-01 -6.929459e-01 -6.900388e-01 -6.789241e-01 -6.667023e-01 -6.457793e-01 -6.241813e-01 -5.933118e-01 -5.626612e-01 -5.220370e-01 -4.832086e-01 -4.335891e-01 -3.882494e-01 -3.312839e-01 -2.820453e-01 -2.204942e-01 -1.707830e-01 -1.084404e-01 -6.204738e-02 -3.347816e-03 3.607298e-02 8.656771e-02 1.157536e-01 1.539505e-01 1.704697e-01 1.942712e-01 1.986095e-01 2.105919e-01 2.087485e-01 2.149787e-01 2.153300e-01 2.192352e-01 2.195243e-01 2.238815e-01 2.259054e-01 2.266450e-01 2.313861e-01 2.268272e-01 2.331272e-01 2.229010e-01 2.274850e-01 2.119980e-01 2.156198e-01 2.009374e-01 2.055817e-01 1.936027e-01 1.991948e-01 1.896965e-01 1.956853e-01 1.880783e-01 1.940330e-01 1.877991e-01 1.934301e-01 1.881501e-01 1.932426e-01 1.885669e-01 1.929403e-01 1.885702e-01 1.920646e-01 1.877452e-01 1.902218e-01 1.857414e-01 1.870873e-01 1.822793e-01 
2.032889e-01 1.993370e-01 1.980472e-01 1.932051e-01 1.906285e-01 1.848622e-01 1.810509e-01 1.743799e-01 1.694286e-01 1.619225e-01 1.559648e-01 1.477362e-01 1.409369e-01 1.321315e-01 1.246758e-01 1.154594e-01 1.075402e-01 9.808390e-02 8.988676e-02 8.035124e-02 7.203912e-02 6.255745e-02 5.425456e-02 4.491574e-02 3.669163e-02 2.752439e-02 1.937858e-02 1.033659e-02 2.184755e-03 -6.865858e-03 -1.520301e-02 -2.449202e-02 -3.329508e-02 -4.315029e-02 -5.280004e-02 -6.364013e-02 -7.460568e-02 -8.692056e-02 -9.973310e-02 -1.140483e-01 -1.292572e-01 -1.460801e-01 -1.641890e-01 -1.839354e-01 -2.053193e-01 -2.282238e-01 -2.530311e-01 -2.790474e-01 -3.070973e-01 -3.358039e-01 -3.664982e-01 -3.970305e-01 -4.293052e-01 -4.603437e-01 -4.926895e-01 -5.225311e-01 -5.531058e-01 -5.798309e-01 -6.066622e-01 -6.283756e-01 -6.496146e-01 -6.646954e-01 -6.788447e-01 -6.861104e-01 -6.921466e-01 -6.908644e-01 -6.882154e-01 -6.779675e-01 -6.663831e-01 -6.468773e-01 -6.262996e-01 -5.972508e-01 -5.678159e-01 -5.290235e-01 -4.912879e-01 -4.429786e-01 -3.983283e-01 -3.416828e-01 -2.926693e-01 -2.302582e-01 -1.804829e-01 -1.163142e-01 -6.972756e-02 -8.894687e-03 3.103535e-02 8.282350e-02 1.131790e-01 1.502714e-01 1.679006e-01 1.875288e-01 1.902699e-01 1.982311e-01 1.904412e-01 1.941958e-01 1.882049e-01 1.912922e-01 1.885171e-01 1.933676e-01 1.937747e-01 1.958301e-01 2.006019e-01 1.981406e-01 2.060397e-01 1.986698e-01 2.046140e-01 1.905782e-01 1.958647e-01 1.844012e-01 1.911670e-01 1.832347e-01 1.906747e-01 1.852485e-01 1.925940e-01 1.888097e-01 1.956846e-01 1.929670e-01 1.991904e-01 1.971214e-01 2.025721e-01 2.008099e-01 2.053760e-01 2.036229e-01 2.071918e-01 2.051857e-01 2.076501e-01 2.051650e-01 2.064329e-01 2.032838e-01 
1.873759e-01 1.827134e-01 1.819099e-01 1.765290e-01 1.742923e-01 1.681840e-01 1.645680e-01 1.577725e-01 1.528787e-01 1.454819e-01 1.394560e-01 1.315829e-01 1.246076e-01 1.164126e-01 1.086964e-01 1.003507e-01 9.211522e-02 8.379241e-02 7.525652e-02 6.711775e-02 5.848150e-02 5.065932e-02 4.208707e-02 3.466951e-02 2.627282e-02 1.928748e-02 1.110822e-02 4.506999e-03 -3.498870e-03 -9.853700e-03 -1.783036e-02 -2.417727e-02 -3.237958e-02 -3.906375e-02 -4.786111e-02 -5.533211e-02 -6.520199e-02 -7.399930e-02 -8.550600e-02 -9.622802e-02 -1.099822e-01 -1.232349e-01 -1.398302e-01 -1.561528e-01 -1.760780e-01 -1.958467e-01 -2.193764e-01 -2.426905e-01 -2.697643e-01 -2.963304e-01 -3.264397e-01 -3.554775e-01 -3.875928e-01 -4.177977e-01 -4.503730e-01 -4.799737e-01 -5.110633e-01 -5.379973e-01 -5.654872e-01 -5.876767e-01 -6.095821e-01 -6.252321e-01 -6.399633e-01 -6.477696e-01 -6.542640e-01 -6.534434e-01 -6.511315e-01 -6.412869e-01 -6.299485e-01 -6.108638e-01 -5.904884e-01 -5.619733e-01 -5.327487e-01 -4.946647e-01 -4.572035e-01 -4.097891e-01 -3.655811e-01 -3.100377e-01 -2.618482e-01 -2.008498e-01 -1.525977e-01 -9.028546e-02 -4.624157e-02 1.238789e-02 4.849979e-02 9.827260e-02 1.231658e-01 1.587146e-01 1.684884e-01 1.857097e-01 1.789137e-01 1.824284e-01 1.685488e-01 1.688133e-01 1.686219e-01 1.668952e-01 1.611684e-01 1.673528e-01 1.645539e-01 1.649624e-01 1.695396e-01 1.638376e-01 1.753463e-01 1.654684e-01 1.757171e-01 1.584018e-01 1.679987e-01 1.559303e-01 1.668504e-01 1.589058e-01 1.696810e-01 1.640351e-01 1.739708e-01 1.696643e-01 1.786005e-01 1.751208e-01 1.830416e-01 1.800479e-01 1.869353e-01 1.841554e-01 1.899579e-01 1.871551e-01 1.917939e-01 1.887592e-01 1.921434e-01 1.886974e-01 1.907411e-01 1.867388e-01 
2.099955e-01 2.067741e-01 2.058100e-01 2.014567e-01 1.990075e-01 1.934984e-01 1.896258e-01 1.829972e-01 1.778134e-01 1.701603e-01 1.638260e-01 1.552961e-01 1.480127e-01 1.387964e-01 1.307953e-01 1.211118e-01 1.126399e-01 1.027212e-01 9.402503e-02 8.409807e-02 7.540656e-02 6.567438e-02 5.718098e-02 4.780389e-02 3.964825e-02 3.072481e-02 2.297426e-02 1.452254e-02 7.153771e-03 -9.061712e-04 -8.024259e-03 -1.588547e-02 -2.300580e-02 -3.098446e-02 -3.848959e-02 -4.702658e-02 -5.542606e-02 -6.507532e-02 -7.498732e-02 -8.638606e-02 -9.849780e-02 -1.123134e-01 -1.273152e-01 -1.441649e-01 -1.626553e-01 -1.829984e-01 -2.053610e-01 -2.293676e-01 -2.556298e-01 -2.830417e-01 -3.127364e-01 -3.427483e-01 -3.748148e-01 -4.060205e-01 -4.387959e-01 -4.692536e-01 -5.006027e-01 -5.280587e-01 -5.556595e-01 -5.779152e-01 -5.996483e-01 -6.149659e-01 -6.292740e-01 -6.366398e-01 -6.426979e-01 -6.417956e-01 -6.394082e-01 -6.303086e-01 -6.195898e-01 -6.023254e-01 -5.833541e-01 -5.575881e-01 -5.302771e-01 -4.952744e-01 -4.596779e-01 -4.147785e-01 -3.718754e-01 -3.174325e-01 -2.699498e-01 -2.082190e-01 -1.606294e-01 -9.595104e-02 -5.311143e-02 8.648847e-03 4.353687e-02 9.545817e-02 1.212675e-01 1.546950e-01 1.684763e-01 1.763509e-01 1.707166e-01 1.696100e-01 1.462116e-01 1.437413e-01 1.290813e-01 1.275024e-01 1.185047e-01 1.231113e-01 1.172826e-01 1.173578e-01 1.212779e-01 1.165213e-01 1.307567e-01 1.255638e-01 1.398832e-01 1.247008e-01 1.395529e-01 1.334419e-01 1.485813e-01 1.462164e-01 1.596185e-01 1.587623e-01 1.702867e-01 1.701980e-01 1.801194e-01 1.804439e-01 1.889875e-01 1.894596e-01 1.967384e-01 1.971150e-01 2.031517e-01 2.032001e-01 2.079596e-01 2.074593e-01 2.108768e-01 2.096270e-01 2.116316e-01 2.094613e-01 
1.943177e-01 1.903572e-01 1.899144e-01 1.849917e-01 1.828924e-01 1.770102e-01 1.733149e-01 1.665320e-01 1.613591e-01 1.537890e-01 1.473126e-01 1.391180e-01 1.315608e-01 1.229430e-01 1.145647e-01 1.057508e-01 9.683342e-02 8.806031e-02 7.889127e-02 7.038907e-02 6.124301e-02 5.321761e-02 4.433773e-02 3.695293e-02 2.853163e-02 2.189083e-02 1.404963e-02 8.176893e-03 9.456978e-04 -4.233399e-03 -1.093710e-02 -1.561381e-02 -2.200410e-02 -2.650158e-02 -3.293846e-02 -3.771998e-02 -4.471428e-02 -5.037930e-02 -5.858214e-02 -6.584403e-02 -7.601369e-02 -8.565245e-02 -9.859156e-02 -1.113753e-01 -1.278326e-01 -1.444040e-01 -1.649385e-01 -1.856676e-01 -2.104825e-01 -2.352986e-01 -2.640659e-01 -2.922981e-01 -3.240181e-01 -3.542978e-01 -3.872584e-01 -4.175550e-01 -4.494619e-01 -4.773129e-01 -5.056236e-01 -5.285559e-01 -5.509495e-01 -5.669689e-01 -5.817700e-01 -5.896925e-01 -5.960428e-01 -5.954874e-01 -5.932021e-01 -5.842792e-01 -5.735113e-01 -5.564009e-01 -5.373105e-01 -5.118927e-01 -4.844974e-01 -4.502076e-01 -4.146598e-01 -3.708809e-01 -3.283079e-01 -2.754176e-01 -2.288780e-01 -1.693630e-01 -1.238446e-01 -6.251327e-02 -2.337686e-02 3.374794e-02 6.294629e-02 1.103057e-01 1.279861e-01 1.593119e-01 1.605746e-01 1.671406e-01 1.445378e-01 1.391713e-01 1.065141e-01 1.034114e-01 1.132661e-01 1.040913e-01 7.903488e-02 8.976789e-02 7.715796e-02 7.015892e-02 7.241684e-02 5.905041e-02 7.770260e-02 6.655249e-02 9.303186e-02 8.044851e-02 1.053995e-01 1.023740e-01 1.232172e-01 1.219024e-01 1.387511e-01 1.378980e-01 1.518587e-01 1.512762e-01 1.631336e-01 1.626893e-01 1.728755e-01 1.724119e-01 1.811301e-01 1.804771e-01 1.877914e-01 1.867759e-01 1.926680e-01 1.911218e-01 1.955297e-01 1.932978e-01 1.961453e-01 1.930968e-01 
2.190387e-01 2.166695e-01 2.160646e-01 2.122743e-01 2.099450e-01 2.047134e-01 2.007250e-01 1.941023e-01 1.885834e-01 1.806916e-01 1.738327e-01 1.648607e-01 1.569070e-01 1.470995e-01 1.383385e-01 1.279811e-01 1.187271e-01 1.081277e-01 9.870322e-02 8.817225e-02 7.888912e-02 6.871819e-02 5.985774e-02 5.029852e-02 4.209084e-02 3.333305e-02 2.593530e-02 1.808388e-02 1.155706e-02 4.608707e-03 -1.106637e-03 -7.286696e-03 -1.239421e-02 -1.809266e-02 -2.296004e-02 -2.862904e-02 -3.379872e-02 -4.005662e-02 -4.624023e-02 -5.385215e-02 -6.190028e-02 -7.173025e-02 -8.256875e-02 -9.549541e-02 -1.100199e-01 -1.268097e-01 -1.457344e-01 -1.668711e-01 -1.905349e-01 -2.160172e-01 -2.441700e-01 -2.733086e-01 -3.049245e-01 -3.362051e-01 -3.694052e-01 -4.005155e-01 -4.327010e-01 -4.608214e-01 -4.890821e-01 -5.114640e-01 -5.332077e-01 -5.478799e-01 -5.614464e-01 -5.676932e-01 -5.726333e-01 -5.709120e-01 -5.677541e-01 -5.590686e-01 -5.486620e-01 -5.337520e-01 -5.165370e-01 -4.951953e-01 -4.707766e-01 -4.415499e-01 -4.090380e-01 -3.697986e-01 -3.292634e-01 -2.788721e-01 -2.332868e-01 -1.733890e-01 -1.291669e-01 -6.461217e-02 -2.921775e-02 3.299296e-02 5.594001e-02 1.078275e-01 1.226609e-01 1.507139e-01 1.623312e-01 1.418401e-01 1.314664e-01 1.292174e-01 9.920403e-02 9.504418e-02 2.938918e-02 6.256042e-02 3.555073e-02 1.695152e-02 1.740371e-02 -6.782728e-03 1.664906e-04 -1.791937e-02 -2.819567e-04 -1.808689e-02 2.856809e-02 3.815942e-02 7.577187e-02 8.292841e-02 1.081279e-01 1.126272e-01 1.312491e-01 1.350060e-01 1.499138e-01 1.534890e-01 1.659462e-01 1.693652e-01 1.799573e-01 1.830937e-01 1.920890e-01 1.947717e-01 2.022685e-01 2.043084e-01 2.103066e-01 2.115072e-01 2.159534e-01 2.161234e-01 2.189438e-01 2.179117e-01 
2.034968e-01 2.003192e-01 2.002687e-01 1.958468e-01 1.938753e-01 1.882161e-01 1.843828e-01 1.775604e-01 1.719973e-01 1.641541e-01 1.570657e-01 1.484066e-01 1.400622e-01 1.308441e-01 1.215646e-01 1.120814e-01 1.022222e-01 9.278713e-02 8.271902e-02 7.364609e-02 6.373496e-02 5.531971e-02 4.590607e-02 3.840624e-02 2.978391e-02 2.339892e-02 1.579217e-02 1.064087e-02 4.179062e-03 2.749238e-04 -5.035525e-03 -7.811100e-03 -1.211629e-02 -1.404053e-02 -1.766704e-02 -1.919804e-02 -2.267379e-02 -2.446194e-02 -2.852206e-02 -3.140235e-02 -3.697009e-02 -4.192511e-02 -5.005629e-02 -5.813905e-02 -6.991794e-02 -8.212400e-02 -9.850066e-02 -1.155827e-01 -1.371494e-01 -1.593787e-01 -1.861031e-01 -2.130083e-01 -2.439763e-01 -2.741318e-01 -3.074072e-01 -3.383978e-01 -3.711410e-01 -3.998467e-01 -4.288023e-01 -4.520628e-01 -4.743451e-01 -4.898160e-01 -5.036445e-01 -5.103815e-01 -5.153142e-01 -5.136769e-01 -5.102407e-01 -5.012424e-01 -4.902715e-01 -4.748616e-01 -4.568965e-01 -4.353151e-01 -4.101749e-01 -3.813972e-01 -3.483900e-01 -3.104004e-01 -2.698140e-01 -2.214082e-01 -1.767338e-01 -1.198590e-01 -7.827582e-02 -1.891160e-02 1.150202e-02 6.473782e-02 7.965546e-02 1.201507e-01 1.225065e-01 1.440864e-01 1.334864e-01 1.161268e-01 6.462242e-02 4.766584e-02 4.919396e-02 8.569068e-02 1.876503e-02 -9.409546e-03 1.104907e-02 -2.872008e-02 -1.744476e-02 -2.889778e-02 -2.105676e-02 -2.432914e-02 -2.095686e-02 -2.833266e-02 6.841829e-03 2.429327e-02 5.986145e-02 6.615076e-02 9.161354e-02 9.488450e-02 1.146193e-01 1.173939e-01 1.336800e-01 1.363112e-01 1.501933e-01 1.525958e-01 1.645821e-01 1.666167e-01 1.769453e-01 1.784706e-01 1.872216e-01 1.880910e-01 1.952467e-01 1.953082e-01 2.007945e-01 1.998987e-01 2.036189e-01 2.016326e-01 
2.306462e-01 2.292332e-01 2.290108e-01 2.258442e-01 2.236182e-01 2.186697e-01 2.144991e-01 2.078267e-01 2.018520e-01 1.936041e-01 1.860467e-01 1.764576e-01 1.676126e-01 1.569908e-01 1.472121e-01 1.359219e-01 1.256036e-01 1.140444e-01 1.036000e-01 9.218245e-02 8.202340e-02 7.114639e-02 6.166011e-02 5.168713e-02 4.321496e-02 3.444949e-02 2.726233e-02 1.992141e-02 1.419191e-02 8.376625e-03 4.147202e-03 -1.897237e-04 -3.042090e-03 -6.129529e-03 -7.928495e-03 -1.020634e-02 -1.150517e-02 -1.364272e-02 -1.523801e-02 -1.813146e-02 -2.105008e-02 -2.578734e-02 -3.123296e-02 -3.901259e-02 -4.825691e-02 -6.024730e-02 -7.445197e-02 -9.157923e-02 -1.115405e-01 -1.342036e-01 -1.600311e-01 -1.877712e-01 -2.185550e-01 -2.497612e-01 -2.833508e-01 -3.151684e-01 -3.482554e-01 -3.769235e-01 -4.056153e-01 -4.273819e-01 -4.482512e-01 -4.606636e-01 -4.718572e-01 -4.747107e-01 -4.764499e-01 -4.715980e-01 -4.657318e-01 -4.558275e-01 -4.445705e-01 -4.316713e-01 -4.162504e-01 -4.006905e-01 -3.803242e-01 -3.597952e-01 -3.317985e-01 -3.017488e-01 -2.640495e-01 -2.206161e-01 -1.761532e-01 -1.197823e-01 -7.862944e-02 -1.469220e-02 9.284151e-03 7.197869e-02 6.958653e-02 1.229478e-01 1.044243e-01 1.274873e-01 1.332368e-01 2.530413e-02 -5.878751e-03 -4.262242e-02 -6.029748e-02 -1.344274e-01 -7.155732e-02 -2.660397e-02 -4.082326e-02 1.218248e-02 1.171506e-02 3.715938e-02 4.066419e-02 5.011993e-02 5.288072e-02 6.094194e-02 5.820478e-02 5.332196e-02 7.005165e-02 7.039942e-02 9.028124e-02 9.481043e-02 1.130054e-01 1.190979e-01 1.349881e-01 1.414025e-01 1.552249e-01 1.614211e-01 1.734501e-01 1.791513e-01 1.895500e-01 1.945558e-01 2.033748e-01 2.074927e-01 2.146971e-01 2.177242e-01 2.232254e-01 2.249547e-01 2.286412e-01 2.288790e-01 
2.150626e-01 2.127301e-01 2.131015e-01 2.092087e-01 2.073527e-01 2.018992e-01 1.978614e-01 1.909302e-01 1.848509e-01 1.766114e-01 1.687257e-01 1.594289e-01 1.500585e-01 1.400243e-01 1.295609e-01 1.191608e-01 1.080459e-01 9.768178e-02 8.638402e-02 7.646756e-02 6.545987e-02 5.639153e-02 4.612932e-02 3.827802e-02 2.917678e-02 2.285836e-02 1.526925e-02 1.072180e-02 4.902610e-03 2.256652e-03 -1.663330e-03 -2.420473e-03 -4.481776e-03 -3.545995e-03 -4.003564e-03 -1.793999e-03 -1.159053e-03 1.649430e-03 2.579860e-03 5.042397e-03 5.181174e-03 6.100243e-03 4.107285e-03 2.097827e-03 -3.521660e-03 -9.900240e-03 -2.061401e-02 -3.263824e-02 -4.960142e-02 -6.806195e-02 -9.172554e-02 -1.165167e-01 -1.461811e-01 -1.758854e-01 -2.093513e-01 -2.410207e-01 -2.746137e-01 -3.040622e-01 -3.333307e-01 -3.561860e-01 -3.772783e-01 -3.905656e-01 -4.016053e-01 -4.048733e-01 -4.062588e-01 -4.012112e-01 -3.947097e-01 -3.837876e-01 -3.713028e-01 -3.566828e-01 -3.394530e-01 -3.223275e-01 -3.000145e-01 -2.791411e-01 -2.495117e-01 -2.206717e-01 -1.820138e-01 -1.409717e-01 -9.719344e-02 -4.430195e-02 -6.557132e-03 5.140666e-02 6.990100e-02 1.188090e-01 1.090967e-01 1.381963e-01 1.051695e-01 9.437062e-02 3.789408e-02 1.239242e-02 2.855210e-02 4.404437e-03 -4.389433e-02 9.224097e-02 9.606899e-02 1.071352e-01 1.118820e-01 9.687292e-02 1.123623e-01 9.042521e-02 1.106687e-01 8.096370e-02 1.135632e-01 7.944770e-02 9.754604e-02 5.884915e-02 7.252201e-02 6.304409e-02 8.105173e-02 8.236538e-02 1.003067e-01 1.047774e-01 1.212271e-01 1.263286e-01 1.410917e-01 1.459807e-01 1.591302e-01 1.634817e-01 1.750774e-01 1.787109e-01 1.887385e-01 1.914981e-01 1.998724e-01 2.015955e-01 2.081826e-01 2.087007e-01 2.133464e-01 2.125021e-01 
2.449040e-01 2.445478e-01 2.447369e-01 2.422533e-01 2.401176e-01 2.354535e-01 2.310318e-01 2.242426e-01 2.176800e-01 2.089372e-01 2.004860e-01 1.900728e-01 1.800834e-01 1.683805e-01 1.572829e-01 1.447468e-01 1.330280e-01 1.201644e-01 1.083429e-01 9.567979e-02 8.428187e-02 7.234318e-02 6.187947e-02 5.115994e-02 4.210291e-02 3.304232e-02 2.580102e-02 1.875543e-02 1.364457e-02 8.851707e-03 6.052487e-03 3.589863e-03 3.102215e-03 2.839172e-03 4.428039e-03 5.976432e-03 9.119048e-03 1.179116e-02 1.563621e-02 1.842214e-02 2.177551e-02 2.335536e-02 2.471069e-02 2.351986e-02 2.115632e-02 1.552643e-02 7.700736e-03 -3.896190e-03 -1.863383e-02 -3.721056e-02 -5.955986e-02 -8.510462e-02 -1.144544e-01 -1.453632e-01 -1.792857e-01 -2.119792e-01 -2.461227e-01 -2.753084e-01 -3.041460e-01 -3.242222e-01 -3.428366e-01 -3.503373e-01 -3.565095e-01 -3.521289e-01 -3.472414e-01 -3.353780e-01 -3.236221e-01 -3.096422e-01 -2.955782e-01 -2.836253e-01 -2.700122e-01 -2.617842e-01 -2.475422e-01 -2.400621e-01 -2.192262e-01 -2.039923e-01 -1.695348e-01 -1.377569e-01 -9.132218e-02 -4.157438e-02 1.111915e-03 6.424543e-02 7.858583e-02 1.446868e-01 1.036220e-01 1.762953e-01 7.275583e-02 1.278527e-01 -3.648769e-02 3.165623e-02 -1.051963e-01 -6.098956e-02 4.216939e-02 1.587107e-01 1.435019e-01 4.634463e-02 1.132947e-01 4.013596e-02 8.288831e-02 1.896364e-02 6.783309e-02 4.352260e-03 6.147539e-02 -1.369216e-02 6.023822e-02 3.368199e-02 6.048758e-02 5.829869e-02 7.749849e-02 8.359091e-02 1.007697e-01 1.093509e-01 1.250621e-01 1.340887e-01 1.483696e-01 1.570976e-01 1.699675e-01 1.780724e-01 1.895213e-01 1.967881e-01 2.067493e-01 2.129670e-01 2.213151e-01 2.262502e-01 2.328166e-01 2.362197e-01 2.408183e-01 2.424460e-01 
2.289800e-01 2.275505e-01 2.283894e-01 2.250528e-01 2.233121e-01 2.180444e-01 2.137403e-01 2.066227e-01 1.998953e-01 1.911207e-01 1.822350e-01 1.721027e-01 1.614379e-01 1.503381e-01 1.383670e-01 1.267587e-01 1.140215e-01 1.024073e-01 8.948403e-02 7.838535e-02 6.587013e-02 5.580523e-02 4.428348e-02 3.574710e-02 2.577395e-02 1.921681e-02 1.129342e-02 7.097326e-03 1.640623e-03 8.547502e-05 -2.612737e-03 -1.392948e-03 -1.219181e-03 2.708862e-03 5.626010e-03 1.193358e-02 1.715543e-02 2.519238e-02 3.190901e-02 4.065904e-02 4.765032e-02 5.571720e-02 6.135602e-02 6.700071e-02 6.932483e-02 7.058083e-02 6.747042e-02 6.237604e-02 5.188684e-02 3.888408e-02 1.978472e-02 -1.678479e-03 -2.917175e-02 -5.788713e-02 -9.135482e-02 -1.237215e-01 -1.582480e-01 -1.883791e-01 -2.174708e-01 -2.388059e-01 -2.568997e-01 -2.652890e-01 -2.705634e-01 -2.666741e-01 -2.613016e-01 -2.494003e-01 -2.372354e-01 -2.216766e-01 -2.059067e-01 -1.902134e-01 -1.731494e-01 -1.605757e-01 -1.420731e-01 -1.323155e-01 -1.075170e-01 -9.319719e-02 -5.568826e-02 -2.717422e-02 1.881751e-02 6.432859e-02 1.000308e-01 1.598017e-01 1.674635e-01 2.198749e-01 1.836936e-01 2.333075e-01 2.061252e-01 1.597923e-01 5.905323e-03 5.077872e-02 -6.218851e-02 2.273541e-01 2.287591e-01 -4.046047e-02 -5.262426e-03 7.658665e-03 1.305150e-02 -3.687066e-02 3.568975e-03 -5.611659e-02 -1.104391e-02 -6.141313e-02 -2.098757e-02 -5.873022e-02 -4.594000e-03 7.346075e-03 3.551469e-02 4.389602e-02 6.359024e-02 7.160044e-02 8.890640e-02 9.693402e-02 1.130076e-01 1.207329e-01 1.356934e-01 1.428651e-01 1.566642e-01 1.631237e-01 1.756660e-01 1.812752e-01 1.924162e-01 1.970152e-01 2.065592e-01 2.099569e-01 2.176700e-01 2.196553e-01 2.252895e-01 2.256548e-01 