# vtk DataFile Version 2.0
Comment goes here
ASCII

DATASET STRUCTURED_POINTS
DIMENSIONS    128   128   1

ORIGIN    0.000   0.000   0.000
SPACING   0.0156250.015625   1.000

POINT_DATA   16384
SCALARS uX double
LOOKUP_TABLE default

-8.035610e-04 -8.794767e-04 -9.164173e-04 -9.791424e-04 -1.012452e-03 -1.061702e-03 -1.091585e-03 -1.127223e-03 -1.153844e-03 -1.175915e-03 -1.199422e-03 -1.208176e-03 -1.228725e-03 -1.224631e-03 -1.242398e-03 -1.226144e-03 -1.241342e-03 -1.213826e-03 -1.226715e-03 -1.189027e-03 -1.199930e-03 -1.153332e-03 -1.162636e-03 -1.108536e-03 -1.116711e-03 -1.056636e-03 -1.064235e-03 -9.998048e-04 -1.007471e-03 -9.403711e-04 -9.488319e-04 -8.807822e-04 -8.908402e-04 -8.235551e-04 -8.360610e-04 -7.712021e-04 -7.870111e-04 -7.261225e-04 -7.460289e-04 -6.904544e-04 -7.151013e-04 -6.658814e-04 -6.956445e-04 -6.533956e-04 -6.882483e-04 -6.530335e-04 -6.924016e-04 -6.636086e-04 -7.062365e-04 -6.824889e-04 -7.263435e-04 -7.054755e-04 -7.477220e-04 -7.268503e-04 -7.639329e-04 -7.396481e-04 -7.674965e-04 -7.361773e-04 -7.505380e-04 -7.087563e-04 -7.056149e-04 -6.505697e-04 -6.266050e-04 -5.564997e-04 -5.094945e-04 -4.237864e-04 -3.529390e-04 -2.524290e-04 -1.585404e-04 -4.533108e-05 6.911708e-05 1.917227e-04 3.225704e-04 4.501563e-04 5.916459e-04 7.187441e-04 8.637445e-04 9.839790e-04 1.124503e-03 1.231040e-03 1.359230e-03 1.445758e-03 1.555405e-03 1.617633e-03 1.705931e-03 1.743138e-03 1.811995e-03 1.827716e-03 1.883629e-03 1.884601e-03 1.936451e-03 1.929693e-03 1.984770e-03 1.973955e-03 2.033783e-03 2.016972e-03 2.075108e-03 2.044928e-03 2.088008e-03 2.034705e-03 2.047815e-03 1.963265e-03 1.934808e-03 1.816108e-03 1.745476e-03 1.598907e-03 1.502748e-03 1.340253e-03 1.235883e-03 1.067617e-03 9.657382e-04 7.984468e-04 7.039662e-04 5.418126e-04 4.562672e-04 3.017783e-04 2.250781e-04 7.978875e-05 1.117280e-05 -1.239541e-04 -1.854410e-04 -3.097388e-04 -3.650212e-04 -4.779507e-04 -5.278265e-04 -6.288903e-04 -6.740023e-04 -7.627186e-04 
-5.489754e-04 -6.093981e-04 -6.525928e-04 -7.045932e-04 -7.429865e-04 -7.865204e-04 -8.202284e-04 -8.552943e-04 -8.844181e-04 -9.110832e-04 -9.357337e-04 -9.541543e-04 -9.744721e-04 -9.849086e-04 -1.001079e-03 -1.003904e-03 -1.016170e-03 -1.011872e-03 -1.020544e-03 -1.009725e-03 -1.015186e-03 -9.985604e-04 -1.001279e-03 -9.796666e-04 -9.801961e-04 -9.545190e-04 -9.535068e-04 -9.247796e-04 -9.229668e-04 -8.922870e-04 -8.905046e-04 -8.590360e-04 -8.581922e-04 -8.271392e-04 -8.281933e-04 -7.987606e-04 -8.026796e-04 -7.760138e-04 -7.837072e-04 -7.608164e-04 -7.730451e-04 -7.546952e-04 -7.719560e-04 -7.585467e-04 -7.809345e-04 -7.723642e-04 -7.994252e-04 -7.949628e-04 -8.255577e-04 -8.237475e-04 -8.559543e-04 -8.545890e-04 -8.856818e-04 -8.818793e-04 -9.084184e-04 -8.988274e-04 -9.168840e-04 -8.980221e-04 -9.035330e-04 -8.722166e-04 -8.614270e-04 -8.152143e-04 -7.851286e-04 -7.226716e-04 -6.714203e-04 -5.926344e-04 -5.196928e-04 -4.257214e-04 -3.319771e-04 -2.250153e-04 -1.127519e-04 4.137440e-06 1.312526e-04 2.542091e-04 3.910998e-04 5.154018e-04 6.556144e-04 7.756346e-04 9.116525e-04 1.021138e-03 1.145252e-03 1.238226e-03 1.344069e-03 1.416373e-03 1.500848e-03 1.551815e-03 1.616601e-03 1.649855e-03 1.701421e-03 1.723737e-03 1.771076e-03 1.789108e-03 1.839473e-03 1.855795e-03 1.910213e-03 1.921477e-03 1.972867e-03 1.971553e-03 2.007188e-03 1.984364e-03 1.989818e-03 1.937568e-03 1.900120e-03 1.814829e-03 1.732473e-03 1.620250e-03 1.511866e-03 1.385177e-03 1.269239e-03 1.137981e-03 1.025143e-03 8.953878e-04 7.902355e-04 6.654321e-04 5.693077e-04 4.513376e-04 3.641226e-04 2.539299e-04 1.749452e-04 7.293109e-05 1.360335e-06 -9.235436e-05 -1.572726e-04 -2.426787e-04 -3.015743e-04 -3.786792e-04 -4.320327e-04 -5.008194e-04 
-8.119133e-04 -8.880254e-04 -9.248295e-04 -9.876982e-04 -1.020905e-03 -1.070225e-03 -1.100025e-03 -1.135642e-03 -1.162187e-03 -1.184133e-03 -1.207563e-03 -1.216083e-03 -1.236543e-03 -1.232106e-03 -1.249766e-03 -1.233064e-03 -1.248131e-03 -1.220069e-03 -1.232799e-03 -1.194480e-03 -1.205187e-03 -1.157886e-03 -1.166956e-03 -1.112092e-03 -1.119991e-03 -1.059104e-03 -1.066383e-03 -1.001109e-03 -1.008412e-03 -9.404510e-04 -9.485120e-04 -8.796030e-04 -8.892373e-04 -8.211193e-04 -8.331994e-04 -7.675661e-04 -7.829800e-04 -7.214170e-04 -7.410044e-04 -6.849071e-04 -7.093686e-04 -6.598378e-04 -6.896172e-04 -6.473342e-04 -6.824772e-04 -6.475659e-04 -6.875654e-04 -6.594582e-04 -7.031066e-04 -6.804395e-04 -7.257157e-04 -7.062871e-04 -7.503161e-04 -7.311466e-04 -7.702692e-04 -7.477926e-04 -7.777729e-04 -7.481649e-04 -7.645376e-04 -7.241535e-04 -7.226774e-04 -6.685271e-04 -6.456749e-04 -5.758374e-04 -5.292362e-04 -4.431239e-04 -3.718778e-04 -2.703129e-04 -1.751837e-04 -6.031966e-05 5.620972e-05 1.810261e-04 3.147554e-04 4.450771e-04 5.901364e-04 7.204236e-04 8.694229e-04 9.930742e-04 1.137532e-03 1.247223e-03 1.378526e-03 1.467197e-03 1.578250e-03 1.640837e-03 1.728184e-03 1.763619e-03 1.829228e-03 1.841572e-03 1.893039e-03 1.890484e-03 1.938671e-03 1.930043e-03 1.984324e-03 1.974431e-03 2.037431e-03 2.024248e-03 2.089012e-03 2.063651e-03 2.114135e-03 2.064836e-03 2.083700e-03 2.000570e-03 1.972423e-03 1.850632e-03 1.771772e-03 1.619342e-03 1.514631e-03 1.347138e-03 1.237470e-03 1.065860e-03 9.615430e-04 7.921757e-04 6.969306e-04 5.335130e-04 4.480141e-04 2.927563e-04 2.164376e-04 7.066530e-05 2.528029e-06 -1.329338e-04 -1.939574e-04 -3.185264e-04 -3.734087e-04 -4.865885e-04 -5.361416e-04 -6.374478e-04 -6.823117e-04 -7.712560e-04 
-5.623016e-04 -6.227839e-04 -6.658176e-04 -7.178635e-04 -7.561398e-04 -7.996766e-04 -8.332825e-04 -8.682825e-04 -8.972947e-04 -9.238042e-04 -9.483137e-04 -9.664748e-04 -9.866064e-04 -9.966710e-04 -1.012598e-03 -1.014936e-03 -1.026892e-03 -1.021992e-03 -1.030278e-03 -1.018745e-03 -1.023741e-03 -1.006294e-03 -1.008458e-03 -9.859240e-04 -9.858071e-04 -9.591144e-04 -9.573621e-04 -9.275361e-04 -9.248934e-04 -8.930481e-04 -8.903590e-04 -8.576842e-04 -8.558827e-04 -8.236229e-04 -8.237119e-04 -7.931302e-04 -7.961420e-04 -7.684655e-04 -7.754003e-04 -7.517409e-04 -7.634758e-04 -7.447235e-04 -7.618923e-04 -7.485818e-04 -7.714267e-04 -7.635849e-04 -7.917888e-04 -7.887795e-04 -8.213002e-04 -8.216947e-04 -8.566315e-04 -8.581462e-04 -8.926831e-04 -8.922292e-04 -9.227017e-04 -9.165908e-04 -9.387151e-04 -9.230342e-04 -9.323045e-04 -9.034267e-04 -8.956370e-04 -8.507693e-04 -8.225566e-04 -7.601807e-04 -7.094571e-04 -6.295243e-04 -5.556968e-04 -4.595266e-04 -3.634991e-04 -2.534716e-04 -1.375397e-04 -1.678761e-05 1.154061e-04 2.430861e-04 3.864343e-04 5.163643e-04 6.640984e-04 7.903710e-04 9.341043e-04 1.049566e-03 1.180050e-03 1.277182e-03 1.386129e-03 1.459095e-03 1.541892e-03 1.589227e-03 1.647539e-03 1.673999e-03 1.716544e-03 1.732155e-03 1.772170e-03 1.787526e-03 1.836740e-03 1.856252e-03 1.917573e-03 1.936158e-03 2.000068e-03 2.007479e-03 2.057343e-03 2.042237e-03 2.060238e-03 2.011481e-03 1.976050e-03 1.884842e-03 1.783965e-03 1.659695e-03 1.533220e-03 1.396920e-03 1.270514e-03 1.133290e-03 1.015920e-03 8.827365e-04 7.762529e-04 6.495705e-04 5.535667e-04 4.346514e-04 3.481167e-04 2.375214e-04 1.593540e-04 5.721756e-05 -1.359064e-05 -1.073161e-04 -1.716034e-04 -2.570038e-04 -3.154175e-04 -3.925409e-04 -4.455487e-04 -5.143827e-04 
-8.369510e-04 -9.136709e-04 -9.500824e-04 -1.013400e-03 -1.046314e-03 -1.095858e-03 -1.125422e-03 -1.160985e-03 -1.187315e-03 -1.208893e-03 -1.232099e-03 -1.239917e-03 -1.260119e-03 -1.254646e-03 -1.271993e-03 -1.253936e-03 -1.268616e-03 -1.238908e-03 -1.251161e-03 -1.210938e-03 -1.221065e-03 -1.171639e-03 -1.180011e-03 -1.122841e-03 -1.129912e-03 -1.066580e-03 -1.072895e-03 -1.005076e-03 -1.011281e-03 -9.407209e-04 -9.475669e-04 -8.760594e-04 -8.843976e-04 -8.137532e-04 -8.245193e-04 -7.565259e-04 -7.707052e-04 -7.070722e-04 -7.256401e-04 -6.679190e-04 -6.917515e-04 -6.412286e-04 -6.709787e-04 -6.285376e-04 -6.644778e-04 -6.304377e-04 -6.722763e-04 -6.462188e-04 -6.929089e-04 -6.735238e-04 -7.230967e-04 -7.080867e-04 -7.575573e-04 -7.436564e-04 -7.890549e-04 -7.722108e-04 -8.087882e-04 -7.845362e-04 -8.071621e-04 -7.711656e-04 -7.748822e-04 -7.235479e-04 -7.041811e-04 -6.351988e-04 -5.898975e-04 -5.025589e-04 -4.301524e-04 -3.253791e-04 -2.265262e-04 -1.066608e-04 1.615000e-05 1.476242e-04 2.901049e-04 4.287023e-04 5.847214e-04 7.247987e-04 8.862788e-04 1.020671e-03 1.177675e-03 1.297582e-03 1.439091e-03 1.534970e-03 1.650885e-03 1.714895e-03 1.799319e-03 1.828908e-03 1.883645e-03 1.884372e-03 1.920447e-03 1.905406e-03 1.940357e-03 1.924780e-03 1.975284e-03 1.967901e-03 2.040515e-03 2.039273e-03 2.126095e-03 2.116698e-03 2.191322e-03 2.155332e-03 2.194793e-03 2.117523e-03 2.093382e-03 1.961077e-03 1.850250e-03 1.677675e-03 1.544650e-03 1.362040e-03 1.237287e-03 1.056259e-03 9.459283e-04 7.708426e-04 6.741843e-04 5.073026e-04 4.224194e-04 2.650683e-04 1.901302e-04 4.304989e-05 -2.354093e-05 -1.599201e-04 -2.195080e-04 -3.448443e-04 -3.985143e-04 -5.124290e-04 -5.610197e-04 -6.630565e-04 -7.071896e-04 -7.968321e-04 
-5.888648e-04 -6.494913e-04 -6.922362e-04 -7.444005e-04 -7.824727e-04 -8.260398e-04 -8.594670e-04 -8.943549e-04 -9.231643e-04 -9.493765e-04 -9.736200e-04 -9.912695e-04 -1.011042e-03 -1.020365e-03 -1.035816e-03 -1.037177e-03 -1.048522e-03 -1.042413e-03 -1.049937e-03 -1.036971e-03 -1.041040e-03 -1.021946e-03 -1.023006e-03 -9.986212e-04 -9.972123e-04 -9.684786e-04 -9.652410e-04 -9.332022e-04 -9.288858e-04 -8.946849e-04 -8.901552e-04 -8.550299e-04 -8.512680e-04 -8.165382e-04 -8.146294e-04 -7.816716e-04 -7.827763e-04 -7.529773e-04 -7.582763e-04 -7.329584e-04 -7.435653e-04 -7.238760e-04 -7.407106e-04 -7.274723e-04 -7.510910e-04 -7.446141e-04 -7.750031e-04 -7.748754e-04 -8.112226e-04 -8.161057e-04 -8.565887e-04 -8.640718e-04 -9.057173e-04 -9.123004e-04 -9.509903e-04 -9.522725e-04 -9.829702e-04 -9.740974e-04 -9.913331e-04 -9.676866e-04 -9.662601e-04 -9.242555e-04 -9.000037e-04 -8.377577e-04 -7.881545e-04 -7.057553e-04 -6.301382e-04 -5.293892e-04 -4.287829e-04 -3.125570e-04 -1.893137e-04 -6.090231e-05 8.147732e-05 2.185587e-04 3.751331e-04 5.165982e-04 6.802405e-04 8.199192e-04 9.806164e-04 1.109572e-03 1.254715e-03 1.361841e-03 1.478499e-03 1.553583e-03 1.633021e-03 1.671932e-03 1.714973e-03 1.724469e-03 1.744520e-03 1.742459e-03 1.762873e-03 1.770388e-03 1.814552e-03 1.841089e-03 1.917324e-03 1.951739e-03 2.042925e-03 2.068508e-03 2.148565e-03 2.150488e-03 2.200863e-03 2.163086e-03 2.141554e-03 2.036948e-03 1.881373e-03 1.728087e-03 1.561251e-03 1.406611e-03 1.262221e-03 1.114856e-03 9.914904e-04 8.525909e-04 7.452519e-04 6.154496e-04 5.205855e-04 4.001749e-04 3.154234e-04 2.042866e-04 1.279448e-04 2.573382e-05 -4.347353e-05 -1.371237e-04 -2.001329e-04 -2.854794e-04 -3.429437e-04 -4.200980e-04 -4.724428e-04 -5.413866e-04 
-8.786187e-04 -9.564264e-04 -9.922354e-04 -1.056372e-03 -1.088845e-03 -1.138822e-03 -1.168034e-03 -1.203548e-03 -1.229555e-03 -1.250537e-03 -1.273398e-03 -1.280046e-03 -1.299841e-03 -1.292625e-03 -1.309469e-03 -1.289125e-03 -1.303179e-03 -1.270689e-03 -1.282166e-03 -1.238726e-03 -1.247901e-03 -1.194890e-03 -1.202110e-03 -1.141055e-03 -1.146753e-03 -1.079299e-03 -1.084005e-03 -1.011893e-03 -1.016250e-03 -9.412974e-04 -9.460771e-04 -8.701607e-04 -8.762670e-04 -8.013081e-04 -8.097750e-04 -7.377123e-04 -7.496815e-04 -6.824271e-04 -6.990993e-04 -6.384683e-04 -6.610187e-04 -6.086198e-04 -6.380681e-04 -5.951500e-04 -6.321791e-04 -5.994283e-04 -6.441530e-04 -6.214556e-04 -6.731560e-04 -6.593502e-04 -7.162048e-04 -7.088793e-04 -7.677616e-04 -7.631815e-04 -8.196049e-04 -8.128582e-04 -8.611628e-04 -8.466032e-04 -8.804403e-04 -8.524250e-04 -8.655080e-04 -8.193000e-04 -8.062699e-04 -7.388512e-04 -6.960202e-04 -6.065339e-04 -5.323081e-04 -4.219837e-04 -3.169187e-04 -1.885687e-04 -5.518850e-05 8.742910e-05 2.447929e-04 3.973092e-04 5.723655e-04 7.293980e-04 9.132957e-04 1.067228e-03 1.247798e-03 1.387465e-03 1.549276e-03 1.660199e-03 1.786864e-03 1.854826e-03 1.934472e-03 1.952545e-03 1.985170e-03 1.960802e-03 1.963312e-03 1.919575e-03 1.923198e-03 1.889992e-03 1.927562e-03 1.921369e-03 2.007266e-03 2.027184e-03 2.156862e-03 2.176237e-03 2.292528e-03 2.279175e-03 2.362422e-03 2.300523e-03 2.302610e-03 2.150954e-03 1.955434e-03 1.744806e-03 1.562648e-03 1.359700e-03 1.217470e-03 1.024659e-03 9.100218e-04 7.273742e-04 6.313677e-04 4.597566e-04 3.773396e-04 2.171616e-04 1.452042e-04 -3.614061e-06 -6.731406e-05 -2.049523e-04 -2.620193e-04 -3.885019e-04 -4.401210e-04 -5.552266e-04 -6.022334e-04 -7.055170e-04 -7.484759e-04 -8.393451e-04 
-6.284785e-04 -6.893944e-04 -7.317899e-04 -7.842073e-04 -8.220476e-04 -8.657274e-04 -8.989487e-04 -9.337206e-04 -9.622757e-04 -9.880773e-04 -1.011960e-03 -1.028862e-03 -1.048124e-03 -1.056342e-03 -1.071101e-03 -1.070994e-03 -1.081441e-03 -1.073510e-03 -1.079909e-03 -1.064782e-03 -1.067476e-03 -1.045897e-03 -1.045314e-03 -1.018136e-03 -1.014795e-03 -9.829765e-04 -9.775039e-04 -9.421092e-04 -9.352535e-04 -8.974596e-04 -8.901079e-04 -8.512124e-04 -8.444046e-04 -8.058283e-04 -8.007616e-04 -7.640407e-04 -7.620576e-04 -7.288137e-04 -7.313632e-04 -7.032393e-04 -7.117986e-04 -6.903497e-04 -7.062938e-04 -6.928171e-04 -7.172238e-04 -7.125239e-04 -7.459099e-04 -7.500025e-04 -7.919985e-04 -8.037809e-04 -8.527832e-04 -8.697351e-04 -9.226072e-04 -9.406282e-04 -9.925721e-04 -1.006101e-03 -1.050842e-03 -1.053396e-03 -1.083797e-03 -1.068967e-03 -1.078066e-03 -1.040808e-03 -1.023043e-03 -9.608393e-04 -9.130192e-04 -8.263501e-04 -7.479184e-04 -6.397179e-04 -5.321804e-04 -4.064649e-04 -2.724098e-04 -1.328233e-04 2.468383e-05 1.754527e-04 3.523802e-04 5.115509e-04 7.011142e-04 8.631352e-04 1.053406e-03 1.206961e-03 1.379688e-03 1.507012e-03 1.640091e-03 1.721358e-03 1.796468e-03 1.819896e-03 1.833692e-03 1.807383e-03 1.780010e-03 1.736780e-03 1.710840e-03 1.696408e-03 1.720842e-03 1.756939e-03 1.853879e-03 1.906658e-03 2.035184e-03 2.077881e-03 2.191699e-03 2.212011e-03 2.322151e-03 2.309553e-03 2.359540e-03 2.240996e-03 1.944752e-03 1.750825e-03 1.535469e-03 1.369601e-03 1.217463e-03 1.063301e-03 9.410800e-04 7.967574e-04 6.924805e-04 5.593974e-04 4.680804e-04 3.463065e-04 2.650450e-04 1.537158e-04 8.047522e-05 -2.144523e-05 -8.811541e-05 -1.814331e-04 -2.425109e-04 -3.276920e-04 -3.837817e-04 -4.609852e-04 -5.124142e-04 -5.815743e-04 
-9.368124e-04 -1.016317e-03 -1.051396e-03 -1.116841e-03 -1.148797e-03 -1.199509e-03 -1.228314e-03 -1.263846e-03 -1.289471e-03 -1.309662e-03 -1.332097e-03 -1.337106e-03 -1.356378e-03 -1.346683e-03 -1.362865e-03 -1.339252e-03 -1.352466e-03 -1.315996e-03 -1.326421e-03 -1.278386e-03 -1.286261e-03 -1.228139e-03 -1.233776e-03 -1.167190e-03 -1.170984e-03 -1.097669e-03 -1.100120e-03 -1.021900e-03 -1.023638e-03 -9.424151e-04 -9.442241e-04 -8.619777e-04 -8.648181e-04 -7.836063e-04 -7.886324e-04 -7.105879e-04 -7.191463e-04 -6.464555e-04 -6.600570e-04 -5.949071e-04 -6.151559e-04 -5.596326e-04 -5.880961e-04 -5.440142e-04 -5.820173e-04 -5.506698e-04 -5.990007e-04 -5.808253e-04 -6.393574e-04 -6.335419e-04 -7.008048e-04 -7.048989e-04 -7.776793e-04 -7.873320e-04 -8.604402e-04 -8.694370e-04 -9.358177e-04 -9.365936e-04 -9.879283e-04 -9.726311e-04 -1.000440e-03 -9.623758e-04 -9.593702e-04 -8.943719e-04 -8.556053e-04 -7.627417e-04 -6.861410e-04 -5.674530e-04 -4.536520e-04 -3.130595e-04 -1.647782e-04 -6.648329e-06 1.718894e-04 3.437072e-04 5.466519e-04 7.282561e-04 9.467401e-04 1.131377e-03 1.350944e-03 1.524846e-03 1.723336e-03 1.863489e-03 2.012704e-03 2.091368e-03 2.165844e-03 2.164170e-03 2.156347e-03 2.081422e-03 2.015474e-03 1.907866e-03 1.839978e-03 1.762407e-03 1.758185e-03 1.733395e-03 1.808553e-03 1.838793e-03 2.025109e-03 2.063552e-03 2.203165e-03 2.191686e-03 2.328186e-03 2.286372e-03 2.409496e-03 2.256519e-03 1.878161e-03 1.660452e-03 1.464200e-03 1.272896e-03 1.143712e-03 9.481753e-04 8.424156e-04 6.531428e-04 5.635424e-04 3.870636e-04 3.103296e-04 1.474250e-04 8.065804e-05 -6.971622e-05 -1.289004e-04 -2.677730e-04 -3.211340e-04 -4.489844e-04 -4.977170e-04 -6.144585e-04 -6.593169e-04 -7.644401e-04 -8.058619e-04 -8.986047e-04 
-6.808452e-04 -7.423046e-04 -7.843971e-04 -8.373069e-04 -8.749792e-04 -9.189420e-04 -9.520045e-04 -9.867227e-04 -1.015029e-03 -1.040350e-03 -1.063821e-03 -1.079760e-03 -1.098394e-03 -1.105145e-03 -1.119023e-03 -1.116949e-03 -1.126233e-03 -1.115852e-03 -1.120782e-03 -1.102749e-03 -1.103641e-03 -1.078725e-03 -1.075977e-03 -1.045049e-03 -1.039150e-03 -1.003182e-03 -9.947264e-04 -9.547985e-04 -9.445162e-04 -9.018319e-04 -8.906185e-04 -8.465316e-04 -8.354808e-04 -7.915218e-04 -7.819546e-04 -7.398493e-04 -7.333294e-04 -6.949974e-04 -6.933201e-04 -6.608356e-04 -6.659723e-04 -6.414665e-04 -6.554421e-04 -6.409224e-04 -6.656006e-04 -6.626620e-04 -6.994143e-04 -7.088297e-04 -7.580784e-04 -7.792805e-04 -8.399386e-04 -8.704593e-04 -9.393563e-04 -9.743760e-04 -1.045849e-03 -1.078109e-03 -1.144029e-03 -1.164419e-03 -1.214948e-03 -1.213977e-03 -1.239165e-03 -1.209172e-03 -1.201084e-03 -1.138441e-03 -1.092960e-03 -9.990880e-04 -9.163359e-04 -7.966674e-04 -6.796107e-04 -5.407613e-04 -3.928287e-04 -2.393787e-04 -6.271243e-05 1.045245e-04 3.085896e-04 4.910174e-04 7.184303e-04 9.141089e-04 1.152199e-03 1.348108e-03 1.570495e-03 1.737758e-03 1.905369e-03 2.004112e-03 2.077202e-03 2.075035e-03 2.035904e-03 1.935364e-03 1.809869e-03 1.668790e-03 1.532796e-03 1.453876e-03 1.405930e-03 1.438871e-03 1.530781e-03 1.536192e-03 1.637935e-03 1.609024e-03 1.658826e-03 1.628211e-03 1.762943e-03 1.757192e-03 2.066331e-03 2.025415e-03 1.504273e-03 1.413216e-03 1.296422e-03 1.199001e-03 1.103717e-03 9.599518e-04 8.579682e-04 7.098834e-04 6.148615e-04 4.788660e-04 3.941468e-04 2.719198e-04 1.961963e-04 8.571425e-05 1.702617e-05 -8.379749e-05 -1.469525e-04 -2.394717e-04 -2.980135e-04 -3.828703e-04 -4.372580e-04 -5.145766e-04 -5.649537e-04 -6.345309e-04 
-1.011374e-03 -1.093396e-03 -1.127737e-03 -1.195167e-03 -1.226634e-03 -1.278527e-03 -1.306955e-03 -1.342665e-03 -1.367917e-03 -1.387160e-03 -1.409143e-03 -1.412031e-03 -1.430709e-03 -1.417748e-03 -1.433145e-03 -1.405203e-03 -1.417399e-03 -1.375658e-03 -1.384792e-03 -1.330682e-03 -1.336948e-03 -1.272092e-03 -1.275748e-03 -1.201897e-03 -1.203286e-03 -1.122286e-03 -1.121854e-03 -1.035622e-03 -1.033959e-03 -9.444856e-04 -9.423630e-04 -8.517286e-04 -8.501490e-04 -7.605516e-04 -7.607901e-04 -6.745775e-04 -6.782144e-04 -5.979000e-04 -6.068266e-04 -5.350721e-04 -5.514517e-04 -4.909892e-04 -5.171431e-04 -4.706043e-04 -5.087932e-04 -4.784116e-04 -5.304752e-04 -5.176337e-04 -5.844679e-04 -5.890930e-04 -6.699778e-04 -6.898425e-04 -7.817104e-04 -8.118106e-04 -9.086590e-04 -9.409643e-04 -1.033739e-03 -1.057703e-03 -1.135015e-03 -1.139130e-03 -1.188952e-03 -1.163200e-03 -1.175166e-03 -1.113519e-03 -1.080890e-03 -9.826082e-04 -9.029987e-04 -7.720272e-04 -6.467701e-04 -4.895679e-04 -3.221616e-04 -1.446702e-04 6.089091e-05 2.559117e-04 4.956122e-04 7.085419e-04 9.760674e-04 1.205173e-03 1.485886e-03 1.717006e-03 1.980281e-03 2.177165e-03 2.373804e-03 2.480680e-03 2.554777e-03 2.521071e-03 2.439880e-03 2.260748e-03 2.052671e-03 1.796826e-03 1.564427e-03 1.380636e-03 1.260312e-03 1.117107e-03 1.011097e-03 8.896116e-04 1.025890e-03 9.253825e-04 8.690133e-04 6.996339e-04 6.981428e-04 5.820429e-04 8.831670e-04 9.392330e-04 7.586544e-04 9.951293e-04 1.111492e-03 1.046859e-03 1.013973e-03 8.252630e-04 7.453863e-04 5.472789e-04 4.691140e-04 2.876233e-04 2.196853e-04 5.516458e-05 -4.008159e-06 -1.549046e-04 -2.078120e-04 -3.474391e-04 -3.958995e-04 -5.252043e-04 -5.702961e-04 -6.891830e-04 -7.314555e-04 -8.391799e-04 -8.788425e-04 -9.743168e-04 
-7.455513e-04 -8.079860e-04 -8.499742e-04 -9.037739e-04 -9.414677e-04 -9.860110e-04 -1.019061e-03 -1.053878e-03 -1.082016e-03 -1.106840e-03 -1.129901e-03 -1.144684e-03 -1.162609e-03 -1.167529e-03 -1.180364e-03 -1.175804e-03 -1.183684e-03 -1.170201e-03 -1.173345e-03 -1.151637e-03 -1.150330e-03 -1.121204e-03 -1.115805e-03 -1.080154e-03 -1.071100e-03 -1.029905e-03 -1.017736e-03 -9.720706e-04 -9.574666e-04 -9.085378e-04 -8.923691e-04 -8.415605e-04 -8.249456e-04 -7.738782e-04 -7.582467e-04 -7.088374e-04 -6.959854e-04 -6.504909e-04 -6.426156e-04 -6.036391e-04 -6.033282e-04 -5.737584e-04 -5.839017e-04 -5.667442e-04 -5.903222e-04 -5.883718e-04 -6.280683e-04 -6.433739e-04 -7.009621e-04 -7.340522e-04 -8.095364e-04 -8.584456e-04 -9.490307e-04 -1.008308e-03 -1.107437e-03 -1.167540e-03 -1.264478e-03 -1.312193e-03 -1.392801e-03 -1.413349e-03 -1.462561e-03 -1.443461e-03 -1.449169e-03 -1.384664e-03 -1.341402e-03 -1.234894e-03 -1.144854e-03 -1.007102e-03 -8.770978e-04 -7.205345e-04 -5.565818e-04 -3.884545e-04 -1.912946e-04 -8.993782e-06 2.262600e-04 4.338842e-04 7.118141e-04 9.541605e-04 1.266420e-03 1.533463e-03 1.844313e-03 2.090691e-03 2.330894e-03 2.475781e-03 2.557045e-03 2.513109e-03 2.373187e-03 2.109487e-03 1.771891e-03 1.388756e-03 9.976000e-04 7.359374e-04 4.684824e-04 4.454566e-04 4.280527e-04 -2.918766e-05 -5.102613e-04 -1.023481e-03 -1.514573e-03 -1.757122e-03 -2.161395e-03 -2.127049e-03 -2.388125e-03 -1.999992e-03 -4.557712e-04 4.362786e-04 9.541765e-04 9.975040e-04 1.008645e-03 8.496743e-04 7.641534e-04 6.007567e-04 5.137017e-04 3.738855e-04 2.973339e-04 1.767598e-04 1.085585e-04 1.016667e-06 -6.161490e-05 -1.599875e-04 -2.187072e-04 -3.097857e-04 -3.653328e-04 -4.497412e-04 -5.022832e-04 -5.799198e-04 -6.292976e-04 -6.996683e-04 
-1.102102e-03 -1.187782e-03 -1.221547e-03 -1.291904e-03 -1.323046e-03 -1.376768e-03 -1.404956e-03 -1.441128e-03 -1.466098e-03 -1.484282e-03 -1.505847e-03 -1.506111e-03 -1.524171e-03 -1.507076e-03 -1.521606e-03 -1.488153e-03 -1.499195e-03 -1.450749e-03 -1.458398e-03 -1.396595e-03 -1.400991e-03 -1.327647e-03 -1.328984e-03 -1.246022e-03 -1.244558e-03 -1.153955e-03 -1.150050e-03 -1.053817e-03 -1.047979e-03 -9.481766e-04 -9.411204e-04 -8.398994e-04 -8.326247e-04 -7.322940e-04 -7.261648e-04 -6.292707e-04 -6.260944e-04 -5.354947e-04 -5.375835e-04 -4.564923e-04 -4.666811e-04 -3.986477e-04 -4.202314e-04 -3.690024e-04 -4.055373e-04 -3.747386e-04 -4.296391e-04 -4.222049e-04 -4.980610e-04 -5.153541e-04 -6.129282e-04 -6.535673e-04 -7.705255e-04 -8.291035e-04 -9.587459e-04 -1.024907e-03 -1.155465e-03 -1.214124e-03 -1.329442e-03 -1.362986e-03 -1.445187e-03 -1.437776e-03 -1.471451e-03 -1.413895e-03 -1.389789e-03 -1.282145e-03 -1.198194e-03 -1.048480e-03 -9.082681e-04 -7.285146e-04 -5.379890e-04 -3.383764e-04 -1.017766e-04 1.160675e-04 3.988374e-04 6.448226e-04 9.760163e-04 1.263719e-03 1.636103e-03 1.960393e-03 2.336846e-03 2.644185e-03 2.939335e-03 3.114600e-03 3.200658e-03 3.103807e-03 2.864904e-03 2.437663e-03 1.900137e-03 1.269741e-03 6.719405e-04 2.986583e-04 8.222882e-05 -5.565493e-04 -1.339811e-03 -2.163944e-03 -2.754416e-03 -2.769772e-03 -2.698611e-03 -2.217894e-03 -2.200774e-03 -1.557362e-03 -1.850943e-03 -1.227852e-03 8.779627e-04 1.112895e-03 1.421762e-03 1.117898e-03 1.039780e-03 7.447566e-04 6.486899e-04 4.199756e-04 3.466927e-04 1.606021e-04 1.031877e-04 -5.951904e-05 -1.085730e-04 -2.576298e-04 -3.024404e-04 -4.418748e-04 -4.843558e-04 -6.152106e-04 -6.561126e-04 -7.778894e-04 -8.173663e-04 -9.287799e-04 -9.666789e-04 -1.066087e-03 
-8.220884e-04 -8.861971e-04 -9.284805e-04 -9.837915e-04 -1.021857e-03 -1.067450e-03 -1.100754e-03 -1.135940e-03 -1.164075e-03 -1.188447e-03 -1.211156e-03 -1.224605e-03 -1.241777e-03 -1.244484e-03 -1.256139e-03 -1.248535e-03 -1.254796e-03 -1.237513e-03 -1.238583e-03 -1.212393e-03 -1.208530e-03 -1.174298e-03 -1.165811e-03 -1.124460e-03 -1.111711e-03 -1.064212e-03 -1.047649e-03 -9.950413e-04 -9.752454e-04 -9.186883e-04 -8.964456e-04 -8.372942e-04 -8.136859e-04 -7.535930e-04 -7.301011e-04 -6.711311e-04 -6.497498e-04 -5.944897e-04 -5.778287e-04 -5.294713e-04 -5.208232e-04 -4.831839e-04 -4.865145e-04 -4.639240e-04 -4.837180e-04 -4.807070e-04 -5.215747e-04 -5.422418e-04 -6.081655e-04 -6.551088e-04 -7.482143e-04 -8.209635e-04 -9.397929e-04 -1.032869e-03 -1.170392e-03 -1.271549e-03 -1.413644e-03 -1.503466e-03 -1.629218e-03 -1.683766e-03 -1.769108e-03 -1.766660e-03 -1.791628e-03 -1.721862e-03 -1.678624e-03 -1.548719e-03 -1.444580e-03 -1.276313e-03 -1.127345e-03 -9.458202e-04 -7.651065e-04 -5.849118e-04 -3.721449e-04 -1.859308e-04 7.592670e-05 2.993393e-04 6.361007e-04 9.350368e-04 1.356887e-03 1.739522e-03 2.205676e-03 2.606059e-03 2.993559e-03 3.243398e-03 3.340711e-03 3.193110e-03 2.789461e-03 2.082986e-03 1.201275e-03 1.982412e-04 -6.349298e-04 -1.470601e-03 -2.499601e-03 -3.286773e-03 -2.771116e-03 -1.091361e-03 6.794083e-04 2.287929e-03 3.348125e-03 4.185428e-03 4.655121e-03 5.155150e-03 5.239395e-03 5.509014e-03 4.859854e-03 3.245819e-03 2.406005e-03 1.572390e-03 1.206917e-03 8.297730e-04 6.702912e-04 4.670182e-04 3.775098e-04 2.388427e-04 1.728311e-04 6.018904e-05 2.311137e-06 -9.842181e-05 -1.533376e-04 -2.473835e-04 -3.009286e-04 -3.899425e-04 -4.423271e-04 -5.263888e-04 -5.772445e-04 -6.556931e-04 -7.044020e-04 -7.762367e-04 
-1.208809e-03 -1.299743e-03 -1.333300e-03 -1.407899e-03 -1.439048e-03 -1.495511e-03 -1.523726e-03 -1.560798e-03 -1.585671e-03 -1.602727e-03 -1.623977e-03 -1.621056e-03 -1.638522e-03 -1.616290e-03 -1.629913e-03 -1.589585e-03 -1.599378e-03 -1.542592e-03 -1.548613e-03 -1.477299e-03 -1.479634e-03 -1.395881e-03 -1.394637e-03 -1.300588e-03 -1.295912e-03 -1.193693e-03 -1.185810e-03 -1.077516e-03 -1.066787e-03 -9.545041e-04 -9.415150e-04 -8.273984e-04 -8.130645e-04 -6.994545e-04 -6.851500e-04 -5.747165e-04 -5.624151e-04 -4.583158e-04 -4.507318e-04 -3.567548e-04 -3.574580e-04 -2.781070e-04 -2.915641e-04 -2.320189e-04 -2.634856e-04 -2.293356e-04 -2.844828e-04 -2.810931e-04 -3.652088e-04 -3.965511e-04 -5.131484e-04 -5.799691e-04 -7.287175e-04 -8.261295e-04 -1.000334e-03 -1.115434e-03 -1.299933e-03 -1.410899e-03 -1.582100e-03 -1.660912e-03 -1.790903e-03 -1.811022e-03 -1.875662e-03 -1.822141e-03 -1.808620e-03 -1.683595e-03 -1.591719e-03 -1.411232e-03 -1.250119e-03 -1.037635e-03 -8.197508e-04 -5.963903e-04 -3.288482e-04 -9.809256e-05 2.254849e-04 4.909197e-04 8.929133e-04 1.244020e-03 1.744237e-03 2.212566e-03 2.780656e-03 3.296928e-03 3.781406e-03 4.089944e-03 4.165511e-03 3.836331e-03 3.085189e-03 1.879081e-03 3.736530e-04 -1.344455e-03 -2.673534e-03 -3.617127e-03 -2.494263e-03 1.164080e-03 4.694700e-03 6.912692e-03 8.286275e-03 8.668937e-03 8.883205e-03 8.682348e-03 8.647950e-03 8.450176e-03 8.326425e-03 8.498794e-03 6.465461e-03 3.906930e-03 2.547009e-03 1.470804e-03 1.028962e-03 5.980040e-04 4.565541e-04 2.251401e-04 1.650974e-04 -5.881434e-06 -4.511602e-05 -1.962305e-04 -2.310359e-04 -3.742220e-04 -4.090211e-04 -5.472195e-04 -5.829708e-04 -7.158741e-04 -7.524321e-04 -8.783842e-04 -9.152185e-04 -1.031964e-03 -1.068405e-03 -1.173467e-03 
-9.099199e-04 -9.767744e-04 -1.020003e-03 -1.077745e-03 -1.116725e-03 -1.164057e-03 -1.198022e-03 -1.233984e-03 -1.262374e-03 -1.286402e-03 -1.308870e-03 -1.320806e-03 -1.337205e-03 -1.337268e-03 -1.347618e-03 -1.336340e-03 -1.340778e-03 -1.318922e-03 -1.317659e-03 -1.286123e-03 -1.279397e-03 -1.239138e-03 -1.227199e-03 -1.179175e-03 -1.162285e-03 -1.107441e-03 -1.085903e-03 -1.025194e-03 -9.994206e-04 -9.338801e-04 -9.044820e-04 -8.353350e-04 -8.032514e-04 -7.320686e-04 -6.987220e-04 -6.276042e-04 -5.950841e-04 -5.268656e-04 -4.981261e-04 -4.365725e-04 -4.156213e-04 -3.655820e-04 -3.576150e-04 -3.250608e-04 -3.364606e-04 -3.282906e-04 -3.663471e-04 -3.897776e-04 -4.619107e-04 -5.231778e-04 -6.353624e-04 -7.374301e-04 -8.915344e-04 -1.030658e-03 -1.220696e-03 -1.382320e-03 -1.590486e-03 -1.746355e-03 -1.941319e-03 -2.051590e-03 -2.193022e-03 -2.217546e-03 -2.269607e-03 -2.187397e-03 -2.136881e-03 -1.961804e-03 -1.827493e-03 -1.603609e-03 -1.422594e-03 -1.201524e-03 -1.004360e-03 -8.194498e-04 -6.081156e-04 -4.491724e-04 -1.865461e-04 1.424403e-05 3.993524e-04 7.457526e-04 1.315202e-03 1.871843e-03 2.597231e-03 3.275463e-03 3.926333e-03 4.341269e-03 4.336273e-03 3.730420e-03 2.332200e-03 9.726647e-05 -2.659282e-03 -4.618957e-03 -4.763402e-03 -7.585459e-04 5.307349e-03 8.907798e-03 9.457509e-03 8.136481e-03 6.741519e-03 5.258459e-03 4.324985e-03 3.624699e-03 2.986792e-03 2.833386e-03 2.191401e-03 2.637248e-03 2.783408e-03 1.763716e-03 1.323346e-03 8.080126e-04 6.230959e-04 3.977693e-04 3.245144e-04 1.967926e-04 1.527787e-04 5.417839e-05 1.414608e-05 -7.643021e-05 -1.188089e-04 -2.075098e-04 -2.531181e-04 -3.411823e-04 -3.893427e-04 -4.762119e-04 -5.258025e-04 -6.101785e-04 -6.599659e-04 -7.402271e-04 -7.889773e-04 -8.633882e-04 