# vtk DataFile Version 2.0
Comment goes here
ASCII

DATASET STRUCTURED_POINTS
DIMENSIONS    128   128   1

ORIGIN    0.000   0.000   0.000
SPACING   0.0156250.015625   1.000

POINT_DATA   16384
SCALARS uX double
LOOKUP_TABLE default

-1.221666e-01 -1.336372e-01 -1.371517e-01 -1.466496e-01 -1.488290e-01 -1.562908e-01 -1.571640e-01 -1.625593e-01 -1.621852e-01 -1.655211e-01 -1.639893e-01 -1.653145e-01 -1.627461e-01 -1.621543e-01 -1.587009e-01 -1.563316e-01 -1.521741e-01 -1.482128e-01 -1.435589e-01 -1.382348e-01 -1.333162e-01 -1.268996e-01 -1.219686e-01 -1.147672e-01 -1.100935e-01 -1.024476e-01 -9.831512e-02 -9.059260e-02 -8.729577e-02 -7.988543e-02 -7.772410e-02 -7.102725e-02 -7.029969e-02 -6.471878e-02 -6.571128e-02 -6.163458e-02 -6.460667e-02 -6.238819e-02 -6.755261e-02 -6.748682e-02 -7.498420e-02 -7.727579e-02 -8.714481e-02 -9.187524e-02 -1.040206e-01 -1.111143e-01 -1.252763e-01 -1.344712e-01 -1.502030e-01 -1.610315e-01 -1.776900e-01 -1.894772e-01 -2.062352e-01 -2.181200e-01 -2.340037e-01 -2.449859e-01 -2.589378e-01 -2.679485e-01 -2.789115e-01 -2.848989e-01 -2.919075e-01 -2.939249e-01 -2.961914e-01 -2.934751e-01 -2.904576e-01 -2.824860e-01 -2.739354e-01 -2.604712e-01 -2.464632e-01 -2.275892e-01 -2.085524e-01 -1.847098e-01 -1.614590e-01 -1.334926e-01 -1.072587e-01 -7.645058e-02 -4.887573e-02 -1.692539e-02 1.002807e-02 4.113145e-02 6.540871e-02 9.365286e-02 1.134693e-01 1.371881e-01 1.514412e-01 1.696697e-01 1.782461e-01 1.909219e-01 1.947568e-01 2.026856e-01 2.035090e-01 2.080590e-01 2.078252e-01 2.103394e-01 2.104927e-01 2.116862e-01 2.127278e-01 2.125135e-01 2.140713e-01 2.117362e-01 2.128521e-01 2.074608e-01 2.069510e-01 1.977565e-01 1.946865e-01 1.815347e-01 1.757008e-01 1.591976e-01 1.510444e-01 1.321613e-01 1.223868e-01 1.020915e-01 9.138953e-02 7.049796e-02 5.946508e-02 3.862185e-02 2.773969e-02 7.440677e-03 -2.917796e-03 -2.229471e-02 -3.185037e-02 -5.001604e-02 -5.856611e-02 -7.529544e-02 -8.269678e-02 -9.781016e-02 -1.039658e-01 -1.173171e-01 
-1.108795e-01 -1.215514e-01 -1.253841e-01 -1.342744e-01 -1.367293e-01 -1.437856e-01 -1.448871e-01 -1.500860e-01 -1.498898e-01 -1.532412e-01 -1.518347e-01 -1.533858e-01 -1.508892e-01 -1.507278e-01 -1.472932e-01 -1.455488e-01 -1.413588e-01 -1.382031e-01 -1.334680e-01 -1.291137e-01 -1.240686e-01 -1.187670e-01 -1.136683e-01 -1.077063e-01 -1.028287e-01 -9.652498e-02 -9.215746e-02 -8.585793e-02 -8.230021e-02 -7.637219e-02 -7.392952e-02 -6.875363e-02 -6.772961e-02 -6.368881e-02 -6.437485e-02 -6.183928e-02 -6.449970e-02 -6.380662e-02 -6.865853e-02 -7.008687e-02 -7.727469e-02 -8.101462e-02 -9.058016e-02 -9.669932e-02 -1.085496e-01 -1.169591e-01 -1.308360e-01 -1.412605e-01 -1.567178e-01 -1.686772e-01 -1.850717e-01 -1.978794e-01 -2.143831e-01 -2.271685e-01 -2.428072e-01 -2.545645e-01 -2.682818e-01 -2.779431e-01 -2.886855e-01 -2.952082e-01 -3.020184e-01 -3.044734e-01 -3.065758e-01 -3.042228e-01 -3.010894e-01 -2.934288e-01 -2.848208e-01 -2.716273e-01 -2.576199e-01 -2.389685e-01 -2.199736e-01 -1.962753e-01 -1.730727e-01 -1.451244e-01 -1.188974e-01 -8.793223e-02 -6.027342e-02 -2.796487e-02 -7.975669e-04 3.084592e-02 5.548612e-02 8.438006e-02 1.047025e-01 1.290745e-01 1.439369e-01 1.627274e-01 1.719267e-01 1.850414e-01 1.893719e-01 1.976678e-01 1.987216e-01 2.036633e-01 2.033574e-01 2.063681e-01 2.062220e-01 2.080906e-01 2.087369e-01 2.093949e-01 2.105455e-01 2.092935e-01 2.100173e-01 2.059100e-01 2.050036e-01 1.972431e-01 1.937352e-01 1.820995e-01 1.757998e-01 1.608778e-01 1.522576e-01 1.350052e-01 1.247698e-01 1.061285e-01 9.496871e-02 7.572661e-02 6.423626e-02 4.501279e-02 3.367394e-02 1.494189e-02 4.130326e-03 -1.375482e-02 -2.375563e-02 -4.052692e-02 -4.950890e-02 -6.496304e-02 -7.277715e-02 -8.675544e-02 -9.329843e-02 -1.056742e-01 
-1.239250e-01 -1.353872e-01 -1.388561e-01 -1.483472e-01 -1.504808e-01 -1.579323e-01 -1.587566e-01 -1.641334e-01 -1.637048e-01 -1.670104e-01 -1.654168e-01 -1.666974e-01 -1.640589e-01 -1.634063e-01 -1.598745e-01 -1.574274e-01 -1.531834e-01 -1.491273e-01 -1.443794e-01 -1.389438e-01 -1.339239e-01 -1.273799e-01 -1.223405e-01 -1.149963e-01 -1.102070e-01 -1.024036e-01 -9.814796e-02 -9.025391e-02 -8.682591e-02 -7.923107e-02 -7.693066e-02 -7.003816e-02 -6.916464e-02 -6.338003e-02 -6.422226e-02 -5.993874e-02 -6.276093e-02 -6.033968e-02 -6.536172e-02 -6.510678e-02 -7.247895e-02 -7.460685e-02 -8.437951e-02 -8.898502e-02 -1.010754e-01 -1.080964e-01 -1.222567e-01 -1.314425e-01 -1.472342e-01 -1.581246e-01 -1.749075e-01 -1.868283e-01 -2.037704e-01 -2.158538e-01 -2.319688e-01 -2.432007e-01 -2.574130e-01 -2.667065e-01 -2.779389e-01 -2.842246e-01 -2.914950e-01 -2.938131e-01 -2.963241e-01 -2.939037e-01 -2.911103e-01 -2.834262e-01 -2.750781e-01 -2.618869e-01 -2.480531e-01 -2.294216e-01 -2.105129e-01 -1.868524e-01 -1.636548e-01 -1.357720e-01 -1.094880e-01 -7.863474e-02 -5.090222e-02 -1.878125e-02 8.393114e-03 3.973522e-02 6.419483e-02 9.264014e-02 1.124677e-01 1.362356e-01 1.502230e-01 1.682765e-01 1.762869e-01 1.885620e-01 1.916113e-01 1.989915e-01 1.989934e-01 2.030197e-01 2.021685e-01 2.043672e-01 2.042319e-01 2.053533e-01 2.063955e-01 2.063057e-01 2.080892e-01 2.059824e-01 2.074973e-01 2.023685e-01 2.023248e-01 1.933341e-01 1.906238e-01 1.775438e-01 1.719526e-01 1.554862e-01 1.475330e-01 1.287156e-01 1.191262e-01 9.892553e-02 8.839139e-02 6.760519e-02 5.671941e-02 3.597846e-02 2.522326e-02 5.015540e-03 -5.234110e-03 -2.453506e-02 -3.399819e-02 -5.210518e-02 -6.057733e-02 -7.726509e-02 -8.460108e-02 -9.968791e-02 -1.057881e-01 -1.191242e-01 
-1.142498e-01 -1.248908e-01 -1.286375e-01 -1.375034e-01 -1.398711e-01 -1.468998e-01 -1.479067e-01 -1.530662e-01 -1.527628e-01 -1.560557e-01 -1.545264e-01 -1.559945e-01 -1.533576e-01 -1.530849e-01 -1.494923e-01 -1.476064e-01 -1.432414e-01 -1.399133e-01 -1.349873e-01 -1.304299e-01 -1.251789e-01 -1.196439e-01 -1.143250e-01 -1.080999e-01 -1.029876e-01 -9.639152e-02 -9.177415e-02 -8.515397e-02 -8.133062e-02 -7.505521e-02 -7.233135e-02 -6.678463e-02 -6.546596e-02 -6.103687e-02 -6.142000e-02 -5.848844e-02 -6.084703e-02 -5.976456e-02 -6.432997e-02 -6.539477e-02 -7.233061e-02 -7.575659e-02 -8.512786e-02 -9.100931e-02 -1.027480e-01 -1.110227e-01 -1.248939e-01 -1.353093e-01 -1.508834e-01 -1.629730e-01 -1.796120e-01 -1.926894e-01 -2.095552e-01 -2.227345e-01 -2.388269e-01 -2.510728e-01 -2.652976e-01 -2.755048e-01 -2.867680e-01 -2.938588e-01 -3.011705e-01 -3.041931e-01 -3.067612e-01 -3.049682e-01 -3.022643e-01 -2.951590e-01 -2.869495e-01 -2.743037e-01 -2.606577e-01 -2.425193e-01 -2.238156e-01 -2.005322e-01 -1.774899e-01 -1.497677e-01 -1.235044e-01 -9.249364e-02 -6.458121e-02 -3.193905e-02 -4.378313e-03 2.778332e-02 5.276379e-02 8.213625e-02 1.024959e-01 1.270391e-01 1.414465e-01 1.599117e-01 1.681242e-01 1.803973e-01 1.833167e-01 1.904454e-01 1.899270e-01 1.937700e-01 1.921791e-01 1.944974e-01 1.936454e-01 1.953402e-01 1.958840e-01 1.967488e-01 1.982922e-01 1.974714e-01 1.989802e-01 1.954211e-01 1.954656e-01 1.881786e-01 1.853915e-01 1.739439e-01 1.681364e-01 1.533361e-01 1.451353e-01 1.280609e-01 1.182127e-01 9.979718e-02 8.898136e-02 6.997795e-02 5.878331e-02 3.978797e-02 2.870072e-02 1.017323e-02 -4.249268e-04 -1.813667e-02 -2.795775e-02 -4.459062e-02 -5.342269e-02 -6.877346e-02 -7.646303e-02 -9.036941e-02 -9.680762e-02 -1.091363e-01 
-1.291602e-01 -1.406031e-01 -1.439387e-01 -1.534148e-01 -1.554141e-01 -1.628397e-01 -1.635195e-01 -1.688455e-01 -1.682549e-01 -1.714737e-01 -1.696960e-01 -1.708455e-01 -1.679982e-01 -1.671654e-01 -1.633999e-01 -1.607214e-01 -1.562199e-01 -1.518812e-01 -1.468536e-01 -1.410859e-01 -1.357656e-01 -1.288418e-01 -1.234819e-01 -1.157123e-01 -1.105818e-01 -1.023091e-01 -9.769024e-02 -8.928473e-02 -8.546987e-02 -7.732415e-02 -7.461269e-02 -6.713476e-02 -6.582826e-02 -5.943226e-02 -5.982644e-02 -5.491955e-02 -5.729184e-02 -5.425602e-02 -5.884709e-02 -5.801470e-02 -6.500344e-02 -6.662637e-02 -7.609835e-02 -8.031173e-02 -9.222273e-02 -9.900562e-02 -1.131442e-01 -1.222819e-01 -1.382366e-01 -1.492921e-01 -1.664324e-01 -1.787349e-01 -1.962151e-01 -2.088761e-01 -2.256713e-01 -2.376338e-01 -2.526110e-01 -2.627318e-01 -2.747512e-01 -2.819059e-01 -2.899345e-01 -2.931244e-01 -2.963379e-01 -2.947753e-01 -2.926258e-01 -2.857830e-01 -2.780261e-01 -2.656511e-01 -2.523454e-01 -2.344648e-01 -2.159724e-01 -1.929105e-01 -1.699268e-01 -1.423661e-01 -1.159934e-01 -8.507476e-02 -5.691414e-02 -2.432812e-02 3.497372e-03 3.554110e-02 6.056301e-02 8.961416e-02 1.094860e-01 1.333950e-01 1.465608e-01 1.640697e-01 1.703191e-01 1.813640e-01 1.819630e-01 1.876380e-01 1.850684e-01 1.874621e-01 1.847330e-01 1.860004e-01 1.850435e-01 1.859485e-01 1.869720e-01 1.872308e-01 1.896111e-01 1.881158e-01 1.907974e-01 1.864314e-01 1.878843e-01 1.795695e-01 1.780120e-01 1.651690e-01 1.603727e-01 1.440869e-01 1.368158e-01 1.182763e-01 1.092991e-01 8.943447e-02 7.942847e-02 5.898339e-02 4.854504e-02 2.812107e-02 1.774616e-02 -2.184338e-03 -1.210967e-02 -3.118287e-02 -4.037094e-02 -5.830434e-02 -6.654554e-02 -8.311278e-02 -9.025586e-02 -1.052684e-01 -1.112056e-01 -1.245022e-01 
-1.209048e-01 -1.314947e-01 -1.350771e-01 -1.439046e-01 -1.461045e-01 -1.530878e-01 -1.539108e-01 -1.590001e-01 -1.584870e-01 -1.616701e-01 -1.598987e-01 -1.612066e-01 -1.582924e-01 -1.578022e-01 -1.538969e-01 -1.517327e-01 -1.470214e-01 -1.433534e-01 -1.380503e-01 -1.330921e-01 -1.274358e-01 -1.214403e-01 -1.156892e-01 -1.089449e-01 -1.033728e-01 -9.619994e-02 -9.109345e-02 -8.383968e-02 -7.949573e-02 -7.253219e-02 -6.925535e-02 -6.297128e-02 -6.106991e-02 -5.586478e-02 -5.564424e-02 -5.191592e-02 -5.366703e-02 -5.179444e-02 -5.577584e-02 -5.609482e-02 -6.250798e-02 -6.527984e-02 -7.423658e-02 -7.960988e-02 -9.109379e-02 -9.906178e-02 -1.128869e-01 -1.232453e-01 -1.390187e-01 -1.513315e-01 -1.684281e-01 -1.820116e-01 -1.995741e-01 -2.135109e-01 -2.304848e-01 -2.436766e-01 -2.588869e-01 -2.701478e-01 -2.824128e-01 -2.905900e-01 -2.988510e-01 -3.029476e-01 -3.063839e-01 -3.056482e-01 -3.037441e-01 -2.977039e-01 -2.902572e-01 -2.787016e-01 -2.657898e-01 -2.487315e-01 -2.306790e-01 -2.083444e-01 -1.857398e-01 -1.586327e-01 -1.324289e-01 -1.014865e-01 -7.316460e-02 -3.995567e-02 -1.163921e-02 2.154704e-02 4.722501e-02 7.760340e-02 9.803813e-02 1.229636e-01 1.364052e-01 1.542024e-01 1.603680e-01 1.708754e-01 1.708951e-01 1.755419e-01 1.717112e-01 1.732848e-01 1.690395e-01 1.699685e-01 1.676807e-01 1.690618e-01 1.693233e-01 1.705120e-01 1.726650e-01 1.725176e-01 1.755306e-01 1.730012e-01 1.751725e-01 1.690175e-01 1.678151e-01 1.567957e-01 1.521299e-01 1.377363e-01 1.305590e-01 1.140077e-01 1.050482e-01 8.718258e-02 7.709713e-02 5.861468e-02 4.801796e-02 2.949608e-02 1.890749e-02 7.953443e-04 -9.382489e-03 -2.674688e-02 -3.621520e-02 -5.257481e-02 -6.111422e-02 -7.626506e-02 -8.371335e-02 -9.748500e-02 -1.037218e-01 -1.159667e-01 
-1.377436e-01 -1.491736e-01 -1.522996e-01 -1.617694e-01 -1.635560e-01 -1.709551e-01 -1.714034e-01 -1.766592e-01 -1.758063e-01 -1.788922e-01 -1.768136e-01 -1.777542e-01 -1.745643e-01 -1.734389e-01 -1.692891e-01 -1.662320e-01 -1.613074e-01 -1.565050e-01 -1.510193e-01 -1.447061e-01 -1.388958e-01 -1.313487e-01 -1.254682e-01 -1.170008e-01 -1.113179e-01 -1.022756e-01 -9.706916e-02 -8.782416e-02 -8.338236e-02 -7.433015e-02 -7.094936e-02 -6.250383e-02 -6.048676e-02 -5.307386e-02 -5.272489e-02 -4.677250e-02 -4.838837e-02 -4.431077e-02 -4.816471e-02 -4.633980e-02 -5.265740e-02 -5.339571e-02 -6.232179e-02 -6.582709e-02 -7.738431e-02 -8.370766e-02 -9.774985e-02 -1.067415e-01 -1.229080e-01 -1.341748e-01 -1.518565e-01 -1.647373e-01 -1.830675e-01 -1.966391e-01 -2.145250e-01 -2.276535e-01 -2.438575e-01 -2.552967e-01 -2.685637e-01 -2.770899e-01 -2.862961e-01 -2.908464e-01 -2.951295e-01 -2.949025e-01 -2.937318e-01 -2.882229e-01 -2.813960e-01 -2.703723e-01 -2.579637e-01 -2.414141e-01 -2.237242e-01 -2.018374e-01 -1.794004e-01 -1.526242e-01 -1.263220e-01 -9.554195e-02 -6.682919e-02 -3.362922e-02 -4.754719e-03 2.842226e-02 5.445274e-02 8.454275e-02 1.045431e-01 1.286722e-01 1.403774e-01 1.569069e-01 1.599926e-01 1.689322e-01 1.651424e-01 1.678174e-01 1.605864e-01 1.600689e-01 1.541929e-01 1.540791e-01 1.520096e-01 1.525242e-01 1.533856e-01 1.541212e-01 1.570714e-01 1.562111e-01 1.605867e-01 1.572726e-01 1.615978e-01 1.547150e-01 1.553886e-01 1.430703e-01 1.399307e-01 1.242883e-01 1.184833e-01 1.006995e-01 9.291381e-02 7.375948e-02 6.468244e-02 4.486639e-02 3.517319e-02 1.530060e-02 5.548081e-03 -1.391215e-02 -2.330848e-02 -4.200236e-02 -5.074313e-02 -6.839431e-02 -7.626252e-02 -9.264155e-02 -9.947613e-02 -1.143814e-01 -1.200607e-01 -1.333101e-01 
-1.306667e-01 -1.412072e-01 -1.445627e-01 -1.533590e-01 -1.553244e-01 -1.622638e-01 -1.628253e-01 -1.678303e-01 -1.670140e-01 -1.700503e-01 -1.679248e-01 -1.690074e-01 -1.656847e-01 -1.648812e-01 -1.605141e-01 -1.579445e-01 -1.527227e-01 -1.485572e-01 -1.427004e-01 -1.371549e-01 -1.309063e-01 -1.242365e-01 -1.178567e-01 -1.103529e-01 -1.041149e-01 -9.609776e-02 -9.028397e-02 -8.210107e-02 -7.700278e-02 -6.902613e-02 -6.494338e-02 -5.756691e-02 -5.480821e-02 -4.844342e-02 -4.732305e-02 -4.239091e-02 -4.322142e-02 -4.013843e-02 -4.321624e-02 -4.237239e-02 -4.795416e-02 -4.968142e-02 -5.795003e-02 -6.248053e-02 -7.350076e-02 -8.091618e-02 -9.458254e-02 -1.047587e-01 -1.207418e-01 -1.332970e-01 -1.509995e-01 -1.652600e-01 -1.837989e-01 -1.987995e-01 -2.170336e-01 -2.315716e-01 -2.481897e-01 -2.609408e-01 -2.746101e-01 -2.842927e-01 -2.938394e-01 -2.993870e-01 -3.039554e-01 -3.046335e-01 -3.037620e-01 -2.991839e-01 -2.927725e-01 -2.828159e-01 -2.710136e-01 -2.556942e-01 -2.387815e-01 -2.181659e-01 -1.965222e-01 -1.707692e-01 -1.450149e-01 -1.146208e-01 -8.596323e-02 -5.219971e-02 -2.284072e-02 1.183892e-02 3.861705e-02 7.064278e-02 9.117825e-02 1.167776e-01 1.285425e-01 1.452588e-01 1.481187e-01 1.557633e-01 1.513728e-01 1.519165e-01 1.427172e-01 1.409286e-01 1.326731e-01 1.315886e-01 1.271554e-01 1.282351e-01 1.278149e-01 1.291421e-01 1.314943e-01 1.315897e-01 1.363879e-01 1.348937e-01 1.409005e-01 1.371559e-01 1.388034e-01 1.286923e-01 1.264181e-01 1.132825e-01 1.082055e-01 9.287727e-02 8.547489e-02 6.861235e-02 5.965439e-02 4.201115e-02 3.228824e-02 1.449681e-02 4.630293e-03 -1.285094e-02 -2.241885e-02 -3.926322e-02 -4.822085e-02 -6.418048e-02 -7.230015e-02 -8.716879e-02 -9.427590e-02 -1.078687e-01 -1.138249e-01 -1.259705e-01 
-1.494555e-01 -1.609086e-01 -1.637682e-01 -1.732685e-01 -1.747809e-01 -1.821783e-01 -1.823220e-01 -1.875097e-01 -1.863050e-01 -1.892295e-01 -1.867419e-01 -1.874097e-01 -1.837502e-01 -1.822313e-01 -1.775537e-01 -1.739806e-01 -1.684761e-01 -1.630388e-01 -1.569284e-01 -1.498682e-01 -1.433943e-01 -1.349950e-01 -1.284144e-01 -1.189950e-01 -1.125735e-01 -1.024819e-01 -9.649171e-02 -8.610118e-02 -8.082117e-02 -7.052760e-02 -6.624547e-02 -5.646643e-02 -5.348097e-02 -4.465346e-02 -4.327505e-02 -3.585020e-02 -3.639674e-02 -3.082873e-02 -3.361410e-02 -3.034074e-02 -3.565319e-02 -3.506573e-02 -4.313381e-02 -4.553446e-02 -5.647964e-02 -6.202707e-02 -7.580452e-02 -8.445055e-02 -1.007839e-01 -1.122099e-01 -1.305323e-01 -1.440999e-01 -1.635211e-01 -1.782601e-01 -1.975856e-01 -2.122421e-01 -2.300663e-01 -2.432272e-01 -2.581051e-01 -2.683856e-01 -2.790489e-01 -2.852931e-01 -2.908381e-01 -2.922549e-01 -2.922221e-01 -2.883993e-01 -2.827178e-01 -2.735247e-01 -2.623678e-01 -2.478126e-01 -2.314509e-01 -2.115702e-01 -1.903083e-01 -1.651813e-01 -1.394895e-01 -1.094928e-01 -8.042006e-02 -4.677009e-02 -1.654627e-02 1.811632e-02 4.573229e-02 7.734200e-02 9.766670e-02 1.219900e-01 1.313582e-01 1.461964e-01 1.442133e-01 1.501599e-01 1.396369e-01 1.379461e-01 1.233553e-01 1.184072e-01 1.085280e-01 1.074922e-01 1.049521e-01 1.045908e-01 1.046296e-01 1.058254e-01 1.081257e-01 1.068079e-01 1.123828e-01 1.093147e-01 1.184182e-01 1.144641e-01 1.193741e-01 1.086029e-01 1.091137e-01 9.554715e-02 9.258582e-02 7.642794e-02 7.049820e-02 5.250086e-02 4.468754e-02 2.578820e-02 1.707570e-02 -2.011755e-03 -1.093566e-02 -2.973121e-02 -3.841536e-02 -5.658267e-02 -6.472188e-02 -8.199543e-02 -8.936765e-02 -1.055120e-01 -1.119433e-01 -1.267350e-01 -1.320830e-01 -1.453070e-01 
-1.432608e-01 -1.537875e-01 -1.568777e-01 -1.656821e-01 -1.673671e-01 -1.742929e-01 -1.745322e-01 -1.794639e-01 -1.782638e-01 -1.811372e-01 -1.785552e-01 -1.793647e-01 -1.755100e-01 -1.743118e-01 -1.693416e-01 -1.662530e-01 -1.603657e-01 -1.555595e-01 -1.489853e-01 -1.426828e-01 -1.356735e-01 -1.281358e-01 -1.209558e-01 -1.124763e-01 -1.053966e-01 -9.629550e-02 -8.959075e-02 -8.021246e-02 -7.416205e-02 -6.487514e-02 -5.976702e-02 -5.096551e-02 -4.710101e-02 -3.920519e-02 -3.690233e-02 -3.035635e-02 -2.994870e-02 -2.521206e-02 -2.703969e-02 -2.456941e-02 -2.895864e-02 -2.917901e-02 -3.640803e-02 -3.966576e-02 -4.991408e-02 -5.641801e-02 -6.970042e-02 -7.944828e-02 -9.553820e-02 -1.082387e-01 -1.265937e-01 -1.416007e-01 -1.613129e-01 -1.775992e-01 -1.974033e-01 -2.136077e-01 -2.319795e-01 -2.465541e-01 -2.619141e-01 -2.733644e-01 -2.843514e-01 -2.915050e-01 -2.972251e-01 -2.994126e-01 -2.995437e-01 -2.965898e-01 -2.912811e-01 -2.833089e-01 -2.729306e-01 -2.600838e-01 -2.449532e-01 -2.271606e-01 -2.073832e-01 -1.842991e-01 -1.599026e-01 -1.312097e-01 -1.027379e-01 -6.894521e-02 -3.842099e-02 -1.904595e-03 2.648593e-02 6.101470e-02 8.164682e-02 1.083342e-01 1.170711e-01 1.319860e-01 1.296034e-01 1.328852e-01 1.230661e-01 1.172115e-01 1.001288e-01 9.523164e-02 8.269211e-02 7.903859e-02 7.166249e-02 7.316340e-02 7.107428e-02 7.140680e-02 7.197568e-02 7.020351e-02 7.542662e-02 7.284453e-02 8.457664e-02 8.568659e-02 9.318034e-02 8.621833e-02 8.983035e-02 8.031064e-02 7.904367e-02 6.589232e-02 6.057703e-02 4.507922e-02 3.744480e-02 2.088888e-02 1.220351e-02 -4.619261e-03 -1.359078e-02 -3.022677e-02 -3.902197e-02 -5.517896e-02 -6.349046e-02 -7.893899e-02 -8.653617e-02 -1.010651e-01 -1.077577e-01 -1.211584e-01 -1.267822e-01 -1.388466e-01 
-1.639773e-01 -1.755329e-01 -1.780970e-01 -1.877047e-01 -1.889051e-01 -1.963609e-01 -1.961461e-01 -2.012973e-01 -1.996658e-01 -2.024239e-01 -1.994296e-01 -1.997789e-01 -1.955311e-01 -1.935318e-01 -1.881910e-01 -1.839768e-01 -1.777461e-01 -1.715159e-01 -1.646295e-01 -1.566368e-01 -1.493479e-01 -1.398884e-01 -1.324583e-01 -1.218590e-01 -1.145501e-01 -1.031617e-01 -9.623465e-02 -8.442763e-02 -7.814408e-02 -6.630926e-02 -6.093773e-02 -4.948939e-02 -4.531390e-02 -3.469364e-02 -3.202142e-02 -2.269981e-02 -2.186494e-02 -1.433747e-02 -1.569654e-02 -1.047001e-02 -1.438562e-02 -1.195111e-02 -1.875902e-02 -1.954773e-02 -2.950410e-02 -3.382374e-02 -4.703104e-02 -5.498336e-02 -7.129833e-02 -8.268476e-02 -1.016211e-01 -1.158546e-01 -1.365072e-01 -1.525629e-01 -1.735966e-01 -1.900455e-01 -2.097969e-01 -2.249630e-01 -2.416807e-01 -2.539199e-01 -2.661036e-01 -2.741243e-01 -2.808303e-01 -2.839046e-01 -2.848529e-01 -2.827961e-01 -2.782182e-01 -2.711671e-01 -2.615075e-01 -2.496351e-01 -2.352517e-01 -2.185106e-01 -1.994602e-01 -1.774469e-01 -1.535336e-01 -1.257264e-01 -9.710143e-02 -6.378178e-02 -3.217726e-02 4.143375e-03 3.416159e-02 6.790858e-02 8.907756e-02 1.132666e-01 1.188433e-01 1.301864e-01 1.197511e-01 1.217277e-01 1.016489e-01 9.474974e-02 6.912176e-02 5.784415e-02 4.597616e-02 4.820938e-02 4.805435e-02 4.489261e-02 4.083361e-02 4.248713e-02 4.085392e-02 3.530017e-02 3.864222e-02 3.200658e-02 4.502388e-02 4.384951e-02 6.117661e-02 5.909217e-02 6.885767e-02 6.050516e-02 6.176878e-02 4.781204e-02 4.377766e-02 2.702716e-02 2.044160e-02 2.610083e-03 -5.032396e-03 -2.312512e-02 -3.106483e-02 -4.900103e-02 -5.681468e-02 -7.431680e-02 -8.172405e-02 -9.854780e-02 -1.053290e-01 -1.212267e-01 -1.271911e-01 -1.419042e-01 -1.468796e-01 -1.601436e-01 
-1.583071e-01 -1.689026e-01 -1.717215e-01 -1.806169e-01 -1.820030e-01 -1.889844e-01 -1.888620e-01 -1.937643e-01 -1.921156e-01 -1.948366e-01 -1.917067e-01 -1.922162e-01 -1.877141e-01 -1.860573e-01 -1.803503e-01 -1.766448e-01 -1.699477e-01 -1.643747e-01 -1.569359e-01 -1.497280e-01 -1.418140e-01 -1.332424e-01 -1.251248e-01 -1.154877e-01 -1.074343e-01 -9.705011e-02 -8.932194e-02 -7.852670e-02 -7.138156e-02 -6.053207e-02 -5.423304e-02 -4.371341e-02 -3.854065e-02 -2.877011e-02 -2.503269e-02 -1.647137e-02 -1.451518e-02 -7.663754e-03 -7.871064e-03 -3.260048e-03 -6.035784e-03 -4.199586e-03 -9.939389e-03 -1.137051e-02 -2.040566e-02 -2.548516e-02 -3.800123e-02 -4.690419e-02 -6.283476e-02 -7.541618e-02 -9.432294e-02 -1.100023e-01 -1.309705e-01 -1.486536e-01 -1.702543e-01 -1.883517e-01 -2.087387e-01 -2.253471e-01 -2.425390e-01 -2.558044e-01 -2.681229e-01 -2.766958e-01 -2.831973e-01 -2.865533e-01 -2.872045e-01 -2.856043e-01 -2.810664e-01 -2.751606e-01 -2.663070e-01 -2.566263e-01 -2.440226e-01 -2.305134e-01 -2.140066e-01 -1.957221e-01 -1.744089e-01 -1.496990e-01 -1.227505e-01 -9.047707e-02 -5.902225e-02 -2.070784e-02 1.009883e-02 4.842040e-02 6.932403e-02 9.789707e-02 1.005783e-01 1.119720e-01 9.953522e-02 9.548186e-02 8.141879e-02 6.401292e-02 3.563995e-02 3.545048e-02 2.776270e-02 1.778449e-02 4.364113e-04 1.124607e-02 3.098732e-03 -4.443189e-03 -7.329325e-03 -1.640763e-02 -1.676671e-02 -2.219856e-02 -1.565537e-02 -1.999206e-02 1.633027e-02 3.160203e-02 4.908315e-02 4.601110e-02 4.840495e-02 3.683889e-02 3.273139e-02 1.823932e-02 1.158210e-02 -3.817199e-03 -1.145501e-02 -2.707931e-02 -3.502210e-02 -5.058761e-02 -5.846884e-02 -7.377866e-02 -8.133600e-02 -9.618924e-02 -1.031957e-01 -1.173670e-01 -1.236100e-01 -1.368511e-01 -1.421294e-01 -1.541786e-01 
-1.808836e-01 -1.926790e-01 -1.949542e-01 -2.047993e-01 -2.056794e-01 -2.133000e-01 -2.126951e-01 -2.178793e-01 -2.157621e-01 -2.183778e-01 -2.147898e-01 -2.147957e-01 -2.098483e-01 -2.072969e-01 -2.011646e-01 -1.961969e-01 -1.891042e-01 -1.819369e-01 -1.741411e-01 -1.650494e-01 -1.568219e-01 -1.461211e-01 -1.377319e-01 -1.257612e-01 -1.174681e-01 -1.045801e-01 -9.662550e-02 -8.318301e-02 -7.579878e-02 -6.217746e-02 -5.559686e-02 -4.219463e-02 -3.666846e-02 -2.391741e-02 -1.973167e-02 -8.109294e-03 -5.599699e-03 4.365017e-03 4.806573e-03 1.253727e-02 1.046998e-02 1.536302e-02 1.032464e-02 1.179124e-02 3.352776e-03 8.896388e-04 -1.125617e-02 -1.796344e-02 -3.387728e-02 -4.481968e-02 -6.416314e-02 -7.885990e-02 -1.007468e-01 -1.181270e-01 -1.410448e-01 -1.594354e-01 -1.813327e-01 -1.986464e-01 -2.172711e-01 -2.314337e-01 -2.448934e-01 -2.543978e-01 -2.617093e-01 -2.659872e-01 -2.672451e-01 -2.665731e-01 -2.625973e-01 -2.576395e-01 -2.494216e-01 -2.407686e-01 -2.290046e-01 -2.167583e-01 -2.013903e-01 -1.847066e-01 -1.646514e-01 -1.416420e-01 -1.153912e-01 -8.436620e-02 -5.207306e-02 -1.437472e-02 1.919608e-02 5.618838e-02 7.986899e-02 1.033562e-01 1.029992e-01 1.055506e-01 7.831310e-02 7.336452e-02 3.891937e-02 2.883446e-02 -1.163572e-02 -3.806510e-02 -2.362130e-02 -2.815558e-03 -8.471939e-03 -1.910273e-02 -1.583538e-02 -2.672502e-02 -2.571481e-02 -2.509318e-02 -2.324908e-02 -2.098844e-02 -2.093341e-02 -2.237172e-02 1.259667e-02 2.607084e-02 4.104065e-02 3.325507e-02 3.392751e-02 1.928490e-02 1.505988e-02 -1.230314e-03 -7.125767e-03 -2.382215e-02 -3.037022e-02 -4.720769e-02 -5.400469e-02 -7.086068e-02 -7.765601e-02 -9.436783e-02 -1.009420e-01 -1.172837e-01 -1.234192e-01 -1.391123e-01 -1.445901e-01 -1.593192e-01 -1.639242e-01 -1.773542e-01 
-1.753122e-01 -1.861200e-01 -1.887018e-01 -1.978269e-01 -1.989280e-01 -2.060827e-01 -2.055842e-01 -2.105411e-01 -2.083956e-01 -2.110062e-01 -2.072468e-01 -2.074532e-01 -2.021940e-01 -2.000329e-01 -1.934606e-01 -1.890567e-01 -1.814148e-01 -1.749674e-01 -1.665344e-01 -1.582975e-01 -1.493648e-01 -1.396273e-01 -1.304789e-01 -1.195477e-01 -1.104473e-01 -9.863691e-02 -8.982449e-02 -7.745489e-02 -6.915240e-02 -5.655572e-02 -4.898202e-02 -3.651569e-02 -2.990741e-02 -1.797133e-02 -1.260591e-02 -1.659161e-03 2.124700e-03 1.155248e-02 1.334279e-02 2.065107e-02 1.996508e-02 2.449966e-02 2.080841e-02 2.190340e-02 1.468654e-02 1.173940e-02 5.792735e-04 -6.833644e-03 -2.211216e-02 -3.407682e-02 -5.322471e-02 -6.930072e-02 -9.145037e-02 -1.104986e-01 -1.340303e-01 -1.541534e-01 -1.767482e-01 -1.954828e-01 -2.144986e-01 -2.293651e-01 -2.425590e-01 -2.518727e-01 -2.582031e-01 -2.617074e-01 -2.616783e-01 -2.604499e-01 -2.556664e-01 -2.513214e-01 -2.436046e-01 -2.374714e-01 -2.280416e-01 -2.204708e-01 -2.091447e-01 -1.987474e-01 -1.833886e-01 -1.666487e-01 -1.439552e-01 -1.166981e-01 -8.538289e-02 -4.649827e-02 -1.189926e-02 3.220456e-02 5.500608e-02 8.813578e-02 7.916203e-02 8.401237e-02 4.538373e-02 2.511762e-02 1.118800e-02 -4.200771e-02 -7.840888e-02 -6.163996e-02 -5.846755e-02 -6.579329e-02 -3.830392e-02 -1.561627e-02 -8.790323e-03 1.711420e-02 2.899279e-02 4.174120e-02 4.985874e-02 5.466894e-02 6.007554e-02 5.850088e-02 6.624459e-02 5.102709e-02 4.762645e-02 3.006139e-02 2.446323e-02 8.873584e-03 2.974482e-03 -1.136625e-02 -1.751790e-02 -3.149069e-02 -3.795571e-02 -5.199739e-02 -5.871967e-02 -7.294164e-02 -7.977170e-02 -9.409213e-02 -1.008245e-01 -1.150469e-01 -1.214448e-01 -1.353017e-01 -1.411131e-01 -1.542921e-01 -1.592625e-01 -1.714268e-01 
-1.996352e-01 -2.118812e-01 -2.139166e-01 -2.241951e-01 -2.247809e-01 -2.327287e-01 -2.317279e-01 -2.370593e-01 -2.344134e-01 -2.369436e-01 -2.326831e-01 -2.323427e-01 -2.265879e-01 -2.234264e-01 -2.163775e-01 -2.105542e-01 -2.024719e-01 -1.942354e-01 -1.854150e-01 -1.750772e-01 -1.658209e-01 -1.537287e-01 -1.443215e-01 -1.308333e-01 -1.215278e-01 -1.069983e-01 -9.800980e-02 -8.278583e-02 -7.430004e-02 -5.872746e-02 -5.091895e-02 -3.535899e-02 -2.841762e-02 -1.326929e-02 -7.430495e-03 6.845553e-03 1.127175e-02 2.413329e-02 2.674067e-02 3.755416e-02 3.783296e-02 4.588118e-02 4.323353e-02 4.774940e-02 4.153854e-02 4.177606e-02 3.142298e-02 2.677797e-02 1.191944e-02 2.109850e-03 -1.717715e-02 -3.187772e-02 -5.481100e-02 -7.333413e-02 -9.820957e-02 -1.185664e-01 -1.427650e-01 -1.622270e-01 -1.826631e-01 -1.984163e-01 -2.124950e-01 -2.226523e-01 -2.293384e-01 -2.336749e-01 -2.338061e-01 -2.334630e-01 -2.288938e-01 -2.253833e-01 -2.179683e-01 -2.125798e-01 -2.037296e-01 -1.971893e-01 -1.871787e-01 -1.786989e-01 -1.656324e-01 -1.516810e-01 -1.315165e-01 -1.069168e-01 -7.645817e-02 -3.903605e-02 -1.073969e-03 4.136173e-02 7.243306e-02 9.654707e-02 9.146722e-02 7.340737e-02 8.945927e-03 -1.916648e-02 -1.015365e-01 -1.179281e-01 -5.533029e-02 -1.091574e-02 -1.646654e-02 5.024003e-02 6.022841e-02 8.483113e-02 9.775464e-02 1.030965e-01 1.083562e-01 1.021202e-01 1.110270e-01 9.607890e-02 1.140860e-01 9.213520e-02 1.017543e-01 5.853332e-02 4.274742e-02 1.485856e-02 6.067681e-03 -1.242430e-02 -1.802652e-02 -3.340935e-02 -3.830904e-02 -5.310821e-02 -5.816231e-02 -7.322913e-02 -7.861732e-02 -9.412903e-02 -9.976594e-02 -1.156048e-01 -1.212944e-01 -1.371949e-01 -1.426906e-01 -1.583025e-01 -1.633348e-01 -1.782560e-01 -1.825489e-01 -1.963496e-01 
-1.936636e-01 -2.049008e-01 -2.073266e-01 -2.168865e-01 -2.177540e-01 -2.252573e-01 -2.243943e-01 -2.295364e-01 -2.268617e-01 -2.294386e-01 -2.249745e-01 -2.248988e-01 -2.187729e-01 -2.160781e-01 -2.085113e-01 -2.033414e-01 -1.946240e-01 -1.872116e-01 -1.776714e-01 -1.683077e-01 -1.582759e-01 -1.472804e-01 -1.370623e-01 -1.247568e-01 -1.146123e-01 -1.013059e-01 -9.144410e-02 -7.743047e-02 -6.801860e-02 -5.358699e-02 -4.477279e-02 -3.022941e-02 -2.217355e-02 -7.870538e-03 -7.840729e-04 1.284957e-02 1.866863e-02 3.110016e-02 3.523765e-02 4.581457e-02 4.772609e-02 5.567884e-02 5.469967e-02 5.917253e-02 5.456343e-02 5.468615e-02 4.573086e-02 4.074762e-02 2.692162e-02 1.639503e-02 -2.379482e-03 -1.828362e-02 -4.130949e-02 -6.149427e-02 -8.698290e-02 -1.091810e-01 -1.341548e-01 -1.550422e-01 -1.757722e-01 -1.917554e-01 -2.049499e-01 -2.136517e-01 -2.180280e-01 -2.196531e-01 -2.166856e-01 -2.138093e-01 -2.067433e-01 -2.025374e-01 -1.947006e-01 -1.917309e-01 -1.855969e-01 -1.852808e-01 -1.812765e-01 -1.825617e-01 -1.773317e-01 -1.746485e-01 -1.609940e-01 -1.455074e-01 -1.172862e-01 -8.255421e-02 -4.275005e-02 8.378215e-03 3.928719e-02 8.536476e-02 6.261441e-02 6.762960e-02 -3.994707e-02 -8.422873e-02 -1.510777e-01 -9.102122e-02 -7.301194e-02 -2.080000e-02 3.457447e-02 1.036864e-01 1.091250e-01 8.972338e-02 9.825839e-02 6.949975e-02 7.278087e-02 4.524339e-02 5.836556e-02 2.958499e-02 5.136604e-02 2.283314e-02 4.960476e-02 1.678230e-02 8.527435e-03 -1.197398e-02 -1.798026e-02 -3.119099e-02 -3.543951e-02 -4.651793e-02 -5.061783e-02 -6.169454e-02 -6.629331e-02 -7.807422e-02 -8.327965e-02 -9.587658e-02 -1.015550e-01 -1.148179e-01 -1.207277e-01 -1.343758e-01 -1.402240e-01 -1.539007e-01 -1.593696e-01 -1.726697e-01 -1.774334e-01 -1.899230e-01 