# vtk DataFile Version 2.0
Comment goes here
ASCII

DATASET STRUCTURED_POINTS
DIMENSIONS    128   128   1

ORIGIN    0.000   0.000   0.000
SPACING   0.0156250.015625   1.000

POINT_DATA   16384
SCALARS uX double
LOOKUP_TABLE default

-1.025967e-01 -1.111270e-01 -1.133768e-01 -1.202941e-01 -1.214769e-01 -1.267299e-01 -1.268758e-01 -1.304389e-01 -1.295997e-01 -1.314768e-01 -1.297269e-01 -1.299551e-01 -1.273919e-01 -1.260443e-01 -1.227880e-01 -1.199749e-01 -1.161682e-01 -1.120379e-01 -1.078444e-01 -1.025823e-01 -9.818548e-02 -9.201303e-02 -8.761470e-02 -8.078757e-02 -7.660656e-02 -6.941202e-02 -6.568278e-02 -5.843649e-02 -5.540691e-02 -4.844824e-02 -4.637609e-02 -4.006130e-02 -3.920828e-02 -3.390052e-02 -3.452278e-02 -3.057797e-02 -3.291202e-02 -3.065971e-02 -3.490318e-02 -3.462210e-02 -4.090909e-02 -4.279768e-02 -5.116982e-02 -5.531330e-02 -6.568857e-02 -7.202539e-02 -8.416852e-02 -9.246069e-02 -1.059605e-01 -1.157735e-01 -1.300333e-01 -1.407326e-01 -1.549809e-01 -1.657501e-01 -1.790756e-01 -1.889611e-01 -2.003734e-01 -2.083536e-01 -2.168660e-01 -2.219387e-01 -2.266622e-01 -2.279397e-01 -2.281753e-01 -2.249740e-01 -2.202915e-01 -2.122063e-01 -2.025024e-01 -1.894622e-01 -1.749993e-01 -1.573063e-01 -1.387346e-01 -1.170887e-01 -9.545251e-02 -7.095524e-02 -4.767184e-02 -2.179015e-02 1.429358e-03 2.697232e-02 4.829377e-02 7.172830e-02 8.947205e-02 1.092797e-01 1.222618e-01 1.374830e-01 1.453080e-01 1.557346e-01 1.589102e-01 1.650773e-01 1.648872e-01 1.678824e-01 1.660475e-01 1.671870e-01 1.653588e-01 1.657241e-01 1.649210e-01 1.649296e-01 1.652733e-01 1.646107e-01 1.654826e-01 1.633202e-01 1.636935e-01 1.590897e-01 1.578946e-01 1.501850e-01 1.467498e-01 1.358897e-01 1.302937e-01 1.168921e-01 1.096764e-01 9.455976e-02 8.633318e-02 7.025257e-02 6.153696e-02 4.509855e-02 3.631570e-02 1.999695e-02 1.148341e-02 -4.341864e-03 -1.232397e-02 -2.736503e-02 -3.461911e-02 -4.865015e-02 -5.503490e-02 -6.787867e-02 -7.329711e-02 -8.481166e-02 -8.920134e-02 -9.927090e-02 
-9.324544e-02 -1.011587e-01 -1.036308e-01 -1.100930e-01 -1.114608e-01 -1.164291e-01 -1.167195e-01 -1.201736e-01 -1.194364e-01 -1.213818e-01 -1.196901e-01 -1.201618e-01 -1.176129e-01 -1.166783e-01 -1.133933e-01 -1.111534e-01 -1.072766e-01 -1.038675e-01 -9.956499e-02 -9.515745e-02 -9.061570e-02 -8.541445e-02 -8.083884e-02 -7.508146e-02 -7.069472e-02 -6.464978e-02 -6.069042e-02 -5.465481e-02 -5.137492e-02 -4.566969e-02 -4.333126e-02 -3.829524e-02 -3.716416e-02 -3.314433e-02 -3.348082e-02 -3.081829e-02 -3.286280e-02 -3.187378e-02 -3.582766e-02 -3.677886e-02 -4.277974e-02 -4.585871e-02 -5.395148e-02 -5.923337e-02 -6.933896e-02 -7.675269e-02 -8.863839e-02 -9.793664e-02 -1.111933e-01 -1.219325e-01 -1.359652e-01 -1.475016e-01 -1.615400e-01 -1.730496e-01 -1.861832e-01 -1.967070e-01 -2.079472e-01 -2.164621e-01 -2.248252e-01 -2.303337e-01 -2.349361e-01 -2.365614e-01 -2.367120e-01 -2.337857e-01 -2.290626e-01 -2.211945e-01 -2.114998e-01 -1.986263e-01 -1.842193e-01 -1.666364e-01 -1.481522e-01 -1.265378e-01 -1.049934e-01 -8.041670e-02 -5.719362e-02 -3.109305e-02 -7.867096e-03 1.804108e-02 3.946316e-02 6.338001e-02 8.133416e-02 1.016767e-01 1.149810e-01 1.307116e-01 1.389511e-01 1.498075e-01 1.534293e-01 1.599482e-01 1.601269e-01 1.634525e-01 1.617954e-01 1.633167e-01 1.614358e-01 1.622811e-01 1.612404e-01 1.618680e-01 1.618884e-01 1.619900e-01 1.625207e-01 1.612838e-01 1.613216e-01 1.578010e-01 1.562579e-01 1.497464e-01 1.459218e-01 1.363245e-01 1.303267e-01 1.182449e-01 1.106408e-01 9.688456e-02 8.828291e-02 7.357618e-02 6.449143e-02 4.941542e-02 4.026592e-02 2.527775e-02 1.640107e-02 1.856510e-03 -6.481964e-03 -2.030987e-02 -2.790943e-02 -4.081279e-02 -4.752769e-02 -5.934710e-02 -6.507569e-02 -7.568638e-02 -8.036149e-02 -8.966359e-02 
-1.040310e-01 -1.125654e-01 -1.147837e-01 -1.217037e-01 -1.228530e-01 -1.281034e-01 -1.282115e-01 -1.317630e-01 -1.308799e-01 -1.327335e-01 -1.309322e-01 -1.311229e-01 -1.285003e-01 -1.270996e-01 -1.237757e-01 -1.208934e-01 -1.170110e-01 -1.127952e-01 -1.085182e-01 -1.031546e-01 -9.866680e-02 -9.237740e-02 -8.788067e-02 -8.092167e-02 -7.663490e-02 -6.929435e-02 -6.545195e-02 -5.804654e-02 -5.489665e-02 -4.776735e-02 -4.556862e-02 -3.907424e-02 -3.809036e-02 -3.259797e-02 -3.308863e-02 -2.895985e-02 -3.116706e-02 -2.873925e-02 -3.286829e-02 -3.243014e-02 -3.862484e-02 -4.038659e-02 -4.869980e-02 -5.275955e-02 -6.312087e-02 -6.942970e-02 -8.161420e-02 -8.994454e-02 -1.035479e-01 -1.134713e-01 -1.278980e-01 -1.387793e-01 -1.532515e-01 -1.642661e-01 -1.778583e-01 -1.880365e-01 -1.997379e-01 -2.080367e-01 -2.168372e-01 -2.222314e-01 -2.272204e-01 -2.288015e-01 -2.292633e-01 -2.263314e-01 -2.218252e-01 -2.139626e-01 -2.043780e-01 -1.915019e-01 -1.770927e-01 -1.594907e-01 -1.408955e-01 -1.192502e-01 -9.750166e-02 -7.290215e-02 -4.941773e-02 -2.333815e-02 1.406868e-04 2.593389e-02 4.749974e-02 7.115437e-02 8.902043e-02 1.089206e-01 1.218013e-01 1.369215e-01 1.443777e-01 1.545090e-01 1.570887e-01 1.628200e-01 1.619166e-01 1.644205e-01 1.619167e-01 1.626404e-01 1.603699e-01 1.605231e-01 1.595773e-01 1.595899e-01 1.600312e-01 1.595381e-01 1.606732e-01 1.587592e-01 1.595047e-01 1.551607e-01 1.543415e-01 1.468168e-01 1.436216e-01 1.328317e-01 1.274042e-01 1.140590e-01 1.070117e-01 9.197520e-02 8.391371e-02 6.792033e-02 5.934661e-02 4.298567e-02 3.431594e-02 1.805997e-02 9.635572e-03 -6.140920e-03 -1.405136e-02 -2.905632e-02 -3.625157e-02 -5.025832e-02 -5.659422e-02 -6.942448e-02 -7.480188e-02 -8.631188e-02 -9.066618e-02 -1.007373e-01 
-9.599336e-02 -1.039036e-01 -1.063162e-01 -1.127755e-01 -1.140791e-01 -1.190371e-01 -1.192539e-01 -1.226834e-01 -1.218593e-01 -1.237600e-01 -1.219658e-01 -1.223684e-01 -1.196999e-01 -1.186685e-01 -1.152467e-01 -1.128809e-01 -1.088505e-01 -1.052856e-01 -1.008134e-01 -9.622002e-02 -9.149335e-02 -8.607663e-02 -8.130119e-02 -7.529930e-02 -7.069795e-02 -6.438036e-02 -6.019170e-02 -5.385682e-02 -5.033349e-02 -4.430513e-02 -4.171093e-02 -3.633268e-02 -3.493744e-02 -3.056389e-02 -3.063489e-02 -2.761844e-02 -2.940705e-02 -2.807949e-02 -3.180226e-02 -3.245023e-02 -3.826408e-02 -4.109884e-02 -4.907090e-02 -5.419347e-02 -6.426771e-02 -7.163224e-02 -8.359643e-02 -9.297637e-02 -1.064350e-01 -1.173983e-01 -1.317584e-01 -1.436598e-01 -1.581382e-01 -1.701356e-01 -1.837931e-01 -1.948940e-01 -2.067004e-01 -2.158381e-01 -2.247629e-01 -2.308937e-01 -2.360107e-01 -2.382191e-01 -2.388067e-01 -2.363974e-01 -2.320171e-01 -2.245827e-01 -2.151277e-01 -2.025883e-01 -1.883063e-01 -1.709317e-01 -1.524356e-01 -1.308648e-01 -1.091446e-01 -8.440875e-02 -6.083874e-02 -3.437172e-02 -1.067894e-02 1.573313e-02 3.760311e-02 6.200035e-02 8.017627e-02 1.007641e-01 1.138739e-01 1.294492e-01 1.370119e-01 1.472810e-01 1.498329e-01 1.554403e-01 1.543299e-01 1.566255e-01 1.536978e-01 1.543630e-01 1.515697e-01 1.519557e-01 1.505263e-01 1.511395e-01 1.512639e-01 1.516578e-01 1.526583e-01 1.518883e-01 1.526585e-01 1.496771e-01 1.489044e-01 1.428194e-01 1.394673e-01 1.300504e-01 1.243976e-01 1.124749e-01 1.052297e-01 9.167525e-02 8.341989e-02 6.891722e-02 6.012203e-02 4.522218e-02 3.629842e-02 2.145384e-02 1.275246e-02 -1.676971e-03 -9.875955e-03 -2.361394e-02 -3.110007e-02 -4.393727e-02 -5.055890e-02 -6.233439e-02 -6.798545e-02 -7.857141e-02 -8.318018e-02 -9.247172e-02 
-1.083152e-01 -1.168667e-01 -1.189925e-01 -1.259253e-01 -1.269759e-01 -1.322225e-01 -1.322187e-01 -1.357390e-01 -1.347252e-01 -1.365111e-01 -1.345566e-01 -1.346367e-01 -1.318364e-01 -1.302781e-01 -1.267520e-01 -1.236632e-01 -1.195546e-01 -1.150834e-01 -1.105573e-01 -1.048905e-01 -1.001317e-01 -9.349270e-02 -8.870360e-02 -8.135050e-02 -7.674981e-02 -6.897277e-02 -6.479460e-02 -5.691316e-02 -5.340595e-02 -4.576545e-02 -4.318996e-02 -3.615629e-02 -3.478148e-02 -2.873286e-02 -2.882835e-02 -2.414291e-02 -2.596657e-02 -2.300452e-02 -2.678412e-02 -2.586365e-02 -3.177198e-02 -3.313873e-02 -4.126253e-02 -4.505369e-02 -5.535813e-02 -6.156352e-02 -7.385581e-02 -8.228050e-02 -9.617834e-02 -1.064134e-01 -1.213261e-01 -1.327361e-01 -1.478675e-01 -1.596028e-01 -1.739844e-01 -1.850269e-01 -1.975847e-01 -2.068258e-01 -2.164778e-01 -2.228220e-01 -2.285920e-01 -2.310693e-01 -2.321945e-01 -2.300598e-01 -2.260729e-01 -2.188775e-01 -2.096535e-01 -1.972854e-01 -1.830594e-01 -1.657662e-01 -1.471419e-01 -1.255514e-01 -1.035181e-01 -7.866935e-02 -5.462814e-02 -2.799871e-02 -3.763218e-03 2.276392e-02 4.507245e-02 6.939195e-02 8.764680e-02 1.078250e-01 1.204019e-01 1.351955e-01 1.415070e-01 1.507203e-01 1.514515e-01 1.558586e-01 1.527464e-01 1.537488e-01 1.491663e-01 1.486073e-01 1.450046e-01 1.445325e-01 1.431976e-01 1.432068e-01 1.439178e-01 1.438959e-01 1.457427e-01 1.445042e-01 1.463468e-01 1.427723e-01 1.431753e-01 1.362711e-01 1.338259e-01 1.232828e-01 1.184313e-01 1.053397e-01 9.889011e-02 8.416800e-02 7.665512e-02 6.095774e-02 5.282380e-02 3.670367e-02 2.837031e-02 1.230236e-02 4.139720e-03 -1.149181e-02 -1.919123e-02 -3.408906e-02 -4.111026e-02 -5.504575e-02 -6.123692e-02 -7.402920e-02 -7.928542e-02 -9.078525e-02 -9.503558e-02 -1.051157e-01 
-1.014492e-01 -1.093615e-01 -1.116605e-01 -1.181221e-01 -1.193020e-01 -1.242471e-01 -1.243205e-01 -1.277073e-01 -1.267126e-01 -1.285293e-01 -1.265322e-01 -1.268006e-01 -1.238948e-01 -1.226734e-01 -1.189796e-01 -1.163648e-01 -1.120292e-01 -1.081553e-01 -1.033466e-01 -9.838465e-02 -9.329179e-02 -8.744768e-02 -8.227735e-02 -7.579039e-02 -7.076549e-02 -6.390664e-02 -5.926540e-02 -5.233554e-02 -4.833090e-02 -4.165849e-02 -3.855677e-02 -3.249380e-02 -3.057150e-02 -2.548656e-02 -2.502375e-02 -2.129064e-02 -2.255932e-02 -2.053992e-02 -2.378619e-02 -2.380643e-02 -2.922543e-02 -3.154402e-02 -3.924790e-02 -4.401854e-02 -5.399883e-02 -6.122813e-02 -7.331596e-02 -8.282167e-02 -9.665158e-02 -1.080281e-01 -1.230141e-01 -1.356149e-01 -1.509493e-01 -1.638969e-01 -1.785818e-01 -1.908150e-01 -2.037336e-01 -2.140939e-01 -2.241176e-01 -2.314665e-01 -2.375821e-01 -2.409271e-01 -2.423562e-01 -2.409563e-01 -2.372386e-01 -2.306667e-01 -2.216937e-01 -2.098532e-01 -1.958632e-01 -1.789815e-01 -1.605459e-01 -1.391789e-01 -1.172165e-01 -9.229219e-02 -6.812619e-02 -4.102669e-02 -1.644751e-02 1.093803e-02 3.371728e-02 5.910401e-02 7.775477e-02 9.887145e-02 1.115719e-01 1.268239e-01 1.329468e-01 1.419798e-01 1.423123e-01 1.460308e-01 1.422909e-01 1.424523e-01 1.368738e-01 1.358059e-01 1.311632e-01 1.306321e-01 1.284086e-01 1.289922e-01 1.292418e-01 1.300954e-01 1.318592e-01 1.318394e-01 1.340311e-01 1.320991e-01 1.330958e-01 1.280495e-01 1.256886e-01 1.167178e-01 1.119266e-01 1.005134e-01 9.419046e-02 8.118913e-02 7.373027e-02 5.969525e-02 5.149952e-02 3.696205e-02 2.847888e-02 1.391849e-02 5.554156e-03 -8.647714e-03 -1.657677e-02 -3.013633e-02 -3.740134e-02 -5.010826e-02 -5.654807e-02 -6.823963e-02 -7.374056e-02 -8.428293e-02 -8.876450e-02 -9.804225e-02 
-1.153902e-01 -1.239845e-01 -1.259656e-01 -1.329337e-01 -1.338283e-01 -1.390816e-01 -1.388981e-01 -1.423773e-01 -1.411509e-01 -1.428328e-01 -1.406269e-01 -1.405292e-01 -1.374360e-01 -1.356200e-01 -1.317595e-01 -1.283307e-01 -1.238483e-01 -1.189554e-01 -1.140188e-01 -1.078507e-01 -1.026466e-01 -9.543002e-02 -9.016176e-02 -8.215780e-02 -7.704352e-02 -6.854545e-02 -6.381792e-02 -5.514901e-02 -5.105581e-02 -4.256730e-02 -3.937084e-02 -3.143858e-02 -2.941450e-02 -2.243321e-02 -2.186546e-02 -1.623864e-02 -1.740944e-02 -1.353353e-02 -1.670661e-02 -1.494778e-02 -2.034358e-02 -2.100639e-02 -2.876888e-02 -3.205707e-02 -4.221317e-02 -4.818428e-02 -6.059895e-02 -6.911712e-02 -8.345003e-02 -9.414422e-02 -1.098174e-01 -1.220558e-01 -1.382451e-01 -1.511383e-01 -1.668016e-01 -1.792477e-01 -1.931997e-01 -2.039750e-01 -2.150065e-01 -2.228935e-01 -2.299159e-01 -2.338436e-01 -2.360222e-01 -2.351822e-01 -2.320247e-01 -2.259377e-01 -2.173203e-01 -2.058498e-01 -1.919985e-01 -1.753396e-01 -1.568056e-01 -1.354870e-01 -1.131615e-01 -8.809866e-02 -6.329527e-02 -3.590393e-02 -1.048435e-02 1.721376e-02 4.080227e-02 6.626499e-02 8.526466e-02 1.059259e-01 1.180095e-01 1.321698e-01 1.364237e-01 1.439792e-01 1.414033e-01 1.435823e-01 1.365675e-01 1.350207e-01 1.267192e-01 1.239214e-01 1.181439e-01 1.167542e-01 1.149844e-01 1.148982e-01 1.159217e-01 1.165299e-01 1.191493e-01 1.186664e-01 1.221432e-01 1.197036e-01 1.225488e-01 1.170007e-01 1.159230e-01 1.059967e-01 1.024788e-01 9.019286e-02 8.509923e-02 7.114671e-02 6.469380e-02 4.956634e-02 4.217472e-02 2.645956e-02 1.865838e-02 2.895228e-03 -4.855554e-03 -2.024991e-02 -2.761190e-02 -4.233324e-02 -4.907297e-02 -6.289343e-02 -6.885077e-02 -8.158714e-02 -8.664949e-02 -9.814336e-02 -1.022295e-01 -1.123381e-01 
-1.095280e-01 -1.174639e-01 -1.196071e-01 -1.260925e-01 -1.270999e-01 -1.320441e-01 -1.319129e-01 -1.352521e-01 -1.340093e-01 -1.357134e-01 -1.334177e-01 -1.334956e-01 -1.302378e-01 -1.287400e-01 -1.246420e-01 -1.216613e-01 -1.168723e-01 -1.125424e-01 -1.072353e-01 -1.017286e-01 -9.609556e-02 -8.961986e-02 -8.386916e-02 -7.666545e-02 -7.101955e-02 -6.336028e-02 -5.805559e-02 -5.024389e-02 -4.553176e-02 -3.790085e-02 -3.404868e-02 -2.696040e-02 -2.425152e-02 -1.809233e-02 -1.682262e-02 -1.199523e-02 -1.246457e-02 -9.373250e-03 -1.186963e-02 -1.089746e-02 -1.567237e-02 -1.714912e-02 -2.438324e-02 -2.854376e-02 -3.830351e-02 -4.523792e-02 -5.742557e-02 -6.702534e-02 -8.132848e-02 -9.323591e-02 -1.090865e-01 -1.226599e-01 -1.392173e-01 -1.535282e-01 -1.697038e-01 -1.835823e-01 -1.981192e-01 -2.102577e-01 -2.218667e-01 -2.309730e-01 -2.385028e-01 -2.434695e-01 -2.460655e-01 -2.461026e-01 -2.433023e-01 -2.379921e-01 -2.297295e-01 -2.189967e-01 -2.055378e-01 -1.895798e-01 -1.714483e-01 -1.506913e-01 -1.286623e-01 -1.038156e-01 -7.903832e-02 -5.128565e-02 -2.552484e-02 3.208392e-03 2.738812e-02 5.434234e-02 7.381119e-02 9.584467e-02 1.078712e-01 1.225927e-01 1.262551e-01 1.332248e-01 1.299923e-01 1.307189e-01 1.230329e-01 1.198496e-01 1.100287e-01 1.065058e-01 9.922442e-02 9.738144e-02 9.395526e-02 9.453406e-02 9.468296e-02 9.575598e-02 9.793047e-02 9.828207e-02 1.022115e-01 1.014865e-01 1.058955e-01 1.031473e-01 1.024036e-01 9.452358e-02 9.180429e-02 8.184694e-02 7.750271e-02 6.566785e-02 5.957061e-02 4.629350e-02 3.896525e-02 2.494571e-02 1.706169e-02 2.905738e-03 -4.994119e-03 -1.886150e-02 -2.640720e-02 -3.970044e-02 -4.664659e-02 -5.916202e-02 -6.534057e-02 -7.691589e-02 -8.220460e-02 -9.269671e-02 -9.700206e-02 -1.062780e-01 
-1.251511e-01 -1.338367e-01 -1.356356e-01 -1.426839e-01 -1.433779e-01 -1.486680e-01 -1.482477e-01 -1.516926e-01 -1.501796e-01 -1.517343e-01 -1.491842e-01 -1.488515e-01 -1.453539e-01 -1.431874e-01 -1.388641e-01 -1.349675e-01 -1.299684e-01 -1.244928e-01 -1.189908e-01 -1.121301e-01 -1.063160e-01 -9.830214e-02 -9.238079e-02 -8.347941e-02 -7.766755e-02 -6.817541e-02 -6.270213e-02 -5.294584e-02 -4.805462e-02 -3.839058e-02 -3.434233e-02 -2.515643e-02 -2.223158e-02 -1.393706e-02 -1.243471e-02 -5.465918e-03 -5.697751e-03 -4.976006e-04 -2.773987e-03 2.271686e-04 -4.379115e-03 -3.963239e-03 -1.112461e-02 -1.359335e-02 -2.342804e-02 -2.894009e-02 -4.140269e-02 -4.991492e-02 -6.473551e-02 -7.594192e-02 -9.257190e-02 -1.058561e-01 -1.234384e-01 -1.378593e-01 -1.552452e-01 -1.695773e-01 -1.854108e-01 -1.982541e-01 -2.111279e-01 -2.210798e-01 -2.297360e-01 -2.355842e-01 -2.391012e-01 -2.399743e-01 -2.378674e-01 -2.332919e-01 -2.255004e-01 -2.153630e-01 -2.021580e-01 -1.866240e-01 -1.685090e-01 -1.479675e-01 -1.256552e-01 -1.007704e-01 -7.532128e-02 -4.726177e-02 -2.041629e-02 8.766377e-03 3.422335e-02 6.137936e-02 8.168446e-02 1.030924e-01 1.145505e-01 1.275422e-01 1.284950e-01 1.332840e-01 1.254754e-01 1.245997e-01 1.117447e-01 1.067530e-01 9.268734e-02 8.660632e-02 7.827700e-02 7.637024e-02 7.486085e-02 7.415449e-02 7.501669e-02 7.615709e-02 7.840889e-02 7.765856e-02 8.238644e-02 8.050522e-02 8.778119e-02 8.519186e-02 8.657599e-02 7.863455e-02 7.853004e-02 6.853410e-02 6.613309e-02 5.361189e-02 4.872081e-02 3.436295e-02 2.788193e-02 1.265889e-02 5.493627e-03 -9.877837e-03 -1.710860e-02 -3.217714e-02 -3.909184e-02 -5.356617e-02 -5.992633e-02 -7.359223e-02 -7.923665e-02 -9.191090e-02 -9.671945e-02 -1.082294e-01 -1.121061e-01 -1.222839e-01 
-1.200931e-01 -1.281005e-01 -1.300642e-01 -1.366205e-01 -1.374225e-01 -1.424010e-01 -1.420170e-01 -1.453229e-01 -1.437640e-01 -1.453427e-01 -1.426588e-01 -1.425021e-01 -1.387822e-01 -1.369312e-01 -1.323004e-01 -1.288450e-01 -1.234594e-01 -1.185349e-01 -1.125751e-01 -1.063576e-01 -1.000218e-01 -9.272269e-02 -8.622183e-02 -7.808459e-02 -7.163974e-02 -6.293759e-02 -5.678044e-02 -4.781680e-02 -4.219273e-02 -3.330309e-02 -2.847584e-02 -2.002984e-02 -1.628573e-02 -8.687594e-03 -6.337076e-03 -2.175548e-05 6.044840e-04 5.181901e-03 3.745093e-03 6.129461e-03 2.305740e-03 2.073736e-03 -4.409908e-03 -7.604450e-03 -1.692023e-02 -2.328728e-02 -3.544374e-02 -4.498689e-02 -5.975806e-02 -7.220051e-02 -8.905832e-02 -1.037800e-01 -1.218499e-01 -1.378595e-01 -1.559276e-01 -1.718995e-01 -1.884999e-01 -2.029011e-01 -2.164976e-01 -2.278019e-01 -2.370363e-01 -2.439751e-01 -2.479044e-01 -2.496596e-01 -2.478791e-01 -2.441265e-01 -2.367238e-01 -2.275192e-01 -2.148960e-01 -2.004819e-01 -1.831529e-01 -1.638036e-01 -1.423051e-01 -1.183359e-01 -9.339402e-02 -6.547341e-02 -3.852787e-02 -8.322655e-03 1.778167e-02 4.699458e-02 6.785418e-02 9.144768e-02 1.024722e-01 1.163698e-01 1.158509e-01 1.194043e-01 1.106911e-01 1.070468e-01 9.463613e-02 8.676412e-02 7.072419e-02 6.528497e-02 5.587441e-02 5.239288e-02 4.715703e-02 4.813693e-02 4.725079e-02 4.716218e-02 4.771039e-02 4.640258e-02 5.077111e-02 4.949526e-02 5.963942e-02 6.189758e-02 6.462400e-02 6.068136e-02 6.379140e-02 5.750847e-02 5.670845e-02 4.658626e-02 4.212400e-02 2.962138e-02 2.315280e-02 9.664812e-03 2.406565e-03 -1.126045e-02 -1.861408e-02 -3.203635e-02 -3.909936e-02 -5.203181e-02 -5.857023e-02 -7.083569e-02 -7.668576e-02 -8.812554e-02 -9.315643e-02 -1.036122e-01 -1.077115e-01 -1.170223e-01 
-1.374380e-01 -1.462980e-01 -1.478988e-01 -1.551046e-01 -1.555721e-01 -1.609581e-01 -1.602581e-01 -1.636992e-01 -1.618359e-01 -1.632583e-01 -1.602779e-01 -1.596660e-01 -1.556570e-01 -1.530562e-01 -1.481456e-01 -1.436604e-01 -1.380072e-01 -1.317951e-01 -1.255820e-01 -1.178464e-01 -1.112717e-01 -1.022533e-01 -9.552479e-02 -8.549575e-02 -7.882733e-02 -6.808765e-02 -6.170076e-02 -5.057806e-02 -4.470605e-02 -3.355818e-02 -2.845328e-02 -1.767213e-02 -1.361283e-02 -3.627370e-03 -9.234865e-04 7.800908e-03 8.808539e-03 1.577734e-02 1.472574e-02 1.943240e-02 1.595724e-02 1.791321e-02 1.168450e-02 1.046486e-02 1.239905e-03 -3.453945e-03 -1.575989e-02 -2.402150e-02 -3.925054e-02 -5.088013e-02 -6.854442e-02 -8.296684e-02 -1.021820e-01 -1.183990e-01 -1.378747e-01 -1.544909e-01 -1.726211e-01 -1.879773e-01 -2.030531e-01 -2.154720e-01 -2.259866e-01 -2.340662e-01 -2.390038e-01 -2.418372e-01 -2.408046e-01 -2.380192e-01 -2.311583e-01 -2.227836e-01 -2.105449e-01 -1.968089e-01 -1.797152e-01 -1.608702e-01 -1.393790e-01 -1.156690e-01 -9.030112e-02 -6.227394e-02 -3.421094e-02 -3.542985e-03 2.436865e-02 5.390468e-02 7.651462e-02 9.916524e-02 1.101435e-01 1.209270e-01 1.166091e-01 1.162909e-01 1.000341e-01 9.546746e-02 7.469912e-02 6.634364e-02 4.382649e-02 3.332306e-02 2.459211e-02 2.557975e-02 2.684904e-02 2.329394e-02 2.083800e-02 2.254084e-02 2.096848e-02 1.641242e-02 1.897362e-02 1.400770e-02 2.529419e-02 2.662978e-02 3.811030e-02 3.994536e-02 4.923331e-02 4.395981e-02 4.525359e-02 3.402817e-02 3.037220e-02 1.643943e-02 1.060922e-02 -4.212043e-03 -1.077924e-02 -2.568774e-02 -3.231930e-02 -4.695248e-02 -5.331246e-02 -6.745703e-02 -7.334446e-02 -8.682145e-02 -9.208696e-02 -1.047125e-01 -1.092269e-01 -1.208038e-01 -1.244485e-01 -1.347700e-01 
-1.329454e-01 -1.411103e-01 -1.428970e-01 -1.496070e-01 -1.501926e-01 -1.552728e-01 -1.546041e-01 -1.579178e-01 -1.559861e-01 -1.574472e-01 -1.542925e-01 -1.538724e-01 -1.495840e-01 -1.473147e-01 -1.420258e-01 -1.379969e-01 -1.318768e-01 -1.262297e-01 -1.194725e-01 -1.123914e-01 -1.052062e-01 -9.690970e-02 -8.951206e-02 -8.024722e-02 -7.285547e-02 -6.289478e-02 -5.573111e-02 -4.537417e-02 -3.867044e-02 -2.824895e-02 -2.225589e-02 -1.214063e-02 -7.138181e-03 2.254651e-03 5.948949e-03 1.415495e-02 1.618298e-02 2.269394e-02 2.266312e-02 2.694208e-02 2.444443e-02 2.595522e-02 2.060295e-02 1.885757e-02 1.033863e-02 4.965358e-03 -6.879304e-03 -1.604657e-02 -3.112602e-02 -4.394199e-02 -6.180892e-02 -7.771057e-02 -9.747024e-02 -1.154027e-01 -1.356812e-01 -1.541076e-01 -1.731373e-01 -1.901887e-01 -2.060546e-01 -2.198436e-01 -2.308693e-01 -2.398954e-01 -2.450357e-01 -2.485025e-01 -2.475334e-01 -2.453823e-01 -2.387647e-01 -2.314070e-01 -2.199092e-01 -2.078251e-01 -1.920973e-01 -1.754754e-01 -1.557489e-01 -1.343213e-01 -1.105014e-01 -8.387186e-02 -5.639523e-02 -2.522646e-02 3.285720e-03 3.555812e-02 5.895402e-02 8.541485e-02 9.529068e-02 1.081262e-01 9.999358e-02 9.729630e-02 7.893175e-02 6.835631e-02 5.264662e-02 3.762950e-02 1.226638e-02 1.188736e-02 9.372167e-03 1.762362e-03 -1.114847e-02 -2.954094e-03 -1.073890e-02 -1.755754e-02 -2.170193e-02 -2.893800e-02 -3.090015e-02 -3.421859e-02 -3.040483e-02 -3.097002e-02 3.100702e-03 2.051977e-02 3.728542e-02 3.564190e-02 3.743762e-02 2.743474e-02 2.328396e-02 1.074477e-02 4.592055e-03 -8.503309e-03 -1.521471e-02 -2.827090e-02 -3.499096e-02 -4.780750e-02 -5.427618e-02 -6.673130e-02 -7.277609e-02 -8.473788e-02 -9.020913e-02 -1.015168e-01 -1.062694e-01 -1.167355e-01 -1.206276e-01 -1.300477e-01 
-1.520251e-01 -1.611907e-01 -1.626072e-01 -1.700922e-01 -1.703317e-01 -1.759108e-01 -1.749067e-01 -1.784050e-01 -1.761399e-01 -1.774471e-01 -1.739573e-01 -1.730367e-01 -1.684128e-01 -1.653036e-01 -1.596839e-01 -1.544962e-01 -1.480568e-01 -1.409621e-01 -1.339032e-01 -1.251216e-01 -1.176548e-01 -1.074418e-01 -9.978016e-02 -8.841740e-02 -8.077058e-02 -6.856049e-02 -6.113628e-02 -4.840300e-02 -4.141482e-02 -2.851003e-02 -2.218918e-02 -9.501408e-03 -4.111327e-03 7.924132e-03 1.207479e-02 2.296872e-02 2.551805e-02 3.472683e-02 3.526081e-02 4.219677e-02 4.026411e-02 4.432113e-02 3.946655e-02 4.006557e-02 3.188650e-02 2.854571e-02 1.677692e-02 9.209615e-03 -6.163067e-03 -1.792503e-02 -3.653024e-02 -5.200236e-02 -7.295512e-02 -9.109297e-02 -1.129288e-01 -1.321129e-01 -1.528656e-01 -1.710567e-01 -1.885518e-01 -2.036551e-01 -2.160003e-01 -2.263499e-01 -2.324330e-01 -2.371523e-01 -2.368388e-01 -2.358410e-01 -2.297313e-01 -2.234087e-01 -2.123824e-01 -2.012256e-01 -1.860159e-01 -1.702669e-01 -1.510954e-01 -1.304694e-01 -1.069614e-01 -8.080090e-02 -5.274505e-02 -2.138213e-02 9.247430e-03 4.200539e-02 6.873351e-02 9.396863e-02 1.058077e-01 1.127776e-01 1.002103e-01 8.867604e-02 5.655897e-02 4.670598e-02 1.483379e-02 6.584239e-03 -2.619588e-02 -4.651432e-02 -3.521644e-02 -1.704069e-02 -2.209315e-02 -2.861668e-02 -2.737912e-02 -3.433358e-02 -3.271501e-02 -2.901951e-02 -2.751017e-02 -2.243171e-02 -2.313486e-02 -2.285011e-02 1.587869e-02 2.640914e-02 3.914178e-02 3.053712e-02 2.956440e-02 1.568726e-02 1.081473e-02 -3.795277e-03 -9.607009e-03 -2.406441e-02 -3.003130e-02 -4.426189e-02 -5.014341e-02 -6.414664e-02 -6.981136e-02 -8.351858e-02 -8.884109e-02 -1.021085e-01 -1.069501e-01 -1.195752e-01 -1.237856e-01 -1.355254e-01 -1.389494e-01 -1.495377e-01 
-1.478118e-01 -1.562717e-01 -1.579182e-01 -1.649124e-01 -1.652986e-01 -1.705883e-01 -1.696237e-01 -1.730193e-01 -1.706707e-01 -1.720468e-01 -1.683449e-01 -1.676501e-01 -1.626887e-01 -1.599478e-01 -1.538767e-01 -1.491854e-01 -1.421968e-01 -1.357103e-01 -1.280221e-01 -1.199409e-01 -1.117805e-01 -1.023364e-01 -9.392754e-02 -8.337336e-02 -7.493026e-02 -6.353566e-02 -5.526414e-02 -4.331827e-02 -3.542504e-02 -2.324547e-02 -1.595327e-02 -3.899181e-03 2.534994e-03 1.404848e-02 1.931578e-02 2.980597e-02 3.353315e-02 4.244520e-02 4.419173e-02 5.090566e-02 5.017540e-02 5.402978e-02 5.030268e-02 5.064030e-02 4.343000e-02 3.967197e-02 2.861574e-02 2.036970e-02 5.354989e-03 -7.440530e-03 -2.611726e-02 -4.302372e-02 -6.449088e-02 -8.441472e-02 -1.071144e-01 -1.282477e-01 -1.499847e-01 -1.699594e-01 -1.882264e-01 -2.045747e-01 -2.171742e-01 -2.280252e-01 -2.337742e-01 -2.384386e-01 -2.375102e-01 -2.365039e-01 -2.301166e-01 -2.245927e-01 -2.142890e-01 -2.053232e-01 -1.922246e-01 -1.801863e-01 -1.643173e-01 -1.483219e-01 -1.283055e-01 -1.061599e-01 -8.020540e-02 -5.011422e-02 -1.916772e-02 1.667318e-02 4.491520e-02 7.706009e-02 8.721010e-02 1.002599e-01 7.829952e-02 6.387582e-02 2.300534e-02 -2.561864e-03 -1.649585e-02 -5.481935e-02 -8.738234e-02 -6.673029e-02 -6.359585e-02 -6.574002e-02 -3.995094e-02 -1.404910e-02 -1.931238e-03 2.756825e-02 4.078723e-02 5.552715e-02 6.430724e-02 6.966454e-02 7.608080e-02 7.385599e-02 8.220589e-02 6.051875e-02 5.271833e-02 3.266301e-02 2.470172e-02 8.933923e-03 2.117873e-03 -1.127293e-02 -1.747620e-02 -2.986067e-02 -3.582557e-02 -4.786307e-02 -5.371629e-02 -6.564701e-02 -7.136387e-02 -8.320026e-02 -8.867242e-02 -1.002982e-01 -1.053710e-01 -1.165922e-01 -1.210859e-01 -1.316600e-01 -1.353850e-01 -1.450417e-01 
-1.686094e-01 -1.782753e-01 -1.795590e-01 -1.875020e-01 -1.875422e-01 -1.934598e-01 -1.921487e-01 -1.958026e-01 -1.930966e-01 -1.943320e-01 -1.902586e-01 -1.890158e-01 -1.836735e-01 -1.799897e-01 -1.735387e-01 -1.675393e-01 -1.601850e-01 -1.520676e-01 -1.440399e-01 -1.340535e-01 -1.255869e-01 -1.140113e-01 -1.053288e-01 -9.245994e-02 -8.376531e-02 -6.990705e-02 -6.138632e-02 -4.685238e-02 -3.868509e-02 -2.380883e-02 -1.618676e-02 -1.337378e-03 5.512242e-03 1.991075e-02 2.570174e-02 3.915321e-02 4.352122e-02 5.544614e-02 5.793875e-02 6.767437e-02 6.775595e-02 7.457317e-02 7.165068e-02 7.479441e-02 6.827230e-02 6.703371e-02 5.640794e-02 5.023852e-02 3.524009e-02 2.391505e-02 4.705567e-03 -1.146949e-02 -3.407266e-02 -5.405244e-02 -7.839645e-02 -1.002844e-01 -1.238926e-01 -1.450879e-01 -1.650449e-01 -1.827868e-01 -1.965570e-01 -2.087786e-01 -2.151438e-01 -2.211353e-01 -2.205403e-01 -2.208292e-01 -2.147565e-01 -2.104149e-01 -2.005253e-01 -1.925963e-01 -1.801899e-01 -1.692645e-01 -1.546273e-01 -1.401281e-01 -1.218168e-01 -1.012754e-01 -7.649721e-02 -4.713588e-02 -1.499830e-02 2.142885e-02 5.479544e-02 8.612421e-02 1.039000e-01 1.069906e-01 8.546177e-02 4.879201e-02 -1.654522e-02 -4.191907e-02 -1.108715e-01 -1.287448e-01 -6.288575e-02 -2.270863e-02 -2.350703e-02 4.859537e-02 6.728073e-02 1.022455e-01 1.157476e-01 1.256108e-01 1.279004e-01 1.238364e-01 1.300411e-01 1.172519e-01 1.320351e-01 1.137830e-01 1.161981e-01 6.976356e-02 4.975297e-02 2.078310e-02 9.827417e-03 -8.387198e-03 -1.496984e-02 -2.923114e-02 -3.437488e-02 -4.747114e-02 -5.227043e-02 -6.520591e-02 -6.998831e-02 -8.304988e-02 -8.783819e-02 -1.010005e-01 -1.056872e-01 -1.187700e-01 -1.231859e-01 -1.359211e-01 -1.398664e-01 -1.519324e-01 -1.551947e-01 -1.662402e-01 
-1.643343e-01 -1.732929e-01 -1.748785e-01 -1.823465e-01 -1.825835e-01 -1.882413e-01 -1.869923e-01 -1.905833e-01 -1.877863e-01 -1.891379e-01 -1.848154e-01 -1.838520e-01 -1.781105e-01 -1.748552e-01 -1.678736e-01 -1.624386e-01 -1.544480e-01 -1.470159e-01 -1.382735e-01 -1.290741e-01 -1.198377e-01 -1.091257e-01 -9.963383e-02 -8.767235e-02 -7.813356e-02 -6.518705e-02 -5.578183e-02 -4.211971e-02 -3.301345e-02 -1.892382e-02 -1.028942e-02 3.899880e-03 1.185362e-02 2.575058e-02 3.274960e-02 4.587491e-02 5.155474e-02 6.332525e-02 6.721571e-02 7.693987e-02 7.846528e-02 8.535630e-02 8.385781e-02 8.707178e-02 8.186031e-02 8.056880e-02 7.102053e-02 6.453117e-02 5.024034e-02 3.817980e-02 1.917985e-02 1.744317e-03 -2.121483e-02 -4.297347e-02 -6.816394e-02 -9.212641e-02 -1.167697e-01 -1.398332e-01 -1.604798e-01 -1.792044e-01 -1.927440e-01 -2.045920e-01 -2.095978e-01 -2.141218e-01 -2.115436e-01 -2.103831e-01 -2.028272e-01 -1.984532e-01 -1.888218e-01 -1.833868e-01 -1.738549e-01 -1.684721e-01 -1.593589e-01 -1.530415e-01 -1.414936e-01 -1.296875e-01 -1.099479e-01 -8.626617e-02 -5.472783e-02 -1.711576e-02 1.931822e-02 6.149044e-02 7.856497e-02 9.970754e-02 5.945033e-02 3.321955e-02 -6.235249e-02 -1.132542e-01 -1.550708e-01 -9.363623e-02 -7.445897e-02 -1.919612e-02 5.077047e-02 1.252955e-01 1.288127e-01 1.136422e-01 1.108972e-01 8.331928e-02 7.993211e-02 5.630077e-02 6.203352e-02 3.946776e-02 5.301653e-02 3.143088e-02 5.224118e-02 2.287628e-02 1.342837e-02 -6.056442e-03 -1.299617e-02 -2.566951e-02 -3.046458e-02 -4.074718e-02 -4.494453e-02 -5.482236e-02 -5.911707e-02 -6.931717e-02 -7.389404e-02 -8.459060e-02 -8.939636e-02 -1.005113e-01 -1.053820e-01 -1.167086e-01 -1.214252e-01 -1.326810e-01 -1.369962e-01 -1.478501e-01 -1.515048e-01 -1.615962e-01 