# vtk DataFile Version 2.0
Comment goes here
ASCII

DATASET STRUCTURED_POINTS
DIMENSIONS    128   128   1

ORIGIN    0.000   0.000   0.000
SPACING   0.0156250.015625   1.000

POINT_DATA   16384
SCALARS uX double
LOOKUP_TABLE default

2.032365e-01 1.972995e-01 1.960748e-01 1.898434e-01 1.875843e-01 1.809731e-01 1.776691e-01 1.706418e-01 1.663249e-01 1.588877e-01 1.536256e-01 1.458179e-01 1.397051e-01 1.315894e-01 1.247359e-01 1.163853e-01 1.089047e-01 1.003894e-01 9.238469e-02 8.375790e-02 7.530703e-02 6.659043e-02 5.773185e-02 4.890175e-02 3.962099e-02 3.059610e-02 2.081425e-02 1.144625e-02 1.011930e-03 -8.919823e-03 -2.023346e-02 -3.102121e-02 -4.351263e-02 -5.551175e-02 -6.953838e-02 -8.314922e-02 -9.910416e-02 -1.147428e-01 -1.330198e-01 -1.510769e-01 -1.720233e-01 -1.928120e-01 -2.166716e-01 -2.403664e-01 -2.672154e-01 -2.937879e-01 -3.234708e-01 -3.526290e-01 -3.847043e-01 -4.158462e-01 -4.495504e-01 -4.817425e-01 -5.159863e-01 -5.479764e-01 -5.813791e-01 -6.116492e-01 -6.426138e-01 -6.694715e-01 -6.962942e-01 -7.179901e-01 -7.389894e-01 -7.538436e-01 -7.674886e-01 -7.740067e-01 -7.790293e-01 -7.759958e-01 -7.714792e-01 -7.580299e-01 -7.434812e-01 -7.191702e-01 -6.945895e-01 -6.594679e-01 -6.254254e-01 -5.801426e-01 -5.378539e-01 -4.837639e-01 -4.351316e-01 -3.743590e-01 -3.219303e-01 -2.573391e-01 -2.041429e-01 -1.391611e-01 -8.842458e-02 -2.671390e-02 1.851775e-02 7.353631e-02 1.108661e-01 1.566099e-01 1.848319e-01 2.201663e-01 2.397158e-01 2.652275e-01 2.780737e-01 2.955561e-01 3.041877e-01 3.154868e-01 3.216653e-01 3.278240e-01 3.324348e-01 3.334776e-01 3.366312e-01 3.322543e-01 3.336390e-01 3.239967e-01 3.234926e-01 3.097356e-01 3.079546e-01 2.921497e-01 2.901593e-01 2.743233e-01 2.729864e-01 2.584432e-01 2.581449e-01 2.454743e-01 2.461977e-01 2.354560e-01 2.369556e-01 2.279124e-01 2.298522e-01 2.221545e-01 2.241889e-01 2.174572e-01 2.192710e-01 2.131483e-01 2.144727e-01 2.086479e-01 2.092670e-01 2.034848e-01 
2.212590e-01 2.162950e-01 2.147874e-01 2.092627e-01 2.067658e-01 2.005826e-01 1.970892e-01 1.902041e-01 1.857484e-01 1.781659e-01 1.728166e-01 1.645809e-01 1.584323e-01 1.496161e-01 1.427773e-01 1.334694e-01 1.260515e-01 1.163430e-01 1.084454e-01 9.841377e-02 9.010963e-02 7.980378e-02 7.112563e-02 6.055073e-02 5.147702e-02 4.058124e-02 3.102503e-02 1.968917e-02 9.490231e-03 -2.478240e-03 -1.355612e-02 -2.642280e-02 -3.868760e-02 -5.278283e-02 -6.660117e-02 -8.230169e-02 -9.807494e-02 -1.157742e-01 -1.339028e-01 -1.539693e-01 -1.748050e-01 -1.975292e-01 -2.213173e-01 -2.468503e-01 -2.736649e-01 -3.019536e-01 -3.316337e-01 -3.623610e-01 -3.944554e-01 -4.269950e-01 -4.607282e-01 -4.941252e-01 -5.283944e-01 -5.613825e-01 -5.947946e-01 -6.258535e-01 -6.568038e-01 -6.842548e-01 -7.110400e-01 -7.331663e-01 -7.541162e-01 -7.692875e-01 -7.828929e-01 -7.896734e-01 -7.946922e-01 -7.919192e-01 -7.874544e-01 -7.742927e-01 -7.598508e-01 -7.358444e-01 -7.113945e-01 -6.765407e-01 -6.425907e-01 -5.974525e-01 -5.551368e-01 -5.009757e-01 -4.521166e-01 -3.909948e-01 -3.380798e-01 -2.728612e-01 -2.188906e-01 -1.530821e-01 -1.012906e-01 -3.870231e-02 7.804200e-03 6.358014e-02 1.022514e-01 1.485210e-01 1.778783e-01 2.135468e-01 2.337112e-01 2.595639e-01 2.723678e-01 2.904027e-01 2.985425e-01 3.106998e-01 3.162980e-01 3.236305e-01 3.277263e-01 3.302708e-01 3.329692e-01 3.303862e-01 3.313162e-01 3.236649e-01 3.226630e-01 3.110060e-01 3.087158e-01 2.951221e-01 2.926582e-01 2.791264e-01 2.773547e-01 2.651539e-01 2.644385e-01 2.540877e-01 2.543942e-01 2.459013e-01 2.469780e-01 2.400763e-01 2.415901e-01 2.358982e-01 2.375108e-01 2.326241e-01 2.340287e-01 2.295664e-01 2.305028e-01 2.261306e-01 2.263906e-01 2.218310e-01 
2.036675e-01 1.978423e-01 1.966852e-01 1.905324e-01 1.883120e-01 1.817501e-01 1.784592e-01 1.714559e-01 1.671301e-01 1.596957e-01 1.544069e-01 1.465860e-01 1.404337e-01 1.322945e-01 1.253951e-01 1.170173e-01 1.094912e-01 1.009527e-01 9.291060e-02 8.427253e-02 7.580091e-02 6.709343e-02 5.823942e-02 4.944737e-02 4.020506e-02 3.125529e-02 2.155372e-02 1.230503e-02 1.999450e-03 -7.763369e-03 -1.889534e-02 -2.946170e-02 -4.171713e-02 -5.344307e-02 -6.718203e-02 -8.047300e-02 -9.609614e-02 -1.113784e-01 -1.292924e-01 -1.469723e-01 -1.675430e-01 -1.879542e-01 -2.114480e-01 -2.347893e-01 -2.613080e-01 -2.875764e-01 -3.169895e-01 -3.459166e-01 -3.778029e-01 -4.088038e-01 -4.424121e-01 -4.745605e-01 -5.088019e-01 -5.408407e-01 -5.743224e-01 -6.047176e-01 -6.358206e-01 -6.628567e-01 -6.898511e-01 -7.117560e-01 -7.329380e-01 -7.480168e-01 -7.618431e-01 -7.685985e-01 -7.738001e-01 -7.710231e-01 -7.666894e-01 -7.535236e-01 -7.391660e-01 -7.151621e-01 -6.907755e-01 -6.559624e-01 -6.221001e-01 -5.770865e-01 -5.349449e-01 -4.810392e-01 -4.325145e-01 -3.718126e-01 -3.194697e-01 -2.548408e-01 -2.017492e-01 -1.366664e-01 -8.610683e-02 -2.431814e-02 2.059265e-02 7.553369e-02 1.122877e-01 1.576344e-01 1.849034e-01 2.194307e-01 2.376778e-01 2.621252e-01 2.736541e-01 2.901786e-01 2.978889e-01 3.085930e-01 3.142154e-01 3.202234e-01 3.246432e-01 3.257475e-01 3.290542e-01 3.247323e-01 3.264736e-01 3.167382e-01 3.165849e-01 3.025986e-01 3.011808e-01 2.853045e-01 2.838038e-01 2.681745e-01 2.674330e-01 2.532971e-01 2.536090e-01 2.414231e-01 2.426998e-01 2.324333e-01 2.343988e-01 2.257792e-01 2.280956e-01 2.207573e-01 2.230901e-01 2.166550e-01 2.187024e-01 2.128202e-01 2.143255e-01 2.086925e-01 2.094488e-01 2.038157e-01 
2.223282e-01 2.176033e-01 2.162257e-01 2.108698e-01 2.084465e-01 2.023687e-01 1.988990e-01 1.920630e-01 1.875881e-01 1.800067e-01 1.746039e-01 1.663312e-01 1.601049e-01 1.512258e-01 1.442972e-01 1.349146e-01 1.274088e-01 1.176293e-01 1.096613e-01 9.957970e-02 9.123934e-02 8.092253e-02 7.225967e-02 6.173082e-02 5.274092e-02 4.196534e-02 3.257711e-02 2.145053e-02 1.151671e-02 -1.421477e-04 -1.084920e-02 -2.330013e-02 -3.508607e-02 -4.866090e-02 -6.189816e-02 -7.698421e-02 -9.208980e-02 -1.091015e-01 -1.265023e-01 -1.458397e-01 -1.659247e-01 -1.879199e-01 -2.109802e-01 -2.358326e-01 -2.619931e-01 -2.896998e-01 -3.188489e-01 -3.491377e-01 -3.808642e-01 -4.131401e-01 -4.466907e-01 -4.800095e-01 -5.142796e-01 -5.473604e-01 -5.809295e-01 -6.122154e-01 -6.434313e-01 -6.711951e-01 -6.983004e-01 -7.207820e-01 -7.420628e-01 -7.576108e-01 -7.715391e-01 -7.787266e-01 -7.840700e-01 -7.817660e-01 -7.776538e-01 -7.650541e-01 -7.510128e-01 -7.276608e-01 -7.036509e-01 -6.694904e-01 -6.359769e-01 -5.914655e-01 -5.495268e-01 -4.958023e-01 -4.472308e-01 -3.862673e-01 -3.335774e-01 -2.682333e-01 -2.145010e-01 -1.483835e-01 -9.693180e-02 -3.406481e-02 1.190323e-02 6.759001e-02 1.053441e-01 1.507570e-01 1.785182e-01 2.123917e-01 2.301236e-01 2.536905e-01 2.636994e-01 2.797610e-01 2.857151e-01 2.966709e-01 3.009840e-01 3.079676e-01 3.116443e-01 3.143015e-01 3.173258e-01 3.149179e-01 3.165963e-01 3.088613e-01 3.085710e-01 2.965105e-01 2.949646e-01 2.813021e-01 2.798593e-01 2.668230e-01 2.662776e-01 2.549545e-01 2.554737e-01 2.461326e-01 2.475425e-01 2.400256e-01 2.420222e-01 2.359873e-01 2.382400e-01 2.332852e-01 2.354806e-01 2.312063e-01 2.330661e-01 2.291046e-01 2.303928e-01 2.264235e-01 2.269498e-01 2.227066e-01 
2.050192e-01 1.995208e-01 1.985596e-01 1.926362e-01 1.905264e-01 1.841072e-01 1.808508e-01 1.739144e-01 1.695571e-01 1.621263e-01 1.567523e-01 1.488864e-01 1.426102e-01 1.343946e-01 1.273505e-01 1.188848e-01 1.112143e-01 1.025986e-01 9.443579e-02 8.575553e-02 7.721213e-02 6.852297e-02 5.967241e-02 5.098494e-02 4.184740e-02 3.311320e-02 2.364202e-02 1.474185e-02 4.812817e-03 -4.451580e-03 -1.504655e-02 -2.495517e-02 -3.650798e-02 -4.741791e-02 -6.029552e-02 -7.262650e-02 -8.725121e-02 -1.014594e-01 -1.182761e-01 -1.348141e-01 -1.542434e-01 -1.735069e-01 -1.958846e-01 -2.181459e-01 -2.436514e-01 -2.689860e-01 -2.975659e-01 -3.257775e-01 -3.570748e-01 -3.876324e-01 -4.209341e-01 -4.529343e-01 -4.871533e-01 -5.193237e-01 -5.530287e-01 -5.837833e-01 -6.152846e-01 -6.428330e-01 -6.703171e-01 -6.928133e-01 -7.145048e-01 -7.302069e-01 -7.445253e-01 -7.519304e-01 -7.576092e-01 -7.555380e-01 -7.516951e-01 -7.393276e-01 -7.254987e-01 -7.023890e-01 -6.785606e-01 -6.446772e-01 -6.113537e-01 -5.671811e-01 -5.254970e-01 -4.721977e-01 -4.240283e-01 -3.636027e-01 -3.115743e-01 -2.469042e-01 -1.942170e-01 -1.289079e-01 -7.899132e-02 -1.703027e-02 2.683012e-02 8.151872e-02 1.165151e-01 1.606677e-01 1.850336e-01 2.170593e-01 2.312152e-01 2.523041e-01 2.596656e-01 2.732069e-01 2.782527e-01 2.870773e-01 2.909440e-01 2.965819e-01 3.002685e-01 3.015836e-01 3.053203e-01 3.011790e-01 3.041573e-01 2.941899e-01 2.952436e-01 2.805196e-01 2.803471e-01 2.643705e-01 2.645385e-01 2.497157e-01 2.509053e-01 2.381225e-01 2.403198e-01 2.296403e-01 2.325685e-01 2.237278e-01 2.270552e-01 2.196837e-01 2.230897e-01 2.168015e-01 2.199944e-01 2.144238e-01 2.171453e-01 2.119642e-01 2.139928e-01 2.089192e-01 2.100737e-01 2.048766e-01 
2.245753e-01 2.203132e-01 2.191827e-01 2.141532e-01 2.118672e-01 2.059910e-01 2.025602e-01 1.958138e-01 1.912925e-01 1.837045e-01 1.781859e-01 1.698297e-01 1.634380e-01 1.544220e-01 1.473023e-01 1.377572e-01 1.300624e-01 1.201263e-01 1.120025e-01 1.018047e-01 9.337536e-02 8.301888e-02 7.436883e-02 6.391351e-02 5.507279e-02 4.451892e-02 3.544852e-02 2.472282e-02 1.530265e-02 4.247764e-03 -5.731019e-03 -1.736153e-02 -2.819800e-02 -4.073706e-02 -5.281327e-02 -6.666744e-02 -8.042987e-02 -9.605389e-02 -1.119811e-01 -1.298378e-01 -1.483928e-01 -1.688977e-01 -1.904646e-01 -2.139158e-01 -2.387242e-01 -2.652228e-01 -2.932640e-01 -3.226324e-01 -3.535805e-01 -3.852909e-01 -4.184411e-01 -4.515723e-01 -4.858171e-01 -5.190568e-01 -5.529158e-01 -5.846251e-01 -6.163408e-01 -6.446825e-01 -6.723762e-01 -6.954908e-01 -7.173511e-01 -7.335402e-01 -7.480012e-01 -7.558657e-01 -7.617274e-01 -7.602246e-01 -7.566936e-01 -7.451144e-01 -7.317839e-01 -7.097010e-01 -6.865316e-01 -6.537942e-01 -6.211639e-01 -5.780081e-01 -5.368671e-01 -4.841540e-01 -4.362259e-01 -3.757231e-01 -3.235952e-01 -2.581342e-01 -2.050721e-01 -1.384475e-01 -8.794403e-02 -2.457696e-02 2.008804e-02 7.561060e-02 1.115073e-01 1.551714e-01 1.798554e-01 2.098432e-01 2.225661e-01 2.411971e-01 2.450766e-01 2.570426e-01 2.584687e-01 2.669014e-01 2.684769e-01 2.748248e-01 2.773895e-01 2.802577e-01 2.838830e-01 2.818651e-01 2.853873e-01 2.776664e-01 2.791071e-01 2.661350e-01 2.664225e-01 2.528945e-01 2.539255e-01 2.422718e-01 2.444650e-01 2.351498e-01 2.382289e-01 2.309958e-01 2.345796e-01 2.290045e-01 2.327599e-01 2.284084e-01 2.320539e-01 2.285164e-01 2.318061e-01 2.287067e-01 2.314227e-01 2.284237e-01 2.303766e-01 2.271841e-01 2.282160e-01 2.245850e-01 
2.074387e-01 2.024592e-01 2.018041e-01 1.962437e-01 1.943033e-01 1.881061e-01 1.848946e-01 1.780557e-01 1.736336e-01 1.661949e-01 1.606655e-01 1.527094e-01 1.462112e-01 1.378512e-01 1.305479e-01 1.219162e-01 1.139839e-01 1.052174e-01 9.682925e-02 8.805376e-02 7.936378e-02 7.067778e-02 6.180372e-02 5.326142e-02 4.426784e-02 3.586315e-02 2.674541e-02 1.839734e-02 9.067549e-03 6.084894e-04 -9.114911e-03 -1.794639e-02 -2.834338e-02 -3.790276e-02 -4.934825e-02 -6.007570e-02 -7.302480e-02 -8.542314e-02 -1.003820e-01 -1.149794e-01 -1.324594e-01 -1.497549e-01 -1.702087e-01 -1.906003e-01 -2.143415e-01 -2.380408e-01 -2.651519e-01 -2.920914e-01 -3.223314e-01 -3.520779e-01 -3.848050e-01 -4.164985e-01 -4.506303e-01 -4.829709e-01 -5.170057e-01 -5.483090e-01 -5.804231e-01 -6.087541e-01 -6.369735e-01 -6.603429e-01 -6.827576e-01 -6.993354e-01 -7.143011e-01 -7.225860e-01 -7.288592e-01 -7.277539e-01 -7.245333e-01 -7.133251e-01 -7.002249e-01 -6.785190e-01 -6.555373e-01 -6.232265e-01 -5.907881e-01 -5.481397e-01 -5.072581e-01 -4.551540e-01 -4.076609e-01 -3.479073e-01 -2.965641e-01 -2.320614e-01 -1.803437e-01 -1.149279e-01 -6.650031e-02 -4.506352e-03 3.723744e-02 9.139038e-02 1.233420e-01 1.655020e-01 1.849595e-01 2.125805e-01 2.193191e-01 2.343132e-01 2.338571e-01 2.421825e-01 2.436048e-01 2.487797e-01 2.492196e-01 2.546267e-01 2.562369e-01 2.578348e-01 2.620011e-01 2.580428e-01 2.637284e-01 2.536537e-01 2.573709e-01 2.412604e-01 2.438602e-01 2.283132e-01 2.320338e-01 2.192585e-01 2.241089e-01 2.139796e-01 2.194179e-01 2.113636e-01 2.169541e-01 2.104514e-01 2.158973e-01 2.105128e-01 2.155881e-01 2.109517e-01 2.154590e-01 2.112452e-01 2.150015e-01 2.109233e-01 2.137614e-01 2.095715e-01 2.113466e-01 2.068407e-01 
2.281874e-01 2.245853e-01 2.237961e-01 2.192306e-01 2.171289e-01 2.115341e-01 2.081435e-01 2.015122e-01 1.969036e-01 1.892852e-01 1.835735e-01 1.750690e-01 1.684068e-01 1.591587e-01 1.517261e-01 1.419063e-01 1.338973e-01 1.236909e-01 1.152982e-01 1.048864e-01 9.628424e-02 8.582512e-02 7.715140e-02 6.676081e-02 5.809899e-02 4.783156e-02 3.919319e-02 2.902474e-02 2.033363e-02 1.014623e-02 1.225777e-03 -9.202663e-03 -1.863680e-02 -2.963595e-02 -3.997507e-02 -5.197544e-02 -6.370531e-02 -7.721805e-02 -9.089119e-02 -1.064709e-01 -1.226603e-01 -1.408482e-01 -1.600804e-01 -1.813276e-01 -2.039959e-01 -2.285689e-01 -2.548310e-01 -2.827064e-01 -3.123777e-01 -3.431413e-01 -3.756016e-01 -4.083739e-01 -4.425142e-01 -4.759307e-01 -5.101700e-01 -5.424465e-01 -5.748423e-01 -6.039403e-01 -6.323947e-01 -6.562690e-01 -6.787949e-01 -6.956607e-01 -7.106316e-01 -7.191557e-01 -7.254544e-01 -7.247926e-01 -7.218079e-01 -7.114841e-01 -6.989841e-01 -6.786969e-01 -6.566886e-01 -6.261840e-01 -5.949063e-01 -5.540570e-01 -5.142120e-01 -4.633756e-01 -4.165426e-01 -3.570889e-01 -3.060230e-01 -2.407114e-01 -1.891191e-01 -1.220262e-01 -7.373047e-02 -9.808899e-03 3.208906e-02 8.736759e-02 1.202817e-01 1.612340e-01 1.818503e-01 2.051097e-01 2.103638e-01 2.208797e-01 2.139284e-01 2.197408e-01 2.142805e-01 2.184361e-01 2.154018e-01 2.209346e-01 2.206199e-01 2.234229e-01 2.274252e-01 2.257119e-01 2.329944e-01 2.260866e-01 2.312020e-01 2.166126e-01 2.209899e-01 2.088300e-01 2.148642e-01 2.063845e-01 2.132824e-01 2.074912e-01 2.144570e-01 2.104740e-01 2.171181e-01 2.143507e-01 2.204880e-01 2.185026e-01 2.240078e-01 2.224447e-01 2.271965e-01 2.257356e-01 2.296054e-01 2.279564e-01 2.308148e-01 2.287197e-01 2.304476e-01 2.276864e-01 
2.111310e-01 2.068293e-01 2.065652e-01 2.014767e-01 1.997455e-01 1.938303e-01 1.906580e-01 1.839294e-01 1.793933e-01 1.719169e-01 1.661440e-01 1.580324e-01 1.511930e-01 1.425971e-01 1.348950e-01 1.259916e-01 1.176506e-01 1.086278e-01 9.987525e-02 9.091544e-02 8.196503e-02 7.322697e-02 6.425943e-02 5.585957e-02 4.700342e-02 3.899714e-02 3.030942e-02 2.267271e-02 1.412063e-02 6.733502e-03 -1.821657e-03 -9.188480e-03 -1.800310e-02 -2.569568e-02 -3.514813e-02 -4.362768e-02 -5.421144e-02 -6.403941e-02 -7.634049e-02 -8.814611e-02 -1.028003e-01 -1.172267e-01 -1.348531e-01 -1.524796e-01 -1.735891e-01 -1.948298e-01 -2.197115e-01 -2.446968e-01 -2.732923e-01 -3.017460e-01 -3.335315e-01 -3.646688e-01 -3.985759e-01 -4.310565e-01 -4.654718e-01 -4.974487e-01 -5.303251e-01 -5.596149e-01 -5.887047e-01 -6.130673e-01 -6.362317e-01 -6.536878e-01 -6.691886e-01 -6.782607e-01 -6.849268e-01 -6.847056e-01 -6.819262e-01 -6.719543e-01 -6.595393e-01 -6.395981e-01 -6.176212e-01 -5.875588e-01 -5.563308e-01 -5.160878e-01 -4.763927e-01 -4.263556e-01 -3.799214e-01 -3.215252e-01 -2.713859e-01 -2.075635e-01 -1.577906e-01 -9.280212e-02 -4.749277e-02 1.384709e-02 5.151443e-02 1.044291e-01 1.316861e-01 1.709585e-01 1.836525e-01 2.046238e-01 1.999434e-01 2.058951e-01 1.918331e-01 1.931452e-01 1.937931e-01 1.917063e-01 1.849526e-01 1.915882e-01 1.873072e-01 1.883530e-01 1.918248e-01 1.868317e-01 1.978301e-01 1.886113e-01 1.982878e-01 1.803146e-01 1.893316e-01 1.766328e-01 1.871994e-01 1.788511e-01 1.894271e-01 1.835610e-01 1.934009e-01 1.890145e-01 1.979476e-01 1.945059e-01 2.025213e-01 1.996712e-01 2.067560e-01 2.042133e-01 2.103147e-01 2.078265e-01 2.128562e-01 2.101916e-01 2.140419e-01 2.109944e-01 2.135565e-01 2.099504e-01 
2.333867e-01 2.306088e-01 2.302278e-01 2.262400e-01 2.243495e-01 2.190965e-01 2.157304e-01 2.092207e-01 2.044664e-01 1.967734e-01 1.907714e-01 1.820294e-01 1.749676e-01 1.653632e-01 1.574666e-01 1.472251e-01 1.387420e-01 1.281113e-01 1.192962e-01 1.085267e-01 9.962184e-02 8.894617e-02 8.016156e-02 6.977225e-02 6.126476e-02 5.129203e-02 4.314447e-02 3.363429e-02 2.583457e-02 1.672795e-02 9.149968e-03 2.653976e-04 -7.346403e-03 -1.632487e-02 -2.436391e-02 -3.388899e-02 -4.288351e-02 -5.353284e-02 -6.412611e-02 -7.657093e-02 -8.947917e-02 -1.044285e-01 -1.203716e-01 -1.384882e-01 -1.580907e-01 -1.798782e-01 -2.035415e-01 -2.292077e-01 -2.569640e-01 -2.862741e-01 -3.176425e-01 -3.497918e-01 -3.836728e-01 -4.172219e-01 -4.518820e-01 -4.848109e-01 -5.180058e-01 -5.479302e-01 -5.771913e-01 -6.017335e-01 -6.247695e-01 -6.419871e-01 -6.570762e-01 -6.657679e-01 -6.719708e-01 -6.716937e-01 -6.687833e-01 -6.595610e-01 -6.476993e-01 -6.295749e-01 -6.089338e-01 -5.816055e-01 -5.522114e-01 -5.150030e-01 -4.770682e-01 -4.294564e-01 -3.842186e-01 -3.268264e-01 -2.773684e-01 -2.128027e-01 -1.638798e-01 -9.668361e-02 -5.304661e-02 1.113723e-02 4.695894e-02 1.017928e-01 1.295143e-01 1.665579e-01 1.833536e-01 1.946509e-01 1.919893e-01 1.920292e-01 1.671821e-01 1.662449e-01 1.511331e-01 1.489645e-01 1.383667e-01 1.424853e-01 1.348235e-01 1.353062e-01 1.378141e-01 1.339282e-01 1.476913e-01 1.438048e-01 1.577956e-01 1.420202e-01 1.567347e-01 1.503468e-01 1.655416e-01 1.631541e-01 1.766557e-01 1.759140e-01 1.875499e-01 1.876617e-01 1.977220e-01 1.983173e-01 2.070522e-01 2.078616e-01 2.154033e-01 2.161798e-01 2.225607e-01 2.230618e-01 2.282460e-01 2.282350e-01 2.321479e-01 2.314012e-01 2.339546e-01 2.322732e-01 
2.163035e-01 2.128012e-01 2.129867e-01 2.084521e-01 2.069511e-01 2.013557e-01 1.982008e-01 1.915750e-01 1.868585e-01 1.792930e-01 1.731677e-01 1.648103e-01 1.574845e-01 1.485316e-01 1.402586e-01 1.309427e-01 1.220066e-01 1.125804e-01 1.032781e-01 9.399636e-02 8.461846e-02 7.571810e-02 6.652745e-02 5.820669e-02 4.941662e-02 4.181311e-02 3.356445e-02 2.673285e-02 1.907049e-02 1.295992e-02 5.809727e-03 2.426645e-04 -6.609347e-03 -1.195427e-02 -1.887711e-02 -2.447440e-02 -3.199684e-02 -3.847014e-02 -4.726881e-02 -5.536740e-02 -6.623131e-02 -7.678027e-02 -9.054463e-02 -1.043627e-01 -1.218066e-01 -1.395882e-01 -1.612944e-01 -1.834566e-01 -2.096405e-01 -2.361485e-01 -2.664769e-01 -2.966748e-01 -3.301182e-01 -3.626191e-01 -3.974019e-01 -4.301078e-01 -4.638280e-01 -4.941459e-01 -5.241041e-01 -5.493651e-01 -5.730448e-01 -5.910171e-01 -6.065457e-01 -6.158203e-01 -6.221986e-01 -6.222453e-01 -6.192537e-01 -6.101392e-01 -5.980026e-01 -5.799370e-01 -5.589407e-01 -5.318498e-01 -5.021459e-01 -4.655154e-01 -4.274299e-01 -3.807740e-01 -3.357396e-01 -2.797485e-01 -2.312863e-01 -1.689135e-01 -1.224157e-01 -5.880796e-02 -1.951241e-02 3.951423e-02 6.903939e-02 1.187231e-01 1.381756e-01 1.727525e-01 1.771519e-01 1.874500e-01 1.672319e-01 1.640745e-01 1.272807e-01 1.235147e-01 1.347546e-01 1.218901e-01 9.268938e-02 1.041891e-01 8.842460e-02 8.157544e-02 8.227533e-02 6.922336e-02 8.775046e-02 7.793224e-02 1.051601e-01 9.219703e-02 1.179031e-01 1.149382e-01 1.364376e-01 1.353590e-01 1.527158e-01 1.521599e-01 1.665241e-01 1.662664e-01 1.784802e-01 1.783878e-01 1.889316e-01 1.888548e-01 1.979655e-01 1.977398e-01 2.055008e-01 2.049516e-01 2.113511e-01 2.103008e-01 2.152724e-01 2.135489e-01 2.170034e-01 2.144525e-01 
2.403675e-01 2.385459e-01 2.386162e-01 2.352973e-01 2.336279e-01 2.287586e-01 2.253859e-01 2.189858e-01 2.140106e-01 2.061764e-01 1.997656e-01 1.906691e-01 1.830511e-01 1.729307e-01 1.643845e-01 1.535314e-01 1.443717e-01 1.331112e-01 1.236692e-01 1.123392e-01 1.029427e-01 9.186992e-02 8.282028e-02 7.229577e-02 6.384482e-02 5.409771e-02 4.642269e-02 3.759352e-02 3.077088e-02 2.288422e-02 1.686269e-02 9.800621e-03 4.375563e-03 -2.145229e-03 -7.352715e-03 -1.379588e-02 -1.934949e-02 -2.635985e-02 -3.300108e-02 -4.138384e-02 -4.999914e-02 -6.066928e-02 -7.222241e-02 -8.611647e-02 -1.015385e-01 -1.194827e-01 -1.395157e-01 -1.620498e-01 -1.870479e-01 -2.142146e-01 -2.439243e-01 -2.750570e-01 -3.084224e-01 -3.419931e-01 -3.770687e-01 -4.106957e-01 -4.447657e-01 -4.754863e-01 -5.054654e-01 -5.303095e-01 -5.533828e-01 -5.701085e-01 -5.843915e-01 -5.920349e-01 -5.969301e-01 -5.958052e-01 -5.918322e-01 -5.829351e-01 -5.710596e-01 -5.551967e-01 -5.360065e-01 -5.130118e-01 -4.862147e-01 -4.546260e-01 -4.194390e-01 -3.771913e-01 -3.339638e-01 -2.802432e-01 -2.325181e-01 -1.695869e-01 -1.244326e-01 -5.767906e-02 -2.267348e-02 4.111257e-02 6.340281e-02 1.174390e-01 1.330426e-01 1.644508e-01 1.786662e-01 1.612340e-01 1.565528e-01 1.526149e-01 1.174657e-01 1.156168e-01 4.327785e-02 7.687089e-02 4.330145e-02 2.376420e-02 2.161488e-02 -3.978817e-03 2.623300e-03 -1.660588e-02 1.940798e-03 -1.626126e-02 3.383002e-02 4.415569e-02 8.378375e-02 9.166847e-02 1.180458e-01 1.232153e-01 1.426062e-01 1.469817e-01 1.624421e-01 1.665948e-01 1.794978e-01 1.834736e-01 1.944764e-01 1.981697e-01 2.075881e-01 2.108423e-01 2.188036e-01 2.214350e-01 2.279535e-01 2.297616e-01 2.347864e-01 2.355669e-01 2.390163e-01 2.385770e-01 
2.230963e-01 2.204815e-01 2.211565e-01 2.172343e-01 2.159717e-01 2.107157e-01 2.075442e-01 2.009959e-01 1.960174e-01 1.882910e-01 1.816840e-01 1.729646e-01 1.649794e-01 1.555155e-01 1.464633e-01 1.365530e-01 1.267900e-01 1.167635e-01 1.066709e-01 9.687076e-02 8.683290e-02 7.759182e-02 6.797324e-02 5.959100e-02 5.071165e-02 4.343053e-02 3.553944e-02 2.951745e-02 2.276402e-02 1.804599e-02 1.244895e-02 8.936195e-03 4.351764e-03 1.772695e-03 -2.134637e-03 -4.248414e-03 -8.026837e-03 -1.035231e-02 -1.476727e-02 -1.818115e-02 -2.419358e-02 -2.973272e-02 -3.843963e-02 -4.722011e-02 -5.974584e-02 -7.283048e-02 -9.015918e-02 -1.083668e-01 -1.311141e-01 -1.547748e-01 -1.829150e-01 -2.115991e-01 -2.442010e-01 -2.764917e-01 -3.115649e-01 -3.449982e-01 -3.795929e-01 -4.109134e-01 -4.415898e-01 -4.673957e-01 -4.910118e-01 -5.086365e-01 -5.231326e-01 -5.313179e-01 -5.360545e-01 -5.349791e-01 -5.304692e-01 -5.211576e-01 -5.084025e-01 -4.919244e-01 -4.716754e-01 -4.483378e-01 -4.205379e-01 -3.892715e-01 -3.533165e-01 -3.121038e-01 -2.685792e-01 -2.165387e-01 -1.696550e-01 -1.094940e-01 -6.734077e-02 -5.837910e-03 2.329615e-02 7.756163e-02 9.094875e-02 1.328046e-01 1.362866e-01 1.602236e-01 1.530749e-01 1.375081e-01 8.796136e-02 7.716365e-02 7.346903e-02 1.069576e-01 2.211903e-02 -7.329542e-03 1.209780e-02 -3.116996e-02 -1.884997e-02 -3.163986e-02 -2.283396e-02 -2.664505e-02 -2.259648e-02 -3.101790e-02 7.962349e-03 2.633612e-02 6.433257e-02 7.148054e-02 9.844973e-02 1.025217e-01 1.232691e-01 1.267592e-01 1.437806e-01 1.470489e-01 1.615179e-01 1.645069e-01 1.770154e-01 1.796152e-01 1.904563e-01 1.925476e-01 2.018363e-01 2.032851e-01 2.110230e-01 2.116798e-01 2.177998e-01 2.175077e-01 2.219088e-01 2.205181e-01 
2.492229e-01 2.484676e-01 2.490191e-01 2.464466e-01 2.449999e-01 2.405452e-01 2.371267e-01 2.308108e-01 2.255273e-01 2.174660e-01 2.105090e-01 2.009130e-01 1.925547e-01 1.817212e-01 1.723024e-01 1.605995e-01 1.505127e-01 1.383582e-01 1.280263e-01 1.158629e-01 1.057157e-01 9.398469e-02 8.443452e-02 7.354776e-02 6.496351e-02 5.527411e-02 4.795292e-02 3.972369e-02 3.385927e-02 2.722837e-02 2.287569e-02 1.781995e-02 1.485730e-02 1.115566e-02 9.247928e-03 6.449921e-03 5.019420e-03 2.426295e-03 6.404577e-04 -2.691094e-03 -5.903532e-03 -1.112327e-02 -1.701419e-02 -2.539291e-02 -3.528055e-02 -4.806404e-02 -6.314910e-02 -8.134033e-02 -1.024452e-01 -1.265126e-01 -1.537547e-01 -1.832911e-01 -2.157426e-01 -2.491535e-01 -2.846060e-01 -3.189887e-01 -3.540136e-01 -3.854562e-01 -4.159530e-01 -4.404235e-01 -4.626661e-01 -4.773337e-01 -4.891426e-01 -4.934476e-01 -4.948335e-01 -4.904658e-01 -4.833223e-01 -4.730326e-01 -4.598474e-01 -4.459073e-01 -4.281795e-01 -4.109965e-01 -3.880042e-01 -3.650981e-01 -3.340682e-01 -3.006927e-01 -2.596991e-01 -2.122359e-01 -1.650087e-01 -1.048672e-01 -6.277843e-02 3.467625e-03 2.580316e-02 8.923318e-02 8.408862e-02 1.390917e-01 1.201628e-01 1.474824e-01 1.525483e-01 4.673735e-02 1.543560e-02 -2.726471e-02 -5.163841e-02 -1.422088e-01 -7.827618e-02 -3.047837e-02 -4.542476e-02 1.297193e-02 1.093912e-02 3.983543e-02 4.170862e-02 5.322481e-02 5.425779e-02 6.359416e-02 6.100532e-02 5.528468e-02 7.312272e-02 7.406812e-02 9.514441e-02 1.005892e-01 1.197188e-01 1.266912e-01 1.432854e-01 1.504898e-01 1.648738e-01 1.717909e-01 1.843145e-01 1.906990e-01 2.015807e-01 2.072585e-01 2.165870e-01 2.213822e-01 2.291472e-01 2.328633e-01 2.389881e-01 2.414141e-01 2.457878e-01 2.467149e-01 
2.315077e-01 2.298464e-01 2.310466e-01 2.277824e-01 2.267656e-01 2.218592e-01 2.186350e-01 2.121285e-01 2.067991e-01 1.988246e-01 1.915906e-01 1.823707e-01 1.735270e-01 1.633666e-01 1.532897e-01 1.425613e-01 1.316906e-01 1.208141e-01 1.096290e-01 9.904877e-02 8.804406e-02 7.820538e-02 6.786578e-02 5.918956e-02 4.996346e-02 4.281951e-02 3.508999e-02 2.976680e-02 2.381833e-02 2.048806e-02 1.646745e-02 1.514559e-02 1.301771e-02 1.351932e-02 1.302055e-02 1.491784e-02 1.551378e-02 1.810284e-02 1.896009e-02 2.124770e-02 2.123278e-02 2.195669e-02 1.967795e-02 1.737629e-02 1.128792e-02 4.436086e-03 -6.974475e-03 -1.973946e-02 -3.766112e-02 -5.721411e-02 -8.211652e-02 -1.084265e-01 -1.396075e-01 -1.713061e-01 -2.065286e-01 -2.406572e-01 -2.761445e-01 -3.083920e-01 -3.394845e-01 -3.651828e-01 -3.876887e-01 -4.034053e-01 -4.150320e-01 -4.198413e-01 -4.206796e-01 -4.160503e-01 -4.078965e-01 -3.964192e-01 -3.815592e-01 -3.657574e-01 -3.458367e-01 -3.270463e-01 -3.018128e-01 -2.785478e-01 -2.455879e-01 -2.132639e-01 -1.709449e-01 -1.254509e-01 -7.864777e-02 -2.138599e-02 1.699174e-02 7.771941e-02 9.330180e-02 1.427860e-01 1.287429e-01 1.591861e-01 1.280433e-01 1.211068e-01 7.348923e-02 4.905251e-02 5.104544e-02 1.936940e-03 -5.705364e-02 9.053353e-02 1.021049e-01 1.169472e-01 1.188923e-01 1.037007e-01 1.176437e-01 9.619552e-02 1.150888e-01 8.573524e-02 1.175819e-01 8.418710e-02 1.013403e-01 5.971239e-02 7.422992e-02 6.498662e-02 8.406127e-02 8.619084e-02 1.050227e-01 1.103165e-01 1.274725e-01 1.333124e-01 1.486602e-01 1.542163e-01 1.678904e-01 1.728690e-01 1.849780e-01 1.892273e-01 1.997941e-01 2.031796e-01 2.121450e-01 2.145155e-01 2.217602e-01 2.229484e-01 2.283215e-01 2.281589e-01 
2.598708e-01 2.602869e-01 2.613541e-01 2.596073e-01 2.583920e-01 2.543849e-01 2.508857e-01 2.446260e-01 2.389443e-01 2.305586e-01 2.229058e-01 2.126424e-01 2.033360e-01 1.915561e-01 1.810059e-01 1.681655e-01 1.568527e-01 1.434766e-01 1.319292e-01 1.185827e-01 1.073487e-01 9.460707e-02 8.422810e-02 7.264626e-02 6.362988e-02 5.371047e-02 4.650005e-02 3.865822e-02 3.359703e-02 2.811967e-02 2.540732e-02 2.240572e-02 2.204667e-02 2.140413e-02 2.315177e-02 2.447130e-02 2.777450e-02 3.033573e-02 3.429945e-02 3.703724e-02 4.041203e-02 4.193205e-02 4.315054e-02 4.179981e-02 3.908164e-02 3.309537e-02 2.464655e-02 1.239779e-02 -3.267432e-03 -2.288807e-02 -4.648650e-02 -7.355435e-02 -1.044684e-01 -1.374401e-01 -1.731991e-01 -2.084900e-01 -2.446305e-01 -2.768072e-01 -3.075664e-01 -3.306755e-01 -3.507327e-01 -3.607536e-01 -3.673868e-01 -3.644597e-01 -3.587106e-01 -3.470345e-01 -3.332434e-01 -3.185219e-01 -3.018685e-01 -2.888096e-01 -2.726134e-01 -2.631070e-01 -2.462698e-01 -2.368642e-01 -2.128791e-01 -1.942850e-01 -1.558046e-01 -1.190699e-01 -6.863372e-02 -1.360737e-02 3.086046e-02 9.741469e-02 1.092917e-01 1.755891e-01 1.293010e-01 2.038467e-01 1.027917e-01 1.692339e-01 4.402978e-03 6.769669e-02 -1.066539e-01 -6.923393e-02 5.151056e-02 1.812833e-01 1.565115e-01 4.985970e-02 1.182211e-01 4.055548e-02 8.567294e-02 1.812824e-02 6.971837e-02 3.675607e-03 6.362142e-02 -1.383009e-02 6.018543e-02 3.297587e-02 6.082225e-02 5.942569e-02 7.942552e-02 8.644228e-02 1.042483e-01 1.136896e-01 1.299091e-01 1.397121e-01 1.544275e-01 1.638684e-01 1.771413e-01 1.859245e-01 1.977843e-01 2.057223e-01 2.161371e-01 2.230413e-01 2.319137e-01 2.375649e-01 2.447456e-01 2.488975e-01 2.542083e-01 2.566081e-01 
2.413208e-01 2.406743e-01 2.424522e-01 2.398947e-01 2.391487e-01 2.346075e-01 2.313077e-01 2.248098e-01 2.190452e-01 2.107310e-01 2.027183e-01 1.928448e-01 1.829241e-01 1.718559e-01 1.604758e-01 1.486672e-01 1.363612e-01 1.243325e-01 1.116911e-01 1.000020e-01 8.764518e-02 7.686825e-02 6.541773e-02 5.611245e-02 4.616507e-02 3.885043e-02 3.094866e-02 2.607146e-02 2.066758e-02 1.856267e-02 1.597295e-02 1.681335e-02 1.716077e-02 2.089795e-02 2.404571e-02 3.034487e-02 3.582745e-02 4.400682e-02 5.097012e-02 5.995739e-02 6.712381e-02 7.544598e-02 8.112395e-02 8.695015e-02 8.911381e-02 9.037670e-02 8.685112e-02 8.148374e-02 7.028349e-02 5.661994e-02 3.648842e-02 1.386681e-02 -1.498849e-02 -4.546251e-02 -8.060614e-02 -1.153899e-01 -1.518312e-01 -1.849621e-01 -2.159971e-01 -2.405736e-01 -2.602029e-01 -2.714068e-01 -2.771697e-01 -2.748915e-01 -2.684221e-01 -2.565752e-01 -2.418154e-01 -2.252008e-01 -2.061856e-01 -1.891965e-01 -1.690883e-01 -1.553309e-01 -1.340081e-01 -1.225963e-01 -9.443919e-02 -7.690310e-02 -3.494536e-02 -1.205675e-03 4.923157e-02 1.007908e-01 1.380245e-01 2.025610e-01 2.059836e-01 2.597143e-01 2.137461e-01 2.663822e-01 2.416105e-01 2.063294e-01 3.496844e-02 4.720824e-02 -8.277521e-02 2.345674e-01 2.442095e-01 -5.271015e-02 -1.942410e-02 -1.637445e-03 7.610657e-03 -4.130386e-02 1.819620e-03 -5.948088e-02 -1.161150e-02 -6.447811e-02 -2.169163e-02 -6.183758e-02 -8.249277e-03 6.752925e-03 3.494392e-02 4.456775e-02 6.452037e-02 7.335685e-02 9.100503e-02 9.972381e-02 1.161520e-01 1.244941e-01 1.398024e-01 1.475440e-01 1.616941e-01 1.687023e-01 1.816225e-01 1.877866e-01 1.993613e-01 2.045467e-01 2.146081e-01 2.186429e-01 2.269782e-01 2.296599e-01 2.360315e-01 2.371471e-01 