# vtk DataFile Version 2.0
Comment goes here
ASCII

DATASET STRUCTURED_POINTS
DIMENSIONS    128   128   1

ORIGIN    0.000   0.000   0.000
SPACING   0.0156250.015625   1.000

POINT_DATA   16384
SCALARS uX double
LOOKUP_TABLE default

-2.474678e-02 -2.618893e-02 -2.665481e-02 -2.771687e-02 -2.796193e-02 -2.864016e-02 -2.867220e-02 -2.896727e-02 -2.879640e-02 -2.871448e-02 -2.835371e-02 -2.790740e-02 -2.737318e-02 -2.658224e-02 -2.589487e-02 -2.478673e-02 -2.397069e-02 -2.258076e-02 -2.166500e-02 -2.003675e-02 -1.905503e-02 -1.724004e-02 -1.623126e-02 -1.428920e-02 -1.329781e-02 -1.129632e-02 -1.037274e-02 -8.387154e-03 -7.587983e-03 -5.700781e-03 -5.088674e-03 -3.388373e-03 -3.031240e-03 -1.610446e-03 -1.579624e-03 -5.318749e-04 -8.988819e-04 -3.139046e-04 -1.145403e-03 -1.102488e-03 -2.453210e-03 -3.012582e-03 -4.916215e-03 -6.108605e-03 -8.567055e-03 -1.038221e-02 -1.335424e-02 -1.572977e-02 -1.912071e-02 -2.193333e-02 -2.558827e-02 -2.865012e-02 -3.235333e-02 -3.541615e-02 -3.889922e-02 -4.166824e-02 -4.462826e-02 -4.678613e-02 -4.891316e-02 -5.015168e-02 -5.116206e-02 -5.121705e-02 -5.088750e-02 -4.957098e-02 -4.776780e-02 -4.499282e-02 -4.169298e-02 -3.748922e-02 -3.279304e-02 -2.731482e-02 -2.145238e-02 -1.498150e-02 -8.313653e-03 -1.256351e-03 5.733830e-03 1.286344e-02 1.960052e-02 2.622422e-02 3.210582e-02 3.766369e-02 4.216672e-02 4.623231e-02 4.904072e-02 5.143415e-02 5.254035e-02 5.338485e-02 5.311031e-02 5.279449e-02 5.170695e-02 5.076402e-02 4.951515e-02 4.846108e-02 4.758571e-02 4.674966e-02 4.648191e-02 4.589439e-02 4.610194e-02 4.551181e-02 4.578218e-02 4.478514e-02 4.461216e-02 4.283475e-02 4.181925e-02 3.908902e-02 3.715622e-02 3.362162e-02 3.110329e-02 2.712398e-02 2.441037e-02 2.029456e-02 1.762717e-02 1.355659e-02 1.104266e-02 7.116192e-03 4.798170e-03 1.078058e-03 -1.023905e-03 -4.491572e-03 -6.365143e-03 -9.544731e-03 -1.118253e-02 -1.404703e-02 -1.544604e-02 -1.797520e-02 -1.913578e-02 -2.131408e-02 -2.223882e-02 -2.405394e-02 
-2.169745e-02 -2.295542e-02 -2.348846e-02 -2.442413e-02 -2.472319e-02 -2.533552e-02 -2.540753e-02 -2.569864e-02 -2.555307e-02 -2.552924e-02 -2.517877e-02 -2.485130e-02 -2.431228e-02 -2.369831e-02 -2.299118e-02 -2.211423e-02 -2.126383e-02 -2.015426e-02 -1.919003e-02 -1.788532e-02 -1.684164e-02 -1.538667e-02 -1.430311e-02 -1.275037e-02 -1.167212e-02 -1.008181e-02 -9.060038e-03 -7.500083e-03 -6.592176e-03 -5.137899e-03 -4.407342e-03 -3.140563e-03 -2.656199e-03 -1.663482e-03 -1.497740e-03 -8.673910e-04 -1.093120e-03 -9.105584e-04 -1.596071e-03 -1.937267e-03 -3.139328e-03 -4.062162e-03 -5.816896e-03 -7.350635e-03 -9.662742e-03 -1.179635e-02 -1.462761e-02 -1.729828e-02 -2.055702e-02 -2.364110e-02 -2.717510e-02 -3.048404e-02 -3.407969e-02 -3.736408e-02 -4.075433e-02 -4.371794e-02 -4.660066e-02 -4.892485e-02 -5.099065e-02 -5.236693e-02 -5.333311e-02 -5.349861e-02 -5.314350e-02 -5.191327e-02 -5.010526e-02 -4.739603e-02 -4.411344e-02 -3.995741e-02 -3.529943e-02 -2.985028e-02 -2.404202e-02 -1.757709e-02 -1.097055e-02 -3.889609e-03 3.043025e-03 1.023024e-02 1.692321e-02 2.363588e-02 2.949262e-02 3.515911e-02 3.965787e-02 4.383458e-02 4.665752e-02 4.915178e-02 5.028680e-02 5.122424e-02 5.098260e-02 5.077189e-02 4.970342e-02 4.890385e-02 4.764208e-02 4.678260e-02 4.585567e-02 4.525824e-02 4.490480e-02 4.459105e-02 4.469558e-02 4.440953e-02 4.457570e-02 4.392223e-02 4.364781e-02 4.225555e-02 4.112512e-02 3.880777e-02 3.673157e-02 3.362909e-02 3.096943e-02 2.744748e-02 2.460835e-02 2.096623e-02 1.818249e-02 1.458714e-02 1.195792e-02 8.497323e-03 6.062324e-03 2.791962e-03 5.722806e-04 -2.466970e-03 -4.456790e-03 -7.234548e-03 -8.984864e-03 -1.147978e-02 -1.298554e-02 -1.518325e-02 -1.644301e-02 -1.833379e-02 -1.934848e-02 -2.092540e-02 
-2.504959e-02 -2.649444e-02 -2.695670e-02 -2.802018e-02 -2.826108e-02 -2.893874e-02 -2.896563e-02 -2.925750e-02 -2.908009e-02 -2.899181e-02 -2.862282e-02 -2.816658e-02 -2.762221e-02 -2.681753e-02 -2.611792e-02 -2.499208e-02 -2.416155e-02 -2.274987e-02 -2.181722e-02 -2.016316e-02 -1.916196e-02 -1.731713e-02 -1.628607e-02 -1.431020e-02 -1.329353e-02 -1.125438e-02 -1.030242e-02 -8.275604e-03 -7.445001e-03 -5.513560e-03 -4.867374e-03 -3.120786e-03 -2.727833e-03 -1.260267e-03 -1.193486e-03 -1.008127e-04 -4.341914e-04 1.906192e-04 -6.130277e-04 -5.395657e-04 -1.872620e-03 -2.415753e-03 -4.317052e-03 -5.512995e-03 -7.989834e-03 -9.833602e-03 -1.284955e-02 -1.528279e-02 -1.874629e-02 -2.164729e-02 -2.540358e-02 -2.858239e-02 -3.241177e-02 -3.561348e-02 -3.923899e-02 -4.215761e-02 -4.526364e-02 -4.756725e-02 -4.982866e-02 -5.119335e-02 -5.231142e-02 -5.245899e-02 -5.219803e-02 -5.093049e-02 -4.914877e-02 -4.637397e-02 -4.304485e-02 -3.879130e-02 -3.401474e-02 -2.843810e-02 -2.244612e-02 -1.583169e-02 -8.990590e-03 -1.752735e-03 5.441323e-03 1.277046e-02 1.971549e-02 2.652504e-02 3.257632e-02 3.826127e-02 4.284518e-02 4.693561e-02 4.969688e-02 5.199332e-02 5.291878e-02 5.356319e-02 5.301013e-02 5.244024e-02 5.104076e-02 4.984897e-02 4.832985e-02 4.709036e-02 4.605402e-02 4.513364e-02 4.483883e-02 4.426451e-02 4.455522e-02 4.404476e-02 4.445941e-02 4.356762e-02 4.355316e-02 4.187188e-02 4.096032e-02 3.827736e-02 3.634458e-02 3.282355e-02 3.031150e-02 2.637136e-02 2.371088e-02 1.965366e-02 1.705667e-02 1.303734e-02 1.058257e-02 6.688785e-03 4.410938e-03 7.073992e-04 -1.369669e-03 -4.830715e-03 -6.688926e-03 -9.867097e-03 -1.149491e-02 -1.436060e-02 -1.575265e-02 -1.828435e-02 -1.943978e-02 -2.162128e-02 -2.254194e-02 -2.436034e-02 
-2.226105e-02 -2.352064e-02 -2.404752e-02 -2.498336e-02 -2.527494e-02 -2.588471e-02 -2.594698e-02 -2.623162e-02 -2.607329e-02 -2.603803e-02 -2.567117e-02 -2.532652e-02 -2.476704e-02 -2.412952e-02 -2.339756e-02 -2.249025e-02 -2.161038e-02 -2.046331e-02 -1.946470e-02 -1.811512e-02 -1.703181e-02 -1.552438e-02 -1.439558e-02 -1.278263e-02 -1.165316e-02 -9.994928e-03 -8.915696e-03 -7.280444e-03 -6.308950e-03 -4.772874e-03 -3.973357e-03 -2.620023e-03 -2.063064e-03 -9.819993e-04 -7.431444e-04 -2.720026e-05 -1.841451e-04 7.484679e-05 -5.530215e-04 -8.353314e-04 -1.999652e-03 -2.891259e-03 -4.638461e-03 -6.179758e-03 -8.525409e-03 -1.071613e-02 -1.363180e-02 -1.641754e-02 -1.981801e-02 -2.307853e-02 -2.681210e-02 -3.035480e-02 -3.420009e-02 -3.776215e-02 -4.143493e-02 -4.469730e-02 -4.786977e-02 -5.048405e-02 -5.281612e-02 -5.444195e-02 -5.562062e-02 -5.596733e-02 -5.574670e-02 -5.461053e-02 -5.284432e-02 -5.013374e-02 -4.679499e-02 -4.254200e-02 -3.773085e-02 -3.209268e-02 -2.603841e-02 -1.929792e-02 -1.236168e-02 -4.930851e-03 2.392160e-03 9.972615e-03 1.706686e-02 2.415400e-02 3.034013e-02 3.627008e-02 4.092584e-02 4.516018e-02 4.789077e-02 5.018830e-02 5.097426e-02 5.149590e-02 5.072185e-02 4.998525e-02 4.832071e-02 4.702019e-02 4.523370e-02 4.401730e-02 4.276724e-02 4.200891e-02 4.157877e-02 4.128603e-02 4.152710e-02 4.137548e-02 4.181006e-02 4.135003e-02 4.139726e-02 4.020547e-02 3.930106e-02 3.709986e-02 3.501419e-02 3.195645e-02 2.931684e-02 2.589768e-02 2.318109e-02 1.967559e-02 1.704229e-02 1.356008e-02 1.105114e-02 7.661655e-03 5.305316e-03 2.072746e-03 -9.961942e-05 -3.120551e-03 -5.081905e-03 -7.851173e-03 -9.583441e-03 -1.207481e-02 -1.356836e-02 -1.576535e-02 -1.701635e-02 -1.890816e-02 -1.991611e-02 -2.149489e-02 
-2.595859e-02 -2.741227e-02 -2.786407e-02 -2.893255e-02 -2.916135e-02 -2.983797e-02 -2.984971e-02 -3.013254e-02 -2.993576e-02 -2.982882e-02 -2.943532e-02 -2.894961e-02 -2.837496e-02 -2.752923e-02 -2.679304e-02 -2.561416e-02 -2.474033e-02 -2.326345e-02 -2.228034e-02 -2.054888e-02 -1.948950e-02 -1.755512e-02 -1.645752e-02 -1.438008e-02 -1.328785e-02 -1.113544e-02 -1.009843e-02 -7.947385e-03 -7.022315e-03 -4.957166e-03 -4.208099e-03 -2.321053e-03 -1.819320e-03 -2.090448e-04 -3.219526e-05 1.198594e-03 9.693099e-04 1.718000e-03 1.002174e-03 1.172640e-03 -1.022142e-04 -5.905511e-04 -2.479074e-03 -3.679401e-03 -6.205697e-03 -8.129621e-03 -1.127259e-02 -1.387489e-02 -1.755333e-02 -2.071811e-02 -2.477861e-02 -2.831034e-02 -3.252190e-02 -3.614583e-02 -4.020554e-02 -4.358132e-02 -4.713433e-02 -4.988463e-02 -5.255851e-02 -5.431039e-02 -5.575944e-02 -5.619135e-02 -5.614202e-02 -5.502596e-02 -5.331323e-02 -5.054312e-02 -4.713149e-02 -4.273462e-02 -3.772480e-02 -3.186213e-02 -2.549191e-02 -1.845782e-02 -1.110648e-02 -3.335164e-03 4.467555e-03 1.239550e-02 1.997246e-02 2.734976e-02 3.392685e-02 4.000569e-02 4.484575e-02 4.901139e-02 5.162648e-02 5.361192e-02 5.396786e-02 5.398041e-02 5.255371e-02 5.119544e-02 4.882317e-02 4.686574e-02 4.450454e-02 4.269832e-02 4.116774e-02 3.999315e-02 3.961680e-02 3.907090e-02 3.960404e-02 3.930907e-02 4.013694e-02 3.953348e-02 4.001394e-02 3.863547e-02 3.809645e-02 3.559459e-02 3.364067e-02 3.020087e-02 2.775502e-02 2.400153e-02 2.156757e-02 1.773016e-02 1.537770e-02 1.152164e-02 9.248368e-03 5.446127e-03 3.282148e-03 -3.798759e-04 -2.388984e-03 -5.835410e-03 -7.651625e-03 -1.082803e-02 -1.242785e-02 -1.529810e-02 -1.667016e-02 -1.921000e-02 -2.035044e-02 -2.254206e-02 -2.345085e-02 -2.527970e-02 
-2.338889e-02 -2.465292e-02 -2.516843e-02 -2.610586e-02 -2.638336e-02 -2.698920e-02 -2.703275e-02 -2.730546e-02 -2.712218e-02 -2.706489e-02 -2.666566e-02 -2.628726e-02 -2.568718e-02 -2.500300e-02 -2.422164e-02 -2.325393e-02 -2.231540e-02 -2.109360e-02 -2.002658e-02 -1.858744e-02 -1.742532e-02 -1.581308e-02 -1.459425e-02 -1.286088e-02 -1.162927e-02 -9.834884e-03 -8.640720e-03 -6.853998e-03 -5.754711e-03 -4.053304e-03 -3.114273e-03 -1.584872e-03 -8.797690e-04 3.825393e-04 7.723131e-04 1.665905e-03 1.653244e-03 2.073629e-03 1.569868e-03 1.415829e-03 3.376586e-04 -4.795541e-04 -2.199890e-03 -3.743979e-03 -6.145066e-03 -8.438950e-03 -1.151376e-02 -1.452187e-02 -1.820024e-02 -2.181142e-02 -2.594464e-02 -2.995974e-02 -3.431201e-02 -3.844164e-02 -4.269388e-02 -4.657164e-02 -5.034226e-02 -5.355659e-02 -5.644023e-02 -5.858274e-02 -6.020202e-02 -6.092335e-02 -6.098224e-02 -6.004121e-02 -5.836590e-02 -5.565847e-02 -5.221612e-02 -4.777974e-02 -4.267700e-02 -3.667977e-02 -3.015473e-02 -2.288792e-02 -1.531336e-02 -7.203119e-03 8.921992e-04 9.256977e-03 1.716800e-02 2.502605e-02 3.190310e-02 3.839220e-02 4.338651e-02 4.774618e-02 5.027804e-02 5.214425e-02 5.217572e-02 5.179243e-02 4.988706e-02 4.803147e-02 4.511851e-02 4.277958e-02 3.989033e-02 3.796712e-02 3.605570e-02 3.498096e-02 3.438005e-02 3.410832e-02 3.458480e-02 3.462067e-02 3.553025e-02 3.537544e-02 3.610338e-02 3.534014e-02 3.504355e-02 3.317978e-02 3.101191e-02 2.813825e-02 2.565491e-02 2.259349e-02 2.026632e-02 1.711907e-02 1.484835e-02 1.160375e-02 9.337078e-03 6.072465e-03 3.857131e-03 6.826316e-04 -1.409288e-03 -4.403742e-03 -6.316296e-03 -9.072916e-03 -1.077291e-02 -1.325865e-02 -1.472953e-02 -1.692567e-02 -1.816022e-02 -2.005474e-02 -2.105013e-02 -2.263359e-02 
-2.747580e-02 -2.894653e-02 -2.938251e-02 -3.046172e-02 -3.067183e-02 -3.134894e-02 -3.133668e-02 -3.160625e-02 -3.137815e-02 -3.124143e-02 -3.080782e-02 -3.027386e-02 -2.964926e-02 -2.873559e-02 -2.793891e-02 -2.667183e-02 -2.572637e-02 -2.414085e-02 -2.307427e-02 -2.121376e-02 -2.005816e-02 -1.797439e-02 -1.676665e-02 -1.451957e-02 -1.330199e-02 -1.095998e-02 -9.781250e-03 -7.421497e-03 -6.337948e-03 -4.046944e-03 -3.123728e-03 -9.976076e-04 -3.095815e-04 1.546120e-03 1.914365e-03 3.386086e-03 3.341686e-03 4.311048e-03 3.756592e-03 4.106265e-03 2.946624e-03 2.569650e-03 7.226620e-04 -4.641578e-04 -3.052745e-03 -5.091366e-03 -8.429058e-03 -1.129964e-02 -1.532616e-02 -1.892610e-02 -2.349371e-02 -2.762098e-02 -3.248177e-02 -3.682913e-02 -4.163623e-02 -4.580337e-02 -5.013249e-02 -5.366058e-02 -5.705401e-02 -5.948125e-02 -6.150864e-02 -6.243602e-02 -6.275790e-02 -6.190751e-02 -6.032294e-02 -5.757156e-02 -5.403785e-02 -4.941989e-02 -4.404665e-02 -3.773799e-02 -3.077372e-02 -2.308017e-02 -1.491516e-02 -6.287652e-03 2.513644e-03 1.143597e-02 2.009058e-02 2.844925e-02 3.596295e-02 4.274729e-02 4.806743e-02 5.236461e-02 5.472146e-02 5.611288e-02 5.541848e-02 5.426002e-02 5.124414e-02 4.849305e-02 4.438590e-02 4.110824e-02 3.724806e-02 3.448492e-02 3.211843e-02 3.054093e-02 3.003668e-02 2.948244e-02 3.037337e-02 3.032211e-02 3.169240e-02 3.139510e-02 3.270961e-02 3.184084e-02 3.221160e-02 3.020461e-02 2.810597e-02 2.501885e-02 2.294494e-02 1.978963e-02 1.798412e-02 1.463776e-02 1.277364e-02 9.186836e-03 7.201957e-03 3.513614e-03 1.506191e-03 -2.117360e-03 -4.037214e-03 -7.475079e-03 -9.233729e-03 -1.241328e-02 -1.397181e-02 -1.685163e-02 -1.819268e-02 -2.074714e-02 -2.186404e-02 -2.407392e-02 -2.496436e-02 -2.681261e-02 
-2.508207e-02 -2.635583e-02 -2.685684e-02 -2.779993e-02 -2.805866e-02 -2.866166e-02 -2.867906e-02 -2.893648e-02 -2.871722e-02 -2.862894e-02 -2.818218e-02 -2.775464e-02 -2.709438e-02 -2.634126e-02 -2.548639e-02 -2.442884e-02 -2.340298e-02 -2.206969e-02 -2.090088e-02 -1.932795e-02 -1.804864e-02 -1.627963e-02 -1.492685e-02 -1.301300e-02 -1.162904e-02 -9.629866e-03 -8.263405e-03 -6.247629e-03 -4.955256e-03 -3.001923e-03 -1.849819e-03 -4.937712e-05 8.851699e-04 2.430283e-03 3.058091e-03 4.233970e-03 4.454619e-03 5.138319e-03 4.843162e-03 4.908039e-03 3.986616e-03 3.311636e-03 1.662546e-03 1.465193e-04 -2.306461e-03 -4.725288e-03 -8.011844e-03 -1.133156e-02 -1.540970e-02 -1.953854e-02 -2.426948e-02 -2.900304e-02 -3.413269e-02 -3.914286e-02 -4.429899e-02 -4.914418e-02 -5.385820e-02 -5.802244e-02 -6.178046e-02 -6.474106e-02 -6.705835e-02 -6.836893e-02 -6.886930e-02 -6.823293e-02 -6.670655e-02 -6.401220e-02 -6.043175e-02 -5.574334e-02 -5.024056e-02 -4.375592e-02 -3.658658e-02 -2.860570e-02 -2.014359e-02 -1.108604e-02 -1.873836e-03 7.642092e-03 1.680083e-02 2.586324e-02 3.385969e-02 4.127826e-02 4.685333e-02 5.143801e-02 5.363374e-02 5.474654e-02 5.347982e-02 5.152601e-02 4.775306e-02 4.405026e-02 3.916662e-02 3.521588e-02 3.056320e-02 2.769994e-02 2.484221e-02 2.334774e-02 2.244992e-02 2.214486e-02 2.281857e-02 2.281368e-02 2.410482e-02 2.402598e-02 2.573337e-02 2.556161e-02 2.677814e-02 2.585104e-02 2.330713e-02 2.115094e-02 1.945526e-02 1.741599e-02 1.606880e-02 1.360075e-02 1.194910e-02 9.011518e-03 7.055026e-03 3.901120e-03 1.836686e-03 -1.299560e-03 -3.307644e-03 -6.283958e-03 -8.140400e-03 -1.088477e-02 -1.254314e-02 -1.502172e-02 -1.646150e-02 -1.865689e-02 -1.986883e-02 -2.176881e-02 -2.274761e-02 -2.434051e-02 
-2.960397e-02 -3.110383e-02 -3.152129e-02 -3.262085e-02 -3.280813e-02 -3.349068e-02 -3.344756e-02 -3.370241e-02 -3.343254e-02 -3.325690e-02 -3.276858e-02 -3.216878e-02 -3.147530e-02 -3.046740e-02 -2.958692e-02 -2.819667e-02 -2.715192e-02 -2.541431e-02 -2.423217e-02 -2.219089e-02 -2.090222e-02 -1.860912e-02 -1.724897e-02 -1.476393e-02 -1.337233e-02 -1.076361e-02 -9.386930e-03 -6.732085e-03 -5.425042e-03 -2.812213e-03 -1.640181e-03 8.303384e-04 1.789035e-03 4.003541e-03 4.655928e-03 6.486991e-03 6.725161e-03 8.033207e-03 7.736523e-03 8.374515e-03 7.415609e-03 7.238219e-03 5.494205e-03 4.372851e-03 1.742980e-03 -4.123665e-04 -3.982135e-03 -7.194698e-03 -1.168143e-02 -1.587555e-02 -2.114742e-02 -2.611875e-02 -3.190929e-02 -3.730721e-02 -4.320719e-02 -4.854200e-02 -5.402121e-02 -5.870679e-02 -6.317295e-02 -6.660595e-02 -6.949480e-02 -7.115500e-02 -7.202768e-02 -7.156732e-02 -7.018013e-02 -6.746776e-02 -6.378814e-02 -5.889306e-02 -5.306526e-02 -4.620356e-02 -3.849931e-02 -2.998956e-02 -2.079395e-02 -1.107383e-02 -9.476012e-04 9.322902e-03 1.950836e-02 2.930043e-02 3.825249e-02 4.614268e-02 5.227144e-02 5.677922e-02 5.875078e-02 5.911283e-02 5.669322e-02 5.358493e-02 4.803773e-02 4.321321e-02 3.650119e-02 3.138041e-02 2.527309e-02 2.125929e-02 1.785238e-02 1.590382e-02 1.528651e-02 1.449282e-02 1.569047e-02 1.563346e-02 1.712031e-02 1.655391e-02 1.871066e-02 1.822045e-02 2.075689e-02 2.013719e-02 1.762427e-02 1.606268e-02 1.561677e-02 1.402618e-02 1.360132e-02 1.100825e-02 9.818512e-03 6.455691e-03 4.746240e-03 1.087229e-03 -7.966667e-04 -4.432548e-03 -6.275343e-03 -9.725100e-03 -1.142197e-02 -1.461120e-02 -1.611813e-02 -1.901157e-02 -2.031166e-02 -2.288734e-02 -2.397356e-02 -2.621171e-02 -2.707944e-02 -2.895924e-02 
-2.734125e-02 -2.863429e-02 -2.912115e-02 -3.007832e-02 -3.031665e-02 -3.092188e-02 -3.090813e-02 -3.115014e-02 -3.088561e-02 -3.075980e-02 -3.025144e-02 -2.976107e-02 -2.902171e-02 -2.817846e-02 -2.722650e-02 -2.605043e-02 -2.490917e-02 -2.342828e-02 -2.212527e-02 -2.037503e-02 -1.894152e-02 -1.696454e-02 -1.543556e-02 -1.328176e-02 -1.169685e-02 -9.424269e-03 -7.829060e-03 -5.505351e-03 -3.953922e-03 -1.658473e-03 -2.163171e-04 1.957249e-03 3.210037e-03 5.151482e-03 6.117414e-03 7.698339e-03 8.261028e-03 9.335236e-03 9.360403e-03 9.767570e-03 9.108145e-03 8.682557e-03 7.189704e-03 5.775939e-03 3.317814e-03 7.949522e-04 -2.715642e-03 -6.400919e-03 -1.097062e-02 -1.576428e-02 -2.127896e-02 -2.697985e-02 -3.316900e-02 -3.940123e-02 -4.582149e-02 -5.203604e-02 -5.809091e-02 -6.361293e-02 -6.862144e-02 -7.274903e-02 -7.605913e-02 -7.819548e-02 -7.931215e-02 -7.908585e-02 -7.776293e-02 -7.508101e-02 -7.133300e-02 -6.633948e-02 -6.037196e-02 -5.334216e-02 -4.545385e-02 -3.670157e-02 -2.724054e-02 -1.712209e-02 -6.568259e-03 4.363062e-03 1.517547e-02 2.589841e-02 3.554275e-02 4.439766e-02 5.092450e-02 5.592726e-02 5.760160e-02 5.747853e-02 5.406464e-02 4.949148e-02 4.286341e-02 3.635189e-02 2.883344e-02 2.273490e-02 1.557897e-02 1.215779e-02 8.559543e-03 6.741946e-03 5.361932e-03 4.864223e-03 5.235896e-03 4.205973e-03 4.824083e-03 3.706367e-03 5.905469e-03 5.658835e-03 1.025851e-02 1.191223e-02 8.922149e-03 9.833631e-03 1.131680e-02 1.154235e-02 1.198841e-02 1.023741e-02 9.193482e-03 6.331642e-03 4.542261e-03 1.337353e-03 -6.624878e-04 -3.827763e-03 -5.780143e-03 -8.752988e-03 -1.055243e-02 -1.328036e-02 -1.488768e-02 -1.735328e-02 -1.875349e-02 -2.094700e-02 -2.213166e-02 -2.404143e-02 -2.500241e-02 -2.661291e-02 
-3.234564e-02 -3.389298e-02 -3.429344e-02 -3.542905e-02 -3.559304e-02 -3.629126e-02 -3.621331e-02 -3.645603e-02 -3.613594e-02 -3.591494e-02 -3.535858e-02 -3.467685e-02 -3.389631e-02 -3.276841e-02 -3.178142e-02 -3.023298e-02 -2.906207e-02 -2.712872e-02 -2.580019e-02 -2.352631e-02 -2.206957e-02 -1.950729e-02 -1.795480e-02 -1.516361e-02 -1.355172e-02 -1.059892e-02 -8.969760e-03 -5.931929e-03 -4.336346e-03 -1.301802e-03 1.968770e-04 3.124924e-03 4.446610e-03 7.146655e-03 8.190409e-03 1.051983e-02 1.116091e-02 1.295490e-02 1.304440e-02 1.411839e-02 1.348732e-02 1.364498e-02 1.211514e-02 1.116449e-02 8.568627e-03 6.348645e-03 2.561923e-03 -1.019277e-03 -6.036518e-03 -1.095363e-02 -1.710557e-02 -2.316532e-02 -3.017311e-02 -3.697526e-02 -4.435020e-02 -5.128200e-02 -5.834252e-02 -6.462927e-02 -7.058050e-02 -7.540211e-02 -7.947529e-02 -8.212801e-02 -8.374091e-02 -8.378643e-02 -8.265631e-02 -7.998683e-02 -7.613922e-02 -7.092557e-02 -6.460279e-02 -5.716319e-02 -4.869747e-02 -3.937641e-02 -2.912074e-02 -1.827651e-02 -6.684439e-03 5.133506e-03 1.722822e-02 2.890803e-02 3.991147e-02 4.946654e-02 5.694494e-02 6.183381e-02 6.331564e-02 6.190928e-02 5.669196e-02 5.027431e-02 4.078327e-02 3.317056e-02 2.300791e-02 1.584474e-02 6.757276e-03 1.639874e-03 -2.143490e-03 -3.545602e-03 -4.020814e-03 -6.066991e-03 -5.502512e-03 -6.071534e-03 -6.442163e-03 -8.871902e-03 -7.847083e-03 -9.604628e-03 -4.675973e-03 -2.492516e-03 -1.393916e-03 3.888911e-03 8.817867e-03 9.666867e-03 1.093178e-02 8.485802e-03 7.536069e-03 3.877507e-03 2.136925e-03 -1.733140e-03 -3.617886e-03 -7.340934e-03 -9.133450e-03 -1.260394e-02 -1.422989e-02 -1.742200e-02 -1.886154e-02 -2.176562e-02 -2.301294e-02 -2.561552e-02 -2.666529e-02 -2.894496e-02 -2.978897e-02 -3.171792e-02 
-3.016544e-02 -3.149422e-02 -3.197258e-02 -3.295890e-02 -3.317973e-02 -3.379798e-02 -3.375150e-02 -3.398250e-02 -3.366562e-02 -3.349891e-02 -3.291608e-02 -3.235115e-02 -3.151430e-02 -3.056087e-02 -2.948850e-02 -2.816591e-02 -2.688177e-02 -2.521785e-02 -2.374942e-02 -2.177928e-02 -2.015661e-02 -1.792180e-02 -1.617718e-02 -1.372552e-02 -1.189420e-02 -9.280779e-03 -7.403031e-03 -4.692372e-03 -2.816873e-03 -8.629312e-05 1.725258e-03 4.381288e-03 6.048752e-03 8.513757e-03 9.932967e-03 1.206397e-02 1.310203e-02 1.472666e-02 1.521974e-02 1.613694e-02 1.589263e-02 1.587942e-02 1.468670e-02 1.351423e-02 1.116409e-02 8.626395e-03 4.946438e-03 9.042247e-04 -4.191606e-03 -9.752558e-03 -1.620197e-02 -2.310478e-02 -3.063376e-02 -3.845356e-02 -4.653328e-02 -5.457770e-02 -6.243309e-02 -6.979418e-02 -7.649409e-02 -8.219336e-02 -8.682773e-02 -9.003510e-02 -9.193322e-02 -9.218019e-02 -9.107228e-02 -8.834377e-02 -8.436899e-02 -7.900554e-02 -7.255322e-02 -6.501773e-02 -5.649969e-02 -4.715382e-02 -3.686013e-02 -2.590111e-02 -1.408455e-02 -1.772240e-03 1.093460e-02 2.369653e-02 3.562378e-02 4.664180e-02 5.476659e-02 6.065528e-02 6.161228e-02 5.955331e-02 5.245612e-02 4.333598e-02 3.223971e-02 2.139380e-02 1.112166e-02 2.375814e-03 -8.116497e-03 -9.340857e-03 -1.078834e-02 -1.256157e-02 -1.484984e-02 -1.519450e-02 -1.889193e-02 -2.302072e-02 -2.679041e-02 -2.897537e-02 -3.194310e-02 -3.194192e-02 -3.222803e-02 -3.007216e-02 -1.217845e-02 2.372658e-04 9.210696e-03 1.066876e-02 1.175479e-02 9.022572e-03 7.513874e-03 3.904635e-03 1.818401e-03 -1.702957e-03 -3.772594e-03 -7.007483e-03 -8.914897e-03 -1.186009e-02 -1.358139e-02 -1.626374e-02 -1.779956e-02 -2.023529e-02 -2.158459e-02 -2.377329e-02 -2.492813e-02 -2.685548e-02 -2.780201e-02 -2.944431e-02 
-3.570187e-02 -3.732486e-02 -3.771620e-02 -3.891260e-02 -3.905812e-02 -3.978965e-02 -3.967679e-02 -3.991539e-02 -3.953908e-02 -3.926963e-02 -3.863312e-02 -3.785487e-02 -3.696952e-02 -3.569601e-02 -3.458002e-02 -3.283780e-02 -3.151448e-02 -2.934104e-02 -2.783678e-02 -2.527822e-02 -2.362104e-02 -2.073022e-02 -1.894916e-02 -1.578471e-02 -1.391064e-02 -1.053747e-02 -8.605416e-03 -5.096828e-03 -3.150081e-03 4.084871e-04 2.312773e-03 5.818474e-03 7.602451e-03 1.092878e-02 1.248656e-02 1.547699e-02 1.666790e-02 1.913089e-02 1.977504e-02 2.148252e-02 2.136130e-02 2.205373e-02 2.091860e-02 2.032060e-02 1.791447e-02 1.576547e-02 1.186108e-02 7.964901e-03 2.422912e-03 -3.283009e-03 -1.043800e-02 -1.780032e-02 -2.629753e-02 -3.487097e-02 -4.413119e-02 -5.314376e-02 -6.227825e-02 -7.068330e-02 -7.859695e-02 -8.524433e-02 -9.085566e-02 -9.476126e-02 -9.727979e-02 -9.789001e-02 -9.701563e-02 -9.431802e-02 -9.023648e-02 -8.464001e-02 -7.782424e-02 -6.988321e-02 -6.082206e-02 -5.096589e-02 -3.996933e-02 -2.838866e-02 -1.562309e-02 -2.476030e-03 1.159199e-02 2.545294e-02 3.916369e-02 5.118963e-02 6.096600e-02 6.674218e-02 6.787665e-02 6.348909e-02 5.366715e-02 4.103871e-02 2.490178e-02 1.362490e-02 -6.935725e-04 -9.087807e-03 -2.066799e-02 -2.679852e-02 -2.523373e-02 -2.220115e-02 -2.374352e-02 -2.650187e-02 -2.938778e-02 -2.780954e-02 -2.730274e-02 -2.108135e-02 -2.098180e-02 -1.488767e-02 -1.606958e-02 -1.378777e-02 1.065718e-02 1.427980e-02 1.939619e-02 1.510972e-02 1.379232e-02 8.373003e-03 6.000691e-03 1.128249e-03 -1.102568e-03 -5.341880e-03 -7.285513e-03 -1.105444e-02 -1.275508e-02 -1.618282e-02 -1.768998e-02 -2.084390e-02 -2.218421e-02 -2.508464e-02 -2.626424e-02 -2.890034e-02 -2.991118e-02 -3.225252e-02 -3.307784e-02 -3.508294e-02 
-3.355091e-02 -3.494254e-02 -3.542592e-02 -3.646613e-02 -3.667863e-02 -3.732865e-02 -3.725224e-02 -3.748250e-02 -3.710871e-02 -3.690153e-02 -3.623229e-02 -3.558309e-02 -3.463025e-02 -3.354734e-02 -3.233088e-02 -3.083399e-02 -2.937957e-02 -2.749757e-02 -2.583375e-02 -2.360229e-02 -2.175830e-02 -1.921797e-02 -1.722266e-02 -1.441829e-02 -1.230064e-02 -9.282307e-03 -7.073928e-03 -3.899777e-03 -1.639526e-03 1.619354e-03 3.878790e-03 7.131714e-03 9.315546e-03 1.244419e-02 1.444626e-02 1.729611e-02 1.896976e-02 2.134260e-02 2.249360e-02 2.414328e-02 2.452754e-02 2.516262e-02 2.449276e-02 2.379070e-02 2.175657e-02 1.939531e-02 1.570455e-02 1.141740e-02 5.860876e-03 -4.818462e-04 -7.939082e-03 -1.622626e-02 -2.533899e-02 -3.511261e-02 -4.526389e-02 -5.565394e-02 -6.583078e-02 -7.559579e-02 -8.449723e-02 -9.223072e-02 -9.854369e-02 -1.030425e-01 -1.058258e-01 -1.064869e-01 -1.054773e-01 -1.024815e-01 -9.810579e-02 -9.221752e-02 -8.526884e-02 -7.736327e-02 -6.853224e-02 -5.913433e-02 -4.865896e-02 -3.770994e-02 -2.536006e-02 -1.241399e-02 1.902530e-03 1.666712e-02 3.148692e-02 4.562957e-02 5.653879e-02 6.451044e-02 6.487483e-02 6.025894e-02 4.660064e-02 2.918508e-02 1.002315e-02 -8.678306e-03 -2.080376e-02 -3.547231e-02 -4.604943e-02 -4.183129e-02 -3.960532e-02 -3.750688e-02 -2.722860e-02 -7.002958e-03 7.001223e-03 2.709771e-02 3.653740e-02 4.697113e-02 5.218460e-02 5.709416e-02 5.987507e-02 6.094460e-02 6.092774e-02 4.292102e-02 3.409580e-02 2.197164e-02 1.614693e-02 8.846270e-03 5.183228e-03 3.051365e-04 -2.269132e-03 -5.980635e-03 -8.016809e-03 -1.113851e-02 -1.288762e-02 -1.567779e-02 -1.724702e-02 -1.981428e-02 -2.124109e-02 -2.361949e-02 -2.490571e-02 -2.708951e-02 -2.821806e-02 -3.017935e-02 -3.112334e-02 -3.282221e-02 
-3.967179e-02 -4.141330e-02 -4.181258e-02 -4.310722e-02 -4.324628e-02 -4.403882e-02 -4.389585e-02 -4.414525e-02 -4.370936e-02 -4.339217e-02 -4.266417e-02 -4.177587e-02 -4.076754e-02 -3.932192e-02 -3.805374e-02 -3.608036e-02 -3.457832e-02 -3.211880e-02 -3.041094e-02 -2.751503e-02 -2.562855e-02 -2.235075e-02 -2.031057e-02 -1.670828e-02 -1.453747e-02 -1.067127e-02 -8.393867e-03 -4.330181e-03 -1.976557e-03 2.207020e-03 4.592379e-03 8.799264e-03 1.114776e-02 1.525251e-02 1.745991e-02 2.129721e-02 2.321173e-02 2.656578e-02 2.797785e-02 3.057482e-02 3.121163e-02 3.271915e-02 3.224858e-02 3.228789e-02 3.033827e-02 2.851644e-02 2.471985e-02 2.069004e-02 1.475670e-02 8.312652e-03 1.397027e-04 -8.658062e-03 -1.885266e-02 -2.954016e-02 -4.109226e-02 -5.270693e-02 -6.445698e-02 -7.556870e-02 -8.598023e-02 -9.493361e-02 -1.024385e-01 -1.078083e-01 -1.113023e-01 -1.123836e-01 -1.116020e-01 -1.086163e-01 -1.040957e-01 -9.793967e-02 -9.062240e-02 -8.233390e-02 -7.306535e-02 -6.332329e-02 -5.244658e-02 -4.124928e-02 -2.844829e-02 -1.512637e-02 1.125065e-04 1.578677e-02 3.250207e-02 4.799095e-02 6.158046e-02 6.970875e-02 7.167562e-02 6.298638e-02 4.620696e-02 2.086089e-02 -7.920007e-03 -2.505644e-02 -4.861605e-02 -6.442910e-02 -4.296882e-02 -3.082136e-02 -2.182875e-02 2.316042e-02 4.922381e-02 7.649772e-02 8.788632e-02 9.402156e-02 9.522409e-02 9.347450e-02 9.423570e-02 9.049166e-02 9.273441e-02 9.016569e-02 7.859381e-02 5.023380e-02 3.516150e-02 1.961155e-02 1.242649e-02 4.233390e-03 6.357706e-04 -4.562951e-03 -6.761792e-03 -1.075056e-02 -1.239483e-02 -1.586320e-02 -1.727118e-02 -2.048283e-02 -2.176995e-02 -2.481261e-02 -2.601018e-02 -2.889132e-02 -2.999246e-02 -3.267916e-02 -3.365836e-02 -3.609618e-02 -3.691902e-02 -3.904278e-02 
-3.749153e-02 -3.898876e-02 -3.950170e-02 -4.063386e-02 -4.085558e-02 -4.156657e-02 -4.146847e-02 -4.171553e-02 -4.128281e-02 -4.103971e-02 -4.027227e-02 -3.953054e-02 -3.844180e-02 -3.720980e-02 -3.582377e-02 -3.412385e-02 -3.247078e-02 -3.033524e-02 -2.844699e-02 -2.591386e-02 -2.381999e-02 -2.092961e-02 -1.865504e-02 -1.544839e-02 -1.301344e-02 -9.532891e-03 -6.956177e-03 -3.248970e-03 -5.532871e-04 3.321964e-03 6.100713e-03 1.006461e-02 1.286570e-02 1.680609e-02 1.953008e-02 2.328831e-02 2.578216e-02 2.913924e-02 3.118241e-02 3.384765e-02 3.514272e-02 3.674920e-02 3.692182e-02 3.703504e-02 3.565067e-02 3.379916e-02 3.040613e-02 2.614476e-02 2.035422e-02 1.337076e-02 4.981742e-03 -4.750007e-03 -1.558479e-02 -2.762243e-02 -4.022269e-02 -5.350076e-02 -6.655716e-02 -7.937312e-02 -9.104662e-02 -1.013295e-01 -1.096667e-01 -1.155914e-01 -1.192089e-01 -1.199588e-01 -1.186494e-01 -1.148161e-01 -1.095895e-01 -1.027727e-01 -9.521871e-02 -8.710099e-02 -7.850954e-02 -7.004633e-02 -6.074358e-02 -5.166221e-02 -4.069171e-02 -2.929865e-02 -1.494243e-02 5.009103e-04 1.818686e-02 3.613563e-02 5.167757e-02 6.425417e-02 6.555562e-02 5.962274e-02 3.525959e-02 4.488941e-03 -3.031637e-02 -6.320405e-02 -8.389558e-02 -5.691538e-02 -4.837959e-02 -9.258322e-03 5.271828e-02 9.390893e-02 9.907271e-02 8.769845e-02 7.648337e-02 6.034000e-02 5.196604e-02 4.220320e-02 3.759719e-02 3.162118e-02 2.971158e-02 2.573629e-02 3.255613e-02 2.028894e-02 1.518247e-02 6.650428e-03 2.925385e-03 -2.190850e-03 -4.506487e-03 -7.982784e-03 -9.639142e-03 -1.243019e-02 -1.383967e-02 -1.636567e-02 -1.769961e-02 -2.012488e-02 -2.143523e-02 -2.380546e-02 -2.508810e-02 -2.739164e-02 -2.861560e-02 -3.081098e-02 -3.193209e-02 -3.396155e-02 -3.492974e-02 -3.672721e-02 
-4.425441e-02 -4.617792e-02 -4.661477e-02 -4.806228e-02 -4.821623e-02 -4.911045e-02 -4.894807e-02 -4.923160e-02 -4.873526e-02 -4.837481e-02 -4.754362e-02 -4.653161e-02 -4.537998e-02 -4.373291e-02 -4.228678e-02 -4.004085e-02 -3.833235e-02 -3.553732e-02 -3.359896e-02 -3.031153e-02 -2.817124e-02 -2.444949e-02 -2.212767e-02 -1.802768e-02 -1.553697e-02 -1.111250e-02 -8.460961e-03 -3.766669e-03 -9.644471e-04 3.937102e-03 6.867450e-03 1.189499e-02 1.490478e-02 1.994411e-02 2.294186e-02 2.782892e-02 3.066196e-02 3.516490e-02 3.760121e-02 4.140436e-02 4.311845e-02 4.581275e-02 4.638110e-02 4.746859e-02 4.638319e-02 4.530564e-02 4.201732e-02 3.822304e-02 3.222893e-02 2.529239e-02 1.628087e-02 6.083772e-03 -5.861869e-03 -1.890242e-02 -3.307455e-02 -4.779687e-02 -6.270684e-02 -7.715781e-02 -9.062880e-02 -1.023766e-01 -1.120672e-01 -1.189692e-01 -1.232802e-01 -1.244224e-01 -1.232441e-01 -1.193402e-01 -1.138926e-01 -1.067427e-01 -9.879489e-02 -9.028320e-02 -8.134854e-02 -7.271380e-02 -6.344155e-02 -5.476675e-02 -4.439748e-02 -3.379348e-02 -2.003849e-02 -4.768895e-03 1.360761e-02 3.281001e-02 5.142132e-02 6.488187e-02 7.097747e-02 5.895077e-02 3.637541e-02 -1.290075e-02 -5.903264e-02 -7.371780e-02 -6.339149e-02 -3.624146e-02 8.321096e-03 1.075076e-01 1.252918e-01 8.476985e-02 5.382173e-02 2.481427e-02 3.839772e-03 -1.384388e-02 -2.143253e-02 -2.985074e-02 -3.301830e-02 -3.679478e-02 -3.803971e-02 -4.106071e-02 -2.986840e-02 -2.070637e-02 -1.390351e-02 -1.267110e-02 -1.114571e-02 -1.273558e-02 -1.276249e-02 -1.507040e-02 -1.556779e-02 -1.812213e-02 -1.884279e-02 -2.155242e-02 -2.242591e-02 -2.525015e-02 -2.622981e-02 -2.911566e-02 -3.015127e-02 -3.302804e-02 -3.406370e-02 -3.684673e-02 -3.782263e-02 -4.041781e-02 -4.127254e-02 -4.358097e-02 