# vtk DataFile Version 2.0
Comment goes here
ASCII

DATASET STRUCTURED_POINTS
DIMENSIONS    128   128   1

ORIGIN    0.000   0.000   0.000
SPACING   0.0156250.015625   1.000

POINT_DATA   16384
SCALARS uY double
LOOKUP_TABLE default

2.181082e-05 1.925240e-05 2.210766e-05 1.931250e-05 2.226433e-05 1.924020e-05 2.226192e-05 1.902258e-05 2.208561e-05 1.865182e-05 2.172702e-05 1.812769e-05 2.118686e-05 1.746009e-05 2.047741e-05 1.667130e-05 1.962460e-05 1.579750e-05 1.866928e-05 1.488939e-05 1.766727e-05 1.401138e-05 1.668805e-05 1.323934e-05 1.581165e-05 1.265651e-05 1.512389e-05 1.234771e-05 1.470973e-05 1.239194e-05 1.464509e-05 1.285344e-05 1.498728e-05 1.377183e-05 1.576459e-05 1.515151e-05 1.696525e-05 1.695090e-05 1.852658e-05 1.907212e-05 2.032475e-05 2.135180e-05 2.216612e-05 2.355390e-05 2.378135e-05 2.536617e-05 2.482417e-05 2.640220e-05 2.487708e-05 2.621167e-05 2.346716e-05 2.430209e-05 2.009498e-05 2.017495e-05 1.427956e-05 1.337841e-05 5.620150e-06 3.576685e-06 -6.126440e-06 -9.367331e-06 -2.095905e-05 -2.530403e-05 -3.854637e-05 -4.371694e-05 -5.815815e-05 -6.366894e-05 -7.863324e-05 -8.379627e-05 -9.840580e-05 -1.023715e-04 -1.156082e-04 -1.174516e-04 -1.282627e-04 -1.271176e-04 -1.345638e-04 -1.297975e-04 -1.332313e-04 -1.246348e-04 -1.238771e-04 -1.118194e-04 -1.072770e-04 -9.275069e-05 -8.540867e-05 -6.990673e-05 -6.115669e-05 -4.638358e-05 -3.771847e-05 -2.521646e-05 -1.788008e-05 -8.685080e-06 -3.373043e-06 2.224172e-06 5.518715e-06 8.024755e-06 9.902975e-06 1.035681e-05 1.167182e-05 1.118467e-05 1.262187e-05 1.198243e-05 1.380030e-05 1.330253e-05 1.533385e-05 1.484584e-05 1.673032e-05 1.598680e-05 1.751871e-05 1.647742e-05 1.774334e-05 1.653863e-05 1.774349e-05 1.650317e-05 1.780964e-05 1.657540e-05 1.806401e-05 1.680781e-05 1.850161e-05 1.716682e-05 1.906289e-05 1.759326e-05 1.968127e-05 1.803298e-05 2.030185e-05 1.844516e-05 2.088353e-05 1.880030e-05 2.139509e-05 1.907580e-05 
5.058903e-03 4.576131e-03 3.852284e-03 3.374407e-03 2.628859e-03 2.164848e-03 1.409001e-03 9.681459e-04 2.151090e-04 -1.929064e-04 -9.284473e-04 -1.293680e-03 -1.995824e-03 -2.308298e-03 -2.960394e-03 -3.210327e-03 -3.795434e-03 -3.973382e-03 -4.474661e-03 -4.571565e-03 -4.972560e-03 -4.979711e-03 -5.264582e-03 -5.173587e-03 -5.327355e-03 -5.130209e-03 -5.139139e-03 -4.828556e-03 -4.680826e-03 -4.250953e-03 -3.937720e-03 -3.385350e-03 -2.902310e-03 -2.228641e-03 -1.578092e-03 -7.909921e-04 1.567715e-05 8.990627e-04 1.838688e-03 2.789286e-03 3.824409e-03 4.799002e-03 5.876059e-03 6.816133e-03 7.865039e-03 8.697445e-03 9.633338e-03 1.027353e-02 1.100138e-02 1.135979e-02 1.178225e-02 1.177388e-02 1.180219e-02 1.135866e-02 1.092535e-02 1.000769e-02 9.079170e-03 7.688676e-03 6.274801e-03 4.459293e-03 2.617660e-03 4.713053e-04 -1.694761e-03 -4.037749e-03 -6.386403e-03 -8.761818e-03 -1.112243e-02 -1.334671e-02 -1.552963e-02 -1.740944e-02 -1.921579e-02 -2.055839e-02 -2.179319e-02 -2.242333e-02 -2.291857e-02 -2.270870e-02 -2.236091e-02 -2.127633e-02 -2.009403e-02 -1.824070e-02 -1.638070e-02 -1.402701e-02 -1.178762e-02 -9.329158e-03 -7.082418e-03 -4.946527e-03 -3.035163e-03 -1.565047e-03 -2.197065e-04 4.159608e-04 1.125467e-03 9.964488e-04 1.210880e-03 6.395344e-04 6.862348e-04 1.027084e-04 3.301136e-04 7.893535e-05 7.231523e-04 9.804490e-04 2.080375e-03 2.840497e-03 4.246346e-03 5.290744e-03 6.694588e-03 7.651459e-03 8.752456e-03 9.427534e-03 1.014619e-02 1.053837e-02 1.092573e-02 1.109231e-02 1.121923e-02 1.120995e-02 1.113291e-02 1.098439e-02 1.074674e-02 1.048924e-02 1.012567e-02 9.786022e-03 9.324102e-03 8.925376e-03 8.386111e-03 7.947048e-03 7.345900e-03 6.881214e-03 6.229761e-03 5.751122e-03 
9.773562e-03 8.779326e-03 7.478162e-03 6.490721e-03 5.153707e-03 4.191671e-03 2.838535e-03 1.921270e-03 5.749222e-04 -2.773577e-04 -1.590946e-03 -2.357498e-03 -3.609863e-03 -4.269932e-03 -5.430900e-03 -5.964207e-03 -7.002680e-03 -7.389750e-03 -8.274368e-03 -8.496638e-03 -9.196275e-03 -9.236025e-03 -9.720197e-03 -9.560466e-03 -9.799811e-03 -9.424527e-03 -9.391610e-03 -8.786218e-03 -8.456915e-03 -7.609782e-03 -6.965507e-03 -5.870321e-03 -4.901247e-03 -3.560517e-03 -2.269829e-03 -6.993895e-04 8.916207e-04 2.657400e-03 4.503842e-03 6.406768e-03 8.435006e-03 1.038863e-02 1.249257e-02 1.437988e-02 1.642009e-02 1.809477e-02 1.990200e-02 2.119490e-02 2.257936e-02 2.331125e-02 2.407863e-02 2.407940e-02 2.405307e-02 2.318606e-02 2.223310e-02 2.042091e-02 1.847764e-02 1.572413e-02 1.281526e-02 9.217913e-03 5.464095e-03 1.212899e-03 -3.175453e-03 -7.812144e-03 -1.255195e-02 -1.724934e-02 -2.200624e-02 -2.640534e-02 -3.081270e-02 -3.453848e-02 -3.821280e-02 -4.089160e-02 -4.345192e-02 -4.474069e-02 -4.584724e-02 -4.549083e-02 -4.491655e-02 -4.283860e-02 -4.056861e-02 -3.697095e-02 -3.328951e-02 -2.869745e-02 -2.419346e-02 -1.937852e-02 -1.482170e-02 -1.059998e-02 -6.725823e-03 -3.736672e-03 -1.050367e-03 3.758659e-04 1.729009e-03 1.667927e-03 1.998041e-03 1.019940e-03 9.874840e-04 -1.003607e-04 2.270441e-04 -2.564977e-04 8.879443e-04 1.399920e-03 3.457413e-03 4.993344e-03 7.701504e-03 9.832972e-03 1.258068e-02 1.450303e-02 1.664977e-02 1.798367e-02 1.938262e-02 2.015336e-02 2.091660e-02 2.124488e-02 2.151081e-02 2.149102e-02 2.136730e-02 2.106783e-02 2.063877e-02 2.011809e-02 1.945284e-02 1.876404e-02 1.791810e-02 1.710721e-02 1.612260e-02 1.522706e-02 1.413417e-02 1.318342e-02 1.200422e-02 1.102175e-02 
1.511633e-02 1.367331e-02 1.149399e-02 1.006390e-02 7.815823e-03 6.425787e-03 4.143512e-03 2.821770e-03 5.452278e-04 -6.787231e-04 -2.904750e-03 -4.000649e-03 -6.127714e-03 -7.065306e-03 -9.042794e-03 -9.792558e-03 -1.156913e-02 -1.210275e-02 -1.362753e-02 -1.391800e-02 -1.514139e-02 -1.516285e-02 -1.603720e-02 -1.576471e-02 -1.624488e-02 -1.565453e-02 -1.569896e-02 -1.476872e-02 -1.434131e-02 -1.305307e-02 -1.212627e-02 -1.046937e-02 -9.028817e-03 -7.005373e-03 -5.056116e-03 -2.687839e-03 -2.619030e-04 2.401869e-03 5.237192e-03 8.111254e-03 1.124550e-02 1.420170e-02 1.747533e-02 2.033859e-02 2.354122e-02 2.609095e-02 2.896601e-02 3.094541e-02 3.320369e-02 3.433872e-02 3.568201e-02 3.571070e-02 3.586515e-02 3.457494e-02 3.333080e-02 3.059868e-02 2.784966e-02 2.367667e-02 1.945034e-02 1.398124e-02 8.452101e-03 1.974058e-03 -4.543911e-03 -1.162276e-02 -1.870042e-02 -2.588423e-02 -3.300880e-02 -3.974745e-02 -4.635199e-02 -5.206802e-02 -5.755714e-02 -6.167117e-02 -6.545397e-02 -6.742746e-02 -6.897994e-02 -6.840115e-02 -6.737915e-02 -6.410506e-02 -6.050099e-02 -5.482273e-02 -4.910097e-02 -4.183694e-02 -3.493153e-02 -2.732946e-02 -2.042286e-02 -1.384278e-02 -8.009566e-03 -3.536298e-03 5.152685e-04 2.340061e-03 4.370282e-03 3.745911e-03 4.184054e-03 2.180798e-03 2.111896e-03 1.374605e-04 6.628655e-04 -2.357324e-04 1.624705e-03 2.310826e-03 5.604505e-03 7.904444e-03 1.219799e-02 1.547753e-02 1.979180e-02 2.271957e-02 2.602463e-02 2.803721e-02 3.016789e-02 3.134568e-02 3.250453e-02 3.303097e-02 3.342470e-02 3.342992e-02 3.321359e-02 3.279519e-02 3.209331e-02 3.134049e-02 3.025745e-02 2.925312e-02 2.787297e-02 2.668861e-02 2.507483e-02 2.376779e-02 2.196636e-02 2.058099e-02 1.862591e-02 1.719707e-02 
1.947891e-02 1.749245e-02 1.488569e-02 1.290844e-02 1.022335e-02 8.293021e-03 5.569587e-03 3.725755e-03 1.010768e-03 -7.051237e-04 -3.358508e-03 -4.903974e-03 -7.437579e-03 -8.770286e-03 -1.112265e-02 -1.220152e-02 -1.430959e-02 -1.509552e-02 -1.689599e-02 -1.735197e-02 -1.878225e-02 -1.887314e-02 -1.987199e-02 -1.956414e-02 -2.007243e-02 -1.933367e-02 -1.929579e-02 -1.809643e-02 -1.746277e-02 -1.577822e-02 -1.450950e-02 -1.232493e-02 -1.039853e-02 -7.715860e-03 -5.134437e-03 -1.981525e-03 1.216589e-03 4.775149e-03 8.504462e-03 1.235616e-02 1.647301e-02 2.044768e-02 2.474188e-02 2.860604e-02 3.279795e-02 3.625625e-02 4.000277e-02 4.270999e-02 4.562246e-02 4.720877e-02 4.888517e-02 4.899558e-02 4.906647e-02 4.741190e-02 4.559575e-02 4.200852e-02 3.816677e-02 3.264868e-02 2.682764e-02 1.957699e-02 1.202375e-02 3.431715e-03 -5.421468e-03 -1.480458e-02 -2.438108e-02 -3.389674e-02 -4.352459e-02 -5.245479e-02 -6.140598e-02 -6.900639e-02 -7.652051e-02 -8.204326e-02 -8.735104e-02 -9.008568e-02 -9.246957e-02 -9.184664e-02 -9.078041e-02 -8.656676e-02 -8.194130e-02 -7.448765e-02 -6.684167e-02 -5.723419e-02 -4.781320e-02 -3.772990e-02 -2.821694e-02 -1.943948e-02 -1.143241e-02 -5.305321e-03 1.196424e-04 2.896792e-03 5.396950e-03 4.900594e-03 5.170063e-03 2.714054e-03 2.230371e-03 -4.006768e-04 -2.812422e-05 -1.319206e-03 8.132352e-04 1.619230e-03 5.678507e-03 8.757691e-03 1.429783e-02 1.888081e-02 2.460186e-02 2.853955e-02 3.283417e-02 3.545908e-02 3.821538e-02 3.976243e-02 4.129831e-02 4.201505e-02 4.258467e-02 4.261320e-02 4.240222e-02 4.185564e-02 4.102451e-02 4.001866e-02 3.870848e-02 3.735546e-02 3.568074e-02 3.407738e-02 3.212331e-02 3.034659e-02 2.817307e-02 2.628219e-02 2.393165e-02 2.197318e-02 
2.511997e-02 2.271662e-02 1.907533e-02 1.668607e-02 1.291832e-02 1.058917e-02 6.753724e-03 4.533158e-03 6.985031e-04 -1.362608e-03 -5.119486e-03 -6.969015e-03 -1.056498e-02 -1.215112e-02 -1.549969e-02 -1.677236e-02 -1.978636e-02 -2.069808e-02 -2.329165e-02 -2.379763e-02 -2.588755e-02 -2.594520e-02 -2.745168e-02 -2.701988e-02 -2.786721e-02 -2.690609e-02 -2.702397e-02 -2.549586e-02 -2.482213e-02 -2.269458e-02 -2.118007e-02 -1.843162e-02 -1.604770e-02 -1.267659e-02 -9.425639e-03 -5.461558e-03 -1.389966e-03 3.091995e-03 7.879239e-03 1.274382e-02 1.806878e-02 2.310730e-02 2.870766e-02 3.362957e-02 3.915376e-02 4.358709e-02 4.860026e-02 5.210541e-02 5.611066e-02 5.821165e-02 6.068965e-02 6.092437e-02 6.139148e-02 5.937829e-02 5.745789e-02 5.296913e-02 4.846414e-02 4.149082e-02 3.444025e-02 2.522882e-02 1.593125e-02 4.979067e-03 -6.024879e-03 -1.801471e-02 -2.999286e-02 -4.217872e-02 -5.426934e-02 -6.573363e-02 -7.699621e-02 -8.678522e-02 -9.623243e-02 -1.033794e-01 -1.100084e-01 -1.135756e-01 -1.164453e-01 -1.156455e-01 -1.140592e-01 -1.085088e-01 -1.023228e-01 -9.239688e-02 -8.234984e-02 -6.945093e-02 -5.724594e-02 -4.368646e-02 -3.156144e-02 -1.991232e-02 -9.828998e-03 -2.086121e-03 4.766115e-03 7.588209e-03 1.068264e-02 8.822235e-03 8.851714e-03 4.526241e-03 3.751518e-03 -2.265951e-04 1.537453e-04 -1.781702e-03 1.114229e-03 1.906373e-03 7.324771e-03 1.111227e-02 1.846439e-02 2.449308e-02 3.206055e-02 3.706863e-02 4.254464e-02 4.582656e-02 4.931757e-02 5.132017e-02 5.329078e-02 5.429048e-02 5.502273e-02 5.515031e-02 5.485424e-02 5.424105e-02 5.311708e-02 5.191682e-02 5.014681e-02 4.851009e-02 4.624036e-02 4.429454e-02 4.163206e-02 3.947572e-02 3.649512e-02 3.420225e-02 3.095727e-02 2.858506e-02 
2.910310e-02 2.612323e-02 2.220777e-02 1.922988e-02 1.518000e-02 1.226206e-02 8.139199e-03 5.342869e-03 1.219773e-03 -1.390023e-03 -5.430448e-03 -7.787261e-03 -1.165452e-02 -1.369262e-02 -1.729169e-02 -1.894803e-02 -2.218219e-02 -2.339760e-02 -2.617056e-02 -2.688987e-02 -2.910700e-02 -2.927831e-02 -3.084730e-02 -3.042087e-02 -3.125233e-02 -3.017992e-02 -3.018876e-02 -2.842454e-02 -2.753324e-02 -2.503705e-02 -2.318159e-02 -1.992566e-02 -1.706485e-02 -1.304424e-02 -9.172752e-03 -4.419556e-03 4.158462e-04 5.815422e-03 1.149751e-02 1.738483e-02 2.370762e-02 2.983490e-02 3.648867e-02 4.250772e-02 4.907179e-02 5.453328e-02 6.048195e-02 6.485084e-02 6.957828e-02 7.227079e-02 7.513935e-02 7.558422e-02 7.599725e-02 7.371876e-02 7.121181e-02 6.592355e-02 6.025863e-02 5.194737e-02 4.318637e-02 3.216000e-02 2.069183e-02 7.570705e-03 -5.920991e-03 -2.027027e-02 -3.488774e-02 -4.945022e-02 -6.417482e-02 -7.787470e-02 -9.163226e-02 -1.033771e-01 -1.150564e-01 -1.237396e-01 -1.321860e-01 -1.366961e-01 -1.407490e-01 -1.400819e-01 -1.387595e-01 -1.323326e-01 -1.252310e-01 -1.133876e-01 -1.011950e-01 -8.563599e-02 -7.039556e-02 -5.403979e-02 -3.870883e-02 -2.469073e-02 -1.202729e-02 -2.474699e-03 5.799896e-03 9.842261e-03 1.303909e-02 1.128625e-02 1.070986e-02 5.789558e-03 4.034309e-03 -9.849079e-04 -1.009529e-03 -3.669975e-03 -8.137638e-04 -2.914241e-04 5.500738e-03 9.876162e-03 1.830139e-02 2.619286e-02 3.542735e-02 4.140158e-02 4.774584e-02 5.153936e-02 5.562943e-02 5.807121e-02 6.049733e-02 6.180724e-02 6.280655e-02 6.304700e-02 6.283367e-02 6.214247e-02 6.096295e-02 5.953396e-02 5.761986e-02 5.564446e-02 5.317898e-02 5.081517e-02 4.792774e-02 4.529493e-02 4.207196e-02 3.925847e-02 3.575892e-02 3.283304e-02 
3.505452e-02 3.169055e-02 2.657633e-02 2.321546e-02 1.789839e-02 1.460703e-02 9.172133e-03 6.021425e-03 5.689761e-04 -2.365944e-03 -7.722873e-03 -1.036517e-02 -1.550488e-02 -1.777888e-02 -2.257567e-02 -2.440931e-02 -2.873768e-02 -3.006389e-02 -3.380153e-02 -3.455825e-02 -3.758770e-02 -3.771663e-02 -3.992582e-02 -3.937072e-02 -4.065310e-02 -3.935846e-02 -3.961395e-02 -3.752541e-02 -3.666325e-02 -3.373103e-02 -3.167589e-02 -2.786227e-02 -2.456443e-02 -1.985593e-02 -1.530607e-02 -9.730350e-03 -3.978468e-03 2.374870e-03 9.197462e-03 1.615413e-02 2.381229e-02 3.109172e-02 3.922711e-02 4.642670e-02 5.454675e-02 6.113806e-02 6.862008e-02 7.396420e-02 8.008173e-02 8.347123e-02 8.744926e-02 8.818119e-02 8.928244e-02 8.676073e-02 8.439700e-02 7.825101e-02 7.210121e-02 6.229417e-02 5.239882e-02 3.929064e-02 2.608989e-02 1.042586e-02 -5.277051e-03 -2.245301e-02 -3.958846e-02 -5.705946e-02 -7.440376e-02 -9.088741e-02 -1.071422e-01 -1.213392e-01 -1.351549e-01 -1.457396e-01 -1.557054e-01 -1.613115e-01 -1.659881e-01 -1.653062e-01 -1.634389e-01 -1.555774e-01 -1.466129e-01 -1.317689e-01 -1.165843e-01 -9.674143e-02 -7.805723e-02 -5.702310e-02 -3.871483e-02 -2.089911e-02 -6.143243e-03 5.287822e-03 1.510078e-02 1.862232e-02 2.240543e-02 1.779885e-02 1.618725e-02 7.925055e-03 5.665167e-03 -1.015315e-03 -1.457116e-03 -4.817513e-03 -9.936000e-04 -8.657625e-04 6.324668e-03 1.093251e-02 2.118685e-02 3.118432e-02 4.266375e-02 4.960003e-02 5.702756e-02 6.148213e-02 6.641353e-02 6.953728e-02 7.256394e-02 7.436605e-02 7.562400e-02 7.608820e-02 7.581615e-02 7.512515e-02 7.363953e-02 7.205860e-02 6.965007e-02 6.742761e-02 6.431600e-02 6.164702e-02 5.798173e-02 5.500777e-02 5.088644e-02 4.770909e-02 4.319947e-02 3.989591e-02 
3.863609e-02 3.466064e-02 2.943182e-02 2.543564e-02 1.999455e-02 1.605793e-02 1.048969e-02 6.699649e-03 1.106626e-03 -2.444585e-03 -7.945411e-03 -1.116365e-02 -1.644514e-02 -1.923824e-02 -2.416814e-02 -2.644924e-02 -3.089449e-02 -3.258386e-02 -3.641372e-02 -3.743874e-02 -4.052612e-02 -4.081960e-02 -4.304116e-02 -4.253885e-02 -4.377475e-02 -4.241315e-02 -4.254766e-02 -4.026384e-02 -3.918847e-02 -3.592341e-02 -3.354384e-02 -2.925057e-02 -2.549864e-02 -2.015606e-02 -1.500726e-02 -8.639723e-03 -2.135893e-03 5.162439e-03 1.288660e-02 2.092458e-02 2.961388e-02 3.807708e-02 4.733131e-02 5.576183e-02 6.502047e-02 7.280995e-02 8.135393e-02 8.775853e-02 9.473841e-02 9.892506e-02 1.034245e-01 1.045554e-01 1.056943e-01 1.030498e-01 1.001229e-01 9.324826e-02 8.587523e-02 7.471959e-02 6.296888e-02 4.796811e-02 3.240322e-02 1.446387e-02 -3.918170e-03 -2.354240e-02 -4.346388e-02 -6.335479e-02 -8.343081e-02 -1.021610e-01 -1.210080e-01 -1.371965e-01 -1.534298e-01 -1.656846e-01 -1.778244e-01 -1.846368e-01 -1.910288e-01 -1.907930e-01 -1.897501e-01 -1.811652e-01 -1.715741e-01 -1.545803e-01 -1.369621e-01 -1.138572e-01 -9.124082e-02 -6.686866e-02 -4.427145e-02 -2.406761e-02 -6.059711e-03 7.112125e-03 1.833585e-02 2.374318e-02 2.670759e-02 2.206575e-02 1.957033e-02 1.090850e-02 6.711882e-03 -1.698056e-03 -2.289541e-03 -6.734728e-03 -3.308798e-03 -4.308614e-03 2.390888e-03 6.542052e-03 1.688186e-02 3.015328e-02 4.396826e-02 5.121345e-02 5.923103e-02 6.421572e-02 7.000620e-02 7.397405e-02 7.775301e-02 8.016301e-02 8.185112e-02 8.257177e-02 8.246733e-02 8.175809e-02 8.028757e-02 7.850497e-02 7.603848e-02 7.349280e-02 7.029397e-02 6.721562e-02 6.345380e-02 6.000383e-02 5.578332e-02 5.207525e-02 4.746387e-02 4.358430e-02 
4.493773e-02 4.061219e-02 3.400914e-02 2.965723e-02 2.274672e-02 1.845786e-02 1.135475e-02 7.226790e-03 6.852998e-05 -3.794403e-03 -1.085249e-02 -1.434430e-02 -2.113588e-02 -2.415338e-02 -3.050838e-02 -3.295536e-02 -3.870634e-02 -4.049572e-02 -4.548204e-02 -4.653562e-02 -5.060522e-02 -5.085123e-02 -5.386032e-02 -5.322974e-02 -5.504154e-02 -5.346471e-02 -5.394886e-02 -5.135426e-02 -5.038881e-02 -4.670591e-02 -4.418382e-02 -3.935163e-02 -3.519303e-02 -2.917553e-02 -2.334676e-02 -1.615529e-02 -8.694416e-03 -4.163278e-04 8.536200e-03 1.770482e-02 2.787317e-02 3.759465e-02 4.853688e-02 5.830479e-02 6.939128e-02 7.851724e-02 8.892751e-02 9.655278e-02 1.053021e-01 1.104464e-01 1.164544e-01 1.181124e-01 1.203210e-01 1.176097e-01 1.151472e-01 1.074888e-01 9.985532e-02 8.715548e-02 7.437891e-02 5.713523e-02 3.983454e-02 1.911539e-02 -1.570427e-03 -2.428892e-02 -4.688325e-02 -6.995085e-02 -9.284277e-02 -1.146214e-01 -1.361923e-01 -1.551141e-01 -1.737398e-01 -1.882260e-01 -2.021671e-01 -2.104648e-01 -2.177408e-01 -2.178559e-01 -2.163512e-01 -2.064226e-01 -1.946178e-01 -1.740560e-01 -1.525154e-01 -1.236517e-01 -9.644702e-02 -6.533577e-02 -3.934683e-02 -1.370403e-02 5.766864e-03 2.120779e-02 3.409735e-02 3.806116e-02 4.226805e-02 3.182593e-02 2.610427e-02 1.138478e-02 7.714261e-03 -1.302489e-03 -3.637373e-03 -8.134229e-03 -2.616460e-03 -4.687194e-03 3.430489e-03 5.858604e-03 1.676189e-02 3.318536e-02 4.935126e-02 5.674330e-02 6.588857e-02 7.219783e-02 7.955318e-02 8.496103e-02 8.975902e-02 9.302475e-02 9.509240e-02 9.616101e-02 9.599991e-02 9.533336e-02 9.353128e-02 9.162696e-02 8.863625e-02 8.588062e-02 8.199790e-02 7.865867e-02 7.406354e-02 7.031941e-02 6.511918e-02 6.109249e-02 5.535883e-02 5.114201e-02 
4.810781e-02 4.313283e-02 3.658393e-02 3.154278e-02 2.467216e-02 1.967107e-02 1.259152e-02 7.748103e-03 5.974443e-04 -3.962712e-03 -1.102669e-02 -1.517595e-02 -2.198291e-02 -2.559808e-02 -3.197302e-02 -3.494070e-02 -4.071057e-02 -4.292999e-02 -4.792789e-02 -4.931058e-02 -5.337701e-02 -5.384349e-02 -5.682521e-02 -5.630004e-02 -5.804780e-02 -5.645461e-02 -5.682177e-02 -5.408071e-02 -5.292495e-02 -4.895483e-02 -4.614516e-02 -4.087226e-02 -3.630297e-02 -2.967791e-02 -2.329049e-02 -1.531354e-02 -7.126425e-03 2.119694e-03 1.197497e-02 2.228699e-02 3.352627e-02 4.454127e-02 5.668993e-02 6.785149e-02 8.021577e-02 9.075476e-02 1.024129e-01 1.113552e-01 1.211820e-01 1.273987e-01 1.341401e-01 1.364542e-01 1.388636e-01 1.362223e-01 1.332609e-01 1.249591e-01 1.160326e-01 1.019416e-01 8.710946e-02 6.782637e-02 4.788943e-02 2.471542e-02 1.106533e-03 -2.417861e-02 -4.968196e-02 -7.516187e-02 -1.007634e-01 -1.246679e-01 -1.487431e-01 -1.695297e-01 -1.905909e-01 -2.067811e-01 -2.232238e-01 -2.330515e-01 -2.427933e-01 -2.439074e-01 -2.442500e-01 -2.340133e-01 -2.223615e-01 -1.993858e-01 -1.752374e-01 -1.420013e-01 -1.093940e-01 -7.390661e-02 -4.158268e-02 -1.416705e-02 9.705114e-03 2.555701e-02 3.956401e-02 4.748834e-02 4.761136e-02 3.595439e-02 3.128984e-02 1.888631e-02 1.054890e-02 -1.916106e-03 -1.519142e-03 -7.055341e-03 -2.659316e-03 -7.203657e-03 -7.875185e-04 -2.095322e-03 4.825315e-03 2.657974e-02 4.573359e-02 5.111133e-02 6.131234e-02 6.981957e-02 7.942661e-02 8.686879e-02 9.296853e-02 9.724807e-02 9.985220e-02 1.012671e-01 1.012871e-01 1.006179e-01 9.887154e-02 9.677868e-02 9.381656e-02 9.075729e-02 8.691057e-02 8.318099e-02 7.863677e-02 7.442708e-02 6.928935e-02 6.472828e-02 5.906163e-02 5.424823e-02 
5.483803e-02 4.954813e-02 4.143390e-02 3.606175e-02 2.749569e-02 2.215816e-02 1.329092e-02 8.118961e-03 -8.666074e-04 -5.732666e-03 -1.462969e-02 -1.904755e-02 -2.763602e-02 -3.146954e-02 -3.952759e-02 -4.265332e-02 -4.996657e-02 -5.227711e-02 -5.864449e-02 -6.004781e-02 -6.528313e-02 -6.569810e-02 -6.962799e-02 -6.897754e-02 -7.143741e-02 -6.964148e-02 -7.047191e-02 -6.744294e-02 -6.648923e-02 -6.213308e-02 -5.925074e-02 -5.347531e-02 -4.854365e-02 -4.127695e-02 -3.422210e-02 -2.544046e-02 -1.626789e-02 -6.033538e-03 5.131066e-03 1.662524e-02 2.948995e-02 4.187267e-02 5.593308e-02 6.861080e-02 8.311190e-02 9.523891e-02 1.091567e-01 1.196340e-01 1.316936e-01 1.392163e-01 1.479668e-01 1.511409e-01 1.551069e-01 1.526517e-01 1.505667e-01 1.415914e-01 1.326867e-01 1.169858e-01 1.012539e-01 7.950654e-02 5.781744e-02 3.155780e-02 5.528373e-03 -2.315839e-02 -5.150956e-02 -8.042820e-02 -1.090513e-01 -1.362218e-01 -1.632431e-01 -1.869745e-01 -2.106730e-01 -2.293815e-01 -2.479314e-01 -2.597121e-01 -2.707260e-01 -2.728534e-01 -2.730370e-01 -2.620156e-01 -2.478685e-01 -2.210467e-01 -1.915411e-01 -1.505716e-01 -1.111476e-01 -6.528096e-02 -2.890761e-02 7.207600e-03 2.958301e-02 4.810085e-02 6.333508e-02 6.803760e-02 7.352188e-02 4.965873e-02 3.345671e-02 9.587926e-03 9.810062e-03 4.144728e-03 -3.330967e-03 -8.246960e-03 3.130143e-03 -2.758296e-03 5.544620e-03 -3.396959e-04 4.133772e-03 2.178867e-02 3.673585e-02 4.446324e-02 6.089045e-02 7.491747e-02 8.822763e-02 9.839347e-02 1.057952e-01 1.110751e-01 1.139235e-01 1.156154e-01 1.154595e-01 1.147884e-01 1.126596e-01 1.104529e-01 1.069524e-01 1.037254e-01 9.918301e-02 9.525000e-02 8.983993e-02 8.539600e-02 7.921167e-02 7.438684e-02 6.749000e-02 6.238515e-02 
5.760718e-02 5.162491e-02 4.374532e-02 3.761982e-02 2.926568e-02 2.313487e-02 1.445309e-02 8.473251e-03 -3.540313e-04 -6.014935e-03 -1.477911e-02 -1.995132e-02 -2.842920e-02 -3.295169e-02 -4.091769e-02 -4.464673e-02 -5.188283e-02 -5.469630e-02 -6.099775e-02 -6.279434e-02 -6.797048e-02 -6.866389e-02 -7.253467e-02 -7.204459e-02 -7.443479e-02 -7.267732e-02 -7.341128e-02 -7.029206e-02 -6.919230e-02 -6.460579e-02 -6.149842e-02 -5.533617e-02 -5.006594e-02 -4.223589e-02 -3.469219e-02 -2.514985e-02 -1.530398e-02 -4.094820e-03 7.952733e-03 2.064203e-02 3.460749e-02 4.839340e-02 6.375411e-02 7.800318e-02 9.394895e-02 1.077382e-01 1.231424e-01 1.352491e-01 1.486784e-01 1.576228e-01 1.674116e-01 1.715795e-01 1.759975e-01 1.738686e-01 1.713998e-01 1.618820e-01 1.515940e-01 1.344039e-01 1.163129e-01 9.225945e-02 6.751374e-02 3.849067e-02 9.191997e-03 -2.222879e-02 -5.356700e-02 -8.478286e-02 -1.158531e-01 -1.447502e-01 -1.737880e-01 -1.988789e-01 -2.245944e-01 -2.447223e-01 -2.658376e-01 -2.794316e-01 -2.938307e-01 -2.978881e-01 -3.016887e-01 -2.913872e-01 -2.792780e-01 -2.499738e-01 -2.184017e-01 -1.709771e-01 -1.239464e-01 -7.106824e-02 -2.403131e-02 1.200253e-02 4.158387e-02 5.396107e-02 6.985225e-02 8.571986e-02 7.219502e-02 3.777707e-02 3.901579e-02 3.691526e-02 1.495620e-02 -1.440053e-03 1.268100e-02 4.120837e-03 8.396952e-03 1.853778e-03 4.301759e-03 -2.383306e-03 1.388209e-03 -7.053794e-03 -5.372515e-03 1.669229e-02 4.596670e-02 6.922252e-02 8.699859e-02 1.001139e-01 1.085464e-01 1.146147e-01 1.176187e-01 1.194487e-01 1.193184e-01 1.185695e-01 1.165094e-01 1.141197e-01 1.107539e-01 1.072599e-01 1.029071e-01 9.862245e-02 9.343977e-02 8.855567e-02 8.262032e-02 7.726562e-02 7.062471e-02 6.490399e-02 
6.489637e-02 5.863458e-02 4.897706e-02 4.254106e-02 3.223369e-02 2.577483e-02 1.501322e-02 8.705060e-03 -2.270378e-03 -8.240557e-03 -1.915782e-02 -2.460129e-02 -3.517368e-02 -3.991333e-02 -4.985662e-02 -5.373737e-02 -6.278363e-02 -6.567776e-02 -7.358334e-02 -7.538914e-02 -8.193572e-02 -8.256990e-02 -8.755943e-02 -8.694530e-02 -9.019117e-02 -8.824574e-02 -8.956390e-02 -8.618787e-02 -8.539173e-02 -8.046639e-02 -7.736952e-02 -7.076394e-02 -6.519356e-02 -5.678458e-02 -4.860803e-02 -3.831414e-02 -2.747876e-02 -1.530757e-02 -1.892913e-03 1.199997e-02 2.772036e-02 4.296513e-02 6.045771e-02 7.640369e-02 9.481290e-02 1.104725e-01 1.285765e-01 1.425979e-01 1.588034e-01 1.695000e-01 1.819090e-01 1.873845e-01 1.939716e-01 1.923816e-01 1.913142e-01 1.812776e-01 1.713647e-01 1.524609e-01 1.336134e-01 1.067701e-01 8.023988e-02 4.772194e-02 1.587336e-02 -1.928805e-02 -5.364450e-02 -8.850781e-02 -1.227893e-01 -1.550504e-01 -1.872143e-01 -2.152740e-01 -2.437693e-01 -2.664705e-01 -2.898719e-01 -3.057601e-01 -3.218553e-01 -3.278599e-01 -3.321646e-01 -3.225029e-01 -3.080286e-01 -2.757431e-01 -2.368315e-01 -1.798531e-01 -1.212855e-01 -5.167973e-02 2.013943e-03 5.490319e-02 7.348469e-02 8.984502e-02 1.018108e-01 1.062237e-01 1.215590e-01 5.803566e-02 7.132339e-03 -2.476510e-03 1.996342e-02 9.152432e-03 1.563026e-03 -4.559389e-03 -3.469930e-03 -8.943716e-03 -1.873597e-03 -5.448751e-03 4.140578e-03 -1.871145e-02 -1.220985e-02 2.322157e-02 5.775345e-02 8.506628e-02 1.029834e-01 1.166420e-01 1.244155e-01 1.303734e-01 1.328523e-01 1.345364e-01 1.340097e-01 1.331533e-01 1.306997e-01 1.282209e-01 1.243640e-01 1.207743e-01 1.157657e-01 1.113612e-01 1.053156e-01 1.002761e-01 9.324672e-02 8.769505e-02 7.972047e-02 7.375979e-02 
6.730517e-02 6.029983e-02 5.107123e-02 4.380319e-02 3.388987e-02 2.653760e-02 1.613024e-02 8.900391e-03 -1.761590e-03 -8.645472e-03 -1.928815e-02 -2.560155e-02 -3.593499e-02 -4.146917e-02 -5.120612e-02 -5.578161e-02 -6.465244e-02 -6.812585e-02 -7.588654e-02 -7.814901e-02 -8.458099e-02 -8.554859e-02 -9.045150e-02 -9.004999e-02 -9.323005e-02 -9.137800e-02 -9.263639e-02 -8.923139e-02 -8.835709e-02 -8.326975e-02 -8.004148e-02 -7.312141e-02 -6.732213e-02 -5.841872e-02 -4.986511e-02 -3.886454e-02 -2.745209e-02 -1.433019e-02 -9.275869e-05 1.501854e-02 3.183753e-02 4.857446e-02 6.744445e-02 8.513308e-02 1.051605e-01 1.227469e-01 1.426142e-01 1.586216e-01 1.765645e-01 1.891074e-01 2.029678e-01 2.098711e-01 2.172788e-01 2.163590e-01 2.150996e-01 2.046483e-01 1.932305e-01 1.726513e-01 1.509587e-01 1.213315e-01 9.103680e-02 5.519809e-02 1.950712e-02 -1.867721e-02 -5.606425e-02 -9.295344e-02 -1.290276e-01 -1.621369e-01 -1.951226e-01 -2.233191e-01 -2.525397e-01 -2.756521e-01 -3.009273e-01 -3.185844e-01 -3.388381e-01 -3.481924e-01 -3.588285e-01 -3.521514e-01 -3.436905e-01 -3.097739e-01 -2.717566e-01 -2.047892e-01 -1.366990e-01 -5.269440e-02 2.082267e-02 7.197605e-02 1.086626e-01 9.510961e-02 1.177521e-01 1.496759e-01 8.230893e-02 1.473857e-02 3.692848e-02 1.270517e-02 -3.731260e-02 -4.271253e-02 -3.191160e-02 -4.009633e-02 -2.057005e-02 -2.238266e-02 -1.023573e-02 -1.452345e-02 -3.035737e-03 -1.285746e-02 1.053502e-02 4.976941e-02 7.587412e-02 9.844585e-02 1.111125e-01 1.225728e-01 1.282300e-01 1.333988e-01 1.351624e-01 1.365787e-01 1.359409e-01 1.349689e-01 1.326861e-01 1.300930e-01 1.265524e-01 1.227823e-01 1.181713e-01 1.134870e-01 1.078847e-01 1.024500e-01 9.588552e-02 8.981706e-02 8.231024e-02 7.571387e-02 
7.535190e-02 6.810052e-02 5.685176e-02 4.928674e-02 3.712017e-02 2.943757e-02 1.660681e-02 9.036505e-03 -4.143185e-03 -1.135146e-02 -2.452351e-02 -3.111969e-02 -4.391208e-02 -4.966638e-02 -6.171763e-02 -6.643717e-02 -7.741693e-02 -8.095409e-02 -9.057431e-02 -9.282457e-02 -1.008394e-01 -1.017291e-01 -1.079251e-01 -1.073920e-01 -1.115715e-01 -1.095429e-01 -1.115070e-01 -1.078812e-01 -1.074168e-01 -1.020532e-01 -9.893023e-02 -9.165309e-02 -8.563636e-02 -7.625546e-02 -6.713344e-02 -5.548331e-02 -4.311538e-02 -2.911319e-02 -1.349415e-02 2.785694e-03 2.144621e-02 3.968434e-02 6.087216e-02 8.040921e-02 1.032128e-01 1.229566e-01 1.459837e-01 1.643376e-01 1.856658e-01 2.005125e-01 2.177181e-01 2.265214e-01 2.368572e-01 2.369681e-01 2.377752e-01 2.270211e-01 2.164151e-01 1.939411e-01 1.716412e-01 1.387037e-01 1.065674e-01 6.665233e-02 2.830461e-02 -1.396325e-02 -5.448098e-02 -9.509788e-02 -1.345548e-01 -1.709641e-01 -2.072579e-01 -2.381859e-01 -2.701791e-01 -2.954279e-01 -3.227553e-01 -3.424155e-01 -3.644602e-01 -3.764916e-01 -3.886462e-01 -3.850269e-01 -3.754177e-01 -3.420465e-01 -2.948799e-01 -2.198022e-01 -1.308430e-01 -2.222477e-02 6.908780e-02 1.593173e-01 1.617411e-01 1.774339e-01 1.839696e-01 6.146426e-02 1.982443e-02 1.928085e-02 -6.794894e-02 -9.848976e-02 -4.004574e-02 -4.266319e-02 -2.310094e-02 -1.697461e-02 -1.536202e-03 -1.064571e-02 4.704654e-03 -6.852078e-03 7.300001e-03 -1.581792e-03 3.564122e-02 9.161906e-02 1.079381e-01 1.254841e-01 1.322353e-01 1.411522e-01 1.446925e-01 1.489822e-01 1.500824e-01 1.512654e-01 1.504084e-01 1.494264e-01 1.469660e-01 1.444220e-01 1.405680e-01 1.368383e-01 1.316880e-01 1.270045e-01 1.205862e-01 1.150965e-01 1.074113e-01 1.012243e-01 9.228243e-02 8.550177e-02 
7.748035e-02 6.942095e-02 5.881071e-02 5.031448e-02 3.873589e-02 3.003399e-02 1.773491e-02 9.100875e-03 -3.603874e-03 -1.187206e-02 -2.462255e-02 -3.222732e-02 -4.464693e-02 -5.131742e-02 -6.304153e-02 -6.855486e-02 -7.925340e-02 -8.344550e-02 -9.283425e-02 -9.559734e-02 -1.034363e-01 -1.047036e-01 -1.107837e-01 -1.105047e-01 -1.146273e-01 -1.127400e-01 -1.146951e-01 -1.111017e-01 -1.106515e-01 -1.052040e-01 -1.020788e-01 -9.457993e-02 -8.849007e-02 -7.871478e-02 -6.938248e-02 -5.712008e-02 -4.433233e-02 -2.945057e-02 -1.313192e-02 4.339777e-03 2.403727e-02 4.380920e-02 6.640324e-02 8.781703e-02 1.123858e-01 1.343047e-01 1.593815e-01 1.800962e-01 2.035907e-01 2.207737e-01 2.399652e-01 2.507434e-01 2.624322e-01 2.636864e-01 2.646306e-01 2.536537e-01 2.414054e-01 2.169540e-01 1.910273e-01 1.544707e-01 1.173137e-01 7.304046e-02 2.977935e-02 -1.609709e-02 -5.972714e-02 -1.019249e-01 -1.419442e-01 -1.775958e-01 -2.124225e-01 -2.410790e-01 -2.710423e-01 -2.943115e-01 -3.212171e-01 -3.416394e-01 -3.676214e-01 -3.848319e-01 -4.065888e-01 -4.102985e-01 -4.134374e-01 -3.817316e-01 -3.440696e-01 -2.546409e-01 -1.609499e-01 -2.040498e-02 1.008648e-01 1.958567e-01 2.494352e-01 1.828108e-01 9.304233e-02 7.129303e-02 7.473992e-03 -1.172928e-01 -1.136890e-01 -6.601704e-02 -2.596209e-02 -2.171845e-02 1.597944e-03 -7.249044e-03 7.177134e-03 -3.335643e-03 6.835401e-03 -4.811702e-03 5.381421e-03 -1.267982e-02 1.963350e-02 8.724847e-02 1.043040e-01 1.243601e-01 1.304087e-01 1.396336e-01 1.428022e-01 1.472356e-01 1.484282e-01 1.498110e-01 1.493304e-01 1.485342e-01 1.466045e-01 1.441629e-01 1.409262e-01 1.371739e-01 1.326923e-01 1.278374e-01 1.221171e-01 1.162946e-01 1.093185e-01 1.026329e-01 9.439316e-02 8.695226e-02 