# vtk DataFile Version 2.0
Comment goes here
ASCII

DATASET STRUCTURED_POINTS
DIMENSIONS    128   128   1

ORIGIN    0.000   0.000   0.000
SPACING   0.0156250.015625   1.000

POINT_DATA   16384
SCALARS uY double
LOOKUP_TABLE default

-2.054766e-05 -3.075990e-05 -1.928400e-05 -2.988035e-05 -1.743278e-05 -2.831852e-05 -1.497571e-05 -2.603421e-05 -1.187758e-05 -2.297089e-05 -8.088606e-06 -1.905919e-05 -3.548195e-06 -1.422164e-05 1.810258e-06 -8.378667e-06 8.053403e-06 -1.455622e-06 1.524089e-05 6.608975e-06 2.341731e-05 1.585436e-05 3.260354e-05 2.628797e-05 4.278782e-05 3.787620e-05 5.391757e-05 5.053617e-05 6.589251e-05 6.412946e-05 7.855983e-05 7.845822e-05 9.171185e-05 9.326413e-05 1.050858e-04 1.082296e-04 1.183655e-04 1.229808e-04 1.311835e-04 1.370907e-04 1.431228e-04 1.500827e-04 1.537180e-04 1.614319e-04 1.624543e-04 1.705678e-04 1.687689e-04 1.768778e-04 1.720547e-04 1.797170e-04 1.716731e-04 1.784276e-04 1.669790e-04 1.723713e-04 1.573612e-04 1.609777e-04 1.422994e-04 1.438072e-04 1.214357e-04 1.206252e-04 9.465545e-05 9.148467e-05 6.217370e-05 5.680993e-05 2.462056e-05 1.747698e-05 -1.688510e-05 -2.512667e-05 -6.069441e-05 -6.908906e-05 -1.046524e-04 -1.120441e-04 -1.462213e-04 -1.513516e-04 -1.827152e-04 -1.843770e-04 -2.116128e-04 -2.088117e-04 -2.308670e-04 -2.229420e-04 -2.391280e-04 -2.258078e-04 -2.358564e-04 -2.172860e-04 -2.214133e-04 -1.982222e-04 -1.972388e-04 -1.706641e-04 -1.660518e-04 -1.379559e-04 -1.316927e-04 -1.042415e-04 -9.827564e-05 -7.332168e-05 -6.899130e-05 -4.763274e-05 -4.541415e-05 -2.810461e-05 -2.774536e-05 -1.452787e-05 -1.543305e-05 -6.102614e-06 -7.664780e-06 -1.876243e-06 -3.621687e-06 -9.436040e-07 -2.528481e-06 -2.464128e-06 -3.588413e-06 -5.624623e-06 -6.010714e-06 -9.684212e-06 -9.097141e-06 -1.403691e-05 -1.230279e-05 -1.823948e-05 -1.524938e-05 -2.200292e-05 -1.770567e-05 -2.516357e-05 -1.955331e-05 -2.764753e-05 -2.075056e-05 -2.943685e-05 -2.130023e-05 -3.054158e-05 -2.122459e-05 -3.097902e-05 
4.234399e-03 4.584456e-03 4.584526e-03 4.903241e-03 4.886065e-03 5.165891e-03 5.124712e-03 5.360729e-03 5.292238e-03 5.482312e-03 5.386768e-03 5.531872e-03 5.413272e-03 5.517845e-03 5.384064e-03 5.456337e-03 5.319191e-03 5.371394e-03 5.246578e-03 5.294998e-03 5.201873e-03 5.266718e-03 5.227898e-03 5.332896e-03 5.373576e-03 5.545230e-03 5.692149e-03 5.958539e-03 6.238455e-03 6.627438e-03 7.064985e-03 7.601674e-03 8.216497e-03 8.919945e-03 9.723095e-03 1.060223e-02 1.159193e-02 1.264093e-02 1.379802e-02 1.499164e-02 1.627529e-02 1.756475e-02 1.890926e-02 2.021978e-02 2.153351e-02 2.276461e-02 2.393222e-02 2.496196e-02 2.585088e-02 2.654468e-02 2.701621e-02 2.724032e-02 2.716452e-02 2.680238e-02 2.607474e-02 2.504352e-02 2.359965e-02 2.186299e-02 1.968761e-02 1.726110e-02 1.438881e-02 1.133709e-02 7.845390e-03 4.273373e-03 2.723427e-04 -3.683902e-03 -8.058620e-03 -1.223529e-02 -1.682062e-02 -2.102081e-02 -2.561397e-02 -2.959594e-02 -3.393669e-02 -3.740470e-02 -4.116389e-02 -4.377560e-02 -4.656699e-02 -4.797151e-02 -4.940215e-02 -4.931394e-02 -4.907617e-02 -4.737381e-02 -4.536188e-02 -4.218460e-02 -3.859985e-02 -3.440556e-02 -2.980029e-02 -2.534101e-02 -2.053888e-02 -1.669428e-02 -1.252796e-02 -9.964631e-03 -6.888698e-03 -5.707851e-03 -3.604082e-03 -3.367430e-03 -1.762731e-03 -1.940779e-03 -3.496128e-04 -5.084748e-04 1.204390e-03 1.276750e-03 2.912209e-03 3.154868e-03 4.353279e-03 4.518254e-03 5.022889e-03 4.975158e-03 4.878175e-03 4.698264e-03 4.271813e-03 4.102284e-03 3.588942e-03 3.523025e-03 3.063708e-03 3.129906e-03 2.779625e-03 2.965661e-03 2.729178e-03 3.006180e-03 2.865491e-03 3.202210e-03 3.132230e-03 3.501107e-03 3.477080e-03 3.855799e-03 3.856163e-03 4.227284e-03 
7.985539e-03 8.659645e-03 8.894544e-03 9.503341e-03 9.713452e-03 1.024245e-02 1.040929e-02 1.084925e-02 1.096080e-02 1.130808e-02 1.135935e-02 1.161656e-02 1.161021e-02 1.178695e-02 1.173389e-02 1.184736e-02 1.176710e-02 1.184254e-02 1.176324e-02 1.183400e-02 1.179218e-02 1.189941e-02 1.193908e-02 1.213094e-02 1.230222e-02 1.263232e-02 1.298924e-02 1.351420e-02 1.411144e-02 1.488725e-02 1.577562e-02 1.685252e-02 1.807299e-02 1.948878e-02 2.106498e-02 2.283683e-02 2.476638e-02 2.688155e-02 2.912681e-02 3.153322e-02 3.401266e-02 3.661076e-02 3.919271e-02 4.183064e-02 4.433145e-02 4.680584e-02 4.899490e-02 5.105960e-02 5.267309e-02 5.405740e-02 5.482141e-02 5.525749e-02 5.491894e-02 5.417549e-02 5.253606e-02 5.045212e-02 4.739765e-02 4.390834e-02 3.942511e-02 3.457156e-02 2.874403e-02 2.266478e-02 1.565590e-02 8.564694e-03 5.894080e-04 -7.247986e-03 -1.594018e-02 -2.421547e-02 -3.333466e-02 -4.168387e-02 -5.086639e-02 -5.883830e-02 -6.759715e-02 -7.462371e-02 -8.231055e-02 -8.771225e-02 -9.353037e-02 -9.658943e-02 -9.969397e-02 -9.980607e-02 -9.950168e-02 -9.637749e-02 -9.238085e-02 -8.623486e-02 -7.892593e-02 -7.058566e-02 -6.113178e-02 -5.201178e-02 -4.220224e-02 -3.405813e-02 -2.568836e-02 -2.002484e-02 -1.400566e-02 -1.128537e-02 -7.340001e-03 -6.799747e-03 -3.895414e-03 -4.314184e-03 -1.435660e-03 -1.817637e-03 1.349446e-03 1.475572e-03 4.565729e-03 5.064194e-03 7.348028e-03 7.669165e-03 8.576499e-03 8.444252e-03 8.177911e-03 7.785993e-03 6.912397e-03 6.559876e-03 5.562319e-03 5.430343e-03 4.578946e-03 4.715197e-03 4.110434e-03 4.484112e-03 4.130649e-03 4.681275e-03 4.541390e-03 5.205852e-03 5.228869e-03 5.952384e-03 6.088218e-03 6.826808e-03 7.031030e-03 7.750512e-03 
1.262870e-02 1.372265e-02 1.372300e-02 1.472233e-02 1.466671e-02 1.554820e-02 1.541594e-02 1.616385e-02 1.594449e-02 1.655123e-02 1.624497e-02 1.671219e-02 1.633051e-02 1.667031e-02 1.623645e-02 1.647241e-02 1.602161e-02 1.618943e-02 1.576875e-02 1.591653e-02 1.558425e-02 1.577209e-02 1.559654e-02 1.589543e-02 1.595301e-02 1.644274e-02 1.681496e-02 1.758062e-02 1.834965e-02 1.947642e-02 2.071873e-02 2.228442e-02 2.406234e-02 2.612751e-02 2.847830e-02 3.107396e-02 3.399698e-02 3.711050e-02 4.055317e-02 4.411368e-02 4.795800e-02 5.182335e-02 5.587548e-02 5.982393e-02 6.381000e-02 6.754011e-02 7.111211e-02 7.425468e-02 7.700944e-02 7.915399e-02 8.066689e-02 8.140287e-02 8.127424e-02 8.024257e-02 7.815028e-02 7.509599e-02 7.084279e-02 6.565602e-02 5.919866e-02 5.193189e-02 4.338263e-02 3.423974e-02 2.384155e-02 1.314644e-02 1.235904e-03 -1.060057e-02 -2.361995e-02 -3.611378e-02 -4.976857e-02 -6.234587e-02 -7.605351e-02 -8.800957e-02 -1.010168e-01 -1.114782e-01 -1.228133e-01 -1.307485e-01 -1.392421e-01 -1.435690e-01 -1.479988e-01 -1.478108e-01 -1.471843e-01 -1.420613e-01 -1.359871e-01 -1.263039e-01 -1.153378e-01 -1.024628e-01 -8.828164e-02 -7.454541e-02 -5.976081e-02 -4.800038e-02 -3.535105e-02 -2.779208e-02 -1.875572e-02 -1.565988e-02 -9.717072e-03 -9.430330e-03 -4.961275e-03 -5.855727e-03 -1.172698e-03 -1.915154e-03 3.322434e-03 3.420289e-03 8.489651e-03 9.250199e-03 1.292993e-02 1.343688e-02 1.481320e-02 1.460852e-02 1.411707e-02 1.354050e-02 1.213230e-02 1.164994e-02 1.006807e-02 9.937796e-03 8.570323e-03 8.847917e-03 7.827269e-03 8.459212e-03 7.781679e-03 8.676527e-03 8.281096e-03 9.346249e-03 9.156208e-03 1.031191e-02 1.025360e-02 1.143559e-02 1.144534e-02 1.260310e-02 
1.572167e-02 1.712449e-02 1.763347e-02 1.890349e-02 1.935814e-02 2.046547e-02 2.082755e-02 2.175211e-02 2.199593e-02 2.272848e-02 2.284232e-02 2.338605e-02 2.337364e-02 2.374583e-02 2.362766e-02 2.386107e-02 2.367519e-02 2.381897e-02 2.362117e-02 2.374111e-02 2.360431e-02 2.378230e-02 2.379502e-02 2.412757e-02 2.439128e-02 2.498664e-02 2.561151e-02 2.658507e-02 2.768375e-02 2.915099e-02 3.082981e-02 3.289632e-02 3.524339e-02 3.799155e-02 4.106179e-02 4.453418e-02 4.833155e-02 5.251186e-02 5.697009e-02 6.176325e-02 6.672738e-02 7.194181e-02 7.715392e-02 8.248990e-02 8.758359e-02 9.263293e-02 9.714163e-02 1.014036e-01 1.047873e-01 1.077050e-01 1.093972e-01 1.104145e-01 1.098882e-01 1.085215e-01 1.053629e-01 1.012761e-01 9.525003e-02 8.831173e-02 7.939971e-02 6.970581e-02 5.809948e-02 4.595133e-02 3.200405e-02 1.785282e-02 2.011800e-03 -1.360170e-02 -3.084412e-02 -4.731795e-02 -6.541866e-02 -8.206272e-02 -1.003551e-01 -1.163144e-01 -1.338892e-01 -1.480596e-01 -1.636569e-01 -1.746693e-01 -1.866718e-01 -1.930265e-01 -1.996428e-01 -2.000288e-01 -1.997024e-01 -1.934376e-01 -1.854176e-01 -1.728591e-01 -1.577794e-01 -1.405554e-01 -1.208017e-01 -1.018052e-01 -8.132299e-02 -6.435936e-02 -4.731845e-02 -3.591541e-02 -2.426637e-02 -1.950235e-02 -1.238462e-02 -1.221190e-02 -7.098359e-03 -8.712222e-03 -3.169856e-03 -4.479137e-03 2.001335e-03 2.027618e-03 8.504250e-03 9.598252e-03 1.435719e-02 1.502174e-02 1.654183e-02 1.613617e-02 1.519841e-02 1.433907e-02 1.235067e-02 1.170085e-02 9.641392e-03 9.507430e-03 7.840693e-03 8.256895e-03 7.120261e-03 7.994420e-03 7.364614e-03 8.568763e-03 8.358706e-03 9.770416e-03 9.877021e-03 1.139323e-02 1.171797e-02 1.325638e-02 1.371237e-02 1.520836e-02 
2.064179e-02 2.254676e-02 2.261675e-02 2.436064e-02 2.432959e-02 2.587211e-02 2.570366e-02 2.701584e-02 2.669010e-02 2.775605e-02 2.727083e-02 2.808998e-02 2.746208e-02 2.805149e-02 2.731769e-02 2.771400e-02 2.693154e-02 2.719222e-02 2.643861e-02 2.664237e-02 2.601445e-02 2.626081e-02 2.587291e-02 2.628054e-02 2.626150e-02 2.696504e-02 2.745359e-02 2.859832e-02 2.973612e-02 3.146966e-02 3.339124e-02 3.585161e-02 3.867041e-02 4.196970e-02 4.576006e-02 4.996371e-02 5.473882e-02 5.984130e-02 6.552871e-02 7.142750e-02 7.784462e-02 8.431606e-02 9.114999e-02 9.783209e-02 1.046294e-01 1.110182e-01 1.171915e-01 1.226583e-01 1.275161e-01 1.313508e-01 1.341548e-01 1.356380e-01 1.356859e-01 1.341826e-01 1.309058e-01 1.259648e-01 1.190187e-01 1.104516e-01 9.977303e-02 8.768715e-02 7.349546e-02 5.826787e-02 4.100968e-02 2.321682e-02 3.482354e-03 -1.617583e-02 -3.771779e-02 -5.845385e-02 -8.106041e-02 -1.019700e-01 -1.247524e-01 -1.447273e-01 -1.665219e-01 -1.841520e-01 -2.033939e-01 -2.169432e-01 -2.316499e-01 -2.392129e-01 -2.471979e-01 -2.470922e-01 -2.464618e-01 -2.378000e-01 -2.276449e-01 -2.109106e-01 -1.919807e-01 -1.694199e-01 -1.445422e-01 -1.202465e-01 -9.423411e-02 -7.362433e-02 -5.197802e-02 -3.971145e-02 -2.535313e-02 -2.174830e-02 -1.309102e-02 -1.378069e-02 -7.566197e-03 -1.009859e-02 -2.492413e-03 -4.609607e-03 4.502211e-03 4.202892e-03 1.318069e-02 1.460316e-02 2.102532e-02 2.191951e-02 2.360619e-02 2.303209e-02 2.149521e-02 2.044227e-02 1.771224e-02 1.703390e-02 1.431859e-02 1.433242e-02 1.213175e-02 1.283201e-02 1.126175e-02 1.251645e-02 1.152080e-02 1.317147e-02 1.263238e-02 1.453350e-02 1.432145e-02 1.635167e-02 1.634687e-02 1.840852e-02 1.850807e-02 2.052295e-02 
2.293338e-02 2.515218e-02 2.603611e-02 2.805097e-02 2.884446e-02 3.060799e-02 3.124989e-02 3.272778e-02 3.317505e-02 3.434853e-02 3.457886e-02 3.544774e-02 3.546239e-02 3.604803e-02 3.587410e-02 3.622181e-02 3.591364e-02 3.609417e-02 3.573372e-02 3.584378e-02 3.553985e-02 3.570147e-02 3.558760e-02 3.594621e-02 3.617702e-02 3.689766e-02 3.764306e-02 3.890409e-02 4.034055e-02 4.232379e-02 4.462175e-02 4.749818e-02 5.080465e-02 5.471462e-02 5.913063e-02 6.415868e-02 6.971178e-02 7.585669e-02 8.247023e-02 8.961271e-02 9.707508e-02 1.049474e-01 1.128863e-01 1.210499e-01 1.289190e-01 1.367586e-01 1.438452e-01 1.505884e-01 1.560504e-01 1.608210e-01 1.637598e-01 1.656678e-01 1.652356e-01 1.634978e-01 1.590247e-01 1.530954e-01 1.442086e-01 1.338843e-01 1.205794e-01 1.060415e-01 8.867124e-02 7.044203e-02 4.961851e-02 2.844641e-02 4.897570e-03 -1.837250e-02 -4.391556e-02 -6.841300e-02 -9.522588e-02 -1.200143e-01 -1.472570e-01 -1.711840e-01 -1.976724e-01 -2.191766e-01 -2.431364e-01 -2.601465e-01 -2.791098e-01 -2.892094e-01 -3.002390e-01 -3.011938e-01 -3.015271e-01 -2.920624e-01 -2.800802e-01 -2.605890e-01 -2.368638e-01 -2.097299e-01 -1.778694e-01 -1.474564e-01 -1.143346e-01 -8.694023e-02 -6.069154e-02 -4.323052e-02 -2.688177e-02 -2.161756e-02 -1.299036e-02 -1.498563e-02 -9.162850e-03 -1.340228e-02 -5.436672e-03 -8.865648e-03 1.288804e-03 5.416316e-04 1.092720e-02 1.286247e-02 2.056717e-02 2.159395e-02 2.282390e-02 2.181431e-02 1.932920e-02 1.796491e-02 1.449630e-02 1.378766e-02 1.065466e-02 1.084258e-02 8.496834e-03 9.488656e-03 7.991320e-03 9.599884e-03 8.856352e-03 1.089105e-02 1.075493e-02 1.305012e-02 1.336832e-02 1.578834e-02 1.641900e-02 1.885477e-02 1.967280e-02 2.203618e-02 
2.804474e-02 3.087018e-02 3.112456e-02 3.371959e-02 3.381876e-02 3.612284e-02 3.601120e-02 3.797752e-02 3.762160e-02 3.922071e-02 3.861171e-02 3.983561e-02 3.899182e-02 3.985788e-02 3.882644e-02 3.938048e-02 3.823824e-02 3.855643e-02 3.740976e-02 3.759938e-02 3.658292e-02 3.678194e-02 3.605631e-02 3.643143e-02 3.617957e-02 3.692249e-02 3.734396e-02 3.866482e-02 3.996707e-02 4.208396e-02 4.446927e-02 4.759241e-02 5.123914e-02 5.554862e-02 6.058611e-02 6.620256e-02 7.267947e-02 7.962841e-02 8.747604e-02 9.564820e-02 1.046422e-01 1.137544e-01 1.234805e-01 1.330445e-01 1.428766e-01 1.521861e-01 1.612883e-01 1.694354e-01 1.767982e-01 1.827321e-01 1.872539e-01 1.898874e-01 1.905014e-01 1.888597e-01 1.846935e-01 1.780807e-01 1.686123e-01 1.567503e-01 1.419115e-01 1.249988e-01 1.051765e-01 8.383510e-02 5.976192e-02 3.489424e-02 7.477269e-03 -1.989122e-02 -4.971043e-02 -7.851281e-02 -1.097874e-01 -1.388720e-01 -1.705397e-01 -1.985103e-01 -2.291616e-01 -2.541629e-01 -2.817612e-01 -3.013463e-01 -3.230767e-01 -3.343638e-01 -3.468585e-01 -3.471224e-01 -3.472074e-01 -3.348164e-01 -3.206546e-01 -2.960135e-01 -2.682530e-01 -2.344030e-01 -1.969367e-01 -1.598284e-01 -1.202270e-01 -8.887199e-02 -5.732969e-02 -4.104489e-02 -2.285938e-02 -2.213834e-02 -1.257414e-02 -1.507784e-02 -9.462940e-03 -1.487524e-02 -4.070527e-03 -9.212625e-03 4.547028e-03 2.535817e-03 1.600082e-02 1.833033e-02 2.799075e-02 2.930921e-02 2.977228e-02 2.845274e-02 2.476069e-02 2.335511e-02 1.898577e-02 1.853868e-02 1.477944e-02 1.539209e-02 1.257448e-02 1.406930e-02 1.217514e-02 1.433001e-02 1.321717e-02 1.582800e-02 1.531853e-02 1.821247e-02 1.813030e-02 2.116495e-02 2.135128e-02 2.440948e-02 2.472728e-02 2.771098e-02 
2.939187e-02 3.255425e-02 3.396388e-02 3.684921e-02 3.812466e-02 4.066368e-02 4.171547e-02 4.385366e-02 4.461506e-02 4.631746e-02 4.674931e-02 4.800594e-02 4.810132e-02 4.893192e-02 4.871986e-02 4.917757e-02 4.872523e-02 4.889883e-02 4.831210e-02 4.832678e-02 4.774936e-02 4.776614e-02 4.737699e-02 4.759064e-02 4.759980e-02 4.823466e-02 4.887646e-02 5.017936e-02 5.170208e-02 5.393066e-02 5.658102e-02 5.998590e-02 6.398690e-02 6.878620e-02 7.430712e-02 8.065239e-02 8.777097e-02 9.570520e-02 1.043635e-01 1.137737e-01 1.237313e-01 1.343008e-01 1.450927e-01 1.562620e-01 1.671702e-01 1.781174e-01 1.881704e-01 1.978276e-01 2.058425e-01 2.129619e-01 2.176425e-01 2.209239e-01 2.210193e-01 2.192949e-01 2.138035e-01 2.062517e-01 1.946259e-01 1.809569e-01 1.632371e-01 1.437732e-01 1.205758e-01 9.617344e-02 6.850739e-02 4.033543e-02 9.316933e-03 -2.140601e-02 -5.479295e-02 -8.695763e-02 -1.219152e-01 -1.544738e-01 -1.902074e-01 -2.219076e-01 -2.572321e-01 -2.862196e-01 -3.190614e-01 -3.425687e-01 -3.696197e-01 -3.840882e-01 -4.009801e-01 -4.028751e-01 -4.050914e-01 -3.922487e-01 -3.766311e-01 -3.494691e-01 -3.159184e-01 -2.777028e-01 -2.307409e-01 -1.869584e-01 -1.374940e-01 -9.673072e-02 -6.116515e-02 -3.672871e-02 -1.738956e-02 -1.471202e-02 -7.151092e-03 -1.382245e-02 -9.856161e-03 -1.826879e-02 -7.423437e-03 -1.521733e-02 -6.746766e-04 -4.214077e-03 1.020432e-02 1.330866e-02 2.496414e-02 2.619984e-02 2.471236e-02 2.269685e-02 1.750381e-02 1.610433e-02 1.107025e-02 1.102423e-02 7.086083e-03 8.212611e-03 5.499702e-03 7.514990e-03 5.930643e-03 8.585822e-03 7.957265e-03 1.104510e-02 1.117781e-02 1.452635e-02 1.522989e-02 1.869632e-02 1.979548e-02 2.325975e-02 2.459730e-02 2.795612e-02 
3.463857e-02 3.853392e-02 3.913232e-02 4.272855e-02 4.310767e-02 4.631797e-02 4.639698e-02 4.914892e-02 4.887410e-02 5.111634e-02 5.046572e-02 5.217493e-02 5.116252e-02 5.234944e-02 5.102811e-02 5.174204e-02 5.020482e-02 5.053632e-02 4.891611e-02 4.899801e-02 4.746601e-02 4.747297e-02 4.623605e-02 4.638272e-02 4.567949e-02 4.621678e-02 4.631166e-02 4.751997e-02 4.869378e-02 5.087154e-02 5.340665e-02 5.685195e-02 6.100993e-02 6.599314e-02 7.198312e-02 7.870927e-02 8.664625e-02 9.520692e-02 1.050612e-01 1.153782e-01 1.269193e-01 1.386858e-01 1.514280e-01 1.640555e-01 1.772165e-01 1.898022e-01 2.022894e-01 2.136230e-01 2.240686e-01 2.326983e-01 2.395611e-01 2.439377e-01 2.456844e-01 2.443839e-01 2.397364e-01 2.317295e-01 2.199288e-01 2.048233e-01 1.858179e-01 1.639687e-01 1.384249e-01 1.108355e-01 7.993081e-02 4.797294e-02 1.305976e-02 -2.183873e-02 -5.951214e-02 -9.603234e-02 -1.353994e-01 -1.722697e-01 -2.122949e-01 -2.480254e-01 -2.873381e-01 -3.198077e-01 -3.561576e-01 -3.822371e-01 -4.120247e-01 -4.276308e-01 -4.460108e-01 -4.469564e-01 -4.488827e-01 -4.323947e-01 -4.144676e-01 -3.807195e-01 -3.431100e-01 -2.959743e-01 -2.433765e-01 -1.903381e-01 -1.332172e-01 -8.760229e-02 -4.521250e-02 -2.634683e-02 -7.801302e-03 -1.868691e-02 -9.330678e-03 -1.027787e-02 -1.039643e-02 -1.976625e-02 -3.063891e-03 -1.462334e-02 5.293136e-03 -2.300076e-03 1.509743e-02 1.817788e-02 3.152412e-02 3.313579e-02 2.870524e-02 2.670607e-02 1.999870e-02 1.934406e-02 1.366123e-02 1.450450e-02 1.018467e-02 1.213766e-02 9.106050e-03 1.187652e-02 9.972025e-03 1.334311e-02 1.236368e-02 1.615593e-02 1.588694e-02 1.994525e-02 2.018062e-02 2.436936e-02 2.492223e-02 2.912084e-02 2.982623e-02 3.392461e-02 
3.489658e-02 3.916851e-02 4.130507e-02 4.523011e-02 4.718254e-02 5.066169e-02 5.230343e-02 5.525228e-02 5.648325e-02 5.884061e-02 5.959540e-02 6.133201e-02 6.158733e-02 6.271320e-02 6.249343e-02 6.306306e-02 6.244341e-02 6.255870e-02 6.166591e-02 6.147717e-02 6.048828e-02 6.019354e-02 5.933306e-02 5.917614e-02 5.871160e-02 5.897834e-02 5.921346e-02 6.022491e-02 6.148885e-02 6.358929e-02 6.621970e-02 6.975694e-02 7.407432e-02 7.936956e-02 8.564061e-02 9.294599e-02 1.013350e-01 1.107784e-01 1.212876e-01 1.328070e-01 1.452097e-01 1.584826e-01 1.722568e-01 1.866345e-01 2.009102e-01 2.153741e-01 2.289118e-01 2.420721e-01 2.532976e-01 2.634630e-01 2.705857e-01 2.759280e-01 2.771607e-01 2.759849e-01 2.698585e-01 2.609465e-01 2.466602e-01 2.295974e-01 2.072768e-01 1.826176e-01 1.533237e-01 1.224657e-01 8.786630e-02 5.263443e-02 1.445036e-02 -2.341636e-02 -6.389173e-02 -1.030723e-01 -1.451111e-01 -1.846566e-01 -2.278397e-01 -2.667371e-01 -3.103417e-01 -3.467669e-01 -3.888500e-01 -4.194019e-01 -4.559432e-01 -4.755395e-01 -5.003840e-01 -5.035006e-01 -5.095848e-01 -4.926657e-01 -4.742587e-01 -4.380728e-01 -3.933983e-01 -3.433040e-01 -2.766703e-01 -2.188546e-01 -1.455767e-01 -8.676610e-02 -4.631918e-02 -1.278383e-02 8.027076e-03 3.491726e-03 6.349919e-03 -7.931628e-03 -8.459689e-03 -2.101569e-02 -4.351121e-03 -2.064666e-02 -4.390623e-04 -1.201282e-02 3.724173e-03 6.683385e-03 2.291197e-02 2.358490e-02 1.427884e-02 1.261626e-02 5.000065e-03 5.718790e-03 1.036223e-04 2.162826e-03 -1.882388e-03 1.009661e-03 -1.619404e-03 1.896751e-03 5.422911e-04 4.540124e-03 4.274605e-03 8.620585e-03 9.235448e-03 1.380052e-02 1.508753e-02 1.974951e-02 2.151182e-02 2.615490e-02 2.820915e-02 3.272148e-02 
4.025300e-02 4.540670e-02 4.655438e-02 5.134817e-02 5.220421e-02 5.651472e-02 5.696369e-02 6.068087e-02 6.063868e-02 6.367706e-02 6.309913e-02 6.540876e-02 6.429680e-02 6.587226e-02 6.427871e-02 6.516532e-02 6.319498e-02 6.349208e-02 6.130144e-02 6.116337e-02 5.895840e-02 5.859392e-02 5.662701e-02 5.629761e-02 5.486387e-02 5.488086e-02 5.431292e-02 5.503181e-02 5.569131e-02 5.750115e-02 5.976410e-02 6.306855e-02 6.730117e-02 7.248795e-02 7.900986e-02 8.640556e-02 9.543834e-02 1.052474e-01 1.168484e-01 1.290775e-01 1.430621e-01 1.574348e-01 1.732943e-01 1.891667e-01 2.059949e-01 2.222891e-01 2.387385e-01 2.539206e-01 2.682182e-01 2.803571e-01 2.904159e-01 2.973599e-01 3.010194e-01 3.007153e-01 2.961163e-01 2.870413e-01 2.730701e-01 2.546617e-01 2.313074e-01 2.041880e-01 1.725936e-01 1.384005e-01 1.004827e-01 6.132199e-02 1.911657e-02 -2.304307e-02 -6.790809e-02 -1.115325e-01 -1.579653e-01 -2.018433e-01 -2.490948e-01 -2.919416e-01 -3.391275e-01 -3.788842e-01 -4.240464e-01 -4.570097e-01 -4.959807e-01 -5.165205e-01 -5.426115e-01 -5.443898e-01 -5.497502e-01 -5.282297e-01 -5.068014e-01 -4.618652e-01 -4.130516e-01 -3.503421e-01 -2.797716e-01 -2.079620e-01 -1.269501e-01 -6.077824e-02 -9.260102e-03 7.700517e-03 1.790817e-02 -2.424466e-02 -1.263339e-02 8.977035e-03 -2.931761e-03 -2.270017e-02 1.015986e-02 -1.266758e-02 1.403493e-02 -6.716488e-03 1.139967e-02 8.543164e-03 1.712830e-02 1.979558e-02 7.961051e-03 1.015891e-02 3.012342e-03 6.308363e-03 9.062363e-04 4.578464e-03 4.774061e-04 4.503059e-03 1.692597e-03 6.123108e-03 4.507918e-03 9.327832e-03 8.722431e-03 1.386307e-02 1.404731e-02 1.941398e-02 2.016821e-02 2.565534e-02 2.677441e-02 3.227025e-02 3.356606e-02 3.895276e-02 
3.926772e-02 4.485380e-02 4.797157e-02 5.315336e-02 5.603512e-02 6.067106e-02 6.313990e-02 6.710113e-02 6.900952e-02 7.219409e-02 7.343710e-02 7.578337e-02 7.631008e-02 7.780750e-02 7.762908e-02 7.832521e-02 7.751894e-02 7.752281e-02 7.623254e-02 7.571527e-02 7.414940e-02 7.334312e-02 7.177113e-02 7.096729e-02 6.971546e-02 6.926214e-02 6.870764e-02 6.900465e-02 6.956619e-02 7.105494e-02 7.317655e-02 7.632091e-02 8.044498e-02 8.569871e-02 9.222443e-02 9.998162e-02 1.092059e-01 1.197323e-01 1.317732e-01 1.451193e-01 1.598242e-01 1.757253e-01 1.925724e-01 2.103460e-01 2.283531e-01 2.468127e-01 2.644761e-01 2.818916e-01 2.971916e-01 3.113389e-01 3.218588e-01 3.302118e-01 3.334211e-01 3.335266e-01 3.272516e-01 3.172737e-01 3.002935e-01 2.795987e-01 2.521594e-01 2.216722e-01 1.855878e-01 1.476141e-01 1.056965e-01 6.315359e-02 1.813662e-02 -2.643601e-02 -7.283048e-02 -1.179221e-01 -1.652204e-01 -2.102957e-01 -2.589047e-01 -3.037479e-01 -3.541356e-01 -3.975738e-01 -4.487356e-01 -4.869440e-01 -5.345188e-01 -5.602207e-01 -5.958588e-01 -6.001758e-01 -6.132044e-01 -5.900021e-01 -5.705077e-01 -5.213536e-01 -4.642852e-01 -4.012043e-01 -3.079355e-01 -2.427944e-01 -1.252811e-01 -4.189475e-02 -2.596506e-02 7.622515e-03 3.678020e-02 6.092936e-02 2.570588e-02 -2.411871e-02 2.103688e-02 -1.048462e-02 1.140395e-02 -7.678847e-03 7.911381e-03 -1.224645e-02 5.823838e-03 -1.338632e-02 -2.546172e-02 -1.933804e-02 -2.433384e-02 -1.510871e-02 -1.927651e-02 -1.268151e-02 -1.712483e-02 -1.173564e-02 -1.531549e-02 -1.019589e-02 -1.245014e-02 -7.208902e-03 -8.111345e-03 -2.629036e-03 -2.330663e-03 3.388791e-03 4.681271e-03 1.057884e-02 1.265000e-02 1.863982e-02 2.127896e-02 2.725764e-02 3.025896e-02 3.610766e-02 
4.473498e-02 5.137667e-02 5.332737e-02 5.956743e-02 6.115013e-02 6.681274e-02 6.786330e-02 7.278313e-02 7.317268e-02 7.721284e-02 7.686101e-02 7.992964e-02 7.881524e-02 8.087845e-02 7.904578e-02 8.013570e-02 7.769627e-02 7.791450e-02 7.504521e-02 7.456288e-02 7.150230e-02 7.055867e-02 6.760314e-02 6.650399e-02 6.400432e-02 6.312050e-02 6.147883e-02 6.124347e-02 6.090776e-02 6.180902e-02 6.326132e-02 6.582602e-02 6.955954e-02 7.432220e-02 8.080193e-02 8.825446e-02 9.785727e-02 1.083756e-01 1.213079e-01 1.350549e-01 1.512496e-01 1.680580e-01 1.870563e-01 2.063006e-01 2.271329e-01 2.476095e-01 2.686987e-01 2.885472e-01 3.076745e-01 3.243950e-01 3.387916e-01 3.494325e-01 3.560709e-01 3.576600e-01 3.537994e-01 3.440288e-01 3.279655e-01 3.059717e-01 2.777406e-01 2.445954e-01 2.061612e-01 1.646042e-01 1.191687e-01 7.252223e-02 2.321297e-02 -2.580747e-02 -7.689946e-02 -1.266401e-01 -1.785048e-01 -2.280503e-01 -2.804721e-01 -3.291539e-01 -3.823579e-01 -4.287590e-01 -4.820258e-01 -5.221523e-01 -5.713331e-01 -5.974125e-01 -6.335989e-01 -6.359602e-01 -6.470811e-01 -6.183498e-01 -5.932849e-01 -5.323351e-01 -4.688711e-01 -3.855726e-01 -2.927913e-01 -2.031535e-01 -8.833143e-02 1.131854e-02 7.111023e-02 2.351302e-02 -3.253858e-02 -3.212200e-02 4.325880e-02 1.089017e-02 6.197726e-03 -6.452190e-04 9.439780e-03 -1.068555e-02 9.854709e-03 -7.012738e-03 1.357394e-02 -1.250774e-02 -2.455372e-02 -2.523307e-02 -2.510987e-02 -1.466774e-02 -1.840597e-02 -1.041743e-02 -1.515058e-02 -8.631659e-03 -1.248223e-02 -6.413737e-03 -8.902355e-03 -2.809730e-03 -3.980126e-03 2.317254e-03 2.262047e-03 8.804403e-03 9.627588e-03 1.638588e-02 1.785594e-02 2.476115e-02 2.665926e-02 3.361207e-02 3.572909e-02 4.260237e-02 
4.232816e-02 4.947579e-02 5.388770e-02 6.059904e-02 6.472848e-02 7.080024e-02 7.440072e-02 7.963871e-02 8.249533e-02 8.673661e-02 8.868667e-02 9.181969e-02 9.276987e-02 9.474979e-02 9.468739e-02 9.554501e-02 9.454265e-02 9.438745e-02 9.260227e-02 9.162149e-02 8.929110e-02 8.774726e-02 8.518490e-02 8.341391e-02 8.100426e-02 7.941462e-02 7.761010e-02 7.668175e-02 7.599674e-02 7.627584e-02 7.727444e-02 7.935842e-02 8.262970e-02 8.713592e-02 9.325040e-02 1.007622e-01 1.102042e-01 1.211900e-01 1.342633e-01 1.489664e-01 1.656747e-01 1.839786e-01 2.038856e-01 2.251621e-01 2.472467e-01 2.702064e-01 2.927360e-01 3.153166e-01 3.357849e-01 3.551383e-01 3.703419e-01 3.830146e-01 3.893750e-01 3.917915e-01 3.860222e-01 3.753272e-01 3.554366e-01 3.305509e-01 2.968834e-01 2.592926e-01 2.149307e-01 1.684996e-01 1.183052e-01 6.783656e-02 1.630055e-02 -3.436635e-02 -8.494517e-02 -1.341664e-01 -1.838414e-01 -2.319492e-01 -2.824617e-01 -3.308992e-01 -3.849543e-01 -4.343966e-01 -4.934075e-01 -5.402258e-01 -6.002975e-01 -6.338194e-01 -6.839047e-01 -6.892364e-01 -7.140234e-01 -6.796477e-01 -6.627048e-01 -5.888460e-01 -5.190185e-01 -4.313575e-01 -2.998683e-01 -2.556918e-01 -2.234288e-02 9.384125e-02 2.742631e-02 3.261669e-02 8.213347e-02 4.426533e-02 -7.197812e-02 -5.350830e-02 -1.033184e-02 -5.596699e-02 -1.135544e-02 -3.303087e-02 -4.921773e-03 -2.389641e-02 -5.979315e-03 -1.591497e-02 -1.606611e-02 -2.608100e-02 -3.404933e-02 -2.794292e-02 -3.569820e-02 -2.812560e-02 -3.405767e-02 -2.695827e-02 -3.086066e-02 -2.408100e-02 -2.610528e-02 -1.935624e-02 -1.974661e-02 -1.286181e-02 -1.187221e-02 -4.789279e-03 -2.659413e-03 4.617270e-03 7.662162e-03 1.508147e-02 1.882114e-02 2.629173e-02 3.049977e-02 3.789161e-02 
4.792776e-02 5.633471e-02 5.939664e-02 6.739431e-02 7.001484e-02 7.735184e-02 7.929792e-02 8.572883e-02 8.680648e-02 9.211928e-02 9.219463e-02 9.623540e-02 9.525080e-02 9.794187e-02 9.592456e-02 9.727448e-02 9.433772e-02 9.444363e-02 9.078214e-02 8.982735e-02 8.571038e-02 8.396052e-02 7.972588e-02 7.752661e-02 7.357777e-02 7.135529e-02 6.816144e-02 6.642460e-02 6.452094e-02 6.386080e-02 6.384363e-02 6.492394e-02 6.743338e-02 7.096405e-02 7.664621e-02 8.333174e-02 9.277355e-02 1.032299e-01 1.168618e-01 1.314981e-01 1.494634e-01 1.683289e-01 1.903240e-01 2.129258e-01 2.380200e-01 2.631269e-01 2.895840e-01 3.150507e-01 3.401995e-01 3.628822e-01 3.831238e-01 3.990146e-01 4.101139e-01 4.148681e-01 4.126981e-01 4.026872e-01 3.844782e-01 3.582283e-01 3.239811e-01 2.833003e-01 2.364124e-01 1.860470e-01 1.320566e-01 7.743399e-02 2.122889e-02 -3.397390e-02 -8.994609e-02 -1.443162e-01 -1.993220e-01 -2.524965e-01 -3.068123e-01 -3.591677e-01 -4.147967e-01 -4.665868e-01 -5.258003e-01 -5.734663e-01 -6.334585e-01 -6.658468e-01 -7.152507e-01 -7.172967e-01 -7.384693e-01 -6.991425e-01 -6.707794e-01 -5.844862e-01 -4.982607e-01 -3.743363e-01 -2.339516e-01 -1.079840e-01 1.202183e-02 -4.664707e-03 7.984745e-03 2.769197e-02 -1.192519e-01 -1.393731e-01 4.186282e-02 -4.659150e-03 1.099684e-02 -4.259749e-03 1.377967e-02 -1.083229e-02 1.768787e-02 -1.079823e-02 1.606698e-02 2.765960e-03 -9.706107e-03 -1.866973e-04 -2.270892e-02 -1.635856e-02 -2.973357e-02 -2.225247e-02 -3.002918e-02 -2.253919e-02 -2.705943e-02 -1.968661e-02 -2.199831e-02 -1.457929e-02 -1.523981e-02 -7.629725e-03 -7.008958e-03 8.693334e-04 2.486445e-03 1.064940e-02 1.301973e-02 2.143042e-02 2.432698e-02 3.289594e-02 3.609033e-02 4.467472e-02 
4.387654e-02 5.288452e-02 5.897139e-02 6.755335e-02 7.332760e-02 8.119135e-02 8.630975e-02 9.316669e-02 9.731925e-02 1.029180e-01 1.058596e-01 1.100158e-01 1.115918e-01 1.142096e-01 1.143710e-01 1.154537e-01 1.142619e-01 1.139133e-01 1.115359e-01 1.099554e-01 1.066580e-01 1.041345e-01 1.002725e-01 9.718146e-02 9.319556e-02 9.000002e-02 8.641558e-02 8.367144e-02 8.109946e-02 7.945905e-02 7.859225e-02 7.879875e-02 8.039423e-02 8.325717e-02 8.809582e-02 9.443755e-02 1.032515e-01 1.138168e-01 1.271792e-01 1.425033e-01 1.606781e-01 1.809130e-01 2.036696e-01 2.283737e-01 2.547733e-01 2.826765e-01 3.108502e-01 3.396265e-01 3.665908e-01 3.927102e-01 4.143170e-01 4.331229e-01 4.443308e-01 4.505773e-01 4.463074e-01 4.353966e-01 4.121610e-01 3.820420e-01 3.400502e-01 2.929930e-01 2.374394e-01 1.800383e-01 1.195904e-01 5.997486e-02 2.248897e-03 -5.358166e-02 -1.057883e-01 -1.563575e-01 -2.042085e-01 -2.513235e-01 -2.981479e-01 -3.460583e-01 -3.980493e-01 -4.516020e-01 -5.153894e-01 -5.729559e-01 -6.466315e-01 -6.918789e-01 -7.603489e-01 -7.673980e-01 -8.112317e-01 -7.594109e-01 -7.540864e-01 -6.322713e-01 -5.642081e-01 -3.951704e-01 -2.187515e-01 -1.261024e-01 5.805648e-02 8.423337e-02 3.564307e-02 -9.604424e-02 -8.164976e-02 -4.814052e-02 3.455212e-03 -3.547808e-02 -7.646194e-03 -2.953176e-02 9.511346e-03 -1.945113e-02 1.099987e-02 -1.682236e-02 1.308042e-02 -2.019055e-02 -6.342737e-02 -2.335145e-02 -5.113187e-02 -3.781681e-02 -5.318392e-02 -4.401583e-02 -5.237451e-02 -4.416169e-02 -4.853560e-02 -4.061936e-02 -4.237169e-02 -3.446523e-02 -3.425980e-02 -2.619016e-02 -2.440796e-02 -1.607550e-02 -1.297933e-02 -4.344799e-03 -1.537579e-04 8.763547e-03 1.383178e-02 2.294969e-02 2.865215e-02 3.782169e-02 