# vtk DataFile Version 2.0
Comment goes here
ASCII

DATASET STRUCTURED_POINTS
DIMENSIONS    128   128   1

ORIGIN    0.000   0.000   0.000
SPACING   0.0156250.015625   1.000

POINT_DATA   16384
SCALARS uY double
LOOKUP_TABLE default

4.089019e-06 2.992583e-06 4.037611e-06 2.845589e-06 3.943941e-06 2.660178e-06 3.804816e-06 2.436684e-06 3.620539e-06 2.179012e-06 3.395131e-06 1.895010e-06 3.136832e-06 1.596972e-06 2.858639e-06 1.302102e-06 2.578732e-06 1.032749e-06 2.320608e-06 8.162861e-07 2.112786e-06 6.844796e-07 1.987943e-06 6.722305e-07 1.981363e-06 8.155932e-07 2.128623e-06 1.149007e-06 2.462454e-06 1.701729e-06 3.008812e-06 2.493522e-06 3.782217e-06 3.529703e-06 4.780521e-06 4.795754e-06 5.979335e-06 6.251757e-06 7.326439e-06 7.827045e-06 8.736628e-06 9.415591e-06 1.008763e-05 1.087283e-05 1.121789e-05 1.201487e-05 1.192745e-05 1.262144e-05 1.198319e-05 1.244391e-05 1.113025e-05 1.122041e-05 9.111276e-06 8.699419e-06 5.694733e-06 4.672688e-06 7.124940e-07 -9.830804e-07 -5.895374e-06 -8.259255e-06 -1.403348e-05 -1.696943e-05 -2.340982e-05 -2.671436e-05 -3.351099e-05 -3.686924e-05 -4.360516e-05 -4.660394e-05 -5.278176e-05 -5.494382e-05 -6.003304e-05 -6.087392e-05 -6.437800e-05 -6.348436e-05 -6.502464e-05 -6.214848e-05 -6.155630e-05 -5.670971e-05 -5.410671e-05 -4.762677e-05 -4.345869e-05 -3.600230e-05 -3.098932e-05 -2.342922e-05 -1.842041e-05 -1.165504e-05 -7.422616e-06 -2.159966e-06 7.943446e-07 4.208007e-06 5.770268e-06 7.435417e-06 7.883078e-06 8.306696e-06 8.171147e-06 8.053807e-06 7.885494e-06 7.824574e-06 7.953238e-06 8.216329e-06 8.642911e-06 9.111153e-06 9.565267e-06 9.842802e-06 9.994220e-06 9.720711e-06 9.480095e-06 8.699483e-06 8.269592e-06 7.256631e-06 6.892085e-06 5.881480e-06 5.730807e-06 4.824093e-06 4.922638e-06 4.120282e-06 4.441535e-06 3.699392e-06 4.199241e-06 3.466159e-06 4.104933e-06 3.338871e-06 4.087536e-06 3.259032e-06 4.098120e-06 3.188650e-06 4.105170e-06 3.104413e-06 
1.981509e-03 1.751739e-03 1.391831e-03 1.166102e-03 8.000445e-04 5.813971e-04 2.142117e-04 5.978456e-06 -3.564673e-04 -5.505925e-04 -9.016256e-04 -1.077615e-03 -1.409904e-03 -1.563463e-03 -1.869203e-03 -1.995831e-03 -2.266922e-03 -2.361929e-03 -2.590112e-03 -2.648594e-03 -2.825539e-03 -2.842320e-03 -2.959686e-03 -2.929273e-03 -2.978796e-03 -2.895404e-03 -2.869064e-03 -2.726792e-03 -2.617156e-03 -2.410392e-03 -2.211209e-03 -1.935348e-03 -1.642462e-03 -1.294985e-03 -9.076157e-04 -4.895384e-04 -1.191165e-05 4.704398e-04 1.027218e-03 1.560275e-03 2.176301e-03 2.737435e-03 3.382407e-03 3.938656e-03 4.571078e-03 5.078951e-03 5.646744e-03 6.053731e-03 6.496843e-03 6.745131e-03 7.000566e-03 7.033193e-03 7.042435e-03 6.811512e-03 6.529644e-03 6.005535e-03 5.410531e-03 4.590130e-03 3.690248e-03 2.602219e-03 1.439424e-03 1.447802e-04 -1.206876e-03 -2.619061e-03 -4.059556e-03 -5.479783e-03 -6.891633e-03 -8.198492e-03 -9.455296e-03 -1.052320e-02 -1.149753e-02 -1.220461e-02 -1.277754e-02 -1.301751e-02 -1.309435e-02 -1.279722e-02 -1.233281e-02 -1.149489e-02 -1.052431e-02 -9.238060e-03 -7.897252e-03 -6.360507e-03 -4.874315e-03 -3.358549e-03 -1.985504e-03 -7.640171e-04 2.810791e-04 1.013369e-03 1.616596e-03 1.796800e-03 1.966986e-03 1.689387e-03 1.566495e-03 1.071854e-03 8.914947e-04 4.698362e-04 4.613205e-04 3.321747e-04 6.305692e-04 8.765970e-04 1.472583e-03 2.032274e-03 2.785548e-03 3.443337e-03 4.123210e-03 4.596456e-03 5.037191e-03 5.262218e-03 5.477604e-03 5.532561e-03 5.596281e-03 5.558340e-03 5.522144e-03 5.429089e-03 5.317991e-03 5.184092e-03 5.011817e-03 4.844756e-03 4.622519e-03 4.429733e-03 4.167905e-03 3.956941e-03 3.664381e-03 3.441912e-03 3.125516e-03 2.896833e-03 2.561808e-03 2.330956e-03 
3.793834e-03 3.316692e-03 2.685712e-03 2.215018e-03 1.575891e-03 1.118083e-03 4.789358e-04 4.108122e-05 -5.884151e-04 -9.985154e-04 -1.607137e-03 -1.981031e-03 -2.556200e-03 -2.884944e-03 -3.413013e-03 -3.687311e-03 -4.153830e-03 -4.364088e-03 -4.754003e-03 -4.890278e-03 -5.188055e-03 -5.239931e-03 -5.429649e-03 -5.386129e-03 -5.451627e-03 -5.301159e-03 -5.226385e-03 -4.957181e-03 -4.726890e-03 -4.327702e-03 -3.928671e-03 -3.390185e-03 -2.813090e-03 -2.130049e-03 -1.372073e-03 -5.461613e-04 3.856811e-04 1.342305e-03 2.427326e-03 3.488142e-03 4.688043e-03 5.808486e-03 7.064023e-03 8.178837e-03 9.408083e-03 1.043082e-02 1.153025e-02 1.235612e-02 1.320576e-02 1.371901e-02 1.419255e-02 1.427872e-02 1.425859e-02 1.382113e-02 1.321721e-02 1.219612e-02 1.096485e-02 9.353605e-03 7.513050e-03 5.369235e-03 3.005758e-03 4.519086e-04 -2.284141e-03 -5.070017e-03 -7.978134e-03 -1.077903e-02 -1.362692e-02 -1.620460e-02 -1.874518e-02 -2.085511e-02 -2.284008e-02 -2.424501e-02 -2.543981e-02 -2.593074e-02 -2.614210e-02 -2.557781e-02 -2.470308e-02 -2.307100e-02 -2.116392e-02 -1.864292e-02 -1.596455e-02 -1.294526e-02 -9.950455e-03 -6.968170e-03 -4.197543e-03 -1.782044e-03 3.050907e-04 1.785842e-03 2.947617e-03 3.371832e-03 3.640674e-03 3.170760e-03 2.855086e-03 1.942446e-03 1.517393e-03 7.128004e-04 6.377660e-04 3.873570e-04 9.127758e-04 1.402775e-03 2.520839e-03 3.656437e-03 5.110834e-03 6.461474e-03 7.786821e-03 8.730215e-03 9.573756e-03 1.000324e-02 1.041060e-02 1.050871e-02 1.063433e-02 1.055717e-02 1.049888e-02 1.031487e-02 1.011693e-02 9.849651e-03 9.537425e-03 9.200658e-03 8.796700e-03 8.405314e-03 7.930992e-03 7.500429e-03 6.973778e-03 6.517668e-03 5.952306e-03 5.481428e-03 4.887117e-03 4.409739e-03 
5.934330e-03 5.246843e-03 4.162797e-03 3.486639e-03 2.382575e-03 1.726941e-03 6.180560e-04 -6.927225e-06 -1.102800e-03 -1.685898e-03 -2.748460e-03 -3.277458e-03 -4.284433e-03 -4.746362e-03 -5.674099e-03 -6.055440e-03 -6.879463e-03 -7.166205e-03 -7.861621e-03 -8.039155e-03 -8.580893e-03 -8.633804e-03 -8.996756e-03 -8.908615e-03 -9.067818e-03 -8.821189e-03 -8.752268e-03 -8.329154e-03 -8.009269e-03 -7.392262e-03 -6.801821e-03 -5.976199e-03 -5.101577e-03 -4.058534e-03 -2.895928e-03 -1.636986e-03 -1.973872e-04 1.260158e-03 2.945144e-03 4.562180e-03 6.434294e-03 8.144093e-03 1.011321e-02 1.181716e-02 1.375844e-02 1.532497e-02 1.708019e-02 1.834893e-02 1.973400e-02 2.052675e-02 2.134688e-02 2.148641e-02 2.155897e-02 2.089463e-02 2.007777e-02 1.851457e-02 1.673680e-02 1.426198e-02 1.154601e-02 8.245965e-03 4.719696e-03 7.816678e-04 -3.327384e-03 -7.629785e-03 -1.201495e-02 -1.634710e-02 -2.065044e-02 -2.464398e-02 -2.848280e-02 -3.175825e-02 -3.474685e-02 -3.693371e-02 -3.870764e-02 -3.947529e-02 -3.973464e-02 -3.885229e-02 -3.743905e-02 -3.487193e-02 -3.187386e-02 -2.788895e-02 -2.371994e-02 -1.893138e-02 -1.430562e-02 -9.580374e-03 -5.329714e-03 -1.545893e-03 1.649337e-03 3.873304e-03 5.666939e-03 6.130957e-03 6.548408e-03 5.543572e-03 5.025196e-03 3.341998e-03 2.655782e-03 1.235708e-03 1.108835e-03 6.340020e-04 1.490743e-03 2.199864e-03 3.999293e-03 5.737985e-03 8.063207e-03 1.016827e-02 1.225932e-02 1.367942e-02 1.497501e-02 1.560051e-02 1.622624e-02 1.637968e-02 1.658457e-02 1.649476e-02 1.641368e-02 1.616629e-02 1.585604e-02 1.547905e-02 1.497614e-02 1.449067e-02 1.383095e-02 1.326210e-02 1.247977e-02 1.185304e-02 1.097656e-02 1.031361e-02 9.364348e-03 8.681758e-03 7.675354e-03 6.985429e-03 
7.574577e-03 6.620260e-03 5.354417e-03 4.411056e-03 3.126175e-03 2.206831e-03 9.193328e-04 3.845091e-05 -1.231969e-03 -2.058420e-03 -3.288868e-03 -4.043642e-03 -5.208516e-03 -5.873481e-03 -6.945107e-03 -7.501561e-03 -8.450771e-03 -8.879551e-03 -9.676072e-03 -9.957412e-03 -1.057006e-02 -1.068326e-02 -1.108004e-02 -1.100313e-02 -1.115139e-02 -1.086101e-02 -1.072801e-02 -1.019993e-02 -9.754068e-03 -8.964592e-03 -8.177739e-03 -7.106382e-03 -5.957566e-03 -4.591310e-03 -3.071976e-03 -1.411137e-03 4.680241e-04 2.402452e-03 4.603449e-03 6.761546e-03 9.210617e-03 1.150547e-02 1.408559e-02 1.638711e-02 1.893355e-02 2.106649e-02 2.336797e-02 2.511683e-02 2.692519e-02 2.804858e-02 2.909902e-02 2.935486e-02 2.939743e-02 2.857809e-02 2.741765e-02 2.539045e-02 2.292872e-02 1.967350e-02 1.594285e-02 1.157601e-02 6.754531e-03 1.530748e-03 -4.067958e-03 -9.778097e-03 -1.573759e-02 -2.148615e-02 -2.732970e-02 -3.263126e-02 -3.785850e-02 -4.221915e-02 -4.632911e-02 -4.926616e-02 -5.177723e-02 -5.285011e-02 -5.334475e-02 -5.222876e-02 -5.045309e-02 -4.707384e-02 -4.309207e-02 -3.778631e-02 -3.212366e-02 -2.571889e-02 -1.936288e-02 -1.304243e-02 -7.199835e-03 -2.136967e-03 2.178743e-03 5.202509e-03 7.485845e-03 8.217929e-03 8.549676e-03 7.308545e-03 6.386478e-03 4.206068e-03 3.077814e-03 1.162203e-03 8.368906e-04 1.441247e-04 1.107425e-03 1.996530e-03 4.220808e-03 6.592783e-03 9.613137e-03 1.261166e-02 1.537209e-02 1.723660e-02 1.886132e-02 1.960707e-02 2.038650e-02 2.056530e-02 2.085470e-02 2.075531e-02 2.069967e-02 2.039695e-02 2.004867e-02 1.956188e-02 1.896536e-02 1.832053e-02 1.752709e-02 1.676059e-02 1.581968e-02 1.496820e-02 1.391963e-02 1.301359e-02 1.188580e-02 1.094797e-02 9.760421e-03 8.807617e-03 
9.881853e-03 8.735403e-03 6.920439e-03 5.789573e-03 3.936209e-03 2.836542e-03 9.705445e-04 -8.052914e-05 -1.928655e-03 -2.911801e-03 -4.707281e-03 -5.601565e-03 -7.306341e-03 -8.089737e-03 -9.663604e-03 -1.031339e-02 -1.171500e-02 -1.220787e-02 -1.339538e-02 -1.370719e-02 -1.463863e-02 -1.474390e-02 -1.537720e-02 -1.524858e-02 -1.554166e-02 -1.514966e-02 -1.506094e-02 -1.437445e-02 -1.386415e-02 -1.285210e-02 -1.188486e-02 -1.051958e-02 -9.068922e-03 -7.331456e-03 -5.386248e-03 -3.273931e-03 -8.469521e-04 1.617075e-03 4.478809e-03 7.234729e-03 1.043891e-02 1.337938e-02 1.677836e-02 1.973988e-02 2.312420e-02 2.588367e-02 2.898269e-02 3.126278e-02 3.375601e-02 3.524295e-02 3.678533e-02 3.716119e-02 3.742324e-02 3.641192e-02 3.513184e-02 3.255301e-02 2.959230e-02 2.541213e-02 2.080142e-02 1.516566e-02 9.126258e-03 2.363145e-03 -4.704763e-03 -1.211447e-02 -1.967384e-02 -2.714864e-02 -3.458144e-02 -4.149180e-02 -4.814749e-02 -5.385244e-02 -5.907818e-02 -6.294649e-02 -6.611146e-02 -6.755422e-02 -6.810483e-02 -6.666436e-02 -6.425446e-02 -5.978262e-02 -5.448651e-02 -4.738049e-02 -3.990081e-02 -3.125312e-02 -2.292808e-02 -1.438311e-02 -6.821290e-03 -6.645829e-05 5.466980e-03 9.290304e-03 1.223520e-02 1.276686e-02 1.315778e-02 1.088416e-02 9.510290e-03 6.027363e-03 4.416233e-03 1.556350e-03 1.021508e-03 -3.517036e-05 1.278213e-03 2.314307e-03 5.303203e-03 8.339680e-03 1.239819e-02 1.644602e-02 2.010349e-02 2.238531e-02 2.441544e-02 2.526442e-02 2.626797e-02 2.652456e-02 2.695425e-02 2.691664e-02 2.689240e-02 2.659317e-02 2.615461e-02 2.560249e-02 2.480774e-02 2.404200e-02 2.296453e-02 2.204034e-02 2.074861e-02 1.971821e-02 1.826516e-02 1.716946e-02 1.559207e-02 1.446027e-02 1.278412e-02 1.163692e-02 
1.134184e-02 9.908114e-03 8.001861e-03 6.579340e-03 4.637496e-03 3.246291e-03 1.293975e-03 -4.337606e-05 -1.975646e-03 -3.234166e-03 -5.110854e-03 -6.263720e-03 -8.045246e-03 -9.064564e-03 -1.070845e-02 -1.156584e-02 -1.302768e-02 -1.369445e-02 -1.492847e-02 -1.537529e-02 -1.633453e-02 -1.653073e-02 -1.716691e-02 -1.707965e-02 -1.734314e-02 -1.693685e-02 -1.677707e-02 -1.601384e-02 -1.538077e-02 -1.422206e-02 -1.306941e-02 -1.147988e-02 -9.770413e-03 -7.724198e-03 -5.437738e-03 -2.927525e-03 -7.158658e-05 2.879730e-03 6.256938e-03 9.582702e-03 1.337811e-02 1.695405e-02 2.099639e-02 2.462908e-02 2.866968e-02 3.209092e-02 3.580279e-02 3.867470e-02 4.166500e-02 4.360037e-02 4.544066e-02 4.604208e-02 4.631840e-02 4.523583e-02 4.361567e-02 4.061577e-02 3.692130e-02 3.195431e-02 2.622377e-02 1.946789e-02 1.198391e-02 3.848696e-03 -4.881155e-03 -1.379809e-02 -2.310489e-02 -3.209262e-02 -4.122811e-02 -4.953640e-02 -5.773744e-02 -6.461997e-02 -7.113359e-02 -7.585676e-02 -7.994069e-02 -8.179559e-02 -8.275050e-02 -8.113958e-02 -7.845000e-02 -7.311380e-02 -6.673631e-02 -5.809510e-02 -4.879815e-02 -3.820441e-02 -2.767949e-02 -1.724066e-02 -7.675256e-03 5.063216e-04 7.318045e-03 1.199115e-02 1.528156e-02 1.610129e-02 1.603888e-02 1.336634e-02 1.126307e-02 7.125416e-03 4.770275e-03 1.170124e-03 3.319806e-04 -1.137322e-03 1.034916e-04 1.085000e-03 4.255500e-03 7.895873e-03 1.259131e-02 1.809861e-02 2.253480e-02 2.505347e-02 2.725535e-02 2.805751e-02 2.922283e-02 2.955589e-02 3.018043e-02 3.024473e-02 3.034943e-02 3.007796e-02 2.967293e-02 2.905513e-02 2.821958e-02 2.731288e-02 2.615152e-02 2.503441e-02 2.363981e-02 2.238216e-02 2.082171e-02 1.947554e-02 1.779323e-02 1.639446e-02 1.461827e-02 1.319208e-02 
1.382873e-02 1.222131e-02 9.664226e-03 8.071262e-03 5.449349e-03 3.893405e-03 1.243833e-03 -2.495027e-04 -2.882193e-03 -4.284401e-03 -6.849364e-03 -8.129795e-03 -1.057166e-02 -1.169851e-02 -1.395926e-02 -1.490031e-02 -1.692088e-02 -1.764362e-02 -1.936482e-02 -1.983599e-02 -2.119879e-02 -2.138335e-02 -2.232860e-02 -2.218851e-02 -2.265661e-02 -2.214996e-02 -2.208094e-02 -2.116203e-02 -2.049681e-02 -1.911800e-02 -1.780163e-02 -1.591763e-02 -1.390519e-02 -1.148046e-02 -8.746139e-03 -5.765744e-03 -2.315459e-03 1.200674e-03 5.313637e-03 9.293872e-03 1.395131e-02 1.825463e-02 2.325642e-02 2.765702e-02 3.270844e-02 3.688710e-02 4.159577e-02 4.514395e-02 4.903270e-02 5.147544e-02 5.401721e-02 5.485999e-02 5.553792e-02 5.433793e-02 5.272796e-02 4.918208e-02 4.504546e-02 3.907705e-02 3.243998e-02 2.425771e-02 1.545015e-02 5.553434e-03 -4.812688e-03 -1.569010e-02 -2.679997e-02 -3.778750e-02 -4.872696e-02 -5.891191e-02 -6.874929e-02 -7.722844e-02 -8.504501e-02 -9.092595e-02 -9.580974e-02 -9.820614e-02 -9.927800e-02 -9.739148e-02 -9.396984e-02 -8.736206e-02 -7.934184e-02 -6.840420e-02 -5.674653e-02 -4.312836e-02 -3.005638e-02 -1.655611e-02 -4.926703e-03 5.503084e-03 1.359181e-02 1.915011e-02 2.313697e-02 2.336212e-02 2.326502e-02 1.866539e-02 1.561085e-02 9.273896e-03 6.166576e-03 1.281418e-03 -8.065239e-05 -1.945653e-03 -2.321784e-04 7.002899e-04 4.639883e-03 8.773986e-03 1.456214e-02 2.185997e-02 2.732041e-02 2.986408e-02 3.232731e-02 3.312709e-02 3.466288e-02 3.525661e-02 3.621686e-02 3.652744e-02 3.677391e-02 3.661391e-02 3.615128e-02 3.552061e-02 3.447671e-02 3.347619e-02 3.200011e-02 3.074454e-02 2.895647e-02 2.753829e-02 2.552018e-02 2.400362e-02 2.180702e-02 2.023405e-02 1.789204e-02 1.629090e-02 
1.510090e-02 1.318446e-02 1.062975e-02 8.717849e-03 6.101753e-03 4.222336e-03 1.579539e-03 -2.354556e-04 -2.862147e-03 -4.577243e-03 -7.137941e-03 -8.715380e-03 -1.115491e-02 -1.255607e-02 -1.481589e-02 -1.600228e-02 -1.802195e-02 -1.895551e-02 -2.067347e-02 -2.131592e-02 -2.266944e-02 -2.298091e-02 -2.390548e-02 -2.384275e-02 -2.427135e-02 -2.378644e-02 -2.364935e-02 -2.268915e-02 -2.191517e-02 -2.042307e-02 -1.894308e-02 -1.686347e-02 -1.461717e-02 -1.190369e-02 -8.850238e-03 -5.478191e-03 -1.611146e-03 2.405795e-03 7.039603e-03 1.162923e-02 1.690808e-02 2.191790e-02 2.762355e-02 3.280097e-02 3.860124e-02 4.358092e-02 4.902304e-02 5.332852e-02 5.785109e-02 6.091888e-02 6.389069e-02 6.512389e-02 6.591550e-02 6.476932e-02 6.285557e-02 5.894731e-02 5.402672e-02 4.724810e-02 3.934904e-02 2.994544e-02 1.947898e-02 8.057978e-03 -4.215328e-03 -1.676287e-02 -2.985134e-02 -4.249171e-02 -5.532720e-02 -6.701992e-02 -7.857147e-02 -8.833268e-02 -9.762432e-02 -1.044959e-01 -1.105423e-01 -1.135240e-01 -1.152814e-01 -1.133665e-01 -1.098658e-01 -1.023589e-01 -9.317964e-02 -8.036422e-02 -6.638426e-02 -5.022746e-02 -3.411890e-02 -1.821680e-02 -3.829100e-03 8.124390e-03 1.771930e-02 2.404657e-02 2.801948e-02 2.866438e-02 2.731925e-02 2.194851e-02 1.790624e-02 1.097403e-02 6.745111e-03 7.751150e-04 -6.018734e-04 -3.061431e-03 -1.663467e-03 -1.414157e-03 2.058219e-03 6.134140e-03 1.198336e-02 2.232312e-02 2.881272e-02 3.058481e-02 3.297634e-02 3.366302e-02 3.568097e-02 3.670421e-02 3.817103e-02 3.884241e-02 3.937474e-02 3.936106e-02 3.899765e-02 3.834352e-02 3.729757e-02 3.616843e-02 3.465075e-02 3.320478e-02 3.136889e-02 2.972191e-02 2.766446e-02 2.589212e-02 2.366915e-02 2.181909e-02 1.946315e-02 1.756721e-02 
1.779310e-02 1.572205e-02 1.240724e-02 1.034114e-02 6.922642e-03 4.892047e-03 1.420023e-03 -5.396516e-04 -4.004277e-03 -5.853477e-03 -9.241168e-03 -1.093786e-02 -1.417347e-02 -1.567493e-02 -1.868073e-02 -1.994476e-02 -2.264276e-02 -2.362796e-02 -2.594119e-02 -2.660606e-02 -2.845857e-02 -2.875963e-02 -3.007552e-02 -2.996492e-02 -3.066699e-02 -3.009038e-02 -3.009920e-02 -2.899480e-02 -2.822927e-02 -2.652922e-02 -2.490978e-02 -2.254493e-02 -2.000051e-02 -1.690964e-02 -1.338933e-02 -9.533482e-03 -5.023514e-03 -4.057230e-04 5.048441e-03 1.035880e-02 1.662649e-02 2.246673e-02 2.930513e-02 3.539363e-02 4.242482e-02 4.834284e-02 5.504243e-02 6.023222e-02 6.593937e-02 6.972887e-02 7.368851e-02 7.535277e-02 7.679834e-02 7.566240e-02 7.393915e-02 6.951485e-02 6.422761e-02 5.635760e-02 4.750626e-02 3.646841e-02 2.451909e-02 1.103954e-02 -3.112186e-03 -1.796158e-02 -3.313602e-02 -4.812011e-02 -6.304570e-02 -7.693840e-02 -9.039453e-02 -1.020546e-01 -1.128946e-01 -1.212158e-01 -1.282789e-01 -1.320743e-01 -1.340929e-01 -1.320754e-01 -1.277925e-01 -1.189030e-01 -1.076615e-01 -9.192369e-02 -7.473378e-02 -5.434789e-02 -3.472790e-02 -1.434633e-02 2.520541e-03 1.763434e-02 2.818871e-02 3.543618e-02 4.013365e-02 3.955907e-02 3.835957e-02 2.940708e-02 2.327967e-02 1.264745e-02 7.934909e-03 8.473282e-04 -1.886737e-03 -4.238382e-03 -1.614249e-03 -1.818310e-03 2.330016e-03 5.629560e-03 1.170999e-02 2.539430e-02 3.257139e-02 3.290342e-02 3.572916e-02 3.690978e-02 4.006240e-02 4.199643e-02 4.420249e-02 4.542248e-02 4.620099e-02 4.639142e-02 4.595876e-02 4.531239e-02 4.401944e-02 4.280482e-02 4.093167e-02 3.936025e-02 3.708839e-02 3.529991e-02 3.273501e-02 3.081465e-02 2.801522e-02 2.601389e-02 2.301457e-02 2.096523e-02 
1.887341e-02 1.646992e-02 1.325628e-02 1.084022e-02 7.525607e-03 5.134278e-03 1.764665e-03 -5.583590e-04 -3.925370e-03 -6.131664e-03 -9.429071e-03 -1.146775e-02 -1.462226e-02 -1.644243e-02 -1.937752e-02 -2.093003e-02 -2.356820e-02 -2.480599e-02 -2.706972e-02 -2.794676e-02 -2.975803e-02 -3.022684e-02 -3.150557e-02 -3.151398e-02 -3.217594e-02 -3.166403e-02 -3.161935e-02 -3.051754e-02 -2.967088e-02 -2.790075e-02 -2.615448e-02 -2.363336e-02 -2.089525e-02 -1.754605e-02 -1.374238e-02 -9.509515e-03 -4.604666e-03 5.234645e-04 6.501140e-03 1.246373e-02 1.939073e-02 2.602225e-02 3.364651e-02 4.064463e-02 4.855537e-02 5.545606e-02 6.306543e-02 6.923534e-02 7.578389e-02 8.044313e-02 8.504330e-02 8.733218e-02 8.906278e-02 8.816164e-02 8.621762e-02 8.151484e-02 7.539648e-02 6.667443e-02 5.637036e-02 4.394879e-02 3.003874e-02 1.480001e-02 -1.594997e-03 -1.834473e-02 -3.577922e-02 -5.257375e-02 -6.957272e-02 -8.504353e-02 -1.003149e-01 -1.132969e-01 -1.257369e-01 -1.351582e-01 -1.436509e-01 -1.482767e-01 -1.514291e-01 -1.496918e-01 -1.458048e-01 -1.361178e-01 -1.238377e-01 -1.057723e-01 -8.560640e-02 -6.165737e-02 -3.755976e-02 -1.388644e-02 7.177170e-03 2.357233e-02 3.594208e-02 4.324119e-02 4.697708e-02 4.754086e-02 4.284634e-02 3.179968e-02 2.554401e-02 1.594438e-02 9.319615e-03 6.312813e-04 -7.972311e-05 -2.881758e-03 -1.181240e-03 -3.225075e-03 -5.913395e-04 -5.471200e-05 3.254056e-03 2.298371e-02 3.105299e-02 2.763153e-02 3.118499e-02 3.370697e-02 3.865265e-02 4.201371e-02 4.518943e-02 4.707917e-02 4.820409e-02 4.858617e-02 4.822874e-02 4.754663e-02 4.624603e-02 4.489176e-02 4.300585e-02 4.124147e-02 3.897834e-02 3.696193e-02 3.443288e-02 3.225539e-02 2.951652e-02 2.723077e-02 2.431142e-02 2.195210e-02 
2.181495e-02 1.927685e-02 1.518384e-02 1.262883e-02 8.375261e-03 5.843830e-03 1.495707e-03 -9.641189e-04 -5.325697e-03 -7.660346e-03 -1.194307e-02 -1.409649e-02 -1.820173e-02 -2.011846e-02 -2.394595e-02 -2.557319e-02 -2.902450e-02 -3.031256e-02 -3.329265e-02 -3.419347e-02 -3.661023e-02 -3.707410e-02 -3.883610e-02 -3.880742e-02 -3.982080e-02 -3.923381e-02 -3.939933e-02 -3.817520e-02 -3.738720e-02 -3.543401e-02 -3.358266e-02 -3.079991e-02 -2.777850e-02 -2.406767e-02 -1.978660e-02 -1.506903e-02 -9.477420e-03 -3.720198e-03 3.164442e-03 9.914892e-03 1.796994e-02 2.554860e-02 3.450566e-02 4.258843e-02 5.199465e-02 6.006447e-02 6.925583e-02 7.658729e-02 8.468809e-02 9.036709e-02 9.633377e-02 9.933034e-02 1.020574e-01 1.013666e-01 9.986334e-02 9.471184e-02 8.833384e-02 7.841773e-02 6.709850e-02 5.277287e-02 3.716028e-02 1.947615e-02 8.778591e-04 -1.859986e-02 -3.848133e-02 -5.801751e-02 -7.744594e-02 -9.545641e-02 -1.129246e-01 -1.281016e-01 -1.423477e-01 -1.535237e-01 -1.632913e-01 -1.690988e-01 -1.727696e-01 -1.713220e-01 -1.667522e-01 -1.558335e-01 -1.410618e-01 -1.194791e-01 -9.481227e-02 -6.488509e-02 -3.552777e-02 -4.881089e-03 1.921079e-02 4.040555e-02 5.200070e-02 5.988263e-02 6.414131e-02 6.239968e-02 5.960100e-02 4.167705e-02 2.947384e-02 1.346583e-02 1.014484e-02 3.447185e-03 -2.341674e-03 -3.874838e-03 2.211315e-03 -2.358411e-04 3.456852e-03 1.123981e-03 1.990048e-03 2.001494e-02 2.343968e-02 1.950955e-02 2.843810e-02 3.504535e-02 4.292092e-02 4.819708e-02 5.225065e-02 5.474844e-02 5.593256e-02 5.642045e-02 5.584126e-02 5.510072e-02 5.346922e-02 5.201011e-02 4.972407e-02 4.784463e-02 4.511213e-02 4.297886e-02 3.990246e-02 3.760611e-02 3.423464e-02 3.182591e-02 2.818626e-02 2.569823e-02 
2.270706e-02 1.981060e-02 1.592456e-02 1.298333e-02 8.937138e-03 6.000564e-03 1.854611e-03 -1.018464e-03 -5.187729e-03 -7.932064e-03 -1.203624e-02 -1.458442e-02 -1.852827e-02 -2.081482e-02 -2.450110e-02 -2.646535e-02 -2.979819e-02 -3.138489e-02 -3.427095e-02 -3.542849e-02 -3.777581e-02 -3.845210e-02 -4.016686e-02 -4.030375e-02 -4.128602e-02 -4.081350e-02 -4.095331e-02 -3.978508e-02 -3.896041e-02 -3.699266e-02 -3.507132e-02 -3.218656e-02 -2.903385e-02 -2.511169e-02 -2.060567e-02 -1.554220e-02 -9.598010e-03 -3.334681e-03 4.061425e-03 1.149941e-02 2.024701e-02 2.870461e-02 3.854000e-02 4.768311e-02 5.813020e-02 6.740143e-02 7.773344e-02 8.632639e-02 9.555490e-02 1.024261e-01 1.093401e-01 1.132828e-01 1.165634e-01 1.163659e-01 1.147947e-01 1.094892e-01 1.022432e-01 9.141195e-02 7.837983e-02 6.242029e-02 4.441151e-02 2.461178e-02 3.298496e-03 -1.839749e-02 -4.087178e-02 -6.236107e-02 -8.395124e-02 -1.034703e-01 -1.226430e-01 -1.389703e-01 -1.547042e-01 -1.669271e-01 -1.782862e-01 -1.852029e-01 -1.906481e-01 -1.900895e-01 -1.869197e-01 -1.757009e-01 -1.606220e-01 -1.362857e-01 -1.080974e-01 -7.280818e-02 -3.656233e-02 -7.156442e-04 3.066884e-02 5.204291e-02 6.628286e-02 7.102328e-02 7.207614e-02 7.466655e-02 5.992220e-02 3.321684e-02 2.852557e-02 2.388042e-02 1.240106e-02 3.734252e-03 1.038789e-02 6.961188e-03 6.898653e-03 3.725639e-03 3.257223e-03 1.452307e-04 5.834842e-04 -3.803817e-03 -9.869896e-03 -1.401445e-03 1.737599e-02 3.104968e-02 4.204289e-02 4.927787e-02 5.385408e-02 5.672108e-02 5.783461e-02 5.828324e-02 5.758546e-02 5.670791e-02 5.502284e-02 5.339712e-02 5.113056e-02 4.906229e-02 4.640978e-02 4.406006e-02 4.111020e-02 3.856382e-02 3.535328e-02 3.265752e-02 2.920277e-02 2.639049e-02 
2.596803e-02 2.295772e-02 1.805965e-02 1.499298e-02 9.852432e-03 6.783339e-03 1.486896e-03 -1.519567e-03 -6.864752e-03 -9.736346e-03 -1.500904e-02 -1.767163e-02 -2.274424e-02 -2.512687e-02 -2.987259e-02 -3.191098e-02 -3.620892e-02 -3.784623e-02 -4.158344e-02 -4.276788e-02 -4.583797e-02 -4.651759e-02 -4.881648e-02 -4.893195e-02 -5.035182e-02 -4.982888e-02 -5.025204e-02 -4.899526e-02 -4.828999e-02 -4.618012e-02 -4.420072e-02 -4.109780e-02 -3.769125e-02 -3.344566e-02 -2.846712e-02 -2.294079e-02 -1.627994e-02 -9.378933e-03 -9.982193e-04 7.282728e-03 1.729827e-02 2.682091e-02 3.820493e-02 4.862673e-02 6.087045e-02 7.158677e-02 8.388713e-02 9.399160e-02 1.052281e-01 1.135145e-01 1.222824e-01 1.273193e-01 1.320530e-01 1.323646e-01 1.315796e-01 1.259483e-01 1.185977e-01 1.064554e-01 9.232900e-02 7.411051e-02 5.410689e-02 3.135712e-02 7.420975e-03 -1.752086e-02 -4.287907e-02 -6.753563e-02 -9.192225e-02 -1.142766e-01 -1.359070e-01 -1.546213e-01 -1.723408e-01 -1.865080e-01 -1.993394e-01 -2.078000e-01 -2.141130e-01 -2.145145e-01 -2.110717e-01 -1.993682e-01 -1.816213e-01 -1.537105e-01 -1.192078e-01 -7.579552e-02 -3.080911e-02 1.653394e-02 5.244748e-02 8.250831e-02 9.001707e-02 9.424245e-02 9.387411e-02 8.935721e-02 8.718398e-02 4.733306e-02 1.750492e-02 7.342708e-03 1.517439e-02 8.558225e-03 -4.702935e-04 -5.260629e-03 -6.254482e-03 -7.918312e-03 -4.526893e-03 -4.958332e-03 7.985742e-04 -1.549269e-02 -1.478495e-02 6.771588e-03 2.749348e-02 4.342070e-02 5.334172e-02 6.039781e-02 6.391293e-02 6.638011e-02 6.679539e-02 6.696169e-02 6.578672e-02 6.473344e-02 6.265080e-02 6.091123e-02 5.823678e-02 5.608424e-02 5.296012e-02 5.053571e-02 4.701931e-02 4.439573e-02 4.050696e-02 3.772433e-02 3.347376e-02 3.056140e-02 
2.668902e-02 2.329029e-02 1.871335e-02 1.521666e-02 1.039372e-02 6.865220e-03 1.876179e-03 -1.604372e-03 -6.657998e-03 -1.000266e-02 -1.500461e-02 -1.812426e-02 -2.295172e-02 -2.576280e-02 -3.029384e-02 -3.272295e-02 -3.684168e-02 -3.882678e-02 -4.242483e-02 -4.391240e-02 -4.688659e-02 -4.782506e-02 -5.007170e-02 -5.040237e-02 -5.180952e-02 -5.145664e-02 -5.189632e-02 -5.075852e-02 -5.008101e-02 -4.802661e-02 -4.605952e-02 -4.292823e-02 -3.948294e-02 -3.509666e-02 -2.998486e-02 -2.417002e-02 -1.723267e-02 -9.856003e-03 -1.006314e-03 7.975186e-03 1.869456e-02 2.917059e-02 4.151846e-02 5.315346e-02 6.661512e-02 7.877615e-02 9.249437e-02 1.041948e-01 1.169276e-01 1.268128e-01 1.369506e-01 1.433630e-01 1.490503e-01 1.502217e-01 1.496301e-01 1.440360e-01 1.358085e-01 1.226650e-01 1.064643e-01 8.622718e-02 6.317031e-02 3.774755e-02 1.038864e-02 -1.723551e-02 -4.560026e-02 -7.230647e-02 -9.875159e-02 -1.222496e-01 -1.450278e-01 -1.642524e-01 -1.827905e-01 -1.975060e-01 -2.116705e-01 -2.213861e-01 -2.301849e-01 -2.325250e-01 -2.323141e-01 -2.216967e-01 -2.057818e-01 -1.751927e-01 -1.377096e-01 -8.593086e-02 -3.070393e-02 2.662343e-02 7.686161e-02 1.049392e-01 1.197755e-01 1.101165e-01 1.063974e-01 1.120018e-01 6.623387e-02 1.918606e-02 2.286736e-02 4.320669e-03 -3.085963e-02 -3.914823e-02 -3.351844e-02 -3.250502e-02 -1.925917e-02 -1.744833e-02 -9.900253e-03 -1.035013e-02 -4.165629e-03 -6.770084e-03 1.129119e-02 3.369432e-02 4.574352e-02 5.631250e-02 6.115703e-02 6.578837e-02 6.720402e-02 6.871663e-02 6.830899e-02 6.807815e-02 6.662120e-02 6.536875e-02 6.325770e-02 6.137524e-02 5.880775e-02 5.650748e-02 5.357205e-02 5.096614e-02 4.769234e-02 4.483924e-02 4.122975e-02 3.816347e-02 3.421619e-02 3.096561e-02 
3.037600e-02 2.688382e-02 2.114390e-02 1.753201e-02 1.143419e-02 7.775481e-03 1.434116e-03 -2.182624e-03 -8.625617e-03 -1.210248e-02 -1.848790e-02 -2.172649e-02 -2.788973e-02 -3.079946e-02 -3.658149e-02 -3.908528e-02 -4.434022e-02 -4.637591e-02 -5.097369e-02 -5.249048e-02 -5.631416e-02 -5.726438e-02 -6.020268e-02 -6.053038e-02 -6.246724e-02 -6.209558e-02 -6.289898e-02 -6.171898e-02 -6.123194e-02 -5.909538e-02 -5.713198e-02 -5.385156e-02 -5.020136e-02 -4.556110e-02 -4.000514e-02 -3.378412e-02 -2.612555e-02 -1.813745e-02 -8.248977e-03 1.600993e-03 1.371203e-02 2.535352e-02 3.946411e-02 5.257478e-02 6.815508e-02 8.206950e-02 9.819399e-02 1.118251e-01 1.271091e-01 1.389123e-01 1.515126e-01 1.595404e-01 1.672769e-01 1.693881e-01 1.700529e-01 1.643360e-01 1.562269e-01 1.416343e-01 1.242413e-01 1.012606e-01 7.582523e-02 4.678021e-02 1.627356e-02 -1.520848e-02 -4.695999e-02 -7.724127e-02 -1.068502e-01 -1.333664e-01 -1.587825e-01 -1.803672e-01 -2.008729e-01 -2.173838e-01 -2.329209e-01 -2.442127e-01 -2.541126e-01 -2.581703e-01 -2.585272e-01 -2.490867e-01 -2.311626e-01 -1.985892e-01 -1.528630e-01 -9.188838e-02 -2.110981e-02 5.473447e-02 1.155322e-01 1.634224e-01 1.549209e-01 1.517637e-01 1.504089e-01 6.893062e-02 2.397088e-02 1.689998e-02 -5.350319e-02 -8.474052e-02 -5.027921e-02 -4.155751e-02 -2.335341e-02 -1.542252e-02 -4.868067e-03 -7.565307e-03 2.213725e-04 -4.049937e-03 2.161736e-03 2.053065e-03 3.478682e-02 6.592067e-02 6.987054e-02 7.591099e-02 7.586791e-02 7.823251e-02 7.769698e-02 7.832754e-02 7.714123e-02 7.658759e-02 7.475572e-02 7.339682e-02 7.100653e-02 6.909846e-02 6.621389e-02 6.391199e-02 6.055674e-02 5.794698e-02 5.411630e-02 5.124375e-02 4.692294e-02 4.381448e-02 3.899621e-02 3.567764e-02 
3.096315e-02 2.704538e-02 2.174993e-02 1.765316e-02 1.199088e-02 7.804779e-03 1.882617e-03 -2.283848e-03 -8.330195e-03 -1.235763e-02 -1.837457e-02 -2.214440e-02 -2.797316e-02 -3.137841e-02 -3.686671e-02 -3.981952e-02 -4.482932e-02 -4.726309e-02 -5.167270e-02 -5.353780e-02 -5.723777e-02 -5.849147e-02 -6.137512e-02 -6.196733e-02 -6.391790e-02 -6.377516e-02 -6.465211e-02 -6.366292e-02 -6.329058e-02 -6.129519e-02 -5.945701e-02 -5.624521e-02 -5.268724e-02 -4.800774e-02 -4.245516e-02 -3.604004e-02 -2.823016e-02 -1.983757e-02 -9.572193e-03 9.507743e-04 1.373221e-02 2.636654e-02 4.149406e-02 5.594876e-02 7.291398e-02 8.851697e-02 1.063615e-01 1.219577e-01 1.391801e-01 1.530674e-01 1.675901e-01 1.775467e-01 1.868120e-01 1.902969e-01 1.915879e-01 1.862113e-01 1.772890e-01 1.615963e-01 1.416297e-01 1.160401e-01 8.651689e-02 5.389162e-02 1.880819e-02 -1.610185e-02 -5.144931e-02 -8.381994e-02 -1.150570e-01 -1.418346e-01 -1.670528e-01 -1.876447e-01 -2.072469e-01 -2.228629e-01 -2.384324e-01 -2.505526e-01 -2.632193e-01 -2.707094e-01 -2.769915e-01 -2.716229e-01 -2.600443e-01 -2.264880e-01 -1.818013e-01 -1.083802e-01 -2.613664e-02 7.105123e-02 1.580440e-01 2.010158e-01 2.178353e-01 1.785945e-01 8.614610e-02 5.588416e-02 3.364033e-03 -1.092370e-01 -1.140058e-01 -5.983143e-02 -2.207275e-02 -1.271150e-02 1.368917e-03 -9.280530e-04 4.992835e-03 1.027410e-03 4.528243e-03 -4.689213e-04 3.782489e-03 -9.088491e-03 1.862340e-02 5.956186e-02 6.614260e-02 7.488782e-02 7.484556e-02 7.754871e-02 7.670209e-02 7.734013e-02 7.605092e-02 7.551776e-02 7.377368e-02 7.244608e-02 7.026642e-02 6.836274e-02 6.576797e-02 6.341689e-02 6.040667e-02 5.767859e-02 5.423374e-02 5.116553e-02 4.726033e-02 4.387598e-02 3.949290e-02 3.582011e-02 