# vtk DataFile Version 2.0
Comment goes here
ASCII

DATASET STRUCTURED_POINTS
DIMENSIONS    128   128   1

ORIGIN    0.000   0.000   0.000
SPACING   0.0156250.015625   1.000

POINT_DATA   16384
SCALARS uY double
LOOKUP_TABLE default

3.071921e-05 2.740146e-05 3.161370e-05 2.798152e-05 3.231429e-05 2.838300e-05 3.279672e-05 2.858818e-05 3.303964e-05 2.858414e-05 3.302876e-05 2.836692e-05 3.276110e-05 2.794563e-05 3.224900e-05 2.734598e-05 3.152335e-05 2.661270e-05 3.063565e-05 2.581064e-05 2.965829e-05 2.502384e-05 2.868287e-05 2.435248e-05 2.781613e-05 2.390752e-05 2.717358e-05 2.380302e-05 2.687084e-05 2.414646e-05 2.701302e-05 2.502738e-05 2.768272e-05 2.650506e-05 2.892715e-05 2.859574e-05 3.074507e-05 3.126007e-05 3.307427e-05 3.439170e-05 3.578044e-05 3.780754e-05 3.864822e-05 4.124105e-05 4.137583e-05 4.433953e-05 4.357475e-05 4.666747e-05 4.477643e-05 4.771767e-05 4.444819e-05 4.693250e-05 4.202048e-05 4.373684e-05 3.692672e-05 3.758396e-05 2.865638e-05 2.801399e-05 1.682001e-05 1.472357e-05 1.223884e-06 -2.356659e-06 -1.805028e-05 -2.298200e-05 -4.056740e-05 -4.652027e-05 -6.547374e-05 -7.189862e-05 -9.146010e-05 -9.758960e-05 -1.167741e-04 -1.216590e-04 -1.393055e-04 -1.418994e-04 -1.567691e-04 -1.560701e-04 -1.670033e-04 -1.622494e-04 -1.683744e-04 -1.592654e-04 -1.602253e-04 -1.471084e-04 -1.432333e-04 -1.271663e-04 -1.195027e-04 -1.021274e-04 -9.226475e-05 -7.548812e-05 -6.519052e-05 -5.075209e-05 -4.149139e-05 -3.053534e-05 -2.310656e-05 -1.591628e-05 -1.035956e-05 -6.441394e-06 -2.277779e-06 -7.140509e-07 2.675919e-06 2.849739e-06 5.929099e-06 5.462296e-06 8.437841e-06 7.780267e-06 1.067059e-05 1.001317e-05 1.278550e-05 1.215042e-05 1.481907e-05 1.416244e-05 1.678924e-05 1.604681e-05 1.870543e-05 1.780888e-05 2.056208e-05 1.944924e-05 2.234370e-05 2.096528e-05 2.403370e-05 2.235556e-05 2.561924e-05 2.362083e-05 2.709088e-05 2.476209e-05 2.843974e-05 2.577774e-05 2.965444e-05 2.666144e-05 
6.826626e-03 6.231383e-03 5.355884e-03 4.763587e-03 3.859364e-03 3.282100e-03 2.363379e-03 1.813628e-03 8.967565e-04 3.874633e-04 -5.092791e-04 -9.649256e-04 -1.821824e-03 -2.210752e-03 -3.007311e-03 -3.316945e-03 -4.032557e-03 -4.251119e-03 -4.865647e-03 -4.982327e-03 -5.476565e-03 -5.481573e-03 -5.837599e-03 -5.722169e-03 -5.923676e-03 -5.680146e-03 -5.712873e-03 -5.334996e-03 -5.187407e-03 -4.671033e-03 -4.335390e-03 -3.679651e-03 -3.153561e-03 -2.362613e-03 -1.651084e-03 -7.363715e-04 1.457220e-04 1.162847e-03 2.188106e-03 3.273730e-03 4.399773e-03 5.505225e-03 6.672994e-03 7.733778e-03 8.867311e-03 9.803958e-03 1.081244e-02 1.153408e-02 1.231687e-02 1.272808e-02 1.318303e-02 1.319403e-02 1.322884e-02 1.276800e-02 1.231314e-02 1.134006e-02 1.036108e-02 8.877111e-03 7.383306e-03 5.436873e-03 3.484176e-03 1.169251e-03 -1.143295e-03 -3.694725e-03 -6.232952e-03 -8.861183e-03 -1.146470e-02 -1.399145e-02 -1.648036e-02 -1.871465e-02 -2.089379e-02 -2.263667e-02 -2.430157e-02 -2.535633e-02 -2.630901e-02 -2.650646e-02 -2.658939e-02 -2.583401e-02 -2.498242e-02 -2.331142e-02 -2.160668e-02 -1.923423e-02 -1.692407e-02 -1.423302e-02 -1.168983e-02 -9.152950e-03 -6.779616e-03 -4.835969e-03 -2.964556e-03 -1.895195e-03 -6.970695e-04 -5.158589e-04 9.234840e-05 -3.147953e-04 3.276422e-05 -5.017523e-04 -3.414568e-05 -3.003522e-04 5.654914e-04 8.038532e-04 2.144753e-03 2.941866e-03 4.635336e-03 5.818858e-03 7.558358e-03 8.755103e-03 1.019102e-02 1.113375e-02 1.212778e-02 1.274742e-02 1.332349e-02 1.364827e-02 1.388021e-02 1.395978e-02 1.392007e-02 1.380280e-02 1.355182e-02 1.328148e-02 1.286745e-02 1.248234e-02 1.194236e-02 1.147434e-02 1.083575e-02 1.031010e-02 9.592588e-03 9.028957e-03 8.247050e-03 7.661024e-03 
1.323387e-02 1.201161e-02 1.043013e-02 9.209747e-03 7.580151e-03 6.386600e-03 4.733795e-03 3.592982e-03 1.945840e-03 8.846906e-04 -7.241628e-04 -1.678206e-03 -3.213216e-03 -4.032985e-03 -5.456796e-03 -6.116213e-03 -7.390853e-03 -7.865571e-03 -8.953486e-03 -9.221260e-03 -1.008614e-02 -1.012693e-02 -1.073437e-02 -1.053035e-02 -1.084848e-02 -1.038419e-02 -1.038462e-02 -9.647515e-03 -9.306725e-03 -8.288584e-03 -7.590188e-03 -6.289416e-03 -5.227392e-03 -3.652503e-03 -2.235442e-03 -4.095706e-04 1.334245e-03 3.368117e-03 5.385268e-03 7.559014e-03 9.765920e-03 1.198188e-02 1.426134e-02 1.639018e-02 1.859091e-02 2.047334e-02 2.241415e-02 2.386804e-02 2.534807e-02 2.618222e-02 2.699799e-02 2.703261e-02 2.700121e-02 2.609335e-02 2.507897e-02 2.314887e-02 2.108775e-02 1.814033e-02 1.505795e-02 1.119322e-02 7.208600e-03 2.617510e-03 -2.066532e-03 -7.119125e-03 -1.223525e-02 -1.743358e-02 -2.267009e-02 -2.766712e-02 -3.268076e-02 -3.710896e-02 -4.152878e-02 -4.500557e-02 -4.843659e-02 -5.057922e-02 -5.262466e-02 -5.309635e-02 -5.341979e-02 -5.202144e-02 -5.045442e-02 -4.724628e-02 -4.390975e-02 -3.930236e-02 -3.467046e-02 -2.940238e-02 -2.423861e-02 -1.920923e-02 -1.437646e-02 -1.041114e-02 -6.637433e-03 -4.294435e-03 -1.948053e-03 -1.338196e-03 -2.295153e-04 -8.484199e-04 -3.127816e-04 -1.294073e-03 -5.277840e-04 -1.044182e-03 5.039768e-04 9.726925e-04 3.477215e-03 5.082222e-03 8.338075e-03 1.074751e-02 1.415272e-02 1.656522e-02 1.937446e-02 2.125270e-02 2.319435e-02 2.442356e-02 2.555609e-02 2.620145e-02 2.667182e-02 2.683015e-02 2.677937e-02 2.654347e-02 2.609004e-02 2.554518e-02 2.478503e-02 2.400675e-02 2.301410e-02 2.206554e-02 2.089488e-02 1.982626e-02 1.851618e-02 1.736664e-02 1.594483e-02 1.474560e-02 
2.038592e-02 1.860863e-02 1.597331e-02 1.420256e-02 1.147635e-02 9.748691e-03 6.974796e-03 5.328164e-03 2.556416e-03 1.030245e-03 -1.683553e-03 -3.049106e-03 -5.644822e-03 -6.810076e-03 -9.225332e-03 -1.015230e-02 -1.232457e-02 -1.297790e-02 -1.484629e-02 -1.519378e-02 -1.670040e-02 -1.671307e-02 -1.780404e-02 -1.745601e-02 -1.808230e-02 -1.735094e-02 -1.746954e-02 -1.633618e-02 -1.591201e-02 -1.436387e-02 -1.337282e-02 -1.140644e-02 -9.839992e-03 -7.466455e-03 -5.337792e-03 -2.589513e-03 5.894643e-05 3.120173e-03 6.208604e-03 9.483337e-03 1.288678e-02 1.623089e-02 1.977366e-02 2.299456e-02 2.644897e-02 2.930752e-02 3.239951e-02 3.462024e-02 3.704398e-02 3.833555e-02 3.977869e-02 3.986487e-02 4.004329e-02 3.870208e-02 3.740037e-02 3.450500e-02 3.161526e-02 2.716786e-02 2.271728e-02 1.686564e-02 1.102503e-02 4.056812e-03 -2.872052e-03 -1.055516e-02 -1.816690e-02 -2.608383e-02 -3.389917e-02 -4.151891e-02 -4.900514e-02 -5.576274e-02 -6.234290e-02 -6.764724e-02 -7.271010e-02 -7.596488e-02 -7.890285e-02 -7.957425e-02 -7.988112e-02 -7.763841e-02 -7.507668e-02 -6.998944e-02 -6.477719e-02 -5.748020e-02 -5.037798e-02 -4.206564e-02 -3.424689e-02 -2.641855e-02 -1.914887e-02 -1.319952e-02 -7.518783e-03 -4.357444e-03 -8.397880e-04 -5.382490e-04 1.065751e-03 -4.803075e-04 3.262652e-04 -1.541347e-03 -3.226396e-04 -1.309450e-03 1.193255e-03 1.776766e-03 5.773044e-03 8.139069e-03 1.328284e-02 1.696047e-02 2.229651e-02 2.597780e-02 3.030333e-02 3.314922e-02 3.610096e-02 3.796900e-02 3.967693e-02 4.067380e-02 4.136658e-02 4.163308e-02 4.151903e-02 4.119227e-02 4.044667e-02 3.965644e-02 3.842214e-02 3.728460e-02 3.567222e-02 3.428414e-02 3.237478e-02 3.081236e-02 2.866382e-02 2.698577e-02 2.464045e-02 2.289314e-02 
2.635406e-02 2.391513e-02 2.075023e-02 1.830930e-02 1.503962e-02 1.264730e-02 9.323417e-03 7.032642e-03 3.713600e-03 1.579586e-03 -1.667755e-03 -3.588759e-03 -6.691618e-03 -8.344128e-03 -1.122630e-02 -1.255739e-02 -1.514174e-02 -1.610244e-02 -1.831309e-02 -1.885904e-02 -2.062296e-02 -2.071454e-02 -2.196271e-02 -2.156481e-02 -2.223331e-02 -2.131534e-02 -2.134686e-02 -1.988360e-02 -1.923004e-02 -1.720406e-02 -1.583080e-02 -1.323698e-02 -1.112919e-02 -7.981582e-03 -5.152735e-03 -1.493707e-03 2.004016e-03 6.092980e-03 1.015736e-02 1.454443e-02 1.901243e-02 2.350573e-02 2.814554e-02 3.248774e-02 3.699663e-02 4.086709e-02 4.487862e-02 4.790663e-02 5.101035e-02 5.280238e-02 5.457826e-02 5.476000e-02 5.482658e-02 5.309658e-02 5.116757e-02 4.735427e-02 4.329290e-02 3.740190e-02 3.125876e-02 2.349577e-02 1.551753e-02 6.277866e-03 -3.116875e-03 -1.328930e-02 -2.355691e-02 -3.402420e-02 -4.454392e-02 -5.461885e-02 -6.472037e-02 -7.368506e-02 -8.264856e-02 -8.975192e-02 -9.679767e-02 -1.012637e-01 -1.055739e-01 -1.066753e-01 -1.075055e-01 -1.047521e-01 -1.016638e-01 -9.509058e-02 -8.825042e-02 -7.866981e-02 -6.904142e-02 -5.803372e-02 -4.725957e-02 -3.677691e-02 -2.673140e-02 -1.852888e-02 -1.080225e-02 -6.088751e-03 -1.543157e-03 -6.705829e-04 1.138388e-03 -6.513786e-04 -5.624847e-05 -2.552944e-03 -1.356265e-03 -2.800126e-03 9.984045e-05 7.289701e-04 5.645211e-03 8.770860e-03 1.537912e-02 2.047203e-02 2.754475e-02 3.253754e-02 3.819438e-02 4.197025e-02 4.580380e-02 4.828235e-02 5.052536e-02 5.186796e-02 5.281858e-02 5.319390e-02 5.311398e-02 5.269126e-02 5.180828e-02 5.075658e-02 4.926082e-02 4.773475e-02 4.577431e-02 4.390285e-02 4.158522e-02 3.946951e-02 3.686951e-02 3.458730e-02 3.175795e-02 2.937092e-02 
3.384013e-02 3.088495e-02 2.648839e-02 2.353435e-02 1.897115e-02 1.608032e-02 1.142400e-02 8.661511e-03 3.997687e-03 1.431542e-03 -3.143722e-03 -5.444293e-03 -9.827639e-03 -1.179455e-02 -1.587921e-02 -1.744786e-02 -2.112744e-02 -2.223840e-02 -2.541002e-02 -2.600983e-02 -2.857633e-02 -2.861746e-02 -3.048881e-02 -2.992906e-02 -3.102342e-02 -2.982564e-02 -3.007078e-02 -2.820360e-02 -2.753959e-02 -2.498010e-02 -2.336402e-02 -2.010321e-02 -1.751649e-02 -1.356777e-02 -1.002647e-02 -5.437212e-03 -1.004834e-03 4.129658e-03 9.327810e-03 1.484950e-02 2.061221e-02 2.628705e-02 3.232621e-02 3.783583e-02 4.377224e-02 4.871500e-02 5.408562e-02 5.799169e-02 6.227275e-02 6.463765e-02 6.728682e-02 6.762480e-02 6.814206e-02 6.605602e-02 6.405687e-02 5.931410e-02 5.460158e-02 4.719754e-02 3.981417e-02 3.000416e-02 2.024659e-02 8.532105e-03 -3.077207e-03 -1.600317e-02 -2.877434e-02 -4.209930e-02 -5.523582e-02 -6.808516e-02 -8.072069e-02 -9.217976e-02 -1.033820e-01 -1.124882e-01 -1.212485e-01 -1.269913e-01 -1.322522e-01 -1.336521e-01 -1.344486e-01 -1.307915e-01 -1.265611e-01 -1.177966e-01 -1.087920e-01 -9.593525e-02 -8.348434e-02 -6.869660e-02 -5.497927e-02 -4.107219e-02 -2.840649e-02 -1.797912e-02 -8.210565e-03 -3.004461e-03 2.663982e-03 2.351552e-03 4.276369e-03 6.052031e-04 1.219379e-03 -2.687138e-03 -1.221601e-03 -3.428265e-03 4.849944e-04 9.633564e-04 7.498002e-03 1.123245e-02 1.995344e-02 2.655113e-02 3.588994e-02 4.230181e-02 4.953846e-02 5.431662e-02 5.915234e-02 6.232449e-02 6.515350e-02 6.692104e-02 6.810699e-02 6.865481e-02 6.850852e-02 6.804382e-02 6.684561e-02 6.558803e-02 6.357590e-02 6.172736e-02 5.908550e-02 5.681208e-02 5.367282e-02 5.110238e-02 4.755761e-02 4.478685e-02 4.090307e-02 3.800777e-02 
3.932412e-02 3.567270e-02 3.092884e-02 2.725904e-02 2.233631e-02 1.872594e-02 1.370222e-02 1.023375e-02 5.200996e-03 1.960906e-03 -2.976420e-03 -5.900088e-03 -1.062855e-02 -1.314946e-02 -1.755093e-02 -1.958760e-02 -2.354348e-02 -2.502157e-02 -2.841621e-02 -2.926951e-02 -3.199251e-02 -3.216276e-02 -3.411035e-02 -3.354634e-02 -3.462240e-02 -3.327918e-02 -3.339686e-02 -3.123629e-02 -3.032108e-02 -2.731470e-02 -2.531028e-02 -2.144561e-02 -1.832294e-02 -1.361352e-02 -9.383644e-03 -3.883103e-03 1.386806e-03 7.567754e-03 1.373624e-02 2.041141e-02 2.724472e-02 3.413563e-02 4.129321e-02 4.801795e-02 5.504610e-02 6.111917e-02 6.745853e-02 7.230783e-02 7.732073e-02 8.032725e-02 8.334955e-02 8.391278e-02 8.433060e-02 8.195624e-02 7.930019e-02 7.369748e-02 6.773685e-02 5.890222e-02 4.971249e-02 3.797125e-02 2.594879e-02 1.193403e-02 -2.252903e-03 -1.768140e-02 -3.318695e-02 -4.905034e-02 -6.494637e-02 -8.023123e-02 -9.555672e-02 -1.092386e-01 -1.229824e-01 -1.339880e-01 -1.450269e-01 -1.521856e-01 -1.592503e-01 -1.613423e-01 -1.631334e-01 -1.591669e-01 -1.547352e-01 -1.444948e-01 -1.338473e-01 -1.184963e-01 -1.030983e-01 -8.531209e-02 -6.796717e-02 -5.114727e-02 -3.508431e-02 -2.208499e-02 -9.997689e-03 -2.758663e-03 3.650769e-03 4.028474e-03 5.698277e-03 1.621511e-03 1.323881e-03 -3.684787e-03 -2.595640e-03 -5.688690e-03 -1.750644e-03 -1.701529e-03 5.302326e-03 9.499198e-03 1.942947e-02 2.789701e-02 3.928525e-02 4.711053e-02 5.558991e-02 6.126968e-02 6.692426e-02 7.077921e-02 7.417485e-02 7.639561e-02 7.790239e-02 7.864281e-02 7.860031e-02 7.809227e-02 7.683712e-02 7.534964e-02 7.317476e-02 7.095656e-02 6.808650e-02 6.533904e-02 6.193116e-02 5.880715e-02 5.496707e-02 5.158108e-02 4.738192e-02 4.382414e-02 
4.714672e-02 4.302006e-02 3.685949e-02 3.271292e-02 2.628623e-02 2.220935e-02 1.562311e-02 1.171143e-02 5.091187e-03 1.445113e-03 -5.067838e-03 -8.346192e-03 -1.460023e-02 -1.741118e-02 -2.325073e-02 -2.550091e-02 -3.077237e-02 -3.237749e-02 -3.693401e-02 -3.781988e-02 -4.152427e-02 -4.162624e-02 -4.435246e-02 -4.361381e-02 -4.524753e-02 -4.361795e-02 -4.405752e-02 -4.149298e-02 -4.065202e-02 -3.711753e-02 -3.493063e-02 -3.040702e-02 -2.683941e-02 -2.133494e-02 -1.639674e-02 -9.963586e-03 -3.728343e-03 3.516783e-03 1.089053e-02 1.874354e-02 2.699003e-02 3.513767e-02 4.386494e-02 5.186881e-02 6.054830e-02 6.784123e-02 7.581307e-02 8.171577e-02 8.821744e-02 9.198315e-02 9.620827e-02 9.710049e-02 9.828973e-02 9.569044e-02 9.324702e-02 8.678025e-02 8.038884e-02 7.002943e-02 5.974477e-02 4.587380e-02 3.214403e-02 1.552158e-02 -8.687189e-04 -1.920932e-02 -3.725301e-02 -5.614289e-02 -7.472542e-02 -9.296368e-02 -1.109245e-01 -1.273033e-01 -1.434207e-01 -1.566718e-01 -1.695907e-01 -1.783029e-01 -1.864818e-01 -1.891143e-01 -1.909434e-01 -1.861186e-01 -1.803926e-01 -1.675924e-01 -1.543352e-01 -1.348001e-01 -1.159857e-01 -9.313980e-02 -7.244048e-02 -5.104299e-02 -3.222654e-02 -1.651097e-02 -2.137003e-03 5.082019e-03 1.267132e-02 1.019893e-02 1.104314e-02 3.396023e-03 2.948632e-03 -3.803460e-03 -2.861500e-03 -6.834333e-03 -1.651800e-03 -2.231404e-03 6.441636e-03 1.059873e-02 2.261560e-02 3.304765e-02 4.721541e-02 5.660346e-02 6.659691e-02 7.336364e-02 8.006217e-02 8.482280e-02 8.891214e-02 9.174483e-02 9.355620e-02 9.458430e-02 9.449712e-02 9.401507e-02 9.243707e-02 9.079330e-02 8.807570e-02 8.558151e-02 8.198544e-02 7.888406e-02 7.458744e-02 7.105785e-02 6.617867e-02 6.235230e-02 5.697406e-02 5.295323e-02 
5.210974e-02 4.725119e-02 4.093460e-02 3.602148e-02 2.942440e-02 2.456449e-02 1.779505e-02 1.310456e-02 6.292340e-03 1.893987e-03 -4.813395e-03 -8.794808e-03 -1.523761e-02 -1.868075e-02 -2.469402e-02 -2.748610e-02 -3.290614e-02 -3.494648e-02 -3.961582e-02 -4.081708e-02 -4.458735e-02 -4.487463e-02 -4.760774e-02 -4.691620e-02 -4.848444e-02 -4.675685e-02 -4.704359e-02 -4.422937e-02 -4.313180e-02 -3.918949e-02 -3.662506e-02 -3.152956e-02 -2.744737e-02 -2.120296e-02 -1.560068e-02 -8.260063e-03 -1.206126e-03 7.105422e-03 1.544567e-02 2.450309e-02 3.384005e-02 4.329183e-02 5.318747e-02 6.253497e-02 7.238807e-02 8.097851e-02 9.002783e-02 9.707029e-02 1.044255e-01 1.090402e-01 1.137498e-01 1.150587e-01 1.162200e-01 1.134769e-01 1.103806e-01 1.031262e-01 9.540954e-02 8.361276e-02 7.137687e-02 5.551002e-02 3.934652e-02 2.034865e-02 1.248189e-03 -1.962646e-02 -4.045564e-02 -6.184237e-02 -8.315798e-02 -1.037389e-01 -1.243548e-01 -1.428901e-01 -1.616270e-01 -1.768431e-01 -1.923585e-01 -2.027538e-01 -2.133464e-01 -2.170902e-01 -2.206995e-01 -2.159245e-01 -2.106379e-01 -1.963782e-01 -1.815616e-01 -1.591140e-01 -1.366628e-01 -1.103036e-01 -8.477668e-02 -6.033292e-02 -3.703330e-02 -1.861524e-02 -1.506250e-03 8.788212e-03 1.622945e-02 1.458269e-02 1.489932e-02 6.942373e-03 4.304701e-03 -4.431669e-03 -3.739784e-03 -9.111258e-03 -4.277569e-03 -6.221863e-03 2.039113e-03 5.491860e-03 1.754317e-02 3.087529e-02 4.793626e-02 5.849623e-02 6.944720e-02 7.719522e-02 8.486003e-02 9.067506e-02 9.555683e-02 9.912223e-02 1.013946e-01 1.027612e-01 1.028673e-01 1.024142e-01 1.008680e-01 9.903703e-02 9.626766e-02 9.343457e-02 8.974725e-02 8.619366e-02 8.178727e-02 7.771478e-02 7.271498e-02 6.826999e-02 6.276120e-02 5.805854e-02 
6.030653e-02 5.501599e-02 4.708627e-02 4.173143e-02 3.340080e-02 2.810217e-02 1.951481e-02 1.440344e-02 5.731519e-03 9.462775e-04 -7.615875e-03 -1.193397e-02 -2.017868e-02 -2.389335e-02 -3.160945e-02 -3.459537e-02 -4.157722e-02 -4.372424e-02 -4.977831e-02 -5.099270e-02 -5.594131e-02 -5.614418e-02 -5.982630e-02 -5.894999e-02 -6.122043e-02 -5.920458e-02 -5.993314e-02 -5.672242e-02 -5.579527e-02 -5.134093e-02 -4.866606e-02 -4.293317e-02 -3.845167e-02 -3.143329e-02 -2.513725e-02 -1.687596e-02 -8.833105e-03 5.508809e-04 1.016721e-02 2.044333e-02 3.132159e-02 4.211547e-02 5.377526e-02 6.454050e-02 7.631105e-02 8.631515e-02 9.733258e-02 1.056686e-01 1.149045e-01 1.205423e-01 1.268765e-01 1.287654e-01 1.311111e-01 1.283370e-01 1.258137e-01 1.177926e-01 1.099160e-01 9.657692e-02 8.341055e-02 6.529568e-02 4.749159e-02 2.570870e-02 4.399761e-03 -1.957678e-02 -4.299465e-02 -6.758373e-02 -9.166592e-02 -1.153653e-01 -1.387231e-01 -1.601397e-01 -1.813956e-01 -1.991124e-01 -2.167153e-01 -2.290357e-01 -2.410058e-01 -2.457391e-01 -2.495890e-01 -2.442550e-01 -2.375538e-01 -2.204496e-01 -2.023438e-01 -1.744279e-01 -1.475339e-01 -1.139371e-01 -8.455734e-02 -5.344558e-02 -2.785977e-02 -5.889851e-03 1.381861e-02 2.321134e-02 3.266398e-02 2.474814e-02 2.145548e-02 6.748736e-03 5.336878e-03 -3.828841e-03 -4.627601e-03 -1.027751e-02 -2.996610e-03 -6.329459e-03 3.687106e-03 4.936598e-03 1.772718e-02 3.342483e-02 5.361875e-02 6.562981e-02 7.799477e-02 8.749554e-02 9.675230e-02 1.041707e-01 1.101037e-01 1.146265e-01 1.173243e-01 1.191085e-01 1.191919e-01 1.188210e-01 1.169497e-01 1.150084e-01 1.116869e-01 1.086307e-01 1.041948e-01 1.003465e-01 9.500465e-02 9.058735e-02 8.446857e-02 7.964084e-02 7.283462e-02 6.772017e-02 
6.472853e-02 5.866776e-02 5.078537e-02 4.460549e-02 3.630173e-02 3.014495e-02 2.156315e-02 1.558597e-02 6.900561e-03 1.269606e-03 -7.320153e-03 -1.243580e-02 -2.071539e-02 -2.515315e-02 -3.290352e-02 -3.651535e-02 -4.352261e-02 -4.618030e-02 -5.224263e-02 -5.383934e-02 -5.877038e-02 -5.921837e-02 -6.284736e-02 -6.207302e-02 -6.424292e-02 -6.218106e-02 -6.274686e-02 -5.933684e-02 -5.816639e-02 -5.335255e-02 -5.033240e-02 -4.407121e-02 -3.911931e-02 -3.139467e-02 -2.448105e-02 -1.532835e-02 -6.503878e-03 3.957841e-03 1.452609e-02 2.605606e-02 3.804556e-02 5.024131e-02 6.313613e-02 7.539819e-02 8.845995e-02 9.997093e-02 1.122301e-01 1.219617e-01 1.322445e-01 1.390096e-01 1.460170e-01 1.485839e-01 1.510385e-01 1.483150e-01 1.451737e-01 1.364467e-01 1.271471e-01 1.123217e-01 9.698906e-02 7.673180e-02 5.623863e-02 3.192400e-02 7.728430e-03 -1.883776e-02 -4.503647e-02 -7.200437e-02 -9.861686e-02 -1.243874e-01 -1.501020e-01 -1.733812e-01 -1.970753e-01 -2.166509e-01 -2.370511e-01 -2.513259e-01 -2.664881e-01 -2.729829e-01 -2.798994e-01 -2.753024e-01 -2.703422e-01 -2.518950e-01 -2.327093e-01 -2.010721e-01 -1.695177e-01 -1.313962e-01 -9.498109e-02 -6.129085e-02 -2.925426e-02 -5.880226e-03 1.716525e-02 3.237528e-02 3.791422e-02 3.029786e-02 2.891640e-02 1.639494e-02 9.031315e-03 -4.357357e-03 -2.530017e-03 -9.741223e-03 -3.400787e-03 -9.438463e-03 -9.268162e-04 -3.514963e-03 4.926413e-03 2.447376e-02 4.862515e-02 6.046227e-02 7.386433e-02 8.587373e-02 9.729904e-02 1.069046e-01 1.141567e-01 1.198337e-01 1.231253e-01 1.253698e-01 1.256950e-01 1.253991e-01 1.236360e-01 1.215468e-01 1.182958e-01 1.149420e-01 1.105739e-01 1.063101e-01 1.010420e-01 9.610551e-02 9.006410e-02 8.462282e-02 7.789095e-02 7.207823e-02 
7.338483e-02 6.693712e-02 5.722852e-02 5.063960e-02 4.034645e-02 3.377317e-02 2.308439e-02 1.670118e-02 5.845582e-03 -1.611218e-04 -1.092464e-02 -1.636598e-02 -2.676225e-02 -3.145799e-02 -4.121055e-02 -4.499882e-02 -5.384317e-02 -5.658688e-02 -6.427971e-02 -6.586798e-02 -7.219141e-02 -7.253628e-02 -7.729722e-02 -7.632664e-02 -7.935305e-02 -7.700281e-02 -7.813936e-02 -7.434674e-02 -7.345295e-02 -6.815532e-02 -6.510922e-02 -5.825029e-02 -5.296001e-02 -4.450568e-02 -3.693043e-02 -2.689513e-02 -1.707601e-02 -5.559121e-03 6.341315e-03 1.911099e-02 3.276320e-02 4.637863e-02 6.123950e-02 7.506915e-02 9.034252e-02 1.034971e-01 1.181140e-01 1.294428e-01 1.420792e-01 1.502172e-01 1.593734e-01 1.628653e-01 1.670263e-01 1.645436e-01 1.624296e-01 1.530685e-01 1.439387e-01 1.275326e-01 1.114512e-01 8.876423e-02 6.668618e-02 3.934280e-02 1.291830e-02 -1.696896e-02 -4.581131e-02 -7.613546e-02 -1.055836e-01 -1.345690e-01 -1.630978e-01 -1.893373e-01 -2.156340e-01 -2.378625e-01 -2.605070e-01 -2.770801e-01 -2.939348e-01 -3.021115e-01 -3.096639e-01 -3.053144e-01 -2.989639e-01 -2.778606e-01 -2.543581e-01 -2.157089e-01 -1.776769e-01 -1.285410e-01 -8.740031e-02 -4.283171e-02 -1.129367e-02 1.694300e-02 4.218948e-02 5.460902e-02 6.711753e-02 4.532337e-02 2.965846e-02 4.261426e-03 7.914614e-03 2.661472e-03 -3.324953e-03 -1.038578e-02 3.485891e-03 -4.273183e-03 6.375931e-03 -1.440009e-03 5.281343e-03 1.924197e-02 3.976879e-02 5.604894e-02 7.520318e-02 9.286682e-02 1.079359e-01 1.204170e-01 1.290913e-01 1.359177e-01 1.395829e-01 1.422143e-01 1.424578e-01 1.422290e-01 1.401334e-01 1.379649e-01 1.341799e-01 1.306648e-01 1.255594e-01 1.210760e-01 1.148541e-01 1.096486e-01 1.024265e-01 9.667126e-02 8.852999e-02 8.236323e-02 
7.727184e-02 7.001027e-02 6.056721e-02 5.308352e-02 4.302528e-02 3.550298e-02 2.501570e-02 1.766130e-02 6.974938e-03 1.014014e-05 -1.061201e-02 -1.696283e-02 -2.723924e-02 -3.276317e-02 -4.241040e-02 -4.691852e-02 -5.566552e-02 -5.900086e-02 -6.659868e-02 -6.863802e-02 -7.486344e-02 -7.551287e-02 -8.016652e-02 -7.935216e-02 -8.225298e-02 -7.990997e-02 -8.088897e-02 -7.695233e-02 -7.584941e-02 -7.025041e-02 -6.691770e-02 -5.958911e-02 -5.390354e-02 -4.479621e-02 -3.668326e-02 -2.579489e-02 -1.526384e-02 -2.679860e-03 1.013030e-02 2.418587e-02 3.895280e-02 5.406036e-02 7.022195e-02 8.571004e-02 1.024136e-01 1.173145e-01 1.333854e-01 1.464204e-01 1.603709e-01 1.699909e-01 1.800984e-01 1.846137e-01 1.891014e-01 1.869278e-01 1.842662e-01 1.742889e-01 1.635915e-01 1.455741e-01 1.269735e-01 1.018468e-01 7.664549e-02 4.645474e-02 1.685598e-02 -1.573898e-02 -4.728734e-02 -7.974920e-02 -1.112244e-01 -1.416821e-01 -1.717770e-01 -1.991247e-01 -2.271159e-01 -2.506716e-01 -2.759003e-01 -2.945512e-01 -3.154076e-01 -3.263098e-01 -3.389161e-01 -3.366391e-01 -3.346036e-01 -3.126348e-01 -2.897105e-01 -2.457414e-01 -2.018546e-01 -1.454745e-01 -9.285634e-02 -4.715466e-02 -4.630037e-03 1.740557e-02 4.798534e-02 7.462474e-02 6.462564e-02 3.470457e-02 4.172722e-02 3.943013e-02 1.426303e-02 -5.623952e-03 1.240286e-02 9.543921e-04 8.194237e-03 -1.704096e-04 4.511563e-03 -4.240821e-03 1.946518e-03 -8.562619e-03 -2.685732e-03 2.705787e-02 5.922989e-02 8.623579e-02 1.060656e-01 1.218134e-01 1.317530e-01 1.396275e-01 1.436153e-01 1.465676e-01 1.469617e-01 1.467762e-01 1.448491e-01 1.425698e-01 1.390030e-01 1.352521e-01 1.304082e-01 1.255676e-01 1.196361e-01 1.139516e-01 1.070334e-01 1.006789e-01 9.284065e-02 8.596087e-02 
8.653546e-02 7.893244e-02 6.742647e-02 5.956211e-02 4.722316e-02 3.929877e-02 2.637107e-02 1.861580e-02 5.399251e-03 -1.939785e-03 -1.510519e-02 -2.177831e-02 -3.453361e-02 -4.030594e-02 -5.229571e-02 -5.696242e-02 -6.785417e-02 -7.125007e-02 -8.074718e-02 -8.274858e-02 -9.059488e-02 -9.111338e-02 -9.708982e-02 -9.606016e-02 -9.997603e-02 -9.734121e-02 -9.902366e-02 -9.472189e-02 -9.400832e-02 -8.796619e-02 -8.470369e-02 -7.683942e-02 -7.089486e-02 -6.113440e-02 -5.241741e-02 -4.072500e-02 -2.922471e-02 -1.564786e-02 -1.482769e-03 1.378979e-02 3.031103e-02 4.688181e-02 6.519334e-02 8.238501e-02 1.015983e-01 1.183905e-01 1.372448e-01 1.522378e-01 1.690904e-01 1.805292e-01 1.934215e-01 1.993249e-01 2.061717e-01 2.046143e-01 2.035519e-01 1.931155e-01 1.829869e-01 1.633016e-01 1.441425e-01 1.162864e-01 8.953197e-02 5.595929e-02 2.409979e-02 -1.206238e-02 -4.629788e-02 -8.221349e-02 -1.165777e-01 -1.502329e-01 -1.831722e-01 -2.133631e-01 -2.439038e-01 -2.699715e-01 -2.973734e-01 -3.184369e-01 -3.411800e-01 -3.545604e-01 -3.684215e-01 -3.679858e-01 -3.650102e-01 -3.419320e-01 -3.133432e-01 -2.615292e-01 -2.067766e-01 -1.331145e-01 -7.245777e-02 -5.501605e-03 2.732885e-02 5.784459e-02 8.371495e-02 9.868219e-02 1.252841e-01 5.522247e-02 -2.358985e-03 -9.606026e-03 2.112444e-02 8.557658e-03 3.218157e-03 -3.294698e-03 -3.574420e-04 -8.362638e-03 7.817780e-04 -4.970118e-03 6.130187e-03 -1.774035e-02 -9.231915e-03 3.087451e-02 7.002239e-02 1.016519e-01 1.226169e-01 1.393770e-01 1.491433e-01 1.571784e-01 1.609130e-01 1.638788e-01 1.640445e-01 1.638474e-01 1.616261e-01 1.593124e-01 1.552957e-01 1.514739e-01 1.459597e-01 1.410003e-01 1.341355e-01 1.282769e-01 1.201381e-01 1.135509e-01 1.041968e-01 9.702681e-02 
8.992911e-02 8.145939e-02 7.045437e-02 6.160933e-02 4.972664e-02 4.074100e-02 2.822048e-02 1.936449e-02 6.506825e-03 -1.926765e-03 -1.477675e-02 -2.249243e-02 -3.496879e-02 -4.169033e-02 -5.343075e-02 -5.892045e-02 -6.958745e-02 -7.365832e-02 -8.295280e-02 -8.547071e-02 -9.313584e-02 -9.401161e-02 -9.982737e-02 -9.900096e-02 -1.027724e-01 -1.001936e-01 -1.017372e-01 -9.734779e-02 -9.648142e-02 -9.020488e-02 -8.674564e-02 -7.848810e-02 -7.226302e-02 -6.192936e-02 -5.280084e-02 -4.032754e-02 -2.823482e-02 -1.363972e-02 1.344135e-03 1.789669e-02 3.549458e-02 5.361640e-02 7.326797e-02 9.226334e-02 1.130442e-01 1.318305e-01 1.523839e-01 1.694363e-01 1.879429e-01 2.012986e-01 2.155275e-01 2.229056e-01 2.304095e-01 2.295150e-01 2.280345e-01 2.170926e-01 2.051808e-01 1.836408e-01 1.613643e-01 1.305035e-01 9.983620e-02 6.278547e-02 2.719899e-02 -1.195648e-02 -4.877422e-02 -8.643395e-02 -1.218725e-01 -1.558821e-01 -1.887969e-01 -2.185386e-01 -2.490140e-01 -2.750212e-01 -3.038316e-01 -3.266112e-01 -3.537622e-01 -3.711812e-01 -3.927902e-01 -3.969469e-01 -4.029418e-01 -3.805453e-01 -3.572282e-01 -2.973632e-01 -2.371836e-01 -1.484501e-01 -6.781356e-02 8.830144e-04 5.943085e-02 5.466770e-02 1.050912e-01 1.523825e-01 7.895426e-02 1.152900e-02 4.245037e-02 1.704856e-02 -3.635588e-02 -3.992797e-02 -2.556228e-02 -3.966326e-02 -1.835800e-02 -2.260019e-02 -9.062189e-03 -1.541288e-02 -1.971361e-03 -1.485845e-02 7.939760e-03 5.224931e-02 8.444271e-02 1.124783e-01 1.289497e-01 1.441163e-01 1.521290e-01 1.597154e-01 1.629537e-01 1.658694e-01 1.660866e-01 1.659210e-01 1.640068e-01 1.616747e-01 1.580958e-01 1.541462e-01 1.491413e-01 1.439154e-01 1.375980e-01 1.313199e-01 1.237433e-01 1.165796e-01 1.077830e-01 9.988431e-02 
1.000270e-01 9.125924e-02 7.792184e-02 6.871713e-02 5.421521e-02 4.483062e-02 2.947821e-02 2.021341e-02 4.401557e-03 -4.417059e-03 -2.024404e-02 -2.828741e-02 -4.366374e-02 -5.062707e-02 -6.509917e-02 -7.072553e-02 -8.388068e-02 -8.797572e-02 -9.946022e-02 -1.018945e-01 -1.114184e-01 -1.121169e-01 -1.194464e-01 -1.183685e-01 -1.233085e-01 -1.204228e-01 -1.227973e-01 -1.180580e-01 -1.176928e-01 -1.110242e-01 -1.077391e-01 -9.903317e-02 -9.264794e-02 -8.177881e-02 -7.213655e-02 -5.899401e-02 -4.600308e-02 -3.054581e-02 -1.424014e-02 3.432178e-03 2.281582e-02 4.237374e-02 6.430461e-02 8.508731e-02 1.086416e-01 1.295511e-01 1.533171e-01 1.727280e-01 1.947422e-01 2.104665e-01 2.282328e-01 2.376151e-01 2.482892e-01 2.485359e-01 2.493780e-01 2.382136e-01 2.273519e-01 2.039604e-01 1.813029e-01 1.471889e-01 1.149543e-01 7.398314e-02 3.612640e-02 -6.835110e-03 -4.631712e-02 -8.740713e-02 -1.258048e-01 -1.628977e-01 -1.987684e-01 -2.310524e-01 -2.639188e-01 -2.918030e-01 -3.222214e-01 -3.467400e-01 -3.754075e-01 -3.955670e-01 -4.190777e-01 -4.272667e-01 -4.336660e-01 -4.143585e-01 -3.844536e-01 -3.202927e-01 -2.406291e-01 -1.283958e-01 -2.655803e-02 9.054678e-02 1.190290e-01 1.583419e-01 1.748166e-01 4.978735e-02 1.763325e-02 1.593774e-02 -6.901089e-02 -9.414627e-02 -2.500537e-02 -3.565658e-02 -1.833985e-02 -1.492133e-02 1.146971e-03 -1.082949e-02 7.206379e-03 -7.473170e-03 9.809966e-03 -3.397552e-03 3.044214e-02 9.440205e-02 1.170082e-01 1.404170e-01 1.511852e-01 1.640294e-01 1.701876e-01 1.770609e-01 1.798696e-01 1.826752e-01 1.828581e-01 1.827710e-01 1.808101e-01 1.785873e-01 1.747684e-01 1.708954e-01 1.653637e-01 1.601535e-01 1.529686e-01 1.466314e-01 1.378162e-01 1.305119e-01 1.200953e-01 1.119742e-01 
1.030127e-01 9.331059e-02 8.072899e-02 7.043505e-02 5.662666e-02 4.603998e-02 3.131286e-02 2.078618e-02 5.532464e-03 -4.548065e-03 -1.987743e-02 -2.912263e-02 -4.405274e-02 -5.210434e-02 -6.617367e-02 -7.273411e-02 -8.552613e-02 -9.037707e-02 -1.015396e-01 -1.045449e-01 -1.137940e-01 -1.148862e-01 -1.219949e-01 -1.211501e-01 -1.259271e-01 -1.231324e-01 -1.253968e-01 -1.206203e-01 -1.201805e-01 -1.133497e-01 -1.099927e-01 -1.009885e-01 -9.448541e-02 -8.315540e-02 -7.328742e-02 -5.948171e-02 -4.608646e-02 -2.971585e-02 -1.275559e-02 6.128433e-03 2.647911e-02 4.758483e-02 7.083420e-02 9.351370e-02 1.187354e-01 1.418590e-01 1.675717e-01 1.894093e-01 2.134783e-01 2.316272e-01 2.512417e-01 2.626828e-01 2.745122e-01 2.759286e-01 2.766081e-01 2.651218e-01 2.521961e-01 2.265579e-01 1.997881e-01 1.616568e-01 1.240419e-01 7.835773e-02 3.563799e-02 -1.099838e-02 -5.296630e-02 -9.526186e-02 -1.331471e-01 -1.687287e-01 -2.018211e-01 -2.308405e-01 -2.603036e-01 -2.852252e-01 -3.140636e-01 -3.388187e-01 -3.709740e-01 -3.967437e-01 -4.307421e-01 -4.479494e-01 -4.701267e-01 -4.554361e-01 -4.413167e-01 -3.660574e-01 -2.906331e-01 -1.452711e-01 -1.892535e-02 1.168271e-01 2.089930e-01 1.531106e-01 9.375611e-02 7.184860e-02 6.082100e-03 -1.056622e-01 -9.376878e-02 -5.941521e-02 -2.426110e-02 -2.520395e-02 8.784076e-04 -1.103505e-02 7.523172e-03 -6.150221e-03 7.270882e-03 -7.247537e-03 5.482734e-03 -1.347981e-02 1.583737e-02 9.203536e-02 1.134511e-01 1.390124e-01 1.485179e-01 1.616750e-01 1.674224e-01 1.745795e-01 1.775892e-01 1.807525e-01 1.814564e-01 1.816925e-01 1.804130e-01 1.783974e-01 1.753453e-01 1.715172e-01 1.668014e-01 1.614483e-01 1.551059e-01 1.484245e-01 1.404591e-01 1.326050e-01 1.230258e-01 1.141545e-01 