# vtk DataFile Version 2.0
Comment goes here
ASCII

DATASET STRUCTURED_POINTS
DIMENSIONS    128   128   1

ORIGIN    0.000   0.000   0.000
SPACING   0.0156250.015625   1.000

POINT_DATA   16384
SCALARS uY double
LOOKUP_TABLE default

-2.117808e-05 -3.094788e-05 -2.017057e-05 -3.029501e-05 -1.854530e-05 -2.893081e-05 -1.627898e-05 -2.681148e-05 -1.333300e-05 -2.387816e-05 -9.655323e-06 -2.006015e-05 -5.183934e-06 -1.527950e-05 1.483587e-07 -9.456895e-06 6.407912e-06 -2.518910e-06 1.365302e-05 5.593647e-06 2.192565e-05 1.491644e-05 3.124252e-05 2.545194e-05 4.158615e-05 3.716010e-05 5.289660e-05 4.995026e-05 6.506480e-05 6.367519e-05 7.792818e-05 7.812775e-05 9.126889e-05 9.304058e-05 1.048146e-04 1.080882e-04 1.182408e-04 1.228909e-04 1.311745e-04 1.370190e-04 1.431962e-04 1.499965e-04 1.538418e-04 1.613035e-04 1.626019e-04 1.703777e-04 1.689223e-04 1.766181e-04 1.722070e-04 1.793925e-04 1.718291e-04 1.780556e-04 1.671541e-04 1.719797e-04 1.575785e-04 1.606009e-04 1.425852e-04 1.434808e-04 1.218142e-04 1.203813e-04 9.514449e-05 9.134778e-05 6.278226e-05 5.679551e-05 2.534904e-05 1.759280e-05 -1.604190e-05 -2.487713e-05 -5.974322e-05 -6.870322e-05 -1.035989e-04 -1.115198e-04 -1.450724e-04 -1.506924e-04 -1.814879e-04 -1.836041e-04 -2.103483e-04 -2.079788e-04 -2.296451e-04 -2.221460e-04 -2.380708e-04 -2.251833e-04 -2.351110e-04 -2.169759e-04 -2.211111e-04 -1.983299e-04 -1.974447e-04 -1.712072e-04 -1.667307e-04 -1.388503e-04 -1.327164e-04 -1.053295e-04 -9.946767e-05 -7.442412e-05 -7.017741e-05 -4.859518e-05 -4.645903e-05 -2.882773e-05 -2.856702e-05 -1.496660e-05 -1.599026e-05 -6.241611e-06 -7.935607e-06 -1.706705e-06 -3.591217e-06 -4.582803e-07 -2.194529e-06 -1.671394e-06 -2.976636e-06 -4.563917e-06 -5.182132e-06 -8.428508e-06 -8.141933e-06 -1.268209e-05 -1.132512e-05 -1.688797e-05 -1.435088e-05 -2.074876e-05 -1.697284e-05 -2.408255e-05 -1.905076e-05 -2.679300e-05 -2.051932e-05 -2.883990e-05 -2.135962e-05 -3.021391e-05 -2.157587e-05 -3.091685e-05 
4.116005e-03 4.491037e-03 4.508478e-03 4.856076e-03 4.859367e-03 5.170268e-03 5.150987e-03 5.418718e-03 5.372089e-03 5.593174e-03 5.518215e-03 5.692510e-03 5.592220e-03 5.723293e-03 5.604802e-03 5.700262e-03 5.574897e-03 5.646606e-03 5.529829e-03 5.593962e-03 5.505146e-03 5.582039e-03 5.544043e-03 5.657778e-03 5.696246e-03 5.873878e-03 6.016170e-03 6.286486e-03 6.560108e-03 6.951775e-03 7.382181e-03 7.921160e-03 8.528825e-03 9.234984e-03 1.003172e-02 1.091468e-02 1.189932e-02 1.295375e-02 1.410754e-02 1.530837e-02 1.659057e-02 1.788885e-02 1.923352e-02 2.055386e-02 2.186872e-02 2.310963e-02 2.427836e-02 2.531647e-02 2.620522e-02 2.690427e-02 2.737289e-02 2.759728e-02 2.751438e-02 2.714580e-02 2.640561e-02 2.535976e-02 2.389701e-02 2.213658e-02 1.993566e-02 1.747597e-02 1.457173e-02 1.147788e-02 7.948663e-03 4.326824e-03 2.840810e-04 -3.727731e-03 -8.146576e-03 -1.238205e-02 -1.701184e-02 -2.127123e-02 -2.590702e-02 -2.994586e-02 -3.432543e-02 -3.784591e-02 -4.163884e-02 -4.429782e-02 -4.711774e-02 -4.856498e-02 -5.001967e-02 -4.997080e-02 -4.975285e-02 -4.808588e-02 -4.608722e-02 -4.293665e-02 -3.935264e-02 -3.516773e-02 -3.054336e-02 -2.606854e-02 -2.122462e-02 -1.734000e-02 -1.311496e-02 -1.049703e-02 -7.356739e-03 -6.117983e-03 -3.952744e-03 -3.659087e-03 -1.997205e-03 -2.122270e-03 -4.733704e-04 -5.833722e-04 1.190634e-03 1.308873e-03 3.005814e-03 3.288460e-03 4.537675e-03 4.727584e-03 5.257978e-03 5.213025e-03 5.112306e-03 4.914275e-03 4.460368e-03 4.258951e-03 3.704526e-03 3.601494e-03 3.097192e-03 3.128273e-03 2.736423e-03 2.894312e-03 2.624242e-03 2.882815e-03 2.718733e-03 3.047686e-03 2.964962e-03 3.336395e-03 3.309554e-03 3.699986e-03 3.706054e-03 4.096423e-03 
7.739346e-03 8.464053e-03 8.735684e-03 9.402698e-03 9.655969e-03 1.024736e-02 1.046044e-02 1.096385e-02 1.112175e-02 1.153087e-02 1.162607e-02 1.194126e-02 1.197438e-02 1.220351e-02 1.218391e-02 1.234294e-02 1.228911e-02 1.240256e-02 1.234215e-02 1.244317e-02 1.241267e-02 1.254271e-02 1.258658e-02 1.279454e-02 1.296379e-02 1.330443e-02 1.365429e-02 1.418569e-02 1.477234e-02 1.555216e-02 1.642803e-02 1.750826e-02 1.871597e-02 2.013608e-02 2.170079e-02 2.347936e-02 2.539991e-02 2.752518e-02 2.976470e-02 3.218497e-02 3.466211e-02 3.727747e-02 3.986002e-02 4.251735e-02 4.502040e-02 4.751423e-02 4.970517e-02 5.178645e-02 5.339891e-02 5.479345e-02 5.555068e-02 5.598691e-02 5.563302e-02 5.487609e-02 5.321040e-02 5.109645e-02 4.800324e-02 4.446552e-02 3.993060e-02 3.500977e-02 2.911825e-02 2.295389e-02 1.587042e-02 8.678822e-03 6.209118e-04 -7.328288e-03 -1.610790e-02 -2.450151e-02 -3.370914e-02 -4.217766e-02 -5.144558e-02 -5.953236e-02 -6.836976e-02 -7.550250e-02 -8.325833e-02 -8.875572e-02 -9.463263e-02 -9.777807e-02 -1.009324e-01 -1.011241e-01 -1.008609e-01 -9.780886e-02 -9.384020e-02 -8.774964e-02 -8.044316e-02 -7.212343e-02 -6.263161e-02 -5.347989e-02 -4.358706e-02 -3.535790e-02 -2.687304e-02 -2.109224e-02 -1.494912e-02 -1.210751e-02 -8.043307e-03 -7.388854e-03 -4.373772e-03 -4.688139e-03 -1.698316e-03 -1.983631e-03 1.301839e-03 1.519881e-03 4.730761e-03 5.310616e-03 7.695171e-03 8.067445e-03 9.024583e-03 8.898358e-03 8.622185e-03 8.194327e-03 7.263800e-03 6.848193e-03 5.767263e-03 5.562214e-03 4.620420e-03 4.687893e-03 4.000139e-03 4.319078e-03 3.898981e-03 4.414257e-03 4.228405e-03 4.878721e-03 4.877298e-03 5.607147e-03 5.738626e-03 6.501679e-03 6.718815e-03 7.477640e-03 
1.227077e-02 1.343964e-02 1.349428e-02 1.458008e-02 1.458793e-02 1.556230e-02 1.549771e-02 1.634029e-02 1.618836e-02 1.688753e-02 1.664474e-02 1.719882e-02 1.687363e-02 1.729207e-02 1.690546e-02 1.720997e-02 1.679569e-02 1.702089e-02 1.662527e-02 1.681890e-02 1.650026e-02 1.672283e-02 1.655019e-02 1.687379e-02 1.692492e-02 1.743101e-02 1.778929e-02 1.856514e-02 1.931499e-02 2.044825e-02 2.166866e-02 2.323977e-02 2.499557e-02 2.706759e-02 2.939840e-02 3.200451e-02 3.491158e-02 3.804068e-02 4.147268e-02 4.505453e-02 4.889381e-02 5.278578e-02 5.683777e-02 6.081634e-02 6.480531e-02 6.856594e-02 7.214089e-02 7.531007e-02 7.806392e-02 8.022598e-02 8.172967e-02 8.246841e-02 8.231781e-02 8.126872e-02 7.913784e-02 7.604144e-02 7.173040e-02 6.647387e-02 5.993843e-02 5.257339e-02 4.392670e-02 3.465849e-02 2.414619e-02 1.330252e-02 1.265421e-03 -1.073690e-02 -2.388988e-02 -3.655919e-02 -5.034828e-02 -6.310196e-02 -7.693788e-02 -8.906258e-02 -1.021858e-01 -1.128014e-01 -1.242359e-01 -1.323081e-01 -1.408842e-01 -1.453335e-01 -1.498318e-01 -1.497571e-01 -1.491879e-01 -1.441697e-01 -1.381363e-01 -1.285361e-01 -1.175754e-01 -1.047325e-01 -9.049580e-02 -7.671278e-02 -6.179971e-02 -4.991333e-02 -3.708170e-02 -2.935318e-02 -2.012042e-02 -1.685160e-02 -1.072702e-02 -1.027043e-02 -5.638300e-03 -6.378522e-03 -1.529976e-03 -2.134000e-03 3.282550e-03 3.510818e-03 8.765376e-03 9.643220e-03 1.347975e-02 1.405936e-02 1.551220e-02 1.531147e-02 1.480432e-02 1.416902e-02 1.267446e-02 1.209400e-02 1.038731e-02 1.014531e-02 8.643553e-03 8.816709e-03 7.673446e-03 8.222373e-03 7.446825e-03 8.287807e-03 7.825105e-03 8.868126e-03 8.642677e-03 9.806871e-03 9.742781e-03 1.096041e-02 1.098974e-02 1.220546e-02 
1.522309e-02 1.672840e-02 1.731319e-02 1.870066e-02 1.924378e-02 2.047668e-02 2.093319e-02 2.198527e-02 2.232356e-02 2.318018e-02 2.338345e-02 2.404333e-02 2.411119e-02 2.458809e-02 2.453791e-02 2.486210e-02 2.472982e-02 2.494899e-02 2.478936e-02 2.496888e-02 2.485474e-02 2.507709e-02 2.509788e-02 2.546108e-02 2.572000e-02 2.633464e-02 2.694434e-02 2.792880e-02 2.900496e-02 3.047812e-02 3.213041e-02 3.420146e-02 3.652136e-02 3.927614e-02 4.232173e-02 4.580580e-02 4.958359e-02 5.378276e-02 5.822815e-02 6.304824e-02 6.800672e-02 7.325547e-02 7.846814e-02 8.384343e-02 8.894135e-02 9.403073e-02 9.854328e-02 1.028402e-01 1.062220e-01 1.091623e-01 1.108413e-01 1.118610e-01 1.113042e-01 1.099126e-01 1.067011e-01 1.025559e-01 9.645170e-02 8.941766e-02 8.040135e-02 7.057343e-02 5.883820e-02 4.651999e-02 3.242288e-02 1.807083e-02 2.064339e-03 -1.377280e-02 -3.118981e-02 -4.790005e-02 -6.617695e-02 -8.305877e-02 -1.015206e-01 -1.177074e-01 -1.354366e-01 -1.498146e-01 -1.655449e-01 -1.767407e-01 -1.888534e-01 -1.953706e-01 -2.020783e-01 -2.026147e-01 -2.023657e-01 -1.962433e-01 -1.882807e-01 -1.758403e-01 -1.607717e-01 -1.435997e-01 -1.237726e-01 -1.047154e-01 -8.405894e-02 -6.691333e-02 -4.963058e-02 -3.797649e-02 -2.607637e-02 -2.106806e-02 -1.371776e-02 -1.332151e-02 -8.002207e-03 -9.417637e-03 -3.668836e-03 -4.800474e-03 1.906119e-03 2.102652e-03 8.821454e-03 1.007461e-02 1.504453e-02 1.580835e-02 1.742567e-02 1.702416e-02 1.605673e-02 1.511813e-02 1.300733e-02 1.222814e-02 9.998318e-03 9.719044e-03 7.872155e-03 8.154008e-03 6.854505e-03 7.623225e-03 6.864244e-03 8.001624e-03 7.703806e-03 9.090611e-03 9.152180e-03 1.068379e-02 1.100321e-02 1.259269e-02 1.307747e-02 1.465380e-02 
2.003459e-02 2.206693e-02 2.223058e-02 2.412067e-02 2.419822e-02 2.589732e-02 2.584413e-02 2.731560e-02 2.710445e-02 2.832566e-02 2.794810e-02 2.891287e-02 2.838062e-02 2.910159e-02 2.844761e-02 2.895825e-02 2.823723e-02 2.859311e-02 2.788133e-02 2.816057e-02 2.755487e-02 2.785765e-02 2.747356e-02 2.792039e-02 2.788901e-02 2.861738e-02 2.908063e-02 3.023949e-02 3.134288e-02 3.308415e-02 3.496646e-02 3.743266e-02 4.021171e-02 4.351931e-02 4.727348e-02 5.149175e-02 5.623763e-02 6.136382e-02 6.703121e-02 7.296408e-02 7.937116e-02 8.588643e-02 9.271923e-02 9.945206e-02 1.062541e-01 1.126953e-01 1.188741e-01 1.243877e-01 1.292450e-01 1.331119e-01 1.359018e-01 1.373928e-01 1.374051e-01 1.358757e-01 1.325350e-01 1.275261e-01 1.204834e-01 1.118014e-01 1.009920e-01 8.874275e-02 7.438774e-02 5.895092e-02 4.150182e-02 2.346053e-02 3.514900e-03 -1.642065e-02 -3.818485e-02 -5.921401e-02 -8.204322e-02 -1.032464e-01 -1.262401e-01 -1.464932e-01 -1.684762e-01 -1.863558e-01 -2.057544e-01 -2.195187e-01 -2.343490e-01 -2.420981e-01 -2.501817e-01 -2.502489e-01 -2.497035e-01 -2.412127e-01 -2.311271e-01 -2.145441e-01 -1.956354e-01 -1.731473e-01 -1.481850e-01 -1.238144e-01 -9.757776e-02 -7.673617e-02 -5.476304e-02 -4.219074e-02 -2.749200e-02 -2.360645e-02 -1.465464e-02 -1.505930e-02 -8.606887e-03 -1.089478e-02 -3.040176e-03 -4.955123e-03 4.437410e-03 4.328913e-03 1.361575e-02 1.522721e-02 2.192889e-02 2.293945e-02 2.474781e-02 2.416687e-02 2.258554e-02 2.142327e-02 1.853503e-02 1.768938e-02 1.476056e-02 1.459095e-02 1.216796e-02 1.270048e-02 1.093108e-02 1.205478e-02 1.090230e-02 1.247015e-02 1.182541e-02 1.369559e-02 1.343032e-02 1.547953e-02 1.547005e-02 1.759495e-02 1.773136e-02 1.984594e-02 
2.216958e-02 2.454606e-02 2.554809e-02 2.774248e-02 2.867253e-02 3.062732e-02 3.141433e-02 3.308599e-02 3.367799e-02 3.503964e-02 3.540669e-02 3.645136e-02 3.658846e-02 3.733217e-02 3.726162e-02 3.774584e-02 3.751877e-02 3.781198e-02 3.750871e-02 3.770694e-02 3.743611e-02 3.766226e-02 3.755877e-02 3.796056e-02 3.818169e-02 3.892773e-02 3.964717e-02 4.092040e-02 4.231930e-02 4.430687e-02 4.656083e-02 4.943933e-02 5.270066e-02 5.661594e-02 6.099065e-02 6.603205e-02 7.155183e-02 7.772164e-02 8.431266e-02 9.149329e-02 9.894486e-02 1.068678e-01 1.148064e-01 1.230297e-01 1.309051e-01 1.388072e-01 1.459005e-01 1.526997e-01 1.581606e-01 1.629695e-01 1.658902e-01 1.678065e-01 1.673298e-01 1.655587e-01 1.610069e-01 1.549927e-01 1.459883e-01 1.355217e-01 1.220592e-01 1.073203e-01 8.975550e-02 7.127015e-02 5.022157e-02 2.874676e-02 4.950716e-03 -1.865620e-02 -4.445892e-02 -6.931183e-02 -9.638586e-02 -1.215305e-01 -1.490231e-01 -1.732879e-01 -2.000009e-01 -2.218068e-01 -2.459536e-01 -2.632198e-01 -2.823283e-01 -2.926445e-01 -3.037872e-01 -3.049416e-01 -3.053739e-01 -2.961145e-01 -2.842204e-01 -2.649268e-01 -2.412369e-01 -2.142165e-01 -1.822561e-01 -1.517652e-01 -1.183602e-01 -9.065888e-02 -6.401196e-02 -4.611834e-02 -2.938673e-02 -2.375898e-02 -1.479130e-02 -1.646140e-02 -1.037677e-02 -1.434129e-02 -6.110210e-03 -9.316798e-03 1.144499e-03 6.094308e-04 1.135614e-02 1.352168e-02 2.157712e-02 2.274493e-02 2.410829e-02 2.308296e-02 2.052345e-02 1.902416e-02 1.535132e-02 1.444528e-02 1.105031e-02 1.102645e-02 8.414033e-03 9.215037e-03 7.481850e-03 8.943903e-03 8.016472e-03 9.961714e-03 9.703399e-03 1.197028e-02 1.222920e-02 1.467966e-02 1.530936e-02 1.782761e-02 1.869473e-02 2.118338e-02 
2.717337e-02 3.018259e-02 3.057385e-02 3.337824e-02 3.363449e-02 3.616188e-02 3.621605e-02 3.840893e-02 3.821731e-02 4.003678e-02 3.958173e-02 4.101185e-02 4.030445e-02 4.135628e-02 4.043821e-02 4.115299e-02 4.009744e-02 4.054858e-02 3.946009e-02 3.975398e-02 3.876714e-02 3.904262e-02 3.831973e-02 3.874608e-02 3.847329e-02 3.924630e-02 3.962773e-02 4.096286e-02 4.221152e-02 4.433305e-02 4.665741e-02 4.978222e-02 5.336703e-02 5.768173e-02 6.266240e-02 6.829344e-02 7.472375e-02 8.170106e-02 8.951594e-02 9.773252e-02 1.067091e-01 1.158813e-01 1.256040e-01 1.352399e-01 1.450786e-01 1.544645e-01 1.635760e-01 1.717935e-01 1.791585e-01 1.851436e-01 1.896488e-01 1.922996e-01 1.928667e-01 1.911941e-01 1.869403e-01 1.802365e-01 1.706331e-01 1.586122e-01 1.435890e-01 1.264476e-01 1.063949e-01 8.475898e-02 6.041742e-02 3.519937e-02 7.487045e-03 -2.027257e-02 -5.040108e-02 -7.961620e-02 -1.111994e-01 -1.406958e-01 -1.726545e-01 -2.010112e-01 -2.319172e-01 -2.572551e-01 -2.850550e-01 -3.049136e-01 -3.267871e-01 -3.382931e-01 -3.508875e-01 -3.513518e-01 -3.515257e-01 -3.393588e-01 -3.252940e-01 -3.008950e-01 -2.731950e-01 -2.395010e-01 -2.019423e-01 -1.647437e-01 -1.248067e-01 -9.306763e-02 -6.100878e-02 -4.422389e-02 -2.552396e-02 -2.446292e-02 -1.449604e-02 -1.656757e-02 -1.071795e-02 -1.580774e-02 -4.712590e-03 -9.645663e-03 4.463748e-03 2.642974e-03 1.653034e-02 1.911036e-02 2.922239e-02 3.069195e-02 3.129909e-02 2.993744e-02 2.613736e-02 2.455923e-02 1.994154e-02 1.925987e-02 1.519598e-02 1.556366e-02 1.244213e-02 1.371878e-02 1.155886e-02 1.354728e-02 1.222909e-02 1.473905e-02 1.409483e-02 1.695799e-02 1.681265e-02 1.988398e-02 2.007325e-02 2.322806e-02 2.360538e-02 2.673519e-02 
2.834555e-02 3.172538e-02 3.329990e-02 3.643083e-02 3.789494e-02 4.069445e-02 4.194556e-02 4.434688e-02 4.530639e-02 4.726375e-02 4.788221e-02 4.937642e-02 4.963843e-02 5.068194e-02 5.060999e-02 5.125065e-02 5.090744e-02 5.123087e-02 5.071995e-02 5.085033e-02 5.031513e-02 5.041456e-02 5.003586e-02 5.030218e-02 5.029360e-02 5.095605e-02 5.155712e-02 5.286884e-02 5.433427e-02 5.656030e-02 5.914403e-02 6.254293e-02 6.647542e-02 7.127315e-02 7.673083e-02 8.308598e-02 9.015266e-02 9.811363e-02 1.067357e-01 1.161924e-01 1.261312e-01 1.367667e-01 1.475559e-01 1.588062e-01 1.697229e-01 1.807577e-01 1.908219e-01 2.005606e-01 2.085779e-01 2.157568e-01 2.204173e-01 2.237185e-01 2.237577e-01 2.219962e-01 2.164011e-01 2.087413e-01 1.969575e-01 1.831007e-01 1.651681e-01 1.454351e-01 1.219758e-01 9.722904e-02 6.926243e-02 4.068333e-02 9.337893e-03 -2.183725e-02 -5.556497e-02 -8.820582e-02 -1.235050e-01 -1.565394e-01 -1.925991e-01 -2.247466e-01 -2.603607e-01 -2.897369e-01 -3.228081e-01 -3.466237e-01 -3.738311e-01 -3.885323e-01 -4.055228e-01 -4.076212e-01 -4.099250e-01 -3.973255e-01 -3.818225e-01 -3.549631e-01 -3.215041e-01 -2.835297e-01 -2.364663e-01 -1.926282e-01 -1.427335e-01 -1.014906e-01 -6.530840e-02 -4.012366e-02 -2.027730e-02 -1.716143e-02 -9.131243e-03 -1.537722e-02 -1.118162e-02 -1.925423e-02 -8.142315e-03 -1.573828e-02 -8.600752e-04 -4.233673e-03 1.063852e-02 1.403185e-02 2.626429e-02 2.766618e-02 2.630372e-02 2.422070e-02 1.886317e-02 1.726407e-02 1.192697e-02 1.162441e-02 7.334998e-03 8.199448e-03 5.144232e-03 6.929433e-03 5.049483e-03 7.532570e-03 6.678046e-03 9.666679e-03 9.653729e-03 1.298096e-02 1.362011e-02 1.714029e-02 1.825030e-02 2.183508e-02 2.324815e-02 2.678260e-02 
3.348487e-02 3.762541e-02 3.840890e-02 4.228204e-02 4.287113e-02 4.637538e-02 4.667466e-02 4.972393e-02 4.966648e-02 5.219722e-02 5.174963e-02 5.372813e-02 5.289497e-02 5.432362e-02 5.315055e-02 5.407254e-02 5.264769e-02 5.314984e-02 5.160359e-02 5.181741e-02 5.032083e-02 5.042203e-02 4.918410e-02 4.939067e-02 4.865422e-02 4.922242e-02 4.925787e-02 5.047521e-02 5.157077e-02 5.374403e-02 5.619044e-02 5.962674e-02 6.369428e-02 6.867309e-02 7.457929e-02 8.131389e-02 8.918108e-02 9.776961e-02 1.075735e-01 1.179417e-01 1.294543e-01 1.412955e-01 1.540303e-01 1.667516e-01 1.799211e-01 1.926105e-01 2.051128e-01 2.165457e-01 2.269995e-01 2.357060e-01 2.425539e-01 2.469643e-01 2.486561e-01 2.473260e-01 2.425689e-01 2.344521e-01 2.224777e-01 2.071709e-01 1.879256e-01 1.657814e-01 1.399377e-01 1.119659e-01 8.071384e-02 4.830037e-02 1.300851e-02 -2.239812e-02 -6.046480e-02 -9.752049e-02 -1.372781e-01 -1.746818e-01 -2.150744e-01 -2.513007e-01 -2.909305e-01 -3.238185e-01 -3.604037e-01 -3.867922e-01 -4.167136e-01 -4.325228e-01 -4.509547e-01 -4.520637e-01 -4.540319e-01 -4.377811e-01 -4.199633e-01 -3.865813e-01 -3.491139e-01 -3.023130e-01 -2.496636e-01 -1.965629e-01 -1.389738e-01 -9.272991e-02 -4.956304e-02 -2.982367e-02 -1.051276e-02 -2.123766e-02 -1.133368e-02 -1.151870e-02 -1.161882e-02 -2.059971e-02 -3.590841e-03 -1.505272e-02 5.235470e-03 -2.304120e-03 1.555661e-02 1.892356e-02 3.303445e-02 3.480783e-02 3.046041e-02 2.835111e-02 2.141930e-02 2.053128e-02 1.449936e-02 1.506051e-02 1.035460e-02 1.202452e-02 8.623698e-03 1.114717e-02 8.927094e-03 1.211438e-02 1.089609e-02 1.458395e-02 1.416371e-02 1.820283e-02 1.837537e-02 2.262746e-02 2.319921e-02 2.753496e-02 2.832936e-02 3.262614e-02 
3.354815e-02 3.810271e-02 4.045638e-02 4.469789e-02 4.689595e-02 5.070915e-02 5.260883e-02 5.589407e-02 5.738042e-02 6.006287e-02 6.105747e-02 6.309618e-02 6.356488e-02 6.496044e-02 6.491920e-02 6.571921e-02 6.523738e-02 6.553953e-02 6.474072e-02 6.469382e-02 6.375463e-02 6.355800e-02 6.270513e-02 6.260644e-02 6.211200e-02 6.240334e-02 6.257773e-02 6.358836e-02 6.476912e-02 6.685304e-02 6.938731e-02 7.290292e-02 7.712118e-02 8.240033e-02 8.857898e-02 9.588363e-02 1.041955e-01 1.136615e-01 1.241151e-01 1.356852e-01 1.480572e-01 1.614094e-01 1.751768e-01 1.896579e-01 2.039448e-01 2.185255e-01 2.320814e-01 2.453554e-01 2.565907e-01 2.668450e-01 2.739500e-01 2.793322e-01 2.805003e-01 2.792910e-01 2.730368e-01 2.639978e-01 2.495111e-01 2.322159e-01 2.096231e-01 1.846245e-01 1.549973e-01 1.237025e-01 8.872592e-02 5.297858e-02 1.439152e-02 -2.404527e-02 -6.493477e-02 -1.047137e-01 -1.471660e-01 -1.873094e-01 -2.308902e-01 -2.703488e-01 -3.143070e-01 -3.512085e-01 -3.935587e-01 -4.244524e-01 -4.611363e-01 -4.809272e-01 -5.057999e-01 -5.090374e-01 -5.151291e-01 -4.984213e-01 -4.801303e-01 -4.443755e-01 -3.999099e-01 -3.503160e-01 -2.836414e-01 -2.258991e-01 -1.519517e-01 -9.246299e-02 -5.108182e-02 -1.608297e-02 5.277470e-03 1.078269e-03 4.678740e-03 -9.059476e-03 -9.587438e-03 -2.172029e-02 -4.851626e-03 -2.109502e-02 -5.882857e-04 -1.222022e-02 3.929207e-03 7.175300e-03 2.442684e-02 2.524433e-02 1.590848e-02 1.410983e-02 6.189985e-03 6.669927e-03 6.563130e-04 2.433911e-03 -2.032225e-03 5.782628e-04 -2.446733e-03 8.252732e-04 -8.646354e-04 2.955469e-03 2.438623e-03 6.691234e-03 7.150542e-03 1.171344e-02 1.294183e-02 1.769038e-02 1.948413e-02 2.429336e-02 2.645685e-02 3.120145e-02 
3.879800e-02 4.426383e-02 4.565047e-02 5.079371e-02 5.191768e-02 5.659734e-02 5.732558e-02 6.141498e-02 6.164725e-02 6.504589e-02 6.472344e-02 6.736840e-02 6.648114e-02 6.835645e-02 6.694769e-02 6.809084e-02 6.625909e-02 6.676452e-02 6.466296e-02 6.468312e-02 6.251740e-02 6.226218e-02 6.028723e-02 6.002219e-02 5.853832e-02 5.858149e-02 5.792887e-02 5.864474e-02 5.919443e-02 6.098277e-02 6.312152e-02 6.639785e-02 7.050324e-02 7.566734e-02 8.207019e-02 8.945999e-02 9.839195e-02 1.082213e-01 1.197476e-01 1.320294e-01 1.459698e-01 1.604293e-01 1.762749e-01 1.922638e-01 2.091029e-01 2.255321e-01 2.420054e-01 2.573233e-01 2.716402e-01 2.838912e-01 2.939426e-01 3.009472e-01 3.045491e-01 3.042257e-01 2.994978e-01 2.902996e-01 2.761149e-01 2.574646e-01 2.338104e-01 2.063277e-01 1.743582e-01 1.396905e-01 1.013434e-01 6.161714e-02 1.895168e-02 -2.383679e-02 -6.917220e-02 -1.134579e-01 -1.603552e-01 -2.048931e-01 -2.525848e-01 -2.960465e-01 -3.436149e-01 -3.838792e-01 -4.293110e-01 -4.626037e-01 -5.016757e-01 -5.223380e-01 -5.483651e-01 -5.501534e-01 -5.554102e-01 -5.340345e-01 -5.126727e-01 -4.682555e-01 -4.197308e-01 -3.577354e-01 -2.872470e-01 -2.155159e-01 -1.338439e-01 -6.665699e-02 -1.414223e-02 4.616429e-03 1.609974e-02 -2.685508e-02 -1.451810e-02 8.938637e-03 -3.586767e-03 -2.317405e-02 1.017596e-02 -1.288850e-02 1.418436e-02 -6.815100e-03 1.152334e-02 8.790161e-03 1.868089e-02 2.150467e-02 9.490901e-03 1.155462e-02 4.046246e-03 7.106476e-03 1.278383e-03 4.669221e-03 1.306244e-04 3.871427e-03 6.532933e-04 4.835110e-03 2.876721e-03 7.516017e-03 6.656134e-03 1.170456e-02 1.173532e-02 1.710653e-02 1.780961e-02 2.339626e-02 2.455934e-02 3.024049e-02 3.166239e-02 3.730616e-02 
3.759779e-02 4.353739e-02 4.693037e-02 5.250470e-02 5.569445e-02 6.074278e-02 6.353310e-02 6.790837e-02 7.013385e-02 7.371753e-02 7.525735e-02 7.797344e-02 7.876330e-02 8.058951e-02 8.063006e-02 8.160522e-02 8.096632e-02 8.119399e-02 8.001540e-02 7.966458e-02 7.815396e-02 7.745813e-02 7.588747e-02 7.514269e-02 7.384385e-02 7.340586e-02 7.276429e-02 7.304315e-02 7.348802e-02 7.493744e-02 7.692483e-02 8.002227e-02 8.400744e-02 8.922070e-02 9.561559e-02 1.033521e-01 1.124652e-01 1.230019e-01 1.349605e-01 1.483556e-01 1.630124e-01 1.790036e-01 1.958372e-01 2.137376e-01 2.317593e-01 2.503701e-01 2.680628e-01 2.856332e-01 3.009566e-01 3.152342e-01 3.257458e-01 3.341711e-01 3.373128e-01 3.373987e-01 3.309730e-01 3.208554e-01 3.036280e-01 2.826566e-01 2.548767e-01 2.239753e-01 1.874771e-01 1.489674e-01 1.065929e-01 6.342034e-02 1.793123e-02 -2.733107e-02 -7.419715e-02 -1.200075e-01 -1.677735e-01 -2.135700e-01 -2.626395e-01 -3.081698e-01 -3.589837e-01 -4.030057e-01 -4.544890e-01 -4.930762e-01 -5.407732e-01 -5.665746e-01 -6.021019e-01 -6.063162e-01 -6.191457e-01 -5.959554e-01 -5.764946e-01 -5.278779e-01 -4.712434e-01 -4.091565e-01 -3.160591e-01 -2.513180e-01 -1.325446e-01 -4.849019e-02 -3.132024e-02 5.227371e-03 3.451814e-02 5.978560e-02 2.513081e-02 -2.464283e-02 2.125210e-02 -1.059478e-02 1.152633e-02 -7.752057e-03 7.973961e-03 -1.238490e-02 5.842478e-03 -1.368821e-02 -2.456949e-02 -1.807817e-02 -2.338021e-02 -1.418713e-02 -1.875961e-02 -1.234920e-02 -1.723961e-02 -1.210095e-02 -1.613358e-02 -1.127803e-02 -1.395277e-02 -8.943534e-03 -1.019875e-02 -4.880275e-03 -4.840947e-03 8.059371e-04 1.946900e-03 7.873089e-03 9.902515e-03 1.602100e-02 1.872123e-02 2.491929e-02 2.807112e-02 3.421519e-02 
4.296150e-02 4.998774e-02 5.223714e-02 5.890425e-02 6.081819e-02 6.692990e-02 6.832359e-02 7.369498e-02 7.442039e-02 7.889656e-02 7.885634e-02 8.232970e-02 8.148833e-02 8.391202e-02 8.230254e-02 8.369890e-02 8.142497e-02 8.188929e-02 7.912353e-02 7.882430e-02 7.580463e-02 7.498220e-02 7.200783e-02 7.097269e-02 6.840066e-02 6.753173e-02 6.577330e-02 6.551473e-02 6.502943e-02 6.588273e-02 6.716598e-02 6.967293e-02 7.323231e-02 7.794308e-02 8.425809e-02 9.167973e-02 1.011407e-01 1.116623e-01 1.244868e-01 1.382810e-01 1.544090e-01 1.713126e-01 1.902870e-01 2.096711e-01 2.305169e-01 2.511655e-01 2.722916e-01 2.923221e-01 3.114876e-01 3.283688e-01 3.427751e-01 3.535177e-01 3.601041e-01 3.616966e-01 3.576917e-01 3.477925e-01 3.314730e-01 3.091982e-01 2.805982e-01 2.470173e-01 2.081222e-01 1.659915e-01 1.200386e-01 7.271011e-02 2.286366e-02 -2.690924e-02 -7.853356e-02 -1.290602e-01 -1.814441e-01 -2.317790e-01 -2.847039e-01 -3.341383e-01 -3.878030e-01 -4.348351e-01 -4.884359e-01 -5.289317e-01 -5.781901e-01 -6.042543e-01 -6.401930e-01 -6.422297e-01 -6.529411e-01 -6.240206e-01 -5.988329e-01 -5.385169e-01 -4.755791e-01 -3.937910e-01 -3.013748e-01 -2.121745e-01 -9.603252e-02 5.499895e-03 6.558345e-02 2.053029e-02 -3.360526e-02 -3.193710e-02 4.454713e-02 1.124899e-02 6.342789e-03 -5.238562e-04 9.521164e-03 -1.072710e-02 9.979047e-03 -7.069578e-03 1.389336e-02 -1.283456e-02 -2.390254e-02 -2.428839e-02 -2.449363e-02 -1.407104e-02 -1.822824e-02 -1.039522e-02 -1.557592e-02 -9.288940e-03 -1.359033e-02 -7.777344e-03 -1.068438e-02 -4.820145e-03 -6.340190e-03 -2.035510e-04 -5.122009e-04 5.963220e-03 6.643994e-03 1.344098e-02 1.488236e-02 2.193173e-02 2.390782e-02 3.110115e-02 3.338882e-02 4.058393e-02 
4.032020e-02 4.789758e-02 5.264857e-02 5.983355e-02 6.433874e-02 7.090603e-02 7.489660e-02 8.063077e-02 8.387083e-02 8.858932e-02 9.089730e-02 9.447133e-02 9.573778e-02 9.810820e-02 9.830756e-02 9.949432e-02 9.869000e-02 9.879558e-02 9.713943e-02 9.634812e-02 9.407651e-02 9.265207e-02 9.008102e-02 8.836462e-02 8.588537e-02 8.429458e-02 8.236942e-02 8.139660e-02 8.055265e-02 8.075906e-02 8.157527e-02 8.357537e-02 8.665693e-02 9.108603e-02 9.701985e-02 1.044789e-01 1.137648e-01 1.247378e-01 1.376925e-01 1.524347e-01 1.690704e-01 1.874709e-01 2.073538e-01 2.287815e-01 2.508847e-01 2.740369e-01 2.966121e-01 3.194012e-01 3.399159e-01 3.594574e-01 3.746732e-01 3.874683e-01 3.937671e-01 3.961930e-01 3.902522e-01 3.794129e-01 3.592202e-01 3.340129e-01 2.999192e-01 2.618308e-01 2.169562e-01 1.698779e-01 1.191396e-01 6.791792e-02 1.585302e-02 -3.562254e-02 -8.669872e-02 -1.367468e-01 -1.869047e-01 -2.358466e-01 -2.868588e-01 -3.361248e-01 -3.906959e-01 -4.408834e-01 -5.003301e-01 -5.476253e-01 -6.078522e-01 -6.413630e-01 -6.911559e-01 -6.959769e-01 -7.201683e-01 -6.852704e-01 -6.680590e-01 -5.946598e-01 -5.256747e-01 -4.399009e-01 -3.093084e-01 -2.659507e-01 -2.941185e-02 8.802914e-02 2.346343e-02 3.283935e-02 8.353696e-02 4.504918e-02 -7.371827e-02 -5.404445e-02 -1.062093e-02 -5.664597e-02 -1.133550e-02 -3.342065e-02 -4.834401e-03 -2.410314e-02 -5.914446e-03 -1.642061e-02 -1.544552e-02 -2.551978e-02 -3.397749e-02 -2.793610e-02 -3.614421e-02 -2.869793e-02 -3.508406e-02 -2.818462e-02 -3.254234e-02 -2.599203e-02 -2.843963e-02 -2.189595e-02 -2.263925e-02 -1.589200e-02 -1.515516e-02 -8.113434e-03 -6.119528e-03 1.225516e-03 4.255100e-03 1.185275e-02 1.569121e-02 2.344096e-02 2.784777e-02 3.560388e-02 
4.582310e-02 5.469180e-02 5.811756e-02 6.662448e-02 6.964453e-02 7.751506e-02 7.987276e-02 8.683884e-02 8.831801e-02 9.414657e-02 9.459337e-02 9.911180e-02 9.845153e-02 1.015665e-01 9.981284e-02 1.015208e-01 9.877733e-02 9.916743e-02 9.562337e-02 9.487525e-02 9.079867e-02 8.917878e-02 8.491060e-02 8.276983e-02 7.872066e-02 7.649460e-02 7.314438e-02 7.135497e-02 6.925271e-02 6.850717e-02 6.826538e-02 6.924590e-02 7.152241e-02 7.495867e-02 8.041791e-02 8.703419e-02 9.628069e-02 1.067111e-01 1.201907e-01 1.348588e-01 1.527260e-01 1.716893e-01 1.936453e-01 2.164100e-01 2.415198e-01 2.668421e-01 2.933545e-01 3.190629e-01 3.442791e-01 3.671897e-01 3.874717e-01 4.035259e-01 4.145918e-01 4.193900e-01 4.170669e-01 4.069324e-01 3.884195e-01 3.618500e-01 3.271478e-01 2.859518e-01 2.384957e-01 1.874470e-01 1.328391e-01 7.740883e-02 2.059707e-02 -3.548305e-02 -9.201899e-02 -1.472877e-01 -2.028233e-01 -2.569043e-01 -3.117537e-01 -3.650190e-01 -4.212026e-01 -4.738217e-01 -5.335107e-01 -5.816830e-01 -6.418187e-01 -6.740636e-01 -7.230310e-01 -7.242028e-01 -7.444758e-01 -7.041632e-01 -6.751883e-01 -5.893408e-01 -5.040312e-01 -3.833325e-01 -2.439436e-01 -1.193085e-01 2.994663e-03 -8.503793e-03 7.693782e-03 2.994611e-02 -1.206037e-01 -1.416309e-01 4.263523e-02 -4.153036e-03 1.166671e-02 -3.881114e-03 1.406735e-02 -1.072299e-02 1.795581e-02 -1.079429e-02 1.627137e-02 2.554894e-03 -8.783137e-03 4.006909e-04 -2.298992e-02 -1.666477e-02 -3.054060e-02 -2.316070e-02 -3.139257e-02 -2.409181e-02 -2.906123e-02 -2.191342e-02 -2.464070e-02 -1.742450e-02 -1.842867e-02 -1.095246e-02 -1.057289e-02 -2.728992e-03 -1.233374e-03 7.009251e-03 9.381885e-03 1.798752e-02 2.100344e-02 2.987368e-02 3.328981e-02 4.226587e-02 
4.151939e-02 5.103766e-02 5.753246e-02 6.667338e-02 7.289591e-02 8.134250e-02 8.692420e-02 9.436355e-02 9.897028e-02 1.051282e-01 1.084929e-01 1.131648e-01 1.151137e-01 1.181865e-01 1.186551e-01 1.201188e-01 1.191571e-01 1.191067e-01 1.168756e-01 1.155062e-01 1.122693e-01 1.098709e-01 1.059865e-01 1.029401e-01 9.885624e-02 9.563535e-02 9.188900e-02 8.906415e-02 8.628132e-02 8.452292e-02 8.341419e-02 8.348621e-02 8.482841e-02 8.756283e-02 9.215743e-02 9.839939e-02 1.069986e-01 1.175142e-01 1.307089e-01 1.460510e-01 1.641187e-01 1.844501e-01 2.071664e-01 2.320460e-01 2.584681e-01 2.866129e-01 3.148552e-01 3.439097e-01 3.709567e-01 3.973446e-01 4.190011e-01 4.380050e-01 4.491724e-01 4.554792e-01 4.510218e-01 4.399738e-01 4.163673e-01 3.858790e-01 3.433424e-01 2.956894e-01 2.394868e-01 1.813078e-01 1.202127e-01 5.970460e-02 1.414021e-03 -5.534146e-02 -1.080119e-01 -1.594819e-01 -2.077495e-01 -2.557676e-01 -3.030648e-01 -3.519451e-01 -4.045506e-01 -4.591025e-01 -5.235570e-01 -5.818647e-01 -6.559005e-01 -7.011351e-01 -7.692043e-01 -7.752007e-01 -8.178763e-01 -7.644957e-01 -7.581407e-01 -6.361287e-01 -5.695227e-01 -4.041588e-01 -2.312334e-01 -1.378706e-01 5.258056e-02 8.438735e-02 3.830871e-02 -9.726600e-02 -8.453849e-02 -4.816427e-02 4.811058e-03 -3.520519e-02 -7.845176e-03 -2.990691e-02 9.445786e-03 -1.973516e-02 1.094601e-02 -1.708553e-02 1.313916e-02 -2.026852e-02 -6.311487e-02 -2.334526e-02 -5.203633e-02 -3.872587e-02 -5.460617e-02 -4.552804e-02 -5.435273e-02 -4.631568e-02 -5.114820e-02 -4.343996e-02 -4.561479e-02 -3.789058e-02 -3.803194e-02 -3.007178e-02 -2.852880e-02 -2.020207e-02 -1.721909e-02 -8.471583e-03 -4.262687e-03 4.887557e-03 1.009842e-02 1.955997e-02 2.551510e-02 3.512230e-02 