# vtk DataFile Version 2.0
Comment goes here
ASCII

DATASET STRUCTURED_POINTS
DIMENSIONS    128   128   1

ORIGIN    0.000   0.000   0.000
SPACING   0.0156250.015625   1.000

POINT_DATA   16384
SCALARS uY double
LOOKUP_TABLE default

1.552255e-06 8.530062e-07 1.515276e-06 7.539075e-07 1.451937e-06 6.315219e-07 1.361099e-06 4.869397e-07 1.243773e-06 3.234511e-07 1.103221e-06 1.467347e-07 9.452299e-07 -3.486982e-08 7.784066e-07 -2.101191e-07 6.144071e-07 -3.647523e-07 4.679942e-07 -4.815921e-07 3.568431e-07 -5.409438e-07 3.010119e-07 -5.213679e-07 3.220042e-07 -4.008880e-07 4.413662e-07 -1.586786e-07 6.787854e-07 2.227513e-07 1.049688e-06 7.548993e-07 1.562373e-06 1.440198e-06 2.214770e-06 2.268650e-06 2.990970e-06 3.214339e-06 3.857740e-06 4.232102e-06 4.761350e-06 5.254700e-06 5.625129e-06 6.191006e-06 6.348338e-06 6.925860e-06 6.807090e-06 7.322390e-06 6.858208e-06 7.227754e-06 6.346969e-06 6.483213e-06 5.119581e-06 4.939280e-06 3.040871e-06 2.476060e-06 1.684062e-08 -9.720881e-07 -3.979492e-06 -5.389914e-06 -8.882118e-06 -1.065664e-05 -1.451066e-05 -1.652876e-05 -2.055925e-05 -2.263601e-05 -2.660118e-05 -2.849574e-05 -3.211307e-05 -3.354812e-05 -3.652025e-05 -3.721322e-05 -3.926325e-05 -3.896859e-05 -3.988406e-05 -3.844482e-05 -3.812729e-05 -3.552896e-05 -3.404004e-05 -3.045136e-05 -2.803653e-05 -2.381394e-05 -2.088119e-05 -1.651751e-05 -1.355922e-05 -9.578180e-06 -7.051836e-06 -3.879336e-06 -2.088242e-06 5.713625e-08 1.040080e-06 2.205809e-06 2.541806e-06 3.019744e-06 3.018151e-06 3.215273e-06 3.189856e-06 3.445724e-06 3.573600e-06 4.022514e-06 4.286233e-06 4.824494e-06 5.051144e-06 5.406589e-06 5.399707e-06 5.337078e-06 5.066667e-06 4.633909e-06 4.256326e-06 3.652977e-06 3.343585e-06 2.733417e-06 2.586236e-06 2.038363e-06 2.069029e-06 1.583693e-06 1.768047e-06 1.316281e-06 1.620938e-06 1.169854e-06 1.566413e-06 1.089545e-06 1.557948e-06 1.037190e-06 1.564413e-06 9.887374e-07 1.566394e-06 9.299784e-07 
1.344276e-03 1.193965e-03 9.509086e-04 8.041328e-04 5.582419e-04 4.164250e-04 1.707090e-04 3.559676e-05 -2.062930e-04 -3.326116e-04 -5.664358e-04 -6.815676e-04 -9.026187e-04 -1.003926e-03 -1.207170e-03 -1.291818e-03 -1.472022e-03 -1.537001e-03 -1.688830e-03 -1.730940e-03 -1.849021e-03 -1.864836e-03 -1.943797e-03 -1.929636e-03 -1.964159e-03 -1.916097e-03 -1.901019e-03 -1.814997e-03 -1.745520e-03 -1.617593e-03 -1.489650e-03 -1.316438e-03 -1.127268e-03 -9.066506e-04 -6.556180e-04 -3.876796e-04 -7.733597e-05 2.344440e-04 5.971023e-04 9.445132e-04 1.346722e-03 1.715507e-03 2.137575e-03 2.506416e-03 2.921062e-03 3.261256e-03 3.633878e-03 3.910149e-03 4.200480e-03 4.373342e-03 4.538819e-03 4.568709e-03 4.569591e-03 4.422571e-03 4.228299e-03 3.882544e-03 3.478258e-03 2.929992e-03 2.321635e-03 1.588921e-03 8.054183e-04 -7.139656e-05 -9.796301e-04 -1.940956e-03 -2.906626e-03 -3.878948e-03 -4.823850e-03 -5.725381e-03 -6.565797e-03 -7.311133e-03 -7.962106e-03 -8.466587e-03 -8.846975e-03 -9.033886e-03 -9.076107e-03 -8.890774e-03 -8.558446e-03 -7.990380e-03 -7.301748e-03 -6.408513e-03 -5.454477e-03 -4.372077e-03 -3.311472e-03 -2.234775e-03 -1.256656e-03 -3.878883e-04 3.465220e-04 8.597372e-04 1.264472e-03 1.373896e-03 1.459315e-03 1.237047e-03 1.114439e-03 7.430080e-04 5.925153e-04 2.925637e-04 2.859019e-04 2.251762e-04 4.586153e-04 6.954251e-04 1.154451e-03 1.630355e-03 2.198999e-03 2.730118e-03 3.221979e-03 3.575125e-03 3.864212e-03 3.999930e-03 4.109917e-03 4.106764e-03 4.106116e-03 4.036538e-03 3.970861e-03 3.869820e-03 3.759779e-03 3.639631e-03 3.495106e-03 3.360965e-03 3.189101e-03 3.044996e-03 2.852064e-03 2.701840e-03 2.492977e-03 2.339848e-03 2.118844e-03 1.965152e-03 1.734696e-03 1.582069e-03 
2.562877e-03 2.248721e-03 1.830442e-03 1.522096e-03 1.101294e-03 8.018808e-04 3.831041e-04 9.641837e-05 -3.146146e-04 -5.840861e-04 -9.805258e-04 -1.227701e-03 -1.601734e-03 -1.821074e-03 -2.164134e-03 -2.349753e-03 -2.652712e-03 -2.798426e-03 -3.051733e-03 -3.151035e-03 -3.344802e-03 -3.390785e-03 -3.514840e-03 -3.500122e-03 -3.544105e-03 -3.460839e-03 -3.414405e-03 -3.254464e-03 -3.107718e-03 -2.863172e-03 -2.607417e-03 -2.271407e-03 -1.900326e-03 -1.468418e-03 -9.797532e-04 -4.518205e-04 1.504571e-04 7.678644e-04 1.470973e-03 2.161934e-03 2.941550e-03 3.678096e-03 4.495925e-03 5.235927e-03 6.038258e-03 6.724668e-03 7.442793e-03 8.005149e-03 8.558599e-03 8.917680e-03 9.221002e-03 9.297096e-03 9.270274e-03 8.994731e-03 8.576277e-03 7.904767e-03 7.065184e-03 5.989898e-03 4.742180e-03 3.299566e-03 1.703427e-03 -2.516027e-05 -1.867041e-03 -3.762172e-03 -5.714603e-03 -7.630412e-03 -9.538697e-03 -1.131484e-02 -1.301560e-02 -1.448616e-02 -1.581425e-02 -1.681482e-02 -1.761047e-02 -1.799025e-02 -1.811563e-02 -1.776412e-02 -1.713779e-02 -1.602968e-02 -1.467667e-02 -1.292201e-02 -1.101704e-02 -8.883979e-03 -6.749565e-03 -4.623425e-03 -2.655759e-03 -9.316570e-04 5.253517e-04 1.564456e-03 2.330826e-03 2.590019e-03 2.700934e-03 2.308571e-03 2.010012e-03 1.314094e-03 9.686121e-04 3.924825e-04 3.402928e-04 2.217477e-04 6.389266e-04 1.109526e-03 1.975433e-03 2.941496e-03 4.043131e-03 5.136242e-03 6.095783e-03 6.799440e-03 7.348140e-03 7.602030e-03 7.803515e-03 7.787365e-03 7.784803e-03 7.644931e-03 7.524864e-03 7.325063e-03 7.124041e-03 6.884807e-03 6.620850e-03 6.351039e-03 6.038527e-03 5.746183e-03 5.398168e-03 5.091281e-03 4.718317e-03 4.403573e-03 4.013125e-03 3.695397e-03 3.292362e-03 2.975071e-03 
4.028580e-03 3.578931e-03 2.846850e-03 2.407273e-03 1.665680e-03 1.240498e-03 4.985091e-04 9.304304e-05 -6.382346e-04 -1.017624e-03 -1.725290e-03 -2.071344e-03 -2.741094e-03 -3.045851e-03 -3.662430e-03 -3.917387e-03 -4.464982e-03 -4.661150e-03 -5.123686e-03 -5.251537e-03 -5.612842e-03 -5.662172e-03 -5.906074e-03 -5.865874e-03 -5.976309e-03 -5.834752e-03 -5.796024e-03 -5.540729e-03 -5.338080e-03 -4.956817e-03 -4.577476e-03 -4.059479e-03 -3.494362e-03 -2.832385e-03 -2.078550e-03 -1.271741e-03 -3.356353e-04 6.068196e-04 1.705468e-03 2.760164e-03 3.984165e-03 5.109278e-03 6.400185e-03 7.532085e-03 8.807831e-03 9.859715e-03 1.101504e-02 1.187901e-02 1.279013e-02 1.334415e-02 1.387890e-02 1.399938e-02 1.403305e-02 1.361269e-02 1.304807e-02 1.201652e-02 1.080492e-02 9.148003e-03 7.305785e-03 5.077896e-03 2.693716e-03 1.916668e-05 -2.751160e-03 -5.688458e-03 -8.637516e-03 -1.161195e-02 -1.450059e-02 -1.726324e-02 -1.983754e-02 -2.212983e-02 -2.413251e-02 -2.569666e-02 -2.687882e-02 -2.747576e-02 -2.762289e-02 -2.707276e-02 -2.605856e-02 -2.431149e-02 -2.217656e-02 -1.939636e-02 -1.641660e-02 -1.302584e-02 -9.707137e-03 -6.330526e-03 -3.284599e-03 -5.758849e-04 1.681314e-03 3.249224e-03 4.451946e-03 4.723859e-03 4.904209e-03 4.104725e-03 3.617776e-03 2.345763e-03 1.779550e-03 7.527324e-04 6.538114e-04 4.006641e-04 1.070537e-03 1.761448e-03 3.148163e-03 4.632918e-03 6.393453e-03 8.101242e-03 9.616073e-03 1.067019e-02 1.151077e-02 1.186890e-02 1.217931e-02 1.215460e-02 1.216310e-02 1.197076e-02 1.179628e-02 1.151748e-02 1.120640e-02 1.086529e-02 1.044321e-02 1.005309e-02 9.543200e-03 9.118226e-03 8.541908e-03 8.095845e-03 7.470125e-03 7.013965e-03 6.350853e-03 5.892220e-03 5.199895e-03 4.743854e-03 
5.118595e-03 4.490473e-03 3.651342e-03 3.033543e-03 2.187634e-03 1.586536e-03 7.430529e-04 1.664487e-04 -6.629473e-04 -1.205852e-03 -2.007181e-03 -2.506013e-03 -3.263372e-03 -3.706905e-03 -4.402929e-03 -4.779335e-03 -5.395606e-03 -5.692547e-03 -6.209870e-03 -6.414420e-03 -6.812949e-03 -6.911385e-03 -7.170684e-03 -7.148260e-03 -7.247397e-03 -7.088257e-03 -7.006122e-03 -6.693572e-03 -6.409634e-03 -5.926993e-03 -5.422711e-03 -4.754976e-03 -4.016112e-03 -3.152642e-03 -2.172610e-03 -1.110939e-03 1.047313e-04 1.353988e-03 2.782247e-03 4.189678e-03 5.784061e-03 7.295583e-03 8.980730e-03 1.051268e-02 1.218066e-02 1.361746e-02 1.512780e-02 1.632426e-02 1.750984e-02 1.830010e-02 1.898071e-02 1.919519e-02 1.919931e-02 1.868927e-02 1.788241e-02 1.654901e-02 1.486362e-02 1.268536e-02 1.014481e-02 7.195299e-03 3.923740e-03 3.731710e-04 -3.413293e-03 -7.314416e-03 -1.133273e-02 -1.528133e-02 -1.921226e-02 -2.288018e-02 -2.639217e-02 -2.944358e-02 -3.220358e-02 -3.430351e-02 -3.598334e-02 -3.681337e-02 -3.711452e-02 -3.642164e-02 -3.514421e-02 -3.283935e-02 -2.999899e-02 -2.628368e-02 -2.222967e-02 -1.767198e-02 -1.310730e-02 -8.562845e-03 -4.379013e-03 -7.306607e-04 2.302891e-03 4.442681e-03 5.941857e-03 6.370443e-03 6.423459e-03 5.400135e-03 4.572386e-03 2.894641e-03 1.987802e-03 5.886645e-04 3.490859e-04 -4.121096e-05 7.237166e-04 1.599128e-03 3.321873e-03 5.353927e-03 7.651263e-03 1.009753e-02 1.209981e-02 1.347708e-02 1.451273e-02 1.491120e-02 1.527967e-02 1.522242e-02 1.524720e-02 1.500700e-02 1.481697e-02 1.446831e-02 1.410558e-02 1.366506e-02 1.316006e-02 1.264334e-02 1.202987e-02 1.145805e-02 1.076779e-02 1.016149e-02 9.418775e-03 8.793964e-03 8.014902e-03 7.382401e-03 6.576915e-03 5.943874e-03 
6.710394e-03 5.960992e-03 4.735090e-03 4.000279e-03 2.755285e-03 2.042475e-03 7.938874e-04 1.122793e-04 -1.120871e-03 -1.760292e-03 -2.955886e-03 -3.540669e-03 -4.674265e-03 -5.190897e-03 -6.236565e-03 -6.670777e-03 -7.601807e-03 -7.938668e-03 -8.728058e-03 -8.951832e-03 -9.572511e-03 -9.666344e-03 -1.009122e-02 -1.003679e-02 -1.023880e-02 -1.001611e-02 -9.968471e-03 -9.556128e-03 -9.233098e-03 -8.609328e-03 -7.987797e-03 -7.132476e-03 -6.194697e-03 -5.092734e-03 -3.830417e-03 -2.476623e-03 -8.965083e-04 6.980497e-04 2.567290e-03 4.367778e-03 6.467852e-03 8.407796e-03 1.064343e-02 1.261789e-02 1.485155e-02 1.671346e-02 1.876471e-02 2.032708e-02 2.197933e-02 2.302619e-02 2.404352e-02 2.435154e-02 2.450663e-02 2.387731e-02 2.298850e-02 2.128694e-02 1.925815e-02 1.645030e-02 1.330381e-02 9.481185e-03 5.372058e-03 7.543372e-04 -4.040098e-03 -9.126726e-03 -1.423942e-02 -1.939957e-02 -2.441460e-02 -2.922039e-02 -3.370495e-02 -3.771822e-02 -4.123705e-02 -4.401772e-02 -4.613996e-02 -4.726129e-02 -4.759012e-02 -4.669704e-02 -4.495900e-02 -4.189859e-02 -3.810383e-02 -3.310904e-02 -2.772162e-02 -2.154419e-02 -1.551527e-02 -9.346855e-03 -3.869478e-03 1.021211e-03 4.969027e-03 7.693011e-03 9.662048e-03 9.934030e-03 9.980141e-03 8.187248e-03 6.970183e-03 4.314813e-03 3.001075e-03 8.797547e-04 4.651733e-04 -1.747121e-04 8.478946e-04 1.893499e-03 4.192883e-03 6.812177e-03 9.900669e-03 1.322019e-02 1.587433e-02 1.753705e-02 1.881487e-02 1.922415e-02 1.970207e-02 1.964464e-02 1.973039e-02 1.949365e-02 1.929475e-02 1.891929e-02 1.846596e-02 1.795845e-02 1.729063e-02 1.667533e-02 1.584296e-02 1.515375e-02 1.420205e-02 1.346970e-02 1.243189e-02 1.167870e-02 1.057627e-02 9.816387e-03 8.662864e-03 7.905057e-03 
7.665923e-03 6.722824e-03 5.459124e-03 4.528033e-03 3.249718e-03 2.340563e-03 1.061759e-03 1.867980e-04 -1.074383e-03 -1.900693e-03 -3.122527e-03 -3.884035e-03 -5.041933e-03 -5.721386e-03 -6.788712e-03 -7.368189e-03 -8.316925e-03 -8.777986e-03 -9.579134e-03 -9.902626e-03 -1.052632e-02 -1.069192e-02 -1.110736e-02 -1.109304e-02 -1.126840e-02 -1.105003e-02 -1.095269e-02 -1.050420e-02 -1.010162e-02 -9.395948e-03 -8.657531e-03 -7.668988e-03 -6.569384e-03 -5.277527e-03 -3.801653e-03 -2.197126e-03 -3.470946e-04 1.560624e-03 3.756800e-03 5.930024e-03 8.408527e-03 1.077126e-02 1.342266e-02 1.585145e-02 1.851314e-02 2.083142e-02 2.328549e-02 2.526503e-02 2.724531e-02 2.861844e-02 2.983056e-02 3.031634e-02 3.047268e-02 2.981745e-02 2.868515e-02 2.671290e-02 2.416709e-02 2.082919e-02 1.689754e-02 1.230639e-02 7.188612e-03 1.620866e-03 -4.327994e-03 -1.046317e-02 -1.678213e-02 -2.299816e-02 -2.918131e-02 -3.496712e-02 -4.050732e-02 -4.535398e-02 -4.975187e-02 -5.314979e-02 -5.590033e-02 -5.733626e-02 -5.793817e-02 -5.694908e-02 -5.500007e-02 -5.133797e-02 -4.675160e-02 -4.064772e-02 -3.392625e-02 -2.630736e-02 -1.866038e-02 -1.105804e-02 -4.118354e-03 1.867484e-03 6.709110e-03 1.006251e-02 1.219577e-02 1.261749e-02 1.223080e-02 1.005567e-02 8.241773e-03 5.020043e-03 3.149912e-03 4.612978e-04 -1.654619e-04 -1.100506e-03 -1.216495e-04 9.181707e-04 3.359732e-03 6.521950e-03 1.011320e-02 1.467364e-02 1.789780e-02 1.968979e-02 2.102292e-02 2.131644e-02 2.185738e-02 2.180167e-02 2.199566e-02 2.180019e-02 2.167168e-02 2.129425e-02 2.084783e-02 2.027755e-02 1.956877e-02 1.884253e-02 1.794489e-02 1.711324e-02 1.608975e-02 1.519555e-02 1.408950e-02 1.316212e-02 1.199929e-02 1.105667e-02 9.851440e-03 8.904527e-03 
9.393211e-03 8.343422e-03 6.615782e-03 5.581530e-03 3.820034e-03 2.812181e-03 1.039280e-03 7.150860e-05 -1.684933e-03 -2.596329e-03 -4.303930e-03 -5.140694e-03 -6.763879e-03 -7.506524e-03 -9.007888e-03 -9.636216e-03 -1.097763e-02 -1.147087e-02 -1.261414e-02 -1.295064e-02 -1.385774e-02 -1.401435e-02 -1.464721e-02 -1.459846e-02 -1.491877e-02 -1.463624e-02 -1.460537e-02 -1.405770e-02 -1.363738e-02 -1.279128e-02 -1.194546e-02 -1.076823e-02 -9.466643e-03 -7.930782e-03 -6.154609e-03 -4.244737e-03 -1.994714e-03 2.830098e-04 2.976115e-03 5.582366e-03 8.645521e-03 1.149496e-02 1.480032e-02 1.774947e-02 2.110408e-02 2.394310e-02 2.708470e-02 2.953739e-02 3.214133e-02 3.387856e-02 3.558061e-02 3.625147e-02 3.668993e-02 3.597193e-02 3.484726e-02 3.251054e-02 2.965325e-02 2.562545e-02 2.105466e-02 1.546603e-02 9.416739e-03 2.605560e-03 -4.490554e-03 -1.201918e-02 -1.959601e-02 -2.724220e-02 -3.467741e-02 -4.181496e-02 -4.848648e-02 -5.449540e-02 -5.979253e-02 -6.404966e-02 -6.735112e-02 -6.921274e-02 -6.988738e-02 -6.873728e-02 -6.625308e-02 -6.169968e-02 -5.590644e-02 -4.814346e-02 -3.966115e-02 -2.982059e-02 -2.023385e-02 -1.035595e-02 -1.801058e-03 5.870319e-03 1.172976e-02 1.575022e-02 1.839316e-02 1.837689e-02 1.788204e-02 1.429585e-02 1.169951e-02 6.832675e-03 4.312313e-03 5.680718e-04 -4.717314e-04 -1.698769e-03 -3.855752e-04 6.749488e-04 3.667268e-03 7.308527e-03 1.173421e-02 1.782734e-02 2.178802e-02 2.349467e-02 2.493880e-02 2.512866e-02 2.590140e-02 2.598514e-02 2.640481e-02 2.636016e-02 2.631648e-02 2.599921e-02 2.549111e-02 2.489611e-02 2.401773e-02 2.321446e-02 2.207403e-02 2.113986e-02 1.982132e-02 1.881504e-02 1.737213e-02 1.633093e-02 1.479435e-02 1.373942e-02 1.212658e-02 1.106996e-02 
1.020812e-02 8.948591e-03 7.254972e-03 6.004537e-03 4.282594e-03 3.055283e-03 1.324632e-03 1.380212e-04 -1.575823e-03 -2.701077e-03 -4.367564e-03 -5.408688e-03 -6.993538e-03 -7.926667e-03 -9.393193e-03 -1.019409e-02 -1.150422e-02 -1.214849e-02 -1.326327e-02 -1.372597e-02 -1.460557e-02 -1.486030e-02 -1.546360e-02 -1.548141e-02 -1.576548e-02 -1.551385e-02 -1.543373e-02 -1.487621e-02 -1.438551e-02 -1.348252e-02 -1.253545e-02 -1.124687e-02 -9.802262e-03 -8.092455e-03 -6.120318e-03 -3.965948e-03 -1.457102e-03 1.141866e-03 4.163189e-03 7.169589e-03 1.063061e-02 1.395422e-02 1.771754e-02 2.119940e-02 2.504887e-02 2.844951e-02 3.208276e-02 3.507955e-02 3.811335e-02 4.031383e-02 4.230924e-02 4.328656e-02 4.379912e-02 4.315269e-02 4.180714e-02 3.924371e-02 3.582276e-02 3.124166e-02 2.576534e-02 1.932024e-02 1.208423e-02 4.191753e-03 -4.260825e-03 -1.297959e-02 -2.195154e-02 -3.077682e-02 -3.953523e-02 -4.774984e-02 -5.560718e-02 -6.253818e-02 -6.885242e-02 -7.383514e-02 -7.794065e-02 -8.025039e-02 -8.139786e-02 -8.025895e-02 -7.769783e-02 -7.251183e-02 -6.584464e-02 -5.669852e-02 -4.646962e-02 -3.470298e-02 -2.282969e-02 -1.106533e-02 -4.467506e-04 8.481507e-03 1.540930e-02 2.004576e-02 2.253329e-02 2.271102e-02 2.112467e-02 1.682051e-02 1.341557e-02 7.932289e-03 4.626853e-03 8.513589e-05 -9.306654e-04 -2.604989e-03 -1.532942e-03 -1.009426e-03 1.582533e-03 5.239596e-03 9.718157e-03 1.847091e-02 2.317832e-02 2.410396e-02 2.539565e-02 2.539107e-02 2.649898e-02 2.687085e-02 2.766128e-02 2.787076e-02 2.802927e-02 2.780843e-02 2.736172e-02 2.673969e-02 2.585076e-02 2.494740e-02 2.377340e-02 2.269915e-02 2.134969e-02 2.018037e-02 1.871989e-02 1.750031e-02 1.596218e-02 1.471673e-02 1.311717e-02 1.185958e-02 
1.208903e-02 1.073810e-02 8.497730e-03 7.157731e-03 4.860693e-03 3.546644e-03 1.223431e-03 -4.543524e-05 -2.356559e-03 -3.557467e-03 -5.812134e-03 -6.919995e-03 -9.069907e-03 -1.005857e-02 -1.205361e-02 -1.289672e-02 -1.468660e-02 -1.535779e-02 -1.689289e-02 -1.736522e-02 -1.859667e-02 -1.884143e-02 -1.972047e-02 -1.970565e-02 -2.018269e-02 -1.987150e-02 -1.989543e-02 -1.924554e-02 -1.876379e-02 -1.772795e-02 -1.668818e-02 -1.521684e-02 -1.357096e-02 -1.161782e-02 -9.329062e-03 -6.860006e-03 -3.913755e-03 -9.197575e-04 2.661787e-03 6.147962e-03 1.028761e-02 1.417181e-02 1.871735e-02 2.282389e-02 2.752955e-02 3.158476e-02 3.609954e-02 3.972566e-02 4.359639e-02 4.632411e-02 4.902224e-02 5.033092e-02 5.131064e-02 5.070118e-02 4.948996e-02 4.658609e-02 4.289581e-02 3.755398e-02 3.138358e-02 2.377508e-02 1.546342e-02 6.087801e-03 -3.718359e-03 -1.410878e-02 -2.457108e-02 -3.510885e-02 -4.534699e-02 -5.517910e-02 -6.437455e-02 -7.271397e-02 -8.011182e-02 -8.618677e-02 -9.100398e-02 -9.395134e-02 -9.527844e-02 -9.410895e-02 -9.097434e-02 -8.480607e-02 -7.661197e-02 -6.531939e-02 -5.266989e-02 -3.774917e-02 -2.315406e-02 -8.014444e-03 4.635648e-03 1.596672e-02 2.378998e-02 2.913558e-02 3.217356e-02 3.145453e-02 2.979715e-02 2.293276e-02 1.790867e-02 9.733133e-03 5.874604e-03 1.472980e-04 -1.851037e-03 -3.425791e-03 -1.475500e-03 -1.236284e-03 1.755870e-03 4.880462e-03 9.480692e-03 2.117946e-02 2.630252e-02 2.580198e-02 2.736545e-02 2.764491e-02 2.963571e-02 3.067913e-02 3.203685e-02 3.264528e-02 3.297877e-02 3.289471e-02 3.237900e-02 3.174969e-02 3.066049e-02 2.968679e-02 2.823696e-02 2.706996e-02 2.539092e-02 2.412369e-02 2.228638e-02 2.096976e-02 1.900884e-02 1.766849e-02 1.560111e-02 1.425053e-02 
1.275871e-02 1.118089e-02 9.050482e-03 7.471925e-03 5.290650e-03 3.730515e-03 1.524645e-03 7.292685e-06 -2.188627e-03 -3.634771e-03 -5.779597e-03 -7.123773e-03 -9.171948e-03 -1.038276e-02 -1.228639e-02 -1.333299e-02 -1.504334e-02 -1.589568e-02 -1.736381e-02 -1.799199e-02 -1.916848e-02 -1.954114e-02 -2.037504e-02 -2.045727e-02 -2.089473e-02 -2.064599e-02 -2.062911e-02 -2.000179e-02 -1.946843e-02 -1.840796e-02 -1.729334e-02 -1.574057e-02 -1.398157e-02 -1.187847e-02 -9.421551e-03 -6.720991e-03 -3.534504e-03 -2.148210e-04 3.693792e-03 7.609370e-03 1.217175e-02 1.659154e-02 2.165349e-02 2.639209e-02 3.168905e-02 3.644499e-02 4.158425e-02 4.592828e-02 5.038733e-02 5.377200e-02 5.692508e-02 5.872765e-02 5.991208e-02 5.951979e-02 5.814690e-02 5.508273e-02 5.078194e-02 4.484847e-02 3.760815e-02 2.900218e-02 1.924796e-02 8.585286e-03 -2.862013e-03 -1.464968e-02 -2.674720e-02 -3.861467e-02 -5.032898e-02 -6.131645e-02 -7.178250e-02 -8.109154e-02 -8.959965e-02 -9.649350e-02 -1.023074e-01 -1.058934e-01 -1.080152e-01 -1.070909e-01 -1.042109e-01 -9.748175e-02 -8.846276e-02 -7.543031e-02 -6.048240e-02 -4.281672e-02 -2.477954e-02 -6.979335e-03 8.877002e-03 2.145194e-02 3.058255e-02 3.612905e-02 3.819306e-02 3.804674e-02 3.348263e-02 2.486713e-02 1.961911e-02 1.174200e-02 6.760898e-03 1.302210e-04 -3.074342e-04 -2.247811e-03 -1.028839e-03 -2.336702e-03 -6.375777e-04 2.185638e-04 2.550158e-03 1.967558e-02 2.534354e-02 2.139712e-02 2.353396e-02 2.482831e-02 2.826102e-02 3.042121e-02 3.253798e-02 3.365783e-02 3.424575e-02 3.429786e-02 3.382399e-02 3.315923e-02 3.205281e-02 3.097054e-02 2.950670e-02 2.819725e-02 2.652812e-02 2.509794e-02 2.329834e-02 2.180179e-02 1.990396e-02 1.836724e-02 1.638372e-02 1.482077e-02 
1.482374e-02 1.317079e-02 1.040336e-02 8.748528e-03 5.889869e-03 4.253669e-03 1.344286e-03 -2.466813e-04 -3.155569e-03 -4.670144e-03 -7.519496e-03 -8.924114e-03 -1.165050e-02 -1.291127e-02 -1.545009e-02 -1.653418e-02 -1.882201e-02 -1.969795e-02 -2.167363e-02 -2.231033e-02 -2.391471e-02 -2.427942e-02 -2.545392e-02 -2.550948e-02 -2.619397e-02 -2.589595e-02 -2.602671e-02 -2.532127e-02 -2.482985e-02 -2.365326e-02 -2.246729e-02 -2.074810e-02 -1.879517e-02 -1.646014e-02 -1.367593e-02 -1.066086e-02 -7.002589e-03 -3.268901e-03 1.265133e-03 5.707560e-03 1.105234e-02 1.611670e-02 2.211015e-02 2.760099e-02 3.395262e-02 3.953603e-02 4.580186e-02 5.098665e-02 5.656158e-02 6.070467e-02 6.484786e-02 6.720003e-02 6.910900e-02 6.891478e-02 6.785725e-02 6.451006e-02 6.000240e-02 5.322922e-02 4.521735e-02 3.523121e-02 2.419680e-02 1.173349e-02 -1.352757e-03 -1.516888e-02 -2.906227e-02 -4.298186e-02 -5.645236e-02 -6.935091e-02 -8.138295e-02 -9.235441e-02 -1.021389e-01 -1.103762e-01 -1.170917e-01 -1.216026e-01 -1.240948e-01 -1.234321e-01 -1.200538e-01 -1.124363e-01 -1.015666e-01 -8.590184e-02 -6.754546e-02 -4.535925e-02 -2.322265e-02 -1.298653e-04 1.832422e-02 3.454445e-02 4.350464e-02 4.948256e-02 5.201022e-02 5.013188e-02 4.646851e-02 3.305235e-02 2.353141e-02 1.136241e-02 8.356573e-03 1.981486e-03 -2.014718e-03 -2.643553e-03 1.694448e-03 2.540546e-04 2.616132e-03 1.222667e-03 1.386791e-03 1.722294e-02 1.890079e-02 1.425532e-02 2.088913e-02 2.546132e-02 3.127711e-02 3.493774e-02 3.773604e-02 3.930494e-02 3.991460e-02 4.002514e-02 3.935742e-02 3.863257e-02 3.725638e-02 3.608782e-02 3.431008e-02 3.291501e-02 3.088744e-02 2.937747e-02 2.716769e-02 2.559582e-02 2.323005e-02 2.161985e-02 1.910836e-02 1.747162e-02 
1.534772e-02 1.344909e-02 1.087316e-02 8.953909e-03 6.291938e-03 4.378260e-03 1.665300e-03 -2.092516e-04 -2.926954e-03 -4.723702e-03 -7.391661e-03 -9.069724e-03 -1.162871e-02 -1.314776e-02 -1.553699e-02 -1.685912e-02 -1.901846e-02 -2.010862e-02 -2.197936e-02 -2.280417e-02 -2.432826e-02 -2.485344e-02 -2.597140e-02 -2.615812e-02 -2.680627e-02 -2.660731e-02 -2.671498e-02 -2.607154e-02 -2.555931e-02 -2.439957e-02 -2.317971e-02 -2.142030e-02 -1.940060e-02 -1.695239e-02 -1.404486e-02 -1.082432e-02 -6.960106e-03 -2.907542e-03 1.940810e-03 6.835294e-03 1.262382e-02 1.828695e-02 2.486347e-02 3.110007e-02 3.816430e-02 4.461853e-02 5.168674e-02 5.781337e-02 6.420084e-02 6.926239e-02 7.410301e-02 7.721388e-02 7.953971e-02 7.977834e-02 7.867658e-02 7.527424e-02 7.011638e-02 6.269794e-02 5.339027e-02 4.219030e-02 2.933931e-02 1.527303e-02 1.366859e-04 -1.537316e-02 -3.120124e-02 -4.661091e-02 -6.165774e-02 -7.569894e-02 -8.893364e-02 -1.007709e-01 -1.115823e-01 -1.206141e-01 -1.284406e-01 -1.338095e-01 -1.375626e-01 -1.376068e-01 -1.352053e-01 -1.273959e-01 -1.161835e-01 -9.843891e-02 -7.726148e-02 -5.093073e-02 -2.340597e-02 3.901507e-03 2.798153e-02 4.490524e-02 5.577545e-02 5.992989e-02 5.956485e-02 6.013181e-02 4.708635e-02 2.716977e-02 2.274243e-02 1.698861e-02 9.575709e-03 3.997907e-03 8.498882e-03 6.454080e-03 5.707670e-03 3.493371e-03 2.664556e-03 4.910370e-04 3.879196e-04 -2.943310e-03 -9.005802e-03 -2.940093e-03 1.174686e-02 2.212460e-02 3.042346e-02 3.563304e-02 3.880752e-02 4.063997e-02 4.115871e-02 4.121788e-02 4.043105e-02 3.958880e-02 3.815372e-02 3.685400e-02 3.508256e-02 3.354685e-02 3.158010e-02 2.991475e-02 2.780894e-02 2.606159e-02 2.383320e-02 2.202412e-02 1.967512e-02 1.781531e-02 
1.764512e-02 1.568857e-02 1.237539e-02 1.039241e-02 6.936982e-03 4.956012e-03 1.412177e-03 -5.298902e-04 -4.094000e-03 -5.954638e-03 -9.461247e-03 -1.119588e-02 -1.456287e-02 -1.612822e-02 -1.927395e-02 -2.063028e-02 -2.347699e-02 -2.458855e-02 -2.706373e-02 -2.789727e-02 -2.993284e-02 -3.045424e-02 -3.198378e-02 -3.215347e-02 -3.310827e-02 -3.287622e-02 -3.318103e-02 -3.248237e-02 -3.205212e-02 -3.080467e-02 -2.954342e-02 -2.764845e-02 -2.545227e-02 -2.280011e-02 -1.956547e-02 -1.604765e-02 -1.168721e-02 -7.216718e-03 -1.684061e-03 3.774837e-03 1.045063e-02 1.684288e-02 2.451336e-02 3.164561e-02 3.999331e-02 4.748402e-02 5.597539e-02 6.321367e-02 7.106993e-02 7.720230e-02 8.341206e-02 8.738430e-02 9.078800e-02 9.147226e-02 9.094497e-02 8.736953e-02 8.210198e-02 7.375932e-02 6.357783e-02 5.071338e-02 3.630043e-02 2.001379e-02 2.855616e-03 -1.513001e-02 -3.313760e-02 -5.098397e-02 -6.809472e-02 -8.432878e-02 -9.933386e-02 -1.130256e-01 -1.252415e-01 -1.357920e-01 -1.446582e-01 -1.512411e-01 -1.556223e-01 -1.564283e-01 -1.538394e-01 -1.456666e-01 -1.324752e-01 -1.119696e-01 -8.601239e-02 -5.342520e-02 -1.914233e-02 1.692602e-02 4.489105e-02 6.826122e-02 7.492640e-02 7.841142e-02 7.738951e-02 7.266751e-02 6.745906e-02 3.802839e-02 1.666503e-02 8.398745e-03 1.285971e-02 7.583630e-03 -5.362350e-04 -4.631106e-03 -5.790762e-03 -6.680176e-03 -4.314708e-03 -4.202158e-03 2.165854e-04 -1.293304e-02 -1.299313e-02 4.116831e-03 2.000536e-02 3.204294e-02 3.927707e-02 4.423113e-02 4.646109e-02 4.791388e-02 4.782693e-02 4.762981e-02 4.643699e-02 4.544004e-02 4.367681e-02 4.228240e-02 4.018623e-02 3.858750e-02 3.625642e-02 3.454259e-02 3.200822e-02 3.021663e-02 2.748248e-02 2.562725e-02 2.269074e-02 2.077947e-02 
1.803086e-02 1.580704e-02 1.277367e-02 1.049531e-02 7.323389e-03 5.026927e-03 1.763815e-03 -5.042517e-04 -3.796484e-03 -5.983422e-03 -9.232785e-03 -1.128434e-02 -1.441437e-02 -1.627916e-02 -1.921377e-02 -2.084622e-02 -2.351299e-02 -2.487408e-02 -2.720518e-02 -2.826060e-02 -3.019128e-02 -3.090725e-02 -3.237220e-02 -3.270967e-02 -3.363799e-02 -3.354613e-02 -3.385600e-02 -3.326619e-02 -3.286054e-02 -3.168239e-02 -3.044703e-02 -2.856788e-02 -2.637387e-02 -2.366366e-02 -2.037588e-02 -1.669941e-02 -1.219350e-02 -7.432187e-03 -1.621965e-03 4.293159e-03 1.141620e-02 1.845919e-02 2.677418e-02 3.476787e-02 4.396351e-02 5.251708e-02 6.202931e-02 7.048151e-02 7.944655e-02 8.683587e-02 9.408691e-02 9.918233e-02 1.033301e-01 1.047646e-01 1.044050e-01 1.009464e-01 9.501367e-02 8.596063e-02 7.417072e-02 5.976380e-02 4.296803e-02 2.458321e-02 4.754094e-03 -1.536837e-02 -3.570196e-02 -5.519415e-02 -7.385422e-02 -9.101100e-02 -1.068173e-01 -1.209221e-01 -1.336581e-01 -1.446440e-01 -1.544191e-01 -1.619822e-01 -1.681529e-01 -1.704636e-01 -1.702034e-01 -1.628751e-01 -1.508527e-01 -1.282942e-01 -9.970337e-02 -6.067345e-02 -1.818788e-02 2.574568e-02 6.477892e-02 8.756473e-02 9.939336e-02 9.415596e-02 8.921954e-02 8.944092e-02 5.346989e-02 1.820742e-02 1.774273e-02 2.028272e-03 -2.565017e-02 -3.386811e-02 -2.959202e-02 -2.693530e-02 -1.662913e-02 -1.427845e-02 -8.659968e-03 -8.270425e-03 -3.850489e-03 -4.615378e-03 1.053045e-02 2.723365e-02 3.555462e-02 4.279059e-02 4.570385e-02 4.854561e-02 4.899583e-02 4.962345e-02 4.882954e-02 4.828999e-02 4.684087e-02 4.567525e-02 4.386683e-02 4.235801e-02 4.033074e-02 3.862141e-02 3.643013e-02 3.458608e-02 3.224060e-02 3.028785e-02 2.777849e-02 2.572626e-02 2.304081e-02 2.089604e-02 
2.063410e-02 1.836977e-02 1.448529e-02 1.215402e-02 8.054160e-03 5.696141e-03 1.453141e-03 -8.799916e-04 -5.175188e-03 -7.425028e-03 -1.166993e-02 -1.377702e-02 -1.786561e-02 -1.977478e-02 -2.360476e-02 -2.526872e-02 -2.874649e-02 -3.012661e-02 -3.316899e-02 -3.423304e-02 -3.676559e-02 -3.748248e-02 -3.943475e-02 -3.976730e-02 -4.106598e-02 -4.096270e-02 -4.152413e-02 -4.091146e-02 -4.063489e-02 -3.941153e-02 -3.817499e-02 -3.621007e-02 -3.387088e-02 -3.100803e-02 -2.741037e-02 -2.348021e-02 -1.847239e-02 -1.331603e-02 -6.780221e-03 -2.864196e-04 7.816765e-03 1.565920e-02 2.523029e-02 3.426503e-02 4.499163e-02 5.481686e-02 6.609411e-02 7.598627e-02 8.684998e-02 9.571371e-02 1.048199e-01 1.112056e-01 1.169074e-01 1.191541e-01 1.197366e-01 1.162944e-01 1.104033e-01 1.003384e-01 8.754263e-02 7.108928e-02 5.234684e-02 3.117960e-02 8.825312e-03 -1.432096e-02 -3.729684e-02 -5.963050e-02 -8.067105e-02 -1.002440e-01 -1.179545e-01 -1.339576e-01 -1.480582e-01 -1.604936e-01 -1.712054e-01 -1.800323e-01 -1.869945e-01 -1.906423e-01 -1.908361e-01 -1.843515e-01 -1.708585e-01 -1.465703e-01 -1.117376e-01 -6.530203e-02 -1.093172e-02 4.733663e-02 9.481000e-02 1.319934e-01 1.276773e-01 1.249829e-01 1.228394e-01 6.240687e-02 2.389982e-02 1.351261e-02 -4.405873e-02 -7.110051e-02 -4.575102e-02 -3.570382e-02 -2.018867e-02 -1.302167e-02 -4.955289e-03 -5.844446e-03 -7.117523e-04 -2.824988e-03 8.598353e-04 2.661591e-03 3.103212e-02 5.351817e-02 5.502405e-02 5.833750e-02 5.721237e-02 5.813861e-02 5.696357e-02 5.684186e-02 5.538601e-02 5.456588e-02 5.279100e-02 5.152820e-02 4.948082e-02 4.794659e-02 4.566058e-02 4.395140e-02 4.143095e-02 3.959171e-02 3.682063e-02 3.486689e-02 3.182281e-02 2.975826e-02 2.642556e-02 2.425451e-02 
2.090171e-02 1.834362e-02 1.483475e-02 1.216956e-02 8.446840e-03 5.725992e-03 1.854327e-03 -8.572054e-04 -4.793854e-03 -7.423624e-03 -1.132962e-02 -1.380509e-02 -1.758147e-02 -1.983696e-02 -2.338889e-02 -2.537027e-02 -2.861189e-02 -3.027782e-02 -3.313355e-02 -3.445273e-02 -3.685455e-02 -3.779934e-02 -3.968083e-02 -4.021815e-02 -4.150617e-02 -4.158718e-02 -4.219279e-02 -4.174280e-02 -4.155298e-02 -4.046354e-02 -3.933560e-02 -3.746061e-02 -3.522166e-02 -3.238003e-02 -2.883404e-02 -2.482163e-02 -1.976732e-02 -1.438146e-02 -7.644394e-03 -7.240504e-04 7.793774e-03 1.630936e-02 2.656046e-02 3.655405e-02 4.825758e-02 5.934031e-02 7.188192e-02 8.329487e-02 9.563218e-02 1.061683e-01 1.167782e-01 1.247719e-01 1.317027e-01 1.351607e-01 1.362762e-01 1.332375e-01 1.267329e-01 1.158991e-01 1.010684e-01 8.257920e-02 6.056754e-02 3.650207e-02 1.046696e-02 -1.553095e-02 -4.140263e-02 -6.553759e-02 -8.787079e-02 -1.077655e-01 -1.252680e-01 -1.405689e-01 -1.538646e-01 -1.656511e-01 -1.762744e-01 -1.857705e-01 -1.947506e-01 -2.010453e-01 -2.056227e-01 -2.022265e-01 -1.932175e-01 -1.680861e-01 -1.332401e-01 -7.721010e-02 -1.294593e-02 6.160058e-02 1.297717e-01 1.641279e-01 1.777670e-01 1.535396e-01 7.809893e-02 4.656861e-02 6.920559e-05 -9.406605e-02 -9.863960e-02 -5.093676e-02 -1.850968e-02 -9.413405e-03 9.023094e-04 4.290176e-04 3.862978e-03 1.756590e-03 3.382422e-03 4.523687e-04 2.841959e-03 -7.373692e-03 1.668151e-02 4.756822e-02 5.156354e-02 5.725366e-02 5.622013e-02 5.745659e-02 5.602893e-02 5.591087e-02 5.434647e-02 5.353342e-02 5.179858e-02 5.055319e-02 4.864528e-02 4.711158e-02 4.503168e-02 4.328646e-02 4.102113e-02 3.909817e-02 3.662107e-02 3.453037e-02 3.181164e-02 2.955513e-02 2.657204e-02 2.415567e-02 