# vtk DataFile Version 2.0
Comment goes here
ASCII

DATASET STRUCTURED_POINTS
DIMENSIONS    128   128   1

ORIGIN    0.000   0.000   0.000
SPACING   0.0156250.015625   1.000

POINT_DATA   16384
SCALARS uY double
LOOKUP_TABLE default

2.521992e-05 1.304765e-05 3.215191e-05 1.939515e-05 3.921318e-05 2.595033e-05 4.630563e-05 3.263504e-05 5.333834e-05 3.937879e-05 6.023032e-05 4.612167e-05 6.691462e-05 5.281834e-05 7.334314e-05 5.944203e-05 7.949090e-05 6.598772e-05 8.535908e-05 7.247353e-05 9.097588e-05 7.893974e-05 9.639459e-05 8.544501e-05 1.016888e-04 9.205969e-05 1.069444e-04 9.885649e-05 1.122493e-04 1.058989e-04 1.176809e-04 1.132281e-04 1.232916e-04 1.208490e-04 1.290942e-04 1.287157e-04 1.350472e-04 1.367181e-04 1.410394e-04 1.446690e-04 1.468771e-04 1.522927e-04 1.522725e-04 1.592169e-04 1.568355e-04 1.649690e-04 1.600711e-04 1.689778e-04 1.613858e-04 1.705870e-04 1.601049e-04 1.690795e-04 1.555050e-04 1.637181e-04 1.468628e-04 1.538012e-04 1.335192e-04 1.387322e-04 1.149549e-04 1.180977e-04 9.087329e-05 9.175055e-05 6.128447e-05 5.989365e-05 2.658921e-05 2.316186e-05 -1.234141e-05 -1.730433e-05 -5.410197e-05 -5.981266e-05 -9.672949e-05 -1.021320e-04 -1.377567e-04 -1.415988e-04 -1.743716e-04 -1.753334e-04 -2.036862e-04 -2.005525e-04 -2.230892e-04 -2.149388e-04 -2.306370e-04 -2.170279e-04 -2.254478e-04 -2.065831e-04 -2.080566e-04 -1.849096e-04 -1.806445e-04 -1.549716e-04 -1.469438e-04 -1.210612e-04 -1.115901e-04 -8.785477e-05 -7.896764e-05 -5.914729e-05 -5.208425e-05 -3.700895e-05 -3.208412e-05 -2.178174e-05 -1.863951e-05 -1.267262e-05 -1.070838e-05 -8.453614e-06 -7.059830e-06 -7.843646e-06 -6.439033e-06 -9.561456e-06 -7.555430e-06 -1.233069e-05 -9.178373e-06 -1.504562e-05 -1.034785e-05 -1.694444e-05 -1.048593e-05 -1.763860e-05 -9.359615e-06 -1.702812e-05 -6.971130e-06 -1.518632e-05 -3.448395e-06 -1.226537e-05 1.033002e-06 -8.436673e-06 6.294024e-06 -3.860990e-06 1.217141e-05 1.321818e-06 1.852198e-05 6.992457e-06 
7.333610e-03 7.098028e-03 6.570756e-03 6.294815e-03 5.733206e-03 5.429861e-03 4.847153e-03 4.529195e-03 3.939709e-03 3.620057e-03 3.039301e-03 2.731222e-03 2.175855e-03 1.893082e-03 1.380738e-03 1.137502e-03 6.865427e-04 4.975548e-04 1.267827e-04 7.193261e-06 -2.644256e-04 -2.990843e-04 -4.527086e-04 -3.866377e-04 -4.039017e-04 -2.212997e-04 -8.483871e-05 2.295529e-04 5.352549e-04 9.951626e-04 1.482445e-03 2.098482e-03 2.774568e-03 3.551958e-03 4.416357e-03 5.351971e-03 6.393285e-03 7.472153e-03 8.664559e-03 9.856221e-03 1.115610e-02 1.241141e-02 1.375483e-02 1.500406e-02 1.630605e-02 1.745933e-02 1.861595e-02 1.956703e-02 2.046108e-02 2.109510e-02 2.160584e-02 2.181103e-02 2.182724e-02 2.150924e-02 2.094367e-02 2.003975e-02 1.884181e-02 1.733141e-02 1.549446e-02 1.340272e-02 1.096357e-02 8.356937e-03 5.388213e-03 2.364405e-03 -1.036099e-03 -4.357797e-03 -8.074034e-03 -1.155582e-02 -1.545073e-02 -1.892884e-02 -2.282997e-02 -2.609874e-02 -2.977688e-02 -3.257348e-02 -3.572701e-02 -3.773319e-02 -3.999785e-02 -4.087756e-02 -4.188094e-02 -4.136414e-02 -4.082965e-02 -3.882989e-02 -3.670558e-02 -3.342865e-02 -2.998537e-02 -2.596706e-02 -2.180053e-02 -1.782080e-02 -1.371442e-02 -1.057222e-02 -7.221719e-03 -5.415205e-03 -3.110893e-03 -2.595393e-03 -1.124106e-03 -1.422022e-03 -3.191637e-04 -8.883938e-04 2.614413e-04 -1.566398e-04 1.164521e-03 1.111697e-03 2.482645e-03 2.786980e-03 3.986981e-03 4.475799e-03 5.347754e-03 5.870921e-03 6.437174e-03 6.948780e-03 7.306905e-03 7.794492e-03 8.016756e-03 8.458162e-03 8.574010e-03 8.940830e-03 8.956279e-03 9.226903e-03 9.142511e-03 9.307732e-03 9.126493e-03 9.188211e-03 8.916872e-03 8.884237e-03 8.532191e-03 8.417976e-03 7.995988e-03 7.814149e-03 
1.420378e-02 1.370893e-02 1.284687e-02 1.226932e-02 1.134713e-02 1.071343e-02 9.753447e-03 9.089865e-03 8.116282e-03 7.449396e-03 6.488689e-03 5.845778e-03 4.926883e-03 4.336145e-03 3.490332e-03 2.980922e-03 2.241487e-03 1.843450e-03 1.245287e-03 9.894590e-04 5.685793e-04 4.864546e-04 2.794337e-04 4.029186e-04 4.461510e-04 8.070252e-04 1.135574e-03 1.764384e-03 2.410139e-03 3.334201e-03 4.323039e-03 5.563250e-03 6.910955e-03 8.477214e-03 1.018406e-02 1.206932e-02 1.411352e-02 1.628677e-02 1.861731e-02 2.101632e-02 2.354611e-02 2.607108e-02 2.867206e-02 3.118190e-02 3.368374e-02 3.599711e-02 3.819177e-02 4.009476e-02 4.174850e-02 4.301060e-02 4.388421e-02 4.428209e-02 4.415792e-02 4.350476e-02 4.221647e-02 4.039100e-02 3.784910e-02 3.481699e-02 3.102235e-02 2.684255e-02 2.188258e-02 1.669606e-02 1.072446e-02 4.730314e-03 -2.059628e-03 -8.628215e-03 -1.602112e-02 -2.290551e-02 -3.065750e-02 -3.755705e-02 -4.536001e-02 -5.189333e-02 -5.931985e-02 -6.498408e-02 -7.144171e-02 -7.560668e-02 -8.034593e-02 -8.232504e-02 -8.454629e-02 -8.376633e-02 -8.284096e-02 -7.908230e-02 -7.484110e-02 -6.845624e-02 -6.142732e-02 -5.341603e-02 -4.485784e-02 -3.671654e-02 -2.832296e-02 -2.166194e-02 -1.492381e-02 -1.088600e-02 -6.377605e-03 -5.061722e-03 -2.338591e-03 -2.866660e-03 -9.169668e-04 -2.094433e-03 -5.191575e-05 -9.386098e-04 1.473508e-03 1.345741e-03 3.909069e-03 4.518254e-03 6.799171e-03 7.766708e-03 9.420656e-03 1.044379e-02 1.152447e-02 1.253102e-02 1.323942e-02 1.420983e-02 1.468256e-02 1.556680e-02 1.585274e-02 1.658777e-02 1.669322e-02 1.723254e-02 1.715677e-02 1.748094e-02 1.722989e-02 1.734275e-02 1.693008e-02 1.685027e-02 1.629444e-02 1.604795e-02 1.536931e-02 1.498450e-02 
2.185601e-02 2.118724e-02 1.958046e-02 1.878984e-02 1.707541e-02 1.620147e-02 1.441934e-02 1.350006e-02 1.169351e-02 1.076721e-02 8.983198e-03 8.089215e-03 6.378196e-03 5.557228e-03 3.972596e-03 3.266767e-03 1.864060e-03 1.316864e-03 1.528873e-04 -1.909210e-04 -1.058924e-03 -1.153447e-03 -1.668604e-03 -1.467043e-03 -1.573806e-03 -1.029110e-03 -6.746891e-04 2.589821e-04 1.122234e-03 2.486732e-03 3.897487e-03 5.726082e-03 7.708333e-03 1.001898e-02 1.257424e-02 1.536064e-02 1.845829e-02 2.167923e-02 2.524561e-02 2.881362e-02 3.272143e-02 3.649254e-02 4.055261e-02 4.431987e-02 4.827812e-02 5.177199e-02 5.531484e-02 5.821378e-02 6.098491e-02 6.293860e-02 6.456832e-02 6.523357e-02 6.537950e-02 6.446518e-02 6.285799e-02 6.017058e-02 5.665497e-02 5.213280e-02 4.669131e-02 4.041610e-02 3.316726e-02 2.534865e-02 1.652025e-02 7.460817e-03 -2.647890e-03 -1.258781e-02 -2.363264e-02 -3.404814e-02 -4.563467e-02 -5.605387e-02 -6.769239e-02 -7.752281e-02 -8.855556e-02 -9.702633e-02 -1.065650e-01 -1.127163e-01 -1.196529e-01 -1.224369e-01 -1.255983e-01 -1.241344e-01 -1.226054e-01 -1.165594e-01 -1.101069e-01 -1.000601e-01 -8.947474e-02 -7.707464e-02 -6.420949e-02 -5.192472e-02 -3.928931e-02 -2.971130e-02 -1.959181e-02 -1.436379e-02 -7.679884e-03 -6.563890e-03 -2.485051e-03 -3.782953e-03 -7.397598e-04 -2.766008e-03 6.222993e-04 -8.520926e-04 3.170544e-03 2.902768e-03 7.081530e-03 8.000728e-03 1.159457e-02 1.308590e-02 1.558389e-02 1.715861e-02 1.873725e-02 2.030424e-02 2.131934e-02 2.284737e-02 2.350462e-02 2.490523e-02 2.526377e-02 2.643470e-02 2.649389e-02 2.736520e-02 2.711958e-02 2.766532e-02 2.712263e-02 2.735187e-02 2.653287e-02 2.647585e-02 2.540936e-02 2.510608e-02 2.382476e-02 2.331783e-02 
2.815193e-02 2.719994e-02 2.548606e-02 2.436541e-02 2.252484e-02 2.128822e-02 1.936536e-02 1.806484e-02 1.610793e-02 1.479617e-02 1.285817e-02 1.158926e-02 9.728150e-03 8.558000e-03 6.836478e-03 5.822839e-03 4.307639e-03 3.509963e-03 2.270971e-03 1.750226e-03 8.595586e-04 6.780573e-04 2.090624e-04 4.301540e-04 4.561220e-04 1.143379e-03 1.735514e-03 2.950843e-03 4.174886e-03 5.974864e-03 7.885697e-03 1.031547e-02 1.294914e-02 1.603338e-02 1.939627e-02 2.312718e-02 2.718263e-02 3.150550e-02 3.615877e-02 4.095654e-02 4.604020e-02 5.111953e-02 5.638205e-02 6.146422e-02 6.656579e-02 7.128695e-02 7.580693e-02 7.973221e-02 8.319235e-02 8.584732e-02 8.775293e-02 8.867307e-02 8.857012e-02 8.736357e-02 8.490357e-02 8.131547e-02 7.631304e-02 7.027415e-02 6.273877e-02 5.438074e-02 4.450804e-02 3.413673e-02 2.225985e-02 1.029648e-02 -3.181501e-03 -1.626220e-02 -3.091719e-02 -4.461459e-02 -5.999590e-02 -7.375086e-02 -8.930505e-02 -1.024093e-01 -1.173501e-01 -1.288377e-01 -1.420191e-01 -1.506198e-01 -1.605112e-01 -1.647686e-01 -1.696444e-01 -1.682678e-01 -1.666717e-01 -1.590754e-01 -1.504771e-01 -1.372998e-01 -1.226868e-01 -1.059919e-01 -8.803540e-02 -7.100518e-02 -5.349401e-02 -3.967011e-02 -2.604887e-02 -1.809566e-02 -9.511570e-03 -7.576959e-03 -2.829566e-03 -4.727627e-03 -1.353246e-03 -4.392543e-03 -4.410297e-04 -2.679591e-03 2.233767e-03 1.753893e-03 6.986317e-03 8.223531e-03 1.278848e-02 1.475648e-02 1.782704e-02 1.985831e-02 2.179448e-02 2.385887e-02 2.518617e-02 2.724695e-02 2.820364e-02 3.010880e-02 3.073147e-02 3.232050e-02 3.258683e-02 3.375846e-02 3.365529e-02 3.437538e-02 3.391333e-02 3.419680e-02 3.340459e-02 3.329438e-02 3.221001e-02 3.176137e-02 3.042594e-02 2.969714e-02 
3.605486e-02 3.499184e-02 3.234374e-02 3.107204e-02 2.823370e-02 2.681683e-02 2.385446e-02 2.235490e-02 1.934061e-02 1.782148e-02 1.483375e-02 1.335990e-02 1.048320e-02 9.121748e-03 6.445451e-03 5.265813e-03 2.882755e-03 1.956487e-03 -3.856971e-05 -6.379207e-04 -2.149631e-03 -2.346583e-03 -3.280173e-03 -2.997426e-03 -3.259938e-03 -2.419014e-03 -1.921219e-03 -4.443605e-04 8.958226e-04 3.081588e-03 5.333235e-03 8.288923e-03 1.149897e-02 1.526266e-02 1.944299e-02 2.401485e-02 2.912577e-02 3.444954e-02 4.038071e-02 4.632344e-02 5.287445e-02 5.920731e-02 6.607151e-02 7.245611e-02 7.921267e-02 8.519859e-02 9.131864e-02 9.635853e-02 1.012312e-01 1.047187e-01 1.077012e-01 1.090334e-01 1.095228e-01 1.081824e-01 1.057013e-01 1.013427e-01 9.561799e-02 8.813517e-02 7.914591e-02 6.869555e-02 5.666937e-02 4.363828e-02 2.899414e-02 1.392308e-02 -2.812972e-03 -1.930948e-02 -3.756924e-02 -5.483968e-02 -7.401515e-02 -9.133446e-02 -1.106980e-01 -1.271604e-01 -1.457169e-01 -1.600997e-01 -1.764293e-01 -1.871199e-01 -1.993300e-01 -2.044477e-01 -2.103889e-01 -2.082170e-01 -2.060585e-01 -1.957677e-01 -1.848354e-01 -1.672572e-01 -1.487790e-01 -1.267938e-01 -1.040741e-01 -8.223679e-02 -6.001044e-02 -4.334499e-02 -2.620393e-02 -1.808430e-02 -7.775001e-03 -7.380312e-03 -1.695188e-03 -5.041603e-03 -8.486633e-04 -5.166394e-03 4.102055e-04 -2.766918e-03 4.218151e-03 3.344990e-03 1.052480e-02 1.206999e-02 1.800811e-02 2.055955e-02 2.424443e-02 2.685396e-02 2.909297e-02 3.181546e-02 3.337995e-02 3.614296e-02 3.728004e-02 3.984161e-02 4.053909e-02 4.267792e-02 4.288005e-02 4.447294e-02 4.415484e-02 4.516991e-02 4.434374e-02 4.480916e-02 4.351183e-02 4.348719e-02 4.176819e-02 4.132522e-02 3.923923e-02 3.845115e-02 
4.165560e-02 4.029646e-02 3.778890e-02 3.616826e-02 3.345647e-02 3.165227e-02 2.880164e-02 2.689081e-02 2.397286e-02 2.203333e-02 1.912709e-02 1.723903e-02 1.443129e-02 1.267760e-02 1.006238e-02 8.528628e-03 6.205923e-03 4.980037e-03 3.054470e-03 2.226470e-03 8.059478e-04 4.679081e-04 -3.375918e-04 -9.157343e-05 -1.714373e-04 7.541947e-04 1.508870e-03 3.209105e-03 4.901250e-03 7.465872e-03 1.018511e-02 1.369026e-02 1.750146e-02 2.199646e-02 2.692360e-02 3.241272e-02 3.841812e-02 4.483791e-02 5.179822e-02 5.899229e-02 6.667388e-02 7.436871e-02 8.240690e-02 9.019398e-02 9.808223e-02 1.054136e-01 1.125103e-01 1.187156e-01 1.242759e-01 1.286084e-01 1.318472e-01 1.335615e-01 1.337468e-01 1.322040e-01 1.287682e-01 1.235493e-01 1.161945e-01 1.071916e-01 9.595173e-02 8.339917e-02 6.862694e-02 5.305194e-02 3.532370e-02 1.742784e-02 -2.596915e-03 -2.206992e-02 -4.376166e-02 -6.409731e-02 -8.686950e-02 -1.073377e-01 -1.305244e-01 -1.502125e-01 -1.728265e-01 -1.904066e-01 -2.108573e-01 -2.244193e-01 -2.403588e-01 -2.475134e-01 -2.560411e-01 -2.544679e-01 -2.528644e-01 -2.412828e-01 -2.282023e-01 -2.073961e-01 -1.840820e-01 -1.573304e-01 -1.281493e-01 -1.006601e-01 -7.239828e-02 -5.021666e-02 -2.953598e-02 -1.790238e-02 -6.244448e-03 -5.215601e-03 3.078822e-05 -4.906153e-03 -1.127558e-03 -7.286245e-03 -1.458351e-03 -6.009382e-03 1.705237e-03 2.810406e-04 8.319670e-03 1.023013e-02 1.704761e-02 2.006672e-02 2.387581e-02 2.687528e-02 2.922472e-02 3.253647e-02 3.441291e-02 3.787544e-02 3.942268e-02 4.263884e-02 4.374160e-02 4.640376e-02 4.696227e-02 4.892102e-02 4.890350e-02 5.013104e-02 4.955757e-02 5.009774e-02 4.901649e-02 4.894757e-02 4.741799e-02 4.683012e-02 4.491398e-02 4.389750e-02 
4.974150e-02 4.834747e-02 4.472079e-02 4.302365e-02 3.910924e-02 3.719604e-02 3.308551e-02 3.104188e-02 2.683581e-02 2.474848e-02 2.055696e-02 1.851525e-02 1.445710e-02 1.255359e-02 8.754556e-03 7.084873e-03 3.675252e-03 2.337736e-03 -5.499151e-04 -1.454444e-03 -3.687153e-03 -4.055203e-03 -5.500824e-03 -5.225811e-03 -5.754037e-03 -4.726266e-03 -4.210274e-03 -2.318427e-03 -6.384417e-04 2.225982e-03 5.175681e-03 9.109439e-03 1.340863e-02 1.848203e-02 2.416680e-02 3.040259e-02 3.744152e-02 4.478772e-02 5.305328e-02 6.135206e-02 7.058989e-02 7.954617e-02 8.934733e-02 9.850347e-02 1.082868e-01 1.170119e-01 1.260256e-01 1.335304e-01 1.408839e-01 1.462703e-01 1.510042e-01 1.533580e-01 1.545545e-01 1.530753e-01 1.499971e-01 1.441443e-01 1.363725e-01 1.259865e-01 1.135096e-01 9.885837e-02 8.206875e-02 6.378742e-02 4.337243e-02 2.231337e-02 -9.137214e-04 -2.384575e-02 -4.908638e-02 -7.302114e-02 -9.952160e-02 -1.235762e-01 -1.505124e-01 -1.736091e-01 -1.998316e-01 -2.204263e-01 -2.441278e-01 -2.599776e-01 -2.784626e-01 -2.866724e-01 -2.965346e-01 -2.941488e-01 -2.921243e-01 -2.773331e-01 -2.617820e-01 -2.353940e-01 -2.077932e-01 -1.741306e-01 -1.395417e-01 -1.059091e-01 -7.209215e-02 -4.708028e-02 -2.254574e-02 -1.282617e-02 -6.631017e-04 -3.838676e-03 1.823400e-03 -4.755708e-03 -8.692717e-04 -8.585882e-03 -3.639202e-04 -6.443831e-03 4.194248e-03 1.663547e-03 1.200633e-02 1.414323e-02 2.213494e-02 2.585230e-02 2.961191e-02 3.327887e-02 3.566512e-02 3.991272e-02 4.204701e-02 4.650696e-02 4.831445e-02 5.240958e-02 5.363913e-02 5.700278e-02 5.750854e-02 5.999588e-02 5.973968e-02 6.134756e-02 6.035608e-02 6.115501e-02 5.948678e-02 5.957831e-02 5.730495e-02 5.679819e-02 5.399554e-02 5.299603e-02 
5.452990e-02 5.283627e-02 4.962146e-02 4.756500e-02 4.405295e-02 4.173492e-02 3.801010e-02 3.553058e-02 3.168648e-02 2.914716e-02 2.528806e-02 2.279393e-02 1.903506e-02 1.669486e-02 1.316128e-02 1.108715e-02 7.911865e-03 6.218664e-03 3.540484e-03 2.345437e-03 3.073336e-04 -2.697030e-04 -1.521778e-03 -1.357578e-03 -1.675668e-03 -6.431577e-04 1.209128e-04 2.151533e-03 4.142061e-03 7.298839e-03 1.064803e-02 1.504751e-02 1.986140e-02 2.559198e-02 3.192921e-02 3.902666e-02 4.686995e-02 5.528552e-02 6.450693e-02 7.407006e-02 8.439348e-02 9.477358e-02 1.057399e-01 1.164143e-01 1.273582e-01 1.375960e-01 1.476451e-01 1.565211e-01 1.646314e-01 1.710820e-01 1.761216e-01 1.790540e-01 1.799399e-01 1.783929e-01 1.742692e-01 1.676008e-01 1.580206e-01 1.460707e-01 1.311164e-01 1.142752e-01 9.454760e-02 7.367247e-02 5.011940e-02 2.631247e-02 -4.589978e-05 -2.570332e-02 -5.401355e-02 -8.062374e-02 -1.102643e-01 -1.370674e-01 -1.674785e-01 -1.935787e-01 -2.238646e-01 -2.477856e-01 -2.761641e-01 -2.954187e-01 -3.187599e-01 -3.297967e-01 -3.436808e-01 -3.426197e-01 -3.423279e-01 -3.265917e-01 -3.090890e-01 -2.793818e-01 -2.456755e-01 -2.069109e-01 -1.634004e-01 -1.232666e-01 -8.127160e-02 -4.853437e-02 -2.130801e-02 -6.504801e-03 6.494524e-03 3.921678e-03 7.072732e-03 -3.247600e-03 -4.258619e-04 -1.110863e-02 -2.641681e-03 -1.113971e-02 1.554760e-04 -3.749896e-03 6.774628e-03 9.323982e-03 1.813816e-02 2.221850e-02 2.510793e-02 2.919218e-02 3.155773e-02 3.679645e-02 3.946601e-02 4.500131e-02 4.745106e-02 5.244093e-02 5.426185e-02 5.828406e-02 5.931091e-02 6.223914e-02 6.245157e-02 6.431555e-02 6.376116e-02 6.466189e-02 6.341524e-02 6.347960e-02 6.162249e-02 6.098060e-02 5.859369e-02 5.736893e-02 
6.276283e-02 6.112362e-02 5.660478e-02 5.455975e-02 4.963601e-02 4.729308e-02 4.207990e-02 3.954545e-02 3.417118e-02 3.155352e-02 2.615988e-02 2.357120e-02 1.831183e-02 1.586865e-02 1.090620e-02 8.728808e-03 4.231278e-03 2.442846e-03 -1.419784e-03 -2.693574e-03 -5.751725e-03 -6.382097e-03 -8.467612e-03 -8.321198e-03 -9.267412e-03 -8.204647e-03 -7.846670e-03 -5.721619e-03 -3.898689e-03 -5.624340e-04 2.875337e-03 7.565363e-03 1.274355e-02 1.890611e-02 2.590398e-02 3.360707e-02 4.242628e-02 5.165046e-02 6.217533e-02 7.276934e-02 8.472168e-02 9.635454e-02 1.092491e-01 1.213666e-01 1.344764e-01 1.462739e-01 1.586189e-01 1.690458e-01 1.794218e-01 1.872376e-01 1.943035e-01 1.982006e-01 2.006336e-01 1.994312e-01 1.961430e-01 1.890248e-01 1.793943e-01 1.661245e-01 1.501662e-01 1.311862e-01 1.095573e-01 8.588407e-02 5.968879e-02 3.263019e-02 3.093422e-03 -2.607558e-02 -5.788879e-02 -8.810574e-02 -1.213766e-01 -1.517375e-01 -1.857509e-01 -2.152355e-01 -2.490012e-01 -2.759992e-01 -3.076394e-01 -3.294042e-01 -3.555210e-01 -3.679470e-01 -3.835288e-01 -3.818094e-01 -3.813149e-01 -3.617981e-01 -3.416411e-01 -3.045545e-01 -2.661215e-01 -2.176677e-01 -1.683428e-01 -1.196393e-01 -7.096655e-02 -3.537971e-02 -3.226047e-03 4.965550e-03 1.480739e-02 1.985527e-03 6.460378e-03 -2.107323e-03 -1.259505e-03 -1.322251e-02 1.619054e-04 -1.099135e-02 4.829287e-03 -2.221912e-03 1.073290e-02 1.286772e-02 2.132999e-02 2.640775e-02 2.796067e-02 3.332004e-02 3.588375e-02 4.283091e-02 4.610461e-02 5.312730e-02 5.603175e-02 6.215447e-02 6.417843e-02 6.903729e-02 7.002698e-02 7.357246e-02 7.352823e-02 7.584819e-02 7.483170e-02 7.606705e-02 7.416307e-02 7.446817e-02 7.176872e-02 7.129292e-02 6.789145e-02 6.677189e-02 
6.662723e-02 6.469275e-02 6.088528e-02 5.847832e-02 5.426164e-02 5.150344e-02 4.697813e-02 4.398891e-02 3.926828e-02 3.617106e-02 3.138334e-02 2.830599e-02 2.359414e-02 2.066957e-02 1.618938e-02 1.355452e-02 9.471515e-03 7.265951e-03 3.752281e-03 2.117621e-03 -6.500885e-04 -1.569514e-03 -3.410979e-03 -3.466015e-03 -4.197047e-03 -3.231116e-03 -2.663624e-03 -5.114578e-04 1.544179e-03 5.053924e-03 8.781400e-03 1.381673e-02 1.937849e-02 2.608517e-02 3.359693e-02 4.206819e-02 5.156230e-02 6.179684e-02 7.317521e-02 8.502525e-02 9.800518e-02 1.111194e-01 1.251789e-01 1.389486e-01 1.532816e-01 1.668032e-01 1.803010e-01 1.923742e-01 2.036526e-01 2.128369e-01 2.203353e-01 2.250894e-01 2.272572e-01 2.261717e-01 2.217420e-01 2.138410e-01 2.021405e-01 1.871751e-01 1.683611e-01 1.469592e-01 1.220371e-01 9.558272e-02 6.611221e-02 3.633799e-02 3.910351e-03 -2.761736e-02 -6.185613e-02 -9.407561e-02 -1.295883e-01 -1.619120e-01 -1.985577e-01 -2.304640e-01 -2.679194e-01 -2.981896e-01 -3.349929e-01 -3.607763e-01 -3.932593e-01 -4.095770e-01 -4.314483e-01 -4.320169e-01 -4.354554e-01 -4.152977e-01 -3.939777e-01 -3.533090e-01 -3.068943e-01 -2.536897e-01 -1.909158e-01 -1.366583e-01 -7.525540e-02 -2.808091e-02 7.894180e-04 1.700490e-02 3.019133e-02 2.085839e-02 1.734945e-02 -1.029709e-03 7.926987e-04 -1.467263e-02 -6.421843e-04 -1.584913e-02 6.645003e-04 -9.472877e-03 1.320150e-03 3.040949e-03 1.140991e-02 1.640547e-02 1.562581e-02 2.256910e-02 2.608736e-02 3.517689e-02 3.966059e-02 4.831595e-02 5.216018e-02 5.939933e-02 6.216964e-02 6.777434e-02 6.941886e-02 7.344609e-02 7.402473e-02 7.662687e-02 7.623263e-02 7.759081e-02 7.632468e-02 7.662068e-02 7.458194e-02 7.398567e-02 7.126838e-02 6.993368e-02 
7.500725e-02 7.323006e-02 6.792873e-02 6.563600e-02 5.978905e-02 5.710511e-02 5.084941e-02 4.789754e-02 4.138797e-02 3.829497e-02 3.170472e-02 2.860314e-02 2.212126e-02 1.914955e-02 1.297641e-02 1.027739e-02 4.619050e-03 2.338125e-03 -2.598610e-03 -4.314388e-03 -8.325130e-03 -9.325984e-03 -1.220931e-02 -1.233959e-02 -1.389527e-02 -1.298906e-02 -1.301553e-02 -1.089311e-02 -9.186648e-03 -5.654749e-03 -2.013902e-03 3.126631e-03 8.887979e-03 1.582370e-02 2.385141e-02 3.272433e-02 4.308542e-02 5.394641e-02 6.657686e-02 7.932566e-02 9.396732e-02 1.082832e-01 1.244161e-01 1.396879e-01 1.564686e-01 1.717379e-01 1.879619e-01 2.019026e-01 2.160153e-01 2.269792e-01 2.371682e-01 2.433340e-01 2.477327e-01 2.473794e-01 2.443912e-01 2.362794e-01 2.249696e-01 2.087305e-01 1.891507e-01 1.654979e-01 1.387421e-01 1.093158e-01 7.717702e-02 4.400801e-02 8.354220e-03 -2.676352e-02 -6.451764e-02 -1.003527e-01 -1.393978e-01 -1.751950e-01 -2.151693e-01 -2.502889e-01 -2.908301e-01 -3.240375e-01 -3.638095e-01 -3.921934e-01 -4.274905e-01 -4.456110e-01 -4.695199e-01 -4.698969e-01 -4.733183e-01 -4.489774e-01 -4.244676e-01 -3.737204e-01 -3.218879e-01 -2.538956e-01 -1.863619e-01 -1.191101e-01 -5.087976e-02 -7.306177e-04 3.804240e-02 3.536009e-02 3.185147e-02 -1.571057e-03 5.081305e-03 6.623660e-03 1.636095e-03 -1.761626e-02 8.909710e-03 -9.930899e-03 1.191632e-02 -5.469377e-03 9.922945e-03 6.207674e-03 2.524756e-03 1.048652e-02 1.078990e-02 2.239710e-02 2.817238e-02 4.032852e-02 4.604098e-02 5.654523e-02 6.094679e-02 6.938585e-02 7.234509e-02 7.880030e-02 8.038090e-02 8.504937e-02 8.534248e-02 8.844586e-02 8.754897e-02 8.930665e-02 8.732082e-02 8.793795e-02 8.496564e-02 8.462726e-02 8.077152e-02 7.964128e-02 
7.783883e-02 7.577744e-02 7.152064e-02 6.887102e-02 6.407196e-02 6.096994e-02 5.574082e-02 5.232213e-02 4.679279e-02 4.319806e-02 3.751851e-02 3.389563e-02 2.823558e-02 2.473935e-02 1.928485e-02 1.607473e-02 1.102334e-02 8.260819e-03 3.816822e-03 1.663941e-03 -1.964653e-03 -3.344141e-03 -5.945872e-03 -6.382447e-03 -7.740055e-03 -7.052376e-03 -6.939412e-03 -4.928651e-03 -3.107964e-03 4.438728e-04 4.215849e-03 9.539325e-03 1.549823e-02 2.281738e-02 3.116277e-02 4.066012e-02 5.151105e-02 6.327528e-02 7.660949e-02 9.056646e-02 1.061459e-01 1.219775e-01 1.392666e-01 1.563263e-01 1.744151e-01 1.916543e-01 2.092051e-01 2.251374e-01 2.403847e-01 2.531216e-01 2.639676e-01 2.713758e-01 2.756252e-01 2.756442e-01 2.714072e-01 2.625249e-01 2.487398e-01 2.305212e-01 2.074282e-01 1.808545e-01 1.501204e-01 1.174440e-01 8.167866e-02 4.568790e-02 7.449782e-03 -2.952228e-02 -6.864962e-02 -1.053773e-01 -1.450683e-01 -1.814027e-01 -2.223189e-01 -2.586398e-01 -3.017370e-01 -3.377944e-01 -3.828592e-01 -4.159512e-01 -4.594451e-01 -4.829120e-01 -5.165138e-01 -5.203801e-01 -5.317774e-01 -5.065614e-01 -4.832832e-01 -4.272514e-01 -3.648842e-01 -2.930604e-01 -2.028924e-01 -1.394320e-01 -4.442241e-02 2.445609e-02 2.844131e-02 3.081030e-02 5.437402e-02 6.161353e-02 2.596480e-02 -1.779779e-02 1.822223e-02 -8.328824e-03 1.052629e-02 -6.557101e-03 7.512863e-03 -1.048623e-02 5.919081e-03 -9.776437e-03 -3.527740e-02 -2.457387e-02 -1.417529e-02 4.374472e-03 1.449654e-02 2.997830e-02 3.731675e-02 4.951925e-02 5.478520e-02 6.424687e-02 6.791091e-02 7.504248e-02 7.732800e-02 8.244613e-02 8.348626e-02 8.686489e-02 8.677019e-02 8.865791e-02 8.753426e-02 8.815635e-02 8.610613e-02 8.566345e-02 8.278414e-02 8.145369e-02 
8.640359e-02 8.461727e-02 7.866665e-02 7.625137e-02 6.958813e-02 6.667795e-02 5.945670e-02 5.618598e-02 4.858603e-02 4.509534e-02 3.732085e-02 3.375963e-02 2.603581e-02 2.256177e-02 1.512791e-02 1.190393e-02 5.004978e-03 2.195486e-03 -3.925618e-03 -6.156757e-03 -1.126354e-02 -1.275176e-02 -1.661420e-02 -1.718886e-02 -1.957883e-02 -1.905468e-02 -1.973868e-02 -1.790662e-02 -1.663924e-02 -1.326066e-02 -9.783616e-03 -4.593368e-03 1.354641e-03 8.631496e-03 1.728922e-02 2.690234e-02 3.844122e-02 5.055897e-02 6.501782e-02 7.965007e-02 9.685105e-02 1.137538e-01 1.332049e-01 1.517742e-01 1.725695e-01 1.917394e-01 2.124755e-01 2.306477e-01 2.493912e-01 2.644411e-01 2.787983e-01 2.882246e-01 2.955817e-01 2.968694e-01 2.948563e-01 2.860735e-01 2.732197e-01 2.537266e-01 2.301004e-01 2.010295e-01 1.684496e-01 1.325028e-01 9.394688e-02 5.436587e-02 1.274493e-02 -2.792836e-02 -7.074321e-02 -1.111728e-01 -1.544409e-01 -1.941995e-01 -2.380939e-01 -2.772892e-01 -3.226560e-01 -3.611118e-01 -4.082231e-01 -4.435561e-01 -4.893662e-01 -5.148611e-01 -5.505945e-01 -5.552067e-01 -5.665640e-01 -5.377798e-01 -5.095564e-01 -4.399080e-01 -3.691883e-01 -2.713653e-01 -1.804851e-01 -9.407890e-02 -3.226319e-03 6.759017e-02 1.201548e-01 4.828927e-02 -2.054918e-02 -3.012464e-02 3.106401e-02 7.581489e-03 5.454103e-03 -2.422990e-03 7.881034e-03 -1.040288e-02 7.932056e-03 -6.659327e-03 9.445391e-03 -1.001476e-02 -3.234583e-02 -2.624855e-02 -9.871158e-03 1.060629e-02 2.196622e-02 3.880383e-02 4.630800e-02 5.949584e-02 6.479267e-02 7.505826e-02 7.869956e-02 8.651514e-02 8.866084e-02 9.436932e-02 9.509206e-02 9.898487e-02 9.835579e-02 1.006954e-01 9.879885e-02 9.982106e-02 9.675178e-02 9.666465e-02 9.252383e-02 9.150821e-02 
8.808873e-02 8.603570e-02 8.150356e-02 7.874481e-02 7.351579e-02 7.019392e-02 6.438534e-02 6.064470e-02 5.439777e-02 5.039101e-02 4.387427e-02 3.976523e-02 3.317354e-02 2.913599e-02 2.268531e-02 1.889877e-02 1.281846e-02 9.463028e-03 3.988243e-03 1.241462e-03 -3.391542e-03 -5.353595e-03 -8.907317e-03 -9.903519e-03 -1.213387e-02 -1.196698e-02 -1.261450e-02 -1.105854e-02 -9.840118e-03 -6.631040e-03 -3.237617e-03 1.926468e-03 7.819905e-03 1.526267e-02 2.396887e-02 3.399839e-02 4.576705e-02 5.861379e-02 7.355645e-02 8.928589e-02 1.072780e-01 1.256811e-01 1.462470e-01 1.667150e-01 1.889060e-01 2.103057e-01 2.325913e-01 2.531653e-01 2.733741e-01 2.907193e-01 3.060908e-01 3.172946e-01 3.247362e-01 3.267732e-01 3.234151e-01 3.138704e-01 2.979309e-01 2.759488e-01 2.476803e-01 2.147314e-01 1.768663e-01 1.366629e-01 9.366481e-02 5.082970e-02 6.946070e-03 -3.492753e-02 -7.748080e-02 -1.170322e-01 -1.583068e-01 -1.961539e-01 -2.379640e-01 -2.760772e-01 -3.215442e-01 -3.618255e-01 -4.135337e-01 -4.544953e-01 -5.103843e-01 -5.434547e-01 -5.934851e-01 -6.031609e-01 -6.295831e-01 -5.983171e-01 -5.782487e-01 -4.963542e-01 -4.139349e-01 -3.067340e-01 -1.724841e-01 -1.266516e-01 5.183213e-02 1.450256e-01 6.359613e-02 2.519337e-02 6.607855e-02 3.324006e-02 -5.121867e-02 -4.728239e-02 -1.050980e-02 -4.823292e-02 -1.273488e-02 -2.848868e-02 -6.119917e-03 -2.107202e-02 -5.298921e-03 -1.146586e-02 -2.123065e-02 -1.874460e-02 -9.090549e-03 7.915026e-03 1.557852e-02 3.181197e-02 3.820169e-02 5.172753e-02 5.701964e-02 6.780524e-02 7.191741e-02 8.020738e-02 8.306225e-02 8.913665e-02 9.072074e-02 9.485773e-02 9.521245e-02 9.767700e-02 9.687626e-02 9.791206e-02 9.604342e-02 9.586765e-02 9.302120e-02 9.182372e-02 
9.691273e-02 9.526990e-02 8.882817e-02 8.644496e-02 7.909616e-02 7.610692e-02 6.801783e-02 6.455944e-02 5.593024e-02 5.215011e-02 4.321472e-02 3.927423e-02 3.029498e-02 2.636782e-02 1.762507e-02 1.389164e-02 5.670895e-03 2.311388e-03 -5.108506e-03 -7.918786e-03 -1.427277e-02 -1.636270e-02 -2.139920e-02 -2.259403e-02 -2.606665e-02 -2.617370e-02 -2.782694e-02 -2.661790e-02 -2.617152e-02 -2.336706e-02 -2.050561e-02 -1.576937e-02 -1.014463e-02 -3.094308e-03 5.652024e-03 1.540981e-02 2.759744e-02 4.040350e-02 5.623582e-02 7.228398e-02 9.174130e-02 1.109540e-01 1.336615e-01 1.555401e-01 1.806177e-01 2.040776e-01 2.299898e-01 2.532066e-01 2.776459e-01 2.979693e-01 3.178493e-01 3.318929e-01 3.435738e-01 3.476390e-01 3.475420e-01 3.385153e-01 3.241937e-01 3.008373e-01 2.722475e-01 2.363087e-01 1.964758e-01 1.525398e-01 1.065689e-01 6.000736e-02 1.251796e-02 -3.311991e-02 -7.986003e-02 -1.234635e-01 -1.689005e-01 -2.104990e-01 -2.551679e-01 -2.958278e-01 -3.422262e-01 -3.837896e-01 -4.355366e-01 -4.773995e-01 -5.340142e-01 -5.682996e-01 -6.199327e-01 -6.313626e-01 -6.575120e-01 -6.267298e-01 -5.976147e-01 -5.022673e-01 -4.006226e-01 -2.416149e-01 -1.017667e-01 2.409901e-02 1.070154e-01 3.147981e-02 1.438367e-02 8.725326e-03 -9.853146e-02 -1.144762e-01 2.382554e-02 -1.391682e-02 1.649708e-03 -8.942458e-03 9.759489e-03 -1.197965e-02 1.431130e-02 -1.062183e-02 1.419282e-02 3.113480e-03 -1.502000e-02 1.093715e-02 1.075128e-02 2.686954e-02 2.944423e-02 4.494664e-02 4.963995e-02 6.324864e-02 6.807277e-02 7.927332e-02 8.325547e-02 9.206023e-02 9.477316e-02 1.013771e-01 1.026562e-01 1.073102e-01 1.071242e-01 1.100868e-01 1.084734e-01 1.099879e-01 1.070193e-01 1.073029e-01 1.030692e-01 1.023090e-01 
9.731938e-02 9.543424e-02 9.083506e-02 8.813217e-02 8.266183e-02 7.927961e-02 7.305097e-02 6.913213e-02 6.228978e-02 5.799070e-02 5.071642e-02 4.621110e-02 3.872262e-02 3.420038e-02 2.674361e-02 2.240165e-02 1.523846e-02 1.127255e-02 4.668394e-03 1.266109e-03 -4.518092e-03 -7.177443e-03 -1.188547e-02 -1.362182e-02 -1.699307e-02 -1.760786e-02 -1.936089e-02 -1.861418e-02 -1.842782e-02 -1.601700e-02 -1.351682e-02 -9.065434e-03 -3.824552e-03 3.109386e-03 1.154611e-02 2.143404e-02 3.349548e-02 4.676862e-02 6.276864e-02 7.971241e-02 9.972711e-02 1.203406e-01 1.440550e-01 1.678796e-01 1.944111e-01 2.203366e-01 2.480484e-01 2.741178e-01 3.004563e-01 3.237241e-01 3.451565e-01 3.617208e-01 3.739290e-01 3.793424e-01 3.779041e-01 3.682006e-01 3.499516e-01 3.233177e-01 2.882129e-01 2.467006e-01 1.991409e-01 1.489544e-01 9.678356e-02 4.583721e-02 -3.658791e-03 -4.968295e-02 -9.365399e-02 -1.335911e-01 -1.728893e-01 -2.084989e-01 -2.460853e-01 -2.816111e-01 -3.235548e-01 -3.650009e-01 -4.192458e-01 -4.685411e-01 -5.367198e-01 -5.828118e-01 -6.535059e-01 -6.725664e-01 -7.241187e-01 -6.875130e-01 -6.844223e-01 -5.595784e-01 -4.656826e-01 -2.567041e-01 -5.044266e-02 1.331344e-02 1.072466e-01 7.963617e-02 9.641333e-03 -8.932384e-02 -5.986138e-02 -4.831327e-02 -1.010320e-02 -3.512910e-02 -3.958370e-03 -2.380314e-02 1.038952e-02 -1.527272e-02 1.128640e-02 -1.355915e-02 1.131181e-02 -1.888299e-02 -5.508513e-02 -8.144403e-04 -5.370744e-03 1.680510e-02 1.734941e-02 3.419065e-02 3.826545e-02 5.243723e-02 5.742350e-02 6.906969e-02 7.362750e-02 8.281805e-02 8.635472e-02 9.326463e-02 9.555280e-02 1.004180e-01 1.014076e-01 1.044825e-01 1.042068e-01 1.057372e-01 1.042636e-01 1.044718e-01 1.018775e-01 1.009563e-01 