# vtk DataFile Version 2.0
Comment goes here
ASCII

DATASET STRUCTURED_POINTS
DIMENSIONS    128   128   1

ORIGIN    0.000   0.000   0.000
SPACING   0.0156250.015625   1.000

POINT_DATA   16384
SCALARS uY double
LOOKUP_TABLE default

1.006361e-05 -3.488646e-06 7.430419e-06 -6.379136e-06 5.058052e-06 -8.849273e-06 3.031385e-06 -1.081315e-05 1.422925e-06 -1.219943e-05 2.963664e-07 -1.294854e-05 -2.901724e-07 -1.301019e-05 -2.817662e-07 -1.234155e-05 3.743624e-07 -1.090665e-05 1.728245e-06 -8.677154e-06 3.824839e-06 -5.634536e-06 6.700158e-06 -1.773454e-06 1.037633e-05 2.894232e-06 1.485625e-05 8.335423e-06 2.011862e-05 1.449243e-05 2.611401e-05 2.128085e-05 3.276249e-05 2.858887e-05 3.995268e-05 3.627785e-05 4.754204e-05 4.418345e-05 5.535724e-05 5.211619e-05 6.319345e-05 5.986014e-05 7.081133e-05 6.716860e-05 7.793077e-05 7.375618e-05 8.422145e-05 7.928790e-05 8.929166e-05 8.336736e-05 9.267840e-05 8.552773e-05 9.384344e-05 8.523085e-05 9.218135e-05 8.188081e-05 8.704596e-05 7.485865e-05 7.780117e-05 6.358376e-05 6.390017e-05 4.760509e-05 4.499292e-05 2.671942e-05 2.105437e-05 1.104287e-06 -7.485225e-06 -2.855989e-05 -3.964022e-05 -6.101858e-05 -7.384332e-05 -9.446835e-05 -1.080342e-04 -1.267102e-04 -1.398769e-04 -1.554205e-04 -1.670678e-04 -1.784696e-04 -1.876387e-04 -1.941760e-04 -2.001460e-04 -2.014111e-04 -2.037035e-04 -1.995755e-04 -1.979535e-04 -1.886132e-04 -1.831741e-04 -1.692396e-04 -1.606054e-04 -1.433033e-04 -1.327204e-04 -1.138219e-04 -1.029081e-04 -8.426701e-05 -7.444422e-05 -5.747227e-05 -4.954386e-05 -3.516844e-05 -2.914119e-05 -1.782901e-05 -1.311307e-05 -4.962593e-06 -8.081190e-07 4.307963e-06 8.482465e-06 1.079554e-05 1.529224e-05 1.510131e-05 2.004067e-05 1.765879e-05 2.307166e-05 1.877694e-05 2.466143e-05 1.868344e-05 2.503840e-05 1.756841e-05 2.440813e-05 1.561407e-05 2.296856e-05 1.300624e-05 2.091361e-05 9.933417e-06 1.843000e-05 6.580626e-06 1.569199e-05 3.122721e-06 1.285707e-05 -2.807638e-07 
3.030201e-03 3.435555e-03 3.662215e-03 4.102452e-03 4.384825e-03 4.836406e-03 5.147018e-03 5.588782e-03 5.903174e-03 6.317306e-03 6.615154e-03 6.988229e-03 7.254464e-03 7.578471e-03 7.804315e-03 8.077559e-03 8.261391e-03 8.489175e-03 8.637121e-03 8.832130e-03 8.958305e-03 9.140612e-03 9.266908e-03 9.463502e-03 9.618828e-03 9.862562e-03 1.008142e-02 1.040925e-02 1.072949e-02 1.117988e-02 1.163957e-02 1.224894e-02 1.288225e-02 1.368041e-02 1.451248e-02 1.551721e-02 1.655833e-02 1.776933e-02 1.900867e-02 2.040147e-02 2.180122e-02 2.332188e-02 2.481265e-02 2.637442e-02 2.785315e-02 2.933637e-02 3.066819e-02 3.192484e-02 3.294991e-02 3.381364e-02 3.435973e-02 3.466155e-02 3.456169e-02 3.414987e-02 3.326313e-02 3.202444e-02 3.025600e-02 2.813383e-02 2.544983e-02 2.245496e-02 1.888824e-02 1.509951e-02 1.074526e-02 6.301438e-03 1.306042e-03 -3.606570e-03 -9.056823e-03 -1.421434e-02 -1.989789e-02 -2.504208e-02 -3.069749e-02 -3.553412e-02 -4.085119e-02 -4.505234e-02 -4.967129e-02 -5.289431e-02 -5.642723e-02 -5.835722e-02 -6.043760e-02 -6.084537e-02 -6.119668e-02 -5.999254e-02 -5.849842e-02 -5.577044e-02 -5.253897e-02 -4.859006e-02 -4.401421e-02 -3.940768e-02 -3.418471e-02 -2.972082e-02 -2.470637e-02 -2.116286e-02 -1.698535e-02 -1.465196e-02 -1.137155e-02 -9.903871e-03 -7.145568e-03 -6.131822e-03 -3.392796e-03 -2.460706e-03 4.275708e-04 1.486269e-03 4.295013e-03 5.380019e-03 7.593773e-03 8.322688e-03 9.454112e-03 9.587980e-03 9.653227e-03 9.301080e-03 8.658885e-03 8.076101e-03 7.118008e-03 6.521210e-03 5.525684e-03 5.040384e-03 4.162718e-03 3.840935e-03 3.149551e-03 2.999935e-03 2.512496e-03 2.522294e-03 2.229851e-03 2.377121e-03 2.257795e-03 2.517217e-03 2.543298e-03 2.888675e-03 
5.393058e-03 6.168322e-03 6.881700e-03 7.720618e-03 8.558985e-03 9.415618e-03 1.031895e-02 1.115215e-02 1.206582e-02 1.284117e-02 1.371854e-02 1.441046e-02 1.521540e-02 1.580920e-02 1.651858e-02 1.701225e-02 1.761791e-02 1.802344e-02 1.853365e-02 1.887785e-02 1.931787e-02 1.964227e-02 2.005408e-02 2.041400e-02 2.085464e-02 2.131699e-02 2.185563e-02 2.249537e-02 2.320864e-02 2.410343e-02 2.506886e-02 2.629188e-02 2.757930e-02 2.919005e-02 3.085114e-02 3.288442e-02 3.494066e-02 3.739442e-02 3.982446e-02 4.264754e-02 4.537533e-02 4.845692e-02 5.134265e-02 5.450573e-02 5.734208e-02 6.034356e-02 6.286000e-02 6.540016e-02 6.727767e-02 6.902095e-02 6.991828e-02 7.052541e-02 7.011574e-02 6.928458e-02 6.729792e-02 6.480676e-02 6.107004e-02 5.681416e-02 5.127903e-02 4.529101e-02 3.804090e-02 3.048889e-02 2.172386e-02 1.288987e-02 2.897538e-03 -6.852735e-03 -1.772341e-02 -2.796314e-02 -3.930835e-02 -4.955261e-02 -6.089393e-02 -7.058622e-02 -8.133679e-02 -8.984095e-02 -9.928789e-02 -1.059174e-01 -1.132557e-01 -1.173601e-01 -1.217952e-01 -1.228859e-01 -1.237869e-01 -1.216510e-01 -1.187180e-01 -1.134820e-01 -1.069089e-01 -9.908717e-02 -8.971953e-02 -8.031477e-02 -6.969841e-02 -6.025936e-02 -5.026640e-02 -4.252159e-02 -3.441405e-02 -2.929866e-02 -2.306755e-02 -2.005134e-02 -1.486128e-02 -1.290555e-02 -7.768043e-03 -5.963777e-03 -4.951246e-04 1.628521e-03 7.035004e-03 9.259766e-03 1.356785e-02 1.504869e-02 1.718721e-02 1.742943e-02 1.745108e-02 1.671877e-02 1.538065e-02 1.420960e-02 1.230176e-02 1.112167e-02 9.189045e-03 8.238642e-03 6.578843e-03 5.952493e-03 4.694423e-03 4.404354e-03 3.579834e-03 3.598727e-03 3.188664e-03 3.472550e-03 3.432577e-03 3.931495e-03 4.205150e-03 4.867682e-03 
8.839314e-03 1.011319e-02 1.080808e-02 1.218288e-02 1.304010e-02 1.444539e-02 1.538268e-02 1.675454e-02 1.769826e-02 1.898242e-02 1.987103e-02 2.102614e-02 2.181372e-02 2.281455e-02 2.347397e-02 2.431428e-02 2.483994e-02 2.553462e-02 2.594428e-02 2.653060e-02 2.686624e-02 2.740399e-02 2.773124e-02 2.830142e-02 2.870743e-02 2.940924e-02 2.999852e-02 3.094426e-02 3.183217e-02 3.313952e-02 3.444294e-02 3.622448e-02 3.804951e-02 4.039906e-02 4.282570e-02 4.580186e-02 4.886623e-02 5.247394e-02 5.614917e-02 6.032083e-02 6.449868e-02 6.907744e-02 7.355361e-02 7.828223e-02 8.274914e-02 8.726863e-02 9.131980e-02 9.518211e-02 9.833223e-02 1.010302e-01 1.027529e-01 1.037682e-01 1.035507e-01 1.024156e-01 9.982381e-02 9.618857e-02 9.093101e-02 8.462159e-02 7.659694e-02 6.764915e-02 5.696395e-02 4.562447e-02 3.257686e-02 1.927397e-02 4.313791e-03 -1.038597e-02 -2.669796e-02 -4.212436e-02 -5.913387e-02 -7.452252e-02 -9.146492e-02 -1.059454e-01 -1.219092e-01 -1.345017e-01 -1.484129e-01 -1.580781e-01 -1.687578e-01 -1.745296e-01 -1.808474e-01 -1.820216e-01 -1.831142e-01 -1.794172e-01 -1.749027e-01 -1.665873e-01 -1.567474e-01 -1.446796e-01 -1.306546e-01 -1.164971e-01 -1.004359e-01 -8.672167e-02 -7.142445e-02 -6.079954e-02 -4.837606e-02 -4.180741e-02 -3.233938e-02 -2.832996e-02 -2.052743e-02 -1.788525e-02 -9.915561e-03 -7.504247e-03 1.137496e-03 4.075283e-03 1.263551e-02 1.587790e-02 2.265490e-02 2.481683e-02 2.804093e-02 2.830253e-02 2.819776e-02 2.702768e-02 2.487875e-02 2.311766e-02 2.014918e-02 1.842699e-02 1.543755e-02 1.408673e-02 1.149502e-02 1.064028e-02 8.620312e-03 8.273166e-03 6.862565e-03 6.981044e-03 6.147379e-03 6.666829e-03 6.343627e-03 7.190699e-03 7.295823e-03 8.394393e-03 
1.030911e-02 1.193634e-02 1.342634e-02 1.517292e-02 1.690571e-02 1.868052e-02 2.053583e-02 2.225615e-02 2.412361e-02 2.571940e-02 2.750394e-02 2.892231e-02 3.054963e-02 3.175925e-02 3.318091e-02 3.417582e-02 3.537356e-02 3.617609e-02 3.716485e-02 3.782734e-02 3.865674e-02 3.926162e-02 4.001544e-02 4.067356e-02 4.146685e-02 4.231341e-02 4.328678e-02 4.447443e-02 4.578500e-02 4.747358e-02 4.928208e-02 5.162439e-02 5.407815e-02 5.720154e-02 6.041333e-02 6.439750e-02 6.842106e-02 7.327298e-02 7.807681e-02 8.370510e-02 8.914732e-02 9.533941e-02 1.011477e-01 1.075546e-01 1.133167e-01 1.194510e-01 1.246208e-01 1.298740e-01 1.338001e-01 1.374833e-01 1.394624e-01 1.408727e-01 1.402258e-01 1.387327e-01 1.348964e-01 1.300357e-01 1.226507e-01 1.142052e-01 1.031786e-01 9.122346e-02 7.674329e-02 6.164007e-02 4.413724e-02 2.647969e-02 6.553873e-03 -1.290783e-02 -3.455735e-02 -5.497389e-02 -7.756910e-02 -9.799802e-02 -1.206345e-01 -1.399963e-01 -1.615507e-01 -1.785854e-01 -1.976484e-01 -2.109556e-01 -2.258807e-01 -2.341045e-01 -2.432227e-01 -2.453458e-01 -2.473006e-01 -2.429011e-01 -2.369931e-01 -2.263304e-01 -2.128311e-01 -1.968489e-01 -1.773722e-01 -1.579255e-01 -1.357602e-01 -1.160489e-01 -9.554766e-02 -7.966557e-02 -6.375321e-02 -5.413914e-02 -4.244211e-02 -3.732134e-02 -2.781409e-02 -2.479822e-02 -1.503785e-02 -1.222159e-02 -1.399305e-03 2.381895e-03 1.343281e-02 1.790070e-02 2.685005e-02 2.976178e-02 3.369042e-02 3.387025e-02 3.331655e-02 3.162510e-02 2.853756e-02 2.618100e-02 2.221623e-02 1.999476e-02 1.615591e-02 1.445431e-02 1.124188e-02 1.018909e-02 7.802125e-03 7.397431e-03 5.872168e-03 6.056058e-03 5.345185e-03 6.033493e-03 6.047641e-03 7.146471e-03 7.775102e-03 9.187065e-03 
1.398002e-02 1.621663e-02 1.748297e-02 1.987532e-02 2.140000e-02 2.383187e-02 2.547763e-02 2.784179e-02 2.948436e-02 3.168830e-02 3.322256e-02 3.519447e-02 3.654073e-02 3.823538e-02 3.934515e-02 4.074893e-02 4.160980e-02 4.274470e-02 4.338377e-02 4.430977e-02 4.479534e-02 4.561092e-02 4.605195e-02 4.689228e-02 4.743520e-02 4.846761e-02 4.928988e-02 5.070579e-02 5.200549e-02 5.400817e-02 5.598898e-02 5.877635e-02 6.162725e-02 6.536935e-02 6.923903e-02 7.405020e-02 7.901672e-02 8.492383e-02 9.096144e-02 9.787055e-02 1.048168e-01 1.124825e-01 1.200105e-01 1.280136e-01 1.356166e-01 1.433581e-01 1.503524e-01 1.570715e-01 1.626279e-01 1.674503e-01 1.706573e-01 1.726781e-01 1.726376e-01 1.710320e-01 1.669781e-01 1.611257e-01 1.525444e-01 1.421388e-01 1.288593e-01 1.139723e-01 9.619973e-02 7.728005e-02 5.555697e-02 3.336478e-02 8.482118e-03 -1.600623e-02 -4.310279e-02 -6.877045e-02 -9.702331e-02 -1.226292e-01 -1.508317e-01 -1.749671e-01 -2.016674e-01 -2.227100e-01 -2.461371e-01 -2.623067e-01 -2.804359e-01 -2.900337e-01 -3.008646e-01 -3.026546e-01 -3.046322e-01 -2.981649e-01 -2.905586e-01 -2.762563e-01 -2.594046e-01 -2.385603e-01 -2.141864e-01 -1.893717e-01 -1.611715e-01 -1.369854e-01 -1.104830e-01 -9.262562e-02 -7.226457e-02 -6.297577e-02 -4.838851e-02 -4.271468e-02 -3.143077e-02 -2.819741e-02 -1.566325e-02 -1.300156e-02 1.349730e-03 5.292229e-03 1.999194e-02 2.539952e-02 3.728198e-02 4.081714e-02 4.548099e-02 4.540366e-02 4.417852e-02 4.189406e-02 3.765763e-02 3.475174e-02 2.960533e-02 2.699669e-02 2.209476e-02 2.018161e-02 1.606187e-02 1.496199e-02 1.182233e-02 1.152114e-02 9.383524e-03 9.807558e-03 8.605329e-03 9.655109e-03 9.277494e-03 1.084150e-02 1.115590e-02 1.311647e-02 
1.432848e-02 1.692773e-02 1.933824e-02 2.209851e-02 2.485818e-02 2.764442e-02 3.057173e-02 3.325871e-02 3.618476e-02 3.866429e-02 4.144157e-02 4.363000e-02 4.614137e-02 4.798688e-02 5.015388e-02 5.164283e-02 5.343276e-02 5.459449e-02 5.602554e-02 5.693538e-02 5.807929e-02 5.885926e-02 5.984109e-02 6.065780e-02 6.165216e-02 6.271147e-02 6.393462e-02 6.547204e-02 6.716900e-02 6.943504e-02 7.186090e-02 7.510032e-02 7.849502e-02 8.291947e-02 8.747582e-02 9.322988e-02 9.905584e-02 1.061779e-01 1.132550e-01 1.216360e-01 1.297782e-01 1.391228e-01 1.479414e-01 1.577402e-01 1.666238e-01 1.761437e-01 1.842619e-01 1.925672e-01 1.989095e-01 2.049212e-01 2.083771e-01 2.109762e-01 2.104586e-01 2.086280e-01 2.032268e-01 1.962120e-01 1.853496e-01 1.728021e-01 1.563474e-01 1.384073e-01 1.167028e-01 9.398488e-02 6.776754e-02 4.125111e-02 1.149685e-02 -1.763306e-02 -4.986244e-02 -8.033889e-02 -1.139529e-01 -1.444395e-01 -1.782288e-01 -2.072078e-01 -2.396366e-01 -2.652610e-01 -2.942727e-01 -3.143626e-01 -3.373912e-01 -3.497409e-01 -3.640634e-01 -3.670239e-01 -3.703623e-01 -3.633572e-01 -3.544384e-01 -3.379948e-01 -3.169310e-01 -2.923065e-01 -2.611897e-01 -2.305611e-01 -1.947069e-01 -1.627617e-01 -1.305972e-01 -1.052989e-01 -8.239451e-02 -6.989239e-02 -5.424846e-02 -4.879471e-02 -3.688419e-02 -3.446917e-02 -2.106027e-02 -1.903420e-02 -3.162245e-03 9.385453e-04 1.796226e-02 2.476314e-02 3.935362e-02 4.356294e-02 4.820987e-02 4.762435e-02 4.518475e-02 4.222751e-02 3.672303e-02 3.335034e-02 2.721436e-02 2.434948e-02 1.877473e-02 1.675789e-02 1.226351e-02 1.117204e-02 7.936630e-03 7.734457e-03 5.764262e-03 6.365148e-03 5.577223e-03 6.870837e-03 7.134288e-03 8.996956e-03 1.015358e-02 1.245316e-02 
1.806763e-02 2.141375e-02 2.341618e-02 2.695803e-02 2.930011e-02 3.287668e-02 3.536527e-02 3.882432e-02 4.128146e-02 4.448865e-02 4.676121e-02 4.960963e-02 5.157891e-02 5.399817e-02 5.558894e-02 5.755309e-02 5.874113e-02 6.027487e-02 6.109245e-02 6.227501e-02 6.281391e-02 6.378039e-02 6.419180e-02 6.513141e-02 6.562230e-02 6.677287e-02 6.759792e-02 6.923574e-02 7.068392e-02 7.310774e-02 7.548223e-02 7.899017e-02 8.258066e-02 8.743905e-02 9.248588e-02 9.888989e-02 1.055404e-01 1.135675e-01 1.218269e-01 1.313864e-01 1.410669e-01 1.518511e-01 1.625267e-01 1.739719e-01 1.849478e-01 1.962168e-01 2.065257e-01 2.165245e-01 2.249631e-01 2.324054e-01 2.376222e-01 2.411492e-01 2.417881e-01 2.401409e-01 2.350299e-01 2.272511e-01 2.156024e-01 2.012227e-01 1.827913e-01 1.619414e-01 1.370819e-01 1.104837e-01 8.007296e-02 4.890939e-02 1.416498e-02 -2.011161e-02 -5.782637e-02 -9.364720e-02 -1.329217e-01 -1.686308e-01 -2.079406e-01 -2.416801e-01 -2.791718e-01 -3.087138e-01 -3.419749e-01 -3.647115e-01 -3.907730e-01 -4.040891e-01 -4.198637e-01 -4.218675e-01 -4.249176e-01 -4.150733e-01 -4.042513e-01 -3.833384e-01 -3.589369e-01 -3.284930e-01 -2.924056e-01 -2.551742e-01 -2.124627e-01 -1.752167e-01 -1.356618e-01 -1.099338e-01 -8.236866e-02 -7.470357e-02 -5.644848e-02 -4.917950e-02 -3.800124e-02 -3.555568e-02 -1.915674e-02 -1.890222e-02 1.102206e-03 3.607995e-03 2.466487e-02 3.224960e-02 5.065091e-02 5.541329e-02 5.965531e-02 5.837891e-02 5.433339e-02 5.078475e-02 4.380998e-02 4.017945e-02 3.287459e-02 2.998097e-02 2.346453e-02 2.156216e-02 1.628322e-02 1.541517e-02 1.150949e-02 1.163170e-02 9.078605e-03 1.010408e-02 8.800736e-03 1.061662e-02 1.041499e-02 1.289003e-02 1.361580e-02 1.660442e-02 
1.708809e-02 2.082441e-02 2.436104e-02 2.828479e-02 3.226439e-02 3.619709e-02 4.037449e-02 4.414585e-02 4.828853e-02 5.174754e-02 5.564873e-02 5.867510e-02 6.216711e-02 6.468224e-02 6.764891e-02 6.962532e-02 7.201257e-02 7.348123e-02 7.530483e-02 7.635991e-02 7.770995e-02 7.851047e-02 7.955188e-02 8.031998e-02 8.128860e-02 8.230353e-02 8.349679e-02 8.508367e-02 8.684480e-02 8.935663e-02 9.205099e-02 9.584231e-02 9.982459e-02 1.052156e-01 1.107871e-01 1.180176e-01 1.253743e-01 1.345491e-01 1.437220e-01 1.547504e-01 1.655448e-01 1.780812e-01 1.900204e-01 2.034163e-01 2.157031e-01 2.289822e-01 2.404922e-01 2.523663e-01 2.616894e-01 2.706322e-01 2.761787e-01 2.805682e-01 2.807469e-01 2.790778e-01 2.725344e-01 2.636737e-01 2.495499e-01 2.329794e-01 2.111138e-01 1.870780e-01 1.580616e-01 1.275442e-01 9.257297e-02 5.708848e-02 1.765467e-02 -2.106675e-02 -6.349394e-02 -1.037658e-01 -1.478836e-01 -1.881003e-01 -2.326231e-01 -2.710152e-01 -3.142553e-01 -3.484944e-01 -3.878791e-01 -4.148881e-01 -4.468069e-01 -4.632023e-01 -4.835401e-01 -4.867771e-01 -4.920025e-01 -4.815191e-01 -4.696017e-01 -4.467909e-01 -4.173964e-01 -3.840422e-01 -3.389297e-01 -2.962329e-01 -2.426935e-01 -1.951089e-01 -1.496007e-01 -1.110074e-01 -8.313076e-02 -7.187141e-02 -5.396749e-02 -5.038637e-02 -3.959182e-02 -3.957871e-02 -2.356790e-02 -2.575591e-02 -5.455762e-03 -4.639526e-03 1.769947e-02 2.688754e-02 4.980843e-02 5.483524e-02 5.712798e-02 5.476502e-02 4.853328e-02 4.458063e-02 3.627043e-02 3.272012e-02 2.468883e-02 2.204540e-02 1.519621e-02 1.358200e-02 8.270438e-03 7.696249e-03 4.025534e-03 4.449646e-03 2.388228e-03 3.732733e-03 3.170457e-03 5.328595e-03 6.105565e-03 8.946342e-03 1.086831e-02 1.424041e-02 
2.079586e-02 2.543703e-02 2.839163e-02 3.325561e-02 3.661669e-02 4.149717e-02 4.501318e-02 4.970899e-02 5.314300e-02 5.747178e-02 6.061537e-02 6.442760e-02 6.711489e-02 7.030713e-02 7.242789e-02 7.495428e-02 7.646483e-02 7.834604e-02 7.927747e-02 8.060662e-02 8.106954e-02 8.201481e-02 8.220035e-02 8.300385e-02 8.318027e-02 8.415255e-02 8.465660e-02 8.616547e-02 8.738703e-02 8.983919e-02 9.219743e-02 9.601070e-02 9.992002e-02 1.054845e-01 1.113087e-01 1.189356e-01 1.269304e-01 1.367895e-01 1.470349e-01 1.590836e-01 1.714110e-01 1.853212e-01 1.992438e-01 2.143381e-01 2.289960e-01 2.442081e-01 2.583469e-01 2.722259e-01 2.842282e-01 2.950108e-01 3.030033e-01 3.087721e-01 3.108241e-01 3.097576e-01 3.041636e-01 2.948517e-01 2.804559e-01 2.622097e-01 2.386805e-01 2.117289e-01 1.796637e-01 1.451354e-01 1.059185e-01 6.559327e-02 2.104269e-02 -2.301833e-02 -7.103947e-02 -1.167959e-01 -1.665936e-01 -2.120903e-01 -2.620447e-01 -3.051673e-01 -3.533094e-01 -3.913382e-01 -4.347741e-01 -4.641301e-01 -4.987955e-01 -5.155460e-01 -5.368375e-01 -5.381180e-01 -5.423403e-01 -5.277690e-01 -5.133836e-01 -4.848749e-01 -4.523527e-01 -4.118784e-01 -3.625904e-01 -3.111280e-01 -2.503076e-01 -1.952398e-01 -1.399204e-01 -1.033046e-01 -7.026562e-02 -7.786580e-02 -5.527149e-02 -3.944309e-02 -3.748138e-02 -3.722741e-02 -1.547116e-02 -2.312571e-02 2.777823e-03 -2.515158e-03 2.274335e-02 3.179297e-02 5.983684e-02 6.528743e-02 6.424428e-02 6.124867e-02 5.270156e-02 4.901865e-02 3.945149e-02 3.647159e-02 2.762334e-02 2.556027e-02 1.806623e-02 1.699673e-02 1.111444e-02 1.107663e-02 6.870131e-03 7.858989e-03 5.277860e-03 7.244080e-03 6.166639e-03 9.020211e-03 9.277606e-03 1.289248e-02 1.428220e-02 1.850128e-02 
1.830666e-02 2.337496e-02 2.829449e-02 3.356620e-02 3.901403e-02 4.426557e-02 4.992795e-02 5.493867e-02 6.051112e-02 6.507944e-02 7.028536e-02 7.424529e-02 7.885494e-02 8.209167e-02 8.593988e-02 8.840319e-02 9.140429e-02 9.311895e-02 9.527800e-02 9.635068e-02 9.777024e-02 9.839273e-02 9.927481e-02 9.972319e-02 1.003658e-01 1.009949e-01 1.017826e-01 1.030144e-01 1.044005e-01 1.067043e-01 1.091842e-01 1.130464e-01 1.171178e-01 1.229985e-01 1.291089e-01 1.373840e-01 1.458633e-01 1.567524e-01 1.677333e-01 1.812168e-01 1.945483e-01 2.102807e-01 2.254436e-01 2.426745e-01 2.587131e-01 2.762352e-01 2.917262e-01 3.078720e-01 3.209553e-01 3.336727e-01 3.421752e-01 3.492088e-01 3.508834e-01 3.500749e-01 3.429570e-01 3.326410e-01 3.154706e-01 2.948822e-01 2.674685e-01 2.370163e-01 2.003636e-01 1.616080e-01 1.176614e-01 7.293631e-02 2.398861e-02 -2.420425e-02 -7.615766e-02 -1.256849e-01 -1.792729e-01 -2.284875e-01 -2.827484e-01 -3.300194e-01 -3.836275e-01 -4.264278e-01 -4.766206e-01 -5.108042e-01 -5.527543e-01 -5.730447e-01 -6.006036e-01 -6.028206e-01 -6.105918e-01 -5.943837e-01 -5.794639e-01 -5.487574e-01 -5.103367e-01 -4.693003e-01 -4.069150e-01 -3.539319e-01 -2.747878e-01 -2.078514e-01 -1.496657e-01 -8.603479e-02 -5.746400e-02 -5.653402e-02 -3.609803e-02 -3.626001e-02 -3.170200e-02 -3.452313e-02 -1.560001e-02 -2.808892e-02 -3.840376e-03 -1.472526e-02 7.233153e-03 1.625359e-02 5.236718e-02 5.658240e-02 4.929553e-02 4.631051e-02 3.589824e-02 3.359350e-02 2.354185e-02 2.184056e-02 1.291023e-02 1.181789e-02 4.466027e-03 4.130324e-03 -1.398338e-03 -8.524810e-04 -4.478570e-03 -2.991938e-03 -4.749052e-03 -2.328065e-03 -2.327218e-03 9.644309e-04 2.554730e-03 6.604248e-03 9.568899e-03 1.422185e-02 
2.194399e-02 2.808880e-02 3.225128e-02 3.864149e-02 4.326844e-02 4.964890e-02 5.442523e-02 6.053859e-02 6.515973e-02 7.076577e-02 7.495711e-02 7.985253e-02 8.338910e-02 8.742608e-02 9.015083e-02 9.325291e-02 9.509198e-02 9.726644e-02 9.824062e-02 9.958676e-02 9.981860e-02 1.005321e-01 1.002485e-01 1.006214e-01 1.001513e-01 1.005679e-01 1.003342e-01 1.012598e-01 1.017639e-01 1.037267e-01 1.055224e-01 1.090825e-01 1.127377e-01 1.184424e-01 1.244843e-01 1.328062e-01 1.416495e-01 1.529064e-01 1.647656e-01 1.790255e-01 1.938151e-01 2.107924e-01 2.280236e-01 2.469789e-01 2.656694e-01 2.853320e-01 3.039487e-01 3.224910e-01 3.389584e-01 3.540572e-01 3.658695e-01 3.748963e-01 3.793712e-01 3.797392e-01 3.744283e-01 3.640761e-01 3.472852e-01 3.251978e-01 2.964722e-01 2.630395e-01 2.233806e-01 1.803772e-01 1.319953e-01 8.211604e-02 2.775952e-02 -2.607813e-02 -8.387141e-02 -1.391050e-01 -1.984366e-01 -2.530116e-01 -3.125298e-01 -3.644668e-01 -4.226444e-01 -4.690452e-01 -5.229254e-01 -5.590494e-01 -6.032968e-01 -6.230454e-01 -6.507031e-01 -6.493702e-01 -6.546021e-01 -6.322383e-01 -6.131132e-01 -5.747684e-01 -5.331395e-01 -4.832580e-01 -4.194483e-01 -3.537596e-01 -2.692835e-01 -1.893493e-01 -1.196256e-01 -6.217074e-02 -2.681595e-02 -8.579103e-02 -5.191404e-02 7.621805e-03 -1.775668e-02 -3.154293e-02 8.811582e-03 -1.615730e-02 1.573801e-02 -8.152425e-03 1.312036e-02 1.306607e-02 4.548694e-02 5.249086e-02 4.122004e-02 4.245982e-02 3.191081e-02 3.243660e-02 2.230860e-02 2.236832e-02 1.322032e-02 1.331999e-02 5.675029e-03 6.250855e-03 3.754192e-04 1.711165e-03 -2.315439e-03 -6.690003e-05 -2.281327e-03 9.310509e-04 4.161288e-04 4.562200e-03 5.577670e-03 1.055989e-02 1.289015e-02 1.855413e-02 
1.778082e-02 2.439007e-02 3.098927e-02 3.781903e-02 4.503362e-02 5.180987e-02 5.924893e-02 6.569143e-02 7.296571e-02 7.881045e-02 8.555813e-02 9.058027e-02 9.649318e-02 1.005286e-01 1.053767e-01 1.083401e-01 1.119922e-01 1.138915e-01 1.163305e-01 1.172760e-01 1.186084e-01 1.188182e-01 1.192782e-01 1.190786e-01 1.190258e-01 1.188474e-01 1.187583e-01 1.191260e-01 1.195764e-01 1.210898e-01 1.227265e-01 1.260283e-01 1.295253e-01 1.352526e-01 1.412491e-01 1.499645e-01 1.589829e-01 1.710842e-01 1.834278e-01 1.990387e-01 2.146743e-01 2.335221e-01 2.519575e-01 2.732526e-01 2.934242e-01 3.157611e-01 3.359579e-01 3.572707e-01 3.751305e-01 3.927464e-01 4.053747e-01 4.162208e-01 4.204874e-01 4.214947e-01 4.145454e-01 4.032502e-01 3.831927e-01 3.584269e-01 3.250048e-01 2.874200e-01 2.423241e-01 1.944137e-01 1.408737e-01 8.631291e-02 2.797021e-02 -2.952325e-02 -8.988797e-02 -1.476421e-01 -2.087784e-01 -2.654960e-01 -3.274192e-01 -3.823848e-01 -4.451015e-01 -4.963004e-01 -5.576275e-01 -5.997091e-01 -6.534335e-01 -6.777786e-01 -7.145106e-01 -7.133620e-01 -7.246012e-01 -6.973718e-01 -6.791933e-01 -6.354203e-01 -5.875442e-01 -5.403380e-01 -4.560258e-01 -4.026025e-01 -2.750344e-01 -1.915894e-01 -1.436014e-01 -4.238806e-02 -1.838049e-02 2.019501e-02 6.484606e-03 -3.218002e-02 2.575294e-02 -1.072612e-02 1.455893e-02 -8.064915e-03 9.693457e-03 -1.390841e-02 6.485428e-03 -1.756631e-02 -1.067517e-02 5.031791e-03 2.918154e-04 1.110056e-02 3.436529e-03 8.374337e-03 -8.633433e-04 1.501312e-03 -7.180808e-03 -5.651326e-03 -1.279931e-02 -1.122489e-02 -1.644393e-02 -1.434946e-02 -1.750563e-02 -1.463659e-02 -1.572989e-02 -1.197391e-02 -1.109155e-02 -6.440875e-03 -3.740434e-03 1.728669e-03 6.025843e-03 1.216701e-02 
2.136408e-02 2.922930e-02 3.488310e-02 4.302683e-02 4.920597e-02 5.731646e-02 6.363351e-02 7.138538e-02 7.745511e-02 8.453576e-02 9.000170e-02 9.613836e-02 1.006998e-01 1.056848e-01 1.091219e-01 1.128339e-01 1.150281e-01 1.174486e-01 1.183983e-01 1.196224e-01 1.194524e-01 1.196952e-01 1.186614e-01 1.182595e-01 1.167486e-01 1.161579e-01 1.146808e-01 1.144683e-01 1.136468e-01 1.144738e-01 1.150152e-01 1.176074e-01 1.202644e-01 1.253640e-01 1.308732e-01 1.391676e-01 1.481648e-01 1.601897e-01 1.731003e-01 1.891176e-01 2.060251e-01 2.258810e-01 2.463821e-01 2.693577e-01 2.924203e-01 3.170959e-01 3.409434e-01 3.651124e-01 3.871777e-01 4.078645e-01 4.248734e-01 4.385304e-01 4.467950e-01 4.497560e-01 4.457447e-01 4.349588e-01 4.161270e-01 3.900465e-01 3.557182e-01 3.149879e-01 2.668355e-01 2.143014e-01 1.559393e-01 9.577464e-02 3.147417e-02 -3.212012e-02 -9.883340e-02 -1.626730e-01 -2.297597e-01 -2.920012e-01 -3.588931e-01 -4.184287e-01 -4.850516e-01 -5.395834e-01 -6.039285e-01 -6.474416e-01 -7.028733e-01 -7.254293e-01 -7.611594e-01 -7.540672e-01 -7.601417e-01 -7.236166e-01 -6.967109e-01 -6.423003e-01 -5.883647e-01 -5.297614e-01 -4.484021e-01 -3.733452e-01 -2.496575e-01 -1.269589e-01 -6.452861e-02 -4.793135e-02 -5.071663e-02 -2.097363e-02 7.384595e-02 1.866167e-02 8.511225e-03 7.288261e-04 9.450111e-03 -1.201440e-02 1.046423e-02 -8.500522e-03 1.768598e-02 -1.932117e-02 -1.505336e-02 -5.978219e-03 -5.871078e-03 7.045283e-03 -3.751012e-04 6.689650e-03 -2.802529e-03 1.153306e-03 -7.714793e-03 -4.979492e-03 -1.229236e-02 -9.736047e-03 -1.517587e-02 -1.220370e-02 -1.567692e-02 -1.194914e-02 -1.347036e-02 -8.815679e-03 -8.473893e-03 -2.846986e-03 -7.961194e-04 5.745654e-03 9.289614e-03 1.660184e-02 
1.536088e-02 2.372047e-02 3.232590e-02 4.094201e-02 5.026865e-02 5.880685e-02 6.837331e-02 7.647957e-02 8.579335e-02 9.312425e-02 1.017166e-01 1.079703e-01 1.154322e-01 1.203775e-01 1.263928e-01 1.298935e-01 1.342669e-01 1.363001e-01 1.389772e-01 1.396454e-01 1.407253e-01 1.402635e-01 1.400050e-01 1.387831e-01 1.376043e-01 1.361256e-01 1.345973e-01 1.334920e-01 1.323229e-01 1.323324e-01 1.323416e-01 1.342892e-01 1.363621e-01 1.411018e-01 1.461215e-01 1.544616e-01 1.632130e-01 1.758071e-01 1.888507e-01 2.060595e-01 2.235790e-01 2.453056e-01 2.669369e-01 2.924498e-01 3.171083e-01 3.448738e-01 3.706066e-01 3.981681e-01 4.220763e-01 4.460433e-01 4.643489e-01 4.805880e-01 4.889547e-01 4.930955e-01 4.873208e-01 4.756460e-01 4.527591e-01 4.233785e-01 3.829091e-01 3.367954e-01 2.815534e-01 2.227328e-01 1.582163e-01 9.263371e-02 2.485732e-02 -4.171003e-02 -1.087089e-01 -1.728270e-01 -2.381619e-01 -2.995056e-01 -3.651237e-01 -4.253391e-01 -4.942942e-01 -5.535439e-01 -6.259656e-01 -6.779619e-01 -7.462876e-01 -7.764207e-01 -8.258377e-01 -8.184302e-01 -8.351204e-01 -7.866275e-01 -7.648701e-01 -6.928527e-01 -6.369894e-01 -5.768466e-01 -4.659826e-01 -4.355495e-01 -1.750318e-01 -5.636841e-02 -6.557657e-02 3.250449e-02 1.103845e-01 5.625295e-02 -1.076901e-01 -6.670209e-02 -2.057532e-02 -6.936216e-02 -1.356633e-02 -3.988194e-02 -4.013107e-03 -2.662182e-02 -3.499728e-03 -2.518731e-02 -1.955186e-03 -7.021872e-03 -1.935659e-02 -1.176088e-02 -2.415187e-02 -1.707526e-02 -2.783780e-02 -2.277409e-02 -3.163987e-02 -2.780112e-02 -3.461564e-02 -3.114379e-02 -3.579255e-02 -3.207326e-02 -3.448826e-02 -3.013056e-02 -3.030142e-02 -2.508772e-02 -2.307185e-02 -1.692235e-02 -1.285354e-02 -5.803790e-03 1.021109e-04 7.916921e-03 
1.894949e-02 2.874839e-02 3.619392e-02 4.633580e-02 5.438849e-02 6.449229e-02 7.267914e-02 8.233422e-02 9.017086e-02 9.897200e-02 1.059985e-01 1.135821e-01 1.193996e-01 1.254779e-01 1.297823e-01 1.341708e-01 1.367806e-01 1.394195e-01 1.402948e-01 1.412622e-01 1.405178e-01 1.400371e-01 1.379482e-01 1.363918e-01 1.333962e-01 1.312856e-01 1.279803e-01 1.259829e-01 1.231150e-01 1.220329e-01 1.204789e-01 1.212237e-01 1.219514e-01 1.254979e-01 1.295027e-01 1.368124e-01 1.450218e-01 1.569311e-01 1.700736e-01 1.871427e-01 2.055818e-01 2.279099e-01 2.514497e-01 2.784633e-01 3.061387e-01 3.363734e-01 3.662488e-01 3.971621e-01 4.261828e-01 4.540683e-01 4.780520e-01 4.981790e-01 5.120882e-01 5.192394e-01 5.179180e-01 5.074702e-01 4.869463e-01 4.564091e-01 4.155315e-01 3.659384e-01 3.074903e-01 2.435403e-01 1.736090e-01 1.019339e-01 2.733348e-02 -4.592670e-02 -1.202705e-01 -1.911854e-01 -2.631217e-01 -3.304490e-01 -4.007076e-01 -4.654499e-01 -5.370288e-01 -5.992562e-01 -6.733540e-01 -7.261770e-01 -7.954414e-01 -8.219495e-01 -8.695761e-01 -8.526194e-01 -8.614779e-01 -8.001434e-01 -7.609740e-01 -6.760800e-01 -6.035461e-01 -5.309676e-01 -4.131280e-01 -3.257979e-01 -1.834656e-01 -9.598296e-02 7.395605e-03 8.206256e-02 -1.402736e-01 -1.926719e-01 3.930646e-02 1.353779e-03 2.393098e-02 3.148398e-03 1.755079e-02 -8.969103e-03 2.152591e-02 -1.079054e-02 1.924139e-02 -2.998849e-03 1.198031e-02 2.274948e-02 -1.155938e-02 -3.350335e-03 -2.254129e-02 -1.511005e-02 -2.777806e-02 -2.201521e-02 -3.137248e-02 -2.674805e-02 -3.372113e-02 -2.946555e-02 -3.428234e-02 -2.977102e-02 -3.247497e-02 -2.727726e-02 -2.789183e-02 -2.174952e-02 -2.033750e-02 -1.313999e-02 -9.829444e-03 -1.595774e-03 3.407285e-03 1.254209e-02 
1.090958e-02 2.121932e-02 3.217895e-02 4.282313e-02 5.465272e-02 6.522171e-02 7.733061e-02 8.737684e-02 9.914365e-02 1.082211e-01 1.190405e-01 1.267461e-01 1.360781e-01 1.420906e-01 1.495050e-01 1.536171e-01 1.588308e-01 1.609718e-01 1.638742e-01 1.641248e-01 1.647935e-01 1.633934e-01 1.621015e-01 1.594536e-01 1.566710e-01 1.533434e-01 1.497335e-01 1.464584e-01 1.428681e-01 1.405344e-01 1.379727e-01 1.376032e-01 1.372003e-01 1.399056e-01 1.428432e-01 1.497402e-01 1.571447e-01 1.692334e-01 1.820260e-01 2.000200e-01 2.187261e-01 2.428404e-01 2.673630e-01 2.970686e-01 3.264399e-01 3.602021e-01 3.923338e-01 4.273721e-01 4.588491e-01 4.909894e-01 5.169989e-01 5.407603e-01 5.553372e-01 5.644795e-01 5.613443e-01 5.501231e-01 5.243689e-01 4.895261e-01 4.400137e-01 3.828656e-01 3.141743e-01 2.412859e-01 1.630349e-01 8.422260e-02 6.702389e-03 -6.863027e-02 -1.394824e-01 -2.067270e-01 -2.707956e-01 -3.314900e-01 -3.937481e-01 -4.543300e-01 -5.235967e-01 -5.900041e-01 -6.724768e-01 -7.391960e-01 -8.266601e-01 -8.685478e-01 -9.366004e-01 -9.218855e-01 -9.492778e-01 -8.658451e-01 -8.422732e-01 -7.106988e-01 -6.641616e-01 -5.536410e-01 -4.391993e-01 -3.436230e-01 -7.063124e-02 8.184393e-02 9.911491e-02 -1.325643e-01 -1.595602e-01 -5.051561e-02 3.579865e-02 -2.289900e-02 -9.364036e-03 -3.564779e-02 9.854588e-03 -2.340945e-02 1.045663e-02 -2.068846e-02 1.359045e-02 -2.032573e-02 -4.820607e-02 -7.721434e-03 -4.675427e-02 -3.114693e-02 -5.204478e-02 -4.261099e-02 -5.576649e-02 -4.899269e-02 -5.817715e-02 -5.275763e-02 -5.917787e-02 -5.423604e-02 -5.820562e-02 -5.309494e-02 -5.464768e-02 -4.891491e-02 -4.803053e-02 -4.139085e-02 -3.808588e-02 -3.040394e-02 -2.477461e-02 -1.605147e-02 -8.296499e-03 1.340634e-03 