# vtk DataFile Version 2.0
Comment goes here
ASCII

DATASET STRUCTURED_POINTS
DIMENSIONS    128   128   1

ORIGIN    0.000   0.000   0.000
SPACING   0.0156250.015625   1.000

POINT_DATA   16384
SCALARS uY double
LOOKUP_TABLE default

-2.117753e-05 -2.794938e-05 -2.241352e-05 -2.932080e-05 -2.300707e-05 -2.996525e-05 -2.289632e-05 -2.981226e-05 -2.201574e-05 -2.878662e-05 -2.029516e-05 -2.680873e-05 -1.766075e-05 -2.379677e-05 -1.403786e-05 -1.967085e-05 -9.355890e-06 -1.435904e-05 -3.554790e-06 -7.805136e-06 3.406781e-06 2.238421e-08 1.154247e-05 9.120768e-06 2.082916e-05 1.944390e-05 3.119885e-05 3.089476e-05 4.253268e-05 4.332050e-05 5.465783e-05 5.651088e-05 6.734785e-05 7.020028e-05 8.032617e-05 8.407264e-05 9.327171e-05 9.776825e-05 1.058252e-04 1.108904e-04 1.175940e-04 1.230103e-04 1.281543e-04 1.336687e-04 1.370495e-04 1.423745e-04 1.437861e-04 1.486018e-04 1.478298e-04 1.517892e-04 1.486069e-04 1.513461e-04 1.455153e-04 1.466718e-04 1.379536e-04 1.371922e-04 1.253678e-04 1.224166e-04 1.073216e-04 1.020139e-04 8.358374e-05 7.590627e-05 5.423133e-05 4.437383e-05 1.975724e-05 8.157196e-06 -1.883494e-05 -3.146414e-05 -5.997787e-05 -7.265373e-05 -1.015693e-04 -1.131018e-04 -1.411194e-04 -1.502357e-04 -1.760216e-04 -1.815361e-04 -2.038968e-04 -2.048773e-04 -2.229036e-04 -2.187730e-04 -2.319065e-04 -2.224498e-04 -2.304744e-04 -2.157976e-04 -2.188343e-04 -1.993837e-04 -1.979785e-04 -1.746792e-04 -1.699486e-04 -1.443227e-04 -1.379222e-04 -1.119021e-04 -1.056222e-04 -8.100537e-05 -7.619858e-05 -5.418802e-05 -5.146457e-05 -3.273814e-05 -3.198140e-05 -1.681815e-05 -1.747974e-05 -5.846921e-06 -7.301047e-06 1.042914e-06 -7.241501e-07 4.683018e-06 2.879233e-06 5.760188e-06 4.091521e-06 4.874371e-06 3.479566e-06 2.564807e-06 1.569930e-06 -6.987502e-07 -1.180957e-06 -4.525079e-06 -4.399185e-06 -8.600525e-06 -7.790701e-06 -1.268069e-05 -1.113087e-05 -1.657879e-05 -1.425122e-05 -2.015313e-05 -1.702606e-05 -2.329508e-05 -1.936006e-05 -2.591826e-05 
3.538307e-03 4.006462e-03 4.109653e-03 4.571810e-03 4.686002e-03 5.124787e-03 5.232951e-03 5.634137e-03 5.723218e-03 6.076292e-03 6.137704e-03 6.436472e-03 6.466551e-03 6.709714e-03 6.710079e-03 6.901700e-03 6.879474e-03 7.029274e-03 6.997132e-03 7.120573e-03 7.096571e-03 7.214674e-03 7.221805e-03 7.360641e-03 7.426052e-03 7.615811e-03 7.769563e-03 8.043078e-03 8.316341e-03 8.706932e-03 9.129458e-03 9.667976e-03 1.026478e-02 1.097577e-02 1.176298e-02 1.266007e-02 1.364013e-02 1.472076e-02 1.587732e-02 1.711750e-02 1.841054e-02 1.976023e-02 2.112246e-02 2.250277e-02 2.383834e-02 2.514171e-02 2.632845e-02 2.742309e-02 2.831943e-02 2.905881e-02 2.951561e-02 2.975286e-02 2.962949e-02 2.923527e-02 2.841765e-02 2.729827e-02 2.571510e-02 2.382697e-02 2.146011e-02 1.881658e-02 1.570257e-02 1.237198e-02 8.595243e-03 4.692248e-03 3.742100e-04 -3.950067e-03 -8.659033e-03 -1.322185e-02 -1.814191e-02 -2.272571e-02 -2.763707e-02 -3.198087e-02 -3.660862e-02 -4.040309e-02 -4.440942e-02 -4.730880e-02 -5.030811e-02 -5.196986e-02 -5.357808e-02 -5.373049e-02 -5.364766e-02 -5.217194e-02 -5.028241e-02 -4.728977e-02 -4.375610e-02 -3.964365e-02 -3.496315e-02 -3.042133e-02 -2.538647e-02 -2.128427e-02 -1.675558e-02 -1.381730e-02 -1.032221e-02 -8.723265e-03 -6.204390e-03 -5.537193e-03 -3.540122e-03 -3.306284e-03 -1.321569e-03 -1.098924e-03 1.025455e-03 1.450846e-03 3.498386e-03 4.046346e-03 5.588027e-03 5.952418e-03 6.636744e-03 6.639258e-03 6.530317e-03 6.263772e-03 5.673012e-03 5.327687e-03 4.562366e-03 4.284137e-03 3.544700e-03 3.403965e-03 2.788922e-03 2.801309e-03 2.342836e-03 2.495302e-03 2.190049e-03 2.458038e-03 2.286310e-03 2.642394e-03 2.578367e-03 2.995836e-03 3.012551e-03 3.466622e-03 
6.522598e-03 7.435505e-03 7.888095e-03 8.785144e-03 9.271064e-03 1.011814e-02 1.059831e-02 1.136758e-02 1.181035e-02 1.248146e-02 1.286393e-02 1.342519e-02 1.373443e-02 1.418402e-02 1.441811e-02 1.476499e-02 1.493373e-02 1.519822e-02 1.532340e-02 1.553736e-02 1.565256e-02 1.585898e-02 1.600869e-02 1.626064e-02 1.649866e-02 1.685736e-02 1.724419e-02 1.777604e-02 1.837503e-02 1.914722e-02 2.001932e-02 2.109382e-02 2.229063e-02 2.371643e-02 2.527168e-02 2.707546e-02 2.899512e-02 3.117072e-02 3.342259e-02 3.592040e-02 3.842442e-02 4.114221e-02 4.376334e-02 4.654072e-02 4.908667e-02 5.170571e-02 5.393211e-02 5.612656e-02 5.775154e-02 5.922632e-02 5.995535e-02 6.041609e-02 5.997522e-02 5.916486e-02 5.733754e-02 5.507349e-02 5.173296e-02 4.793613e-02 4.306416e-02 3.777177e-02 3.145763e-02 2.481611e-02 1.723681e-02 9.479611e-03 8.719290e-04 -7.705331e-03 -1.706427e-02 -2.611618e-02 -3.590520e-02 -4.502731e-02 -5.485045e-02 -6.355323e-02 -7.289452e-02 -8.058173e-02 -8.877420e-02 -9.475765e-02 -1.010036e-01 -1.045811e-01 -1.080518e-01 -1.086481e-01 -1.086637e-01 -1.059987e-01 -1.022567e-01 -9.649190e-02 -8.929340e-02 -8.113018e-02 -7.153079e-02 -6.224570e-02 -5.197702e-02 -4.328891e-02 -3.421523e-02 -2.775042e-02 -2.092986e-02 -1.733753e-02 -1.258904e-02 -1.118571e-02 -7.515152e-03 -7.118724e-03 -3.475818e-03 -3.099086e-03 8.680488e-04 1.704118e-03 5.605534e-03 6.726186e-03 9.692833e-03 1.042187e-02 1.167812e-02 1.164844e-02 1.134218e-02 1.077725e-02 9.560799e-03 8.859530e-03 7.349180e-03 6.798729e-03 5.383514e-03 5.114133e-03 3.980055e-03 4.015317e-03 3.220534e-03 3.530607e-03 3.065918e-03 3.600515e-03 3.425694e-03 4.130041e-03 4.192830e-03 5.014067e-03 5.259333e-03 6.148582e-03 
1.050714e-02 1.195436e-02 1.228096e-02 1.370802e-02 1.406306e-02 1.541752e-02 1.574961e-02 1.698802e-02 1.725741e-02 1.834718e-02 1.852745e-02 1.944882e-02 1.952826e-02 2.027617e-02 2.025903e-02 2.084458e-02 2.075174e-02 2.120318e-02 2.107239e-02 2.143541e-02 2.132079e-02 2.165804e-02 2.162886e-02 2.201855e-02 2.215692e-02 2.269012e-02 2.308747e-02 2.386383e-02 2.461556e-02 2.573701e-02 2.693507e-02 2.849704e-02 3.022004e-02 3.230005e-02 3.460079e-02 3.724440e-02 4.013524e-02 4.334012e-02 4.677722e-02 5.047671e-02 5.434487e-02 5.839340e-02 6.249427e-02 6.665791e-02 7.070510e-02 7.466105e-02 7.828605e-02 8.163520e-02 8.440752e-02 8.670281e-02 8.816599e-02 8.895665e-02 8.867827e-02 8.756571e-02 8.519433e-02 8.188990e-02 7.720721e-02 7.157840e-02 6.453253e-02 5.662472e-02 4.733435e-02 3.736262e-02 2.609248e-02 1.441051e-02 1.532393e-03 -1.140280e-02 -2.544023e-02 -3.908655e-02 -5.375860e-02 -6.747832e-02 -8.214975e-02 -9.517742e-02 -1.090482e-01 -1.204657e-01 -1.325346e-01 -1.412977e-01 -1.503965e-01 -1.554519e-01 -1.603906e-01 -1.608865e-01 -1.607098e-01 -1.562523e-01 -1.505523e-01 -1.414406e-01 -1.306540e-01 -1.180548e-01 -1.036677e-01 -8.968835e-02 -7.419198e-02 -6.162113e-02 -4.784491e-02 -3.911963e-02 -2.880085e-02 -2.445201e-02 -1.727675e-02 -1.569765e-02 -1.010605e-02 -9.787750e-03 -3.978256e-03 -3.625016e-03 2.812466e-03 3.924146e-03 1.023187e-02 1.189228e-02 1.663172e-02 1.772188e-02 1.962984e-02 1.954204e-02 1.897894e-02 1.810779e-02 1.617389e-02 1.514387e-02 1.279093e-02 1.201911e-02 9.813017e-03 9.475280e-03 7.672945e-03 7.793589e-03 6.467983e-03 6.999128e-03 6.129660e-03 6.996780e-03 6.521111e-03 7.644112e-03 7.484700e-03 8.786099e-03 8.862957e-03 1.027046e-02 
1.273588e-02 1.462402e-02 1.558512e-02 1.743693e-02 1.845881e-02 2.020567e-02 2.120915e-02 2.279414e-02 2.371439e-02 2.509496e-02 2.588437e-02 2.703516e-02 2.766604e-02 2.858143e-02 2.904828e-02 2.974444e-02 3.006552e-02 3.058167e-02 3.079968e-02 3.119856e-02 3.138027e-02 3.174743e-02 3.198214e-02 3.242401e-02 3.282045e-02 3.346077e-02 3.414214e-02 3.511620e-02 3.621274e-02 3.765892e-02 3.929762e-02 4.134558e-02 4.363642e-02 4.639174e-02 4.941049e-02 5.293565e-02 5.670379e-02 6.099656e-02 6.545955e-02 7.043071e-02 7.543726e-02 8.089058e-02 8.617661e-02 9.179577e-02 9.697788e-02 1.023255e-01 1.069094e-01 1.114441e-01 1.148530e-01 1.179679e-01 1.195929e-01 1.206770e-01 1.199480e-01 1.184645e-01 1.149295e-01 1.104968e-01 1.038950e-01 9.635189e-02 8.665558e-02 7.608953e-02 6.350116e-02 5.022987e-02 3.513269e-02 1.964824e-02 2.534843e-03 -1.456030e-02 -3.314134e-02 -5.116879e-02 -7.061122e-02 -8.879689e-02 -1.083676e-01 -1.257744e-01 -1.445013e-01 -1.599608e-01 -1.765395e-01 -1.886591e-01 -2.014673e-01 -2.087838e-01 -2.160732e-01 -2.173595e-01 -2.176327e-01 -2.122651e-01 -2.047604e-01 -1.930125e-01 -1.781999e-01 -1.614133e-01 -1.413989e-01 -1.221058e-01 -1.006654e-01 -8.254287e-02 -6.401564e-02 -5.089598e-02 -3.761970e-02 -3.109619e-02 -2.239342e-02 -2.051283e-02 -1.395964e-02 -1.399804e-02 -7.036353e-03 -6.923329e-03 1.078372e-03 2.438937e-03 1.053933e-02 1.285682e-02 1.905096e-02 2.050916e-02 2.270963e-02 2.244613e-02 2.135225e-02 2.008555e-02 1.734387e-02 1.596651e-02 1.284955e-02 1.187978e-02 9.085197e-03 8.710223e-03 6.533594e-03 6.758299e-03 5.272426e-03 6.022812e-03 5.191051e-03 6.366833e-03 6.103874e-03 7.600910e-03 7.802864e-03 9.521232e-03 1.007990e-02 1.192622e-02 
1.700767e-02 1.951726e-02 2.015249e-02 2.262141e-02 2.329418e-02 2.563428e-02 2.625753e-02 2.839420e-02 2.889950e-02 3.077538e-02 3.111605e-02 3.269489e-02 3.284880e-02 3.411889e-02 3.409069e-02 3.506767e-02 3.489018e-02 3.561878e-02 3.535348e-02 3.590824e-02 3.564463e-02 3.612925e-02 3.598298e-02 3.652821e-02 3.663760e-02 3.739715e-02 3.791763e-02 3.906151e-02 4.015725e-02 4.186174e-02 4.369372e-02 4.612718e-02 4.883696e-02 5.214096e-02 5.582994e-02 6.009558e-02 6.480000e-02 7.004044e-02 7.570385e-02 8.182511e-02 8.827092e-02 9.504495e-02 1.019538e-01 1.089992e-01 1.158974e-01 1.226747e-01 1.289406e-01 1.347704e-01 1.396659e-01 1.437755e-01 1.465075e-01 1.481078e-01 1.479167e-01 1.463037e-01 1.425693e-01 1.372322e-01 1.295728e-01 1.202828e-01 1.086201e-01 9.547130e-02 8.003642e-02 6.342511e-02 4.470364e-02 2.525820e-02 3.902032e-03 -1.759726e-02 -4.084175e-02 -6.350655e-02 -8.780927e-02 -1.106231e-01 -1.350038e-01 -1.567475e-01 -1.799556e-01 -1.991300e-01 -2.195387e-01 -2.343747e-01 -2.499963e-01 -2.586444e-01 -2.673642e-01 -2.682785e-01 -2.683145e-01 -2.607246e-01 -2.511964e-01 -2.355015e-01 -2.169595e-01 -1.950054e-01 -1.698621e-01 -1.452089e-01 -1.179618e-01 -9.586568e-02 -7.218180e-02 -5.780696e-02 -4.120620e-02 -3.556096e-02 -2.487955e-02 -2.337742e-02 -1.550611e-02 -1.607713e-02 -6.785242e-03 -7.253681e-03 3.726401e-03 4.945070e-03 1.598499e-02 1.886934e-02 2.719477e-02 2.902766e-02 3.156128e-02 3.107550e-02 2.928182e-02 2.764140e-02 2.392250e-02 2.229159e-02 1.824199e-02 1.719789e-02 1.360199e-02 1.331678e-02 1.047487e-02 1.092725e-02 8.893536e-03 9.986415e-03 8.699978e-03 1.031294e-02 9.663577e-03 1.167338e-02 1.153351e-02 1.382093e-02 1.406080e-02 1.651258e-02 
1.831084e-02 2.128228e-02 2.287319e-02 2.578016e-02 2.745030e-02 3.018851e-02 3.181621e-02 3.429683e-02 3.578061e-02 3.793520e-02 3.919879e-02 4.098428e-02 4.198132e-02 4.338444e-02 4.410233e-02 4.514305e-02 4.560565e-02 4.633943e-02 4.660830e-02 4.712690e-02 4.730102e-02 4.773180e-02 4.794548e-02 4.844884e-02 4.886756e-02 4.963213e-02 5.044562e-02 5.168031e-02 5.309215e-02 5.501422e-02 5.722693e-02 6.004493e-02 6.323981e-02 6.713072e-02 7.144193e-02 7.652226e-02 8.200574e-02 8.829774e-02 9.489662e-02 1.022921e-01 1.098023e-01 1.180284e-01 1.260700e-01 1.346646e-01 1.426665e-01 1.509709e-01 1.581783e-01 1.653577e-01 1.708717e-01 1.759721e-01 1.788275e-01 1.808729e-01 1.801528e-01 1.782748e-01 1.732487e-01 1.668283e-01 1.570816e-01 1.458667e-01 1.313812e-01 1.155391e-01 9.668688e-02 7.676603e-02 5.420889e-02 3.102339e-02 5.561921e-03 -1.994558e-02 -4.749415e-02 -7.433362e-02 -1.031508e-01 -1.302539e-01 -1.593979e-01 -1.854771e-01 -2.136579e-01 -2.370330e-01 -2.623879e-01 -2.809288e-01 -3.009656e-01 -3.123137e-01 -3.241795e-01 -3.262894e-01 -3.273865e-01 -3.191910e-01 -3.079794e-01 -2.898358e-01 -2.666449e-01 -2.404315e-01 -2.082825e-01 -1.775604e-01 -1.428818e-01 -1.135460e-01 -8.481639e-02 -6.438428e-02 -4.554751e-02 -3.766130e-02 -2.667046e-02 -2.613441e-02 -1.842607e-02 -2.042220e-02 -1.063719e-02 -1.220760e-02 -1.606909e-05 9.584817e-04 1.375421e-02 1.748017e-02 2.760090e-02 2.976524e-02 3.193582e-02 3.096653e-02 2.802452e-02 2.591121e-02 2.114896e-02 1.930539e-02 1.452451e-02 1.348927e-02 9.464391e-03 9.337545e-03 6.330764e-03 7.043542e-03 5.078922e-03 6.506813e-03 5.499905e-03 7.504369e-03 7.322964e-03 9.765494e-03 1.025843e-02 1.300459e-02 1.401559e-02 1.693606e-02 
2.276474e-02 2.647065e-02 2.755364e-02 3.119078e-02 3.230842e-02 3.575091e-02 3.677777e-02 3.991587e-02 4.075099e-02 4.349759e-02 4.406972e-02 4.636676e-02 4.663906e-02 4.846321e-02 4.843686e-02 4.980389e-02 4.952049e-02 5.048812e-02 5.003055e-02 5.069967e-02 5.019147e-02 5.070559e-02 5.030872e-02 5.085150e-02 5.076207e-02 5.155232e-02 5.199369e-02 5.327706e-02 5.448911e-02 5.652519e-02 5.874871e-02 6.179215e-02 6.524690e-02 6.952152e-02 7.437724e-02 8.004256e-02 8.638314e-02 9.349409e-02 1.012764e-01 1.097389e-01 1.187499e-01 1.282777e-01 1.380966e-01 1.481761e-01 1.581498e-01 1.680256e-01 1.772700e-01 1.859620e-01 1.934004e-01 1.997665e-01 2.042162e-01 2.070661e-01 2.073745e-01 2.056295e-01 2.008456e-01 1.937188e-01 1.832635e-01 1.704142e-01 1.541960e-01 1.358011e-01 1.142264e-01 9.093619e-02 6.479852e-02 3.759373e-02 7.894055e-03 -2.207983e-02 -5.428693e-02 -8.581431e-02 -1.194592e-01 -1.512227e-01 -1.851119e-01 -2.155417e-01 -2.481274e-01 -2.752094e-01 -3.043343e-01 -3.255356e-01 -3.483466e-01 -3.608609e-01 -3.741113e-01 -3.754961e-01 -3.762817e-01 -3.652592e-01 -3.519459e-01 -3.289575e-01 -3.019553e-01 -2.693599e-01 -2.317483e-01 -1.943064e-01 -1.528804e-01 -1.190661e-01 -8.424683e-02 -6.447730e-02 -4.285133e-02 -3.964769e-02 -2.723793e-02 -2.638888e-02 -1.909527e-02 -2.184813e-02 -9.107779e-03 -1.241981e-02 3.619265e-03 3.224587e-03 1.949011e-02 2.378941e-02 3.658480e-02 3.914539e-02 4.062734e-02 3.917822e-02 3.478812e-02 3.238853e-02 2.641932e-02 2.460827e-02 1.891691e-02 1.811353e-02 1.337583e-02 1.359783e-02 1.000150e-02 1.114696e-02 8.670860e-03 1.060440e-02 9.133963e-03 1.171163e-02 1.109143e-02 1.416771e-02 1.422704e-02 1.765661e-02 1.822237e-02 2.186097e-02 
2.297887e-02 2.718880e-02 2.958779e-02 3.369788e-02 3.618406e-02 4.005128e-02 4.245599e-02 4.595434e-02 4.813348e-02 5.116227e-02 5.300441e-02 5.549627e-02 5.693007e-02 5.885787e-02 5.985805e-02 6.124029e-02 6.183177e-02 6.273591e-02 6.299588e-02 6.353977e-02 6.359763e-02 6.394894e-02 6.398397e-02 6.435744e-02 6.459401e-02 6.524598e-02 6.594540e-02 6.716464e-02 6.861259e-02 7.070584e-02 7.319386e-02 7.646451e-02 8.026408e-02 8.498240e-02 9.031049e-02 9.667470e-02 1.036509e-01 1.117397e-01 1.203366e-01 1.300563e-01 1.400477e-01 1.510789e-01 1.619928e-01 1.737470e-01 1.848339e-01 1.964321e-01 2.066641e-01 2.169530e-01 2.250680e-01 2.326914e-01 2.372980e-01 2.408328e-01 2.405801e-01 2.387345e-01 2.325311e-01 2.243758e-01 2.116125e-01 1.967843e-01 1.774829e-01 1.562823e-01 1.310913e-01 1.044136e-01 7.442049e-02 4.353193e-02 9.960572e-03 -2.377867e-02 -5.982676e-02 -9.514111e-02 -1.327494e-01 -1.684107e-01 -2.066546e-01 -2.412143e-01 -2.787514e-01 -3.101521e-01 -3.447405e-01 -3.700690e-01 -3.983075e-01 -4.140507e-01 -4.316888e-01 -4.346651e-01 -4.375572e-01 -4.261534e-01 -4.115009e-01 -3.863732e-01 -3.538394e-01 -3.174970e-01 -2.704365e-01 -2.266711e-01 -1.748434e-01 -1.310782e-01 -9.154990e-02 -6.189259e-02 -3.927841e-02 -3.345398e-02 -2.252260e-02 -2.578863e-02 -2.001868e-02 -2.557593e-02 -1.296878e-02 -1.891707e-02 -2.239706e-03 -4.260291e-03 1.313590e-02 1.853601e-02 3.427473e-02 3.689236e-02 3.632129e-02 3.399936e-02 2.771712e-02 2.513569e-02 1.812528e-02 1.657656e-02 1.039508e-02 1.000924e-02 5.125484e-03 5.805575e-03 2.322272e-03 3.938198e-03 1.802462e-03 4.217904e-03 3.300144e-03 6.374237e-03 6.505962e-03 1.009295e-02 1.108650e-02 1.503583e-02 1.669499e-02 2.085239e-02 
2.754948e-02 3.263042e-02 3.435064e-02 3.932976e-02 4.106876e-02 4.577789e-02 4.736698e-02 5.165431e-02 5.295367e-02 5.669427e-02 5.760130e-02 6.070718e-02 6.116380e-02 6.359248e-02 6.359074e-02 6.535168e-02 6.493730e-02 6.609610e-02 6.536988e-02 6.605005e-02 6.516739e-02 6.555010e-02 6.471859e-02 6.504016e-02 6.451514e-02 6.506190e-02 6.513895e-02 6.623834e-02 6.724148e-02 6.924749e-02 7.151109e-02 7.478210e-02 7.862437e-02 8.349118e-02 8.917755e-02 9.590023e-02 1.035961e-01 1.123098e-01 1.220238e-01 1.326760e-01 1.441978e-01 1.564826e-01 1.693228e-01 1.826232e-01 1.959673e-01 2.093190e-01 2.220128e-01 2.341106e-01 2.446961e-01 2.539648e-01 2.607894e-01 2.655371e-01 2.669462e-01 2.656021e-01 2.602043e-01 2.516081e-01 2.385603e-01 2.222270e-01 2.014438e-01 1.776948e-01 1.498729e-01 1.197511e-01 8.616145e-02 5.115070e-02 1.328324e-02 -2.501888e-02 -6.576259e-02 -1.058352e-01 -1.482369e-01 -1.885896e-01 -2.314541e-01 -2.703546e-01 -3.121158e-01 -3.471771e-01 -3.853601e-01 -4.132390e-01 -4.440974e-01 -4.607419e-01 -4.795661e-01 -4.812767e-01 -4.835600e-01 -4.684258e-01 -4.514187e-01 -4.201288e-01 -3.839179e-01 -3.393569e-01 -2.871249e-01 -2.341688e-01 -1.745793e-01 -1.249399e-01 -7.747422e-02 -5.234795e-02 -2.857004e-02 -3.826360e-02 -2.482841e-02 -1.992874e-02 -1.983009e-02 -2.590381e-02 -7.297130e-03 -1.764581e-02 4.558343e-03 -2.251384e-03 1.812842e-02 2.352865e-02 4.235470e-02 4.537760e-02 4.159904e-02 3.900000e-02 3.076969e-02 2.870167e-02 2.070817e-02 1.989139e-02 1.308587e-02 1.341297e-02 8.031156e-03 9.381803e-03 5.446751e-03 7.721027e-03 5.145908e-03 8.238766e-03 6.873538e-03 1.066477e-02 1.032530e-02 1.467821e-02 1.516361e-02 1.992633e-02 2.102901e-02 2.603716e-02 
2.651798e-02 3.216253e-02 3.560179e-02 4.110874e-02 4.463443e-02 4.981570e-02 5.320452e-02 5.788814e-02 6.094409e-02 6.498723e-02 6.755397e-02 7.085519e-02 7.282716e-02 7.533668e-02 7.666798e-02 7.839534e-02 7.910564e-02 8.012444e-02 8.030200e-02 8.075191e-02 8.055378e-02 8.064025e-02 8.028998e-02 8.028164e-02 8.006428e-02 8.028766e-02 8.054139e-02 8.137166e-02 8.247430e-02 8.431995e-02 8.666834e-02 8.994716e-02 9.392681e-02 9.903052e-02 1.049733e-01 1.122188e-01 1.203479e-01 1.299152e-01 1.402782e-01 1.521369e-01 1.645317e-01 1.783628e-01 1.922645e-01 2.073884e-01 2.218909e-01 2.372190e-01 2.510118e-01 2.650450e-01 2.764499e-01 2.873530e-01 2.944495e-01 3.002272e-01 3.010882e-01 2.998727e-01 2.929007e-01 2.833201e-01 2.676244e-01 2.491571e-01 2.248387e-01 1.980056e-01 1.661799e-01 1.324349e-01 9.489439e-02 5.620517e-02 1.483055e-02 -2.686316e-02 -7.062648e-02 -1.137864e-01 -1.590858e-01 -2.025472e-01 -2.488361e-01 -2.913391e-01 -3.376952e-01 -3.770947e-01 -4.212730e-01 -4.538312e-01 -4.915307e-01 -5.120722e-01 -5.371961e-01 -5.407205e-01 -5.468894e-01 -5.310506e-01 -5.135652e-01 -4.801947e-01 -4.373943e-01 -3.910117e-01 -3.249634e-01 -2.683317e-01 -1.913939e-01 -1.285041e-01 -8.165743e-02 -3.756944e-02 -1.342547e-02 -1.566848e-02 -7.206189e-03 -1.696009e-02 -1.700634e-02 -2.603399e-02 -8.310243e-03 -2.357895e-02 -1.703736e-03 -1.317854e-02 5.046956e-03 1.039353e-02 3.411214e-02 3.611974e-02 2.674230e-02 2.429287e-02 1.460239e-02 1.386264e-02 5.588288e-03 5.996762e-03 -7.736597e-04 5.176754e-04 -4.641293e-03 -2.511805e-03 -6.033664e-03 -3.087285e-03 -5.044263e-03 -1.333097e-03 -1.865801e-03 2.521631e-03 3.230489e-03 8.173647e-03 9.914923e-03 1.526633e-02 1.781323e-02 2.340358e-02 
3.118175e-02 3.785540e-02 4.044913e-02 4.699040e-02 4.957647e-02 5.576622e-02 5.812445e-02 6.375770e-02 6.569973e-02 7.060170e-02 7.198369e-02 7.602478e-02 7.675831e-02 7.986650e-02 7.992672e-02 8.209658e-02 8.152714e-02 8.282531e-02 8.174030e-02 8.230785e-02 8.089128e-02 8.094362e-02 7.944706e-02 7.927176e-02 7.801015e-02 7.796244e-02 7.730719e-02 7.780183e-02 7.816951e-02 7.966659e-02 8.150031e-02 8.448183e-02 8.822210e-02 9.315578e-02 9.919766e-02 1.064851e-01 1.151197e-01 1.250276e-01 1.363680e-01 1.489438e-01 1.628388e-01 1.778166e-01 1.937606e-01 2.104687e-01 2.275217e-01 2.448099e-01 2.615499e-01 2.777662e-01 2.923053e-01 3.053584e-01 3.154614e-01 3.230094e-01 3.263496e-01 3.261379e-01 3.206953e-01 3.110165e-01 2.955546e-01 2.757114e-01 2.501688e-01 2.207313e-01 1.862991e-01 1.489580e-01 1.076986e-01 6.472045e-02 1.887522e-02 -2.753214e-02 -7.613036e-02 -1.241693e-01 -1.742664e-01 -2.224715e-01 -2.731730e-01 -3.199706e-01 -3.701656e-01 -4.130915e-01 -4.604376e-01 -4.953081e-01 -5.352225e-01 -5.561967e-01 -5.819756e-01 -5.833639e-01 -5.880350e-01 -5.670777e-01 -5.461756e-01 -5.046144e-01 -4.582048e-01 -4.007404e-01 -3.317367e-01 -2.613600e-01 -1.770466e-01 -1.044945e-01 -4.622464e-02 -1.580972e-02 3.402180e-03 -4.455948e-02 -2.691983e-02 8.391062e-03 -8.200252e-03 -2.598054e-02 9.850270e-03 -1.402886e-02 1.474093e-02 -7.228053e-03 1.201257e-02 1.037967e-02 2.848750e-02 3.273674e-02 1.989985e-02 2.134344e-02 1.170638e-02 1.357552e-02 5.301471e-03 7.346423e-03 3.938850e-04 2.826928e-03 -2.598223e-03 4.447720e-04 -3.394455e-03 3.760486e-04 -1.950068e-03 2.572118e-03 1.609652e-03 6.837847e-03 7.047141e-03 1.288228e-02 1.404617e-02 2.034625e-02 2.223114e-02 2.881940e-02 
2.874738e-02 3.605869e-02 4.082212e-02 4.796546e-02 5.281145e-02 5.954247e-02 6.418111e-02 7.026829e-02 7.443792e-02 7.968196e-02 8.316745e-02 8.741917e-02 9.006811e-02 9.324318e-02 9.497843e-02 9.706776e-02 9.789553e-02 9.897134e-02 9.898503e-02 9.920324e-02 9.858372e-02 9.818368e-02 9.719696e-02 9.649929e-02 9.549183e-02 9.489413e-02 9.428523e-02 9.425441e-02 9.452371e-02 9.558200e-02 9.724894e-02 9.994978e-02 1.035410e-01 1.084304e-01 1.144315e-01 1.219907e-01 1.307790e-01 1.413474e-01 1.531063e-01 1.667843e-01 1.814017e-01 1.979402e-01 2.149004e-01 2.335885e-01 2.518724e-01 2.714435e-01 2.894628e-01 3.080525e-01 3.236550e-01 3.388548e-01 3.494516e-01 3.585136e-01 3.613811e-01 3.616163e-01 3.543969e-01 3.437525e-01 3.250928e-01 3.027791e-01 2.728905e-01 2.397791e-01 2.005682e-01 1.590463e-01 1.135314e-01 6.672977e-02 1.789378e-02 -3.135400e-02 -8.159103e-02 -1.314954e-01 -1.825673e-01 -2.323835e-01 -2.846536e-01 -3.339340e-01 -3.876971e-01 -4.348275e-01 -4.885956e-01 -5.290569e-01 -5.777741e-01 -6.037464e-01 -6.387653e-01 -6.418647e-01 -6.534952e-01 -6.298179e-01 -6.105146e-01 -5.646779e-01 -5.109488e-01 -4.549007e-01 -3.639993e-01 -3.026036e-01 -1.781569e-01 -9.168771e-02 -6.609425e-02 -1.022916e-02 1.862213e-02 5.001449e-02 2.021847e-02 -2.757891e-02 2.241947e-02 -1.087934e-02 1.223851e-02 -7.911602e-03 8.296271e-03 -1.294071e-02 5.864745e-03 -1.520818e-02 -1.884453e-02 -9.339179e-03 -1.601178e-02 -6.734451e-03 -1.365814e-02 -8.113033e-03 -1.557752e-02 -1.158986e-02 -1.813017e-02 -1.444668e-02 -1.940797e-02 -1.543081e-02 -1.863319e-02 -1.408726e-02 -1.556109e-02 -1.034224e-02 -1.021455e-02 -4.323214e-03 -2.774481e-03 3.714927e-03 6.466332e-03 1.342133e-02 1.712551e-02 2.436651e-02 
3.351936e-02 4.203898e-02 4.578699e-02 5.415837e-02 5.786763e-02 6.580643e-02 6.919265e-02 7.642409e-02 7.923634e-02 8.551872e-02 8.755816e-02 9.270438e-02 9.384005e-02 9.773497e-02 9.791520e-02 1.005276e-01 9.978639e-02 1.011757e-01 9.963466e-02 9.995322e-02 9.782070e-02 9.731335e-02 9.488183e-02 9.388412e-02 9.152664e-02 9.046177e-02 8.862693e-02 8.800013e-02 8.720339e-02 8.759072e-02 8.839813e-02 9.042499e-02 9.342445e-02 9.772836e-02 1.034831e-01 1.106556e-01 1.196360e-01 1.301394e-01 1.426307e-01 1.566909e-01 1.726790e-01 1.901552e-01 2.091977e-01 2.294432e-01 2.505398e-01 2.722721e-01 2.937604e-01 3.149775e-01 3.344974e-01 3.524979e-01 3.670887e-01 3.786720e-01 3.850809e-01 3.870033e-01 3.822620e-01 3.719580e-01 3.541806e-01 3.305910e-01 2.997333e-01 2.638471e-01 2.219491e-01 1.765763e-01 1.270745e-01 7.577002e-02 2.211712e-02 -3.205200e-02 -8.747754e-02 -1.425077e-01 -1.985550e-01 -2.532890e-01 -3.097147e-01 -3.632475e-01 -4.201332e-01 -4.705286e-01 -5.265913e-01 -5.689098e-01 -6.190501e-01 -6.446275e-01 -6.793498e-01 -6.789623e-01 -6.872470e-01 -6.565931e-01 -6.305320e-01 -5.734640e-01 -5.138392e-01 -4.411793e-01 -3.521817e-01 -2.669606e-01 -1.450369e-01 -3.367751e-02 2.757420e-02 1.819741e-06 -4.026465e-02 -2.975764e-02 5.296778e-02 1.374555e-02 7.149126e-03 2.367713e-04 9.688245e-03 -1.089964e-02 1.037294e-02 -7.323806e-03 1.545165e-02 -1.480501e-02 -1.990734e-02 -1.741326e-02 -1.908878e-02 -8.362319e-03 -1.496928e-02 -7.777965e-03 -1.555844e-02 -1.027530e-02 -1.708882e-02 -1.236149e-02 -1.755507e-02 -1.267055e-02 -1.613264e-02 -1.072929e-02 -1.253547e-02 -6.447453e-03 -6.748442e-03 6.504018e-05 1.076820e-03 8.564632e-03 1.066430e-02 1.870068e-02 2.163415e-02 3.003098e-02 
2.950876e-02 3.875320e-02 4.517629e-02 5.424409e-02 6.075242e-02 6.932562e-02 7.554507e-02 8.331284e-02 8.889663e-02 9.558321e-02 1.002384e-01 1.056286e-01 1.091391e-01 1.130988e-01 1.153428e-01 1.178324e-01 1.187926e-01 1.198742e-01 1.196422e-01 1.194811e-01 1.182568e-01 1.171212e-01 1.152100e-01 1.134684e-01 1.112768e-01 1.093959e-01 1.074261e-01 1.059665e-01 1.048071e-01 1.044139e-01 1.047225e-01 1.061046e-01 1.085769e-01 1.124693e-01 1.177874e-01 1.248881e-01 1.336440e-01 1.445230e-01 1.571123e-01 1.720889e-01 1.885790e-01 2.075725e-01 2.275496e-01 2.499131e-01 2.723240e-01 2.966828e-01 3.196995e-01 3.438320e-01 3.647850e-01 3.856120e-01 4.010735e-01 4.148521e-01 4.209783e-01 4.238143e-01 4.170522e-01 4.057859e-01 3.839407e-01 3.572630e-01 3.206222e-01 2.799311e-01 2.317340e-01 1.810079e-01 1.264728e-01 7.084198e-02 1.487757e-02 -4.135428e-02 -9.616799e-02 -1.509736e-01 -2.046893e-01 -2.582844e-01 -3.128544e-01 -3.666529e-01 -4.248424e-01 -4.790729e-01 -5.416671e-01 -5.914552e-01 -6.531134e-01 -6.862033e-01 -7.345721e-01 -7.358732e-01 -7.564977e-01 -7.178029e-01 -6.986775e-01 -6.272417e-01 -5.632192e-01 -4.884377e-01 -3.646199e-01 -3.267667e-01 -7.525805e-02 4.733650e-02 -3.341193e-03 3.349233e-02 9.218080e-02 4.961715e-02 -8.446991e-02 -5.739250e-02 -1.313328e-02 -6.058427e-02 -1.160344e-02 -3.547118e-02 -4.500797e-03 -2.494407e-02 -5.426499e-03 -1.938390e-02 -1.098292e-02 -2.005714e-02 -3.110284e-02 -2.501219e-02 -3.592425e-02 -2.893410e-02 -3.797290e-02 -3.187081e-02 -3.877362e-02 -3.314033e-02 -3.791389e-02 -3.220941e-02 -3.493398e-02 -2.879200e-02 -2.958035e-02 -2.279891e-02 -2.179274e-02 -1.429776e-02 -1.167422e-02 -3.494596e-03 5.259376e-04 9.273554e-03 1.442277e-02 2.354597e-02 
3.443527e-02 4.508997e-02 5.031724e-02 6.083909e-02 6.600146e-02 7.601986e-02 8.075066e-02 8.989759e-02 9.386373e-02 1.018072e-01 1.047363e-01 1.112109e-01 1.129138e-01 1.177441e-01 1.181302e-01 1.212465e-01 1.203314e-01 1.217766e-01 1.196834e-01 1.196139e-01 1.165703e-01 1.152546e-01 1.115893e-01 1.094053e-01 1.055452e-01 1.029794e-01 9.944756e-02 9.709411e-02 9.450655e-02 9.306235e-02 9.211799e-02 9.236785e-02 9.382465e-02 9.660787e-02 1.012372e-01 1.073874e-01 1.158991e-01 1.261502e-01 1.390835e-01 1.539378e-01 1.715171e-01 1.910761e-01 2.130356e-01 2.368009e-01 2.621899e-01 2.888510e-01 3.158427e-01 3.430911e-01 3.688459e-01 3.932896e-01 4.139652e-01 4.312756e-01 4.423351e-01 4.478042e-01 4.447975e-01 4.344394e-01 4.143191e-01 3.863765e-01 3.490093e-01 3.051581e-01 2.540544e-01 1.991263e-01 1.402148e-01 7.997124e-02 1.868693e-02 -4.264144e-02 -1.034011e-01 -1.638775e-01 -2.232934e-01 -2.824084e-01 -3.410432e-01 -3.992449e-01 -4.593390e-01 -5.164483e-01 -5.796547e-01 -6.305071e-01 -6.922004e-01 -7.233027e-01 -7.701866e-01 -7.657524e-01 -7.807527e-01 -7.338955e-01 -7.008471e-01 -6.167177e-01 -5.365193e-01 -4.347732e-01 -3.032438e-01 -1.893455e-01 -5.578447e-02 -3.440143e-02 6.551702e-03 4.524556e-02 -1.279416e-01 -1.562173e-01 4.508813e-02 -1.470911e-03 1.544074e-02 -1.439523e-03 1.535748e-02 -9.891954e-03 1.916957e-02 -1.056253e-02 1.718543e-02 1.030621e-03 -2.110932e-03 6.552547e-03 -2.184210e-02 -1.528178e-02 -3.222217e-02 -2.512153e-02 -3.603705e-02 -2.942257e-02 -3.691577e-02 -3.061530e-02 -3.564069e-02 -2.921469e-02 -3.216859e-02 -2.525473e-02 -2.636072e-02 -1.873034e-02 -1.817042e-02 -9.720771e-03 -7.686835e-03 1.572030e-03 4.854035e-03 1.480942e-02 1.906864e-02 2.951538e-02 
2.863627e-02 4.011657e-02 4.858878e-02 5.992398e-02 6.850474e-02 7.927861e-02 8.748482e-02 9.727987e-02 1.046528e-01 1.130900e-01 1.192333e-01 1.260077e-01 1.306201e-01 1.355288e-01 1.384273e-01 1.413865e-01 1.425192e-01 1.435712e-01 1.430205e-01 1.423336e-01 1.403133e-01 1.381782e-01 1.350287e-01 1.318552e-01 1.280393e-01 1.243570e-01 1.204571e-01 1.169163e-01 1.136317e-01 1.110026e-01 1.091396e-01 1.083013e-01 1.087488e-01 1.106571e-01 1.143376e-01 1.199628e-01 1.277489e-01 1.379731e-01 1.505643e-01 1.660343e-01 1.837915e-01 2.047264e-01 2.274674e-01 2.534277e-01 2.801960e-01 3.098289e-01 3.386554e-01 3.694531e-01 3.971604e-01 4.253089e-01 4.474618e-01 4.679316e-01 4.791258e-01 4.862430e-01 4.810080e-01 4.697489e-01 4.442695e-01 4.122428e-01 3.666151e-01 3.159413e-01 2.556183e-01 1.930361e-01 1.273265e-01 6.146044e-02 -1.277850e-03 -6.362753e-02 -1.201397e-01 -1.768562e-01 -2.284667e-01 -2.814754e-01 -3.322675e-01 -3.864044e-01 -4.433331e-01 -5.033819e-01 -5.725816e-01 -6.350091e-01 -7.120093e-01 -7.569541e-01 -8.232540e-01 -8.226673e-01 -8.585415e-01 -7.952521e-01 -7.821313e-01 -6.578946e-01 -5.990382e-01 -4.552576e-01 -3.048028e-01 -2.095337e-01 1.561488e-02 8.467351e-02 5.602703e-02 -1.061648e-01 -1.048851e-01 -4.842734e-02 1.368788e-02 -3.249952e-02 -8.879400e-03 -3.181577e-02 9.075619e-03 -2.105962e-02 1.048251e-02 -1.832786e-02 1.318679e-02 -2.024235e-02 -5.919804e-02 -2.006516e-02 -5.392414e-02 -4.025973e-02 -5.923275e-02 -5.032407e-02 -6.187129e-02 -5.440264e-02 -6.180882e-02 -5.482561e-02 -5.935181e-02 -5.229225e-02 -5.443064e-02 -4.690227e-02 -4.687714e-02 -3.862623e-02 -3.658832e-02 -2.748765e-02 -2.359739e-02 -1.363902e-02 -8.107371e-03 2.602521e-03 9.493986e-03 2.074228e-02 