# vtk DataFile Version 2.0
Comment goes here
ASCII

DATASET STRUCTURED_POINTS
DIMENSIONS    128   128   1

ORIGIN    0.000   0.000   0.000
SPACING   0.0156250.015625   1.000

POINT_DATA   16384
SCALARS uY double
LOOKUP_TABLE default

5.381007e-06 -2.538915e-06 2.807619e-06 -5.163746e-06 5.623408e-07 -7.342354e-06 -1.268311e-06 -8.991733e-06 -2.610508e-06 -1.004228e-05 -3.399761e-06 -1.043507e-05 -3.577947e-06 -1.011949e-05 -3.091230e-06 -9.051798e-06 -1.889312e-06 -7.194952e-06 7.369162e-08 -4.519889e-06 2.836687e-06 -1.008290e-06 6.427547e-06 3.343512e-06 1.085807e-05 8.520039e-06 1.611864e-05 1.448230e-05 2.217343e-05 2.116428e-05 2.895674e-05 2.847096e-05 3.637112e-05 3.627782e-05 4.428701e-05 4.443200e-05 5.254359e-05 5.275385e-05 6.094974e-05 6.103807e-05 6.928370e-05 6.905271e-05 7.729019e-05 7.653503e-05 8.467404e-05 8.318364e-05 9.109061e-05 8.864760e-05 9.613445e-05 9.251497e-05 9.932979e-05 9.430467e-05 1.001277e-04 9.346732e-05 9.791588e-05 8.940136e-05 9.204842e-05 8.149093e-05 8.189942e-05 6.917067e-05 6.694570e-05 5.201958e-05 4.687627e-05 2.988045e-05 2.172095e-05 2.991911e-06 -8.021594e-06 -2.789318e-05 -4.128894e-05 -6.144315e-05 -7.643712e-05 -9.578235e-05 -1.113402e-04 -1.286559e-04 -1.436194e-04 -1.577115e-04 -1.709606e-04 -1.808243e-04 -1.914202e-04 -1.963512e-04 -2.036102e-04 -2.032265e-04 -2.067186e-04 -2.009261e-04 -2.004682e-04 -1.894705e-04 -1.852140e-04 -1.696456e-04 -1.622620e-04 -1.433558e-04 -1.341272e-04 -1.136430e-04 -1.041991e-04 -8.395892e-05 -7.571558e-05 -5.709168e-05 -5.084721e-05 -3.473503e-05 -3.051037e-05 -1.735477e-05 -1.459305e-05 -4.470515e-06 -2.458737e-06 4.786568e-06 6.601374e-06 1.123297e-05 1.313521e-05 1.547888e-05 1.757590e-05 1.796578e-05 2.027831e-05 1.901149e-05 2.153057e-05 1.885499e-05 2.157512e-05 1.769868e-05 2.063203e-05 1.573564e-05 1.891232e-05 1.315936e-05 1.662048e-05 1.016224e-05 1.395104e-05 6.929834e-06 1.108379e-05 3.634854e-06 8.180063e-06 4.330520e-07 
3.031714e-03 3.479075e-03 3.665642e-03 4.147012e-03 4.384291e-03 4.875778e-03 5.137513e-03 5.617605e-03 5.880739e-03 6.331276e-03 6.576992e-03 6.984216e-03 7.198974e-03 7.554553e-03 7.731032e-03 8.032960e-03 8.170833e-03 8.424107e-03 8.530552e-03 8.747559e-03 8.837435e-03 9.037948e-03 9.133547e-03 9.344260e-03 9.474532e-03 9.728017e-03 9.927157e-03 1.026012e-02 1.056538e-02 1.101608e-02 1.146470e-02 1.206943e-02 1.269458e-02 1.348315e-02 1.430893e-02 1.529928e-02 1.633502e-02 1.752720e-02 1.876125e-02 2.013138e-02 2.152543e-02 2.302041e-02 2.450491e-02 2.603910e-02 2.751135e-02 2.896652e-02 3.029251e-02 3.152230e-02 3.254367e-02 3.338364e-02 3.393014e-02 3.421333e-02 3.412041e-02 3.369710e-02 3.282641e-02 3.158504e-02 2.984415e-02 2.772916e-02 2.508591e-02 2.210811e-02 1.859585e-02 1.483291e-02 1.054588e-02 6.134088e-03 1.216250e-03 -3.661536e-03 -9.027452e-03 -1.415119e-02 -1.974775e-02 -2.486282e-02 -3.043264e-02 -3.524744e-02 -4.048372e-02 -4.467152e-02 -4.921664e-02 -5.243403e-02 -5.590052e-02 -5.782969e-02 -5.984973e-02 -6.025727e-02 -6.055228e-02 -5.934515e-02 -5.779842e-02 -5.506553e-02 -5.178919e-02 -4.784056e-02 -4.323652e-02 -3.864660e-02 -3.342166e-02 -2.899843e-02 -2.401085e-02 -2.052943e-02 -1.639989e-02 -1.414057e-02 -1.091819e-02 -9.530293e-03 -6.831012e-03 -5.894131e-03 -3.212889e-03 -2.349674e-03 4.802978e-04 1.479051e-03 4.228645e-03 5.264607e-03 7.424435e-03 8.121653e-03 9.215271e-03 9.339359e-03 9.386356e-03 9.044235e-03 8.398930e-03 7.840259e-03 6.887153e-03 6.323042e-03 5.334489e-03 4.886639e-03 4.013740e-03 3.731974e-03 3.040602e-03 2.932415e-03 2.438794e-03 2.490821e-03 2.185266e-03 2.375180e-03 2.235544e-03 2.537712e-03 2.536379e-03 2.924295e-03 
5.400939e-03 6.259618e-03 6.895056e-03 7.816453e-03 8.566143e-03 9.503558e-03 1.030990e-02 1.122140e-02 1.203258e-02 1.288298e-02 1.365537e-02 1.441832e-02 1.511893e-02 1.577898e-02 1.638763e-02 1.694203e-02 1.745324e-02 1.791326e-02 1.833748e-02 1.872920e-02 1.909329e-02 1.945754e-02 1.980433e-02 2.019573e-02 2.058244e-02 2.106727e-02 2.156253e-02 2.221514e-02 2.289445e-02 2.379204e-02 2.473128e-02 2.594675e-02 2.721386e-02 2.880666e-02 3.045127e-02 3.245652e-02 3.449821e-02 3.691457e-02 3.933043e-02 4.210795e-02 4.482094e-02 4.785057e-02 5.072068e-02 5.382772e-02 5.664838e-02 5.959263e-02 6.209518e-02 6.458038e-02 6.644880e-02 6.814325e-02 6.904039e-02 6.960897e-02 6.921294e-02 6.835752e-02 6.640356e-02 6.390582e-02 6.022567e-02 5.598297e-02 5.053159e-02 4.457658e-02 3.743835e-02 2.993671e-02 2.130962e-02 1.253840e-02 2.705059e-03 -6.976943e-03 -1.767487e-02 -2.784849e-02 -3.901553e-02 -4.920298e-02 -6.036887e-02 -7.001906e-02 -8.060380e-02 -8.908319e-02 -9.837837e-02 -1.049993e-01 -1.122010e-01 -1.163076e-01 -1.206184e-01 -1.217136e-01 -1.224985e-01 -1.203618e-01 -1.173196e-01 -1.120781e-01 -1.054104e-01 -9.759212e-02 -8.816259e-02 -7.879376e-02 -6.816709e-02 -5.881481e-02 -4.886720e-02 -4.125585e-02 -3.323356e-02 -2.827504e-02 -2.215266e-02 -1.930214e-02 -1.422640e-02 -1.243004e-02 -7.402959e-03 -5.743341e-03 -3.845075e-04 1.611008e-03 6.905589e-03 9.023238e-03 1.322877e-02 1.463804e-02 1.670733e-02 1.692323e-02 1.691574e-02 1.619732e-02 1.486035e-02 1.373140e-02 1.184037e-02 1.071951e-02 8.807104e-03 7.925691e-03 6.281224e-03 5.729472e-03 4.476836e-03 4.264844e-03 3.432995e-03 3.532332e-03 3.100663e-03 3.466655e-03 3.390194e-03 3.972286e-03 4.194682e-03 4.940843e-03 
8.859794e-03 1.025061e-02 1.083358e-02 1.232256e-02 1.305306e-02 1.456869e-02 1.536802e-02 1.684538e-02 1.764404e-02 1.902783e-02 1.976877e-02 2.101668e-02 2.165850e-02 2.274441e-02 2.326433e-02 2.418111e-02 2.457738e-02 2.533908e-02 2.563259e-02 2.627565e-02 2.651058e-02 2.709394e-02 2.733710e-02 2.794092e-02 2.827956e-02 2.900225e-02 2.953993e-02 3.049303e-02 3.134328e-02 3.264389e-02 3.392104e-02 3.568138e-02 3.748853e-02 3.980238e-02 4.221641e-02 4.514284e-02 4.819690e-02 5.174189e-02 5.540668e-02 5.950436e-02 6.367005e-02 6.816609e-02 7.262797e-02 7.726846e-02 8.171994e-02 8.615011e-02 9.018736e-02 9.396419e-02 9.710627e-02 9.972833e-02 1.014550e-01 1.024100e-01 1.022159e-01 1.010424e-01 9.850133e-02 9.485473e-02 8.968278e-02 8.339237e-02 7.549357e-02 6.659543e-02 5.607809e-02 4.481521e-02 3.197460e-02 1.876754e-02 4.045906e-03 -1.054960e-02 -2.660264e-02 -4.192847e-02 -5.867149e-02 -7.397446e-02 -9.065542e-02 -1.050736e-01 -1.207915e-01 -1.333489e-01 -1.470370e-01 -1.566922e-01 -1.671731e-01 -1.729511e-01 -1.790900e-01 -1.802723e-01 -1.811981e-01 -1.774985e-01 -1.728259e-01 -1.644974e-01 -1.545187e-01 -1.424496e-01 -1.283342e-01 -1.142254e-01 -9.815597e-02 -8.456887e-02 -6.935617e-02 -5.892601e-02 -4.665090e-02 -4.030785e-02 -3.101474e-02 -2.724936e-02 -1.961696e-02 -1.720629e-02 -9.398766e-03 -7.190882e-03 1.286395e-03 4.047114e-03 1.243519e-02 1.552901e-02 2.214458e-02 2.420963e-02 2.732526e-02 2.755797e-02 2.740754e-02 2.626755e-02 2.411866e-02 2.242742e-02 1.948177e-02 1.785257e-02 1.489051e-02 1.364519e-02 1.107360e-02 1.033107e-02 8.316944e-03 8.085767e-03 6.662781e-03 6.899391e-03 6.033062e-03 6.671749e-03 6.294821e-03 7.261320e-03 7.291879e-03 8.509129e-03 
1.034092e-02 1.212995e-02 1.346782e-02 1.537461e-02 1.693382e-02 1.886561e-02 2.053069e-02 2.240314e-02 2.406931e-02 2.581073e-02 2.738903e-02 2.894496e-02 3.036736e-02 3.170492e-02 3.292900e-02 3.404075e-02 3.505364e-02 3.596048e-02 3.678156e-02 3.753439e-02 3.821647e-02 3.889635e-02 3.952500e-02 4.024142e-02 4.093198e-02 4.181884e-02 4.271082e-02 4.391963e-02 4.516777e-02 4.685743e-02 4.861913e-02 5.094185e-02 5.336045e-02 5.644353e-02 5.962763e-02 6.355135e-02 6.755074e-02 7.232349e-02 7.710344e-02 8.263624e-02 8.805275e-02 9.413655e-02 9.991680e-02 1.062073e-01 1.119403e-01 1.179558e-01 1.230993e-01 1.282382e-01 1.321468e-01 1.357281e-01 1.377067e-01 1.390359e-01 1.384156e-01 1.368705e-01 1.330989e-01 1.282224e-01 1.209505e-01 1.125299e-01 1.016721e-01 8.978294e-02 7.552948e-02 6.052827e-02 4.330591e-02 2.577587e-02 6.173661e-03 -1.314967e-02 -3.444785e-02 -5.473142e-02 -7.696503e-02 -9.728133e-02 -1.195630e-01 -1.388439e-01 -1.600646e-01 -1.770562e-01 -1.958164e-01 -2.091167e-01 -2.237729e-01 -2.320148e-01 -2.408920e-01 -2.430386e-01 -2.447682e-01 -2.403774e-01 -2.342528e-01 -2.235798e-01 -2.098859e-01 -1.939019e-01 -1.742930e-01 -1.549099e-01 -1.327231e-01 -1.131912e-01 -9.279093e-02 -7.719365e-02 -6.145765e-02 -5.216294e-02 -4.068770e-02 -3.590208e-02 -2.661761e-02 -2.391706e-02 -1.435895e-02 -1.182196e-02 -1.200309e-03 2.333667e-03 1.316818e-02 1.742228e-02 2.616088e-02 2.893050e-02 3.272524e-02 3.285897e-02 3.225950e-02 3.060160e-02 2.752831e-02 2.525692e-02 2.133383e-02 1.922733e-02 1.543355e-02 1.386374e-02 1.068477e-02 9.773911e-03 7.399986e-03 7.144094e-03 5.606444e-03 5.944248e-03 5.192815e-03 6.038905e-03 5.983153e-03 7.242445e-03 7.771978e-03 9.345788e-03 
1.403638e-02 1.646576e-02 1.754572e-02 2.012683e-02 2.144036e-02 2.405504e-02 2.547079e-02 2.800990e-02 2.941052e-02 3.177971e-02 3.306765e-02 3.519339e-02 3.629666e-02 3.813211e-02 3.900962e-02 4.053966e-02 4.118559e-02 4.243079e-02 4.287758e-02 4.389651e-02 4.421625e-02 4.510600e-02 4.540964e-02 4.630403e-02 4.673814e-02 4.780314e-02 4.854355e-02 4.996938e-02 5.121096e-02 5.319989e-02 5.514191e-02 5.789126e-02 6.071750e-02 6.439725e-02 6.825095e-02 7.297618e-02 7.793024e-02 8.372955e-02 8.975392e-02 9.653625e-02 1.034656e-01 1.109897e-01 1.184963e-01 1.263486e-01 1.339269e-01 1.415156e-01 1.484864e-01 1.550588e-01 1.606000e-01 1.652916e-01 1.685021e-01 1.704183e-01 1.704127e-01 1.687395e-01 1.647660e-01 1.588923e-01 1.504505e-01 1.400759e-01 1.270053e-01 1.122027e-01 9.471183e-02 7.592373e-02 5.455047e-02 3.252324e-02 8.044926e-03 -1.626470e-02 -4.292240e-02 -6.841937e-02 -9.622165e-02 -1.216848e-01 -1.494471e-01 -1.734827e-01 -1.997720e-01 -2.207655e-01 -2.438238e-01 -2.599927e-01 -2.777998e-01 -2.874299e-01 -2.979772e-01 -2.998041e-01 -3.015183e-01 -2.950620e-01 -2.871980e-01 -2.728721e-01 -2.557808e-01 -2.349168e-01 -2.103758e-01 -1.856279e-01 -1.574101e-01 -1.334478e-01 -1.071094e-01 -8.960468e-02 -6.951555e-02 -6.060024e-02 -4.631764e-02 -4.106264e-02 -3.004194e-02 -2.718944e-02 -1.489133e-02 -1.254575e-02 1.561644e-03 5.231418e-03 1.965383e-02 2.481784e-02 3.641518e-02 3.979283e-02 4.428091e-02 4.416974e-02 4.288684e-02 4.066484e-02 3.644448e-02 3.365912e-02 2.855948e-02 2.610293e-02 2.124955e-02 1.950561e-02 1.541919e-02 1.449855e-02 1.136733e-02 1.125200e-02 9.092456e-03 9.706978e-03 8.449448e-03 9.692788e-03 9.225237e-03 1.098430e-02 1.117439e-02 1.332980e-02 
1.440576e-02 1.724663e-02 1.942743e-02 2.242797e-02 2.492547e-02 2.794789e-02 3.058772e-02 3.350402e-02 3.612576e-02 3.882503e-02 4.129052e-02 4.368651e-02 4.588823e-02 4.792667e-02 4.979551e-02 5.146039e-02 5.297201e-02 5.429046e-02 5.546995e-02 5.651516e-02 5.743922e-02 5.833111e-02 5.912754e-02 6.003072e-02 6.087459e-02 6.199299e-02 6.309876e-02 6.466616e-02 6.627513e-02 6.854063e-02 7.090259e-02 7.411008e-02 7.745866e-02 8.181964e-02 8.634103e-02 9.200097e-02 9.779682e-02 1.047962e-01 1.118429e-01 1.200762e-01 1.281840e-01 1.373614e-01 1.461405e-01 1.557595e-01 1.646003e-01 1.739365e-01 1.820140e-01 1.901421e-01 1.964545e-01 2.023074e-01 2.057570e-01 2.082288e-01 2.077442e-01 2.058309e-01 2.005197e-01 1.934782e-01 1.827800e-01 1.702696e-01 1.540660e-01 1.362281e-01 1.148661e-01 9.230767e-02 6.651784e-02 4.020085e-02 1.094157e-02 -1.797329e-02 -4.966559e-02 -7.993807e-02 -1.130011e-01 -1.433188e-01 -1.765698e-01 -2.054329e-01 -2.373591e-01 -2.629314e-01 -2.914933e-01 -3.115948e-01 -3.342335e-01 -3.466425e-01 -3.606258e-01 -3.636581e-01 -3.666823e-01 -3.597171e-01 -3.504845e-01 -3.340261e-01 -3.126591e-01 -2.880037e-01 -2.566657e-01 -2.261007e-01 -1.902133e-01 -1.585484e-01 -1.265758e-01 -1.017669e-01 -7.914017e-02 -6.711727e-02 -5.182708e-02 -4.688436e-02 -3.529639e-02 -3.334008e-02 -2.017974e-02 -1.853772e-02 -2.912174e-03 8.527307e-04 1.757162e-02 2.405541e-02 3.829553e-02 4.229866e-02 4.675329e-02 4.612267e-02 4.364288e-02 4.075413e-02 3.529336e-02 3.205316e-02 2.599032e-02 2.329263e-02 1.778773e-02 1.595862e-02 1.151254e-02 1.062301e-02 7.404003e-03 7.415071e-03 5.423246e-03 6.246874e-03 5.395661e-03 6.919860e-03 7.076603e-03 9.175815e-03 1.018230e-02 1.272220e-02 
1.818607e-02 2.180273e-02 2.354019e-02 2.734839e-02 2.939040e-02 3.322594e-02 3.538758e-02 3.909511e-02 4.120828e-02 4.465053e-02 4.657290e-02 4.964024e-02 5.126430e-02 5.388387e-02 5.514516e-02 5.728875e-02 5.817266e-02 5.986287e-02 6.040953e-02 6.172361e-02 6.203031e-02 6.310143e-02 6.332229e-02 6.433776e-02 6.467991e-02 6.587572e-02 6.659140e-02 6.824216e-02 6.961557e-02 7.201862e-02 7.434637e-02 7.779896e-02 8.136301e-02 8.613139e-02 9.116393e-02 9.744425e-02 1.040849e-01 1.119570e-01 1.202044e-01 1.295818e-01 1.392436e-01 1.498243e-01 1.604728e-01 1.717011e-01 1.826430e-01 1.936914e-01 2.039650e-01 2.137516e-01 2.221634e-01 2.294154e-01 2.346285e-01 2.380022e-01 2.386793e-01 2.369312e-01 2.319217e-01 2.241090e-01 2.126465e-01 1.983102e-01 1.801666e-01 1.594400e-01 1.349770e-01 1.085732e-01 7.866087e-02 4.774132e-02 1.357599e-02 -2.043810e-02 -5.752468e-02 -9.309882e-02 -1.317308e-01 -1.672394e-01 -2.059249e-01 -2.395322e-01 -2.764453e-01 -3.059363e-01 -3.386867e-01 -3.614537e-01 -3.870831e-01 -4.004908e-01 -4.159014e-01 -4.180103e-01 -4.207291e-01 -4.109391e-01 -3.997770e-01 -3.788298e-01 -3.540781e-01 -3.235616e-01 -2.871990e-01 -2.500160e-01 -2.072618e-01 -1.703609e-01 -1.311020e-01 -1.059650e-01 -7.884559e-02 -7.165279e-02 -5.387300e-02 -4.723977e-02 -3.636131e-02 -3.443504e-02 -1.827907e-02 -1.840228e-02 1.336323e-03 3.527325e-03 2.422743e-02 3.147860e-02 4.941500e-02 5.396618e-02 5.797739e-02 5.668936e-02 5.260364e-02 4.916576e-02 4.224103e-02 3.878292e-02 3.155392e-02 2.886445e-02 2.241557e-02 2.073634e-02 1.549886e-02 1.486772e-02 1.096743e-02 1.133777e-02 8.747988e-03 1.003089e-02 8.645050e-03 1.072562e-02 1.039379e-02 1.313833e-02 1.368622e-02 1.694637e-02 
1.724026e-02 2.130086e-02 2.452550e-02 2.877372e-02 3.239724e-02 3.665032e-02 4.043706e-02 4.452043e-02 4.824938e-02 5.200787e-02 5.548512e-02 5.879456e-02 6.186580e-02 6.464395e-02 6.720607e-02 6.942210e-02 7.143277e-02 7.311455e-02 7.459924e-02 7.583801e-02 7.689379e-02 7.784580e-02 7.864146e-02 7.952616e-02 8.029811e-02 8.139225e-02 8.243533e-02 8.406172e-02 8.571377e-02 8.822353e-02 9.084233e-02 9.458877e-02 9.851999e-02 1.038231e-01 1.093584e-01 1.164591e-01 1.237854e-01 1.327913e-01 1.419320e-01 1.527572e-01 1.635120e-01 1.758182e-01 1.877083e-01 2.008563e-01 2.130863e-01 2.261116e-01 2.375634e-01 2.491921e-01 2.584673e-01 2.671890e-01 2.727151e-01 2.769257e-01 2.771335e-01 2.753462e-01 2.689076e-01 2.600066e-01 2.460892e-01 2.295689e-01 2.080322e-01 1.841403e-01 1.555840e-01 1.252937e-01 9.090484e-02 5.570408e-02 1.694810e-02 -2.147058e-02 -6.316361e-02 -1.031542e-01 -1.465228e-01 -1.865139e-01 -2.303091e-01 -2.685557e-01 -3.111210e-01 -3.453105e-01 -3.841003e-01 -4.111617e-01 -4.425831e-01 -4.591170e-01 -4.790466e-01 -4.824547e-01 -4.873150e-01 -4.769483e-01 -4.646450e-01 -4.418258e-01 -4.120098e-01 -3.785546e-01 -3.330935e-01 -2.903923e-01 -2.367978e-01 -1.895921e-01 -1.444662e-01 -1.067412e-01 -7.922616e-02 -6.854411e-02 -5.119066e-02 -4.831968e-02 -3.793017e-02 -3.849291e-02 -2.267108e-02 -2.529199e-02 -5.191730e-03 -4.727040e-03 1.727359e-02 2.604435e-02 4.837042e-02 5.314157e-02 5.520984e-02 5.283725e-02 4.660816e-02 4.277082e-02 3.455040e-02 3.117428e-02 2.324942e-02 2.081283e-02 1.405349e-02 1.266946e-02 7.414372e-03 7.090427e-03 3.432993e-03 4.125774e-03 2.027881e-03 3.657817e-03 3.004783e-03 5.462897e-03 6.092172e-03 9.244605e-03 1.096140e-02 1.465340e-02 
2.100926e-02 2.600234e-02 2.860823e-02 3.382111e-02 3.678722e-02 4.200867e-02 4.509408e-02 5.011821e-02 5.309889e-02 5.773890e-02 6.042090e-02 6.452323e-02 6.675577e-02 7.021339e-02 7.190085e-02 7.466474e-02 7.577661e-02 7.786459e-02 7.844268e-02 7.994529e-02 8.010778e-02 8.119074e-02 8.113271e-02 8.203575e-02 8.202567e-02 8.305702e-02 8.342820e-02 8.495352e-02 8.608920e-02 8.851339e-02 9.082361e-02 9.456333e-02 9.845170e-02 1.038968e-01 1.097158e-01 1.171789e-01 1.251733e-01 1.348271e-01 1.450676e-01 1.568748e-01 1.691863e-01 1.828265e-01 1.967188e-01 2.115250e-01 2.261396e-01 2.410581e-01 2.551469e-01 2.687423e-01 2.807001e-01 2.912268e-01 2.991991e-01 3.047595e-01 3.068407e-01 3.056346e-01 3.001496e-01 2.907879e-01 2.766132e-01 2.584235e-01 2.352544e-01 2.084717e-01 1.769192e-01 1.426610e-01 1.041007e-01 6.411507e-02 2.033273e-02 -2.336703e-02 -7.055659e-02 -1.159818e-01 -1.649349e-01 -2.101728e-01 -2.593119e-01 -3.022764e-01 -3.496677e-01 -3.876570e-01 -4.304399e-01 -4.598833e-01 -4.940191e-01 -5.109671e-01 -5.318482e-01 -5.333671e-01 -5.372409e-01 -5.228263e-01 -5.080595e-01 -4.795169e-01 -4.465320e-01 -4.058722e-01 -3.561471e-01 -3.046276e-01 -2.436792e-01 -1.891082e-01 -1.343247e-01 -9.882010e-02 -6.650282e-02 -7.440481e-02 -5.260436e-02 -3.780736e-02 -3.597384e-02 -3.633981e-02 -1.472770e-02 -2.272038e-02 2.985822e-03 -2.544924e-03 2.237783e-02 3.101862e-02 5.825175e-02 6.345488e-02 6.217553e-02 5.922412e-02 5.069398e-02 4.716983e-02 3.769665e-02 3.492490e-02 2.617736e-02 2.435145e-02 1.693536e-02 1.612604e-02 1.028451e-02 1.052788e-02 6.316156e-03 7.605709e-03 4.966966e-03 7.251301e-03 6.059108e-03 9.245298e-03 9.327843e-03 1.328617e-02 1.444020e-02 1.900930e-02 
1.856814e-02 2.404830e-02 2.856804e-02 3.425496e-02 3.924611e-02 4.490982e-02 5.007053e-02 5.548408e-02 6.052467e-02 6.548041e-02 7.014109e-02 7.446744e-02 7.853620e-02 8.211325e-02 8.544229e-02 8.821525e-02 9.073466e-02 9.272422e-02 9.445207e-02 9.576117e-02 9.680939e-02 9.762636e-02 9.820208e-02 9.879972e-02 9.920172e-02 9.993176e-02 1.005409e-01 1.018224e-01 1.030848e-01 1.053848e-01 1.077851e-01 1.115884e-01 1.156123e-01 1.213786e-01 1.274602e-01 1.355667e-01 1.440234e-01 1.546933e-01 1.656469e-01 1.788669e-01 1.921586e-01 2.075920e-01 2.226988e-01 2.396075e-01 2.555750e-01 2.727666e-01 2.881786e-01 3.040035e-01 3.170139e-01 3.294406e-01 3.378974e-01 3.446934e-01 3.463790e-01 3.454107e-01 3.383963e-01 3.280227e-01 3.110872e-01 2.905634e-01 2.635493e-01 2.332914e-01 1.972194e-01 1.587744e-01 1.155782e-01 7.124120e-02 2.317230e-02 -2.461325e-02 -7.561948e-02 -1.247806e-01 -1.774114e-01 -2.263461e-01 -2.796842e-01 -3.267876e-01 -3.795423e-01 -4.223063e-01 -4.717538e-01 -5.060515e-01 -5.474042e-01 -5.679583e-01 -5.950760e-01 -5.976409e-01 -6.050585e-01 -5.891294e-01 -5.738068e-01 -5.431382e-01 -5.041776e-01 -4.629211e-01 -3.999992e-01 -3.468069e-01 -2.675313e-01 -2.009345e-01 -1.436032e-01 -8.181663e-02 -5.350958e-02 -5.297159e-02 -3.351554e-02 -3.465658e-02 -3.052123e-02 -3.395622e-02 -1.495158e-02 -2.784818e-02 -3.628516e-03 -1.473173e-02 7.048681e-03 1.560059e-02 5.060939e-02 5.456502e-02 4.711351e-02 4.416530e-02 3.382788e-02 3.165816e-02 2.173892e-02 2.022212e-02 1.141963e-02 1.054742e-02 3.293431e-03 3.210063e-03 -2.263802e-03 -1.434319e-03 -5.057771e-03 -3.257357e-03 -5.071440e-03 -2.308663e-03 -2.430463e-03 1.227717e-03 2.625468e-03 7.061977e-03 9.762463e-03 1.481773e-02 
2.228887e-02 2.887305e-02 3.259729e-02 3.942662e-02 4.355650e-02 5.036862e-02 5.460210e-02 6.113268e-02 6.518152e-02 7.118391e-02 7.479212e-02 8.005724e-02 8.301953e-02 8.739455e-02 8.957312e-02 9.297730e-02 9.431566e-02 9.675262e-02 9.728577e-02 9.885161e-02 9.871212e-02 9.959954e-02 9.901951e-02 9.951788e-02 9.882643e-02 9.931716e-02 9.893254e-02 9.987859e-02 1.002932e-01 1.022203e-01 1.039757e-01 1.074426e-01 1.110922e-01 1.166459e-01 1.227016e-01 1.308160e-01 1.396777e-01 1.506744e-01 1.625441e-01 1.764977e-01 1.912801e-01 2.079147e-01 2.251162e-01 2.437053e-01 2.623438e-01 2.816328e-01 3.001819e-01 3.183619e-01 3.347600e-01 3.495296e-01 3.612933e-01 3.700490e-01 3.745278e-01 3.747103e-01 3.694970e-01 3.590741e-01 3.425214e-01 3.205039e-01 2.922004e-01 2.589916e-01 2.199637e-01 1.773260e-01 1.297746e-01 8.035679e-02 2.698037e-02 -2.637431e-02 -8.311326e-02 -1.379209e-01 -1.961958e-01 -2.504576e-01 -3.089649e-01 -3.607286e-01 -4.179754e-01 -4.643607e-01 -5.174336e-01 -5.537245e-01 -5.973442e-01 -6.174493e-01 -6.446842e-01 -6.438191e-01 -6.487602e-01 -6.267635e-01 -6.072971e-01 -5.689594e-01 -5.267835e-01 -4.765172e-01 -4.120668e-01 -3.460506e-01 -2.612049e-01 -1.818397e-01 -1.129681e-01 -5.808237e-02 -2.401584e-02 -8.218881e-02 -4.986266e-02 7.553100e-03 -1.692795e-02 -3.113812e-02 9.015312e-03 -1.602492e-02 1.577492e-02 -8.108064e-03 1.313284e-02 1.279286e-02 4.388458e-02 5.058616e-02 3.915513e-02 4.043104e-02 2.994976e-02 3.061740e-02 2.060519e-02 2.086253e-02 1.182024e-02 1.215851e-02 4.586831e-03 5.438112e-03 -4.080251e-04 1.238261e-03 -2.811735e-03 -2.196890e-04 -2.517966e-03 1.067678e-03 4.017586e-04 4.946492e-03 5.738952e-03 1.113984e-02 1.317286e-02 1.926928e-02 
1.818799e-02 2.530460e-02 3.141033e-02 3.875578e-02 4.540521e-02 5.269634e-02 5.951295e-02 6.646048e-02 7.307352e-02 7.940488e-02 8.547394e-02 9.095646e-02 9.619628e-02 1.006589e-01 1.048621e-01 1.082135e-01 1.112695e-01 1.135124e-01 1.154211e-01 1.166613e-01 1.175415e-01 1.179929e-01 1.180856e-01 1.180708e-01 1.177363e-01 1.176824e-01 1.173922e-01 1.178206e-01 1.181409e-01 1.196483e-01 1.212118e-01 1.244390e-01 1.279031e-01 1.334866e-01 1.394730e-01 1.479769e-01 1.569910e-01 1.688173e-01 1.811477e-01 1.964275e-01 2.120301e-01 2.305023e-01 2.488788e-01 2.697688e-01 2.898558e-01 3.117767e-01 3.318703e-01 3.527781e-01 3.705316e-01 3.877787e-01 4.003225e-01 4.108639e-01 4.151043e-01 4.159026e-01 4.090334e-01 3.976585e-01 3.778435e-01 3.531584e-01 3.201947e-01 2.828671e-01 2.384769e-01 1.909861e-01 1.383857e-01 8.434931e-02 2.711497e-02 -2.984151e-02 -8.902514e-02 -1.463220e-01 -2.062878e-01 -2.626829e-01 -3.234898e-01 -3.782813e-01 -4.399585e-01 -4.911417e-01 -5.515509e-01 -5.938156e-01 -6.468264e-01 -6.716002e-01 -7.078848e-01 -7.073620e-01 -7.183460e-01 -6.916993e-01 -6.732004e-01 -6.296044e-01 -5.810870e-01 -5.335238e-01 -4.484371e-01 -3.945100e-01 -2.666159e-01 -1.826798e-01 -1.366778e-01 -3.974282e-02 -1.517873e-02 2.287868e-02 7.761883e-03 -3.200517e-02 2.549143e-02 -1.087882e-02 1.439797e-02 -8.177148e-03 9.606773e-03 -1.395685e-02 6.476329e-03 -1.749018e-02 -1.153742e-02 3.488014e-03 -1.455733e-03 9.194648e-03 1.604936e-03 6.589545e-03 -2.512740e-03 -8.674960e-06 -8.565416e-03 -6.835566e-03 -1.389265e-02 -1.206523e-02 -1.724051e-02 -1.484336e-02 -1.801326e-02 -1.479442e-02 -1.596867e-02 -1.181930e-02 -1.109384e-02 -6.011028e-03 -3.550175e-03 2.383728e-03 6.354936e-03 1.298630e-02 
2.187784e-02 3.027935e-02 3.539943e-02 4.408374e-02 4.965539e-02 5.830047e-02 6.395185e-02 7.222242e-02 7.758854e-02 8.516286e-02 8.991083e-02 9.650807e-02 1.003625e-01 1.057681e-01 1.085339e-01 1.126210e-01 1.142025e-01 1.169480e-01 1.173618e-01 1.188570e-01 1.182411e-01 1.186979e-01 1.173149e-01 1.170667e-01 1.153034e-01 1.148033e-01 1.131643e-01 1.129762e-01 1.120716e-01 1.128542e-01 1.133750e-01 1.158521e-01 1.185318e-01 1.234450e-01 1.290001e-01 1.370383e-01 1.460850e-01 1.577885e-01 1.707353e-01 1.863738e-01 2.032912e-01 2.227232e-01 2.432004e-01 2.657229e-01 2.887267e-01 3.129396e-01 3.366996e-01 3.604192e-01 3.823829e-01 4.026593e-01 4.195775e-01 4.328924e-01 4.411151e-01 4.438365e-01 4.398850e-01 4.290009e-01 4.103976e-01 3.844001e-01 3.505382e-01 3.100993e-01 2.626985e-01 2.106557e-01 1.533230e-01 9.378351e-02 3.071152e-02 -3.224306e-02 -9.765344e-02 -1.609634e-01 -2.267788e-01 -2.886704e-01 -3.543647e-01 -4.137352e-01 -4.792424e-01 -5.337917e-01 -5.971442e-01 -6.409069e-01 -6.955771e-01 -7.186903e-01 -7.539944e-01 -7.477229e-01 -7.536508e-01 -7.178818e-01 -6.907987e-01 -6.365212e-01 -5.820058e-01 -5.226644e-01 -4.405576e-01 -3.647727e-01 -2.405621e-01 -1.185229e-01 -5.612347e-02 -4.384049e-02 -5.000186e-02 -2.197758e-02 7.206862e-02 1.826413e-02 8.545987e-03 6.914559e-04 9.586426e-03 -1.193984e-02 1.058473e-02 -8.424899e-03 1.761791e-02 -1.892486e-02 -1.549146e-02 -7.162755e-03 -7.291710e-03 5.411365e-03 -1.959978e-03 5.132319e-03 -4.257569e-03 -1.623584e-04 -8.941135e-03 -5.993645e-03 -1.325090e-02 -1.042172e-02 -1.585123e-02 -1.255081e-02 -1.606964e-02 -1.196252e-02 -1.359587e-02 -8.515746e-03 -8.362339e-03 -2.270044e-03 -4.915526e-04 6.548151e-03 9.731206e-03 1.756531e-02 
1.594959e-02 2.492381e-02 3.293626e-02 4.218238e-02 5.082643e-02 5.999729e-02 6.880860e-02 7.753758e-02 8.604642e-02 9.397819e-02 1.017428e-01 1.085649e-01 1.152055e-01 1.206773e-01 1.259071e-01 1.298847e-01 1.335351e-01 1.359891e-01 1.380277e-01 1.390554e-01 1.395974e-01 1.394291e-01 1.387418e-01 1.377433e-01 1.362456e-01 1.349164e-01 1.331725e-01 1.321391e-01 1.308445e-01 1.308450e-01 1.308005e-01 1.326554e-01 1.347246e-01 1.392872e-01 1.443301e-01 1.524097e-01 1.611888e-01 1.734442e-01 1.865006e-01 2.033015e-01 2.208038e-01 2.420675e-01 2.636428e-01 2.886565e-01 3.132189e-01 3.404718e-01 3.660748e-01 3.931371e-01 4.168975e-01 4.404081e-01 4.585753e-01 4.744340e-01 4.827139e-01 4.865884e-01 4.808400e-01 4.690574e-01 4.463894e-01 4.171066e-01 3.771346e-01 3.313582e-01 2.769523e-01 2.186985e-01 1.553459e-01 9.047523e-02 2.408365e-02 -4.177908e-02 -1.073362e-01 -1.709073e-01 -2.348687e-01 -2.958847e-01 -3.602201e-01 -4.202933e-01 -4.880249e-01 -5.472831e-01 -6.185675e-01 -6.707894e-01 -7.382169e-01 -7.689462e-01 -8.178941e-01 -8.114952e-01 -8.281230e-01 -7.807197e-01 -7.588740e-01 -6.873022e-01 -6.306530e-01 -5.699250e-01 -4.579438e-01 -4.274277e-01 -1.664044e-01 -4.681424e-02 -6.007846e-02 3.245328e-02 1.089722e-01 5.577230e-02 -1.056029e-01 -6.596559e-02 -1.990095e-02 -6.878564e-02 -1.331141e-02 -3.966510e-02 -3.997587e-03 -2.663302e-02 -3.672754e-03 -2.480594e-02 -2.885130e-03 -8.571461e-03 -2.081624e-02 -1.341954e-02 -2.565911e-02 -1.861247e-02 -2.923476e-02 -2.409274e-02 -3.284466e-02 -2.884173e-02 -3.557879e-02 -3.186599e-02 -3.648489e-02 -3.245276e-02 -3.489815e-02 -3.015989e-02 -3.043458e-02 -2.477753e-02 -2.295136e-02 -1.630204e-02 -1.251897e-02 -4.920963e-03 5.965536e-04 8.998390e-03 
1.966837e-02 3.011412e-02 3.692476e-02 4.772432e-02 5.504972e-02 6.580780e-02 7.319330e-02 8.348545e-02 9.047153e-02 9.987982e-02 1.060362e-01 1.141861e-01 1.191462e-01 1.257405e-01 1.292325e-01 1.340797e-01 1.359511e-01 1.389858e-01 1.392209e-01 1.405168e-01 1.392471e-01 1.390244e-01 1.365337e-01 1.351616e-01 1.318875e-01 1.298846e-01 1.264158e-01 1.244464e-01 1.215146e-01 1.203776e-01 1.188379e-01 1.194425e-01 1.202378e-01 1.235578e-01 1.276571e-01 1.346554e-01 1.429608e-01 1.544787e-01 1.676964e-01 1.843041e-01 2.027805e-01 2.245919e-01 2.481208e-01 2.745825e-01 3.021959e-01 3.318678e-01 3.616352e-01 3.920023e-01 4.208831e-01 4.482690e-01 4.721062e-01 4.918132e-01 5.056109e-01 5.124606e-01 5.111270e-01 5.005455e-01 4.802006e-01 4.497564e-01 4.093589e-01 3.601390e-01 3.025626e-01 2.392729e-01 1.706107e-01 9.979120e-02 2.672917e-02 -4.567905e-02 -1.184360e-01 -1.887155e-01 -2.591864e-01 -3.261794e-01 -3.951004e-01 -4.597423e-01 -5.300349e-01 -5.923214e-01 -6.651867e-01 -7.183044e-01 -7.865749e-01 -8.138374e-01 -8.609758e-01 -8.453262e-01 -8.542368e-01 -7.943264e-01 -7.552890e-01 -6.708209e-01 -5.975539e-01 -5.232539e-01 -4.044212e-01 -3.149753e-01 -1.724639e-01 -9.049459e-02 7.404579e-03 7.880355e-02 -1.392122e-01 -1.894510e-01 4.030316e-02 1.103482e-03 2.320602e-02 2.705492e-03 1.750359e-02 -9.056081e-03 2.145839e-02 -1.078090e-02 1.919111e-02 -2.606658e-03 1.065770e-02 2.096914e-02 -1.287569e-02 -4.830996e-03 -2.382876e-02 -1.641703e-02 -2.897387e-02 -2.312110e-02 -3.240585e-02 -2.759944e-02 -3.453569e-02 -3.001540e-02 -3.483991e-02 -2.998710e-02 -3.275630e-02 -2.714566e-02 -2.789722e-02 -2.127659e-02 -2.008698e-02 -1.235325e-02 -9.362060e-03 -5.435962e-04 4.035376e-03 1.379238e-02 
1.171357e-02 2.276160e-02 3.302335e-02 4.443070e-02 5.545018e-02 6.678987e-02 7.799637e-02 8.880353e-02 9.960355e-02 1.094158e-01 1.192381e-01 1.276380e-01 1.359798e-01 1.426338e-01 1.491026e-01 1.537934e-01 1.581408e-01 1.607900e-01 1.629339e-01 1.636162e-01 1.636547e-01 1.626051e-01 1.608220e-01 1.584394e-01 1.553055e-01 1.521539e-01 1.483238e-01 1.451316e-01 1.414347e-01 1.390869e-01 1.365083e-01 1.360246e-01 1.356660e-01 1.381550e-01 1.411681e-01 1.477479e-01 1.552296e-01 1.669056e-01 1.797516e-01 1.972483e-01 2.159644e-01 2.395143e-01 2.639916e-01 2.930889e-01 3.223562e-01 3.554954e-01 3.874698e-01 4.219027e-01 4.531839e-01 4.847713e-01 5.105736e-01 5.338720e-01 5.482754e-01 5.570877e-01 5.538854e-01 5.425222e-01 5.169163e-01 4.821884e-01 4.331767e-01 3.764666e-01 3.087459e-01 2.366284e-01 1.598234e-01 8.199450e-02 6.216714e-03 -6.818327e-02 -1.372971e-01 -2.039251e-01 -2.664661e-01 -3.269232e-01 -3.878192e-01 -4.483831e-01 -5.162794e-01 -5.827278e-01 -6.637695e-01 -7.306723e-01 -8.168976e-01 -8.594731e-01 -9.269251e-01 -9.136734e-01 -9.412495e-01 -8.596802e-01 -8.365026e-01 -7.058220e-01 -6.581260e-01 -5.455792e-01 -4.286041e-01 -3.333879e-01 -6.296769e-02 8.216831e-02 9.524178e-02 -1.303264e-01 -1.544661e-01 -5.046779e-02 3.382730e-02 -2.403795e-02 -9.296427e-03 -3.542745e-02 9.776936e-03 -2.335061e-02 1.047149e-02 -2.063355e-02 1.360136e-02 -2.048390e-02 -4.944191e-02 -9.339218e-03 -4.794640e-02 -3.258055e-02 -5.327893e-02 -4.393744e-02 -5.695623e-02 -5.015617e-02 -5.923688e-02 -5.368696e-02 -6.003806e-02 -5.486845e-02 -5.881537e-02 -5.338357e-02 -5.497604e-02 -4.883259e-02 -4.806758e-02 -4.093261e-02 -3.784343e-02 -2.958855e-02 -2.428597e-02 -1.492179e-02 -7.615057e-03 2.719050e-03 