# vtk DataFile Version 2.0
Comment goes here
ASCII

DATASET STRUCTURED_POINTS
DIMENSIONS    128   128   1

ORIGIN    0.000   0.000   0.000
SPACING   0.0156250.015625   1.000

POINT_DATA   16384
SCALARS uY double
LOOKUP_TABLE default

4.614091e-05 3.939144e-05 5.094244e-05 4.373634e-05 5.559370e-05 4.797045e-05 6.001422e-05 5.202376e-05 6.412532e-05 5.583037e-05 6.785558e-05 5.933436e-05 7.114749e-05 6.249633e-05 7.396437e-05 6.529975e-05 7.629677e-05 6.775627e-05 7.816732e-05 6.990895e-05 7.963315e-05 7.183286e-05 8.078533e-05 7.363241e-05 8.174478e-05 7.543511e-05 8.265458e-05 7.738205e-05 8.366895e-05 7.961529e-05 8.493927e-05 8.226294e-05 8.659808e-05 8.542280e-05 8.874182e-05 8.914540e-05 9.141337e-05 9.341763e-05 9.458530e-05 9.814762e-05 9.814495e-05 1.031522e-04 1.018822e-04 1.081472e-04 1.054810e-04 1.127433e-04 1.085168e-04 1.164464e-04 1.104600e-04 1.186669e-04 1.106897e-04 1.187377e-04 1.085159e-04 1.159427e-04 1.032151e-04 1.095558e-04 9.407446e-05 9.889100e-05 8.044833e-05 8.336176e-05 6.182389e-05 6.255337e-05 3.790152e-05 3.631163e-05 8.693931e-06 4.852408e-06 -2.535413e-05 -3.111219e-05 -6.323697e-05 -7.025280e-05 -1.032817e-04 -1.105485e-04 -1.431140e-04 -1.493114e-04 -1.797482e-04 -1.833553e-04 -2.098401e-04 -2.093313e-04 -2.301121e-04 -2.242236e-04 -2.379250e-04 -2.259583e-04 -2.319186e-04 -2.140193e-04 -2.125704e-04 -1.898879e-04 -1.824471e-04 -1.570639e-04 -1.459048e-04 -1.204559e-04 -1.081371e-04 -8.516810e-05 -7.382833e-05 -5.514019e-05 -4.602662e-05 -3.234498e-05 -2.572489e-05 -1.681553e-05 -1.226619e-05 -7.297614e-06 -4.129393e-06 -2.061841e-06 4.136704e-07 5.657238e-07 2.942650e-06 1.959517e-06 4.703358e-06 3.066472e-06 6.482635e-06 4.417576e-06 8.670565e-06 6.242696e-06 1.139985e-05 8.595578e-06 1.466607e-05 1.144334e-05 1.840412e-05 1.471863e-05 2.252914e-05 1.834610e-05 2.695548e-05 2.225342e-05 3.160312e-05 2.637394e-05 3.639770e-05 3.064514e-05 4.126766e-05 3.500545e-05 
9.364682e-03 8.709677e-03 7.834801e-03 7.151657e-03 6.250898e-03 5.557207e-03 4.647619e-03 3.961373e-03 3.061608e-03 2.401357e-03 1.531565e-03 9.162292e-04 9.762021e-05 -4.539306e-04 -1.199735e-03 -1.669186e-03 -2.320845e-03 -2.690918e-03 -3.228004e-03 -3.482806e-03 -3.886293e-03 -4.011531e-03 -4.264142e-03 -4.247211e-03 -4.333695e-03 -4.163772e-03 -4.071226e-03 -3.739523e-03 -3.457946e-03 -2.958304e-03 -2.481545e-03 -1.811547e-03 -1.138806e-03 -3.015188e-04 5.605548e-04 1.554197e-03 2.588855e-03 3.717167e-03 4.894610e-03 6.122119e-03 7.396667e-03 8.671473e-03 9.979530e-03 1.123186e-02 1.249150e-02 1.363438e-02 1.474752e-02 1.568050e-02 1.653835e-02 1.715496e-02 1.764717e-02 1.784589e-02 1.787277e-02 1.757046e-02 1.705629e-02 1.620138e-02 1.510610e-02 1.368820e-02 1.201377e-02 1.006649e-02 7.855892e-03 5.451842e-03 2.781140e-03 2.142770e-05 -3.011046e-03 -6.007206e-03 -9.288114e-03 -1.238733e-02 -1.578640e-02 -1.883482e-02 -2.219202e-02 -2.500078e-02 -2.810746e-02 -3.043900e-02 -3.302557e-02 -3.459705e-02 -3.634603e-02 -3.686798e-02 -3.746945e-02 -3.672798e-02 -3.597767e-02 -3.394368e-02 -3.185393e-02 -2.877213e-02 -2.563935e-02 -2.203687e-02 -1.841250e-02 -1.499044e-02 -1.153910e-02 -8.957829e-03 -6.223699e-03 -4.837342e-03 -2.993563e-03 -2.674640e-03 -1.466544e-03 -1.738303e-03 -7.247820e-04 -1.071965e-03 1.301296e-04 1.054403e-04 1.645389e-03 2.153186e-03 3.960393e-03 4.974330e-03 6.810476e-03 8.061800e-03 9.628911e-03 1.081693e-02 1.197208e-02 1.293745e-02 1.368031e-02 1.437453e-02 1.475975e-02 1.518539e-02 1.527515e-02 1.545623e-02 1.530705e-02 1.527696e-02 1.493737e-02 1.473205e-02 1.424211e-02 1.389557e-02 1.328715e-02 1.282916e-02 1.212712e-02 1.158288e-02 1.080694e-02 1.019785e-02 
1.822178e-02 1.688091e-02 1.532753e-02 1.392440e-02 1.233161e-02 1.090228e-02 9.300050e-03 7.881599e-03 6.302718e-03 4.933460e-03 3.413556e-03 2.132622e-03 7.094918e-04 -4.440780e-04 -1.731536e-03 -2.719877e-03 -3.832861e-03 -4.620290e-03 -5.521198e-03 -6.074972e-03 -6.728277e-03 -7.019028e-03 -7.391929e-03 -7.393865e-03 -7.456839e-03 -7.147935e-03 -6.875449e-03 -6.237947e-03 -5.609670e-03 -4.631262e-03 -3.634115e-03 -2.310173e-03 -9.414959e-04 7.214480e-04 2.449505e-03 4.428983e-03 6.483996e-03 8.735850e-03 1.105907e-02 1.351139e-02 1.601199e-02 1.855989e-02 2.111094e-02 2.361370e-02 2.605142e-02 2.833394e-02 3.046229e-02 3.232271e-02 3.392481e-02 3.514956e-02 3.600662e-02 3.639285e-02 3.630930e-02 3.569215e-02 3.452325e-02 3.280288e-02 3.047818e-02 2.763927e-02 2.417477e-02 2.029164e-02 1.578531e-02 1.100989e-02 5.621564e-03 1.590565e-04 -5.916059e-03 -1.183194e-02 -1.838127e-02 -2.449849e-02 -3.128764e-02 -3.732192e-02 -4.406294e-02 -4.966278e-02 -5.596537e-02 -6.067580e-02 -6.600933e-02 -6.927037e-02 -7.297942e-02 -7.419946e-02 -7.561309e-02 -7.433552e-02 -7.297714e-02 -6.910360e-02 -6.494291e-02 -5.891250e-02 -5.253787e-02 -4.534286e-02 -3.792377e-02 -3.091071e-02 -2.388742e-02 -1.838876e-02 -1.292729e-02 -9.779060e-03 -6.215035e-03 -5.314792e-03 -3.126484e-03 -3.583567e-03 -1.814256e-03 -2.519029e-03 -3.794217e-04 -4.583097e-04 2.374543e-03 3.386590e-03 6.806221e-03 8.866040e-03 1.241589e-02 1.494846e-02 1.799033e-02 2.037782e-02 2.262306e-02 2.456087e-02 2.601496e-02 2.741424e-02 2.818445e-02 2.904900e-02 2.925490e-02 2.962912e-02 2.938082e-02 2.932884e-02 2.872253e-02 2.831470e-02 2.743053e-02 2.673399e-02 2.563566e-02 2.470944e-02 2.344609e-02 2.234033e-02 2.095010e-02 1.970766e-02 
2.791913e-02 2.597806e-02 2.333711e-02 2.130886e-02 1.858490e-02 1.652241e-02 1.376720e-02 1.172476e-02 8.995098e-03 7.028802e-03 4.386126e-03 2.553150e-03 6.210641e-05 -1.580618e-03 -3.854246e-03 -5.251659e-03 -7.243125e-03 -8.343525e-03 -9.991059e-03 -1.074718e-02 -1.199345e-02 -1.236301e-02 -1.315611e-02 -1.310199e-02 -1.339612e-02 -1.288647e-02 -1.264274e-02 -1.165148e-02 -1.083938e-02 -9.347857e-03 -7.947919e-03 -5.948001e-03 -3.956183e-03 -1.455407e-03 1.110648e-03 4.081905e-03 7.174826e-03 1.055453e-02 1.408809e-02 1.777307e-02 2.161324e-02 2.545069e-02 2.940891e-02 3.319127e-02 3.702245e-02 4.048865e-02 4.389690e-02 4.674293e-02 4.939762e-02 5.129863e-02 5.286211e-02 5.350623e-02 5.367160e-02 5.280200e-02 5.133554e-02 4.879271e-02 4.557133e-02 4.132439e-02 3.635674e-02 3.051271e-02 2.393554e-02 1.672221e-02 8.773020e-03 5.026102e-04 -8.518457e-03 -1.748630e-02 -2.724362e-02 -3.651748e-02 -4.663658e-02 -5.577401e-02 -6.580058e-02 -7.425818e-02 -8.359232e-02 -9.067216e-02 -9.851591e-02 -1.033597e-01 -1.087396e-01 -1.104342e-01 -1.123617e-01 -1.101931e-01 -1.079769e-01 -1.017908e-01 -9.541005e-02 -8.592437e-02 -7.627192e-02 -6.513040e-02 -5.393734e-02 -4.337470e-02 -3.277233e-02 -2.493424e-02 -1.671308e-02 -1.276824e-02 -7.473926e-03 -6.923660e-03 -3.611883e-03 -4.809256e-03 -2.021837e-03 -3.373024e-03 1.228957e-04 -1.871629e-04 4.409382e-03 5.804562e-03 1.125465e-02 1.433163e-02 1.989574e-02 2.374283e-02 2.841603e-02 3.203350e-02 3.543309e-02 3.836812e-02 4.055036e-02 4.267726e-02 4.381465e-02 4.513843e-02 4.540610e-02 4.599328e-02 4.555084e-02 4.550012e-02 4.448803e-02 4.390809e-02 4.244406e-02 4.143791e-02 3.961593e-02 3.827334e-02 3.616670e-02 3.456311e-02 3.222998e-02 3.042935e-02 
3.619853e-02 3.353947e-02 3.044108e-02 2.765037e-02 2.446415e-02 2.161443e-02 1.840095e-02 1.556724e-02 1.239315e-02 9.653207e-03 6.591092e-03 4.024355e-03 1.151182e-03 -1.163263e-03 -3.768479e-03 -5.754241e-03 -8.012997e-03 -9.598514e-03 -1.143510e-02 -1.255517e-02 -1.389841e-02 -1.449494e-02 -1.527934e-02 -1.530154e-02 -1.546812e-02 -1.487255e-02 -1.436995e-02 -1.312113e-02 -1.190767e-02 -9.980044e-03 -8.027493e-03 -5.409575e-03 -2.709256e-03 5.895530e-04 4.018001e-03 7.957814e-03 1.205527e-02 1.655381e-02 2.120900e-02 2.612871e-02 3.116577e-02 3.630217e-02 4.147120e-02 4.654570e-02 5.151980e-02 5.618098e-02 6.056394e-02 6.440143e-02 6.774978e-02 7.032418e-02 7.218564e-02 7.307486e-02 7.304141e-02 7.189911e-02 6.966702e-02 6.628233e-02 6.170512e-02 5.604721e-02 4.916416e-02 4.139472e-02 3.242099e-02 2.286627e-02 1.214478e-02 1.236248e-03 -1.082853e-02 -2.261683e-02 -3.560777e-02 -4.778913e-02 -6.127359e-02 -7.332060e-02 -8.678120e-02 -9.804187e-02 -1.107582e-01 -1.203555e-01 -1.312931e-01 -1.380873e-01 -1.458903e-01 -1.486042e-01 -1.517979e-01 -1.493692e-01 -1.468136e-01 -1.389130e-01 -1.303963e-01 -1.178742e-01 -1.045622e-01 -8.951364e-02 -7.392724e-02 -5.924806e-02 -4.461763e-02 -3.324733e-02 -2.226736e-02 -1.617487e-02 -9.481046e-03 -8.351218e-03 -4.616798e-03 -6.307874e-03 -3.254654e-03 -5.320868e-03 -1.263024e-03 -1.923874e-03 3.665977e-03 5.414142e-03 1.227746e-02 1.647532e-02 2.371094e-02 2.895512e-02 3.498897e-02 3.985285e-02 4.422657e-02 4.817342e-02 5.101458e-02 5.389962e-02 5.543007e-02 5.724779e-02 5.768080e-02 5.850756e-02 5.804499e-02 5.800706e-02 5.683303e-02 5.607379e-02 5.434470e-02 5.300084e-02 5.084130e-02 4.903186e-02 4.653761e-02 4.436276e-02 4.160794e-02 3.915292e-02 
4.619909e-02 4.299655e-02 3.861361e-02 3.525380e-02 3.071665e-02 2.728861e-02 2.268478e-02 1.928050e-02 1.470676e-02 1.142159e-02 6.982923e-03 3.914144e-03 -2.791112e-04 -3.034883e-03 -6.870796e-03 -9.220636e-03 -1.258963e-02 -1.444699e-02 -1.724524e-02 -1.853175e-02 -2.066359e-02 -2.130984e-02 -2.268914e-02 -2.263459e-02 -2.318546e-02 -2.237803e-02 -2.203560e-02 -2.043193e-02 -1.914411e-02 -1.671153e-02 -1.444290e-02 -1.116413e-02 -7.902771e-03 -3.784197e-03 4.479632e-04 5.364308e-03 1.049777e-02 1.611887e-02 2.202045e-02 2.818526e-02 3.464166e-02 4.110498e-02 4.780932e-02 5.423069e-02 6.077657e-02 6.671943e-02 7.260783e-02 7.755473e-02 8.221923e-02 8.560799e-02 8.846152e-02 8.974407e-02 9.024614e-02 8.896498e-02 8.670045e-02 8.256900e-02 7.732037e-02 7.028483e-02 6.207484e-02 5.233362e-02 4.141834e-02 2.938678e-02 1.619775e-02 2.430083e-03 -1.250946e-02 -2.740268e-02 -4.354240e-02 -5.893450e-02 -7.570060e-02 -9.091635e-02 -1.076361e-01 -1.218488e-01 -1.376120e-01 -1.497120e-01 -1.632298e-01 -1.717570e-01 -1.813367e-01 -1.846127e-01 -1.883968e-01 -1.849681e-01 -1.815121e-01 -1.708669e-01 -1.599148e-01 -1.431798e-01 -1.262276e-01 -1.063671e-01 -8.656839e-02 -6.777307e-02 -4.915400e-02 -3.559855e-02 -2.176788e-02 -1.586960e-02 -7.875701e-03 -8.314708e-03 -3.795363e-03 -6.920255e-03 -3.066563e-03 -6.236843e-03 -6.577368e-04 -1.961625e-03 5.657805e-03 7.456095e-03 1.658792e-02 2.182123e-02 3.129688e-02 3.803340e-02 4.567973e-02 5.186866e-02 5.732306e-02 6.235371e-02 6.589436e-02 6.959853e-02 7.149675e-02 7.385437e-02 7.435025e-02 7.545557e-02 7.478591e-02 7.480507e-02 7.319231e-02 7.231328e-02 6.994788e-02 6.834707e-02 6.538097e-02 6.320950e-02 5.976036e-02 5.714358e-02 5.330461e-02 5.034812e-02 
5.379864e-02 4.985225e-02 4.524806e-02 4.108555e-02 3.632760e-02 3.205926e-02 2.723980e-02 2.298055e-02 1.820208e-02 1.407160e-02 9.446184e-03 5.566797e-03 1.213158e-03 -2.293706e-03 -6.254195e-03 -9.272023e-03 -1.271959e-02 -1.514030e-02 -1.796044e-02 -1.968673e-02 -2.177271e-02 -2.271895e-02 -2.397318e-02 -2.406512e-02 -2.439978e-02 -2.357377e-02 -2.291156e-02 -2.111445e-02 -1.939075e-02 -1.658190e-02 -1.374952e-02 -9.906111e-03 -5.943921e-03 -1.070761e-03 4.003374e-03 9.859326e-03 1.597123e-02 2.270209e-02 2.970088e-02 3.711664e-02 4.475370e-02 5.256181e-02 6.047325e-02 6.826392e-02 7.596205e-02 8.320576e-02 9.008653e-02 9.615113e-02 1.015246e-01 1.057188e-01 1.088677e-01 1.105139e-01 1.107801e-01 1.093123e-01 1.061996e-01 1.012683e-01 9.453940e-02 8.609530e-02 7.582765e-02 6.414858e-02 5.071948e-02 3.635900e-02 2.035235e-02 4.021784e-03 -1.390838e-02 -3.147169e-02 -5.071135e-02 -6.881693e-02 -8.880634e-02 -1.067708e-01 -1.268896e-01 -1.438784e-01 -1.632187e-01 -1.780228e-01 -1.951307e-01 -2.060112e-01 -2.187639e-01 -2.235670e-01 -2.294114e-01 -2.261345e-01 -2.228411e-01 -2.106073e-01 -1.974090e-01 -1.774170e-01 -1.559969e-01 -1.317152e-01 -1.063248e-01 -8.259301e-02 -5.903733e-02 -4.088284e-02 -2.436604e-02 -1.576440e-02 -6.914116e-03 -6.984285e-03 -3.075900e-03 -7.512553e-03 -4.043914e-03 -8.667878e-03 -2.937227e-03 -5.232825e-03 2.979054e-03 4.688912e-03 1.485311e-02 2.134318e-02 3.258603e-02 4.093157e-02 4.971500e-02 5.722224e-02 6.348534e-02 6.964904e-02 7.382537e-02 7.843327e-02 8.077522e-02 8.375028e-02 8.449389e-02 8.593022e-02 8.534530e-02 8.544337e-02 8.379711e-02 8.278674e-02 8.030919e-02 7.840392e-02 7.527638e-02 7.265722e-02 6.901708e-02 6.583355e-02 6.178651e-02 5.816496e-02 
6.405756e-02 5.963294e-02 5.354690e-02 4.887663e-02 4.254141e-02 3.775191e-02 3.129286e-02 2.651618e-02 2.007327e-02 1.544711e-02 9.172777e-03 4.837782e-03 -1.107924e-03 -5.012620e-03 -1.046816e-02 -1.380983e-02 -1.861838e-02 -2.127495e-02 -2.528951e-02 -2.715221e-02 -3.023897e-02 -3.121306e-02 -3.325278e-02 -3.325660e-02 -3.414467e-02 -3.310792e-02 -3.275410e-02 -3.061675e-02 -2.894626e-02 -2.565981e-02 -2.261742e-02 -1.815027e-02 -1.370886e-02 -8.057080e-03 -2.231776e-03 4.564011e-03 1.169606e-02 1.952812e-02 2.780345e-02 3.647050e-02 4.561311e-02 5.479367e-02 6.439151e-02 7.362265e-02 8.311337e-02 9.178299e-02 1.004574e-01 1.078194e-01 1.148522e-01 1.200746e-01 1.245902e-01 1.268414e-01 1.280163e-01 1.265861e-01 1.237776e-01 1.182131e-01 1.110848e-01 1.013024e-01 8.990432e-02 7.622953e-02 6.098960e-02 4.409352e-02 2.570854e-02 6.456710e-03 -1.427436e-02 -3.498932e-02 -5.730269e-02 -7.865182e-02 -1.018471e-01 -1.230221e-01 -1.463476e-01 -1.663809e-01 -1.887859e-01 -2.062791e-01 -2.260997e-01 -2.389919e-01 -2.537549e-01 -2.593797e-01 -2.660328e-01 -2.617461e-01 -2.575683e-01 -2.420085e-01 -2.260742e-01 -2.006046e-01 -1.750189e-01 -1.443267e-01 -1.141175e-01 -8.511859e-02 -5.685871e-02 -3.670306e-02 -1.709366e-02 -1.067372e-02 -1.716466e-03 -5.630714e-03 -1.295538e-03 -7.566885e-03 -3.813299e-03 -9.861198e-03 -2.106256e-03 -5.686728e-03 4.969630e-03 5.845720e-03 1.833838e-02 2.578608e-02 3.945717e-02 4.966288e-02 5.977876e-02 6.880426e-02 7.603433e-02 8.352183e-02 8.843996e-02 9.407791e-02 9.685301e-02 1.005134e-01 1.013627e-01 1.031757e-01 1.024012e-01 1.026326e-01 1.005419e-01 9.948160e-02 9.633707e-02 9.424445e-02 9.025060e-02 8.733982e-02 8.265192e-02 7.909664e-02 7.383710e-02 6.978244e-02 
7.088585e-02 6.569600e-02 5.964331e-02 5.413035e-02 4.783144e-02 4.214502e-02 3.572568e-02 3.002369e-02 2.362554e-02 1.807350e-02 1.185210e-02 6.619414e-03 7.393737e-04 -4.006521e-03 -9.377909e-03 -1.347786e-02 -1.817716e-02 -2.148567e-02 -2.535865e-02 -2.774717e-02 -3.065208e-02 -3.200977e-02 -3.381849e-02 -3.405071e-02 -3.464827e-02 -3.367392e-02 -3.295783e-02 -3.070725e-02 -2.858849e-02 -2.500409e-02 -2.141170e-02 -1.645340e-02 -1.134460e-02 -5.001825e-03 1.621072e-03 9.309981e-03 1.737572e-02 2.629699e-02 3.563578e-02 4.556857e-02 5.587975e-02 6.646351e-02 7.728574e-02 8.799301e-02 9.868477e-02 1.088088e-01 1.185495e-01 1.272185e-01 1.350424e-01 1.412728e-01 1.461468e-01 1.489451e-01 1.498950e-01 1.484067e-01 1.446816e-01 1.383647e-01 1.296037e-01 1.183797e-01 1.047214e-01 8.903517e-02 7.110368e-02 5.183920e-02 3.057726e-02 8.837952e-03 -1.475800e-02 -3.791090e-02 -6.302078e-02 -8.672964e-02 -1.127710e-01 -1.363403e-01 -1.628032e-01 -1.854345e-01 -2.114982e-01 -2.318559e-01 -2.558664e-01 -2.716523e-01 -2.907020e-01 -2.986102e-01 -3.086597e-01 -3.051490e-01 -3.021121e-01 -2.851245e-01 -2.669045e-01 -2.378643e-01 -2.064621e-01 -1.708747e-01 -1.329013e-01 -9.816934e-02 -6.332858e-02 -3.665070e-02 -1.523413e-02 -5.082258e-03 4.296168e-03 6.305252e-04 2.385353e-03 -6.864107e-03 -3.876470e-03 -1.238256e-02 -4.660855e-03 -1.030951e-02 4.263363e-04 8.504528e-05 1.237918e-02 2.123046e-02 3.708025e-02 4.915618e-02 5.982559e-02 7.035090e-02 7.833599e-02 8.734624e-02 9.306179e-02 9.992808e-02 1.032969e-01 1.077796e-01 1.089999e-01 1.112709e-01 1.107076e-01 1.111053e-01 1.091293e-01 1.080039e-01 1.049222e-01 1.025758e-01 9.862028e-02 9.529656e-02 9.063810e-02 8.653316e-02 8.130197e-02 7.658028e-02 
8.140026e-02 7.580548e-02 6.806807e-02 6.211376e-02 5.399845e-02 4.785034e-02 3.952341e-02 3.335716e-02 2.500680e-02 1.900711e-02 1.083916e-02 5.194949e-03 -2.574744e-03 -7.677489e-03 -1.483258e-02 -1.921843e-02 -2.555131e-02 -2.906178e-02 -3.438093e-02 -3.687818e-02 -4.101242e-02 -4.237968e-02 -4.517909e-02 -4.531796e-02 -4.665225e-02 -4.547836e-02 -4.523421e-02 -4.267318e-02 -4.075298e-02 -3.673936e-02 -3.306394e-02 -2.754568e-02 -2.206339e-02 -1.501416e-02 -7.718133e-03 8.412617e-04 9.887049e-03 1.985804e-02 3.048482e-02 4.165310e-02 5.354842e-02 6.554272e-02 7.821211e-02 9.046696e-02 1.032048e-01 1.149379e-01 1.268196e-01 1.370388e-01 1.469496e-01 1.545064e-01 1.612232e-01 1.649273e-01 1.672628e-01 1.660624e-01 1.630638e-01 1.562665e-01 1.474290e-01 1.349018e-01 1.203208e-01 1.025772e-01 8.294841e-02 6.104455e-02 3.746879e-02 1.271992e-02 -1.361626e-02 -3.996219e-02 -6.805910e-02 -9.500576e-02 -1.241292e-01 -1.508825e-01 -1.804129e-01 -2.061050e-01 -2.351550e-01 -2.583596e-01 -2.851742e-01 -3.033416e-01 -3.247028e-01 -3.339214e-01 -3.451363e-01 -3.408407e-01 -3.369882e-01 -3.160022e-01 -2.945925e-01 -2.580577e-01 -2.218414e-01 -1.770055e-01 -1.338625e-01 -9.178325e-02 -5.128577e-02 -2.296136e-02 2.542375e-03 6.047319e-03 1.186203e-02 -2.938595e-04 3.084438e-03 -5.865935e-03 -4.101742e-03 -1.370916e-02 -2.093220e-03 -9.979134e-03 4.054622e-03 5.959200e-04 1.451110e-02 2.343337e-02 4.112328e-02 5.585485e-02 6.717030e-02 7.989223e-02 8.910880e-02 1.001131e-01 1.068895e-01 1.151651e-01 1.191338e-01 1.244805e-01 1.258826e-01 1.286272e-01 1.279137e-01 1.285211e-01 1.261196e-01 1.250214e-01 1.212681e-01 1.188160e-01 1.139579e-01 1.104267e-01 1.046455e-01 1.002519e-01 9.369035e-02 8.861475e-02 
8.738435e-02 8.100503e-02 7.357732e-02 6.673805e-02 5.893592e-02 5.182810e-02 4.381373e-02 3.664259e-02 2.860147e-02 2.158412e-02 1.372118e-02 7.080182e-03 -3.880194e-04 -6.433832e-03 -1.328895e-02 -1.853414e-02 -2.456573e-02 -2.882624e-02 -3.383934e-02 -3.695706e-02 -4.077631e-02 -4.261929e-02 -4.508921e-02 -4.554801e-02 -4.653030e-02 -4.551186e-02 -4.488165e-02 -4.230327e-02 -3.994702e-02 -3.573364e-02 -3.155174e-02 -2.563965e-02 -1.955668e-02 -1.190644e-02 -3.891186e-03 5.488464e-03 1.539238e-02 2.640947e-02 3.804318e-02 5.047806e-02 6.352045e-02 7.697651e-02 9.089670e-02 1.047538e-01 1.187729e-01 1.321560e-01 1.452318e-01 1.570113e-01 1.678661e-01 1.767117e-01 1.839231e-01 1.884337e-01 1.906066e-01 1.895242e-01 1.855418e-01 1.780316e-01 1.673396e-01 1.532603e-01 1.360847e-01 1.161274e-01 9.348545e-02 6.905205e-02 4.246907e-02 1.527304e-02 -1.372055e-02 -4.215926e-02 -7.248479e-02 -1.011698e-01 -1.323512e-01 -1.607823e-01 -1.927321e-01 -2.205092e-01 -2.529601e-01 -2.790317e-01 -3.106085e-01 -3.323278e-01 -3.595170e-01 -3.721107e-01 -3.889113e-01 -3.863150e-01 -3.855308e-01 -3.632285e-01 -3.398641e-01 -2.991455e-01 -2.549319e-01 -2.052191e-01 -1.502781e-01 -1.032480e-01 -5.284756e-02 -1.427853e-02 7.705292e-03 1.659659e-02 2.552255e-02 1.577468e-02 1.114762e-02 -5.114063e-03 -1.741531e-03 -1.447562e-02 -2.770316e-03 -1.421457e-02 -4.460499e-04 -7.373602e-03 2.556059e-03 1.190077e-02 3.187792e-02 4.858087e-02 5.959864e-02 7.508623e-02 8.600334e-02 9.961790e-02 1.077513e-01 1.177567e-01 1.225314e-01 1.289085e-01 1.307930e-01 1.341053e-01 1.337236e-01 1.345808e-01 1.324515e-01 1.313625e-01 1.278658e-01 1.252234e-01 1.206268e-01 1.167303e-01 1.112236e-01 1.063078e-01 1.000354e-01 9.429733e-02 
9.820445e-02 9.150076e-02 8.217359e-02 7.496393e-02 6.508594e-02 5.757790e-02 4.736093e-02 3.977880e-02 2.946628e-02 2.204830e-02 1.190802e-02 4.898430e-03 -4.789367e-03 -1.115146e-02 -2.010823e-02 -2.560055e-02 -3.356303e-02 -3.798958e-02 -4.472013e-02 -4.791642e-02 -5.320837e-02 -5.504105e-02 -5.871848e-02 -5.907993e-02 -6.099285e-02 -5.979231e-02 -5.980965e-02 -5.696402e-02 -5.496767e-02 -5.039566e-02 -4.627958e-02 -3.990305e-02 -3.358089e-02 -2.533701e-02 -1.676126e-02 -6.627656e-03 4.178091e-03 1.614422e-02 2.904041e-02 4.265048e-02 5.732675e-02 7.220053e-02 8.811674e-02 1.036212e-01 1.199545e-01 1.351554e-01 1.507690e-01 1.644145e-01 1.778711e-01 1.884373e-01 1.980858e-01 2.039140e-01 2.080782e-01 2.076291e-01 2.049044e-01 1.971099e-01 1.867235e-01 1.713498e-01 1.534572e-01 1.313019e-01 1.070312e-01 7.977049e-02 5.088469e-02 2.054449e-02 -1.116803e-02 -4.284175e-02 -7.608249e-02 -1.079582e-01 -1.420566e-01 -1.735416e-01 -2.082743e-01 -2.389501e-01 -2.740652e-01 -3.029549e-01 -3.371967e-01 -3.616298e-01 -3.913627e-01 -4.060195e-01 -4.244501e-01 -4.218065e-01 -4.202825e-01 -3.935123e-01 -3.660160e-01 -3.146270e-01 -2.645176e-01 -2.001238e-01 -1.412289e-01 -8.311526e-02 -2.704822e-02 1.233377e-02 4.368445e-02 3.423798e-02 2.582257e-02 -1.699459e-03 5.296960e-03 2.001079e-03 -7.972246e-04 -1.548242e-02 6.146592e-03 -8.019353e-03 9.477565e-03 -4.154191e-03 8.343116e-03 1.024425e-02 2.195470e-02 4.477635e-02 5.944376e-02 8.042815e-02 9.457175e-02 1.114188e-01 1.211812e-01 1.328757e-01 1.383485e-01 1.456238e-01 1.477146e-01 1.515186e-01 1.510224e-01 1.521374e-01 1.496230e-01 1.486358e-01 1.444909e-01 1.418330e-01 1.363224e-01 1.323142e-01 1.256269e-01 1.205172e-01 1.128043e-01 1.068013e-01 
1.032952e-01 9.578688e-02 8.707101e-02 7.892876e-02 6.966515e-02 6.112529e-02 5.151655e-02 4.283764e-02 3.311971e-02 2.457834e-02 1.501370e-02 6.894148e-03 -2.240288e-03 -9.660146e-03 -1.808777e-02 -2.455106e-02 -3.200987e-02 -3.729254e-02 -4.354586e-02 -4.746306e-02 -5.230467e-02 -5.471010e-02 -5.796300e-02 -5.874177e-02 -6.025158e-02 -5.930849e-02 -5.893438e-02 -5.618135e-02 -5.378819e-02 -4.913526e-02 -4.459161e-02 -3.794625e-02 -3.113247e-02 -2.241145e-02 -1.324139e-02 -2.398088e-03 9.143708e-03 2.207535e-02 3.588104e-02 5.072704e-02 6.650040e-02 8.287591e-02 1.000608e-01 1.172961e-01 1.350092e-01 1.520861e-01 1.690715e-01 1.845931e-01 1.992246e-01 2.114508e-01 2.218207e-01 2.288128e-01 2.329463e-01 2.328587e-01 2.290815e-01 2.205995e-01 2.080167e-01 1.908470e-01 1.697799e-01 1.449696e-01 1.170697e-01 8.686601e-02 5.465267e-02 2.178691e-02 -1.230821e-02 -4.559404e-02 -8.011265e-02 -1.126935e-01 -1.474088e-01 -1.792487e-01 -2.148854e-01 -2.465161e-01 -2.840567e-01 -3.154488e-01 -3.547078e-01 -3.834402e-01 -4.209322e-01 -4.405373e-01 -4.679865e-01 -4.683915e-01 -4.737183e-01 -4.453607e-01 -4.175082e-01 -3.598351e-01 -2.982363e-01 -2.293566e-01 -1.502141e-01 -9.568751e-02 -1.976325e-02 3.800528e-02 3.814444e-02 2.989647e-02 4.930578e-02 5.103344e-02 1.911794e-02 -1.469625e-02 1.471500e-02 -5.991546e-03 8.953330e-03 -4.867675e-03 6.089430e-03 -8.733364e-03 4.495847e-03 -1.004189e-02 -1.883287e-02 1.183951e-02 3.865787e-02 6.819154e-02 8.729262e-02 1.079722e-01 1.194040e-01 1.329001e-01 1.390612e-01 1.473202e-01 1.498574e-01 1.542386e-01 1.541546e-01 1.555767e-01 1.534958e-01 1.525942e-01 1.489188e-01 1.461448e-01 1.411422e-01 1.368277e-01 1.306849e-01 1.250886e-01 1.179510e-01 1.112939e-01 
1.145348e-01 1.067888e-01 9.593928e-02 8.750136e-02 7.587302e-02 6.699597e-02 5.485255e-02 4.581586e-02 3.346562e-02 2.457002e-02 1.235433e-02 3.909201e-03 -7.815301e-03 -1.550893e-02 -2.639125e-02 -3.305830e-02 -4.277285e-02 -4.817839e-02 -5.643969e-02 -6.039625e-02 -6.696564e-02 -6.933197e-02 -7.401545e-02 -7.468675e-02 -7.732517e-02 -7.621737e-02 -7.667222e-02 -7.370449e-02 -7.184412e-02 -6.692482e-02 -6.261657e-02 -5.563837e-02 -4.875193e-02 -3.960105e-02 -3.002752e-02 -1.861108e-02 -6.300487e-03 7.406189e-03 2.238822e-02 3.827434e-02 5.567287e-02 7.340837e-02 9.269355e-02 1.116357e-01 1.319154e-01 1.510194e-01 1.709679e-01 1.887262e-01 2.065582e-01 2.210095e-01 2.345481e-01 2.434156e-01 2.503127e-01 2.513370e-01 2.494972e-01 2.409857e-01 2.291667e-01 2.106536e-01 1.890554e-01 1.617601e-01 1.322188e-01 9.886205e-02 6.427878e-02 2.808119e-02 -8.775132e-03 -4.534003e-02 -8.278829e-02 -1.185186e-01 -1.560457e-01 -1.907453e-01 -2.287478e-01 -2.628530e-01 -3.023136e-01 -3.360514e-01 -3.772837e-01 -4.086921e-01 -4.485997e-01 -4.711277e-01 -5.006853e-01 -5.027283e-01 -5.073694e-01 -4.753911e-01 -4.411075e-01 -3.683429e-01 -2.972237e-01 -2.013027e-01 -1.232051e-01 -4.901258e-02 2.223453e-02 7.616375e-02 1.235820e-01 4.837955e-02 -1.857449e-02 -2.498467e-02 2.640040e-02 8.016689e-03 5.522925e-03 -1.769310e-03 6.256168e-03 -8.812762e-03 6.422761e-03 -5.366279e-03 8.881384e-03 -1.264400e-02 -1.998919e-02 1.066493e-02 4.559382e-02 7.903517e-02 1.004240e-01 1.227637e-01 1.347730e-01 1.490975e-01 1.554908e-01 1.642884e-01 1.669218e-01 1.716927e-01 1.715333e-01 1.732329e-01 1.708443e-01 1.701202e-01 1.658576e-01 1.631674e-01 1.572676e-01 1.529481e-01 1.455834e-01 1.398980e-01 1.312138e-01 1.243892e-01 
1.187091e-01 1.101342e-01 1.002267e-01 9.079966e-02 8.011669e-02 7.012267e-02 5.891251e-02 4.867116e-02 3.722883e-02 2.708682e-02 1.574330e-02 6.058411e-03 -4.837441e-03 -1.371755e-02 -2.382090e-02 -3.158058e-02 -4.057158e-02 -4.694480e-02 -5.454407e-02 -5.932354e-02 -6.529869e-02 -6.833415e-02 -7.249620e-02 -7.368203e-02 -7.587295e-02 -7.512811e-02 -7.520324e-02 -7.244842e-02 -7.025930e-02 -6.539774e-02 -6.078180e-02 -5.369052e-02 -4.647372e-02 -3.701118e-02 -2.702913e-02 -1.506405e-02 -2.204759e-03 1.233142e-02 2.806207e-02 4.509916e-02 6.349124e-02 8.272380e-02 1.032617e-01 1.240390e-01 1.457942e-01 1.670096e-01 1.885460e-01 2.085506e-01 2.278740e-01 2.444595e-01 2.590670e-01 2.695906e-01 2.767028e-01 2.784469e-01 2.755104e-01 2.663422e-01 2.518170e-01 2.310680e-01 2.053018e-01 1.744979e-01 1.401518e-01 1.029519e-01 6.429903e-02 2.520755e-02 -1.374051e-02 -5.129533e-02 -8.853648e-02 -1.233335e-01 -1.590729e-01 -1.918521e-01 -2.279876e-01 -2.608822e-01 -3.005070e-01 -3.357166e-01 -3.813784e-01 -4.179480e-01 -4.676239e-01 -4.974640e-01 -5.408961e-01 -5.480454e-01 -5.666546e-01 -5.319763e-01 -5.031488e-01 -4.170783e-01 -3.306201e-01 -2.247686e-01 -1.055621e-01 -6.989947e-02 6.782261e-02 1.483683e-01 6.773539e-02 1.808810e-02 5.762570e-02 2.825937e-02 -4.193778e-02 -4.176370e-02 -1.308513e-02 -4.286784e-02 -1.421355e-02 -2.503146e-02 -7.070773e-03 -1.832350e-02 -2.778081e-03 -1.382518e-02 -9.293421e-03 2.187291e-02 5.109875e-02 8.222753e-02 1.001037e-01 1.220788e-01 1.328708e-01 1.476226e-01 1.538415e-01 1.632280e-01 1.661401e-01 1.714306e-01 1.717675e-01 1.738321e-01 1.720645e-01 1.715162e-01 1.679618e-01 1.652432e-01 1.601223e-01 1.555650e-01 1.490388e-01 1.429078e-01 1.351108e-01 1.276412e-01 
1.305547e-01 1.218340e-01 1.095300e-01 9.988498e-02 8.650808e-02 7.624093e-02 6.211467e-02 5.156843e-02 3.707837e-02 2.662813e-02 1.220484e-02 2.238584e-03 -1.166852e-02 -2.077538e-02 -3.372860e-02 -4.163966e-02 -5.324188e-02 -5.968098e-02 -6.959675e-02 -7.435886e-02 -8.232322e-02 -8.527192e-02 -9.108537e-02 -9.213702e-02 -9.564823e-02 -9.474620e-02 -9.582697e-02 -9.291169e-02 -9.143097e-02 -8.641322e-02 -8.221793e-02 -7.496327e-02 -6.787335e-02 -5.820483e-02 -4.802916e-02 -3.575409e-02 -2.233161e-02 -7.295831e-03 9.436204e-03 2.726529e-02 4.717680e-02 6.759996e-02 9.025102e-02 1.127042e-01 1.372131e-01 1.606216e-01 1.855332e-01 2.081767e-01 2.313635e-01 2.508013e-01 2.694624e-01 2.826166e-01 2.934844e-01 2.970232e-01 2.969188e-01 2.880714e-01 2.748797e-01 2.526309e-01 2.264745e-01 1.926319e-01 1.565079e-01 1.156231e-01 7.447811e-02 3.189039e-02 -9.878571e-03 -5.069152e-02 -9.109159e-02 -1.291572e-01 -1.679944e-01 -2.036432e-01 -2.418465e-01 -2.766084e-01 -3.168507e-01 -3.531773e-01 -3.990794e-01 -4.372474e-01 -4.882913e-01 -5.211955e-01 -5.669609e-01 -5.784074e-01 -5.965717e-01 -5.635869e-01 -5.235863e-01 -4.213742e-01 -3.128677e-01 -1.505321e-01 -3.427289e-02 7.313647e-02 1.322891e-01 3.739026e-02 1.649734e-02 7.337151e-03 -8.415935e-02 -9.973383e-02 1.059073e-02 -1.859510e-02 -4.475808e-03 -9.923211e-03 6.959245e-03 -1.095765e-02 1.210605e-02 -8.964165e-03 1.358965e-02 -1.325201e-03 3.356494e-03 5.868770e-02 7.877316e-02 1.072691e-01 1.200028e-01 1.405410e-01 1.498487e-01 1.643804e-01 1.704263e-01 1.800396e-01 1.831046e-01 1.887366e-01 1.891621e-01 1.915577e-01 1.896410e-01 1.893657e-01 1.853362e-01 1.828138e-01 1.768427e-01 1.723968e-01 1.646209e-01 1.585137e-01 1.490628e-01 1.415297e-01 
1.338127e-01 1.242308e-01 1.132335e-01 1.025302e-01 9.046654e-02 7.898020e-02 6.615001e-02 5.427101e-02 4.103913e-02 2.919815e-02 1.597851e-02 4.622918e-03 -8.147964e-03 -1.858560e-02 -3.048074e-02 -3.961536e-02 -5.024822e-02 -5.776870e-02 -6.681578e-02 -7.249845e-02 -7.970832e-02 -8.341399e-02 -8.860035e-02 -9.025471e-02 -9.327542e-02 -9.283680e-02 -9.356379e-02 -9.098529e-02 -8.927323e-02 -8.446810e-02 -8.013069e-02 -7.295033e-02 -6.575313e-02 -5.598638e-02 -4.566382e-02 -3.306425e-02 -1.936605e-02 -3.711526e-03 1.351908e-02 3.233355e-02 5.305087e-02 7.488847e-02 9.870832e-02 1.230382e-01 1.490817e-01 1.748074e-01 2.015372e-01 2.268241e-01 2.519026e-01 2.740545e-01 2.942913e-01 3.097786e-01 3.213035e-01 3.261279e-01 3.249962e-01 3.156110e-01 2.990287e-01 2.738719e-01 2.419087e-01 2.030403e-01 1.599100e-01 1.133801e-01 6.655717e-02 2.008264e-02 -2.355503e-02 -6.459774e-02 -1.025344e-01 -1.371452e-01 -1.704448e-01 -2.004492e-01 -2.322117e-01 -2.619289e-01 -2.980343e-01 -3.337331e-01 -3.819137e-01 -4.265470e-01 -4.887413e-01 -5.329341e-01 -5.978032e-01 -6.176466e-01 -6.609576e-01 -6.234062e-01 -6.062562e-01 -4.744463e-01 -3.632741e-01 -1.541766e-01 3.602300e-02 6.519788e-02 1.086724e-01 7.532332e-02 2.797982e-03 -8.700075e-02 -5.838574e-02 -4.780925e-02 -1.633966e-02 -3.223980e-02 -2.752240e-03 -1.954386e-02 8.911917e-03 -1.227539e-02 9.202737e-03 -1.174773e-02 7.711487e-03 -1.648276e-02 -2.130709e-02 5.545566e-02 7.077787e-02 1.031801e-01 1.134624e-01 1.349595e-01 1.434828e-01 1.587254e-01 1.648607e-01 1.751915e-01 1.787681e-01 1.850441e-01 1.862005e-01 1.890895e-01 1.880413e-01 1.880621e-01 1.850074e-01 1.825580e-01 1.776553e-01 1.730463e-01 1.664225e-01 1.599118e-01 1.516840e-01 1.435117e-01 