# vtk DataFile Version 2.0
Comment goes here
ASCII

DATASET STRUCTURED_POINTS
DIMENSIONS    128   128   1

ORIGIN    0.000   0.000   0.000
SPACING   0.0156250.015625   1.000

POINT_DATA   16384
SCALARS uY double
LOOKUP_TABLE default

3.889872e-05 3.401787e-05 4.113127e-05 3.583067e-05 4.313409e-05 3.744296e-05 4.486818e-05 3.882364e-05 4.629601e-05 3.994558e-05 4.738700e-05 4.079124e-05 4.812346e-05 4.135834e-05 4.850628e-05 4.166499e-05 4.855989e-05 4.175365e-05 4.833564e-05 4.169317e-05 4.791302e-05 4.157839e-05 4.739824e-05 4.152697e-05 4.691973e-05 4.167313e-05 4.662065e-05 4.215849e-05 4.664847e-05 4.312036e-05 4.714214e-05 4.467810e-05 4.821756e-05 4.691821e-05 4.995225e-05 4.987938e-05 5.237004e-05 5.353808e-05 5.542684e-05 5.779583e-05 5.899841e-05 6.246905e-05 6.287095e-05 6.728227e-05 6.673568e-05 7.186567e-05 7.018835e-05 7.575813e-05 7.273473e-05 7.841655e-05 7.380342e-05 7.923253e-05 7.276628e-05 7.755664e-05 6.896721e-05 7.273072e-05 6.175887e-05 6.412800e-05 5.054796e-05 5.120270e-05 3.485115e-05 3.355236e-05 1.436613e-05 1.099858e-05 -1.093635e-05 -1.630959e-05 -4.069777e-05 -4.777279e-05 -7.404332e-05 -8.221683e-05 -1.094661e-04 -1.178012e-04 -1.447671e-04 -1.520105e-04 -1.771070e-04 -1.817843e-04 -2.032284e-04 -2.038389e-04 -2.198908e-04 -2.152014e-04 -2.245103e-04 -2.139057e-04 -2.158935e-04 -1.996829e-04 -1.948331e-04 -1.743720e-04 -1.642592e-04 -1.417705e-04 -1.287247e-04 -1.068077e-04 -9.327249e-05 -7.423782e-05 -6.209455e-05 -4.739077e-05 -3.760267e-05 -2.761263e-05 -2.026716e-05 -1.448797e-05 -9.116536e-06 -6.523931e-06 -2.466515e-06 -1.900935e-06 1.469869e-06 1.039317e-06 4.221706e-06 3.509402e-06 6.811711e-06 6.085865e-06 9.632276e-06 8.866366e-06 1.269161e-05 1.175697e-05 1.587756e-05 1.464826e-05 1.908484e-05 1.746953e-05 2.224521e-05 2.018714e-05 2.532121e-05 2.279009e-05 2.829362e-05 2.527762e-05 3.115102e-05 2.765066e-05 3.388244e-05 2.990629e-05 3.647247e-05 3.203466e-05 
8.810166e-03 8.114366e-03 7.100631e-03 6.401118e-03 5.355025e-03 4.667555e-03 3.606485e-03 2.947262e-03 1.890953e-03 1.276677e-03 2.469614e-04 -3.054779e-04 -1.285324e-03 -1.759360e-03 -2.665463e-03 -3.045408e-03 -3.854182e-03 -4.125702e-03 -4.814628e-03 -4.965056e-03 -5.513299e-03 -5.531768e-03 -5.920618e-03 -5.798086e-03 -6.011305e-03 -5.740573e-03 -5.764770e-03 -5.340678e-03 -5.165880e-03 -4.585838e-03 -4.206421e-03 -3.471448e-03 -2.887544e-03 -2.003892e-03 -1.223335e-03 -2.046960e-04 7.545772e-04 1.884435e-03 2.991746e-03 4.196237e-03 5.405692e-03 6.633089e-03 7.881879e-03 9.064141e-03 1.027237e-02 1.132597e-02 1.239888e-02 1.322849e-02 1.406177e-02 1.456742e-02 1.505594e-02 1.514358e-02 1.519303e-02 1.478738e-02 1.432722e-02 1.338469e-02 1.237972e-02 1.089817e-02 9.355568e-03 7.377961e-03 5.347626e-03 2.958225e-03 5.264992e-04 -2.158604e-03 -4.878707e-03 -7.722235e-03 -1.059907e-02 -1.344895e-02 -1.633400e-02 -1.902234e-02 -2.174455e-02 -2.408116e-02 -2.643842e-02 -2.820691e-02 -2.996561e-02 -3.093578e-02 -3.185302e-02 -3.182293e-02 -3.170135e-02 -3.057052e-02 -2.933785e-02 -2.718935e-02 -2.496922e-02 -2.211524e-02 -1.924293e-02 -1.619026e-02 -1.314861e-02 -1.047686e-02 -7.768601e-03 -5.953237e-03 -3.935289e-03 -3.157861e-03 -1.869248e-03 -1.909766e-03 -1.051575e-03 -1.436259e-03 -5.962207e-04 -8.635709e-04 2.925459e-04 4.705462e-04 2.071763e-03 2.843398e-03 4.810266e-03 6.083638e-03 8.133746e-03 9.561725e-03 1.131746e-02 1.255926e-02 1.382659e-02 1.472873e-02 1.549865e-02 1.604460e-02 1.638858e-02 1.661868e-02 1.662282e-02 1.659316e-02 1.633444e-02 1.610095e-02 1.564147e-02 1.525363e-02 1.464054e-02 1.413908e-02 1.340661e-02 1.282360e-02 1.199623e-02 1.135663e-02 1.045246e-02 9.776230e-03 
1.712420e-02 1.569957e-02 1.386483e-02 1.242754e-02 1.053946e-02 9.121924e-03 7.211239e-03 5.846958e-03 3.948797e-03 2.672389e-03 8.259135e-04 -3.275743e-04 -2.080251e-03 -3.076440e-03 -4.691755e-03 -5.498120e-03 -6.932638e-03 -7.519505e-03 -8.731342e-03 -9.072552e-03 -1.002250e-02 -1.009570e-02 -1.074804e-02 -1.053472e-02 -1.085795e-02 -1.034347e-02 -1.031106e-02 -9.485042e-03 -9.076697e-03 -7.934042e-03 -7.137661e-03 -5.680635e-03 -4.495304e-03 -2.736757e-03 -1.176794e-03 8.554266e-04 2.755510e-03 5.013302e-03 7.193381e-03 9.602913e-03 1.197221e-02 1.442930e-02 1.686294e-02 1.923074e-02 2.156946e-02 2.368014e-02 2.573487e-02 2.739707e-02 2.895991e-02 2.997319e-02 3.083535e-02 3.101154e-02 3.098731e-02 3.017667e-02 2.912996e-02 2.724749e-02 2.511535e-02 2.216066e-02 1.896693e-02 1.503114e-02 1.088519e-02 6.141923e-03 1.222630e-03 -4.093779e-03 -9.561687e-03 -1.518063e-02 -2.094563e-02 -2.657495e-02 -3.236171e-02 -3.768463e-02 -4.317736e-02 -4.783461e-02 -5.265029e-02 -5.622501e-02 -5.990092e-02 -6.193686e-02 -6.396619e-02 -6.404928e-02 -6.399107e-02 -6.189860e-02 -5.955108e-02 -5.541970e-02 -5.098962e-02 -4.540470e-02 -3.956895e-02 -3.349002e-02 -2.727759e-02 -2.180981e-02 -1.631630e-02 -1.241510e-02 -8.408021e-03 -6.543263e-03 -4.085368e-03 -3.939560e-03 -2.424806e-03 -3.106838e-03 -1.648816e-03 -2.181732e-03 -1.016996e-04 2.322124e-04 3.215494e-03 4.759301e-03 8.527235e-03 1.111323e-02 1.511981e-02 1.800738e-02 2.144623e-02 2.393621e-02 2.641553e-02 2.821763e-02 2.972912e-02 3.082108e-02 3.150931e-02 3.197224e-02 3.200677e-02 3.195008e-02 3.148280e-02 3.101595e-02 3.017028e-02 2.939064e-02 2.826056e-02 2.724857e-02 2.590218e-02 2.472130e-02 2.320662e-02 2.190640e-02 2.025813e-02 1.887848e-02 
2.629214e-02 2.421972e-02 2.116711e-02 1.908079e-02 1.592540e-02 1.387279e-02 1.066743e-02 8.697698e-03 5.502590e-03 3.666516e-03 5.483246e-04 -1.102752e-03 -4.072994e-03 -5.488850e-03 -8.238436e-03 -9.371735e-03 -1.182904e-02 -1.263681e-02 -1.473372e-02 -1.517830e-02 -1.685201e-02 -1.690138e-02 -1.809569e-02 -1.772340e-02 -1.838962e-02 -1.757471e-02 -1.767257e-02 -1.639993e-02 -1.589917e-02 -1.416092e-02 -1.304390e-02 -1.084239e-02 -9.108148e-03 -6.460740e-03 -4.130857e-03 -1.076537e-03 1.797600e-03 5.190118e-03 8.519165e-03 1.214289e-02 1.579173e-02 1.949390e-02 2.327597e-02 2.685388e-02 3.052998e-02 3.373272e-02 3.701705e-02 3.955599e-02 4.213173e-02 4.370190e-02 4.524758e-02 4.555992e-02 4.578548e-02 4.460710e-02 4.329458e-02 4.048984e-02 3.753038e-02 3.309238e-02 2.850900e-02 2.257130e-02 1.651950e-02 9.343025e-03 2.088964e-03 -5.970659e-03 -1.408416e-02 -2.261346e-02 -3.119540e-02 -3.974537e-02 -4.836328e-02 -5.644543e-02 -6.460527e-02 -7.166563e-02 -7.877736e-02 -8.417301e-02 -8.953582e-02 -9.255870e-02 -9.541588e-02 -9.541341e-02 -9.511840e-02 -9.172686e-02 -8.800529e-02 -8.143089e-02 -7.462984e-02 -6.582223e-02 -5.697874e-02 -4.753451e-02 -3.816913e-02 -2.993880e-02 -2.165451e-02 -1.618293e-02 -1.016057e-02 -8.058945e-03 -4.426991e-03 -4.917058e-03 -2.618755e-03 -4.101715e-03 -1.805632e-03 -2.867451e-03 4.805325e-04 8.138563e-04 5.570960e-03 7.794791e-03 1.373772e-02 1.764690e-02 2.391411e-02 2.832204e-02 3.361402e-02 3.739497e-02 4.115712e-02 4.388700e-02 4.615611e-02 4.781621e-02 4.882647e-02 4.954199e-02 4.954797e-02 4.948452e-02 4.871077e-02 4.803502e-02 4.666353e-02 4.552400e-02 4.369321e-02 4.221210e-02 4.002228e-02 3.829535e-02 3.581783e-02 3.391926e-02 3.120678e-02 2.919584e-02 
3.406282e-02 3.122667e-02 2.755957e-02 2.469111e-02 2.090714e-02 1.807200e-02 1.423360e-02 1.150009e-02 7.679084e-03 5.118041e-03 1.394653e-03 -9.222430e-04 -4.461823e-03 -6.464473e-03 -9.731357e-03 -1.135382e-02 -1.425978e-02 -1.544239e-02 -1.790282e-02 -1.859352e-02 -2.052962e-02 -2.068442e-02 -2.202476e-02 -2.160755e-02 -2.228917e-02 -2.127146e-02 -2.124113e-02 -1.960241e-02 -1.881876e-02 -1.654822e-02 -1.498539e-02 -1.208578e-02 -9.739180e-03 -6.233112e-03 -3.127469e-03 9.336750e-04 4.734164e-03 9.259350e-03 1.363969e-02 1.848661e-02 2.327011e-02 2.823487e-02 3.317505e-02 3.798622e-02 4.276491e-02 4.708542e-02 5.132061e-02 5.476149e-02 5.802849e-02 6.017751e-02 6.204534e-02 6.251100e-02 6.259257e-02 6.105978e-02 5.906922e-02 5.535687e-02 5.116169e-02 4.526733e-02 3.891942e-02 3.103523e-02 2.276780e-02 1.325918e-02 3.448095e-03 -7.198811e-03 -1.809341e-02 -2.933189e-02 -4.081424e-02 -5.207427e-02 -6.362308e-02 -7.430375e-02 -8.533207e-02 -9.475178e-02 -1.045334e-01 -1.118736e-01 -1.194873e-01 -1.237995e-01 -1.281716e-01 -1.285293e-01 -1.286526e-01 -1.244814e-01 -1.198083e-01 -1.112978e-01 -1.021639e-01 -9.051793e-02 -7.833003e-02 -6.560849e-02 -5.260138e-02 -4.118249e-02 -2.980053e-02 -2.178611e-02 -1.381198e-02 -1.035707e-02 -5.863348e-03 -6.185876e-03 -3.716179e-03 -5.740353e-03 -3.242030e-03 -4.860337e-03 -9.408384e-04 -7.133638e-04 5.126262e-03 8.000994e-03 1.558800e-02 2.095025e-02 2.922769e-02 3.524495e-02 4.217923e-02 4.725517e-02 5.214587e-02 5.579527e-02 5.875777e-02 6.099042e-02 6.234431e-02 6.332247e-02 6.339639e-02 6.333187e-02 6.241805e-02 6.152836e-02 5.986673e-02 5.834766e-02 5.612135e-02 5.413412e-02 5.147491e-02 4.914565e-02 4.614568e-02 4.357220e-02 4.029771e-02 3.755871e-02 
4.357722e-02 4.014130e-02 3.505846e-02 3.158750e-02 2.631538e-02 2.289010e-02 1.751864e-02 1.422321e-02 8.855749e-03 5.777480e-03 5.287106e-04 -2.244151e-03 -7.252189e-03 -9.633653e-03 -1.427653e-02 -1.618618e-02 -2.034204e-02 -2.170770e-02 -2.526149e-02 -2.602079e-02 -2.886729e-02 -2.896803e-02 -3.101370e-02 -3.041336e-02 -3.157740e-02 -3.024234e-02 -3.045774e-02 -2.836321e-02 -2.757864e-02 -2.471051e-02 -2.289417e-02 -1.925335e-02 -1.639944e-02 -1.200962e-02 -8.147869e-03 -3.066694e-03 1.725195e-03 7.392105e-03 1.297407e-02 1.905771e-02 2.521295e-02 3.146673e-02 3.789032e-02 4.398071e-02 5.027533e-02 5.578225e-02 6.146584e-02 6.589805e-02 7.042832e-02 7.325827e-02 7.607722e-02 7.679697e-02 7.739442e-02 7.558836e-02 7.357675e-02 6.899861e-02 6.418317e-02 5.681720e-02 4.924042e-02 3.932461e-02 2.926666e-02 1.726530e-02 5.197380e-03 -8.268439e-03 -2.175774e-02 -3.598971e-02 -5.025777e-02 -6.452931e-02 -7.889681e-02 -9.244439e-02 -1.061523e-01 -1.181112e-01 -1.302339e-01 -1.395585e-01 -1.489312e-01 -1.543835e-01 -1.596465e-01 -1.599704e-01 -1.598430e-01 -1.541955e-01 -1.479960e-01 -1.365467e-01 -1.247549e-01 -1.091266e-01 -9.358990e-02 -7.672961e-02 -6.024247e-02 -4.563513e-02 -3.118034e-02 -2.182780e-02 -1.181553e-02 -9.055420e-03 -3.796717e-03 -5.835131e-03 -2.857351e-03 -6.302654e-03 -3.154756e-03 -5.696083e-03 -4.260392e-04 -5.699886e-04 7.192057e-03 1.046761e-02 2.044621e-02 2.726533e-02 3.815755e-02 4.593124e-02 5.480270e-02 6.127174e-02 6.741520e-02 7.205895e-02 7.575389e-02 7.861789e-02 8.028124e-02 8.156676e-02 8.159774e-02 8.157244e-02 8.032714e-02 7.927082e-02 7.704278e-02 7.520682e-02 7.221920e-02 6.980836e-02 6.622088e-02 6.339339e-02 5.931810e-02 5.619528e-02 5.171477e-02 4.839346e-02 
5.072842e-02 4.649655e-02 4.101564e-02 3.671665e-02 3.103486e-02 2.676947e-02 2.098295e-02 1.685718e-02 1.107763e-02 7.201954e-03 1.554531e-03 -1.959241e-03 -7.340317e-03 -1.038339e-02 -1.536041e-02 -1.783141e-02 -2.226871e-02 -2.407717e-02 -2.784589e-02 -2.891427e-02 -3.189556e-02 -3.215963e-02 -3.424664e-02 -3.365453e-02 -3.475336e-02 -3.326436e-02 -3.329515e-02 -3.087923e-02 -2.977838e-02 -2.641784e-02 -2.414274e-02 -1.983722e-02 -1.637428e-02 -1.114992e-02 -6.526543e-03 -4.494226e-04 5.250306e-03 1.205697e-02 1.867409e-02 2.601081e-02 3.329304e-02 4.086600e-02 4.845268e-02 5.586125e-02 6.327687e-02 7.001261e-02 7.667495e-02 8.213884e-02 8.738829e-02 9.093238e-02 9.408719e-02 9.508354e-02 9.552063e-02 9.345334e-02 9.070560e-02 8.527100e-02 7.912013e-02 7.030842e-02 6.084336e-02 4.897014e-02 3.658259e-02 2.224894e-02 7.557770e-03 -8.453308e-03 -2.472101e-02 -4.156765e-02 -5.868042e-02 -7.554135e-02 -9.279222e-02 -1.088551e-01 -1.254871e-01 -1.398398e-01 -1.548864e-01 -1.663631e-01 -1.784795e-01 -1.855829e-01 -1.930208e-01 -1.941016e-01 -1.950123e-01 -1.888365e-01 -1.819787e-01 -1.685701e-01 -1.541978e-01 -1.354577e-01 -1.158186e-01 -9.526389e-02 -7.419104e-02 -5.579471e-02 -3.762384e-02 -2.492961e-02 -1.312985e-02 -8.678210e-03 -3.054825e-03 -5.123931e-03 -2.856108e-03 -7.478085e-03 -4.640776e-03 -8.338728e-03 -2.927799e-03 -3.778069e-03 4.577271e-03 8.074738e-03 1.933989e-02 2.790610e-02 4.111454e-02 5.076153e-02 6.119451e-02 6.902462e-02 7.618379e-02 8.183238e-02 8.619712e-02 8.973423e-02 9.177263e-02 9.340370e-02 9.356461e-02 9.359857e-02 9.230219e-02 9.107608e-02 8.867483e-02 8.649204e-02 8.325257e-02 8.035784e-02 7.646789e-02 7.304856e-02 6.863660e-02 6.483590e-02 5.999352e-02 5.592661e-02 
6.056928e-02 5.579058e-02 4.869095e-02 4.383733e-02 3.643425e-02 3.162191e-02 2.404562e-02 1.939740e-02 1.179918e-02 7.443306e-03 -8.444769e-06 -3.942415e-03 -1.106888e-02 -1.445545e-02 -2.107542e-02 -2.379858e-02 -2.973619e-02 -3.169367e-02 -3.678479e-02 -3.789028e-02 -4.198673e-02 -4.216994e-02 -4.514154e-02 -4.434657e-02 -4.608167e-02 -4.426470e-02 -4.467030e-02 -4.179818e-02 -4.080130e-02 -3.685257e-02 -3.440431e-02 -2.937433e-02 -2.545804e-02 -1.936913e-02 -1.401348e-02 -6.930719e-03 -2.275879e-04 7.720496e-03 1.559435e-02 2.419189e-02 3.295189e-02 4.187211e-02 5.110580e-02 5.989292e-02 6.904877e-02 7.711265e-02 8.550530e-02 9.213765e-02 9.897819e-02 1.033989e-01 1.078572e-01 1.092962e-01 1.105972e-01 1.084082e-01 1.059518e-01 9.974121e-02 9.322209e-02 8.295619e-02 7.244364e-02 5.849334e-02 4.443309e-02 2.752372e-02 1.064891e-02 -8.273723e-03 -2.708777e-02 -4.701438e-02 -6.687827e-02 -8.683478e-02 -1.068866e-01 -1.259215e-01 -1.452518e-01 -1.623071e-01 -1.797795e-01 -1.934900e-01 -2.075287e-01 -2.160781e-01 -2.245971e-01 -2.258640e-01 -2.266046e-01 -2.188293e-01 -2.102631e-01 -1.931998e-01 -1.757190e-01 -1.516947e-01 -1.282050e-01 -1.020707e-01 -7.711533e-02 -5.466385e-02 -3.291977e-02 -1.922938e-02 -5.237568e-03 -3.309074e-03 1.975801e-03 -3.757438e-03 -1.188224e-03 -7.637495e-03 -4.573160e-03 -9.438618e-03 -2.377083e-03 -4.203227e-03 6.196388e-03 9.242397e-03 2.284254e-02 3.302603e-02 4.937943e-02 6.120762e-02 7.350390e-02 8.291413e-02 9.127977e-02 9.812472e-02 1.032600e-01 1.075939e-01 1.099816e-01 1.120275e-01 1.121645e-01 1.123095e-01 1.106831e-01 1.093499e-01 1.063677e-01 1.039270e-01 9.989116e-02 9.663411e-02 9.175377e-02 8.789855e-02 8.231631e-02 7.802727e-02 7.184761e-02 6.725601e-02 
6.703619e-02 6.143041e-02 5.416228e-02 4.843113e-02 4.084630e-02 3.512873e-02 2.736048e-02 2.180500e-02 1.401022e-02 8.772610e-03 1.127707e-03 -3.634438e-03 -1.094081e-02 -1.507519e-02 -2.185089e-02 -2.521746e-02 -3.127534e-02 -3.375172e-02 -3.891644e-02 -4.040060e-02 -4.451302e-02 -4.492319e-02 -4.784210e-02 -4.711436e-02 -4.871658e-02 -4.680140e-02 -4.698145e-02 -4.384118e-02 -4.251248e-02 -3.812170e-02 -3.522114e-02 -2.957176e-02 -2.506931e-02 -1.818192e-02 -1.209620e-02 -4.038135e-03 3.542044e-03 1.263236e-02 2.152158e-02 3.140613e-02 4.129401e-02 5.160620e-02 6.203178e-02 7.225309e-02 8.258895e-02 9.203953e-02 1.014949e-01 1.093490e-01 1.170029e-01 1.223400e-01 1.272141e-01 1.291149e-01 1.302910e-01 1.279763e-01 1.247485e-01 1.177419e-01 1.097736e-01 9.804498e-02 8.547668e-02 6.950611e-02 5.295548e-02 3.366711e-02 1.409232e-02 -7.338014e-03 -2.886793e-02 -5.125197e-02 -7.376674e-02 -9.606619e-02 -1.187672e-01 -1.400856e-01 -1.622285e-01 -1.816103e-01 -2.022061e-01 -2.182929e-01 -2.357124e-01 -2.464344e-01 -2.581499e-01 -2.608024e-01 -2.636693e-01 -2.557623e-01 -2.471593e-01 -2.280469e-01 -2.076528e-01 -1.800768e-01 -1.511655e-01 -1.209697e-01 -8.972372e-02 -6.296487e-02 -3.642376e-02 -1.784697e-02 -2.921818e-03 1.278260e-03 6.597900e-03 7.638406e-04 9.441919e-04 -7.907363e-03 -5.278889e-03 -1.208927e-02 -5.217723e-03 -8.806593e-03 1.381187e-03 3.376581e-03 1.690775e-02 2.934821e-02 4.889594e-02 6.285137e-02 7.637236e-02 8.731043e-02 9.669972e-02 1.048905e-01 1.108397e-01 1.161122e-01 1.189920e-01 1.215391e-01 1.219037e-01 1.222006e-01 1.206344e-01 1.191969e-01 1.161810e-01 1.134456e-01 1.093265e-01 1.056259e-01 1.006355e-01 9.621415e-02 9.050503e-02 8.554624e-02 7.922590e-02 7.387731e-02 
7.722609e-02 7.113093e-02 6.203092e-02 5.579375e-02 4.623563e-02 4.001195e-02 3.017144e-02 2.412851e-02 1.421236e-02 8.526105e-03 -1.234815e-03 -6.386688e-03 -1.574797e-02 -2.019470e-02 -2.891065e-02 -3.249692e-02 -4.033213e-02 -4.292442e-02 -4.966285e-02 -5.115245e-02 -5.660279e-02 -5.690512e-02 -6.090251e-02 -5.995334e-02 -6.235819e-02 -6.010844e-02 -6.080432e-02 -5.721560e-02 -5.610841e-02 -5.115183e-02 -4.817266e-02 -4.183326e-02 -3.694715e-02 -2.923570e-02 -2.245766e-02 -1.343082e-02 -4.849416e-03 5.362031e-03 1.555444e-02 2.671128e-02 3.818448e-02 4.990250e-02 6.215553e-02 7.387335e-02 8.621056e-02 9.717167e-02 1.086987e-01 1.179609e-01 1.276144e-01 1.341022e-01 1.407270e-01 1.433403e-01 1.458236e-01 1.436050e-01 1.410602e-01 1.334010e-01 1.253654e-01 1.121940e-01 9.877468e-02 8.064545e-02 6.253125e-02 4.054220e-02 1.884256e-02 -5.614856e-03 -2.964732e-02 -5.518934e-02 -8.040656e-02 -1.058465e-01 -1.312935e-01 -1.556305e-01 -1.804362e-01 -2.026376e-01 -2.257058e-01 -2.443028e-01 -2.638387e-01 -2.764753e-01 -2.895823e-01 -2.929235e-01 -2.958247e-01 -2.864124e-01 -2.758631e-01 -2.521825e-01 -2.279348e-01 -1.929161e-01 -1.595084e-01 -1.211199e-01 -8.599298e-02 -5.363301e-02 -2.285071e-02 -3.917954e-03 1.415436e-02 1.185779e-02 1.342955e-02 1.862371e-04 2.139739e-03 -7.000337e-03 -5.449373e-03 -1.297836e-02 -3.075332e-03 -8.500464e-03 4.009792e-03 3.196723e-03 1.778764e-02 3.137815e-02 5.440151e-02 7.127176e-02 8.632797e-02 9.951954e-02 1.104446e-01 1.204574e-01 1.274645e-01 1.338607e-01 1.372161e-01 1.403186e-01 1.407093e-01 1.411926e-01 1.393240e-01 1.378450e-01 1.342640e-01 1.313421e-01 1.264226e-01 1.224363e-01 1.164201e-01 1.116401e-01 1.046847e-01 9.931085e-02 9.153155e-02 8.572440e-02 
8.296485e-02 7.601021e-02 6.698756e-02 5.981676e-02 5.031714e-02 4.311225e-02 3.331154e-02 2.627071e-02 1.637898e-02 9.711742e-03 -3.395485e-05 -6.115756e-03 -1.546287e-02 -2.075628e-02 -2.945004e-02 -3.377174e-02 -4.156774e-02 -4.476200e-02 -5.143578e-02 -5.337812e-02 -5.873054e-02 -5.932653e-02 -6.318482e-02 -6.236495e-02 -6.458043e-02 -6.229288e-02 -6.273767e-02 -5.894171e-02 -5.750702e-02 -5.217016e-02 -4.876905e-02 -4.187069e-02 -3.644788e-02 -2.799179e-02 -2.054218e-02 -1.057891e-02 -1.175259e-03 1.016557e-02 2.133668e-02 3.380627e-02 4.640325e-02 5.958980e-02 7.307504e-02 8.636344e-02 9.997125e-02 1.125171e-01 1.252431e-01 1.359766e-01 1.466059e-01 1.542849e-01 1.614775e-01 1.648089e-01 1.672582e-01 1.650963e-01 1.617585e-01 1.533629e-01 1.437179e-01 1.290056e-01 1.132622e-01 9.294368e-02 7.206565e-02 4.754969e-02 2.302164e-02 -3.932984e-03 -3.054053e-02 -5.828209e-02 -8.572229e-02 -1.130250e-01 -1.405317e-01 -1.666099e-01 -1.937364e-01 -2.179243e-01 -2.440650e-01 -2.651709e-01 -2.887843e-01 -3.042928e-01 -3.220999e-01 -3.278224e-01 -3.347538e-01 -3.258667e-01 -3.166540e-01 -2.906585e-01 -2.632206e-01 -2.237868e-01 -1.826631e-01 -1.403278e-01 -9.574365e-02 -6.005495e-02 -2.244431e-02 4.775738e-03 1.927464e-02 1.983941e-02 2.417947e-02 1.288198e-02 7.608446e-03 -6.998151e-03 -3.266265e-03 -1.326157e-02 -3.808690e-03 -1.239900e-02 -8.936930e-04 -5.573252e-03 4.430379e-03 1.986563e-02 4.722961e-02 6.610025e-02 8.196353e-02 9.802225e-02 1.109385e-01 1.233502e-01 1.316752e-01 1.394530e-01 1.434709e-01 1.472404e-01 1.479523e-01 1.486744e-01 1.469839e-01 1.454734e-01 1.420196e-01 1.388716e-01 1.340657e-01 1.296946e-01 1.237900e-01 1.184853e-01 1.116402e-01 1.056153e-01 9.794060e-02 9.136973e-02 
9.358258e-02 8.619950e-02 7.511522e-02 6.748649e-02 5.573458e-02 4.806073e-02 3.587022e-02 2.837133e-02 1.601535e-02 8.924979e-03 -3.290395e-03 -9.736453e-03 -2.148848e-02 -2.706584e-02 -3.803340e-02 -4.254209e-02 -5.242257e-02 -5.569648e-02 -6.421843e-02 -6.612936e-02 -7.305915e-02 -7.351466e-02 -7.865691e-02 -7.759308e-02 -8.078632e-02 -7.815761e-02 -7.926772e-02 -7.503720e-02 -7.395213e-02 -6.808576e-02 -6.471514e-02 -5.718355e-02 -5.146621e-02 -4.225672e-02 -3.417864e-02 -2.331929e-02 -1.294282e-02 -5.385716e-04 1.195757e-02 2.567788e-02 3.995055e-02 5.458055e-02 7.007139e-02 8.497404e-02 1.008650e-01 1.151319e-01 1.303211e-01 1.427628e-01 1.558819e-01 1.650736e-01 1.745708e-01 1.789837e-01 1.832983e-01 1.815332e-01 1.793666e-01 1.704781e-01 1.611211e-01 1.449510e-01 1.285572e-01 1.059253e-01 8.356441e-02 5.614782e-02 2.952346e-02 -6.078896e-04 -2.968657e-02 -6.064520e-02 -9.072647e-02 -1.211455e-01 -1.512859e-01 -1.803029e-01 -2.099296e-01 -2.368854e-01 -2.653737e-01 -2.891484e-01 -3.149692e-01 -3.329617e-01 -3.525476e-01 -3.598954e-01 -3.672461e-01 -3.575444e-01 -3.460443e-01 -3.146337e-01 -2.818520e-01 -2.313938e-01 -1.846344e-01 -1.289301e-01 -8.238989e-02 -3.839570e-02 3.281741e-03 2.932981e-02 5.240121e-02 3.647226e-02 2.408501e-02 -1.569620e-03 5.596976e-03 4.385156e-04 -2.559988e-03 -1.322645e-02 4.444490e-03 -6.302750e-03 7.774003e-03 -2.956503e-03 6.981849e-03 1.498255e-02 3.814591e-02 6.383134e-02 8.461843e-02 1.063875e-01 1.227731e-01 1.382340e-01 1.480997e-01 1.572477e-01 1.617966e-01 1.661413e-01 1.668944e-01 1.678228e-01 1.658730e-01 1.643775e-01 1.604117e-01 1.571597e-01 1.515888e-01 1.470254e-01 1.400916e-01 1.345214e-01 1.263748e-01 1.200204e-01 1.107732e-01 1.038179e-01 
9.857941e-02 9.029990e-02 7.955797e-02 7.092891e-02 5.949130e-02 5.074497e-02 3.883816e-02 3.023259e-02 1.813121e-02 9.941732e-03 -2.043156e-03 -9.538326e-03 -2.107681e-02 -2.761385e-02 -3.837704e-02 -4.372281e-02 -5.340120e-02 -5.736505e-02 -6.568193e-02 -6.812052e-02 -7.483847e-02 -7.565282e-02 -8.057296e-02 -7.969887e-02 -8.265457e-02 -8.004918e-02 -8.089725e-02 -7.652572e-02 -7.513918e-02 -6.896588e-02 -6.523252e-02 -5.722089e-02 -5.105129e-02 -4.117579e-02 -3.252347e-02 -2.079559e-02 -9.690803e-03 3.800218e-03 1.720385e-02 3.223723e-02 4.760563e-02 6.376602e-02 8.052280e-02 9.713556e-02 1.144049e-01 1.304823e-01 1.470523e-01 1.612708e-01 1.756001e-01 1.863384e-01 1.966411e-01 2.021168e-01 2.065590e-01 2.050964e-01 2.021280e-01 1.925570e-01 1.813434e-01 1.634465e-01 1.442664e-01 1.190775e-01 9.344240e-02 6.314161e-02 3.341294e-02 7.025134e-04 -3.073452e-02 -6.350387e-02 -9.502701e-02 -1.264514e-01 -1.574706e-01 -1.871351e-01 -2.178809e-01 -2.459312e-01 -2.768334e-01 -3.029539e-01 -3.333645e-01 -3.551064e-01 -3.814334e-01 -3.927501e-01 -4.073618e-01 -3.993333e-01 -3.922097e-01 -3.577377e-01 -3.221562e-01 -2.647814e-01 -2.061386e-01 -1.471183e-01 -8.422730e-02 -4.506825e-02 9.437816e-03 5.251560e-02 4.868156e-02 2.961936e-02 4.423697e-02 4.251440e-02 1.472052e-02 -1.111963e-02 1.262725e-02 -3.289455e-03 8.141293e-03 -3.013584e-03 5.057375e-03 -6.885180e-03 3.065976e-03 -1.025030e-02 -4.098303e-03 3.324995e-02 6.694493e-02 9.792010e-02 1.193175e-01 1.384080e-01 1.498061e-01 1.603723e-01 1.654489e-01 1.704056e-01 1.714624e-01 1.726484e-01 1.709858e-01 1.695300e-01 1.658795e-01 1.624890e-01 1.572636e-01 1.523951e-01 1.458285e-01 1.397912e-01 1.320223e-01 1.250450e-01 1.161742e-01 1.084507e-01 
1.097747e-01 1.011293e-01 8.807131e-02 7.902976e-02 6.502365e-02 5.583967e-02 4.117873e-02 3.213699e-02 1.717606e-02 8.581688e-03 -6.280133e-03 -1.411914e-02 -2.846288e-02 -3.525659e-02 -4.867042e-02 -5.416672e-02 -6.627045e-02 -7.026912e-02 -8.073189e-02 -8.309004e-02 -9.163833e-02 -9.226608e-02 -9.868181e-02 -9.752949e-02 -1.016402e-01 -9.868049e-02 -1.003453e-01 -9.555512e-02 -9.465213e-02 -8.799892e-02 -8.441811e-02 -7.585646e-02 -6.950375e-02 -5.898537e-02 -4.980074e-02 -3.730118e-02 -2.529287e-02 -1.085574e-02 3.849214e-03 2.005110e-02 3.714222e-02 5.473200e-02 7.364130e-02 9.195618e-02 1.117838e-01 1.297986e-01 1.492540e-01 1.655329e-01 1.829190e-01 1.956313e-01 2.089128e-01 2.159666e-01 2.229750e-01 2.223239e-01 2.211408e-01 2.112818e-01 2.007763e-01 1.813476e-01 1.617044e-01 1.339099e-01 1.068152e-01 7.328627e-02 4.144600e-02 5.368730e-03 -2.852646e-02 -6.454135e-02 -9.866657e-02 -1.331192e-01 -1.666504e-01 -1.990210e-01 -2.319427e-01 -2.623899e-01 -2.951517e-01 -3.236915e-01 -3.560223e-01 -3.806393e-01 -4.090502e-01 -4.234023e-01 -4.390960e-01 -4.322595e-01 -4.224604e-01 -3.829873e-01 -3.387531e-01 -2.649163e-01 -1.967811e-01 -1.121384e-01 -5.435260e-02 -2.861245e-04 4.937616e-02 8.376163e-02 1.238409e-01 4.941367e-02 -1.333218e-02 -1.846753e-02 2.327378e-02 8.091514e-03 5.150286e-03 -1.947746e-03 3.823115e-03 -7.971922e-03 4.359766e-03 -4.685659e-03 8.417889e-03 -1.574811e-02 -8.910179e-03 3.373098e-02 7.604198e-02 1.119176e-01 1.355470e-01 1.561775e-01 1.679779e-01 1.790735e-01 1.842262e-01 1.894398e-01 1.904704e-01 1.918075e-01 1.899705e-01 1.885891e-01 1.845429e-01 1.811518e-01 1.752513e-01 1.703051e-01 1.627447e-01 1.565517e-01 1.474482e-01 1.402387e-01 1.296873e-01 1.216599e-01 
1.140537e-01 1.044657e-01 9.203692e-02 8.191252e-02 6.849539e-02 5.812671e-02 4.400925e-02 3.372815e-02 1.926519e-02 9.429562e-03 -4.975316e-03 -1.400384e-02 -2.792458e-02 -3.580684e-02 -4.882445e-02 -5.526837e-02 -6.699768e-02 -7.177579e-02 -8.188438e-02 -8.484043e-02 -9.305638e-02 -9.409963e-02 -1.002078e-01 -9.929656e-02 -1.031254e-01 -1.002443e-01 -1.016486e-01 -9.678434e-02 -9.562856e-02 -8.875186e-02 -8.490109e-02 -7.595936e-02 -6.928275e-02 -5.820903e-02 -4.859980e-02 -3.534102e-02 -2.275537e-02 -7.321307e-03 8.163431e-03 2.563110e-02 4.374105e-02 6.288267e-02 8.305936e-02 1.032006e-01 1.245091e-01 1.445656e-01 1.656149e-01 1.840212e-01 2.029259e-01 2.176283e-01 2.320608e-01 2.406397e-01 2.480440e-01 2.480438e-01 2.460856e-01 2.356093e-01 2.228750e-01 2.013726e-01 1.781465e-01 1.470804e-01 1.157399e-01 7.855953e-02 4.299500e-02 4.019496e-03 -3.198188e-02 -6.927919e-02 -1.035694e-01 -1.376121e-01 -1.699502e-01 -2.009875e-01 -2.326641e-01 -2.623323e-01 -2.956664e-01 -3.257462e-01 -3.624650e-01 -3.918618e-01 -4.293634e-01 -4.502336e-01 -4.781950e-01 -4.751860e-01 -4.762284e-01 -4.321995e-01 -3.888367e-01 -3.005543e-01 -2.140849e-01 -1.222917e-01 -2.920976e-02 -1.301036e-02 8.248955e-02 1.484110e-01 7.125225e-02 1.174774e-02 4.991597e-02 2.281452e-02 -3.646504e-02 -3.851413e-02 -1.742638e-02 -3.972540e-02 -1.549223e-02 -2.309843e-02 -7.609702e-03 -1.660473e-02 -1.149152e-03 -1.607958e-02 2.558833e-03 4.844910e-02 8.535688e-02 1.188674e-01 1.389092e-01 1.587346e-01 1.692231e-01 1.803525e-01 1.852636e-01 1.907506e-01 1.920097e-01 1.936085e-01 1.922192e-01 1.909842e-01 1.874983e-01 1.840919e-01 1.788149e-01 1.736692e-01 1.667682e-01 1.601819e-01 1.517543e-01 1.439570e-01 1.340811e-01 1.252796e-01 
1.260625e-01 1.161699e-01 1.011357e-01 9.063868e-02 7.428686e-02 6.350296e-02 4.620554e-02 3.549979e-02 1.771397e-02 7.482319e-03 -1.027523e-02 -1.963278e-02 -3.682196e-02 -4.493307e-02 -6.103012e-02 -6.757997e-02 -8.211313e-02 -8.686552e-02 -9.943989e-02 -1.022448e-01 -1.125521e-01 -1.133382e-01 -1.211508e-01 -1.199041e-01 -1.250565e-01 -1.217913e-01 -1.241551e-01 -1.188824e-01 -1.183410e-01 -1.110437e-01 -1.074753e-01 -9.809517e-02 -9.136942e-02 -7.981218e-02 -6.980637e-02 -5.596919e-02 -4.260591e-02 -2.642882e-02 -9.736984e-03 8.721213e-03 2.852345e-02 4.898639e-02 7.138994e-02 9.324631e-02 1.173377e-01 1.395148e-01 1.638651e-01 1.847153e-01 2.073013e-01 2.245474e-01 2.427628e-01 2.535867e-01 2.644398e-01 2.658371e-01 2.664519e-01 2.559652e-01 2.444439e-01 2.212268e-01 1.976826e-01 1.634639e-01 1.305905e-01 8.964977e-02 5.193863e-02 9.415574e-03 -2.900067e-02 -6.948476e-02 -1.064460e-01 -1.434655e-01 -1.784220e-01 -2.119342e-01 -2.454535e-01 -2.767683e-01 -3.109079e-01 -3.422958e-01 -3.797726e-01 -4.115211e-01 -4.508886e-01 -4.760640e-01 -5.060955e-01 -5.082555e-01 -5.067123e-01 -4.630723e-01 -4.045629e-01 -2.965512e-01 -1.867670e-01 -3.894843e-02 3.766670e-02 1.146817e-01 1.518854e-01 3.961427e-02 1.718532e-02 1.041525e-02 -7.283800e-02 -9.172338e-02 -4.558341e-03 -2.543687e-02 -1.073670e-02 -1.180739e-02 4.572560e-03 -1.062777e-02 1.018068e-02 -7.987428e-03 1.256516e-02 -4.362589e-03 2.109750e-02 8.958783e-02 1.171858e-01 1.468005e-01 1.614719e-01 1.793526e-01 1.882962e-01 1.989589e-01 2.036892e-01 2.092404e-01 2.106527e-01 2.124575e-01 2.111501e-01 2.101180e-01 2.064622e-01 2.031996e-01 1.974066e-01 1.923225e-01 1.845046e-01 1.778876e-01 1.681121e-01 1.601884e-01 1.485247e-01 1.395034e-01 
1.296897e-01 1.187937e-01 1.047004e-01 9.301574e-02 7.755053e-02 6.544162e-02 4.896780e-02 3.685882e-02 1.983212e-02 8.186346e-03 -8.871781e-03 -1.958547e-02 -3.612677e-02 -4.547340e-02 -6.096648e-02 -6.858212e-02 -8.255181e-02 -8.816986e-02 -1.002241e-01 -1.036846e-01 -1.135239e-01 -1.147635e-01 -1.221725e-01 -1.211984e-01 -1.260221e-01 -1.228745e-01 -1.249877e-01 -1.197007e-01 -1.189773e-01 -1.115458e-01 -1.078374e-01 -9.819869e-02 -9.132994e-02 -7.936614e-02 -6.915161e-02 -5.471821e-02 -4.100511e-02 -2.398719e-02 -6.724846e-03 1.287822e-02 3.354315e-02 5.550623e-02 7.911183e-02 1.028495e-01 1.284838e-01 1.529007e-01 1.790617e-01 2.024060e-01 2.268847e-01 2.466498e-01 2.664965e-01 2.794630e-01 2.911537e-01 2.937292e-01 2.937079e-01 2.827495e-01 2.685017e-01 2.426723e-01 2.142211e-01 1.754522e-01 1.365015e-01 9.037295e-02 4.758870e-02 1.321804e-03 -3.899567e-02 -8.011314e-02 -1.152704e-01 -1.496779e-01 -1.801341e-01 -2.089987e-01 -2.372233e-01 -2.642785e-01 -2.951758e-01 -3.261262e-01 -3.662086e-01 -4.039665e-01 -4.542621e-01 -4.901006e-01 -5.384844e-01 -5.484483e-01 -5.693150e-01 -5.194977e-01 -4.768221e-01 -3.373823e-01 -2.137994e-01 -2.924183e-02 1.212397e-01 1.053287e-01 9.977606e-02 7.182026e-02 2.938778e-03 -9.157805e-02 -6.852209e-02 -5.082683e-02 -2.048457e-02 -2.924059e-02 -8.318782e-04 -1.580584e-02 7.918393e-03 -9.718484e-03 7.806204e-03 -1.013931e-02 5.752141e-03 -1.472749e-02 5.767337e-03 8.902601e-02 1.129555e-01 1.447398e-01 1.573795e-01 1.756890e-01 1.840903e-01 1.952353e-01 2.002207e-01 2.063348e-01 2.083734e-01 2.106834e-01 2.101771e-01 2.095008e-01 2.067376e-01 2.036313e-01 1.987862e-01 1.936325e-01 1.867976e-01 1.798717e-01 1.710971e-01 1.626222e-01 1.519587e-01 1.421506e-01 