# vtk DataFile Version 2.0
Comment goes here
ASCII

DATASET STRUCTURED_POINTS
DIMENSIONS    128   128   1

ORIGIN    0.000   0.000   0.000
SPACING   0.0156250.015625   1.000

POINT_DATA   16384
SCALARS uY double
LOOKUP_TABLE default

-2.854645e-08 -3.209040e-08 -2.674977e-08 -3.134339e-08 -2.628477e-08 -3.181118e-08 -2.717985e-08 -3.348738e-08 -2.943604e-08 -3.633553e-08 -3.302174e-08 -4.028351e-08 -3.786588e-08 -4.521716e-08 -4.385088e-08 -5.097443e-08 -5.080653e-08 -5.734133e-08 -5.850629e-08 -6.405098e-08 -6.666707e-08 -7.078708e-08 -7.495411e-08 -7.719319e-08 -8.299220e-08 -8.288906e-08 -9.038455e-08 -8.749526e-08 -9.674040e-08 -9.066684e-08 -1.017118e-07 -9.213616e-08 -1.050392e-07 -9.176447e-08 -1.066058e-07 -8.960023e-08 -1.064961e-07 -8.594121e-08 -1.050565e-07 -8.139472e-08 -1.029510e-07 -7.692854e-08 -1.012029e-07 -7.390174e-08 -1.012106e-07 -7.406203e-08 -1.047258e-07 -7.949407e-08 -1.137773e-07 -9.250276e-08 -1.305275e-07 -1.154193e-07 -1.570559e-07 -1.503268e-07 -1.950722e-07 -1.987171e-07 -2.455806e-07 -2.611145e-07 -3.085409e-07 -3.367224e-07 -3.825866e-07 -4.231722e-07 -4.648735e-07 -5.164495e-07 -5.511192e-07 -6.110553e-07 -6.358601e-07 -7.004105e-07 -7.128954e-07 -7.774521e-07 -7.758491e-07 -8.353345e-07 -8.187688e-07 -8.681542e-07 -8.367379e-07 -8.716709e-07 -8.265419e-07 -8.440424e-07 -7.874234e-07 -7.865491e-07 -7.218322e-07 -7.041243e-07 -6.358461e-07 -6.053020e-07 -5.387772e-07 -5.011356e-07 -4.415892e-07 -4.029352e-07 -3.542638e-07 -3.193042e-07 -2.829813e-07 -2.536537e-07 -2.284919e-07 -2.036848e-07 -1.868736e-07 -1.636961e-07 -1.525452e-07 -1.285344e-07 -1.217741e-07 -9.646938e-08 -9.435876e-08 -6.972937e-08 -7.326055e-08 -5.338734e-08 -6.264409e-08 -5.091314e-08 -6.286033e-08 -5.710713e-08 -6.752032e-08 -6.410451e-08 -7.072914e-08 -6.757676e-08 -7.029109e-08 -6.691273e-08 -6.656978e-08 -6.321854e-08 -6.078690e-08 -5.787943e-08 -5.411456e-08 -5.199753e-08 -4.740784e-08 -4.630835e-08 -4.121944e-08 -4.126090e-08 -3.588823e-08 -3.711794e-08 -3.162070e-08 -3.403166e-08 
1.295677e-04 1.233235e-04 1.066142e-04 1.007029e-04 8.371188e-05 7.808082e-05 6.099440e-05 5.562864e-05 3.867787e-05 3.359479e-05 1.704352e-05 1.228696e-05 -3.581720e-06 -7.946533e-06 -2.284362e-05 -2.673387e-05 -4.037595e-05 -4.369352e-05 -5.581146e-05 -5.844392e-05 -6.878867e-05 -7.060942e-05 -7.895519e-05 -7.982392e-05 -8.597015e-05 -8.573472e-05 -8.950829e-05 -8.800976e-05 -8.926972e-05 -8.635220e-05 -8.499903e-05 -8.052607e-05 -7.651766e-05 -7.039676e-05 -6.377240e-05 -5.598825e-05 -4.690112e-05 -3.755742e-05 -2.631395e-05 -1.568126e-05 -2.783295e-06 8.652158e-06 2.246992e-05 3.396549e-05 4.771434e-05 5.825116e-05 7.069848e-05 7.899883e-05 8.872585e-05 9.332444e-05 9.884461e-05 9.822531e-05 9.816596e-05 9.096270e-05 8.429308e-05 6.953264e-05 5.579722e-05 3.313751e-05 1.263242e-05 -1.746588e-05 -4.363734e-05 -7.986111e-05 -1.098882e-04 -1.501634e-04 -1.817582e-04 -2.234461e-04 -2.541172e-04 -2.942362e-04 -3.214935e-04 -3.568876e-04 -3.783027e-04 -4.057369e-04 -4.188863e-04 -4.351475e-04 -4.375944e-04 -4.397770e-04 -4.293466e-04 -4.155257e-04 -3.910846e-04 -3.614297e-04 -3.240913e-04 -2.820999e-04 -2.362849e-04 -1.893501e-04 -1.427284e-04 -1.010845e-04 -6.262332e-05 -3.625881e-05 -1.263855e-05 -6.989320e-06 1.051282e-06 -1.130379e-05 -1.220316e-05 -3.113924e-05 -2.984723e-05 -3.925185e-05 -2.570221e-05 -1.174166e-05 1.844782e-05 5.968177e-05 1.041256e-04 1.658581e-04 2.151812e-04 2.763642e-04 3.136450e-04 3.460784e-04 3.615904e-04 3.659769e-04 3.660371e-04 3.559528e-04 3.487345e-04 3.342240e-04 3.239732e-04 3.094653e-04 2.977103e-04 2.845683e-04 2.718251e-04 2.602539e-04 2.467511e-04 2.366065e-04 2.224700e-04 2.135227e-04 1.988134e-04 1.908278e-04 1.755677e-04 1.683290e-04 1.525331e-04 1.458611e-04 
2.413625e-04 2.267412e-04 2.033256e-04 1.891530e-04 1.656651e-04 1.518826e-04 1.284767e-04 1.151038e-04 9.200610e-05 7.912727e-05 5.662267e-05 4.437396e-05 2.279051e-05 1.134746e-05 -8.959168e-06 -1.939057e-05 -3.805025e-05 -4.723917e-05 -6.387683e-05 -7.157004e-05 -8.581165e-05 -9.173389e-05 -1.032101e-04 -1.070643e-04 -1.154136e-04 -1.168839e-04 -1.217594e-04 -1.205191e-04 -1.216012e-04 -1.173316e-04 -1.143513e-04 -1.067722e-04 -9.954916e-05 -8.846647e-05 -7.696323e-05 -6.233435e-05 -4.672780e-05 -2.874493e-05 -9.512015e-06 1.130136e-05 3.329220e-05 5.598158e-05 7.938847e-05 1.024833e-04 1.254420e-04 1.469119e-04 1.670516e-04 1.843376e-04 1.988958e-04 2.090534e-04 2.151198e-04 2.150992e-04 2.099956e-04 1.970595e-04 1.788216e-04 1.510539e-04 1.189245e-04 7.572609e-05 3.051785e-05 -2.705182e-05 -8.287509e-05 -1.520451e-04 -2.146528e-04 -2.912193e-04 -3.560020e-04 -4.348381e-04 -4.970691e-04 -5.726385e-04 -6.279036e-04 -6.945461e-04 -7.387368e-04 -7.906621e-04 -8.196048e-04 -8.508199e-04 -8.599599e-04 -8.646199e-04 -8.494162e-04 -8.231351e-04 -7.807034e-04 -7.229778e-04 -6.548440e-04 -5.718693e-04 -4.865517e-04 -3.926905e-04 -3.058671e-04 -2.216888e-04 -1.520247e-04 -9.803917e-05 -5.907491e-05 -4.679479e-05 -3.871541e-05 -6.283478e-05 -7.017285e-05 -1.070368e-04 -1.069702e-04 -1.239039e-04 -9.858156e-05 -6.987966e-05 -1.294455e-05 7.025507e-05 1.553366e-04 2.831870e-04 3.800362e-04 5.098542e-04 5.828178e-04 6.482471e-04 6.753539e-04 6.813090e-04 6.781675e-04 6.558419e-04 6.401763e-04 6.102911e-04 5.903680e-04 5.611499e-04 5.396099e-04 5.132273e-04 4.908958e-04 4.674732e-04 4.447462e-04 4.238780e-04 4.009926e-04 3.821824e-04 3.592405e-04 3.420146e-04 3.190134e-04 3.029583e-04 2.798464e-04 2.646289e-04 
3.887584e-04 3.701298e-04 3.198572e-04 3.021871e-04 2.510178e-04 2.341519e-04 1.826527e-04 1.665518e-04 1.154279e-04 1.001493e-04 5.020618e-05 3.588608e-05 -1.201332e-05 -2.517606e-05 -7.015292e-05 -8.190823e-05 -1.231033e-04 -1.331566e-04 -1.697564e-04 -1.777712e-04 -2.090251e-04 -2.146219e-04 -2.398504e-04 -2.426074e-04 -2.612064e-04 -2.606630e-04 -2.721084e-04 -2.677788e-04 -2.716383e-04 -2.630391e-04 -2.589981e-04 -2.456963e-04 -2.336042e-04 -2.152891e-04 -1.952313e-04 -1.718152e-04 -1.442116e-04 -1.159572e-04 -8.168453e-05 -4.935379e-05 -9.879675e-06 2.511120e-05 6.760440e-05 1.030496e-04 1.455863e-04 1.784150e-04 2.172404e-04 2.435517e-04 2.742916e-04 2.895573e-04 3.075707e-04 3.070463e-04 3.079868e-04 2.873358e-04 2.678770e-04 2.239457e-04 1.825424e-04 1.141359e-04 5.161763e-05 -3.992999e-05 -1.201581e-04 -2.308167e-04 -3.230978e-04 -4.464521e-04 -5.436548e-04 -6.715730e-04 -7.660248e-04 -8.894014e-04 -9.735763e-04 -1.082858e-03 -1.149532e-03 -1.234924e-03 -1.276846e-03 -1.328434e-03 -1.338018e-03 -1.346419e-03 -1.316357e-03 -1.274687e-03 -1.200363e-03 -1.107891e-03 -9.915682e-04 -8.582021e-04 -7.131741e-04 -5.621194e-04 -4.133152e-04 -2.783257e-04 -1.561914e-04 -7.148308e-05 3.607158e-07 1.498658e-05 3.299216e-05 -1.481328e-05 -2.783935e-05 -9.991719e-05 -1.053308e-04 -1.468320e-04 -1.103394e-04 -7.260297e-05 1.961685e-05 1.486715e-04 2.892276e-04 4.925284e-04 6.541363e-04 8.628962e-04 9.826765e-04 1.078968e-03 1.120212e-03 1.121478e-03 1.115308e-03 1.076555e-03 1.051832e-03 1.004663e-03 9.728919e-04 9.283023e-04 8.926927e-04 8.531500e-04 8.147353e-04 7.801867e-04 7.395565e-04 7.093552e-04 6.668783e-04 6.402731e-04 5.961140e-04 5.723745e-04 5.265686e-04 5.050377e-04 4.576012e-04 4.377308e-04 
4.823066e-04 4.532149e-04 4.063015e-04 3.780196e-04 3.308844e-04 3.033053e-04 2.562629e-04 2.294388e-04 1.829544e-04 1.570677e-04 1.117271e-04 8.706138e-05 4.353642e-05 2.045166e-05 -2.053308e-05 -4.161961e-05 -7.931420e-05 -9.793873e-05 -1.315869e-04 -1.472430e-04 -1.760930e-04 -1.882304e-04 -2.115399e-04 -2.195622e-04 -2.366021e-04 -2.398691e-04 -2.499324e-04 -2.477736e-04 -2.501973e-04 -2.419443e-04 -2.361530e-04 -2.211985e-04 -2.067771e-04 -1.846676e-04 -1.614693e-04 -1.320364e-04 -1.003295e-04 -6.386080e-05 -2.450740e-05 1.805020e-05 6.339532e-05 1.102186e-04 1.589209e-04 2.071136e-04 2.554293e-04 3.009007e-04 3.439734e-04 3.814647e-04 4.135257e-04 4.368694e-04 4.517184e-04 4.543993e-04 4.461980e-04 4.222353e-04 3.865615e-04 3.316285e-04 2.666040e-04 1.791634e-04 8.633049e-05 -3.155167e-05 -1.469829e-04 -2.894861e-04 -4.192693e-04 -5.774775e-04 -7.117349e-04 -8.748835e-04 -1.003735e-03 -1.160469e-03 -1.275096e-03 -1.414106e-03 -1.506663e-03 -1.616447e-03 -1.678903e-03 -1.747128e-03 -1.769979e-03 -1.783646e-03 -1.756161e-03 -1.704070e-03 -1.617712e-03 -1.496022e-03 -1.351230e-03 -1.170827e-03 -9.844234e-04 -7.759428e-04 -5.834060e-04 -3.941996e-04 -2.409032e-04 -1.208193e-04 -4.189868e-05 -2.152511e-05 -1.934315e-05 -8.934150e-05 -1.246140e-04 -2.286672e-04 -2.442286e-04 -3.022353e-04 -2.572881e-04 -2.092428e-04 -9.372914e-05 7.901243e-05 2.600135e-04 5.506994e-04 7.711186e-04 1.088983e-03 1.252032e-03 1.377457e-03 1.419100e-03 1.404569e-03 1.385436e-03 1.324106e-03 1.287472e-03 1.221444e-03 1.180188e-03 1.120305e-03 1.076806e-03 1.024133e-03 9.791847e-04 9.327981e-04 8.871300e-04 8.458997e-04 8.000277e-04 7.628820e-04 7.169966e-04 6.829587e-04 6.370027e-04 6.052269e-04 5.590413e-04 5.288503e-04 
6.480073e-04 6.172776e-04 5.330385e-04 5.037637e-04 4.178492e-04 3.897880e-04 3.031708e-04 2.762772e-04 1.901746e-04 1.645645e-04 8.036658e-05 5.628406e-05 -2.452487e-05 -4.673557e-05 -1.226515e-04 -1.425664e-04 -2.121278e-04 -2.292536e-04 -2.910860e-04 -3.048622e-04 -3.577047e-04 -3.674995e-04 -4.102150e-04 -4.153206e-04 -4.468967e-04 -4.465310e-04 -4.660806e-04 -4.594032e-04 -4.661769e-04 -4.523292e-04 -4.457509e-04 -4.239307e-04 -4.036697e-04 -3.732481e-04 -3.393370e-04 -3.000262e-04 -2.530294e-04 -2.051025e-04 -1.463329e-04 -9.088789e-05 -2.265529e-05 3.809679e-05 1.122410e-04 1.747067e-04 2.497862e-04 3.088073e-04 3.783850e-04 4.272357e-04 4.836292e-04 5.143068e-04 5.491599e-04 5.530665e-04 5.583336e-04 5.273886e-04 4.966857e-04 4.247783e-04 3.548776e-04 2.393903e-04 1.314539e-04 -2.557321e-05 -1.655148e-04 -3.570235e-04 -5.186899e-04 -7.332553e-04 -9.037380e-04 -1.126992e-03 -1.292751e-03 -1.508938e-03 -1.657255e-03 -1.850219e-03 -1.969402e-03 -2.122667e-03 -2.200947e-03 -2.297242e-03 -2.321264e-03 -2.342761e-03 -2.297663e-03 -2.228837e-03 -2.102303e-03 -1.936999e-03 -1.728223e-03 -1.480016e-03 -1.210477e-03 -9.210533e-04 -6.389871e-04 -3.756458e-04 -1.452305e-04 1.889630e-05 1.442248e-04 1.625369e-04 1.709116e-04 5.365195e-05 -5.176625e-06 -1.799150e-04 -2.213958e-04 -3.400403e-04 -2.929061e-04 -2.444499e-04 -8.656398e-05 1.401847e-04 3.923681e-04 7.890163e-04 1.105134e-03 1.560238e-03 1.788107e-03 1.930555e-03 1.974429e-03 1.929049e-03 1.898857e-03 1.808609e-03 1.761032e-03 1.674178e-03 1.620085e-03 1.544339e-03 1.484615e-03 1.419137e-03 1.354674e-03 1.297899e-03 1.229823e-03 1.180338e-03 1.109366e-03 1.065838e-03 9.921948e-04 9.533591e-04 8.769913e-04 8.417165e-04 7.625448e-04 7.298947e-04 
7.225208e-04 6.792486e-04 6.086894e-04 5.664051e-04 4.953079e-04 4.538801e-04 3.827361e-04 3.422784e-04 2.718215e-04 2.326431e-04 1.637947e-04 1.263522e-04 6.016116e-05 2.501740e-05 -3.739540e-05 -6.960080e-05 -1.270865e-04 -1.556531e-04 -2.070636e-04 -2.312329e-04 -2.754336e-04 -2.943825e-04 -3.302545e-04 -3.430850e-04 -3.695225e-04 -3.752567e-04 -3.911707e-04 -3.887617e-04 -3.931025e-04 -3.814735e-04 -3.732865e-04 -3.514101e-04 -3.299369e-04 -2.969688e-04 -2.618076e-04 -2.172830e-04 -1.686133e-04 -1.127120e-04 -5.158345e-05 1.454161e-05 8.587565e-05 1.597291e-04 2.374703e-04 3.148519e-04 3.933811e-04 4.681127e-04 5.398868e-04 6.037512e-04 6.595154e-04 7.025604e-04 7.320303e-04 7.433932e-04 7.365163e-04 7.058538e-04 6.546225e-04 5.740616e-04 4.745994e-04 3.408505e-04 1.951829e-04 1.116762e-05 -1.721177e-04 -3.968702e-04 -6.037069e-04 -8.543214e-04 -1.067934e-03 -1.326749e-03 -1.531040e-03 -1.780250e-03 -1.962081e-03 -2.184962e-03 -2.333915e-03 -2.513890e-03 -2.619362e-03 -2.737590e-03 -2.784870e-03 -2.818719e-03 -2.787440e-03 -2.713291e-03 -2.582408e-03 -2.385605e-03 -2.146921e-03 -1.837851e-03 -1.514059e-03 -1.142543e-03 -7.976170e-04 -4.519954e-04 -1.781035e-04 4.095714e-05 1.652957e-04 1.888310e-04 1.520658e-04 -1.176624e-05 -1.218427e-04 -3.618936e-04 -4.232715e-04 -5.745684e-04 -5.168693e-04 -4.700898e-04 -2.980959e-04 -4.259074e-05 2.375390e-04 7.466975e-04 1.141944e-03 1.823607e-03 2.116356e-03 2.251424e-03 2.267505e-03 2.165713e-03 2.110954e-03 1.986156e-03 1.927420e-03 1.821670e-03 1.760975e-03 1.671777e-03 1.606852e-03 1.529513e-03 1.461578e-03 1.393536e-03 1.324495e-03 1.264013e-03 1.194980e-03 1.140483e-03 1.071714e-03 1.021711e-03 9.529591e-04 9.061400e-04 8.370096e-04 7.923303e-04 
9.076876e-04 8.653222e-04 7.464400e-04 7.058021e-04 5.841697e-04 5.449589e-04 4.220066e-04 3.842044e-04 2.617331e-04 2.255472e-04 1.056103e-04 7.142117e-05 -4.380129e-05 -7.548396e-05 -1.838006e-04 -2.123682e-04 -3.116703e-04 -3.364292e-04 -4.247550e-04 -4.449246e-04 -5.204927e-04 -5.351933e-04 -5.964081e-04 -6.046446e-04 -6.500846e-04 -6.507371e-04 -6.791404e-04 -6.709737e-04 -6.812376e-04 -6.629438e-04 -6.541589e-04 -6.244491e-04 -5.959867e-04 -5.537462e-04 -5.054174e-04 -4.499390e-04 -3.822361e-04 -3.135386e-04 -2.279624e-04 -1.471921e-04 -4.664954e-05 4.345703e-05 1.542284e-04 2.488732e-04 3.629326e-04 4.548716e-04 5.628839e-04 6.422766e-04 7.326804e-04 7.873676e-04 8.471057e-04 8.635241e-04 8.795018e-04 8.443737e-04 8.056544e-04 7.083886e-04 6.088284e-04 4.442202e-04 2.848352e-04 5.527045e-05 -1.546651e-04 -4.384488e-04 -6.824087e-04 -1.002553e-03 -1.259856e-03 -1.594202e-03 -1.843985e-03 -2.169139e-03 -2.393288e-03 -2.686412e-03 -2.869874e-03 -3.108277e-03 -3.236262e-03 -3.395079e-03 -3.448373e-03 -3.498423e-03 -3.450487e-03 -3.360442e-03 -3.182119e-03 -2.929789e-03 -2.606137e-03 -2.200050e-03 -1.755967e-03 -1.258652e-03 -7.765699e-04 -3.089083e-04 8.634405e-05 3.802044e-04 5.759398e-04 5.952519e-04 5.555773e-04 3.067239e-04 1.379448e-04 -2.300124e-04 -3.567282e-04 -6.472366e-04 -6.054026e-04 -5.615875e-04 -3.346114e-04 -2.490130e-05 3.287834e-04 9.622151e-04 1.487462e-03 2.459865e-03 2.838768e-03 2.915101e-03 2.903205e-03 2.726681e-03 2.663636e-03 2.506734e-03 2.446148e-03 2.324090e-03 2.253710e-03 2.151477e-03 2.068823e-03 1.980077e-03 1.889003e-03 1.811697e-03 1.715589e-03 1.648216e-03 1.548550e-03 1.489373e-03 1.386305e-03 1.333507e-03 1.226657e-03 1.178574e-03 1.067579e-03 1.022854e-03 
9.620778e-04 9.050439e-04 8.106273e-04 7.544720e-04 6.589216e-04 6.035315e-04 5.075521e-04 4.531516e-04 3.578007e-04 3.048742e-04 2.114690e-04 1.606868e-04 7.070891e-05 2.286653e-05 -6.212313e-05 -1.061479e-04 -1.845730e-04 -2.238400e-04 -2.941472e-04 -3.276528e-04 -3.883231e-04 -4.149816e-04 -4.645220e-04 -4.831386e-04 -5.200627e-04 -5.293110e-04 -5.521251e-04 -5.505430e-04 -5.577557e-04 -5.437779e-04 -5.339533e-04 -5.059995e-04 -4.778764e-04 -4.345146e-04 -3.872107e-04 -3.274146e-04 -2.607329e-04 -1.842460e-04 -9.908873e-05 -6.900820e-06 9.422044e-05 1.993043e-04 3.117037e-04 4.244522e-04 5.407381e-04 6.529472e-04 7.626776e-04 8.628670e-04 9.526189e-04 1.026228e-03 1.080371e-03 1.110759e-03 1.113215e-03 1.083725e-03 1.020813e-03 9.179133e-04 7.819880e-04 5.990090e-04 3.919189e-04 1.322414e-04 -1.329644e-04 -4.548415e-04 -7.555072e-04 -1.116189e-03 -1.425253e-03 -1.797542e-03 -2.090410e-03 -2.448817e-03 -2.708273e-03 -3.031602e-03 -3.247550e-03 -3.516549e-03 -3.679734e-03 -3.870558e-03 -3.962558e-03 -4.040055e-03 -4.025735e-03 -3.943660e-03 -3.775556e-03 -3.491828e-03 -3.134430e-03 -2.643909e-03 -2.114931e-03 -1.487506e-03 -8.931045e-04 -2.854691e-04 1.923321e-04 5.844940e-04 7.728792e-04 8.030366e-04 6.586953e-04 3.187522e-04 5.069859e-05 -4.449731e-04 -5.775420e-04 -8.978341e-04 -8.116769e-04 -7.866764e-04 -5.751500e-04 -3.166930e-04 -7.180679e-06 6.812029e-04 1.265026e-03 2.796755e-03 3.279458e-03 3.165379e-03 3.077465e-03 2.799072e-03 2.732800e-03 2.559751e-03 2.510094e-03 2.385575e-03 2.317804e-03 2.209477e-03 2.124874e-03 2.027017e-03 1.935012e-03 1.847463e-03 1.754134e-03 1.676066e-03 1.583657e-03 1.513314e-03 1.421915e-03 1.357261e-03 1.266110e-03 1.205292e-03 1.113517e-03 1.055082e-03 
1.168724e-03 1.115355e-03 9.608640e-04 9.091634e-04 7.503830e-04 7.000411e-04 5.389525e-04 4.900340e-04 3.291409e-04 2.819986e-04 1.241424e-04 7.933725e-05 -7.249011e-05 -1.142533e-04 -2.570792e-04 -2.949935e-04 -4.259978e-04 -4.591702e-04 -5.757711e-04 -6.032136e-04 -7.031031e-04 -7.237043e-04 -8.048399e-04 -8.173271e-04 -8.778930e-04 -8.807991e-04 -9.191586e-04 -9.108106e-04 -9.254740e-04 -9.040232e-04 -8.936601e-04 -8.571754e-04 -8.207008e-04 -7.673487e-04 -7.041098e-04 -6.324451e-04 -5.425351e-04 -4.519206e-04 -3.366312e-04 -2.277990e-04 -9.020891e-05 3.405011e-05 1.883895e-04 3.224573e-04 4.848316e-04 6.195292e-04 7.775374e-04 8.996313e-04 1.037103e-03 1.129363e-03 1.227081e-03 1.269288e-03 1.306913e-03 1.278193e-03 1.237601e-03 1.120182e-03 9.899460e-04 7.738309e-04 5.537232e-04 2.408832e-04 -5.557252e-05 -4.494894e-04 -7.964235e-04 -1.244307e-03 -1.609293e-03 -2.078123e-03 -2.430045e-03 -2.887001e-03 -3.202035e-03 -3.618007e-03 -3.880530e-03 -4.228920e-03 -4.425786e-03 -4.676215e-03 -4.785137e-03 -4.894708e-03 -4.872404e-03 -4.782113e-03 -4.564918e-03 -4.213852e-03 -3.745758e-03 -3.112928e-03 -2.403960e-03 -1.568900e-03 -7.529042e-04 7.125176e-05 7.502892e-04 1.279808e-03 1.589054e-03 1.618022e-03 1.453727e-03 9.736061e-04 5.949520e-04 -7.630553e-05 -3.245056e-04 -9.734662e-04 -9.373711e-04 -8.559611e-04 -5.438696e-04 -2.521782e-04 8.236724e-05 7.573185e-04 1.396983e-03 3.556924e-03 4.083113e-03 3.635574e-03 3.538344e-03 3.209749e-03 3.218949e-03 3.068670e-03 3.053957e-03 2.936004e-03 2.864687e-03 2.749293e-03 2.643691e-03 2.535816e-03 2.415859e-03 2.320093e-03 2.194754e-03 2.111358e-03 1.982901e-03 1.909917e-03 1.777814e-03 1.712719e-03 1.575750e-03 1.516220e-03 1.373428e-03 1.317624e-03 
1.201646e-03 1.131373e-03 1.012820e-03 9.429073e-04 8.221989e-04 7.526221e-04 6.307498e-04 5.619223e-04 4.403601e-04 3.730150e-04 2.535715e-04 1.886543e-04 7.332857e-05 1.190971e-05 -9.723304e-05 -1.540172e-04 -2.549351e-04 -3.059063e-04 -3.966290e-04 -4.405567e-04 -5.191897e-04 -5.547525e-04 -6.194474e-04 -6.451768e-04 -6.940810e-04 -7.083057e-04 -7.395114e-04 -7.403214e-04 -7.518419e-04 -7.370954e-04 -7.268948e-04 -6.942954e-04 -6.604045e-04 -6.076756e-04 -5.484260e-04 -4.736146e-04 -3.880187e-04 -2.899566e-04 -1.782591e-04 -5.720320e-05 7.839117e-05 2.199369e-04 3.743860e-04 5.307054e-04 6.951902e-04 8.563570e-04 1.017467e-03 1.168542e-03 1.307912e-03 1.428725e-03 1.523622e-03 1.589692e-03 1.615159e-03 1.600374e-03 1.533425e-03 1.414857e-03 1.240620e-03 1.005029e-03 7.234666e-04 3.736276e-04 3.845613e-06 -4.385511e-04 -8.601067e-04 -1.358053e-03 -1.787161e-03 -2.298411e-03 -2.697072e-03 -3.185870e-03 -3.533043e-03 -3.976066e-03 -4.268251e-03 -4.650078e-03 -4.889303e-03 -5.187672e-03 -5.359105e-03 -5.525657e-03 -5.574204e-03 -5.523556e-03 -5.349254e-03 -4.976827e-03 -4.473076e-03 -3.718062e-03 -2.861831e-03 -1.804581e-03 -7.625732e-04 3.147956e-04 1.175035e-03 1.886773e-03 2.182637e-03 2.240446e-03 1.820820e-03 1.169447e-03 6.110588e-04 -3.126664e-04 -4.210667e-04 -9.247953e-04 -7.038845e-04 -6.627396e-04 -4.721243e-04 -4.408152e-04 -3.185178e-04 -1.948035e-05 3.451905e-04 3.745550e-03 4.336498e-03 3.148748e-03 3.099250e-03 2.841016e-03 3.009236e-03 2.958488e-03 3.005486e-03 2.920268e-03 2.857725e-03 2.743680e-03 2.634441e-03 2.518789e-03 2.398051e-03 2.292563e-03 2.173065e-03 2.079343e-03 1.963547e-03 1.879424e-03 1.766172e-03 1.688724e-03 1.576047e-03 1.502683e-03 1.388870e-03 1.317663e-03 
1.432916e-03 1.369310e-03 1.177909e-03 1.115455e-03 9.175456e-04 8.560077e-04 6.542793e-04 5.938919e-04 3.917352e-04 3.330757e-04 1.343085e-04 7.818231e-05 -1.132225e-04 -1.658732e-04 -3.460286e-04 -3.941824e-04 -5.594708e-04 -6.020446e-04 -7.492283e-04 -7.850553e-04 -9.113085e-04 -9.390832e-04 -1.041955e-03 -1.060160e-03 -1.137489e-03 -1.144321e-03 -1.194127e-03 -1.187446e-03 -1.207839e-03 -1.185163e-03 -1.174307e-03 -1.132880e-03 -1.089046e-03 -1.026028e-03 -9.477860e-04 -8.605719e-04 -7.471631e-04 -6.338997e-04 -4.858183e-04 -3.461334e-04 -1.659445e-04 -1.914989e-06 2.047069e-04 3.873764e-04 6.104665e-04 8.011562e-04 1.025331e-03 1.207356e-03 1.411111e-03 1.561163e-03 1.717200e-03 1.806072e-03 1.883468e-03 1.878928e-03 1.847890e-03 1.720311e-03 1.559627e-03 1.290033e-03 9.956779e-04 5.839134e-04 1.750680e-04 -3.560922e-04 -8.384249e-04 -1.447065e-03 -1.950847e-03 -2.586977e-03 -3.064860e-03 -3.682725e-03 -4.104259e-03 -4.669664e-03 -5.024357e-03 -5.513024e-03 -5.800850e-03 -6.185327e-03 -6.392202e-03 -6.618432e-03 -6.682000e-03 -6.646457e-03 -6.436791e-03 -5.993430e-03 -5.350422e-03 -4.384881e-03 -3.246217e-03 -1.828292e-03 -4.069242e-04 1.073670e-03 2.268440e-03 3.220680e-03 3.720673e-03 3.760961e-03 3.262657e-03 2.347531e-03 1.638229e-03 7.246312e-04 5.443704e-04 -7.838327e-04 -7.888080e-04 -3.548142e-04 7.883547e-05 2.052235e-04 3.263576e-04 2.852430e-04 2.351926e-04 3.456331e-03 3.393679e-03 2.050228e-03 2.767390e-03 2.953389e-03 3.439504e-03 3.538938e-03 3.639393e-03 3.572695e-03 3.488772e-03 3.362493e-03 3.218835e-03 3.090250e-03 2.934180e-03 2.820632e-03 2.664274e-03 2.567038e-03 2.410414e-03 2.326189e-03 2.166291e-03 2.091229e-03 1.925099e-03 1.855963e-03 1.681658e-03 1.616067e-03 
1.442815e-03 1.359876e-03 1.216810e-03 1.133162e-03 9.863036e-04 9.021272e-04 7.528880e-04 6.689004e-04 5.193184e-04 4.366089e-04 2.891283e-04 2.090057e-04 6.626682e-05 -9.864902e-06 -1.452025e-04 -2.159242e-04 -3.413055e-04 -4.052113e-04 -5.182437e-04 -5.739153e-04 -6.723591e-04 -7.182946e-04 -7.999970e-04 -8.345103e-04 -8.973022e-04 -9.184133e-04 -9.599976e-04 -9.653413e-04 -9.832054e-04 -9.699870e-04 -9.613792e-04 -9.264108e-04 -8.884210e-04 -8.282779e-04 -7.580702e-04 -6.694118e-04 -5.646568e-04 -4.447626e-04 -3.043200e-04 -1.518923e-04 2.321733e-05 2.069411e-04 4.122589e-04 6.220755e-04 8.481703e-04 1.073234e-03 1.304088e-03 1.526220e-03 1.737939e-03 1.930439e-03 2.091045e-03 2.218908e-03 2.290372e-03 2.313217e-03 2.257102e-03 2.136102e-03 1.923587e-03 1.632604e-03 1.257460e-03 7.957661e-04 2.849605e-04 -3.149622e-04 -9.016239e-04 -1.579073e-03 -2.166211e-03 -2.852168e-03 -3.377655e-03 -4.020156e-03 -4.458531e-03 -5.036642e-03 -5.402962e-03 -5.919692e-03 -6.249342e-03 -6.702612e-03 -7.006504e-03 -7.343491e-03 -7.547575e-03 -7.620483e-03 -7.526683e-03 -7.096740e-03 -6.428885e-03 -5.277668e-03 -3.869323e-03 -2.042900e-03 -1.409185e-04 1.810514e-03 3.414903e-03 4.667761e-03 5.123263e-03 5.189962e-03 3.974706e-03 2.698637e-03 1.682169e-03 5.912223e-05 6.842488e-04 1.025926e-03 1.361855e-03 1.464897e-03 1.041221e-03 8.334373e-04 4.908970e-04 2.666337e-04 4.400326e-05 -5.348831e-04 -1.759963e-03 -8.342774e-04 1.251849e-03 2.391170e-03 3.214007e-03 3.507141e-03 3.622417e-03 3.568371e-03 3.453144e-03 3.312660e-03 3.148973e-03 3.007411e-03 2.847390e-03 2.723553e-03 2.576030e-03 2.469105e-03 2.331204e-03 2.236282e-03 2.103168e-03 2.015524e-03 1.883033e-03 1.799054e-03 1.664272e-03 1.581515e-03 
1.703371e-03 1.630364e-03 1.400311e-03 1.327339e-03 1.087611e-03 1.014642e-03 7.688834e-04 6.964497e-04 4.492117e-04 3.782296e-04 1.345785e-04 6.618922e-05 -1.686802e-04 -2.332396e-04 -4.543418e-04 -5.138182e-04 -7.166283e-04 -7.697706e-04 -9.503629e-04 -9.958796e-04 -1.150947e-03 -1.187413e-03 -1.314183e-03 -1.339909e-03 -1.435980e-03 -1.448880e-03 -1.512020e-03 -1.509490e-03 -1.537450e-03 -1.516300e-03 -1.506681e-03 -1.463156e-03 -1.413391e-03 -1.343311e-03 -1.250825e-03 -1.149915e-03 -1.012513e-03 -8.769727e-04 -6.935342e-04 -5.209201e-04 -2.924579e-04 -8.295319e-05 1.859157e-04 4.278067e-04 7.269961e-04 9.903624e-04 1.302209e-03 1.567474e-03 1.864810e-03 2.101858e-03 2.347139e-03 2.514907e-03 2.661862e-03 2.711122e-03 2.710844e-03 2.592074e-03 2.404954e-03 2.082023e-03 1.694227e-03 1.160754e-03 5.985130e-04 -1.118012e-04 -7.815544e-04 -1.600917e-03 -2.290813e-03 -3.139966e-03 -3.774229e-03 -4.587173e-03 -5.125668e-03 -5.864733e-03 -6.311486e-03 -6.967502e-03 -7.359445e-03 -7.929952e-03 -8.292838e-03 -8.730954e-03 -8.995340e-03 -9.135286e-03 -9.053377e-03 -8.573729e-03 -7.739496e-03 -6.275122e-03 -4.388675e-03 -1.900146e-03 7.050999e-04 3.448443e-03 5.562388e-03 7.154000e-03 7.879354e-03 7.700628e-03 6.216361e-03 3.830344e-03 3.046111e-03 3.005877e-03 3.111259e-03 1.764865e-03 3.669559e-05 -8.715309e-04 -1.336852e-03 -1.213305e-03 -1.110266e-03 -7.548341e-04 -2.459964e-04 -2.426373e-03 -2.301877e-03 5.583365e-04 2.660977e-03 3.932747e-03 4.470411e-03 4.643391e-03 4.566601e-03 4.423442e-03 4.205420e-03 4.019489e-03 3.797863e-03 3.636200e-03 3.434806e-03 3.303757e-03 3.117124e-03 3.009707e-03 2.828084e-03 2.736530e-03 2.551823e-03 2.470038e-03 2.276694e-03 2.200337e-03 1.995191e-03 1.921370e-03 
1.688531e-03 1.593455e-03 1.425299e-03 1.327738e-03 1.153318e-03 1.053824e-03 8.751800e-04 7.749428e-04 5.948968e-04 4.955144e-04 3.173563e-04 2.206242e-04 4.781278e-05 -4.445085e-05 -2.085382e-04 -2.946035e-04 -4.468408e-04 -5.250995e-04 -6.626812e-04 -7.315982e-04 -8.520058e-04 -9.100002e-04 -1.010879e-03 -1.056156e-03 -1.135133e-03 -1.165496e-03 -1.219971e-03 -1.232643e-03 -1.259603e-03 -1.251101e-03 -1.246996e-03 -1.213083e-03 -1.173830e-03 -1.109613e-03 -1.030777e-03 -9.309920e-04 -8.082186e-04 -6.677898e-04 -4.975816e-04 -3.125445e-04 -9.346074e-05 1.376444e-04 4.032620e-04 6.774219e-04 9.811445e-04 1.288283e-03 1.612776e-03 1.932664e-03 2.248712e-03 2.547900e-03 2.812243e-03 3.042275e-03 3.198162e-03 3.297453e-03 3.280970e-03 3.183645e-03 2.939043e-03 2.593354e-03 2.097624e-03 1.491564e-03 7.799204e-04 -3.821446e-05 -8.653142e-04 -1.791212e-03 -2.598420e-03 -3.510951e-03 -4.188638e-03 -5.005707e-03 -5.520169e-03 -6.230278e-03 -6.635113e-03 -7.288128e-03 -7.695499e-03 -8.352392e-03 -8.854230e-03 -9.492913e-03 -1.002093e-02 -1.040648e-02 -1.059202e-02 -1.021168e-02 -9.399377e-03 -7.631302e-03 -5.241377e-03 -1.936277e-03 1.715257e-03 5.363207e-03 8.421197e-03 1.036628e-02 1.088855e-02 1.016662e-02 7.327134e-03 5.267769e-03 3.803596e-03 -5.109538e-04 -4.996970e-03 -7.095260e-03 -6.437317e-03 -4.866530e-03 -3.401017e-03 -2.354209e-03 -1.803066e-03 -1.234617e-03 -8.522798e-04 -1.464187e-05 3.179189e-03 5.067602e-03 5.536775e-03 5.696492e-03 5.404350e-03 5.150834e-03 4.758564e-03 4.470134e-03 4.138020e-03 3.903461e-03 3.645601e-03 3.466776e-03 3.262704e-03 3.123391e-03 2.951702e-03 2.836927e-03 2.681945e-03 2.581026e-03 2.432244e-03 2.338029e-03 2.188642e-03 2.096491e-03 1.942369e-03 1.849465e-03 
1.985066e-03 1.903436e-03 1.632352e-03 1.548895e-03 1.263702e-03 1.178772e-03 8.844316e-04 7.990346e-04 5.016492e-04 4.172032e-04 1.234733e-04 4.158418e-05 -2.417351e-04 -3.194566e-04 -5.860305e-04 -6.580804e-04 -9.023380e-04 -9.673398e-04 -1.184647e-03 -1.241280e-03 -1.427935e-03 -1.474779e-03 -1.627850e-03 -1.663184e-03 -1.780227e-03 -1.801798e-03 -1.880523e-03 -1.885332e-03 -1.923259e-03 -1.907394e-03 -1.901576e-03 -1.860130e-03 -1.807011e-03 -1.734144e-03 -1.629609e-03 -1.518804e-03 -1.358530e-03 -1.203156e-03 -9.833475e-04 -7.776211e-04 -4.962689e-04 -2.367846e-04 1.044175e-04 4.164409e-04 8.093927e-04 1.165012e-03 1.591697e-03 1.970319e-03 2.398779e-03 2.763878e-03 3.144666e-03 3.440545e-03 3.705941e-03 3.858481e-03 3.928508e-03 3.854594e-03 3.654766e-03 3.284759e-03 2.777180e-03 2.088217e-03 1.305624e-03 3.484136e-04 -5.959947e-04 -1.705131e-03 -2.656666e-03 -3.784575e-03 -4.615111e-03 -5.660628e-03 -6.311953e-03 -7.233743e-03 -7.735288e-03 -8.559954e-03 -9.027031e-03 -9.822754e-03 -1.039477e-02 -1.117890e-02 -1.183522e-02 -1.237785e-02 -1.268459e-02 -1.232789e-02 -1.133640e-02 -9.106073e-03 -5.833882e-03 -1.263538e-03 3.853902e-03 9.217330e-03 1.289353e-02 1.521645e-02 1.598169e-02 1.312452e-02 8.343001e-03 1.424690e-03 -8.618732e-03 -1.348700e-02 -1.000004e-02 -6.716581e-03 -4.054220e-03 -2.300263e-03 -1.461500e-03 -6.890080e-04 -6.493749e-04 -8.239785e-05 -3.915848e-04 1.261350e-03 7.752147e-03 9.734292e-03 8.771796e-03 8.050637e-03 7.023075e-03 6.403296e-03 5.738937e-03 5.322424e-03 4.889962e-03 4.613558e-03 4.310900e-03 4.120911e-03 3.885260e-03 3.746370e-03 3.540435e-03 3.431137e-03 3.232831e-03 3.140133e-03 2.936202e-03 2.852051e-03 2.634662e-03 2.553975e-03 2.319041e-03 2.238712e-03 
1.943642e-03 1.836741e-03 1.642538e-03 1.530510e-03 1.326488e-03 1.210487e-03 9.996171e-04 8.815321e-04 6.677322e-04 5.498816e-04 3.375872e-04 2.224272e-04 1.616601e-05 -9.395932e-05 -2.899224e-04 -3.929394e-04 -5.748380e-04 -6.689847e-04 -8.336344e-04 -9.173779e-04 -1.062103e-03 -1.133952e-03 -1.256380e-03 -1.314618e-03 -1.412380e-03 -1.454770e-03 -1.525150e-03 -1.548636e-03 -1.588240e-03 -1.588689e-03 -1.593170e-03 -1.565207e-03 -1.529127e-03 -1.466101e-03 -1.382989e-03 -1.277153e-03 -1.139859e-03 -9.828604e-04 -7.843273e-04 -5.681402e-04 -3.027407e-04 -2.124088e-05 3.131052e-04 6.616848e-04 1.060370e-03 1.469813e-03 1.917157e-03 2.368250e-03 2.831885e-03 3.286203e-03 3.711012e-03 4.104759e-03 4.408913e-03 4.650406e-03 4.729126e-03 4.706984e-03 4.453006e-03 4.064284e-03 3.412439e-03 2.613494e-03 1.600491e-03 4.599801e-04 -7.425264e-04 -2.037429e-03 -3.173633e-03 -4.394109e-03 -5.257056e-03 -6.259738e-03 -6.796493e-03 -7.588701e-03 -7.919610e-03 -8.646321e-03 -9.034165e-03 -9.903234e-03 -1.064172e-02 -1.175899e-02 -1.287539e-02 -1.391373e-02 -1.476999e-02 -1.469078e-02 -1.384406e-02 -1.108360e-02 -6.906333e-03 -5.940812e-04 6.743153e-03 1.394624e-02 1.997612e-02 2.310922e-02 1.897808e-02 1.086580e-02 -3.392273e-03 -1.840260e-02 -1.847814e-02 -1.028548e-02 -3.507326e-03 -1.014688e-03 8.132414e-06 8.095509e-04 5.222698e-04 8.767663e-04 2.556412e-04 6.322687e-04 1.136284e-04 -1.351594e-03 4.613124e-03 8.347038e-03 7.932238e-03 7.675196e-03 6.689584e-03 6.136906e-03 5.436533e-03 5.028130e-03 4.576784e-03 4.305766e-03 4.004731e-03 3.819948e-03 3.600396e-03 3.463855e-03 3.285114e-03 3.173781e-03 3.012477e-03 2.912810e-03 2.755198e-03 2.659067e-03 2.496921e-03 2.399417e-03 2.228031e-03 2.126400e-03 