# vtk DataFile Version 2.0
Comment goes here
ASCII

DATASET STRUCTURED_POINTS
DIMENSIONS    128   128   1

ORIGIN    0.000   0.000   0.000
SPACING   0.0156250.015625   1.000

POINT_DATA   16384
SCALARS uY double
LOOKUP_TABLE default

7.555358e-07 3.089069e-07 7.400783e-07 2.522527e-07 7.070097e-07 1.802149e-07 6.556759e-07 9.349137e-08 5.866172e-07 -5.972286e-09 5.016496e-07 -1.148608e-07 4.040334e-07 -2.283233e-07 2.986562e-07 -3.398290e-07 1.921725e-07 -4.410964e-07 9.304782e-08 -5.221454e-07 1.146031e-08 -5.715195e-07 -4.098860e-08 -5.767208e-07 -5.179730e-08 -5.248980e-07 -8.356708e-09 -4.038140e-07 1.009638e-07 -2.031074e-07 2.854316e-07 8.415999e-08 5.502854e-07 4.597028e-07 8.948366e-07 9.180257e-07 1.310424e-06 1.444360e-06 1.778353e-06 2.012687e-06 2.268019e-06 2.584073e-06 2.735481e-06 3.105631e-06 3.122834e-06 3.510517e-06 3.358851e-06 3.719438e-06 3.361381e-06 3.644216e-06 3.042059e-06 3.193913e-06 2.313736e-06 2.283818e-06 1.100783e-06 8.472536e-07 -6.480762e-07 -1.150512e-06 -2.945474e-06 -3.697708e-06 -5.751539e-06 -6.723194e-06 -8.963083e-06 -1.008818e-05 -1.240878e-05 -1.358546e-05 -1.585295e-05 -1.694839e-05 -1.900938e-05 -1.987041e-05 -2.156553e-05 -2.203498e-05 -2.321661e-05 -2.315507e-05 -2.370907e-05 -2.302172e-05 -2.289247e-05 -2.155807e-05 -2.077316e-05 -1.886814e-05 -1.755356e-05 -1.525875e-05 -1.363166e-05 -1.120959e-05 -9.539769e-06 -7.280145e-06 -5.825531e-06 -3.973062e-06 -2.910675e-06 -1.598987e-06 -9.777827e-07 -1.908670e-07 7.273480e-08 4.910674e-07 5.640894e-07 8.371466e-07 8.879309e-07 1.200161e-06 1.319888e-06 1.737050e-06 1.909622e-06 2.359735e-06 2.484871e-06 2.798165e-06 2.767224e-06 2.800689e-06 2.608778e-06 2.399204e-06 2.151528e-06 1.827541e-06 1.633591e-06 1.297693e-06 1.212358e-06 9.066373e-07 9.358251e-07 6.599757e-07 7.862815e-07 5.227680e-07 7.244912e-07 4.539552e-07 7.133777e-07 4.206230e-07 7.255725e-07 4.004810e-07 7.432012e-07 3.798232e-07 7.553398e-07 3.507363e-07 
9.393200e-04 8.421945e-04 6.777476e-04 5.833290e-04 4.173930e-04 3.262913e-04 1.607257e-04 7.384955e-05 -8.900710e-05 -1.704646e-04 -3.278576e-04 -4.024635e-04 -5.513211e-04 -6.174539e-04 -7.544938e-04 -8.103823e-04 -9.322054e-04 -9.759457e-04 -1.079105e-03 -1.108654e-03 -1.189699e-03 -1.202853e-03 -1.258359e-03 -1.252735e-03 -1.279334e-03 -1.252378e-03 -1.246822e-03 -1.195876e-03 -1.155167e-03 -1.077621e-03 -9.992326e-04 -8.928162e-04 -7.750501e-04 -6.382594e-04 -4.807571e-04 -3.134603e-04 -1.178685e-04 7.793544e-05 3.071680e-04 5.264808e-04 7.812532e-04 1.015203e-03 1.283000e-03 1.518137e-03 1.781565e-03 1.999574e-03 2.236491e-03 2.414625e-03 2.599154e-03 2.711681e-03 2.816363e-03 2.837211e-03 2.836330e-03 2.742809e-03 2.616569e-03 2.393685e-03 2.132502e-03 1.776949e-03 1.384765e-03 9.074854e-04 4.030725e-04 -1.704477e-04 -7.547007e-04 -1.386496e-03 -2.007834e-03 -2.650979e-03 -3.260215e-03 -3.862352e-03 -4.407000e-03 -4.912842e-03 -5.338991e-03 -5.692279e-03 -5.946651e-03 -6.093929e-03 -6.129238e-03 -6.028756e-03 -5.815307e-03 -5.452623e-03 -4.995506e-03 -4.402010e-03 -3.756460e-03 -3.020109e-03 -2.292112e-03 -1.547352e-03 -8.700379e-04 -2.629078e-04 2.450810e-04 6.034124e-04 8.762548e-04 9.466151e-04 9.915268e-04 8.251966e-04 7.261559e-04 4.573806e-04 3.481950e-04 1.415804e-04 1.477525e-04 1.296590e-04 3.182679e-04 5.301512e-04 8.856866e-04 1.277101e-03 1.707293e-03 2.127839e-03 2.485842e-03 2.748114e-03 2.938774e-03 3.018421e-03 3.068110e-03 3.036705e-03 3.005570e-03 2.926998e-03 2.854060e-03 2.759061e-03 2.661291e-03 2.560253e-03 2.444721e-03 2.340869e-03 2.211804e-03 2.106833e-03 1.967572e-03 1.862859e-03 1.715942e-03 1.612493e-03 1.459639e-03 1.358032e-03 1.200367e-03 1.100890e-03 
1.782565e-03 1.577833e-03 1.300989e-03 1.100694e-03 8.232948e-04 6.288744e-04 3.535077e-04 1.670141e-04 -1.028612e-04 -2.788026e-04 -5.389297e-04 -7.012245e-04 -9.466897e-04 -1.091890e-03 -1.317280e-03 -1.441672e-03 -1.641213e-03 -1.740854e-03 -1.908505e-03 -1.979219e-03 -2.108730e-03 -2.146054e-03 -2.231009e-03 -2.230151e-03 -2.264021e-03 -2.219861e-03 -2.196136e-03 -2.103344e-03 -2.015795e-03 -1.869123e-03 -1.712275e-03 -1.507104e-03 -1.276968e-03 -1.010160e-03 -7.052820e-04 -3.763687e-04 8.005060e-07 3.881012e-04 8.295649e-04 1.265599e-03 1.756054e-03 2.223449e-03 2.738683e-03 3.210878e-03 3.716756e-03 4.157345e-03 4.609976e-03 4.973492e-03 5.321205e-03 5.555964e-03 5.743639e-03 5.797027e-03 5.772880e-03 5.598930e-03 5.323140e-03 4.891381e-03 4.344989e-03 3.648684e-03 2.840449e-03 1.901844e-03 8.707466e-04 -2.585450e-04 -1.446294e-03 -2.689997e-03 -3.948383e-03 -5.213403e-03 -6.445292e-03 -7.629278e-03 -8.732722e-03 -9.728786e-03 -1.059961e-02 -1.129895e-02 -1.183270e-02 -1.213035e-02 -1.223081e-02 -1.204228e-02 -1.164404e-02 -1.093681e-02 -1.004196e-02 -8.874458e-03 -7.588468e-03 -6.133456e-03 -4.671906e-03 -3.195698e-03 -1.837969e-03 -6.279946e-04 3.733317e-04 1.100823e-03 1.609264e-03 1.775816e-03 1.818050e-03 1.516698e-03 1.278947e-03 7.691966e-04 5.201722e-04 1.211400e-04 1.072423e-04 7.123137e-05 4.136451e-04 8.342828e-04 1.508536e-03 2.303718e-03 3.139867e-03 4.007553e-03 4.706766e-03 5.229598e-03 5.588195e-03 5.733127e-03 5.817754e-03 5.746800e-03 5.683211e-03 5.525446e-03 5.388091e-03 5.200040e-03 5.019075e-03 4.818068e-03 4.606230e-03 4.397566e-03 4.163363e-03 3.950385e-03 3.700880e-03 3.486573e-03 3.227059e-03 3.013649e-03 2.747479e-03 2.536280e-03 2.265342e-03 2.057074e-03 
2.815804e-03 2.525350e-03 2.030033e-03 1.747345e-03 1.246908e-03 9.738524e-04 4.739346e-04 2.132915e-04 -2.789873e-04 -5.235786e-04 -9.998312e-04 -1.224022e-03 -1.674911e-03 -1.873807e-03 -2.289382e-03 -2.457671e-03 -2.827656e-03 -2.959654e-03 -3.273659e-03 -3.363284e-03 -3.610922e-03 -3.651609e-03 -3.822567e-03 -3.807191e-03 -3.891297e-03 -3.812160e-03 -3.799540e-03 -3.648537e-03 -3.529962e-03 -3.299017e-03 -3.066544e-03 -2.748431e-03 -2.396449e-03 -1.986078e-03 -1.512837e-03 -1.009073e-03 -4.187089e-04 1.733039e-04 8.682971e-04 1.534424e-03 2.310508e-03 3.024833e-03 3.844923e-03 4.567392e-03 5.379204e-03 6.054478e-03 6.790618e-03 7.349100e-03 7.929896e-03 8.291939e-03 8.631888e-03 8.715822e-03 8.733879e-03 8.467689e-03 8.100532e-03 7.435659e-03 6.651572e-03 5.575923e-03 4.385731e-03 2.932149e-03 1.393575e-03 -3.592244e-04 -2.145655e-03 -4.080126e-03 -5.982144e-03 -7.953887e-03 -9.820750e-03 -1.167017e-02 -1.334266e-02 -1.490226e-02 -1.621723e-02 -1.731559e-02 -1.810956e-02 -1.857981e-02 -1.870241e-02 -1.840743e-02 -1.775648e-02 -1.663852e-02 -1.521750e-02 -1.336251e-02 -1.133743e-02 -9.018181e-03 -6.727158e-03 -4.376101e-03 -2.252449e-03 -3.449036e-04 1.227252e-03 2.331092e-03 3.143842e-03 3.315996e-03 3.391830e-03 2.793004e-03 2.403508e-03 1.474484e-03 1.058375e-03 3.366804e-04 2.952736e-04 1.843779e-04 7.269359e-04 1.349770e-03 2.424735e-03 3.650477e-03 4.986414e-03 6.345122e-03 7.450180e-03 8.230605e-03 8.778527e-03 8.973130e-03 9.103863e-03 8.992886e-03 8.905874e-03 8.680044e-03 8.477951e-03 8.210326e-03 7.931405e-03 7.642480e-03 7.304545e-03 7.002059e-03 6.619092e-03 6.309545e-03 5.893527e-03 5.582704e-03 5.142512e-03 4.834452e-03 4.375763e-03 4.072658e-03 3.598963e-03 3.301830e-03 
3.560703e-03 3.151527e-03 2.596158e-03 2.194994e-03 1.637416e-03 1.247232e-03 6.926891e-04 3.177239e-04 -2.267197e-04 -5.810660e-04 -1.106716e-03 -1.434121e-03 -1.930972e-03 -2.224447e-03 -2.681526e-03 -2.933607e-03 -3.339259e-03 -3.542086e-03 -3.884168e-03 -4.029442e-03 -4.295414e-03 -4.374271e-03 -4.551240e-03 -4.554106e-03 -4.628881e-03 -4.545418e-03 -4.504711e-03 -4.323977e-03 -4.154862e-03 -3.865836e-03 -3.556626e-03 -3.149237e-03 -2.690911e-03 -2.157715e-03 -1.546008e-03 -8.845845e-04 -1.227872e-04 6.611286e-04 1.558737e-03 2.447554e-03 3.451903e-03 4.412264e-03 5.475857e-03 6.455214e-03 7.509550e-03 8.434267e-03 9.389571e-03 1.016592e-02 1.091464e-02 1.143418e-02 1.185957e-02 1.200991e-02 1.200028e-02 1.168125e-02 1.114874e-02 1.029190e-02 9.192486e-03 7.779876e-03 6.129241e-03 4.205607e-03 2.085251e-03 -2.409579e-04 -2.690742e-03 -5.258679e-03 -7.856715e-03 -1.047209e-02 -1.301726e-02 -1.547017e-02 -1.775571e-02 -1.982983e-02 -2.164621e-02 -2.311992e-02 -2.425272e-02 -2.490410e-02 -2.514447e-02 -2.478054e-02 -2.396959e-02 -2.249512e-02 -2.060903e-02 -1.812344e-02 -1.536900e-02 -1.223673e-02 -9.084831e-03 -5.899661e-03 -2.984213e-03 -3.947014e-04 1.710376e-03 3.226389e-03 4.221502e-03 4.490741e-03 4.443688e-03 3.657461e-03 3.003677e-03 1.757897e-03 1.095430e-03 1.015078e-04 -2.839549e-05 -2.214346e-04 4.098896e-04 1.203743e-03 2.546280e-03 4.228577e-03 5.979908e-03 7.936526e-03 9.400614e-03 1.041771e-02 1.107968e-02 1.127193e-02 1.140831e-02 1.123798e-02 1.113111e-02 1.084150e-02 1.060450e-02 1.026562e-02 9.933594e-03 9.559877e-03 9.153513e-03 8.753327e-03 8.293431e-03 7.877071e-03 7.382094e-03 6.958997e-03 6.442062e-03 6.018665e-03 5.487453e-03 5.067232e-03 4.525674e-03 4.110337e-03 
4.691146e-03 4.207405e-03 3.377853e-03 2.905600e-03 2.065419e-03 1.607907e-03 7.667075e-04 3.287870e-04 -5.012150e-04 -9.132316e-04 -1.717643e-03 -2.096286e-03 -2.859140e-03 -3.196102e-03 -3.900479e-03 -4.186848e-03 -4.815382e-03 -5.041719e-03 -5.576952e-03 -5.733214e-03 -6.157756e-03 -6.233102e-03 -6.529682e-03 -6.512248e-03 -6.663732e-03 -6.540516e-03 -6.530060e-03 -6.287074e-03 -6.098577e-03 -5.721464e-03 -5.340528e-03 -4.815829e-03 -4.231424e-03 -3.548673e-03 -2.755660e-03 -1.910441e-03 -9.130470e-04 8.897336e-05 1.272796e-03 2.411012e-03 3.744634e-03 4.978271e-03 6.401509e-03 7.664870e-03 9.090291e-03 1.028984e-02 1.160188e-02 1.261697e-02 1.367583e-02 1.436513e-02 1.501739e-02 1.523256e-02 1.532938e-02 1.493623e-02 1.435797e-02 1.326255e-02 1.194566e-02 1.011984e-02 8.078810e-03 5.577447e-03 2.913966e-03 -1.231457e-04 -3.228596e-03 -6.591594e-03 -9.903130e-03 -1.333754e-02 -1.659183e-02 -1.982249e-02 -2.274821e-02 -2.549120e-02 -2.781319e-02 -2.977577e-02 -3.121133e-02 -3.209510e-02 -3.236552e-02 -3.190072e-02 -3.078809e-02 -2.882420e-02 -2.628728e-02 -2.293209e-02 -1.924294e-02 -1.497879e-02 -1.077410e-02 -6.429911e-03 -2.562470e-03 9.291745e-04 3.715732e-03 5.662901e-03 6.998372e-03 7.158256e-03 7.083108e-03 5.738978e-03 4.774464e-03 2.808823e-03 1.828899e-03 2.918369e-04 3.462124e-05 -3.270352e-04 5.028428e-04 1.464062e-03 3.244941e-03 5.424507e-03 7.780453e-03 1.044774e-02 1.239171e-02 1.360692e-02 1.441211e-02 1.456846e-02 1.474706e-02 1.453543e-02 1.444266e-02 1.412457e-02 1.385798e-02 1.347810e-02 1.306316e-02 1.262752e-02 1.209131e-02 1.161350e-02 1.098801e-02 1.048643e-02 9.799133e-03 9.289358e-03 8.558894e-03 8.050706e-03 7.287785e-03 6.786010e-03 5.996482e-03 5.503115e-03 
5.333329e-03 4.719387e-03 3.883061e-03 3.278834e-03 2.436372e-03 1.846561e-03 1.006037e-03 4.373739e-04 -3.902155e-04 -9.292113e-04 -1.730339e-03 -2.229809e-03 -2.988996e-03 -3.438196e-03 -4.138606e-03 -4.526233e-03 -5.150133e-03 -5.464442e-03 -5.993489e-03 -6.222186e-03 -6.637512e-03 -6.767472e-03 -7.049641e-03 -7.066566e-03 -7.195530e-03 -7.083703e-03 -7.038934e-03 -6.781279e-03 -6.542284e-03 -6.120978e-03 -5.668441e-03 -5.066306e-03 -4.384110e-03 -3.587033e-03 -2.665356e-03 -1.665916e-03 -5.055530e-04 6.920761e-04 2.074202e-03 3.448199e-03 5.012649e-03 6.516832e-03 8.195111e-03 9.752545e-03 1.144178e-02 1.294037e-02 1.450126e-02 1.579364e-02 1.705430e-02 1.796484e-02 1.873334e-02 1.907466e-02 1.916184e-02 1.876151e-02 1.801316e-02 1.674795e-02 1.508095e-02 1.291128e-02 1.034397e-02 7.337623e-03 4.002304e-03 3.369701e-04 -3.533114e-03 -7.592141e-03 -1.169867e-02 -1.583686e-02 -1.985905e-02 -2.374817e-02 -2.737014e-02 -3.068273e-02 -3.359249e-02 -3.599202e-02 -3.786082e-02 -3.898918e-02 -3.946560e-02 -3.897128e-02 -3.773980e-02 -3.539134e-02 -3.232861e-02 -2.821298e-02 -2.360215e-02 -1.830825e-02 -1.296068e-02 -7.555988e-03 -2.644839e-03 1.680466e-03 5.094294e-03 7.517579e-03 8.930089e-03 9.173290e-03 8.733381e-03 7.062322e-03 5.636810e-03 3.202304e-03 1.821899e-03 -1.411505e-04 -5.363973e-04 -1.108169e-03 -2.965409e-04 6.830794e-04 2.579293e-03 5.224727e-03 7.978614e-03 1.167387e-02 1.404368e-02 1.532965e-02 1.613076e-02 1.614767e-02 1.633209e-02 1.608150e-02 1.604025e-02 1.572603e-02 1.549168e-02 1.509308e-02 1.467051e-02 1.417864e-02 1.360615e-02 1.304292e-02 1.236954e-02 1.176461e-02 1.103018e-02 1.040687e-02 9.636520e-03 9.008682e-03 8.215394e-03 7.589661e-03 6.779113e-03 6.158317e-03 
6.567959e-03 5.891020e-03 4.721675e-03 4.057591e-03 2.868747e-03 2.222403e-03 1.028032e-03 4.067432e-04 -7.752271e-04 -1.362040e-03 -2.510510e-03 -3.051869e-03 -4.143581e-03 -4.627504e-03 -5.638032e-03 -6.051911e-03 -6.956449e-03 -7.287161e-03 -8.061005e-03 -8.294742e-03 -8.913456e-03 -9.035320e-03 -9.474648e-03 -9.468154e-03 -9.703854e-03 -9.550538e-03 -9.558339e-03 -9.237719e-03 -8.993691e-03 -8.483870e-03 -7.965514e-03 -7.244725e-03 -6.433102e-03 -5.482505e-03 -4.365692e-03 -3.173663e-03 -1.751762e-03 -3.198235e-04 1.388461e-03 3.038164e-03 4.987644e-03 6.803825e-03 8.914470e-03 1.080826e-02 1.295793e-02 1.479648e-02 1.681728e-02 1.842243e-02 2.010406e-02 2.125961e-02 2.236346e-02 2.283466e-02 2.312123e-02 2.268781e-02 2.195687e-02 2.045676e-02 1.859383e-02 1.596848e-02 1.298513e-02 9.311592e-03 5.363644e-03 8.590392e-04 -3.768644e-03 -8.775729e-03 -1.371461e-02 -1.883430e-02 -2.368719e-02 -2.851461e-02 -3.289172e-02 -3.702516e-02 -4.054325e-02 -4.356874e-02 -4.582212e-02 -4.728893e-02 -4.783393e-02 -4.727609e-02 -4.569586e-02 -4.276659e-02 -3.887273e-02 -3.361271e-02 -2.774646e-02 -2.087224e-02 -1.409389e-02 -7.031097e-03 -8.810275e-04 4.701218e-03 8.923317e-03 1.186212e-02 1.366015e-02 1.359990e-02 1.303626e-02 1.035286e-02 8.308309e-03 4.659596e-03 2.755224e-03 -5.756718e-05 -7.537681e-04 -1.541480e-03 -4.856286e-04 5.476704e-04 2.841493e-03 5.916518e-03 9.310267e-03 1.427921e-02 1.719258e-02 1.835539e-02 1.918686e-02 1.905824e-02 1.938066e-02 1.919116e-02 1.929516e-02 1.906531e-02 1.887605e-02 1.850331e-02 1.802095e-02 1.749952e-02 1.679196e-02 1.616742e-02 1.530963e-02 1.463065e-02 1.367744e-02 1.297791e-02 1.196131e-02 1.125967e-02 1.019547e-02 9.499695e-03 8.395157e-03 7.708030e-03 
7.102485e-03 6.283319e-03 5.162547e-03 4.351768e-03 3.217191e-03 2.421605e-03 1.284503e-03 5.138945e-04 -6.101871e-04 -1.343571e-03 -2.435574e-03 -3.117800e-03 -4.156128e-03 -4.772334e-03 -5.733789e-03 -6.268697e-03 -7.129181e-03 -7.567260e-03 -8.302137e-03 -8.627376e-03 -9.211484e-03 -9.406843e-03 -9.814248e-03 -9.860943e-03 -1.006461e-02 -9.941483e-03 -9.913133e-03 -9.596364e-03 -9.306789e-03 -8.770373e-03 -8.190633e-03 -7.407895e-03 -6.511723e-03 -5.458331e-03 -4.226139e-03 -2.884914e-03 -1.309701e-03 3.225173e-04 2.227234e-03 4.130679e-03 6.321105e-03 8.442562e-03 1.083387e-02 1.307575e-02 1.553209e-02 1.774332e-02 2.007157e-02 2.204401e-02 2.399570e-02 2.547077e-02 2.675722e-02 2.744779e-02 2.777286e-02 2.740332e-02 2.651408e-02 2.487609e-02 2.262435e-02 1.963707e-02 1.603488e-02 1.178972e-02 7.035592e-03 1.803265e-03 -3.739814e-03 -9.550473e-03 -1.542361e-02 -2.134089e-02 -2.707407e-02 -3.263406e-02 -3.779994e-02 -4.257090e-02 -4.677466e-02 -5.032052e-02 -5.313387e-02 -5.494938e-02 -5.584705e-02 -5.534672e-02 -5.374788e-02 -5.041895e-02 -4.593915e-02 -3.971635e-02 -3.261817e-02 -2.433555e-02 -1.590264e-02 -7.392523e-03 2.742404e-04 6.882999e-03 1.188131e-02 1.533107e-02 1.695269e-02 1.698143e-02 1.552707e-02 1.223584e-02 9.561465e-03 5.326240e-03 2.883576e-03 -5.060010e-04 -1.155168e-03 -2.283758e-03 -1.405068e-03 -7.930540e-04 1.172183e-03 4.299117e-03 7.742583e-03 1.495656e-02 1.843174e-02 1.889230e-02 1.954676e-02 1.919900e-02 1.974599e-02 1.974183e-02 2.010812e-02 2.005070e-02 1.999911e-02 1.968590e-02 1.923899e-02 1.868998e-02 1.796942e-02 1.726824e-02 1.638624e-02 1.560575e-02 1.463590e-02 1.382172e-02 1.280322e-02 1.197848e-02 1.092829e-02 1.010244e-02 9.026230e-03 8.202605e-03 
8.454364e-03 7.584435e-03 6.067571e-03 5.208214e-03 3.657739e-03 2.815946e-03 1.250948e-03 4.371906e-04 -1.117633e-03 -1.890076e-03 -3.405767e-03 -4.121765e-03 -5.566717e-03 -6.210183e-03 -7.551648e-03 -8.106145e-03 -9.311378e-03 -9.760267e-03 -1.079715e-02 -1.112326e-02 -1.196039e-02 -1.214524e-02 -1.275155e-02 -1.277444e-02 -1.311861e-02 -1.295566e-02 -1.300561e-02 -1.262923e-02 -1.235214e-02 -1.173135e-02 -1.109450e-02 -1.019648e-02 -9.169633e-03 -7.962975e-03 -6.522569e-03 -4.982722e-03 -3.118435e-03 -1.235690e-03 1.040402e-03 3.250265e-03 5.892025e-03 8.374780e-03 1.128863e-02 1.393758e-02 1.696930e-02 1.961275e-02 2.253807e-02 2.493271e-02 2.745698e-02 2.929326e-02 3.106706e-02 3.199354e-02 3.265043e-02 3.232182e-02 3.154001e-02 2.968701e-02 2.726711e-02 2.377459e-02 1.971243e-02 1.467947e-02 9.203056e-03 2.954330e-03 -3.501140e-03 -1.046820e-02 -1.734645e-02 -2.445942e-02 -3.119110e-02 -3.789336e-02 -4.396599e-02 -4.974814e-02 -5.469579e-02 -5.904816e-02 -6.236672e-02 -6.468539e-02 -6.573704e-02 -6.527779e-02 -6.331325e-02 -5.934408e-02 -5.380802e-02 -4.608425e-02 -3.724043e-02 -2.667972e-02 -1.619977e-02 -5.190104e-03 4.108958e-03 1.254827e-02 1.836329e-02 2.239033e-02 2.444993e-02 2.384449e-02 2.222377e-02 1.713162e-02 1.321043e-02 7.035807e-03 4.077770e-03 -4.507882e-04 -1.773468e-03 -2.822414e-03 -1.317442e-03 -8.795080e-04 1.308814e-03 4.068007e-03 7.572575e-03 1.727580e-02 2.102723e-02 2.021823e-02 2.103980e-02 2.084302e-02 2.205923e-02 2.253849e-02 2.332754e-02 2.355154e-02 2.361904e-02 2.339265e-02 2.288122e-02 2.231660e-02 2.143702e-02 2.067967e-02 1.958700e-02 1.873969e-02 1.752344e-02 1.664358e-02 1.534703e-02 1.446105e-02 1.310139e-02 1.221873e-02 1.080178e-02 9.924813e-03 
8.876749e-03 7.851802e-03 6.442133e-03 5.419685e-03 3.982886e-03 2.972548e-03 1.523877e-03 5.394472e-04 -8.999363e-04 -1.841474e-03 -3.245839e-03 -4.125614e-03 -5.466232e-03 -6.264690e-03 -7.511266e-03 -8.208971e-03 -9.330662e-03 -9.908515e-03 -1.087437e-02 -1.131319e-02 -1.209200e-02 -1.237153e-02 -1.293118e-02 -1.302879e-02 -1.333542e-02 -1.322476e-02 -1.324199e-02 -1.289207e-02 -1.258079e-02 -1.195588e-02 -1.127516e-02 -1.033614e-02 -9.245631e-03 -7.953264e-03 -6.417910e-03 -4.738684e-03 -2.736142e-03 -6.511814e-04 1.817495e-03 4.300117e-03 7.196469e-03 1.002619e-02 1.325765e-02 1.632376e-02 1.972619e-02 2.284089e-02 2.616435e-02 2.905148e-02 3.195590e-02 3.425325e-02 3.632296e-02 3.760746e-02 3.839408e-02 3.823808e-02 3.733661e-02 3.539545e-02 3.254632e-02 2.866204e-02 2.385255e-02 1.813897e-02 1.165952e-02 4.523055e-03 -3.065485e-03 -1.099885e-02 -1.899395e-02 -2.702519e-02 -3.475205e-02 -4.225247e-02 -4.917492e-02 -5.563586e-02 -6.133409e-02 -6.628154e-02 -7.029801e-02 -7.311343e-02 -7.475201e-02 -7.453313e-02 -7.279195e-02 -6.848708e-02 -6.239556e-02 -5.344892e-02 -4.295012e-02 -3.035131e-02 -1.732985e-02 -4.219182e-03 7.492535e-03 1.708868e-02 2.389701e-02 2.822676e-02 2.946488e-02 2.913171e-02 2.518032e-02 1.871382e-02 1.456250e-02 8.213180e-03 4.625448e-03 -3.447599e-04 -4.860560e-04 -1.853067e-03 -9.117453e-04 -1.750761e-03 -6.326660e-04 3.009325e-04 1.980169e-03 1.633251e-02 2.045216e-02 1.668344e-02 1.794433e-02 1.850565e-02 2.084852e-02 2.218277e-02 2.354965e-02 2.415482e-02 2.440378e-02 2.427074e-02 2.377981e-02 2.318218e-02 2.228357e-02 2.144327e-02 2.034010e-02 1.938919e-02 1.818615e-02 1.719119e-02 1.593373e-02 1.492290e-02 1.362566e-02 1.260807e-02 1.127283e-02 1.025058e-02 
1.036744e-02 9.304864e-03 7.430424e-03 6.370735e-03 4.440886e-03 3.394094e-03 1.434398e-03 4.153186e-04 -1.541031e-03 -2.514048e-03 -4.428442e-03 -5.335079e-03 -7.165964e-03 -7.985374e-03 -9.690494e-03 -1.040223e-02 -1.194026e-02 -1.252449e-02 -1.385581e-02 -1.429273e-02 -1.537932e-02 -1.564787e-02 -1.645244e-02 -1.652858e-02 -1.701324e-02 -1.686816e-02 -1.699305e-02 -1.659178e-02 -1.631422e-02 -1.561517e-02 -1.488997e-02 -1.384605e-02 -1.262754e-02 -1.118950e-02 -9.436190e-03 -7.558950e-03 -5.241465e-03 -2.894164e-03 -7.249238e-06 2.812429e-03 6.233568e-03 9.480702e-03 1.334007e-02 1.690044e-02 2.101894e-02 2.468647e-02 2.878198e-02 3.224176e-02 3.591967e-02 3.874594e-02 4.151153e-02 4.319349e-02 4.449936e-02 4.450668e-02 4.384354e-02 4.173469e-02 3.875901e-02 3.431520e-02 2.898128e-02 2.232059e-02 1.495835e-02 6.566736e-03 -2.154615e-03 -1.151781e-02 -2.075137e-02 -3.024380e-02 -3.917802e-02 -4.805465e-02 -5.605383e-02 -6.373013e-02 -7.031456e-02 -7.626756e-02 -8.093046e-02 -8.447051e-02 -8.640982e-02 -8.645297e-02 -8.441512e-02 -7.954063e-02 -7.217170e-02 -6.135971e-02 -4.839105e-02 -3.248579e-02 -1.635571e-02 7.102394e-04 1.460808e-02 2.700614e-02 3.404194e-02 3.876531e-02 4.042747e-02 3.881007e-02 3.517006e-02 2.538934e-02 1.813704e-02 8.994862e-03 6.590048e-03 8.660863e-04 -1.685885e-03 -1.822675e-03 1.289488e-03 4.732123e-04 1.982025e-03 1.156475e-03 9.943206e-04 1.433278e-02 1.518404e-02 1.074712e-02 1.566217e-02 1.880520e-02 2.303839e-02 2.552531e-02 2.741006e-02 2.833940e-02 2.858731e-02 2.848099e-02 2.782734e-02 2.717347e-02 2.606068e-02 2.515177e-02 2.380695e-02 2.279425e-02 2.132083e-02 2.027347e-02 1.871061e-02 1.765467e-02 1.601190e-02 1.495366e-02 1.323064e-02 1.216994e-02 
1.067522e-02 9.443692e-03 7.739525e-03 6.497977e-03 4.745208e-03 3.507359e-03 1.726660e-03 5.119039e-04 -1.268193e-03 -2.436542e-03 -4.181857e-03 -5.278643e-03 -6.951782e-03 -7.951887e-03 -9.514396e-03 -1.039398e-02 -1.180781e-02 -1.254461e-02 -1.377264e-02 -1.434527e-02 -1.535087e-02 -1.573717e-02 -1.648291e-02 -1.665772e-02 -1.710363e-02 -1.703635e-02 -1.713813e-02 -1.679062e-02 -1.649842e-02 -1.582393e-02 -1.508237e-02 -1.402611e-02 -1.277622e-02 -1.127842e-02 -9.462565e-03 -7.464973e-03 -5.035505e-03 -2.492194e-03 5.749931e-04 3.681508e-03 7.367909e-03 1.100483e-02 1.522469e-02 1.928199e-02 2.385374e-02 2.811485e-02 3.273335e-02 3.684999e-02 4.106861e-02 4.455131e-02 4.778872e-02 5.002952e-02 5.161962e-02 5.196525e-02 5.126589e-02 4.915074e-02 4.570950e-02 4.083250e-02 3.457211e-02 2.706069e-02 1.840215e-02 8.871201e-03 -1.303861e-03 -1.187474e-02 -2.246212e-02 -3.301239e-02 -4.302520e-02 -5.270682e-02 -6.150771e-02 -6.979709e-02 -7.706696e-02 -8.360497e-02 -8.904410e-02 -9.325087e-02 -9.611460e-02 -9.674941e-02 -9.545821e-02 -9.053292e-02 -8.294424e-02 -7.066639e-02 -5.561828e-02 -3.662184e-02 -1.645436e-02 3.963609e-03 2.213510e-02 3.553910e-02 4.407058e-02 4.784798e-02 4.719133e-02 4.687914e-02 3.594166e-02 2.154029e-02 1.780707e-02 1.172802e-02 7.160040e-03 3.729161e-03 6.820953e-03 5.591817e-03 4.630983e-03 3.039797e-03 2.153376e-03 5.883580e-04 2.677353e-04 -2.317223e-03 -7.681740e-03 -3.119708e-03 8.256851e-03 1.607724e-02 2.225857e-02 2.595338e-02 2.810645e-02 2.922202e-02 2.937653e-02 2.921687e-02 2.845574e-02 2.770510e-02 2.653874e-02 2.552894e-02 2.418695e-02 2.307116e-02 2.164776e-02 2.049005e-02 1.901497e-02 1.783661e-02 1.631153e-02 1.511579e-02 1.353372e-02 1.231939e-02 
1.233845e-02 1.108335e-02 8.838248e-03 7.570633e-03 5.237512e-03 3.972055e-03 1.585245e-03 3.430170e-04 -2.053116e-03 -3.246786e-03 -5.601279e-03 -6.719299e-03 -8.978299e-03 -9.994049e-03 -1.210411e-02 -1.299290e-02 -1.490331e-02 -1.564268e-02 -1.730642e-02 -1.787520e-02 -1.924851e-02 -1.962475e-02 -2.066543e-02 -2.082354e-02 -2.148844e-02 -2.139606e-02 -2.163835e-02 -2.125355e-02 -2.102044e-02 -2.028989e-02 -1.952164e-02 -1.838069e-02 -1.701171e-02 -1.538721e-02 -1.335052e-02 -1.116746e-02 -8.403616e-03 -5.596949e-03 -2.068758e-03 1.398329e-03 5.684028e-03 9.794482e-03 1.475753e-02 1.940752e-02 2.485894e-02 2.982028e-02 3.542536e-02 4.031038e-02 4.556092e-02 4.980345e-02 5.401732e-02 5.689137e-02 5.926399e-02 5.996551e-02 5.969667e-02 5.750565e-02 5.400485e-02 4.851293e-02 4.163941e-02 3.297006e-02 2.320018e-02 1.209289e-02 4.794714e-04 -1.187326e-02 -2.400170e-02 -3.632673e-02 -4.778693e-02 -5.908516e-02 -6.911923e-02 -7.879477e-02 -8.704476e-02 -9.473861e-02 -1.009232e-01 -1.060785e-01 -1.094347e-01 -1.107001e-01 -1.093541e-01 -1.042329e-01 -9.529600e-02 -8.102551e-02 -6.251547e-02 -3.887813e-02 -1.361001e-02 1.337888e-02 3.486032e-02 5.315285e-02 5.930123e-02 6.255320e-02 6.168532e-02 5.742500e-02 5.126298e-02 2.973299e-02 1.458819e-02 8.203620e-03 1.080139e-02 6.468429e-03 -4.584608e-04 -3.910312e-03 -5.008806e-03 -5.492161e-03 -3.804158e-03 -3.462712e-03 -6.310299e-05 -1.052026e-02 -1.082770e-02 2.732476e-03 1.487188e-02 2.391213e-02 2.914146e-02 3.256507e-02 3.392087e-02 3.469962e-02 3.435163e-02 3.397123e-02 3.287853e-02 3.199808e-02 3.056987e-02 2.948464e-02 2.789015e-02 2.672917e-02 2.502820e-02 2.384115e-02 2.204405e-02 2.084355e-02 1.894185e-02 1.772597e-02 1.570916e-02 1.447367e-02 
1.253357e-02 1.109362e-02 9.087329e-03 7.615599e-03 5.528001e-03 4.044497e-03 1.904087e-03 4.362632e-04 -1.718343e-03 -3.138399e-03 -5.261884e-03 -6.600681e-03 -8.644714e-03 -9.870255e-03 -1.178670e-02 -1.287040e-02 -1.461345e-02 -1.553057e-02 -1.705739e-02 -1.778595e-02 -1.905572e-02 -1.957391e-02 -2.054562e-02 -2.082813e-02 -2.145745e-02 -2.147146e-02 -2.170735e-02 -2.140865e-02 -2.119046e-02 -2.052065e-02 -1.977656e-02 -1.866215e-02 -1.730988e-02 -1.566442e-02 -1.361555e-02 -1.134599e-02 -8.515246e-03 -5.534220e-03 -1.855579e-03 1.898716e-03 6.447425e-03 1.098211e-02 1.634477e-02 2.157327e-02 2.757173e-02 3.326681e-02 3.955202e-02 4.529771e-02 5.130718e-02 5.646515e-02 6.140816e-02 6.512498e-02 6.802874e-02 6.931985e-02 6.917365e-02 6.711553e-02 6.313156e-02 5.715795e-02 4.910736e-02 3.932614e-02 2.780969e-02 1.516173e-02 1.598348e-03 -1.233346e-02 -2.613808e-02 -3.967551e-02 -5.221502e-02 -6.418272e-02 -7.472743e-02 -8.469614e-02 -9.325121e-02 -1.012723e-01 -1.080745e-01 -1.139933e-01 -1.186558e-01 -1.211105e-01 -1.214935e-01 -1.170956e-01 -1.090086e-01 -9.329813e-02 -7.274727e-02 -4.431719e-02 -1.280313e-02 2.031265e-02 5.017500e-02 6.889645e-02 7.889369e-02 7.675766e-02 7.241234e-02 7.008691e-02 4.226184e-02 1.634282e-02 1.393600e-02 6.805433e-04 -2.087779e-02 -2.845048e-02 -2.507098e-02 -2.186564e-02 -1.390371e-02 -1.146595e-02 -7.311869e-03 -6.528233e-03 -3.363219e-03 -3.072930e-03 9.445994e-03 2.188513e-02 2.767874e-02 3.260135e-02 3.427298e-02 3.592578e-02 3.582215e-02 3.591468e-02 3.498333e-02 3.431973e-02 3.300967e-02 3.199214e-02 3.051821e-02 2.934409e-02 2.779762e-02 2.655516e-02 2.496174e-02 2.368193e-02 2.203488e-02 2.072143e-02 1.900218e-02 1.764926e-02 1.583994e-02 1.444263e-02 
1.442034e-02 1.297137e-02 1.033780e-02 8.850409e-03 6.081624e-03 4.577766e-03 1.720386e-03 2.303000e-04 -2.656162e-03 -4.097294e-03 -6.945544e-03 -8.301433e-03 -1.104190e-02 -1.227862e-02 -1.484429e-02 -1.593254e-02 -1.826233e-02 -1.917796e-02 -2.121787e-02 -2.194040e-02 -2.364258e-02 -2.415201e-02 -2.547182e-02 -2.574410e-02 -2.663582e-02 -2.663778e-02 -2.704983e-02 -2.673425e-02 -2.660465e-02 -2.590638e-02 -2.515962e-02 -2.399367e-02 -2.254000e-02 -2.080296e-02 -1.854162e-02 -1.611772e-02 -1.294593e-02 -9.719901e-03 -5.549803e-03 -1.428743e-03 3.785222e-03 8.838490e-03 1.505965e-02 2.098019e-02 2.803662e-02 3.459897e-02 4.212130e-02 4.887582e-02 5.623777e-02 6.245929e-02 6.874675e-02 7.342810e-02 7.747873e-02 7.941749e-02 7.998315e-02 7.801064e-02 7.407645e-02 6.743673e-02 5.865403e-02 4.743085e-02 3.447994e-02 1.981963e-02 4.401333e-03 -1.175615e-02 -2.748024e-02 -4.314320e-02 -5.738714e-02 -7.119068e-02 -8.307578e-02 -9.450894e-02 -1.040084e-01 -1.131636e-01 -1.206211e-01 -1.275369e-01 -1.328021e-01 -1.363058e-01 -1.371133e-01 -1.333772e-01 -1.243429e-01 -1.073101e-01 -8.224740e-02 -4.815427e-02 -7.759622e-03 3.620827e-02 7.289823e-02 1.023124e-01 1.016542e-01 1.002307e-01 9.793730e-02 5.394764e-02 2.256448e-02 1.035789e-02 -3.571645e-02 -5.821023e-02 -3.950166e-02 -2.963793e-02 -1.681934e-02 -1.068974e-02 -4.602900e-03 -4.449339e-03 -1.134018e-03 -1.926868e-03 1.216257e-04 2.792482e-03 2.678061e-02 4.298406e-02 4.317267e-02 4.479653e-02 4.320569e-02 4.328236e-02 4.186429e-02 4.134012e-02 3.986916e-02 3.897194e-02 3.739414e-02 3.629386e-02 3.462567e-02 3.342978e-02 3.167875e-02 3.043867e-02 2.859124e-02 2.732158e-02 2.535140e-02 2.404777e-02 2.192696e-02 2.057922e-02 1.828764e-02 1.688871e-02 
1.451214e-02 1.285901e-02 1.053893e-02 8.819985e-03 6.371117e-03 4.615916e-03 2.078144e-03 3.258303e-04 -2.248150e-03 -3.953092e-03 -6.502862e-03 -8.115518e-03 -1.057847e-02 -1.205796e-02 -1.437410e-02 -1.568659e-02 -1.780168e-02 -1.892108e-02 -2.078743e-02 -2.169372e-02 -2.326858e-02 -2.394383e-02 -2.518568e-02 -2.560850e-02 -2.647192e-02 -2.661098e-02 -2.704099e-02 -2.684867e-02 -2.677526e-02 -2.618227e-02 -2.551633e-02 -2.442838e-02 -2.306015e-02 -2.135805e-02 -1.915969e-02 -1.670451e-02 -1.353892e-02 -1.018471e-02 -5.923223e-03 -1.540062e-03 3.907655e-03 9.397020e-03 1.603759e-02 2.260453e-02 3.029798e-02 3.773778e-02 4.611920e-02 5.396906e-02 6.236588e-02 6.982887e-02 7.720175e-02 8.311411e-02 8.807340e-02 9.097772e-02 9.195070e-02 9.035129e-02 8.596999e-02 7.881107e-02 6.850722e-02 5.577886e-02 4.037110e-02 2.351557e-02 5.332432e-03 -1.301311e-02 -3.089508e-02 -4.795225e-02 -6.312051e-02 -7.718643e-02 -8.884019e-02 -9.975299e-02 -1.085600e-01 -1.172396e-01 -1.245588e-01 -1.320085e-01 -1.387448e-01 -1.442873e-01 -1.483401e-01 -1.469855e-01 -1.411817e-01 -1.235812e-01 -9.817032e-02 -5.693944e-02 -8.650957e-03 4.762801e-02 1.001071e-01 1.287736e-01 1.411079e-01 1.271415e-01 6.856469e-02 3.842708e-02 -2.339704e-03 -7.852908e-02 -8.204777e-02 -4.220275e-02 -1.514387e-02 -6.982667e-03 5.354280e-04 1.083203e-03 2.965892e-03 1.980667e-03 2.490171e-03 8.854811e-04 2.085991e-03 -5.932647e-03 1.451326e-02 3.775574e-02 4.011438e-02 4.374470e-02 4.227556e-02 4.262287e-02 4.100555e-02 4.048550e-02 3.891653e-02 3.802127e-02 3.646009e-02 3.537016e-02 3.379758e-02 3.260092e-02 3.100020e-02 2.973397e-02 2.807875e-02 2.674966e-02 2.500651e-02 2.360644e-02 2.174235e-02 2.026020e-02 1.824999e-02 1.668001e-02 