# vtk DataFile Version 2.0
Comment goes here
ASCII

DATASET STRUCTURED_POINTS
DIMENSIONS    128   128   1

ORIGIN    0.000   0.000   0.000
SPACING   0.0156250.015625   1.000

POINT_DATA   16384
SCALARS uY double
LOOKUP_TABLE default

2.776128e-05 2.467700e-05 2.839346e-05 2.502038e-05 2.884923e-05 2.520011e-05 2.910654e-05 2.520049e-05 2.914668e-05 2.501078e-05 2.895783e-05 2.462878e-05 2.853878e-05 2.406443e-05 2.790246e-05 2.334285e-05 2.707874e-05 2.250657e-05 2.611622e-05 2.161635e-05 2.508244e-05 2.075034e-05 2.406228e-05 2.000127e-05 2.315425e-05 1.947149e-05 2.246454e-05 1.926591e-05 2.209910e-05 1.948301e-05 2.215371e-05 2.020429e-05 2.270278e-05 2.148269e-05 2.378720e-05 2.333039e-05 2.540182e-05 2.570683e-05 2.748341e-05 2.850745e-05 2.989963e-05 3.155402e-05 3.244002e-05 3.458754e-05 3.481033e-05 3.726524e-05 3.663184e-05 3.916343e-05 3.744783e-05 3.978860e-05 3.673985e-05 3.859929e-05 3.395620e-05 3.504103e-05 2.855459e-05 2.859571e-05 2.005957e-05 1.884529e-05 8.133369e-06 5.547528e-06 -7.343650e-06 -1.128144e-05 -2.618990e-05 -3.128604e-05 -4.784726e-05 -5.370460e-05 -7.132805e-05 -7.733413e-05 -9.520266e-05 -1.005466e-04 -1.176478e-04 -1.213771e-04 -1.365755e-04 -1.377015e-04 -1.498576e-04 -1.475126e-04 -1.556511e-04 -1.492844e-04 -1.527928e-04 -1.423694e-04 -1.411855e-04 -1.273177e-04 -1.220330e-04 -1.059706e-04 -9.778087e-05 -8.121642e-05 -7.169339e-05 -5.641593e-05 -4.714173e-05 -3.463391e-05 -2.679460e-05 -1.787623e-05 -1.196294e-05 -6.607653e-06 -2.409988e-06 9.898268e-08 3.213418e-06 3.885539e-06 6.573669e-06 6.325385e-06 8.983028e-06 8.408789e-06 1.110674e-05 1.045163e-05 1.306332e-05 1.235174e-05 1.476609e-05 1.398249e-05 1.622347e-05 1.537234e-05 1.754477e-05 1.662180e-05 1.883101e-05 1.780458e-05 2.012363e-05 1.894415e-05 2.141593e-05 2.003268e-05 2.268105e-05 2.105299e-05 2.389072e-05 2.198969e-05 2.502187e-05 2.283117e-05 2.605578e-05 2.356739e-05 2.697511e-05 2.418725e-05 
6.245422e-03 5.685921e-03 4.858084e-03 4.302464e-03 3.447908e-03 2.907212e-03 2.039241e-03 1.524881e-03 6.587967e-04 1.826235e-04 -6.644402e-04 -1.090324e-03 -1.899854e-03 -2.263412e-03 -3.016108e-03 -3.305694e-03 -3.982065e-03 -4.186671e-03 -4.767557e-03 -4.876939e-03 -5.343909e-03 -5.348606e-03 -5.684278e-03 -5.575606e-03 -5.763947e-03 -5.534082e-03 -5.560839e-03 -5.203139e-03 -5.056525e-03 -4.566241e-03 -4.238024e-03 -3.613507e-03 -3.100581e-03 -2.345050e-03 -1.651510e-03 -7.753296e-04 8.503443e-05 1.061726e-03 2.062754e-03 3.107392e-03 4.208072e-03 5.273466e-03 6.416205e-03 7.439459e-03 8.549812e-03 9.453138e-03 1.044178e-02 1.113598e-02 1.190360e-02 1.229484e-02 1.274039e-02 1.274015e-02 1.277203e-02 1.230961e-02 1.185865e-02 1.089410e-02 9.925929e-03 8.460821e-03 6.985012e-03 5.068096e-03 3.141546e-03 8.677465e-04 -1.408219e-03 -3.904869e-03 -6.392149e-03 -8.948702e-03 -1.148158e-02 -1.391589e-02 -1.630890e-02 -1.842693e-02 -2.048124e-02 -2.208409e-02 -2.359647e-02 -2.449345e-02 -2.527518e-02 -2.531147e-02 -2.522439e-02 -2.432747e-02 -2.333503e-02 -2.157007e-02 -1.978460e-02 -1.739020e-02 -1.508246e-02 -1.245144e-02 -9.997863e-03 -7.590642e-03 -5.374417e-03 -3.596922e-03 -1.913110e-03 -1.004705e-03 1.384216e-05 7.253043e-05 5.326747e-04 5.389993e-05 2.876357e-04 -2.746766e-04 1.044303e-04 -1.619544e-04 6.271122e-04 8.718496e-04 2.134126e-03 2.922151e-03 4.524082e-03 5.664918e-03 7.297161e-03 8.415746e-03 9.743674e-03 1.059704e-02 1.150205e-02 1.204468e-02 1.256006e-02 1.283041e-02 1.302898e-02 1.307690e-02 1.302569e-02 1.289564e-02 1.264930e-02 1.238063e-02 1.198295e-02 1.161027e-02 1.109529e-02 1.064767e-02 1.004072e-02 9.541398e-03 8.860818e-03 8.327867e-03 7.587238e-03 7.034975e-03 
1.209531e-02 1.094538e-02 9.451977e-03 8.306156e-03 6.768043e-03 5.649165e-03 4.089554e-03 3.021335e-03 1.467171e-03 4.742919e-04 -1.043919e-03 -1.936258e-03 -3.385192e-03 -4.151963e-03 -5.496489e-03 -6.113545e-03 -7.317773e-03 -7.762375e-03 -8.790571e-03 -9.041664e-03 -9.858963e-03 -9.897219e-03 -1.047020e-02 -1.027800e-02 -1.057531e-02 -1.013688e-02 -1.013009e-02 -9.432135e-03 -9.097196e-03 -8.130293e-03 -7.449832e-03 -6.210811e-03 -5.177378e-03 -3.672847e-03 -2.293212e-03 -5.441010e-04 1.155632e-03 3.108833e-03 5.077738e-03 7.169675e-03 9.326936e-03 1.146300e-02 1.369438e-02 1.574856e-02 1.790581e-02 1.972228e-02 2.162717e-02 2.302726e-02 2.448157e-02 2.527729e-02 2.607953e-02 2.609371e-02 2.606213e-02 2.515353e-02 2.415258e-02 2.224222e-02 2.020782e-02 1.730069e-02 1.425821e-02 1.045451e-02 6.524343e-03 2.016454e-03 -2.594341e-03 -7.537829e-03 -1.255393e-02 -1.761077e-02 -2.270910e-02 -2.752404e-02 -3.234891e-02 -3.654732e-02 -4.071871e-02 -4.391686e-02 -4.704044e-02 -4.886642e-02 -5.056282e-02 -5.070796e-02 -5.067966e-02 -4.899125e-02 -4.712843e-02 -4.372415e-02 -4.021387e-02 -3.555556e-02 -3.092291e-02 -2.577171e-02 -2.079105e-02 -1.602396e-02 -1.151671e-02 -7.894131e-03 -4.507534e-03 -2.502918e-03 -5.211539e-04 -1.726146e-04 6.430642e-04 -1.284113e-04 1.910581e-04 -8.477912e-04 -2.442868e-04 -7.594468e-04 6.484019e-04 1.132027e-03 3.490764e-03 5.079336e-03 8.161115e-03 1.048516e-02 1.368028e-02 1.593252e-02 1.852807e-02 2.022411e-02 2.199050e-02 2.306422e-02 2.407836e-02 2.461450e-02 2.502038e-02 2.511513e-02 2.504230e-02 2.478030e-02 2.433577e-02 2.379353e-02 2.306444e-02 2.231030e-02 2.136487e-02 2.045659e-02 1.934537e-02 1.832915e-02 1.708815e-02 1.600006e-02 1.465512e-02 1.352387e-02 
1.865414e-02 1.698296e-02 1.449098e-02 1.282932e-02 1.025280e-02 8.634051e-03 6.013369e-03 4.472227e-03 1.854021e-03 4.265924e-04 -2.136850e-03 -3.413718e-03 -5.865948e-03 -6.955722e-03 -9.238015e-03 -1.010552e-02 -1.215876e-02 -1.277098e-02 -1.453724e-02 -1.486362e-02 -1.628736e-02 -1.629988e-02 -1.732880e-02 -1.700177e-02 -1.758765e-02 -1.689784e-02 -1.699765e-02 -1.592514e-02 -1.550297e-02 -1.403310e-02 -1.306333e-02 -1.119025e-02 -9.662171e-03 -7.394107e-03 -5.318177e-03 -2.684326e-03 -9.973334e-05 2.841687e-03 5.858771e-03 9.012257e-03 1.234088e-02 1.556661e-02 1.903538e-02 2.214541e-02 2.553108e-02 2.829118e-02 3.132403e-02 3.346369e-02 3.584189e-02 3.707440e-02 3.848877e-02 3.854174e-02 3.871024e-02 3.736429e-02 3.607233e-02 3.320193e-02 3.034158e-02 2.594916e-02 2.154788e-02 1.578172e-02 1.001267e-02 3.162826e-03 -3.665748e-03 -1.119168e-02 -1.866253e-02 -2.637346e-02 -3.399052e-02 -4.134279e-02 -4.855495e-02 -5.497254e-02 -6.118920e-02 -6.607853e-02 -7.068890e-02 -7.346899e-02 -7.589058e-02 -7.606914e-02 -7.585316e-02 -7.316982e-02 -7.016673e-02 -6.478026e-02 -5.930846e-02 -5.193507e-02 -4.483301e-02 -3.670349e-02 -2.916134e-02 -2.173780e-02 -1.495833e-02 -9.528230e-03 -4.429663e-03 -1.765598e-03 1.204483e-03 1.138025e-03 2.302113e-03 5.521279e-04 1.026067e-03 -9.110593e-04 5.120862e-05 -9.207909e-04 1.359085e-03 1.977735e-03 5.744838e-03 8.099154e-03 1.297247e-02 1.652885e-02 2.153785e-02 2.497261e-02 2.896856e-02 3.153573e-02 3.422247e-02 3.585717e-02 3.738959e-02 3.822534e-02 3.882428e-02 3.899826e-02 3.885364e-02 3.848967e-02 3.775968e-02 3.697429e-02 3.578923e-02 3.468800e-02 3.315008e-02 3.182184e-02 3.000667e-02 2.852174e-02 2.648339e-02 2.489594e-02 2.267413e-02 2.102681e-02 
2.409346e-02 2.179784e-02 1.880812e-02 1.651540e-02 1.342831e-02 1.118481e-02 8.047453e-03 5.901631e-03 2.769097e-03 7.715690e-04 -2.293644e-03 -4.091224e-03 -7.020926e-03 -8.567459e-03 -1.129001e-02 -1.253651e-02 -1.497904e-02 -1.587978e-02 -1.797011e-02 -1.848310e-02 -2.015109e-02 -2.023809e-02 -2.141668e-02 -2.104288e-02 -2.166906e-02 -2.080314e-02 -2.081945e-02 -1.943451e-02 -1.879170e-02 -1.686780e-02 -1.552918e-02 -1.305795e-02 -1.100576e-02 -7.997405e-03 -5.241485e-03 -1.734018e-03 1.677753e-03 5.607698e-03 9.577966e-03 1.380390e-02 1.817496e-02 2.251086e-02 2.705662e-02 3.125151e-02 3.567515e-02 3.941508e-02 4.335591e-02 4.627699e-02 4.932971e-02 5.104478e-02 5.279331e-02 5.293329e-02 5.299833e-02 5.126518e-02 4.936061e-02 4.558403e-02 4.157171e-02 3.575684e-02 2.968610e-02 2.203810e-02 1.415720e-02 5.073298e-03 -4.191509e-03 -1.416037e-02 -2.424927e-02 -3.445163e-02 -4.471937e-02 -5.444931e-02 -6.419695e-02 -7.271836e-02 -8.120229e-02 -8.775623e-02 -9.419120e-02 -9.801763e-02 -1.016147e-01 -1.020395e-01 -1.021308e-01 -9.875964e-02 -9.503099e-02 -8.802526e-02 -8.079233e-02 -7.108424e-02 -6.143324e-02 -5.066219e-02 -4.026957e-02 -3.034321e-02 -2.099313e-02 -1.352218e-02 -6.617305e-03 -2.620292e-03 1.172642e-03 1.509018e-03 2.735856e-03 6.563871e-04 8.375748e-04 -1.747638e-03 -8.586335e-04 -2.269605e-03 3.627052e-04 1.052726e-03 5.689249e-03 8.813346e-03 1.508237e-02 2.002049e-02 2.666020e-02 3.130569e-02 3.652210e-02 3.991171e-02 4.339838e-02 4.556187e-02 4.758055e-02 4.870906e-02 4.954186e-02 4.979452e-02 4.967673e-02 4.920376e-02 4.834031e-02 4.729340e-02 4.585866e-02 4.437902e-02 4.251056e-02 4.071722e-02 3.851566e-02 3.650227e-02 3.403777e-02 3.187624e-02 2.919842e-02 2.694558e-02 
3.097696e-02 2.819659e-02 2.403707e-02 2.126354e-02 1.694898e-02 1.423900e-02 9.838107e-03 7.251244e-03 2.844098e-03 4.426360e-04 -3.880768e-03 -6.033307e-03 -1.017598e-02 -1.201693e-02 -1.587841e-02 -1.734799e-02 -2.082773e-02 -2.187043e-02 -2.487059e-02 -2.543576e-02 -2.786310e-02 -2.790466e-02 -2.967176e-02 -2.914767e-02 -3.017385e-02 -2.904578e-02 -2.925861e-02 -2.749282e-02 -2.683081e-02 -2.440106e-02 -2.281857e-02 -1.971168e-02 -1.718640e-02 -1.341099e-02 -9.954403e-03 -5.552549e-03 -1.222864e-03 3.715868e-03 8.799215e-03 1.412299e-02 1.976515e-02 2.524663e-02 3.116625e-02 3.649435e-02 4.231925e-02 4.710008e-02 5.237418e-02 5.614593e-02 6.035189e-02 6.261771e-02 6.521839e-02 6.549899e-02 6.599761e-02 6.390020e-02 6.191312e-02 5.720665e-02 5.253584e-02 4.521532e-02 3.790212e-02 2.822222e-02 1.856542e-02 7.030159e-03 -4.438238e-03 -1.712662e-02 -2.969658e-02 -4.270779e-02 -5.555206e-02 -6.798683e-02 -8.020257e-02 -9.112143e-02 -1.017447e-01 -1.101720e-01 -1.181839e-01 -1.231250e-01 -1.274999e-01 -1.280387e-01 -1.279045e-01 -1.234485e-01 -1.184008e-01 -1.090677e-01 -9.955437e-02 -8.652620e-02 -7.403956e-02 -5.956491e-02 -4.633240e-02 -3.316151e-02 -2.138318e-02 -1.190485e-02 -3.182356e-03 1.132752e-03 5.851181e-03 4.915401e-03 6.119638e-03 2.140296e-03 2.222790e-03 -1.763096e-03 -7.021095e-04 -2.840011e-03 7.190751e-04 1.304939e-03 7.475181e-03 1.124549e-02 1.953144e-02 2.595988e-02 3.472955e-02 4.067757e-02 4.734383e-02 5.161993e-02 5.602384e-02 5.880238e-02 6.136135e-02 6.286857e-02 6.391618e-02 6.431714e-02 6.412880e-02 6.360481e-02 6.243411e-02 6.118347e-02 5.925053e-02 5.745921e-02 5.493662e-02 5.275887e-02 4.977129e-02 4.732598e-02 4.396001e-02 4.133673e-02 3.765478e-02 3.492333e-02 
3.596722e-02 3.252797e-02 2.804349e-02 2.459436e-02 1.994360e-02 1.655578e-02 1.181123e-02 8.560253e-03 3.807688e-03 7.728558e-04 -3.890128e-03 -6.627957e-03 -1.109512e-02 -1.345646e-02 -1.761683e-02 -1.952631e-02 -2.326791e-02 -2.465618e-02 -2.786902e-02 -2.867342e-02 -3.125148e-02 -3.141566e-02 -3.325799e-02 -3.273095e-02 -3.374262e-02 -3.247800e-02 -3.257165e-02 -3.052842e-02 -2.962754e-02 -2.677315e-02 -2.481804e-02 -2.113489e-02 -1.809198e-02 -1.358780e-02 -9.462635e-03 -4.184610e-03 9.619328e-04 6.910019e-03 1.294345e-02 1.938287e-02 2.607698e-02 3.273736e-02 3.975960e-02 4.626782e-02 5.317283e-02 5.905288e-02 6.528953e-02 6.997919e-02 7.491734e-02 7.780713e-02 8.078849e-02 8.128592e-02 8.169965e-02 7.931565e-02 7.669186e-02 7.113708e-02 6.524135e-02 5.651011e-02 4.741333e-02 3.582775e-02 2.392543e-02 1.011874e-02 -3.911800e-03 -1.907081e-02 -3.435947e-02 -4.987049e-02 -6.544841e-02 -8.026486e-02 -9.511914e-02 -1.081794e-01 -1.212490e-01 -1.314537e-01 -1.415891e-01 -1.477759e-01 -1.537338e-01 -1.547521e-01 -1.553410e-01 -1.503481e-01 -1.448214e-01 -1.338209e-01 -1.224538e-01 -1.068375e-01 -9.133998e-02 -7.391418e-02 -5.718091e-02 -4.128223e-02 -2.638834e-02 -1.461205e-02 -3.892206e-03 2.160522e-03 7.383921e-03 6.919074e-03 7.732864e-03 3.269227e-03 2.403269e-03 -2.672565e-03 -2.003121e-03 -4.974564e-03 -1.416114e-03 -1.204742e-03 5.401789e-03 9.679644e-03 1.913237e-02 2.743320e-02 3.812767e-02 4.533541e-02 5.312174e-02 5.816633e-02 6.332142e-02 6.670170e-02 6.979710e-02 7.171056e-02 7.306673e-02 7.363324e-02 7.354536e-02 7.296460e-02 7.173940e-02 7.025638e-02 6.816771e-02 6.601368e-02 6.327373e-02 6.063714e-02 5.739503e-02 5.441847e-02 5.077397e-02 4.756386e-02 4.358558e-02 4.022506e-02 
4.318187e-02 3.929607e-02 3.346304e-02 2.956687e-02 2.348612e-02 1.966146e-02 1.343253e-02 9.766752e-03 3.507058e-03 9.218042e-05 -6.065956e-03 -9.136222e-03 -1.505059e-02 -1.768453e-02 -2.320881e-02 -2.532010e-02 -3.030927e-02 -3.181927e-02 -3.613371e-02 -3.697210e-02 -4.048015e-02 -4.058415e-02 -4.316324e-02 -4.247596e-02 -4.401312e-02 -4.248211e-02 -4.287495e-02 -4.045235e-02 -3.961188e-02 -3.625753e-02 -3.411410e-02 -2.980264e-02 -2.631597e-02 -2.104881e-02 -1.622253e-02 -1.004458e-02 -3.945030e-03 3.034549e-03 1.025657e-02 1.784158e-02 2.592852e-02 3.381406e-02 4.238255e-02 5.013930e-02 5.866975e-02 6.574050e-02 7.358210e-02 7.929821e-02 8.569705e-02 8.932241e-02 9.347927e-02 9.428670e-02 9.544663e-02 9.282438e-02 9.039102e-02 8.396493e-02 7.761941e-02 6.736176e-02 5.715367e-02 4.344137e-02 2.981750e-02 1.341054e-02 -2.834523e-03 -2.089198e-02 -3.872303e-02 -5.723568e-02 -7.549011e-02 -9.321598e-02 -1.106709e-01 -1.263548e-01 -1.417258e-01 -1.540622e-01 -1.659553e-01 -1.735327e-01 -1.804257e-01 -1.817743e-01 -1.821751e-01 -1.760910e-01 -1.690352e-01 -1.552755e-01 -1.411228e-01 -1.212373e-01 -1.022802e-01 -7.988740e-02 -5.992086e-02 -3.970042e-02 -2.229549e-02 -8.105814e-03 4.623547e-03 1.045279e-02 1.663477e-02 1.328187e-02 1.317769e-02 5.190922e-03 4.045231e-03 -2.754623e-03 -2.335145e-03 -6.125836e-03 -1.418208e-03 -1.756375e-03 6.430532e-03 1.076282e-02 2.221969e-02 3.254087e-02 4.583788e-02 5.440146e-02 6.356042e-02 6.954914e-02 7.568857e-02 7.990427e-02 8.367089e-02 8.616067e-02 8.781210e-02 8.864714e-02 8.851290e-02 8.794963e-02 8.640784e-02 8.476872e-02 8.215256e-02 7.973026e-02 7.628910e-02 7.331267e-02 6.921627e-02 6.585347e-02 6.121374e-02 5.758673e-02 5.248217e-02 4.868521e-02 
4.769181e-02 4.311129e-02 3.713414e-02 3.251249e-02 2.627437e-02 2.171025e-02 1.531177e-02 1.091168e-02 4.473661e-03 3.502445e-04 -5.989413e-03 -9.721518e-03 -1.581328e-02 -1.904240e-02 -2.473141e-02 -2.735332e-02 -3.248517e-02 -3.440604e-02 -3.883105e-02 -3.996827e-02 -4.354393e-02 -4.382487e-02 -4.641664e-02 -4.577626e-02 -4.725755e-02 -4.563606e-02 -4.588907e-02 -4.323134e-02 -4.214996e-02 -3.840837e-02 -3.590502e-02 -3.104719e-02 -2.706458e-02 -2.108681e-02 -1.561519e-02 -8.561822e-03 -1.661521e-03 6.350774e-03 1.452306e-02 2.327809e-02 3.244186e-02 4.159751e-02 5.132429e-02 6.039218e-02 7.009077e-02 7.842953e-02 8.734891e-02 9.418010e-02 1.014396e-01 1.058963e-01 1.105524e-01 1.117679e-01 1.129221e-01 1.101578e-01 1.070992e-01 9.989751e-02 9.225564e-02 8.058028e-02 6.844476e-02 5.275887e-02 3.671321e-02 1.795003e-02 -1.009189e-03 -2.158791e-02 -4.222171e-02 -6.322219e-02 -8.422803e-02 -1.042803e-01 -1.243877e-01 -1.421850e-01 -1.601228e-01 -1.743302e-01 -1.886849e-01 -1.977782e-01 -2.068439e-01 -2.090570e-01 -2.108925e-01 -2.045569e-01 -1.975387e-01 -1.820333e-01 -1.659724e-01 -1.430055e-01 -1.202640e-01 -9.439118e-02 -6.975838e-02 -4.672483e-02 -2.526717e-02 -8.729980e-03 6.255018e-03 1.473394e-02 2.051611e-02 1.766683e-02 1.690129e-02 8.565235e-03 5.299026e-03 -3.405041e-03 -3.199586e-03 -8.279215e-03 -3.943732e-03 -5.565773e-03 2.176429e-03 5.886310e-03 1.739445e-02 3.075085e-02 4.675511e-02 5.618588e-02 6.618167e-02 7.299848e-02 8.008004e-02 8.528472e-02 8.984231e-02 9.302695e-02 9.513740e-02 9.628434e-02 9.633959e-02 9.578781e-02 9.427472e-02 9.244048e-02 8.977159e-02 8.701187e-02 8.348113e-02 8.006290e-02 7.586100e-02 7.197384e-02 6.722010e-02 6.300025e-02 5.777379e-02 5.332701e-02 
5.527686e-02 5.028984e-02 4.277394e-02 3.773751e-02 2.984805e-02 2.487239e-02 1.674401e-02 1.194917e-02 3.742897e-03 -7.437336e-04 -8.845945e-03 -1.289489e-02 -2.069832e-02 -2.418423e-02 -3.149045e-02 -3.429758e-02 -4.091255e-02 -4.293829e-02 -4.867818e-02 -4.983374e-02 -5.452798e-02 -5.473649e-02 -5.822824e-02 -5.742112e-02 -5.956629e-02 -5.767953e-02 -5.834621e-02 -5.531855e-02 -5.438866e-02 -5.016374e-02 -4.753903e-02 -4.207325e-02 -3.768715e-02 -3.096446e-02 -2.480054e-02 -1.685439e-02 -8.971423e-03 8.685258e-05 9.524646e-03 1.947314e-02 3.016341e-02 4.063657e-02 5.210835e-02 6.256936e-02 7.416174e-02 8.388904e-02 9.474853e-02 1.028478e-01 1.119565e-01 1.174112e-01 1.236583e-01 1.254310e-01 1.277356e-01 1.249214e-01 1.224029e-01 1.144201e-01 1.065870e-01 9.335836e-02 8.026104e-02 6.231718e-02 4.459716e-02 2.303793e-02 1.833036e-03 -2.185880e-02 -4.511879e-02 -6.932750e-02 -9.312957e-02 -1.162912e-01 -1.391497e-01 -1.597912e-01 -1.802191e-01 -1.968443e-01 -2.131967e-01 -2.240651e-01 -2.343342e-01 -2.373038e-01 -2.391141e-01 -2.319155e-01 -2.231610e-01 -2.045053e-01 -1.848768e-01 -1.562717e-01 -1.289890e-01 -9.599187e-02 -6.766056e-02 -3.836380e-02 -1.494329e-02 4.676900e-03 2.190977e-02 2.925033e-02 3.676972e-02 2.775903e-02 2.348255e-02 8.583724e-03 6.316062e-03 -2.866820e-03 -4.263992e-03 -9.536052e-03 -2.870044e-03 -5.775628e-03 3.612997e-03 5.276932e-03 1.746306e-02 3.346731e-02 5.233642e-02 6.275791e-02 7.407840e-02 8.250997e-02 9.119215e-02 9.795752e-02 1.035695e-01 1.076855e-01 1.102137e-01 1.117583e-01 1.117826e-01 1.113002e-01 1.094601e-01 1.075105e-01 1.042975e-01 1.013171e-01 9.705716e-02 9.335343e-02 8.824723e-02 8.403008e-02 7.820031e-02 7.361711e-02 6.714756e-02 6.231196e-02 
5.929055e-02 5.357008e-02 4.610197e-02 4.028254e-02 3.242179e-02 2.663368e-02 1.851368e-02 1.290057e-02 4.684007e-03 -6.009854e-04 -8.727938e-03 -1.352938e-02 -2.136600e-02 -2.553427e-02 -3.287508e-02 -3.627353e-02 -4.291697e-02 -4.542635e-02 -5.118079e-02 -5.270010e-02 -5.738651e-02 -5.783036e-02 -6.128200e-02 -6.057564e-02 -6.263614e-02 -6.071003e-02 -6.123187e-02 -5.801837e-02 -5.686421e-02 -5.229874e-02 -4.934787e-02 -4.337687e-02 -3.853854e-02 -3.113551e-02 -2.437032e-02 -1.556045e-02 -6.909519e-03 3.197799e-03 1.357710e-02 2.475032e-02 3.654515e-02 4.839105e-02 6.109538e-02 7.302461e-02 8.591058e-02 9.711764e-02 1.092271e-01 1.186980e-01 1.288688e-01 1.354327e-01 1.423764e-01 1.448177e-01 1.472634e-01 1.445020e-01 1.414044e-01 1.327301e-01 1.235139e-01 1.088223e-01 9.358934e-02 7.352712e-02 5.312632e-02 2.904859e-02 4.932078e-03 -2.135648e-02 -4.745691e-02 -7.407265e-02 -1.004856e-01 -1.257549e-01 -1.510428e-01 -1.735646e-01 -1.964525e-01 -2.148963e-01 -2.339639e-01 -2.466449e-01 -2.598665e-01 -2.643234e-01 -2.687732e-01 -2.619167e-01 -2.543229e-01 -2.338954e-01 -2.126008e-01 -1.799811e-01 -1.477142e-01 -1.102056e-01 -7.504217e-02 -4.347191e-02 -1.432579e-02 6.302071e-03 2.605780e-02 3.857736e-02 4.209334e-02 3.280810e-02 3.016790e-02 1.752225e-02 9.701223e-03 -3.450674e-03 -2.152599e-03 -8.794473e-03 -3.147823e-03 -8.678526e-03 -8.751077e-04 -3.030270e-03 4.918312e-03 2.529185e-02 4.778625e-02 5.737378e-02 6.974969e-02 8.059585e-02 9.149902e-02 1.004136e-01 1.073553e-01 1.125845e-01 1.156961e-01 1.176634e-01 1.179137e-01 1.174778e-01 1.157306e-01 1.136158e-01 1.104604e-01 1.071762e-01 1.029741e-01 9.885891e-02 9.381912e-02 8.909655e-02 8.333908e-02 7.816481e-02 7.176657e-02 6.626289e-02 
6.732998e-02 6.124461e-02 5.203115e-02 4.582667e-02 3.606765e-02 2.988770e-02 1.975962e-02 1.376432e-02 3.481334e-03 -2.158020e-03 -1.235343e-02 -1.746324e-02 -2.731314e-02 -3.172764e-02 -4.097244e-02 -4.454234e-02 -5.293275e-02 -5.553060e-02 -6.283573e-02 -6.435662e-02 -7.036730e-02 -7.072507e-02 -7.525278e-02 -7.437309e-02 -7.724614e-02 -7.505877e-02 -7.611830e-02 -7.255156e-02 -7.165039e-02 -6.663068e-02 -6.363782e-02 -5.709697e-02 -5.191014e-02 -4.380225e-02 -3.636985e-02 -2.669844e-02 -1.705104e-02 -5.905956e-03 5.803684e-03 1.820182e-02 3.165318e-02 4.490483e-02 5.956348e-02 7.304506e-02 8.812397e-02 1.009563e-01 1.153968e-01 1.264423e-01 1.389325e-01 1.468433e-01 1.558953e-01 1.592346e-01 1.633430e-01 1.607972e-01 1.586832e-01 1.493535e-01 1.402641e-01 1.239731e-01 1.079466e-01 8.543356e-02 6.339582e-02 3.626023e-02 9.850853e-03 -1.979667e-02 -4.861462e-02 -7.862661e-02 -1.079499e-01 -1.364653e-01 -1.646301e-01 -1.901222e-01 -2.156456e-01 -2.367112e-01 -2.579946e-01 -2.728663e-01 -2.876431e-01 -2.935514e-01 -2.983470e-01 -2.913586e-01 -2.819422e-01 -2.583883e-01 -2.323337e-01 -1.923576e-01 -1.534164e-01 -1.050143e-01 -6.535827e-02 -2.362245e-02 4.575161e-03 2.925815e-02 5.083147e-02 6.031823e-02 7.028885e-02 4.743606e-02 3.135895e-02 6.212670e-03 8.680953e-03 3.308183e-03 -3.343046e-03 -9.668095e-03 3.373415e-03 -3.763157e-03 6.112539e-03 -1.063309e-03 4.896341e-03 2.019863e-02 3.883371e-02 5.211993e-02 7.045022e-02 8.693784e-02 1.015359e-01 1.132943e-01 1.216318e-01 1.279682e-01 1.314151e-01 1.337343e-01 1.338722e-01 1.334798e-01 1.313825e-01 1.291752e-01 1.254824e-01 1.220329e-01 1.171048e-01 1.127735e-01 1.068061e-01 1.018241e-01 9.492687e-02 8.945351e-02 8.170110e-02 7.586233e-02 
7.085585e-02 6.399306e-02 5.503310e-02 4.797707e-02 3.844265e-02 3.136190e-02 2.142643e-02 1.451102e-02 4.389269e-03 -2.156642e-03 -1.221856e-02 -1.818842e-02 -2.792710e-02 -3.312498e-02 -4.227475e-02 -4.652648e-02 -5.483229e-02 -5.799221e-02 -6.521795e-02 -6.716980e-02 -7.310104e-02 -7.375292e-02 -7.819445e-02 -7.746964e-02 -8.023991e-02 -7.806642e-02 -7.899174e-02 -7.529400e-02 -7.420624e-02 -6.890274e-02 -6.564359e-02 -5.865346e-02 -5.308824e-02 -4.434898e-02 -3.639136e-02 -2.588874e-02 -1.553690e-02 -3.346327e-03 9.270718e-03 2.293330e-02 3.750209e-02 5.222406e-02 6.819091e-02 8.330826e-02 9.982961e-02 1.143847e-01 1.302969e-01 1.430255e-01 1.568542e-01 1.662273e-01 1.762644e-01 1.806156e-01 1.850955e-01 1.828612e-01 1.802553e-01 1.703290e-01 1.597323e-01 1.418642e-01 1.233685e-01 9.845273e-02 7.330797e-02 4.334384e-02 1.371917e-02 -1.865663e-02 -5.028869e-02 -8.250718e-02 -1.140184e-01 -1.441102e-01 -1.740181e-01 -2.007234e-01 -2.280795e-01 -2.505222e-01 -2.744130e-01 -2.912851e-01 -3.098780e-01 -3.182389e-01 -3.276064e-01 -3.221983e-01 -3.162937e-01 -2.912484e-01 -2.647935e-01 -2.190031e-01 -1.734982e-01 -1.178634e-01 -6.693242e-02 -2.455441e-02 1.329336e-02 3.165102e-02 5.682639e-02 7.958657e-02 6.815987e-02 3.614713e-02 4.115228e-02 3.886980e-02 1.455379e-02 -4.163436e-03 1.255092e-02 2.068160e-03 8.305046e-03 5.407531e-04 4.456780e-03 -3.600808e-03 1.755213e-03 -8.053517e-03 -3.653215e-03 2.342076e-02 5.477450e-02 8.060724e-02 9.989486e-02 1.148259e-01 1.243598e-01 1.316578e-01 1.353752e-01 1.379509e-01 1.381996e-01 1.378055e-01 1.358449e-01 1.334978e-01 1.299968e-01 1.262963e-01 1.216069e-01 1.169158e-01 1.112187e-01 1.057664e-01 9.915519e-02 9.310147e-02 8.563627e-02 7.911271e-02 
7.949297e-02 7.230722e-02 6.137226e-02 5.395655e-02 4.224248e-02 3.478173e-02 2.251709e-02 1.522233e-02 2.688164e-03 -4.212921e-03 -1.669793e-02 -2.297548e-02 -3.507485e-02 -4.051277e-02 -5.189298e-02 -5.630263e-02 -6.665074e-02 -6.987907e-02 -7.891400e-02 -8.084418e-02 -8.832007e-02 -8.886484e-02 -9.456713e-02 -9.365664e-02 -9.739333e-02 -9.496098e-02 -9.655283e-02 -9.252346e-02 -9.179746e-02 -8.608199e-02 -8.287224e-02 -7.537262e-02 -6.953196e-02 -6.015897e-02 -5.158338e-02 -4.028851e-02 -2.895515e-02 -1.577646e-02 -1.794244e-03 1.308557e-02 2.941520e-02 4.560220e-02 6.371904e-02 8.053909e-02 9.956049e-02 1.159990e-01 1.346724e-01 1.493417e-01 1.660365e-01 1.772017e-01 1.899756e-01 1.956821e-01 2.024662e-01 2.008154e-01 1.997527e-01 1.893398e-01 1.792588e-01 1.597000e-01 1.405923e-01 1.129198e-01 8.615670e-02 5.276674e-02 2.079351e-02 -1.521344e-02 -4.964185e-02 -8.538611e-02 -1.199031e-01 -1.532582e-01 -1.861250e-01 -2.157296e-01 -2.457413e-01 -2.707347e-01 -2.968682e-01 -3.161337e-01 -3.365728e-01 -3.472496e-01 -3.576164e-01 -3.536401e-01 -3.462589e-01 -3.194176e-01 -2.866053e-01 -2.322635e-01 -1.755122e-01 -1.026126e-01 -4.410079e-02 1.812733e-02 4.554350e-02 7.076111e-02 9.141516e-02 1.023064e-01 1.250557e-01 5.670551e-02 9.544754e-04 -7.204050e-03 2.076048e-02 8.745712e-03 2.647209e-03 -3.754999e-03 -1.458060e-03 -8.599598e-03 -1.510365e-04 -5.159946e-03 5.457352e-03 -1.814741e-02 -1.035117e-02 2.821998e-02 6.597831e-02 9.626391e-02 1.163459e-01 1.321321e-01 1.413242e-01 1.486894e-01 1.520590e-01 1.545922e-01 1.545539e-01 1.541140e-01 1.518239e-01 1.494223e-01 1.454555e-01 1.416743e-01 1.363169e-01 1.315051e-01 1.248951e-01 1.192734e-01 1.114799e-01 1.052037e-01 9.627847e-02 8.947955e-02 
8.257347e-02 7.455736e-02 6.409768e-02 5.574608e-02 4.446462e-02 3.599392e-02 2.411474e-02 1.577460e-02 3.579050e-03 -4.360135e-03 -1.654929e-02 -2.381496e-02 -3.565526e-02 -4.199306e-02 -5.314514e-02 -5.833627e-02 -6.848305e-02 -7.235461e-02 -8.121298e-02 -8.363880e-02 -9.096211e-02 -9.185413e-02 -9.742612e-02 -9.671874e-02 -1.003419e-01 -9.797343e-02 -9.945611e-02 -9.535274e-02 -9.450040e-02 -8.856733e-02 -8.518225e-02 -7.730695e-02 -7.120055e-02 -6.127081e-02 -5.229081e-02 -4.022928e-02 -2.830259e-02 -1.411759e-02 6.919225e-04 1.684112e-02 3.426253e-02 5.198947e-02 7.146672e-02 9.007671e-02 1.106902e-01 1.291048e-01 1.495059e-01 1.662124e-01 1.845958e-01 1.976547e-01 2.118097e-01 2.189741e-01 2.264750e-01 2.254870e-01 2.240851e-01 2.131933e-01 2.014235e-01 1.800654e-01 1.579309e-01 1.273231e-01 9.669525e-02 5.987538e-02 2.413327e-02 -1.488329e-02 -5.205211e-02 -8.964598e-02 -1.254941e-01 -1.593859e-01 -1.925373e-01 -2.219104e-01 -2.521558e-01 -2.772702e-01 -3.050081e-01 -3.260295e-01 -3.508348e-01 -3.653331e-01 -3.830061e-01 -3.830681e-01 -3.836632e-01 -3.566463e-01 -3.275540e-01 -2.643416e-01 -2.006046e-01 -1.127086e-01 -3.408250e-02 2.854384e-02 7.907629e-02 7.041726e-02 1.106077e-01 1.527416e-01 8.078389e-02 1.239233e-02 4.065201e-02 1.558067e-02 -3.678115e-02 -4.093238e-02 -2.786389e-02 -3.996587e-02 -1.919564e-02 -2.263098e-02 -9.494389e-03 -1.518768e-02 -2.344910e-03 -1.425355e-02 8.763075e-03 5.150725e-02 8.177831e-02 1.080638e-01 1.233704e-01 1.373421e-01 1.446479e-01 1.514393e-01 1.542361e-01 1.566389e-01 1.565978e-01 1.561344e-01 1.541075e-01 1.516506e-01 1.480832e-01 1.441521e-01 1.392691e-01 1.341820e-01 1.280868e-01 1.220493e-01 1.147870e-01 1.079497e-01 9.955275e-02 9.205153e-02 
9.202754e-02 8.372828e-02 7.103214e-02 6.233884e-02 4.855058e-02 3.970049e-02 2.511484e-02 1.638514e-02 1.369361e-03 -6.938151e-03 -2.196703e-02 -2.954868e-02 -4.415382e-02 -5.072898e-02 -6.448504e-02 -6.981748e-02 -8.233662e-02 -8.624702e-02 -9.719472e-02 -9.956140e-02 -1.086597e-01 -1.094074e-01 -1.164260e-01 -1.155061e-01 -1.202461e-01 -1.176120e-01 -1.198866e-01 -1.154729e-01 -1.150919e-01 -1.088008e-01 -1.055653e-01 -9.726634e-02 -9.097702e-02 -8.052462e-02 -7.100738e-02 -5.827637e-02 -4.542611e-02 -3.036660e-02 -1.420884e-02 3.081314e-03 2.231307e-02 4.150059e-02 6.327509e-02 8.369289e-02 1.070849e-01 1.276317e-01 1.512317e-01 1.702880e-01 1.921433e-01 2.075430e-01 2.251786e-01 2.343056e-01 2.449064e-01 2.450156e-01 2.458650e-01 2.347167e-01 2.239350e-01 2.007041e-01 1.781340e-01 1.442490e-01 1.119855e-01 7.119164e-02 3.307191e-02 -9.842208e-03 -4.981812e-02 -9.094011e-02 -1.298905e-01 -1.669385e-01 -2.031822e-01 -2.351661e-01 -2.679643e-01 -2.950562e-01 -3.245955e-01 -3.474706e-01 -3.739323e-01 -3.911921e-01 -4.106719e-01 -4.144877e-01 -4.149407e-01 -3.901684e-01 -3.534727e-01 -2.845688e-01 -2.005863e-01 -8.853395e-02 1.028426e-02 1.184632e-01 1.366838e-01 1.671659e-01 1.796545e-01 5.372515e-02 1.818882e-02 1.729322e-02 -6.879586e-02 -9.589143e-02 -3.041275e-02 -3.833691e-02 -2.014485e-02 -1.574882e-02 2.380527e-04 -1.086507e-02 6.394936e-03 -7.337417e-03 9.009292e-03 -2.812141e-03 3.219975e-02 9.372360e-02 1.143287e-01 1.358384e-01 1.453478e-01 1.569100e-01 1.622621e-01 1.682780e-01 1.705620e-01 1.728102e-01 1.726709e-01 1.722548e-01 1.701363e-01 1.677678e-01 1.639348e-01 1.600677e-01 1.546521e-01 1.495751e-01 1.426270e-01 1.365309e-01 1.280656e-01 1.210938e-01 1.111333e-01 1.034206e-01 
9.474789e-02 8.555097e-02 7.356991e-02 6.383428e-02 5.070109e-02 4.070397e-02 2.670758e-02 1.677642e-02 2.284883e-03 -7.222269e-03 -2.178605e-02 -3.050928e-02 -4.470051e-02 -5.230959e-02 -6.569621e-02 -7.191764e-02 -8.410905e-02 -8.874196e-02 -9.940569e-02 -1.023228e-01 -1.111864e-01 -1.123198e-01 -1.191590e-01 -1.184749e-01 -1.230924e-01 -1.205605e-01 -1.227621e-01 -1.183272e-01 -1.179026e-01 -1.114665e-01 -1.081815e-01 -9.959928e-02 -9.320405e-02 -8.230117e-02 -7.255830e-02 -5.916870e-02 -4.590230e-02 -2.992855e-02 -1.309361e-02 5.412570e-03 2.564252e-02 4.638199e-02 6.951179e-02 9.182585e-02 1.169251e-01 1.396763e-01 1.652646e-01 1.867268e-01 2.106815e-01 2.284763e-01 2.480140e-01 2.591710e-01 2.710011e-01 2.722697e-01 2.730630e-01 2.616233e-01 2.489224e-01 2.235318e-01 1.970136e-01 1.592431e-01 1.217226e-01 7.633601e-02 3.334172e-02 -1.322342e-02 -5.589320e-02 -9.835079e-02 -1.371571e-01 -1.729580e-01 -2.068831e-01 -2.359520e-01 -2.658386e-01 -2.903167e-01 -3.187044e-01 -3.420155e-01 -3.721695e-01 -3.949276e-01 -4.246720e-01 -4.369712e-01 -4.522650e-01 -4.310868e-01 -4.080803e-01 -3.267727e-01 -2.438416e-01 -9.871206e-02 2.685083e-02 1.487153e-01 2.267919e-01 1.648861e-01 9.338425e-02 7.190941e-02 6.803704e-03 -1.101114e-01 -1.011403e-01 -6.195571e-02 -2.501328e-02 -2.411525e-02 1.195315e-03 -9.775074e-03 7.459655e-03 -5.208078e-03 7.185236e-03 -6.451218e-03 5.513346e-03 -1.327149e-02 1.709183e-02 9.065240e-02 1.107586e-01 1.345485e-01 1.429939e-01 1.548640e-01 1.598209e-01 1.660686e-01 1.685197e-01 1.710683e-01 1.714053e-01 1.712626e-01 1.697794e-01 1.675795e-01 1.644680e-01 1.606197e-01 1.559752e-01 1.507421e-01 1.445920e-01 1.381514e-01 1.304917e-01 1.229827e-01 1.138160e-01 1.053780e-01 