# vtk DataFile Version 2.0
Comment goes here
ASCII

DATASET STRUCTURED_POINTS
DIMENSIONS    128   128   1

ORIGIN    0.000   0.000   0.000
SPACING   0.0156250.015625   1.000

POINT_DATA   16384
SCALARS uY double
LOOKUP_TABLE default

1.222565e-05 -4.742632e-06 9.400281e-06 -8.020386e-06 6.771372e-06 -1.091877e-05 4.422712e-06 -1.334859e-05 2.426024e-06 -1.523576e-05 8.447311e-07 -1.651843e-05 -2.625087e-07 -1.714434e-05 -8.390927e-07 -1.706877e-05 -8.290990e-07 -1.625356e-05 -1.775827e-07 -1.466749e-05 1.167346e-06 -1.228805e-05 3.250827e-06 -9.104414e-06 6.106392e-06 -5.121143e-06 9.750560e-06 -3.620460e-07 1.417767e-05 5.126485e-06 1.935557e-05 1.127316e-05 2.522269e-05 1.798072e-05 3.168653e-05 2.512606e-05 3.862323e-05 3.256074e-05 4.587736e-05 4.011119e-05 5.326094e-05 4.757705e-05 6.055024e-05 5.472682e-05 6.747976e-05 6.129009e-05 7.373309e-05 6.694669e-05 7.893192e-05 7.131477e-05 8.262591e-05 7.394098e-05 8.428780e-05 7.429799e-05 8.331939e-05 7.179546e-05 7.907498e-05 6.581126e-05 7.090853e-05 5.574925e-05 5.824922e-05 4.112721e-05 4.070614e-05 2.169329e-05 1.819564e-05 -2.440441e-06 -8.926274e-06 -3.067240e-05 -3.975848e-05 -6.183297e-05 -7.281910e-05 -9.419913e-05 -1.061217e-04 -1.256348e-04 -1.373792e-04 -1.538493e-04 -1.643011e-04 -1.767082e-04 -1.848926e-04 -1.924882e-04 -1.976490e-04 -1.999904e-04 -2.016014e-04 -1.985314e-04 -1.963033e-04 -1.879714e-04 -1.819499e-04 -1.689511e-04 -1.597137e-04 -1.432643e-04 -1.320299e-04 -1.139116e-04 -1.022963e-04 -8.439463e-05 -7.383769e-05 -5.760260e-05 -4.892034e-05 -3.530714e-05 -2.849593e-05 -1.798679e-05 -1.242529e-05 -5.133458e-06 -3.600708e-08 4.144625e-06 9.386675e-06 1.066208e-05 1.636654e-05 1.501369e-05 2.131080e-05 1.762437e-05 2.455214e-05 1.879282e-05 2.635497e-05 1.873447e-05 2.693467e-05 1.762664e-05 2.648364e-05 1.564015e-05 2.518811e-05 1.295230e-05 2.323262e-05 9.746440e-06 2.079699e-05 6.205674e-06 1.805073e-05 2.505494e-06 1.514821e-05 -1.192145e-06 
3.056639e-03 3.406925e-03 3.682900e-03 4.067317e-03 4.405532e-03 4.801133e-03 5.172656e-03 5.558938e-03 5.937622e-03 6.297475e-03 6.661162e-03 6.981891e-03 7.313631e-03 7.587958e-03 7.877159e-03 8.104107e-03 8.347502e-03 8.533061e-03 8.735403e-03 8.892906e-03 9.067281e-03 9.217390e-03 9.385059e-03 9.555287e-03 9.744943e-03 9.968586e-03 1.021491e-02 1.052927e-02 1.087068e-02 1.131444e-02 1.178983e-02 1.239949e-02 1.304405e-02 1.384933e-02 1.468933e-02 1.570771e-02 1.675453e-02 1.798519e-02 1.922893e-02 2.064663e-02 2.205014e-02 2.359991e-02 2.509405e-02 2.668783e-02 2.816935e-02 2.968590e-02 3.101917e-02 3.230863e-02 3.333245e-02 3.422646e-02 3.476665e-02 3.509408e-02 3.498130e-02 3.458835e-02 3.367910e-02 3.245078e-02 3.064786e-02 2.852646e-02 2.579432e-02 2.279054e-02 1.916150e-02 1.535540e-02 1.092564e-02 6.458447e-03 1.376831e-03 -3.561685e-03 -9.105222e-03 -1.428732e-02 -2.006702e-02 -2.523095e-02 -3.098126e-02 -3.583021e-02 -4.123753e-02 -4.544251e-02 -5.014491e-02 -5.336420e-02 -5.697333e-02 -5.889501e-02 -6.104569e-02 -6.144489e-02 -6.186260e-02 -6.065302e-02 -5.922175e-02 -5.649064e-02 -5.331437e-02 -4.935737e-02 -4.481986e-02 -4.018872e-02 -3.497711e-02 -3.046368e-02 -2.543044e-02 -2.181459e-02 -1.759582e-02 -1.517681e-02 -1.184417e-02 -1.028420e-02 -7.472244e-03 -6.368424e-03 -3.576374e-03 -2.561423e-03 3.819780e-04 1.515494e-03 4.382651e-03 5.531920e-03 7.800651e-03 8.575045e-03 9.744587e-03 9.898601e-03 9.980126e-03 9.624388e-03 8.981298e-03 8.377539e-03 7.409566e-03 6.780803e-03 5.773678e-03 5.249844e-03 4.363875e-03 3.999446e-03 3.306088e-03 3.110880e-03 2.629484e-03 2.591251e-03 2.313713e-03 2.410772e-03 2.315504e-03 2.522764e-03 2.581931e-03 2.873493e-03 
5.445978e-03 6.109075e-03 6.921447e-03 7.645714e-03 8.596983e-03 9.337759e-03 1.036497e-02 1.108254e-02 1.212764e-02 1.278914e-02 1.380175e-02 1.438321e-02 1.532336e-02 1.581171e-02 1.665254e-02 1.704736e-02 1.777731e-02 1.809214e-02 1.871660e-02 1.897968e-02 1.952176e-02 1.977594e-02 2.027625e-02 2.057800e-02 2.109305e-02 2.151030e-02 2.210957e-02 2.271802e-02 2.347915e-02 2.435698e-02 2.535914e-02 2.657973e-02 2.789476e-02 2.951744e-02 3.119923e-02 3.325821e-02 3.533039e-02 3.782252e-02 4.026556e-02 4.313811e-02 4.587724e-02 4.901725e-02 5.191314e-02 5.514089e-02 5.798575e-02 6.105487e-02 6.357657e-02 6.618360e-02 6.806030e-02 6.986553e-02 7.075204e-02 7.141184e-02 7.097649e-02 7.018454e-02 6.815212e-02 6.568316e-02 6.187581e-02 5.762296e-02 5.198896e-02 4.598468e-02 3.860654e-02 3.102141e-02 2.210130e-02 1.322234e-02 3.053069e-03 -6.747125e-03 -1.780913e-02 -2.809607e-02 -3.963846e-02 -4.992017e-02 -6.145622e-02 -7.117097e-02 -8.210692e-02 -9.061616e-02 -1.002347e-01 -1.068533e-01 -1.143484e-01 -1.184316e-01 -1.230113e-01 -1.240791e-01 -1.251171e-01 -1.229642e-01 -1.201616e-01 -1.149141e-01 -1.084569e-01 -1.006153e-01 -9.133053e-02 -8.187331e-02 -7.128672e-02 -6.174274e-02 -5.172121e-02 -4.382202e-02 -3.564320e-02 -3.034741e-02 -2.401965e-02 -2.081231e-02 -1.551903e-02 -1.337710e-02 -8.139038e-03 -6.161730e-03 -5.898848e-04 1.692157e-03 7.209138e-03 9.572097e-03 1.398537e-02 1.556583e-02 1.777469e-02 1.806400e-02 1.811114e-02 1.737741e-02 1.603044e-02 1.482292e-02 1.288897e-02 1.165025e-02 9.688929e-03 8.666347e-03 6.985196e-03 6.277761e-03 5.011660e-03 4.633725e-03 3.817844e-03 3.742978e-03 3.359938e-03 3.544621e-03 3.550690e-03 3.945399e-03 4.283922e-03 4.837846e-03 
8.907745e-03 1.002167e-02 1.086031e-02 1.207300e-02 1.309341e-02 1.433621e-02 1.545178e-02 1.666280e-02 1.779484e-02 1.892193e-02 2.000343e-02 2.100742e-02 2.198680e-02 2.284466e-02 2.368933e-02 2.439695e-02 2.509636e-02 2.567067e-02 2.623845e-02 2.671862e-02 2.719368e-02 2.764122e-02 2.808730e-02 2.858475e-02 2.908838e-02 2.973622e-02 3.040253e-02 3.131404e-02 3.226007e-02 3.355360e-02 3.489878e-02 3.668710e-02 3.854071e-02 4.091733e-02 4.336276e-02 4.638541e-02 4.946209e-02 5.313414e-02 5.681803e-02 6.106955e-02 6.525443e-02 6.992545e-02 7.440790e-02 7.923724e-02 8.370907e-02 8.833301e-02 9.238549e-02 9.635048e-02 9.949419e-02 1.022870e-01 1.039897e-01 1.050854e-01 1.048271e-01 1.037517e-01 1.010903e-01 9.748868e-02 9.212518e-02 8.581978e-02 7.764747e-02 6.867378e-02 5.779748e-02 4.640585e-02 3.312669e-02 1.975316e-02 4.528760e-03 -1.024924e-02 -2.684670e-02 -4.234685e-02 -5.964996e-02 -7.509681e-02 -9.232816e-02 -1.068432e-01 -1.230806e-01 -1.356804e-01 -1.498430e-01 -1.594909e-01 -1.703981e-01 -1.761371e-01 -1.826630e-01 -1.838034e-01 -1.850925e-01 -1.813736e-01 -1.770473e-01 -1.687218e-01 -1.590508e-01 -1.469622e-01 -1.330574e-01 -1.188287e-01 -1.028032e-01 -8.893682e-02 -7.357816e-02 -6.272910e-02 -5.017580e-02 -4.334816e-02 -3.372094e-02 -2.943151e-02 -2.147371e-02 -1.856225e-02 -1.044397e-02 -7.789177e-03 1.008474e-03 4.166476e-03 1.289915e-02 1.633520e-02 2.328121e-02 2.558088e-02 2.891816e-02 2.923792e-02 2.917534e-02 2.799156e-02 2.583242e-02 2.400762e-02 2.100362e-02 1.918733e-02 1.615900e-02 1.469623e-02 1.207658e-02 1.109857e-02 9.070007e-03 8.591173e-03 7.195945e-03 7.175547e-03 6.383545e-03 6.757585e-03 6.503159e-03 7.198953e-03 7.399612e-03 8.341952e-03 
1.040115e-02 1.180654e-02 1.349354e-02 1.501288e-02 1.697061e-02 1.851545e-02 2.061777e-02 2.210842e-02 2.423807e-02 2.560769e-02 2.766206e-02 2.886108e-02 3.075807e-02 3.175849e-02 3.344207e-02 3.424118e-02 3.568616e-02 3.630940e-02 3.752491e-02 3.802751e-02 3.905875e-02 3.952579e-02 4.045379e-02 4.099843e-02 4.193721e-02 4.269660e-02 4.378741e-02 4.491574e-02 4.631786e-02 4.797596e-02 4.985349e-02 5.219452e-02 5.469896e-02 5.784994e-02 6.109864e-02 6.513803e-02 6.918917e-02 7.412178e-02 7.894767e-02 8.467889e-02 9.014034e-02 9.645329e-02 1.022791e-01 1.088194e-01 1.145964e-01 1.208700e-01 1.260492e-01 1.314400e-01 1.353643e-01 1.391751e-01 1.411331e-01 1.426522e-01 1.419549e-01 1.405432e-01 1.366164e-01 1.318021e-01 1.242763e-01 1.158378e-01 1.046125e-01 9.262431e-02 7.788539e-02 6.271413e-02 4.489681e-02 2.714681e-02 6.861688e-03 -1.270213e-02 -3.473994e-02 -5.525204e-02 -7.824661e-02 -9.874970e-02 -1.217793e-01 -1.411829e-01 -1.631098e-01 -1.801484e-01 -1.995533e-01 -2.128288e-01 -2.280626e-01 -2.362306e-01 -2.456302e-01 -2.476935e-01 -2.499144e-01 -2.454712e-01 -2.398214e-01 -2.291357e-01 -2.158733e-01 -1.998612e-01 -1.805587e-01 -1.610167e-01 -1.389118e-01 -1.189865e-01 -9.841697e-02 -8.220906e-02 -6.614690e-02 -5.616695e-02 -4.427110e-02 -3.876521e-02 -2.905699e-02 -2.567359e-02 -1.573181e-02 -1.258084e-02 -1.572140e-03 2.516497e-03 1.378288e-02 1.852860e-02 2.770001e-02 3.081225e-02 3.488121e-02 3.514825e-02 3.463411e-02 3.293169e-02 2.981419e-02 2.738087e-02 2.335561e-02 2.101786e-02 1.711733e-02 1.527543e-02 1.201847e-02 1.080888e-02 8.405087e-03 7.830183e-03 6.321676e-03 6.323129e-03 5.665659e-03 6.159970e-03 6.265361e-03 7.159466e-03 7.916846e-03 9.114629e-03 
1.407308e-02 1.604349e-02 1.755131e-02 1.967298e-02 2.147182e-02 2.363178e-02 2.557716e-02 2.767177e-02 2.963089e-02 3.157140e-02 3.342985e-02 3.514830e-02 3.681675e-02 3.827171e-02 3.969234e-02 4.087388e-02 4.202581e-02 4.295942e-02 4.386267e-02 4.461154e-02 4.532915e-02 4.599465e-02 4.663239e-02 4.735226e-02 4.805555e-02 4.899923e-02 4.994661e-02 5.130717e-02 5.269969e-02 5.468145e-02 5.672727e-02 5.952848e-02 6.242208e-02 6.621223e-02 7.010824e-02 7.500017e-02 7.998243e-02 8.600034e-02 9.204811e-02 9.909413e-02 1.060486e-01 1.138720e-01 1.214080e-01 1.295831e-01 1.371929e-01 1.451129e-01 1.521094e-01 1.590040e-01 1.645513e-01 1.695360e-01 1.727126e-01 1.748715e-01 1.747669e-01 1.732644e-01 1.690984e-01 1.633043e-01 1.545496e-01 1.441510e-01 1.306265e-01 1.156944e-01 9.760131e-02 7.859052e-02 5.647663e-02 3.416128e-02 8.831380e-03 -1.579246e-02 -4.337213e-02 -6.916576e-02 -9.791432e-02 -1.236169e-01 -1.523054e-01 -1.764937e-01 -2.036515e-01 -2.246965e-01 -2.485392e-01 -2.646637e-01 -2.831628e-01 -2.926839e-01 -3.038469e-01 -3.055575e-01 -3.078474e-01 -3.013286e-01 -2.940295e-01 -2.797124e-01 -2.631505e-01 -2.422899e-01 -2.181331e-01 -1.932162e-01 -1.650804e-01 -1.406303e-01 -1.140019e-01 -9.574311e-02 -7.513934e-02 -6.542123e-02 -5.055395e-02 -4.440187e-02 -3.288019e-02 -2.920441e-02 -1.646042e-02 -1.341727e-02 1.160091e-03 5.447466e-03 2.042639e-02 2.615718e-02 3.834723e-02 4.211367e-02 4.696687e-02 4.697284e-02 4.579957e-02 4.347736e-02 3.920552e-02 3.618626e-02 3.096972e-02 2.820481e-02 2.323390e-02 2.113926e-02 1.697279e-02 1.567415e-02 1.252170e-02 1.200759e-02 9.897555e-03 1.009562e-02 8.964704e-03 9.776262e-03 9.514947e-03 1.082955e-02 1.130477e-02 1.300642e-02 
1.443761e-02 1.670320e-02 1.941305e-02 2.183013e-02 2.493163e-02 2.736955e-02 3.067239e-02 3.301078e-02 3.633557e-02 3.847143e-02 4.165906e-02 4.351404e-02 4.643530e-02 4.796285e-02 5.052752e-02 5.171909e-02 5.388371e-02 5.477347e-02 5.654717e-02 5.721490e-02 5.866260e-02 5.923433e-02 6.047681e-02 6.112268e-02 6.233301e-02 6.326179e-02 6.465734e-02 6.610679e-02 6.793607e-02 7.015816e-02 7.268163e-02 7.592167e-02 7.938590e-02 8.385497e-02 8.846006e-02 9.430087e-02 1.001619e-01 1.074095e-01 1.145140e-01 1.230544e-01 1.312209e-01 1.407523e-01 1.495942e-01 1.595987e-01 1.685036e-01 1.782383e-01 1.863716e-01 1.948893e-01 2.012320e-01 2.074411e-01 2.108706e-01 2.136385e-01 2.130522e-01 2.113483e-01 2.058183e-01 1.988761e-01 1.878078e-01 1.752708e-01 1.585202e-01 1.405270e-01 1.184319e-01 9.560529e-02 6.890929e-02 4.224585e-02 1.194285e-02 -1.734779e-02 -5.016983e-02 -8.079396e-02 -1.150157e-01 -1.456131e-01 -1.799979e-01 -2.090335e-01 -2.420227e-01 -2.676400e-01 -2.971598e-01 -3.171800e-01 -3.406577e-01 -3.528917e-01 -3.676136e-01 -3.704477e-01 -3.741613e-01 -3.670637e-01 -3.585206e-01 -3.420415e-01 -3.213442e-01 -2.967037e-01 -2.658723e-01 -2.351352e-01 -1.993744e-01 -1.670994e-01 -1.347912e-01 -1.089420e-01 -8.579739e-02 -7.274574e-02 -5.678094e-02 -5.074175e-02 -3.854211e-02 -3.559215e-02 -2.197208e-02 -1.948071e-02 -3.390656e-03 1.136597e-03 1.846398e-02 2.568551e-02 4.065986e-02 4.517268e-02 5.002977e-02 4.955205e-02 4.714191e-02 4.414629e-02 3.857006e-02 3.507352e-02 2.883231e-02 2.579556e-02 2.012363e-02 1.790481e-02 1.334436e-02 1.202784e-02 8.770093e-03 8.322019e-03 6.380327e-03 6.715087e-03 6.010486e-03 7.018358e-03 7.421697e-03 8.980254e-03 1.033304e-02 1.231225e-02 
1.815839e-02 2.112932e-02 2.347615e-02 2.663460e-02 2.936773e-02 3.255776e-02 3.547386e-02 3.854876e-02 4.145775e-02 4.428895e-02 4.702423e-02 4.951064e-02 5.193953e-02 5.401647e-02 5.605011e-02 5.769710e-02 5.929888e-02 6.054568e-02 6.173754e-02 6.266804e-02 6.353405e-02 6.428749e-02 6.497421e-02 6.574340e-02 6.645640e-02 6.748213e-02 6.847782e-02 7.003863e-02 7.161048e-02 7.400656e-02 7.646444e-02 7.999433e-02 8.363618e-02 8.856542e-02 9.364047e-02 1.001620e-01 1.068263e-01 1.150138e-01 1.232801e-01 1.330372e-01 1.427234e-01 1.537349e-01 1.644178e-01 1.761107e-01 1.870950e-01 1.986209e-01 2.089346e-01 2.191865e-01 2.276172e-01 2.352942e-01 2.404765e-01 2.442041e-01 2.447636e-01 2.432667e-01 2.380099e-01 2.303164e-01 2.184340e-01 2.040640e-01 1.852940e-01 1.643754e-01 1.390651e-01 1.123290e-01 8.136217e-02 5.001296e-02 1.462911e-02 -1.984932e-02 -5.825449e-02 -9.425892e-02 -1.342391e-01 -1.700835e-01 -2.100814e-01 -2.438867e-01 -2.820212e-01 -3.115479e-01 -3.453849e-01 -3.680264e-01 -3.945866e-01 -4.077488e-01 -4.239550e-01 -4.257941e-01 -4.292436e-01 -4.192878e-01 -4.088745e-01 -3.879416e-01 -3.639601e-01 -3.335390e-01 -2.977986e-01 -2.604724e-01 -2.178720e-01 -1.802284e-01 -1.404300e-01 -1.140414e-01 -8.606764e-02 -7.785058e-02 -5.915076e-02 -5.116391e-02 -3.972348e-02 -3.667540e-02 -2.008096e-02 -1.936000e-02 8.726299e-04 3.793296e-03 2.520685e-02 3.324701e-02 5.217287e-02 5.726556e-02 6.176852e-02 6.057405e-02 5.655670e-02 5.292657e-02 4.586746e-02 4.206959e-02 3.465032e-02 3.154386e-02 2.492761e-02 2.278373e-02 1.744258e-02 1.631007e-02 1.239200e-02 1.222823e-02 9.719552e-03 1.043789e-02 9.239812e-03 1.072814e-02 1.069445e-02 1.282311e-02 1.377918e-02 1.640522e-02 
1.718418e-02 2.047118e-02 2.441556e-02 2.787454e-02 3.232000e-02 3.577907e-02 4.046860e-02 4.376467e-02 4.845144e-02 5.144108e-02 5.590226e-02 5.847289e-02 6.252398e-02 6.460457e-02 6.811290e-02 6.968322e-02 7.257960e-02 7.367736e-02 7.596484e-02 7.669036e-02 7.844945e-02 7.896722e-02 8.035695e-02 8.089381e-02 8.214796e-02 8.298708e-02 8.440481e-02 8.587428e-02 8.780391e-02 9.025863e-02 9.307331e-02 9.686847e-02 1.009325e-01 1.063875e-01 1.120127e-01 1.193647e-01 1.267573e-01 1.361065e-01 1.453066e-01 1.565556e-01 1.673750e-01 1.801693e-01 1.921349e-01 2.058146e-01 2.181287e-01 2.317039e-01 2.432367e-01 2.554041e-01 2.647349e-01 2.739508e-01 2.794735e-01 2.840974e-01 2.841989e-01 2.827064e-01 2.760067e-01 2.672471e-01 2.528614e-01 2.363039e-01 2.140496e-01 1.899351e-01 1.603944e-01 1.297175e-01 9.409515e-02 5.839676e-02 1.821287e-02 -2.073865e-02 -6.397465e-02 -1.044520e-01 -1.493948e-01 -1.897585e-01 -2.350850e-01 -2.735423e-01 -3.175335e-01 -3.517417e-01 -3.917983e-01 -4.186763e-01 -4.511710e-01 -4.673523e-01 -4.881784e-01 -4.911713e-01 -4.968428e-01 -4.861718e-01 -4.747216e-01 -4.518508e-01 -4.229609e-01 -3.896447e-01 -3.449682e-01 -3.022197e-01 -2.488209e-01 -2.007971e-01 -1.549680e-01 -1.154222e-01 -8.722867e-02 -7.529651e-02 -5.688334e-02 -5.249449e-02 -4.133934e-02 -4.065373e-02 -2.451923e-02 -2.616903e-02 -5.726960e-03 -4.441186e-03 1.822343e-02 2.798025e-02 5.158712e-02 5.702250e-02 5.957700e-02 5.730719e-02 5.105126e-02 4.701616e-02 3.856858e-02 3.484985e-02 2.666183e-02 2.380253e-02 1.682251e-02 1.495840e-02 9.564139e-03 8.709214e-03 5.016033e-03 5.128490e-03 3.112291e-03 4.113857e-03 3.669302e-03 5.453759e-03 6.423554e-03 8.861765e-03 1.105184e-02 1.399573e-02 
2.085054e-02 2.500279e-02 2.841149e-02 3.277269e-02 3.664975e-02 4.102098e-02 4.510165e-02 4.928976e-02 5.332102e-02 5.715194e-02 6.090728e-02 6.423977e-02 6.753437e-02 7.027300e-02 7.297805e-02 7.508449e-02 7.713941e-02 7.864126e-02 8.006299e-02 8.105958e-02 8.194823e-02 8.261319e-02 8.315367e-02 8.373376e-02 8.419257e-02 8.500210e-02 8.571855e-02 8.712820e-02 8.849854e-02 9.091677e-02 9.336963e-02 9.721473e-02 1.011760e-01 1.068370e-01 1.126830e-01 1.204681e-01 1.284667e-01 1.385406e-01 1.487826e-01 1.610951e-01 1.734201e-01 1.876333e-01 2.015589e-01 2.169831e-01 2.316498e-01 2.472038e-01 2.613520e-01 2.755682e-01 2.875692e-01 2.986654e-01 3.066281e-01 3.126663e-01 3.146352e-01 3.137719e-01 3.080113e-01 2.988151e-01 2.841371e-01 2.659025e-01 2.419474e-01 2.148971e-01 1.822491e-01 1.475231e-01 1.075750e-01 6.698517e-02 2.158804e-02 -2.275588e-02 -7.168918e-02 -1.176947e-01 -1.684185e-01 -2.140882e-01 -2.649395e-01 -3.081324e-01 -3.571071e-01 -3.950877e-01 -4.392598e-01 -4.684433e-01 -5.037237e-01 -5.201960e-01 -5.419852e-01 -5.429505e-01 -5.476091e-01 -5.328065e-01 -5.188892e-01 -4.903418e-01 -4.583694e-01 -4.180148e-01 -3.692571e-01 -3.177976e-01 -2.572007e-01 -2.015763e-01 -1.457850e-01 -1.079629e-01 -7.424261e-02 -8.143498e-02 -5.807537e-02 -4.111519e-02 -3.907769e-02 -3.810330e-02 -1.628718e-02 -2.349226e-02 2.529770e-03 -2.403526e-03 2.316327e-02 3.278971e-02 6.179860e-02 6.768427e-02 6.692941e-02 6.397748e-02 5.538560e-02 5.157241e-02 4.185413e-02 3.866673e-02 2.965944e-02 2.734591e-02 1.972728e-02 1.837421e-02 1.242150e-02 1.206830e-02 7.856414e-03 8.497265e-03 5.982937e-03 7.568131e-03 6.634680e-03 9.075103e-03 9.556605e-03 1.272865e-02 1.442299e-02 1.817352e-02 
1.835452e-02 2.285153e-02 2.829469e-02 3.297146e-02 3.901841e-02 4.366071e-02 4.998269e-02 5.438005e-02 6.065404e-02 6.461551e-02 7.054379e-02 7.391407e-02 7.924456e-02 8.191921e-02 8.646470e-02 8.840326e-02 9.205785e-02 9.329406e-02 9.604576e-02 9.669432e-02 9.863292e-02 9.889261e-02 1.002123e-01 1.003652e-01 1.013615e-01 1.017672e-01 1.028272e-01 1.039113e-01 1.054956e-01 1.077297e-01 1.103444e-01 1.142157e-01 1.183719e-01 1.243393e-01 1.304988e-01 1.389349e-01 1.474418e-01 1.585601e-01 1.695597e-01 1.833320e-01 1.966829e-01 2.127518e-01 2.279401e-01 2.455407e-01 2.616113e-01 2.795191e-01 2.950429e-01 3.115708e-01 3.246752e-01 3.377492e-01 3.462407e-01 3.535817e-01 3.551844e-01 3.546087e-01 3.473223e-01 3.371396e-01 3.196650e-01 2.990906e-01 2.712028e-01 2.406376e-01 2.033238e-01 1.643417e-01 1.195582e-01 7.453236e-02 2.461446e-02 -2.389440e-02 -7.688940e-02 -1.266869e-01 -1.813271e-01 -2.307213e-01 -2.859996e-01 -3.333347e-01 -3.878905e-01 -4.306232e-01 -4.816565e-01 -5.156252e-01 -5.582701e-01 -5.782012e-01 -6.063019e-01 -6.080801e-01 -6.163060e-01 -5.997297e-01 -5.853120e-01 -5.544775e-01 -5.166959e-01 -4.757944e-01 -4.140554e-01 -3.612146e-01 -2.823217e-01 -2.149854e-01 -1.560091e-01 -9.041709e-02 -6.162850e-02 -6.018573e-02 -3.882080e-02 -3.788865e-02 -3.295878e-02 -3.505689e-02 -1.632677e-02 -2.827418e-02 -4.108597e-03 -1.463693e-02 7.423512e-03 1.710396e-02 5.455656e-02 5.926693e-02 5.219916e-02 4.927693e-02 3.874545e-02 3.633786e-02 2.607972e-02 2.419673e-02 1.506659e-02 1.374235e-02 6.236100e-03 5.625050e-03 5.735045e-06 2.322292e-04 -3.409779e-03 -2.288416e-03 -3.978537e-03 -1.969637e-03 -1.812514e-03 1.021090e-03 2.861190e-03 6.409539e-03 9.718895e-03 1.383233e-02 
2.192505e-02 2.745967e-02 3.219392e-02 3.795202e-02 4.322997e-02 4.896682e-02 5.445697e-02 5.992641e-02 6.530369e-02 7.027699e-02 7.524335e-02 7.952859e-02 8.383424e-02 8.729445e-02 9.075787e-02 9.332664e-02 9.585163e-02 9.754527e-02 9.913392e-02 1.000597e-01 1.008208e-01 1.011812e-01 1.013335e-01 1.014263e-01 1.012968e-01 1.015106e-01 1.015258e-01 1.023297e-01 1.029997e-01 1.049236e-01 1.068153e-01 1.104198e-01 1.141166e-01 1.199476e-01 1.259936e-01 1.345198e-01 1.433463e-01 1.548790e-01 1.667151e-01 1.813127e-01 1.960841e-01 2.134484e-01 2.306734e-01 2.500490e-01 2.687467e-01 2.888448e-01 3.074769e-01 3.264488e-01 3.429275e-01 3.584268e-01 3.702249e-01 3.795976e-01 3.840016e-01 3.846326e-01 3.791532e-01 3.689519e-01 3.518478e-01 3.297732e-01 3.005454e-01 2.669742e-01 2.265983e-01 1.833174e-01 1.340131e-01 8.376411e-02 2.833058e-02 -2.589359e-02 -8.484080e-02 -1.403981e-01 -2.008864e-01 -2.556666e-01 -3.162944e-01 -3.682931e-01 -4.274998e-01 -4.738046e-01 -5.285918e-01 -5.644417e-01 -6.094205e-01 -6.287129e-01 -6.569009e-01 -6.550073e-01 -6.606384e-01 -6.378162e-01 -6.191361e-01 -5.806894e-01 -5.397056e-01 -4.901183e-01 -4.270570e-01 -3.616337e-01 -2.776613e-01 -1.971025e-01 -1.265907e-01 -6.642769e-02 -2.982685e-02 -8.947314e-02 -5.404647e-02 7.714197e-03 -1.866076e-02 -3.190558e-02 8.517605e-03 -1.624017e-02 1.561278e-02 -8.146413e-03 1.303158e-02 1.342637e-02 4.752704e-02 5.513103e-02 4.407879e-02 4.538524e-02 3.471484e-02 3.512835e-02 2.480134e-02 2.466323e-02 1.533034e-02 1.517720e-02 7.397310e-03 7.672631e-03 1.728767e-03 2.716019e-03 -1.302061e-03 5.485300e-04 -1.571951e-03 1.192712e-03 8.642223e-04 4.514414e-03 5.813818e-03 1.025569e-02 1.296936e-02 1.805427e-02 
1.774330e-02 2.364969e-02 3.089687e-02 3.698910e-02 4.494733e-02 5.096426e-02 5.922425e-02 6.489962e-02 7.304875e-02 7.813306e-02 8.578240e-02 9.006525e-02 9.687768e-02 1.002087e-01 1.059255e-01 1.082324e-01 1.126958e-01 1.139978e-01 1.171684e-01 1.175862e-01 1.195539e-01 1.193140e-01 1.203030e-01 1.197389e-01 1.201060e-01 1.196539e-01 1.198793e-01 1.200684e-01 1.207378e-01 1.221703e-01 1.239450e-01 1.272644e-01 1.308364e-01 1.366782e-01 1.427062e-01 1.516288e-01 1.606542e-01 1.730479e-01 1.853908e-01 2.013680e-01 2.170087e-01 2.362820e-01 2.547361e-01 2.764975e-01 2.967034e-01 3.195258e-01 3.397673e-01 3.615606e-01 3.794619e-01 3.975269e-01 4.101695e-01 4.214042e-01 4.256227e-01 4.269261e-01 4.198184e-01 4.086932e-01 3.883101e-01 3.635576e-01 3.295880e-01 2.918432e-01 2.459451e-01 1.977162e-01 1.431319e-01 8.815183e-02 2.858926e-02 -2.933077e-02 -9.099184e-02 -1.490860e-01 -2.115080e-01 -2.684239e-01 -3.315762e-01 -3.865863e-01 -4.504533e-01 -5.015375e-01 -5.638939e-01 -6.056668e-01 -6.602201e-01 -6.840206e-01 -7.213208e-01 -7.194395e-01 -7.310566e-01 -7.031392e-01 -6.853977e-01 -6.413332e-01 -5.942052e-01 -5.472327e-01 -4.638148e-01 -4.108023e-01 -2.837393e-01 -2.007521e-01 -1.508039e-01 -4.512554e-02 -2.170653e-02 1.749571e-02 5.115838e-03 -3.228487e-02 2.593853e-02 -1.050434e-02 1.465047e-02 -7.879926e-03 9.717153e-03 -1.378904e-02 6.431881e-03 -1.761377e-02 -9.435045e-03 7.350820e-03 2.878035e-03 1.398266e-02 6.179829e-03 1.111524e-02 1.644669e-03 3.878123e-03 -5.021334e-03 -3.700612e-03 -1.101095e-02 -9.711005e-03 -1.501943e-02 -1.326480e-02 -1.642515e-02 -1.396297e-02 -1.496458e-02 -1.168300e-02 -1.060376e-02 -6.493355e-03 -3.483777e-03 1.383351e-03 6.105514e-03 1.158971e-02 
2.123319e-02 2.835576e-02 3.470771e-02 4.207596e-02 4.905315e-02 5.636956e-02 6.356469e-02 7.051914e-02 7.752135e-02 8.381688e-02 9.023981e-02 9.561894e-02 1.011299e-01 1.053994e-01 1.097468e-01 1.127984e-01 1.158346e-01 1.176613e-01 1.193605e-01 1.200674e-01 1.205366e-01 1.203467e-01 1.198317e-01 1.190885e-01 1.179735e-01 1.171380e-01 1.159393e-01 1.155823e-01 1.149334e-01 1.157184e-01 1.163442e-01 1.189973e-01 1.216711e-01 1.269326e-01 1.324134e-01 1.409659e-01 1.499115e-01 1.622826e-01 1.751378e-01 1.915773e-01 2.084408e-01 2.287788e-01 2.492573e-01 2.727552e-01 2.958195e-01 3.210347e-01 3.449044e-01 3.696049e-01 3.917000e-01 4.128828e-01 4.299056e-01 4.439930e-01 4.522186e-01 4.555103e-01 4.513544e-01 4.407607e-01 4.216116e-01 3.955451e-01 3.606563e-01 3.197349e-01 2.707297e-01 2.178082e-01 1.583073e-01 9.762606e-02 3.198080e-02 -3.213825e-02 -1.002740e-01 -1.645197e-01 -2.329963e-01 -2.954551e-01 -3.636598e-01 -4.232214e-01 -4.910732e-01 -5.454479e-01 -6.108997e-01 -6.540306e-01 -7.103438e-01 -7.322230e-01 -7.685073e-01 -7.604880e-01 -7.668412e-01 -7.294558e-01 -7.028504e-01 -6.481873e-01 -5.949320e-01 -5.369309e-01 -4.564163e-01 -3.820006e-01 -2.590271e-01 -1.356303e-01 -7.319959e-02 -5.205075e-02 -5.147680e-02 -1.987766e-02 7.556016e-02 1.910663e-02 8.408516e-03 8.294379e-04 9.257445e-03 -1.202151e-02 1.028532e-02 -8.511224e-03 1.771988e-02 -1.972221e-02 -1.436208e-02 -4.089606e-03 -3.643542e-03 9.661994e-03 2.138205e-03 9.230574e-03 -4.630986e-04 3.364572e-03 -5.688609e-03 -3.172590e-03 -1.061599e-02 -8.353342e-03 -1.385175e-02 -1.124501e-02 -1.469213e-02 -1.140182e-02 -1.280055e-02 -8.654831e-03 -8.083472e-03 -3.034386e-03 -6.384666e-04 5.261841e-03 9.271014e-03 1.588599e-02 
1.520161e-02 2.271301e-02 3.209981e-02 3.981866e-02 5.004678e-02 5.765596e-02 6.822195e-02 7.538629e-02 8.576855e-02 9.216408e-02 1.018595e-01 1.072036e-01 1.157659e-01 1.198456e-01 1.269216e-01 1.296172e-01 1.349773e-01 1.362805e-01 1.398414e-01 1.398671e-01 1.417068e-01 1.407002e-01 1.410649e-01 1.394040e-01 1.387085e-01 1.369032e-01 1.357238e-01 1.344088e-01 1.334675e-01 1.333872e-01 1.335228e-01 1.355010e-01 1.376227e-01 1.425116e-01 1.475283e-01 1.561308e-01 1.648526e-01 1.778133e-01 1.908230e-01 2.084885e-01 2.259875e-01 2.482423e-01 2.698777e-01 2.959672e-01 3.206584e-01 3.490221e-01 3.748122e-01 4.029640e-01 4.269405e-01 4.514585e-01 4.698178e-01 4.865350e-01 4.948997e-01 4.994075e-01 4.935146e-01 4.820518e-01 4.588499e-01 4.294799e-01 3.884107e-01 3.420729e-01 2.858834e-01 2.266139e-01 1.608108e-01 9.463950e-02 2.534540e-02 -4.179648e-02 -1.103750e-01 -1.749005e-01 -2.417451e-01 -3.032656e-01 -3.702974e-01 -4.304955e-01 -5.007999e-01 -5.598792e-01 -6.335626e-01 -6.851784e-01 -7.545322e-01 -7.839301e-01 -8.339568e-01 -8.254206e-01 -8.423208e-01 -7.926250e-01 -7.710939e-01 -6.984974e-01 -6.435266e-01 -5.837889e-01 -4.741348e-01 -4.435942e-01 -1.838823e-01 -6.615200e-02 -7.121784e-02 3.262843e-02 1.117057e-01 5.676896e-02 -1.098232e-01 -6.733084e-02 -2.126159e-02 -6.981170e-02 -1.386692e-02 -3.998822e-02 -4.079018e-03 -2.650747e-02 -3.327548e-03 -2.557472e-02 -7.988397e-04 -4.748674e-03 -1.706861e-02 -9.067388e-03 -2.167372e-02 -1.449364e-02 -2.550803e-02 -2.049759e-02 -2.958446e-02 -2.590617e-02 -3.288246e-02 -2.966473e-02 -3.439838e-02 -3.102523e-02 -3.343290e-02 -2.951436e-02 -2.957076e-02 -2.488925e-02 -2.263800e-02 -1.711128e-02 -1.267486e-02 -6.332978e-03 7.975905e-05 7.110482e-03 
1.866976e-02 2.757788e-02 3.585711e-02 4.506099e-02 5.407296e-02 6.321059e-02 7.245853e-02 8.113978e-02 9.010752e-02 9.794810e-02 1.061378e-01 1.127946e-01 1.197665e-01 1.249704e-01 1.303795e-01 1.339630e-01 1.375901e-01 1.395080e-01 1.412820e-01 1.416242e-01 1.416372e-01 1.406366e-01 1.391513e-01 1.371878e-01 1.346393e-01 1.322400e-01 1.292330e-01 1.270692e-01 1.243667e-01 1.232427e-01 1.217443e-01 1.225720e-01 1.232728e-01 1.270248e-01 1.309496e-01 1.385817e-01 1.466867e-01 1.590250e-01 1.720639e-01 1.896540e-01 2.080104e-01 2.309310e-01 2.544220e-01 2.820747e-01 3.097409e-01 3.406326e-01 3.705354e-01 4.020930e-01 4.311660e-01 4.596513e-01 4.836888e-01 5.043375e-01 5.182621e-01 5.258183e-01 5.244102e-01 5.142026e-01 4.933978e-01 4.628780e-01 4.214134e-01 3.715620e-01 3.121271e-01 2.476367e-01 1.763100e-01 1.039049e-01 2.762927e-02 -4.634890e-02 -1.224208e-01 -1.938244e-01 -2.673641e-01 -3.348648e-01 -4.065923e-01 -4.712637e-01 -5.442550e-01 -6.062498e-01 -6.817056e-01 -7.340695e-01 -8.044607e-01 -8.300711e-01 -8.783334e-01 -8.599521e-01 -8.689179e-01 -8.060526e-01 -7.669025e-01 -6.814469e-01 -6.097544e-01 -5.386967e-01 -4.219027e-01 -3.365903e-01 -1.946563e-01 -1.015473e-01 7.275633e-03 8.537732e-02 -1.413492e-01 -1.957754e-01 3.823608e-02 1.706686e-03 2.462841e-02 3.681858e-03 1.751481e-02 -8.809575e-03 2.151020e-02 -1.072979e-02 1.922460e-02 -3.449246e-03 1.359109e-02 2.533114e-02 -9.373014e-03 -8.115967e-04 -2.027434e-02 -1.275133e-02 -2.564614e-02 -1.994429e-02 -2.948326e-02 -2.503261e-02 -3.212883e-02 -2.814738e-02 -3.301362e-02 -2.887444e-02 -3.153809e-02 -2.681069e-02 -2.727871e-02 -2.170408e-02 -2.002358e-02 -1.348784e-02 -9.773713e-03 -2.289411e-03 3.261015e-03 1.156895e-02 
1.059477e-02 1.989229e-02 3.177611e-02 4.134041e-02 5.424498e-02 6.368935e-02 7.699778e-02 8.589968e-02 9.895455e-02 1.068938e-01 1.190464e-01 1.256454e-01 1.363078e-01 1.412690e-01 1.499634e-01 1.531006e-01 1.594996e-01 1.607603e-01 1.647163e-01 1.641961e-01 1.657596e-01 1.637101e-01 1.631386e-01 1.599717e-01 1.577317e-01 1.540222e-01 1.507851e-01 1.472700e-01 1.439007e-01 1.414716e-01 1.390053e-01 1.386858e-01 1.382841e-01 1.411824e-01 1.440609e-01 1.512877e-01 1.586056e-01 1.711498e-01 1.838574e-01 2.024156e-01 2.210612e-01 2.458251e-01 2.703267e-01 3.007377e-01 3.301337e-01 3.646236e-01 3.968233e-01 4.325751e-01 4.641511e-01 4.969539e-01 5.230689e-01 5.474040e-01 5.620501e-01 5.716352e-01 5.684611e-01 5.574985e-01 5.314878e-01 4.966522e-01 4.465257e-01 3.890685e-01 3.192828e-01 2.457592e-01 1.659225e-01 8.626937e-02 6.850755e-03 -6.926389e-02 -1.420180e-01 -2.097156e-01 -2.754708e-01 -3.362223e-01 -3.999916e-01 -4.603978e-01 -5.311740e-01 -5.973410e-01 -6.813783e-01 -7.477216e-01 -8.365629e-01 -8.775941e-01 -9.464035e-01 -9.300918e-01 -9.574741e-01 -8.720675e-01 -8.482695e-01 -7.156744e-01 -6.704093e-01 -5.617191e-01 -4.498348e-01 -3.537081e-01 -7.846902e-02 8.150005e-02 1.030012e-01 -1.346333e-01 -1.646946e-01 -5.043444e-02 3.773272e-02 -2.164372e-02 -9.512993e-03 -3.580487e-02 9.862678e-03 -2.339269e-02 1.036605e-02 -2.067022e-02 1.348602e-02 -2.004798e-02 -4.649397e-02 -5.186297e-03 -4.462475e-02 -2.860029e-02 -4.980014e-02 -4.018871e-02 -5.361064e-02 -4.681620e-02 -5.622478e-02 -5.091136e-02 -5.749667e-02 -5.277980e-02 -5.683674e-02 -5.207035e-02 -5.361288e-02 -4.834594e-02 -4.733330e-02 -4.128184e-02 -3.771091e-02 -3.073731e-02 -2.468742e-02 -1.678638e-02 -8.444398e-03 2.678271e-04 