# vtk DataFile Version 2.0
Comment goes here
ASCII

DATASET STRUCTURED_POINTS
DIMENSIONS    128   128   1

ORIGIN    0.000   0.000   0.000
SPACING   0.0156250.015625   1.000

POINT_DATA   16384
SCALARS uY double
LOOKUP_TABLE default

2.031038e-05 1.788639e-05 2.055044e-05 1.790258e-05 2.065926e-05 1.779432e-05 2.061884e-05 1.754948e-05 2.041537e-05 1.716100e-05 2.004137e-05 1.662918e-05 1.949801e-05 1.596390e-05 1.879739e-05 1.518672e-05 1.796448e-05 1.433226e-05 1.703817e-05 1.344869e-05 1.607138e-05 1.259704e-05 1.512974e-05 1.184895e-05 1.428871e-05 1.128289e-05 1.362903e-05 1.097868e-05 1.323043e-05 1.101037e-05 1.316387e-05 1.143789e-05 1.348244e-05 1.229751e-05 1.421132e-05 1.359168e-05 1.533729e-05 1.527874e-05 1.679813e-05 1.726285e-05 1.847278e-05 1.938501e-05 2.017280e-05 2.141607e-05 2.163663e-05 2.305310e-05 2.252821e-05 2.392131e-05 2.244256e-05 2.358400e-05 2.092119e-05 2.156399e-05 1.748078e-05 1.737940e-05 1.165777e-05 1.059632e-05 3.070230e-06 8.982161e-07 -8.504730e-06 -1.183116e-05 -2.304404e-05 -2.741988e-05 -4.019351e-05 -4.532885e-05 -5.920109e-05 -6.460111e-05 -7.888931e-05 -8.386136e-05 -9.768824e-05 -1.013868e-04 -1.137471e-04 -1.152641e-04 -1.251346e-04 -1.236365e-04 -1.301277e-04 -1.250311e-04 -1.275640e-04 -1.187220e-04 -1.171988e-04 -1.050449e-04 -9.995178e-05 -8.552973e-05 -7.790964e-05 -6.273276e-05 -5.399423e-05 -3.974404e-05 -3.134624e-05 -1.949975e-05 -1.260919e-05 -4.109463e-06 6.761846e-07 5.635732e-06 8.413705e-06 1.041767e-05 1.185194e-05 1.198140e-05 1.295266e-05 1.231934e-05 1.350643e-05 1.286054e-05 1.449018e-05 1.406062e-05 1.592167e-05 1.550216e-05 1.719613e-05 1.646803e-05 1.777965e-05 1.670186e-05 1.773597e-05 1.647351e-05 1.745610e-05 1.616528e-05 1.726885e-05 1.600672e-05 1.731105e-05 1.605424e-05 1.757655e-05 1.626763e-05 1.799837e-05 1.657837e-05 1.850171e-05 1.692395e-05 1.902499e-05 1.725728e-05 1.952242e-05 1.754470e-05 1.995993e-05 1.776118e-05 
4.758542e-03 4.296211e-03 3.600383e-03 3.143005e-03 2.426816e-03 1.982855e-03 1.257225e-03 8.354515e-04 1.129230e-04 -2.775105e-04 -9.828876e-04 -1.332566e-03 -2.005574e-03 -2.305028e-03 -2.929716e-03 -3.169618e-03 -3.729730e-03 -3.901025e-03 -4.380356e-03 -4.474288e-03 -4.856948e-03 -4.865015e-03 -5.135631e-03 -5.049543e-03 -5.193493e-03 -5.005244e-03 -5.009025e-03 -4.711216e-03 -4.563099e-03 -4.149646e-03 -3.840726e-03 -3.308064e-03 -2.833798e-03 -2.182621e-03 -1.544878e-03 -7.823887e-04 8.081961e-06 8.655856e-04 1.786478e-03 2.710958e-03 3.725887e-03 4.675346e-03 5.732019e-03 6.649322e-03 7.679075e-03 8.492557e-03 9.412028e-03 1.003864e-02 1.075428e-02 1.110585e-02 1.152165e-02 1.151433e-02 1.154258e-02 1.110877e-02 1.068271e-02 9.783710e-03 8.870074e-03 7.506980e-03 6.115622e-03 4.335646e-03 2.523988e-03 4.204524e-04 -1.708367e-03 -4.002177e-03 -6.306448e-03 -8.627301e-03 -1.093660e-02 -1.310213e-02 -1.522749e-02 -1.704614e-02 -1.879035e-02 -2.007231e-02 -2.124377e-02 -2.181836e-02 -2.225460e-02 -2.200061e-02 -2.160576e-02 -2.049594e-02 -1.928707e-02 -1.743406e-02 -1.557510e-02 -1.325043e-02 -1.104243e-02 -8.638687e-03 -6.449862e-03 -4.384426e-03 -2.547237e-03 -1.148553e-03 1.202891e-04 6.983362e-04 1.341637e-03 1.177818e-03 1.341831e-03 7.577021e-04 7.662732e-04 1.837933e-04 3.780780e-04 1.322637e-04 7.407821e-04 9.985308e-04 2.054728e-03 2.802479e-03 4.154172e-03 5.168953e-03 6.510952e-03 7.424525e-03 8.466016e-03 9.096528e-03 9.767621e-03 1.012395e-02 1.047944e-02 1.062258e-02 1.073233e-02 1.071150e-02 1.062914e-02 1.047872e-02 1.024462e-02 9.992520e-03 9.639016e-03 9.310040e-03 8.863030e-03 8.478703e-03 7.958073e-03 7.536007e-03 6.956495e-03 6.510570e-03 5.883260e-03 5.424496e-03 
9.186668e-03 8.234004e-03 6.984661e-03 6.039059e-03 4.756259e-03 3.835292e-03 2.537879e-03 1.659844e-03 3.696882e-04 -4.462979e-04 -1.704402e-03 -2.438692e-03 -3.637554e-03 -4.270440e-03 -5.381198e-03 -5.893353e-03 -6.886198e-03 -7.258960e-03 -8.103738e-03 -8.319179e-03 -8.985841e-03 -9.026680e-03 -9.485642e-03 -9.335146e-03 -9.557740e-03 -9.199847e-03 -9.159094e-03 -8.579031e-03 -8.250994e-03 -7.436669e-03 -6.802641e-03 -5.747015e-03 -4.796705e-03 -3.501258e-03 -2.236995e-03 -7.161981e-04 8.420098e-04 2.555523e-03 4.364518e-03 6.214681e-03 8.203004e-03 1.010587e-02 1.217001e-02 1.401139e-02 1.601478e-02 1.765141e-02 1.942782e-02 2.069360e-02 2.205620e-02 2.277473e-02 2.353182e-02 2.353530e-02 2.351224e-02 2.266551e-02 2.173058e-02 1.995671e-02 1.804660e-02 1.534889e-02 1.248796e-02 8.962475e-03 5.270747e-03 1.105591e-03 -3.207056e-03 -7.745510e-03 -1.239619e-02 -1.698506e-02 -2.163946e-02 -2.592191e-02 -3.021409e-02 -3.381822e-02 -3.736725e-02 -3.992473e-02 -4.235569e-02 -4.353217e-02 -4.451605e-02 -4.406887e-02 -4.339424e-02 -4.126210e-02 -3.893244e-02 -3.533111e-02 -3.164688e-02 -2.710875e-02 -2.266621e-02 -1.795789e-02 -1.351980e-02 -9.438931e-03 -5.718821e-03 -2.876703e-03 -3.487399e-04 9.540734e-04 2.172585e-03 2.033000e-03 2.263832e-03 1.254130e-03 1.150745e-03 6.276921e-05 3.304271e-04 -1.424713e-04 9.370515e-04 1.450532e-03 3.426492e-03 4.938269e-03 7.542729e-03 9.614801e-03 1.224112e-02 1.407545e-02 1.610451e-02 1.734822e-02 1.865336e-02 1.935208e-02 2.005272e-02 2.033417e-02 2.056639e-02 2.052353e-02 2.038912e-02 2.008585e-02 1.966320e-02 1.915325e-02 1.850682e-02 1.783933e-02 1.702131e-02 1.623928e-02 1.528950e-02 1.442816e-02 1.337558e-02 1.246271e-02 1.132837e-02 1.038617e-02 
1.422037e-02 1.283823e-02 1.074315e-02 9.374207e-03 7.214584e-03 5.884423e-03 3.693340e-03 2.428624e-03 2.442772e-04 -9.271195e-04 -3.061898e-03 -4.111328e-03 -6.150186e-03 -7.048933e-03 -8.943395e-03 -9.663329e-03 -1.136414e-02 -1.187811e-02 -1.333633e-02 -1.361824e-02 -1.478597e-02 -1.481056e-02 -1.564155e-02 -1.538416e-02 -1.583434e-02 -1.527103e-02 -1.529952e-02 -1.440788e-02 -1.397883e-02 -1.274002e-02 -1.182569e-02 -1.022797e-02 -8.813255e-03 -6.857199e-03 -4.945870e-03 -2.651195e-03 -2.733631e-04 2.313114e-03 5.092708e-03 7.888854e-03 1.096293e-02 1.384421e-02 1.705700e-02 1.985239e-02 2.299770e-02 2.549103e-02 2.831675e-02 3.025565e-02 3.247694e-02 3.359152e-02 3.491411e-02 3.494581e-02 3.509898e-02 3.383747e-02 3.261348e-02 2.993653e-02 2.722995e-02 2.313785e-02 1.897607e-02 1.361163e-02 8.168540e-03 1.816325e-03 -4.594608e-03 -1.152916e-02 -1.847893e-02 -2.550257e-02 -3.247848e-02 -3.904408e-02 -4.548040e-02 -5.101507e-02 -5.632052e-02 -6.025282e-02 -6.384573e-02 -6.565023e-02 -6.702276e-02 -6.630687e-02 -6.513820e-02 -6.178245e-02 -5.809231e-02 -5.241014e-02 -4.668682e-02 -3.950852e-02 -3.269647e-02 -2.526189e-02 -1.853270e-02 -1.217079e-02 -6.566672e-03 -2.314800e-03 1.500998e-03 3.149438e-03 4.979047e-03 4.253020e-03 4.543414e-03 2.508617e-03 2.330242e-03 3.654637e-04 7.962506e-04 -7.978434e-05 1.677335e-03 2.371690e-03 5.537362e-03 7.806525e-03 1.193906e-02 1.513155e-02 1.925738e-02 2.204998e-02 2.517407e-02 2.704857e-02 2.903722e-02 3.010612e-02 3.117156e-02 3.162790e-02 3.197214e-02 3.194304e-02 3.171187e-02 3.128784e-02 3.059697e-02 2.986002e-02 2.880703e-02 2.783415e-02 2.649835e-02 2.535652e-02 2.379823e-02 2.254150e-02 2.080464e-02 1.947492e-02 1.759209e-02 1.622232e-02 
1.831165e-02 1.640789e-02 1.390450e-02 1.201072e-02 9.434140e-03 7.585942e-03 4.974344e-03 3.209111e-03 6.071465e-04 -1.035933e-03 -3.577534e-03 -5.058230e-03 -7.483912e-03 -8.762047e-03 -1.101304e-02 -1.204949e-02 -1.406538e-02 -1.482267e-02 -1.654261e-02 -1.698502e-02 -1.834858e-02 -1.844183e-02 -1.938957e-02 -1.910041e-02 -1.957459e-02 -1.887082e-02 -1.881668e-02 -1.766814e-02 -1.703644e-02 -1.541756e-02 -1.416873e-02 -1.206318e-02 -1.017367e-02 -7.581313e-03 -5.052053e-03 -1.998017e-03 1.135208e-03 4.589763e-03 8.244881e-03 1.199163e-02 1.602927e-02 1.990298e-02 2.411802e-02 2.789074e-02 3.200923e-02 3.539160e-02 3.907637e-02 4.172921e-02 4.459743e-02 4.615654e-02 4.781131e-02 4.792626e-02 4.800208e-02 4.638671e-02 4.460424e-02 4.109170e-02 3.731283e-02 3.190354e-02 2.617359e-02 1.906275e-02 1.162726e-02 3.202092e-03 -5.507725e-03 -1.470073e-02 -2.410812e-02 -3.341365e-02 -4.284564e-02 -5.154878e-02 -6.027701e-02 -6.763811e-02 -7.490527e-02 -8.018534e-02 -8.523227e-02 -8.773700e-02 -8.986663e-02 -8.905180e-02 -8.777015e-02 -8.343530e-02 -7.867376e-02 -7.120211e-02 -6.353775e-02 -5.403467e-02 -4.473341e-02 -3.486932e-02 -2.560232e-02 -1.711992e-02 -9.437497e-03 -3.620324e-03 1.471833e-03 3.990190e-03 6.215102e-03 5.561686e-03 5.637797e-03 3.129371e-03 2.514494e-03 -1.034682e-04 1.588649e-04 -1.097244e-03 9.124181e-04 1.735629e-03 5.638137e-03 8.682470e-03 1.401862e-02 1.848754e-02 2.395880e-02 2.770916e-02 3.176261e-02 3.419832e-02 3.676786e-02 3.816838e-02 3.958289e-02 4.020637e-02 4.071186e-02 4.069487e-02 4.046409e-02 3.990989e-02 3.909166e-02 3.810663e-02 3.683324e-02 3.552183e-02 3.390168e-02 3.235491e-02 3.046913e-02 2.875973e-02 2.666562e-02 2.484957e-02 2.258779e-02 2.070918e-02 
2.363533e-02 2.133282e-02 1.783143e-02 1.554384e-02 1.192363e-02 9.694376e-03 6.011558e-03 3.886394e-03 2.064587e-04 -1.766559e-03 -5.370000e-03 -7.141547e-03 -1.058898e-02 -1.210991e-02 -1.531856e-02 -1.654118e-02 -1.942743e-02 -2.030626e-02 -2.278755e-02 -2.327931e-02 -2.527528e-02 -2.533834e-02 -2.677154e-02 -2.636519e-02 -2.716164e-02 -2.624586e-02 -2.633635e-02 -2.487275e-02 -2.419548e-02 -2.215033e-02 -2.065571e-02 -1.800565e-02 -1.566381e-02 -1.240451e-02 -9.215665e-03 -5.373479e-03 -1.380862e-03 2.973254e-03 7.668843e-03 1.240463e-02 1.763046e-02 2.254510e-02 2.804496e-02 3.285454e-02 3.828370e-02 4.262335e-02 4.755420e-02 5.099161e-02 5.493438e-02 5.700038e-02 5.944216e-02 5.968026e-02 6.014246e-02 5.817465e-02 5.628376e-02 5.188345e-02 4.744338e-02 4.059997e-02 3.364900e-02 2.460525e-02 1.544057e-02 4.689230e-03 -6.149269e-03 -1.790929e-02 -2.968875e-02 -4.161910e-02 -5.347611e-02 -6.466223e-02 -7.565561e-02 -8.514879e-02 -9.429489e-02 -1.011387e-01 -1.074470e-01 -1.107235e-01 -1.132782e-01 -1.122321e-01 -1.103771e-01 -1.046683e-01 -9.831161e-02 -8.836079e-02 -7.829056e-02 -6.552965e-02 -5.347514e-02 -4.020828e-02 -2.839157e-02 -1.713346e-02 -7.456621e-03 -1.120104e-04 6.321951e-03 8.833451e-03 1.158350e-02 9.561053e-03 9.355882e-03 5.000237e-03 4.056563e-03 1.124931e-04 3.482668e-04 -1.530504e-03 1.202809e-03 2.031404e-03 7.245867e-03 1.100668e-02 1.809677e-02 2.399076e-02 3.123142e-02 3.599233e-02 4.115757e-02 4.419410e-02 4.745116e-02 4.926852e-02 5.109028e-02 5.197393e-02 5.262878e-02 5.270007e-02 5.238131e-02 5.175853e-02 5.065253e-02 4.947755e-02 4.775583e-02 4.616982e-02 4.397158e-02 4.209479e-02 3.952229e-02 3.744808e-02 3.457287e-02 3.237133e-02 2.924502e-02 2.697024e-02 
2.736484e-02 2.450821e-02 2.074677e-02 1.789390e-02 1.400663e-02 1.121222e-02 7.257725e-03 4.580019e-03 6.277008e-04 -1.871930e-03 -5.742993e-03 -8.001654e-03 -1.170509e-02 -1.366044e-02 -1.710545e-02 -1.869747e-02 -2.179143e-02 -2.296351e-02 -2.561390e-02 -2.631278e-02 -2.842827e-02 -2.860328e-02 -3.009426e-02 -2.969619e-02 -3.047524e-02 -2.945569e-02 -2.943900e-02 -2.775124e-02 -2.686170e-02 -2.446401e-02 -2.263711e-02 -1.949938e-02 -1.669246e-02 -1.280660e-02 -9.011735e-03 -4.405767e-03 3.340505e-04 5.578982e-03 1.115156e-02 1.688294e-02 2.308857e-02 2.906576e-02 3.560212e-02 4.148500e-02 4.793967e-02 5.328761e-02 5.914362e-02 6.343047e-02 6.809051e-02 7.074081e-02 7.357480e-02 7.402410e-02 7.444104e-02 7.221793e-02 6.975633e-02 6.457533e-02 5.899719e-02 5.084243e-02 4.220723e-02 3.138115e-02 2.007468e-02 7.191088e-03 -6.104770e-03 -2.018485e-02 -3.457101e-02 -4.883606e-02 -6.328964e-02 -7.666560e-02 -9.010767e-02 -1.015050e-01 -1.128236e-01 -1.211442e-01 -1.291944e-01 -1.333471e-01 -1.369956e-01 -1.360140e-01 -1.343287e-01 -1.276853e-01 -1.203326e-01 -1.084325e-01 -9.617480e-02 -8.076214e-02 -6.569036e-02 -4.967952e-02 -3.473990e-02 -2.120028e-02 -9.069986e-03 -2.472240e-05 7.704693e-03 1.132368e-02 1.409283e-02 1.210389e-02 1.125268e-02 6.284230e-03 4.361024e-03 -6.068737e-04 -7.762537e-04 -3.352879e-03 -6.674118e-04 -8.495693e-05 5.486724e-03 9.848933e-03 1.798283e-02 2.572490e-02 3.456162e-02 4.021643e-02 4.618523e-02 4.967243e-02 5.348831e-02 5.570593e-02 5.796059e-02 5.913184e-02 6.004195e-02 6.021492e-02 5.997416e-02 5.927068e-02 5.810935e-02 5.670946e-02 5.484748e-02 5.293172e-02 5.054420e-02 4.826242e-02 4.547350e-02 4.293906e-02 3.983170e-02 3.712838e-02 3.375917e-02 3.095161e-02 
3.299156e-02 2.976764e-02 2.484808e-02 2.162930e-02 1.651886e-02 1.336783e-02 8.147814e-03 5.131665e-03 -1.020701e-04 -2.912367e-03 -8.051765e-03 -1.058354e-02 -1.551227e-02 -1.769380e-02 -2.229161e-02 -2.405434e-02 -2.820095e-02 -2.948071e-02 -3.305857e-02 -3.379539e-02 -3.669111e-02 -3.682800e-02 -3.893274e-02 -3.841386e-02 -3.962343e-02 -3.839287e-02 -3.860854e-02 -3.661073e-02 -3.574210e-02 -3.292527e-02 -3.089630e-02 -2.721991e-02 -2.397902e-02 -1.942590e-02 -1.496069e-02 -9.553860e-03 -3.909934e-03 2.266676e-03 8.963726e-03 1.574260e-02 2.326466e-02 3.037308e-02 3.837003e-02 4.541423e-02 5.340271e-02 5.986382e-02 6.723084e-02 7.247983e-02 7.850859e-02 8.184737e-02 8.577159e-02 8.650503e-02 8.759423e-02 8.513124e-02 8.280112e-02 7.677221e-02 7.070222e-02 6.106753e-02 5.129603e-02 3.840916e-02 2.537331e-02 9.972294e-03 -5.525804e-03 -2.240269e-02 -3.929077e-02 -5.642916e-02 -7.347748e-02 -8.959528e-02 -1.054989e-01 -1.192983e-01 -1.327062e-01 -1.428693e-01 -1.523804e-01 -1.575626e-01 -1.617679e-01 -1.607035e-01 -1.584066e-01 -1.502724e-01 -1.410054e-01 -1.260816e-01 -1.108141e-01 -9.115024e-02 -7.266247e-02 -5.206872e-02 -3.422028e-02 -1.701650e-02 -2.885706e-03 7.919881e-03 1.708677e-02 2.013422e-02 2.341176e-02 1.860220e-02 1.670088e-02 8.455274e-03 5.982113e-03 -6.246057e-04 -1.242936e-03 -4.490583e-03 -8.816318e-04 -6.573931e-04 6.264642e-03 1.089709e-02 2.080973e-02 3.066245e-02 4.164779e-02 4.816980e-02 5.514761e-02 5.922736e-02 6.384478e-02 6.670504e-02 6.953891e-02 7.118042e-02 7.233845e-02 7.272437e-02 7.242215e-02 7.171596e-02 7.025272e-02 6.870385e-02 6.635787e-02 6.420238e-02 6.118499e-02 5.860861e-02 5.506356e-02 5.220096e-02 4.822221e-02 4.516980e-02 4.082246e-02 3.765325e-02 
3.633913e-02 3.252666e-02 2.750123e-02 2.367157e-02 1.844697e-02 1.467589e-02 9.333284e-03 5.702973e-03 3.399646e-04 -3.062399e-03 -8.334281e-03 -1.141962e-02 -1.647912e-02 -1.916011e-02 -2.388093e-02 -2.607499e-02 -3.032983e-02 -3.196074e-02 -3.562408e-02 -3.662180e-02 -3.957100e-02 -3.986989e-02 -4.198517e-02 -4.152146e-02 -4.268553e-02 -4.139522e-02 -4.149384e-02 -3.931258e-02 -3.823760e-02 -3.510397e-02 -3.276026e-02 -2.862398e-02 -2.494127e-02 -1.977693e-02 -1.472721e-02 -8.553721e-03 -2.173840e-03 4.921200e-03 1.250307e-02 2.033635e-02 2.887306e-02 3.713922e-02 4.623999e-02 5.449134e-02 6.360617e-02 7.124542e-02 7.966641e-02 8.596117e-02 9.284994e-02 9.697804e-02 1.014281e-01 1.025609e-01 1.036995e-01 1.011231e-01 9.824831e-02 9.150887e-02 8.423922e-02 7.328122e-02 6.167998e-02 4.693025e-02 3.155458e-02 1.390922e-02 -4.247135e-03 -2.354227e-02 -4.319823e-02 -6.272734e-02 -8.248750e-02 -1.008204e-01 -1.192871e-01 -1.350389e-01 -1.508160e-01 -1.625961e-01 -1.742053e-01 -1.805227e-01 -1.863361e-01 -1.856316e-01 -1.840279e-01 -1.750838e-01 -1.650595e-01 -1.479250e-01 -1.301357e-01 -1.072012e-01 -8.478064e-02 -6.090200e-02 -3.887208e-02 -1.937819e-02 -2.180623e-03 1.023592e-02 2.063093e-02 2.539401e-02 2.777060e-02 2.281576e-02 1.998841e-02 1.133507e-02 6.979605e-03 -1.309122e-03 -2.063458e-03 -6.347343e-03 -3.138123e-03 -4.001532e-03 2.423511e-03 6.639822e-03 1.664425e-02 2.980418e-02 4.302393e-02 4.972863e-02 5.723371e-02 6.177306e-02 6.722200e-02 7.088830e-02 7.445864e-02 7.668528e-02 7.826303e-02 7.889262e-02 7.875162e-02 7.802226e-02 7.657103e-02 7.482195e-02 7.241753e-02 6.994555e-02 6.684250e-02 6.386788e-02 6.022954e-02 5.690584e-02 5.283261e-02 4.926759e-02 4.482461e-02 4.110019e-02 
4.230850e-02 3.816128e-02 3.180648e-02 2.763702e-02 2.099239e-02 1.688499e-02 1.006034e-02 6.107320e-03 -7.660158e-04 -4.466304e-03 -1.123996e-02 -1.458722e-02 -2.110228e-02 -2.399881e-02 -3.009272e-02 -3.244714e-02 -3.795957e-02 -3.968866e-02 -4.446533e-02 -4.549362e-02 -4.938780e-02 -4.964501e-02 -5.251702e-02 -5.193439e-02 -5.365025e-02 -5.215723e-02 -5.258807e-02 -5.011116e-02 -4.913518e-02 -4.560091e-02 -4.310982e-02 -3.845327e-02 -3.436460e-02 -2.854481e-02 -2.282079e-02 -1.584311e-02 -8.516208e-03 -4.609092e-04 8.335573e-03 1.728067e-02 2.727949e-02 3.678616e-02 4.755530e-02 5.712765e-02 6.804853e-02 7.700966e-02 8.727354e-02 9.477676e-02 1.034108e-01 1.084875e-01 1.144220e-01 1.160771e-01 1.182625e-01 1.156195e-01 1.131887e-01 1.056709e-01 9.812335e-02 8.563104e-02 7.298946e-02 5.600970e-02 3.888665e-02 1.847610e-02 -1.991979e-03 -2.436481e-02 -4.669561e-02 -6.938074e-02 -9.194940e-02 -1.133028e-01 -1.344732e-01 -1.529195e-01 -1.710534e-01 -1.850120e-01 -1.983687e-01 -2.061013e-01 -2.127259e-01 -2.122867e-01 -2.101356e-01 -1.997606e-01 -1.874438e-01 -1.666854e-01 -1.449334e-01 -1.162630e-01 -8.927820e-02 -5.879314e-02 -3.345035e-02 -8.725571e-03 9.838383e-03 2.434796e-02 3.628721e-02 3.956528e-02 4.307320e-02 3.244186e-02 2.647462e-02 1.191865e-02 7.977323e-03 -9.513806e-04 -3.462752e-03 -7.770210e-03 -2.531885e-03 -4.411886e-03 3.374140e-03 5.951392e-03 1.649328e-02 3.289742e-02 4.833529e-02 5.499825e-02 6.357583e-02 6.936463e-02 7.635674e-02 8.142521e-02 8.599779e-02 8.905720e-02 9.100233e-02 9.196687e-02 9.176335e-02 9.107124e-02 8.928932e-02 8.741884e-02 8.449776e-02 8.182050e-02 7.804772e-02 7.482024e-02 7.036931e-02 6.676205e-02 6.173631e-02 5.786534e-02 5.233357e-02 4.828615e-02 
4.526535e-02 4.049215e-02 3.419439e-02 2.936141e-02 2.276103e-02 1.796850e-02 1.117300e-02 6.532030e-03 -3.272118e-04 -4.697921e-03 -1.147054e-02 -1.545028e-02 -2.197393e-02 -2.544606e-02 -3.155379e-02 -3.441070e-02 -3.993712e-02 -4.208264e-02 -4.686769e-02 -4.821656e-02 -5.210642e-02 -5.258091e-02 -5.542667e-02 -5.495158e-02 -5.660694e-02 -5.510480e-02 -5.542461e-02 -5.281323e-02 -5.165526e-02 -4.784996e-02 -4.508183e-02 -4.000434e-02 -3.551740e-02 -2.911270e-02 -2.284394e-02 -1.510549e-02 -7.067147e-03 1.930318e-03 1.161457e-02 2.167703e-02 3.273253e-02 4.350756e-02 5.547068e-02 6.641356e-02 7.860278e-02 8.895719e-02 1.004638e-01 1.092692e-01 1.189813e-01 1.251220e-01 1.317975e-01 1.341084e-01 1.365101e-01 1.339461e-01 1.310389e-01 1.228959e-01 1.140824e-01 1.002243e-01 8.555390e-02 6.656292e-02 4.682374e-02 2.398385e-02 6.014230e-04 -2.431946e-02 -4.956198e-02 -7.464806e-02 -9.993388e-02 -1.234041e-01 -1.470790e-01 -1.673736e-01 -1.879196e-01 -2.035450e-01 -2.193381e-01 -2.285306e-01 -2.374992e-01 -2.379524e-01 -2.374693e-01 -2.266591e-01 -2.142857e-01 -1.910065e-01 -1.664730e-01 -1.333960e-01 -1.009633e-01 -6.616227e-02 -3.463172e-02 -8.236990e-03 1.442825e-02 2.923917e-02 4.200024e-02 4.895180e-02 4.838307e-02 3.635330e-02 3.130320e-02 1.905521e-02 1.067864e-02 -1.564778e-03 -1.359939e-03 -6.633440e-03 -2.527592e-03 -6.835651e-03 -7.637199e-04 -1.877557e-03 4.764282e-03 2.668420e-02 4.494455e-02 4.934478e-02 5.896597e-02 6.688870e-02 7.612014e-02 8.318327e-02 8.903996e-02 9.308485e-02 9.555101e-02 9.684385e-02 9.680964e-02 9.610552e-02 9.437063e-02 9.230931e-02 8.941041e-02 8.643304e-02 8.269163e-02 7.908235e-02 7.467922e-02 7.061943e-02 6.565454e-02 6.126619e-02 5.580127e-02 5.117778e-02 
5.165376e-02 4.657947e-02 3.876575e-02 3.361659e-02 2.537611e-02 2.026230e-02 1.173906e-02 6.784226e-03 -1.847076e-03 -6.510364e-03 -1.505218e-02 -1.928945e-02 -2.753174e-02 -3.121421e-02 -3.894508e-02 -4.195570e-02 -4.897014e-02 -5.120652e-02 -5.731161e-02 -5.868505e-02 -6.370123e-02 -6.413215e-02 -6.789093e-02 -6.730206e-02 -6.964193e-02 -6.795145e-02 -6.871428e-02 -6.583152e-02 -6.486220e-02 -6.068872e-02 -5.784070e-02 -5.227899e-02 -4.742792e-02 -4.039959e-02 -3.346628e-02 -2.494023e-02 -1.592329e-02 -5.953341e-03 5.029966e-03 1.626032e-02 2.892783e-02 4.105772e-02 5.491608e-02 6.736336e-02 8.166961e-02 9.360107e-02 1.073442e-01 1.176743e-01 1.295927e-01 1.370303e-01 1.456860e-01 1.488501e-01 1.527782e-01 1.503970e-01 1.483363e-01 1.395207e-01 1.307000e-01 1.152361e-01 9.963757e-02 7.818680e-02 5.666682e-02 3.074345e-02 4.912028e-03 -2.341045e-02 -5.152523e-02 -8.004810e-02 -1.083700e-01 -1.350969e-01 -1.617179e-01 -1.849360e-01 -2.081015e-01 -2.262064e-01 -2.440658e-01 -2.551459e-01 -2.653145e-01 -2.666798e-01 -2.659322e-01 -2.542059e-01 -2.392188e-01 -2.119745e-01 -1.820064e-01 -1.411819e-01 -1.019577e-01 -5.696925e-02 -2.149844e-02 1.322594e-02 3.432654e-02 5.150834e-02 6.538222e-02 6.911965e-02 7.363309e-02 4.977363e-02 3.368359e-02 1.028912e-02 1.001209e-02 4.276990e-03 -3.294614e-03 -7.882184e-03 3.064984e-03 -2.515861e-03 5.389415e-03 -1.736680e-04 3.945442e-03 2.200650e-02 3.600158e-02 4.244093e-02 5.830449e-02 7.168107e-02 8.458942e-02 9.432941e-02 1.014564e-01 1.064705e-01 1.091579e-01 1.107093e-01 1.104856e-01 1.097702e-01 1.076476e-01 1.054693e-01 1.020348e-01 9.889101e-02 9.446465e-02 9.065683e-02 8.540651e-02 8.112027e-02 7.513549e-02 7.049364e-02 6.383321e-02 5.893054e-02 
5.423053e-02 4.848799e-02 4.090549e-02 3.503026e-02 2.700020e-02 2.112254e-02 1.278496e-02 7.052609e-03 -1.418845e-03 -6.847062e-03 -1.525365e-02 -2.021721e-02 -2.834633e-02 -3.269294e-02 -4.032966e-02 -4.392314e-02 -5.085936e-02 -5.358349e-02 -5.962312e-02 -6.138044e-02 -6.633976e-02 -6.704568e-02 -7.074966e-02 -7.032356e-02 -7.260005e-02 -7.095584e-02 -7.163039e-02 -6.867001e-02 -6.756449e-02 -6.317736e-02 -6.011557e-02 -5.418701e-02 -4.900965e-02 -4.144034e-02 -3.403104e-02 -2.476818e-02 -1.509082e-02 -4.170574e-03 7.683394e-03 2.008460e-02 3.384192e-02 4.735176e-02 6.250161e-02 7.649885e-02 9.224407e-02 1.058191e-01 1.210471e-01 1.329919e-01 1.462842e-01 1.551345e-01 1.648400e-01 1.689965e-01 1.733968e-01 1.713506e-01 1.689350e-01 1.595966e-01 1.494272e-01 1.325026e-01 1.145777e-01 9.085179e-02 6.629482e-02 3.763155e-02 8.526970e-03 -2.252211e-02 -5.365383e-02 -8.448492e-02 -1.153008e-01 -1.437771e-01 -1.724607e-01 -1.970582e-01 -2.222623e-01 -2.417819e-01 -2.621736e-01 -2.750118e-01 -2.884447e-01 -2.916166e-01 -2.942553e-01 -2.830684e-01 -2.697946e-01 -2.398900e-01 -2.075245e-01 -1.601731e-01 -1.131845e-01 -6.128729e-02 -1.535831e-02 1.916018e-02 4.691529e-02 5.808331e-02 7.200791e-02 8.635224e-02 7.248629e-02 3.788370e-02 3.828973e-02 3.623427e-02 1.498119e-02 -8.367244e-04 1.263535e-02 4.547814e-03 8.363391e-03 2.128596e-03 4.240094e-03 -2.105512e-03 1.298603e-03 -6.790840e-03 -5.767325e-03 1.504516e-02 4.363242e-02 6.615106e-02 8.344290e-02 9.606298e-02 1.041746e-01 1.099341e-01 1.127490e-01 1.144128e-01 1.141948e-01 1.133869e-01 1.113172e-01 1.089490e-01 1.056357e-01 1.022246e-01 9.797596e-02 9.382195e-02 8.878870e-02 8.407303e-02 7.832841e-02 7.317235e-02 6.676069e-02 6.126235e-02 
6.116444e-02 5.515471e-02 4.584859e-02 3.967672e-02 2.975551e-02 2.356440e-02 1.321515e-02 7.168866e-03 -3.378696e-03 -9.103111e-03 -1.958927e-02 -2.481347e-02 -3.496467e-02 -3.952128e-02 -4.906634e-02 -5.280867e-02 -6.149170e-02 -6.429834e-02 -7.188595e-02 -7.365907e-02 -7.994093e-02 -8.059862e-02 -8.538213e-02 -8.484663e-02 -8.794820e-02 -8.613335e-02 -8.736957e-02 -8.417119e-02 -8.335400e-02 -7.864713e-02 -7.558667e-02 -6.923298e-02 -6.375129e-02 -5.561931e-02 -4.757689e-02 -3.757603e-02 -2.691187e-02 -1.504007e-02 -1.824198e-03 1.177306e-02 2.727760e-02 4.224097e-02 5.951184e-02 7.520162e-02 9.339514e-02 1.088356e-01 1.267427e-01 1.405955e-01 1.566368e-01 1.672308e-01 1.795228e-01 1.849780e-01 1.915087e-01 1.899944e-01 1.889394e-01 1.790791e-01 1.692436e-01 1.506051e-01 1.318813e-01 1.053630e-01 7.897460e-02 4.680570e-02 1.509887e-02 -1.971034e-02 -5.391140e-02 -8.840997e-02 -1.224758e-01 -1.543276e-01 -1.861582e-01 -2.137249e-01 -2.417136e-01 -2.637929e-01 -2.864559e-01 -3.015459e-01 -3.166213e-01 -3.216407e-01 -3.246688e-01 -3.139425e-01 -2.981350e-01 -2.650185e-01 -2.251740e-01 -1.681359e-01 -1.096520e-01 -4.128173e-02 1.107110e-02 6.167641e-02 7.847217e-02 9.300304e-02 1.031832e-01 1.063145e-01 1.199322e-01 5.792790e-02 8.471493e-03 -1.406110e-03 1.967312e-02 9.206614e-03 1.316276e-03 -4.711423e-03 -3.887728e-03 -8.966511e-03 -2.238310e-03 -5.477391e-03 3.822733e-03 -1.871441e-02 -1.256546e-02 2.192655e-02 5.548080e-02 8.193623e-02 9.922035e-02 1.123088e-01 1.196934e-01 1.253033e-01 1.275561e-01 1.290521e-01 1.284154e-01 1.274873e-01 1.250118e-01 1.225478e-01 1.187402e-01 1.152313e-01 1.103329e-01 1.060605e-01 1.001801e-01 9.531381e-02 8.850075e-02 8.315537e-02 7.544566e-02 6.971754e-02 
6.340060e-02 5.667235e-02 4.778488e-02 4.081024e-02 3.127528e-02 2.422308e-02 1.422260e-02 7.288506e-03 -2.949165e-03 -9.553575e-03 -1.976744e-02 -2.582984e-02 -3.574385e-02 -4.106699e-02 -5.040776e-02 -5.482199e-02 -6.333261e-02 -6.670191e-02 -7.414912e-02 -7.636909e-02 -8.254257e-02 -8.353069e-02 -8.823554e-02 -8.791614e-02 -9.096142e-02 -8.924922e-02 -9.043643e-02 -8.722318e-02 -8.633944e-02 -8.148843e-02 -7.830858e-02 -7.166092e-02 -6.596222e-02 -5.735790e-02 -4.894967e-02 -3.826475e-02 -2.703360e-02 -1.423333e-02 -2.030605e-04 1.459144e-02 3.118839e-02 4.762423e-02 6.626894e-02 8.368335e-02 1.034945e-01 1.208456e-01 1.405192e-01 1.563441e-01 1.741311e-01 1.865612e-01 2.003202e-01 2.071997e-01 2.145769e-01 2.137405e-01 2.125316e-01 2.022790e-01 1.909872e-01 1.707101e-01 1.491898e-01 1.199300e-01 8.980600e-02 5.434689e-02 1.878489e-02 -1.904627e-02 -5.634059e-02 -9.290083e-02 -1.288584e-01 -1.616224e-01 -1.943854e-01 -2.221623e-01 -2.509690e-01 -2.735110e-01 -2.980809e-01 -3.149236e-01 -3.340737e-01 -3.423163e-01 -3.514156e-01 -3.434324e-01 -3.331739e-01 -2.981427e-01 -2.585880e-01 -1.914233e-01 -1.229579e-01 -4.044348e-02 3.151743e-02 7.999170e-02 1.137119e-01 9.951309e-02 1.184690e-01 1.479219e-01 8.205484e-02 1.528138e-02 3.588833e-02 1.200161e-02 -3.722197e-02 -4.290685e-02 -3.262750e-02 -3.989191e-02 -2.075703e-02 -2.219157e-02 -1.034837e-02 -1.428385e-02 -3.182805e-03 -1.245911e-02 1.087197e-02 4.902938e-02 7.399185e-02 9.556552e-02 1.075230e-01 1.183418e-01 1.235704e-01 1.283499e-01 1.298590e-01 1.310599e-01 1.302877e-01 1.292258e-01 1.268988e-01 1.243097e-01 1.207976e-01 1.171039e-01 1.125836e-01 1.080336e-01 1.025782e-01 9.732494e-02 9.096018e-02 8.511227e-02 7.785551e-02 7.151163e-02 
7.107241e-02 6.410900e-02 5.326133e-02 4.600277e-02 3.428447e-02 2.691628e-02 1.457014e-02 7.310017e-03 -5.362496e-03 -1.227819e-02 -2.493656e-02 -3.127142e-02 -4.356082e-02 -4.909789e-02 -6.067379e-02 -6.523104e-02 -7.577847e-02 -7.921619e-02 -8.845978e-02 -9.067787e-02 -9.838118e-02 -9.930675e-02 -1.052620e-01 -1.048303e-01 -1.088424e-01 -1.069753e-01 -1.088446e-01 -1.054330e-01 -1.049430e-01 -9.983710e-02 -9.675228e-02 -8.976618e-02 -8.384386e-02 -7.477643e-02 -6.579610e-02 -5.447068e-02 -4.228157e-02 -2.860428e-02 -1.319050e-02 2.774621e-03 2.121408e-02 3.915708e-02 6.011821e-02 7.938823e-02 1.019692e-01 1.214828e-01 1.443014e-01 1.624726e-01 1.836188e-01 1.983457e-01 2.154115e-01 2.241790e-01 2.344357e-01 2.346175e-01 2.354214e-01 2.248590e-01 2.143249e-01 1.921519e-01 1.699688e-01 1.373942e-01 1.053637e-01 6.580560e-02 2.750628e-02 -1.445169e-02 -5.496011e-02 -9.529250e-02 -1.346933e-01 -1.707839e-01 -2.068866e-01 -2.374103e-01 -2.690119e-01 -2.937084e-01 -3.203553e-01 -3.392109e-01 -3.601496e-01 -3.710179e-01 -3.815469e-01 -3.764315e-01 -3.648121e-01 -3.299407e-01 -2.809908e-01 -2.052554e-01 -1.159869e-01 -8.970004e-03 8.012410e-02 1.659503e-01 1.654469e-01 1.781279e-01 1.835510e-01 6.296365e-02 2.016175e-02 1.955599e-02 -6.739671e-02 -9.855135e-02 -4.191681e-02 -4.333371e-02 -2.358969e-02 -1.712131e-02 -1.925148e-03 -1.051045e-02 4.292666e-03 -6.682537e-03 6.865685e-03 -1.277651e-03 3.621834e-02 9.054667e-02 1.057469e-01 1.222687e-01 1.283191e-01 1.365809e-01 1.396688e-01 1.435516e-01 1.443673e-01 1.453189e-01 1.443011e-01 1.432165e-01 1.406930e-01 1.381439e-01 1.343087e-01 1.306501e-01 1.255912e-01 1.210401e-01 1.147808e-01 1.094743e-01 1.020130e-01 9.605152e-02 8.739610e-02 8.087604e-02 
7.304568e-02 6.530056e-02 5.507366e-02 4.691569e-02 3.577074e-02 2.741920e-02 1.559315e-02 7.307535e-03 -4.899025e-03 -1.283628e-02 -2.508026e-02 -3.238759e-02 -4.431053e-02 -5.073213e-02 -6.198740e-02 -6.731311e-02 -7.758681e-02 -8.166174e-02 -9.068294e-02 -9.340428e-02 -1.009425e-01 -1.022441e-01 -1.080960e-01 -1.079242e-01 -1.118929e-01 -1.101792e-01 -1.120534e-01 -1.086910e-01 -1.082291e-01 -1.030592e-01 -9.998515e-02 -9.279904e-02 -8.681496e-02 -7.737508e-02 -6.819354e-02 -5.627673e-02 -4.367402e-02 -2.913600e-02 -1.302553e-02 4.115184e-03 2.359219e-02 4.305521e-02 6.542644e-02 8.656117e-02 1.109141e-01 1.325913e-01 1.574691e-01 1.779891e-01 2.013144e-01 2.183659e-01 2.374364e-01 2.481707e-01 2.598108e-01 2.611394e-01 2.621294e-01 2.513689e-01 2.392633e-01 2.151643e-01 1.894364e-01 1.533112e-01 1.163190e-01 7.245901e-02 2.923600e-02 -1.632324e-02 -6.004517e-02 -1.020178e-01 -1.421462e-01 -1.775917e-01 -2.124191e-01 -2.408155e-01 -2.705767e-01 -2.934305e-01 -3.197980e-01 -3.394709e-01 -3.643586e-01 -3.802977e-01 -4.002095e-01 -4.021232e-01 -4.027001e-01 -3.690743e-01 -3.286500e-01 -2.382838e-01 -1.430761e-01 -4.674649e-03 1.148243e-01 2.035176e-01 2.518565e-01 1.854731e-01 9.263800e-02 7.071039e-02 7.528134e-03 -1.182164e-01 -1.157900e-01 -6.651170e-02 -2.599222e-02 -2.105326e-02 1.654829e-03 -6.648980e-03 7.060491e-03 -2.900853e-03 6.702928e-03 -4.413898e-03 5.303173e-03 -1.246542e-02 2.006179e-02 8.589636e-02 1.020943e-01 1.211698e-01 1.265990e-01 1.351702e-01 1.378916e-01 1.418998e-01 1.427888e-01 1.439181e-01 1.432504e-01 1.423322e-01 1.403113e-01 1.378506e-01 1.346046e-01 1.309155e-01 1.264979e-01 1.217742e-01 1.161866e-01 1.105531e-01 1.037758e-01 9.732872e-02 8.935242e-02 8.219200e-02 