# vtk DataFile Version 2.0
Comment goes here
ASCII

DATASET STRUCTURED_POINTS
DIMENSIONS    128   128   1

ORIGIN    0.000   0.000   0.000
SPACING   0.0156250.015625   1.000

POINT_DATA   16384
SCALARS uY double
LOOKUP_TABLE default

-1.172496e-05 -1.476636e-05 -1.423628e-05 -1.719290e-05 -1.621790e-05 -1.901796e-05 -1.758401e-05 -2.015901e-05 -1.825671e-05 -2.053997e-05 -1.816342e-05 -2.008942e-05 -1.723545e-05 -1.873997e-05 -1.540795e-05 -1.642920e-05 -1.262152e-05 -1.310229e-05 -8.825727e-06 -8.716489e-06 -3.984193e-06 -3.247030e-06 1.918929e-06 3.305981e-06 8.871953e-06 1.091059e-05 1.682904e-05 1.949693e-05 2.570498e-05 2.895310e-05 3.537219e-05 3.912363e-05 4.566046e-05 4.981075e-05 5.635926e-05 6.077808e-05 6.722171e-05 7.175540e-05 7.796880e-05 8.244306e-05 8.829205e-05 9.251392e-05 9.785277e-05 1.016116e-04 1.062774e-04 1.093446e-04 1.131488e-04 1.152778e-04 1.179971e-04 1.189240e-04 1.202930e-04 1.197415e-04 1.194511e-04 1.171430e-04 1.148482e-04 1.105220e-04 1.058635e-04 9.930314e-05 9.194336e-05 8.301630e-05 7.269230e-05 6.139647e-05 4.798494e-05 3.450145e-05 1.808958e-05 2.833738e-06 -1.621740e-05 -3.256005e-05 -5.357936e-05 -7.005185e-05 -9.207230e-05 -1.075012e-04 -1.293414e-04 -1.424573e-04 -1.628669e-04 -1.724735e-04 -1.903087e-04 -1.954499e-04 -2.098184e-04 -2.098804e-04 -2.202051e-04 -2.149200e-04 -2.209206e-04 -2.103124e-04 -2.119829e-04 -1.963696e-04 -1.940575e-04 -1.741833e-04 -1.687583e-04 -1.459462e-04 -1.388446e-04 -1.148832e-04 -1.077892e-04 -8.444323e-05 -7.873067e-05 -5.726837e-05 -5.365867e-05 -3.488138e-05 -3.336418e-05 -1.766396e-05 -1.772217e-05 -5.141199e-06 -6.129784e-06 3.528181e-06 2.106049e-06 9.153795e-06 7.551881e-06 1.235598e-05 1.067744e-05 1.361252e-05 1.190033e-05 1.331210e-05 1.159711e-05 1.178634e-05 1.010719e-05 9.329418e-06 7.736776e-06 6.207842e-06 4.760869e-06 2.662926e-06 1.423275e-06 -1.089859e-06 -2.063407e-06 -4.861443e-06 -5.516579e-06 -8.488294e-06 -8.780977e-06 -1.183008e-05 
3.222793e-03 3.716612e-03 3.848320e-03 4.360757e-03 4.525133e-03 5.033898e-03 5.208380e-03 5.693958e-03 5.859716e-03 6.306208e-03 6.448943e-03 6.844957e-03 6.955656e-03 7.295153e-03 7.370734e-03 7.653752e-03 7.697550e-03 7.930711e-03 7.952732e-03 8.149490e-03 8.166386e-03 8.346937e-03 8.381626e-03 8.572409e-03 8.653274e-03 8.885966e-03 9.045495e-03 9.355374e-03 9.628143e-03 1.005168e-02 1.047153e-02 1.104311e-02 1.163942e-02 1.238712e-02 1.318023e-02 1.412071e-02 1.511662e-02 1.624945e-02 1.743417e-02 1.873608e-02 2.007029e-02 2.149016e-02 2.290514e-02 2.436086e-02 2.575693e-02 2.713544e-02 2.838405e-02 2.954581e-02 3.049656e-02 3.128537e-02 3.177829e-02 3.203635e-02 3.191884e-02 3.150570e-02 3.065184e-02 2.946399e-02 2.779258e-02 2.577965e-02 2.326635e-02 2.043976e-02 1.712036e-02 1.355257e-02 9.517033e-03 5.333130e-03 7.144469e-04 -3.918685e-03 -8.953943e-03 -1.383457e-02 -1.908787e-02 -2.397899e-02 -2.921179e-02 -3.383574e-02 -3.875723e-02 -4.279448e-02 -4.705730e-02 -5.016222e-02 -5.338074e-02 -5.522281e-02 -5.702241e-02 -5.734883e-02 -5.744093e-02 -5.614412e-02 -5.441104e-02 -5.158652e-02 -4.816150e-02 -4.415617e-02 -3.948447e-02 -3.492619e-02 -2.975726e-02 -2.548637e-02 -2.068500e-02 -1.745820e-02 -1.360477e-02 -1.165549e-02 -8.748132e-03 -7.697941e-03 -5.313984e-03 -4.703054e-03 -2.329134e-03 -1.756386e-03 7.694579e-04 1.516809e-03 3.969085e-03 4.799077e-03 6.698536e-03 7.260682e-03 8.178552e-03 8.256863e-03 8.227847e-03 7.920302e-03 7.280276e-03 6.811950e-03 5.915069e-03 5.472084e-03 4.563370e-03 4.248582e-03 3.459372e-03 3.310207e-03 2.693522e-03 2.709817e-03 2.274031e-03 2.437835e-03 2.168793e-03 2.455166e-03 2.328575e-03 2.710596e-03 2.698398e-03 3.149245e-03 
5.831783e-03 6.786897e-03 7.310646e-03 8.298936e-03 8.899655e-03 9.877416e-03 1.050486e-02 1.143394e-02 1.204477e-02 1.289426e-02 1.345398e-02 1.420201e-02 1.468679e-02 1.532224e-02 1.572055e-02 1.624451e-02 1.655836e-02 1.698511e-02 1.723079e-02 1.758830e-02 1.779641e-02 1.812612e-02 1.834092e-02 1.869674e-02 1.897443e-02 1.942064e-02 1.982655e-02 2.043449e-02 2.103881e-02 2.188198e-02 2.275388e-02 2.390127e-02 2.510114e-02 2.660872e-02 2.817874e-02 3.007913e-02 3.203235e-02 3.432340e-02 3.663231e-02 3.926552e-02 4.185132e-02 4.472192e-02 4.744653e-02 5.038727e-02 5.305052e-02 5.583200e-02 5.817650e-02 6.051654e-02 6.224261e-02 6.382641e-02 6.461781e-02 6.512889e-02 6.468786e-02 6.384682e-02 6.193359e-02 5.953825e-02 5.600682e-02 5.196478e-02 4.678540e-02 4.113031e-02 3.439156e-02 2.727840e-02 1.916892e-02 1.085214e-02 1.631928e-03 -7.561585e-03 -1.758357e-02 -2.727100e-02 -3.773712e-02 -4.747568e-02 -5.795330e-02 -6.722000e-02 -7.716136e-02 -8.533833e-02 -9.405623e-02 -1.004534e-01 -1.071485e-01 -1.110862e-01 -1.149479e-01 -1.158897e-01 -1.162616e-01 -1.139542e-01 -1.105313e-01 -1.051097e-01 -9.813493e-02 -9.019916e-02 -8.062316e-02 -7.131374e-02 -6.078495e-02 -5.174784e-02 -4.214871e-02 -3.507509e-02 -2.757040e-02 -2.325544e-02 -1.774554e-02 -1.557825e-02 -1.113308e-02 -9.992258e-03 -5.574450e-03 -4.503784e-03 2.587388e-04 1.738433e-03 6.448046e-03 8.137838e-03 1.182717e-02 1.295388e-02 1.467988e-02 1.479706e-02 1.464881e-02 1.399418e-02 1.267824e-02 1.172398e-02 9.953304e-03 9.067914e-03 7.320725e-03 6.698693e-03 5.225561e-03 4.933139e-03 3.832867e-03 3.865359e-03 3.151498e-03 3.471555e-03 3.114608e-03 3.672391e-03 3.623009e-03 4.365347e-03 4.566156e-03 5.440280e-03 
9.501995e-03 1.102273e-02 1.144723e-02 1.302041e-02 1.353839e-02 1.509713e-02 1.564074e-02 1.712599e-02 1.763824e-02 1.900142e-02 1.943871e-02 2.064462e-02 2.097911e-02 2.200853e-02 2.223020e-02 2.308222e-02 2.320037e-02 2.389397e-02 2.393812e-02 2.451300e-02 2.453280e-02 2.504923e-02 2.511348e-02 2.565085e-02 2.584520e-02 2.649918e-02 2.692216e-02 2.779993e-02 2.855706e-02 2.977023e-02 3.096567e-02 3.262057e-02 3.434606e-02 3.653105e-02 3.885211e-02 4.162225e-02 4.456204e-02 4.792167e-02 5.144363e-02 5.532859e-02 5.931981e-02 6.358152e-02 6.783961e-02 7.223466e-02 7.646194e-02 8.065107e-02 8.445997e-02 8.802067e-02 9.095418e-02 9.340998e-02 9.497889e-02 9.584555e-02 9.558094e-02 9.442551e-02 9.193964e-02 8.844274e-02 8.348653e-02 7.749412e-02 6.999638e-02 6.154711e-02 5.162408e-02 4.094525e-02 2.887894e-02 1.635635e-02 2.554666e-03 -1.130586e-02 -2.634388e-02 -4.094139e-02 -5.663314e-02 -7.126948e-02 -8.692150e-02 -1.007785e-01 -1.155402e-01 -1.276658e-01 -1.405038e-01 -1.498517e-01 -1.595960e-01 -1.651511e-01 -1.706439e-01 -1.716219e-01 -1.719533e-01 -1.680106e-01 -1.627805e-01 -1.541796e-01 -1.437390e-01 -1.314845e-01 -1.171449e-01 -1.031238e-01 -8.722027e-02 -7.411371e-02 -5.948559e-02 -4.985552e-02 -3.843426e-02 -3.303020e-02 -2.468903e-02 -2.195172e-02 -1.523785e-02 -1.380140e-02 -6.873252e-03 -5.510426e-03 2.092485e-03 4.127909e-03 1.164124e-02 1.413028e-02 1.996284e-02 2.163377e-02 2.423742e-02 2.435096e-02 2.400074e-02 2.297910e-02 2.087143e-02 1.945515e-02 1.669414e-02 1.542240e-02 1.270775e-02 1.184986e-02 9.532715e-03 9.173948e-03 7.385713e-03 7.513789e-03 6.266325e-03 6.824942e-03 6.071110e-03 6.987014e-03 6.653287e-03 7.848297e-03 7.851302e-03 9.247209e-03 
1.127760e-02 1.325263e-02 1.436742e-02 1.640237e-02 1.766434e-02 1.967197e-02 2.098001e-02 2.288317e-02 2.414929e-02 2.588463e-02 2.703806e-02 2.855996e-02 2.955113e-02 3.083539e-02 3.163936e-02 3.268628e-02 3.330546e-02 3.414205e-02 3.460777e-02 3.528884e-02 3.566168e-02 3.626962e-02 3.663812e-02 3.728102e-02 3.775859e-02 3.856634e-02 3.928583e-02 4.040380e-02 4.150924e-02 4.308873e-02 4.472378e-02 4.690897e-02 4.920156e-02 5.211241e-02 5.515576e-02 5.886726e-02 6.269761e-02 6.721619e-02 7.178902e-02 7.702836e-02 8.219557e-02 8.795489e-02 9.344699e-02 9.939667e-02 1.048149e-01 1.104950e-01 1.153193e-01 1.201562e-01 1.237740e-01 1.271209e-01 1.288793e-01 1.300800e-01 1.293597e-01 1.278308e-01 1.241316e-01 1.194501e-01 1.124703e-01 1.044462e-01 9.413329e-02 8.284533e-02 6.939965e-02 5.518262e-02 3.901167e-02 2.240135e-02 4.046389e-03 -1.428923e-02 -3.421330e-02 -5.351776e-02 -7.432942e-02 -9.374855e-02 -1.146386e-01 -1.331638e-01 -1.530916e-01 -1.695045e-01 -1.871184e-01 -2.000166e-01 -2.136862e-01 -2.216538e-01 -2.296734e-01 -2.315805e-01 -2.325224e-01 -2.278335e-01 -2.209595e-01 -2.099211e-01 -1.955888e-01 -1.793228e-01 -1.593878e-01 -1.400857e-01 -1.181025e-01 -9.923300e-02 -7.958612e-02 -6.514887e-02 -5.047658e-02 -4.248919e-02 -3.225830e-02 -2.884964e-02 -2.080001e-02 -1.938739e-02 -1.097078e-02 -9.552363e-03 -4.568419e-05 2.519140e-03 1.221534e-02 1.564247e-02 2.333093e-02 2.556365e-02 2.869406e-02 2.867448e-02 2.784155e-02 2.634608e-02 2.335435e-02 2.144462e-02 1.778151e-02 1.613912e-02 1.267881e-02 1.161052e-02 8.768572e-03 8.355830e-03 6.278166e-03 6.491516e-03 5.181855e-03 5.944012e-03 5.335927e-03 6.551621e-03 6.546116e-03 8.114820e-03 8.599183e-03 1.042024e-02 
1.521486e-02 1.785484e-02 1.866632e-02 2.138393e-02 2.233961e-02 2.502355e-02 2.600962e-02 2.855992e-02 2.947962e-02 3.181271e-02 3.259092e-02 3.464491e-02 3.523246e-02 3.697202e-02 3.734947e-02 3.876994e-02 3.895040e-02 4.008077e-02 4.011151e-02 4.101601e-02 4.097866e-02 4.175674e-02 4.176588e-02 4.255016e-02 4.274977e-02 4.370169e-02 4.425910e-02 4.556141e-02 4.665789e-02 4.850345e-02 5.032082e-02 5.289675e-02 5.559916e-02 5.906593e-02 6.277689e-02 6.724238e-02 7.201720e-02 7.750678e-02 8.330234e-02 8.972726e-02 9.637201e-02 1.035002e-01 1.106693e-01 1.181044e-01 1.253061e-01 1.324818e-01 1.390633e-01 1.452612e-01 1.504402e-01 1.548379e-01 1.577654e-01 1.595162e-01 1.593698e-01 1.577096e-01 1.538050e-01 1.481680e-01 1.400678e-01 1.301852e-01 1.177752e-01 1.037268e-01 8.723206e-02 6.943402e-02 4.937003e-02 2.850711e-02 5.589757e-03 -1.747111e-02 -4.240668e-02 -6.667296e-02 -9.269577e-02 -1.170440e-01 -1.430720e-01 -1.661871e-01 -1.908773e-01 -2.111919e-01 -2.328515e-01 -2.485821e-01 -2.652109e-01 -2.745748e-01 -2.841213e-01 -2.857191e-01 -2.865166e-01 -2.797240e-01 -2.709586e-01 -2.561614e-01 -2.382576e-01 -2.169962e-01 -1.920094e-01 -1.673463e-01 -1.394012e-01 -1.163107e-01 -9.106464e-02 -7.502799e-02 -5.647455e-02 -4.910332e-02 -3.645768e-02 -3.297165e-02 -2.338073e-02 -2.212723e-02 -1.114757e-02 -1.009076e-02 2.686450e-03 5.277462e-03 1.828996e-02 2.250158e-02 3.274783e-02 3.551753e-02 3.918914e-02 3.895631e-02 3.741950e-02 3.545195e-02 3.135955e-02 2.905033e-02 2.428209e-02 2.240885e-02 1.796516e-02 1.683940e-02 1.316125e-02 1.284897e-02 1.007465e-02 1.052935e-02 8.644026e-03 9.771546e-03 8.686528e-03 1.037375e-02 9.966899e-03 1.209369e-02 1.222972e-02 1.467388e-02 
1.595806e-02 1.907186e-02 2.091029e-02 2.410015e-02 2.614488e-02 2.928000e-02 3.137748e-02 3.433967e-02 3.635429e-02 3.904449e-02 4.086546e-02 4.321040e-02 4.475830e-02 4.671666e-02 4.794926e-02 4.951683e-02 5.043350e-02 5.164686e-02 5.229141e-02 5.322994e-02 5.369136e-02 5.447723e-02 5.488827e-02 5.568412e-02 5.621705e-02 5.722079e-02 5.807994e-02 5.951587e-02 6.092595e-02 6.303137e-02 6.522072e-02 6.822685e-02 7.140489e-02 7.551155e-02 7.984004e-02 8.518394e-02 9.074272e-02 9.736068e-02 1.041098e-01 1.118995e-01 1.196415e-01 1.283250e-01 1.366735e-01 1.457698e-01 1.541321e-01 1.629491e-01 1.705326e-01 1.781874e-01 1.840389e-01 1.895167e-01 1.926032e-01 1.948571e-01 1.941847e-01 1.922724e-01 1.870325e-01 1.802671e-01 1.699779e-01 1.580581e-01 1.426585e-01 1.257343e-01 1.055908e-01 8.423623e-02 6.004950e-02 3.514898e-02 7.798765e-03 -1.959856e-02 -4.918885e-02 -7.796771e-02 -1.088620e-01 -1.378271e-01 -1.689653e-01 -1.967121e-01 -2.266913e-01 -2.514475e-01 -2.783139e-01 -2.979133e-01 -3.191437e-01 -3.312951e-01 -3.441085e-01 -3.469571e-01 -3.489190e-01 -3.416291e-01 -3.313228e-01 -3.143041e-01 -2.919214e-01 -2.666943e-01 -2.347678e-01 -2.041807e-01 -1.686210e-01 -1.380291e-01 -1.073870e-01 -8.462177e-02 -6.364277e-02 -5.357289e-02 -4.023628e-02 -3.739264e-02 -2.758990e-02 -2.749859e-02 -1.581434e-02 -1.566908e-02 -1.485355e-03 1.027262e-03 1.613269e-02 2.145060e-02 3.400877e-02 3.728551e-02 4.080615e-02 4.006925e-02 3.736185e-02 3.479747e-02 2.954065e-02 2.686030e-02 2.121339e-02 1.918650e-02 1.417089e-02 1.305011e-02 9.081923e-03 8.892909e-03 6.086967e-03 6.760517e-03 5.082250e-03 6.509287e-03 5.850005e-03 7.904071e-03 8.118604e-03 1.066504e-02 1.159079e-02 1.449086e-02 
2.003297e-02 2.393848e-02 2.528868e-02 2.928606e-02 3.081675e-02 3.474963e-02 3.629942e-02 4.002393e-02 4.145308e-02 4.484620e-02 4.604392e-02 4.901188e-02 4.990320e-02 5.238927e-02 5.294101e-02 5.493189e-02 5.515708e-02 5.668766e-02 5.664826e-02 5.780421e-02 5.761183e-02 5.853002e-02 5.834445e-02 5.921079e-02 5.923576e-02 6.027983e-02 6.075547e-02 6.224115e-02 6.343190e-02 6.564279e-02 6.781968e-02 7.103796e-02 7.445397e-02 7.893158e-02 8.378944e-02 8.971138e-02 9.612403e-02 1.035646e-01 1.115101e-01 1.203849e-01 1.296601e-01 1.396793e-01 1.498581e-01 1.604892e-01 1.708957e-01 1.813468e-01 1.910542e-01 2.002911e-01 2.081608e-01 2.149705e-01 2.197400e-01 2.228481e-01 2.232718e-01 2.215096e-01 2.165391e-01 2.090343e-01 1.980028e-01 1.843490e-01 1.671053e-01 1.474522e-01 1.243890e-01 9.941348e-02 7.136891e-02 4.213724e-02 1.021132e-02 -2.199696e-02 -5.661410e-02 -9.042437e-02 -1.265142e-01 -1.604485e-01 -1.966693e-01 -2.290104e-01 -2.636715e-01 -2.922845e-01 -3.231068e-01 -3.454047e-01 -3.694846e-01 -3.827446e-01 -3.969270e-01 -3.989757e-01 -4.006011e-01 -3.905206e-01 -3.781914e-01 -3.565558e-01 -3.305831e-01 -2.992756e-01 -2.620967e-01 -2.248356e-01 -1.824164e-01 -1.469266e-01 -1.095286e-01 -8.691252e-02 -6.223931e-02 -5.694179e-02 -4.164953e-02 -3.774047e-02 -2.851814e-02 -2.877787e-02 -1.409680e-02 -1.569824e-02 2.489294e-03 3.533356e-03 2.240488e-02 2.843938e-02 4.427720e-02 4.808687e-02 5.106408e-02 4.977951e-02 4.551424e-02 4.252735e-02 3.588155e-02 3.309460e-02 2.635025e-02 2.442988e-02 1.852898e-02 1.764916e-02 1.293918e-02 1.309456e-02 9.647718e-03 1.076057e-02 8.513985e-03 1.047195e-02 9.294935e-03 1.196594e-02 1.169423e-02 1.493311e-02 1.538683e-02 1.903913e-02 
1.955867e-02 2.397845e-02 2.673232e-02 3.123348e-02 3.423986e-02 3.864660e-02 4.169622e-02 4.584524e-02 4.874967e-02 5.250042e-02 5.510248e-02 5.834754e-02 6.053135e-02 6.320575e-02 6.490546e-02 6.699450e-02 6.820102e-02 6.974583e-02 7.051121e-02 7.161197e-02 7.205100e-02 7.286753e-02 7.315646e-02 7.390591e-02 7.427778e-02 7.522881e-02 7.596457e-02 7.742697e-02 7.884136e-02 8.114971e-02 8.357026e-02 8.705986e-02 9.079780e-02 9.577163e-02 1.010835e-01 1.077695e-01 1.148101e-01 1.233093e-01 1.320774e-01 1.423070e-01 1.525888e-01 1.642253e-01 1.755435e-01 1.879759e-01 1.995550e-01 2.118611e-01 2.226240e-01 2.335869e-01 2.421991e-01 2.503792e-01 2.553558e-01 2.592311e-01 2.591119e-01 2.572842e-01 2.508633e-01 2.423014e-01 2.288666e-01 2.131289e-01 1.926328e-01 1.699871e-01 1.430658e-01 1.144409e-01 8.223911e-02 4.900619e-02 1.286816e-02 -2.345211e-02 -6.226851e-02 -1.002176e-01 -1.406334e-01 -1.788059e-01 -2.197388e-01 -2.565203e-01 -2.964663e-01 -3.296455e-01 -3.662001e-01 -3.927603e-01 -4.224224e-01 -4.389019e-01 -4.575019e-01 -4.610364e-01 -4.647528e-01 -4.542524e-01 -4.406677e-01 -4.171193e-01 -3.858443e-01 -3.512957e-01 -3.048031e-01 -2.616594e-01 -2.085165e-01 -1.628359e-01 -1.200911e-01 -8.613471e-02 -6.074492e-02 -5.235364e-02 -3.796189e-02 -3.802957e-02 -2.985259e-02 -3.276085e-02 -1.829727e-02 -2.250801e-02 -3.797519e-03 -4.484476e-03 1.565553e-02 2.301548e-02 4.267054e-02 4.665539e-02 4.767597e-02 4.539895e-02 3.910284e-02 3.578858e-02 2.794622e-02 2.528968e-02 1.792381e-02 1.630029e-02 1.014698e-02 9.613021e-03 4.932352e-03 5.455555e-03 2.287679e-03 3.792510e-03 2.060711e-03 4.441361e-03 4.003416e-03 7.130485e-03 7.806237e-03 1.153131e-02 1.311790e-02 1.727743e-02 
2.369062e-02 2.905198e-02 3.114318e-02 3.660212e-02 3.889475e-02 4.424715e-02 4.652880e-02 5.158125e-02 5.366373e-02 5.824634e-02 5.997660e-02 6.395560e-02 6.522598e-02 6.851521e-02 6.927217e-02 7.184244e-02 7.209315e-02 7.397903e-02 7.379549e-02 7.509935e-02 7.461989e-02 7.551304e-02 7.494120e-02 7.566204e-02 7.526233e-02 7.611086e-02 7.620061e-02 7.752827e-02 7.846407e-02 8.065708e-02 8.281406e-02 8.626827e-02 9.001009e-02 9.509529e-02 1.007333e-01 1.077458e-01 1.154868e-01 1.245904e-01 1.344751e-01 1.456337e-01 1.574688e-01 1.703762e-01 1.836700e-01 1.976879e-01 2.116005e-01 2.257202e-01 2.390453e-01 2.518927e-01 2.630932e-01 2.730004e-01 2.803183e-01 2.854804e-01 2.871338e-01 2.858539e-01 2.803126e-01 2.713052e-01 2.575945e-01 2.402718e-01 2.182100e-01 1.928428e-01 1.630984e-01 1.307599e-01 9.466645e-02 5.696486e-02 1.616144e-02 -2.510613e-02 -6.901924e-02 -1.121024e-01 -1.577049e-01 -2.008954e-01 -2.468046e-01 -2.881705e-01 -3.326278e-01 -3.695875e-01 -4.099081e-01 -4.389679e-01 -4.712501e-01 -4.883982e-01 -5.080057e-01 -5.099628e-01 -5.128283e-01 -4.984585e-01 -4.824531e-01 -4.530269e-01 -4.183669e-01 -3.761831e-01 -3.249968e-01 -2.728323e-01 -2.120594e-01 -1.596620e-01 -1.080268e-01 -7.742986e-02 -4.895190e-02 -5.775265e-02 -3.993233e-02 -2.974584e-02 -2.876583e-02 -3.176881e-02 -1.136971e-02 -2.051001e-02 3.766913e-03 -2.374184e-03 2.069754e-02 2.801469e-02 5.184733e-02 5.633621e-02 5.406806e-02 5.138177e-02 4.290086e-02 3.999819e-02 3.097181e-02 2.897827e-02 2.082677e-02 1.986241e-02 1.307558e-02 1.316679e-02 7.917666e-03 9.062656e-03 5.355346e-03 7.513025e-03 5.250884e-03 8.339649e-03 7.366201e-03 1.126859e-02 1.139176e-02 1.595984e-02 1.696614e-02 2.202686e-02 
2.182954e-02 2.776016e-02 3.167330e-02 3.768484e-02 4.188611e-02 4.775361e-02 5.197209e-02 5.747980e-02 6.146580e-02 6.642261e-02 6.996292e-02 7.421740e-02 7.714984e-02 8.060389e-02 8.282986e-02 8.544970e-02 8.694383e-02 8.876797e-02 8.958443e-02 9.072830e-02 9.100355e-02 9.166104e-02 9.161314e-02 9.205479e-02 9.197885e-02 9.254632e-02 9.280531e-02 9.390080e-02 9.491022e-02 9.697869e-02 9.918292e-02 1.026847e-01 1.065226e-01 1.118940e-01 1.177515e-01 1.253508e-01 1.335004e-01 1.435405e-01 1.540683e-01 1.665377e-01 1.792631e-01 1.938420e-01 2.082391e-01 2.242238e-01 2.393585e-01 2.556093e-01 2.701126e-01 2.850512e-01 2.971546e-01 3.088395e-01 3.165018e-01 3.228077e-01 3.239548e-01 3.228680e-01 3.157414e-01 3.057432e-01 2.892994e-01 2.697462e-01 2.439757e-01 2.153279e-01 1.813193e-01 1.450698e-01 1.046996e-01 6.297038e-02 1.830308e-02 -2.672538e-02 -7.401632e-02 -1.205469e-01 -1.694010e-01 -2.160467e-01 -2.657432e-01 -3.110464e-01 -3.604693e-01 -4.020563e-01 -4.486931e-01 -4.825781e-01 -5.218595e-01 -5.427919e-01 -5.686140e-01 -5.720149e-01 -5.785354e-01 -5.630923e-01 -5.465452e-01 -5.151324e-01 -4.742152e-01 -4.310122e-01 -3.662907e-01 -3.115553e-01 -2.327269e-01 -1.675721e-01 -1.149570e-01 -6.150619e-02 -3.488976e-02 -3.562130e-02 -2.128769e-02 -2.657537e-02 -2.466521e-02 -3.063351e-02 -1.196687e-02 -2.611728e-02 -2.748416e-03 -1.415292e-02 6.250019e-03 1.345687e-02 4.389853e-02 4.730499e-02 3.913661e-02 3.650595e-02 2.635882e-02 2.476371e-02 1.534986e-02 1.456054e-02 6.382818e-03 6.344581e-03 -2.598882e-04 5.574036e-04 -4.306081e-03 -2.549504e-03 -5.653851e-03 -2.938994e-03 -4.369121e-03 -7.396816e-04 -6.476931e-04 3.800073e-03 5.216405e-03 1.034281e-02 1.285245e-02 1.848225e-02 
2.598989e-02 3.303053e-02 3.610745e-02 4.325101e-02 4.653834e-02 5.352666e-02 5.675470e-02 6.333538e-02 6.625885e-02 7.220382e-02 7.461762e-02 7.974128e-02 8.149517e-02 8.567065e-02 8.668155e-02 8.985368e-02 9.011493e-02 9.230953e-02 9.189663e-02 9.322609e-02 9.229922e-02 9.296459e-02 9.176815e-02 9.205805e-02 9.091708e-02 9.120301e-02 9.051562e-02 9.124243e-02 9.146644e-02 9.313554e-02 9.476675e-02 9.790909e-02 1.014477e-01 1.065830e-01 1.124856e-01 1.200649e-01 1.286797e-01 1.390108e-01 1.504968e-01 1.636535e-01 1.778878e-01 1.936098e-01 2.100911e-01 2.276859e-01 2.454489e-01 2.637161e-01 2.812803e-01 2.984855e-01 3.138682e-01 3.278056e-01 3.386402e-01 3.468230e-01 3.506169e-01 3.506221e-01 3.451640e-01 3.351063e-01 3.189662e-01 2.979896e-01 2.709516e-01 2.395332e-01 2.027305e-01 1.625879e-01 1.181703e-01 7.174895e-02 2.218780e-02 -2.800279e-02 -8.057783e-02 -1.324104e-01 -1.864841e-01 -2.382240e-01 -2.927091e-01 -3.425614e-01 -3.961414e-01 -4.413695e-01 -4.913762e-01 -5.274533e-01 -5.689153e-01 -5.898317e-01 -6.159419e-01 -6.165137e-01 -6.209409e-01 -5.998794e-01 -5.795099e-01 -5.402476e-01 -4.960021e-01 -4.429198e-01 -3.760670e-01 -3.080187e-01 -2.226014e-01 -1.459797e-01 -8.181571e-02 -3.863477e-02 -1.126988e-02 -6.476840e-02 -3.975931e-02 7.561641e-03 -1.308499e-02 -2.892313e-02 9.466368e-03 -1.519928e-02 1.538105e-02 -7.749173e-03 1.268106e-02 1.179024e-02 3.780185e-02 4.385631e-02 3.184635e-02 3.331746e-02 2.304772e-02 2.419914e-02 1.467759e-02 1.561013e-02 7.167092e-03 8.320092e-03 1.374620e-03 3.133172e-03 -2.118995e-03 4.791896e-04 -3.061659e-03 4.804582e-04 -1.440298e-03 3.051792e-03 2.592918e-03 7.965307e-03 8.765409e-03 1.488748e-02 1.671108e-02 2.340230e-02 
2.258117e-02 3.025442e-02 3.561553e-02 4.337446e-02 4.905594e-02 5.661798e-02 6.227744e-02 6.936267e-02 7.467656e-02 8.102971e-02 8.571486e-02 9.112663e-02 9.496078e-02 9.928684e-02 1.021262e-01 1.053022e-01 1.070945e-01 1.091467e-01 1.099400e-01 1.109917e-01 1.109382e-01 1.112117e-01 1.105680e-01 1.103844e-01 1.095076e-01 1.092821e-01 1.086214e-01 1.088541e-01 1.089363e-01 1.101957e-01 1.116010e-01 1.144955e-01 1.178198e-01 1.229541e-01 1.287547e-01 1.366664e-01 1.453879e-01 1.564631e-01 1.683438e-01 1.827129e-01 1.976754e-01 2.150959e-01 2.326317e-01 2.523693e-01 2.714328e-01 2.921639e-01 3.111017e-01 3.308685e-01 3.474220e-01 3.636863e-01 3.751176e-01 3.849676e-01 3.883632e-01 3.889175e-01 3.816995e-01 3.706988e-01 3.512889e-01 3.277554e-01 2.961873e-01 2.608801e-01 2.190035e-01 1.743464e-01 1.253042e-01 7.465806e-02 2.172784e-02 -3.169796e-02 -8.624794e-02 -1.402900e-01 -1.956400e-01 -2.493103e-01 -3.056993e-01 -3.583916e-01 -4.159683e-01 -4.657956e-01 -5.226885e-01 -5.646292e-01 -6.151706e-01 -6.409489e-01 -6.761322e-01 -6.776956e-01 -6.885120e-01 -6.637256e-01 -6.445741e-01 -6.006467e-01 -5.496548e-01 -4.989819e-01 -4.109159e-01 -3.537171e-01 -2.260848e-01 -1.400314e-01 -1.038833e-01 -2.660099e-02 3.672913e-04 3.602221e-02 1.370536e-02 -3.035842e-02 2.398533e-02 -1.104656e-02 1.337322e-02 -8.157392e-03 8.978496e-03 -1.360996e-02 6.194995e-03 -1.669159e-02 -1.401495e-02 -9.612674e-04 -6.720166e-03 3.403128e-03 -4.072465e-03 1.073134e-03 -7.584075e-03 -4.576671e-03 -1.256309e-02 -1.011273e-02 -1.655913e-02 -1.386598e-02 -1.845224e-02 -1.510461e-02 -1.776518e-02 -1.356603e-02 -1.436414e-02 -9.253094e-03 -8.330349e-03 -2.345469e-03 9.845260e-05 6.841686e-03 1.055847e-02 1.788128e-02 
2.678928e-02 3.575621e-02 4.009822e-02 4.918701e-02 5.374453e-02 6.263181e-02 6.706772e-02 7.542752e-02 7.942673e-02 8.695652e-02 9.024802e-02 9.669404e-02 9.907147e-02 1.042510e-01 1.055896e-01 1.094083e-01 1.096771e-01 1.121413e-01 1.114109e-01 1.126342e-01 1.110800e-01 1.112865e-01 1.091887e-01 1.087128e-01 1.064545e-01 1.057376e-01 1.037990e-01 1.033829e-01 1.023301e-01 1.028422e-01 1.033075e-01 1.054355e-01 1.080832e-01 1.125321e-01 1.180059e-01 1.254333e-01 1.342800e-01 1.452055e-01 1.577749e-01 1.724642e-01 1.887861e-01 2.071139e-01 2.267608e-01 2.480638e-01 2.700147e-01 2.929568e-01 3.154876e-01 3.379728e-01 3.586163e-01 3.778076e-01 3.934472e-01 4.059664e-01 4.131419e-01 4.155283e-01 4.110166e-01 4.004588e-01 3.820921e-01 3.572885e-01 3.247722e-01 2.865414e-01 2.417964e-01 1.929518e-01 1.395345e-01 8.389005e-02 2.562680e-02 -3.327159e-02 -9.352783e-02 -1.531799e-01 -2.139419e-01 -2.728930e-01 -3.338070e-01 -3.910152e-01 -4.520716e-01 -5.053181e-01 -5.648164e-01 -6.085004e-01 -6.605210e-01 -6.852523e-01 -7.196584e-01 -7.164867e-01 -7.229052e-01 -6.899364e-01 -6.629734e-01 -6.081504e-01 -5.513261e-01 -4.868350e-01 -4.015169e-01 -3.214577e-01 -1.967215e-01 -7.845126e-02 -1.644193e-02 -2.356567e-02 -4.618268e-02 -2.616180e-02 6.301718e-02 1.629932e-02 8.110531e-03 6.017770e-04 9.774880e-03 -1.141217e-02 1.065981e-02 -7.889528e-03 1.686359e-02 -1.714072e-02 -1.673675e-02 -1.051580e-02 -1.134507e-02 6.072394e-04 -6.622937e-03 4.561120e-04 -8.539078e-03 -4.048485e-03 -1.232241e-02 -8.708363e-03 -1.541042e-02 -1.173102e-02 -1.661143e-02 -1.235022e-02 -1.538559e-02 -1.027166e-02 -1.154459e-02 -5.467815e-03 -5.127400e-03 1.903773e-03 3.655626e-03 1.153731e-02 1.445208e-02 2.300068e-02 
2.166319e-02 3.132962e-02 3.846621e-02 4.824487e-02 5.574320e-02 6.528004e-02 7.271149e-02 8.164512e-02 8.859417e-02 9.658611e-02 1.026803e-01 1.094445e-01 1.143829e-01 1.197115e-01 1.232887e-01 1.270721e-01 1.291955e-01 1.314359e-01 1.321369e-01 1.329555e-01 1.323943e-01 1.320346e-01 1.305011e-01 1.293290e-01 1.272396e-01 1.257412e-01 1.236332e-01 1.224089e-01 1.209283e-01 1.206802e-01 1.205606e-01 1.220673e-01 1.240924e-01 1.281645e-01 1.331098e-01 1.405203e-01 1.490672e-01 1.604509e-01 1.730716e-01 1.887936e-01 2.056085e-01 2.256056e-01 2.462210e-01 2.698276e-01 2.931699e-01 3.189505e-01 3.431236e-01 3.687505e-01 3.909653e-01 4.132067e-01 4.298595e-01 4.447738e-01 4.517846e-01 4.552328e-01 4.487548e-01 4.372946e-01 4.148044e-01 3.868385e-01 3.483319e-01 3.050488e-01 2.536423e-01 1.990290e-01 1.401272e-01 7.966196e-02 1.867442e-02 -4.271076e-02 -1.026225e-01 -1.623157e-01 -2.208927e-01 -2.788984e-01 -3.381631e-01 -3.959650e-01 -4.588032e-01 -5.164672e-01 -5.832516e-01 -6.350369e-01 -6.992258e-01 -7.315757e-01 -7.795582e-01 -7.770769e-01 -7.948273e-01 -7.518180e-01 -7.307590e-01 -6.600368e-01 -6.001070e-01 -5.343682e-01 -4.171480e-01 -3.842919e-01 -1.244381e-01 -1.463800e-03 -3.353070e-02 3.292066e-02 1.014272e-01 5.336502e-02 -9.565900e-02 -6.181337e-02 -1.660903e-02 -6.509103e-02 -1.230775e-02 -3.782915e-02 -4.128818e-03 -2.595371e-02 -4.440742e-03 -2.259132e-02 -6.203988e-03 -1.302359e-02 -2.454523e-02 -1.759905e-02 -2.937075e-02 -2.243290e-02 -3.263811e-02 -2.723617e-02 -3.551038e-02 -3.093782e-02 -3.714037e-02 -3.262792e-02 -3.670533e-02 -3.172120e-02 -3.368233e-02 -2.790978e-02 -2.782190e-02 -2.110956e-02 -1.910043e-02 -1.142760e-02 -7.689003e-03 8.560162e-04 6.066434e-03 1.530196e-02 
2.597677e-02 3.713422e-02 4.304882e-02 5.437994e-02 6.052421e-02 7.162340e-02 7.757789e-02 8.802489e-02 9.338676e-02 1.027822e-01 1.071957e-01 1.151958e-01 1.183807e-01 1.247271e-01 1.265013e-01 1.310445e-01 1.313400e-01 1.340534e-01 1.329255e-01 1.339137e-01 1.315444e-01 1.310458e-01 1.277442e-01 1.261313e-01 1.223328e-01 1.201117e-01 1.163754e-01 1.141833e-01 1.111862e-01 1.097828e-01 1.083054e-01 1.085531e-01 1.094495e-01 1.122737e-01 1.164184e-01 1.227392e-01 1.309428e-01 1.415719e-01 1.544618e-01 1.699601e-01 1.878255e-01 2.083241e-01 2.309301e-01 2.559219e-01 2.823062e-01 3.104267e-01 3.387019e-01 3.675395e-01 3.947512e-01 4.207588e-01 4.428893e-01 4.615293e-01 4.737955e-01 4.800923e-01 4.777166e-01 4.673567e-01 4.468892e-01 4.177518e-01 3.786484e-01 3.320998e-01 2.776225e-01 2.184221e-01 1.546504e-01 8.892720e-02 2.193659e-02 -4.526950e-02 -1.117484e-01 -1.776720e-01 -2.423528e-01 -3.062010e-01 -3.697986e-01 -4.322287e-01 -4.973180e-01 -5.581006e-01 -6.259966e-01 -6.788905e-01 -7.434828e-01 -7.731064e-01 -8.192888e-01 -8.091196e-01 -8.199037e-01 -7.662320e-01 -7.292749e-01 -6.456743e-01 -5.693630e-01 -4.841828e-01 -3.601009e-01 -2.593468e-01 -1.186509e-01 -6.396953e-02 6.854021e-03 6.298268e-02 -1.342153e-01 -1.735089e-01 4.385717e-02 1.082577e-04 1.948204e-02 7.829060e-04 1.664165e-02 -9.369858e-03 2.050589e-02 -1.061569e-02 1.836994e-02 -1.036472e-03 5.369726e-03 1.527138e-02 -1.602613e-02 -8.494930e-03 -2.674520e-02 -1.953102e-02 -3.168775e-02 -2.563416e-02 -3.450708e-02 -2.915857e-02 -3.562096e-02 -3.030248e-02 -3.462994e-02 -2.880656e-02 -3.111927e-02 -2.444121e-02 -2.484398e-02 -1.712568e-02 -1.575713e-02 -6.953834e-03 -4.006613e-03 5.802431e-03 1.007345e-02 2.069880e-02 
1.892890e-02 3.085299e-02 4.012727e-02 5.223346e-02 6.193805e-02 7.378102e-02 8.338034e-02 9.449325e-02 1.034549e-01 1.133903e-01 1.212265e-01 1.295965e-01 1.359032e-01 1.424145e-01 1.469034e-01 1.513831e-01 1.539050e-01 1.563170e-01 1.568742e-01 1.573267e-01 1.560781e-01 1.548263e-01 1.520875e-01 1.495333e-01 1.457748e-01 1.424681e-01 1.383121e-01 1.349497e-01 1.311644e-01 1.285860e-01 1.260708e-01 1.252418e-01 1.249962e-01 1.269690e-01 1.300348e-01 1.358771e-01 1.432446e-01 1.539270e-01 1.663995e-01 1.826356e-01 2.006515e-01 2.226944e-01 2.461106e-01 2.735104e-01 3.013604e-01 3.327022e-01 3.629505e-01 3.956087e-01 4.249494e-01 4.549352e-01 4.787352e-01 5.007862e-01 5.133610e-01 5.215062e-01 5.170066e-01 5.058510e-01 4.799881e-01 4.467094e-01 3.990925e-01 3.454226e-01 2.812344e-01 2.138195e-01 1.426362e-01 7.061737e-02 1.691616e-03 -6.700553e-02 -1.293502e-01 -1.915715e-01 -2.482307e-01 -3.058138e-01 -3.614082e-01 -4.198995e-01 -4.822493e-01 -5.467949e-01 -6.219107e-01 -6.877266e-01 -7.690903e-01 -8.134429e-01 -8.794897e-01 -8.723639e-01 -9.026904e-01 -8.295795e-01 -8.101130e-01 -6.828116e-01 -6.301218e-01 -5.050468e-01 -3.743078e-01 -2.793228e-01 -2.596143e-02 8.376505e-02 7.651160e-02 -1.186202e-01 -1.303074e-01 -4.950791e-02 2.416153e-02 -2.855610e-02 -9.218916e-03 -3.382442e-02 9.287172e-03 -2.242066e-02 1.037827e-02 -1.970755e-02 1.337066e-02 -2.043711e-02 -5.328746e-02 -1.339272e-02 -4.990377e-02 -3.528108e-02 -5.540239e-02 -4.638787e-02 -5.906108e-02 -5.215033e-02 -6.083679e-02 -5.480653e-02 -6.068321e-02 -5.474622e-02 -5.818371e-02 -5.177823e-02 -5.289495e-02 -4.564564e-02 -4.451144e-02 -3.620552e-02 -3.292279e-02 -2.349293e-02 -1.823363e-02 -7.746286e-03 -7.695185e-04 1.058562e-02 