# vtk DataFile Version 2.0
Comment goes here
ASCII

DATASET STRUCTURED_POINTS
DIMENSIONS    128   128   1

ORIGIN    0.000   0.000   0.000
SPACING   0.0156250.015625   1.000

POINT_DATA   16384
SCALARS uY double
LOOKUP_TABLE default

1.095536e-05 9.302311e-06 1.097601e-05 9.173897e-06 1.091916e-05 8.971956e-06 1.077485e-05 8.691391e-06 1.053753e-05 8.331766e-06 1.020680e-05 7.898241e-06 9.788460e-06 7.402668e-06 9.295671e-06 6.864588e-06 8.749895e-06 6.311889e-06 8.181362e-06 5.780888e-06 7.628895e-06 5.315635e-06 7.138841e-06 4.966259e-06 6.762964e-06 4.786222e-06 6.555184e-06 4.828405e-06 6.567122e-06 5.140053e-06 6.842494e-06 5.756666e-06 7.410505e-06 6.695023e-06 8.278436e-06 7.945603e-06 9.423766e-06 9.464745e-06 1.078619e-05 1.116699e-05 1.226006e-05 1.291819e-05 1.368803e-05 1.453024e-05 1.485682e-05 1.575859e-05 1.549666e-05 1.630425e-05 1.528649e-05 1.582270e-05 1.386733e-05 1.394224e-05 1.086690e-05 1.029480e-05 5.937907e-06 4.561280e-06 -1.188867e-06 -3.468715e-06 -1.063840e-05 -1.382619e-05 -2.231842e-05 -2.628990e-05 -3.585100e-05 -4.032541e-05 -5.052525e-05 -5.505432e-05 -6.528990e-05 -6.927296e-05 -7.880294e-05 -8.153565e-05 -8.955015e-05 -9.031055e-05 -9.603529e-05 -9.420551e-05 -9.703449e-05 -9.224732e-05 -9.188769e-05 -8.417132e-05 -8.076690e-05 -7.063991e-05 -6.482092e-05 -5.327807e-05 -4.608528e-05 -3.443630e-05 -2.710760e-05 -1.669413e-05 -1.036984e-05 -2.253186e-06 2.298310e-06 7.578637e-06 1.013262e-05 1.268087e-05 1.358015e-05 1.409997e-05 1.408221e-05 1.358770e-05 1.346224e-05 1.286463e-05 1.316259e-05 1.294539e-05 1.374116e-05 1.386397e-05 1.483314e-05 1.486216e-05 1.555504e-05 1.504623e-05 1.528038e-05 1.423349e-05 1.419576e-05 1.288975e-05 1.286745e-05 1.155554e-05 1.173715e-05 1.053052e-05 1.097950e-05 9.875953e-06 1.058067e-05 9.526322e-06 1.044878e-05 9.381006e-06 1.048298e-05 9.349559e-06 1.060113e-05 9.364697e-06 1.074413e-05 9.380506e-06 1.087149e-05 9.366521e-06 
3.051003e-03 2.716314e-03 2.201538e-03 1.871248e-03 1.344252e-03 1.023844e-03 4.924564e-04 1.876671e-04 -3.391357e-04 -6.222240e-04 -1.134373e-03 -1.389376e-03 -1.875918e-03 -2.096255e-03 -2.545627e-03 -2.724610e-03 -3.124901e-03 -3.255777e-03 -3.594936e-03 -3.670857e-03 -3.936830e-03 -3.950780e-03 -4.131621e-03 -4.076356e-03 -4.160361e-03 -4.028460e-03 -4.004438e-03 -3.788565e-03 -3.646348e-03 -3.339842e-03 -3.071145e-03 -2.669033e-03 -2.268750e-03 -1.769244e-03 -1.237209e-03 -6.436638e-04 1.317155e-05 6.899456e-04 1.455080e-03 2.194389e-03 3.039392e-03 3.808508e-03 4.691160e-03 5.443998e-03 6.307560e-03 6.984858e-03 7.759199e-03 8.290911e-03 8.896164e-03 9.206627e-03 9.559819e-03 9.575869e-03 9.600422e-03 9.261907e-03 8.899101e-03 8.170351e-03 7.390922e-03 6.270902e-03 5.084301e-03 3.612887e-03 2.071796e-03 3.303285e-04 -1.470834e-03 -3.364893e-03 -5.296877e-03 -7.199351e-03 -9.108151e-03 -1.085884e-02 -1.257648e-02 -1.400941e-02 -1.536492e-02 -1.631941e-02 -1.715267e-02 -1.748988e-02 -1.767351e-02 -1.730373e-02 -1.677620e-02 -1.569695e-02 -1.450117e-02 -1.283375e-02 -1.114141e-02 -9.140473e-03 -7.234916e-03 -5.246773e-03 -3.452877e-03 -1.825358e-03 -4.148429e-04 6.007313e-04 1.475894e-03 1.789247e-03 2.122342e-03 1.838174e-03 1.786385e-03 1.198021e-03 1.048507e-03 5.157123e-04 5.564228e-04 3.541202e-04 7.649704e-04 1.009996e-03 1.796445e-03 2.439509e-03 3.446791e-03 4.256897e-03 5.212759e-03 5.861709e-03 6.545440e-03 6.924321e-03 7.320227e-03 7.486518e-03 7.665048e-03 7.693128e-03 7.714125e-03 7.646055e-03 7.544616e-03 7.400856e-03 7.199760e-03 6.994452e-03 6.712417e-03 6.459122e-03 6.112541e-03 5.824271e-03 5.426719e-03 5.114804e-03 4.676852e-03 4.350463e-03 3.880264e-03 3.546692e-03 
5.862530e-03 5.170397e-03 4.255349e-03 3.569914e-03 2.635963e-03 1.968674e-03 1.029035e-03 3.919222e-04 -5.380753e-04 -1.132262e-03 -2.035175e-03 -2.573095e-03 -3.429667e-03 -3.897632e-03 -4.687222e-03 -5.071414e-03 -5.772413e-03 -6.058985e-03 -6.649141e-03 -6.824164e-03 -7.280796e-03 -7.330107e-03 -7.630274e-03 -7.539344e-03 -7.660113e-03 -7.414114e-03 -7.333105e-03 -6.917407e-03 -6.613845e-03 -6.015156e-03 -5.471645e-03 -4.680011e-03 -3.885191e-03 -2.896943e-03 -1.849093e-03 -6.707438e-04 6.177750e-04 1.964920e-03 3.462699e-03 4.937680e-03 6.589392e-03 8.127271e-03 9.849827e-03 1.135898e-02 1.303995e-02 1.440232e-02 1.590211e-02 1.697790e-02 1.813701e-02 1.877495e-02 1.942739e-02 1.948090e-02 1.947347e-02 1.882187e-02 1.803759e-02 1.660926e-02 1.499109e-02 1.278409e-02 1.035363e-02 7.448291e-03 4.314342e-03 8.739243e-04 -2.771933e-03 -6.513040e-03 -1.041230e-02 -1.416876e-02 -1.801771e-02 -2.147537e-02 -2.494637e-02 -2.778200e-02 -3.054234e-02 -3.244308e-02 -3.417743e-02 -3.487043e-02 -3.531925e-02 -3.462404e-02 -3.364796e-02 -3.155364e-02 -2.921567e-02 -2.595761e-02 -2.258401e-02 -1.866460e-02 -1.482457e-02 -1.092411e-02 -7.294620e-03 -4.081992e-03 -1.245516e-03 8.107452e-04 2.525998e-03 3.251919e-03 3.842453e-03 3.406249e-03 3.217323e-03 2.156995e-03 1.768185e-03 7.609830e-04 7.574607e-04 3.674452e-04 1.088811e-03 1.578158e-03 3.049271e-03 4.352795e-03 6.294375e-03 7.953520e-03 9.819804e-03 1.111741e-02 1.243879e-02 1.317549e-02 1.393782e-02 1.425676e-02 1.460924e-02 1.466235e-02 1.471928e-02 1.458364e-02 1.440919e-02 1.412053e-02 1.375792e-02 1.334273e-02 1.282946e-02 1.231472e-02 1.168417e-02 1.109617e-02 1.037575e-02 9.737357e-03 8.947887e-03 8.277603e-03 7.434512e-03 6.747102e-03 
9.125983e-03 8.124681e-03 6.574283e-03 5.585036e-03 3.995607e-03 3.034978e-03 1.430208e-03 5.156183e-04 -1.077201e-03 -1.927251e-03 -3.477471e-03 -4.243594e-03 -5.717909e-03 -6.380194e-03 -7.743526e-03 -8.281853e-03 -9.498174e-03 -9.892335e-03 -1.092529e-02 -1.115487e-02 -1.196817e-02 -1.201229e-02 -1.256996e-02 -1.240698e-02 -1.267369e-02 -1.228128e-02 -1.222307e-02 -1.157890e-02 -1.116458e-02 -1.024796e-02 -9.451652e-03 -8.246590e-03 -7.051540e-03 -5.551176e-03 -3.955109e-03 -2.167687e-03 -1.894414e-04 1.854570e-03 4.167519e-03 6.407858e-03 8.971917e-03 1.131167e-02 1.400108e-02 1.630221e-02 1.894637e-02 2.102974e-02 2.341601e-02 2.506814e-02 2.695256e-02 2.794104e-02 2.906822e-02 2.916645e-02 2.929883e-02 2.831866e-02 2.727222e-02 2.510008e-02 2.278097e-02 1.941023e-02 1.584426e-02 1.139519e-02 6.742057e-03 1.463239e-03 -3.988847e-03 -9.738554e-03 -1.559588e-02 -2.137831e-02 -2.717426e-02 -3.250570e-02 -3.773371e-02 -4.211445e-02 -4.625834e-02 -4.920144e-02 -5.177168e-02 -5.284649e-02 -5.344118e-02 -5.235273e-02 -5.075896e-02 -4.746977e-02 -4.379372e-02 -3.865342e-02 -3.341607e-02 -2.721205e-02 -2.130978e-02 -1.514296e-02 -9.615464e-03 -4.597489e-03 -2.985306e-04 2.778046e-03 5.389707e-03 6.238306e-03 7.134260e-03 6.073351e-03 5.740818e-03 3.735819e-03 3.113276e-03 1.332625e-03 1.330203e-03 6.166481e-04 1.799989e-03 2.489300e-03 4.858443e-03 6.839488e-03 9.937022e-03 1.251209e-02 1.545332e-02 1.741981e-02 1.945411e-02 2.055173e-02 2.171799e-02 2.221075e-02 2.275684e-02 2.286903e-02 2.295738e-02 2.278822e-02 2.250596e-02 2.210199e-02 2.151239e-02 2.091427e-02 2.007542e-02 1.932691e-02 1.829087e-02 1.743400e-02 1.624310e-02 1.531353e-02 1.399989e-02 1.302572e-02 1.161356e-02 1.061675e-02 
1.169604e-02 1.031176e-02 8.476578e-03 7.102862e-03 5.225643e-03 3.885662e-03 1.993115e-03 7.114176e-04 -1.165227e-03 -2.362548e-03 -4.187684e-03 -5.273376e-03 -7.007755e-03 -7.954004e-03 -9.555708e-03 -1.033464e-02 -1.175998e-02 -1.234389e-02 -1.354805e-02 -1.390921e-02 -1.484662e-02 -1.495688e-02 -1.558144e-02 -1.541180e-02 -1.567720e-02 -1.519774e-02 -1.505841e-02 -1.423908e-02 -1.365207e-02 -1.246481e-02 -1.139322e-02 -9.815856e-03 -8.234094e-03 -6.256261e-03 -4.157327e-03 -1.788413e-03 8.069708e-04 3.528224e-03 6.561218e-03 9.556420e-03 1.291963e-02 1.606127e-02 1.959014e-02 2.269518e-02 2.616375e-02 2.899311e-02 3.211730e-02 3.438435e-02 3.683588e-02 3.822672e-02 3.965993e-02 3.986663e-02 3.995858e-02 3.872375e-02 3.722396e-02 3.439070e-02 3.117263e-02 2.672978e-02 2.183213e-02 1.594223e-02 9.587698e-03 2.587857e-03 -4.827709e-03 -1.245357e-02 -2.039845e-02 -2.806626e-02 -3.592238e-02 -4.299659e-02 -5.010420e-02 -5.593527e-02 -6.162541e-02 -6.557927e-02 -6.920638e-02 -7.071008e-02 -7.171657e-02 -7.035663e-02 -6.840279e-02 -6.409535e-02 -5.925157e-02 -5.243955e-02 -4.535802e-02 -3.710077e-02 -2.900890e-02 -2.080192e-02 -1.319824e-02 -6.511265e-03 -6.668384e-04 3.518272e-03 6.921361e-03 8.247030e-03 9.202399e-03 7.978179e-03 7.256826e-03 4.715558e-03 3.596669e-03 1.215469e-03 9.892517e-04 -2.937773e-05 1.302308e-03 2.149730e-03 5.071182e-03 7.757677e-03 1.176881e-02 1.540956e-02 1.930113e-02 2.191153e-02 2.451271e-02 2.589169e-02 2.738004e-02 2.801019e-02 2.874864e-02 2.891737e-02 2.908958e-02 2.888975e-02 2.858781e-02 2.806276e-02 2.736620e-02 2.656784e-02 2.555755e-02 2.454709e-02 2.329620e-02 2.213231e-02 2.069888e-02 1.943043e-02 1.785677e-02 1.652177e-02 1.483814e-02 1.346617e-02 
1.518524e-02 1.351541e-02 1.092104e-02 9.266474e-03 6.599387e-03 4.988133e-03 2.288489e-03 7.503978e-04 -1.935118e-03 -3.368219e-03 -5.987061e-03 -7.281902e-03 -9.777098e-03 -1.089976e-02 -1.321158e-02 -1.412813e-02 -1.619560e-02 -1.687231e-02 -1.863426e-02 -1.903736e-02 -2.043294e-02 -2.052792e-02 -2.149686e-02 -2.124776e-02 -2.173060e-02 -2.109975e-02 -2.103865e-02 -1.998749e-02 -1.932833e-02 -1.781991e-02 -1.651620e-02 -1.451999e-02 -1.253918e-02 -1.003858e-02 -7.371060e-03 -4.373610e-03 -1.044136e-03 2.406043e-03 6.324999e-03 1.013359e-02 1.450823e-02 1.851790e-02 2.314151e-02 2.712277e-02 3.170932e-02 3.535875e-02 3.954593e-02 4.249588e-02 4.586163e-02 4.770544e-02 4.980129e-02 5.013586e-02 5.053792e-02 4.902195e-02 4.739533e-02 4.381574e-02 3.998230e-02 3.431513e-02 2.830912e-02 2.075769e-02 1.285251e-02 3.849039e-03 -5.454784e-03 -1.528644e-02 -2.530826e-02 -3.521492e-02 -4.515779e-02 -5.432046e-02 -6.332952e-02 -7.090986e-02 -7.811473e-02 -8.328724e-02 -8.784329e-02 -8.984475e-02 -9.101469e-02 -8.926284e-02 -8.658762e-02 -8.090629e-02 -7.447086e-02 -6.537926e-02 -5.606281e-02 -4.495180e-02 -3.442275e-02 -2.336465e-02 -1.361618e-02 -4.728650e-03 2.674994e-03 7.945037e-03 1.227268e-02 1.340812e-02 1.457415e-02 1.207927e-02 1.092012e-02 6.759914e-03 5.164415e-03 1.626518e-03 1.223125e-03 -2.883333e-04 1.540646e-03 2.478371e-03 6.407966e-03 9.801557e-03 1.517253e-02 2.004397e-02 2.520431e-02 2.846393e-02 3.175551e-02 3.342395e-02 3.532419e-02 3.616423e-02 3.715533e-02 3.746829e-02 3.772317e-02 3.756462e-02 3.717251e-02 3.658233e-02 3.564501e-02 3.469640e-02 3.332403e-02 3.210445e-02 3.039466e-02 2.898442e-02 2.701242e-02 2.547559e-02 2.329524e-02 2.167987e-02 1.933017e-02 1.767264e-02 
1.750057e-02 1.542084e-02 1.265882e-02 1.058725e-02 7.751350e-03 5.723493e-03 2.854555e-03 9.085977e-04 -1.944986e-03 -3.768267e-03 -6.551169e-03 -8.209323e-03 -1.086076e-02 -1.231085e-02 -1.476631e-02 -1.596586e-02 -1.815865e-02 -1.906601e-02 -2.092821e-02 -2.150216e-02 -2.296502e-02 -2.316385e-02 -2.415780e-02 -2.393824e-02 -2.439295e-02 -2.370954e-02 -2.355479e-02 -2.236057e-02 -2.152864e-02 -1.977788e-02 -1.820828e-02 -1.586204e-02 -1.350928e-02 -1.054434e-02 -7.388976e-03 -3.810153e-03 1.269005e-04 4.271491e-03 8.912238e-03 1.351428e-02 1.870626e-02 2.358098e-02 2.908202e-02 3.395602e-02 3.942507e-02 4.393280e-02 4.893204e-02 5.262613e-02 5.663976e-02 5.902050e-02 6.149503e-02 6.206202e-02 6.246969e-02 6.079437e-02 5.871549e-02 5.452576e-02 4.973700e-02 4.299652e-02 3.554409e-02 2.650254e-02 1.673591e-02 5.929868e-03 -5.519947e-03 -1.732070e-02 -2.961327e-02 -4.149482e-02 -5.367372e-02 -6.466556e-02 -7.573405e-02 -8.486271e-02 -9.381969e-02 -1.001268e-01 -1.059806e-01 -1.085493e-01 -1.103733e-01 -1.084466e-01 -1.055635e-01 -9.883010e-02 -9.116806e-02 -8.018224e-02 -6.868480e-02 -5.516587e-02 -4.191442e-02 -2.850656e-02 -1.618611e-02 -5.497010e-03 3.680952e-03 1.011735e-02 1.512743e-02 1.683067e-02 1.765849e-02 1.487357e-02 1.293964e-02 8.104009e-03 5.602232e-03 1.165974e-03 3.823788e-04 -1.675264e-03 7.131848e-05 8.772999e-04 5.057551e-03 9.075714e-03 1.526657e-02 2.179739e-02 2.807910e-02 3.181742e-02 3.552496e-02 3.732188e-02 3.954437e-02 4.058425e-02 4.187602e-02 4.236717e-02 4.281210e-02 4.271234e-02 4.237793e-02 4.171373e-02 4.073158e-02 3.960210e-02 3.812137e-02 3.664454e-02 3.479277e-02 3.307215e-02 3.094283e-02 2.905789e-02 2.671426e-02 2.472313e-02 2.220804e-02 2.015445e-02 
2.123107e-02 1.888959e-02 1.523739e-02 1.290646e-02 9.135663e-03 6.855644e-03 3.024135e-03 8.387615e-04 -2.985311e-03 -5.029149e-03 -8.768898e-03 -1.062240e-02 -1.419478e-02 -1.580877e-02 -1.912740e-02 -2.045347e-02 -2.343102e-02 -2.442194e-02 -2.697163e-02 -2.758074e-02 -2.961688e-02 -2.979674e-02 -3.123457e-02 -3.093534e-02 -3.169071e-02 -3.085902e-02 -3.084878e-02 -2.942812e-02 -2.857232e-02 -2.650590e-02 -2.473268e-02 -2.196980e-02 -1.922395e-02 -1.573046e-02 -1.198616e-02 -7.759270e-03 -3.036922e-03 1.876143e-03 7.489732e-03 1.297066e-02 1.930081e-02 2.513935e-02 3.190394e-02 3.778140e-02 4.457799e-02 5.006060e-02 5.636648e-02 6.091542e-02 6.610763e-02 6.911254e-02 7.251428e-02 7.335521e-02 7.431154e-02 7.244862e-02 7.042731e-02 6.550793e-02 6.021021e-02 5.217138e-02 4.362592e-02 3.276052e-02 2.136921e-02 8.327496e-03 -5.158339e-03 -1.943903e-02 -3.400654e-02 -4.841733e-02 -6.290747e-02 -7.627802e-02 -8.947958e-02 -1.006402e-01 -1.113333e-01 -1.191243e-01 -1.260910e-01 -1.293712e-01 -1.314492e-01 -1.292096e-01 -1.255106e-01 -1.172155e-01 -1.075943e-01 -9.375659e-02 -7.940434e-02 -6.210150e-02 -4.576700e-02 -2.849156e-02 -1.368312e-02 -1.043251e-04 1.063514e-02 1.826847e-02 2.424252e-02 2.524855e-02 2.622233e-02 2.098801e-02 1.799843e-02 1.039005e-02 7.153158e-03 1.242183e-03 -9.946055e-05 -2.674457e-03 -2.620081e-04 3.715408e-04 5.593123e-03 1.004118e-02 1.764832e-02 2.617009e-02 3.395645e-02 3.802676e-02 4.229344e-02 4.430992e-02 4.708949e-02 4.855222e-02 5.029463e-02 5.113612e-02 5.177455e-02 5.183639e-02 5.144174e-02 5.077194e-02 4.953422e-02 4.828709e-02 4.640746e-02 4.474651e-02 4.238506e-02 4.044292e-02 3.771070e-02 3.558346e-02 3.255336e-02 3.030835e-02 2.703025e-02 2.471673e-02 
2.328056e-02 2.050040e-02 1.680177e-02 1.401719e-02 1.019867e-02 7.458812e-03 3.576753e-03 9.354645e-04 -2.942302e-03 -5.427211e-03 -9.222946e-03 -1.149162e-02 -1.512038e-02 -1.711308e-02 -2.048566e-02 -2.214446e-02 -2.516972e-02 -2.643901e-02 -2.902528e-02 -2.985106e-02 -3.190628e-02 -3.223434e-02 -3.366543e-02 -3.343901e-02 -3.415112e-02 -3.330910e-02 -3.320572e-02 -3.168246e-02 -3.066763e-02 -2.839575e-02 -2.637963e-02 -2.329685e-02 -2.020561e-02 -1.626659e-02 -1.205747e-02 -7.250885e-03 -1.932205e-03 3.697332e-03 1.004185e-02 1.636860e-02 2.355346e-02 3.034512e-02 3.805831e-02 4.495481e-02 5.274015e-02 5.924337e-02 6.649746e-02 7.197985e-02 7.797235e-02 8.171334e-02 8.563950e-02 8.689679e-02 8.796746e-02 8.608424e-02 8.365043e-02 7.818800e-02 7.188218e-02 6.275091e-02 5.261037e-02 4.015730e-02 2.668379e-02 1.169486e-02 -4.184571e-03 -2.058286e-02 -3.764984e-02 -5.415537e-02 -7.107257e-02 -8.636315e-02 -1.018019e-01 -1.146085e-01 -1.272757e-01 -1.363538e-01 -1.449346e-01 -1.489990e-01 -1.521221e-01 -1.499062e-01 -1.463218e-01 -1.369756e-01 -1.261349e-01 -1.100424e-01 -9.300029e-02 -7.263727e-02 -5.264018e-02 -3.248634e-02 -1.420412e-02 1.188777e-03 1.404557e-02 2.270725e-02 2.905944e-02 3.094016e-02 3.069205e-02 2.483503e-02 2.079043e-02 1.268963e-02 7.946379e-03 6.503297e-04 -7.623895e-04 -4.116325e-03 -2.080949e-03 -2.302468e-03 2.418682e-03 6.669601e-03 1.436371e-02 2.615118e-02 3.547648e-02 3.907974e-02 4.349929e-02 4.560701e-02 4.903112e-02 5.108701e-02 5.345541e-02 5.476127e-02 5.575616e-02 5.600783e-02 5.574431e-02 5.504755e-02 5.381430e-02 5.240091e-02 5.047055e-02 4.855642e-02 4.612800e-02 4.387483e-02 4.107691e-02 3.859590e-02 3.550704e-02 3.287390e-02 2.954385e-02 2.681388e-02 
2.728674e-02 2.426927e-02 1.953977e-02 1.651585e-02 1.160319e-02 8.627076e-03 3.609190e-03 7.410332e-04 -4.288956e-03 -6.984298e-03 -1.192117e-02 -1.437666e-02 -1.910749e-02 -2.125667e-02 -2.566534e-02 -2.744437e-02 -3.141516e-02 -3.276344e-02 -3.618307e-02 -3.704216e-02 -3.980010e-02 -4.011119e-02 -4.209855e-02 -4.179920e-02 -4.290711e-02 -4.192850e-02 -4.204726e-02 -4.031322e-02 -3.933367e-02 -3.676322e-02 -3.458196e-02 -3.109663e-02 -2.762642e-02 -2.316353e-02 -1.834980e-02 -1.288229e-02 -6.725986e-03 -2.883251e-04 7.125685e-03 1.440704e-02 2.287832e-02 3.075316e-02 3.993485e-02 4.800146e-02 5.737652e-02 6.506548e-02 7.393885e-02 8.051850e-02 8.803612e-02 9.265108e-02 9.785710e-02 9.961022e-02 1.015508e-01 9.963203e-02 9.750370e-02 9.135511e-02 8.467860e-02 7.416163e-02 6.293731e-02 4.844757e-02 3.323473e-02 1.570576e-02 -2.420694e-03 -2.164664e-02 -4.125770e-02 -6.064292e-02 -8.016413e-02 -9.816864e-02 -1.160357e-01 -1.312006e-01 -1.458937e-01 -1.567904e-01 -1.667565e-01 -1.718675e-01 -1.754428e-01 -1.731557e-01 -1.687298e-01 -1.577430e-01 -1.444787e-01 -1.248392e-01 -1.039642e-01 -7.839686e-02 -5.421790e-02 -2.846251e-02 -7.308872e-03 1.214018e-02 2.601923e-02 3.596819e-02 4.331479e-02 4.370071e-02 4.399072e-02 3.343720e-02 2.680612e-02 1.389130e-02 8.979140e-03 8.051460e-04 -2.272115e-03 -5.544480e-03 -1.888507e-03 -2.806590e-03 2.926316e-03 6.040652e-03 1.411592e-02 2.937992e-02 4.002974e-02 4.263620e-02 4.776040e-02 5.067653e-02 5.545382e-02 5.866076e-02 6.190868e-02 6.390490e-02 6.520401e-02 6.572327e-02 6.538623e-02 6.471003e-02 6.317981e-02 6.166234e-02 5.928954e-02 5.721117e-02 5.422628e-02 5.177880e-02 4.832047e-02 4.562808e-02 4.177784e-02 3.892178e-02 3.473239e-02 3.177090e-02 
2.906599e-02 2.557857e-02 2.093037e-02 1.741070e-02 1.257570e-02 9.088773e-03 4.141408e-03 7.601026e-04 -4.208552e-03 -7.405584e-03 -1.229109e-02 -1.522306e-02 -1.991228e-02 -2.250008e-02 -2.687589e-02 -2.904487e-02 -3.298980e-02 -3.467064e-02 -3.806863e-02 -3.919605e-02 -4.193212e-02 -4.244155e-02 -4.439993e-02 -4.422315e-02 -4.528476e-02 -4.434585e-02 -4.438668e-02 -4.259995e-02 -4.149211e-02 -3.876402e-02 -3.638127e-02 -3.261788e-02 -2.884724e-02 -2.396875e-02 -1.872940e-02 -1.269236e-02 -5.962130e-03 1.210843e-03 9.362099e-03 1.754677e-02 2.691928e-02 3.585190e-02 4.607796e-02 5.532070e-02 6.583346e-02 7.475182e-02 8.477095e-02 9.253459e-02 1.010820e-01 1.067032e-01 1.126637e-01 1.150878e-01 1.173281e-01 1.155828e-01 1.131310e-01 1.065280e-01 9.879393e-02 8.714207e-02 7.412526e-02 5.788633e-02 4.028662e-02 2.058727e-02 -2.587216e-04 -2.180267e-02 -4.416752e-02 -6.575754e-02 -8.784561e-02 -1.077856e-01 -1.279610e-01 -1.447697e-01 -1.615666e-01 -1.738556e-01 -1.857726e-01 -1.919648e-01 -1.971852e-01 -1.953273e-01 -1.917022e-01 -1.798474e-01 -1.656738e-01 -1.433104e-01 -1.191411e-01 -8.935352e-02 -5.990810e-02 -3.031098e-02 -3.960843e-03 1.679131e-02 3.329862e-02 4.320846e-02 5.006179e-02 5.257360e-02 4.897246e-02 3.633572e-02 2.992999e-02 1.889567e-02 1.094068e-02 3.076639e-04 -3.260707e-04 -4.214083e-03 -1.638262e-03 -4.665141e-03 -5.964569e-04 -7.218693e-04 4.057179e-03 2.542284e-02 3.777165e-02 3.699260e-02 4.300494e-02 4.762764e-02 5.446196e-02 5.938052e-02 6.376758e-02 6.658193e-02 6.831038e-02 6.907592e-02 6.885177e-02 6.813929e-02 6.661928e-02 6.492751e-02 6.255139e-02 6.022117e-02 5.725010e-02 5.449601e-02 5.107507e-02 4.802937e-02 4.423714e-02 4.098463e-02 3.686764e-02 3.347019e-02 
3.340875e-02 2.970932e-02 2.387667e-02 2.013582e-02 1.402860e-02 1.031737e-02 4.037670e-03 4.367860e-04 -5.891715e-03 -9.294801e-03 -1.553241e-02 -1.864819e-02 -2.464637e-02 -2.738804e-02 -3.299640e-02 -3.528330e-02 -4.035504e-02 -4.211369e-02 -4.650824e-02 -4.767049e-02 -5.125326e-02 -5.175195e-02 -5.439148e-02 -5.415458e-02 -5.571860e-02 -5.466349e-02 -5.501546e-02 -5.304547e-02 -5.204400e-02 -4.904936e-02 -4.655261e-02 -4.241799e-02 -3.829519e-02 -3.291542e-02 -2.706703e-02 -2.037224e-02 -1.275934e-02 -4.749264e-03 4.568180e-03 1.378211e-02 2.460074e-02 3.474918e-02 4.667582e-02 5.728732e-02 6.969861e-02 8.006719e-02 9.208641e-02 1.012647e-01 1.117718e-01 1.186074e-01 1.263017e-01 1.295367e-01 1.330691e-01 1.315165e-01 1.297005e-01 1.224917e-01 1.145709e-01 1.014293e-01 8.733743e-02 6.878397e-02 4.928966e-02 2.666002e-02 3.294880e-03 -2.149447e-02 -4.673185e-02 -7.158275e-02 -9.660930e-02 -1.195885e-01 -1.425077e-01 -1.619704e-01 -1.810973e-01 -1.955382e-01 -2.091644e-01 -2.168451e-01 -2.228556e-01 -2.214420e-01 -2.171390e-01 -2.039208e-01 -1.868614e-01 -1.603632e-01 -1.308548e-01 -9.384331e-02 -5.815300e-02 -1.988149e-02 9.859962e-03 3.687697e-02 5.193935e-02 6.291026e-02 7.041914e-02 7.004573e-02 6.979240e-02 4.784604e-02 3.328271e-02 1.339673e-02 1.080651e-02 4.521574e-03 -2.752954e-03 -5.614127e-03 2.676163e-03 -1.158514e-03 4.386931e-03 6.725312e-04 2.838142e-03 2.171559e-02 2.945129e-02 2.903778e-02 4.101497e-02 5.045649e-02 6.064812e-02 6.787280e-02 7.332232e-02 7.691233e-02 7.875391e-02 7.968599e-02 7.923008e-02 7.847065e-02 7.657013e-02 7.475973e-02 7.189990e-02 6.942500e-02 6.586612e-02 6.295344e-02 5.882958e-02 5.561274e-02 5.099348e-02 4.755613e-02 4.248525e-02 3.888870e-02 
3.492613e-02 3.072180e-02 2.510691e-02 2.082065e-02 1.492272e-02 1.063935e-02 4.555386e-03 3.722280e-04 -5.777421e-03 -9.754981e-03 -1.583261e-02 -1.949749e-02 -2.535572e-02 -2.860551e-02 -3.409474e-02 -3.683630e-02 -4.181019e-02 -4.396114e-02 -4.827890e-02 -4.976543e-02 -5.329067e-02 -5.404193e-02 -5.663856e-02 -5.657904e-02 -5.810576e-02 -5.714753e-02 -5.745306e-02 -5.549038e-02 -5.441187e-02 -5.132077e-02 -4.868807e-02 -4.433349e-02 -3.998161e-02 -3.423409e-02 -2.802574e-02 -2.078908e-02 -1.264818e-02 -3.898108e-03 6.146205e-03 1.631377e-02 2.807485e-02 3.938971e-02 5.246763e-02 6.443185e-02 7.816220e-02 9.000766e-02 1.034274e-01 1.140996e-01 1.259478e-01 1.341371e-01 1.429148e-01 1.471597e-01 1.512752e-01 1.501611e-01 1.481782e-01 1.406339e-01 1.316103e-01 1.172573e-01 1.010985e-01 8.053668e-02 5.821540e-02 3.307280e-02 6.541264e-03 -2.083168e-02 -4.909018e-02 -7.619573e-02 -1.037792e-01 -1.285058e-01 -1.535179e-01 -1.743392e-01 -1.953896e-01 -2.111084e-01 -2.268743e-01 -2.359573e-01 -2.444348e-01 -2.442172e-01 -2.420650e-01 -2.286625e-01 -2.118320e-01 -1.822022e-01 -1.490861e-01 -1.057552e-01 -6.217309e-02 -1.781269e-02 2.086182e-02 4.749559e-02 6.654630e-02 7.277411e-02 7.775675e-02 8.450908e-02 6.947037e-02 3.695082e-02 3.361340e-02 3.080838e-02 1.441742e-02 2.162002e-03 1.179373e-02 6.362412e-03 7.776050e-03 3.303789e-03 3.749375e-03 -6.895102e-04 8.391752e-04 -5.080722e-03 -8.420465e-03 4.814048e-03 2.820159e-02 4.583251e-02 5.976476e-02 6.938146e-02 7.554233e-02 7.964697e-02 8.147914e-02 8.241249e-02 8.187128e-02 8.097133e-02 7.904879e-02 7.704240e-02 7.423644e-02 7.152214e-02 6.807939e-02 6.487925e-02 6.091739e-02 5.735911e-02 5.293300e-02 4.909718e-02 4.423790e-02 4.018689e-02 
3.970345e-02 3.531289e-02 2.834255e-02 2.385030e-02 1.647709e-02 1.197592e-02 4.332703e-03 -6.952757e-05 -7.820015e-03 -1.200620e-02 -1.968064e-02 -2.353238e-02 -3.093817e-02 -3.434369e-02 -4.128980e-02 -4.414966e-02 -5.045463e-02 -5.268348e-02 -5.817901e-02 -5.970270e-02 -6.423232e-02 -6.498076e-02 -6.839422e-02 -6.829145e-02 -7.043683e-02 -6.939071e-02 -7.010661e-02 -6.800102e-02 -6.711223e-02 -6.380488e-02 -6.112438e-02 -5.645322e-02 -5.179379e-02 -4.559457e-02 -3.879202e-02 -3.092881e-02 -2.187848e-02 -1.228745e-02 -9.937424e-04 1.026074e-02 2.362397e-02 3.628466e-02 5.130747e-02 6.485763e-02 8.082965e-02 9.443564e-02 1.102978e-01 1.227781e-01 1.371110e-01 1.469579e-01 1.580370e-01 1.635231e-01 1.694750e-01 1.688819e-01 1.679706e-01 1.599508e-01 1.509858e-01 1.350122e-01 1.177899e-01 9.453865e-02 7.012330e-02 4.154471e-02 1.216347e-02 -1.893964e-02 -5.044222e-02 -8.117753e-02 -1.120438e-01 -1.400472e-01 -1.680830e-01 -1.917040e-01 -2.153055e-01 -2.333458e-01 -2.510751e-01 -2.620557e-01 -2.717653e-01 -2.728319e-01 -2.705368e-01 -2.568090e-01 -2.369525e-01 -2.033870e-01 -1.628070e-01 -1.099496e-01 -5.587835e-02 2.692544e-03 4.658464e-02 8.495052e-02 9.455874e-02 1.013225e-01 1.037884e-01 1.013300e-01 1.055231e-01 5.442652e-02 1.488452e-02 3.965700e-03 1.729732e-02 9.039939e-03 7.692098e-05 -5.282643e-03 -5.669799e-03 -8.662441e-03 -3.863193e-03 -5.362470e-03 2.012472e-03 -1.751433e-02 -1.435485e-02 1.306587e-02 3.966689e-02 6.034355e-02 7.353258e-02 8.320668e-02 8.835596e-02 9.212741e-02 9.325755e-02 9.392954e-02 9.289218e-02 9.182171e-02 8.946312e-02 8.733800e-02 8.405601e-02 8.124252e-02 7.722162e-02 7.392091e-02 6.924122e-02 6.556800e-02 6.026370e-02 5.629104e-02 5.038590e-02 4.617298e-02 
4.098791e-02 3.605148e-02 2.944578e-02 2.434766e-02 1.732314e-02 1.217441e-02 4.857797e-03 -2.115430e-04 -7.661560e-03 -1.251054e-02 -1.991325e-02 -2.440041e-02 -3.156534e-02 -3.555915e-02 -4.229763e-02 -4.568400e-02 -5.181755e-02 -5.450232e-02 -5.986574e-02 -6.177124e-02 -6.621000e-02 -6.726613e-02 -7.062886e-02 -7.076038e-02 -7.288862e-02 -7.200175e-02 -7.271990e-02 -7.069140e-02 -6.980057e-02 -6.647322e-02 -6.375240e-02 -5.894022e-02 -5.415839e-02 -4.766476e-02 -4.060644e-02 -3.225715e-02 -2.276330e-02 -1.245532e-02 -4.795282e-04 1.175563e-02 2.607761e-02 3.999957e-02 5.627156e-02 7.135259e-02 8.883945e-02 1.041931e-01 1.217558e-01 1.360907e-01 1.521571e-01 1.637844e-01 1.763902e-01 1.833249e-01 1.902716e-01 1.904772e-01 1.896559e-01 1.814665e-01 1.713656e-01 1.540550e-01 1.343677e-01 1.086890e-01 8.076811e-02 4.912531e-02 1.590467e-02 -1.816709e-02 -5.298766e-02 -8.591699e-02 -1.190485e-01 -1.482195e-01 -1.775678e-01 -2.016742e-01 -2.263254e-01 -2.449656e-01 -2.644800e-01 -2.769926e-01 -2.900275e-01 -2.935725e-01 -2.957525e-01 -2.836209e-01 -2.669200e-01 -2.304864e-01 -1.876014e-01 -1.248723e-01 -5.958088e-02 1.109440e-02 7.233429e-02 1.076137e-01 1.280822e-01 1.139897e-01 1.165710e-01 1.319246e-01 7.627203e-02 1.780092e-02 2.882916e-02 7.772434e-03 -3.477011e-02 -4.200539e-02 -3.450547e-02 -3.684597e-02 -2.062715e-02 -2.011199e-02 -1.043897e-02 -1.236927e-02 -3.899731e-03 -9.577922e-03 1.152543e-02 4.141648e-02 5.901627e-02 7.432896e-02 8.208651e-02 8.926803e-02 9.217582e-02 9.497348e-02 9.525694e-02 9.553259e-02 9.424573e-02 9.297525e-02 9.064756e-02 8.836539e-02 8.526232e-02 8.226719e-02 7.851185e-02 7.497217e-02 7.061176e-02 6.662594e-02 6.167350e-02 5.730788e-02 5.177124e-02 4.708543e-02 
4.634834e-02 4.125033e-02 3.309444e-02 2.780037e-02 1.906432e-02 1.369638e-02 4.553723e-03 -7.434315e-04 -1.007845e-02 -1.514755e-02 -2.443462e-02 -2.911876e-02 -3.810902e-02 -4.226456e-02 -5.071719e-02 -5.422307e-02 -6.191732e-02 -6.467816e-02 -7.141827e-02 -7.335998e-02 -7.897213e-02 -8.003066e-02 -8.435305e-02 -8.445841e-02 -8.732720e-02 -8.638614e-02 -8.762089e-02 -8.550234e-02 -8.489536e-02 -8.142288e-02 -7.873682e-02 -7.369212e-02 -6.866988e-02 -6.181115e-02 -5.420155e-02 -4.529905e-02 -3.490041e-02 -2.379082e-02 -1.051313e-02 2.828231e-03 1.888417e-02 3.425627e-02 5.270724e-02 6.958789e-02 8.967236e-02 1.071257e-01 1.276181e-01 1.442244e-01 1.633839e-01 1.772241e-01 1.928196e-01 2.015667e-01 2.110362e-01 2.122241e-01 2.130407e-01 2.045738e-01 1.948540e-01 1.757415e-01 1.550023e-01 1.260967e-01 9.583093e-02 6.007240e-02 2.362860e-02 -1.471177e-02 -5.315837e-02 -9.000485e-02 -1.267485e-01 -1.592680e-01 -1.918593e-01 -2.186379e-01 -2.458725e-01 -2.665786e-01 -2.879712e-01 -3.023453e-01 -3.168922e-01 -3.225977e-01 -3.256522e-01 -3.153143e-01 -2.964602e-01 -2.584736e-01 -2.059319e-01 -1.332538e-01 -4.908080e-02 4.383275e-02 1.183116e-01 1.808131e-01 1.707848e-01 1.709178e-01 1.716299e-01 6.848580e-02 2.180808e-02 1.934487e-02 -6.125656e-02 -9.399806e-02 -4.899482e-02 -4.424103e-02 -2.458464e-02 -1.685484e-02 -3.798307e-03 -9.192170e-03 1.956576e-03 -5.398919e-03 4.248067e-03 5.768447e-04 3.666706e-02 7.890762e-02 8.740704e-02 9.782117e-02 1.000466e-01 1.047421e-01 1.055114e-01 1.073720e-01 1.068534e-01 1.068117e-01 1.051648e-01 1.038086e-01 1.012044e-01 9.891531e-02 9.546221e-02 9.247459e-02 8.821761e-02 8.466994e-02 7.961366e-02 7.558882e-02 6.972373e-02 6.527981e-02 5.860641e-02 5.379987e-02 
4.745806e-02 4.176325e-02 3.413027e-02 2.815440e-02 1.991537e-02 1.380513e-02 5.126816e-03 -9.432605e-04 -9.850699e-03 -1.569105e-02 -2.458972e-02 -3.001257e-02 -3.865594e-02 -4.349196e-02 -5.164292e-02 -5.575345e-02 -6.319708e-02 -6.647838e-02 -7.302636e-02 -7.540452e-02 -8.089033e-02 -8.230725e-02 -8.657343e-02 -8.696688e-02 -8.984747e-02 -8.912902e-02 -9.043161e-02 -8.846748e-02 -8.795957e-02 -8.455931e-02 -8.196418e-02 -7.688204e-02 -7.188852e-02 -6.484166e-02 -5.713190e-02 -4.783862e-02 -3.713639e-02 -2.537598e-02 -1.151635e-02 2.790125e-03 1.977131e-02 3.646262e-02 5.622361e-02 7.478875e-02 9.656900e-02 1.160373e-01 1.385500e-01 1.573996e-01 1.787529e-01 1.948695e-01 2.125589e-01 2.233038e-01 2.343479e-01 2.368221e-01 2.381450e-01 2.297553e-01 2.189124e-01 1.982775e-01 1.744906e-01 1.424777e-01 1.075994e-01 6.784301e-02 2.643100e-02 -1.551916e-02 -5.769343e-02 -9.653415e-02 -1.348040e-01 -1.672680e-01 -1.994430e-01 -2.247975e-01 -2.509501e-01 -2.704231e-01 -2.919538e-01 -3.072565e-01 -3.253609e-01 -3.353210e-01 -3.460578e-01 -3.410318e-01 -3.310617e-01 -2.925427e-01 -2.436160e-01 -1.563628e-01 -6.143737e-02 5.809326e-02 1.626819e-01 2.206533e-01 2.459594e-01 1.897047e-01 8.892359e-02 6.377037e-02 6.734504e-03 -1.172071e-01 -1.200683e-01 -6.516198e-02 -2.462271e-02 -1.665016e-02 1.703903e-03 -3.346999e-03 6.080938e-03 -5.794980e-04 5.666576e-03 -2.157452e-03 4.624650e-03 -1.076691e-02 2.008889e-02 7.298433e-02 8.366238e-02 9.681453e-02 9.882313e-02 1.038495e-01 1.042761e-01 1.061773e-01 1.056172e-01 1.056443e-01 1.041876e-01 1.029034e-01 1.006296e-01 9.836538e-02 9.532865e-02 9.228512e-02 8.850091e-02 8.479694e-02 8.025132e-02 7.595916e-02 7.062790e-02 6.580177e-02 5.967150e-02 5.437054e-02 