# vtk DataFile Version 2.0
Comment goes here
ASCII

DATASET STRUCTURED_POINTS
DIMENSIONS    128   128   1

ORIGIN    0.000   0.000   0.000
SPACING   0.0156250.015625   1.000

POINT_DATA   16384
SCALARS uY double
LOOKUP_TABLE default

4.611363e-05 3.988772e-05 5.001703e-05 4.333158e-05 5.372138e-05 4.661303e-05 5.715992e-05 4.967499e-05 6.026767e-05 5.246458e-05 6.298690e-05 5.493901e-05 6.527373e-05 5.707192e-05 6.710474e-05 5.885952e-05 6.848306e-05 6.032552e-05 6.944283e-05 6.152415e-05 7.005146e-05 6.254047e-05 7.040872e-05 6.348760e-05 7.064266e-05 6.450046e-05 7.090192e-05 6.572627e-05 7.134473e-05 6.731207e-05 7.212523e-05 6.939001e-05 7.337762e-05 7.206121e-05 7.519931e-05 7.537914e-05 7.763382e-05 7.933365e-05 8.065469e-05 8.383643e-05 8.415108e-05 8.870894e-05 8.791637e-05 9.367374e-05 9.164057e-05 9.835030e-05 9.490792e-05 1.022564e-04 9.720103e-05 1.048166e-04 9.791303e-05 1.053792e-04 9.636893e-05 1.032417e-04 9.185662e-05 9.768660e-05 8.366749e-05 8.802545e-05 7.114673e-05 7.365399e-05 5.375471e-05 5.412004e-05 3.114440e-05 2.921115e-05 3.261137e-06 -9.330774e-07 -2.953240e-05 -3.568724e-05 -6.631701e-05 -7.380618e-05 -1.054950e-04 -1.133326e-04 -1.447358e-04 -1.516009e-04 -1.810459e-04 -1.853879e-04 -2.110103e-04 -2.112468e-04 -2.312271e-04 -2.260261e-04 -2.389180e-04 -2.275290e-04 -2.326262e-04 -2.151857e-04 -2.128238e-04 -1.905227e-04 -1.821662e-04 -1.571566e-04 -1.451396e-04 -1.201161e-04 -1.070369e-04 -8.456799e-05 -7.257011e-05 -5.444200e-05 -4.475453e-05 -3.165388e-05 -2.452539e-05 -1.615899e-05 -1.115493e-05 -6.615686e-06 -3.034554e-06 -1.207358e-06 1.649816e-06 1.803615e-06 4.524191e-06 3.787674e-06 6.796337e-06 5.589824e-06 9.132430e-06 7.599517e-06 1.179474e-05 9.936881e-06 1.483338e-05 1.260137e-05 1.821172e-05 1.554943e-05 2.186584e-05 1.872693e-05 2.572833e-05 2.208097e-05 2.973630e-05 2.556320e-05 3.383252e-05 2.912915e-05 3.796338e-05 3.273567e-05 4.207569e-05 3.633804e-05 
9.509883e-03 8.788738e-03 7.866511e-03 7.120101e-03 6.174486e-03 5.420811e-03 4.468891e-03 3.726568e-03 2.787170e-03 2.075528e-03 1.169076e-03 5.078627e-04 -3.441308e-04 -9.352750e-04 -1.710920e-03 -2.213072e-03 -2.890854e-03 -3.286366e-03 -3.845819e-03 -4.118729e-03 -4.540945e-03 -4.677210e-03 -4.945200e-03 -4.932788e-03 -5.031740e-03 -4.860706e-03 -4.778300e-03 -4.440992e-03 -4.167918e-03 -3.659519e-03 -3.190396e-03 -2.509963e-03 -1.844780e-03 -9.968994e-04 -1.430571e-04 8.598740e-04 1.885001e-03 3.020011e-03 4.186214e-03 5.416841e-03 6.678353e-03 7.952133e-03 9.245685e-03 1.049280e-02 1.173728e-02 1.287130e-02 1.396991e-02 1.489152e-02 1.573723e-02 1.634160e-02 1.682614e-02 1.701376e-02 1.703963e-02 1.672958e-02 1.622323e-02 1.536620e-02 1.428952e-02 1.287731e-02 1.123405e-02 9.302487e-03 7.137370e-03 4.761415e-03 2.152423e-03 -5.642165e-04 -3.516495e-03 -6.451858e-03 -9.631658e-03 -1.264994e-02 -1.592505e-02 -1.887131e-02 -2.208155e-02 -2.476854e-02 -2.770873e-02 -2.990491e-02 -3.231478e-02 -3.374925e-02 -3.532805e-02 -3.572965e-02 -3.619146e-02 -3.536926e-02 -3.453736e-02 -3.248454e-02 -3.039414e-02 -2.736822e-02 -2.432280e-02 -2.084485e-02 -1.737896e-02 -1.412144e-02 -1.086119e-02 -8.440921e-03 -5.885796e-03 -4.616008e-03 -2.907099e-03 -2.638864e-03 -1.511338e-03 -1.769859e-03 -7.899653e-04 -1.071850e-03 1.338851e-04 2.138647e-04 1.797020e-03 2.440294e-03 4.335814e-03 5.502817e-03 7.459011e-03 8.851616e-03 1.053192e-02 1.181861e-02 1.304827e-02 1.405672e-02 1.482617e-02 1.551345e-02 1.588503e-02 1.626814e-02 1.631763e-02 1.643522e-02 1.623150e-02 1.612793e-02 1.572814e-02 1.544618e-02 1.489548e-02 1.447276e-02 1.380552e-02 1.327343e-02 1.251550e-02 1.189974e-02 1.107096e-02 1.039303e-02 
1.850865e-02 1.703385e-02 1.538743e-02 1.385547e-02 1.217522e-02 1.062302e-02 8.938966e-03 7.404900e-03 5.750152e-03 4.274190e-03 2.684872e-03 1.307897e-03 -1.776450e-04 -1.414957e-03 -2.757362e-03 -3.815834e-03 -4.976040e-03 -5.819170e-03 -6.759598e-03 -7.354426e-03 -8.039898e-03 -8.357497e-03 -8.755891e-03 -8.771573e-03 -8.854355e-03 -8.547810e-03 -8.290703e-03 -7.646416e-03 -7.030551e-03 -6.038871e-03 -5.052756e-03 -3.711971e-03 -2.354548e-03 -6.741963e-04 1.040902e-03 3.035479e-03 5.074628e-03 7.336763e-03 9.640487e-03 1.209638e-02 1.457381e-02 1.711753e-02 1.964253e-02 2.213337e-02 2.454391e-02 2.680796e-02 2.891072e-02 3.074845e-02 3.233008e-02 3.353122e-02 3.437699e-02 3.474267e-02 3.466122e-02 3.403085e-02 3.288133e-02 3.115930e-02 2.887468e-02 2.604968e-02 2.264889e-02 1.879921e-02 1.438311e-02 9.665010e-03 4.396938e-03 -9.793769e-04 -6.899631e-03 -1.269474e-02 -1.904915e-02 -2.500552e-02 -3.155471e-02 -3.738480e-02 -4.383917e-02 -4.919355e-02 -5.516847e-02 -5.960334e-02 -6.458592e-02 -6.756493e-02 -7.093322e-02 -7.190207e-02 -7.303427e-02 -7.158384e-02 -7.006082e-02 -6.613964e-02 -6.198001e-02 -5.605534e-02 -4.986403e-02 -4.291802e-02 -3.582995e-02 -2.915261e-02 -2.252624e-02 -1.736163e-02 -1.226805e-02 -9.365467e-03 -6.075373e-03 -5.281725e-03 -3.254258e-03 -3.680630e-03 -1.976343e-03 -2.543905e-03 -3.957951e-04 -2.602621e-04 2.659125e-03 3.947156e-03 7.545127e-03 9.919284e-03 1.371363e-02 1.653733e-02 1.980787e-02 2.239837e-02 2.479068e-02 2.681714e-02 2.831957e-02 2.970578e-02 3.044309e-02 3.122298e-02 3.134330e-02 3.159113e-02 3.122976e-02 3.103162e-02 3.030206e-02 2.974176e-02 2.873419e-02 2.788588e-02 2.666890e-02 2.559464e-02 2.421923e-02 2.297007e-02 2.147456e-02 2.009345e-02 
2.835911e-02 2.621694e-02 2.343597e-02 2.121496e-02 1.835840e-02 1.611280e-02 1.323251e-02 1.101863e-02 8.171998e-03 6.048398e-03 3.297765e-03 1.324269e-03 -1.264759e-03 -3.028768e-03 -5.389559e-03 -6.887074e-03 -8.954338e-03 -1.013247e-02 -1.184432e-02 -1.265553e-02 -1.395502e-02 -1.435777e-02 -1.519389e-02 -1.515279e-02 -1.548112e-02 -1.496698e-02 -1.475044e-02 -1.374068e-02 -1.295091e-02 -1.143096e-02 -1.005090e-02 -8.017160e-03 -6.045235e-03 -3.509919e-03 -9.661338e-04 2.035856e-03 5.102131e-03 8.504750e-03 1.200594e-02 1.570289e-02 1.950461e-02 2.334125e-02 2.725583e-02 3.102438e-02 3.480911e-02 3.825008e-02 4.161304e-02 4.442582e-02 4.704175e-02 4.890651e-02 5.044415e-02 5.105525e-02 5.121454e-02 5.032191e-02 4.887577e-02 4.632672e-02 4.315801e-02 3.892821e-02 3.405074e-02 2.825361e-02 2.180904e-02 1.467910e-02 6.910262e-03 -1.232783e-03 -1.001927e-02 -1.880766e-02 -2.826889e-02 -3.730377e-02 -4.705896e-02 -5.589398e-02 -6.548719e-02 -7.358275e-02 -8.242278e-02 -8.909755e-02 -9.641222e-02 -1.008423e-01 -1.057069e-01 -1.070333e-01 -1.085319e-01 -1.061113e-01 -1.036391e-01 -9.738816e-02 -9.100009e-02 -8.168136e-02 -7.229775e-02 -6.154047e-02 -5.084132e-02 -4.079078e-02 -3.078267e-02 -2.344356e-02 -1.577161e-02 -1.218010e-02 -7.289978e-03 -6.882249e-03 -3.804012e-03 -4.950507e-03 -2.259372e-03 -3.406383e-03 9.149736e-05 9.850631e-05 4.811450e-03 6.618267e-03 1.233603e-02 1.589015e-02 2.184116e-02 2.613247e-02 3.116982e-02 3.509202e-02 3.872459e-02 4.178527e-02 4.404515e-02 4.614182e-02 4.723203e-02 4.841849e-02 4.855972e-02 4.894884e-02 4.833941e-02 4.806303e-02 4.686926e-02 4.605590e-02 4.441008e-02 4.317288e-02 4.117594e-02 3.960888e-02 3.733650e-02 3.551622e-02 3.302668e-02 3.101716e-02 
3.678329e-02 3.385316e-02 3.056801e-02 2.751582e-02 2.415372e-02 2.105399e-02 1.767571e-02 1.460635e-02 1.127936e-02 8.321713e-03 5.119794e-03 2.357092e-03 -6.415044e-04 -3.126634e-03 -5.841821e-03 -7.970142e-03 -1.032280e-02 -1.202095e-02 -1.393536e-02 -1.513763e-02 -1.654331e-02 -1.719248e-02 -1.802534e-02 -1.807287e-02 -1.827597e-02 -1.768197e-02 -1.720659e-02 -1.594019e-02 -1.474769e-02 -1.278884e-02 -1.085432e-02 -8.197602e-03 -5.515777e-03 -2.176842e-03 1.229468e-03 5.204706e-03 9.273751e-03 1.379770e-02 1.841652e-02 2.334755e-02 2.833997e-02 3.347130e-02 3.858886e-02 4.364175e-02 4.856103e-02 5.318638e-02 5.751669e-02 6.130892e-02 6.461415e-02 6.714074e-02 6.897714e-02 6.982434e-02 6.979271e-02 6.862308e-02 6.642784e-02 6.303914e-02 5.854058e-02 5.290988e-02 4.615267e-02 3.844904e-02 2.965322e-02 2.021069e-02 9.725085e-03 -1.015649e-03 -1.277826e-02 -2.433216e-02 -3.694387e-02 -4.881292e-02 -6.183011e-02 -7.347905e-02 -8.637856e-02 -9.715717e-02 -1.092261e-01 -1.182766e-01 -1.285117e-01 -1.347383e-01 -1.418474e-01 -1.440461e-01 -1.466534e-01 -1.438599e-01 -1.409482e-01 -1.329353e-01 -1.244055e-01 -1.120925e-01 -9.915810e-02 -8.462762e-02 -6.974070e-02 -5.577000e-02 -4.197640e-02 -3.131016e-02 -2.108759e-02 -1.550185e-02 -9.352032e-03 -8.420578e-03 -4.988493e-03 -6.591573e-03 -3.656113e-03 -5.429562e-03 -1.371572e-03 -1.599678e-03 4.135422e-03 6.442156e-03 1.366630e-02 1.852980e-02 2.631088e-02 3.218015e-02 3.872156e-02 4.401009e-02 4.869576e-02 5.281402e-02 5.574608e-02 5.858810e-02 6.003879e-02 6.167023e-02 6.191921e-02 6.248063e-02 6.178324e-02 6.144514e-02 6.001988e-02 5.895121e-02 5.697327e-02 5.532325e-02 5.292581e-02 5.081833e-02 4.809989e-02 4.563619e-02 4.267076e-02 3.993584e-02 
4.695048e-02 4.340788e-02 3.878909e-02 3.510210e-02 3.034084e-02 2.660097e-02 2.178523e-02 1.808825e-02 1.331610e-02 9.761988e-03 5.140213e-03 1.831162e-03 -2.527942e-03 -5.490789e-03 -9.473607e-03 -1.199372e-02 -1.548958e-02 -1.747817e-02 -2.038293e-02 -2.176108e-02 -2.397969e-02 -2.467920e-02 -2.612708e-02 -2.609039e-02 -2.669406e-02 -2.587370e-02 -2.557146e-02 -2.393012e-02 -2.267367e-02 -2.018583e-02 -1.794399e-02 -1.460028e-02 -1.136554e-02 -7.180545e-03 -2.979127e-03 1.997111e-03 7.091986e-03 1.275928e-02 1.861178e-02 2.480339e-02 3.119920e-02 3.766644e-02 4.429989e-02 5.070162e-02 5.717014e-02 6.307232e-02 6.888361e-02 7.377464e-02 7.837159e-02 8.169814e-02 8.450500e-02 8.572999e-02 8.621845e-02 8.489635e-02 8.266293e-02 7.851892e-02 7.335618e-02 6.634724e-02 5.828599e-02 4.862045e-02 3.792358e-02 2.602676e-02 1.313304e-02 -4.295549e-04 -1.498761e-02 -2.959261e-02 -4.525304e-02 -6.026119e-02 -7.643861e-02 -9.116661e-02 -1.071823e-01 -1.208067e-01 -1.357592e-01 -1.471931e-01 -1.598294e-01 -1.676647e-01 -1.763669e-01 -1.790123e-01 -1.820438e-01 -1.781658e-01 -1.742384e-01 -1.634573e-01 -1.524654e-01 -1.360046e-01 -1.195152e-01 -1.003308e-01 -8.141376e-02 -6.353716e-02 -4.597611e-02 -3.330954e-02 -2.042829e-02 -1.513110e-02 -7.800839e-03 -8.439897e-03 -4.272772e-03 -7.279877e-03 -3.563662e-03 -6.369729e-03 -8.246498e-04 -1.597905e-03 6.155218e-03 8.645117e-03 1.822159e-02 2.431185e-02 3.453818e-02 4.208906e-02 5.043161e-02 5.715847e-02 6.303028e-02 6.825895e-02 7.191804e-02 7.554362e-02 7.733964e-02 7.944122e-02 7.970534e-02 8.046111e-02 7.949912e-02 7.913048e-02 7.720718e-02 7.593278e-02 7.326077e-02 7.127137e-02 6.801210e-02 6.546395e-02 6.173764e-02 5.875686e-02 5.465605e-02 5.134764e-02 
5.470373e-02 5.034384e-02 4.545497e-02 4.089167e-02 3.586439e-02 3.121129e-02 2.613856e-02 2.151557e-02 1.650165e-02 1.203458e-02 7.193859e-03 3.011502e-03 -1.534858e-03 -5.305059e-03 -9.433660e-03 -1.267037e-02 -1.626021e-02 -1.885228e-02 -2.178868e-02 -2.363784e-02 -2.581508e-02 -2.683702e-02 -2.815969e-02 -2.828369e-02 -2.866723e-02 -2.783522e-02 -2.720650e-02 -2.537269e-02 -2.367198e-02 -2.080443e-02 -1.798992e-02 -1.407547e-02 -1.013156e-02 -5.185043e-03 -1.349001e-04 5.786992e-03 1.186466e-02 1.864534e-02 2.559652e-02 3.303915e-02 4.061421e-02 4.842213e-02 5.625893e-02 6.402173e-02 7.163765e-02 7.882920e-02 8.562872e-02 9.162434e-02 9.692923e-02 1.010487e-01 1.041556e-01 1.057351e-01 1.060003e-01 1.044881e-01 1.014286e-01 9.648887e-02 8.987770e-02 8.147269e-02 7.139419e-02 5.981146e-02 4.664779e-02 3.245030e-02 1.679108e-02 7.016483e-04 -1.678924e-02 -3.401824e-02 -5.271149e-02 -7.037222e-02 -8.968972e-02 -1.070843e-01 -1.263915e-01 -1.426826e-01 -1.610738e-01 -1.750735e-01 -1.911299e-01 -2.011568e-01 -2.128406e-01 -2.168452e-01 -2.217501e-01 -2.178795e-01 -2.139770e-01 -2.015280e-01 -1.882595e-01 -1.685678e-01 -1.477335e-01 -1.242749e-01 -1.000316e-01 -7.745588e-02 -5.526946e-02 -3.826420e-02 -2.292717e-02 -1.512795e-02 -7.072748e-03 -7.392488e-03 -3.876187e-03 -8.108131e-03 -4.773870e-03 -8.914543e-03 -3.243418e-03 -4.893238e-03 3.431220e-03 5.969016e-03 1.665649e-02 2.424150e-02 3.647696e-02 4.587462e-02 5.555687e-02 6.374364e-02 7.051318e-02 7.691432e-02 8.120665e-02 8.570799e-02 8.789428e-02 9.055142e-02 9.098852e-02 9.200046e-02 9.104362e-02 9.067639e-02 8.864262e-02 8.716058e-02 8.430475e-02 8.193646e-02 7.844973e-02 7.538075e-02 7.140259e-02 6.778232e-02 6.341709e-02 5.937063e-02 
6.514899e-02 6.023879e-02 5.381581e-02 4.867555e-02 4.201834e-02 3.677863e-02 3.001375e-02 2.481290e-02 1.808292e-02 1.306622e-02 6.526908e-03 1.842953e-03 -4.342155e-03 -8.546889e-03 -1.421328e-02 -1.780024e-02 -2.278911e-02 -2.563257e-02 -2.979626e-02 -3.178640e-02 -3.499190e-02 -3.603571e-02 -3.816603e-02 -3.818625e-02 -3.914038e-02 -3.807359e-02 -3.776606e-02 -3.556122e-02 -3.392299e-02 -3.054226e-02 -2.752451e-02 -2.294813e-02 -1.853054e-02 -1.276694e-02 -6.971362e-03 -7.334852e-05 7.017041e-03 1.493064e-02 2.314777e-02 3.186668e-02 4.093227e-02 5.012917e-02 5.963216e-02 6.884248e-02 7.822550e-02 8.684042e-02 9.540383e-02 1.026858e-01 1.096183e-01 1.147487e-01 1.191918e-01 1.213560e-01 1.225052e-01 1.210115e-01 1.182421e-01 1.126553e-01 1.056454e-01 9.589692e-02 8.470704e-02 7.113448e-02 5.619915e-02 3.948496e-02 2.150705e-02 2.529627e-03 -1.768264e-02 -3.801468e-02 -5.968322e-02 -8.052343e-02 -1.029304e-01 -1.234570e-01 -1.458368e-01 -1.650814e-01 -1.863843e-01 -2.029717e-01 -2.215676e-01 -2.334973e-01 -2.470014e-01 -2.517174e-01 -2.572399e-01 -2.522654e-01 -2.473228e-01 -2.315052e-01 -2.154378e-01 -1.903276e-01 -1.654090e-01 -1.357302e-01 -1.068858e-01 -7.931621e-02 -5.268803e-02 -3.390386e-02 -1.568075e-02 -1.011942e-02 -2.052385e-03 -6.126113e-03 -2.184211e-03 -8.241777e-03 -4.608249e-03 -1.009704e-02 -2.505240e-03 -5.351667e-03 5.298619e-03 7.109472e-03 2.015765e-02 2.893748e-02 4.395461e-02 5.546756e-02 6.676363e-02 7.659535e-02 8.445742e-02 9.218909e-02 9.724040e-02 1.027098e-01 1.052923e-01 1.085439e-01 1.090294e-01 1.103204e-01 1.091124e-01 1.087833e-01 1.062455e-01 1.046236e-01 1.010445e-01 9.840420e-02 9.399761e-02 9.055657e-02 8.547869e-02 8.140949e-02 7.578029e-02 7.122617e-02 
7.214664e-02 6.639297e-02 5.995140e-02 5.388805e-02 4.721862e-02 4.100067e-02 3.423100e-02 2.802437e-02 2.129948e-02 1.527942e-02 8.759086e-03 3.105158e-03 -3.041715e-03 -8.152682e-03 -1.375526e-02 -1.815660e-02 -2.304923e-02 -2.659063e-02 -3.061854e-02 -3.316986e-02 -3.619260e-02 -3.764478e-02 -3.953731e-02 -3.980075e-02 -4.045279e-02 -3.945442e-02 -3.876952e-02 -3.645022e-02 -3.434648e-02 -3.066121e-02 -2.707551e-02 -2.199810e-02 -1.689590e-02 -1.043032e-02 -3.821969e-03 3.979137e-03 1.201525e-02 2.102510e-02 3.031385e-02 4.030111e-02 5.053935e-02 6.113676e-02 7.186462e-02 8.254302e-02 9.312534e-02 1.031822e-01 1.128102e-01 1.213843e-01 1.291091e-01 1.352331e-01 1.400424e-01 1.427434e-01 1.436851e-01 1.421304e-01 1.384734e-01 1.321410e-01 1.235390e-01 1.123657e-01 9.896458e-02 8.340550e-02 6.583088e-02 4.677800e-02 2.597359e-02 4.540427e-03 -1.849032e-02 -4.122600e-02 -6.564549e-02 -8.880311e-02 -1.140023e-01 -1.368630e-01 -1.623045e-01 -1.840580e-01 -2.089079e-01 -2.282337e-01 -2.508619e-01 -2.655220e-01 -2.831100e-01 -2.899211e-01 -2.986112e-01 -2.942280e-01 -2.902220e-01 -2.728464e-01 -2.544032e-01 -2.257127e-01 -1.951047e-01 -1.606834e-01 -1.244428e-01 -9.142180e-02 -5.865233e-02 -3.368063e-02 -1.386872e-02 -4.882758e-03 3.499286e-03 -3.677818e-04 1.006827e-03 -7.821412e-03 -4.894556e-03 -1.267948e-02 -5.204221e-03 -1.001344e-02 5.769214e-04 1.233423e-03 1.406311e-02 2.456214e-02 4.219226e-02 5.589392e-02 6.804036e-02 7.953285e-02 8.824042e-02 9.751864e-02 1.033385e-01 1.099883e-01 1.130859e-01 1.170850e-01 1.178497e-01 1.195184e-01 1.184322e-01 1.181918e-01 1.156867e-01 1.139258e-01 1.103351e-01 1.073692e-01 1.029331e-01 9.900758e-02 9.389648e-02 8.920458e-02 8.354517e-02 7.824851e-02 
8.287471e-02 7.663961e-02 6.845677e-02 6.187743e-02 5.333289e-02 4.658183e-02 3.784467e-02 3.110747e-02 2.237063e-02 1.584379e-02 7.318940e-03 1.203647e-03 -6.887521e-03 -1.239403e-02 -1.983021e-02 -2.454360e-02 -3.111384e-02 -3.487004e-02 -4.038154e-02 -4.304098e-02 -4.732354e-02 -4.877172e-02 -5.167855e-02 -5.182321e-02 -5.322908e-02 -5.199544e-02 -5.179375e-02 -4.911996e-02 -4.722118e-02 -4.305665e-02 -3.939071e-02 -3.369994e-02 -2.822495e-02 -2.099898e-02 -1.371794e-02 -4.994910e-03 4.019028e-03 1.412449e-02 2.469507e-02 3.595522e-02 4.776549e-02 5.979986e-02 7.235524e-02 8.459487e-02 9.719537e-02 1.088616e-01 1.205950e-01 1.307072e-01 1.404780e-01 1.479065e-01 1.545167e-01 1.580963e-01 1.603865e-01 1.590928e-01 1.561369e-01 1.493030e-01 1.406172e-01 1.281297e-01 1.138214e-01 9.620694e-02 7.697478e-02 5.529883e-02 3.224370e-02 7.832167e-03 -1.785516e-02 -4.373778e-02 -7.104414e-02 -9.738029e-02 -1.255494e-01 -1.515261e-01 -1.799140e-01 -2.046567e-01 -2.323609e-01 -2.544613e-01 -2.797422e-01 -2.967081e-01 -3.164260e-01 -3.244611e-01 -3.341032e-01 -3.288366e-01 -3.238002e-01 -3.023460e-01 -2.805813e-01 -2.444198e-01 -2.090602e-01 -1.656133e-01 -1.244789e-01 -8.449592e-02 -4.638360e-02 -2.005535e-02 3.638983e-03 6.030001e-03 1.080199e-02 -1.184119e-03 1.901886e-03 -6.836604e-03 -5.032017e-03 -1.382111e-02 -2.718966e-03 -9.658201e-03 3.906856e-03 1.480351e-03 1.573537e-02 2.656150e-02 4.674852e-02 6.345960e-02 7.665856e-02 9.047830e-02 1.005453e-01 1.117961e-01 1.186740e-01 1.266454e-01 1.302918e-01 1.350482e-01 1.359324e-01 1.379696e-01 1.366730e-01 1.365447e-01 1.335587e-01 1.317350e-01 1.274212e-01 1.242653e-01 1.188769e-01 1.146631e-01 1.083794e-01 1.033200e-01 9.627879e-02 9.055057e-02 
8.905245e-02 8.194841e-02 7.401904e-02 6.646533e-02 5.818053e-02 5.037724e-02 4.190312e-02 3.406802e-02 2.559623e-02 1.796129e-02 9.704048e-03 2.507234e-03 -5.311752e-03 -1.183749e-02 -1.899397e-02 -2.463195e-02 -3.091172e-02 -3.547072e-02 -4.067768e-02 -4.399708e-02 -4.795749e-02 -4.990771e-02 -5.247031e-02 -5.294888e-02 -5.398185e-02 -5.290674e-02 -5.229359e-02 -4.959658e-02 -4.723360e-02 -4.285681e-02 -3.865533e-02 -3.255414e-02 -2.645032e-02 -1.860540e-02 -1.057962e-02 -1.019687e-03 8.873723e-03 2.003816e-02 3.163170e-02 4.416556e-02 5.713309e-02 7.062921e-02 8.444009e-02 9.827460e-02 1.121570e-01 1.254593e-01 1.383862e-01 1.500407e-01 1.607576e-01 1.694571e-01 1.765713e-01 1.809445e-01 1.830941e-01 1.819157e-01 1.780140e-01 1.704779e-01 1.599915e-01 1.459768e-01 1.291380e-01 1.093446e-01 8.716422e-02 6.299519e-02 3.698684e-02 1.015837e-02 -1.815092e-02 -4.610552e-02 -7.562202e-02 -1.036793e-01 -1.338928e-01 -1.615194e-01 -1.922978e-01 -2.190687e-01 -2.501061e-01 -2.749723e-01 -3.048876e-01 -3.252536e-01 -3.505982e-01 -3.618111e-01 -3.767654e-01 -3.729741e-01 -3.706980e-01 -3.477260e-01 -3.237854e-01 -2.833615e-01 -2.400899e-01 -1.919019e-01 -1.395187e-01 -9.487178e-02 -4.759361e-02 -1.139677e-02 8.780107e-03 1.599458e-02 2.379415e-02 1.409024e-02 9.271786e-03 -6.202735e-03 -2.681684e-03 -1.443407e-02 -3.431097e-03 -1.380006e-02 -7.852109e-04 -6.801265e-03 3.085861e-03 1.467654e-02 3.800124e-02 5.708835e-02 7.039538e-02 8.716406e-02 9.899757e-02 1.128717e-01 1.210470e-01 1.306908e-01 1.350464e-01 1.407572e-01 1.420243e-01 1.445543e-01 1.434985e-01 1.435507e-01 1.407558e-01 1.388756e-01 1.347455e-01 1.313341e-01 1.261401e-01 1.214933e-01 1.154209e-01 1.097669e-01 1.029543e-01 9.648518e-02 
1.001237e-01 9.261286e-02 8.272187e-02 7.471538e-02 6.428800e-02 5.600430e-02 4.525797e-02 3.693660e-02 2.612305e-02 1.802018e-02 7.416871e-03 -2.048502e-04 -1.030817e-02 -1.719290e-02 -2.650974e-02 -3.242200e-02 -4.068376e-02 -4.541932e-02 -5.238621e-02 -5.577791e-02 -6.124445e-02 -6.316199e-02 -6.695655e-02 -6.730067e-02 -6.928023e-02 -6.797319e-02 -6.801585e-02 -6.499146e-02 -6.299011e-02 -5.818703e-02 -5.404802e-02 -4.741033e-02 -4.106072e-02 -3.254910e-02 -2.395527e-02 -1.357103e-02 -2.769940e-03 9.407284e-03 2.226448e-02 3.602679e-02 5.062163e-02 6.557464e-02 8.136450e-02 9.686862e-02 1.130359e-01 1.281599e-01 1.435826e-01 1.570893e-01 1.703556e-01 1.807469e-01 1.902409e-01 1.958943e-01 1.999807e-01 1.993970e-01 1.967118e-01 1.888604e-01 1.786613e-01 1.633346e-01 1.457904e-01 1.237979e-01 1.000320e-01 7.305132e-02 4.481263e-02 1.487269e-02 -1.605952e-02 -4.719919e-02 -7.951953e-02 -1.107039e-01 -1.437192e-01 -1.743331e-01 -2.077868e-01 -2.374021e-01 -2.710058e-01 -2.986588e-01 -3.311364e-01 -3.542049e-01 -3.819545e-01 -3.952136e-01 -4.115866e-01 -4.076793e-01 -4.043752e-01 -3.767993e-01 -3.484679e-01 -2.972913e-01 -2.481329e-01 -1.854918e-01 -1.295486e-01 -7.441507e-02 -2.180923e-02 1.474094e-02 4.416026e-02 3.341964e-02 2.393516e-02 -2.349347e-03 4.791930e-03 1.061925e-03 -1.622488e-03 -1.492609e-02 5.410889e-03 -7.502630e-03 8.826359e-03 -3.768916e-03 7.888061e-03 1.166563e-02 2.818538e-02 5.407963e-02 7.149954e-02 9.391240e-02 1.090719e-01 1.261523e-01 1.359414e-01 1.471836e-01 1.521885e-01 1.586938e-01 1.601151e-01 1.630387e-01 1.618210e-01 1.620413e-01 1.588183e-01 1.569569e-01 1.521373e-01 1.486307e-01 1.424801e-01 1.376428e-01 1.303439e-01 1.244162e-01 1.161122e-01 1.092969e-01 
1.054446e-01 9.703681e-02 8.769516e-02 7.865487e-02 6.878152e-02 5.935870e-02 4.916374e-02 3.963605e-02 2.936601e-02 2.003234e-02 9.961701e-03 1.129179e-03 -8.453592e-03 -1.648631e-02 -2.529520e-02 -3.225484e-02 -4.002180e-02 -4.567395e-02 -5.216032e-02 -5.631651e-02 -6.131815e-02 -6.383534e-02 -6.718103e-02 -6.795384e-02 -6.949809e-02 -6.844629e-02 -6.805958e-02 -6.511449e-02 -6.267493e-02 -5.776946e-02 -5.316034e-02 -4.622737e-02 -3.934480e-02 -3.032798e-02 -2.110193e-02 -9.981693e-03 1.587798e-03 1.475190e-02 2.854371e-02 4.355561e-02 5.926442e-02 7.572320e-02 9.279037e-02 1.100189e-01 1.275678e-01 1.445520e-01 1.613448e-01 1.767048e-01 1.911461e-01 2.031734e-01 2.133975e-01 2.201963e-01 2.242778e-01 2.240513e-01 2.203626e-01 2.118400e-01 1.995184e-01 1.824341e-01 1.618067e-01 1.372127e-01 1.099086e-01 8.003851e-02 4.854026e-02 1.611029e-02 -1.717714e-02 -4.992216e-02 -8.353521e-02 -1.154405e-01 -1.491132e-01 -1.800986e-01 -2.144932e-01 -2.450513e-01 -2.810783e-01 -3.111686e-01 -3.485898e-01 -3.758319e-01 -4.111706e-01 -4.291977e-01 -4.542946e-01 -4.532010e-01 -4.563065e-01 -4.268681e-01 -3.976964e-01 -3.400523e-01 -2.792934e-01 -2.122818e-01 -1.369538e-01 -8.554001e-02 -1.477400e-02 4.000466e-02 3.933073e-02 2.890517e-02 4.718513e-02 4.827190e-02 1.733597e-02 -1.386465e-02 1.381071e-02 -5.279851e-03 8.503942e-03 -4.325610e-03 5.651558e-03 -8.204147e-03 4.004703e-03 -1.023110e-02 -1.341595e-02 2.179856e-02 5.168761e-02 8.302903e-02 1.031804e-01 1.241509e-01 1.355436e-01 1.485510e-01 1.541542e-01 1.615890e-01 1.633692e-01 1.668178e-01 1.659333e-01 1.664120e-01 1.635514e-01 1.617267e-01 1.573108e-01 1.536349e-01 1.479295e-01 1.427249e-01 1.359085e-01 1.294236e-01 1.216329e-01 1.140819e-01 
1.169873e-01 1.082516e-01 9.670681e-02 8.727781e-02 7.496250e-02 6.510989e-02 5.229790e-02 4.232426e-02 2.933768e-02 1.957046e-02 6.766192e-03 -2.458042e-03 -1.470841e-02 -2.306413e-02 -3.439727e-02 -4.159032e-02 -5.167248e-02 -5.745608e-02 -6.599849e-02 -7.018146e-02 -7.694708e-02 -7.939241e-02 -8.419326e-02 -8.480758e-02 -8.749407e-02 -8.621083e-02 -8.665682e-02 -8.341758e-02 -8.150600e-02 -7.624535e-02 -7.185992e-02 -6.449959e-02 -5.752789e-02 -4.798500e-02 -3.833694e-02 -2.655009e-02 -1.419454e-02 -1.694894e-04 1.481069e-02 3.093602e-02 4.827241e-02 6.614688e-02 8.530285e-02 1.042719e-01 1.243585e-01 1.433784e-01 1.630860e-01 1.806662e-01 1.982417e-01 2.124553e-01 2.257699e-01 2.343912e-01 2.411571e-01 2.419870e-01 2.401709e-01 2.315735e-01 2.199810e-01 2.015274e-01 1.803755e-01 1.532924e-01 1.243976e-01 9.139068e-02 5.761221e-02 2.188769e-02 -1.404010e-02 -5.000144e-02 -8.640346e-02 -1.213718e-01 -1.577185e-01 -1.914749e-01 -2.281310e-01 -2.611088e-01 -2.990013e-01 -3.314484e-01 -3.708236e-01 -4.008327e-01 -4.385519e-01 -4.596413e-01 -4.867040e-01 -4.873150e-01 -4.893852e-01 -4.561521e-01 -4.200662e-01 -3.469965e-01 -2.765964e-01 -1.826646e-01 -1.091709e-01 -3.909681e-02 2.696274e-02 7.673615e-02 1.227636e-01 4.783537e-02 -1.819070e-02 -2.337763e-02 2.538994e-02 8.259729e-03 5.450816e-03 -1.524380e-03 5.696503e-03 -8.350411e-03 5.932916e-03 -4.989382e-03 8.849119e-03 -1.354424e-02 -1.587899e-02 2.075142e-02 5.919146e-02 9.491692e-02 1.174975e-01 1.401729e-01 1.521556e-01 1.659306e-01 1.717494e-01 1.796463e-01 1.815031e-01 1.852680e-01 1.842891e-01 1.849760e-01 1.817871e-01 1.800717e-01 1.750437e-01 1.713818e-01 1.647476e-01 1.594639e-01 1.513854e-01 1.447317e-01 1.353444e-01 1.275405e-01 
1.214458e-01 1.117789e-01 1.011064e-01 9.057170e-02 7.913177e-02 6.803551e-02 5.608947e-02 4.477991e-02 3.264013e-02 2.149690e-02 9.513494e-03 -1.072140e-03 -1.253224e-02 -2.218248e-02 -3.275991e-02 -4.113563e-02 -5.050131e-02 -5.732189e-02 -6.519337e-02 -7.024672e-02 -7.639455e-02 -7.953515e-02 -8.377848e-02 -8.491390e-02 -8.710687e-02 -8.617624e-02 -8.618940e-02 -8.313909e-02 -8.084146e-02 -7.560462e-02 -7.085292e-02 -6.333960e-02 -5.598058e-02 -4.608432e-02 -3.597530e-02 -2.360055e-02 -1.065114e-02 4.236153e-03 2.000040e-02 3.729926e-02 5.565325e-02 7.503436e-02 9.545516e-02 1.162545e-01 1.378180e-01 1.589303e-01 1.802202e-01 2.000166e-01 2.190774e-01 2.353907e-01 2.497777e-01 2.600264e-01 2.670335e-01 2.685738e-01 2.657223e-01 2.564910e-01 2.422953e-01 2.216657e-01 1.964818e-01 1.659779e-01 1.324180e-01 9.565665e-02 5.790915e-02 1.934452e-02 -1.865052e-02 -5.561000e-02 -9.186294e-02 -1.259608e-01 -1.606340e-01 -1.925500e-01 -2.274657e-01 -2.592784e-01 -2.974198e-01 -3.313075e-01 -3.751116e-01 -4.101758e-01 -4.575619e-01 -4.858268e-01 -5.265238e-01 -5.320743e-01 -5.475778e-01 -5.113579e-01 -4.797913e-01 -3.931261e-01 -3.065934e-01 -2.030910e-01 -8.967803e-02 -5.775335e-02 6.969695e-02 1.474173e-01 6.775148e-02 1.638488e-02 5.561435e-02 2.718293e-02 -4.021614e-02 -4.041123e-02 -1.398696e-02 -4.160587e-02 -1.460259e-02 -2.419286e-02 -7.307445e-03 -1.762023e-02 -2.169236e-03 -1.466291e-02 -5.378676e-03 3.269120e-02 6.564307e-02 9.925846e-02 1.183374e-01 1.406550e-01 1.513727e-01 1.655577e-01 1.711458e-01 1.796177e-01 1.816984e-01 1.859711e-01 1.854358e-01 1.864725e-01 1.838526e-01 1.822896e-01 1.779168e-01 1.741909e-01 1.682800e-01 1.627078e-01 1.554086e-01 1.482416e-01 1.396782e-01 1.311437e-01 
1.336676e-01 1.237540e-01 1.106060e-01 9.974574e-02 8.552087e-02 7.404170e-02 5.908049e-02 4.735981e-02 3.206996e-02 2.052215e-02 5.358472e-03 -5.588790e-03 -2.015391e-02 -3.008982e-02 -4.360006e-02 -5.216101e-02 -6.420721e-02 -7.110061e-02 -8.134272e-02 -8.635875e-02 -9.453444e-02 -9.754302e-02 -1.034615e-01 -1.043949e-01 -1.079181e-01 -1.067434e-01 -1.077597e-01 -1.044466e-01 -1.028441e-01 -9.733729e-02 -9.298395e-02 -8.518626e-02 -7.792509e-02 -6.769921e-02 -5.736385e-02 -4.455792e-02 -3.101289e-02 -1.551303e-02 1.279774e-03 1.946902e-02 3.935847e-02 6.000729e-02 8.253972e-02 1.050643e-01 1.293561e-01 1.526778e-01 1.772893e-01 1.997050e-01 2.225467e-01 2.416596e-01 2.599943e-01 2.727979e-01 2.834457e-01 2.866994e-01 2.865796e-01 2.776027e-01 2.646802e-01 2.425142e-01 2.169387e-01 1.833895e-01 1.481125e-01 1.076809e-01 6.755528e-02 2.553221e-02 -1.512463e-02 -5.526084e-02 -9.447409e-02 -1.317019e-01 -1.692719e-01 -2.038989e-01 -2.407510e-01 -2.743275e-01 -3.130719e-01 -3.480975e-01 -3.922372e-01 -4.291065e-01 -4.780080e-01 -5.097533e-01 -5.528363e-01 -5.631317e-01 -5.778635e-01 -5.433051e-01 -4.997169e-01 -3.960829e-01 -2.869500e-01 -1.265667e-01 -1.898823e-02 8.225851e-02 1.359083e-01 3.763613e-02 1.667411e-02 7.877177e-03 -8.088793e-02 -9.659981e-02 7.163457e-03 -1.974006e-02 -6.080380e-03 -1.005918e-02 6.233009e-03 -1.060284e-02 1.151760e-02 -8.471206e-03 1.336352e-02 -2.534503e-03 9.131573e-03 7.120110e-02 9.492825e-02 1.254840e-01 1.393444e-01 1.600673e-01 1.693108e-01 1.832130e-01 1.886602e-01 1.973218e-01 1.995859e-01 2.041660e-01 2.037409e-01 2.050702e-01 2.023113e-01 2.009750e-01 1.961242e-01 1.925383e-01 1.857600e-01 1.802318e-01 1.716503e-01 1.644277e-01 1.541618e-01 1.454730e-01 
1.372894e-01 1.263992e-01 1.144779e-01 1.024226e-01 8.942765e-02 7.657711e-02 6.282999e-02 4.961668e-02 3.550965e-02 2.241242e-02 8.389041e-03 -4.096156e-03 -1.757170e-02 -2.896903e-02 -4.144786e-02 -5.133911e-02 -6.242117e-02 -7.047522e-02 -7.983286e-02 -8.582024e-02 -9.320665e-02 -9.699563e-02 -1.022363e-01 -1.037712e-01 -1.067410e-01 -1.060076e-01 -1.065987e-01 -1.035838e-01 -1.016737e-01 -9.632911e-02 -9.175616e-02 -8.397543e-02 -7.653179e-02 -6.614849e-02 -5.559692e-02 -4.241070e-02 -2.853009e-02 -1.236422e-02 4.974227e-03 2.418285e-02 4.490978e-02 6.698988e-02 9.070607e-02 1.151045e-01 1.409300e-01 1.665458e-01 1.929621e-01 2.179810e-01 2.426960e-01 2.644727e-01 2.843736e-01 2.994637e-01 3.107879e-01 3.153057e-01 3.142307e-01 3.047435e-01 2.885737e-01 2.635913e-01 2.324170e-01 1.939875e-01 1.519313e-01 1.060101e-01 6.037254e-02 1.455928e-02 -2.793841e-02 -6.833268e-02 -1.052053e-01 -1.391185e-01 -1.713738e-01 -2.005387e-01 -2.312053e-01 -2.598631e-01 -2.946627e-01 -3.290342e-01 -3.755079e-01 -4.186720e-01 -4.786833e-01 -5.215777e-01 -5.837054e-01 -6.024141e-01 -6.419062e-01 -6.026788e-01 -5.805464e-01 -4.469601e-01 -3.323599e-01 -1.270627e-01 5.485657e-02 7.425231e-02 1.064737e-01 7.444213e-02 2.109846e-03 -8.686002e-02 -5.952789e-02 -4.789998e-02 -1.767813e-02 -3.136351e-02 -2.517623e-03 -1.845717e-02 8.401398e-03 -1.150591e-02 8.556135e-03 -1.127354e-02 6.789166e-03 -1.577427e-02 -1.194057e-02 6.951622e-02 8.844933e-02 1.223187e-01 1.336794e-01 1.552478e-01 1.636973e-01 1.783305e-01 1.838649e-01 1.932919e-01 1.960593e-01 2.013270e-01 2.016151e-01 2.034662e-01 2.015485e-01 2.005173e-01 1.966047e-01 1.930785e-01 1.873226e-01 1.815935e-01 1.741086e-01 1.664186e-01 1.573108e-01 1.478923e-01 