# vtk DataFile Version 2.0
Comment goes here
ASCII

DATASET STRUCTURED_POINTS
DIMENSIONS    128   128   1

ORIGIN    0.000   0.000   0.000
SPACING   0.0156250.015625   1.000

POINT_DATA   16384
SCALARS uY double
LOOKUP_TABLE default

2.330317e-05 2.061021e-05 2.366576e-05 2.072309e-05 2.387917e-05 2.069567e-05 2.392369e-05 2.051435e-05 2.378354e-05 2.017059e-05 2.344953e-05 1.966371e-05 2.292192e-05 1.900367e-05 2.221323e-05 1.821351e-05 2.135043e-05 1.733106e-05 2.037638e-05 1.640961e-05 1.934990e-05 1.551706e-05 1.834437e-05 1.473358e-05 1.744453e-05 1.414725e-05 1.674136e-05 1.384801e-05 1.632511e-05 1.391979e-05 1.627674e-05 1.443125e-05 1.665786e-05 1.542537e-05 1.749987e-05 1.690846e-05 1.879254e-05 1.883910e-05 2.047282e-05 2.111747e-05 2.241427e-05 2.357595e-05 2.441832e-05 2.597196e-05 2.620834e-05 2.798444e-05 2.742847e-05 2.921607e-05 2.764961e-05 2.920386e-05 2.638539e-05 2.744106e-05 2.312136e-05 2.341339e-05 1.735971e-05 1.665148e-05 8.680812e-06 6.799572e-06 -3.180395e-06 -6.302688e-06 -1.824826e-05 -2.253280e-05 -3.622064e-05 -4.140449e-05 -5.639817e-05 -6.201081e-05 -7.764765e-05 -8.301179e-05 -9.842011e-05 -1.026881e-04 -1.168430e-04 -1.190773e-04 -1.309001e-04 -1.302026e-04 -1.387041e-04 -1.343886e-04 -1.388465e-04 -1.306320e-04 -1.307741e-04 -1.189494e-04 -1.150863e-04 -1.005737e-04 -9.361484e-05 -7.786992e-05 -6.917591e-05 -5.391483e-05 -4.500620e-05 -3.183490e-05 -2.403589e-05 -1.409117e-05 -8.206151e-06 -1.891184e-06 1.981238e-06 5.076708e-06 7.459442e-06 8.315385e-06 1.002175e-05 9.738003e-06 1.145408e-05 1.085529e-05 1.287285e-05 1.232330e-05 1.452646e-05 1.397848e-05 1.605428e-05 1.530506e-05 1.706289e-05 1.607165e-05 1.757971e-05 1.644799e-05 1.788753e-05 1.671176e-05 1.823345e-05 1.703836e-05 1.872254e-05 1.747516e-05 1.935066e-05 1.799563e-05 2.006651e-05 1.855091e-05 2.081268e-05 1.909611e-05 2.154174e-05 1.959733e-05 2.221784e-05 2.002969e-05 2.281301e-05 2.037330e-05 
5.359014e-03 4.856248e-03 4.105147e-03 3.607141e-03 2.833014e-03 2.349253e-03 1.563985e-03 1.104283e-03 3.215435e-04 -1.038785e-04 -8.687758e-04 -1.249439e-03 -1.979919e-03 -2.305337e-03 -2.984060e-03 -3.243986e-03 -3.853344e-03 -4.037944e-03 -4.560476e-03 -4.660390e-03 -5.079105e-03 -5.085425e-03 -5.384042e-03 -5.288284e-03 -5.451503e-03 -5.245684e-03 -5.259579e-03 -4.936550e-03 -4.789248e-03 -4.343408e-03 -4.026168e-03 -3.454688e-03 -2.963471e-03 -2.268060e-03 -1.605608e-03 -7.947904e-04 2.688201e-05 9.351473e-04 1.892058e-03 2.867724e-03 3.921414e-03 4.920135e-03 6.015876e-03 6.977876e-03 8.044301e-03 8.895085e-03 9.845995e-03 1.049966e-02 1.123872e-02 1.160446e-02 1.203317e-02 1.202494e-02 1.205363e-02 1.160239e-02 1.116300e-02 1.022951e-02 9.288196e-03 7.873907e-03 6.440488e-03 4.593669e-03 2.725765e-03 5.411497e-04 -1.658027e-03 -4.045714e-03 -6.434644e-03 -8.860769e-03 -1.126922e-02 -1.354968e-02 -1.578808e-02 -1.772842e-02 -1.959688e-02 -2.100201e-02 -2.230270e-02 -2.299305e-02 -2.355254e-02 -2.339397e-02 -2.310070e-02 -2.205021e-02 -2.090299e-02 -1.905838e-02 -1.720527e-02 -1.483004e-02 -1.256494e-02 -1.005623e-02 -7.753921e-03 -5.548438e-03 -3.561908e-03 -2.018046e-03 -5.927964e-04 1.047753e-04 8.850282e-04 7.956118e-04 1.064929e-03 5.103687e-04 5.986718e-04 1.643750e-05 2.788697e-04 2.270638e-05 7.027773e-04 9.582642e-04 2.100587e-03 2.870628e-03 4.328507e-03 5.400101e-03 6.863900e-03 7.862894e-03 9.022437e-03 9.742235e-03 1.050831e-02 1.093729e-02 1.135688e-02 1.154813e-02 1.169278e-02 1.169636e-02 1.162532e-02 1.147990e-02 1.123942e-02 1.097763e-02 1.060471e-02 1.025538e-02 9.779271e-03 9.366997e-03 8.809815e-03 8.354487e-03 7.732422e-03 7.249604e-03 6.574735e-03 6.076754e-03 
1.036039e-02 9.325531e-03 7.973960e-03 6.945469e-03 5.555693e-03 4.553228e-03 3.145854e-03 2.189860e-03 7.888281e-04 -9.937123e-05 -1.466926e-03 -2.265482e-03 -3.569840e-03 -4.256936e-03 -5.466634e-03 -6.021029e-03 -7.103709e-03 -7.505112e-03 -8.428245e-03 -8.657458e-03 -9.388891e-03 -9.427771e-03 -9.936181e-03 -9.767566e-03 -1.002297e-02 -9.630820e-03 -9.605410e-03 -8.975431e-03 -8.644982e-03 -7.766047e-03 -7.112169e-03 -5.978732e-03 -4.992124e-03 -3.607731e-03 -2.292458e-03 -6.742876e-04 9.471003e-04 2.763015e-03 4.643978e-03 6.597448e-03 8.662324e-03 1.066458e-02 1.280493e-02 1.473637e-02 1.681015e-02 1.852171e-02 2.035697e-02 2.167674e-02 2.308112e-02 2.382730e-02 2.460424e-02 2.460467e-02 2.457583e-02 2.369252e-02 2.272403e-02 2.087915e-02 1.890708e-02 1.610495e-02 1.315428e-02 9.493476e-03 5.685181e-03 1.357038e-03 -3.098525e-03 -7.824500e-03 -1.264498e-02 -1.744316e-02 -2.229536e-02 -2.680591e-02 -3.132397e-02 -3.517006e-02 -3.896932e-02 -4.177309e-02 -4.446763e-02 -4.587789e-02 -4.711745e-02 -4.686609e-02 -4.640707e-02 -4.440091e-02 -4.220780e-02 -3.863182e-02 -3.496932e-02 -3.033815e-02 -2.578432e-02 -2.087146e-02 -1.620070e-02 -1.183954e-02 -7.809240e-03 -4.668213e-03 -1.816478e-03 -2.582141e-04 1.238863e-03 1.265764e-03 1.704161e-03 7.653963e-04 8.107262e-04 -2.725501e-04 1.182616e-04 -3.753239e-04 8.342898e-04 1.341955e-03 3.478316e-03 5.033393e-03 7.840958e-03 1.002684e-02 1.289210e-02 1.490018e-02 1.716270e-02 1.858724e-02 2.007974e-02 2.092447e-02 2.175096e-02 2.212862e-02 2.242931e-02 2.243521e-02 2.232344e-02 2.203026e-02 2.159613e-02 2.106699e-02 2.038428e-02 1.967620e-02 1.880368e-02 1.796570e-02 1.694760e-02 1.601940e-02 1.488752e-02 1.390022e-02 1.267750e-02 1.165588e-02 
1.601142e-02 1.450890e-02 1.224763e-02 1.075754e-02 8.423357e-03 6.974368e-03 4.603305e-03 3.225264e-03 8.589598e-04 -4.169960e-04 -2.731832e-03 -3.873808e-03 -6.086665e-03 -7.062847e-03 -9.121003e-03 -9.900467e-03 -1.175054e-02 -1.230379e-02 -1.389303e-02 -1.419216e-02 -1.546935e-02 -1.548793e-02 -1.640409e-02 -1.611692e-02 -1.662597e-02 -1.600926e-02 -1.606908e-02 -1.510124e-02 -1.467559e-02 -1.333929e-02 -1.240096e-02 -1.068673e-02 -9.222152e-03 -7.133636e-03 -5.149201e-03 -2.710084e-03 -2.396888e-04 2.498274e-03 5.384909e-03 8.333628e-03 1.152308e-02 1.455107e-02 1.788036e-02 2.080883e-02 2.406377e-02 2.666815e-02 2.958824e-02 3.160774e-02 3.389991e-02 3.505677e-02 3.641939e-02 3.644860e-02 3.660517e-02 3.529218e-02 3.403127e-02 3.125239e-02 2.846710e-02 2.422396e-02 1.994189e-02 1.438076e-02 8.776632e-03 2.186465e-03 -4.426075e-03 -1.163566e-02 -1.882868e-02 -2.616086e-02 -3.342333e-02 -4.032693e-02 -4.709289e-02 -5.298793e-02 -5.866007e-02 -6.296101e-02 -6.694090e-02 -6.909703e-02 -7.084500e-02 -7.042487e-02 -6.957213e-02 -6.640664e-02 -6.291481e-02 -5.726827e-02 -5.157262e-02 -4.424602e-02 -3.726473e-02 -2.950891e-02 -2.243185e-02 -1.563590e-02 -9.570045e-03 -4.867771e-03 -5.695271e-04 1.445195e-03 3.690136e-03 3.182397e-03 3.781968e-03 1.822512e-03 1.873638e-03 -1.034777e-04 5.223225e-04 -3.979119e-04 1.566272e-03 2.239804e-03 5.657329e-03 7.980174e-03 1.242797e-02 1.578660e-02 2.028331e-02 2.334276e-02 2.682590e-02 2.897728e-02 3.124957e-02 3.253915e-02 3.379232e-02 3.439252e-02 3.483733e-02 3.488062e-02 3.468107e-02 3.427190e-02 3.356111e-02 3.279572e-02 3.168478e-02 3.065195e-02 2.922962e-02 2.800531e-02 2.633821e-02 2.498307e-02 2.311925e-02 2.168013e-02 1.965501e-02 1.816871e-02 
2.064576e-02 1.857855e-02 1.587129e-02 1.381219e-02 1.102155e-02 9.010421e-03 6.178180e-03 4.256797e-03 1.431863e-03 -3.560471e-04 -3.118118e-03 -4.727792e-03 -7.366236e-03 -8.753162e-03 -1.120387e-02 -1.232500e-02 -1.452234e-02 -1.533691e-02 -1.721520e-02 -1.768494e-02 -1.917952e-02 -1.926847e-02 -2.031641e-02 -1.999055e-02 -2.053154e-02 -1.975881e-02 -1.973649e-02 -1.848780e-02 -1.785241e-02 -1.610424e-02 -1.481692e-02 -1.255600e-02 -1.059522e-02 -7.825567e-03 -5.195736e-03 -1.947893e-03 1.310152e-03 4.968306e-03 8.765822e-03 1.271785e-02 1.690720e-02 2.097842e-02 2.534478e-02 2.929663e-02 3.355528e-02 3.708702e-02 4.088956e-02 4.365051e-02 4.660318e-02 4.821848e-02 4.991482e-02 5.002537e-02 5.009268e-02 4.840680e-02 4.656178e-02 4.291107e-02 3.901498e-02 3.340240e-02 2.750242e-02 2.012879e-02 1.247301e-02 3.732406e-03 -5.246985e-03 -1.480200e-02 -2.453027e-02 -3.424009e-02 -4.404871e-02 -5.319481e-02 -6.235905e-02 -7.019523e-02 -7.795459e-02 -8.372656e-02 -8.930414e-02 -9.228672e-02 -9.494540e-02 -9.454330e-02 -9.372307e-02 -8.966714e-02 -8.521380e-02 -7.781601e-02 -7.022268e-02 -6.054221e-02 -5.102613e-02 -4.074181e-02 -3.099261e-02 -2.192235e-02 -1.358529e-02 -7.137164e-03 -1.363666e-03 1.691077e-03 4.486291e-03 4.167282e-03 4.648834e-03 2.261307e-03 1.922890e-03 -7.122695e-04 -2.220676e-04 -1.547145e-03 7.086525e-04 1.491489e-03 5.702079e-03 8.805208e-03 1.454003e-02 1.922563e-02 2.518817e-02 2.930882e-02 3.384085e-02 3.665646e-02 3.959893e-02 4.129664e-02 4.295487e-02 4.376984e-02 4.440543e-02 4.448454e-02 4.429572e-02 4.376165e-02 4.292024e-02 4.189809e-02 4.055385e-02 3.916329e-02 3.743675e-02 3.578038e-02 3.376073e-02 3.191982e-02 2.966960e-02 2.770656e-02 2.527000e-02 2.323396e-02 
2.660268e-02 2.410086e-02 2.032359e-02 1.783462e-02 1.392337e-02 1.149593e-02 7.511982e-03 5.197302e-03 1.212097e-03 -9.361170e-04 -4.842248e-03 -6.769038e-03 -1.050938e-02 -1.216024e-02 -1.564469e-02 -1.696712e-02 -2.010498e-02 -2.104950e-02 -2.375173e-02 -2.427205e-02 -2.645269e-02 -2.650528e-02 -2.808235e-02 -2.762578e-02 -2.852204e-02 -2.751668e-02 -2.766097e-02 -2.606999e-02 -2.539999e-02 -2.319239e-02 -2.165955e-02 -1.881586e-02 -1.639295e-02 -1.291403e-02 -9.605674e-03 -5.524485e-03 -1.380170e-03 3.224234e-03 8.095547e-03 1.308323e-02 1.849879e-02 2.365569e-02 2.934762e-02 3.437720e-02 3.998782e-02 4.451167e-02 4.959970e-02 5.317173e-02 5.723403e-02 5.937215e-02 6.188381e-02 6.212091e-02 6.259404e-02 6.054524e-02 5.860069e-02 5.403741e-02 4.947745e-02 4.239206e-02 3.525636e-02 2.589833e-02 1.648624e-02 5.356251e-03 -5.792122e-03 -1.798866e-02 -3.014396e-02 -4.256480e-02 -5.486995e-02 -6.659769e-02 -7.811656e-02 -8.819607e-02 -9.794161e-02 -1.053991e-01 -1.123595e-01 -1.162396e-01 -1.194499e-01 -1.189330e-01 -1.176543e-01 -1.123094e-01 -1.063407e-01 -9.648935e-02 -8.650994e-02 -7.351491e-02 -6.119112e-02 -4.736353e-02 -3.494191e-02 -2.290479e-02 -1.240706e-02 -4.250748e-03 3.040418e-03 6.198533e-03 9.662661e-03 7.991668e-03 8.279718e-03 4.006128e-03 3.418646e-03 -5.816950e-04 -4.664968e-05 -2.037641e-03 1.021790e-03 1.769806e-03 7.385083e-03 1.118484e-02 1.878661e-02 2.493408e-02 3.281729e-02 3.806737e-02 4.384950e-02 4.737906e-02 5.110315e-02 5.329595e-02 5.541636e-02 5.653788e-02 5.734964e-02 5.753946e-02 5.726905e-02 5.667128e-02 5.553279e-02 5.431273e-02 5.249807e-02 5.081560e-02 4.847808e-02 4.646758e-02 4.371881e-02 4.148412e-02 3.840183e-02 3.602089e-02 3.266098e-02 3.019414e-02 
3.084005e-02 2.773997e-02 2.367493e-02 2.057458e-02 1.636668e-02 1.332732e-02 9.040793e-03 6.127530e-03 1.838447e-03 -8.802118e-04 -5.085171e-03 -7.539186e-03 -1.156546e-02 -1.368567e-02 -1.743408e-02 -1.915438e-02 -2.252420e-02 -2.378286e-02 -2.667412e-02 -2.741407e-02 -2.972902e-02 -2.989717e-02 -3.154100e-02 -3.108717e-02 -3.196871e-02 -3.084498e-02 -3.087819e-02 -2.903975e-02 -2.814696e-02 -2.555540e-02 -2.367333e-02 -2.030334e-02 -1.739248e-02 -1.324233e-02 -9.300021e-03 -4.405798e-03 5.174847e-04 6.064742e-03 1.184700e-02 1.788297e-02 2.431244e-02 3.058279e-02 3.734306e-02 4.349230e-02 5.015530e-02 5.572628e-02 6.175862e-02 6.620834e-02 7.099670e-02 7.373392e-02 7.663414e-02 7.708147e-02 7.749217e-02 7.517005e-02 7.262453e-02 6.724572e-02 6.150639e-02 5.306002e-02 4.419107e-02 3.298967e-02 2.138250e-02 8.051525e-03 -5.609951e-03 -2.020049e-02 -3.502227e-02 -4.985705e-02 -6.482832e-02 -7.883361e-02 -9.288944e-02 -1.049744e-01 -1.170092e-01 -1.260629e-01 -1.349167e-01 -1.398102e-01 -1.442979e-01 -1.439896e-01 -1.430778e-01 -1.369255e-01 -1.301334e-01 -1.184090e-01 -1.063385e-01 -9.068554e-02 -7.531785e-02 -5.864681e-02 -4.293964e-02 -2.844486e-02 -1.523697e-02 -5.156414e-03 3.691260e-03 8.189298e-03 1.184643e-02 1.036383e-02 1.009192e-02 5.245065e-03 3.679606e-03 -1.377334e-03 -1.245898e-03 -3.989266e-03 -9.608934e-04 -5.076415e-04 5.497384e-03 9.868326e-03 1.856967e-02 2.658857e-02 3.620667e-02 4.249552e-02 4.921003e-02 5.331381e-02 5.767667e-02 6.034869e-02 6.294671e-02 6.440198e-02 6.549244e-02 6.580740e-02 6.562466e-02 6.495283e-02 6.375898e-02 6.230764e-02 6.034560e-02 5.831673e-02 5.577750e-02 5.333715e-02 5.035542e-02 4.762902e-02 4.429464e-02 4.137511e-02 3.774946e-02 3.470881e-02 
3.711377e-02 3.361321e-02 2.831002e-02 2.480999e-02 1.929216e-02 1.586290e-02 1.021912e-02 6.935814e-03 1.270746e-03 -1.787252e-03 -7.355591e-03 -1.010725e-02 -1.545185e-02 -1.781750e-02 -2.280732e-02 -2.471133e-02 -2.921575e-02 -3.058816e-02 -3.448024e-02 -3.525688e-02 -3.841529e-02 -3.853665e-02 -4.084628e-02 -4.025581e-02 -4.160808e-02 -4.025084e-02 -4.054459e-02 -3.836763e-02 -3.751211e-02 -3.446786e-02 -3.238874e-02 -2.844247e-02 -2.509214e-02 -2.023412e-02 -1.560644e-02 -9.868913e-03 -4.018192e-03 2.503844e-03 9.440890e-03 1.656687e-02 2.434864e-02 3.179087e-02 4.005161e-02 4.739956e-02 5.563858e-02 6.235525e-02 6.994128e-02 7.537902e-02 8.157718e-02 8.502018e-02 8.904790e-02 8.978623e-02 9.090049e-02 8.833360e-02 8.594313e-02 7.969942e-02 7.348303e-02 6.352847e-02 5.352890e-02 4.022884e-02 2.688860e-02 1.099405e-02 -4.883958e-03 -2.232588e-02 -3.967731e-02 -5.745064e-02 -7.506190e-02 -9.188837e-02 -1.084728e-01 -1.230570e-01 -1.372730e-01 -1.482866e-01 -1.587190e-01 -1.647780e-01 -1.699608e-01 -1.697135e-01 -1.683328e-01 -1.608145e-01 -1.522241e-01 -1.375373e-01 -1.225062e-01 -1.025512e-01 -8.372133e-02 -6.228537e-02 -4.353404e-02 -2.510860e-02 -9.711221e-03 2.372475e-03 1.286615e-02 1.690346e-02 2.123083e-02 1.687100e-02 1.558431e-02 7.338273e-03 5.318212e-03 -1.419754e-03 -1.669574e-03 -5.142397e-03 -1.101735e-03 -1.080634e-03 6.369486e-03 1.093164e-02 2.150928e-02 3.162134e-02 4.357719e-02 5.092446e-02 5.879584e-02 6.363054e-02 6.887328e-02 7.226670e-02 7.548556e-02 7.745503e-02 7.881466e-02 7.936468e-02 7.912645e-02 7.845851e-02 7.695529e-02 7.534994e-02 7.288409e-02 7.060170e-02 6.740123e-02 6.464590e-02 6.086571e-02 5.778583e-02 5.352727e-02 5.022967e-02 4.556319e-02 4.212932e-02 
4.092995e-02 3.679579e-02 3.136978e-02 2.721070e-02 2.155952e-02 1.746040e-02 1.167311e-02 7.725832e-03 1.909519e-03 -1.788581e-03 -7.511557e-03 -1.086121e-02 -1.635792e-02 -1.926209e-02 -2.439439e-02 -2.676188e-02 -3.139110e-02 -3.313864e-02 -3.712898e-02 -3.818140e-02 -4.140150e-02 -4.169015e-02 -4.401342e-02 -4.347367e-02 -4.477803e-02 -4.334707e-02 -4.351572e-02 -4.113233e-02 -4.005680e-02 -3.666458e-02 -3.425176e-02 -2.980725e-02 -2.599138e-02 -2.047790e-02 -1.523810e-02 -8.685296e-03 -2.068289e-03 5.423409e-03 1.327679e-02 2.150901e-02 3.033622e-02 3.898635e-02 4.837874e-02 5.697979e-02 6.636752e-02 7.430129e-02 8.295552e-02 8.946799e-02 9.652967e-02 1.007780e-01 1.053222e-01 1.064603e-01 1.076009e-01 1.049039e-01 1.019330e-01 9.494529e-02 8.748444e-02 7.615944e-02 6.428221e-02 4.906390e-02 3.333948e-02 1.514321e-02 -3.429573e-03 -2.334482e-02 -4.349445e-02 -6.371177e-02 -8.406825e-02 -1.031679e-01 -1.223679e-01 -1.389793e-01 -1.556565e-01 -1.683924e-01 -1.810731e-01 -1.884126e-01 -1.954214e-01 -1.957142e-01 -1.952985e-01 -1.871563e-01 -1.780849e-01 -1.613256e-01 -1.439671e-01 -1.207731e-01 -9.802638e-02 -7.320594e-02 -5.006308e-02 -2.914786e-02 -1.030649e-02 3.656737e-03 1.575599e-02 2.185803e-02 2.545842e-02 2.118348e-02 1.906114e-02 1.042471e-02 6.416519e-03 -2.097093e-03 -2.511399e-03 -7.118675e-03 -3.472383e-03 -4.618491e-03 2.349051e-03 6.413274e-03 1.706866e-02 3.040813e-02 4.479628e-02 5.258450e-02 6.110845e-02 6.654595e-02 7.267297e-02 7.694827e-02 8.093324e-02 8.353336e-02 8.533273e-02 8.615273e-02 8.608850e-02 8.540849e-02 8.392384e-02 8.211674e-02 7.959393e-02 7.698293e-02 7.369419e-02 7.051958e-02 6.664009e-02 6.307043e-02 5.870841e-02 5.486300e-02 5.008909e-02 4.605932e-02 
4.756046e-02 4.306130e-02 3.621767e-02 3.168734e-02 2.451887e-02 2.005196e-02 1.267854e-02 8.378458e-03 9.435640e-04 -3.079742e-03 -1.041392e-02 -1.404851e-02 -2.110830e-02 -2.424545e-02 -3.085340e-02 -3.339203e-02 -3.937372e-02 -4.122284e-02 -4.641146e-02 -4.749016e-02 -5.172856e-02 -5.196366e-02 -5.510427e-02 -5.442666e-02 -5.633026e-02 -5.467142e-02 -5.520659e-02 -5.249726e-02 -5.154241e-02 -4.771531e-02 -4.516504e-02 -4.016338e-02 -3.594080e-02 -2.973359e-02 -2.380928e-02 -1.641377e-02 -8.831284e-03 -3.415340e-04 8.751986e-03 1.813232e-02 2.845324e-02 3.837807e-02 4.947565e-02 5.942925e-02 7.066423e-02 7.994816e-02 9.048986e-02 9.823480e-02 1.070883e-01 1.123034e-01 1.183788e-01 1.200498e-01 1.222818e-01 1.195194e-01 1.170329e-01 1.092586e-01 1.015549e-01 8.867904e-02 7.579131e-02 5.832118e-02 4.087446e-02 1.988842e-02 -9.770893e-04 -2.399792e-02 -4.681400e-02 -7.022303e-02 -9.339736e-02 -1.155679e-01 -1.375062e-01 -1.568847e-01 -1.759854e-01 -1.910030e-01 -2.055371e-01 -2.144331e-01 -2.224018e-01 -2.231380e-01 -2.223560e-01 -2.129714e-01 -2.017819e-01 -1.815304e-01 -1.603094e-01 -1.313552e-01 -1.040103e-01 -7.233201e-02 -4.571924e-02 -1.915686e-02 1.255196e-03 1.767492e-02 3.157094e-02 3.628437e-02 4.124345e-02 3.105760e-02 2.562767e-02 1.078926e-02 7.423015e-03 -1.664125e-03 -3.799324e-03 -8.489341e-03 -2.689883e-03 -4.960913e-03 3.482281e-03 5.740624e-03 1.698655e-02 3.336926e-02 5.023796e-02 5.837153e-02 6.807590e-02 7.491252e-02 8.262120e-02 8.837163e-02 9.338969e-02 9.686727e-02 9.905779e-02 1.002389e-01 1.001245e-01 9.949333e-02 9.767738e-02 9.574915e-02 9.269583e-02 8.987107e-02 8.588556e-02 8.244282e-02 7.771061e-02 7.383681e-02 6.846920e-02 6.429305e-02 5.836472e-02 5.398395e-02 
5.094427e-02 4.577314e-02 3.898125e-02 3.373683e-02 2.660446e-02 2.139898e-02 1.404414e-02 9.001764e-03 1.568666e-03 -3.178117e-03 -1.052437e-02 -1.484095e-02 -2.192214e-02 -2.567870e-02 -3.231189e-02 -3.538922e-02 -4.139387e-02 -4.368655e-02 -4.888913e-02 -5.030548e-02 -5.454109e-02 -5.500002e-02 -5.811143e-02 -5.753742e-02 -5.937289e-02 -5.769097e-02 -5.810288e-02 -5.523587e-02 -5.408240e-02 -4.995295e-02 -4.710502e-02 -4.164426e-02 -3.699949e-02 -3.016384e-02 -2.366840e-02 -1.546479e-02 -7.143180e-03 2.338134e-03 1.234706e-02 2.289442e-02 3.429795e-02 4.553914e-02 5.785301e-02 6.922141e-02 8.174123e-02 9.245660e-02 1.042493e-01 1.133257e-01 1.232546e-01 1.295510e-01 1.363515e-01 1.386802e-01 1.410979e-01 1.383989e-01 1.353920e-01 1.269589e-01 1.179371e-01 1.036481e-01 8.868106e-02 6.914700e-02 4.904786e-02 2.558555e-02 1.793333e-03 -2.380806e-02 -4.952417e-02 -7.535153e-02 -1.012205e-01 -1.255203e-01 -1.499548e-01 -1.712096e-01 -1.927619e-01 -2.095172e-01 -2.266134e-01 -2.371101e-01 -2.476669e-01 -2.495155e-01 -2.507687e-01 -2.412181e-01 -2.304095e-01 -2.078732e-01 -1.842443e-01 -1.509739e-01 -1.182961e-01 -8.219168e-02 -4.910549e-02 -2.065817e-02 4.468799e-03 2.142459e-02 3.675704e-02 4.572609e-02 4.660500e-02 3.540946e-02 3.118084e-02 1.865496e-02 1.039222e-02 -2.275648e-03 -1.673509e-03 -7.479817e-03 -2.785044e-03 -7.571188e-03 -8.095252e-04 -2.320726e-03 4.868539e-03 2.636947e-02 4.638720e-02 5.277594e-02 6.354296e-02 7.263761e-02 8.260225e-02 9.042240e-02 9.675593e-02 1.012746e-01 1.040160e-01 1.055621e-01 1.056408e-01 1.050177e-01 1.032667e-01 1.011538e-01 9.813603e-02 9.500558e-02 9.106117e-02 8.722088e-02 8.254307e-02 7.819193e-02 7.288885e-02 6.816243e-02 6.230167e-02 5.730482e-02 
5.801166e-02 5.251225e-02 4.410743e-02 3.851762e-02 2.963628e-02 2.407965e-02 1.487905e-02 9.493878e-03 1.649056e-04 -4.900686e-03 -1.414195e-02 -1.873781e-02 -2.766154e-02 -3.164408e-02 -4.001859e-02 -4.325790e-02 -5.085966e-02 -5.324329e-02 -5.986326e-02 -6.129588e-02 -6.674156e-02 -6.714062e-02 -7.123415e-02 -7.052298e-02 -7.309722e-02 -7.119784e-02 -7.209265e-02 -6.892105e-02 -6.798277e-02 -6.344955e-02 -6.053636e-02 -5.455517e-02 -4.955052e-02 -4.205597e-02 -3.489148e-02 -2.586719e-02 -1.655508e-02 -6.071174e-03 5.255103e-03 1.699729e-02 3.003708e-02 4.265726e-02 5.689668e-02 6.979159e-02 8.446533e-02 9.677866e-02 1.108517e-01 1.214729e-01 1.336588e-01 1.412704e-01 1.501073e-01 1.533037e-01 1.573069e-01 1.547986e-01 1.526972e-01 1.435919e-01 1.346200e-01 1.187199e-01 1.028811e-01 8.088179e-02 5.905961e-02 3.251366e-02 6.331281e-03 -2.266686e-02 -5.120243e-02 -8.046476e-02 -1.093347e-01 -1.369034e-01 -1.642764e-01 -1.884907e-01 -2.126903e-01 -2.319973e-01 -2.512359e-01 -2.637487e-01 -2.756495e-01 -2.786168e-01 -2.798255e-01 -2.696357e-01 -2.564712e-01 -2.302337e-01 -2.013543e-01 -1.603976e-01 -1.209023e-01 -7.425117e-02 -3.700548e-02 5.120164e-04 2.423665e-02 4.417507e-02 6.086170e-02 6.662103e-02 7.313910e-02 4.937514e-02 3.311574e-02 8.827900e-03 9.579226e-03 3.986039e-03 -3.350382e-03 -8.606748e-03 3.194059e-03 -3.005464e-03 5.694495e-03 -5.131611e-04 4.323324e-03 2.148378e-02 3.736334e-02 4.642278e-02 6.337661e-02 7.804147e-02 9.172365e-02 1.023075e-01 1.099719e-01 1.155205e-01 1.185297e-01 1.203716e-01 1.202893e-01 1.196748e-01 1.175480e-01 1.153255e-01 1.117680e-01 1.084693e-01 1.038200e-01 9.977208e-02 9.421120e-02 8.961860e-02 8.324368e-02 7.824380e-02 7.111969e-02 6.581962e-02 
6.097340e-02 5.475861e-02 4.659234e-02 4.022294e-02 3.155564e-02 2.517726e-02 1.616260e-02 9.940047e-03 7.685862e-04 -5.121037e-03 -1.423099e-02 -1.960864e-02 -2.842344e-02 -3.311934e-02 -4.140295e-02 -4.526570e-02 -5.279036e-02 -5.569194e-02 -6.224452e-02 -6.407977e-02 -6.946299e-02 -7.014404e-02 -7.417328e-02 -7.362040e-02 -7.611796e-02 -7.424978e-02 -7.503951e-02 -7.176588e-02 -7.067165e-02 -6.589259e-02 -6.274357e-02 -5.635725e-02 -5.100280e-02 -4.292465e-02 -3.526012e-02 -2.545381e-02 -1.545777e-02 -3.977438e-03 8.241327e-03 2.119990e-02 3.534838e-02 4.939212e-02 6.493759e-02 7.942288e-02 9.554422e-02 1.095369e-01 1.250955e-01 1.373603e-01 1.509103e-01 1.599534e-01 1.698164e-01 1.740095e-01 1.784447e-01 1.762566e-01 1.737435e-01 1.640790e-01 1.536910e-01 1.362762e-01 1.180479e-01 9.371459e-02 6.881933e-02 3.948954e-02 1.004608e-02 -2.168975e-02 -5.317657e-02 -8.472017e-02 -1.159825e-01 -1.452488e-01 -1.745826e-01 -2.001293e-01 -2.263140e-01 -2.470387e-01 -2.688664e-01 -2.832445e-01 -2.986464e-01 -3.036707e-01 -3.087317e-01 -2.994573e-01 -2.886753e-01 -2.601628e-01 -2.295852e-01 -1.822813e-01 -1.353805e-01 -8.163336e-02 -3.353950e-02 4.044240e-03 3.555270e-02 4.925299e-02 6.725732e-02 8.473054e-02 7.161823e-02 3.755383e-02 3.967867e-02 3.752270e-02 1.489729e-02 -2.079187e-03 1.269102e-02 3.652604e-03 8.404954e-03 1.553314e-03 4.353182e-03 -2.673904e-03 1.479134e-03 -7.309408e-03 -4.968869e-03 1.834069e-02 4.822925e-02 7.218312e-02 9.040246e-02 1.039992e-01 1.127392e-01 1.191195e-01 1.223132e-01 1.243208e-01 1.242850e-01 1.236094e-01 1.215679e-01 1.191709e-01 1.157621e-01 1.121984e-01 1.077507e-01 1.033472e-01 9.802429e-02 9.298207e-02 8.686521e-02 8.132099e-02 7.446029e-02 6.852532e-02 
6.861174e-02 6.210564e-02 5.210914e-02 4.541594e-02 3.473547e-02 2.801500e-02 1.685462e-02 1.028992e-02 -1.099462e-03 -7.310875e-03 -1.864515e-02 -2.430416e-02 -3.528370e-02 -4.020336e-02 -5.053109e-02 -5.454790e-02 -6.394409e-02 -6.692394e-02 -7.513495e-02 -7.697225e-02 -8.377215e-02 -8.438241e-02 -8.956816e-02 -8.887605e-02 -9.225872e-02 -9.018482e-02 -9.158047e-02 -8.803096e-02 -8.725532e-02 -8.211835e-02 -7.898920e-02 -7.214176e-02 -6.649215e-02 -5.781966e-02 -4.952405e-02 -3.895392e-02 -2.796773e-02 -1.551655e-02 -1.928072e-03 1.223974e-02 2.814794e-02 4.365399e-02 6.133915e-02 7.752407e-02 9.612109e-02 1.119878e-01 1.302645e-01 1.444500e-01 1.608014e-01 1.716053e-01 1.841205e-01 1.896312e-01 1.962722e-01 1.946316e-01 1.935589e-01 1.833807e-01 1.734069e-01 1.542810e-01 1.353365e-01 1.082185e-01 8.158389e-02 4.877310e-02 1.683182e-02 -1.862130e-02 -5.307274e-02 -8.823875e-02 -1.226676e-01 -1.552800e-01 -1.877095e-01 -2.162170e-01 -2.451650e-01 -2.684681e-01 -2.925860e-01 -3.092934e-01 -3.264386e-01 -3.335075e-01 -3.391919e-01 -3.307463e-01 -3.177908e-01 -2.865574e-01 -2.488240e-01 -1.921494e-01 -1.337158e-01 -6.303416e-02 -8.050230e-03 4.715493e-02 6.769256e-02 8.603893e-02 9.994700e-02 1.057711e-01 1.228867e-01 5.796366e-02 5.698223e-03 -3.606303e-03 2.020816e-02 9.071412e-03 1.821060e-03 -4.385121e-03 -3.011956e-03 -8.891820e-03 -1.477529e-03 -5.400252e-03 4.463970e-03 -1.864215e-02 -1.181079e-02 2.448121e-02 5.991637e-02 8.803800e-02 1.065544e-01 1.207713e-01 1.289257e-01 1.352375e-01 1.379466e-01 1.398322e-01 1.394249e-01 1.386556e-01 1.362348e-01 1.337562e-01 1.298610e-01 1.262044e-01 1.210963e-01 1.165719e-01 1.103719e-01 1.051700e-01 9.793500e-02 9.218664e-02 8.395836e-02 7.777373e-02 
7.119288e-02 6.391950e-02 5.436270e-02 4.680948e-02 3.653153e-02 2.888654e-02 1.808671e-02 1.056755e-02 -5.038619e-04 -7.661715e-03 -1.871809e-02 -2.527794e-02 -3.601565e-02 -4.175722e-02 -5.187541e-02 -5.660933e-02 -6.582588e-02 -6.940134e-02 -7.746176e-02 -7.976546e-02 -8.644336e-02 -8.739010e-02 -9.248018e-02 -9.199748e-02 -9.530391e-02 -9.331473e-02 -9.463924e-02 -9.104762e-02 -9.018206e-02 -8.486667e-02 -8.159457e-02 -7.441412e-02 -6.852488e-02 -5.933847e-02 -5.065649e-02 -3.936023e-02 -2.778958e-02 -1.436904e-02 4.731175e-05 1.545099e-02 3.246036e-02 4.947473e-02 6.853729e-02 8.648000e-02 1.066925e-01 1.245005e-01 1.445347e-01 1.607197e-01 1.787987e-01 1.914600e-01 2.054105e-01 2.123545e-01 2.197908e-01 2.188159e-01 2.175140e-01 2.069019e-01 1.953762e-01 1.745410e-01 1.527042e-01 1.227621e-01 9.233572e-02 5.617496e-02 2.040657e-02 -1.806872e-02 -5.548356e-02 -9.263618e-02 -1.287514e-01 -1.621418e-01 -1.952719e-01 -2.238346e-01 -2.534020e-01 -2.770557e-01 -3.029993e-01 -3.214836e-01 -3.428580e-01 -3.534002e-01 -3.656706e-01 -3.604618e-01 -3.539983e-01 -3.214528e-01 -2.852650e-01 -2.187986e-01 -1.513779e-01 -6.608353e-02 8.880894e-03 6.280427e-02 1.026638e-01 8.997672e-02 1.165981e-01 1.510349e-01 8.229472e-02 1.415240e-02 3.791522e-02 1.341558e-02 -3.729421e-02 -4.239226e-02 -3.105395e-02 -4.019012e-02 -2.030863e-02 -2.251549e-02 -1.008796e-02 -1.473134e-02 -2.876656e-03 -1.323506e-02 1.013484e-02 5.035284e-02 7.755925e-02 1.011022e-01 1.144644e-01 1.265655e-01 1.326518e-01 1.382216e-01 1.402475e-01 1.418955e-01 1.414030e-01 1.405384e-01 1.383112e-01 1.357308e-01 1.321730e-01 1.283416e-01 1.236507e-01 1.188458e-01 1.131072e-01 1.075031e-01 1.007498e-01 9.447162e-02 8.672609e-02 7.988714e-02 
7.960654e-02 7.207681e-02 6.044227e-02 5.257968e-02 3.998116e-02 3.199224e-02 1.869398e-02 1.082070e-02 -2.848525e-03 -1.034313e-02 -2.401098e-02 -3.086319e-02 -4.414076e-02 -5.010792e-02 -6.261704e-02 -6.749534e-02 -7.889059e-02 -8.252442e-02 -9.250535e-02 -9.478578e-02 -1.030977e-01 -1.039504e-01 -1.103745e-01 -1.097402e-01 -1.140774e-01 -1.118893e-01 -1.139423e-01 -1.101071e-01 -1.096671e-01 -1.040540e-01 -1.008978e-01 -9.334207e-02 -8.724252e-02 -7.756524e-02 -6.832027e-02 -5.636694e-02 -4.384574e-02 -2.954364e-02 -1.375056e-02 2.817296e-03 2.166392e-02 4.017133e-02 6.154982e-02 8.133191e-02 1.043240e-01 1.242831e-01 1.474894e-01 1.660206e-01 1.875089e-01 2.024815e-01 2.198136e-01 2.286711e-01 2.390821e-01 2.391520e-01 2.399677e-01 2.290620e-01 2.183985e-01 1.956717e-01 1.732781e-01 1.400320e-01 1.078239e-01 6.761101e-02 2.926256e-02 -1.325101e-02 -5.371334e-02 -9.454608e-02 -1.339784e-01 -1.706374e-01 -2.070335e-01 -2.383049e-01 -2.706080e-01 -2.963696e-01 -3.243243e-01 -3.447898e-01 -3.679426e-01 -3.812012e-01 -3.950732e-01 -3.931084e-01 -3.857278e-01 -3.541352e-01 -3.091045e-01 -2.350544e-01 -1.467887e-01 -3.686297e-02 5.653960e-02 1.512358e-01 1.569950e-01 1.759818e-01 1.837686e-01 5.973831e-02 1.943243e-02 1.890990e-02 -6.833402e-02 -9.814391e-02 -3.792356e-02 -4.180541e-02 -2.249812e-02 -1.675651e-02 -1.118974e-03 -1.074793e-02 5.124948e-03 -7.003376e-03 7.734531e-03 -1.889896e-03 3.491120e-02 9.242203e-02 1.098469e-01 1.284083e-01 1.358645e-01 1.454453e-01 1.494465e-01 1.541584e-01 1.555545e-01 1.569869e-01 1.563033e-01 1.554422e-01 1.530577e-01 1.505358e-01 1.466754e-01 1.428900e-01 1.376603e-01 1.328581e-01 1.262928e-01 1.206324e-01 1.127358e-01 1.063345e-01 9.711930e-02 9.008841e-02 
8.188899e-02 7.352647e-02 6.254877e-02 5.372471e-02 4.172961e-02 3.268699e-02 1.993301e-02 1.095920e-02 -2.224917e-03 -1.081650e-02 -2.405433e-02 -3.195018e-02 -4.484727e-02 -5.176143e-02 -6.393550e-02 -6.963232e-02 -8.073737e-02 -8.504349e-02 -9.478240e-02 -9.758505e-02 -1.057088e-01 -1.069406e-01 -1.132352e-01 -1.128494e-01 -1.171150e-01 -1.150569e-01 -1.170860e-01 -1.132675e-01 -1.128277e-01 -1.071123e-01 -1.039413e-01 -9.614457e-02 -8.996190e-02 -7.987145e-02 -7.040944e-02 -5.782686e-02 -4.488286e-02 -2.968679e-02 -1.319515e-02 4.576194e-03 2.445492e-02 4.450554e-02 6.728216e-02 8.894950e-02 1.136964e-01 1.358399e-01 1.610839e-01 1.819874e-01 2.056278e-01 2.229501e-01 2.422491e-01 2.530927e-01 2.648269e-01 2.660408e-01 2.669457e-01 2.557965e-01 2.434211e-01 2.186684e-01 1.925671e-01 1.556342e-01 1.183460e-01 7.371739e-02 3.046556e-02 -1.566570e-02 -5.913734e-02 -1.014909e-01 -1.413150e-01 -1.770993e-01 -2.118266e-01 -2.406745e-01 -2.707440e-01 -2.943792e-01 -3.217513e-01 -3.429118e-01 -3.699682e-01 -3.885025e-01 -4.121742e-01 -4.178358e-01 -4.237475e-01 -3.942706e-01 -3.597611e-01 -2.717302e-01 -1.800522e-01 -3.775917e-02 8.499958e-02 1.865094e-01 2.457032e-01 1.793663e-01 9.327151e-02 7.166725e-02 7.384784e-03 -1.159611e-01 -1.111037e-01 -6.527408e-02 -2.583822e-02 -2.235643e-02 1.524555e-03 -7.866975e-03 7.274605e-03 -3.788362e-03 6.950244e-03 -5.217937e-03 5.442514e-03 -1.286505e-02 1.908927e-02 8.835318e-02 1.062319e-01 1.272532e-01 1.339216e-01 1.438095e-01 1.474333e-01 1.523089e-01 1.538165e-01 1.554720e-01 1.551908e-01 1.545358e-01 1.527095e-01 1.503052e-01 1.470895e-01 1.432904e-01 1.387562e-01 1.337849e-01 1.279436e-01 1.219457e-01 1.147829e-01 1.078714e-01 9.938153e-02 9.167197e-02 