# vtk DataFile Version 2.0
Comment goes here
ASCII

DATASET STRUCTURED_POINTS
DIMENSIONS    128   128   1

ORIGIN    0.000   0.000   0.000
SPACING   0.0156250.015625   1.000

POINT_DATA   16384
SCALARS uY double
LOOKUP_TABLE default

-1.979866e-05 -3.104477e-05 -1.806874e-05 -2.977825e-05 -1.582710e-05 -2.790160e-05 -1.306581e-05 -2.538235e-05 -9.757753e-06 -2.216984e-05 -5.859654e-06 -1.819921e-05 -1.315880e-06 -1.339605e-05 3.936971e-06 -7.682008e-06 9.964671e-06 -9.813047e-07 1.682900e-05 6.771755e-06 2.458043e-05 1.562429e-05 3.324998e-05 2.559577e-05 4.284075e-05 3.666893e-05 5.331965e-05 4.878132e-05 6.461008e-05 6.181828e-05 7.658609e-05 7.560792e-05 8.906844e-05 8.991824e-05 1.018225e-04 1.044563e-04 1.145575e-04 1.188691e-04 1.269266e-04 1.327444e-04 1.385263e-04 1.456124e-04 1.488964e-04 1.569469e-04 1.575185e-04 1.661669e-04 1.638178e-04 1.726423e-04 1.671685e-04 1.757052e-04 1.669095e-04 1.746723e-04 1.623725e-04 1.688815e-04 1.529261e-04 1.577429e-04 1.380357e-04 1.408042e-04 1.173362e-04 1.178260e-04 9.071273e-05 8.886227e-05 5.838426e-05 5.434117e-05 2.098422e-05 1.514050e-05 -2.036997e-05 -2.735568e-05 -6.403735e-05 -7.124366e-05 -1.078739e-04 -1.141643e-04 -1.493463e-04 -1.534713e-04 -1.857533e-04 -1.864984e-04 -2.145268e-04 -2.108726e-04 -2.335430e-04 -2.247940e-04 -2.413665e-04 -2.272260e-04 -2.374063e-04 -2.180268e-04 -2.220528e-04 -1.981187e-04 -1.968751e-04 -1.697145e-04 -1.647823e-04 -1.363477e-04 -1.297844e-04 -1.022923e-04 -9.607637e-05 -7.137816e-05 -6.683700e-05 -4.599115e-05 -4.356766e-05 -2.696080e-05 -2.637639e-05 -1.398483e-05 -1.464367e-05 -6.216762e-06 -7.525803e-06 -2.693641e-06 -4.185010e-06 -2.494909e-06 -3.800978e-06 -4.723249e-06 -5.494127e-06 -8.478481e-06 -8.384258e-06 -1.294231e-05 -1.171318e-05 -1.746925e-05 -1.492028e-05 -2.161906e-05 -1.765013e-05 -2.513714e-05 -1.971794e-05 -2.791009e-05 -2.106039e-05 -2.991704e-05 -2.168865e-05 -3.118772e-05 -2.165058e-05 -3.177076e-05 -2.100381e-05 -3.171256e-05 
4.472108e-03 4.764245e-03 4.727700e-03 4.980746e-03 4.922277e-03 5.132346e-03 5.048581e-03 5.213987e-03 5.104494e-03 5.225870e-03 5.093248e-03 5.173848e-03 5.023890e-03 5.069932e-03 4.911772e-03 4.932746e-03 4.778925e-03 4.787804e-03 4.654230e-03 4.667525e-03 4.573282e-03 4.610926e-03 4.577912e-03 4.662896e-03 4.715199e-03 4.872890e-03 5.035833e-03 5.292855e-03 5.591562e-03 5.974102e-03 6.431468e-03 6.962890e-03 7.596845e-03 8.294526e-03 9.114567e-03 9.986001e-03 1.098911e-02 1.202747e-02 1.319373e-02 1.437334e-02 1.566176e-02 1.693416e-02 1.827958e-02 1.957112e-02 2.088320e-02 2.209543e-02 2.326084e-02 2.427455e-02 2.516330e-02 2.584728e-02 2.632356e-02 2.654762e-02 2.648443e-02 2.613544e-02 2.543077e-02 2.442878e-02 2.302002e-02 2.133058e-02 1.920323e-02 1.684259e-02 1.403091e-02 1.106293e-02 7.642974e-03 4.170351e-03 2.497566e-04 -3.595048e-03 -7.883925e-03 -1.194187e-02 -1.643990e-02 -2.051955e-02 -2.502822e-02 -2.889327e-02 -3.315625e-02 -3.651518e-02 -4.020594e-02 -4.271826e-02 -4.545120e-02 -4.676517e-02 -4.814649e-02 -4.797500e-02 -4.769737e-02 -4.592109e-02 -4.388429e-02 -4.065267e-02 -3.707053e-02 -3.285880e-02 -2.829785e-02 -2.387232e-02 -1.916076e-02 -1.539871e-02 -1.135643e-02 -8.903464e-03 -5.961928e-03 -4.896260e-03 -2.920467e-03 -2.795517e-03 -1.310771e-03 -1.592215e-03 -1.242602e-04 -3.799279e-04 1.199804e-03 1.178586e-03 2.677902e-03 2.837386e-03 3.922323e-03 4.037072e-03 4.484762e-03 4.437613e-03 4.351071e-03 4.219861e-03 3.857441e-03 3.767153e-03 3.347076e-03 3.369899e-03 3.010003e-03 3.157204e-03 2.895914e-03 3.144162e-03 2.976777e-03 3.291894e-03 3.196719e-03 3.546461e-03 3.498667e-03 3.857263e-03 3.834715e-03 4.183192e-03 4.168138e-03 4.493089e-03 
8.478395e-03 9.035381e-03 9.192631e-03 9.669306e-03 9.791880e-03 1.018109e-02 1.025734e-02 1.055633e-02 1.058008e-02 1.079074e-02 1.076178e-02 1.089129e-02 1.081598e-02 1.087747e-02 1.076937e-02 1.078253e-02 1.066272e-02 1.065422e-02 1.055140e-02 1.055497e-02 1.050518e-02 1.056135e-02 1.060726e-02 1.076261e-02 1.095218e-02 1.125793e-02 1.164240e-02 1.215217e-02 1.278297e-02 1.354928e-02 1.447375e-02 1.554325e-02 1.679894e-02 1.820600e-02 1.981344e-02 2.157227e-02 2.352663e-02 2.562244e-02 2.788456e-02 3.026441e-02 3.275249e-02 3.531751e-02 3.790101e-02 4.050173e-02 4.299961e-02 4.543677e-02 4.762247e-02 4.965561e-02 5.127042e-02 5.263565e-02 5.341137e-02 5.384813e-02 5.353726e-02 5.282120e-02 5.123012e-02 4.920603e-02 4.622370e-02 4.283039e-02 3.844427e-02 3.372401e-02 2.801758e-02 2.210718e-02 1.524052e-02 8.349206e-03 5.327664e-04 -7.080826e-03 -1.560343e-02 -2.364026e-02 -3.258618e-02 -4.069292e-02 -4.970636e-02 -5.744250e-02 -6.604410e-02 -7.285019e-02 -8.039719e-02 -8.559780e-02 -9.129539e-02 -9.417133e-02 -9.717348e-02 -9.711694e-02 -9.672917e-02 -9.345418e-02 -8.940451e-02 -8.314578e-02 -7.583988e-02 -6.746157e-02 -5.809589e-02 -4.904554e-02 -3.941677e-02 -3.144892e-02 -2.332278e-02 -1.789719e-02 -1.213745e-02 -9.659297e-03 -5.961057e-03 -5.644889e-03 -2.971937e-03 -3.594349e-03 -9.527191e-04 -1.526116e-03 1.383159e-03 1.321450e-03 4.143767e-03 4.471944e-03 6.530143e-03 6.747020e-03 7.543778e-03 7.410956e-03 7.170662e-03 6.875216e-03 6.134461e-03 5.938919e-03 5.131029e-03 5.174092e-03 4.522938e-03 4.818089e-03 4.391353e-03 4.886090e-03 4.669914e-03 5.293474e-03 5.243008e-03 5.930490e-03 5.995690e-03 6.695997e-03 6.832053e-03 7.507943e-03 7.678036e-03 8.303421e-03 
1.334721e-02 1.426750e-02 1.415364e-02 1.495641e-02 1.477275e-02 1.544570e-02 1.518175e-02 1.571882e-02 1.537276e-02 1.577468e-02 1.535379e-02 1.562908e-02 1.515029e-02 1.531639e-02 1.480678e-02 1.489106e-02 1.438809e-02 1.442851e-02 1.397991e-02 1.402522e-02 1.368849e-02 1.379792e-02 1.363922e-02 1.388152e-02 1.397393e-02 1.442538e-02 1.484613e-02 1.558736e-02 1.641366e-02 1.752471e-02 1.882775e-02 2.038104e-02 2.221789e-02 2.426879e-02 2.667195e-02 2.924701e-02 3.221200e-02 3.529538e-02 3.876721e-02 4.228661e-02 4.614670e-02 4.996083e-02 5.401687e-02 5.790740e-02 6.188943e-02 6.556096e-02 6.912703e-02 7.221879e-02 7.497362e-02 7.708533e-02 7.861321e-02 7.934536e-02 7.925554e-02 7.825963e-02 7.623768e-02 7.326760e-02 6.912166e-02 6.407341e-02 5.776244e-02 5.069050e-02 4.232554e-02 3.343144e-02 2.325086e-02 1.285174e-02 1.184637e-03 -1.031958e-02 -2.307970e-02 -3.521951e-02 -4.861118e-02 -6.082958e-02 -7.428344e-02 -8.589281e-02 -9.866810e-02 -1.088087e-01 -1.199423e-01 -1.275887e-01 -1.359131e-01 -1.399793e-01 -1.442678e-01 -1.438388e-01 -1.430961e-01 -1.377531e-01 -1.316017e-01 -1.217492e-01 -1.107843e-01 -9.784898e-02 -8.379781e-02 -7.016367e-02 -5.565747e-02 -4.415688e-02 -3.189201e-02 -2.467570e-02 -1.604893e-02 -1.329714e-02 -7.732177e-03 -7.777395e-03 -3.650397e-03 -4.844427e-03 -5.153422e-04 -1.531255e-03 3.315051e-03 3.145546e-03 7.801976e-03 8.314701e-03 1.164055e-02 1.199711e-02 1.320114e-02 1.300517e-02 1.255376e-02 1.213234e-02 1.092554e-02 1.068703e-02 9.389757e-03 9.527770e-03 8.458527e-03 8.978295e-03 8.221307e-03 9.037692e-03 8.562497e-03 9.569276e-03 9.304886e-03 1.040707e-02 1.027814e-02 1.140156e-02 1.134251e-02 1.243294e-02 1.239156e-02 1.341049e-02 
1.671821e-02 1.788432e-02 1.823318e-02 1.923693e-02 1.951210e-02 2.033819e-02 2.051506e-02 2.115636e-02 2.122096e-02 2.167935e-02 2.162958e-02 2.191744e-02 2.176455e-02 2.190632e-02 2.167613e-02 2.170963e-02 2.144342e-02 2.142071e-02 2.117538e-02 2.116303e-02 2.101059e-02 2.108924e-02 2.111550e-02 2.137846e-02 2.168051e-02 2.223119e-02 2.291354e-02 2.386114e-02 2.502986e-02 2.648278e-02 2.823709e-02 3.029350e-02 3.271448e-02 3.544960e-02 3.858577e-02 4.203603e-02 4.588619e-02 5.003086e-02 5.452551e-02 5.926754e-02 6.425095e-02 6.939991e-02 7.461630e-02 7.987714e-02 8.496537e-02 8.993821e-02 9.443991e-02 9.863563e-02 1.020212e-01 1.048969e-01 1.066120e-01 1.076265e-01 1.071554e-01 1.058398e-01 1.027783e-01 9.880821e-02 9.292755e-02 8.617922e-02 7.746287e-02 6.803436e-02 5.667155e-02 4.486051e-02 3.119835e-02 1.744657e-02 1.923027e-03 -1.324322e-02 -3.014752e-02 -4.614517e-02 -6.390120e-02 -8.006222e-02 -9.801956e-02 -1.135118e-01 -1.307777e-01 -1.445165e-01 -1.598440e-01 -1.704697e-01 -1.822454e-01 -1.882533e-01 -1.946799e-01 -1.947444e-01 -1.942596e-01 -1.876951e-01 -1.795645e-01 -1.667645e-01 -1.516780e-01 -1.343561e-01 -1.147745e-01 -9.591343e-02 -7.580900e-02 -5.922296e-02 -4.269299e-02 -3.179922e-02 -2.067556e-02 -1.639924e-02 -9.763972e-03 -1.002797e-02 -5.343301e-03 -7.341135e-03 -2.239287e-03 -3.898158e-03 2.086569e-03 1.762826e-03 7.696314e-03 8.449806e-03 1.272859e-02 1.318261e-02 1.448018e-02 1.408564e-02 1.321933e-02 1.256847e-02 1.086526e-02 1.053842e-02 8.868529e-03 9.085670e-03 7.820500e-03 8.550172e-03 7.764892e-03 8.874534e-03 8.512008e-03 9.855167e-03 9.816084e-03 1.126778e-02 1.145132e-02 1.291617e-02 1.323467e-02 1.464378e-02 1.502559e-02 1.633031e-02 
2.185760e-02 2.346804e-02 2.334135e-02 2.475316e-02 2.450309e-02 2.569406e-02 2.530114e-02 2.625844e-02 2.571724e-02 2.643889e-02 2.575909e-02 2.625610e-02 2.546369e-02 2.576221e-02 2.490046e-02 2.504360e-02 2.417357e-02 2.422263e-02 2.342301e-02 2.345786e-02 2.282417e-02 2.294293e-02 2.258588e-02 2.290339e-02 2.294621e-02 2.359118e-02 2.416532e-02 2.527537e-02 2.651407e-02 2.822802e-02 3.025671e-02 3.270325e-02 3.562638e-02 3.890853e-02 4.279211e-02 4.696741e-02 5.181789e-02 5.687499e-02 6.261548e-02 6.844905e-02 7.489566e-02 8.128309e-02 8.812528e-02 9.471010e-02 1.015009e-01 1.077893e-01 1.139515e-01 1.193291e-01 1.241849e-01 1.279593e-01 1.307859e-01 1.322568e-01 1.323676e-01 1.309186e-01 1.277581e-01 1.229534e-01 1.161863e-01 1.078477e-01 9.741427e-02 8.565219e-02 7.176903e-02 5.695636e-02 4.006168e-02 2.276313e-02 3.434137e-03 -1.566902e-02 -3.678032e-02 -5.692548e-02 -7.909634e-02 -9.940875e-02 -1.217734e-01 -1.411762e-01 -1.625942e-01 -1.797042e-01 -1.986283e-01 -2.117224e-01 -2.261739e-01 -2.333367e-01 -2.411157e-01 -2.406372e-01 -2.398313e-01 -2.308076e-01 -2.205176e-01 -2.034733e-01 -1.845203e-01 -1.618214e-01 -1.371454e-01 -1.130165e-01 -8.749041e-02 -6.735942e-02 -4.639995e-02 -3.475105e-02 -2.110050e-02 -1.805462e-02 -1.000715e-02 -1.125098e-02 -5.535702e-03 -8.537881e-03 -1.465312e-03 -3.977824e-03 4.515684e-03 3.822214e-03 1.210222e-02 1.311296e-02 1.889215e-02 1.953166e-02 2.093293e-02 2.039446e-02 1.896020e-02 1.819004e-02 1.582832e-02 1.556815e-02 1.334288e-02 1.380241e-02 1.209952e-02 1.319387e-02 1.205495e-02 1.360448e-02 1.293438e-02 1.475914e-02 1.442635e-02 1.637831e-02 1.625701e-02 1.822445e-02 1.820877e-02 2.011054e-02 2.011658e-02 2.189409e-02 
2.445540e-02 2.631111e-02 2.694599e-02 2.855431e-02 2.907067e-02 3.040590e-02 3.076300e-02 3.181027e-02 3.198265e-02 3.274000e-02 3.271997e-02 3.320119e-02 3.300143e-02 3.323887e-02 3.289467e-02 3.294143e-02 3.251211e-02 3.244350e-02 3.201277e-02 3.192679e-02 3.160213e-02 3.161894e-02 3.152972e-02 3.178991e-02 3.208410e-02 3.274525e-02 3.358407e-02 3.481496e-02 3.636470e-02 3.833617e-02 4.075627e-02 4.362762e-02 4.705409e-02 5.095436e-02 5.547807e-02 6.048186e-02 6.612209e-02 7.222078e-02 7.889545e-02 8.596614e-02 9.346198e-02 1.012381e-01 1.091857e-01 1.172354e-01 1.250963e-01 1.328170e-01 1.398911e-01 1.465282e-01 1.519899e-01 1.566893e-01 1.596590e-01 1.615546e-01 1.612027e-01 1.595345e-01 1.552064e-01 1.494472e-01 1.407798e-01 1.307381e-01 1.177289e-01 1.035891e-01 8.658572e-02 6.886370e-02 4.846748e-02 2.789661e-02 4.820926e-03 -1.777639e-02 -4.281761e-02 -6.659973e-02 -9.290244e-02 -1.169675e-01 -1.437164e-01 -1.669501e-01 -1.929893e-01 -2.138654e-01 -2.374454e-01 -2.539126e-01 -2.725746e-01 -2.822064e-01 -2.929966e-01 -2.935175e-01 -2.936430e-01 -2.837405e-01 -2.715845e-01 -2.516869e-01 -2.279131e-01 -2.005622e-01 -1.689424e-01 -1.387108e-01 -1.062034e-01 -7.944756e-02 -5.403615e-02 -3.745149e-02 -2.190444e-02 -1.736783e-02 -9.442335e-03 -1.206748e-02 -6.786900e-03 -1.154969e-02 -4.153617e-03 -8.011548e-03 1.463402e-03 2.783528e-04 9.841798e-03 1.126613e-02 1.815630e-02 1.886261e-02 1.976942e-02 1.881235e-02 1.649380e-02 1.547643e-02 1.248276e-02 1.227096e-02 9.741594e-03 1.044927e-02 8.703499e-03 1.014817e-02 9.163895e-03 1.110517e-02 1.074450e-02 1.296824e-02 1.307066e-02 1.540910e-02 1.582668e-02 1.815593e-02 1.876354e-02 2.099416e-02 2.168924e-02 2.375640e-02 
2.978310e-02 3.218498e-02 3.215237e-02 3.427239e-02 3.405469e-02 3.585738e-02 3.542253e-02 3.688367e-02 3.621853e-02 3.732835e-02 3.644090e-02 3.720792e-02 3.612953e-02 3.658417e-02 3.537131e-02 3.556876e-02 3.430378e-02 3.432585e-02 3.311687e-02 3.307267e-02 3.205250e-02 3.207804e-02 3.140218e-02 3.165875e-02 3.150210e-02 3.217286e-02 3.272455e-02 3.400859e-02 3.546388e-02 3.756641e-02 4.011440e-02 4.323191e-02 4.703771e-02 5.133676e-02 5.651739e-02 6.210659e-02 6.870043e-02 7.559612e-02 8.352747e-02 9.161547e-02 1.006574e-01 1.096552e-01 1.193961e-01 1.288227e-01 1.386455e-01 1.478088e-01 1.568923e-01 1.649054e-01 1.722600e-01 1.780981e-01 1.826455e-01 1.852501e-01 1.859470e-01 1.843712e-01 1.803652e-01 1.739361e-01 1.647187e-01 1.531730e-01 1.386798e-01 1.222204e-01 1.028327e-01 8.207463e-02 5.851136e-02 3.433953e-02 7.488368e-03 -1.909876e-02 -4.831965e-02 -7.629084e-02 -1.069622e-01 -1.352095e-01 -1.663024e-01 -1.934790e-01 -2.236216e-01 -2.479201e-01 -2.751094e-01 -2.941112e-01 -3.155440e-01 -3.263516e-01 -3.386317e-01 -3.384528e-01 -3.383469e-01 -3.254738e-01 -3.111187e-01 -2.859790e-01 -2.581230e-01 -2.239730e-01 -1.867428e-01 -1.498464e-01 -1.109761e-01 -8.041568e-02 -4.995195e-02 -3.467394e-02 -1.755252e-02 -1.751254e-02 -8.773874e-03 -1.211222e-02 -6.992682e-03 -1.301290e-02 -2.837596e-03 -8.373821e-03 4.609571e-03 2.205007e-03 1.470291e-02 1.646222e-02 2.506367e-02 2.602053e-02 2.611833e-02 2.490325e-02 2.144714e-02 2.047912e-02 1.668701e-02 1.683293e-02 1.377900e-02 1.499832e-02 1.286837e-02 1.488617e-02 1.357305e-02 1.610992e-02 1.542623e-02 1.825287e-02 1.800687e-02 2.094856e-02 2.097135e-02 2.389911e-02 2.405157e-02 2.687048e-02 2.704171e-02 2.968018e-02 
3.146881e-02 3.413211e-02 3.519450e-02 3.752424e-02 3.841670e-02 4.037225e-02 4.103240e-02 4.258517e-02 4.296986e-02 4.410762e-02 4.419742e-02 4.492923e-02 4.473281e-02 4.509351e-02 4.465114e-02 4.470471e-02 4.409041e-02 4.393207e-02 4.325421e-02 4.301111e-02 4.241167e-02 4.224237e-02 4.189470e-02 4.198740e-02 4.209245e-02 4.266128e-02 4.344141e-02 4.471994e-02 4.640935e-02 4.863985e-02 5.146994e-02 5.488658e-02 5.906485e-02 6.386949e-02 6.955073e-02 7.588036e-02 8.313018e-02 9.101656e-02 9.976862e-02 1.090925e-01 1.191033e-01 1.295486e-01 1.403561e-01 1.513715e-01 1.622682e-01 1.730487e-01 1.830806e-01 1.925834e-01 2.005910e-01 2.075997e-01 2.123142e-01 2.155633e-01 2.157606e-01 2.141158e-01 2.088166e-01 2.014835e-01 1.901531e-01 1.768583e-01 1.595382e-01 1.406071e-01 1.179030e-01 9.418163e-02 6.708454e-02 3.971937e-02 9.324449e-03 -2.049720e-02 -5.322740e-02 -8.443515e-02 -1.187267e-01 -1.503196e-01 -1.854096e-01 -2.161916e-01 -2.509379e-01 -2.791155e-01 -3.114914e-01 -3.343415e-01 -3.610649e-01 -3.750202e-01 -3.916939e-01 -3.931312e-01 -3.951527e-01 -3.817793e-01 -3.659283e-01 -3.381403e-01 -3.044335e-01 -2.657515e-01 -2.190555e-01 -1.754314e-01 -1.269023e-01 -8.714258e-02 -5.285947e-02 -2.992901e-02 -1.165966e-02 -9.868254e-03 -3.258845e-03 -1.074204e-02 -7.240820e-03 -1.628554e-02 -6.022570e-03 -1.417227e-02 -3.820857e-04 -4.255157e-03 9.115427e-03 1.154740e-02 2.184515e-02 2.265949e-02 2.082609e-02 1.896105e-02 1.412296e-02 1.322812e-02 8.897883e-03 9.508095e-03 6.386885e-03 8.172175e-03 6.237886e-03 8.812840e-03 7.877610e-03 1.093304e-02 1.077791e-02 1.407997e-02 1.449694e-02 1.787206e-02 1.867929e-02 2.199965e-02 2.304403e-02 2.621442e-02 2.736785e-02 3.031462e-02 
3.693032e-02 4.026245e-02 4.047320e-02 4.344168e-02 4.339694e-02 4.594682e-02 4.559593e-02 4.768390e-02 4.699939e-02 4.859982e-02 4.758163e-02 4.869294e-02 4.737230e-02 4.802262e-02 4.646473e-02 4.671601e-02 4.502128e-02 4.497178e-02 4.327551e-02 4.306069e-02 4.153178e-02 4.132395e-02 4.016256e-02 4.016929e-02 3.960343e-02 4.006433e-02 4.034458e-02 4.152525e-02 4.291615e-02 4.509764e-02 4.786385e-02 5.132542e-02 5.571047e-02 6.070373e-02 6.689968e-02 7.361251e-02 8.171978e-02 9.023014e-02 1.002085e-01 1.104302e-01 1.220443e-01 1.336697e-01 1.464366e-01 1.588856e-01 1.720338e-01 1.844219e-01 1.968785e-01 2.080234e-01 2.184479e-01 2.269341e-01 2.338181e-01 2.381366e-01 2.399802e-01 2.387466e-01 2.343005e-01 2.265182e-01 2.150418e-01 2.003386e-01 1.817837e-01 1.605192e-01 1.355408e-01 1.087074e-01 7.846064e-02 4.740504e-02 1.321481e-02 -2.067113e-02 -5.758571e-02 -9.302909e-02 -1.316335e-01 -1.674200e-01 -2.067199e-01 -2.414308e-01 -2.801113e-01 -3.117070e-01 -3.475811e-01 -3.729971e-01 -4.025035e-01 -4.176501e-01 -4.359043e-01 -4.364647e-01 -4.382838e-01 -4.212695e-01 -4.031154e-01 -3.686100e-01 -3.307466e-01 -2.829624e-01 -2.305470e-01 -1.776944e-01 -1.216062e-01 -7.729630e-02 -3.651221e-02 -1.938303e-02 -2.408157e-03 -1.363714e-02 -5.376627e-03 -7.792094e-03 -7.975031e-03 -1.805995e-02 -2.034141e-03 -1.373573e-02 5.353830e-03 -2.331813e-03 1.399323e-02 1.638782e-02 2.792752e-02 2.909100e-02 2.437549e-02 2.260806e-02 1.637965e-02 1.631268e-02 1.144077e-02 1.301357e-02 9.596291e-03 1.227070e-02 1.008383e-02 1.346338e-02 1.225524e-02 1.605971e-02 1.558229e-02 1.960357e-02 1.962959e-02 2.371035e-02 2.404408e-02 2.806439e-02 2.854354e-02 3.240939e-02 3.290121e-02 3.653458e-02 
3.756191e-02 4.118705e-02 4.286664e-02 4.607610e-02 4.752934e-02 5.025953e-02 5.139362e-02 5.359270e-02 5.433731e-02 5.597301e-02 5.628783e-02 5.735543e-02 5.723718e-02 5.776632e-02 5.725395e-02 5.731340e-02 5.649108e-02 5.619139e-02 5.518921e-02 5.468348e-02 5.367641e-02 5.315977e-02 5.236515e-02 5.207310e-02 5.174677e-02 5.195194e-02 5.238214e-02 5.338828e-02 5.488580e-02 5.701690e-02 5.989926e-02 6.348112e-02 6.804815e-02 7.337987e-02 7.987861e-02 8.719198e-02 9.576977e-02 1.051763e-01 1.158230e-01 1.272506e-01 1.397337e-01 1.528582e-01 1.666585e-01 1.808405e-01 1.951004e-01 2.093424e-01 2.228449e-01 2.357902e-01 2.469934e-01 2.569933e-01 2.641446e-01 2.694192e-01 2.707699e-01 2.696714e-01 2.637843e-01 2.551328e-01 2.412238e-01 2.246267e-01 2.028191e-01 1.788324e-01 1.501660e-01 1.201696e-01 8.628115e-02 5.206725e-02 1.464758e-02 -2.208647e-02 -6.176714e-02 -9.974744e-02 -1.409814e-01 -1.793140e-01 -2.217133e-01 -2.594592e-01 -3.023591e-01 -3.377931e-01 -3.793370e-01 -4.091572e-01 -4.453987e-01 -4.645475e-01 -4.893094e-01 -4.921167e-01 -4.981544e-01 -4.807479e-01 -4.620920e-01 -4.250075e-01 -3.799458e-01 -3.288737e-01 -2.624208e-01 -2.045465e-01 -1.327319e-01 -7.536727e-02 -3.681730e-02 -6.179459e-03 1.342868e-02 8.175557e-03 9.579083e-03 -5.712159e-03 -6.216684e-03 -1.955058e-02 -3.370763e-03 -1.968933e-02 -1.645158e-04 -1.156895e-02 3.205447e-03 5.459139e-03 1.928819e-02 1.950274e-02 1.012326e-02 8.733973e-03 1.762831e-03 3.089249e-03 -1.600235e-03 1.203754e-03 -1.853110e-03 1.772710e-03 5.374900e-05 4.184227e-03 3.572428e-03 7.997261e-03 8.260418e-03 1.281452e-02 1.373104e-02 1.828204e-02 1.965453e-02 2.409646e-02 2.575408e-02 2.999938e-02 3.179327e-02 3.576473e-02 
4.313048e-02 4.756906e-02 4.821614e-02 5.221780e-02 5.253207e-02 5.601202e-02 5.591478e-02 5.879878e-02 5.823836e-02 6.047302e-02 5.943213e-02 6.099498e-02 5.949698e-02 6.040479e-02 5.851772e-02 5.883218e-02 5.667024e-02 5.650084e-02 5.422374e-02 5.372855e-02 5.153948e-02 5.092458e-02 4.906760e-02 4.858575e-02 4.734264e-02 4.729092e-02 4.697679e-02 4.769178e-02 4.864758e-02 5.049587e-02 5.307483e-02 5.643546e-02 6.098029e-02 6.621588e-02 7.302354e-02 8.043718e-02 8.970929e-02 9.948589e-02 1.112646e-01 1.233979e-01 1.374903e-01 1.517005e-01 1.675991e-01 1.832506e-01 2.000615e-01 2.160985e-01 2.324989e-01 2.474238e-01 2.616770e-01 2.736066e-01 2.836703e-01 2.905086e-01 2.942699e-01 2.940188e-01 2.896592e-01 2.808411e-01 2.672720e-01 2.493510e-01 2.265623e-01 2.001639e-01 1.692759e-01 1.360185e-01 9.891037e-02 6.086474e-02 1.953274e-02 -2.137870e-02 -6.533964e-02 -1.076370e-01 -1.531636e-01 -1.957006e-01 -2.420830e-01 -2.836653e-01 -3.300906e-01 -3.687889e-01 -4.134112e-01 -4.456657e-01 -4.844259e-01 -5.046608e-01 -5.308574e-01 -5.325447e-01 -5.380784e-01 -5.161970e-01 -4.946121e-01 -4.485962e-01 -3.992358e-01 -3.351304e-01 -2.645202e-01 -1.926730e-01 -1.131496e-01 -4.910919e-02 3.733020e-04 1.384610e-02 2.147754e-02 -1.916663e-02 -8.923917e-03 9.110617e-03 -1.657584e-03 -2.170492e-02 1.010142e-02 -1.218072e-02 1.370614e-02 -6.473972e-03 1.112061e-02 7.946839e-03 1.343612e-02 1.555499e-02 3.938371e-03 6.392529e-03 9.332233e-06 3.916567e-03 -4.952692e-04 3.938902e-03 8.701111e-04 5.653438e-03 3.784512e-03 8.851902e-03 7.999036e-03 1.326042e-02 1.319084e-02 1.854148e-02 1.902175e-02 2.436124e-02 2.518323e-02 3.042151e-02 3.140773e-02 3.646194e-02 3.746113e-02 4.224968e-02 
4.255465e-02 4.733325e-02 4.987122e-02 5.416493e-02 5.641937e-02 6.012882e-02 6.196333e-02 6.499914e-02 6.630236e-02 6.859810e-02 6.929595e-02 7.082052e-02 7.088688e-02 7.165446e-02 7.111868e-02 7.119504e-02 7.014572e-02 6.965112e-02 6.823649e-02 6.734603e-02 6.577208e-02 6.471468e-02 6.324215e-02 6.229914e-02 6.123986e-02 6.074294e-02 6.045481e-02 6.078210e-02 6.166077e-02 6.322786e-02 6.569182e-02 6.893416e-02 7.339927e-02 7.874152e-02 8.558115e-02 9.338983e-02 1.028779e-01 1.133955e-01 1.256323e-01 1.388934e-01 1.537163e-01 1.694509e-01 1.863391e-01 2.038732e-01 2.218582e-01 2.400303e-01 2.576367e-01 2.747585e-01 2.900089e-01 3.039132e-01 3.144433e-01 3.226705e-01 3.260051e-01 3.261680e-01 3.201797e-01 3.104960e-01 2.939870e-01 2.738519e-01 2.470584e-01 2.173938e-01 1.820881e-01 1.451688e-01 1.041069e-01 6.280079e-02 1.867126e-02 -2.453788e-02 -7.003379e-02 -1.136872e-01 -1.600772e-01 -2.036897e-01 -2.513904e-01 -2.948242e-01 -3.443645e-01 -3.865919e-01 -4.371122e-01 -4.745143e-01 -5.218394e-01 -5.472828e-01 -5.831207e-01 -5.875682e-01 -6.009549e-01 -5.776444e-01 -5.580472e-01 -5.077575e-01 -4.498484e-01 -3.848026e-01 -2.913465e-01 -2.255540e-01 -1.108010e-01 -2.897694e-02 -1.542989e-02 1.242820e-02 4.108506e-02 6.288294e-02 2.669775e-02 -2.303469e-02 2.058686e-02 -1.023173e-02 1.114620e-02 -7.513963e-03 7.766220e-03 -1.193661e-02 5.763447e-03 -1.266288e-02 -2.769566e-02 -2.264681e-02 -2.718285e-02 -1.793871e-02 -2.125928e-02 -1.415729e-02 -1.756085e-02 -1.146269e-02 -1.397106e-02 -8.125760e-03 -9.406622e-03 -3.555043e-03 -3.673470e-03 2.219953e-03 3.062342e-03 8.952233e-03 1.053309e-02 1.635205e-02 1.846644e-02 2.414345e-02 2.660857e-02 3.206995e-02 3.471822e-02 3.988337e-02 
4.822750e-02 5.398913e-02 5.531293e-02 6.058367e-02 6.149460e-02 6.614395e-02 6.652137e-02 7.042685e-02 7.018071e-02 7.324436e-02 7.232734e-02 7.449106e-02 7.290835e-02 7.416587e-02 7.198093e-02 7.238502e-02 6.972103e-02 6.938635e-02 6.642435e-02 6.552719e-02 6.250256e-02 6.127943e-02 5.847846e-02 5.722478e-02 5.498211e-02 5.405140e-02 5.274778e-02 5.254982e-02 5.260770e-02 5.360253e-02 5.547565e-02 5.815877e-02 6.231068e-02 6.718408e-02 7.405053e-02 8.157471e-02 9.150592e-02 1.020294e-01 1.152103e-01 1.288761e-01 1.452261e-01 1.618584e-01 1.809166e-01 1.998967e-01 2.207061e-01 2.408553e-01 2.618681e-01 2.813707e-01 3.004149e-01 3.168345e-01 3.312020e-01 3.416626e-01 3.483930e-01 3.499997e-01 3.464120e-01 3.369200e-01 3.213459e-01 2.999262e-01 2.723966e-01 2.401185e-01 2.025533e-01 1.621229e-01 1.176570e-01 7.234559e-02 2.404665e-02 -2.348981e-02 -7.356541e-02 -1.217327e-01 -1.725852e-01 -2.205251e-01 -2.719507e-01 -3.190834e-01 -3.713725e-01 -4.164627e-01 -4.690718e-01 -5.084120e-01 -5.574472e-01 -5.835038e-01 -6.201784e-01 -6.231198e-01 -6.350251e-01 -6.065887e-01 -5.817260e-01 -5.194427e-01 -4.549460e-01 -3.686625e-01 -2.753424e-01 -1.850400e-01 -7.314322e-02 2.251556e-02 8.159920e-02 2.920528e-02 -3.040343e-02 -3.236521e-02 4.074096e-02 1.017956e-02 5.897059e-03 -8.892346e-04 9.241257e-03 -1.057660e-02 9.561375e-03 -6.867499e-03 1.283514e-02 -1.170275e-02 -2.619543e-02 -2.783317e-02 -2.725998e-02 -1.684411e-02 -1.972310e-02 -1.128248e-02 -1.497670e-02 -7.774630e-03 -1.055621e-02 -3.767142e-03 -5.285772e-03 1.419732e-03 1.026228e-03 7.735223e-03 8.210482e-03 1.491544e-02 1.600543e-02 2.266520e-02 2.414854e-02 3.070713e-02 3.239372e-02 3.878121e-02 4.050186e-02 4.663033e-02 
4.626514e-02 5.243126e-02 5.612669e-02 6.176411e-02 6.512531e-02 7.007986e-02 7.290787e-02 7.703216e-02 7.915503e-02 8.232880e-02 8.362083e-02 8.576973e-02 8.616756e-02 8.727721e-02 8.679030e-02 8.691425e-02 8.562916e-02 8.489125e-02 8.297068e-02 8.156371e-02 7.924264e-02 7.742582e-02 7.500713e-02 7.310456e-02 7.095562e-02 6.935610e-02 6.790601e-02 6.706304e-02 6.679811e-02 6.722592e-02 6.867880e-02 7.093912e-02 7.466571e-02 7.933853e-02 8.587632e-02 9.350853e-02 1.033114e-01 1.143389e-01 1.276856e-01 1.423276e-01 1.592055e-01 1.773337e-01 1.973034e-01 2.182951e-01 2.403490e-01 2.629422e-01 2.853811e-01 3.075650e-01 3.279370e-01 3.469378e-01 3.621118e-01 3.745669e-01 3.810445e-01 3.834725e-01 3.780377e-01 3.676599e-01 3.483564e-01 3.241320e-01 2.912819e-01 2.546839e-01 2.112882e-01 1.661251e-01 1.169399e-01 6.793768e-02 1.737975e-02 -3.170171e-02 -8.134581e-02 -1.289182e-01 -1.776586e-01 -2.240720e-01 -2.735948e-01 -3.203297e-01 -3.733590e-01 -4.212633e-01 -4.794181e-01 -5.252410e-01 -5.850221e-01 -6.185227e-01 -6.691955e-01 -6.754873e-01 -7.014332e-01 -6.680152e-01 -6.515547e-01 -5.766880e-01 -5.051807e-01 -4.137508e-01 -2.807048e-01 -2.350515e-01 -8.606777e-03 1.047344e-01 3.489528e-02 3.198150e-02 7.929035e-02 4.264787e-02 -6.850242e-02 -5.239060e-02 -9.824231e-03 -5.454996e-02 -1.142619e-02 -3.219793e-02 -5.127956e-03 -2.341828e-02 -6.174899e-03 -1.480373e-02 -1.759811e-02 -2.783762e-02 -3.506438e-02 -2.889132e-02 -3.572596e-02 -2.775529e-02 -3.263556e-02 -2.491222e-02 -2.773646e-02 -2.028494e-02 -2.133053e-02 -1.401273e-02 -1.362239e-02 -6.372388e-03 -4.858117e-03 2.333820e-03 4.711507e-03 1.182599e-02 1.484985e-02 2.184765e-02 2.532545e-02 3.214500e-02 3.589100e-02 4.244312e-02 
5.205683e-02 5.940603e-02 6.170111e-02 6.853916e-02 7.034551e-02 7.647336e-02 7.760847e-02 8.283102e-02 8.314656e-02 8.729816e-02 8.669937e-02 8.966683e-02 8.812750e-02 8.986688e-02 8.743727e-02 8.798265e-02 8.479015e-02 8.425528e-02 8.049977e-02 7.907504e-02 7.502224e-02 7.297076e-02 6.894675e-02 6.660232e-02 6.299148e-02 6.075985e-02 5.800591e-02 5.636788e-02 5.497553e-02 5.448788e-02 5.501916e-02 5.630685e-02 5.936546e-02 6.309717e-02 6.929247e-02 7.613164e-02 8.601581e-02 9.654089e-02 1.105145e-01 1.251049e-01 1.432902e-01 1.619783e-01 1.840637e-01 2.063585e-01 2.314234e-01 2.561194e-01 2.824607e-01 3.074665e-01 3.324708e-01 3.547244e-01 3.748747e-01 3.904715e-01 4.016290e-01 4.063340e-01 4.044625e-01 3.947384e-01 3.771233e-01 3.515413e-01 3.181716e-01 2.785232e-01 2.327091e-01 1.836782e-01 1.308337e-01 7.777374e-02 2.269030e-02 -3.080131e-02 -8.571084e-02 -1.382900e-01 -1.922622e-01 -2.435869e-01 -2.968368e-01 -3.473115e-01 -4.018359e-01 -4.519114e-01 -5.102027e-01 -5.568184e-01 -6.165710e-01 -6.492192e-01 -6.995318e-01 -7.032871e-01 -7.262498e-01 -6.888274e-01 -6.616302e-01 -5.743577e-01 -4.862818e-01 -3.559291e-01 -2.139118e-01 -8.570488e-02 2.934294e-02 2.474454e-03 8.572135e-03 2.344985e-02 -1.163470e-01 -1.348755e-01 4.012064e-02 -5.658511e-03 9.664223e-03 -4.956426e-03 1.316300e-02 -1.100381e-02 1.710122e-02 -1.075744e-02 1.559332e-02 3.276991e-03 -1.191155e-02 -2.058348e-03 -2.304204e-02 -1.667191e-02 -2.901921e-02 -2.117265e-02 -2.789766e-02 -1.979503e-02 -2.325577e-02 -1.521238e-02 -1.656784e-02 -8.579141e-03 -8.484097e-03 -5.115384e-04 6.046671e-04 8.580997e-03 1.041127e-02 1.838948e-02 2.069816e-02 2.865118e-02 3.123977e-02 3.910723e-02 4.178952e-02 4.946999e-02 
4.848260e-02 5.632236e-02 6.154240e-02 6.885137e-02 7.370377e-02 8.024619e-02 8.444262e-02 8.998449e-02 9.326515e-02 9.760557e-02 9.976893e-02 1.027681e-01 1.036949e-01 1.052939e-01 1.049617e-01 1.051918e-01 1.036787e-01 1.026619e-01 1.001426e-01 9.808581e-02 9.482311e-02 9.201242e-02 8.834983e-02 8.514720e-02 8.150512e-02 7.835070e-02 7.522707e-02 7.264529e-02 7.061777e-02 6.922247e-02 6.894608e-02 6.943668e-02 7.162807e-02 7.476718e-02 8.016605e-02 8.672877e-02 9.602775e-02 1.067148e-01 1.204524e-01 1.357630e-01 1.541781e-01 1.742421e-01 1.970933e-01 2.214678e-01 2.478263e-01 2.752681e-01 3.033018e-01 3.315455e-01 3.583386e-01 3.839499e-01 4.054523e-01 4.238995e-01 4.351881e-01 4.413610e-01 4.374699e-01 4.268852e-01 4.043898e-01 3.750506e-01 3.341221e-01 2.882646e-01 2.339392e-01 1.780546e-01 1.187907e-01 6.088948e-02 4.175777e-03 -4.986725e-02 -1.012291e-01 -1.500131e-01 -1.970620e-01 -2.423342e-01 -2.882098e-01 -3.341152e-01 -3.848788e-01 -4.363768e-01 -4.988652e-01 -5.549226e-01 -6.279435e-01 -6.732090e-01 -7.425384e-01 -7.516783e-01 -7.978349e-01 -7.490911e-01 -7.457704e-01 -6.242620e-01 -5.532228e-01 -3.768601e-01 -1.938129e-01 -1.030453e-01 6.818641e-02 8.371162e-02 3.060074e-02 -9.370635e-02 -7.613871e-02 -4.797113e-02 8.975538e-04 -3.584777e-02 -7.225477e-03 -2.874196e-02 9.632083e-03 -1.884051e-02 1.107896e-02 -1.624651e-02 1.292280e-02 -1.995074e-02 -6.447029e-02 -2.407286e-02 -5.018524e-02 -3.684972e-02 -5.114955e-02 -4.162433e-02 -4.891132e-02 -4.011099e-02 -4.341363e-02 -3.486285e-02 -3.565311e-02 -2.722085e-02 -2.626143e-02 -1.788118e-02 -1.561545e-02 -7.246257e-03 -3.962189e-03 4.415430e-03 8.503905e-03 1.687987e-02 2.158253e-02 2.990426e-02 3.502072e-02 4.318236e-02 