# vtk DataFile Version 2.0
Comment goes here
ASCII

DATASET STRUCTURED_POINTS
DIMENSIONS    128   128   1

ORIGIN    0.000   0.000   0.000
SPACING   0.0156250.015625   1.000

POINT_DATA   16384
SCALARS uY double
LOOKUP_TABLE default

2.924814e-05 2.604331e-05 3.000193e-05 2.649537e-05 3.057039e-05 2.677618e-05 3.093048e-05 2.686915e-05 3.106229e-05 2.676254e-05 3.095288e-05 2.645341e-05 3.060027e-05 2.595140e-05 3.001722e-05 2.528204e-05 2.923426e-05 2.448911e-05 2.830156e-05 2.363554e-05 2.728923e-05 2.280255e-05 2.628563e-05 2.208672e-05 2.539352e-05 2.159483e-05 2.472387e-05 2.143647e-05 2.438754e-05 2.171468e-05 2.448506e-05 2.251506e-05 2.509496e-05 2.389371e-05 2.626127e-05 2.586482e-05 2.798073e-05 2.838835e-05 3.019050e-05 3.135867e-05 3.275702e-05 3.459488e-05 3.546707e-05 3.783387e-05 3.802224e-05 4.072746e-05 4.003837e-05 4.284550e-05 4.105222e-05 4.368705e-05 4.053761e-05 4.270195e-05 3.793327e-05 3.932488e-05 3.268431e-05 3.302307e-05 2.429747e-05 2.335755e-05 1.240934e-05 1.005591e-05 -3.136119e-06 -6.907479e-06 -2.220596e-05 -2.723091e-05 -4.430166e-05 -5.021529e-05 -6.850007e-05 -7.472018e-05 -9.342913e-05 -9.916529e-05 -1.172986e-04 -1.215990e-04 -1.380076e-04 -1.398547e-04 -1.533494e-04 -1.518092e-04 -1.613232e-04 -1.557415e-04 -1.605346e-04 -1.507468e-04 -1.506120e-04 -1.371016e-04 -1.325025e-04 -1.164270e-04 -1.084869e-04 -9.151580e-05 -8.181641e-05 -6.579812e-05 -5.601197e-05 -4.255598e-05 -3.401022e-05 -2.409562e-05 -1.743085e-05 -1.118284e-05 -6.311472e-06 -3.121931e-06 5.135610e-07 1.610217e-06 4.649184e-06 4.594748e-06 7.467194e-06 6.934453e-06 9.779170e-06 9.116274e-06 1.187843e-05 1.119280e-05 1.379836e-05 1.309112e-05 1.555668e-05 1.480558e-05 1.721288e-05 1.638205e-05 1.882023e-05 1.785922e-05 2.039666e-05 1.924969e-05 2.193187e-05 2.054926e-05 2.340510e-05 2.174955e-05 2.479658e-05 2.284394e-05 2.609061e-05 2.382761e-05 2.727376e-05 2.469507e-05 2.833194e-05 2.543783e-05 
6.536713e-03 5.959199e-03 5.107242e-03 4.533172e-03 3.653429e-03 3.094368e-03 2.200607e-03 1.668503e-03 7.765542e-04 2.838044e-04 -5.886183e-04 -1.029368e-03 -1.863140e-03 -2.239333e-03 -3.014543e-03 -3.314070e-03 -4.010652e-03 -4.222117e-03 -4.820405e-03 -4.933277e-03 -5.414433e-03 -5.419083e-03 -5.765433e-03 -5.653131e-03 -5.848483e-03 -5.611483e-03 -5.641558e-03 -5.273412e-03 -5.126531e-03 -4.622788e-03 -4.290950e-03 -3.650356e-03 -3.130804e-03 -2.357055e-03 -1.654341e-03 -7.583608e-04 1.131742e-04 1.110618e-03 2.124174e-03 3.189809e-03 4.303662e-03 5.389518e-03 6.545303e-03 7.587642e-03 8.710111e-03 9.630260e-03 1.062929e-02 1.133718e-02 1.211274e-02 1.251369e-02 1.296415e-02 1.296898e-02 1.300232e-02 1.253987e-02 1.208672e-02 1.111680e-02 1.014273e-02 8.666840e-03 7.181277e-03 5.248068e-03 3.307471e-03 1.011487e-03 -1.283878e-03 -3.809486e-03 -6.323346e-03 -8.917065e-03 -1.148617e-02 -1.396756e-02 -1.640898e-02 -1.858529e-02 -2.070178e-02 -2.237387e-02 -2.396136e-02 -2.493539e-02 -2.580047e-02 -2.591451e-02 -2.590946e-02 -2.507979e-02 -2.415438e-02 -2.243274e-02 -2.068446e-02 -1.829795e-02 -1.598673e-02 -1.332383e-02 -1.082453e-02 -8.352146e-03 -6.057832e-03 -4.198307e-03 -2.422162e-03 -1.435217e-03 -3.288209e-04 -2.111009e-04 3.211390e-04 -1.238103e-04 1.652490e-04 -3.846049e-04 3.765435e-05 -2.295050e-04 5.973399e-04 8.384465e-04 2.139809e-03 2.932150e-03 4.579860e-03 5.741859e-03 7.427871e-03 8.585355e-03 9.967538e-03 1.086545e-02 1.181536e-02 1.239644e-02 1.294263e-02 1.324019e-02 1.345591e-02 1.351964e-02 1.347458e-02 1.335086e-02 1.310250e-02 1.283287e-02 1.242721e-02 1.204814e-02 1.152074e-02 1.106272e-02 1.043995e-02 9.927260e-03 9.228131e-03 8.679649e-03 7.918225e-03 7.348911e-03 
1.266584e-02 1.147945e-02 9.941476e-03 8.758134e-03 7.173620e-03 6.017232e-03 4.410238e-03 3.305616e-03 1.704062e-03 6.770082e-04 -8.875269e-04 -1.810688e-03 -3.303744e-03 -4.096914e-03 -5.482221e-03 -6.120285e-03 -7.360881e-03 -7.820292e-03 -8.879497e-03 -9.138598e-03 -9.980784e-03 -1.001989e-02 -1.061110e-02 -1.041247e-02 -1.072104e-02 -1.026905e-02 -1.026654e-02 -9.548274e-03 -9.210857e-03 -8.217478e-03 -7.528244e-03 -6.257382e-03 -5.209576e-03 -3.668812e-03 -2.270114e-03 -4.815140e-04 1.240864e-03 3.235516e-03 5.229363e-03 7.363261e-03 9.546320e-03 1.172326e-02 1.397973e-02 1.607194e-02 1.825198e-02 2.010181e-02 2.202560e-02 2.345257e-02 2.492045e-02 2.573490e-02 2.654429e-02 2.656767e-02 2.653615e-02 2.562633e-02 2.461814e-02 2.269576e-02 2.064695e-02 1.771702e-02 1.465301e-02 1.081575e-02 6.856326e-03 2.303591e-03 -2.346137e-03 -7.347339e-03 -1.241577e-02 -1.754606e-02 -2.271542e-02 -2.762319e-02 -3.254351e-02 -3.685719e-02 -4.115247e-02 -4.448844e-02 -4.776358e-02 -4.974427e-02 -5.161104e-02 -5.191381e-02 -5.205550e-02 -5.050507e-02 -4.878335e-02 -4.546982e-02 -4.204000e-02 -3.740102e-02 -3.276409e-02 -2.755082e-02 -2.247667e-02 -1.757789e-02 -1.290875e-02 -9.116982e-03 -5.539729e-03 -3.369807e-03 -1.209581e-03 -7.347864e-04 2.235587e-04 -4.755091e-04 -5.110566e-05 -1.063950e-03 -3.812149e-04 -8.986304e-04 5.781607e-04 1.053499e-03 3.484660e-03 5.080990e-03 8.249798e-03 1.061612e-02 1.391653e-02 1.624847e-02 1.895136e-02 2.073818e-02 2.259300e-02 2.374432e-02 2.481862e-02 2.540933e-02 2.584845e-02 2.597493e-02 2.591398e-02 2.566487e-02 2.521654e-02 2.467272e-02 2.392852e-02 2.316193e-02 2.219311e-02 2.126426e-02 2.012336e-02 1.908051e-02 1.780485e-02 1.668562e-02 1.530199e-02 1.413639e-02 
1.952218e-02 1.779751e-02 1.523300e-02 1.351645e-02 1.086403e-02 9.190573e-03 6.492037e-03 4.897996e-03 2.201600e-03 7.247425e-04 -1.915444e-03 -3.236615e-03 -5.762270e-03 -6.889644e-03 -9.240175e-03 -1.013717e-02 -1.225170e-02 -1.288412e-02 -1.470320e-02 -1.503966e-02 -1.650651e-02 -1.651849e-02 -1.757995e-02 -1.724166e-02 -1.784903e-02 -1.713753e-02 -1.724774e-02 -1.614372e-02 -1.572121e-02 -1.421095e-02 -1.323082e-02 -1.130967e-02 -9.762274e-03 -7.439928e-03 -5.337090e-03 -2.644402e-03 -2.695654e-05 2.975992e-03 6.029990e-03 9.245629e-03 1.261313e-02 1.589937e-02 1.940673e-02 2.257317e-02 2.599479e-02 2.880462e-02 3.186845e-02 3.404855e-02 3.645063e-02 3.771185e-02 3.914125e-02 3.920922e-02 3.938271e-02 3.803670e-02 3.673919e-02 3.385305e-02 3.097656e-02 2.655265e-02 2.212452e-02 1.631107e-02 1.050337e-02 3.589507e-03 -3.292515e-03 -1.090173e-02 -1.844637e-02 -2.626432e-02 -3.398333e-02 -4.147200e-02 -4.882275e-02 -5.541092e-02 -6.180881e-02 -6.690345e-02 -7.173681e-02 -7.474885e-02 -7.742233e-02 -7.783883e-02 -7.787530e-02 -7.540156e-02 -7.260876e-02 -6.736067e-02 -6.200885e-02 -5.466414e-02 -4.755501e-02 -3.932837e-02 -3.164524e-02 -2.401839e-02 -1.699547e-02 -1.130915e-02 -5.924174e-03 -3.017573e-03 2.203099e-04 3.309665e-04 1.709138e-03 5.510747e-05 6.906364e-04 -1.215924e-03 -1.286785e-04 -1.110505e-03 1.278976e-03 1.878835e-03 5.759825e-03 8.119318e-03 1.312781e-02 1.674418e-02 2.191700e-02 2.547436e-02 2.963581e-02 3.234192e-02 3.516236e-02 3.691362e-02 3.853532e-02 3.945169e-02 4.009908e-02 4.031934e-02 4.019131e-02 3.984579e-02 3.910896e-02 3.832079e-02 3.711172e-02 3.599183e-02 3.441695e-02 3.305820e-02 3.119593e-02 2.967165e-02 2.757796e-02 2.594464e-02 2.366061e-02 2.196279e-02 
2.522646e-02 2.285856e-02 1.978018e-02 1.741286e-02 1.423314e-02 1.191485e-02 8.682635e-03 6.464101e-03 3.236477e-03 1.170607e-03 -1.987714e-03 -3.846967e-03 -6.865456e-03 -8.464795e-03 -1.126947e-02 -1.255794e-02 -1.507375e-02 -1.600397e-02 -1.815680e-02 -1.868561e-02 -2.040380e-02 -2.049224e-02 -2.170765e-02 -2.132075e-02 -2.196983e-02 -2.107661e-02 -2.110189e-02 -1.967628e-02 -1.902901e-02 -1.705232e-02 -1.569677e-02 -1.316228e-02 -1.108213e-02 -8.002005e-03 -5.208914e-03 -1.623409e-03 1.832558e-03 5.844279e-03 9.863258e-03 1.417190e-02 1.859340e-02 2.300988e-02 2.760479e-02 3.187476e-02 3.634313e-02 4.014913e-02 4.412720e-02 4.710175e-02 5.018145e-02 5.193405e-02 5.369710e-02 5.385596e-02 5.392180e-02 5.218711e-02 5.026939e-02 4.647022e-02 4.243140e-02 3.657322e-02 3.046326e-02 2.275174e-02 1.481823e-02 5.649995e-03 -3.684345e-03 -1.376133e-02 -2.394427e-02 -3.428459e-02 -4.468236e-02 -5.458856e-02 -6.451555e-02 -7.325960e-02 -8.198301e-02 -8.880895e-02 -9.554532e-02 -9.968448e-02 -1.036300e-01 -1.043818e-01 -1.048306e-01 -1.017539e-01 -9.833135e-02 -9.152663e-02 -8.447664e-02 -7.481943e-02 -6.517001e-02 -5.427311e-02 -4.368592e-02 -3.348058e-02 -2.378501e-02 -1.595324e-02 -8.643859e-03 -4.296957e-03 -1.357356e-04 4.595020e-04 1.969611e-03 2.713774e-05 4.090367e-04 -2.137264e-03 -1.098628e-03 -2.529017e-03 2.347317e-04 8.928288e-04 5.668224e-03 8.792161e-03 1.523064e-02 2.024509e-02 2.710156e-02 3.191957e-02 3.735712e-02 4.093916e-02 4.460099e-02 4.692186e-02 4.905491e-02 5.029057e-02 5.118450e-02 5.149853e-02 5.140156e-02 5.095348e-02 5.008167e-02 4.903185e-02 4.756749e-02 4.606390e-02 4.414991e-02 4.231666e-02 4.005714e-02 3.799172e-02 3.545923e-02 3.323654e-02 3.048243e-02 2.816175e-02 
3.241246e-02 2.954394e-02 2.526442e-02 2.240003e-02 1.795934e-02 1.515848e-02 1.062775e-02 7.952770e-03 3.414857e-03 9.309164e-04 -3.521099e-03 -5.747626e-03 -1.001351e-02 -1.191725e-02 -1.589332e-02 -1.741205e-02 -2.099476e-02 -2.207101e-02 -2.515989e-02 -2.574160e-02 -2.824136e-02 -2.828168e-02 -3.010347e-02 -2.956028e-02 -3.062274e-02 -2.945827e-02 -2.968895e-02 -2.787062e-02 -2.720873e-02 -2.471197e-02 -2.311314e-02 -1.992688e-02 -1.737064e-02 -1.350594e-02 -1.000608e-02 -5.507751e-03 -1.125161e-03 3.914220e-03 9.057064e-03 1.448240e-02 2.018732e-02 2.576772e-02 3.174979e-02 3.717032e-02 4.305364e-02 4.791630e-02 5.324108e-02 5.707986e-02 6.132529e-02 6.363935e-02 6.626545e-02 6.657213e-02 6.708029e-02 6.498458e-02 6.299055e-02 5.826060e-02 5.356676e-02 4.619794e-02 3.884622e-02 2.909378e-02 1.938203e-02 7.749167e-03 -3.795079e-03 -1.661010e-02 -2.928628e-02 -4.246121e-02 -5.545653e-02 -6.810333e-02 -8.053198e-02 -9.172233e-02 -1.026348e-01 -1.113983e-01 -1.197795e-01 -1.251129e-01 -1.299206e-01 -1.308757e-01 -1.311917e-01 -1.271167e-01 -1.224596e-01 -1.133910e-01 -1.041147e-01 -9.115528e-02 -7.867412e-02 -6.403286e-02 -5.055362e-02 -3.701351e-02 -2.479521e-02 -1.484908e-02 -5.612337e-03 -8.629863e-04 4.319941e-03 3.683558e-03 5.238084e-03 1.402561e-03 1.743213e-03 -2.209568e-03 -9.515335e-04 -3.127310e-03 6.059236e-04 1.136300e-03 7.487539e-03 1.123876e-02 1.974192e-02 2.625355e-02 3.530786e-02 4.148624e-02 4.843877e-02 5.296511e-02 5.758721e-02 6.056264e-02 6.325959e-02 6.489741e-02 6.601712e-02 6.649180e-02 6.632692e-02 6.583246e-02 6.464976e-02 6.339512e-02 6.142365e-02 5.960290e-02 5.702117e-02 5.479459e-02 5.173117e-02 4.922227e-02 4.576649e-02 4.306848e-02 3.928485e-02 3.647059e-02 
3.765023e-02 3.410391e-02 2.948808e-02 2.592781e-02 2.113899e-02 1.763928e-02 1.275267e-02 9.392527e-03 4.497017e-03 1.359345e-03 -3.443985e-03 -6.274732e-03 -1.087597e-02 -1.331687e-02 -1.760139e-02 -1.957401e-02 -2.342642e-02 -2.485888e-02 -2.816624e-02 -2.899411e-02 -3.164808e-02 -3.181403e-02 -3.371211e-02 -3.316499e-02 -3.421153e-02 -3.290567e-02 -3.301341e-02 -3.090920e-02 -3.000254e-02 -2.706947e-02 -2.509029e-02 -2.131335e-02 -1.823031e-02 -1.362020e-02 -9.441584e-03 -4.048824e-03 1.161271e-03 7.229275e-03 1.333276e-02 1.989335e-02 2.666005e-02 3.343857e-02 4.053173e-02 4.715039e-02 5.412021e-02 6.009802e-02 6.638896e-02 7.115848e-02 7.613636e-02 7.908316e-02 8.208645e-02 8.261387e-02 8.302993e-02 8.064620e-02 7.800520e-02 7.242027e-02 6.648947e-02 5.769887e-02 4.855144e-02 3.687917e-02 2.491118e-02 1.099089e-02 -3.124504e-03 -1.842779e-02 -3.383195e-02 -4.952762e-02 -6.527099e-02 -8.032773e-02 -9.542187e-02 -1.087951e-01 -1.222022e-01 -1.328040e-01 -1.433861e-01 -1.500487e-01 -1.565483e-01 -1.580864e-01 -1.592584e-01 -1.547561e-01 -1.497548e-01 -1.391099e-01 -1.280808e-01 -1.125762e-01 -9.711266e-02 -7.949464e-02 -6.244996e-02 -4.609025e-02 -3.061664e-02 -1.823799e-02 -6.845555e-03 -2.137102e-04 5.589886e-03 5.531271e-03 6.761201e-03 2.479018e-03 1.888049e-03 -3.161567e-03 -2.288153e-03 -5.323958e-03 -1.579205e-03 -1.450647e-03 5.352987e-03 9.588931e-03 1.927987e-02 2.766178e-02 3.870286e-02 4.621691e-02 5.435097e-02 5.971204e-02 6.511991e-02 6.873774e-02 7.198722e-02 7.405500e-02 7.549034e-02 7.614422e-02 7.608220e-02 7.553767e-02 7.429976e-02 7.281382e-02 7.068348e-02 6.849627e-02 6.569199e-02 6.299866e-02 5.967381e-02 5.662219e-02 5.287954e-02 4.958021e-02 4.549069e-02 4.203039e-02 
4.517050e-02 4.116314e-02 3.516421e-02 3.114192e-02 2.488557e-02 2.093407e-02 1.452338e-02 1.073415e-02 4.290640e-03 7.598822e-04 -5.579573e-03 -8.753928e-03 -1.484233e-02 -1.756456e-02 -2.325085e-02 -2.543111e-02 -3.056586e-02 -3.212265e-02 -3.656247e-02 -3.742352e-02 -4.103384e-02 -4.113540e-02 -4.379176e-02 -4.307699e-02 -4.466558e-02 -4.308305e-02 -4.350169e-02 -4.100546e-02 -4.016633e-02 -3.671882e-02 -3.455429e-02 -3.013326e-02 -2.660576e-02 -2.121613e-02 -1.633255e-02 -1.002299e-02 -3.853355e-03 3.262994e-03 1.056387e-02 1.828663e-02 2.645688e-02 3.447669e-02 4.312839e-02 5.101109e-02 5.961987e-02 6.680298e-02 7.471320e-02 8.052247e-02 8.697558e-02 9.066936e-02 9.486225e-02 9.570853e-02 9.688376e-02 9.426757e-02 9.182833e-02 8.537464e-02 7.900366e-02 6.868621e-02 5.843558e-02 4.463372e-02 3.095100e-02 1.442530e-02 -1.899590e-03 -2.010957e-02 -3.805477e-02 -5.676583e-02 -7.519161e-02 -9.318085e-02 -1.108938e-01 -1.269279e-01 -1.426730e-01 -1.554632e-01 -1.678637e-01 -1.759972e-01 -1.835196e-01 -1.854905e-01 -1.865840e-01 -1.811029e-01 -1.746851e-01 -1.613754e-01 -1.476437e-01 -1.279072e-01 -1.090023e-01 -8.636751e-02 -6.602900e-02 -4.521939e-02 -2.711649e-02 -1.217583e-02 1.361259e-03 7.867206e-03 1.473735e-02 1.180573e-02 1.216138e-02 4.329532e-03 3.523131e-03 -3.260699e-03 -2.586910e-03 -6.472108e-03 -1.530973e-03 -1.991559e-03 6.436795e-03 1.067992e-02 2.241597e-02 3.278970e-02 4.652114e-02 5.549357e-02 6.507109e-02 7.144769e-02 7.787059e-02 8.235954e-02 8.629259e-02 8.895513e-02 9.069133e-02 9.162377e-02 9.151688e-02 9.099430e-02 8.943705e-02 8.779495e-02 8.512967e-02 8.267027e-02 7.915238e-02 7.611205e-02 7.191557e-02 6.846788e-02 6.370786e-02 5.997974e-02 5.473724e-02 5.082704e-02 
4.990781e-02 4.518686e-02 3.903770e-02 3.426913e-02 2.784864e-02 2.313569e-02 1.654827e-02 1.200230e-02 5.373191e-03 1.111904e-03 -5.416059e-03 -9.272929e-03 -1.554501e-02 -1.888093e-02 -2.473710e-02 -2.744356e-02 -3.272461e-02 -3.470432e-02 -3.925651e-02 -4.042447e-02 -4.410221e-02 -4.438461e-02 -4.705136e-02 -4.638324e-02 -4.791168e-02 -4.623448e-02 -4.650720e-02 -4.376804e-02 -4.268044e-02 -3.883477e-02 -3.630166e-02 -3.132080e-02 -2.728802e-02 -2.117235e-02 -1.563389e-02 -8.432089e-03 -1.452407e-03 6.714320e-03 1.497402e-02 2.388477e-02 3.313922e-02 4.244685e-02 5.226247e-02 6.147315e-02 7.125342e-02 7.971973e-02 8.870816e-02 9.564512e-02 1.029558e-01 1.074899e-01 1.121750e-01 1.134334e-01 1.145920e-01 1.118325e-01 1.087541e-01 1.015182e-01 9.383614e-02 8.209018e-02 6.989968e-02 5.411185e-02 3.800051e-02 1.910752e-02 6.930875e-05 -2.066999e-02 -4.141078e-02 -6.261592e-02 -8.378562e-02 -1.041110e-01 -1.244794e-01 -1.426497e-01 -1.609892e-01 -1.756979e-01 -1.906279e-01 -2.003600e-01 -2.101748e-01 -2.131310e-01 -2.158293e-01 -2.102429e-01 -2.040592e-01 -1.891412e-01 -1.736702e-01 -1.509315e-01 -1.283114e-01 -1.021777e-01 -7.709077e-02 -5.335346e-02 -3.098487e-02 -1.352338e-02 2.505249e-03 1.187062e-02 1.846436e-02 1.619367e-02 1.595362e-02 7.791150e-03 4.827635e-03 -3.900617e-03 -3.458588e-03 -8.686678e-03 -4.106748e-03 -5.890916e-03 2.108622e-03 5.688254e-03 1.746700e-02 3.080679e-02 4.733746e-02 5.732781e-02 6.780265e-02 7.508368e-02 8.246202e-02 8.797308e-02 9.269924e-02 9.607600e-02 9.827340e-02 9.953125e-02 9.961657e-02 9.911416e-02 9.758777e-02 9.575431e-02 9.303719e-02 9.023932e-02 8.663129e-02 8.314360e-02 7.883966e-02 7.485799e-02 6.998074e-02 6.564655e-02 6.027783e-02 5.570150e-02 
5.780092e-02 5.266058e-02 4.493492e-02 3.973795e-02 3.162437e-02 2.648614e-02 1.812407e-02 1.317015e-02 4.726249e-03 8.979044e-05 -8.247698e-03 -1.243143e-02 -2.046118e-02 -2.406133e-02 -3.157841e-02 -3.447443e-02 -4.127881e-02 -4.336427e-02 -4.926709e-02 -5.045071e-02 -5.527763e-02 -5.548148e-02 -5.907336e-02 -5.822926e-02 -6.044125e-02 -5.848698e-02 -5.918781e-02 -5.606506e-02 -5.513861e-02 -5.079481e-02 -4.814583e-02 -4.254178e-02 -3.810747e-02 -3.123180e-02 -2.500001e-02 -1.689092e-02 -8.925039e-03 3.014292e-04 9.832430e-03 1.994971e-02 3.073860e-02 4.137636e-02 5.294715e-02 6.356341e-02 7.524989e-02 8.511725e-02 9.606038e-02 1.042779e-01 1.134541e-01 1.189982e-01 1.252917e-01 1.271181e-01 1.294447e-01 1.266438e-01 1.241226e-01 1.161116e-01 1.082545e-01 9.495959e-02 8.182330e-02 6.378128e-02 4.601266e-02 2.432791e-02 3.062521e-03 -2.078549e-02 -4.413418e-02 -6.854579e-02 -9.249775e-02 -1.159381e-01 -1.390541e-01 -1.600880e-01 -1.809331e-01 -1.981014e-01 -2.150743e-01 -2.266560e-01 -2.377602e-01 -2.415874e-01 -2.443903e-01 -2.380888e-01 -2.303242e-01 -2.124027e-01 -1.934967e-01 -1.651977e-01 -1.380809e-01 -1.047611e-01 -7.589931e-02 -4.569608e-02 -2.120927e-02 -4.350814e-04 1.801220e-02 2.635107e-02 3.481735e-02 2.632645e-02 2.252259e-02 7.699485e-03 5.850529e-03 -3.329828e-03 -4.436771e-03 -9.899056e-03 -2.930407e-03 -6.050446e-03 3.650702e-03 5.105904e-03 1.759320e-02 3.343919e-02 5.296713e-02 6.417636e-02 7.602082e-02 8.498589e-02 9.396198e-02 1.010561e-01 1.068365e-01 1.111585e-01 1.137786e-01 1.154446e-01 1.155037e-01 1.150773e-01 1.132252e-01 1.112789e-01 1.080139e-01 1.049940e-01 1.006471e-01 9.686916e-02 9.164518e-02 8.732597e-02 8.135096e-02 7.664357e-02 7.000424e-02 6.502744e-02 
6.201989e-02 5.612737e-02 4.844912e-02 4.244782e-02 3.436175e-02 2.838794e-02 2.003245e-02 1.423625e-02 5.779968e-03 3.212885e-04 -8.042969e-03 -1.300184e-02 -2.106630e-02 -2.536924e-02 -3.292147e-02 -3.642607e-02 -4.325815e-02 -4.584065e-02 -5.175563e-02 -5.331207e-02 -5.812703e-02 -5.857080e-02 -6.211673e-02 -6.137359e-02 -6.349356e-02 -6.149610e-02 -6.204360e-02 -5.872765e-02 -5.756774e-02 -5.287320e-02 -4.988865e-02 -4.376704e-02 -3.887139e-02 -3.130154e-02 -2.446015e-02 -1.547258e-02 -6.731573e-03 3.559189e-03 1.403736e-02 2.539479e-02 3.729214e-02 4.931798e-02 6.212316e-02 7.422259e-02 8.720211e-02 9.856330e-02 1.107529e-01 1.203544e-01 1.305857e-01 1.372482e-01 1.442272e-01 1.467268e-01 1.491788e-01 1.464293e-01 1.433097e-01 1.345996e-01 1.253394e-01 1.105691e-01 9.528167e-02 7.510828e-02 5.465419e-02 3.044307e-02 6.277663e-03 -2.016506e-02 -4.632571e-02 -7.313201e-02 -9.965632e-02 -1.251880e-01 -1.506992e-01 -1.736062e-01 -1.969024e-01 -2.159104e-01 -2.356412e-01 -2.491062e-01 -2.632831e-01 -2.687327e-01 -2.743870e-01 -2.686206e-01 -2.623026e-01 -2.428168e-01 -2.225312e-01 -1.903570e-01 -1.584112e-01 -1.205701e-01 -8.477215e-02 -5.214763e-02 -2.157716e-02 3.949945e-04 2.176501e-02 3.560056e-02 4.010610e-02 3.162070e-02 2.959292e-02 1.699119e-02 9.385177e-03 -3.891187e-03 -2.334007e-03 -9.259412e-03 -3.272388e-03 -9.055467e-03 -8.999960e-04 -3.272619e-03 4.922288e-03 2.487534e-02 4.819271e-02 5.889516e-02 7.178637e-02 8.321310e-02 9.438577e-02 1.036487e-01 1.107552e-01 1.162113e-01 1.194212e-01 1.215287e-01 1.218226e-01 1.214569e-01 1.197059e-01 1.176028e-01 1.144021e-01 1.110812e-01 1.067974e-01 1.026056e-01 9.745192e-02 9.261999e-02 8.671997e-02 8.140988e-02 7.484344e-02 6.918310e-02 
7.037065e-02 6.410203e-02 5.463735e-02 4.823882e-02 3.820815e-02 3.182998e-02 2.141607e-02 1.522557e-02 4.650012e-03 -1.173910e-03 -1.166030e-02 -1.693637e-02 -2.706686e-02 -3.162201e-02 -4.112838e-02 -4.480700e-02 -5.343211e-02 -5.610187e-02 -6.360838e-02 -6.516133e-02 -7.133544e-02 -7.168446e-02 -7.633510e-02 -7.540695e-02 -7.836197e-02 -7.608937e-02 -7.719143e-02 -7.350716e-02 -7.261222e-02 -6.744816e-02 -6.442962e-02 -5.772362e-02 -5.248434e-02 -4.419659e-02 -3.669043e-02 -2.683018e-02 -1.709316e-02 -5.755363e-03 6.054586e-03 1.864478e-02 3.220229e-02 4.564112e-02 6.040704e-02 7.406652e-02 8.924886e-02 1.022444e-01 1.167789e-01 1.279659e-01 1.405344e-01 1.485562e-01 1.576644e-01 1.610748e-01 1.652121e-01 1.626899e-01 1.605767e-01 1.512208e-01 1.421099e-01 1.257485e-01 1.096909e-01 8.707623e-02 6.501212e-02 3.775682e-02 1.133113e-02 -1.845240e-02 -4.729352e-02 -7.747684e-02 -1.068747e-01 -1.356376e-01 -1.639956e-01 -1.898688e-01 -2.157857e-01 -2.374319e-01 -2.593941e-01 -2.751042e-01 -2.909052e-01 -2.979209e-01 -3.040639e-01 -2.983528e-01 -2.904225e-01 -2.680395e-01 -2.432064e-01 -2.038388e-01 -1.653092e-01 -1.165052e-01 -7.609996e-02 -3.295172e-02 -3.119166e-03 2.330381e-02 4.667567e-02 5.758757e-02 6.880921e-02 4.644716e-02 3.054871e-02 5.249082e-03 8.311366e-03 3.003562e-03 -3.333279e-03 -1.002449e-02 3.429637e-03 -4.018212e-03 6.244640e-03 -1.251600e-03 5.088522e-03 1.971698e-02 3.929013e-02 5.405774e-02 7.280320e-02 8.987862e-02 1.047224e-01 1.168462e-01 1.253630e-01 1.319481e-01 1.355132e-01 1.379906e-01 1.381879e-01 1.378775e-01 1.357855e-01 1.335964e-01 1.298601e-01 1.263759e-01 1.213603e-01 1.169505e-01 1.108560e-01 1.057597e-01 9.869918e-02 9.308244e-02 8.513380e-02 7.912875e-02 
7.407863e-02 6.701397e-02 5.780867e-02 5.053659e-02 4.073538e-02 3.343194e-02 2.321466e-02 1.607818e-02 5.667291e-03 -1.089222e-03 -1.143887e-02 -1.759989e-02 -2.761562e-02 -3.297666e-02 -4.238369e-02 -4.676314e-02 -5.529814e-02 -5.854464e-02 -6.596480e-02 -6.795854e-02 -7.404474e-02 -7.469275e-02 -7.924740e-02 -7.847432e-02 -8.131579e-02 -7.905315e-02 -8.000983e-02 -7.618732e-02 -7.509487e-02 -6.963738e-02 -6.634254e-02 -5.917614e-02 -5.354999e-02 -4.461905e-02 -3.658123e-02 -2.587780e-02 -1.543226e-02 -3.037169e-03 9.681800e-03 2.354809e-02 3.822221e-02 5.314310e-02 6.921406e-02 8.452133e-02 1.011406e-01 1.158712e-01 1.318693e-01 1.447513e-01 1.586467e-01 1.681410e-01 1.782181e-01 1.826462e-01 1.871333e-01 1.849215e-01 1.822890e-01 1.723264e-01 1.616784e-01 1.437223e-01 1.251707e-01 1.001341e-01 7.495482e-02 4.486066e-02 1.523983e-02 -1.726292e-02 -4.886500e-02 -8.122202e-02 -1.127290e-01 -1.430182e-01 -1.730331e-01 -2.000689e-01 -2.277521e-01 -2.507522e-01 -2.753129e-01 -2.930629e-01 -3.127750e-01 -3.223791e-01 -3.333354e-01 -3.294473e-01 -3.254277e-01 -3.018589e-01 -2.771076e-01 -2.321625e-01 -1.874133e-01 -1.313649e-01 -7.957745e-02 -3.555155e-02 4.591737e-03 2.473366e-02 5.255663e-02 7.722574e-02 6.649088e-02 3.546218e-02 4.147184e-02 3.917510e-02 1.440762e-02 -4.891889e-03 1.247555e-02 1.510610e-03 8.249554e-03 1.849811e-04 4.483347e-03 -3.920135e-03 1.849448e-03 -8.305005e-03 -3.173850e-03 2.521149e-02 5.697820e-02 8.339674e-02 1.029670e-01 1.183106e-01 1.280593e-01 1.356492e-01 1.395117e-01 1.422774e-01 1.426061e-01 1.423161e-01 1.403772e-01 1.380624e-01 1.345316e-01 1.308034e-01 1.260384e-01 1.212697e-01 1.154558e-01 1.098844e-01 1.031191e-01 9.691208e-02 8.925868e-02 8.255429e-02 
8.303277e-02 7.563570e-02 6.441069e-02 5.676820e-02 4.473591e-02 3.704115e-02 2.443803e-02 1.691116e-02 4.027811e-03 -3.093683e-03 -1.592773e-02 -2.240399e-02 -3.484076e-02 -4.044622e-02 -5.214096e-02 -5.667880e-02 -6.730849e-02 -7.061952e-02 -7.989498e-02 -8.185886e-02 -8.952874e-02 -9.005758e-02 -9.590474e-02 -9.493089e-02 -9.876365e-02 -9.622528e-02 -9.786729e-02 -9.369588e-02 -9.297910e-02 -8.709345e-02 -8.385832e-02 -7.616864e-02 -7.027499e-02 -6.069989e-02 -5.205066e-02 -4.054838e-02 -2.912696e-02 -1.574077e-02 -1.661229e-03 1.342261e-02 2.985480e-02 4.624001e-02 6.446138e-02 8.147174e-02 1.005964e-01 1.172140e-01 1.359848e-01 1.508157e-01 1.675958e-01 1.788948e-01 1.917334e-01 1.975325e-01 2.043522e-01 2.027392e-01 2.016792e-01 1.912429e-01 1.811386e-01 1.615023e-01 1.423671e-01 1.145868e-01 8.782357e-02 5.432510e-02 2.240133e-02 -1.370075e-02 -4.804346e-02 -8.389025e-02 -1.183445e-01 -1.518641e-01 -1.847818e-01 -2.146892e-01 -2.449771e-01 -2.705093e-01 -2.972807e-01 -3.174352e-01 -3.390160e-01 -3.510191e-01 -3.631028e-01 -3.608522e-01 -3.556198e-01 -3.305954e-01 -2.998214e-01 -2.466677e-01 -1.908475e-01 -1.175093e-01 -5.791242e-02 6.675070e-03 3.671984e-02 6.452140e-02 8.771831e-02 1.005821e-01 1.252611e-01 5.600624e-02 -7.049625e-04 -8.415305e-03 2.093327e-02 8.642995e-03 2.932715e-03 -3.524916e-03 -9.081921e-04 -8.479876e-03 3.151018e-04 -5.064050e-03 5.793457e-03 -1.794101e-02 -9.796915e-03 2.952369e-02 6.798046e-02 9.893784e-02 1.194730e-01 1.357505e-01 1.452420e-01 1.529458e-01 1.565081e-01 1.592594e-01 1.593305e-01 1.590118e-01 1.567611e-01 1.544019e-01 1.504132e-01 1.466092e-01 1.411749e-01 1.362863e-01 1.295492e-01 1.238059e-01 1.158389e-01 1.094041e-01 1.002624e-01 9.327504e-02 
8.627197e-02 7.802589e-02 6.728887e-02 5.868761e-02 4.709945e-02 3.836862e-02 2.616132e-02 1.756097e-02 5.025708e-03 -3.162486e-03 -1.569170e-02 -2.318359e-02 -3.535226e-02 -4.188243e-02 -5.333940e-02 -5.867951e-02 -6.909715e-02 -7.306716e-02 -8.215400e-02 -8.462369e-02 -9.212761e-02 -9.300828e-02 -9.871077e-02 -9.793952e-02 -1.016440e-01 -9.916482e-02 -1.006834e-01 -9.643026e-02 -9.557425e-02 -8.946158e-02 -8.604057e-02 -7.796530e-02 -7.179849e-02 -6.165724e-02 -5.259983e-02 -4.032261e-02 -2.830798e-02 -1.390841e-02 9.945743e-04 1.735407e-02 3.487093e-02 5.280243e-02 7.237454e-02 9.118234e-02 1.118873e-01 1.304905e-01 1.509755e-01 1.678550e-01 1.863073e-01 1.995119e-01 2.137103e-01 2.209760e-01 2.284835e-01 2.275337e-01 2.260959e-01 2.151674e-01 2.033278e-01 1.818644e-01 1.596577e-01 1.289071e-01 9.825569e-02 6.130282e-02 2.563155e-02 -1.347270e-02 -5.047686e-02 -8.812178e-02 -1.237798e-01 -1.577468e-01 -1.907966e-01 -2.203656e-01 -2.507409e-01 -2.763052e-01 -3.045866e-01 -3.264787e-01 -3.524505e-01 -3.683847e-01 -3.879994e-01 -3.900635e-01 -3.933067e-01 -3.685297e-01 -3.422477e-01 -2.806191e-01 -2.185786e-01 -1.301921e-01 -5.053082e-02 1.510781e-02 6.956565e-02 6.273944e-02 1.079453e-01 1.526644e-01 7.991739e-02 1.191113e-02 4.154404e-02 1.631267e-02 -3.655632e-02 -4.040716e-02 -2.670726e-02 -3.981070e-02 -1.877408e-02 -2.261673e-02 -9.275935e-03 -1.530327e-02 -2.158016e-03 -1.456207e-02 8.330313e-03 5.185371e-02 8.309163e-02 1.102538e-01 1.261549e-01 1.407280e-01 1.483998e-01 1.555919e-01 1.586200e-01 1.612804e-01 1.613764e-01 1.610612e-01 1.590962e-01 1.566995e-01 1.531300e-01 1.491866e-01 1.442447e-01 1.390848e-01 1.328792e-01 1.267178e-01 1.192978e-01 1.122938e-01 1.036952e-01 9.599184e-02 
9.605283e-02 8.751590e-02 7.449360e-02 6.554137e-02 5.138911e-02 4.226876e-02 2.729103e-02 1.829111e-02 2.867239e-03 -5.698020e-03 -2.113706e-02 -2.895114e-02 -4.395372e-02 -5.072376e-02 -6.485000e-02 -7.032929e-02 -8.317853e-02 -8.718012e-02 -9.840783e-02 -1.008061e-01 -1.101279e-01 -1.108476e-01 -1.180310e-01 -1.170274e-01 -1.218751e-01 -1.191092e-01 -1.214394e-01 -1.168555e-01 -1.164858e-01 -1.099973e-01 -1.067380e-01 -9.822579e-02 -9.188705e-02 -8.121585e-02 -7.163245e-02 -5.868504e-02 -4.575898e-02 -3.049042e-02 -1.425193e-02 3.238319e-03 2.255359e-02 4.193350e-02 6.379412e-02 8.439922e-02 1.078804e-01 1.286107e-01 1.523016e-01 1.715345e-01 1.934770e-01 2.090354e-01 2.267436e-01 2.359917e-01 2.466356e-01 2.468039e-01 2.476547e-01 2.364856e-01 2.256672e-01 2.023407e-01 1.797283e-01 1.457119e-01 1.134621e-01 7.256208e-02 3.457013e-02 -8.385230e-03 -4.812244e-02 -8.924541e-02 -1.279329e-01 -1.650182e-01 -2.010927e-01 -2.332371e-01 -2.660865e-01 -2.935777e-01 -3.235677e-01 -3.472575e-01 -3.748206e-01 -3.935101e-01 -4.149834e-01 -4.209481e-01 -4.243226e-01 -4.022194e-01 -3.688298e-01 -3.022038e-01 -2.202698e-01 -1.080301e-01 -7.655734e-03 1.049997e-01 1.281723e-01 1.629732e-01 1.773703e-01 5.169704e-02 1.786543e-02 1.663098e-02 -6.887955e-02 -9.498921e-02 -2.770953e-02 -3.700612e-02 -1.925063e-02 -1.534027e-02 6.974174e-04 -1.085465e-02 6.806609e-03 -7.412127e-03 9.415701e-03 -3.109541e-03 3.128823e-02 9.403639e-02 1.156528e-01 1.381156e-01 1.482675e-01 1.604749e-01 1.662428e-01 1.726905e-01 1.752475e-01 1.777755e-01 1.778053e-01 1.775529e-01 1.755189e-01 1.732210e-01 1.693987e-01 1.655257e-01 1.600541e-01 1.549070e-01 1.478411e-01 1.416208e-01 1.329797e-01 1.258381e-01 1.156473e-01 1.077268e-01 
9.890873e-02 8.945526e-02 7.716832e-02 6.714970e-02 5.367141e-02 4.337590e-02 2.900486e-02 1.877270e-02 3.889222e-03 -5.907320e-03 -2.086598e-02 -2.985215e-02 -4.442574e-02 -5.225711e-02 -6.599840e-02 -7.238928e-02 -8.489423e-02 -8.963489e-02 -1.005607e-01 -1.035193e-01 -1.125874e-01 -1.136962e-01 -1.206805e-01 -1.199106e-01 -1.246163e-01 -1.219460e-01 -1.241852e-01 -1.195711e-01 -1.191426e-01 -1.124993e-01 -1.091793e-01 -1.003750e-01 -9.392435e-02 -8.279610e-02 -7.298681e-02 -5.937721e-02 -4.604063e-02 -2.985711e-02 -1.295241e-02 5.752640e-03 2.605083e-02 4.698129e-02 7.017911e-02 9.268118e-02 1.178500e-01 1.407899e-01 1.664489e-01 1.880984e-01 2.121188e-01 2.300876e-01 2.496721e-01 2.609652e-01 2.728027e-01 2.741361e-01 2.748789e-01 2.634035e-01 2.505947e-01 2.250651e-01 1.984236e-01 1.604558e-01 1.228886e-01 7.733589e-02 3.447675e-02 -1.214162e-02 -5.446763e-02 -9.686200e-02 -1.352215e-01 -1.709292e-01 -2.044569e-01 -2.335131e-01 -2.632079e-01 -2.879123e-01 -3.165398e-01 -3.405669e-01 -3.717242e-01 -3.959700e-01 -4.278267e-01 -4.425461e-01 -4.612410e-01 -4.432449e-01 -4.246023e-01 -3.462109e-01 -2.669162e-01 -1.215399e-01 4.496828e-03 1.332972e-01 2.182884e-01 1.590999e-01 9.349088e-02 7.187017e-02 6.476050e-03 -1.078700e-01 -9.744685e-02 -6.067951e-02 -2.464555e-02 -2.466462e-02 1.046651e-03 -1.040987e-02 7.494897e-03 -5.683148e-03 7.232921e-03 -6.854171e-03 5.503579e-03 -1.337696e-02 1.643677e-02 9.131566e-02 1.120907e-01 1.367692e-01 1.457592e-01 1.582764e-01 1.636420e-01 1.703469e-01 1.730885e-01 1.759449e-01 1.764741e-01 1.765195e-01 1.751445e-01 1.730341e-01 1.699566e-01 1.661150e-01 1.614376e-01 1.561406e-01 1.498955e-01 1.433305e-01 1.355176e-01 1.278320e-01 1.184571e-01 1.097984e-01 