# vtk DataFile Version 2.0
Comment goes here
ASCII

DATASET STRUCTURED_POINTS
DIMENSIONS    128   128   1

ORIGIN    0.000   0.000   0.000
SPACING   0.0156250.015625   1.000

POINT_DATA   16384
SCALARS uY double
LOOKUP_TABLE default

1.879387e-05 1.650382e-05 1.898450e-05 1.648337e-05 1.905283e-05 1.634657e-05 1.898184e-05 1.608215e-05 1.875887e-05 1.568394e-05 1.837739e-05 1.515281e-05 1.783914e-05 1.449874e-05 1.715614e-05 1.374267e-05 1.635244e-05 1.291772e-05 1.546513e-05 1.206971e-05 1.454433e-05 1.125637e-05 1.365199e-05 1.054527e-05 1.285912e-05 1.001024e-05 1.224150e-05 9.726188e-06 1.187378e-05 9.762360e-06 1.182205e-05 1.017439e-05 1.213521e-05 1.099521e-05 1.283542e-05 1.222539e-05 1.390799e-05 1.382313e-05 1.529124e-05 1.569466e-05 1.686693e-05 1.768544e-05 1.845199e-05 1.957337e-05 1.979292e-05 2.106519e-05 2.056440e-05 2.179829e-05 2.037462e-05 2.135035e-05 1.878042e-05 1.926036e-05 1.531539e-05 1.506388e-05 9.534037e-06 8.345201e-06 1.073080e-06 -1.193619e-06 -1.027155e-05 -1.365034e-05 -2.445842e-05 -2.883538e-05 -4.111659e-05 -4.619453e-05 -5.948127e-05 -6.476128e-05 -7.837024e-05 -8.316118e-05 -9.622241e-05 -9.968876e-05 -1.112158e-04 -1.124706e-04 -1.214737e-04 -1.197171e-04 -1.253557e-04 -1.200496e-04 -1.218074e-04 -1.128569e-04 -1.107048e-04 -9.859234e-05 -9.307942e-05 -7.888130e-05 -7.109043e-05 -5.632293e-05 -4.766543e-05 -3.397613e-05 -2.587110e-05 -1.467002e-05 -8.209657e-06 -3.546716e-07 3.950540e-06 8.348523e-06 1.067110e-05 1.225640e-05 1.330752e-05 1.318641e-05 1.386195e-05 1.313562e-05 1.410204e-05 1.347988e-05 1.493389e-05 1.458540e-05 1.627959e-05 1.593472e-05 1.744169e-05 1.673802e-05 1.783804e-05 1.673777e-05 1.755309e-05 1.624890e-05 1.702347e-05 1.569682e-05 1.661070e-05 1.533227e-05 1.646377e-05 1.521467e-05 1.657539e-05 1.529789e-05 1.687211e-05 1.550522e-05 1.727208e-05 1.576681e-05 1.770790e-05 1.603008e-05 1.812976e-05 1.625775e-05 1.850115e-05 1.642272e-05 
4.458533e-03 4.017066e-03 3.350062e-03 2.913540e-03 2.227530e-03 1.803914e-03 1.109328e-03 7.068727e-04 1.567932e-05 -3.569888e-04 -1.031385e-03 -1.365374e-03 -2.008448e-03 -2.294786e-03 -2.891300e-03 -3.121112e-03 -3.655508e-03 -3.820126e-03 -4.276853e-03 -4.367826e-03 -4.731581e-03 -4.740621e-03 -4.996531e-03 -4.915468e-03 -5.049304e-03 -4.870151e-03 -4.868685e-03 -4.583959e-03 -4.435596e-03 -4.039012e-03 -3.734824e-03 -3.222483e-03 -2.757724e-03 -2.129829e-03 -1.505955e-03 -7.690358e-04 3.852125e-06 8.343723e-04 1.734865e-03 2.632045e-03 3.624907e-03 4.548064e-03 5.582386e-03 6.475889e-03 7.484576e-03 8.278395e-03 9.179763e-03 9.792519e-03 1.049469e-02 1.083977e-02 1.124826e-02 1.124312e-02 1.127147e-02 1.084936e-02 1.043167e-02 9.554216e-03 8.657591e-03 7.325642e-03 5.959908e-03 4.219900e-03 2.442147e-03 3.862591e-04 -1.700884e-03 -3.940740e-03 -6.196190e-03 -8.458345e-03 -1.071255e-02 -1.281650e-02 -1.488189e-02 -1.663856e-02 -1.832035e-02 -1.954342e-02 -2.065389e-02 -2.117748e-02 -2.155980e-02 -2.126877e-02 -2.083418e-02 -1.970783e-02 -1.848075e-02 -1.663693e-02 -1.478677e-02 -1.249845e-02 -1.032736e-02 -7.982704e-03 -5.854097e-03 -3.859968e-03 -2.096045e-03 -7.666179e-04 4.289485e-04 9.533981e-04 1.534783e-03 1.340639e-03 1.458456e-03 8.652313e-04 8.389679e-04 2.596526e-04 4.226448e-04 1.824822e-04 7.554794e-04 1.012346e-03 2.023575e-03 2.756599e-03 4.052129e-03 5.034968e-03 6.313336e-03 7.182503e-03 8.163614e-03 8.749753e-03 9.373238e-03 9.694669e-03 1.001872e-02 1.013966e-02 1.023290e-02 1.020176e-02 1.011480e-02 9.963659e-03 9.733865e-03 9.488192e-03 9.145505e-03 8.828096e-03 8.396738e-03 8.027587e-03 7.526336e-03 7.121937e-03 6.564813e-03 6.138226e-03 5.535827e-03 5.097434e-03 
8.600947e-03 7.690760e-03 6.494727e-03 5.591727e-03 4.364660e-03 3.485392e-03 2.245239e-03 1.406938e-03 1.745159e-04 -6.047895e-04 -1.805880e-03 -2.507628e-03 -3.651488e-03 -4.257006e-03 -5.316109e-03 -5.807014e-03 -6.752867e-03 -7.111303e-03 -7.914998e-03 -8.123679e-03 -8.756288e-03 -8.798390e-03 -9.231290e-03 -9.090339e-03 -9.295634e-03 -8.955621e-03 -8.906869e-03 -8.352858e-03 -8.026401e-03 -7.245894e-03 -6.622989e-03 -5.608268e-03 -4.678222e-03 -3.429764e-03 -2.194083e-03 -7.249812e-04 7.976286e-04 2.456543e-03 4.224737e-03 6.019650e-03 7.964300e-03 9.813967e-03 1.183437e-02 1.362767e-02 1.559045e-02 1.718747e-02 1.892977e-02 2.016781e-02 2.150613e-02 2.221196e-02 2.295761e-02 2.296600e-02 2.294670e-02 2.212420e-02 2.120971e-02 1.947992e-02 1.760740e-02 1.497294e-02 1.216638e-02 8.721583e-03 5.100014e-03 1.030516e-03 -3.197342e-03 -7.628032e-03 -1.218047e-02 -1.665254e-02 -2.119660e-02 -2.535670e-02 -2.952862e-02 -3.300938e-02 -3.643228e-02 -3.887183e-02 -4.117790e-02 -4.225107e-02 -4.312231e-02 -4.259845e-02 -4.183808e-02 -3.966914e-02 -3.729669e-02 -3.370932e-02 -3.003810e-02 -2.556835e-02 -2.119859e-02 -1.660531e-02 -1.229066e-02 -8.352027e-03 -4.784000e-03 -2.084332e-03 2.920129e-04 1.479496e-03 2.572198e-03 2.362920e-03 2.503003e-03 1.468790e-03 1.300989e-03 2.168680e-04 4.282864e-04 -3.355392e-05 9.813405e-04 1.493569e-03 3.385503e-03 4.868294e-03 7.364972e-03 9.372851e-03 1.187413e-02 1.361828e-02 1.552791e-02 1.668196e-02 1.789317e-02 1.852191e-02 1.916074e-02 1.939792e-02 1.959765e-02 1.953431e-02 1.939057e-02 1.908590e-02 1.867105e-02 1.817398e-02 1.754776e-02 1.690346e-02 1.611474e-02 1.536320e-02 1.444963e-02 1.362389e-02 1.261302e-02 1.173925e-02 1.065119e-02 9.750321e-03 
1.332536e-02 1.200539e-02 9.996997e-03 8.690289e-03 6.621597e-03 5.352220e-03 3.254828e-03 2.047871e-03 -4.178210e-05 -1.160052e-03 -3.201111e-03 -4.203644e-03 -6.151882e-03 -7.011482e-03 -8.820598e-03 -9.510509e-03 -1.113338e-02 -1.162762e-02 -1.301728e-02 -1.329065e-02 -1.440100e-02 -1.442887e-02 -1.521514e-02 -1.497320e-02 -1.539248e-02 -1.485681e-02 -1.486904e-02 -1.401694e-02 -1.358668e-02 -1.239868e-02 -1.149808e-02 -9.961416e-03 -8.574779e-03 -6.688540e-03 -4.818375e-03 -2.600268e-03 -2.747604e-04 2.231013e-03 4.949792e-03 7.664355e-03 1.067254e-02 1.347525e-02 1.662118e-02 1.934550e-02 2.242764e-02 2.486222e-02 2.763344e-02 2.953087e-02 3.171128e-02 3.280633e-02 3.410620e-02 3.414413e-02 3.429642e-02 3.306947e-02 3.186886e-02 2.925567e-02 2.659778e-02 2.259775e-02 1.850976e-02 1.326327e-02 7.918003e-03 1.706149e-03 -4.584378e-03 -1.136016e-02 -1.816850e-02 -2.501929e-02 -3.183479e-02 -3.821848e-02 -4.447886e-02 -4.982927e-02 -5.494962e-02 -5.870501e-02 -6.211460e-02 -6.376350e-02 -6.497114e-02 -6.413946e-02 -6.284625e-02 -5.943539e-02 -5.568483e-02 -5.002604e-02 -4.432512e-02 -3.725511e-02 -3.055343e-02 -2.329960e-02 -1.675458e-02 -1.061302e-02 -5.234661e-03 -1.196955e-03 2.393407e-03 3.878269e-03 5.520596e-03 4.706860e-03 4.862412e-03 2.807337e-03 2.529478e-03 5.806299e-04 9.223083e-04 6.945870e-05 1.723710e-03 2.421981e-03 5.455704e-03 7.686451e-03 1.165147e-02 1.474919e-02 1.868080e-02 2.133488e-02 2.427532e-02 2.601256e-02 2.785903e-02 2.882202e-02 2.979525e-02 3.018519e-02 3.048177e-02 3.042209e-02 3.017820e-02 2.975200e-02 2.907438e-02 2.835639e-02 2.733573e-02 2.639700e-02 2.510780e-02 2.401086e-02 2.251030e-02 2.130593e-02 1.963590e-02 1.836360e-02 1.655532e-02 1.524614e-02 
1.714646e-02 1.532727e-02 1.293028e-02 1.112154e-02 8.656566e-03 6.891804e-03 4.395173e-03 2.709593e-03 2.237953e-04 -1.345657e-03 -3.772351e-03 -5.187677e-03 -7.502374e-03 -8.725528e-03 -1.087220e-02 -1.186598e-02 -1.378691e-02 -1.451549e-02 -1.615234e-02 -1.658128e-02 -1.787590e-02 -1.797182e-02 -1.886668e-02 -1.859681e-02 -1.903570e-02 -1.836790e-02 -1.829714e-02 -1.720086e-02 -1.657171e-02 -1.502054e-02 -1.379336e-02 -1.176959e-02 -9.919995e-03 -7.421450e-03 -4.948739e-03 -1.997811e-03 1.064815e-03 4.410539e-03 7.984599e-03 1.162124e-02 1.557197e-02 1.933962e-02 2.346744e-02 2.714424e-02 3.118148e-02 3.448465e-02 3.810084e-02 4.069794e-02 4.351684e-02 4.504993e-02 4.668059e-02 4.680439e-02 4.688591e-02 4.531758e-02 4.357340e-02 4.014702e-02 3.643974e-02 3.115416e-02 2.552803e-02 1.857472e-02 1.127314e-02 3.034247e-03 -5.513827e-03 -1.449733e-02 -2.371692e-02 -3.279521e-02 -4.201489e-02 -5.047886e-02 -5.897302e-02 -6.609055e-02 -7.310807e-02 -7.815155e-02 -8.294581e-02 -8.523836e-02 -8.713366e-02 -8.615555e-02 -8.468846e-02 -8.026838e-02 -7.540609e-02 -6.795353e-02 -6.030426e-02 -5.093605e-02 -4.177846e-02 -3.215098e-02 -2.313933e-02 -1.495402e-02 -7.591128e-03 -2.073236e-03 2.701084e-03 4.978357e-03 6.946802e-03 6.155186e-03 6.055663e-03 3.509462e-03 2.776711e-03 1.798212e-04 3.390009e-04 -8.815906e-04 1.005861e-03 1.840361e-03 5.580868e-03 8.579696e-03 1.370283e-02 1.804647e-02 2.325978e-02 2.681856e-02 3.062732e-02 3.287544e-02 3.525800e-02 3.651627e-02 3.781087e-02 3.834613e-02 3.878975e-02 3.873230e-02 3.848437e-02 3.792729e-02 3.712478e-02 3.616486e-02 3.493113e-02 3.366510e-02 3.210236e-02 3.061548e-02 2.880082e-02 2.716160e-02 2.514973e-02 2.341103e-02 2.124089e-02 1.944431e-02 
2.215181e-02 1.995237e-02 1.659505e-02 1.441104e-02 1.094258e-02 8.814821e-03 5.288899e-03 3.260432e-03 -2.605069e-04 -2.144408e-03 -5.590178e-03 -7.282960e-03 -1.057773e-02 -1.203287e-02 -1.509761e-02 -1.626980e-02 -1.902454e-02 -1.987027e-02 -2.223584e-02 -2.271335e-02 -2.461238e-02 -2.468105e-02 -2.603857e-02 -2.565820e-02 -2.640216e-02 -2.553269e-02 -2.559518e-02 -2.419765e-02 -2.351747e-02 -2.155704e-02 -2.008443e-02 -1.753596e-02 -1.523998e-02 -1.209666e-02 -8.975435e-03 -5.260273e-03 -1.353850e-03 2.866496e-03 7.461707e-03 1.206231e-02 1.717916e-02 2.196357e-02 2.735258e-02 3.204414e-02 3.736817e-02 4.160997e-02 4.644954e-02 4.981738e-02 5.369085e-02 5.572320e-02 5.812508e-02 5.837182e-02 5.882945e-02 5.691669e-02 5.506036e-02 5.076278e-02 4.639778e-02 3.970292e-02 3.286675e-02 2.401293e-02 1.500075e-02 4.474754e-03 -6.175696e-03 -1.768125e-02 -2.923871e-02 -4.089154e-02 -5.249410e-02 -6.338609e-02 -7.409580e-02 -8.328695e-02 -9.212792e-02 -9.867547e-02 -1.046728e-01 -1.076803e-01 -1.099451e-01 -1.086889e-01 -1.066034e-01 -1.007827e-01 -9.430078e-02 -8.437375e-02 -7.432358e-02 -6.174125e-02 -4.986778e-02 -3.691690e-02 -2.541967e-02 -1.455515e-02 -5.277140e-03 1.683783e-03 7.719099e-03 9.943995e-03 1.237354e-02 1.021456e-02 9.797246e-03 5.431254e-03 4.335895e-03 4.363696e-04 5.371851e-04 -1.284378e-03 1.287099e-03 2.144405e-03 7.148056e-03 1.086796e-02 1.768382e-02 2.342731e-02 3.033013e-02 3.483869e-02 3.968871e-02 4.248223e-02 4.550496e-02 4.714232e-02 4.881683e-02 4.959043e-02 5.017064e-02 5.019167e-02 4.985363e-02 4.922698e-02 4.814270e-02 4.699819e-02 4.532863e-02 4.379793e-02 4.167504e-02 3.987130e-02 3.739264e-02 3.540405e-02 3.263812e-02 3.053091e-02 2.752723e-02 2.535248e-02 
2.562899e-02 2.289851e-02 1.929580e-02 1.657041e-02 1.285054e-02 1.018174e-02 6.400482e-03 3.843090e-03 6.643759e-05 -2.321696e-03 -6.018535e-03 -8.178038e-03 -1.171288e-02 -1.358476e-02 -1.687108e-02 -1.839835e-02 -2.134772e-02 -2.247626e-02 -2.500005e-02 -2.567856e-02 -2.768888e-02 -2.786798e-02 -2.927810e-02 -2.890920e-02 -2.963396e-02 -2.866863e-02 -2.862572e-02 -2.701657e-02 -2.612961e-02 -2.383352e-02 -2.203780e-02 -1.902249e-02 -1.627409e-02 -1.252843e-02 -8.816954e-03 -4.364844e-03 2.705443e-04 5.353225e-03 1.080563e-02 1.637289e-02 2.244937e-02 2.826837e-02 3.467472e-02 4.041423e-02 4.674728e-02 5.197637e-02 5.772897e-02 6.193140e-02 6.651599e-02 6.912562e-02 7.192086e-02 7.238091e-02 7.280250e-02 7.064642e-02 6.823665e-02 6.318007e-02 5.770137e-02 4.972549e-02 4.123490e-02 3.063581e-02 1.951522e-02 6.898626e-03 -6.173408e-03 -1.995448e-02 -3.408023e-02 -4.802093e-02 -6.217704e-02 -7.520918e-02 -8.831668e-02 -9.935805e-02 -1.103094e-01 -1.182747e-01 -1.259390e-01 -1.297602e-01 -1.330336e-01 -1.317816e-01 -1.297803e-01 -1.229777e-01 -1.154313e-01 -1.035350e-01 -9.126792e-02 -7.605198e-02 -6.118869e-02 -4.555077e-02 -3.101675e-02 -1.795674e-02 -6.348511e-03 2.209361e-03 9.420215e-03 1.264632e-02 1.501869e-02 1.282538e-02 1.172738e-02 6.733558e-03 4.662986e-03 -2.416599e-04 -5.451417e-04 -3.037806e-03 -5.218590e-04 1.115983e-04 5.455241e-03 9.786653e-03 1.761399e-02 2.518461e-02 3.360908e-02 3.893953e-02 4.452775e-02 4.771272e-02 5.125369e-02 5.325371e-02 5.533825e-02 5.637798e-02 5.720170e-02 5.731446e-02 5.705006e-02 5.634130e-02 5.520245e-02 5.383815e-02 5.203270e-02 5.018239e-02 4.787726e-02 4.568259e-02 4.299657e-02 4.056495e-02 3.757759e-02 3.498831e-02 3.175391e-02 2.906804e-02 
3.092919e-02 2.784861e-02 2.312974e-02 2.005586e-02 1.515820e-02 1.214988e-02 7.150966e-03 4.271343e-03 -7.374377e-04 -3.421528e-03 -8.337207e-03 -1.075722e-02 -1.546891e-02 -1.755703e-02 -2.195001e-02 -2.364116e-02 -2.760048e-02 -2.883334e-02 -3.224633e-02 -3.296309e-02 -3.572060e-02 -3.586560e-02 -3.786227e-02 -3.738023e-02 -3.851449e-02 -3.734927e-02 -3.752409e-02 -3.561915e-02 -3.474485e-02 -3.204667e-02 -3.004682e-02 -2.651227e-02 -2.333372e-02 -1.894207e-02 -1.456946e-02 -9.339080e-03 -3.813601e-03 2.177496e-03 8.736280e-03 1.532782e-02 2.269941e-02 2.962727e-02 3.747064e-02 4.435090e-02 5.219297e-02 5.851750e-02 6.575633e-02 7.090717e-02 7.683701e-02 8.012665e-02 8.399132e-02 8.473341e-02 8.581044e-02 8.341959e-02 8.112951e-02 7.523757e-02 6.926096e-02 5.982469e-02 5.019778e-02 3.756350e-02 2.471977e-02 9.616452e-03 -5.644782e-03 -2.218716e-02 -3.879391e-02 -5.556722e-02 -7.228797e-02 -8.801520e-02 -1.035442e-01 -1.169343e-01 -1.299249e-01 -1.396734e-01 -1.487403e-01 -1.535279e-01 -1.572959e-01 -1.559009e-01 -1.532304e-01 -1.448932e-01 -1.353936e-01 -1.204656e-01 -1.051838e-01 -8.576306e-02 -6.752028e-02 -4.740303e-02 -3.002989e-02 -1.343917e-02 8.264995e-05 1.028909e-02 1.884288e-02 2.145558e-02 2.426395e-02 1.929223e-02 1.713414e-02 8.934644e-03 6.273281e-03 -2.454547e-04 -1.025698e-03 -4.161211e-03 -7.657919e-04 -4.557727e-04 6.189075e-03 1.082501e-02 2.037725e-02 3.005463e-02 4.052733e-02 4.663128e-02 5.315345e-02 5.686390e-02 6.116567e-02 6.376932e-02 6.641118e-02 6.789954e-02 6.896066e-02 6.927618e-02 6.894837e-02 6.823485e-02 6.679935e-02 6.528991e-02 6.301211e-02 6.093020e-02 5.801266e-02 5.553467e-02 5.211548e-02 4.936929e-02 4.553875e-02 4.261567e-02 3.843635e-02 3.540531e-02 
3.404412e-02 3.039870e-02 2.558320e-02 2.192357e-02 1.692214e-02 1.331959e-02 8.209426e-03 4.741309e-03 -3.848318e-04 -3.636362e-03 -8.672472e-03 -1.162338e-02 -1.645416e-02 -1.902189e-02 -2.352711e-02 -2.563333e-02 -2.969156e-02 -3.126355e-02 -3.475463e-02 -3.572493e-02 -3.853089e-02 -3.883549e-02 -4.084038e-02 -4.041616e-02 -4.150556e-02 -4.028826e-02 -4.034981e-02 -3.827389e-02 -3.720025e-02 -3.420223e-02 -3.189784e-02 -2.792437e-02 -2.431719e-02 -1.933868e-02 -1.439738e-02 -8.427312e-03 -2.183694e-03 4.697231e-03 1.212188e-02 1.973878e-02 2.810606e-02 3.616355e-02 4.509315e-02 5.315496e-02 6.210875e-02 6.959004e-02 7.787285e-02 8.405409e-02 9.084020e-02 9.491152e-02 9.930583e-02 1.004488e-01 1.015874e-01 9.909454e-02 9.627969e-02 8.969827e-02 8.254803e-02 7.181745e-02 6.038996e-02 4.592687e-02 3.077227e-02 1.346045e-02 -4.432538e-03 -2.335788e-02 -4.270795e-02 -6.183745e-02 -8.124344e-02 -9.914948e-02 -1.172060e-01 -1.325059e-01 -1.478131e-01 -1.591244e-01 -1.702121e-01 -1.760667e-01 -1.813389e-01 -1.802255e-01 -1.781263e-01 -1.689055e-01 -1.585330e-01 -1.413488e-01 -1.234744e-01 -1.007881e-01 -7.862590e-02 -5.528266e-02 -3.383979e-02 -1.505293e-02 1.357179e-03 1.305351e-02 2.266439e-02 2.683092e-02 2.866495e-02 2.344734e-02 2.032702e-02 1.171172e-02 7.225197e-03 -9.271181e-04 -1.830849e-03 -5.955235e-03 -2.959584e-03 -3.696835e-03 2.447021e-03 6.706490e-03 1.635501e-02 2.935904e-02 4.195974e-02 4.812546e-02 5.511173e-02 5.921352e-02 6.431730e-02 6.768904e-02 7.105001e-02 7.310109e-02 7.457102e-02 7.511843e-02 7.494569e-02 7.420541e-02 7.277935e-02 7.107259e-02 6.873643e-02 6.634610e-02 6.334500e-02 6.048115e-02 5.697240e-02 5.378109e-02 4.986127e-02 4.644466e-02 4.217625e-02 3.861167e-02 
3.967831e-02 3.571392e-02 2.961546e-02 2.563235e-02 1.926191e-02 1.533929e-02 8.801531e-03 5.026259e-03 -1.553679e-03 -5.089015e-03 -1.156982e-02 -1.477067e-02 -2.100096e-02 -2.377505e-02 -2.959989e-02 -3.186060e-02 -3.712690e-02 -3.879488e-02 -4.335489e-02 -4.435741e-02 -4.806996e-02 -4.833832e-02 -5.106815e-02 -5.053402e-02 -5.215035e-02 -5.074255e-02 -5.111844e-02 -4.876187e-02 -4.777616e-02 -4.439474e-02 -4.193842e-02 -3.746364e-02 -3.345199e-02 -2.783815e-02 -2.222953e-02 -1.547601e-02 -8.297203e-03 -4.768359e-04 8.146372e-03 1.685470e-02 2.666447e-02 3.594301e-02 4.651847e-02 5.588326e-02 6.661837e-02 7.540560e-02 8.550510e-02 9.288178e-02 1.013864e-01 1.063972e-01 1.122500e-01 1.139112e-01 1.160724e-01 1.135148e-01 1.111229e-01 1.037712e-01 9.632573e-02 8.407427e-02 7.159309e-02 5.491728e-02 3.800597e-02 1.794877e-02 -2.260321e-03 -2.424100e-02 -4.626295e-02 -6.852170e-02 -9.072281e-02 -1.116154e-01 -1.323493e-01 -1.503002e-01 -1.679235e-01 -1.813579e-01 -1.941375e-01 -2.013387e-01 -2.073525e-01 -2.064261e-01 -2.037039e-01 -1.929791e-01 -1.802513e-01 -1.594072e-01 -1.375483e-01 -1.091694e-01 -8.247995e-02 -5.267555e-02 -2.799872e-02 -4.188048e-03 1.350257e-02 2.712688e-02 3.816907e-02 4.082137e-02 4.367986e-02 3.292212e-02 2.675208e-02 1.239882e-02 8.218612e-03 -6.071097e-04 -3.272877e-03 -7.395747e-03 -2.435332e-03 -4.134652e-03 3.313181e-03 6.018577e-03 1.617925e-02 3.250238e-02 4.718367e-02 5.312817e-02 6.112929e-02 6.640502e-02 7.302598e-02 7.775984e-02 8.210417e-02 8.496424e-02 8.678934e-02 8.765902e-02 8.741884e-02 8.671121e-02 8.495667e-02 8.312972e-02 8.028590e-02 7.769578e-02 7.404055e-02 7.093253e-02 6.663332e-02 6.316966e-02 5.832594e-02 5.461656e-02 4.929436e-02 4.542147e-02 
4.242324e-02 3.785725e-02 3.181922e-02 2.719915e-02 2.087784e-02 1.629796e-02 9.795550e-03 5.360471e-03 -1.198229e-03 -5.376654e-03 -1.184880e-02 -1.565675e-02 -2.188808e-02 -2.521542e-02 -3.104719e-02 -3.379201e-02 -3.906663e-02 -4.113735e-02 -4.570177e-02 -4.701637e-02 -5.072271e-02 -5.120529e-02 -5.390935e-02 -5.348518e-02 -5.504405e-02 -5.363486e-02 -5.390544e-02 -5.142710e-02 -5.026782e-02 -4.663261e-02 -4.391027e-02 -3.903575e-02 -3.463926e-02 -2.846499e-02 -2.232707e-02 -1.483968e-02 -6.966338e-03 1.767837e-03 1.126129e-02 2.105829e-02 3.190765e-02 4.242682e-02 5.418086e-02 6.489085e-02 7.688210e-02 8.704124e-02 9.837609e-02 1.070392e-01 1.166211e-01 1.226877e-01 1.292885e-01 1.316065e-01 1.339997e-01 1.315323e-01 1.286880e-01 1.207323e-01 1.120503e-01 9.846200e-02 8.398198e-02 6.532716e-02 4.582412e-02 2.336755e-02 2.582621e-04 -2.424689e-02 -4.917658e-02 -7.381939e-02 -9.873748e-02 -1.217321e-01 -1.449625e-01 -1.647400e-01 -1.847445e-01 -1.998054e-01 -2.149515e-01 -2.235435e-01 -2.317801e-01 -2.316468e-01 -2.304218e-01 -2.191496e-01 -2.061741e-01 -1.827236e-01 -1.579348e-01 -1.251358e-01 -9.297668e-02 -5.892491e-02 -2.821532e-02 -2.827788e-03 1.867779e-02 3.250853e-02 4.409904e-02 5.014535e-02 4.894379e-02 3.662479e-02 3.123760e-02 1.917039e-02 1.078784e-02 -1.217567e-03 -1.192618e-03 -6.211725e-03 -2.388319e-03 -6.466028e-03 -7.375061e-04 -1.667022e-03 4.684539e-03 2.667941e-02 4.401123e-02 4.746473e-02 5.649214e-02 6.383413e-02 7.267471e-02 7.935986e-02 8.496741e-02 8.878398e-02 9.111405e-02 9.229503e-02 9.221281e-02 9.148537e-02 8.976981e-02 8.775131e-02 8.492386e-02 8.203863e-02 7.841065e-02 7.493073e-02 7.067666e-02 6.677469e-02 6.199059e-02 5.778193e-02 5.252681e-02 4.809937e-02 
4.846571e-02 4.361289e-02 3.611011e-02 3.118913e-02 2.328498e-02 1.839941e-02 1.023115e-02 5.497315e-03 -2.768646e-03 -7.225906e-03 -1.540148e-02 -1.945546e-02 -2.734073e-02 -3.086995e-02 -3.826314e-02 -4.115689e-02 -4.786247e-02 -5.002332e-02 -5.585680e-02 -5.719938e-02 -6.198809e-02 -6.243449e-02 -6.601523e-02 -6.548823e-02 -6.770305e-02 -6.611947e-02 -6.681215e-02 -6.407866e-02 -6.309437e-02 -5.910874e-02 -5.629955e-02 -5.095937e-02 -4.619778e-02 -3.941854e-02 -3.262041e-02 -2.436361e-02 -1.552056e-02 -5.831184e-03 4.948436e-03 1.589723e-02 2.834215e-02 4.020132e-02 5.383080e-02 6.603150e-02 8.011670e-02 9.184032e-02 1.053854e-01 1.155620e-01 1.273210e-01 1.346753e-01 1.432250e-01 1.463901e-01 1.502777e-01 1.479915e-01 1.459623e-01 1.373374e-01 1.286185e-01 1.134318e-01 9.799521e-02 7.688910e-02 5.557748e-02 3.004432e-02 4.460023e-03 -2.344121e-02 -5.126310e-02 -7.933447e-02 -1.072966e-01 -1.335317e-01 -1.597000e-01 -1.823731e-01 -2.049712e-01 -2.224676e-01 -2.396336e-01 -2.500457e-01 -2.594105e-01 -2.600926e-01 -2.585069e-01 -2.462019e-01 -2.305146e-01 -2.030058e-01 -1.727333e-01 -1.322040e-01 -9.330068e-02 -4.927561e-02 -1.473295e-02 1.861659e-02 3.851489e-02 5.444217e-02 6.704242e-02 6.989901e-02 7.349845e-02 4.974067e-02 3.381207e-02 1.093747e-02 1.019172e-02 4.386772e-03 -3.239378e-03 -7.510925e-03 2.999363e-03 -2.277856e-03 5.229151e-03 -1.501920e-05 3.757888e-03 2.213463e-02 3.514885e-02 4.033966e-02 5.560289e-02 6.831769e-02 8.079809e-02 9.010701e-02 9.695085e-02 1.017045e-01 1.042336e-01 1.056555e-01 1.053718e-01 1.046246e-01 1.025180e-01 1.003802e-01 9.702162e-02 9.397208e-02 8.967139e-02 8.599846e-02 8.091741e-02 7.679735e-02 7.102165e-02 6.657023e-02 6.015596e-02 5.546208e-02 
5.085119e-02 4.535535e-02 3.808086e-02 3.246211e-02 2.476745e-02 1.914839e-02 1.116667e-02 5.686501e-03 -2.417310e-03 -7.608880e-03 -1.564605e-02 -2.039770e-02 -2.816637e-02 -3.233448e-02 -3.963050e-02 -4.308636e-02 -4.971176e-02 -5.234500e-02 -5.811255e-02 -5.982957e-02 -6.456283e-02 -6.528091e-02 -6.881032e-02 -6.844875e-02 -7.060582e-02 -6.907680e-02 -6.968897e-02 -6.689128e-02 -6.578063e-02 -6.159924e-02 -5.858802e-02 -5.290262e-02 -4.782814e-02 -4.053247e-02 -3.327298e-02 -2.430592e-02 -1.481780e-02 -4.205692e-03 7.429304e-03 1.952141e-02 3.304182e-02 4.625452e-02 6.116327e-02 7.488978e-02 9.040510e-02 1.037517e-01 1.187777e-01 1.305534e-01 1.436889e-01 1.524471e-01 1.620576e-01 1.662155e-01 1.705959e-01 1.686562e-01 1.663024e-01 1.571777e-01 1.471467e-01 1.305313e-01 1.128038e-01 8.945675e-02 6.513114e-02 3.688496e-02 8.028137e-03 -2.258839e-02 -5.345084e-02 -8.383643e-02 -1.143310e-01 -1.423321e-01 -1.705990e-01 -1.946645e-01 -2.193120e-01 -2.382124e-01 -2.578681e-01 -2.699805e-01 -2.824837e-01 -2.848533e-01 -2.864281e-01 -2.744977e-01 -2.602190e-01 -2.299010e-01 -1.969369e-01 -1.498432e-01 -1.030594e-01 -5.224408e-02 -7.467712e-03 2.557516e-02 5.160319e-02 6.167026e-02 7.376666e-02 8.666289e-02 7.251538e-02 3.789059e-02 3.752099e-02 3.548501e-02 1.497246e-02 -2.673837e-04 1.255487e-02 4.933614e-03 8.304938e-03 2.377660e-03 4.168699e-03 -1.840357e-03 1.210783e-03 -6.518972e-03 -6.163805e-03 1.338146e-02 4.120912e-02 6.295260e-02 7.972349e-02 9.183767e-02 9.961893e-02 1.050757e-01 1.077053e-01 1.092157e-01 1.089191e-01 1.080665e-01 1.059978e-01 1.036650e-01 1.004147e-01 9.709914e-02 9.296471e-02 8.895240e-02 8.407838e-02 7.954091e-02 7.399684e-02 6.904810e-02 6.287577e-02 5.760754e-02 
5.742420e-02 5.167396e-02 4.273234e-02 3.683132e-02 2.730988e-02 2.139252e-02 1.146961e-02 5.690453e-03 -4.415068e-03 -9.889203e-03 -1.993011e-02 -2.493122e-02 -3.464730e-02 -3.901768e-02 -4.815097e-02 -5.175221e-02 -6.005907e-02 -6.277600e-02 -7.003355e-02 -7.177228e-02 -7.777850e-02 -7.845858e-02 -8.302685e-02 -8.256978e-02 -8.552014e-02 -8.383711e-02 -8.498759e-02 -8.197020e-02 -8.113219e-02 -7.664992e-02 -7.363105e-02 -6.753890e-02 -6.215677e-02 -5.431538e-02 -4.642407e-02 -3.673382e-02 -2.626395e-02 -1.471255e-02 -1.723836e-03 1.155459e-02 2.681104e-02 4.146958e-02 5.848479e-02 7.389721e-02 9.184202e-02 1.070474e-01 1.247282e-01 1.384044e-01 1.542585e-01 1.647519e-01 1.769126e-01 1.823610e-01 1.888313e-01 1.874181e-01 1.863821e-01 1.767349e-01 1.669945e-01 1.486680e-01 1.300970e-01 1.039586e-01 7.775315e-02 4.599438e-02 1.448312e-02 -1.990856e-02 -5.388833e-02 -8.795587e-02 -1.217324e-01 -1.531134e-01 -1.845384e-01 -2.115651e-01 -2.389904e-01 -2.604284e-01 -2.823296e-01 -2.966446e-01 -3.107309e-01 -3.148472e-01 -3.167018e-01 -3.050634e-01 -2.881061e-01 -2.543756e-01 -2.138356e-01 -1.569709e-01 -9.877623e-02 -3.178628e-02 1.918357e-02 6.754595e-02 8.271985e-02 9.557067e-02 1.041125e-01 1.060756e-01 1.180298e-01 5.765461e-02 9.721547e-03 -3.961977e-04 1.933608e-02 9.231421e-03 1.080402e-03 -4.842432e-03 -4.265716e-03 -8.960996e-03 -2.571897e-03 -5.486981e-03 3.509674e-03 -1.864858e-02 -1.288689e-02 2.057850e-02 5.308060e-02 7.863075e-02 9.525254e-02 1.077617e-01 1.147540e-01 1.200244e-01 1.220588e-01 1.233814e-01 1.226462e-01 1.216622e-01 1.191773e-01 1.167430e-01 1.129969e-01 1.095819e-01 1.048054e-01 1.006767e-01 9.497281e-02 9.028989e-02 8.370472e-02 7.857473e-02 7.114183e-02 6.565447e-02 
5.948837e-02 5.304594e-02 4.451320e-02 3.783994e-02 2.869759e-02 2.195265e-02 1.237380e-02 5.741789e-03 -4.056524e-03 -1.037602e-02 -2.014595e-02 -2.595277e-02 -3.543240e-02 -4.054071e-02 -4.947068e-02 -5.372055e-02 -6.185691e-02 -6.511961e-02 -7.224011e-02 -7.441570e-02 -8.031863e-02 -8.132616e-02 -8.582268e-02 -8.558540e-02 -8.848810e-02 -8.691744e-02 -8.802908e-02 -8.501174e-02 -8.411863e-02 -7.951143e-02 -7.638562e-02 -7.002195e-02 -6.443592e-02 -5.614687e-02 -4.790307e-02 -3.755464e-02 -2.653074e-02 -1.407693e-02 -2.857696e-04 1.416462e-02 3.050330e-02 4.661063e-02 6.499207e-02 8.210772e-02 1.016660e-01 1.187635e-01 1.382113e-01 1.538449e-01 1.714513e-01 1.837716e-01 1.974145e-01 2.042865e-01 2.116296e-01 2.109057e-01 2.097553e-01 1.997423e-01 1.885960e-01 1.686711e-01 1.473540e-01 1.185188e-01 8.860840e-02 5.359136e-02 1.821475e-02 -1.919634e-02 -5.632737e-02 -9.248904e-02 -1.282485e-01 -1.606000e-01 -1.930567e-01 -2.203592e-01 -2.486810e-01 -2.706240e-01 -2.944504e-01 -3.104941e-01 -3.285580e-01 -3.357687e-01 -3.434297e-01 -3.343043e-01 -3.224467e-01 -2.865531e-01 -2.457461e-01 -1.786744e-01 -1.101149e-01 -2.927155e-02 4.103570e-02 8.693241e-02 1.178887e-01 1.032467e-01 1.187943e-01 1.458109e-01 8.154717e-02 1.577274e-02 3.479028e-02 1.130127e-02 -3.701899e-02 -4.297268e-02 -3.320134e-02 -3.957657e-02 -2.086931e-02 -2.194302e-02 -1.042575e-02 -1.401359e-02 -3.318930e-03 -1.203804e-02 1.113646e-02 4.811594e-02 7.189551e-02 9.244503e-02 1.036840e-01 1.138638e-01 1.186686e-01 1.230727e-01 1.243385e-01 1.253419e-01 1.244484e-01 1.233145e-01 1.209564e-01 1.183877e-01 1.149164e-01 1.113138e-01 1.068959e-01 1.024930e-01 9.719604e-02 9.213570e-02 8.598228e-02 8.036533e-02 7.337078e-02 6.728890e-02 
6.677778e-02 6.011160e-02 4.968117e-02 4.273766e-02 3.148461e-02 2.443870e-02 1.259477e-02 5.651877e-03 -6.495561e-03 -1.311248e-02 -2.523927e-02 -3.130747e-02 -4.307624e-02 -4.839153e-02 -5.947493e-02 -6.386601e-02 -7.396468e-02 -7.729964e-02 -8.615119e-02 -8.833432e-02 -9.571205e-02 -9.667143e-02 -1.023740e-01 -1.020427e-01 -1.058781e-01 -1.041733e-01 -1.059423e-01 -1.027483e-01 -1.022322e-01 -9.739112e-02 -9.435020e-02 -8.766681e-02 -8.185192e-02 -7.311490e-02 -6.429711e-02 -5.331868e-02 -4.133702e-02 -2.801157e-02 -1.283846e-02 2.782041e-03 2.096024e-02 3.857786e-02 5.927014e-02 7.824596e-02 1.005636e-01 1.198266e-01 1.424011e-01 1.603796e-01 1.813164e-01 1.959265e-01 2.128355e-01 2.215842e-01 2.317562e-01 2.320401e-01 2.328463e-01 2.225189e-01 2.120727e-01 1.902535e-01 1.682137e-01 1.360616e-01 1.041747e-01 6.503844e-02 2.684022e-02 -1.473843e-02 -5.516665e-02 -9.514130e-02 -1.343987e-01 -1.700977e-01 -2.059145e-01 -2.359708e-01 -2.670945e-01 -2.911998e-01 -3.171108e-01 -3.351650e-01 -3.550007e-01 -3.647748e-01 -3.737721e-01 -3.673229e-01 -3.539116e-01 -3.178167e-01 -2.674280e-01 -1.913925e-01 -1.021806e-01 2.964858e-03 8.972976e-02 1.712379e-01 1.681946e-01 1.781306e-01 1.825587e-01 6.423607e-02 2.044115e-02 1.973687e-02 -6.667151e-02 -9.832346e-02 -4.354243e-02 -4.382073e-02 -2.396595e-02 -1.719882e-02 -2.285710e-03 -1.034414e-02 3.889222e-03 -6.496456e-03 6.431567e-03 -9.762923e-04 3.662915e-02 8.918486e-02 1.032551e-01 1.187451e-01 1.241041e-01 1.317222e-01 1.343706e-01 1.378643e-01 1.384102e-01 1.391500e-01 1.379863e-01 1.368178e-01 1.342455e-01 1.317081e-01 1.279052e-01 1.243326e-01 1.193781e-01 1.149725e-01 1.088852e-01 1.037736e-01 9.654943e-02 9.082425e-02 8.246952e-02 7.622001e-02 
6.859575e-02 6.117570e-02 5.134881e-02 4.353927e-02 3.284570e-02 2.485389e-02 1.351941e-02 5.590661e-03 -6.098718e-03 -1.369763e-02 -2.541599e-02 -3.241952e-02 -4.382689e-02 -4.999425e-02 -6.076219e-02 -6.589580e-02 -7.572689e-02 -7.968091e-02 -8.831774e-02 -9.099433e-02 -9.821642e-02 -9.955023e-02 -1.051604e-01 -1.050949e-01 -1.088993e-01 -1.073604e-01 -1.091475e-01 -1.060203e-01 -1.055459e-01 -1.006623e-01 -9.764548e-02 -9.078604e-02 -8.492207e-02 -7.583767e-02 -6.683014e-02 -5.528524e-02 -4.289961e-02 -2.873704e-02 -1.287444e-02 3.900229e-03 2.311172e-02 4.223058e-02 6.433201e-02 8.515632e-02 1.092485e-01 1.306609e-01 1.553010e-01 1.756159e-01 1.987429e-01 2.156676e-01 2.346000e-01 2.453116e-01 2.568986e-01 2.583381e-01 2.593812e-01 2.488859e-01 2.369407e-01 2.132508e-01 1.877486e-01 1.521158e-01 1.153258e-01 7.194205e-02 2.880911e-02 -1.636600e-02 -6.010732e-02 -1.017815e-01 -1.419258e-01 -1.770885e-01 -2.118110e-01 -2.398767e-01 -2.693340e-01 -2.917228e-01 -3.174775e-01 -3.363924e-01 -3.601661e-01 -3.748914e-01 -3.930301e-01 -3.933094e-01 -3.915365e-01 -3.563001e-01 -3.134987e-01 -2.226420e-01 -1.263990e-01 9.494659e-03 1.269598e-01 2.096052e-01 2.530761e-01 1.874091e-01 9.206415e-02 6.991035e-02 7.551576e-03 -1.187385e-01 -1.174112e-01 -6.675371e-02 -2.592933e-02 -2.036086e-02 1.696551e-03 -6.066568e-03 6.925637e-03 -2.483699e-03 6.554450e-03 -4.024471e-03 5.210170e-03 -1.222283e-02 2.035843e-02 8.427645e-02 9.958480e-02 1.176666e-01 1.224816e-01 1.304112e-01 1.326983e-01 1.363003e-01 1.369003e-01 1.377965e-01 1.369565e-01 1.359358e-01 1.338377e-01 1.313753e-01 1.281331e-01 1.245230e-01 1.201819e-01 1.156038e-01 1.101614e-01 1.047299e-01 9.816469e-02 9.196817e-02 8.426954e-02 7.740101e-02 