# vtk DataFile Version 2.0
Comment goes here
ASCII

DATASET STRUCTURED_POINTS
DIMENSIONS    128   128   1

ORIGIN    0.000   0.000   0.000
SPACING   0.0156250.015625   1.000

POINT_DATA   16384
SCALARS uY double
LOOKUP_TABLE default

-1.300686e-05 -2.695772e-05 -9.443872e-06 -2.404744e-05 -5.515660e-06 -2.066366e-05 -1.250830e-06 -1.680661e-05 3.340267e-06 -1.245975e-05 8.263141e-06 -7.592658e-06 1.353714e-05 -2.163671e-06 1.919342e-05 3.877238e-06 2.527255e-05 1.058488e-05 3.182110e-05 1.801416e-05 3.888702e-05 2.621414e-05 4.651365e-05 3.522074e-05 5.473246e-05 4.504852e-05 6.355487e-05 5.568195e-05 7.296379e-05 6.706678e-05 8.290523e-05 7.910207e-05 9.328059e-05 9.163323e-05 1.039396e-04 1.044462e-04 1.146743e-04 1.172627e-04 1.252132e-04 1.297361e-04 1.352160e-04 1.414483e-04 1.442693e-04 1.519077e-04 1.518827e-04 1.605492e-04 1.574903e-04 1.667399e-04 1.604573e-04 1.697926e-04 1.600982e-04 1.689917e-04 1.557095e-04 1.636335e-04 1.466185e-04 1.530827e-04 1.322478e-04 1.368420e-04 1.121915e-04 1.146300e-04 8.629740e-05 8.646222e-05 5.474882e-05 5.273008e-05 1.814175e-05 1.427197e-05 -2.244996e-05 -2.757243e-05 -6.543518e-05 -7.094576e-05 -1.087177e-04 -1.135246e-04 -1.497919e-04 -1.526664e-04 -1.859385e-04 -1.856530e-04 -2.145072e-04 -2.099941e-04 -2.332303e-04 -2.237280e-04 -2.405110e-04 -2.256765e-04 -2.356626e-04 -2.156664e-04 -2.191318e-04 -1.947632e-04 -1.927210e-04 -1.654710e-04 -1.596659e-04 -1.316342e-04 -1.242399e-04 -9.770857e-05 -9.073349e-05 -6.753149e-05 -6.227298e-05 -4.338106e-05 -4.023089e-05 -2.591864e-05 -2.457064e-05 -1.469651e-05 -1.456413e-05 -8.787563e-06 -9.287960e-06 -7.166558e-06 -7.788531e-06 -8.781651e-06 -9.036891e-06 -1.251011e-05 -1.190391e-05 -1.723144e-05 -1.533053e-05 -2.200920e-05 -1.850675e-05 -2.620285e-05 -2.093200e-05 -2.946550e-05 -2.237527e-05 -3.167576e-05 -2.279493e-05 -3.285527e-05 -2.226001e-05 -3.309911e-05 -2.088997e-05 -3.252702e-05 -1.881526e-05 -3.125383e-05 -1.615502e-05 -2.937433e-05 
5.121224e-03 5.266659e-03 5.113571e-03 5.211200e-03 5.029131e-03 5.082377e-03 4.874792e-03 4.888181e-03 4.660403e-03 4.639725e-03 4.399061e-03 4.351676e-03 4.107587e-03 4.042762e-03 3.806994e-03 3.736180e-03 3.522825e-03 3.459853e-03 3.285311e-03 3.246460e-03 3.129289e-03 3.133213e-03 3.093835e-03 3.161302e-03 3.221504e-03 3.374856e-03 3.556993e-03 3.819219e-03 4.144980e-03 4.538267e-03 5.026883e-03 5.570504e-03 6.236282e-03 6.943754e-03 7.792899e-03 8.668419e-03 9.695263e-03 1.072962e-02 1.191253e-02 1.307890e-02 1.437636e-02 1.562665e-02 1.697441e-02 1.823701e-02 1.954709e-02 2.072726e-02 2.189012e-02 2.287392e-02 2.376447e-02 2.442706e-02 2.491511e-02 2.513326e-02 2.509744e-02 2.476483e-02 2.410818e-02 2.315077e-02 2.181443e-02 2.020212e-02 1.817367e-02 1.592491e-02 1.323867e-02 1.041704e-02 7.147033e-03 3.852208e-03 1.020069e-04 -3.539404e-03 -7.643497e-03 -1.148090e-02 -1.578753e-02 -1.963984e-02 -2.395927e-02 -2.760093e-02 -3.168530e-02 -3.483375e-02 -3.836296e-02 -4.068271e-02 -4.327439e-02 -4.441444e-02 -4.567617e-02 -4.534966e-02 -4.497857e-02 -4.307386e-02 -4.098393e-02 -3.767244e-02 -3.410248e-02 -2.989168e-02 -2.543208e-02 -2.111029e-02 -1.659049e-02 -1.302269e-02 -9.230427e-03 -7.016088e-03 -4.334592e-03 -3.505758e-03 -1.768054e-03 -1.862509e-03 -5.942308e-04 -1.071008e-03 1.769316e-04 -2.554546e-04 1.088145e-03 9.042959e-04 2.170042e-03 2.201400e-03 3.114428e-03 3.185698e-03 3.595000e-03 3.619888e-03 3.639706e-03 3.675098e-03 3.517837e-03 3.637415e-03 3.458007e-03 3.683132e-03 3.547570e-03 3.854813e-03 3.770305e-03 4.119601e-03 4.068570e-03 4.422628e-03 4.382965e-03 4.714711e-03 4.668163e-03 4.961059e-03 4.895178e-03 5.140829e-03 5.048326e-03 5.243737e-03 
9.801711e-03 1.006512e-02 9.975261e-03 1.014209e-02 1.000215e-02 1.007987e-02 9.892131e-03 9.890418e-03 9.660521e-03 9.591571e-03 9.329066e-03 9.208220e-03 8.927181e-03 8.773585e-03 8.493137e-03 8.330296e-03 8.074952e-03 7.931095e-03 7.730828e-03 7.639039e-03 7.529066e-03 7.527112e-03 7.547314e-03 7.677101e-03 7.870958e-03 8.177426e-03 8.590292e-03 9.119536e-03 9.795995e-03 1.059233e-02 1.157239e-02 1.267407e-02 1.398798e-02 1.542149e-02 1.708318e-02 1.885603e-02 2.085535e-02 2.294791e-02 2.524226e-02 2.759934e-02 3.010591e-02 3.262944e-02 3.521948e-02 3.776423e-02 4.026146e-02 4.263588e-02 4.482120e-02 4.679561e-02 4.841996e-02 4.974351e-02 5.054950e-02 5.097578e-02 5.072663e-02 5.004502e-02 4.855640e-02 4.662342e-02 4.379097e-02 4.055390e-02 3.636837e-02 3.187357e-02 2.641812e-02 2.080154e-02 1.423241e-02 7.697140e-03 2.175559e-04 -6.989168e-03 -1.514614e-02 -2.274156e-02 -3.130684e-02 -3.895759e-02 -4.759156e-02 -5.487818e-02 -6.311797e-02 -6.949904e-02 -7.671527e-02 -8.152590e-02 -8.693142e-02 -8.945430e-02 -9.220693e-02 -9.183430e-02 -9.124932e-02 -8.770963e-02 -8.354452e-02 -7.711708e-02 -6.982964e-02 -6.144792e-02 -5.228384e-02 -4.344820e-02 -3.420300e-02 -2.664966e-02 -1.901583e-02 -1.410520e-02 -8.847710e-03 -6.869450e-03 -3.627647e-03 -3.753210e-03 -1.491947e-03 -2.500024e-03 -2.766452e-04 -1.201025e-03 1.252784e-03 8.612633e-04 3.222757e-03 3.282881e-03 4.997054e-03 5.116819e-03 5.843134e-03 5.850938e-03 5.835449e-03 5.872841e-03 5.553953e-03 5.776824e-03 5.457628e-03 5.901808e-03 5.702032e-03 6.312211e-03 6.238020e-03 6.929264e-03 6.942041e-03 7.638175e-03 7.692886e-03 8.339831e-03 8.399893e-03 8.965252e-03 9.005332e-03 9.473113e-03 9.477360e-03 9.842340e-03 
1.529021e-02 1.577146e-02 1.529680e-02 1.563486e-02 1.506926e-02 1.527374e-02 1.462734e-02 1.471090e-02 1.399936e-02 1.397829e-02 1.322326e-02 1.311852e-02 1.234818e-02 1.218648e-02 1.143598e-02 1.125063e-02 1.056227e-02 1.039383e-02 9.816963e-03 9.713430e-03 9.304040e-03 9.320734e-03 9.140575e-03 9.339402e-03 9.454604e-03 9.902567e-03 1.038134e-02 1.114791e-02 1.205698e-02 1.320991e-02 1.460928e-02 1.620839e-02 1.814398e-02 2.023271e-02 2.272686e-02 2.532151e-02 2.836148e-02 3.143873e-02 3.496408e-02 3.844790e-02 4.233824e-02 4.608824e-02 5.015377e-02 5.395762e-02 5.793543e-02 6.150900e-02 6.506859e-02 6.806709e-02 7.082814e-02 7.287089e-02 7.443479e-02 7.514360e-02 7.513690e-02 7.418418e-02 7.230779e-02 6.946555e-02 6.553897e-02 6.071646e-02 5.470465e-02 4.796309e-02 3.997697e-02 3.151709e-02 2.178869e-02 1.191857e-02 7.646056e-04 -1.013337e-02 -2.233765e-02 -3.381963e-02 -4.663634e-02 -5.817717e-02 -7.106404e-02 -8.200988e-02 -9.425284e-02 -1.037726e-01 -1.144288e-01 -1.215123e-01 -1.294232e-01 -1.329839e-01 -1.369225e-01 -1.360384e-01 -1.350165e-01 -1.292839e-01 -1.229624e-01 -1.128515e-01 -1.019071e-01 -8.895524e-02 -7.520237e-02 -6.187975e-02 -4.796343e-02 -3.706829e-02 -2.557808e-02 -1.909876e-02 -1.126456e-02 -9.219984e-03 -4.357242e-03 -5.054058e-03 -1.543315e-03 -3.303912e-03 3.897718e-04 -1.129606e-03 3.011982e-03 2.367434e-03 6.295042e-03 6.409482e-03 9.172682e-03 9.388269e-03 1.046699e-02 1.050129e-02 1.039035e-02 1.049342e-02 9.928204e-03 1.033875e-02 9.779365e-03 1.053391e-02 1.014152e-02 1.114350e-02 1.091230e-02 1.203014e-02 1.189502e-02 1.301594e-02 1.290732e-02 1.395331e-02 1.381687e-02 1.474195e-02 1.454167e-02 1.532333e-02 1.503845e-02 1.566924e-02 
1.937322e-02 1.994829e-02 1.979163e-02 2.017224e-02 1.991117e-02 2.011127e-02 1.974920e-02 1.978667e-02 1.933357e-02 1.923116e-02 1.870482e-02 1.849155e-02 1.791897e-02 1.763158e-02 1.705008e-02 1.673421e-02 1.619216e-02 1.590314e-02 1.546013e-02 1.526325e-02 1.498970e-02 1.495998e-02 1.493607e-02 1.515728e-02 1.547099e-02 1.603369e-02 1.677753e-02 1.777554e-02 1.904155e-02 2.056637e-02 2.243872e-02 2.457125e-02 2.711602e-02 2.991515e-02 3.316714e-02 3.665529e-02 4.060215e-02 4.474837e-02 4.931323e-02 5.401544e-02 5.904017e-02 6.410917e-02 6.934137e-02 7.449047e-02 7.957847e-02 8.442334e-02 8.892399e-02 9.299755e-02 9.640113e-02 9.918735e-02 1.009617e-01 1.019486e-01 1.016002e-01 1.003471e-01 9.749073e-02 9.369742e-02 8.811756e-02 8.167737e-02 7.336346e-02 6.438254e-02 5.352233e-02 4.229633e-02 2.922859e-02 1.618681e-02 1.334898e-03 -1.301941e-02 -2.919567e-02 -4.431249e-02 -6.131152e-02 -7.656413e-02 -9.376881e-02 -1.083700e-01 -1.249228e-01 -1.378275e-01 -1.525105e-01 -1.623817e-01 -1.735958e-01 -1.789271e-01 -1.848747e-01 -1.843256e-01 -1.834502e-01 -1.763457e-01 -1.679634e-01 -1.547830e-01 -1.397015e-01 -1.223250e-01 -1.031383e-01 -8.469963e-02 -6.539748e-02 -4.969112e-02 -3.419367e-02 -2.439540e-02 -1.429104e-02 -1.102360e-02 -5.276724e-03 -6.401881e-03 -2.473919e-03 -5.200952e-03 -8.805209e-04 -3.189817e-03 1.899367e-03 9.385666e-04 5.896574e-03 6.077060e-03 9.568391e-03 9.799827e-03 1.094014e-02 1.085147e-02 1.048344e-02 1.054256e-02 9.739071e-03 1.028148e-02 9.623846e-03 1.065615e-02 1.030570e-02 1.166423e-02 1.158095e-02 1.307568e-02 1.316069e-02 1.463949e-02 1.479801e-02 1.616004e-02 1.632046e-02 1.750845e-02 1.762275e-02 1.861013e-02 1.864854e-02 1.942794e-02 
2.511605e-02 2.598536e-02 2.524370e-02 2.587205e-02 2.497202e-02 2.537373e-02 2.433049e-02 2.452420e-02 2.336187e-02 2.337203e-02 2.212475e-02 2.198364e-02 2.069668e-02 2.044634e-02 1.917690e-02 1.887078e-02 1.768830e-02 1.739225e-02 1.637832e-02 1.617107e-02 1.541873e-02 1.539174e-02 1.500423e-02 1.526072e-02 1.534940e-02 1.600219e-02 1.668312e-02 1.785069e-02 1.923915e-02 2.103915e-02 2.324131e-02 2.578067e-02 2.888170e-02 3.224269e-02 3.629091e-02 4.051308e-02 4.550033e-02 5.055891e-02 5.639846e-02 6.218107e-02 6.868536e-02 7.497023e-02 8.183246e-02 8.827286e-02 9.505772e-02 1.011788e-01 1.073287e-01 1.125434e-01 1.174062e-01 1.210560e-01 1.239387e-01 1.253603e-01 1.256062e-01 1.242195e-01 1.212996e-01 1.167000e-01 1.102983e-01 1.023298e-01 9.239579e-02 8.118022e-02 6.792916e-02 5.383768e-02 3.769627e-02 2.127833e-02 2.802709e-03 -1.528991e-02 -3.547816e-02 -5.452659e-02 -7.574448e-02 -9.492988e-02 -1.163590e-01 -1.346665e-01 -1.552155e-01 -1.713164e-01 -1.894765e-01 -2.016773e-01 -2.154835e-01 -2.218586e-01 -2.290968e-01 -2.278981e-01 -2.266412e-01 -2.169551e-01 -2.063490e-01 -1.888016e-01 -1.698215e-01 -1.470144e-01 -1.228073e-01 -9.919326e-02 -7.470002e-02 -5.566971e-02 -3.609230e-02 -2.576155e-02 -1.347988e-02 -1.158959e-02 -4.670433e-03 -7.003735e-03 -2.179470e-03 -6.073412e-03 3.413977e-05 -3.220762e-03 4.129518e-03 2.699196e-03 9.682600e-03 9.966937e-03 1.462681e-02 1.497976e-02 1.615380e-02 1.604221e-02 1.526699e-02 1.544211e-02 1.424532e-02 1.511395e-02 1.417485e-02 1.567622e-02 1.511986e-02 1.701030e-02 1.674291e-02 1.877774e-02 1.865929e-02 2.065562e-02 2.056455e-02 2.240617e-02 2.225510e-02 2.387807e-02 2.361117e-02 2.498672e-02 2.457228e-02 2.569274e-02 
2.847130e-02 2.942559e-02 2.928304e-02 2.994232e-02 2.963540e-02 3.001794e-02 2.954829e-02 2.967722e-02 2.905596e-02 2.896134e-02 2.821142e-02 2.793280e-02 2.709135e-02 2.668030e-02 2.580055e-02 2.532250e-02 2.447493e-02 2.401044e-02 2.328309e-02 2.292835e-02 2.242632e-02 2.229294e-02 2.213701e-02 2.235085e-02 2.267488e-02 2.337365e-02 2.432025e-02 2.564887e-02 2.736254e-02 2.946549e-02 3.208216e-02 3.509168e-02 3.872380e-02 4.274312e-02 4.745985e-02 5.254117e-02 5.834383e-02 6.446181e-02 7.125616e-02 7.827903e-02 8.584722e-02 9.350935e-02 1.014865e-01 1.093682e-01 1.172301e-01 1.247523e-01 1.318224e-01 1.382649e-01 1.437489e-01 1.482998e-01 1.513533e-01 1.531927e-01 1.530214e-01 1.514339e-01 1.474127e-01 1.419088e-01 1.336941e-01 1.241083e-01 1.117050e-01 9.823308e-02 8.198396e-02 6.513771e-02 4.562949e-02 2.612280e-02 4.046661e-03 -1.733294e-02 -4.129303e-02 -6.375419e-02 -8.893414e-02 -1.116398e-01 -1.372759e-01 -1.591866e-01 -1.841819e-01 -2.038421e-01 -2.264995e-01 -2.419001e-01 -2.597841e-01 -2.684868e-01 -2.786247e-01 -2.782919e-01 -2.778577e-01 -2.671341e-01 -2.545522e-01 -2.339688e-01 -2.101082e-01 -1.825269e-01 -1.514677e-01 -1.218343e-01 -9.063502e-02 -6.534806e-02 -4.162611e-02 -2.690414e-02 -1.292158e-02 -9.902937e-03 -3.259068e-03 -7.124765e-03 -2.771930e-03 -8.529650e-03 -2.146255e-03 -6.819559e-03 1.390065e-03 -6.437782e-04 7.346693e-03 7.809501e-03 1.320619e-02 1.349984e-02 1.416154e-02 1.373899e-02 1.232115e-02 1.247297e-02 1.097010e-02 1.212159e-02 1.118574e-02 1.312674e-02 1.277266e-02 1.514198e-02 1.519910e-02 1.768840e-02 1.797493e-02 2.037223e-02 2.074466e-02 2.292271e-02 2.328098e-02 2.517356e-02 2.545271e-02 2.703279e-02 2.719240e-02 2.845571e-02 
3.439104e-02 3.573387e-02 3.481573e-02 3.581792e-02 3.466613e-02 3.534349e-02 3.397494e-02 3.434804e-02 3.279185e-02 3.288897e-02 3.118848e-02 3.104908e-02 2.926374e-02 2.894160e-02 2.714828e-02 2.671389e-02 2.500738e-02 2.454947e-02 2.304228e-02 2.266852e-02 2.149000e-02 2.132696e-02 2.062184e-02 2.081401e-02 2.074005e-02 2.144754e-02 2.217148e-02 2.356551e-02 2.525647e-02 2.751128e-02 3.033013e-02 3.361016e-02 3.769367e-02 4.213465e-02 4.757345e-02 5.325685e-02 6.006722e-02 6.698865e-02 7.507941e-02 8.311299e-02 9.225060e-02 1.011136e-01 1.108908e-01 1.201152e-01 1.299311e-01 1.388516e-01 1.479130e-01 1.556826e-01 1.630382e-01 1.686821e-01 1.732979e-01 1.758128e-01 1.766906e-01 1.751834e-01 1.715101e-01 1.653537e-01 1.566477e-01 1.456110e-01 1.318194e-01 1.161199e-01 9.761916e-02 7.786866e-02 5.535868e-02 3.242019e-02 6.758350e-03 -1.841094e-02 -4.634815e-02 -7.277912e-02 -1.021277e-01 -1.287954e-01 -1.585961e-01 -1.842525e-01 -2.132127e-01 -2.361461e-01 -2.623317e-01 -2.801809e-01 -3.008140e-01 -3.106575e-01 -3.222970e-01 -3.212293e-01 -3.205555e-01 -3.067577e-01 -2.919041e-01 -2.658941e-01 -2.378492e-01 -2.033257e-01 -1.666670e-01 -1.304626e-01 -9.315715e-02 -6.438932e-02 -3.608967e-02 -2.292444e-02 -7.859102e-03 -9.259283e-03 -2.031626e-03 -7.010726e-03 -2.741558e-03 -9.912923e-03 -8.839537e-04 -7.177680e-03 4.330815e-03 1.124024e-03 1.170693e-02 1.231303e-02 1.882772e-02 1.926897e-02 1.908058e-02 1.858427e-02 1.629265e-02 1.678430e-02 1.481346e-02 1.660164e-02 1.543587e-02 1.811038e-02 1.759883e-02 2.069389e-02 2.057668e-02 2.374605e-02 2.379767e-02 2.682051e-02 2.687556e-02 2.962593e-02 2.957359e-02 3.198907e-02 3.176052e-02 3.381746e-02 3.337352e-02 3.506950e-02 
3.688682e-02 3.831947e-02 3.831251e-02 3.934861e-02 3.911076e-02 3.976858e-02 3.929471e-02 3.959738e-02 3.889443e-02 3.887387e-02 3.796484e-02 3.766608e-02 3.659375e-02 3.607869e-02 3.490857e-02 3.425877e-02 3.308069e-02 3.239906e-02 3.132764e-02 3.073912e-02 2.991321e-02 2.956471e-02 2.914577e-02 2.920519e-02 2.937457e-02 3.002840e-02 3.098257e-02 3.243110e-02 3.437378e-02 3.682233e-02 3.995190e-02 4.359645e-02 4.808706e-02 5.309265e-02 5.906800e-02 6.553914e-02 7.303864e-02 8.098209e-02 8.992096e-02 9.920320e-02 1.093299e-01 1.196341e-01 1.304916e-01 1.412816e-01 1.521811e-01 1.626843e-01 1.727047e-01 1.819260e-01 1.899527e-01 1.967361e-01 2.015515e-01 2.046978e-01 2.051291e-01 2.035683e-01 1.986783e-01 1.916694e-01 1.809490e-01 1.682535e-01 1.517493e-01 1.337059e-01 1.120109e-01 8.945688e-02 6.353732e-02 3.759133e-02 8.511985e-03 -1.968520e-02 -5.099764e-02 -8.044199e-02 -1.132614e-01 -1.430411e-01 -1.766731e-01 -2.057043e-01 -2.390976e-01 -2.657076e-01 -2.969297e-01 -3.184818e-01 -3.443000e-01 -3.572111e-01 -3.731789e-01 -3.736699e-01 -3.750488e-01 -3.606210e-01 -3.441330e-01 -3.152065e-01 -2.811655e-01 -2.418082e-01 -1.957640e-01 -1.528005e-01 -1.062800e-01 -6.880353e-02 -3.708931e-02 -1.728255e-02 -1.139353e-03 -1.255012e-03 3.645950e-03 -5.418836e-03 -2.610303e-03 -1.284851e-02 -3.621179e-03 -1.245915e-02 -1.038172e-04 -4.704750e-03 6.518896e-03 7.484347e-03 1.493838e-02 1.506539e-02 1.304245e-02 1.207687e-02 8.794103e-03 9.613947e-03 7.500856e-03 9.973353e-03 9.060441e-03 1.245767e-02 1.237341e-02 1.611609e-02 1.652489e-02 2.024164e-02 2.089533e-02 2.436797e-02 2.509426e-02 2.820614e-02 2.889046e-02 3.158889e-02 3.215733e-02 3.442698e-02 3.483198e-02 3.667690e-02 
4.293192e-02 4.486564e-02 4.389776e-02 4.539238e-02 4.410688e-02 4.517388e-02 4.358402e-02 4.423911e-02 4.237345e-02 4.264190e-02 4.054783e-02 4.046996e-02 3.821669e-02 3.785256e-02 3.553315e-02 3.496586e-02 3.269776e-02 3.203541e-02 2.996014e-02 2.933666e-02 2.761864e-02 2.719387e-02 2.601890e-02 2.597797e-02 2.555103e-02 2.610258e-02 2.664409e-02 2.801606e-02 2.975525e-02 3.218662e-02 3.534982e-02 3.907604e-02 4.386796e-02 4.909794e-02 5.567405e-02 6.255748e-02 7.098686e-02 7.957153e-02 8.979108e-02 9.997241e-02 1.117358e-01 1.232032e-01 1.360308e-01 1.482193e-01 1.613601e-01 1.734204e-01 1.858389e-01 1.966427e-01 2.070513e-01 2.152521e-01 2.222050e-01 2.263714e-01 2.284330e-01 2.272562e-01 2.232322e-01 2.157786e-01 2.049640e-01 1.909031e-01 1.732600e-01 1.529677e-01 1.291373e-01 1.035984e-01 7.470480e-02 4.523675e-02 1.256424e-02 -1.949277e-02 -5.477493e-02 -8.822625e-02 -1.251492e-01 -1.588910e-01 -1.965516e-01 -2.293104e-01 -2.665132e-01 -2.964131e-01 -3.310963e-01 -3.551978e-01 -3.838666e-01 -3.980622e-01 -4.157527e-01 -4.154830e-01 -4.167729e-01 -3.986768e-01 -3.798370e-01 -3.439104e-01 -3.054926e-01 -2.566902e-01 -2.047955e-01 -1.527083e-01 -9.888140e-02 -5.746440e-02 -1.988617e-02 -6.273960e-03 7.671764e-03 -4.442418e-03 1.861950e-03 -3.429573e-03 -3.601937e-03 -1.501641e-02 -2.425881e-04 -1.222429e-02 5.291019e-03 -2.693983e-03 1.140205e-02 1.215442e-02 1.961514e-02 1.994483e-02 1.523042e-02 1.463263e-02 1.038369e-02 1.233319e-02 1.004700e-02 1.372781e-02 1.279460e-02 1.725955e-02 1.711413e-02 2.177589e-02 2.203201e-02 2.655336e-02 2.694544e-02 3.113956e-02 3.148611e-02 3.525854e-02 3.544016e-02 3.875242e-02 3.869451e-02 4.153916e-02 4.119760e-02 4.358134e-02 
4.443289e-02 4.647390e-02 4.676600e-02 4.831248e-02 4.830171e-02 4.936449e-02 4.903108e-02 4.962496e-02 4.896351e-02 4.911401e-02 4.813991e-02 4.788993e-02 4.664512e-02 4.606055e-02 4.461760e-02 4.379101e-02 4.225531e-02 4.130796e-02 3.981813e-02 3.890070e-02 3.762776e-02 3.692037e-02 3.606613e-02 3.577775e-02 3.557228e-02 3.593927e-02 3.663666e-02 3.791885e-02 3.978959e-02 4.226199e-02 4.557968e-02 4.951701e-02 5.453678e-02 6.018828e-02 6.711488e-02 7.466748e-02 8.361181e-02 9.314129e-02 1.040664e-01 1.154784e-01 1.281385e-01 1.411045e-01 1.549840e-01 1.688819e-01 1.831463e-01 1.970192e-01 2.104953e-01 2.230502e-01 2.342571e-01 2.439277e-01 2.511852e-01 2.562842e-01 2.579163e-01 2.568853e-01 2.515135e-01 2.432448e-01 2.301166e-01 2.142614e-01 1.934972e-01 1.706222e-01 1.432306e-01 1.146972e-01 8.227148e-02 4.983250e-02 1.402325e-02 -2.068123e-02 -5.863819e-02 -9.441140e-02 -1.338510e-01 -1.699062e-01 -2.105162e-01 -2.460675e-01 -2.873122e-01 -3.208344e-01 -3.610274e-01 -3.894069e-01 -4.247313e-01 -4.429433e-01 -4.671629e-01 -4.692513e-01 -4.747900e-01 -4.563134e-01 -4.368319e-01 -3.979892e-01 -3.520554e-01 -2.993240e-01 -2.334267e-01 -1.759503e-01 -1.073446e-01 -5.331170e-02 -1.846780e-02 6.413274e-03 2.346867e-02 1.642307e-02 1.530281e-02 -1.868702e-03 -1.965983e-03 -1.676815e-02 -1.492731e-03 -1.785199e-02 4.040346e-04 -1.080362e-02 1.934760e-03 2.356178e-03 1.048577e-02 9.710826e-03 8.848240e-04 8.677586e-04 -3.585115e-03 -6.691809e-05 -1.781157e-03 3.255775e-03 2.954563e-03 8.446489e-03 8.950081e-03 1.439080e-02 1.534973e-02 2.047421e-02 2.164827e-02 2.631596e-02 2.753622e-02 3.168196e-02 3.283340e-02 3.643802e-02 3.744371e-02 4.051249e-02 4.131898e-02 4.386647e-02 
5.057756e-02 5.325188e-02 5.239875e-02 5.454294e-02 5.328078e-02 5.489244e-02 5.322256e-02 5.430220e-02 5.224430e-02 5.280405e-02 5.040200e-02 5.047399e-02 4.780060e-02 4.744366e-02 4.460338e-02 4.390730e-02 4.103685e-02 4.012452e-02 3.739190e-02 3.641993e-02 3.402278e-02 3.318154e-02 3.134549e-02 3.085900e-02 2.983616e-02 2.996156e-02 3.002817e-02 3.105338e-02 3.250468e-02 3.474156e-02 3.788096e-02 4.165106e-02 4.677034e-02 5.237958e-02 5.972696e-02 6.742657e-02 7.716087e-02 8.709337e-02 9.922402e-02 1.113552e-01 1.256713e-01 1.397130e-01 1.557076e-01 1.710401e-01 1.878430e-01 2.034533e-01 2.197896e-01 2.342504e-01 2.484537e-01 2.599753e-01 2.700900e-01 2.766827e-01 2.806863e-01 2.804565e-01 2.766076e-01 2.681621e-01 2.554176e-01 2.382710e-01 2.166244e-01 1.914142e-01 1.619513e-01 1.302778e-01 9.482426e-02 5.871989e-02 1.921841e-02 -1.945318e-02 -6.145831e-02 -1.013038e-01 -1.448115e-01 -1.848133e-01 -2.292139e-01 -2.683720e-01 -3.130167e-01 -3.496700e-01 -3.929366e-01 -4.238005e-01 -4.618150e-01 -4.813942e-01 -5.073922e-01 -5.087683e-01 -5.141670e-01 -4.914134e-01 -4.690861e-01 -4.209034e-01 -3.702944e-01 -3.037175e-01 -2.332867e-01 -1.619803e-01 -8.586121e-02 -2.655580e-02 1.885199e-02 2.563823e-02 2.835836e-02 -9.814050e-03 -1.790870e-03 9.287266e-03 6.560666e-04 -1.981032e-02 1.003287e-02 -1.125612e-02 1.317635e-02 -6.047017e-03 1.067273e-02 6.399259e-03 3.902958e-03 4.665324e-03 -5.559807e-03 -1.637108e-03 -5.053185e-03 1.179227e-03 1.881712e-05 6.803655e-03 6.672044e-03 1.341187e-02 1.388295e-02 2.031716e-02 2.110212e-02 2.708195e-02 2.794761e-02 3.339114e-02 3.416231e-02 3.903670e-02 3.959281e-02 4.389689e-02 4.415980e-02 4.790726e-02 4.782715e-02 5.103335e-02 
5.093697e-02 5.374882e-02 5.454892e-02 5.677957e-02 5.720283e-02 5.884405e-02 5.884437e-02 5.989019e-02 5.943796e-02 5.989543e-02 5.898756e-02 5.888694e-02 5.755541e-02 5.695795e-02 5.527556e-02 5.427824e-02 5.236110e-02 5.109862e-02 4.910612e-02 4.775105e-02 4.588433e-02 4.464685e-02 4.314690e-02 4.227487e-02 4.142071e-02 4.119978e-02 4.130579e-02 4.205810e-02 4.346846e-02 4.554683e-02 4.862365e-02 5.239752e-02 5.749874e-02 6.332742e-02 7.077071e-02 7.896063e-02 8.897070e-02 9.971454e-02 1.123536e-01 1.256524e-01 1.407363e-01 1.563087e-01 1.733168e-01 1.905058e-01 2.084959e-01 2.261888e-01 2.437408e-01 2.603315e-01 2.755499e-01 2.889819e-01 2.996036e-01 3.075444e-01 3.111984e-01 3.113854e-01 3.060283e-01 2.967771e-01 2.812494e-01 2.620065e-01 2.365230e-01 2.082088e-01 1.744712e-01 1.393204e-01 1.000023e-01 6.082495e-02 1.856055e-02 -2.222651e-02 -6.575484e-02 -1.067692e-01 -1.510984e-01 -1.919569e-01 -2.375551e-01 -2.782977e-01 -3.258499e-01 -3.657558e-01 -4.146948e-01 -4.505414e-01 -4.970193e-01 -5.219110e-01 -5.576864e-01 -5.622294e-01 -5.757459e-01 -5.519720e-01 -5.315974e-01 -4.789103e-01 -4.190661e-01 -3.503815e-01 -2.568771e-01 -1.905677e-01 -8.202306e-02 -4.265010e-03 4.971758e-03 2.203469e-02 4.895675e-02 6.520117e-02 2.804669e-02 -2.084273e-02 1.991911e-02 -9.662467e-03 1.090473e-02 -7.246414e-03 7.690589e-03 -1.139389e-02 5.856515e-03 -1.101253e-02 -3.444489e-02 -3.206245e-02 -3.447958e-02 -2.418792e-02 -2.420334e-02 -1.490761e-02 -1.484558e-02 -6.447032e-03 -5.868708e-03 1.899010e-03 3.058263e-03 1.023303e-02 1.180573e-02 1.835234e-02 2.013582e-02 2.602617e-02 2.785561e-02 3.308823e-02 3.484678e-02 3.944079e-02 4.104728e-02 4.502915e-02 4.642175e-02 4.981336e-02 
5.717759e-02 6.077798e-02 6.024577e-02 6.324184e-02 6.220511e-02 6.456627e-02 6.300230e-02 6.469878e-02 6.260639e-02 6.362281e-02 6.103180e-02 6.137967e-02 5.835801e-02 5.808503e-02 5.474263e-02 5.393799e-02 5.042677e-02 4.922283e-02 4.573451e-02 4.430634e-02 4.106942e-02 3.963414e-02 3.691183e-02 3.572900e-02 3.381875e-02 3.319187e-02 3.242565e-02 3.270332e-02 3.344621e-02 3.501938e-02 3.766229e-02 4.095319e-02 4.589480e-02 5.133213e-02 5.894512e-02 6.692082e-02 7.749841e-02 8.830276e-02 1.019841e-01 1.157186e-01 1.323945e-01 1.488656e-01 1.680700e-01 1.866722e-01 2.074725e-01 2.270770e-01 2.479835e-01 2.668637e-01 2.857968e-01 3.016401e-01 3.160110e-01 3.260878e-01 3.330650e-01 3.346258e-01 3.316395e-01 3.225537e-01 3.079954e-01 2.874911e-01 2.613777e-01 2.305185e-01 1.946907e-01 1.561389e-01 1.136324e-01 7.060770e-02 2.441823e-02 -2.048292e-02 -6.833692e-02 -1.136007e-01 -1.621495e-01 -2.070359e-01 -2.561482e-01 -3.002941e-01 -3.504460e-01 -3.930151e-01 -4.440282e-01 -4.818753e-01 -5.303056e-01 -5.563096e-01 -5.935074e-01 -5.974424e-01 -6.102640e-01 -5.821169e-01 -5.569389e-01 -4.917920e-01 -4.248563e-01 -3.329335e-01 -2.389755e-01 -1.483329e-01 -4.312436e-02 4.364604e-02 1.006152e-01 3.938707e-02 -2.590212e-02 -3.229243e-02 3.639090e-02 8.765774e-03 5.443489e-03 -1.621598e-03 8.774154e-03 -1.058377e-02 8.923238e-03 -6.793624e-03 1.116546e-02 -1.000469e-02 -3.137291e-02 -3.551853e-02 -3.300271e-02 -2.166711e-02 -2.119853e-02 -1.065109e-02 -1.082616e-02 -1.348699e-03 -9.993902e-04 7.715800e-03 8.666664e-03 1.670029e-02 1.800824e-02 2.535917e-02 2.676361e-02 3.343107e-02 3.473379e-02 4.073674e-02 4.180453e-02 4.717486e-02 4.792119e-02 5.268992e-02 5.305522e-02 5.724038e-02 
5.622352e-02 6.000643e-02 6.157535e-02 6.471272e-02 6.583507e-02 6.828264e-02 6.886933e-02 7.058255e-02 7.056290e-02 7.151353e-02 7.085075e-02 7.104198e-02 6.974593e-02 6.922332e-02 6.735833e-02 6.621545e-02 6.390285e-02 6.228235e-02 5.969891e-02 5.779102e-02 5.516568e-02 5.320667e-02 5.081765e-02 4.909020e-02 4.726397e-02 4.609979e-02 4.521130e-02 4.499429e-02 4.546573e-02 4.663174e-02 4.892528e-02 5.195285e-02 5.655127e-02 6.193684e-02 6.930610e-02 7.751778e-02 8.804664e-02 9.945244e-02 1.133668e-01 1.281362e-01 1.453895e-01 1.633712e-01 1.835167e-01 2.041003e-01 2.261572e-01 2.481364e-01 2.704724e-01 2.919391e-01 3.122103e-01 3.305376e-01 3.457543e-01 3.577562e-01 3.645732e-01 3.669451e-01 3.622736e-01 3.523733e-01 3.343094e-01 3.111529e-01 2.799608e-01 2.449874e-01 2.035141e-01 1.604445e-01 1.132818e-01 6.675347e-02 1.823876e-02 -2.806713e-02 -7.562625e-02 -1.201819e-01 -1.667200e-01 -2.099200e-01 -2.570812e-01 -3.005397e-01 -3.511680e-01 -3.961344e-01 -4.522890e-01 -4.962615e-01 -5.551634e-01 -5.886737e-01 -6.400613e-01 -6.481149e-01 -6.756408e-01 -6.437436e-01 -6.273504e-01 -5.500781e-01 -4.746604e-01 -3.758999e-01 -2.402711e-01 -1.927092e-01 1.812128e-02 1.244459e-01 4.849830e-02 3.011519e-02 7.394860e-02 3.907560e-02 -6.178328e-02 -5.055299e-02 -9.446683e-03 -5.211024e-02 -1.174461e-02 -3.079377e-02 -5.533957e-03 -2.260553e-02 -6.566620e-03 -1.246541e-02 -2.187468e-02 -3.306978e-02 -3.798382e-02 -3.076591e-02 -3.416830e-02 -2.421725e-02 -2.553865e-02 -1.566181e-02 -1.531654e-02 -6.037744e-03 -4.582733e-03 3.971664e-03 6.074038e-03 1.386681e-02 1.628889e-02 2.332635e-02 2.585498e-02 3.217207e-02 3.467305e-02 4.031649e-02 4.269963e-02 4.771029e-02 4.990143e-02 5.430063e-02 
6.257228e-02 6.732745e-02 6.737077e-02 7.147704e-02 7.092223e-02 7.430058e-02 7.308369e-02 7.565278e-02 7.373483e-02 7.543181e-02 7.281387e-02 7.361290e-02 7.034712e-02 7.027238e-02 6.646699e-02 6.559874e-02 6.141692e-02 5.989156e-02 5.554643e-02 5.355337e-02 4.930200e-02 4.708080e-02 4.322072e-02 4.106121e-02 3.793095e-02 3.617749e-02 3.416097e-02 3.321911e-02 3.275065e-02 3.309191e-02 3.465627e-02 3.681445e-02 4.093481e-02 4.548605e-02 5.269205e-02 6.021108e-02 7.098070e-02 8.196740e-02 9.663844e-02 1.114118e-01 1.300625e-01 1.486220e-01 1.709245e-01 1.927843e-01 2.178387e-01 2.418473e-01 2.680174e-01 2.921921e-01 3.169823e-01 3.384247e-01 3.584817e-01 3.734901e-01 3.848636e-01 3.894115e-01 3.882349e-01 3.789462e-01 3.625926e-01 3.380987e-01 3.065088e-01 2.685470e-01 2.248561e-01 1.780048e-01 1.274310e-01 7.697668e-02 2.421198e-02 -2.629794e-02 -7.884232e-02 -1.281244e-01 -1.796371e-01 -2.274008e-01 -2.780717e-01 -3.248680e-01 -3.768083e-01 -4.235790e-01 -4.797805e-01 -5.244775e-01 -5.835536e-01 -6.168540e-01 -6.686214e-01 -6.757056e-01 -7.015085e-01 -6.674992e-01 -6.415606e-01 -5.518737e-01 -4.593097e-01 -3.164315e-01 -1.721660e-01 -4.146299e-02 6.249121e-02 1.550915e-02 1.038798e-02 1.621995e-02 -1.102629e-01 -1.269790e-01 3.520416e-02 -8.360479e-03 6.882160e-03 -6.505889e-03 1.194077e-02 -1.147948e-02 1.599638e-02 -1.081147e-02 1.474207e-02 4.425325e-03 -1.753148e-02 -7.397144e-03 -2.429555e-02 -1.694508e-02 -2.562186e-02 -1.587663e-02 -1.904098e-02 -8.825721e-03 -9.144981e-03 7.095691e-04 1.827295e-03 1.104260e-02 1.282078e-02 2.131637e-02 2.330280e-02 3.108269e-02 3.301141e-02 4.011919e-02 4.183387e-02 4.832336e-02 4.972678e-02 5.563877e-02 5.665853e-02 6.200452e-02 
6.008796e-02 6.508921e-02 6.774974e-02 7.207814e-02 7.423627e-02 7.778796e-02 7.928823e-02 8.195507e-02 8.266197e-02 8.435710e-02 8.417917e-02 8.485952e-02 8.376843e-02 8.345012e-02 8.149136e-02 8.025597e-02 7.755058e-02 7.554377e-02 7.228352e-02 6.970962e-02 6.614959e-02 6.326674e-02 5.971992e-02 5.683964e-02 5.367626e-02 5.116912e-02 4.882098e-02 4.712665e-02 4.609326e-02 4.572977e-02 4.658002e-02 4.814432e-02 5.150472e-02 5.565494e-02 6.217543e-02 6.958556e-02 7.987449e-02 9.115437e-02 1.056780e-01 1.212548e-01 1.402001e-01 1.601617e-01 1.832663e-01 2.071708e-01 2.335273e-01 2.601889e-01 2.880413e-01 3.153185e-01 3.418888e-01 3.665405e-01 3.879756e-01 4.057171e-01 4.173253e-01 4.233066e-01 4.203300e-01 4.102701e-01 3.893753e-01 3.613403e-01 3.225796e-01 2.786967e-01 2.267794e-01 1.733468e-01 1.163865e-01 6.128444e-02 6.650031e-03 -4.434699e-02 -9.374976e-02 -1.392892e-01 -1.842616e-01 -2.259879e-01 -2.694209e-01 -3.113980e-01 -3.592663e-01 -4.068166e-01 -4.664679e-01 -5.197817e-01 -5.913667e-01 -6.369275e-01 -7.076857e-01 -7.210191e-01 -7.710649e-01 -7.280730e-01 -7.275399e-01 -6.059789e-01 -5.279177e-01 -3.370623e-01 -1.414420e-01 -5.710898e-02 8.645240e-02 8.244432e-02 2.153759e-02 -9.093438e-02 -6.755963e-02 -4.788610e-02 -3.563635e-03 -3.605351e-02 -6.043418e-03 -2.707013e-02 1.007883e-02 -1.758596e-02 1.140090e-02 -1.512455e-02 1.274523e-02 -1.962627e-02 -6.774526e-02 -2.683198e-02 -4.835286e-02 -3.396161e-02 -4.448353e-02 -3.310369e-02 -3.680595e-02 -2.598018e-02 -2.612848e-02 -1.586309e-02 -1.417061e-02 -4.612487e-03 -1.973775e-03 6.818825e-03 9.923865e-03 1.796807e-02 2.128033e-02 2.863470e-02 3.201080e-02 3.874289e-02 4.208949e-02 4.824848e-02 5.147941e-02 5.707680e-02 