# vtk DataFile Version 2.0
Comment goes here
ASCII

DATASET STRUCTURED_POINTS
DIMENSIONS    128   128   1

ORIGIN    0.000   0.000   0.000
SPACING   0.00781250.0078125   1.000

POINT_DATA   16384
SCALARS Omega double
LOOKUP_TABLE default

-1.510937e-14 -1.569933e-14 -1.758571e-14 -1.829655e-14 -2.088555e-14 -2.016785e-14 -2.399394e-14 -2.523010e-14 -2.736489e-14 -2.843577e-14 -2.966241e-14 -2.998913e-14 -3.120383e-14 -3.063597e-14 -3.428577e-14 -3.854596e-14 -3.804940e-14 -3.718750e-14 -3.562528e-14 -3.517157e-14 -3.040411e-14 -3.668266e-14 -3.913775e-14 -3.782532e-14 -3.685774e-14 -3.914956e-14 -3.948143e-14 -3.589646e-14 -3.385241e-14 -3.531662e-14 -3.296726e-14 -3.336281e-14 -3.426735e-14 -3.453419e-14 -3.209761e-14 -3.263283e-14 -3.170768e-14 -3.037505e-14 -3.039526e-14 -2.825426e-14 -2.750582e-14 -2.823318e-14 -2.747307e-14 -2.582573e-14 -2.479522e-14 -2.291134e-14 -2.236437e-14 -1.995678e-14 -1.921065e-14 -1.749648e-14 -1.571901e-14 -1.558651e-14 -1.211958e-14 -1.197203e-14 -1.164538e-14 -8.937407e-15 -1.034902e-14 -9.214464e-15 -9.364555e-15 -6.573420e-15 -4.642264e-15 -3.823597e-15 -3.595186e-15 -2.798373e-15 -2.497253e-15 -5.939735e-16 1.659365e-15 5.695932e-16 2.570528e-15 3.066203e-15 1.850352e-15 3.933892e-15 5.961961e-15 5.545644e-15 6.462344e-15 6.224986e-15 8.984637e-15 9.563598e-15 1.155185e-14 1.166766e-14 1.242148e-14 1.487348e-14 1.558214e-14 1.598230e-14 1.719390e-14 1.716799e-14 1.683071e-14 1.963649e-14 1.951856e-14 2.073186e-14 2.118606e-14 2.180908e-14 2.127198e-14 2.350895e-14 2.361967e-14 2.179047e-14 2.291056e-14 2.337343e-14 2.492860e-14 2.308950e-14 2.104088e-14 2.295869e-14 2.218741e-14 2.082522e-14 2.166069e-14 2.190472e-14 2.039788e-14 2.162250e-14 1.953576e-14 2.025823e-14 1.761237e-14 1.430322e-14 1.435120e-14 1.382030e-14 1.201425e-14 1.011526e-14 7.437618e-15 6.799207e-15 4.599125e-15 2.791293e-15 6.654736e-16 -1.486731e-15 -1.855081e-15 -3.945821e-15 -3.946173e-15 -7.845234e-15 -1.014907e-14 -1.244759e-14 
-2.685053e-03 -2.916375e-03 -3.128094e-03 -3.318811e-03 -3.487297e-03 -3.632505e-03 -3.753582e-03 -3.849873e-03 -3.920928e-03 -3.966499e-03 -3.986541e-03 -3.981209e-03 -3.950847e-03 -3.895984e-03 -3.817323e-03 -3.715728e-03 -3.592211e-03 -3.447921e-03 -3.284125e-03 -3.102194e-03 -2.903586e-03 -2.689830e-03 -2.462508e-03 -2.223239e-03 -1.973660e-03 -1.715411e-03 -1.450119e-03 -1.179382e-03 -9.047548e-04 -6.277374e-04 -3.497613e-04 -7.217977e-05 2.037405e-04 4.768268e-04 7.460061e-04 1.010309e-03 1.268871e-03 1.520935e-03 1.765850e-03 2.003067e-03 2.232139e-03 2.452715e-03 2.664535e-03 2.867425e-03 3.061288e-03 3.246104e-03 3.421913e-03 3.588817e-03 3.746969e-03 3.896564e-03 4.037838e-03 4.171055e-03 4.296507e-03 4.414502e-03 4.525365e-03 4.629429e-03 4.727031e-03 4.818508e-03 4.904195e-03 4.984420e-03 5.059502e-03 5.129746e-03 5.195445e-03 5.256874e-03 5.314291e-03 5.367934e-03 5.418020e-03 5.464744e-03 5.508279e-03 5.548771e-03 5.586344e-03 5.621094e-03 5.653093e-03 5.682384e-03 5.708983e-03 5.732877e-03 5.754023e-03 5.772351e-03 5.787757e-03 5.800110e-03 5.809245e-03 5.814966e-03 5.817044e-03 5.815220e-03 5.809200e-03 5.798660e-03 5.783245e-03 5.762566e-03 5.736207e-03 5.703725e-03 5.664647e-03 5.618481e-03 5.564712e-03 5.502809e-03 5.432231e-03 5.352430e-03 5.262856e-03 5.162968e-03 5.052240e-03 4.930169e-03 4.796284e-03 4.650159e-03 4.491421e-03 4.319764e-03 4.134957e-03 3.936861e-03 3.725438e-03 3.500760e-03 3.263025e-03 3.012564e-03 2.749849e-03 2.475502e-03 2.190300e-03 1.895173e-03 1.591211e-03 1.279658e-03 9.619047e-04 6.394839e-04 3.140554e-04 -1.260684e-05 -3.386327e-04 -6.620756e-04 -9.809344e-04 -1.293177e-03 -1.596767e-03 -1.889684e-03 -2.169957e-03 -2.435683e-03 
-5.389614e-03 -5.853859e-03 -6.278736e-03 -6.661431e-03 -6.999473e-03 -7.290759e-03 -7.533576e-03 -7.726612e-03 -7.868963e-03 -7.960137e-03 -8.000049e-03 -7.989012e-03 -7.927725e-03 -7.817257e-03 -7.659024e-03 -7.454767e-03 -7.206528e-03 -6.916617e-03 -6.587585e-03 -6.222191e-03 -5.823369e-03 -5.394195e-03 -4.937849e-03 -4.457587e-03 -3.956701e-03 -3.438486e-03 -2.906213e-03 -2.363091e-03 -1.812246e-03 -1.256688e-03 -6.992907e-04 -1.427707e-04 4.103313e-04 9.576643e-04 1.497078e-03 2.026631e-03 2.544593e-03 3.049451e-03 3.539904e-03 4.014857e-03 4.473422e-03 4.914899e-03 5.338776e-03 5.744710e-03 6.132516e-03 6.502157e-03 6.853725e-03 7.187428e-03 7.503577e-03 7.802574e-03 8.084893e-03 8.351072e-03 8.601697e-03 8.837393e-03 9.058814e-03 9.266629e-03 9.461517e-03 9.644157e-03 9.815222e-03 9.975371e-03 1.012524e-02 1.026545e-02 1.039658e-02 1.051920e-02 1.063380e-02 1.074088e-02 1.084086e-02 1.093414e-02 1.102107e-02 1.110193e-02 1.117698e-02 1.124641e-02 1.131036e-02 1.136893e-02 1.142214e-02 1.146996e-02 1.151232e-02 1.154907e-02 1.158001e-02 1.160487e-02 1.162333e-02 1.163499e-02 1.163939e-02 1.163602e-02 1.162429e-02 1.160355e-02 1.157308e-02 1.153212e-02 1.147983e-02 1.141531e-02 1.133762e-02 1.124577e-02 1.113873e-02 1.101543e-02 1.087478e-02 1.071568e-02 1.053703e-02 1.033774e-02 1.011673e-02 9.873003e-03 9.605602e-03 9.313662e-03 8.996428e-03 8.653274e-03 8.283730e-03 7.887502e-03 7.464503e-03 7.014868e-03 6.538984e-03 6.037502e-03 5.511362e-03 4.961802e-03 4.390371e-03 3.798935e-03 3.189673e-03 2.565080e-03 1.927947e-03 1.281352e-03 6.286278e-04 -2.665805e-05 -6.807453e-04 -1.329718e-03 -1.969550e-03 -2.596152e-03 -3.205423e-03 -3.793301e-03 -4.355813e-03 -4.889131e-03 
-8.133345e-03 -8.833730e-03 -9.474658e-03 -1.005186e-02 -1.056161e-02 -1.100073e-02 -1.136661e-02 -1.165730e-02 -1.187143e-02 -1.200827e-02 -1.206770e-02 -1.205020e-02 -1.195685e-02 -1.178928e-02 -1.154964e-02 -1.124058e-02 -1.086519e-02 -1.042697e-02 -9.929809e-03 -9.377872e-03 -8.775607e-03 -8.127671e-03 -7.438881e-03 -6.714161e-03 -5.958493e-03 -5.176863e-03 -4.374215e-03 -3.555401e-03 -2.725142e-03 -1.887985e-03 -1.048268e-03 -2.100875e-04 6.227257e-04 1.446631e-03 2.258391e-03 3.055089e-03 3.834128e-03 4.593238e-03 5.330471e-03 6.044196e-03 6.733088e-03 7.396113e-03 8.032514e-03 8.641795e-03 9.223695e-03 9.778175e-03 1.030539e-02 1.080567e-02 1.127951e-02 1.172751e-02 1.215041e-02 1.254904e-02 1.292427e-02 1.327708e-02 1.360844e-02 1.391937e-02 1.421091e-02 1.448409e-02 1.473991e-02 1.497937e-02 1.520345e-02 1.541306e-02 1.560910e-02 1.579239e-02 1.596373e-02 1.612382e-02 1.627332e-02 1.641282e-02 1.654285e-02 1.666384e-02 1.677617e-02 1.688014e-02 1.697596e-02 1.706377e-02 1.714360e-02 1.721544e-02 1.727914e-02 1.733451e-02 1.738123e-02 1.741891e-02 1.744706e-02 1.746509e-02 1.747231e-02 1.746795e-02 1.745113e-02 1.742086e-02 1.737609e-02 1.731563e-02 1.723824e-02 1.714258e-02 1.702721e-02 1.689065e-02 1.673134e-02 1.654766e-02 1.633797e-02 1.610060e-02 1.583387e-02 1.553613e-02 1.520576e-02 1.484122e-02 1.444105e-02 1.400393e-02 1.352869e-02 1.301437e-02 1.246024e-02 1.186582e-02 1.123095e-02 1.055581e-02 9.840956e-03 9.087342e-03 8.296359e-03 7.469855e-03 6.610146e-03 5.720031e-03 4.802788e-03 3.862171e-03 2.902393e-03 1.928098e-03 9.443269e-04 -4.352626e-05 -1.029769e-03 -2.008471e-03 -2.973531e-03 -3.918751e-03 -4.837915e-03 -5.724863e-03 -6.573573e-03 -7.378239e-03 
-1.093621e-02 -1.187761e-02 -1.273896e-02 -1.351452e-02 -1.419922e-02 -1.478880e-02 -1.527977e-02 -1.566947e-02 -1.595609e-02 -1.613867e-02 -1.621707e-02 -1.619196e-02 -1.606482e-02 -1.583787e-02 -1.551403e-02 -1.509690e-02 -1.459068e-02 -1.400011e-02 -1.333042e-02 -1.258728e-02 -1.177668e-02 -1.090492e-02 -9.978509e-03 -9.004090e-03 -7.988387e-03 -6.938127e-03 -5.859975e-03 -4.760472e-03 -3.645975e-03 -2.522604e-03 -1.396194e-03 -2.722510e-04 8.440831e-04 1.948059e-03 3.035343e-03 4.102032e-03 5.144660e-03 6.160203e-03 7.146075e-03 8.100115e-03 9.020574e-03 9.906100e-03 1.075571e-02 1.156878e-02 1.234498e-02 1.308430e-02 1.378698e-02 1.445350e-02 1.508453e-02 1.568093e-02 1.624371e-02 1.677398e-02 1.727297e-02 1.774198e-02 1.818235e-02 1.859545e-02 1.898268e-02 1.934543e-02 1.968506e-02 2.000293e-02 2.030032e-02 2.057849e-02 2.083864e-02 2.108187e-02 2.130923e-02 2.152170e-02 2.172015e-02 2.190537e-02 2.207806e-02 2.223882e-02 2.238815e-02 2.252644e-02 2.265399e-02 2.277098e-02 2.287747e-02 2.297342e-02 2.305867e-02 2.313294e-02 2.319582e-02 2.324678e-02 2.328518e-02 2.331023e-02 2.332102e-02 2.331651e-02 2.329552e-02 2.325675e-02 2.319877e-02 2.312002e-02 2.301881e-02 2.289334e-02 2.274171e-02 2.256190e-02 2.235182e-02 2.210931e-02 2.183213e-02 2.151803e-02 2.116475e-02 2.077003e-02 2.033170e-02 1.984762e-02 1.931584e-02 1.873451e-02 1.810205e-02 1.741710e-02 1.667863e-02 1.588595e-02 1.503880e-02 1.413736e-02 1.318232e-02 1.217492e-02 1.111698e-02 1.001094e-02 8.859877e-03 7.667520e-03 6.438255e-03 5.177117e-03 3.889763e-03 2.582442e-03 1.261950e-03 -6.443911e-05 -1.389037e-03 -2.703828e-03 -4.000563e-03 -5.270858e-03 -6.506298e-03 -7.698547e-03 -8.839454e-03 -9.921162e-03 
-1.381862e-02 -1.500763e-02 -1.609533e-02 -1.707440e-02 -1.793844e-02 -1.868203e-02 -1.930077e-02 -1.979130e-02 -2.015137e-02 -2.037977e-02 -2.047638e-02 -2.044208e-02 -2.027879e-02 -1.998936e-02 -1.957755e-02 -1.904794e-02 -1.840590e-02 -1.765748e-02 -1.680934e-02 -1.586868e-02 -1.484315e-02 -1.374074e-02 -1.256971e-02 -1.133852e-02 -1.005570e-02 -8.729782e-03 -7.369217e-03 -5.982295e-03 -4.577067e-03 -3.161276e-03 -1.742298e-03 -3.270852e-04 1.077878e-03 2.466611e-03 3.833666e-03 5.174145e-03 6.483711e-03 7.758590e-03 8.995562e-03 1.019195e-02 1.134561e-02 1.245488e-02 1.351859e-02 1.453599e-02 1.550674e-02 1.643087e-02 1.730873e-02 1.814099e-02 1.892854e-02 1.967249e-02 2.037417e-02 2.103501e-02 2.165659e-02 2.224057e-02 2.278867e-02 2.330265e-02 2.378427e-02 2.423530e-02 2.465748e-02 2.505251e-02 2.542203e-02 2.576763e-02 2.609080e-02 2.639295e-02 2.667542e-02 2.693941e-02 2.718604e-02 2.741630e-02 2.763107e-02 2.783110e-02 2.801704e-02 2.818937e-02 2.834847e-02 2.849456e-02 2.862774e-02 2.874796e-02 2.885502e-02 2.894856e-02 2.902810e-02 2.909297e-02 2.914236e-02 2.917530e-02 2.919065e-02 2.918710e-02 2.916319e-02 2.911728e-02 2.904757e-02 2.895212e-02 2.882879e-02 2.867533e-02 2.848933e-02 2.826825e-02 2.800945e-02 2.771017e-02 2.736760e-02 2.697888e-02 2.654111e-02 2.605142e-02 2.550702e-02 2.490519e-02 2.424336e-02 2.351919e-02 2.273059e-02 2.187577e-02 2.095335e-02 1.996239e-02 1.890245e-02 1.777369e-02 1.657689e-02 1.531354e-02 1.398585e-02 1.259683e-02 1.115030e-02 9.650939e-03 8.104238e-03 6.516534e-03 4.894970e-03 3.247449e-03 1.582581e-03 -9.040042e-05 -1.761728e-03 -3.421209e-03 -5.058340e-03 -6.662443e-03 -8.222798e-03 -9.728779e-03 -1.117000e-02 -1.253645e-02 
-1.680164e-02 -1.824663e-02 -1.956818e-02 -2.075734e-02 -2.180627e-02 -2.270836e-02 -2.345826e-02 -2.405191e-02 -2.448659e-02 -2.476088e-02 -2.487469e-02 -2.482916e-02 -2.462669e-02 -2.427082e-02 -2.376620e-02 -2.311849e-02 -2.233428e-02 -2.142101e-02 -2.038687e-02 -1.924068e-02 -1.799182e-02 -1.665007e-02 -1.522557e-02 -1.372863e-02 -1.216971e-02 -1.055922e-02 -8.907485e-03 -7.224626e-03 -5.520454e-03 -3.804401e-03 -2.085439e-03 -3.720126e-04 1.328011e-03 3.007392e-03 4.659547e-03 6.278574e-03 7.859260e-03 9.397086e-03 1.088821e-02 1.232947e-02 1.371832e-02 1.505285e-02 1.633171e-02 1.755407e-02 1.871962e-02 1.982847e-02 2.088112e-02 2.187844e-02 2.282160e-02 2.371201e-02 2.455131e-02 2.534132e-02 2.608399e-02 2.678137e-02 2.743558e-02 2.804878e-02 2.862313e-02 2.916081e-02 2.966392e-02 3.013455e-02 3.057469e-02 3.098627e-02 3.137111e-02 3.173093e-02 3.206732e-02 3.238176e-02 3.267560e-02 3.295004e-02 3.320615e-02 3.344485e-02 3.366689e-02 3.387290e-02 3.406331e-02 3.423841e-02 3.439832e-02 3.454298e-02 3.467216e-02 3.478546e-02 3.488227e-02 3.496182e-02 3.502313e-02 3.506504e-02 3.508619e-02 3.508500e-02 3.505972e-02 3.500838e-02 3.492882e-02 3.481867e-02 3.467538e-02 3.449620e-02 3.427823e-02 3.401838e-02 3.371343e-02 3.336004e-02 3.295476e-02 3.249408e-02 3.197447e-02 3.139238e-02 3.074437e-02 3.002705e-02 2.923726e-02 2.837203e-02 2.742873e-02 2.640509e-02 2.529930e-02 2.411010e-02 2.283684e-02 2.147957e-02 2.003911e-02 1.851714e-02 1.691623e-02 1.523994e-02 1.349283e-02 1.168048e-02 9.809523e-03 7.887628e-03 5.923465e-03 3.926656e-03 1.907703e-03 -1.221065e-04 -2.150814e-03 -4.165925e-03 -6.154555e-03 -8.103592e-03 -9.999865e-03 -1.183032e-02 -1.358220e-02 -1.524320e-02 
-1.990712e-02 -2.161836e-02 -2.318297e-02 -2.459023e-02 -2.583081e-02 -2.689686e-02 -2.778203e-02 -2.848153e-02 -2.899219e-02 -2.931241e-02 -2.944213e-02 -2.938282e-02 -2.913741e-02 -2.871020e-02 -2.810682e-02 -2.733408e-02 -2.639989e-02 -2.531320e-02 -2.408380e-02 -2.272227e-02 -2.123979e-02 -1.964810e-02 -1.795926e-02 -1.618561e-02 -1.433961e-02 -1.243367e-02 -1.048009e-02 -8.490916e-03 -6.477803e-03 -4.451951e-03 -2.423996e-03 -4.039373e-04 1.598933e-03 3.576079e-03 5.519759e-03 7.423052e-03 9.279870e-03 1.108495e-02 1.283386e-02 1.452295e-02 1.614934e-02 1.771087e-02 1.920607e-02 2.063409e-02 2.199466e-02 2.328802e-02 2.451490e-02 2.567639e-02 2.677399e-02 2.780945e-02 2.878479e-02 2.970223e-02 3.056412e-02 3.137295e-02 3.213127e-02 3.284166e-02 3.350672e-02 3.412903e-02 3.471111e-02 3.525543e-02 3.576436e-02 3.624018e-02 3.668504e-02 3.710097e-02 3.748986e-02 3.785345e-02 3.819333e-02 3.851091e-02 3.880747e-02 3.908407e-02 3.934163e-02 3.958085e-02 3.980229e-02 4.000627e-02 4.019295e-02 4.036226e-02 4.051396e-02 4.064756e-02 4.076239e-02 4.085754e-02 4.093188e-02 4.098406e-02 4.101249e-02 4.101535e-02 4.099057e-02 4.093587e-02 4.084869e-02 4.072628e-02 4.056563e-02 4.036350e-02 4.011647e-02 3.982089e-02 3.947294e-02 3.906867e-02 3.860395e-02 3.807462e-02 3.747642e-02 3.680513e-02 3.605655e-02 3.522662e-02 3.431145e-02 3.330745e-02 3.221132e-02 3.102025e-02 2.973193e-02 2.834469e-02 2.685758e-02 2.527047e-02 2.358416e-02 2.180046e-02 1.992225e-02 1.795358e-02 1.589972e-02 1.376717e-02 1.156371e-02 9.298367e-03 6.981395e-03 4.624211e-03 2.239310e-03 -1.598508e-04 -2.558986e-03 -4.943148e-03 -7.296903e-03 -9.604532e-03 -1.185024e-02 -1.401837e-02 -1.609360e-02 -1.806118e-02 
-2.315790e-02 -2.514768e-02 -2.696631e-02 -2.860124e-02 -3.004153e-02 -3.127800e-02 -3.230327e-02 -3.311183e-02 -3.370004e-02 -3.406613e-02 -3.421014e-02 -3.413392e-02 -3.384101e-02 -3.333656e-02 -3.262725e-02 -3.172116e-02 -3.062765e-02 -2.935726e-02 -2.792154e-02 -2.633291e-02 -2.460456e-02 -2.275023e-02 -2.078412e-02 -1.872068e-02 -1.657452e-02 -1.436019e-02 -1.209207e-02 -9.784240e-03 -7.450320e-03 -5.103366e-03 -2.755761e-03 -4.191245e-04 1.895770e-03 4.179049e-03 6.421787e-03 8.616031e-03 1.075481e-02 1.283215e-02 1.484302e-02 1.678333e-02 1.864990e-02 2.044037e-02 2.215320e-02 2.378756e-02 2.534329e-02 2.682083e-02 2.822115e-02 2.954567e-02 3.079624e-02 3.197501e-02 3.308443e-02 3.412716e-02 3.510602e-02 3.602395e-02 3.688396e-02 3.768912e-02 3.844247e-02 3.914702e-02 3.980573e-02 4.042148e-02 4.099702e-02 4.153500e-02 4.203793e-02 4.250815e-02 4.294785e-02 4.335905e-02 4.374358e-02 4.410309e-02 4.443903e-02 4.475265e-02 4.504500e-02 4.531692e-02 4.556903e-02 4.580174e-02 4.601522e-02 4.620942e-02 4.638406e-02 4.653862e-02 4.667232e-02 4.678414e-02 4.687280e-02 4.693676e-02 4.697422e-02 4.698309e-02 4.696101e-02 4.690536e-02 4.681322e-02 4.668140e-02 4.650645e-02 4.628464e-02 4.601199e-02 4.568429e-02 4.529710e-02 4.484579e-02 4.432557e-02 4.373152e-02 4.305868e-02 4.230202e-02 4.145659e-02 4.051754e-02 3.948022e-02 3.834026e-02 3.709369e-02 3.573701e-02 3.426733e-02 3.268246e-02 3.098107e-02 2.916275e-02 2.722820e-02 2.517925e-02 2.301904e-02 2.075208e-02 1.838428e-02 1.592308e-02 1.337740e-02 1.075767e-02 8.075778e-03 5.345037e-03 2.580047e-03 -2.034189e-04 -2.988585e-03 -5.757862e-03 -8.493069e-03 -1.117567e-02 -1.378702e-02 -1.630864e-02 -1.872244e-02 -2.101103e-02 
-2.657805e-02 -2.886080e-02 -3.094635e-02 -3.282014e-02 -3.446953e-02 -3.588394e-02 -3.705491e-02 -3.797617e-02 -3.864365e-02 -3.905544e-02 -3.921174e-02 -3.911484e-02 -3.876897e-02 -3.818026e-02 -3.735653e-02 -3.630727e-02 -3.504342e-02 -3.357723e-02 -3.192216e-02 -3.009266e-02 -2.810401e-02 -2.597218e-02 -2.371362e-02 -2.134508e-02 -1.888345e-02 -1.634558e-02 -1.374808e-02 -1.110720e-02 -8.438646e-03 -5.757438e-03 -3.077804e-03 -4.130613e-04 2.224469e-03 4.823531e-03 7.373984e-03 9.866831e-03 1.229423e-02 1.464947e-02 1.692700e-02 1.912231e-02 2.123196e-02 2.325346e-02 2.518525e-02 2.702658e-02 2.877748e-02 3.043864e-02 3.201136e-02 3.349745e-02 3.489916e-02 3.621912e-02 3.746025e-02 3.862571e-02 3.971883e-02 4.074307e-02 4.170195e-02 4.259901e-02 4.343779e-02 4.422178e-02 4.495439e-02 4.563891e-02 4.627853e-02 4.687627e-02 4.743500e-02 4.795739e-02 4.844596e-02 4.890298e-02 4.933057e-02 4.973058e-02 5.010468e-02 5.045429e-02 5.078061e-02 5.108461e-02 5.136699e-02 5.162822e-02 5.186853e-02 5.208788e-02 5.228596e-02 5.246219e-02 5.261573e-02 5.274543e-02 5.284988e-02 5.292735e-02 5.297582e-02 5.299295e-02 5.297608e-02 5.292226e-02 5.282819e-02 5.269027e-02 5.250457e-02 5.226686e-02 5.197260e-02 5.161698e-02 5.119491e-02 5.070108e-02 5.012995e-02 4.947587e-02 4.873302e-02 4.789559e-02 4.695775e-02 4.591380e-02 4.475822e-02 4.348581e-02 4.209177e-02 4.057182e-02 3.892237e-02 3.714061e-02 3.522469e-02 3.317383e-02 3.098847e-02 2.867043e-02 2.622300e-02 2.365104e-02 2.096113e-02 1.816157e-02 1.526244e-02 1.227561e-02 9.214701e-03 6.095001e-03 2.933360e-03 -2.519649e-04 -3.441507e-03 -6.614816e-03 -9.750719e-03 -1.282760e-02 -1.582372e-02 -1.871750e-02 -2.148783e-02 -2.411443e-02 
-3.019305e-02 -3.278554e-02 -3.515295e-02 -3.727854e-02 -3.914784e-02 -4.074880e-02 -4.207183e-02 -4.310990e-02 -4.385850e-02 -4.431563e-02 -4.448175e-02 -4.435965e-02 -4.395440e-02 -4.327316e-02 -4.232510e-02 -4.112121e-02 -3.967416e-02 -3.799812e-02 -3.610858e-02 -3.402219e-02 -3.175655e-02 -2.932999e-02 -2.676140e-02 -2.407004e-02 -2.127525e-02 -1.839635e-02 -1.545236e-02 -1.246185e-02 -9.442751e-03 -6.412186e-03 -3.386336e-03 -3.803113e-04 2.591950e-03 5.517758e-03 8.385724e-03 1.118579e-02 1.390925e-02 1.654870e-02 1.909807e-02 2.155250e-02 2.390833e-02 2.616303e-02 2.831507e-02 3.036389e-02 3.230976e-02 3.415372e-02 3.589747e-02 3.754327e-02 3.909388e-02 4.055246e-02 4.192246e-02 4.320762e-02 4.441183e-02 4.553910e-02 4.659351e-02 4.757915e-02 4.850006e-02 4.936025e-02 5.016360e-02 5.091387e-02 5.161466e-02 5.226940e-02 5.288134e-02 5.345349e-02 5.398868e-02 5.448951e-02 5.495831e-02 5.539721e-02 5.580807e-02 5.619250e-02 5.655184e-02 5.688719e-02 5.719936e-02 5.748890e-02 5.775606e-02 5.800082e-02 5.822287e-02 5.842158e-02 5.859603e-02 5.874498e-02 5.886686e-02 5.895977e-02 5.902148e-02 5.904940e-02 5.904058e-02 5.899173e-02 5.889918e-02 5.875890e-02 5.856648e-02 5.831719e-02 5.800590e-02 5.762718e-02 5.717527e-02 5.664413e-02 5.602745e-02 5.531874e-02 5.451134e-02 5.359852e-02 5.257353e-02 5.142970e-02 5.016057e-02 4.875995e-02 4.722211e-02 4.554188e-02 4.371481e-02 4.173733e-02 3.960694e-02 3.732232e-02 3.488358e-02 3.229235e-02 2.955197e-02 2.666761e-02 2.364639e-02 2.049748e-02 1.723213e-02 1.386368e-02 1.040754e-02 6.881120e-03 3.303669e-03 -3.038712e-04 -3.919108e-03 -7.518464e-03 -1.107748e-02 -1.457118e-02 -1.797436e-02 -2.126207e-02 -2.440987e-02 -2.739427e-02 
-3.403009e-02 -3.695164e-02 -3.961805e-02 -4.201024e-02 -4.411179e-02 -4.590906e-02 -4.739129e-02 -4.855068e-02 -4.938233e-02 -4.988421e-02 -5.005711e-02 -4.990445e-02 -4.943225e-02 -4.864888e-02 -4.756497e-02 -4.619320e-02 -4.454813e-02 -4.264603e-02 -4.050463e-02 -3.814296e-02 -3.558112e-02 -3.284006e-02 -2.994130e-02 -2.690680e-02 -2.375859e-02 -2.051865e-02 -1.720861e-02 -1.384955e-02 -1.046179e-02 -7.064703e-03 -3.676551e-03 -3.143427e-04 3.006285e-03 6.271148e-03 9.467580e-03 1.258445e-02 1.561220e-02 1.854276e-02 2.136958e-02 2.408752e-02 2.669279e-02 2.918285e-02 3.155636e-02 3.381297e-02 3.595333e-02 3.797891e-02 3.989190e-02 4.169511e-02 4.339189e-02 4.498599e-02 4.648151e-02 4.788280e-02 4.919438e-02 5.042088e-02 5.156699e-02 5.263736e-02 5.363663e-02 5.456932e-02 5.543982e-02 5.625237e-02 5.701103e-02 5.771965e-02 5.838185e-02 5.900104e-02 5.958035e-02 6.012267e-02 6.063064e-02 6.110660e-02 6.155264e-02 6.197055e-02 6.236184e-02 6.272774e-02 6.306915e-02 6.338671e-02 6.368072e-02 6.395118e-02 6.419777e-02 6.441983e-02 6.461637e-02 6.478606e-02 6.492718e-02 6.503767e-02 6.511509e-02 6.515662e-02 6.515901e-02 6.511863e-02 6.503146e-02 6.489301e-02 6.469843e-02 6.444242e-02 6.411929e-02 6.372294e-02 6.324692e-02 6.268443e-02 6.202833e-02 6.127125e-02 6.040561e-02 5.942368e-02 5.831770e-02 5.707993e-02 5.570284e-02 5.417914e-02 5.250203e-02 5.066527e-02 4.866341e-02 4.649197e-02 4.414759e-02 4.162830e-02 3.893366e-02 3.606498e-02 3.302554e-02 2.982067e-02 2.645800e-02 2.294750e-02 1.930155e-02 1.553503e-02 1.166523e-02 7.711798e-03 3.696576e-03 -3.565794e-04 -4.422073e-03 -8.472886e-03 -1.248094e-02 -1.641748e-02 -2.025355e-02 -2.396037e-02 -2.750984e-02 -3.087493e-02 
-3.811836e-02 -4.139104e-02 -4.437602e-02 -4.705164e-02 -4.939936e-02 -5.140388e-02 -5.305324e-02 -5.433885e-02 -5.525549e-02 -5.580119e-02 -5.597716e-02 -5.578761e-02 -5.523964e-02 -5.434300e-02 -5.310996e-02 -5.155509e-02 -4.969503e-02 -4.754832e-02 -4.513518e-02 -4.247724e-02 -3.959732e-02 -3.651921e-02 -3.326733e-02 -2.986657e-02 -2.634190e-02 -2.271820e-02 -1.901993e-02 -1.527088e-02 -1.149397e-02 -7.710999e-03 -3.942448e-03 -2.073450e-04 3.476882e-03 7.094497e-03 1.063152e-02 1.407574e-02 1.741674e-02 2.064587e-02 2.375613e-02 2.674218e-02 2.960019e-02 3.232774e-02 3.492370e-02 3.738813e-02 3.972212e-02 4.192769e-02 4.400763e-02 4.596541e-02 4.780505e-02 4.953100e-02 5.114807e-02 5.266132e-02 5.407596e-02 5.539731e-02 5.663070e-02 5.778144e-02 5.885475e-02 5.985574e-02 6.078933e-02 6.166027e-02 6.247309e-02 6.323207e-02 6.394126e-02 6.460442e-02 6.522504e-02 6.580631e-02 6.635114e-02 6.686213e-02 6.734158e-02 6.779149e-02 6.821352e-02 6.860903e-02 6.897906e-02 6.932431e-02 6.964514e-02 6.994159e-02 7.021333e-02 7.045968e-02 7.067959e-02 7.087162e-02 7.103396e-02 7.116437e-02 7.126022e-02 7.131844e-02 7.133552e-02 7.130750e-02 7.122997e-02 7.109803e-02 7.090633e-02 7.064904e-02 7.031987e-02 6.991206e-02 6.941840e-02 6.883131e-02 6.814277e-02 6.734448e-02 6.642785e-02 6.538407e-02 6.420427e-02 6.287954e-02 6.140112e-02 5.976050e-02 5.794962e-02 5.596103e-02 5.378807e-02 5.142515e-02 4.886788e-02 4.611341e-02 4.316058e-02 4.001020e-02 3.666528e-02 3.313123e-02 2.941604e-02 2.553040e-02 2.148785e-02 1.730482e-02 1.300055e-02 8.597095e-03 4.119100e-03 -4.063959e-04 -4.950273e-03 -9.481697e-03 -1.396855e-02 -1.837791e-02 -2.267655e-02 -2.683147e-02 -3.081044e-02 -3.458248e-02 
-4.248940e-02 -4.613833e-02 -4.946405e-02 -5.244208e-02 -5.505161e-02 -5.727556e-02 -5.910074e-02 -6.051783e-02 -6.152132e-02 -6.210944e-02 -6.228397e-02 -6.205005e-02 -6.141606e-02 -6.039332e-02 -5.899594e-02 -5.724057e-02 -5.514616e-02 -5.273377e-02 -5.002630e-02 -4.704824e-02 -4.382542e-02 -4.038470e-02 -3.675370e-02 -3.296051e-02 -2.903332e-02 -2.500018e-02 -2.088863e-02 -1.672546e-02 -1.253638e-02 -8.345808e-03 -4.176625e-03 -5.001077e-05 4.014717e-03 8.000199e-03 1.189110e-02 1.567416e-02 1.933812e-02 2.287376e-02 2.627376e-02 2.953265e-02 3.264666e-02 3.561360e-02 3.843272e-02 4.110458e-02 4.363086e-02 4.601423e-02 4.825823e-02 5.036709e-02 5.234561e-02 5.419906e-02 5.593305e-02 5.755342e-02 5.906616e-02 6.047733e-02 6.179299e-02 6.301913e-02 6.416162e-02 6.522617e-02 6.621829e-02 6.714325e-02 6.800609e-02 6.881154e-02 6.956406e-02 7.026781e-02 7.092661e-02 7.154399e-02 7.212313e-02 7.266689e-02 7.317781e-02 7.365805e-02 7.410948e-02 7.453358e-02 7.493151e-02 7.530407e-02 7.565167e-02 7.597439e-02 7.627192e-02 7.654355e-02 7.678818e-02 7.700430e-02 7.718998e-02 7.734284e-02 7.746006e-02 7.753834e-02 7.757390e-02 7.756248e-02 7.749927e-02 7.737897e-02 7.719574e-02 7.694321e-02 7.661445e-02 7.620203e-02 7.569800e-02 7.509389e-02 7.438081e-02 7.354944e-02 7.259009e-02 7.149282e-02 7.024750e-02 6.884394e-02 6.727201e-02 6.552181e-02 6.358384e-02 6.144922e-02 5.910991e-02 5.655894e-02 5.379069e-02 5.080116e-02 4.758824e-02 4.415204e-02 4.049510e-02 3.662269e-02 3.254302e-02 2.826747e-02 2.381064e-02 1.919054e-02 1.442848e-02 9.549057e-03 4.579969e-03 -4.482518e-04 -5.502581e-03 -1.054794e-02 -1.554768e-02 -2.046418e-02 -2.525943e-02 -2.989566e-02 -3.433599e-02 -3.854502e-02 
-4.717746e-02 -5.123115e-02 -5.492263e-02 -5.822439e-02 -6.111314e-02 -6.356996e-02 -6.558041e-02 -6.713448e-02 -6.822652e-02 -6.885507e-02 -6.902265e-02 -6.873558e-02 -6.800370e-02 -6.684012e-02 -6.526102e-02 -6.328536e-02 -6.093465e-02 -5.823269e-02 -5.520535e-02 -5.188024e-02 -4.828646e-02 -4.445429e-02 -4.041483e-02 -3.619969e-02 -3.184062e-02 -2.736913e-02 -2.281619e-02 -1.821181e-02 -1.358478e-02 -8.962374e-03 -4.370053e-03 1.687009e-04 4.632565e-03 9.002491e-03 1.326177e-02 1.739605e-02 2.139333e-02 2.524386e-02 2.894010e-02 3.247657e-02 3.584968e-02 3.905762e-02 4.210018e-02 4.497854e-02 4.769513e-02 5.025345e-02 5.265789e-02 5.491358e-02 5.702625e-02 5.900208e-02 6.084758e-02 6.256948e-02 6.417462e-02 6.566990e-02 6.706214e-02 6.835808e-02 6.956428e-02 7.068711e-02 7.173267e-02 7.270681e-02 7.361507e-02 7.446266e-02 7.525448e-02 7.599508e-02 7.668863e-02 7.733900e-02 7.794965e-02 7.852371e-02 7.906393e-02 7.957270e-02 8.005204e-02 8.050358e-02 8.092861e-02 8.132802e-02 8.170230e-02 8.205156e-02 8.237552e-02 8.267346e-02 8.294425e-02 8.318631e-02 8.339760e-02 8.357562e-02 8.371737e-02 8.381935e-02 8.387751e-02 8.388727e-02 8.384349e-02 8.374044e-02 8.357180e-02 8.333064e-02 8.300943e-02 8.260002e-02 8.209367e-02 8.148105e-02 8.075229e-02 7.989700e-02 7.890435e-02 7.776313e-02 7.646187e-02 7.498892e-02 7.333265e-02 7.148156e-02 6.942454e-02 6.715105e-02 6.465139e-02 6.191699e-02 5.894069e-02 5.571708e-02 5.224283e-02 4.851703e-02 4.454152e-02 4.032121e-02 3.586438e-02 3.118289e-02 2.629241e-02 2.121248e-02 1.596660e-02 1.058209e-02 5.089949e-03 -4.754248e-04 -6.076666e-03 -1.167393e-02 -1.722547e-02 -2.268835e-02 -2.801913e-02 -3.317464e-02 -3.811273e-02 -4.279300e-02 
-5.222003e-02 -5.671067e-02 -6.079608e-02 -6.444540e-02 -6.763267e-02 -7.033708e-02 -7.254294e-02 -7.423965e-02 -7.542157e-02 -7.608776e-02 -7.624174e-02 -7.589119e-02 -7.504769e-02 -7.372641e-02 -7.194582e-02 -6.972745e-02 -6.709561e-02 -6.407715e-02 -6.070115e-02 -5.699865e-02 -5.300236e-02 -4.874628e-02 -4.426535e-02 -3.959509e-02 -3.477113e-02 -2.982887e-02 -2.480299e-02 -1.972712e-02 -1.463340e-02 -9.552198e-03 -4.511798e-03 4.618491e-04 5.345299e-03 1.011774e-02 1.476105e-02 1.925984e-02 2.360138e-02 2.777553e-02 3.177461e-02 3.559326e-02 3.922828e-02 4.267839e-02 4.594407e-02 4.902732e-02 5.193149e-02 5.466107e-02 5.722147e-02 5.961888e-02 6.186007e-02 6.395228e-02 6.590302e-02 6.772003e-02 6.941108e-02 7.098397e-02 7.244638e-02 7.380583e-02 7.506964e-02 7.624486e-02 7.733823e-02 7.835619e-02 7.930480e-02 8.018979e-02 8.101648e-02 8.178982e-02 8.251438e-02 8.319433e-02 8.383344e-02 8.443508e-02 8.500226e-02 8.553755e-02 8.604315e-02 8.652087e-02 8.697210e-02 8.739783e-02 8.779865e-02 8.817472e-02 8.852576e-02 8.885109e-02 8.914954e-02 8.941948e-02 8.965879e-02 8.986484e-02 9.003450e-02 9.016404e-02 9.024920e-02 9.028511e-02 9.026627e-02 9.018655e-02 9.003916e-02 8.981661e-02 8.951076e-02 8.911273e-02 8.861299e-02 8.800130e-02 8.726676e-02 8.639787e-02 8.538255e-02 8.420825e-02 8.286199e-02 8.133057e-02 7.960066e-02 7.765897e-02 7.549254e-02 7.308891e-02 7.043645e-02 6.752468e-02 6.434458e-02 6.088901e-02 5.715306e-02 5.313448e-02 4.883411e-02 4.425621e-02 3.940886e-02 3.430427e-02 2.895901e-02 2.339422e-02 1.763560e-02 1.171341e-02 5.662262e-03 -4.791906e-04 -6.668719e-03 -1.286110e-02 -1.900882e-02 -2.506288e-02 -3.097365e-02 -3.669179e-02 -4.216915e-02 -4.735963e-02 
-5.765834e-02 -6.262227e-02 -6.713320e-02 -7.115657e-02 -7.466364e-02 -7.763159e-02 -8.004359e-02 -8.188861e-02 -8.316122e-02 -8.386125e-02 -8.399352e-02 -8.356738e-02 -8.259644e-02 -8.109819e-02 -7.909368e-02 -7.660729e-02 -7.366640e-02 -7.030115e-02 -6.654416e-02 -6.243022e-02 -5.799597e-02 -5.327954e-02 -4.832011e-02 -4.315749e-02 -3.783167e-02 -3.238230e-02 -2.684824e-02 -2.126706e-02 -1.567464e-02 -1.010476e-02 -4.588728e-03 8.448233e-04 6.170196e-03 1.136474e-02 1.640893e-02 2.128633e-02 2.598359e-02 3.049027e-02 3.479874e-02 3.890394e-02 4.280320e-02 4.649600e-02 4.998371e-02 5.326938e-02 5.635747e-02 5.925364e-02 6.196451e-02 6.449749e-02 6.686057e-02 6.906216e-02 7.111092e-02 7.301568e-02 7.478527e-02 7.642845e-02 7.795382e-02 7.936977e-02 8.068441e-02 8.190550e-02 8.304046e-02 8.409634e-02 8.507976e-02 8.599694e-02 8.685367e-02 8.765531e-02 8.840679e-02 8.911261e-02 8.977685e-02 9.040314e-02 9.099471e-02 9.155435e-02 9.208444e-02 9.258694e-02 9.306336e-02 9.351482e-02 9.394197e-02 9.434506e-02 9.472385e-02 9.507766e-02 9.540532e-02 9.570516e-02 9.597500e-02 9.621212e-02 9.641324e-02 9.657448e-02 9.669134e-02 9.675869e-02 9.677070e-02 9.672085e-02 9.660189e-02 9.640581e-02 9.612383e-02 9.574637e-02 9.526306e-02 9.466272e-02 9.393342e-02 9.306245e-02 9.203643e-02 9.084133e-02 8.946260e-02 8.788528e-02 8.609415e-02 8.407395e-02 8.180958e-02 7.928641e-02 7.649055e-02 7.340925e-02 7.003126e-02 6.634731e-02 6.235052e-02 5.803691e-02 5.340590e-02 4.846075e-02 4.320906e-02 3.766312e-02 3.184029e-02 2.576319e-02 1.945984e-02 1.296361e-02 6.313067e-03 -4.484138e-04 -7.273137e-03 -1.410979e-02 -2.090427e-02 -2.760064e-02 -3.414216e-02 -4.047241e-02 -4.653635e-02 -5.228139e-02 