# vtk DataFile Version 2.0
Comment goes here
ASCII

DATASET STRUCTURED_POINTS
DIMENSIONS    128   128   1

ORIGIN    0.000   0.000   0.000
SPACING   0.0078125 0.0078125   1.000

POINT_DATA   16384
SCALARS P double
LOOKUP_TABLE default

-9.614049e+01 -9.677375e+01 -9.604812e+01 -9.677103e+01 -9.595864e+01 -9.676331e+01 -9.587387e+01 -9.675092e+01 -9.579562e+01 -9.673425e+01 -9.572554e+01 -9.671372e+01 -9.566514e+01 -9.668978e+01 -9.561566e+01 -9.666286e+01 -9.557805e+01 -9.663342e+01 -9.555296e+01 -9.660188e+01 -9.554068e+01 -9.656865e+01 -9.554118e+01 -9.653413e+01 -9.555411e+01 -9.649869e+01 -9.557884e+01 -9.646269e+01 -9.561448e+01 -9.642645e+01 -9.565997e+01 -9.639028e+01 -9.571409e+01 -9.635447e+01 -9.577553e+01 -9.631928e+01 -9.584293e+01 -9.628495e+01 -9.591494e+01 -9.625169e+01 -9.599026e+01 -9.621971e+01 -9.606764e+01 -9.618916e+01 -9.614595e+01 -9.616021e+01 -9.622416e+01 -9.613300e+01 -9.630136e+01 -9.610765e+01 -9.637680e+01 -9.608427e+01 -9.644981e+01 -9.606297e+01 -9.651987e+01 -9.604384e+01 -9.658657e+01 -9.602697e+01 -9.664960e+01 -9.601245e+01 -9.670872e+01 -9.600035e+01 -9.676381e+01 -9.599076e+01 -9.681477e+01 -9.598376e+01 -9.686158e+01 -9.597942e+01 -9.690425e+01 -9.597782e+01 -9.694283e+01 -9.597904e+01 -9.697738e+01 -9.598315e+01 -9.700796e+01 -9.599023e+01 -9.703467e+01 -9.600033e+01 -9.705756e+01 -9.601352e+01 -9.707671e+01 -9.602984e+01 -9.709213e+01 -9.604930e+01 -9.710386e+01 -9.607192e+01 -9.711186e+01 -9.609766e+01 -9.711609e+01 -9.612647e+01 -9.711645e+01 -9.615822e+01 -9.711281e+01 -9.619277e+01 -9.710497e+01 -9.622989e+01 -9.709273e+01 -9.626930e+01 -9.707580e+01 -9.631065e+01 -9.705390e+01 -9.635351e+01 -9.702669e+01 -9.639737e+01 -9.699384e+01 -9.644168e+01 -9.695504e+01 -9.648579e+01 -9.690998e+01 -9.652902e+01 -9.685845e+01 -9.657068e+01 -9.680032e+01 -9.661003e+01 -9.673559e+01 -9.664638e+01 -9.666445e+01 -9.667908e+01 -9.658727e+01 -9.670755e+01 -9.650465e+01 -9.673130e+01 -9.641745e+01 -9.674996e+01 -9.632677e+01 -9.676330e+01 -9.623394e+01 -9.677122e+01 
-9.521257e+01 -9.583273e+01 -9.501684e+01 -9.572409e+01 -9.481140e+01 -9.559810e+01 -9.459926e+01 -9.545631e+01 -9.438368e+01 -9.530061e+01 -9.416800e+01 -9.513314e+01 -9.395559e+01 -9.495625e+01 -9.374975e+01 -9.477247e+01 -9.355359e+01 -9.458440e+01 -9.336996e+01 -9.439469e+01 -9.320138e+01 -9.420597e+01 -9.304998e+01 -9.402078e+01 -9.291746e+01 -9.384149e+01 -9.280505e+01 -9.367030e+01 -9.271357e+01 -9.350918e+01 -9.264338e+01 -9.335983e+01 -9.259444e+01 -9.322367e+01 -9.256637e+01 -9.310183e+01 -9.255848e+01 -9.299515e+01 -9.256983e+01 -9.290423e+01 -9.259927e+01 -9.282937e+01 -9.264555e+01 -9.277070e+01 -9.270731e+01 -9.272810e+01 -9.278313e+01 -9.270130e+01 -9.287160e+01 -9.268990e+01 -9.297134e+01 -9.269338e+01 -9.308099e+01 -9.271111e+01 -9.319925e+01 -9.274242e+01 -9.332492e+01 -9.278658e+01 -9.345683e+01 -9.284283e+01 -9.359392e+01 -9.291040e+01 -9.373516e+01 -9.298851e+01 -9.387963e+01 -9.307638e+01 -9.402643e+01 -9.317322e+01 -9.417474e+01 -9.327828e+01 -9.432377e+01 -9.339080e+01 -9.447275e+01 -9.351003e+01 -9.462095e+01 -9.363524e+01 -9.476765e+01 -9.376570e+01 -9.491213e+01 -9.390065e+01 -9.505364e+01 -9.403938e+01 -9.519145e+01 -9.418110e+01 -9.532479e+01 -9.432503e+01 -9.545285e+01 -9.447037e+01 -9.557477e+01 -9.461624e+01 -9.568966e+01 -9.476173e+01 -9.579656e+01 -9.490587e+01 -9.589448e+01 -9.504761e+01 -9.598234e+01 -9.518581e+01 -9.605903e+01 -9.531929e+01 -9.612339e+01 -9.544673e+01 -9.617422e+01 -9.556679e+01 -9.621032e+01 -9.567801e+01 -9.623050e+01 -9.577891e+01 -9.623363e+01 -9.586797e+01 -9.621868e+01 -9.594367e+01 -9.618474e+01 -9.600456e+01 -9.613112e+01 -9.604923e+01 -9.605738e+01 -9.607645e+01 -9.596339e+01 -9.608515e+01 -9.584938e+01 -9.607450e+01 -9.571600e+01 -9.604398e+01 -9.556431e+01 -9.599336e+01 -9.539585e+01 -9.592278e+01 
-9.613995e+01 -9.677637e+01 -9.604668e+01 -9.677353e+01 -9.595628e+01 -9.676564e+01 -9.587062e+01 -9.675306e+01 -9.579152e+01 -9.673618e+01 -9.572070e+01 -9.671543e+01 -9.565968e+01 -9.669126e+01 -9.560972e+01 -9.666413e+01 -9.557180e+01 -9.663447e+01 -9.554655e+01 -9.660272e+01 -9.553429e+01 -9.656930e+01 -9.553497e+01 -9.653459e+01 -9.554821e+01 -9.649898e+01 -9.557338e+01 -9.646281e+01 -9.560956e+01 -9.642641e+01 -9.565566e+01 -9.639010e+01 -9.571044e+01 -9.635416e+01 -9.577255e+01 -9.631885e+01 -9.584063e+01 -9.628441e+01 -9.591329e+01 -9.625106e+01 -9.598923e+01 -9.621899e+01 -9.606718e+01 -9.618836e+01 -9.614600e+01 -9.615935e+01 -9.622466e+01 -9.613207e+01 -9.630225e+01 -9.610666e+01 -9.637801e+01 -9.608324e+01 -9.645128e+01 -9.606189e+01 -9.652155e+01 -9.604271e+01 -9.658841e+01 -9.602580e+01 -9.665155e+01 -9.601124e+01 -9.671075e+01 -9.599910e+01 -9.676587e+01 -9.598947e+01 -9.681685e+01 -9.598242e+01 -9.686365e+01 -9.597804e+01 -9.690630e+01 -9.597641e+01 -9.694485e+01 -9.597759e+01 -9.697935e+01 -9.598167e+01 -9.700990e+01 -9.598871e+01 -9.703657e+01 -9.599879e+01 -9.705944e+01 -9.601196e+01 -9.707856e+01 -9.602826e+01 -9.709399e+01 -9.604773e+01 -9.710572e+01 -9.607036e+01 -9.711375e+01 -9.609613e+01 -9.711803e+01 -9.612499e+01 -9.711846e+01 -9.615682e+01 -9.711490e+01 -9.619148e+01 -9.710718e+01 -9.622874e+01 -9.709506e+01 -9.626833e+01 -9.707829e+01 -9.630990e+01 -9.705655e+01 -9.635300e+01 -9.702951e+01 -9.639715e+01 -9.699682e+01 -9.644177e+01 -9.695816e+01 -9.648622e+01 -9.691322e+01 -9.652981e+01 -9.686175e+01 -9.657183e+01 -9.680362e+01 -9.661153e+01 -9.673880e+01 -9.664821e+01 -9.666747e+01 -9.668120e+01 -9.658998e+01 -9.670991e+01 -9.650694e+01 -9.673384e+01 -9.641920e+01 -9.675262e+01 -9.632785e+01 -9.676601e+01 -9.623425e+01 -9.677392e+01 
-9.522502e+01 -9.585132e+01 -9.502656e+01 -9.574145e+01 -9.481809e+01 -9.561389e+01 -9.460272e+01 -9.547022e+01 -9.438378e+01 -9.531238e+01 -9.416472e+01 -9.514255e+01 -9.394902e+01 -9.496315e+01 -9.374007e+01 -9.477675e+01 -9.354105e+01 -9.458604e+01 -9.335491e+01 -9.439371e+01 -9.318420e+01 -9.420246e+01 -9.303111e+01 -9.401487e+01 -9.289734e+01 -9.383338e+01 -9.278413e+01 -9.366023e+01 -9.269229e+01 -9.349742e+01 -9.262212e+01 -9.334665e+01 -9.257357e+01 -9.320935e+01 -9.254620e+01 -9.308666e+01 -9.253925e+01 -9.297941e+01 -9.255172e+01 -9.288815e+01 -9.258244e+01 -9.281320e+01 -9.263008e+01 -9.275462e+01 -9.269324e+01 -9.271229e+01 -9.277047e+01 -9.268591e+01 -9.286034e+01 -9.267503e+01 -9.296143e+01 -9.267912e+01 -9.307237e+01 -9.269753e+01 -9.319186e+01 -9.272957e+01 -9.331868e+01 -9.277449e+01 -9.345167e+01 -9.283152e+01 -9.358976e+01 -9.289987e+01 -9.373194e+01 -9.297876e+01 -9.387729e+01 -9.306740e+01 -9.402492e+01 -9.316500e+01 -9.417402e+01 -9.327082e+01 -9.432381e+01 -9.338408e+01 -9.447353e+01 -9.350405e+01 -9.462246e+01 -9.363000e+01 -9.476988e+01 -9.376119e+01 -9.491508e+01 -9.389689e+01 -9.505734e+01 -9.403637e+01 -9.519593e+01 -9.417888e+01 -9.533007e+01 -9.432363e+01 -9.545898e+01 -9.446983e+01 -9.558180e+01 -9.461662e+01 -9.569764e+01 -9.476309e+01 -9.580555e+01 -9.490827e+01 -9.590454e+01 -9.505113e+01 -9.599352e+01 -9.519055e+01 -9.607137e+01 -9.532531e+01 -9.613692e+01 -9.545413e+01 -9.618895e+01 -9.557562e+01 -9.622623e+01 -9.568833e+01 -9.624755e+01 -9.579075e+01 -9.625172e+01 -9.588132e+01 -9.623766e+01 -9.595850e+01 -9.620442e+01 -9.602077e+01 -9.615124e+01 -9.606669e+01 -9.607763e+01 -9.609497e+01 -9.598341e+01 -9.610449e+01 -9.586876e+01 -9.609439e+01 -9.573430e+01 -9.606408e+01 -9.558110e+01 -9.601333e+01 -9.541067e+01 -9.594224e+01 
-9.613838e+01 -9.678429e+01 -9.604238e+01 -9.678106e+01 -9.594919e+01 -9.677268e+01 -9.586080e+01 -9.675950e+01 -9.577916e+01 -9.674198e+01 -9.570607e+01 -9.672056e+01 -9.564315e+01 -9.669571e+01 -9.559174e+01 -9.666791e+01 -9.555286e+01 -9.663761e+01 -9.552717e+01 -9.660525e+01 -9.551497e+01 -9.657123e+01 -9.551618e+01 -9.653596e+01 -9.553040e+01 -9.649982e+01 -9.555690e+01 -9.646315e+01 -9.559472e+01 -9.642629e+01 -9.564267e+01 -9.638955e+01 -9.569944e+01 -9.635322e+01 -9.576361e+01 -9.631756e+01 -9.583373e+01 -9.628279e+01 -9.590838e+01 -9.624915e+01 -9.598618e+01 -9.621682e+01 -9.606585e+01 -9.618596e+01 -9.614621e+01 -9.615674e+01 -9.622622e+01 -9.612928e+01 -9.630498e+01 -9.610370e+01 -9.638170e+01 -9.608012e+01 -9.645576e+01 -9.605863e+01 -9.652665e+01 -9.603932e+01 -9.659397e+01 -9.602228e+01 -9.665743e+01 -9.600760e+01 -9.671684e+01 -9.599534e+01 -9.677208e+01 -9.598559e+01 -9.682310e+01 -9.597843e+01 -9.686987e+01 -9.597393e+01 -9.691245e+01 -9.597218e+01 -9.695090e+01 -9.597325e+01 -9.698529e+01 -9.597722e+01 -9.701572e+01 -9.598417e+01 -9.704229e+01 -9.599416e+01 -9.706506e+01 -9.600726e+01 -9.708412e+01 -9.602352e+01 -9.709952e+01 -9.604298e+01 -9.711128e+01 -9.606565e+01 -9.711939e+01 -9.609152e+01 -9.712381e+01 -9.612054e+01 -9.712444e+01 -9.615261e+01 -9.712116e+01 -9.618759e+01 -9.711378e+01 -9.622527e+01 -9.710207e+01 -9.626539e+01 -9.708575e+01 -9.630760e+01 -9.706450e+01 -9.635146e+01 -9.703797e+01 -9.639647e+01 -9.700579e+01 -9.644204e+01 -9.696757e+01 -9.648752e+01 -9.692298e+01 -9.653219e+01 -9.687172e+01 -9.657529e+01 -9.681360e+01 -9.661606e+01 -9.674853e+01 -9.665374e+01 -9.667665e+01 -9.668761e+01 -9.659826e+01 -9.671705e+01 -9.651395e+01 -9.674154e+01 -9.642455e+01 -9.676067e+01 -9.633118e+01 -9.677422e+01 -9.623525e+01 -9.678207e+01 
-9.525028e+01 -9.588887e+01 -9.504628e+01 -9.577652e+01 -9.483168e+01 -9.564577e+01 -9.460974e+01 -9.549831e+01 -9.438399e+01 -9.533614e+01 -9.415809e+01 -9.516154e+01 -9.393572e+01 -9.497705e+01 -9.372044e+01 -9.478536e+01 -9.351565e+01 -9.458928e+01 -9.332441e+01 -9.439165e+01 -9.314942e+01 -9.419527e+01 -9.299291e+01 -9.400286e+01 -9.285665e+01 -9.381694e+01 -9.274186e+01 -9.363984e+01 -9.264931e+01 -9.347360e+01 -9.257926e+01 -9.331999e+01 -9.253154e+01 -9.318043e+01 -9.250560e+01 -9.305605e+01 -9.250059e+01 -9.294766e+01 -9.251538e+01 -9.285578e+01 -9.254869e+01 -9.278066e+01 -9.259910e+01 -9.272230e+01 -9.266510e+01 -9.268054e+01 -9.274519e+01 -9.265500e+01 -9.283786e+01 -9.264520e+01 -9.294166e+01 -9.265054e+01 -9.305520e+01 -9.267033e+01 -9.317714e+01 -9.270384e+01 -9.330626e+01 -9.275029e+01 -9.344140e+01 -9.280888e+01 -9.358150e+01 -9.287880e+01 -9.372556e+01 -9.295925e+01 -9.387266e+01 -9.304944e+01 -9.402195e+01 -9.314858e+01 -9.417263e+01 -9.325591e+01 -9.432392e+01 -9.337066e+01 -9.447510e+01 -9.349210e+01 -9.462547e+01 -9.361951e+01 -9.477433e+01 -9.375217e+01 -9.492098e+01 -9.388936e+01 -9.506473e+01 -9.403035e+01 -9.520485e+01 -9.417441e+01 -9.534060e+01 -9.432080e+01 -9.547119e+01 -9.446870e+01 -9.559580e+01 -9.461731e+01 -9.571355e+01 -9.476572e+01 -9.582348e+01 -9.491300e+01 -9.592460e+01 -9.505811e+01 -9.601582e+01 -9.519994e+01 -9.609601e+01 -9.533729e+01 -9.616396e+01 -9.546885e+01 -9.621843e+01 -9.559323e+01 -9.625812e+01 -9.570895e+01 -9.628175e+01 -9.581443e+01 -9.628805e+01 -9.590807e+01 -9.627583e+01 -9.598824e+01 -9.624404e+01 -9.605333e+01 -9.619180e+01 -9.610180e+01 -9.611850e+01 -9.613225e+01 -9.602385e+01 -9.614346e+01 -9.590796e+01 -9.613448e+01 -9.577136e+01 -9.610463e+01 -9.561510e+01 -9.605362e+01 -9.544072e+01 -9.598154e+01 
-9.613593e+01 -9.679767e+01 -9.603526e+01 -9.679376e+01 -9.593730e+01 -9.678450e+01 -9.584425e+01 -9.677030e+01 -9.575824e+01 -9.675167e+01 -9.568127e+01 -9.672911e+01 -9.561511e+01 -9.670312e+01 -9.556124e+01 -9.667420e+01 -9.552073e+01 -9.664282e+01 -9.549430e+01 -9.660942e+01 -9.548223e+01 -9.657441e+01 -9.548439e+01 -9.653821e+01 -9.550029e+01 -9.650118e+01 -9.552911e+01 -9.646369e+01 -9.556975e+01 -9.642606e+01 -9.562088e+01 -9.638860e+01 -9.568105e+01 -9.635162e+01 -9.574871e+01 -9.631536e+01 -9.582231e+01 -9.628006e+01 -9.590032e+01 -9.624593e+01 -9.598127e+01 -9.621317e+01 -9.606383e+01 -9.618193e+01 -9.614678e+01 -9.615237e+01 -9.622905e+01 -9.612460e+01 -9.630974e+01 -9.609875e+01 -9.638806e+01 -9.607491e+01 -9.646342e+01 -9.605319e+01 -9.653531e+01 -9.603366e+01 -9.660338e+01 -9.601642e+01 -9.666737e+01 -9.600153e+01 -9.672712e+01 -9.598907e+01 -9.678253e+01 -9.597913e+01 -9.683358e+01 -9.597177e+01 -9.688029e+01 -9.596708e+01 -9.692274e+01 -9.596513e+01 -9.696100e+01 -9.596601e+01 -9.699519e+01 -9.596980e+01 -9.702541e+01 -9.597657e+01 -9.705178e+01 -9.598642e+01 -9.707440e+01 -9.599940e+01 -9.709335e+01 -9.601559e+01 -9.710870e+01 -9.603503e+01 -9.712049e+01 -9.605775e+01 -9.712873e+01 -9.608376e+01 -9.713337e+01 -9.611303e+01 -9.713435e+01 -9.614548e+01 -9.713152e+01 -9.618099e+01 -9.712471e+01 -9.621937e+01 -9.711368e+01 -9.626037e+01 -9.709813e+01 -9.630364e+01 -9.707773e+01 -9.634876e+01 -9.705209e+01 -9.639522e+01 -9.702078e+01 -9.644241e+01 -9.698336e+01 -9.648963e+01 -9.693942e+01 -9.653613e+01 -9.688857e+01 -9.658109e+01 -9.683051e+01 -9.662368e+01 -9.676509e+01 -9.666306e+01 -9.669233e+01 -9.669845e+01 -9.661247e+01 -9.672915e+01 -9.652604e+01 -9.675459e+01 -9.643386e+01 -9.677433e+01 -9.633710e+01 -9.678811e+01 -9.623720e+01 -9.679586e+01 
-9.528909e+01 -9.594611e+01 -9.507662e+01 -9.582997e+01 -9.485260e+01 -9.569438e+01 -9.462058e+01 -9.554112e+01 -9.438436e+01 -9.537232e+01 -9.414794e+01 -9.519042e+01 -9.391530e+01 -9.499814e+01 -9.369034e+01 -9.479836e+01 -9.347669e+01 -9.459408e+01 -9.327767e+01 -9.438833e+01 -9.309615e+01 -9.418413e+01 -9.293448e+01 -9.398435e+01 -9.279447e+01 -9.379168e+01 -9.267736e+01 -9.360858e+01 -9.258384e+01 -9.343718e+01 -9.251406e+01 -9.327928e+01 -9.246772e+01 -9.313634e+01 -9.244408e+01 -9.300946e+01 -9.244212e+01 -9.289942e+01 -9.246053e+01 -9.280665e+01 -9.249786e+01 -9.273134e+01 -9.255251e+01 -9.267340e+01 -9.262287e+01 -9.263256e+01 -9.270732e+01 -9.260836e+01 -9.280426e+01 -9.260024e+01 -9.291217e+01 -9.260751e+01 -9.302961e+01 -9.262942e+01 -9.315525e+01 -9.266517e+01 -9.328782e+01 -9.271395e+01 -9.342618e+01 -9.277490e+01 -9.356928e+01 -9.284720e+01 -9.371613e+01 -9.293002e+01 -9.386585e+01 -9.302254e+01 -9.401760e+01 -9.312398e+01 -9.417061e+01 -9.323357e+01 -9.432414e+01 -9.335055e+01 -9.447749e+01 -9.347419e+01 -9.462999e+01 -9.360378e+01 -9.478098e+01 -9.373862e+01 -9.492978e+01 -9.387801e+01 -9.507573e+01 -9.402125e+01 -9.521814e+01 -9.416763e+01 -9.535628e+01 -9.431643e+01 -9.548940e+01 -9.446688e+01 -9.561668e+01 -9.461819e+01 -9.573727e+01 -9.476950e+01 -9.585022e+01 -9.491989e+01 -9.595455e+01 -9.506836e+01 -9.604915e+01 -9.521381e+01 -9.613288e+01 -9.535505e+01 -9.620450e+01 -9.549076e+01 -9.626268e+01 -9.561952e+01 -9.630607e+01 -9.573979e+01 -9.633327e+01 -9.584996e+01 -9.634289e+01 -9.594830e+01 -9.633358e+01 -9.603307e+01 -9.630411e+01 -9.610251e+01 -9.625343e+01 -9.615494e+01 -9.618073e+01 -9.618878e+01 -9.608555e+01 -9.620264e+01 -9.596785e+01 -9.619543e+01 -9.582808e+01 -9.616635e+01 -9.566723e+01 -9.611500e+01 -9.548685e+01 -9.604143e+01 
-9.613290e+01 -9.681676e+01 -9.602542e+01 -9.681182e+01 -9.592051e+01 -9.680124e+01 -9.582065e+01 -9.678554e+01 -9.572827e+01 -9.676530e+01 -9.564565e+01 -9.674109e+01 -9.557480e+01 -9.671346e+01 -9.551736e+01 -9.668296e+01 -9.547453e+01 -9.665005e+01 -9.544708e+01 -9.661519e+01 -9.543525e+01 -9.657880e+01 -9.543886e+01 -9.654128e+01 -9.545728e+01 -9.650302e+01 -9.548951e+01 -9.646436e+01 -9.553428e+01 -9.642564e+01 -9.559005e+01 -9.638719e+01 -9.565516e+01 -9.634929e+01 -9.572789e+01 -9.631220e+01 -9.580649e+01 -9.627615e+01 -9.588931e+01 -9.624136e+01 -9.597476e+01 -9.620800e+01 -9.606142e+01 -9.617623e+01 -9.614802e+01 -9.614620e+01 -9.623347e+01 -9.611801e+01 -9.631685e+01 -9.609178e+01 -9.639740e+01 -9.606760e+01 -9.647454e+01 -9.604555e+01 -9.654780e+01 -9.602573e+01 -9.661688e+01 -9.600819e+01 -9.668156e+01 -9.599303e+01 -9.674172e+01 -9.598029e+01 -9.679733e+01 -9.597007e+01 -9.684839e+01 -9.596244e+01 -9.689499e+01 -9.595747e+01 -9.693721e+01 -9.595525e+01 -9.697519e+01 -9.595586e+01 -9.700906e+01 -9.595938e+01 -9.703896e+01 -9.596591e+01 -9.706503e+01 -9.597554e+01 -9.708739e+01 -9.598834e+01 -9.710617e+01 -9.600440e+01 -9.712144e+01 -9.602379e+01 -9.713326e+01 -9.604656e+01 -9.714166e+01 -9.607274e+01 -9.714661e+01 -9.610234e+01 -9.714805e+01 -9.613529e+01 -9.714586e+01 -9.617152e+01 -9.713986e+01 -9.621086e+01 -9.712980e+01 -9.625307e+01 -9.711537e+01 -9.629783e+01 -9.709621e+01 -9.634473e+01 -9.707188e+01 -9.639324e+01 -9.704187e+01 -9.644273e+01 -9.700568e+01 -9.649246e+01 -9.696277e+01 -9.654161e+01 -9.691262e+01 -9.658927e+01 -9.685480e+01 -9.663451e+01 -9.678900e+01 -9.667638e+01 -9.671511e+01 -9.671399e+01 -9.663325e+01 -9.674653e+01 -9.654387e+01 -9.677334e+01 -9.644777e+01 -9.679393e+01 -9.634614e+01 -9.680804e+01 -9.624054e+01 -9.681561e+01 
-9.534261e+01 -9.602417e+01 -9.511852e+01 -9.590287e+01 -9.488154e+01 -9.576067e+01 -9.463560e+01 -9.559946e+01 -9.438494e+01 -9.542159e+01 -9.413400e+01 -9.522970e+01 -9.388722e+01 -9.502674e+01 -9.364891e+01 -9.481586e+01 -9.342311e+01 -9.460034e+01 -9.321344e+01 -9.438348e+01 -9.302303e+01 -9.416856e+01 -9.285438e+01 -9.395872e+01 -9.270939e+01 -9.375687e+01 -9.258928e+01 -9.356562e+01 -9.249463e+01 -9.338724e+01 -9.242544e+01 -9.322360e+01 -9.238118e+01 -9.307618e+01 -9.236089e+01 -9.294605e+01 -9.236327e+01 -9.283389e+01 -9.238678e+01 -9.274008e+01 -9.242969e+01 -9.266465e+01 -9.249022e+01 -9.260740e+01 -9.256657e+01 -9.256793e+01 -9.265696e+01 -9.254566e+01 -9.275968e+01 -9.253989e+01 -9.287314e+01 -9.254984e+01 -9.299585e+01 -9.257466e+01 -9.312641e+01 -9.261349e+01 -9.326359e+01 -9.266542e+01 -9.340623e+01 -9.272958e+01 -9.355330e+01 -9.280508e+01 -9.370385e+01 -9.289107e+01 -9.385701e+01 -9.298673e+01 -9.401199e+01 -9.309124e+01 -9.416806e+01 -9.320383e+01 -9.432453e+01 -9.332377e+01 -9.448073e+01 -9.345032e+01 -9.463603e+01 -9.358280e+01 -9.478981e+01 -9.372052e+01 -9.494143e+01 -9.386281e+01 -9.509028e+01 -9.400901e+01 -9.523569e+01 -9.415844e+01 -9.537698e+01 -9.431041e+01 -9.551343e+01 -9.446420e+01 -9.564425e+01 -9.461907e+01 -9.576861e+01 -9.477420e+01 -9.588560e+01 -9.492871e+01 -9.599421e+01 -9.508163e+01 -9.609337e+01 -9.523190e+01 -9.618188e+01 -9.537833e+01 -9.625846e+01 -9.551961e+01 -9.632173e+01 -9.565428e+01 -9.637022e+01 -9.578076e+01 -9.640238e+01 -9.589731e+01 -9.641666e+01 -9.600210e+01 -9.641150e+01 -9.609322e+01 -9.638541e+01 -9.616872e+01 -9.633708e+01 -9.622667e+01 -9.626544e+01 -9.626527e+01 -9.616977e+01 -9.628291e+01 -9.604983e+01 -9.627825e+01 -9.590589e+01 -9.625033e+01 -9.573888e+01 -9.619862e+01 -9.555037e+01 -9.612307e+01 
-9.612970e+01 -9.684195e+01 -9.601303e+01 -9.683554e+01 -9.589868e+01 -9.682310e+01 -9.578957e+01 -9.680532e+01 -9.568854e+01 -9.678289e+01 -9.559827e+01 -9.675647e+01 -9.552108e+01 -9.672669e+01 -9.545886e+01 -9.669411e+01 -9.541297e+01 -9.665922e+01 -9.538422e+01 -9.662248e+01 -9.537284e+01 -9.658431e+01 -9.537851e+01 -9.654511e+01 -9.540044e+01 -9.650524e+01 -9.543739e+01 -9.646508e+01 -9.548780e+01 -9.642497e+01 -9.554987e+01 -9.638523e+01 -9.562166e+01 -9.634615e+01 -9.570118e+01 -9.630800e+01 -9.578647e+01 -9.627100e+01 -9.587566e+01 -9.623535e+01 -9.596704e+01 -9.620124e+01 -9.605907e+01 -9.616880e+01 -9.615042e+01 -9.613818e+01 -9.623997e+01 -9.610946e+01 -9.632679e+01 -9.608276e+01 -9.641016e+01 -9.605815e+01 -9.648952e+01 -9.603570e+01 -9.656448e+01 -9.601550e+01 -9.663478e+01 -9.599761e+01 -9.670026e+01 -9.598209e+01 -9.676089e+01 -9.596901e+01 -9.681667e+01 -9.595844e+01 -9.686768e+01 -9.595045e+01 -9.691405e+01 -9.594513e+01 -9.695593e+01 -9.594254e+01 -9.699348e+01 -9.594279e+01 -9.702689e+01 -9.594596e+01 -9.705633e+01 -9.595216e+01 -9.708198e+01 -9.596147e+01 -9.710399e+01 -9.597402e+01 -9.712250e+01 -9.598988e+01 -9.713763e+01 -9.600917e+01 -9.714946e+01 -9.603196e+01 -9.715803e+01 -9.605832e+01 -9.716336e+01 -9.608828e+01 -9.716539e+01 -9.612183e+01 -9.716401e+01 -9.615894e+01 -9.715906e+01 -9.619946e+01 -9.715028e+01 -9.624321e+01 -9.713736e+01 -9.628990e+01 -9.711987e+01 -9.633910e+01 -9.709733e+01 -9.639029e+01 -9.706916e+01 -9.644282e+01 -9.703473e+01 -9.649589e+01 -9.699335e+01 -9.654858e+01 -9.694434e+01 -9.659988e+01 -9.688707e+01 -9.664871e+01 -9.682102e+01 -9.669397e+01 -9.674586e+01 -9.673460e+01 -9.666156e+01 -9.676964e+01 -9.656843e+01 -9.679830e+01 -9.646722e+01 -9.682003e+01 -9.635914e+01 -9.683452e+01 -9.624592e+01 -9.684176e+01 
-9.541248e+01 -9.612461e+01 -9.517329e+01 -9.599670e+01 -9.491943e+01 -9.584595e+01 -9.465533e+01 -9.567448e+01 -9.438581e+01 -9.548487e+01 -9.411591e+01 -9.528004e+01 -9.385067e+01 -9.506326e+01 -9.359498e+01 -9.483801e+01 -9.335339e+01 -9.460792e+01 -9.312996e+01 -9.437668e+01 -9.292813e+01 -9.414792e+01 -9.275064e+01 -9.392511e+01 -9.259944e+01 -9.371146e+01 -9.247574e+01 -9.350980e+01 -9.237997e+01 -9.332257e+01 -9.231189e+01 -9.315172e+01 -9.227068e+01 -9.299874e+01 -9.225504e+01 -9.286465e+01 -9.226331e+01 -9.275004e+01 -9.229361e+01 -9.265512e+01 -9.234390e+01 -9.257977e+01 -9.241212e+01 -9.252363e+01 -9.249623e+01 -9.248610e+01 -9.259426e+01 -9.246645e+01 -9.270438e+01 -9.246382e+01 -9.282488e+01 -9.247729e+01 -9.295421e+01 -9.250591e+01 -9.309097e+01 -9.254869e+01 -9.323390e+01 -9.260468e+01 -9.338186e+01 -9.267291e+01 -9.353384e+01 -9.275247e+01 -9.368894e+01 -9.284247e+01 -9.384635e+01 -9.294205e+01 -9.400530e+01 -9.305041e+01 -9.416513e+01 -9.316676e+01 -9.432519e+01 -9.329037e+01 -9.448487e+01 -9.342054e+01 -9.464359e+01 -9.355658e+01 -9.480078e+01 -9.369785e+01 -9.495587e+01 -9.384371e+01 -9.510827e+01 -9.399354e+01 -9.525737e+01 -9.414670e+01 -9.540253e+01 -9.430256e+01 -9.554309e+01 -9.446046e+01 -9.567829e+01 -9.461969e+01 -9.580734e+01 -9.477952e+01 -9.592934e+01 -9.493911e+01 -9.604334e+01 -9.509756e+01 -9.614822e+01 -9.525383e+01 -9.624280e+01 -9.540677e+01 -9.632574e+01 -9.555507e+01 -9.639556e+01 -9.569725e+01 -9.645068e+01 -9.583164e+01 -9.648939e+01 -9.595642e+01 -9.650988e+01 -9.606959e+01 -9.651033e+01 -9.616901e+01 -9.648894e+01 -9.625247e+01 -9.644403e+01 -9.631775e+01 -9.637417e+01 -9.636274e+01 -9.627828e+01 -9.638547e+01 -9.615580e+01 -9.638433e+01 -9.600678e+01 -9.635810e+01 -9.583203e+01 -9.630606e+01 -9.563312e+01 -9.622808e+01 
-9.612697e+01 -9.687374e+01 -9.599830e+01 -9.686527e+01 -9.587162e+01 -9.685032e+01 -9.575039e+01 -9.682976e+01 -9.563806e+01 -9.680446e+01 -9.553781e+01 -9.677522e+01 -9.545240e+01 -9.674273e+01 -9.538403e+01 -9.670757e+01 -9.533427e+01 -9.667025e+01 -9.530399e+01 -9.663121e+01 -9.529337e+01 -9.659086e+01 -9.530192e+01 -9.654959e+01 -9.532858e+01 -9.650777e+01 -9.537181e+01 -9.646576e+01 -9.542967e+01 -9.642394e+01 -9.549998e+01 -9.638261e+01 -9.558044e+01 -9.634209e+01 -9.566871e+01 -9.630264e+01 -9.576254e+01 -9.626448e+01 -9.585983e+01 -9.622782e+01 -9.595866e+01 -9.619280e+01 -9.605740e+01 -9.615957e+01 -9.615462e+01 -9.612824e+01 -9.624919e+01 -9.609891e+01 -9.634018e+01 -9.607165e+01 -9.642692e+01 -9.604653e+01 -9.650891e+01 -9.602361e+01 -9.658582e+01 -9.600297e+01 -9.665749e+01 -9.598465e+01 -9.672383e+01 -9.596871e+01 -9.678490e+01 -9.595521e+01 -9.684077e+01 -9.594422e+01 -9.689161e+01 -9.593580e+01 -9.693761e+01 -9.593004e+01 -9.697897e+01 -9.592701e+01 -9.701592e+01 -9.592680e+01 -9.704869e+01 -9.592953e+01 -9.707750e+01 -9.593528e+01 -9.710256e+01 -9.594419e+01 -9.712407e+01 -9.595637e+01 -9.714221e+01 -9.597195e+01 -9.715711e+01 -9.599105e+01 -9.716890e+01 -9.601380e+01 -9.717766e+01 -9.604029e+01 -9.718341e+01 -9.607062e+01 -9.718613e+01 -9.610483e+01 -9.718574e+01 -9.614293e+01 -9.718209e+01 -9.618485e+01 -9.717492e+01 -9.623043e+01 -9.716390e+01 -9.627943e+01 -9.714858e+01 -9.633147e+01 -9.712841e+01 -9.638601e+01 -9.710272e+01 -9.644237e+01 -9.707072e+01 -9.649968e+01 -9.703156e+01 -9.655694e+01 -9.698432e+01 -9.661297e+01 -9.692812e+01 -9.666649e+01 -9.686213e+01 -9.671620e+01 -9.678577e+01 -9.676080e+01 -9.669871e+01 -9.679912e+01 -9.660108e+01 -9.683020e+01 -9.649353e+01 -9.685336e+01 -9.637731e+01 -9.686827e+01 -9.625429e+01 -9.687495e+01 
-9.550091e+01 -9.624950e+01 -9.524275e+01 -9.611336e+01 -9.496757e+01 -9.595195e+01 -9.468049e+01 -9.576766e+01 -9.438707e+01 -9.556336e+01 -9.409315e+01 -9.534234e+01 -9.380457e+01 -9.510825e+01 -9.352695e+01 -9.486500e+01 -9.326552e+01 -9.461666e+01 -9.302488e+01 -9.436741e+01 -9.280891e+01 -9.412134e+01 -9.262059e+01 -9.388235e+01 -9.246200e+01 -9.365404e+01 -9.233426e+01 -9.343955e+01 -9.223761e+01 -9.324151e+01 -9.217147e+01 -9.306197e+01 -9.213461e+01 -9.290241e+01 -9.212527e+01 -9.276377e+01 -9.214133e+01 -9.264649e+01 -9.218045e+01 -9.255058e+01 -9.224019e+01 -9.247570e+01 -9.231813e+01 -9.242125e+01 -9.241196e+01 -9.238641e+01 -9.251948e+01 -9.237022e+01 -9.263869e+01 -9.237165e+01 -9.276779e+01 -9.238960e+01 -9.290515e+01 -9.242298e+01 -9.304937e+01 -9.247070e+01 -9.319917e+01 -9.253169e+01 -9.335346e+01 -9.260492e+01 -9.351127e+01 -9.268943e+01 -9.367174e+01 -9.278428e+01 -9.383413e+01 -9.288861e+01 -9.399774e+01 -9.300158e+01 -9.416196e+01 -9.312243e+01 -9.432622e+01 -9.325042e+01 -9.448997e+01 -9.338487e+01 -9.465269e+01 -9.352514e+01 -9.481387e+01 -9.367059e+01 -9.497300e+01 -9.382065e+01 -9.512955e+01 -9.397473e+01 -9.528297e+01 -9.413226e+01 -9.543270e+01 -9.429267e+01 -9.557809e+01 -9.445536e+01 -9.571848e+01 -9.461972e+01 -9.585310e+01 -9.478507e+01 -9.598111e+01 -9.495066e+01 -9.610156e+01 -9.511566e+01 -9.621339e+01 -9.527909e+01 -9.631537e+01 -9.543985e+01 -9.640612e+01 -9.559665e+01 -9.648410e+01 -9.574799e+01 -9.654756e+01 -9.589214e+01 -9.659460e+01 -9.602715e+01 -9.662314e+01 -9.615082e+01 -9.663102e+01 -9.626075e+01 -9.661600e+01 -9.635440e+01 -9.657595e+01 -9.642915e+01 -9.650893e+01 -9.648245e+01 -9.641339e+01 -9.651192e+01 -9.628831e+01 -9.651551e+01 -9.613342e+01 -9.649168e+01 -9.594933e+01 -9.643946e+01 -9.573762e+01 -9.635859e+01 
-9.612558e+01 -9.691281e+01 -9.598160e+01 -9.690148e+01 -9.583910e+01 -9.688314e+01 -9.570233e+01 -9.685894e+01 -9.557551e+01 -9.682999e+01 -9.546251e+01 -9.679723e+01 -9.536666e+01 -9.676142e+01 -9.529059e+01 -9.672319e+01 -9.523610e+01 -9.668300e+01 -9.520412e+01 -9.664126e+01 -9.519473e+01 -9.659834e+01 -9.520722e+01 -9.655462e+01 -9.524017e+01 -9.651047e+01 -9.529159e+01 -9.646627e+01 -9.535908e+01 -9.642240e+01 -9.543995e+01 -9.637919e+01 -9.553141e+01 -9.633697e+01 -9.563069e+01 -9.629599e+01 -9.573517e+01 -9.625648e+01 -9.584244e+01 -9.621863e+01 -9.595040e+01 -9.618258e+01 -9.605724e+01 -9.614845e+01 -9.616149e+01 -9.611632e+01 -9.626198e+01 -9.608628e+01 -9.635784e+01 -9.605839e+01 -9.644844e+01 -9.603270e+01 -9.653337e+01 -9.600926e+01 -9.661242e+01 -9.598811e+01 -9.668551e+01 -9.596930e+01 -9.675269e+01 -9.595288e+01 -9.681409e+01 -9.593890e+01 -9.686991e+01 -9.592742e+01 -9.692039e+01 -9.591850e+01 -9.696580e+01 -9.591221e+01 -9.700642e+01 -9.590864e+01 -9.704254e+01 -9.590789e+01 -9.707445e+01 -9.591005e+01 -9.710241e+01 -9.591525e+01 -9.712670e+01 -9.592363e+01 -9.714754e+01 -9.593532e+01 -9.716515e+01 -9.595049e+01 -9.717971e+01 -9.596928e+01 -9.719139e+01 -9.599188e+01 -9.720029e+01 -9.601843e+01 -9.720648e+01 -9.604908e+01 -9.720998e+01 -9.608395e+01 -9.721074e+01 -9.612310e+01 -9.720862e+01 -9.616656e+01 -9.720340e+01 -9.621424e+01 -9.719473e+01 -9.626594e+01 -9.718214e+01 -9.632133e+01 -9.716502e+01 -9.637991e+01 -9.714258e+01 -9.644096e+01 -9.711388e+01 -9.650355e+01 -9.707785e+01 -9.656653e+01 -9.703328e+01 -9.662855e+01 -9.697894e+01 -9.668809e+01 -9.691364e+01 -9.674354e+01 -9.683636e+01 -9.679328e+01 -9.674643e+01 -9.683585e+01 -9.664365e+01 -9.687002e+01 -9.652851e+01 -9.689496e+01 -9.640226e+01 -9.691026e+01 -9.626699e+01 -9.691603e+01 
-9.561078e+01 -9.640146e+01 -9.532922e+01 -9.625528e+01 -9.502762e+01 -9.608084e+01 -9.471197e+01 -9.588084e+01 -9.438883e+01 -9.565856e+01 -9.406506e+01 -9.541771e+01 -9.374750e+01 -9.516241e+01 -9.344274e+01 -9.489706e+01 -9.315684e+01 -9.462633e+01 -9.289514e+01 -9.435496e+01 -9.266202e+01 -9.408766e+01 -9.246082e+01 -9.382892e+01 -9.229371e+01 -9.358281e+01 -9.216171e+01 -9.335286e+01 -9.206474e+01 -9.314195e+01 -9.200178e+01 -9.295224e+01 -9.197102e+01 -9.278517e+01 -9.197011e+01 -9.264154e+01 -9.199630e+01 -9.252158e+01 -9.204667e+01 -9.242501e+01 -9.211827e+01 -9.235121e+01 -9.220827e+01 -9.229926e+01 -9.231399e+01 -9.226805e+01 -9.243300e+01 -9.225637e+01 -9.256311e+01 -9.226295e+01 -9.270242e+01 -9.228649e+01 -9.284925e+01 -9.232572e+01 -9.300217e+01 -9.237943e+01 -9.315995e+01 -9.244644e+01 -9.332154e+01 -9.252566e+01 -9.348602e+01 -9.261604e+01 -9.365263e+01 -9.271662e+01 -9.382068e+01 -9.282651e+01 -9.398957e+01 -9.294488e+01 -9.415876e+01 -9.307095e+01 -9.432776e+01 -9.320401e+01 -9.449609e+01 -9.334339e+01 -9.466332e+01 -9.348850e+01 -9.482901e+01 -9.363873e+01 -9.499270e+01 -9.379357e+01 -9.515395e+01 -9.395247e+01 -9.531229e+01 -9.411495e+01 -9.546719e+01 -9.428049e+01 -9.561811e+01 -9.444861e+01 -9.576443e+01 -9.461876e+01 -9.590547e+01 -9.479038e+01 -9.604043e+01 -9.496281e+01 -9.616842e+01 -9.513531e+01 -9.628840e+01 -9.530702e+01 -9.639916e+01 -9.547690e+01 -9.649929e+01 -9.564370e+01 -9.658715e+01 -9.580592e+01 -9.666087e+01 -9.596179e+01 -9.671831e+01 -9.610922e+01 -9.675708e+01 -9.624578e+01 -9.677459e+01 -9.636877e+01 -9.676809e+01 -9.647522e+01 -9.673484e+01 -9.656201e+01 -9.667223e+01 -9.662600e+01 -9.657803e+01 -9.666424e+01 -9.645063e+01 -9.667413e+01 -9.628926e+01 -9.665365e+01 -9.609425e+01 -9.660152e+01 -9.586714e+01 -9.651731e+01 