# vtk DataFile Version 2.0
Comment goes here
ASCII

DATASET STRUCTURED_POINTS
DIMENSIONS    128   128   1

ORIGIN    0.000   0.000   0.000
SPACING   0.0078125 0.0078125   1.000

POINT_DATA   16384
VECTORS u double

-0.006298 0.000000 0.000000 -0.006741 0.000000 0.000000 -0.007156 0.000000 0.000000 -0.007561 0.000000 0.000000 -0.007936 0.000000 0.000000 -0.008295 0.000000 0.000000 -0.008623 0.000000 0.000000 -0.008930 0.000000 0.000000 -0.009204 0.000000 0.000000 -0.009455 0.000000 0.000000 -0.009672 0.000000 0.000000 -0.009862 0.000000 0.000000 -0.010018 0.000000 0.000000 -0.010146 0.000000 0.000000 -0.010241 0.000000 0.000000 -0.010306 0.000000 0.000000 -0.010340 0.000000 0.000000 -0.010344 0.000000 0.000000 -0.010320 0.000000 0.000000 -0.010265 0.000000 0.000000 -0.010184 0.000000 0.000000 -0.010074 0.000000 0.000000 -0.009942 0.000000 0.000000 -0.009782 0.000000 0.000000 -0.009603 0.000000 0.000000 -0.009398 0.000000 0.000000 -0.009178 0.000000 0.000000 -0.008934 0.000000 0.000000 -0.008679 0.000000 0.000000 -0.008402 0.000000 0.000000 -0.008118 0.000000 0.000000 -0.007814 0.000000 0.000000 -0.007507 0.000000 0.000000 -0.007182 0.000000 0.000000 -0.006857 0.000000 0.000000 -0.006516 0.000000 0.000000 -0.006180 0.000000 0.000000 -0.005828 0.000000 0.000000 -0.005484 0.000000 0.000000 -0.005127 0.000000 0.000000 -0.004779 0.000000 0.000000 -0.004420 0.000000 0.000000 -0.004072 0.000000 0.000000 -0.003715 0.000000 0.000000 -0.003371 0.000000 0.000000 -0.003018 0.000000 0.000000 -0.002679 0.000000 0.000000 -0.002334 0.000000 0.000000 -0.002003 0.000000 0.000000 -0.001666 0.000000 0.000000 -0.001345 0.000000 0.000000 -0.001019 0.000000 0.000000 -0.000708 0.000000 0.000000 -0.000394 0.000000 0.000000 -0.000095 0.000000 0.000000 0.000207 0.000000 0.000000 0.000494 0.000000 0.000000 0.000782 0.000000 0.000000 0.001056 0.000000 0.000000 0.001331 0.000000 0.000000 0.001592 0.000000 0.000000 0.001853 0.000000 0.000000 0.002101 0.000000 0.000000 0.002347 0.000000 0.000000 0.002581 0.000000 0.000000 0.002813 0.000000 0.000000 0.003033 0.000000 0.000000 0.003251 0.000000 0.000000 0.003456 0.000000 0.000000 0.003659 0.000000 0.000000 0.003850 0.000000 0.000000 0.004037 0.000000 0.000000 0.004213 0.000000 0.000000 0.004384 0.000000 0.000000 0.004545 0.000000 0.000000 0.004699 0.000000 0.000000 0.004843 0.000000 0.000000 0.004980 0.000000 0.000000 0.005107 0.000000 0.000000 0.005226 0.000000 0.000000 0.005334 0.000000 0.000000 0.005433 0.000000 0.000000 0.005522 0.000000 0.000000 0.005600 0.000000 0.000000 0.005668 0.000000 0.000000 0.005724 0.000000 0.000000 0.005769 0.000000 0.000000 0.005800 0.000000 0.000000 0.005821 0.000000 0.000000 0.005825 0.000000 0.000000 0.005819 0.000000 0.000000 0.005796 0.000000 0.000000 0.005761 0.000000 0.000000 0.005707 0.000000 0.000000 0.005641 0.000000 0.000000 0.005555 0.000000 0.000000 0.005456 0.000000 0.000000 0.005334 0.000000 0.000000 0.005200 0.000000 0.000000 0.005042 0.000000 0.000000 0.004871 0.000000 0.000000 0.004674 0.000000 0.000000 0.004465 0.000000 0.000000 0.004229 0.000000 0.000000 0.003980 0.000000 0.000000 0.003704 0.000000 0.000000 0.003416 0.000000 0.000000 0.003099 0.000000 0.000000 0.002772 0.000000 0.000000 0.002417 0.000000 0.000000 0.002052 0.000000 0.000000 0.001660 0.000000 0.000000 0.001261 0.000000 0.000000 0.000835 0.000000 0.000000 0.000405 0.000000 0.000000 -0.000049 0.000000 0.000000 -0.000505 0.000000 0.000000 -0.000982 0.000000 0.000000 -0.001458 0.000000 0.000000 -0.001951 0.000000 0.000000 -0.002438 0.000000 0.000000 -0.002940 0.000000 0.000000 -0.003431 0.000000 0.000000 -0.003931 0.000000 0.000000 -0.004417 0.000000 0.000000 -0.004908 0.000000 0.000000 -0.005379 0.000000 0.000000 -0.005850 0.000000 0.000000 
-0.006307 0.000445 0.000000 -0.006751 0.000429 0.000000 -0.007167 0.000410 0.000000 -0.007572 0.000390 0.000000 -0.007948 0.000367 0.000000 -0.008308 0.000343 0.000000 -0.008636 0.000318 0.000000 -0.008945 0.000291 0.000000 -0.009219 0.000262 0.000000 -0.009470 0.000234 0.000000 -0.009687 0.000203 0.000000 -0.009878 0.000173 0.000000 -0.010034 0.000142 0.000000 -0.010162 0.000111 0.000000 -0.010257 0.000080 0.000000 -0.010322 0.000050 0.000000 -0.010356 0.000019 0.000000 -0.010360 -0.000010 0.000000 -0.010335 -0.000040 0.000000 -0.010279 -0.000068 0.000000 -0.010199 -0.000095 0.000000 -0.010088 -0.000121 0.000000 -0.009956 -0.000146 0.000000 -0.009795 -0.000169 0.000000 -0.009616 -0.000192 0.000000 -0.009410 -0.000212 0.000000 -0.009190 -0.000232 0.000000 -0.008944 -0.000249 0.000000 -0.008690 -0.000266 0.000000 -0.008411 -0.000281 0.000000 -0.008127 -0.000294 0.000000 -0.007822 -0.000306 0.000000 -0.007515 -0.000316 0.000000 -0.007189 -0.000325 0.000000 -0.006864 -0.000333 0.000000 -0.006522 -0.000339 0.000000 -0.006185 -0.000344 0.000000 -0.005833 -0.000348 0.000000 -0.005488 -0.000351 0.000000 -0.005131 -0.000353 0.000000 -0.004782 -0.000353 0.000000 -0.004423 -0.000353 0.000000 -0.004075 -0.000352 0.000000 -0.003717 -0.000351 0.000000 -0.003373 -0.000349 0.000000 -0.003020 -0.000346 0.000000 -0.002681 -0.000342 0.000000 -0.002335 -0.000338 0.000000 -0.002004 -0.000334 0.000000 -0.001667 -0.000329 0.000000 -0.001346 -0.000324 0.000000 -0.001019 -0.000318 0.000000 -0.000708 -0.000313 0.000000 -0.000394 -0.000307 0.000000 -0.000095 -0.000300 0.000000 0.000207 -0.000294 0.000000 0.000494 -0.000288 0.000000 0.000783 -0.000281 0.000000 0.001057 -0.000274 0.000000 0.001332 -0.000268 0.000000 0.001593 -0.000261 0.000000 0.001854 -0.000254 0.000000 0.002101 -0.000247 0.000000 0.002348 -0.000240 0.000000 0.002582 -0.000233 0.000000 0.002814 -0.000226 0.000000 0.003034 -0.000219 0.000000 0.003252 -0.000212 0.000000 0.003457 -0.000204 0.000000 0.003660 -0.000197 0.000000 0.003851 -0.000189 0.000000 0.004038 -0.000182 0.000000 0.004214 -0.000174 0.000000 0.004385 -0.000166 0.000000 0.004546 -0.000157 0.000000 0.004700 -0.000149 0.000000 0.004845 -0.000141 0.000000 0.004982 -0.000132 0.000000 0.005109 -0.000123 0.000000 0.005227 -0.000114 0.000000 0.005336 -0.000104 0.000000 0.005435 -0.000094 0.000000 0.005524 -0.000084 0.000000 0.005602 -0.000073 0.000000 0.005671 -0.000062 0.000000 0.005726 -0.000050 0.000000 0.005771 -0.000038 0.000000 0.005802 -0.000026 0.000000 0.005823 -0.000013 0.000000 0.005828 0.000001 0.000000 0.005822 0.000015 0.000000 0.005799 0.000029 0.000000 0.005764 0.000044 0.000000 0.005710 0.000060 0.000000 0.005645 0.000076 0.000000 0.005558 0.000093 0.000000 0.005460 0.000110 0.000000 0.005338 0.000128 0.000000 0.005204 0.000146 0.000000 0.005046 0.000165 0.000000 0.004875 0.000184 0.000000 0.004679 0.000203 0.000000 0.004470 0.000223 0.000000 0.004233 0.000242 0.000000 0.003985 0.000263 0.000000 0.003708 0.000282 0.000000 0.003420 0.000302 0.000000 0.003103 0.000322 0.000000 0.002776 0.000341 0.000000 0.002420 0.000360 0.000000 0.002056 0.000378 0.000000 0.001663 0.000396 0.000000 0.001264 0.000412 0.000000 0.000838 0.000428 0.000000 0.000407 0.000442 0.000000 -0.000048 0.000455 0.000000 -0.000504 0.000467 0.000000 -0.000982 0.000476 0.000000 -0.001458 0.000484 0.000000 -0.001952 0.000490 0.000000 -0.002440 0.000494 0.000000 -0.002943 0.000496 0.000000 -0.003435 0.000496 0.000000 -0.003936 0.000493 0.000000 -0.004423 0.000488 0.000000 -0.004914 0.000481 0.000000 -0.005387 0.000471 0.000000 -0.005859 0.000459 0.000000 
-0.006316 0.000892 0.000000 -0.006760 0.000859 0.000000 -0.007178 0.000822 0.000000 -0.007584 0.000781 0.000000 -0.007961 0.000736 0.000000 -0.008322 0.000688 0.000000 -0.008651 0.000636 0.000000 -0.008960 0.000583 0.000000 -0.009235 0.000526 0.000000 -0.009487 0.000468 0.000000 -0.009704 0.000407 0.000000 -0.009894 0.000347 0.000000 -0.010051 0.000284 0.000000 -0.010179 0.000223 0.000000 -0.010273 0.000160 0.000000 -0.010338 0.000099 0.000000 -0.010371 0.000038 0.000000 -0.010375 -0.000021 0.000000 -0.010349 -0.000080 0.000000 -0.010293 -0.000136 0.000000 -0.010211 -0.000191 0.000000 -0.010100 -0.000243 0.000000 -0.009966 -0.000293 0.000000 -0.009805 -0.000340 0.000000 -0.009625 -0.000385 0.000000 -0.009418 -0.000426 0.000000 -0.009197 -0.000465 0.000000 -0.008951 -0.000500 0.000000 -0.008696 -0.000533 0.000000 -0.008417 -0.000562 0.000000 -0.008132 -0.000589 0.000000 -0.007826 -0.000612 0.000000 -0.007519 -0.000633 0.000000 -0.007192 -0.000651 0.000000 -0.006867 -0.000666 0.000000 -0.006525 -0.000679 0.000000 -0.006188 -0.000689 0.000000 -0.005836 -0.000697 0.000000 -0.005491 -0.000702 0.000000 -0.005133 -0.000706 0.000000 -0.004785 -0.000708 0.000000 -0.004426 -0.000707 0.000000 -0.004079 -0.000706 0.000000 -0.003721 -0.000702 0.000000 -0.003377 -0.000698 0.000000 -0.003025 -0.000692 0.000000 -0.002686 -0.000685 0.000000 -0.002341 -0.000677 0.000000 -0.002010 -0.000668 0.000000 -0.001674 -0.000658 0.000000 -0.001353 -0.000648 0.000000 -0.001028 -0.000637 0.000000 -0.000718 -0.000625 0.000000 -0.000404 -0.000614 0.000000 -0.000105 -0.000601 0.000000 0.000196 -0.000589 0.000000 0.000482 -0.000576 0.000000 0.000770 -0.000563 0.000000 0.001044 -0.000549 0.000000 0.001318 -0.000536 0.000000 0.001578 -0.000522 0.000000 0.001839 -0.000509 0.000000 0.002086 -0.000494 0.000000 0.002332 -0.000481 0.000000 0.002565 -0.000466 0.000000 0.002797 -0.000452 0.000000 0.003016 -0.000437 0.000000 0.003234 -0.000423 0.000000 0.003439 -0.000408 0.000000 0.003641 -0.000394 0.000000 0.003832 -0.000378 0.000000 0.004019 -0.000363 0.000000 0.004195 -0.000347 0.000000 0.004366 -0.000332 0.000000 0.004526 -0.000315 0.000000 0.004681 -0.000299 0.000000 0.004825 -0.000281 0.000000 0.004962 -0.000264 0.000000 0.005089 -0.000246 0.000000 0.005208 -0.000227 0.000000 0.005317 -0.000208 0.000000 0.005416 -0.000188 0.000000 0.005506 -0.000167 0.000000 0.005584 -0.000146 0.000000 0.005653 -0.000124 0.000000 0.005709 -0.000101 0.000000 0.005755 -0.000077 0.000000 0.005786 -0.000052 0.000000 0.005808 -0.000026 0.000000 0.005813 0.000001 0.000000 0.005808 0.000029 0.000000 0.005786 0.000058 0.000000 0.005752 0.000089 0.000000 0.005699 0.000119 0.000000 0.005635 0.000152 0.000000 0.005549 0.000185 0.000000 0.005451 0.000220 0.000000 0.005331 0.000255 0.000000 0.005198 0.000292 0.000000 0.005041 0.000329 0.000000 0.004872 0.000367 0.000000 0.004676 0.000406 0.000000 0.004468 0.000445 0.000000 0.004233 0.000485 0.000000 0.003985 0.000525 0.000000 0.003710 0.000565 0.000000 0.003422 0.000605 0.000000 0.003106 0.000644 0.000000 0.002780 0.000683 0.000000 0.002425 0.000720 0.000000 0.002060 0.000757 0.000000 0.001668 0.000792 0.000000 0.001269 0.000826 0.000000 0.000843 0.000857 0.000000 0.000412 0.000885 0.000000 -0.000043 0.000911 0.000000 -0.000500 0.000934 0.000000 -0.000978 0.000954 0.000000 -0.001455 0.000970 0.000000 -0.001950 0.000982 0.000000 -0.002439 0.000990 0.000000 -0.002942 0.000994 0.000000 -0.003435 0.000993 0.000000 -0.003938 0.000988 0.000000 -0.004426 0.000978 0.000000 -0.004919 0.000964 0.000000 -0.005393 0.000944 0.000000 -0.005866 0.000921 0.000000 
-0.006342 0.001340 0.000000 -0.006790 0.001291 0.000000 -0.007210 0.001234 0.000000 -0.007620 0.001173 0.000000 -0.007999 0.001105 0.000000 -0.008362 0.001033 0.000000 -0.008693 0.000955 0.000000 -0.009004 0.000875 0.000000 -0.009280 0.000789 0.000000 -0.009533 0.000702 0.000000 -0.009751 0.000611 0.000000 -0.009942 0.000520 0.000000 -0.010099 0.000426 0.000000 -0.010227 0.000334 0.000000 -0.010321 0.000240 0.000000 -0.010386 0.000148 0.000000 -0.010418 0.000055 0.000000 -0.010420 -0.000033 0.000000 -0.010393 -0.000122 0.000000 -0.010336 -0.000205 0.000000 -0.010253 -0.000288 0.000000 -0.010140 -0.000366 0.000000 -0.010005 -0.000441 0.000000 -0.009841 -0.000511 0.000000 -0.009659 -0.000579 0.000000 -0.009450 -0.000640 0.000000 -0.009227 -0.000699 0.000000 -0.008979 -0.000751 0.000000 -0.008722 -0.000801 0.000000 -0.008441 -0.000844 0.000000 -0.008155 -0.000884 0.000000 -0.007847 -0.000919 0.000000 -0.007538 -0.000950 0.000000 -0.007210 -0.000977 0.000000 -0.006883 -0.001000 0.000000 -0.006540 -0.001018 0.000000 -0.006202 -0.001033 0.000000 -0.005848 -0.001045 0.000000 -0.005503 -0.001053 0.000000 -0.005144 -0.001058 0.000000 -0.004796 -0.001061 0.000000 -0.004436 -0.001060 0.000000 -0.004088 -0.001057 0.000000 -0.003730 -0.001052 0.000000 -0.003386 -0.001045 0.000000 -0.003033 -0.001036 0.000000 -0.002695 -0.001026 0.000000 -0.002349 -0.001014 0.000000 -0.002019 -0.001000 0.000000 -0.001683 -0.000986 0.000000 -0.001362 -0.000970 0.000000 -0.001037 -0.000954 0.000000 -0.000727 -0.000937 0.000000 -0.000414 -0.000919 0.000000 -0.000116 -0.000900 0.000000 0.000185 -0.000882 0.000000 0.000471 -0.000862 0.000000 0.000758 -0.000843 0.000000 0.001031 -0.000822 0.000000 0.001305 -0.000803 0.000000 0.001565 -0.000782 0.000000 0.001825 -0.000762 0.000000 0.002071 -0.000740 0.000000 0.002317 -0.000720 0.000000 0.002550 -0.000698 0.000000 0.002782 -0.000677 0.000000 0.003001 -0.000655 0.000000 0.003217 -0.000634 0.000000 0.003422 -0.000612 0.000000 0.003624 -0.000590 0.000000 0.003815 -0.000567 0.000000 0.004002 -0.000544 0.000000 0.004178 -0.000520 0.000000 0.004348 -0.000497 0.000000 0.004509 -0.000472 0.000000 0.004663 -0.000448 0.000000 0.004808 -0.000422 0.000000 0.004945 -0.000396 0.000000 0.005072 -0.000369 0.000000 0.005191 -0.000341 0.000000 0.005301 -0.000312 0.000000 0.005401 -0.000283 0.000000 0.005491 -0.000251 0.000000 0.005570 -0.000220 0.000000 0.005639 -0.000186 0.000000 0.005696 -0.000152 0.000000 0.005742 -0.000116 0.000000 0.005775 -0.000079 0.000000 0.005797 -0.000040 0.000000 0.005804 0.000000 0.000000 0.005800 0.000042 0.000000 0.005779 0.000085 0.000000 0.005746 0.000131 0.000000 0.005694 0.000177 0.000000 0.005631 0.000226 0.000000 0.005547 0.000276 0.000000 0.005451 0.000328 0.000000 0.005332 0.000381 0.000000 0.005201 0.000436 0.000000 0.005045 0.000491 0.000000 0.004876 0.000549 0.000000 0.004682 0.000607 0.000000 0.004475 0.000666 0.000000 0.004241 0.000725 0.000000 0.003995 0.000786 0.000000 0.003720 0.000845 0.000000 0.003433 0.000905 0.000000 0.003118 0.000964 0.000000 0.002792 0.001023 0.000000 0.002437 0.001079 0.000000 0.002072 0.001135 0.000000 0.001680 0.001187 0.000000 0.001280 0.001238 0.000000 0.000853 0.001284 0.000000 0.000422 0.001328 0.000000 -0.000035 0.001367 0.000000 -0.000493 0.001402 0.000000 -0.000974 0.001431 0.000000 -0.001452 0.001456 0.000000 -0.001950 0.001474 0.000000 -0.002441 0.001487 0.000000 -0.002947 0.001493 0.000000 -0.003443 0.001492 0.000000 -0.003949 0.001484 0.000000 -0.004440 0.001469 0.000000 -0.004936 0.001448 0.000000 -0.005413 0.001418 0.000000 -0.005889 0.001383 0.000000 
-0.006368 0.001792 0.000000 -0.006819 0.001727 0.000000 -0.007243 0.001652 0.000000 -0.007655 0.001570 0.000000 -0.008037 0.001479 0.000000 -0.008403 0.001382 0.000000 -0.008736 0.001278 0.000000 -0.009049 0.001170 0.000000 -0.009327 0.001055 0.000000 -0.009581 0.000939 0.000000 -0.009799 0.000817 0.000000 -0.009991 0.000695 0.000000 -0.010148 0.000569 0.000000 -0.010276 0.000445 0.000000 -0.010369 0.000319 0.000000 -0.010433 0.000196 0.000000 -0.010464 0.000072 0.000000 -0.010465 -0.000046 0.000000 -0.010436 -0.000165 0.000000 -0.010377 -0.000277 0.000000 -0.010292 -0.000388 0.000000 -0.010177 -0.000491 0.000000 -0.010040 -0.000592 0.000000 -0.009874 -0.000685 0.000000 -0.009690 -0.000776 0.000000 -0.009478 -0.000857 0.000000 -0.009254 -0.000936 0.000000 -0.009003 -0.001006 0.000000 -0.008744 -0.001072 0.000000 -0.008461 -0.001129 0.000000 -0.008173 -0.001183 0.000000 -0.007863 -0.001229 0.000000 -0.007553 -0.001271 0.000000 -0.007223 -0.001306 0.000000 -0.006896 -0.001336 0.000000 -0.006551 -0.001360 0.000000 -0.006212 -0.001381 0.000000 -0.005858 -0.001396 0.000000 -0.005512 -0.001407 0.000000 -0.005154 -0.001413 0.000000 -0.004805 -0.001416 0.000000 -0.004445 -0.001415 0.000000 -0.004097 -0.001411 0.000000 -0.003740 -0.001405 0.000000 -0.003396 -0.001395 0.000000 -0.003044 -0.001383 0.000000 -0.002707 -0.001368 0.000000 -0.002362 -0.001352 0.000000 -0.002033 -0.001334 0.000000 -0.001698 -0.001315 0.000000 -0.001379 -0.001294 0.000000 -0.001055 -0.001272 0.000000 -0.000746 -0.001249 0.000000 -0.000434 -0.001225 0.000000 -0.000137 -0.001200 0.000000 0.000162 -0.001175 0.000000 0.000447 -0.001149 0.000000 0.000733 -0.001123 0.000000 0.001005 -0.001096 0.000000 0.001278 -0.001070 0.000000 0.001536 -0.001042 0.000000 0.001795 -0.001015 0.000000 0.002040 -0.000987 0.000000 0.002285 -0.000959 0.000000 0.002517 -0.000930 0.000000 0.002748 -0.000903 0.000000 0.002966 -0.000873 0.000000 0.003182 -0.000845 0.000000 0.003386 -0.000815 0.000000 0.003587 -0.000786 0.000000 0.003778 -0.000755 0.000000 0.003964 -0.000726 0.000000 0.004139 -0.000694 0.000000 0.004310 -0.000663 0.000000 0.004470 -0.000630 0.000000 0.004625 -0.000598 0.000000 0.004769 -0.000563 0.000000 0.004906 -0.000529 0.000000 0.005034 -0.000492 0.000000 0.005154 -0.000456 0.000000 0.005263 -0.000417 0.000000 0.005364 -0.000378 0.000000 0.005455 -0.000336 0.000000 0.005535 -0.000294 0.000000 0.005605 -0.000250 0.000000 0.005663 -0.000204 0.000000 0.005711 -0.000156 0.000000 0.005745 -0.000107 0.000000 0.005769 -0.000055 0.000000 0.005777 -0.000002 0.000000 0.005775 0.000055 0.000000 0.005755 0.000112 0.000000 0.005725 0.000173 0.000000 0.005675 0.000234 0.000000 0.005614 0.000300 0.000000 0.005532 0.000366 0.000000 0.005438 0.000435 0.000000 0.005321 0.000506 0.000000 0.005192 0.000579 0.000000 0.005039 0.000653 0.000000 0.004873 0.000730 0.000000 0.004681 0.000807 0.000000 0.004476 0.000887 0.000000 0.004244 0.000966 0.000000 0.004000 0.001046 0.000000 0.003727 0.001126 0.000000 0.003442 0.001207 0.000000 0.003128 0.001285 0.000000 0.002803 0.001364 0.000000 0.002449 0.001440 0.000000 0.002086 0.001514 0.000000 0.001694 0.001584 0.000000 0.001294 0.001652 0.000000 0.000867 0.001715 0.000000 0.000434 0.001774 0.000000 -0.000023 0.001826 0.000000 -0.000483 0.001873 0.000000 -0.000965 0.001913 0.000000 -0.001446 0.001946 0.000000 -0.001946 0.001971 0.000000 -0.002440 0.001988 0.000000 -0.002949 0.001996 0.000000 -0.003448 0.001995 0.000000 -0.003957 0.001985 0.000000 -0.004451 0.001965 0.000000 -0.004951 0.001937 0.000000 -0.005431 0.001898 0.000000 -0.005912 0.001850 0.000000 
-0.006412 0.002247 0.000000 -0.006868 0.002165 0.000000 -0.007297 0.002070 0.000000 -0.007714 0.001968 0.000000 -0.008100 0.001853 0.000000 -0.008470 0.001732 0.000000 -0.008807 0.001601 0.000000 -0.009123 0.001466 0.000000 -0.009403 0.001321 0.000000 -0.009659 0.001175 0.000000 -0.009879 0.001022 0.000000 -0.010072 0.000869 0.000000 -0.010229 0.000711 0.000000 -0.010357 0.000556 0.000000 -0.010450 0.000397 0.000000 -0.010512 0.000243 0.000000 -0.010542 0.000088 0.000000 -0.010541 -0.000061 0.000000 -0.010510 -0.000210 0.000000 -0.010448 -0.000350 0.000000 -0.010361 -0.000489 0.000000 -0.010242 -0.000618 0.000000 -0.010102 -0.000745 0.000000 -0.009932 -0.000861 0.000000 -0.009745 -0.000974 0.000000 -0.009530 -0.001076 0.000000 -0.009302 -0.001174 0.000000 -0.009049 -0.001261 0.000000 -0.008786 -0.001343 0.000000 -0.008500 -0.001415 0.000000 -0.008209 -0.001482 0.000000 -0.007896 -0.001539 0.000000 -0.007583 -0.001591 0.000000 -0.007251 -0.001634 0.000000 -0.006921 -0.001671 0.000000 -0.006574 -0.001701 0.000000 -0.006234 -0.001726 0.000000 -0.005878 -0.001744 0.000000 -0.005531 -0.001758 0.000000 -0.005171 -0.001766 0.000000 -0.004821 -0.001769 0.000000 -0.004461 -0.001768 0.000000 -0.004113 -0.001762 0.000000 -0.003755 -0.001754 0.000000 -0.003411 -0.001741 0.000000 -0.003059 -0.001726 0.000000 -0.002722 -0.001708 0.000000 -0.002378 -0.001688 0.000000 -0.002049 -0.001664 0.000000 -0.001715 -0.001640 0.000000 -0.001396 -0.001614 0.000000 -0.001073 -0.001587 0.000000 -0.000765 -0.001557 0.000000 -0.000454 -0.001528 0.000000 -0.000158 -0.001497 0.000000 0.000140 -0.001466 0.000000 0.000424 -0.001433 0.000000 0.000709 -0.001401 0.000000 0.000979 -0.001367 0.000000 0.001251 -0.001334 0.000000 0.001509 -0.001299 0.000000 0.001767 -0.001266 0.000000 0.002011 -0.001230 0.000000 0.002255 -0.001196 0.000000 0.002486 -0.001161 0.000000 0.002715 -0.001126 0.000000 0.002933 -0.001090 0.000000 0.003148 -0.001054 0.000000 0.003352 -0.001017 0.000000 0.003553 -0.000981 0.000000 0.003742 -0.000943 0.000000 0.003928 -0.000906 0.000000 0.004103 -0.000867 0.000000 0.004274 -0.000828 0.000000 0.004434 -0.000787 0.000000 0.004588 -0.000747 0.000000 0.004733 -0.000704 0.000000 0.004871 -0.000661 0.000000 0.004999 -0.000616 0.000000 0.005119 -0.000571 0.000000 0.005229 -0.000522 0.000000 0.005330 -0.000474 0.000000 0.005422 -0.000422 0.000000 0.005503 -0.000370 0.000000 0.005574 -0.000314 0.000000 0.005634 -0.000258 0.000000 0.005683 -0.000198 0.000000 0.005719 -0.000137 0.000000 0.005745 -0.000072 0.000000 0.005755 -0.000006 0.000000 0.005755 0.000064 0.000000 0.005737 0.000136 0.000000 0.005709 0.000211 0.000000 0.005662 0.000288 0.000000 0.005603 0.000369 0.000000 0.005524 0.000452 0.000000 0.005432 0.000539 0.000000 0.005318 0.000626 0.000000 0.005192 0.000718 0.000000 0.005041 0.000811 0.000000 0.004878 0.000907 0.000000 0.004688 0.001003 0.000000 0.004486 0.001103 0.000000 0.004256 0.001202 0.000000 0.004014 0.001303 0.000000 0.003743 0.001403 0.000000 0.003460 0.001504 0.000000 0.003147 0.001603 0.000000 0.002823 0.001702 0.000000 0.002470 0.001797 0.000000 0.002106 0.001891 0.000000 0.001714 0.001979 0.000000 0.001314 0.002065 0.000000 0.000885 0.002144 0.000000 0.000451 0.002218 0.000000 -0.000008 0.002284 0.000000 -0.000470 0.002344 0.000000 -0.000956 0.002394 0.000000 -0.001440 0.002436 0.000000 -0.001944 0.002468 0.000000 -0.002442 0.002490 0.000000 -0.002956 0.002501 0.000000 -0.003459 0.002500 0.000000 -0.003974 0.002488 0.000000 -0.004474 0.002463 0.000000 -0.004979 0.002428 0.000000 -0.005465 0.002379 0.000000 -0.005950 0.002319 0.000000 
-0.006455 0.002711 0.000000 -0.006917 0.002612 0.000000 -0.007350 0.002497 0.000000 -0.007773 0.002373 0.000000 -0.008164 0.002235 0.000000 -0.008538 0.002089 0.000000 -0.008878 0.001930 0.000000 -0.009197 0.001766 0.000000 -0.009480 0.001592 0.000000 -0.009738 0.001415 0.000000 -0.009959 0.001230 0.000000 -0.010153 0.001045 0.000000 -0.010310 0.000854 0.000000 -0.010438 0.000666 0.000000 -0.010530 0.000474 0.000000 -0.010591 0.000289 0.000000 -0.010619 0.000101 0.000000 -0.010616 -0.000078 0.000000 -0.010582 -0.000258 0.000000 -0.010517 -0.000427 0.000000 -0.010426 -0.000594 0.000000 -0.010304 -0.000750 0.000000 -0.010161 -0.000902 0.000000 -0.009987 -0.001042 0.000000 -0.009796 -0.001178 0.000000 -0.009578 -0.001300 0.000000 -0.009346 -0.001418 0.000000 -0.009089 -0.001522 0.000000 -0.008823 -0.001621 0.000000 -0.008533 -0.001707 0.000000 -0.008239 -0.001787 0.000000 -0.007924 -0.001855 0.000000 -0.007608 -0.001916 0.000000 -0.007274 -0.001968 0.000000 -0.006942 -0.002012 0.000000 -0.006594 -0.002048 0.000000 -0.006252 -0.002077 0.000000 -0.005895 -0.002098 0.000000 -0.005547 -0.002114 0.000000 -0.005187 -0.002123 0.000000 -0.004837 -0.002126 0.000000 -0.004477 -0.002124 0.000000 -0.004129 -0.002117 0.000000 -0.003772 -0.002106 0.000000 -0.003429 -0.002091 0.000000 -0.003078 -0.002072 0.000000 -0.002742 -0.002050 0.000000 -0.002399 -0.002025 0.000000 -0.002071 -0.001997 0.000000 -0.001739 -0.001968 0.000000 -0.001422 -0.001936 0.000000 -0.001100 -0.001903 0.000000 -0.000794 -0.001868 0.000000 -0.000485 -0.001832 0.000000 -0.000191 -0.001794 0.000000 0.000106 -0.001757 0.000000 0.000387 -0.001718 0.000000 0.000671 -0.001679 0.000000 0.000940 -0.001638 0.000000 0.001209 -0.001599 0.000000 0.001465 -0.001557 0.000000 0.001721 -0.001517 0.000000 0.001964 -0.001475 0.000000 0.002206 -0.001434 0.000000 0.002436 -0.001391 0.000000 0.002664 -0.001350 0.000000 0.002880 -0.001306 0.000000 0.003094 -0.001264 0.000000 0.003297 -0.001220 0.000000 0.003497 -0.001177 0.000000 0.003686 -0.001131 0.000000 0.003871 -0.001087 0.000000 0.004045 -0.001040 0.000000 0.004216 -0.000994 0.000000 0.004376 -0.000945 0.000000 0.004530 -0.000897 0.000000 0.004675 -0.000845 0.000000 0.004812 -0.000795 0.000000 0.004941 -0.000740 0.000000 0.005062 -0.000686 0.000000 0.005173 -0.000629 0.000000 0.005275 -0.000571 0.000000 0.005368 -0.000509 0.000000 0.005450 -0.000447 0.000000 0.005523 -0.000380 0.000000 0.005584 -0.000313 0.000000 0.005635 -0.000241 0.000000 0.005673 -0.000168 0.000000 0.005701 -0.000091 0.000000 0.005714 -0.000012 0.000000 0.005717 0.000072 0.000000 0.005702 0.000158 0.000000 0.005677 0.000248 0.000000 0.005633 0.000340 0.000000 0.005578 0.000438 0.000000 0.005501 0.000537 0.000000 0.005414 0.000641 0.000000 0.005303 0.000746 0.000000 0.005181 0.000856 0.000000 0.005034 0.000967 0.000000 0.004874 0.001083 0.000000 0.004688 0.001199 0.000000 0.004489 0.001319 0.000000 0.004263 0.001438 0.000000 0.004023 0.001560 0.000000 0.003755 0.001680 0.000000 0.003475 0.001802 0.000000 0.003164 0.001922 0.000000 0.002842 0.002041 0.000000 0.002491 0.002156 0.000000 0.002128 0.002270 0.000000 0.001736 0.002377 0.000000 0.001336 0.002481 0.000000 0.000907 0.002577 0.000000 0.000472 0.002667 0.000000 0.000011 0.002748 0.000000 -0.000454 0.002821 0.000000 -0.000942 0.002882 0.000000 -0.001429 0.002934 0.000000 -0.001937 0.002973 0.000000 -0.002440 0.003000 0.000000 -0.002958 0.003014 0.000000 -0.003467 0.003013 0.000000 -0.003987 0.002999 0.000000 -0.004493 0.002970 0.000000 -0.005004 0.002928 0.000000 -0.005496 0.002869 0.000000 -0.005987 0.002798 0.000000 
-0.006516 0.003177 0.000000 -0.006986 0.003061 0.000000 -0.007426 0.002926 0.000000 -0.007856 0.002781 0.000000 -0.008252 0.002618 0.000000 -0.008633 0.002446 0.000000 -0.008977 0.002260 0.000000 -0.009301 0.002067 0.000000 -0.009587 0.001862 0.000000 -0.009848 0.001655 0.000000 -0.010071 0.001437 0.000000 -0.010267 0.001220 0.000000 -0.010424 0.000995 0.000000 -0.010551 0.000775 0.000000 -0.010642 0.000550 0.000000 -0.010702 0.000332 0.000000 -0.010728 0.000112 0.000000 -0.010722 -0.000098 0.000000 -0.010685 -0.000308 0.000000 -0.010616 -0.000506 0.000000 -0.010521 -0.000702 0.000000 -0.010395 -0.000884 0.000000 -0.010247 -0.001062 0.000000 -0.010069 -0.001225 0.000000 -0.009873 -0.001383 0.000000 -0.009649 -0.001526 0.000000 -0.009413 -0.001663 0.000000 -0.009151 -0.001784 0.000000 -0.008880 -0.001899 0.000000 -0.008586 -0.001999 0.000000 -0.008288 -0.002091 0.000000 -0.007968 -0.002170 0.000000 -0.007649 -0.002241 0.000000 -0.007311 -0.002300 0.000000 -0.006976 -0.002351 0.000000 -0.006625 -0.002392 0.000000 -0.006281 -0.002425 0.000000 -0.005922 -0.002449 0.000000 -0.005572 -0.002466 0.000000 -0.005210 -0.002476 0.000000 -0.004860 -0.002479 0.000000 -0.004498 -0.002476 0.000000 -0.004150 -0.002467 0.000000 -0.003793 -0.002454 0.000000 -0.003450 -0.002435 0.000000 -0.003099 -0.002413 0.000000 -0.002764 -0.002386 0.000000 -0.002422 -0.002358 0.000000 -0.002096 -0.002325 0.000000 -0.001764 -0.002290 0.000000 -0.001448 -0.002252 0.000000 -0.001128 -0.002214 0.000000 -0.000824 -0.002173 0.000000 -0.000516 -0.002131 0.000000 -0.000223 -0.002087 0.000000 0.000072 -0.002044 0.000000 0.000351 -0.001998 0.000000 0.000633 -0.001953 0.000000 0.000900 -0.001905 0.000000 0.001168 -0.001860 0.000000 0.001422 -0.001811 0.000000 0.001677 -0.001765 0.000000 0.001918 -0.001715 0.000000 0.002159 -0.001668 0.000000 0.002387 -0.001618 0.000000 0.002614 -0.001570 0.000000 0.002829 -0.001520 0.000000 0.003042 -0.001471 0.000000 0.003244 -0.001420 0.000000 0.003443 -0.001370 0.000000 0.003631 -0.001317 0.000000 0.003815 -0.001266 0.000000 0.003990 -0.001211 0.000000 0.004159 -0.001158 0.000000 0.004319 -0.001101 0.000000 0.004474 -0.001046 0.000000 0.004618 -0.000986 0.000000 0.004757 -0.000928 0.000000 0.004886 -0.000865 0.000000 0.005007 -0.000803 0.000000 0.005119 -0.000736 0.000000 0.005222 -0.000669 0.000000 0.005317 -0.000597 0.000000 0.005400 -0.000525 0.000000 0.005475 -0.000448 0.000000 0.005538 -0.000371 0.000000 0.005592 -0.000287 0.000000 0.005632 -0.000203 0.000000 0.005662 -0.000113 0.000000 0.005678 -0.000021 0.000000 0.005683 0.000076 0.000000 0.005672 0.000175 0.000000 0.005650 0.000281 0.000000 0.005610 0.000387 0.000000 0.005558 0.000501 0.000000 0.005486 0.000616 0.000000 0.005402 0.000737 0.000000 0.005295 0.000859 0.000000 0.005177 0.000988 0.000000 0.005033 0.001118 0.000000 0.004878 0.001253 0.000000 0.004696 0.001388 0.000000 0.004501 0.001528 0.000000 0.004278 0.001668 0.000000 0.004042 0.001810 0.000000 0.003777 0.001952 0.000000 0.003499 0.002095 0.000000 0.003190 0.002235 0.000000 0.002870 0.002376 0.000000 0.002520 0.002511 0.000000 0.002158 0.002645 0.000000 0.001766 0.002772 0.000000 0.001365 0.002894 0.000000 0.000935 0.003008 0.000000 0.000498 0.003114 0.000000 0.000034 0.003210 0.000000 -0.000434 0.003296 0.000000 -0.000927 0.003370 0.000000 -0.001419 0.003431 0.000000 -0.001932 0.003479 0.000000 -0.002441 0.003511 0.000000 -0.002966 0.003528 0.000000 -0.003482 0.003529 0.000000 -0.004010 0.003513 0.000000 -0.004522 0.003480 0.000000 -0.005042 0.003430 0.000000 -0.005541 0.003362 0.000000 -0.006041 0.003279 0.000000 