# vtk DataFile Version 2.0
Comment goes here
ASCII

DATASET STRUCTURED_POINTS
DIMENSIONS    128   128   1

ORIGIN    0.000   0.000   0.000
SPACING   0.0078125 0.0078125   1.000

POINT_DATA   16384
VECTORS u double

-0.034953 0.000000 0.000000 -0.035577 0.000000 0.000000 -0.036128 0.000000 0.000000 -0.036654 -0.000000 0.000000 -0.037104 -0.000000 0.000000 -0.037521 -0.000000 0.000000 -0.037862 -0.000000 0.000000 -0.038163 -0.000000 0.000000 -0.038389 -0.000000 0.000000 -0.038569 -0.000000 0.000000 -0.038677 -0.000000 0.000000 -0.038735 -0.000000 0.000000 -0.038724 -0.000000 0.000000 -0.038661 -0.000000 0.000000 -0.038535 -0.000000 0.000000 -0.038354 -0.000000 0.000000 -0.038118 -0.000000 0.000000 -0.037827 -0.000000 0.000000 -0.037489 -0.000000 0.000000 -0.037095 -0.000000 0.000000 -0.036664 -0.000000 0.000000 -0.036179 -0.000000 0.000000 -0.035667 -0.000000 0.000000 -0.035102 -0.000000 0.000000 -0.034520 -0.000000 0.000000 -0.033888 -0.000000 0.000000 -0.033249 -0.000000 0.000000 -0.032563 -0.000000 0.000000 -0.031879 -0.000000 0.000000 -0.031153 -0.000000 0.000000 -0.030437 -0.000000 0.000000 -0.029683 -0.000000 0.000000 -0.028947 -0.000000 0.000000 -0.028177 -0.000000 0.000000 -0.027432 -0.000000 0.000000 -0.026657 -0.000000 0.000000 -0.025913 -0.000000 0.000000 -0.025142 -0.000000 0.000000 -0.024409 -0.000000 0.000000 -0.023651 -0.000000 0.000000 -0.022935 -0.000000 0.000000 -0.022197 -0.000000 0.000000 -0.021504 -0.000000 0.000000 -0.020793 -0.000000 0.000000 -0.020128 -0.000000 0.000000 -0.019448 -0.000000 0.000000 -0.018815 -0.000000 0.000000 -0.018169 -0.000000 0.000000 -0.017571 -0.000000 0.000000 -0.016961 -0.000000 0.000000 -0.016400 -0.000000 0.000000 -0.015829 -0.000000 0.000000 -0.015305 -0.000000 0.000000 -0.014774 -0.000000 0.000000 -0.014287 -0.000000 0.000000 -0.013796 -0.000000 0.000000 -0.013348 -0.000000 0.000000 -0.012896 -0.000000 0.000000 -0.012486 -0.000000 0.000000 -0.012074 -0.000000 0.000000 -0.011701 -0.000000 0.000000 -0.011328 -0.000000 0.000000 -0.010992 -0.000000 0.000000 -0.010658 -0.000000 0.000000 -0.010358 0.000000 0.000000 -0.010062 0.000000 0.000000 -0.009798 0.000000 0.000000 -0.009540 0.000000 0.000000 -0.009312 0.000000 0.000000 -0.009092 0.000000 0.000000 -0.008900 0.000000 0.000000 -0.008718 0.000000 0.000000 -0.008561 0.000000 0.000000 -0.008417 0.000000 0.000000 -0.008298 0.000000 0.000000 -0.008193 0.000000 0.000000 -0.008111 0.000000 0.000000 -0.008046 0.000000 0.000000 -0.008002 0.000000 0.000000 -0.007979 0.000000 0.000000 -0.007975 0.000000 0.000000 -0.007995 0.000000 0.000000 -0.008033 0.000000 0.000000 -0.008098 0.000000 0.000000 -0.008181 0.000000 0.000000 -0.008293 0.000000 0.000000 -0.008422 0.000000 0.000000 -0.008584 0.000000 0.000000 -0.008762 0.000000 0.000000 -0.008976 0.000000 0.000000 -0.009206 0.000000 0.000000 -0.009475 0.000000 0.000000 -0.009760 0.000000 0.000000 -0.010086 0.000000 0.000000 -0.010427 0.000000 0.000000 -0.010814 0.000000 0.000000 -0.011213 0.000000 0.000000 -0.011661 0.000000 0.000000 -0.012121 0.000000 0.000000 -0.012632 0.000000 0.000000 -0.013153 0.000000 0.000000 -0.013726 0.000000 0.000000 -0.014308 0.000000 0.000000 -0.014943 0.000000 0.000000 -0.015585 0.000000 0.000000 -0.016280 0.000000 0.000000 -0.016978 0.000000 0.000000 -0.017728 0.000000 0.000000 -0.018478 0.000000 0.000000 -0.019279 0.000000 0.000000 -0.020074 0.000000 0.000000 -0.020917 0.000000 0.000000 -0.021748 0.000000 0.000000 -0.022624 0.000000 0.000000 -0.023482 0.000000 0.000000 -0.024380 0.000000 0.000000 -0.025252 0.000000 0.000000 -0.026157 0.000000 0.000000 -0.027029 0.000000 0.000000 -0.027927 0.000000 0.000000 -0.028785 0.000000 0.000000 -0.029660 0.000000 0.000000 -0.030487 0.000000 0.000000 -0.031323 0.000000 0.000000 -0.032104 0.000000 0.000000 -0.032884 0.000000 0.000000 -0.033603 0.000000 0.000000 -0.034312 0.000000 0.000000 
-0.034977 0.000633 0.000000 -0.035602 0.000588 0.000000 -0.036155 0.000538 0.000000 -0.036681 0.000488 0.000000 -0.037132 0.000434 0.000000 -0.037550 0.000379 0.000000 -0.037891 0.000321 0.000000 -0.038193 0.000263 0.000000 -0.038419 0.000203 0.000000 -0.038599 0.000144 0.000000 -0.038707 0.000083 0.000000 -0.038765 0.000024 0.000000 -0.038753 -0.000037 0.000000 -0.038690 -0.000095 0.000000 -0.038563 -0.000153 0.000000 -0.038382 -0.000208 0.000000 -0.038145 -0.000264 0.000000 -0.037853 -0.000315 0.000000 -0.037514 -0.000366 0.000000 -0.037120 -0.000412 0.000000 -0.036688 -0.000458 0.000000 -0.036202 -0.000499 0.000000 -0.035688 -0.000539 0.000000 -0.035122 -0.000574 0.000000 -0.034538 -0.000607 0.000000 -0.033906 -0.000636 0.000000 -0.033265 -0.000663 0.000000 -0.032578 -0.000685 0.000000 -0.031893 -0.000705 0.000000 -0.031166 -0.000721 0.000000 -0.030449 -0.000735 0.000000 -0.029694 -0.000745 0.000000 -0.028957 -0.000753 0.000000 -0.028185 -0.000757 0.000000 -0.027440 -0.000760 0.000000 -0.026664 -0.000760 0.000000 -0.025920 -0.000757 0.000000 -0.025148 -0.000752 0.000000 -0.024414 -0.000746 0.000000 -0.023655 -0.000737 0.000000 -0.022938 -0.000727 0.000000 -0.022200 -0.000715 0.000000 -0.021507 -0.000702 0.000000 -0.020795 -0.000688 0.000000 -0.020130 -0.000673 0.000000 -0.019449 -0.000657 0.000000 -0.018816 -0.000639 0.000000 -0.018170 -0.000622 0.000000 -0.017572 -0.000604 0.000000 -0.016962 -0.000585 0.000000 -0.016401 -0.000566 0.000000 -0.015830 -0.000547 0.000000 -0.015306 -0.000528 0.000000 -0.014774 -0.000509 0.000000 -0.014288 -0.000489 0.000000 -0.013797 -0.000470 0.000000 -0.013349 -0.000450 0.000000 -0.012897 -0.000431 0.000000 -0.012487 -0.000411 0.000000 -0.012075 -0.000392 0.000000 -0.011702 -0.000373 0.000000 -0.011329 -0.000354 0.000000 -0.010993 -0.000335 0.000000 -0.010659 -0.000317 0.000000 -0.010359 -0.000298 0.000000 -0.010063 -0.000280 0.000000 -0.009799 -0.000261 0.000000 -0.009541 -0.000243 0.000000 -0.009313 -0.000224 0.000000 -0.009093 -0.000206 0.000000 -0.008901 -0.000187 0.000000 -0.008718 -0.000169 0.000000 -0.008562 -0.000150 0.000000 -0.008418 -0.000132 0.000000 -0.008298 -0.000112 0.000000 -0.008193 -0.000094 0.000000 -0.008111 -0.000074 0.000000 -0.008046 -0.000054 0.000000 -0.008002 -0.000034 0.000000 -0.007979 -0.000013 0.000000 -0.007975 0.000008 0.000000 -0.007995 0.000029 0.000000 -0.008033 0.000052 0.000000 -0.008098 0.000074 0.000000 -0.008180 0.000097 0.000000 -0.008292 0.000121 0.000000 -0.008421 0.000146 0.000000 -0.008583 0.000170 0.000000 -0.008761 0.000196 0.000000 -0.008975 0.000222 0.000000 -0.009205 0.000250 0.000000 -0.009473 0.000277 0.000000 -0.009758 0.000305 0.000000 -0.010084 0.000334 0.000000 -0.010425 0.000364 0.000000 -0.010811 0.000393 0.000000 -0.011211 0.000424 0.000000 -0.011658 0.000454 0.000000 -0.012118 0.000485 0.000000 -0.012629 0.000516 0.000000 -0.013150 0.000547 0.000000 -0.013723 0.000578 0.000000 -0.014306 0.000609 0.000000 -0.014941 0.000638 0.000000 -0.015583 0.000668 0.000000 -0.016278 0.000696 0.000000 -0.016976 0.000724 0.000000 -0.017728 0.000750 0.000000 -0.018478 0.000775 0.000000 -0.019279 0.000798 0.000000 -0.020075 0.000819 0.000000 -0.020919 0.000837 0.000000 -0.021751 0.000854 0.000000 -0.022629 0.000867 0.000000 -0.023488 0.000878 0.000000 -0.024386 0.000885 0.000000 -0.025259 0.000889 0.000000 -0.026166 0.000889 0.000000 -0.027039 0.000885 0.000000 -0.027939 0.000878 0.000000 -0.028798 0.000866 0.000000 -0.029675 0.000851 0.000000 -0.030503 0.000832 0.000000 -0.031341 0.000808 0.000000 -0.032123 0.000781 0.000000 -0.032905 0.000749 0.000000 -0.033624 0.000714 0.000000 -0.034335 0.000675 0.000000 
-0.034999 0.001267 0.000000 -0.035626 0.001177 0.000000 -0.036179 0.001079 0.000000 -0.036707 0.000978 0.000000 -0.037159 0.000869 0.000000 -0.037578 0.000759 0.000000 -0.037920 0.000643 0.000000 -0.038222 0.000527 0.000000 -0.038448 0.000406 0.000000 -0.038628 0.000288 0.000000 -0.038735 0.000165 0.000000 -0.038793 0.000047 0.000000 -0.038781 -0.000075 0.000000 -0.038717 -0.000190 0.000000 -0.038589 -0.000308 0.000000 -0.038407 -0.000418 0.000000 -0.038169 -0.000529 0.000000 -0.037876 -0.000631 0.000000 -0.037535 -0.000733 0.000000 -0.037139 -0.000826 0.000000 -0.036706 -0.000918 0.000000 -0.036218 -0.001000 0.000000 -0.035703 -0.001080 0.000000 -0.035136 -0.001149 0.000000 -0.034551 -0.001216 0.000000 -0.033917 -0.001274 0.000000 -0.033275 -0.001327 0.000000 -0.032587 -0.001372 0.000000 -0.031902 -0.001412 0.000000 -0.031173 -0.001444 0.000000 -0.030456 -0.001472 0.000000 -0.029700 -0.001492 0.000000 -0.028963 -0.001508 0.000000 -0.028191 -0.001517 0.000000 -0.027446 -0.001522 0.000000 -0.026669 -0.001521 0.000000 -0.025926 -0.001516 0.000000 -0.025154 -0.001506 0.000000 -0.024421 -0.001493 0.000000 -0.023663 -0.001475 0.000000 -0.022948 -0.001455 0.000000 -0.022210 -0.001431 0.000000 -0.021518 -0.001405 0.000000 -0.020808 -0.001377 0.000000 -0.020144 -0.001346 0.000000 -0.019465 -0.001314 0.000000 -0.018834 -0.001279 0.000000 -0.018189 -0.001245 0.000000 -0.017592 -0.001208 0.000000 -0.016985 -0.001171 0.000000 -0.016425 -0.001133 0.000000 -0.015856 -0.001095 0.000000 -0.015333 -0.001056 0.000000 -0.014803 -0.001017 0.000000 -0.014319 -0.000978 0.000000 -0.013829 -0.000940 0.000000 -0.013383 -0.000900 0.000000 -0.012933 -0.000862 0.000000 -0.012524 -0.000822 0.000000 -0.012113 -0.000785 0.000000 -0.011742 -0.000746 0.000000 -0.011370 -0.000709 0.000000 -0.011035 -0.000670 0.000000 -0.010703 -0.000634 0.000000 -0.010404 -0.000596 0.000000 -0.010109 -0.000560 0.000000 -0.009846 -0.000522 0.000000 -0.009589 -0.000486 0.000000 -0.009361 -0.000448 0.000000 -0.009142 -0.000413 0.000000 -0.008950 -0.000375 0.000000 -0.008768 -0.000339 0.000000 -0.008612 -0.000300 0.000000 -0.008468 -0.000264 0.000000 -0.008348 -0.000225 0.000000 -0.008243 -0.000187 0.000000 -0.008161 -0.000147 0.000000 -0.008096 -0.000109 0.000000 -0.008051 -0.000067 0.000000 -0.008027 -0.000027 0.000000 -0.008023 0.000016 0.000000 -0.008042 0.000058 0.000000 -0.008079 0.000103 0.000000 -0.008143 0.000147 0.000000 -0.008224 0.000194 0.000000 -0.008335 0.000241 0.000000 -0.008463 0.000291 0.000000 -0.008623 0.000340 0.000000 -0.008800 0.000392 0.000000 -0.009012 0.000444 0.000000 -0.009240 0.000499 0.000000 -0.009507 0.000553 0.000000 -0.009789 0.000610 0.000000 -0.010114 0.000667 0.000000 -0.010453 0.000727 0.000000 -0.010837 0.000786 0.000000 -0.011235 0.000847 0.000000 -0.011680 0.000908 0.000000 -0.012138 0.000970 0.000000 -0.012646 0.001032 0.000000 -0.013166 0.001095 0.000000 -0.013737 0.001156 0.000000 -0.014317 0.001218 0.000000 -0.014951 0.001277 0.000000 -0.015591 0.001337 0.000000 -0.016285 0.001394 0.000000 -0.016982 0.001450 0.000000 -0.017732 0.001501 0.000000 -0.018481 0.001552 0.000000 -0.019282 0.001597 0.000000 -0.020077 0.001640 0.000000 -0.020921 0.001677 0.000000 -0.021753 0.001710 0.000000 -0.022630 0.001736 0.000000 -0.023490 0.001757 0.000000 -0.024389 0.001772 0.000000 -0.025263 0.001780 0.000000 -0.026170 0.001780 0.000000 -0.027045 0.001773 0.000000 -0.027946 0.001759 0.000000 -0.028806 0.001736 0.000000 -0.029685 0.001705 0.000000 -0.030515 0.001666 0.000000 -0.031354 0.001619 0.000000 -0.032138 0.001564 0.000000 -0.032922 0.001502 0.000000 -0.033643 0.001430 0.000000 -0.034355 0.001353 0.000000 
-0.035070 0.001903 0.000000 -0.035700 0.001768 0.000000 -0.036257 0.001620 0.000000 -0.036788 0.001468 0.000000 -0.037242 0.001304 0.000000 -0.037663 0.001140 0.000000 -0.038006 0.000965 0.000000 -0.038310 0.000791 0.000000 -0.038536 0.000609 0.000000 -0.038717 0.000432 0.000000 -0.038823 0.000247 0.000000 -0.038880 0.000069 0.000000 -0.038867 -0.000113 0.000000 -0.038801 -0.000287 0.000000 -0.038672 -0.000463 0.000000 -0.038487 -0.000628 0.000000 -0.038247 -0.000795 0.000000 -0.037950 -0.000949 0.000000 -0.037607 -0.001102 0.000000 -0.037208 -0.001241 0.000000 -0.036771 -0.001379 0.000000 -0.036280 -0.001502 0.000000 -0.035761 -0.001621 0.000000 -0.035190 -0.001726 0.000000 -0.034601 -0.001826 0.000000 -0.033963 -0.001912 0.000000 -0.033318 -0.001992 0.000000 -0.032627 -0.002058 0.000000 -0.031938 -0.002119 0.000000 -0.031206 -0.002167 0.000000 -0.030486 -0.002208 0.000000 -0.029727 -0.002238 0.000000 -0.028988 -0.002262 0.000000 -0.028214 -0.002274 0.000000 -0.027467 -0.002282 0.000000 -0.026689 -0.002280 0.000000 -0.025945 -0.002272 0.000000 -0.025172 -0.002257 0.000000 -0.024438 -0.002237 0.000000 -0.023680 -0.002211 0.000000 -0.022964 -0.002180 0.000000 -0.022227 -0.002144 0.000000 -0.021535 -0.002105 0.000000 -0.020825 -0.002062 0.000000 -0.020163 -0.002015 0.000000 -0.019484 -0.001967 0.000000 -0.018854 -0.001916 0.000000 -0.018210 -0.001863 0.000000 -0.017615 -0.001808 0.000000 -0.017009 -0.001753 0.000000 -0.016450 -0.001695 0.000000 -0.015883 -0.001639 0.000000 -0.015362 -0.001580 0.000000 -0.014834 -0.001523 0.000000 -0.014351 -0.001463 0.000000 -0.013863 -0.001406 0.000000 -0.013418 -0.001346 0.000000 -0.012970 -0.001290 0.000000 -0.012563 -0.001230 0.000000 -0.012153 -0.001175 0.000000 -0.011784 -0.001116 0.000000 -0.011413 -0.001061 0.000000 -0.011080 -0.001003 0.000000 -0.010748 -0.000949 0.000000 -0.010451 -0.000891 0.000000 -0.010156 -0.000838 0.000000 -0.009895 -0.000781 0.000000 -0.009638 -0.000728 0.000000 -0.009411 -0.000671 0.000000 -0.009192 -0.000618 0.000000 -0.009001 -0.000561 0.000000 -0.008819 -0.000507 0.000000 -0.008664 -0.000450 0.000000 -0.008520 -0.000395 0.000000 -0.008400 -0.000337 0.000000 -0.008295 -0.000281 0.000000 -0.008212 -0.000221 0.000000 -0.008146 -0.000164 0.000000 -0.008101 -0.000102 0.000000 -0.008076 -0.000042 0.000000 -0.008071 0.000023 0.000000 -0.008089 0.000085 0.000000 -0.008125 0.000153 0.000000 -0.008187 0.000219 0.000000 -0.008268 0.000289 0.000000 -0.008377 0.000359 0.000000 -0.008503 0.000433 0.000000 -0.008661 0.000507 0.000000 -0.008836 0.000585 0.000000 -0.009046 0.000663 0.000000 -0.009272 0.000745 0.000000 -0.009537 0.000826 0.000000 -0.009817 0.000912 0.000000 -0.010139 0.000997 0.000000 -0.010476 0.001087 0.000000 -0.010858 0.001175 0.000000 -0.011253 0.001267 0.000000 -0.011696 0.001358 0.000000 -0.012152 0.001452 0.000000 -0.012658 0.001543 0.000000 -0.013176 0.001638 0.000000 -0.013746 0.001729 0.000000 -0.014324 0.001823 0.000000 -0.014957 0.001912 0.000000 -0.015596 0.002002 0.000000 -0.016289 0.002087 0.000000 -0.016985 0.002171 0.000000 -0.017735 0.002249 0.000000 -0.018484 0.002325 0.000000 -0.019286 0.002394 0.000000 -0.020081 0.002458 0.000000 -0.020927 0.002514 0.000000 -0.021761 0.002563 0.000000 -0.022640 0.002604 0.000000 -0.023502 0.002636 0.000000 -0.024404 0.002658 0.000000 -0.025281 0.002670 0.000000 -0.026193 0.002671 0.000000 -0.027071 0.002661 0.000000 -0.027976 0.002639 0.000000 -0.028841 0.002605 0.000000 -0.029724 0.002560 0.000000 -0.030559 0.002501 0.000000 -0.031403 0.002431 0.000000 -0.032191 0.002348 0.000000 -0.032980 0.002254 0.000000 -0.033705 0.002147 0.000000 -0.034422 0.002032 0.000000 
-0.035137 0.002545 0.000000 -0.035772 0.002364 0.000000 -0.036332 0.002166 0.000000 -0.036866 0.001963 0.000000 -0.037323 0.001744 0.000000 -0.037746 0.001523 0.000000 -0.038091 0.001289 0.000000 -0.038396 0.001057 0.000000 -0.038623 0.000814 0.000000 -0.038804 0.000575 0.000000 -0.038910 0.000329 0.000000 -0.038966 0.000091 0.000000 -0.038951 -0.000154 0.000000 -0.038883 -0.000386 0.000000 -0.038751 -0.000622 0.000000 -0.038564 -0.000843 0.000000 -0.038320 -0.001066 0.000000 -0.038020 -0.001271 0.000000 -0.037673 -0.001476 0.000000 -0.037270 -0.001662 0.000000 -0.036830 -0.001846 0.000000 -0.036334 -0.002010 0.000000 -0.035812 -0.002170 0.000000 -0.035236 -0.002309 0.000000 -0.034644 -0.002443 0.000000 -0.034002 -0.002557 0.000000 -0.033354 -0.002664 0.000000 -0.032659 -0.002752 0.000000 -0.031967 -0.002833 0.000000 -0.031233 -0.002896 0.000000 -0.030511 -0.002951 0.000000 -0.029750 -0.002990 0.000000 -0.029009 -0.003021 0.000000 -0.028234 -0.003038 0.000000 -0.027486 -0.003047 0.000000 -0.026708 -0.003044 0.000000 -0.025963 -0.003033 0.000000 -0.025191 -0.003012 0.000000 -0.024458 -0.002985 0.000000 -0.023700 -0.002949 0.000000 -0.022986 -0.002908 0.000000 -0.022251 -0.002860 0.000000 -0.021561 -0.002807 0.000000 -0.020853 -0.002749 0.000000 -0.020193 -0.002687 0.000000 -0.019517 -0.002622 0.000000 -0.018890 -0.002553 0.000000 -0.018250 -0.002483 0.000000 -0.017658 -0.002409 0.000000 -0.017055 -0.002336 0.000000 -0.016500 -0.002259 0.000000 -0.015935 -0.002183 0.000000 -0.015418 -0.002104 0.000000 -0.014893 -0.002028 0.000000 -0.014414 -0.001949 0.000000 -0.013929 -0.001872 0.000000 -0.013488 -0.001793 0.000000 -0.013042 -0.001717 0.000000 -0.012638 -0.001638 0.000000 -0.012232 -0.001564 0.000000 -0.011865 -0.001486 0.000000 -0.011497 -0.001413 0.000000 -0.011166 -0.001336 0.000000 -0.010837 -0.001263 0.000000 -0.010541 -0.001187 0.000000 -0.010250 -0.001116 0.000000 -0.009989 -0.001040 0.000000 -0.009734 -0.000969 0.000000 -0.009509 -0.000894 0.000000 -0.009291 -0.000823 0.000000 -0.009101 -0.000748 0.000000 -0.008920 -0.000676 0.000000 -0.008764 -0.000600 0.000000 -0.008621 -0.000527 0.000000 -0.008501 -0.000450 0.000000 -0.008396 -0.000375 0.000000 -0.008312 -0.000296 0.000000 -0.008246 -0.000219 0.000000 -0.008200 -0.000137 0.000000 -0.008174 -0.000057 0.000000 -0.008168 0.000028 0.000000 -0.008184 0.000112 0.000000 -0.008218 0.000202 0.000000 -0.008278 0.000289 0.000000 -0.008356 0.000383 0.000000 -0.008463 0.000476 0.000000 -0.008586 0.000575 0.000000 -0.008741 0.000673 0.000000 -0.008913 0.000777 0.000000 -0.009119 0.000880 0.000000 -0.009342 0.000990 0.000000 -0.009603 0.001098 0.000000 -0.009879 0.001213 0.000000 -0.010197 0.001326 0.000000 -0.010530 0.001445 0.000000 -0.010907 0.001563 0.000000 -0.011299 0.001686 0.000000 -0.011738 0.001807 0.000000 -0.012189 0.001933 0.000000 -0.012692 0.002055 0.000000 -0.013205 0.002182 0.000000 -0.013771 0.002304 0.000000 -0.014346 0.002429 0.000000 -0.014975 0.002548 0.000000 -0.015611 0.002669 0.000000 -0.016301 0.002783 0.000000 -0.016995 0.002896 0.000000 -0.017743 0.003001 0.000000 -0.018491 0.003102 0.000000 -0.019291 0.003194 0.000000 -0.020086 0.003281 0.000000 -0.020932 0.003356 0.000000 -0.021766 0.003423 0.000000 -0.022647 0.003477 0.000000 -0.023511 0.003521 0.000000 -0.024415 0.003551 0.000000 -0.025295 0.003568 0.000000 -0.026210 0.003570 0.000000 -0.027092 0.003557 0.000000 -0.028001 0.003529 0.000000 -0.028870 0.003484 0.000000 -0.029758 0.003423 0.000000 -0.030598 0.003345 0.000000 -0.031447 0.003252 0.000000 -0.032240 0.003141 0.000000 -0.033034 0.003016 0.000000 -0.033764 0.002872 0.000000 -0.034485 0.002718 0.000000 
-0.035254 0.003189 0.000000 -0.035895 0.002962 0.000000 -0.036460 0.002714 0.000000 -0.037000 0.002459 0.000000 -0.037461 0.002185 0.000000 -0.037888 0.001908 0.000000 -0.038235 0.001614 0.000000 -0.038542 0.001323 0.000000 -0.038769 0.001017 0.000000 -0.038951 0.000719 0.000000 -0.039056 0.000409 0.000000 -0.039111 0.000111 0.000000 -0.039094 -0.000195 0.000000 -0.039023 -0.000486 0.000000 -0.038888 -0.000782 0.000000 -0.038696 -0.001059 0.000000 -0.038448 -0.001338 0.000000 -0.038143 -0.001596 0.000000 -0.037790 -0.001852 0.000000 -0.037382 -0.002085 0.000000 -0.036935 -0.002315 0.000000 -0.036433 -0.002519 0.000000 -0.035904 -0.002719 0.000000 -0.035323 -0.002893 0.000000 -0.034725 -0.003060 0.000000 -0.034077 -0.003202 0.000000 -0.033422 -0.003336 0.000000 -0.032721 -0.003445 0.000000 -0.032025 -0.003546 0.000000 -0.031285 -0.003623 0.000000 -0.030558 -0.003692 0.000000 -0.029793 -0.003739 0.000000 -0.029049 -0.003777 0.000000 -0.028270 -0.003797 0.000000 -0.027521 -0.003808 0.000000 -0.026739 -0.003803 0.000000 -0.025993 -0.003789 0.000000 -0.025220 -0.003762 0.000000 -0.024486 -0.003727 0.000000 -0.023729 -0.003682 0.000000 -0.023015 -0.003629 0.000000 -0.022280 -0.003569 0.000000 -0.021592 -0.003502 0.000000 -0.020886 -0.003430 0.000000 -0.020228 -0.003351 0.000000 -0.019554 -0.003270 0.000000 -0.018929 -0.003183 0.000000 -0.018291 -0.003096 0.000000 -0.017703 -0.003003 0.000000 -0.017102 -0.002911 0.000000 -0.016551 -0.002815 0.000000 -0.015990 -0.002721 0.000000 -0.015476 -0.002622 0.000000 -0.014954 -0.002527 0.000000 -0.014479 -0.002427 0.000000 -0.013997 -0.002332 0.000000 -0.013559 -0.002233 0.000000 -0.013117 -0.002139 0.000000 -0.012716 -0.002041 0.000000 -0.012312 -0.001948 0.000000 -0.011948 -0.001851 0.000000 -0.011583 -0.001759 0.000000 -0.011255 -0.001664 0.000000 -0.010928 -0.001574 0.000000 -0.010635 -0.001479 0.000000 -0.010345 -0.001390 0.000000 -0.010086 -0.001296 0.000000 -0.009833 -0.001208 0.000000 -0.009609 -0.001114 0.000000 -0.009392 -0.001026 0.000000 -0.009203 -0.000932 0.000000 -0.009022 -0.000844 0.000000 -0.008868 -0.000749 0.000000 -0.008724 -0.000659 0.000000 -0.008604 -0.000562 0.000000 -0.008498 -0.000470 0.000000 -0.008415 -0.000371 0.000000 -0.008347 -0.000276 0.000000 -0.008301 -0.000173 0.000000 -0.008273 -0.000074 0.000000 -0.008265 0.000032 0.000000 -0.008279 0.000136 0.000000 -0.008311 0.000247 0.000000 -0.008369 0.000357 0.000000 -0.008444 0.000474 0.000000 -0.008547 0.000589 0.000000 -0.008667 0.000712 0.000000 -0.008819 0.000834 0.000000 -0.008987 0.000963 0.000000 -0.009190 0.001092 0.000000 -0.009409 0.001228 0.000000 -0.009665 0.001363 0.000000 -0.009937 0.001506 0.000000 -0.010251 0.001648 0.000000 -0.010579 0.001797 0.000000 -0.010952 0.001944 0.000000 -0.011339 0.002097 0.000000 -0.011774 0.002248 0.000000 -0.012221 0.002405 0.000000 -0.012719 0.002559 0.000000 -0.013228 0.002717 0.000000 -0.013790 0.002870 0.000000 -0.014362 0.003027 0.000000 -0.014988 0.003177 0.000000 -0.015621 0.003328 0.000000 -0.016310 0.003471 0.000000 -0.017002 0.003613 0.000000 -0.017749 0.003745 0.000000 -0.018496 0.003873 0.000000 -0.019297 0.003989 0.000000 -0.020093 0.004098 0.000000 -0.020941 0.004193 0.000000 -0.021778 0.004279 0.000000 -0.022662 0.004348 0.000000 -0.023529 0.004404 0.000000 -0.024438 0.004442 0.000000 -0.025323 0.004465 0.000000 -0.026244 0.004468 0.000000 -0.027133 0.004453 0.000000 -0.028050 0.004418 0.000000 -0.028925 0.004362 0.000000 -0.029822 0.004287 0.000000 -0.030668 0.004190 0.000000 -0.031526 0.004074 0.000000 -0.032327 0.003935 0.000000 -0.033129 0.003778 0.000000 -0.033866 0.003599 0.000000 -0.034595 0.003405 0.000000 
-0.035366 0.003845 0.000000 -0.036014 0.003571 0.000000 -0.036585 0.003271 0.000000 -0.037130 0.002963 0.000000 -0.037596 0.002632 0.000000 -0.038026 0.002298 0.000000 -0.038376 0.001943 0.000000 -0.038685 0.001591 0.000000 -0.038913 0.001223 0.000000 -0.039095 0.000862 0.000000 -0.039199 0.000489 0.000000 -0.039252 0.000128 0.000000 -0.039233 -0.000241 0.000000 -0.039159 -0.000592 0.000000 -0.039020 -0.000949 0.000000 -0.038824 -0.001283 0.000000 -0.038570 -0.001619 0.000000 -0.038260 -0.001929 0.000000 -0.037901 -0.002238 0.000000 -0.037486 -0.002518 0.000000 -0.037033 -0.002794 0.000000 -0.036525 -0.003040 0.000000 -0.035990 -0.003280 0.000000 -0.035401 -0.003489 0.000000 -0.034797 -0.003689 0.000000 -0.034142 -0.003859 0.000000 -0.033483 -0.004019 0.000000 -0.032776 -0.004150 0.000000 -0.032074 -0.004270 0.000000 -0.031330 -0.004362 0.000000 -0.030600 -0.004443 0.000000 -0.029830 -0.004499 0.000000 -0.029084 -0.004544 0.000000 -0.028303 -0.004566 0.000000 -0.027552 -0.004578 0.000000 -0.026769 -0.004571 0.000000 -0.026023 -0.004553 0.000000 -0.025250 -0.004519 0.000000 -0.024518 -0.004476 0.000000 -0.023761 -0.004421 0.000000 -0.023050 -0.004356 0.000000 -0.022317 -0.004283 0.000000 -0.021632 -0.004201 0.000000 -0.020929 -0.004114 0.000000 -0.020275 -0.004019 0.000000 -0.019605 -0.003921 0.000000 -0.018985 -0.003816 0.000000 -0.018352 -0.003710 0.000000 -0.017768 -0.003598 0.000000 -0.017173 -0.003488 0.000000 -0.016626 -0.003371 0.000000 -0.016070 -0.003258 0.000000 -0.015562 -0.003140 0.000000 -0.015045 -0.003026 0.000000 -0.014575 -0.002906 0.000000 -0.014098 -0.002792 0.000000 -0.013665 -0.002673 0.000000 -0.013227 -0.002560 0.000000 -0.012831 -0.002443 0.000000 -0.012432 -0.002331 0.000000 -0.012072 -0.002215 0.000000 -0.011711 -0.002106 0.000000 -0.011387 -0.001991 0.000000 -0.011063 -0.001884 0.000000 -0.010773 -0.001770 0.000000 -0.010486 -0.001664 0.000000 -0.010230 -0.001552 0.000000 -0.009980 -0.001446 0.000000 -0.009758 -0.001335 0.000000 -0.009543 -0.001229 0.000000 -0.009355 -0.001117 0.000000 -0.009175 -0.001011 0.000000 -0.009021 -0.000898 0.000000 -0.008878 -0.000791 0.000000 -0.008758 -0.000676 0.000000 -0.008652 -0.000565 0.000000 -0.008568 -0.000447 0.000000 -0.008499 -0.000333 0.000000 -0.008451 -0.000211 0.000000 -0.008422 -0.000093 0.000000 -0.008411 0.000034 0.000000 -0.008423 0.000158 0.000000 -0.008452 0.000292 0.000000 -0.008507 0.000422 0.000000 -0.008578 0.000562 0.000000 -0.008678 0.000700 0.000000 -0.008793 0.000847 0.000000 -0.008941 0.000992 0.000000 -0.009104 0.001148 0.000000 -0.009301 0.001302 0.000000 -0.009514 0.001465 0.000000 -0.009765 0.001627 0.000000 -0.010031 0.001798 0.000000 -0.010339 0.001968 0.000000 -0.010661 0.002147 0.000000 -0.011027 0.002323 0.000000 -0.011407 0.002508 0.000000 -0.011836 0.002689 0.000000 -0.012276 0.002878 0.000000 -0.012768 0.003063 0.000000 -0.013271 0.003253 0.000000 -0.013828 0.003438 0.000000 -0.014394 0.003627 0.000000 -0.015015 0.003808 0.000000 -0.015643 0.003990 0.000000 -0.016327 0.004163 0.000000 -0.017016 0.004335 0.000000 -0.017760 0.004495 0.000000 -0.018505 0.004651 0.000000 -0.019305 0.004791 0.000000 -0.020101 0.004924 0.000000 -0.020949 0.005040 0.000000 -0.021787 0.005144 0.000000 -0.022673 0.005229 0.000000 -0.023543 0.005298 0.000000 -0.024457 0.005345 0.000000 -0.025346 0.005374 0.000000 -0.026273 0.005379 0.000000 -0.027167 0.005362 0.000000 -0.028091 0.005321 0.000000 -0.028974 0.005256 0.000000 -0.029878 0.005166 0.000000 -0.030733 0.005050 0.000000 -0.031599 0.004910 0.000000 -0.032408 0.004743 0.000000 -0.033218 0.004555 0.000000 -0.033963 0.004339 0.000000 -0.034701 0.004105 0.000000 
-0.035527 0.004503 0.000000 -0.036185 0.004182 0.000000 -0.036764 0.003830 0.000000 -0.037317 0.003469 0.000000 -0.037787 0.003081 0.000000 -0.038224 0.002688 0.000000 -0.038577 0.002273 0.000000 -0.038889 0.001860 0.000000 -0.039118 0.001427 0.000000 -0.039300 0.001005 0.000000 -0.039403 0.000566 0.000000 -0.039454 0.000144 0.000000 -0.039431 -0.000289 0.000000 -0.039354 -0.000700 0.000000 -0.039209 -0.001118 0.000000 -0.039007 -0.001509 0.000000 -0.038747 -0.001902 0.000000 -0.038429 -0.002265 0.000000 -0.038062 -0.002626 0.000000 -0.037639 -0.002953 0.000000 -0.037177 -0.003276 0.000000 -0.036660 -0.003563 0.000000 -0.036116 -0.003843 0.000000 -0.035519 -0.004086 0.000000 -0.034906 -0.004319 0.000000 -0.034242 -0.004516 0.000000 -0.033574 -0.004702 0.000000 -0.032860 -0.004853 0.000000 -0.032151 -0.004992 0.000000 -0.031399 -0.005098 0.000000 -0.030663 -0.005191 0.000000 -0.029888 -0.005255 0.000000 -0.029137 -0.005305 0.000000 -0.028351 -0.005330 0.000000 -0.027597 -0.005341 0.000000 -0.026812 -0.005331 0.000000 -0.026065 -0.005309 0.000000 -0.025289 -0.005268 0.000000 -0.024557 -0.005216 0.000000 -0.023801 -0.005150 0.000000 -0.023091 -0.005073 0.000000 -0.022359 -0.004987 0.000000 -0.021677 -0.004890 0.000000 -0.020976 -0.004787 0.000000 -0.020326 -0.004675 0.000000 -0.019659 -0.004560 0.000000 -0.019044 -0.004437 0.000000 -0.018414 -0.004313 0.000000 -0.017836 -0.004182 0.000000 -0.017245 -0.004053 0.000000 -0.016704 -0.003917 0.000000 -0.016152 -0.003785 0.000000 -0.015649 -0.003647 0.000000 -0.015138 -0.003514 0.000000 -0.014672 -0.003375 0.000000 -0.014201 -0.003242 0.000000 -0.013773 -0.003104 0.000000 -0.013340 -0.002973 0.000000 -0.012949 -0.002836 0.000000 -0.012554 -0.002707 0.000000 -0.012199 -0.002572 0.000000 -0.011842 -0.002445 0.000000 -0.011521 -0.002312 0.000000 -0.011201 -0.002187 0.000000 -0.010915 -0.002056 0.000000 -0.010630 -0.001933 0.000000 -0.010378 -0.001803 0.000000 -0.010129 -0.001681 0.000000 -0.009909 -0.001551 0.000000 -0.009696 -0.001429 0.000000 -0.009509 -0.001300 0.000000 -0.009331 -0.001177 0.000000 -0.009177 -0.001046 0.000000 -0.009035 -0.000921 0.000000 -0.008915 -0.000788 0.000000 -0.008808 -0.000661 0.000000 -0.008723 -0.000524 0.000000 -0.008653 -0.000392 0.000000 -0.008603 -0.000251 0.000000 -0.008572 -0.000114 0.000000 -0.008559 0.000033 0.000000 -0.008568 0.000177 0.000000 -0.008594 0.000331 0.000000 -0.008645 0.000482 0.000000 -0.008713 0.000644 0.000000 -0.008808 0.000804 0.000000 -0.008919 0.000975 0.000000 -0.009061 0.001144 0.000000 -0.009218 0.001324 0.000000 -0.009410 0.001502 0.000000 -0.009618 0.001692 0.000000 -0.009862 0.001880 0.000000 -0.010122 0.002080 0.000000 -0.010423 0.002277 0.000000 -0.010738 0.002485 0.000000 -0.011098 0.002690 0.000000 -0.011471 0.002906 0.000000 -0.011892 0.003117 0.000000 -0.012327 0.003338 0.000000 -0.012812 0.003554 0.000000 -0.013309 0.003777 0.000000 -0.013859 0.003993 0.000000 -0.014420 0.004214 0.000000 -0.015036 0.004426 0.000000 -0.015660 0.004641 0.000000 -0.016341 0.004844 0.000000 -0.017027 0.005046 0.000000 -0.017769 0.005235 0.000000 -0.018513 0.005418 0.000000 -0.019313 0.005585 0.000000 -0.020109 0.005742 0.000000 -0.020959 0.005879 0.000000 -0.021800 0.006003 0.000000 -0.022691 0.006104 0.000000 -0.023566 0.006187 0.000000 -0.024486 0.006245 0.000000 -0.025383 0.006281 0.000000 -0.026318 0.006289 0.000000 -0.027221 0.006271 0.000000 -0.028155 0.006225 0.000000 -0.029048 0.006150 0.000000 -0.029964 0.006046 0.000000 -0.030829 0.005911 0.000000 -0.031708 0.005748 0.000000 -0.032527 0.005553 0.000000 -0.033349 0.005334 0.000000 -0.034105 0.005081 0.000000 -0.034853 0.004808 0.000000 