# vtk DataFile Version 2.0
Comment goes here
ASCII

DATASET STRUCTURED_POINTS
DIMENSIONS    128   128   1

ORIGIN    0.000   0.000   0.000
SPACING   0.0078125 0.0078125   1.000

POINT_DATA   16384
SCALARS uMag double
LOOKUP_TABLE default

1.803007e-02 1.857952e-02 1.908027e-02 1.956552e-02 1.999882e-02 2.041047e-02 2.076814e-02 2.109870e-02 2.137455e-02 2.161864e-02 2.180868e-02 2.196320e-02 2.206565e-02 2.212978e-02 2.214511e-02 2.212025e-02 2.205098e-02 2.194058e-02 2.179112e-02 2.160042e-02 2.137679e-02 2.111257e-02 2.082206e-02 2.049226e-02 2.014311e-02 1.975651e-02 1.935757e-02 1.892341e-02 1.848378e-02 1.801145e-02 1.754017e-02 1.703887e-02 1.654467e-02 1.602318e-02 1.551423e-02 1.498070e-02 1.446443e-02 1.392622e-02 1.340925e-02 1.287281e-02 1.236084e-02 1.183172e-02 1.132955e-02 1.081234e-02 1.032387e-02 9.822299e-03 9.350592e-03 8.867551e-03 8.414931e-03 7.952583e-03 7.520717e-03 7.080596e-03 6.670600e-03 6.253716e-03 5.866264e-03 5.473212e-03 5.108637e-03 4.739702e-03 4.398094e-03 4.053342e-03 3.734639e-03 3.414009e-03 3.118075e-03 2.821456e-03 2.548154e-03 2.275455e-03 2.024707e-03 1.775914e-03 1.547756e-03 1.322988e-03 1.117614e-03 9.171615e-04 7.349637e-04 5.593274e-04 4.009241e-04 2.508443e-04 1.171055e-04 6.417118e-06 1.143524e-04 2.100427e-04 2.907575e-04 3.570600e-04 4.088588e-04 4.439422e-04 4.648612e-04 4.666344e-04 4.544641e-04 4.206065e-04 3.729299e-04 3.009383e-04 2.151861e-04 1.024415e-04 2.403127e-05 1.801754e-04 3.499903e-04 5.520951e-04 7.677262e-04 1.018129e-03 1.281753e-03 1.582404e-03 1.895729e-03 2.248005e-03 2.612077e-03 3.016578e-03 3.431574e-03 3.887914e-03 4.352935e-03 4.859535e-03 5.372409e-03 5.926307e-03 6.483420e-03 7.080124e-03 7.676301e-03 8.309693e-03 8.938143e-03 9.600465e-03 1.025281e-02 1.093474e-02 1.160113e-02 1.229195e-02 1.296130e-02 1.364917e-02 1.430949e-02 1.498182e-02 1.562057e-02 1.626446e-02 1.686906e-02 1.747177e-02 
1.805548e-02 1.860531e-02 1.910599e-02 1.959158e-02 2.002480e-02 2.043675e-02 2.079433e-02 2.112513e-02 2.140089e-02 2.164516e-02 2.183510e-02 2.198973e-02 2.209208e-02 2.215626e-02 2.217147e-02 2.214658e-02 2.207719e-02 2.196666e-02 2.181708e-02 2.162618e-02 2.140241e-02 2.113790e-02 2.084724e-02 2.051709e-02 2.016778e-02 1.978075e-02 1.938164e-02 1.894699e-02 1.850718e-02 1.803430e-02 1.756284e-02 1.706096e-02 1.656657e-02 1.604448e-02 1.553533e-02 1.500119e-02 1.448473e-02 1.394590e-02 1.342876e-02 1.289172e-02 1.237958e-02 1.184988e-02 1.134755e-02 1.082979e-02 1.034118e-02 9.839092e-03 9.367263e-03 8.883749e-03 8.431027e-03 7.968253e-03 7.536306e-03 7.095810e-03 6.685757e-03 6.268554e-03 5.881071e-03 5.487761e-03 5.123184e-03 4.754055e-03 4.412480e-03 4.067607e-03 3.748978e-03 3.428312e-03 3.132506e-03 2.835953e-03 2.562854e-03 2.290354e-03 2.039921e-03 1.791518e-03 1.563863e-03 1.339794e-03 1.135277e-03 9.361223e-04 7.555885e-04 5.827372e-04 4.285250e-04 2.870809e-04 1.730185e-04 1.160036e-04 1.543712e-04 2.295207e-04 3.018461e-04 3.640525e-04 4.134902e-04 4.473347e-04 4.677099e-04 4.695474e-04 4.581455e-04 4.258373e-04 3.811691e-04 3.146637e-04 2.405494e-04 1.601720e-04 1.426722e-04 2.396432e-04 3.921394e-04 5.857486e-04 7.974310e-04 1.045068e-03 1.307187e-03 1.606632e-03 1.919257e-03 2.270967e-03 2.634683e-03 3.038946e-03 3.453757e-03 3.910053e-03 4.374981e-03 4.881664e-03 5.394495e-03 5.948567e-03 6.505666e-03 7.102612e-03 7.698790e-03 8.332479e-03 8.960935e-03 9.623597e-03 1.027595e-02 1.095825e-02 1.162464e-02 1.231586e-02 1.298521e-02 1.367349e-02 1.433379e-02 1.500654e-02 1.564526e-02 1.628957e-02 1.689413e-02 1.749724e-02 
1.809504e-02 1.864262e-02 1.914133e-02 1.962481e-02 2.005618e-02 2.046620e-02 2.082210e-02 2.115117e-02 2.142545e-02 2.166824e-02 2.185693e-02 2.201036e-02 2.211173e-02 2.217498e-02 2.218949e-02 2.216398e-02 2.209418e-02 2.198334e-02 2.183362e-02 2.164271e-02 2.141908e-02 2.115486e-02 2.086460e-02 2.053499e-02 2.018632e-02 1.980009e-02 1.940182e-02 1.896820e-02 1.852942e-02 1.805778e-02 1.758749e-02 1.708703e-02 1.659394e-02 1.607342e-02 1.556567e-02 1.503322e-02 1.451824e-02 1.398120e-02 1.346558e-02 1.293040e-02 1.241982e-02 1.189204e-02 1.139127e-02 1.087547e-02 1.038841e-02 9.888286e-03 9.417990e-03 8.936440e-03 8.485221e-03 8.024397e-03 7.593914e-03 7.155344e-03 6.746713e-03 6.331408e-03 5.945304e-03 5.553862e-03 5.190625e-03 4.823340e-03 4.483075e-03 4.140034e-03 3.822701e-03 3.503876e-03 3.209376e-03 2.914711e-03 2.642972e-03 2.372471e-03 2.123526e-03 1.877346e-03 1.651444e-03 1.430034e-03 1.227814e-03 1.032199e-03 8.551295e-04 6.877339e-04 5.396641e-04 4.077318e-04 3.024261e-04 2.343421e-04 2.167784e-04 2.450200e-04 2.910561e-04 3.393342e-04 3.807004e-04 4.104321e-04 4.290699e-04 4.314296e-04 4.228032e-04 3.961583e-04 3.616958e-04 3.133100e-04 2.722398e-04 2.504928e-04 2.864642e-04 3.839377e-04 5.254268e-04 7.079016e-04 9.132007e-04 1.154626e-03 1.413216e-03 1.708624e-03 2.018908e-03 2.367556e-03 2.729445e-03 3.131108e-03 3.544300e-03 3.998212e-03 4.461580e-03 4.965966e-03 5.477219e-03 6.029012e-03 6.584473e-03 7.179121e-03 7.773580e-03 8.404935e-03 9.031585e-03 9.691873e-03 1.034233e-02 1.102222e-02 1.168664e-02 1.237542e-02 1.304273e-02 1.372857e-02 1.438678e-02 1.505710e-02 1.569371e-02 1.633561e-02 1.693808e-02 1.753885e-02 
1.818523e-02 1.873136e-02 1.922801e-02 1.971009e-02 2.013949e-02 2.054820e-02 2.090226e-02 2.123012e-02 2.150275e-02 2.174445e-02 2.193171e-02 2.208417e-02 2.218435e-02 2.224678e-02 2.226037e-02 2.223416e-02 2.216371e-02 2.205232e-02 2.190221e-02 2.171087e-02 2.148710e-02 2.122257e-02 2.093239e-02 2.060259e-02 2.025420e-02 1.986788e-02 1.947009e-02 1.903648e-02 1.859832e-02 1.812679e-02 1.765727e-02 1.715701e-02 1.666480e-02 1.614458e-02 1.563781e-02 1.510577e-02 1.459184e-02 1.405531e-02 1.354079e-02 1.300622e-02 1.249680e-02 1.196971e-02 1.147013e-02 1.095511e-02 1.046927e-02 9.970013e-03 9.500942e-03 9.020335e-03 8.570343e-03 8.110534e-03 7.681276e-03 7.243788e-03 6.836376e-03 6.422218e-03 6.037326e-03 5.647100e-03 5.285071e-03 4.919075e-03 4.580021e-03 4.238353e-03 3.922248e-03 3.604901e-03 3.311669e-03 3.018618e-03 2.748221e-03 2.479521e-03 2.232050e-03 1.987940e-03 1.763734e-03 1.544796e-03 1.344642e-03 1.152100e-03 9.776662e-04 8.141135e-04 6.691368e-04 5.406226e-04 4.344398e-04 3.557137e-04 3.082076e-04 2.962721e-04 3.076191e-04 3.329628e-04 3.596311e-04 3.813542e-04 3.962974e-04 3.989965e-04 3.948519e-04 3.775456e-04 3.597692e-04 3.381722e-04 3.362374e-04 3.593933e-04 4.262419e-04 5.339092e-04 6.767434e-04 8.556514e-04 1.058612e-03 1.296296e-03 1.552962e-03 1.845494e-03 2.154323e-03 2.500711e-03 2.861389e-03 3.261161e-03 3.673227e-03 4.125457e-03 4.587683e-03 5.090500e-03 5.600538e-03 6.150819e-03 6.704958e-03 7.298117e-03 7.891132e-03 8.521003e-03 9.146078e-03 9.804878e-03 1.045363e-02 1.113202e-02 1.179462e-02 1.248189e-02 1.314728e-02 1.383160e-02 1.448779e-02 1.515659e-02 1.579113e-02 1.643152e-02 1.703187e-02 1.763115e-02 
1.828969e-02 1.883171e-02 1.932434e-02 1.980252e-02 2.022812e-02 2.063320e-02 2.098377e-02 2.130838e-02 2.157792e-02 2.181679e-02 2.200143e-02 2.215155e-02 2.224964e-02 2.231025e-02 2.232232e-02 2.229483e-02 2.222343e-02 2.211130e-02 2.196081e-02 2.176926e-02 2.154565e-02 2.128141e-02 2.099190e-02 2.066285e-02 2.031559e-02 1.993046e-02 1.953418e-02 1.910215e-02 1.866585e-02 1.819624e-02 1.772886e-02 1.723083e-02 1.674099e-02 1.622326e-02 1.571904e-02 1.518970e-02 1.467846e-02 1.414481e-02 1.363307e-02 1.310153e-02 1.259492e-02 1.207096e-02 1.157421e-02 1.106239e-02 1.057935e-02 1.008334e-02 9.617022e-03 9.139662e-03 8.692355e-03 8.235772e-03 7.809109e-03 7.374806e-03 6.969884e-03 6.558850e-03 6.176331e-03 5.789150e-03 5.429369e-03 5.066329e-03 4.729388e-03 4.390575e-03 4.076440e-03 3.761835e-03 3.470419e-03 3.179981e-03 2.911225e-03 2.644983e-03 2.398938e-03 2.157072e-03 1.933994e-03 1.716956e-03 1.517431e-03 1.326109e-03 1.151277e-03 9.873130e-04 8.393201e-04 7.057641e-04 5.887291e-04 4.912084e-04 4.125085e-04 3.587758e-04 3.248069e-04 3.123256e-04 3.108738e-04 3.158983e-04 3.224439e-04 3.249955e-04 3.287452e-04 3.284095e-04 3.389559e-04 3.573720e-04 4.025955e-04 4.709527e-04 5.713698e-04 6.999098e-04 8.556237e-04 1.040718e-03 1.248336e-03 1.487165e-03 1.745542e-03 2.037353e-03 2.346574e-03 2.691372e-03 3.051668e-03 3.449325e-03 3.860441e-03 4.310168e-03 4.770969e-03 5.270957e-03 5.779140e-03 6.326302e-03 6.878188e-03 7.467966e-03 8.058356e-03 8.684609e-03 9.306716e-03 9.961687e-03 1.060716e-02 1.128154e-02 1.194058e-02 1.262370e-02 1.328528e-02 1.396535e-02 1.461755e-02 1.528204e-02 1.591246e-02 1.654854e-02 1.714472e-02 1.773975e-02 
1.844425e-02 1.898309e-02 1.947171e-02 1.994681e-02 2.036857e-02 2.077075e-02 2.111774e-02 2.143969e-02 2.170601e-02 2.194251e-02 2.212437e-02 2.227245e-02 2.236827e-02 2.242718e-02 2.243751e-02 2.240869e-02 2.233609e-02 2.222297e-02 2.207182e-02 2.187962e-02 2.165584e-02 2.139125e-02 2.110204e-02 2.077293e-02 2.042636e-02 2.004143e-02 1.964621e-02 1.921461e-02 1.877967e-02 1.831072e-02 1.784495e-02 1.734779e-02 1.685977e-02 1.634311e-02 1.584088e-02 1.531280e-02 1.480366e-02 1.427145e-02 1.376191e-02 1.323197e-02 1.272762e-02 1.220540e-02 1.171095e-02 1.120099e-02 1.072025e-02 1.022619e-02 9.762151e-03 9.286824e-03 8.841747e-03 8.387250e-03 7.962750e-03 7.530560e-03 7.127713e-03 6.718796e-03 6.338245e-03 5.953160e-03 5.595218e-03 5.234225e-03 4.898971e-03 4.562126e-03 4.249495e-03 3.936738e-03 3.646601e-03 3.357837e-03 3.090070e-03 2.825239e-03 2.579793e-03 2.338937e-03 2.115892e-03 1.899214e-03 1.698843e-03 1.506773e-03 1.329607e-03 1.162871e-03 1.009795e-03 8.695034e-04 7.418964e-04 6.296442e-04 5.295701e-04 4.473666e-04 3.774913e-04 3.266518e-04 2.884312e-04 2.661991e-04 2.563103e-04 2.562553e-04 2.712022e-04 2.948421e-04 3.401847e-04 3.986363e-04 4.825575e-04 5.840351e-04 7.103167e-04 8.578321e-04 1.028214e-03 1.223313e-03 1.439446e-03 1.683602e-03 1.947165e-03 2.241766e-03 2.554190e-03 2.900266e-03 3.262437e-03 3.660378e-03 4.072387e-03 4.521682e-03 4.982585e-03 5.481589e-03 5.989204e-03 6.534932e-03 7.085659e-03 7.673626e-03 8.262324e-03 8.886443e-03 9.506372e-03 1.015893e-02 1.080178e-02 1.147352e-02 1.212954e-02 1.280981e-02 1.346803e-02 1.414508e-02 1.479363e-02 1.545498e-02 1.608153e-02 1.671440e-02 1.730657e-02 1.789837e-02 
1.861337e-02 1.914625e-02 1.962880e-02 2.009819e-02 2.051413e-02 2.091097e-02 2.125259e-02 2.156970e-02 2.183123e-02 2.206351e-02 2.224132e-02 2.238588e-02 2.247846e-02 2.253463e-02 2.254259e-02 2.251182e-02 2.243774e-02 2.232346e-02 2.217170e-02 2.197910e-02 2.175554e-02 2.149126e-02 2.120300e-02 2.087485e-02 2.052991e-02 2.014653e-02 1.975349e-02 1.932397e-02 1.889168e-02 1.842526e-02 1.796253e-02 1.746830e-02 1.698362e-02 1.647022e-02 1.597154e-02 1.544701e-02 1.494157e-02 1.441314e-02 1.390738e-02 1.338138e-02 1.288084e-02 1.236269e-02 1.187202e-02 1.136619e-02 1.088916e-02 1.039925e-02 9.938814e-03 9.467604e-03 9.025977e-03 8.575518e-03 8.154279e-03 7.726001e-03 7.326192e-03 6.921014e-03 6.543240e-03 6.161672e-03 5.806206e-03 5.448453e-03 5.115325e-03 4.781376e-03 4.470458e-03 4.160168e-03 3.871245e-03 3.584405e-03 3.317230e-03 3.053618e-03 2.807958e-03 2.567377e-03 2.343038e-03 2.125326e-03 1.922153e-03 1.727170e-03 1.545017e-03 1.372579e-03 1.211223e-03 1.060973e-03 9.199725e-04 7.911609e-04 6.696516e-04 5.608842e-04 4.575322e-04 3.669622e-04 2.814599e-04 2.109641e-04 1.581434e-04 1.448898e-04 1.847659e-04 2.526781e-04 3.456704e-04 4.485269e-04 5.705048e-04 7.043398e-04 8.573857e-04 1.026703e-03 1.215571e-03 1.425079e-03 1.654068e-03 1.907637e-03 2.180179e-03 2.480754e-03 2.799376e-03 3.148964e-03 3.515242e-03 3.914851e-03 4.329313e-03 4.778837e-03 5.240827e-03 5.738889e-03 6.246418e-03 6.790224e-03 7.339829e-03 7.925032e-03 8.511677e-03 9.132300e-03 9.749331e-03 1.039775e-02 1.103694e-02 1.170399e-02 1.235566e-02 1.303077e-02 1.368404e-02 1.435555e-02 1.499866e-02 1.565418e-02 1.627491e-02 1.690178e-02 1.748788e-02 1.807365e-02 
1.883172e-02 1.935980e-02 1.983647e-02 2.030114e-02 2.071137e-02 2.110372e-02 2.143999e-02 2.175297e-02 2.200968e-02 2.223829e-02 2.241194e-02 2.255337e-02 2.264256e-02 2.269616e-02 2.270156e-02 2.266880e-02 2.259300e-02 2.247730e-02 2.232461e-02 2.213111e-02 2.190737e-02 2.164268e-02 2.135490e-02 2.102678e-02 2.068290e-02 2.029993e-02 1.990844e-02 1.947968e-02 1.904935e-02 1.858400e-02 1.812356e-02 1.763068e-02 1.714855e-02 1.663677e-02 1.614084e-02 1.561817e-02 1.511562e-02 1.458926e-02 1.408649e-02 1.356275e-02 1.306524e-02 1.254951e-02 1.206188e-02 1.155859e-02 1.108455e-02 1.059728e-02 1.013975e-02 9.671206e-03 9.232364e-03 8.784565e-03 8.365948e-03 7.940270e-03 7.542876e-03 7.140182e-03 6.764571e-03 6.385309e-03 6.031699e-03 5.676004e-03 5.344363e-03 5.012140e-03 4.702259e-03 4.393260e-03 4.104819e-03 3.818702e-03 3.551318e-03 3.287683e-03 3.040936e-03 2.799349e-03 2.572789e-03 2.352767e-03 2.145890e-03 1.946857e-03 1.759041e-03 1.580232e-03 1.410619e-03 1.250919e-03 1.098243e-03 9.559609e-04 8.183009e-04 6.908829e-04 5.654046e-04 4.491704e-04 3.320153e-04 2.223348e-04 1.107911e-04 3.809217e-05 1.326826e-04 2.490068e-04 3.790249e-04 5.136107e-04 6.629078e-04 8.212596e-04 9.961851e-04 1.184806e-03 1.391278e-03 1.615833e-03 1.858868e-03 2.124000e-03 2.407631e-03 2.716943e-03 3.044199e-03 3.400234e-03 3.773087e-03 4.177272e-03 4.596556e-03 5.049102e-03 5.514390e-03 6.014163e-03 6.523638e-03 7.068026e-03 7.618355e-03 8.203155e-03 8.789405e-03 9.408754e-03 1.002436e-02 1.067073e-02 1.130754e-02 1.197185e-02 1.262027e-02 1.329204e-02 1.394128e-02 1.460894e-02 1.524734e-02 1.589860e-02 1.651408e-02 1.713638e-02 1.771684e-02 1.829785e-02 
1.906512e-02 1.958546e-02 2.005401e-02 2.051111e-02 2.091346e-02 2.129865e-02 2.162755e-02 2.193400e-02 2.218413e-02 2.240703e-02 2.257509e-02 2.271177e-02 2.279651e-02 2.284640e-02 2.284857e-02 2.281318e-02 2.273538e-02 2.261811e-02 2.246462e-02 2.227055e-02 2.204710e-02 2.178277e-02 2.149627e-02 2.116932e-02 2.082756e-02 2.044647e-02 2.005780e-02 1.963154e-02 1.920459e-02 1.874227e-02 1.828563e-02 1.779623e-02 1.731820e-02 1.681026e-02 1.631864e-02 1.580010e-02 1.530199e-02 1.477999e-02 1.428169e-02 1.376247e-02 1.326941e-02 1.275830e-02 1.227501e-02 1.177638e-02 1.130654e-02 1.082388e-02 1.037036e-02 9.906334e-03 9.471242e-03 9.027792e-03 8.612621e-03 8.191053e-03 7.796747e-03 7.397849e-03 7.024909e-03 6.649047e-03 6.297625e-03 5.944843e-03 5.614826e-03 5.284924e-03 4.976006e-03 4.668609e-03 4.380348e-03 4.094959e-03 3.826816e-03 3.562844e-03 3.314205e-03 3.070975e-03 2.841145e-03 2.617880e-03 2.406053e-03 2.201828e-03 2.007027e-03 1.820682e-03 1.641666e-03 1.471693e-03 1.306837e-03 1.151246e-03 9.984199e-04 8.546415e-04 7.111932e-04 5.762418e-04 4.396063e-04 3.121110e-04 1.878045e-04 1.130948e-04 1.703492e-04 2.964091e-04 4.444215e-04 6.007654e-04 7.715886e-04 9.513763e-04 1.146871e-03 1.354735e-03 1.579672e-03 1.820728e-03 2.079762e-03 2.358578e-03 2.655714e-03 2.976038e-03 3.314421e-03 3.679025e-03 4.060799e-03 4.471353e-03 4.897524e-03 5.354464e-03 5.824760e-03 6.327147e-03 6.839879e-03 7.385265e-03 7.937207e-03 8.521528e-03 9.107836e-03 9.725349e-03 1.033954e-02 1.098283e-02 1.161684e-02 1.227694e-02 1.292126e-02 1.358780e-02 1.423178e-02 1.489333e-02 1.552546e-02 1.616990e-02 1.677827e-02 1.739322e-02 1.796597e-02 1.853931e-02 
1.934660e-02 1.986062e-02 2.032147e-02 2.077224e-02 2.116698e-02 2.154607e-02 2.186779e-02 2.216858e-02 2.241221e-02 2.263008e-02 2.279255e-02 2.292495e-02 2.300516e-02 2.305160e-02 2.305037e-02 2.301235e-02 2.293229e-02 2.281317e-02 2.265851e-02 2.246332e-02 2.223968e-02 2.197485e-02 2.168902e-02 2.136212e-02 2.102174e-02 2.064117e-02 2.025447e-02 1.982913e-02 1.940460e-02 1.894356e-02 1.848969e-02 1.800187e-02 1.752688e-02 1.702081e-02 1.653240e-02 1.601599e-02 1.552121e-02 1.500156e-02 1.450665e-02 1.398999e-02 1.350033e-02 1.299192e-02 1.251199e-02 1.201618e-02 1.154961e-02 1.106983e-02 1.061942e-02 1.015826e-02 9.726100e-03 9.285442e-03 8.872948e-03 8.454022e-03 8.062082e-03 7.665595e-03 7.294644e-03 6.920874e-03 6.570989e-03 6.219881e-03 5.890864e-03 5.562108e-03 5.253553e-03 4.946647e-03 4.657995e-03 4.372293e-03 4.102864e-03 3.837606e-03 3.586620e-03 3.340935e-03 3.107509e-03 2.880403e-03 2.663523e-03 2.453844e-03 2.252327e-03 2.058708e-03 1.871150e-03 1.691957e-03 1.516691e-03 1.350012e-03 1.185163e-03 1.028974e-03 8.728737e-04 7.259726e-04 5.793079e-04 4.465855e-04 3.271809e-04 2.604984e-04 2.814974e-04 3.846971e-04 5.304784e-04 6.960597e-04 8.801252e-04 1.075656e-03 1.287691e-03 1.512232e-03 1.753892e-03 2.010816e-03 2.285598e-03 2.578784e-03 2.890191e-03 3.223115e-03 3.574081e-03 3.949444e-03 4.342041e-03 4.761539e-03 5.196768e-03 5.660907e-03 6.138520e-03 6.646443e-03 7.164783e-03 7.714123e-03 8.269996e-03 8.856765e-03 9.445356e-03 1.006388e-02 1.067874e-02 1.132169e-02 1.195479e-02 1.261326e-02 1.325519e-02 1.391891e-02 1.455909e-02 1.521676e-02 1.584384e-02 1.648347e-02 1.708573e-02 1.769515e-02 1.826096e-02 1.882826e-02 
1.964392e-02 2.014844e-02 2.059910e-02 2.104036e-02 2.142503e-02 2.179501e-02 2.210721e-02 2.239963e-02 2.263472e-02 2.284526e-02 2.300047e-02 2.312679e-02 2.320125e-02 2.324298e-02 2.323762e-02 2.319629e-02 2.311373e-02 2.299267e-02 2.283705e-02 2.264117e-02 2.241797e-02 2.215356e-02 2.186937e-02 2.154385e-02 2.120610e-02 2.082772e-02 2.044442e-02 2.002193e-02 1.960138e-02 1.914372e-02 1.869424e-02 1.821023e-02 1.773988e-02 1.723797e-02 1.675434e-02 1.624234e-02 1.575239e-02 1.523735e-02 1.474722e-02 1.423528e-02 1.375030e-02 1.324668e-02 1.277126e-02 1.228022e-02 1.181794e-02 1.134284e-02 1.089644e-02 1.043981e-02 1.001133e-02 9.574952e-03 9.165750e-03 8.750778e-03 8.361679e-03 7.968727e-03 7.600098e-03 7.229349e-03 6.881191e-03 6.532485e-03 6.204513e-03 5.877425e-03 5.569134e-03 5.263037e-03 4.973755e-03 4.687866e-03 4.416788e-03 4.150194e-03 3.896399e-03 3.648073e-03 3.410531e-03 3.179322e-03 2.956885e-03 2.741507e-03 2.532895e-03 2.331915e-03 2.135717e-03 1.947575e-03 1.762312e-03 1.585449e-03 1.409833e-03 1.243170e-03 1.077007e-03 9.216381e-04 7.692221e-04 6.352949e-04 5.201506e-04 4.543656e-04 4.542703e-04 5.298832e-04 6.600945e-04 8.238954e-04 1.013628e-03 1.219824e-03 1.445194e-03 1.684406e-03 1.941860e-03 2.214317e-03 2.505243e-03 2.813449e-03 3.140342e-03 3.487091e-03 3.852346e-03 4.239986e-03 4.645370e-03 5.075413e-03 5.521743e-03 5.994599e-03 6.481506e-03 6.996272e-03 7.522012e-03 8.076298e-03 8.637608e-03 9.227418e-03 9.819429e-03 1.043910e-02 1.105533e-02 1.169754e-02 1.232996e-02 1.298587e-02 1.362510e-02 1.428455e-02 1.492010e-02 1.557191e-02 1.619261e-02 1.682502e-02 1.741939e-02 1.802049e-02 1.857723e-02 1.913543e-02 
1.998790e-02 2.048468e-02 2.092582e-02 2.135912e-02 2.173420e-02 2.209637e-02 2.239941e-02 2.268455e-02 2.291132e-02 2.311539e-02 2.326347e-02 2.338432e-02 2.345304e-02 2.349040e-02 2.348080e-02 2.343621e-02 2.335089e-02 2.322759e-02 2.307059e-02 2.287336e-02 2.265000e-02 2.238501e-02 2.210166e-02 2.177618e-02 2.144008e-02 2.106222e-02 2.068118e-02 2.025961e-02 1.984177e-02 1.938536e-02 1.893889e-02 1.845642e-02 1.798929e-02 1.748917e-02 1.700888e-02 1.649892e-02 1.601237e-02 1.549959e-02 1.501287e-02 1.450340e-02 1.402179e-02 1.352079e-02 1.304868e-02 1.256036e-02 1.210127e-02 1.162895e-02 1.118558e-02 1.073170e-02 1.030602e-02 9.872295e-03 9.465606e-03 9.053098e-03 8.666160e-03 8.275387e-03 7.908491e-03 7.539536e-03 7.192603e-03 6.845198e-03 6.517856e-03 6.191464e-03 5.883113e-03 5.576989e-03 5.286855e-03 5.000092e-03 4.727259e-03 4.458820e-03 4.202260e-03 3.950992e-03 3.709571e-03 3.474219e-03 3.246705e-03 3.025910e-03 2.810989e-03 2.603319e-03 2.399638e-03 2.203661e-03 2.009974e-03 1.824502e-03 1.640076e-03 1.464844e-03 1.290644e-03 1.128350e-03 9.707767e-04 8.337759e-04 7.168508e-04 6.457854e-04 6.302747e-04 6.849493e-04 7.981875e-04 9.550157e-04 1.144926e-03 1.357216e-03 1.592052e-03 1.843148e-03 2.114061e-03 2.400676e-03 2.706593e-03 3.029555e-03 3.371723e-03 3.732942e-03 4.113046e-03 4.514350e-03 4.933707e-03 5.376283e-03 5.835400e-03 6.319439e-03 6.817708e-03 7.342143e-03 7.877623e-03 8.439936e-03 9.009190e-03 9.605277e-03 1.020328e-02 1.082739e-02 1.144754e-02 1.209229e-02 1.272647e-02 1.338300e-02 1.402178e-02 1.467994e-02 1.531290e-02 1.596164e-02 1.657770e-02 1.720542e-02 1.779336e-02 1.838840e-02 1.893724e-02 1.948836e-02 
2.034892e-02 2.083444e-02 2.126320e-02 2.168493e-02 2.204753e-02 2.239842e-02 2.268955e-02 2.296426e-02 2.318028e-02 2.337521e-02 2.351418e-02 2.362749e-02 2.368906e-02 2.372065e-02 2.370600e-02 2.365743e-02 2.356915e-02 2.344357e-02 2.328556e-02 2.308758e-02 2.286490e-02 2.260045e-02 2.231918e-02 2.199530e-02 2.166237e-02 2.128695e-02 2.090986e-02 2.049137e-02 2.007799e-02 1.962513e-02 1.918344e-02 1.870488e-02 1.824266e-02 1.774671e-02 1.727136e-02 1.676576e-02 1.628406e-02 1.577578e-02 1.529379e-02 1.478889e-02 1.431182e-02 1.381543e-02 1.334764e-02 1.286390e-02 1.240887e-02 1.194102e-02 1.150141e-02 1.105183e-02 1.062955e-02 1.019987e-02 9.796188e-03 9.387369e-03 9.002976e-03 8.615451e-03 8.250572e-03 7.884323e-03 7.538804e-03 7.193465e-03 6.866855e-03 6.541783e-03 6.233399e-03 5.927746e-03 5.636724e-03 5.349479e-03 5.074820e-03 4.804847e-03 4.545440e-03 4.291506e-03 4.046155e-03 3.806946e-03 3.574391e-03 3.348544e-03 3.127503e-03 2.913664e-03 2.702926e-03 2.499890e-03 2.298537e-03 2.105578e-03 1.913515e-03 1.731227e-03 1.550541e-03 1.383000e-03 1.221601e-03 1.082179e-03 9.630058e-04 8.862688e-04 8.571904e-04 8.915919e-04 9.840343e-04 1.126805e-03 1.309783e-03 1.521994e-03 1.761613e-03 2.020969e-03 2.302927e-03 2.601918e-03 2.921966e-03 3.259138e-03 3.616788e-03 3.992767e-03 4.388676e-03 4.804505e-03 5.239317e-03 5.695652e-03 6.169382e-03 6.666019e-03 7.177663e-03 7.713218e-03 8.260487e-03 8.832164e-03 9.411304e-03 1.001475e-02 1.062045e-02 1.124970e-02 1.187508e-02 1.252258e-02 1.315933e-02 1.381610e-02 1.445467e-02 1.511054e-02 1.574047e-02 1.638447e-02 1.699482e-02 1.761555e-02 1.819535e-02 1.878149e-02 1.932021e-02 1.986096e-02 
2.075495e-02 2.123133e-02 2.164868e-02 2.206069e-02 2.241154e-02 2.275275e-02 2.303251e-02 2.329813e-02 2.350381e-02 2.369069e-02 2.382081e-02 2.392739e-02 2.398194e-02 2.400824e-02 2.398850e-02 2.393606e-02 2.384458e-02 2.371640e-02 2.355689e-02 2.335739e-02 2.313464e-02 2.286953e-02 2.258932e-02 2.226540e-02 2.193434e-02 2.155933e-02 2.118469e-02 2.076692e-02 2.035634e-02 1.990445e-02 1.946575e-02 1.898837e-02 1.852923e-02 1.803466e-02 1.756242e-02 1.705841e-02 1.657981e-02 1.607334e-02 1.559443e-02 1.509155e-02 1.461754e-02 1.412336e-02 1.365856e-02 1.317720e-02 1.272506e-02 1.225970e-02 1.182286e-02 1.137579e-02 1.095611e-02 1.052888e-02 1.012755e-02 9.721042e-03 9.338691e-03 8.953218e-03 8.589994e-03 8.225439e-03 7.881108e-03 7.536996e-03 7.211024e-03 6.886609e-03 6.578228e-03 6.272560e-03 5.980825e-03 5.692797e-03 5.416631e-03 5.145024e-03 4.883251e-03 4.626762e-03 4.378138e-03 4.135416e-03 3.898669e-03 3.668357e-03 3.442245e-03 3.223067e-03 3.006506e-03 2.797443e-03 2.589776e-03 2.390456e-03 2.192040e-03 2.003626e-03 1.817220e-03 1.644496e-03 1.478545e-03 1.334784e-03 1.210475e-03 1.125748e-03 1.083345e-03 1.099818e-03 1.172519e-03 1.299625e-03 1.472133e-03 1.680417e-03 1.920855e-03 2.185290e-03 2.475307e-03 2.784608e-03 3.116840e-03 3.467178e-03 3.839279e-03 4.229874e-03 4.641365e-03 5.072378e-03 5.523141e-03 5.994612e-03 6.484088e-03 6.995337e-03 7.522043e-03 8.071278e-03 8.632489e-03 9.216543e-03 9.808084e-03 1.042225e-02 1.103840e-02 1.167638e-02 1.230989e-02 1.296383e-02 1.360604e-02 1.426673e-02 1.490786e-02 1.556499e-02 1.619446e-02 1.683704e-02 1.744396e-02 1.806075e-02 1.863435e-02 1.921433e-02 1.974450e-02 2.027732e-02 
2.117977e-02 2.164300e-02 2.204560e-02 2.244369e-02 2.277933e-02 2.310677e-02 2.337183e-02 2.362463e-02 2.381702e-02 2.399268e-02 2.411160e-02 2.420901e-02 2.425487e-02 2.427427e-02 2.424856e-02 2.419150e-02 2.409668e-02 2.396600e-02 2.380555e-02 2.360535e-02 2.338367e-02 2.311932e-02 2.284175e-02 2.251969e-02 2.219239e-02 2.182004e-02 2.144985e-02 2.103526e-02 2.062951e-02 2.018114e-02 1.974739e-02 1.927374e-02 1.881950e-02 1.832881e-02 1.786131e-02 1.736128e-02 1.688724e-02 1.638483e-02 1.591025e-02 1.541151e-02 1.494160e-02 1.445160e-02 1.399069e-02 1.351351e-02 1.306504e-02 1.260381e-02 1.217039e-02 1.172735e-02 1.131080e-02 1.088740e-02 1.048888e-02 1.008592e-02 9.705994e-03 9.323695e-03 8.962450e-03 8.600595e-03 8.257726e-03 7.915746e-03 7.590647e-03 7.267703e-03 6.959535e-03 6.654589e-03 6.362340e-03 6.074211e-03 5.796745e-03 5.524152e-03 5.260250e-03 5.001853e-03 4.750251e-03 4.504692e-03 4.264136e-03 4.030101e-03 3.799425e-03 3.575753e-03 3.354032e-03 3.139921e-03 2.926775e-03 2.722208e-03 2.518423e-03 2.325059e-03 2.133924e-03 1.957009e-03 1.787143e-03 1.639415e-03 1.510011e-03 1.417402e-03 1.362281e-03 1.361035e-03 1.412610e-03 1.519903e-03 1.676341e-03 1.874469e-03 2.110159e-03 2.374723e-03 2.669014e-03 2.985457e-03 3.327778e-03 3.689563e-03 4.075326e-03 4.479907e-03 4.907184e-03 5.353561e-03 5.821238e-03 6.308627e-03 6.815390e-03 7.342458e-03 7.886180e-03 8.450564e-03 9.027920e-03 9.625911e-03 1.023214e-02 1.085850e-02 1.148729e-02 1.213521e-02 1.277873e-02 1.343989e-02 1.408899e-02 1.475377e-02 1.539825e-02 1.605609e-02 1.668513e-02 1.732493e-02 1.792760e-02 1.853825e-02 1.910403e-02 1.967488e-02 2.019413e-02 2.071543e-02 
2.164773e-02 2.210031e-02 2.248939e-02 2.287577e-02 2.319716e-02 2.351274e-02 2.376388e-02 2.400550e-02 2.418520e-02 2.435101e-02 2.445918e-02 2.454848e-02 2.458594e-02 2.459912e-02 2.456749e-02 2.450602e-02 2.440765e-02 2.427414e-02 2.411219e-02 2.391040e-02 2.368887e-02 2.342380e-02 2.314757e-02 2.282536e-02 2.250016e-02 2.212796e-02 2.176030e-02 2.134602e-02 2.094296e-02 2.049499e-02 2.006392e-02 1.959075e-02 1.913914e-02 1.864905e-02 1.818410e-02 1.768487e-02 1.721332e-02 1.671195e-02 1.623984e-02 1.574244e-02 1.527501e-02 1.478665e-02 1.432826e-02 1.385301e-02 1.340708e-02 1.294802e-02 1.251714e-02 1.207644e-02 1.166239e-02 1.124141e-02 1.084528e-02 1.044470e-02 1.006698e-02 9.686924e-03 9.327617e-03 8.967745e-03 8.626461e-03 8.286097e-03 7.962145e-03 7.640349e-03 7.332809e-03 7.028450e-03 6.736239e-03 6.448057e-03 6.169978e-03 5.896629e-03 5.631418e-03 5.371523e-03 5.117894e-03 4.870082e-03 4.626791e-03 4.389776e-03 4.155706e-03 3.928407e-03 3.702743e-03 3.484500e-03 3.267038e-03 3.058050e-03 2.849813e-03 2.651984e-03 2.456455e-03 2.275097e-03 2.100626e-03 1.947635e-03 1.811529e-03 1.709692e-03 1.641362e-03 1.623005e-03 1.654004e-03 1.740985e-03 1.879051e-03 2.063839e-03 2.290775e-03 2.551852e-03 2.846698e-03 3.167432e-03 3.517018e-03 3.888379e-03 4.285920e-03 4.703558e-03 5.145609e-03 5.607295e-03 6.091683e-03 6.595752e-03 7.120351e-03 7.664764e-03 8.226749e-03 8.808510e-03 9.403890e-03 1.001867e-02 1.064200e-02 1.128394e-02 1.192822e-02 1.258986e-02 1.324655e-02 1.391896e-02 1.457824e-02 1.525124e-02 1.590233e-02 1.656494e-02 1.719663e-02 1.783753e-02 1.843874e-02 1.904685e-02 1.960719e-02 2.017215e-02 2.068245e-02 2.119509e-02 
2.213689e-02 2.257418e-02 2.294577e-02 2.331548e-02 2.361841e-02 2.391721e-02 2.415034e-02 2.437627e-02 2.453965e-02 2.469180e-02 2.478633e-02 2.486462e-02 2.489171e-02 2.489682e-02 2.485829e-02 2.479165e-02 2.468972e-02 2.455361e-02 2.439103e-02 2.418878e-02 2.396895e-02 2.370501e-02 2.343215e-02 2.311215e-02 2.279138e-02 2.242202e-02 2.205930e-02 2.164818e-02 2.125017e-02 2.080546e-02 2.037929e-02 1.990940e-02 1.946238e-02 1.897556e-02 1.851486e-02 1.801892e-02 1.755130e-02 1.705330e-02 1.658487e-02 1.609094e-02 1.562701e-02 1.514227e-02 1.468723e-02 1.421574e-02 1.377307e-02 1.331786e-02 1.289014e-02 1.245333e-02 1.204233e-02 1.162520e-02 1.123196e-02 1.083510e-02 1.046004e-02 1.008346e-02 9.726521e-03 9.369795e-03 9.030503e-03 8.692846e-03 8.370439e-03 8.050817e-03 7.744305e-03 7.441508e-03 7.149745e-03 6.862448e-03 6.584188e-03 6.311001e-03 6.044949e-03 5.784468e-03 5.529331e-03 5.280192e-03 5.034746e-03 4.795705e-03 4.558897e-03 4.328960e-03 4.100084e-03 3.878732e-03 3.657742e-03 3.445355e-03 3.233459e-03 3.032102e-03 2.832860e-03 2.647759e-03 2.469101e-03 2.311185e-03 2.168564e-03 2.057720e-03 1.976592e-03 1.941297e-03 1.951272e-03 2.015660e-03 2.131524e-03 2.297573e-03 2.510082e-03 2.761872e-03 3.052305e-03 3.372796e-03 3.726231e-03 4.104164e-03 4.511568e-03 4.940583e-03 5.396743e-03 5.873132e-03 6.374582e-03 6.895578e-03 7.439187e-03 8.001861e-03 8.583935e-03 9.184483e-03 9.800189e-03 1.043349e-02 1.107651e-02 1.173586e-02 1.239829e-02 1.307538e-02 1.374774e-02 1.443276e-02 1.510429e-02 1.578629e-02 1.644540e-02 1.711274e-02 1.774762e-02 1.838860e-02 1.898785e-02 1.959133e-02 2.014467e-02 2.070063e-02 2.119940e-02 2.169938e-02 