# vtk DataFile Version 2.0
Comment goes here
ASCII

DATASET STRUCTURED_POINTS
DIMENSIONS    128   128   1

ORIGIN    0.000   0.000   0.000
SPACING   0.00781250.0078125   1.000

POINT_DATA   16384
SCALARS uMag double
LOOKUP_TABLE default

1.821653e-02 1.876714e-02 1.926875e-02 1.975464e-02 2.018829e-02 2.060005e-02 2.095754e-02 2.128768e-02 2.156284e-02 2.180599e-02 2.199485e-02 2.214793e-02 2.224873e-02 2.231096e-02 2.232421e-02 2.229702e-02 2.222527e-02 2.211215e-02 2.195987e-02 2.176612e-02 2.153936e-02 2.127182e-02 2.097794e-02 2.064458e-02 2.029188e-02 1.990155e-02 1.949892e-02 1.906091e-02 1.861750e-02 1.814125e-02 1.766615e-02 1.716093e-02 1.666291e-02 1.613753e-02 1.562481e-02 1.508745e-02 1.456750e-02 1.402556e-02 1.350503e-02 1.296501e-02 1.244963e-02 1.191708e-02 1.141167e-02 1.089122e-02 1.039969e-02 9.895083e-03 9.420527e-03 8.934664e-03 8.479411e-03 8.014468e-03 7.580193e-03 7.137712e-03 6.725539e-03 6.306536e-03 5.917143e-03 5.522218e-03 5.155940e-03 4.785378e-03 4.442309e-03 4.096180e-03 3.776257e-03 3.454500e-03 3.157589e-03 2.860095e-03 2.586060e-03 2.312736e-03 2.061499e-03 1.812334e-03 1.583933e-03 1.359044e-03 1.153673e-03 9.533538e-04 7.714054e-04 5.961566e-04 4.382508e-04 2.888138e-04 1.558221e-04 3.319839e-05 7.373900e-05 1.682734e-04 2.477385e-04 3.126274e-04 3.629242e-04 3.963363e-04 4.155010e-04 4.153462e-04 4.011706e-04 3.651301e-04 3.151997e-04 2.407742e-04 1.525241e-04 3.710019e-05 9.210789e-05 2.511684e-04 4.239464e-04 6.291932e-04 8.480022e-04 1.101757e-03 1.368758e-03 1.672951e-03 1.989829e-03 2.345815e-03 2.713589e-03 3.121938e-03 3.540754e-03 4.001045e-03 4.469967e-03 4.980579e-03 5.497393e-03 6.055318e-03 6.616362e-03 7.217057e-03 7.817102e-03 8.454395e-03 9.086594e-03 9.752668e-03 1.040858e-02 1.109405e-02 1.176378e-02 1.245787e-02 1.313026e-02 1.382108e-02 1.448408e-02 1.515898e-02 1.580002e-02 1.644604e-02 1.705249e-02 1.765686e-02 
1.824201e-02 1.879300e-02 1.929454e-02 1.978076e-02 2.021433e-02 2.062638e-02 2.098378e-02 2.131416e-02 2.158922e-02 2.183255e-02 2.202129e-02 2.217449e-02 2.227518e-02 2.233745e-02 2.235057e-02 2.232334e-02 2.225146e-02 2.213823e-02 2.198580e-02 2.179186e-02 2.156495e-02 2.129712e-02 2.100308e-02 2.066938e-02 2.031650e-02 1.992575e-02 1.952293e-02 1.908444e-02 1.864084e-02 1.816406e-02 1.768877e-02 1.718297e-02 1.668476e-02 1.615878e-02 1.564587e-02 1.510790e-02 1.458777e-02 1.404522e-02 1.352451e-02 1.298389e-02 1.246834e-02 1.193521e-02 1.142964e-02 1.090865e-02 1.041698e-02 9.911864e-03 9.437185e-03 8.950852e-03 8.495497e-03 8.030130e-03 7.595774e-03 7.152919e-03 6.740687e-03 6.321364e-03 5.931937e-03 5.536749e-03 5.170465e-03 4.799704e-03 4.456660e-03 4.110400e-03 3.790542e-03 3.468733e-03 3.171937e-03 2.874484e-03 2.600629e-03 2.327468e-03 2.076510e-03 1.827676e-03 1.599713e-03 1.375424e-03 1.170786e-03 9.715645e-04 7.909972e-04 6.180182e-04 4.633859e-04 3.203569e-04 2.004852e-04 1.190696e-04 1.258203e-04 1.910505e-04 2.599216e-04 3.199873e-04 3.676152e-04 3.996779e-04 4.182754e-04 4.182505e-04 4.050056e-04 3.708609e-04 3.246732e-04 2.575871e-04 1.866375e-04 1.290492e-04 1.687769e-04 2.973337e-04 4.598948e-04 6.594166e-04 8.754558e-04 1.127149e-03 1.393041e-03 1.696313e-03 2.012676e-03 2.368240e-03 2.735765e-03 3.143959e-03 3.562659e-03 4.022959e-03 4.491836e-03 5.002567e-03 5.519373e-03 6.077499e-03 6.638555e-03 7.239512e-03 7.839579e-03 8.477183e-03 9.109405e-03 9.775829e-03 1.043176e-02 1.111761e-02 1.178735e-02 1.248185e-02 1.315424e-02 1.384547e-02 1.450846e-02 1.518378e-02 1.582479e-02 1.647123e-02 1.707763e-02 1.768241e-02 
1.828165e-02 1.883041e-02 1.932999e-02 1.981412e-02 2.024585e-02 2.065599e-02 2.101172e-02 2.134038e-02 2.161398e-02 2.185584e-02 2.204335e-02 2.219534e-02 2.229506e-02 2.235642e-02 2.236885e-02 2.234101e-02 2.226872e-02 2.215518e-02 2.200264e-02 2.180868e-02 2.158193e-02 2.131438e-02 2.102075e-02 2.068759e-02 2.033535e-02 1.994540e-02 1.954344e-02 1.910598e-02 1.866340e-02 1.818785e-02 1.771374e-02 1.720935e-02 1.671245e-02 1.618802e-02 1.567651e-02 1.514022e-02 1.462156e-02 1.408080e-02 1.356161e-02 1.302284e-02 1.250884e-02 1.197763e-02 1.147361e-02 1.095456e-02 1.046444e-02 9.961269e-03 9.488114e-03 9.003731e-03 8.549865e-03 8.086432e-03 7.653526e-03 7.212578e-03 6.801751e-03 6.384304e-03 5.996234e-03 5.602890e-03 5.237919e-03 4.868971e-03 4.527203e-03 4.182737e-03 3.864130e-03 3.544112e-03 3.248563e-03 2.952931e-03 2.680356e-03 2.409097e-03 2.159512e-03 1.912755e-03 1.686369e-03 1.464504e-03 1.261866e-03 1.065766e-03 8.881055e-04 7.197389e-04 5.700691e-04 4.348711e-04 3.231009e-04 2.415854e-04 2.044328e-04 2.162296e-04 2.533550e-04 2.969520e-04 3.353435e-04 3.628224e-04 3.795883e-04 3.802860e-04 3.704125e-04 3.431333e-04 3.096387e-04 2.660094e-04 2.381558e-04 2.444353e-04 3.108173e-04 4.303544e-04 5.840075e-04 7.749487e-04 9.862154e-04 1.232911e-03 1.496026e-03 1.795873e-03 2.110295e-03 2.463149e-03 2.829083e-03 3.234899e-03 3.652134e-03 4.110199e-03 4.577623e-03 5.086165e-03 5.601470e-03 6.157398e-03 6.716874e-03 7.315597e-03 7.913991e-03 8.549313e-03 9.179766e-03 9.843859e-03 1.049793e-02 1.118141e-02 1.184920e-02 1.254129e-02 1.321167e-02 1.390048e-02 1.456141e-02 1.523431e-02 1.587324e-02 1.651730e-02 1.712162e-02 1.772407e-02 
1.837208e-02 1.891940e-02 1.941693e-02 1.989968e-02 2.032944e-02 2.073826e-02 2.109216e-02 2.141961e-02 2.169155e-02 2.193232e-02 2.211840e-02 2.226943e-02 2.236795e-02 2.242848e-02 2.243998e-02 2.241145e-02 2.233851e-02 2.222441e-02 2.207146e-02 2.187709e-02 2.165018e-02 2.138233e-02 2.108877e-02 2.075542e-02 2.040346e-02 2.001343e-02 1.961192e-02 1.917448e-02 1.873253e-02 1.825709e-02 1.778374e-02 1.727956e-02 1.678352e-02 1.625941e-02 1.574887e-02 1.521299e-02 1.469538e-02 1.415512e-02 1.363704e-02 1.309888e-02 1.258603e-02 1.205551e-02 1.155268e-02 1.103441e-02 1.054549e-02 1.004319e-02 9.571245e-03 9.087798e-03 8.635148e-03 8.172719e-03 7.741021e-03 7.301140e-03 6.891511e-03 6.475191e-03 6.088307e-03 5.696149e-03 5.332354e-03 4.964655e-03 4.624057e-03 4.280911e-03 3.963477e-03 3.644867e-03 3.350510e-03 3.056396e-03 2.785060e-03 2.515469e-03 2.267210e-03 2.022333e-03 1.797428e-03 1.577750e-03 1.376853e-03 1.183391e-03 1.007866e-03 8.427011e-04 6.954794e-04 5.632567e-04 4.513821e-04 3.633748e-04 3.031245e-04 2.768659e-04 2.763500e-04 2.937805e-04 3.153641e-04 3.338301e-04 3.466039e-04 3.479857e-04 3.436814e-04 3.278808e-04 3.147952e-04 3.034068e-04 3.182601e-04 3.638283e-04 4.506171e-04 5.747576e-04 7.288178e-04 9.167938e-04 1.126541e-03 1.370355e-03 1.632199e-03 1.929765e-03 2.243171e-03 2.594162e-03 2.959185e-03 3.363385e-03 3.779706e-03 4.236288e-03 4.702727e-03 5.209849e-03 5.724060e-03 6.278589e-03 6.836840e-03 7.434164e-03 8.031191e-03 8.665101e-03 9.294044e-03 9.956707e-03 1.060913e-02 1.129116e-02 1.195717e-02 1.264779e-02 1.331628e-02 1.400361e-02 1.466255e-02 1.533396e-02 1.597083e-02 1.661340e-02 1.721563e-02 1.781660e-02 
1.847677e-02 1.902001e-02 1.951355e-02 1.999242e-02 2.041840e-02 2.082363e-02 2.117406e-02 2.149828e-02 2.176715e-02 2.200511e-02 2.218858e-02 2.233729e-02 2.243374e-02 2.249246e-02 2.250245e-02 2.247265e-02 2.239877e-02 2.228394e-02 2.213063e-02 2.193604e-02 2.170931e-02 2.144174e-02 2.114886e-02 2.081627e-02 2.046545e-02 2.007659e-02 1.967661e-02 1.924073e-02 1.880065e-02 1.832712e-02 1.785592e-02 1.735395e-02 1.686029e-02 1.633865e-02 1.583066e-02 1.529748e-02 1.478254e-02 1.424516e-02 1.372984e-02 1.319469e-02 1.268464e-02 1.215724e-02 1.165722e-02 1.114213e-02 1.065601e-02 1.015692e-02 9.687716e-03 9.207490e-03 8.757502e-03 8.298271e-03 7.869140e-03 7.432412e-03 7.025239e-03 6.612004e-03 6.227452e-03 5.838295e-03 5.476697e-03 5.111900e-03 4.773353e-03 4.432994e-03 4.117455e-03 3.801502e-03 3.508867e-03 3.217259e-03 2.947445e-03 2.680175e-03 2.433192e-03 2.190384e-03 1.966416e-03 1.748420e-03 1.547925e-03 1.355439e-03 1.179303e-03 1.013591e-03 8.634308e-04 7.267462e-04 6.055473e-04 5.019404e-04 4.151234e-04 3.507855e-04 3.048493e-04 2.810276e-04 2.703879e-04 2.693620e-04 2.725545e-04 2.743526e-04 2.804154e-04 2.860036e-04 3.069983e-04 3.403563e-04 4.019633e-04 4.869311e-04 6.007190e-04 7.410286e-04 9.056876e-04 1.098850e-03 1.312969e-03 1.557997e-03 1.821724e-03 2.118841e-03 2.432874e-03 2.782546e-03 3.147399e-03 3.549715e-03 3.965263e-03 4.419532e-03 4.884689e-03 5.389137e-03 5.901611e-03 6.453151e-03 7.009247e-03 7.603298e-03 8.197784e-03 8.828167e-03 9.454213e-03 1.011313e-02 1.076233e-02 1.144042e-02 1.210292e-02 1.278945e-02 1.345419e-02 1.413732e-02 1.479231e-02 1.545946e-02 1.609225e-02 1.673055e-02 1.732865e-02 1.792541e-02 
1.863175e-02 1.917183e-02 1.966137e-02 2.013719e-02 2.055933e-02 2.096168e-02 2.130853e-02 2.163010e-02 2.189576e-02 2.213135e-02 2.231205e-02 2.245871e-02 2.255289e-02 2.260992e-02 2.261816e-02 2.258703e-02 2.251195e-02 2.239613e-02 2.224215e-02 2.204691e-02 2.182000e-02 2.155209e-02 2.125950e-02 2.092684e-02 2.057671e-02 2.018806e-02 1.978912e-02 1.935369e-02 1.891495e-02 1.844209e-02 1.797249e-02 1.747139e-02 1.697955e-02 1.645898e-02 1.595296e-02 1.542105e-02 1.490821e-02 1.437226e-02 1.385914e-02 1.332558e-02 1.281779e-02 1.229212e-02 1.179439e-02 1.128115e-02 1.079731e-02 1.030017e-02 9.833221e-03 9.355014e-03 8.907234e-03 8.450068e-03 8.023074e-03 7.588432e-03 7.183301e-03 6.772149e-03 6.389525e-03 6.002419e-03 5.642611e-03 5.279806e-03 4.942886e-03 4.604426e-03 4.290317e-03 3.976126e-03 3.684679e-03 3.394638e-03 3.125702e-03 2.859712e-03 2.613194e-03 2.371238e-03 2.147148e-03 1.929336e-03 1.727832e-03 1.534436e-03 1.355855e-03 1.187332e-03 1.032213e-03 8.892034e-04 7.583059e-04 6.415936e-04 5.359268e-04 4.463344e-04 3.672829e-04 3.055732e-04 2.554698e-04 2.228423e-04 2.062836e-04 2.059927e-04 2.277951e-04 2.634121e-04 3.231210e-04 3.965394e-04 4.934867e-04 6.071328e-04 7.431572e-04 8.997997e-04 1.077587e-03 1.279840e-03 1.502029e-03 1.752204e-03 2.021085e-03 2.321071e-03 2.638412e-03 2.989519e-03 3.356390e-03 3.759157e-03 4.175741e-03 4.629734e-03 5.095128e-03 5.598732e-03 6.110759e-03 6.660988e-03 7.216032e-03 7.808380e-03 8.401269e-03 9.029613e-03 9.653565e-03 1.031015e-02 1.095681e-02 1.163232e-02 1.229187e-02 1.297561e-02 1.363704e-02 1.431721e-02 1.496860e-02 1.563266e-02 1.626162e-02 1.689674e-02 1.749086e-02 1.808442e-02 
1.880126e-02 1.933543e-02 1.981895e-02 2.028907e-02 2.070545e-02 2.110248e-02 2.144399e-02 2.176074e-02 2.202164e-02 2.225303e-02 2.242970e-02 2.257287e-02 2.266383e-02 2.271813e-02 2.272402e-02 2.269095e-02 2.261441e-02 2.249743e-02 2.234286e-02 2.214722e-02 2.192055e-02 2.165295e-02 2.136132e-02 2.102963e-02 2.068112e-02 2.029401e-02 1.989727e-02 1.946390e-02 1.902782e-02 1.855748e-02 1.809092e-02 1.759274e-02 1.710423e-02 1.658691e-02 1.608444e-02 1.555605e-02 1.504691e-02 1.451471e-02 1.400536e-02 1.347573e-02 1.297173e-02 1.245010e-02 1.195614e-02 1.144701e-02 1.096685e-02 1.047383e-02 1.001046e-02 9.536340e-03 9.091978e-03 8.638814e-03 8.215044e-03 7.784273e-03 7.382137e-03 6.974676e-03 6.594779e-03 6.211136e-03 5.853746e-03 5.494117e-03 5.159256e-03 4.823618e-03 4.511144e-03 4.199337e-03 3.909015e-03 3.620803e-03 3.352359e-03 3.087486e-03 2.840649e-03 2.598864e-03 2.373382e-03 2.154452e-03 1.950086e-03 1.753762e-03 1.570239e-03 1.396178e-03 1.233088e-03 1.080694e-03 9.373066e-04 8.054738e-04 6.804648e-04 5.672292e-04 4.584292e-04 3.608140e-04 2.658419e-04 1.824436e-04 1.120898e-04 9.610656e-05 1.576550e-04 2.442010e-04 3.501237e-04 4.637427e-04 5.940988e-04 7.360149e-04 8.957602e-04 1.071861e-03 1.266562e-03 1.482077e-03 1.716383e-03 1.975467e-03 2.253013e-03 2.558790e-03 2.882226e-03 3.236818e-03 3.607794e-03 4.012279e-03 4.431362e-03 4.885666e-03 5.352214e-03 5.854972e-03 6.366988e-03 6.915392e-03 7.469392e-03 8.059072e-03 8.649984e-03 9.274923e-03 9.896050e-03 1.054859e-02 1.119165e-02 1.186255e-02 1.251782e-02 1.319647e-02 1.385302e-02 1.452771e-02 1.517371e-02 1.583201e-02 1.645519e-02 1.708438e-02 1.767247e-02 1.826004e-02 
1.902022e-02 1.954961e-02 2.002727e-02 2.049271e-02 2.090339e-02 2.129595e-02 2.163212e-02 2.194476e-02 2.220085e-02 2.242858e-02 2.260109e-02 2.274112e-02 2.282870e-02 2.288043e-02 2.288377e-02 2.284871e-02 2.277044e-02 2.265204e-02 2.249654e-02 2.230001e-02 2.207314e-02 2.180513e-02 2.151399e-02 2.118232e-02 2.083487e-02 2.044817e-02 2.005298e-02 1.962036e-02 1.918624e-02 1.871697e-02 1.825269e-02 1.775586e-02 1.726989e-02 1.675419e-02 1.625446e-02 1.572793e-02 1.522167e-02 1.469154e-02 1.418516e-02 1.365779e-02 1.315681e-02 1.263760e-02 1.214664e-02 1.164005e-02 1.116286e-02 1.067246e-02 1.021197e-02 9.740499e-03 9.298893e-03 8.848364e-03 8.427182e-03 7.998978e-03 7.599218e-03 7.194201e-03 6.816421e-03 6.435036e-03 6.079449e-03 5.721821e-03 5.388384e-03 5.054407e-03 4.742899e-03 4.432307e-03 4.142389e-03 3.854816e-03 3.586079e-03 3.321092e-03 3.073083e-03 2.830207e-03 2.602429e-03 2.381124e-03 2.173012e-03 1.972628e-03 1.783481e-03 1.603158e-03 1.432017e-03 1.270525e-03 1.115998e-03 9.715143e-04 8.315371e-04 7.013667e-04 5.729342e-04 4.532435e-04 3.321950e-04 2.179149e-04 9.915784e-05 2.271226e-05 1.417311e-04 2.656913e-04 4.009025e-04 5.411938e-04 6.953592e-04 8.591603e-04 1.038910e-03 1.232836e-03 1.444091e-03 1.673823e-03 1.921594e-03 2.191794e-03 2.480123e-03 2.794418e-03 3.126342e-03 3.487296e-03 3.864798e-03 4.273851e-03 4.697763e-03 5.155126e-03 5.625012e-03 6.129541e-03 6.643561e-03 7.192621e-03 7.747413e-03 8.336769e-03 8.927357e-03 9.551105e-03 1.017088e-02 1.082144e-02 1.146220e-02 1.213044e-02 1.278252e-02 1.345791e-02 1.411048e-02 1.478139e-02 1.542274e-02 1.607682e-02 1.669481e-02 1.731947e-02 1.790196e-02 1.848482e-02 
1.925418e-02 1.977588e-02 2.024548e-02 2.070338e-02 2.110623e-02 2.149166e-02 2.182051e-02 2.212665e-02 2.237619e-02 2.259824e-02 2.276519e-02 2.290050e-02 2.298365e-02 2.303170e-02 2.303182e-02 2.299415e-02 2.291390e-02 2.279394e-02 2.263765e-02 2.244056e-02 2.221401e-02 2.194635e-02 2.165649e-02 2.132599e-02 2.098067e-02 2.059584e-02 2.020348e-02 1.977335e-02 1.934260e-02 1.887635e-02 1.841587e-02 1.792250e-02 1.744063e-02 1.692875e-02 1.643332e-02 1.591090e-02 1.540906e-02 1.488327e-02 1.438134e-02 1.385847e-02 1.336191e-02 1.284729e-02 1.236066e-02 1.185869e-02 1.138568e-02 1.089986e-02 1.044334e-02 9.976352e-03 9.538460e-03 9.092238e-03 8.674461e-03 8.250322e-03 7.853604e-03 7.452333e-03 7.077172e-03 6.699132e-03 6.345674e-03 5.990900e-03 5.659023e-03 5.327303e-03 5.016689e-03 4.707632e-03 4.417823e-03 4.130910e-03 3.861346e-03 3.595960e-03 3.346000e-03 3.101435e-03 2.870350e-03 2.645793e-03 2.432742e-03 2.227223e-03 2.031189e-03 1.843508e-03 1.663216e-03 1.491840e-03 1.325658e-03 1.168618e-03 1.014492e-03 8.693893e-04 7.250018e-04 5.895219e-04 4.537112e-04 3.297407e-04 2.168256e-04 1.645005e-04 2.188192e-04 3.377673e-04 4.833636e-04 6.407667e-04 8.134306e-04 9.963865e-04 1.195056e-03 1.406872e-03 1.635579e-03 1.880960e-03 2.144086e-03 2.427433e-03 2.728855e-03 3.053830e-03 3.396628e-03 3.765956e-03 4.152229e-03 4.567548e-03 4.998269e-03 5.459985e-03 5.934847e-03 6.441992e-03 6.959270e-03 7.509358e-03 8.065786e-03 8.654710e-03 9.245395e-03 9.867365e-03 1.048577e-02 1.113332e-02 1.177133e-02 1.243543e-02 1.308348e-02 1.375370e-02 1.440108e-02 1.506594e-02 1.570108e-02 1.634840e-02 1.695934e-02 1.757671e-02 1.815154e-02 1.872679e-02 
1.953648e-02 2.005190e-02 2.051382e-02 2.096543e-02 2.136069e-02 2.174004e-02 2.206172e-02 2.236222e-02 2.260527e-02 2.282230e-02 2.298367e-02 2.311471e-02 2.319333e-02 2.323792e-02 2.323465e-02 2.319434e-02 2.311184e-02 2.299004e-02 2.283257e-02 2.263435e-02 2.240760e-02 2.213945e-02 2.185026e-02 2.151980e-02 2.117586e-02 2.079156e-02 2.040115e-02 1.997195e-02 1.954361e-02 1.907863e-02 1.862091e-02 1.812913e-02 1.765028e-02 1.714027e-02 1.664804e-02 1.612775e-02 1.562922e-02 1.510578e-02 1.460723e-02 1.408690e-02 1.359372e-02 1.308180e-02 1.259851e-02 1.209934e-02 1.162957e-02 1.114660e-02 1.069318e-02 1.022903e-02 9.794036e-03 9.350578e-03 8.935440e-03 8.513909e-03 8.119514e-03 7.720615e-03 7.347395e-03 6.971401e-03 6.619429e-03 6.266277e-03 5.935345e-03 5.604713e-03 5.294403e-03 4.985776e-03 4.695515e-03 4.408229e-03 4.137319e-03 3.870592e-03 3.618235e-03 3.371173e-03 3.136460e-03 2.908045e-03 2.689944e-03 2.479002e-03 2.276314e-03 2.081469e-03 1.892795e-03 1.712436e-03 1.536165e-03 1.368480e-03 1.202913e-03 1.046181e-03 8.901729e-04 7.440985e-04 6.000092e-04 4.725751e-04 3.637054e-04 3.108861e-04 3.373735e-04 4.373122e-04 5.796888e-04 7.444783e-04 9.288673e-04 1.126244e-03 1.340437e-03 1.568041e-03 1.812777e-03 2.073413e-03 2.351804e-03 2.649094e-03 2.964453e-03 3.301737e-03 3.656890e-03 4.036785e-03 4.433733e-03 4.857878e-03 5.297568e-03 5.766420e-03 6.248555e-03 6.761213e-03 7.284088e-03 7.838138e-03 8.398509e-03 8.989911e-03 9.582909e-03 1.020594e-02 1.082506e-02 1.147231e-02 1.210947e-02 1.277200e-02 1.341771e-02 1.408518e-02 1.472881e-02 1.538985e-02 1.601999e-02 1.666257e-02 1.726744e-02 1.787933e-02 1.844728e-02 1.901653e-02 
1.983454e-02 2.034053e-02 2.079230e-02 2.123446e-02 2.161969e-02 2.198998e-02 2.230219e-02 2.259435e-02 2.282890e-02 2.303863e-02 2.319279e-02 2.331777e-02 2.339067e-02 2.343058e-02 2.342321e-02 2.337961e-02 2.329463e-02 2.317089e-02 2.301250e-02 2.281358e-02 2.258730e-02 2.231957e-02 2.203203e-02 2.170295e-02 2.136164e-02 2.097951e-02 2.059251e-02 2.016614e-02 1.974178e-02 1.928017e-02 1.882683e-02 1.833883e-02 1.786462e-02 1.735873e-02 1.687128e-02 1.635537e-02 1.586165e-02 1.534278e-02 1.484899e-02 1.433336e-02 1.384484e-02 1.333766e-02 1.285885e-02 1.236442e-02 1.189891e-02 1.142059e-02 1.097114e-02 1.051148e-02 1.008012e-02 9.640901e-03 9.229011e-03 8.811388e-03 8.419787e-03 8.024374e-03 7.653425e-03 7.280401e-03 6.930100e-03 6.579297e-03 6.249353e-03 5.920335e-03 5.610233e-03 5.302363e-03 5.011417e-03 4.723896e-03 4.451289e-03 4.183191e-03 3.927988e-03 3.678267e-03 3.439428e-03 3.206923e-03 2.983291e-03 2.766712e-03 2.557014e-03 2.354945e-03 2.157805e-03 1.968743e-03 1.782779e-03 1.605317e-03 1.429481e-03 1.262906e-03 1.097584e-03 9.439019e-04 7.948569e-04 6.664082e-04 5.599138e-04 5.041618e-04 5.111712e-04 5.881422e-04 7.169192e-04 8.797756e-04 1.069167e-03 1.276325e-03 1.503070e-03 1.744588e-03 2.004490e-03 2.280074e-03 2.574125e-03 2.885991e-03 3.216467e-03 3.567243e-03 3.936406e-03 4.328334e-03 4.737863e-03 5.172379e-03 5.623022e-03 6.100474e-03 6.591801e-03 7.111229e-03 7.641440e-03 8.200399e-03 8.766172e-03 9.360608e-03 9.957016e-03 1.058120e-02 1.120170e-02 1.184826e-02 1.248475e-02 1.314477e-02 1.378781e-02 1.445106e-02 1.509011e-02 1.574536e-02 1.636917e-02 1.700459e-02 1.760163e-02 1.820525e-02 1.876418e-02 1.932440e-02 
2.017957e-02 2.067786e-02 2.112014e-02 2.155436e-02 2.193003e-02 2.229254e-02 2.259560e-02 2.288050e-02 2.310674e-02 2.331002e-02 2.345704e-02 2.357657e-02 2.364374e-02 2.367928e-02 2.366767e-02 2.362081e-02 2.353307e-02 2.340709e-02 2.324731e-02 2.304706e-02 2.282060e-02 2.255229e-02 2.226559e-02 2.193654e-02 2.159688e-02 2.121527e-02 2.083052e-02 2.040507e-02 1.998341e-02 1.952304e-02 1.907270e-02 1.858624e-02 1.811523e-02 1.761114e-02 1.712701e-02 1.661313e-02 1.612279e-02 1.560618e-02 1.511578e-02 1.460259e-02 1.411743e-02 1.361285e-02 1.313733e-02 1.264560e-02 1.218325e-02 1.170769e-02 1.126124e-02 1.080430e-02 1.037571e-02 9.939112e-03 9.529696e-03 9.114503e-03 8.725019e-03 8.331747e-03 7.962485e-03 7.591211e-03 7.242088e-03 6.892539e-03 6.563175e-03 6.234806e-03 5.924592e-03 5.616647e-03 5.324800e-03 5.036360e-03 4.761956e-03 4.491973e-03 4.233973e-03 3.981287e-03 3.738551e-03 3.501901e-03 3.273203e-03 3.051239e-03 2.835282e-03 2.626603e-03 2.422086e-03 2.225338e-03 2.031135e-03 1.845301e-03 1.660935e-03 1.486122e-03 1.313117e-03 1.152840e-03 9.987902e-04 8.669710e-04 7.575281e-04 6.949791e-04 6.868857e-04 7.452874e-04 8.592231e-04 1.015894e-03 1.205579e-03 1.418513e-03 1.654339e-03 1.907277e-03 2.180227e-03 2.469553e-03 2.778242e-03 3.104521e-03 3.449984e-03 3.814955e-03 4.198738e-03 4.604117e-03 5.027441e-03 5.474329e-03 5.937623e-03 6.426142e-03 6.928735e-03 7.457754e-03 7.997642e-03 8.564582e-03 9.138265e-03 9.738960e-03 1.034135e-02 1.096998e-02 1.159441e-02 1.224353e-02 1.288180e-02 1.354247e-02 1.418510e-02 1.484712e-02 1.548360e-02 1.613583e-02 1.675505e-02 1.738583e-02 1.797648e-02 1.857410e-02 1.912517e-02 1.967834e-02 
2.054154e-02 2.102862e-02 2.145858e-02 2.188128e-02 2.224451e-02 2.259580e-02 2.288699e-02 2.316151e-02 2.337705e-02 2.357122e-02 2.370918e-02 2.382120e-02 2.388126e-02 2.391106e-02 2.389444e-02 2.384361e-02 2.375295e-02 2.362471e-02 2.346394e-02 2.326294e-02 2.303719e-02 2.276941e-02 2.248481e-02 2.215735e-02 2.182086e-02 2.144168e-02 2.106088e-02 2.063848e-02 2.022129e-02 1.976444e-02 1.931887e-02 1.883629e-02 1.837017e-02 1.787022e-02 1.739100e-02 1.688144e-02 1.639594e-02 1.588379e-02 1.539809e-02 1.488944e-02 1.440879e-02 1.390878e-02 1.343754e-02 1.295035e-02 1.249203e-02 1.202089e-02 1.157816e-02 1.112547e-02 1.070025e-02 1.026765e-02 9.861196e-03 9.449645e-03 9.062661e-03 8.672588e-03 8.305293e-03 7.936678e-03 7.588918e-03 7.241387e-03 6.912704e-03 6.585609e-03 6.275312e-03 5.967795e-03 5.675016e-03 5.386058e-03 5.109790e-03 4.838249e-03 4.577377e-03 4.322016e-03 4.075345e-03 3.834853e-03 3.601134e-03 3.374167e-03 3.152148e-03 2.937394e-03 2.725929e-03 2.522272e-03 2.320573e-03 2.127469e-03 1.935698e-03 1.754095e-03 1.574844e-03 1.409503e-03 1.251601e-03 1.116975e-03 1.004318e-03 9.349457e-04 9.130400e-04 9.525170e-04 1.047629e-03 1.191571e-03 1.375006e-03 1.587971e-03 1.828470e-03 2.089383e-03 2.373071e-03 2.674424e-03 2.996923e-03 3.337086e-03 3.697741e-03 4.077190e-03 4.476530e-03 4.896196e-03 5.334767e-03 5.795220e-03 6.272957e-03 6.773920e-03 7.289750e-03 7.829772e-03 8.381343e-03 8.957563e-03 9.541055e-03 1.014906e-02 1.075909e-02 1.139283e-02 1.202246e-02 1.267432e-02 1.331516e-02 1.397609e-02 1.461851e-02 1.527826e-02 1.591175e-02 1.655927e-02 1.717281e-02 1.779664e-02 1.837920e-02 1.896797e-02 1.950896e-02 2.005183e-02 
2.094888e-02 2.142685e-02 2.184542e-02 2.225843e-02 2.260994e-02 2.295156e-02 2.323141e-02 2.349686e-02 2.370206e-02 2.388820e-02 2.401732e-02 2.412261e-02 2.417565e-02 2.420017e-02 2.417846e-02 2.412377e-02 2.402990e-02 2.389906e-02 2.373679e-02 2.353428e-02 2.330845e-02 2.304000e-02 2.275645e-02 2.242895e-02 2.209434e-02 2.171556e-02 2.133719e-02 2.091552e-02 2.050111e-02 2.004523e-02 1.960263e-02 1.912122e-02 1.865817e-02 1.815959e-02 1.768346e-02 1.717548e-02 1.669306e-02 1.618270e-02 1.570007e-02 1.519342e-02 1.471579e-02 1.421798e-02 1.374970e-02 1.326487e-02 1.280941e-02 1.234073e-02 1.190073e-02 1.145054e-02 1.102787e-02 1.059769e-02 1.019355e-02 9.784271e-03 9.399284e-03 9.011227e-03 8.645541e-03 8.278580e-03 7.931961e-03 7.585617e-03 7.257523e-03 6.931044e-03 6.620705e-03 6.313132e-03 6.019597e-03 5.729820e-03 5.452009e-03 5.178804e-03 4.915538e-03 4.657604e-03 4.407647e-03 4.163641e-03 3.925736e-03 3.694324e-03 3.467266e-03 3.247223e-03 3.029999e-03 2.820400e-03 2.612485e-03 2.413137e-03 2.215136e-03 2.027529e-03 1.842649e-03 1.672150e-03 1.509571e-03 1.370267e-03 1.251863e-03 1.173846e-03 1.138428e-03 1.160677e-03 1.237409e-03 1.366915e-03 1.540760e-03 1.750189e-03 1.991655e-03 2.257570e-03 2.549181e-03 2.860625e-03 3.195097e-03 3.548184e-03 3.923074e-03 4.316915e-03 4.731638e-03 5.166291e-03 5.620639e-03 6.096061e-03 6.589398e-03 7.104836e-03 7.635610e-03 8.189206e-03 8.754625e-03 9.343144e-03 9.938968e-03 1.055764e-02 1.117808e-02 1.182052e-02 1.245825e-02 1.311654e-02 1.376284e-02 1.442770e-02 1.507269e-02 1.573373e-02 1.636677e-02 1.701292e-02 1.762304e-02 1.824298e-02 1.881937e-02 1.940202e-02 1.993450e-02 2.046947e-02 
2.137484e-02 2.183971e-02 2.224358e-02 2.264274e-02 2.297908e-02 2.330698e-02 2.357219e-02 2.382487e-02 2.401684e-02 2.419180e-02 2.430977e-02 2.440593e-02 2.445034e-02 2.446799e-02 2.444035e-02 2.438106e-02 2.428390e-02 2.415057e-02 2.398739e-02 2.378418e-02 2.355945e-02 2.329176e-02 2.301086e-02 2.268522e-02 2.235436e-02 2.197821e-02 2.160430e-02 2.118577e-02 2.077618e-02 2.032379e-02 1.988612e-02 1.940840e-02 1.895023e-02 1.845548e-02 1.798407e-02 1.748003e-02 1.700214e-02 1.649579e-02 1.601746e-02 1.551490e-02 1.504134e-02 1.454766e-02 1.408324e-02 1.360253e-02 1.315070e-02 1.268612e-02 1.224949e-02 1.180327e-02 1.138369e-02 1.095730e-02 1.055592e-02 1.015014e-02 9.767537e-03 9.382605e-03 9.018852e-03 8.654545e-03 8.309340e-03 7.965082e-03 7.637816e-03 7.312765e-03 7.002595e-03 6.695707e-03 6.401618e-03 6.111710e-03 5.832565e-03 5.558354e-03 5.292937e-03 5.033087e-03 4.780144e-03 4.533310e-03 4.291607e-03 4.056505e-03 3.824917e-03 3.600439e-03 3.378116e-03 3.163556e-03 2.950249e-03 2.745762e-03 2.542488e-03 2.350027e-03 2.160462e-03 1.985758e-03 1.819103e-03 1.675507e-03 1.551459e-03 1.464965e-03 1.416481e-03 1.421315e-03 1.477897e-03 1.588778e-03 1.747627e-03 1.947588e-03 2.184718e-03 2.450900e-03 2.746796e-03 3.065272e-03 3.409686e-03 3.774026e-03 4.162385e-03 4.570000e-03 5.000311e-03 5.450126e-03 5.921201e-03 6.412357e-03 6.922812e-03 7.453909e-03 8.001550e-03 8.570157e-03 9.151595e-03 9.753939e-03 1.036434e-02 1.099512e-02 1.162811e-02 1.228043e-02 1.292812e-02 1.359359e-02 1.424674e-02 1.491566e-02 1.556399e-02 1.622572e-02 1.685833e-02 1.750171e-02 1.810761e-02 1.872144e-02 1.929002e-02 1.986359e-02 2.038517e-02 2.090867e-02 
2.184438e-02 2.229863e-02 2.268901e-02 2.307647e-02 2.339858e-02 2.371464e-02 2.396593e-02 2.420745e-02 2.438674e-02 2.455187e-02 2.465908e-02 2.474715e-02 2.478315e-02 2.479459e-02 2.476103e-02 2.469734e-02 2.459662e-02 2.446046e-02 2.429579e-02 2.409099e-02 2.386639e-02 2.359800e-02 2.331842e-02 2.299263e-02 2.266386e-02 2.228787e-02 2.191646e-02 2.149825e-02 2.109132e-02 2.063932e-02 2.020432e-02 1.972708e-02 1.927151e-02 1.877735e-02 1.830846e-02 1.780520e-02 1.732976e-02 1.682445e-02 1.634855e-02 1.584731e-02 1.537620e-02 1.488414e-02 1.442220e-02 1.394340e-02 1.349407e-02 1.303163e-02 1.259751e-02 1.215360e-02 1.173648e-02 1.131247e-02 1.091344e-02 1.051001e-02 1.012957e-02 9.746837e-03 9.384976e-03 9.022614e-03 8.678947e-03 8.336268e-03 8.010102e-03 7.686161e-03 7.376576e-03 7.070240e-03 6.776149e-03 6.486155e-03 6.206363e-03 5.931370e-03 5.664618e-03 5.403252e-03 5.148268e-03 4.899176e-03 4.654736e-03 4.416663e-03 4.181697e-03 3.953615e-03 3.727381e-03 3.508730e-03 3.291151e-03 3.082289e-03 2.874602e-03 2.677701e-03 2.483727e-03 2.304509e-03 2.133085e-03 1.983951e-03 1.852806e-03 1.756666e-03 1.694718e-03 1.682574e-03 1.719225e-03 1.810714e-03 1.952188e-03 2.139569e-03 2.368503e-03 2.631486e-03 2.928092e-03 3.250862e-03 3.602496e-03 3.976296e-03 4.376310e-03 4.796824e-03 5.241761e-03 5.706722e-03 6.194359e-03 6.702042e-03 7.230194e-03 7.778498e-03 8.344280e-03 8.930146e-03 9.529503e-03 1.014854e-02 1.077596e-02 1.142224e-02 1.207066e-02 1.273665e-02 1.339745e-02 1.407414e-02 1.473743e-02 1.541457e-02 1.606948e-02 1.673600e-02 1.737126e-02 1.801576e-02 1.862019e-02 1.923151e-02 1.979467e-02 2.036238e-02 2.087503e-02 2.138991e-02 
2.233488e-02 2.277390e-02 2.314682e-02 2.351766e-02 2.382136e-02 2.412071e-02 2.435404e-02 2.457992e-02 2.474296e-02 2.489448e-02 2.498812e-02 2.506523e-02 2.509092e-02 2.509432e-02 2.505392e-02 2.498509e-02 2.488086e-02 2.474213e-02 2.457685e-02 2.437159e-02 2.414873e-02 2.388145e-02 2.360527e-02 2.328165e-02 2.295732e-02 2.258414e-02 2.221767e-02 2.180257e-02 2.140068e-02 2.095190e-02 2.052177e-02 2.004775e-02 1.959674e-02 1.910580e-02 1.864112e-02 1.814111e-02 1.766956e-02 1.716756e-02 1.669530e-02 1.619748e-02 1.572982e-02 1.524133e-02 1.478269e-02 1.430760e-02 1.386148e-02 1.340284e-02 1.297184e-02 1.253177e-02 1.211765e-02 1.169745e-02 1.130125e-02 1.090150e-02 1.052366e-02 1.014437e-02 9.784829e-03 9.425568e-03 9.083848e-03 8.743832e-03 8.419168e-03 8.097362e-03 7.788763e-03 7.483954e-03 7.190275e-03 6.901137e-03 6.621135e-03 6.346283e-03 6.078668e-03 5.816707e-03 5.560202e-03 5.309786e-03 5.063193e-03 4.823111e-03 4.585422e-03 4.354737e-03 4.125319e-03 3.903603e-03 3.682533e-03 3.470317e-03 3.258994e-03 3.058581e-03 2.860862e-03 2.677825e-03 2.502041e-03 2.347725e-03 2.209687e-03 2.104139e-03 2.029058e-03 1.999931e-03 2.015922e-03 2.085549e-03 2.205762e-03 2.375280e-03 2.590526e-03 2.844717e-03 3.137236e-03 3.459914e-03 3.815456e-03 4.195792e-03 4.605593e-03 5.037366e-03 5.496282e-03 5.975794e-03 6.480344e-03 7.004797e-03 7.551808e-03 8.118221e-03 8.703946e-03 9.308459e-03 9.928008e-03 1.056543e-02 1.121244e-02 1.187602e-02 1.254248e-02 1.322383e-02 1.390021e-02 1.458944e-02 1.526492e-02 1.595100e-02 1.661389e-02 1.728510e-02 1.792351e-02 1.856807e-02 1.917054e-02 1.977723e-02 2.033339e-02 2.089212e-02 2.139327e-02 2.189551e-02 