# vtk DataFile Version 2.0
Comment goes here
ASCII

DATASET STRUCTURED_POINTS
DIMENSIONS    128   128   1

ORIGIN    0.000   0.000   0.000
SPACING   0.0078125 0.0078125   1.000

POINT_DATA   16384
SCALARS uMag double
LOOKUP_TABLE default

3.763942e-02 3.825979e-02 3.880254e-02 3.930966e-02 3.973684e-02 4.012082e-02 4.042439e-02 4.067827e-02 4.085317e-02 4.097316e-02 4.101747e-02 4.100293e-02 4.091782e-02 4.077125e-02 4.056083e-02 4.028762e-02 3.995868e-02 3.956684e-02 3.912851e-02 3.862827e-02 3.809156e-02 3.749496e-02 3.687237e-02 3.619270e-02 3.549770e-02 3.474911e-02 3.399569e-02 3.319265e-02 3.239483e-02 3.155171e-02 3.072316e-02 2.985380e-02 2.900751e-02 2.812493e-02 2.727285e-02 2.638895e-02 2.554188e-02 2.466727e-02 2.383464e-02 2.297854e-02 2.216842e-02 2.133862e-02 2.055768e-02 1.976056e-02 1.901414e-02 1.825477e-02 1.754700e-02 1.682922e-02 1.616313e-02 1.548975e-02 1.486742e-02 1.424031e-02 1.366305e-02 1.308336e-02 1.255184e-02 1.202012e-02 1.153455e-02 1.105090e-02 1.061116e-02 1.017540e-02 9.781134e-03 9.392906e-03 9.043689e-03 8.702561e-03 8.397956e-03 8.103523e-03 7.843177e-03 7.595137e-03 7.378839e-03 7.177055e-03 7.004798e-03 6.849348e-03 6.721363e-03 6.612578e-03 6.529368e-03 6.467855e-03 6.430210e-03 6.416867e-03 6.425868e-03 6.461886e-03 6.518900e-03 6.605748e-03 6.712407e-03 6.851803e-03 7.009968e-03 7.203835e-03 7.415540e-03 7.665942e-03 7.933320e-03 8.242373e-03 8.567558e-03 8.937318e-03 9.322320e-03 9.754647e-03 1.020120e-02 1.069759e-02 1.120699e-02 1.176837e-02 1.234124e-02 1.296778e-02 1.360387e-02 1.429472e-02 1.499266e-02 1.574571e-02 1.650277e-02 1.731443e-02 1.812630e-02 1.899124e-02 1.985183e-02 2.076286e-02 2.166415e-02 2.261208e-02 2.354410e-02 2.451772e-02 2.546854e-02 2.645475e-02 2.741065e-02 2.839464e-02 2.934041e-02 3.030600e-02 3.122533e-02 3.215546e-02 3.303142e-02 3.390869e-02 3.472436e-02 3.553166e-02 3.627077e-02 3.699191e-02 
3.767121e-02 3.829129e-02 3.883316e-02 3.933993e-02 3.976605e-02 4.014965e-02 4.045199e-02 4.070548e-02 4.087904e-02 4.099864e-02 4.104151e-02 4.102662e-02 4.094001e-02 4.079313e-02 4.058119e-02 4.030774e-02 3.997728e-02 3.958529e-02 3.914545e-02 3.864515e-02 3.810699e-02 3.751040e-02 3.688644e-02 3.620688e-02 3.551059e-02 3.476219e-02 3.400757e-02 3.320480e-02 3.240589e-02 3.156309e-02 3.073358e-02 2.986459e-02 2.901745e-02 2.813527e-02 2.728247e-02 2.639900e-02 2.555131e-02 2.467713e-02 2.384401e-02 2.298832e-02 2.217781e-02 2.134840e-02 2.056716e-02 1.977039e-02 1.902375e-02 1.826468e-02 1.755676e-02 1.683922e-02 1.617304e-02 1.549982e-02 1.487745e-02 1.425042e-02 1.367315e-02 1.309345e-02 1.256195e-02 1.203012e-02 1.154458e-02 1.106072e-02 1.062102e-02 1.018495e-02 9.790734e-03 9.402099e-03 9.052930e-03 8.711305e-03 8.406755e-03 8.111749e-03 7.851470e-03 7.602798e-03 7.386597e-03 7.184147e-03 7.012036e-03 6.855917e-03 6.728152e-03 6.618728e-03 6.535840e-03 6.473753e-03 6.436557e-03 6.422737e-03 6.432337e-03 6.467998e-03 6.525772e-03 6.612397e-03 6.719978e-03 6.859284e-03 7.018522e-03 7.212424e-03 7.425332e-03 7.675876e-03 7.944561e-03 8.253842e-03 8.580409e-03 8.950462e-03 9.336893e-03 9.769558e-03 1.021757e-02 1.071432e-02 1.122517e-02 1.178694e-02 1.236124e-02 1.298818e-02 1.362566e-02 1.431691e-02 1.501620e-02 1.576965e-02 1.652799e-02 1.734003e-02 1.815311e-02 1.901842e-02 1.988013e-02 2.079151e-02 2.169382e-02 2.264206e-02 2.357497e-02 2.454888e-02 2.550043e-02 2.648688e-02 2.744336e-02 2.842752e-02 2.937368e-02 3.033938e-02 3.125890e-02 3.218906e-02 3.306500e-02 3.394221e-02 3.475765e-02 3.556481e-02 3.630345e-02 3.702437e-02 
3.772158e-02 3.834090e-02 3.888226e-02 3.938824e-02 3.981400e-02 4.019679e-02 4.049894e-02 4.075165e-02 4.092521e-02 4.104406e-02 4.108716e-02 4.107158e-02 4.098543e-02 4.083792e-02 4.062667e-02 4.035267e-02 4.002311e-02 3.963062e-02 3.919188e-02 3.869115e-02 3.815425e-02 3.755728e-02 3.693469e-02 3.625480e-02 3.555996e-02 3.481128e-02 3.405815e-02 3.325513e-02 3.245771e-02 3.161471e-02 3.078664e-02 2.991749e-02 2.907173e-02 2.818942e-02 2.733791e-02 2.645434e-02 2.560783e-02 2.473358e-02 2.390149e-02 2.304576e-02 2.223613e-02 2.140669e-02 2.062615e-02 1.982936e-02 1.908325e-02 1.832415e-02 1.761655e-02 1.689896e-02 1.623289e-02 1.555958e-02 1.493711e-02 1.430994e-02 1.373235e-02 1.315242e-02 1.262038e-02 1.208824e-02 1.160194e-02 1.111767e-02 1.067698e-02 1.024039e-02 9.844977e-03 9.455716e-03 9.105159e-03 8.762810e-03 8.456708e-03 8.160902e-03 7.898948e-03 7.649439e-03 7.431496e-03 7.228224e-03 7.054376e-03 6.897517e-03 6.768104e-03 6.658101e-03 6.573741e-03 6.511315e-03 6.472908e-03 6.459058e-03 6.467772e-03 6.503758e-03 6.561009e-03 6.648326e-03 6.755751e-03 6.896096e-03 7.055512e-03 7.250745e-03 7.464107e-03 7.716200e-03 7.985538e-03 8.296499e-03 8.623836e-03 8.995618e-03 9.382860e-03 9.817227e-03 1.026602e-02 1.076439e-02 1.127594e-02 1.183919e-02 1.241408e-02 1.304233e-02 1.368026e-02 1.437265e-02 1.507223e-02 1.582662e-02 1.658510e-02 1.739789e-02 1.821096e-02 1.907684e-02 1.993839e-02 2.085016e-02 2.175219e-02 2.270067e-02 2.363318e-02 2.460716e-02 2.555823e-02 2.654461e-02 2.750052e-02 2.848448e-02 2.943002e-02 3.039539e-02 3.131424e-02 3.224396e-02 3.311921e-02 3.399588e-02 3.481063e-02 3.561715e-02 3.635513e-02 3.707534e-02 
3.783578e-02 3.845376e-02 3.899285e-02 3.949733e-02 3.992056e-02 4.030177e-02 4.060126e-02 4.085237e-02 4.102321e-02 4.114051e-02 4.118093e-02 4.116391e-02 4.107519e-02 4.092643e-02 4.071277e-02 4.043772e-02 4.010598e-02 3.971268e-02 3.927200e-02 3.877070e-02 3.823212e-02 3.763482e-02 3.701081e-02 3.633081e-02 3.563482e-02 3.488622e-02 3.413218e-02 3.332944e-02 3.253132e-02 3.168875e-02 3.086019e-02 2.999161e-02 2.914552e-02 2.826389e-02 2.741219e-02 2.652936e-02 2.568278e-02 2.480932e-02 2.397724e-02 2.312231e-02 2.231273e-02 2.148405e-02 2.070359e-02 1.990749e-02 1.916143e-02 1.840290e-02 1.769531e-02 1.697814e-02 1.631199e-02 1.563892e-02 1.501625e-02 1.438909e-02 1.381117e-02 1.323101e-02 1.269846e-02 1.216580e-02 1.167882e-02 1.119374e-02 1.075217e-02 1.031447e-02 9.917981e-03 9.527316e-03 9.175505e-03 8.831482e-03 8.523979e-03 8.226276e-03 7.962832e-03 7.711271e-03 7.491831e-03 7.286453e-03 7.111206e-03 6.952310e-03 6.821726e-03 6.709895e-03 6.624731e-03 6.560831e-03 6.522117e-03 6.507275e-03 6.516287e-03 6.551855e-03 6.610070e-03 6.697582e-03 6.806641e-03 6.947779e-03 7.109450e-03 7.306008e-03 7.522149e-03 7.775993e-03 8.048513e-03 8.361533e-03 8.692322e-03 9.066347e-03 9.457183e-03 9.893870e-03 1.034629e-02 1.084696e-02 1.136208e-02 1.192756e-02 1.250587e-02 1.313622e-02 1.377739e-02 1.447171e-02 1.517429e-02 1.593044e-02 1.669166e-02 1.750602e-02 1.832154e-02 1.918878e-02 2.005248e-02 2.096541e-02 2.186924e-02 2.281866e-02 2.375262e-02 2.472733e-02 2.567946e-02 2.666632e-02 2.762288e-02 2.860707e-02 2.955283e-02 3.051816e-02 3.143677e-02 3.236617e-02 3.324072e-02 3.411679e-02 3.493038e-02 3.573602e-02 3.647243e-02 3.719151e-02 
3.796818e-02 3.858432e-02 3.912150e-02 3.962402e-02 4.004544e-02 4.042464e-02 4.072250e-02 4.097163e-02 4.114113e-02 4.125655e-02 4.129599e-02 4.127724e-02 4.118796e-02 4.103765e-02 4.082387e-02 4.054748e-02 4.021606e-02 3.982163e-02 3.938168e-02 3.887945e-02 3.834196e-02 3.774393e-02 3.712131e-02 3.644075e-02 3.574637e-02 3.499737e-02 3.424510e-02 3.344208e-02 3.264583e-02 3.180312e-02 3.097645e-02 3.010783e-02 2.926360e-02 2.838202e-02 2.753210e-02 2.664941e-02 2.580448e-02 2.493122e-02 2.410062e-02 2.324592e-02 2.243761e-02 2.160917e-02 2.082973e-02 2.003385e-02 1.928853e-02 1.853016e-02 1.782301e-02 1.710590e-02 1.643985e-02 1.576669e-02 1.514376e-02 1.451634e-02 1.393777e-02 1.335713e-02 1.282354e-02 1.229016e-02 1.180172e-02 1.131565e-02 1.087223e-02 1.043325e-02 1.003452e-02 9.642294e-03 9.287889e-03 8.942048e-03 8.631652e-03 8.331925e-03 8.065371e-03 7.811666e-03 7.589016e-03 7.381490e-03 7.203081e-03 7.042184e-03 6.908661e-03 6.795152e-03 6.707460e-03 6.642381e-03 6.601733e-03 6.586371e-03 6.594188e-03 6.630004e-03 6.687851e-03 6.776424e-03 6.885956e-03 7.028934e-03 7.191857e-03 7.390932e-03 7.608984e-03 7.865875e-03 8.140802e-03 8.457223e-03 8.790742e-03 9.168350e-03 9.562071e-03 1.000237e-02 1.045768e-02 1.096185e-02 1.147975e-02 1.204852e-02 1.262941e-02 1.326278e-02 1.390626e-02 1.460326e-02 1.530784e-02 1.606632e-02 1.682920e-02 1.764553e-02 1.846235e-02 1.933120e-02 2.019585e-02 2.111002e-02 2.201444e-02 2.296476e-02 2.389895e-02 2.487420e-02 2.582622e-02 2.681328e-02 2.776940e-02 2.875345e-02 2.969843e-02 3.066328e-02 3.158080e-02 3.250940e-02 3.338258e-02 3.425753e-02 3.506951e-02 3.587375e-02 3.660837e-02 3.732580e-02 
3.816520e-02 3.877892e-02 3.931238e-02 3.981221e-02 4.022958e-02 4.060594e-02 4.089960e-02 4.114586e-02 4.131117e-02 4.142383e-02 4.145925e-02 4.143795e-02 4.134495e-02 4.119239e-02 4.097529e-02 4.069701e-02 4.036271e-02 3.996679e-02 3.952444e-02 3.902112e-02 3.848171e-02 3.788296e-02 3.725887e-02 3.657794e-02 3.588251e-02 3.513347e-02 3.438050e-02 3.357774e-02 3.278111e-02 3.193888e-02 3.111209e-02 3.024417e-02 2.940003e-02 2.851932e-02 2.766963e-02 2.678793e-02 2.594333e-02 2.507112e-02 2.424090e-02 2.338727e-02 2.257934e-02 2.175193e-02 2.097282e-02 2.017786e-02 1.943276e-02 1.867515e-02 1.796806e-02 1.725149e-02 1.658530e-02 1.591241e-02 1.528909e-02 1.466160e-02 1.408235e-02 1.350125e-02 1.296667e-02 1.243241e-02 1.194264e-02 1.145524e-02 1.101013e-02 1.056937e-02 1.016861e-02 9.774149e-03 9.417388e-03 9.068903e-03 8.755889e-03 8.453177e-03 8.183836e-03 7.926913e-03 7.701437e-03 7.490614e-03 7.309513e-03 7.145432e-03 7.009556e-03 6.893198e-03 6.803718e-03 6.736356e-03 6.694701e-03 6.677830e-03 6.685600e-03 6.720836e-03 6.779705e-03 6.868700e-03 6.980343e-03 7.124730e-03 7.290784e-03 7.492153e-03 7.714212e-03 7.974121e-03 8.253743e-03 8.573716e-03 8.912409e-03 9.293910e-03 9.693084e-03 1.013743e-02 1.059829e-02 1.110654e-02 1.162994e-02 1.220268e-02 1.278890e-02 1.342604e-02 1.407458e-02 1.477511e-02 1.548441e-02 1.624613e-02 1.701334e-02 1.783258e-02 1.865329e-02 1.952471e-02 2.039274e-02 2.130914e-02 2.221642e-02 2.316856e-02 2.410504e-02 2.508171e-02 2.603538e-02 2.702342e-02 2.798051e-02 2.896506e-02 2.991029e-02 3.087515e-02 3.179218e-02 3.272025e-02 3.359218e-02 3.446607e-02 3.527607e-02 3.607874e-02 3.681068e-02 3.752608e-02 
3.837963e-02 3.899039e-02 3.952048e-02 4.001712e-02 4.043115e-02 4.080423e-02 4.109476e-02 4.133779e-02 4.150036e-02 4.160995e-02 4.164316e-02 4.161906e-02 4.152447e-02 4.136944e-02 4.115143e-02 4.087104e-02 4.053651e-02 4.013884e-02 3.969689e-02 3.919216e-02 3.865371e-02 3.805386e-02 3.743119e-02 3.674944e-02 3.605578e-02 3.530616e-02 3.455521e-02 3.375206e-02 3.295760e-02 3.211516e-02 3.129060e-02 3.042262e-02 2.958068e-02 2.870004e-02 2.785247e-02 2.697094e-02 2.612830e-02 2.525635e-02 2.442788e-02 2.357455e-02 2.276810e-02 2.194101e-02 2.116306e-02 2.036838e-02 1.962410e-02 1.886667e-02 1.816000e-02 1.744347e-02 1.677726e-02 1.610420e-02 1.548040e-02 1.485248e-02 1.427226e-02 1.369043e-02 1.315436e-02 1.261901e-02 1.212722e-02 1.163835e-02 1.119069e-02 1.074805e-02 1.034424e-02 9.947510e-03 9.587239e-03 9.236120e-03 8.919206e-03 8.613567e-03 8.340047e-03 8.080017e-03 7.850233e-03 7.636281e-03 7.450939e-03 7.283910e-03 7.144095e-03 7.025202e-03 6.932339e-03 6.863105e-03 6.818876e-03 6.801018e-03 6.807234e-03 6.842536e-03 6.901008e-03 6.991202e-03 7.103644e-03 7.250339e-03 7.418325e-03 7.622996e-03 7.847973e-03 8.111991e-03 8.395312e-03 8.719980e-03 9.062925e-03 9.449476e-03 9.853229e-03 1.030277e-02 1.076834e-02 1.128174e-02 1.180979e-02 1.238751e-02 1.297818e-02 1.362001e-02 1.427271e-02 1.497755e-02 1.569063e-02 1.645623e-02 1.722677e-02 1.804942e-02 1.887297e-02 1.974731e-02 2.061766e-02 2.153645e-02 2.244549e-02 2.339950e-02 2.433716e-02 2.531514e-02 2.626938e-02 2.725816e-02 2.821519e-02 2.919990e-02 3.014444e-02 3.110885e-02 3.202455e-02 3.295158e-02 3.382158e-02 3.469385e-02 3.550138e-02 3.630190e-02 3.703094e-02 3.774373e-02 
3.866004e-02 3.926727e-02 3.979208e-02 4.028473e-02 4.069306e-02 4.106191e-02 4.134658e-02 4.158535e-02 4.174214e-02 4.184764e-02 4.187540e-02 4.184754e-02 4.174800e-02 4.158968e-02 4.136736e-02 4.108421e-02 4.074607e-02 4.034621e-02 3.990138e-02 3.939501e-02 3.885438e-02 3.825341e-02 3.762919e-02 3.694680e-02 3.625213e-02 3.550228e-02 3.475079e-02 3.394777e-02 3.315313e-02 3.231113e-02 3.148668e-02 3.061939e-02 2.977777e-02 2.889802e-02 2.805091e-02 2.717041e-02 2.632831e-02 2.545748e-02 2.462955e-02 2.377737e-02 2.297141e-02 2.214542e-02 2.136786e-02 2.057417e-02 1.983010e-02 1.907348e-02 1.836678e-02 1.765080e-02 1.698430e-02 1.631145e-02 1.568702e-02 1.505892e-02 1.447770e-02 1.389523e-02 1.335774e-02 1.282125e-02 1.232761e-02 1.183705e-02 1.138711e-02 1.094224e-02 1.053571e-02 1.013620e-02 9.772819e-03 9.418428e-03 9.098076e-03 8.788751e-03 8.511576e-03 8.247573e-03 8.014072e-03 7.796036e-03 7.607118e-03 7.436119e-03 7.293111e-03 7.170627e-03 7.075227e-03 7.003058e-03 6.957216e-03 6.937344e-03 6.943102e-03 6.977514e-03 7.036837e-03 7.127380e-03 7.242034e-03 7.390325e-03 7.561828e-03 7.769248e-03 7.998899e-03 8.266649e-03 8.555592e-03 8.884759e-03 9.234039e-03 9.625631e-03 1.003619e-02 1.049111e-02 1.096374e-02 1.148267e-02 1.201786e-02 1.260109e-02 1.319882e-02 1.384604e-02 1.450558e-02 1.521559e-02 1.593519e-02 1.670567e-02 1.748231e-02 1.830950e-02 1.913864e-02 2.001711e-02 2.089246e-02 2.181492e-02 2.272828e-02 2.368544e-02 2.462663e-02 2.560718e-02 2.656408e-02 2.755477e-02 2.851349e-02 2.949936e-02 3.044454e-02 3.140931e-02 3.232454e-02 3.325108e-02 3.411948e-02 3.499040e-02 3.579523e-02 3.659357e-02 3.731888e-02 3.802875e-02 
3.895666e-02 3.955972e-02 4.007958e-02 4.056771e-02 4.097104e-02 4.133522e-02 4.161512e-02 4.184930e-02 4.200185e-02 4.210302e-02 4.212726e-02 4.209549e-02 4.199332e-02 4.183158e-02 4.160758e-02 4.132155e-02 4.098268e-02 4.058046e-02 4.013576e-02 3.962752e-02 3.908775e-02 3.848532e-02 3.786257e-02 3.717905e-02 3.648630e-02 3.573558e-02 3.498630e-02 3.418264e-02 3.339037e-02 3.254791e-02 3.172586e-02 3.085826e-02 3.001899e-02 2.913907e-02 2.829417e-02 2.741362e-02 2.657352e-02 2.570274e-02 2.487655e-02 2.402448e-02 2.321996e-02 2.239410e-02 2.161762e-02 2.082404e-02 2.008065e-02 1.932406e-02 1.861761e-02 1.790150e-02 1.723477e-02 1.656159e-02 1.593643e-02 1.530771e-02 1.472521e-02 1.414178e-02 1.360247e-02 1.306463e-02 1.256859e-02 1.207627e-02 1.162336e-02 1.117628e-02 1.076623e-02 1.036407e-02 9.996671e-03 9.639230e-03 9.314435e-03 9.001730e-03 8.719802e-03 8.452207e-03 8.213802e-03 7.992126e-03 7.798358e-03 7.623884e-03 7.476330e-03 7.350790e-03 7.251426e-03 7.176892e-03 7.127953e-03 7.106663e-03 7.110443e-03 7.144596e-03 7.203242e-03 7.294806e-03 7.410167e-03 7.560773e-03 7.734342e-03 7.945285e-03 8.178234e-03 8.450545e-03 8.743825e-03 9.078371e-03 9.432793e-03 9.830347e-03 1.024662e-02 1.070785e-02 1.118653e-02 1.171191e-02 1.225329e-02 1.284295e-02 1.344683e-02 1.410030e-02 1.476580e-02 1.548179e-02 1.620703e-02 1.698309e-02 1.776497e-02 1.859727e-02 1.943112e-02 2.031417e-02 2.119361e-02 2.212004e-02 2.303679e-02 2.399724e-02 2.494103e-02 2.592411e-02 2.688273e-02 2.787513e-02 2.883461e-02 2.982131e-02 3.076623e-02 3.173090e-02 3.264484e-02 3.357032e-02 3.443641e-02 3.530535e-02 3.610694e-02 3.690243e-02 3.762370e-02 3.832999e-02 
3.932126e-02 3.991956e-02 4.043244e-02 4.091514e-02 4.131091e-02 4.166931e-02 4.194145e-02 4.216981e-02 4.231479e-02 4.241039e-02 4.242757e-02 4.239072e-02 4.228227e-02 4.211611e-02 4.188675e-02 4.159705e-02 4.125383e-02 4.084870e-02 4.040064e-02 3.989021e-02 3.934800e-02 3.874403e-02 3.811962e-02 3.743513e-02 3.674137e-02 3.599016e-02 3.524038e-02 3.443661e-02 3.364422e-02 3.280197e-02 3.198007e-02 3.111295e-02 3.027400e-02 2.939476e-02 2.855027e-02 2.767057e-02 2.683091e-02 2.596106e-02 2.513529e-02 2.428420e-02 2.348001e-02 2.265511e-02 2.187882e-02 2.108610e-02 2.034271e-02 1.958681e-02 1.888012e-02 1.816446e-02 1.749718e-02 1.682412e-02 1.619807e-02 1.556908e-02 1.498531e-02 1.440114e-02 1.386014e-02 1.332105e-02 1.282288e-02 1.232875e-02 1.187325e-02 1.142379e-02 1.101073e-02 1.060563e-02 1.023481e-02 9.873911e-03 9.545358e-03 9.228753e-03 8.942836e-03 8.671019e-03 8.428542e-03 8.202490e-03 8.004762e-03 7.825977e-03 7.674811e-03 7.545282e-03 7.442928e-03 7.365011e-03 7.313980e-03 7.290196e-03 7.293038e-03 7.325822e-03 7.384876e-03 7.476358e-03 7.593576e-03 7.745448e-03 7.922318e-03 8.135833e-03 8.373427e-03 8.649490e-03 8.948588e-03 9.287883e-03 9.649085e-03 1.005218e-02 1.047597e-02 1.094333e-02 1.143005e-02 1.196196e-02 1.251170e-02 1.310812e-02 1.372052e-02 1.438084e-02 1.505485e-02 1.577766e-02 1.651126e-02 1.729401e-02 1.808394e-02 1.892269e-02 1.976417e-02 2.065332e-02 2.153981e-02 2.247187e-02 2.339492e-02 2.436039e-02 2.530955e-02 2.629691e-02 2.725980e-02 2.825558e-02 2.921804e-02 3.020706e-02 3.115351e-02 3.211933e-02 3.303323e-02 3.395858e-02 3.482301e-02 3.569052e-02 3.648883e-02 3.728163e-02 3.799815e-02 3.870060e-02 
3.970041e-02 4.029322e-02 4.079937e-02 4.127602e-02 4.166491e-02 4.201706e-02 4.228261e-02 4.250484e-02 4.264390e-02 4.273379e-02 4.274605e-02 4.270411e-02 4.259194e-02 4.242140e-02 4.218961e-02 4.189629e-02 4.155188e-02 4.114383e-02 4.069571e-02 4.018294e-02 3.964160e-02 3.903577e-02 3.841294e-02 3.772693e-02 3.703522e-02 3.628275e-02 3.553529e-02 3.473043e-02 3.394045e-02 3.309725e-02 3.227771e-02 3.140975e-02 3.057302e-02 2.969306e-02 2.885057e-02 2.797025e-02 2.713232e-02 2.626197e-02 2.543763e-02 2.458614e-02 2.378305e-02 2.295782e-02 2.218227e-02 2.138925e-02 2.064622e-02 1.989000e-02 1.918326e-02 1.846719e-02 1.779943e-02 1.712581e-02 1.649880e-02 1.586903e-02 1.528380e-02 1.469857e-02 1.415559e-02 1.361509e-02 1.311441e-02 1.261850e-02 1.215996e-02 1.170831e-02 1.129168e-02 1.088399e-02 1.050913e-02 1.014524e-02 9.812241e-03 9.492324e-03 9.201646e-03 8.926289e-03 8.678874e-03 8.449197e-03 8.246532e-03 8.064219e-03 7.908341e-03 7.775607e-03 7.669020e-03 7.588474e-03 7.533964e-03 7.508383e-03 7.508762e-03 7.540810e-03 7.598639e-03 7.690614e-03 7.807985e-03 7.961660e-03 8.140108e-03 8.356723e-03 8.597273e-03 8.877634e-03 9.180938e-03 9.525571e-03 9.892051e-03 1.030133e-02 1.073127e-02 1.120545e-02 1.169898e-02 1.223816e-02 1.279516e-02 1.339912e-02 1.401905e-02 1.468702e-02 1.536866e-02 1.609907e-02 1.684022e-02 1.763039e-02 1.842765e-02 1.927349e-02 2.012189e-02 2.101768e-02 2.191051e-02 2.284860e-02 2.377723e-02 2.474797e-02 2.570176e-02 2.669346e-02 2.765982e-02 2.865885e-02 2.962345e-02 3.061449e-02 3.156162e-02 3.252808e-02 3.344111e-02 3.436570e-02 3.522769e-02 3.609301e-02 3.688742e-02 3.767673e-02 3.838808e-02 3.908590e-02 
4.015027e-02 4.073693e-02 4.123417e-02 4.170372e-02 4.208288e-02 4.242742e-02 4.268301e-02 4.289760e-02 4.302701e-02 4.310965e-02 4.311303e-02 4.306454e-02 4.294460e-02 4.276844e-02 4.253019e-02 4.223224e-02 4.188274e-02 4.147105e-02 4.101912e-02 4.050363e-02 3.995960e-02 3.935182e-02 3.872722e-02 3.803987e-02 3.734709e-02 3.659376e-02 3.584572e-02 3.504037e-02 3.425014e-02 3.340672e-02 3.258712e-02 3.171917e-02 3.088246e-02 3.000269e-02 2.916024e-02 2.828027e-02 2.744236e-02 2.657248e-02 2.574809e-02 2.489715e-02 2.409392e-02 2.326928e-02 2.249347e-02 2.170102e-02 2.095759e-02 2.020183e-02 1.949450e-02 1.877873e-02 1.811015e-02 1.743658e-02 1.680848e-02 1.617844e-02 1.559181e-02 1.500592e-02 1.446120e-02 1.391958e-02 1.341680e-02 1.291927e-02 1.245824e-02 1.200446e-02 1.158497e-02 1.117462e-02 1.079654e-02 1.042951e-02 1.009299e-02 9.769487e-03 9.475059e-03 9.195772e-03 8.944496e-03 8.710672e-03 8.504187e-03 8.317684e-03 8.158218e-03 8.021464e-03 7.911745e-03 7.827595e-03 7.770659e-03 7.742148e-03 7.741056e-03 7.771100e-03 7.828631e-03 7.919733e-03 8.038141e-03 8.192214e-03 8.373116e-03 8.591452e-03 8.835871e-03 9.119248e-03 9.427759e-03 9.776612e-03 1.014951e-02 1.056408e-02 1.100148e-02 1.148187e-02 1.198374e-02 1.252989e-02 1.309594e-02 1.370748e-02 1.433699e-02 1.501302e-02 1.570461e-02 1.644340e-02 1.719472e-02 1.799346e-02 1.880090e-02 1.965536e-02 2.051375e-02 2.141801e-02 2.232042e-02 2.326663e-02 2.420415e-02 2.518243e-02 2.614411e-02 2.714250e-02 2.811544e-02 2.912002e-02 3.008958e-02 3.108476e-02 3.203492e-02 3.300388e-02 3.391779e-02 3.484304e-02 3.570364e-02 3.656773e-02 3.735847e-02 3.814468e-02 3.885026e-02 3.954331e-02 
4.061257e-02 4.119217e-02 4.168062e-02 4.214232e-02 4.251239e-02 4.284882e-02 4.309566e-02 4.330235e-02 4.342392e-02 4.349929e-02 4.349619e-02 4.344132e-02 4.331653e-02 4.313502e-02 4.289363e-02 4.259135e-02 4.224032e-02 4.182520e-02 4.137314e-02 4.085491e-02 4.031185e-02 3.970182e-02 3.907894e-02 3.838965e-02 3.769903e-02 3.694389e-02 3.619817e-02 3.539107e-02 3.460308e-02 3.375794e-02 3.294038e-02 3.207072e-02 3.123577e-02 3.035434e-02 2.951332e-02 2.863180e-02 2.779498e-02 2.692370e-02 2.610008e-02 2.524792e-02 2.444515e-02 2.361946e-02 2.284382e-02 2.205047e-02 2.130692e-02 2.055039e-02 1.984263e-02 1.912616e-02 1.845683e-02 1.778254e-02 1.715336e-02 1.652252e-02 1.593444e-02 1.534760e-02 1.480103e-02 1.425825e-02 1.375321e-02 1.325424e-02 1.279053e-02 1.233500e-02 1.191239e-02 1.149997e-02 1.111836e-02 1.074893e-02 1.040851e-02 1.008231e-02 9.783684e-03 9.501457e-03 9.245763e-03 9.008849e-03 8.797852e-03 8.608232e-03 8.444317e-03 8.304581e-03 8.190670e-03 8.103864e-03 8.043219e-03 8.012599e-03 8.008523e-03 8.037229e-03 8.092742e-03 8.183487e-03 8.301051e-03 8.455910e-03 8.637290e-03 8.857653e-03 9.103945e-03 9.390613e-03 9.702389e-03 1.005575e-02 1.043324e-02 1.085344e-02 1.129663e-02 1.178366e-02 1.229238e-02 1.284602e-02 1.341982e-02 1.403954e-02 1.467754e-02 1.536228e-02 1.606291e-02 1.681080e-02 1.757152e-02 1.837956e-02 1.919653e-02 2.006031e-02 2.092814e-02 2.184150e-02 2.275297e-02 2.370783e-02 2.465371e-02 2.563989e-02 2.660892e-02 2.761415e-02 2.859306e-02 2.960311e-02 3.057692e-02 3.157592e-02 3.252833e-02 3.349921e-02 3.441315e-02 3.533829e-02 3.619665e-02 3.705856e-02 3.784488e-02 3.862698e-02 3.932620e-02 4.001347e-02 
4.114912e-02 4.172095e-02 4.219819e-02 4.265076e-02 4.300851e-02 4.333512e-02 4.356935e-02 4.376623e-02 4.387569e-02 4.394182e-02 4.392774e-02 4.386465e-02 4.373045e-02 4.354201e-02 4.329299e-02 4.298514e-02 4.262828e-02 4.220886e-02 4.175260e-02 4.123116e-02 4.068525e-02 4.007285e-02 3.944813e-02 3.875709e-02 3.806531e-02 3.730883e-02 3.656234e-02 3.575417e-02 3.496559e-02 3.411955e-02 3.330143e-02 3.243101e-02 3.159543e-02 3.071338e-02 2.987167e-02 2.898967e-02 2.815208e-02 2.728048e-02 2.645604e-02 2.560372e-02 2.480009e-02 2.397441e-02 2.319788e-02 2.240466e-02 2.166019e-02 2.090385e-02 2.019514e-02 1.947884e-02 1.880850e-02 1.813430e-02 1.750400e-02 1.687308e-02 1.628373e-02 1.569657e-02 1.514854e-02 1.460513e-02 1.409839e-02 1.359841e-02 1.313276e-02 1.267580e-02 1.225098e-02 1.183669e-02 1.145261e-02 1.108086e-02 1.073770e-02 1.040876e-02 1.010718e-02 9.821833e-03 9.563026e-03 9.322682e-03 9.108495e-03 8.915239e-03 8.748171e-03 8.604726e-03 8.487847e-03 8.397433e-03 8.334185e-03 8.300266e-03 8.294165e-03 8.320116e-03 8.374410e-03 8.463186e-03 8.580557e-03 8.734457e-03 8.916859e-03 9.137450e-03 9.386111e-03 9.674309e-03 9.989867e-03 1.034611e-02 1.072879e-02 1.115322e-02 1.160299e-02 1.209552e-02 1.261211e-02 1.317247e-02 1.375533e-02 1.438289e-02 1.503102e-02 1.572460e-02 1.643629e-02 1.719389e-02 1.796641e-02 1.878489e-02 1.961421e-02 2.048894e-02 2.136940e-02 2.229397e-02 2.321801e-02 2.418403e-02 2.514202e-02 2.613894e-02 2.711915e-02 2.813425e-02 2.912291e-02 3.014150e-02 3.112309e-02 3.212882e-02 3.308653e-02 3.406192e-02 3.497831e-02 3.590541e-02 3.676309e-02 3.762428e-02 3.840676e-02 3.918546e-02 3.987789e-02 4.055935e-02 
4.169550e-02 4.225836e-02 4.272431e-02 4.316681e-02 4.351278e-02 4.382899e-02 4.405187e-02 4.423872e-02 4.433807e-02 4.439513e-02 4.437280e-02 4.430196e-02 4.416170e-02 4.396694e-02 4.371414e-02 4.340133e-02 4.304276e-02 4.261950e-02 4.216324e-02 4.163876e-02 4.109408e-02 4.047909e-02 3.985634e-02 3.916285e-02 3.847332e-02 3.771433e-02 3.697002e-02 3.615916e-02 3.537245e-02 3.452354e-02 3.370683e-02 3.283342e-02 3.199877e-02 3.111372e-02 3.027247e-02 2.938758e-02 2.855006e-02 2.767580e-02 2.685114e-02 2.599648e-02 2.519242e-02 2.436475e-02 2.358766e-02 2.279284e-02 2.204769e-02 2.129011e-02 2.058064e-02 1.986341e-02 1.919221e-02 1.851732e-02 1.788603e-02 1.725456e-02 1.666408e-02 1.607642e-02 1.552705e-02 1.498311e-02 1.447480e-02 1.397418e-02 1.350668e-02 1.304891e-02 1.262194e-02 1.220660e-02 1.182005e-02 1.144700e-02 1.110105e-02 1.077054e-02 1.046585e-02 1.017866e-02 9.916455e-03 9.674023e-03 9.456197e-03 9.260646e-03 9.089771e-03 8.943895e-03 8.823146e-03 8.730274e-03 8.663241e-03 8.626987e-03 8.617381e-03 8.641319e-03 8.692628e-03 8.779945e-03 8.895114e-03 9.048356e-03 9.229597e-03 9.450556e-03 9.699321e-03 9.989093e-03 1.030618e-02 1.066532e-02 1.105105e-02 1.147974e-02 1.193409e-02 1.243226e-02 1.295495e-02 1.352227e-02 1.411267e-02 1.474842e-02 1.540541e-02 1.610833e-02 1.683005e-02 1.759797e-02 1.838151e-02 1.921110e-02 2.005219e-02 2.093857e-02 2.183122e-02 2.276771e-02 2.370398e-02 2.468179e-02 2.565159e-02 2.665972e-02 2.765078e-02 2.867601e-02 2.967398e-02 3.070109e-02 3.168988e-02 3.270201e-02 3.366429e-02 3.464353e-02 3.556147e-02 3.648958e-02 3.734559e-02 3.820485e-02 3.898251e-02 3.975649e-02 4.044127e-02 4.111559e-02 
4.232069e-02 4.287376e-02 4.332567e-02 4.375649e-02 4.408691e-02 4.439054e-02 4.459756e-02 4.477190e-02 4.485616e-02 4.490161e-02 4.486583e-02 4.478487e-02 4.463337e-02 4.443029e-02 4.416867e-02 4.384936e-02 4.348433e-02 4.305619e-02 4.259551e-02 4.206742e-02 4.151987e-02 4.090217e-02 4.027759e-02 3.958192e-02 3.889112e-02 3.813020e-02 3.738480e-02 3.657207e-02 3.578418e-02 3.493339e-02 3.411529e-02 3.324001e-02 3.240372e-02 3.151687e-02 3.067378e-02 2.978726e-02 2.894781e-02 2.807218e-02 2.724559e-02 2.638988e-02 2.558399e-02 2.475564e-02 2.397689e-02 2.318173e-02 2.243515e-02 2.167755e-02 2.096686e-02 2.024986e-02 1.957763e-02 1.890313e-02 1.827097e-02 1.763995e-02 1.704869e-02 1.646144e-02 1.591132e-02 1.536765e-02 1.485856e-02 1.435799e-02 1.388962e-02 1.343160e-02 1.300361e-02 1.258768e-02 1.219992e-02 1.182588e-02 1.147851e-02 1.114658e-02 1.084023e-02 1.055119e-02 1.028708e-02 1.004235e-02 9.822377e-03 9.624103e-03 9.450857e-03 9.301875e-03 9.178581e-03 9.082299e-03 9.012642e-03 8.972807e-03 8.960648e-03 8.981029e-03 9.030066e-03 9.114108e-03 9.227551e-03 9.378097e-03 9.558450e-03 9.777599e-03 1.002659e-02 1.031572e-02 1.063440e-02 1.099428e-02 1.138315e-02 1.181414e-02 1.227329e-02 1.277541e-02 1.330464e-02 1.387761e-02 1.447628e-02 1.511940e-02 1.578639e-02 1.649834e-02 1.723170e-02 1.801025e-02 1.880693e-02 1.964860e-02 2.050412e-02 2.140382e-02 2.231188e-02 2.326261e-02 2.421485e-02 2.520738e-02 2.619316e-02 2.721594e-02 2.822231e-02 2.926148e-02 3.027331e-02 3.131289e-02 3.231327e-02 3.333566e-02 3.430647e-02 3.529306e-02 3.621576e-02 3.714777e-02 3.800436e-02 3.886376e-02 3.963764e-02 4.040801e-02 4.108490e-02 4.175220e-02 
4.295249e-02 4.349417e-02 4.393165e-02 4.434956e-02 4.466481e-02 4.495514e-02 4.514756e-02 4.530926e-02 4.538066e-02 4.541491e-02 4.536884e-02 4.527860e-02 4.511980e-02 4.490947e-02 4.464357e-02 4.431882e-02 4.395217e-02 4.351999e-02 4.305973e-02 4.252845e-02 4.198266e-02 4.136208e-02 4.073987e-02 4.004120e-02 3.935277e-02 3.858843e-02 3.784494e-02 3.702827e-02 3.624158e-02 3.538638e-02 3.456868e-02 3.368867e-02 3.285205e-02 3.196038e-02 3.111638e-02 3.022521e-02 2.938445e-02 2.850455e-02 2.767647e-02 2.681706e-02 2.600968e-02 2.517831e-02 2.439819e-02 2.360074e-02 2.285299e-02 2.209382e-02 2.138220e-02 2.066428e-02 1.999135e-02 1.931649e-02 1.868383e-02 1.805289e-02 1.746124e-02 1.687440e-02 1.632394e-02 1.578087e-02 1.527140e-02 1.477151e-02 1.430264e-02 1.384526e-02 1.341660e-02 1.300118e-02 1.261250e-02 1.223877e-02 1.189018e-02 1.155828e-02 1.125036e-02 1.096100e-02 1.069492e-02 1.044948e-02 1.022709e-02 1.002767e-02 9.851556e-03 9.700961e-03 9.574349e-03 9.476000e-03 9.402630e-03 9.360343e-03 9.344203e-03 9.361893e-03 9.406895e-03 9.488239e-03 9.597887e-03 9.746033e-03 9.923184e-03 1.014058e-02 1.038734e-02 1.067570e-02 1.099345e-02 1.135386e-02 1.174340e-02 1.217645e-02 1.263809e-02 1.314399e-02 1.367764e-02 1.425620e-02 1.486134e-02 1.551190e-02 1.618737e-02 1.690861e-02 1.765241e-02 1.844202e-02 1.925096e-02 2.010529e-02 2.097464e-02 2.188835e-02 2.281147e-02 2.377717e-02 2.474520e-02 2.575316e-02 2.675483e-02 2.779286e-02 2.881444e-02 2.986791e-02 3.089339e-02 3.194550e-02 3.295705e-02 3.398936e-02 3.496799e-02 3.596115e-02 3.688766e-02 3.782237e-02 3.867832e-02 3.953631e-02 4.030511e-02 4.107012e-02 4.173787e-02 4.239636e-02 