# vtk DataFile Version 2.0
Comment goes here
ASCII

DATASET STRUCTURED_POINTS
DIMENSIONS    128   128   1

ORIGIN    0.000   0.000   0.000
SPACING   0.0078125 0.0078125   1.000

POINT_DATA   16384
SCALARS uX double
LOOKUP_TABLE default

-1.803007e-02 -1.857952e-02 -1.908027e-02 -1.956552e-02 -1.999882e-02 -2.041047e-02 -2.076814e-02 -2.109870e-02 -2.137455e-02 -2.161864e-02 -2.180868e-02 -2.196320e-02 -2.206565e-02 -2.212978e-02 -2.214511e-02 -2.212025e-02 -2.205098e-02 -2.194058e-02 -2.179112e-02 -2.160042e-02 -2.137679e-02 -2.111257e-02 -2.082206e-02 -2.049226e-02 -2.014311e-02 -1.975651e-02 -1.935757e-02 -1.892341e-02 -1.848378e-02 -1.801145e-02 -1.754017e-02 -1.703887e-02 -1.654467e-02 -1.602318e-02 -1.551423e-02 -1.498070e-02 -1.446443e-02 -1.392622e-02 -1.340925e-02 -1.287281e-02 -1.236084e-02 -1.183172e-02 -1.132955e-02 -1.081234e-02 -1.032387e-02 -9.822299e-03 -9.350592e-03 -8.867551e-03 -8.414931e-03 -7.952583e-03 -7.520717e-03 -7.080596e-03 -6.670600e-03 -6.253716e-03 -5.866264e-03 -5.473212e-03 -5.108637e-03 -4.739702e-03 -4.398094e-03 -4.053342e-03 -3.734639e-03 -3.414009e-03 -3.118075e-03 -2.821456e-03 -2.548154e-03 -2.275455e-03 -2.024707e-03 -1.775914e-03 -1.547756e-03 -1.322988e-03 -1.117614e-03 -9.171615e-04 -7.349637e-04 -5.593274e-04 -4.009241e-04 -2.508443e-04 -1.171055e-04 6.417118e-06 1.143524e-04 2.100427e-04 2.907575e-04 3.570600e-04 4.088588e-04 4.439422e-04 4.648612e-04 4.666344e-04 4.544641e-04 4.206065e-04 3.729299e-04 3.009383e-04 2.151861e-04 1.024415e-04 -2.403127e-05 -1.801754e-04 -3.499903e-04 -5.520951e-04 -7.677262e-04 -1.018129e-03 -1.281753e-03 -1.582404e-03 -1.895729e-03 -2.248005e-03 -2.612077e-03 -3.016578e-03 -3.431574e-03 -3.887914e-03 -4.352935e-03 -4.859535e-03 -5.372409e-03 -5.926307e-03 -6.483420e-03 -7.080124e-03 -7.676301e-03 -8.309693e-03 -8.938143e-03 -9.600465e-03 -1.025281e-02 -1.093474e-02 -1.160113e-02 -1.229195e-02 -1.296130e-02 -1.364917e-02 -1.430949e-02 -1.498182e-02 -1.562057e-02 -1.626446e-02 -1.686906e-02 -1.747177e-02 
-1.804698e-02 -1.859789e-02 -1.909963e-02 -1.958619e-02 -2.002034e-02 -2.043312e-02 -2.079148e-02 -2.112295e-02 -2.139931e-02 -2.164407e-02 -2.183442e-02 -2.198936e-02 -2.209193e-02 -2.215622e-02 -2.217147e-02 -2.214653e-02 -2.207701e-02 -2.196628e-02 -2.181642e-02 -2.162519e-02 -2.140102e-02 -2.113608e-02 -2.084494e-02 -2.051428e-02 -2.016442e-02 -1.977685e-02 -1.937716e-02 -1.894195e-02 -1.850156e-02 -1.802813e-02 -1.755610e-02 -1.705369e-02 -1.655878e-02 -1.603620e-02 -1.552658e-02 -1.499200e-02 -1.447514e-02 -1.393592e-02 -1.341842e-02 -1.288105e-02 -1.236863e-02 -1.183865e-02 -1.133610e-02 -1.081811e-02 -1.032932e-02 -9.827050e-03 -9.355091e-03 -8.871422e-03 -8.418606e-03 -7.955699e-03 -7.523684e-03 -7.083068e-03 -6.672962e-03 -6.255640e-03 -5.868109e-03 -5.474671e-03 -5.110039e-03 -4.740761e-03 -4.399114e-03 -4.054057e-03 -3.735325e-03 -3.414423e-03 -3.118464e-03 -2.821600e-03 -2.548273e-03 -2.275351e-03 -2.024573e-03 -1.775575e-03 -1.547379e-03 -1.322419e-03 -1.116996e-03 -9.163621e-04 -7.340999e-04 -5.582894e-04 -3.998039e-04 -2.495541e-04 -1.157132e-04 7.977931e-06 1.160372e-04 2.118963e-04 2.927585e-04 3.592314e-04 4.112019e-04 4.464575e-04 4.675723e-04 4.695187e-04 4.575671e-04 4.238814e-04 3.764435e-04 3.046186e-04 2.191204e-04 1.065309e-04 -1.967947e-05 -1.756887e-04 -3.452423e-04 -5.472437e-04 -7.626266e-04 -1.012971e-03 -1.276376e-03 -1.577031e-03 -1.890182e-03 -2.242543e-03 -2.606507e-03 -3.011195e-03 -3.426168e-03 -3.882820e-03 -4.347924e-03 -4.854978e-03 -5.368061e-03 -5.922573e-03 -6.480036e-03 -7.077525e-03 -7.674204e-03 -8.308558e-03 -8.937664e-03 -9.601122e-03 -1.025427e-02 -1.093749e-02 -1.160482e-02 -1.229707e-02 -1.296746e-02 -1.365686e-02 -1.431829e-02 -1.499221e-02 -1.563211e-02 -1.627760e-02 -1.688334e-02 -1.748760e-02 
-1.806094e-02 -1.861288e-02 -1.911580e-02 -1.960320e-02 -2.003829e-02 -2.045166e-02 -2.081067e-02 -2.114243e-02 -2.141911e-02 -2.166387e-02 -2.185421e-02 -2.200885e-02 -2.211110e-02 -2.217484e-02 -2.218949e-02 -2.216378e-02 -2.209344e-02 -2.198179e-02 -2.183096e-02 -2.163872e-02 -2.141350e-02 -2.114755e-02 -2.085533e-02 -2.052371e-02 -2.017284e-02 -1.978443e-02 -1.938385e-02 -1.894798e-02 -1.850687e-02 -1.803301e-02 -1.756048e-02 -1.705790e-02 -1.656271e-02 -1.604024e-02 -1.553061e-02 -1.499640e-02 -1.447978e-02 -1.394121e-02 -1.342419e-02 -1.288772e-02 -1.237600e-02 -1.184713e-02 -1.134546e-02 -1.082877e-02 -1.034102e-02 -9.840176e-03 -9.369382e-03 -8.887236e-03 -8.435664e-03 -7.974337e-03 -7.543609e-03 -7.104591e-03 -6.695783e-03 -6.280043e-03 -5.893787e-03 -5.501883e-03 -5.138479e-03 -4.770660e-03 -4.430169e-03 -4.086474e-03 -3.768807e-03 -3.449149e-03 -3.154149e-03 -2.858395e-03 -2.585907e-03 -2.313948e-03 -2.063877e-03 -1.815685e-03 -1.588055e-03 -1.363733e-03 -1.158726e-03 -9.585541e-04 -7.765503e-04 -6.010192e-04 -4.426283e-04 -2.924683e-04 -1.585522e-04 -3.475563e-05 7.355392e-05 1.697186e-04 2.510101e-04 3.179919e-04 3.705731e-04 4.065426e-04 4.284497e-04 4.313136e-04 4.203330e-04 3.877633e-04 3.414677e-04 2.709476e-04 1.867506e-04 7.563889e-05 -4.913042e-05 -2.035117e-04 -3.715108e-04 -5.717648e-04 -7.855147e-04 -1.034032e-03 -1.295769e-03 -1.594565e-03 -1.906064e-03 -2.256591e-03 -2.618977e-03 -3.021919e-03 -3.435453e-03 -3.890510e-03 -4.354378e-03 -4.860055e-03 -5.372166e-03 -5.925579e-03 -6.482389e-03 -7.079106e-03 -7.675487e-03 -8.309428e-03 -8.938613e-03 -9.602029e-03 -1.025563e-02 -1.093917e-02 -1.160729e-02 -1.230017e-02 -1.297165e-02 -1.366195e-02 -1.432468e-02 -1.499967e-02 -1.564098e-02 -1.628762e-02 -1.689480e-02 -1.750020e-02 
-1.810870e-02 -1.866461e-02 -1.917071e-02 -1.966160e-02 -2.009935e-02 -2.051559e-02 -2.087662e-02 -2.121054e-02 -2.148855e-02 -2.173467e-02 -2.192561e-02 -2.208080e-02 -2.218295e-02 -2.224646e-02 -2.226036e-02 -2.223370e-02 -2.216204e-02 -2.204882e-02 -2.189620e-02 -2.170188e-02 -2.147452e-02 -2.120611e-02 -2.091154e-02 -2.057722e-02 -2.022392e-02 -1.983271e-02 -1.942973e-02 -1.899109e-02 -1.854772e-02 -1.807123e-02 -1.759669e-02 -1.709171e-02 -1.659483e-02 -1.607026e-02 -1.555930e-02 -1.502336e-02 -1.450578e-02 -1.396586e-02 -1.344827e-02 -1.291082e-02 -1.239890e-02 -1.186942e-02 -1.136790e-02 -1.085093e-02 -1.036361e-02 -9.862787e-03 -9.392662e-03 -8.910786e-03 -8.460073e-03 -7.999213e-03 -7.569481e-03 -7.131075e-03 -6.723349e-03 -6.308318e-03 -5.923185e-03 -5.532043e-03 -5.169760e-03 -4.802717e-03 -4.463307e-03 -4.120365e-03 -3.803708e-03 -3.484751e-03 -3.190663e-03 -2.895531e-03 -2.623833e-03 -2.352394e-03 -2.102972e-03 -1.855178e-03 -1.628038e-03 -1.403974e-03 -1.199285e-03 -9.992159e-04 -8.173437e-04 -6.417461e-04 -4.832880e-04 -3.328803e-04 -1.986874e-04 -7.445114e-05 3.435398e-05 1.311589e-04 2.131719e-04 2.810007e-04 3.345336e-04 3.715590e-04 3.946482e-04 3.987743e-04 3.892008e-04 3.580905e-04 3.134146e-04 2.445334e-04 1.621472e-04 5.282630e-05 -6.997359e-05 -2.224519e-04 -3.883679e-04 -5.866601e-04 -7.982720e-04 -1.044836e-03 -1.304453e-03 -1.601386e-03 -1.910871e-03 -2.259719e-03 -2.620293e-03 -3.021845e-03 -3.433876e-03 -3.887941e-03 -4.350721e-03 -4.855910e-03 -5.367449e-03 -5.920973e-03 -6.477812e-03 -7.075314e-03 -7.672388e-03 -8.307832e-03 -8.938398e-03 -9.604040e-03 -1.025969e-02 -1.094614e-02 -1.161693e-02 -1.231332e-02 -1.298798e-02 -1.368225e-02 -1.434852e-02 -1.502778e-02 -1.567283e-02 -1.632384e-02 -1.693475e-02 -1.754442e-02 
-1.815318e-02 -1.871261e-02 -1.922209e-02 -1.971598e-02 -2.015648e-02 -2.057502e-02 -2.093803e-02 -2.127344e-02 -2.155259e-02 -2.179935e-02 -2.199056e-02 -2.214557e-02 -2.224716e-02 -2.230970e-02 -2.232230e-02 -2.229400e-02 -2.222043e-02 -2.210503e-02 -2.195003e-02 -2.175316e-02 -2.152313e-02 -2.125196e-02 -2.095461e-02 -2.061751e-02 -2.026147e-02 -1.986762e-02 -1.946211e-02 -1.902112e-02 -1.857557e-02 -1.809714e-02 -1.762086e-02 -1.711446e-02 -1.661637e-02 -1.609095e-02 -1.557933e-02 -1.504315e-02 -1.452549e-02 -1.398591e-02 -1.346881e-02 -1.293227e-02 -1.242134e-02 -1.189327e-02 -1.139319e-02 -1.087806e-02 -1.039257e-02 -9.893936e-03 -9.425925e-03 -8.946507e-03 -8.498119e-03 -8.039893e-03 -7.612615e-03 -7.176939e-03 -6.771719e-03 -6.359436e-03 -5.976793e-03 -5.588349e-03 -5.228479e-03 -4.864024e-03 -4.526897e-03 -4.186382e-03 -3.871835e-03 -3.555099e-03 -3.262910e-03 -2.969758e-03 -2.699716e-03 -2.429985e-03 -2.181951e-03 -1.935566e-03 -1.709523e-03 -1.486547e-03 -1.282644e-03 -1.083323e-03 -9.019075e-04 -7.267000e-04 -5.683547e-04 -4.179631e-04 -2.835243e-04 -1.589162e-04 -4.949417e-05 4.808245e-05 1.310933e-04 2.001020e-04 2.550201e-04 2.936375e-04 3.185002e-04 3.246280e-04 3.172099e-04 2.884998e-04 2.463453e-04 1.802405e-04 1.007132e-04 -5.491430e-06 -1.251383e-04 -2.742133e-04 -4.367432e-04 -6.314169e-04 -8.394903e-04 -1.082313e-03 -1.338339e-03 -1.631521e-03 -1.937484e-03 -2.282702e-03 -2.639961e-03 -3.038150e-03 -3.447222e-03 -3.898346e-03 -4.358675e-03 -4.861499e-03 -5.371241e-03 -5.923117e-03 -6.478938e-03 -7.075622e-03 -7.672550e-03 -8.308081e-03 -8.939419e-03 -9.606076e-03 -1.026341e-02 -1.095176e-02 -1.162507e-02 -1.232415e-02 -1.300203e-02 -1.369961e-02 -1.436961e-02 -1.505261e-02 -1.570167e-02 -1.635660e-02 -1.697156e-02 -1.758506e-02 
-1.823139e-02 -1.879737e-02 -1.931227e-02 -1.981189e-02 -2.025689e-02 -2.068009e-02 -2.104649e-02 -2.138530e-02 -2.166660e-02 -2.191541e-02 -2.210752e-02 -2.226320e-02 -2.236445e-02 -2.242635e-02 -2.243749e-02 -2.240735e-02 -2.233134e-02 -2.221309e-02 -2.205486e-02 -2.185434e-02 -2.162053e-02 -2.134513e-02 -2.104367e-02 -2.070201e-02 -2.034177e-02 -1.994327e-02 -1.953370e-02 -1.908820e-02 -1.863892e-02 -1.815632e-02 -1.767679e-02 -1.716671e-02 -1.666597e-02 -1.613749e-02 -1.562390e-02 -1.508533e-02 -1.456642e-02 -1.402518e-02 -1.350752e-02 -1.297001e-02 -1.245920e-02 -1.193083e-02 -1.143146e-02 -1.091662e-02 -1.043235e-02 -9.934522e-03 -9.468153e-03 -8.989950e-03 -8.543523e-03 -8.086831e-03 -7.661733e-03 -7.227812e-03 -6.824899e-03 -6.414504e-03 -6.034210e-03 -5.647703e-03 -5.290148e-03 -4.927607e-03 -4.592697e-03 -4.254008e-03 -3.941522e-03 -3.626472e-03 -3.336139e-03 -3.044485e-03 -2.776056e-03 -2.507594e-03 -2.260895e-03 -2.015517e-03 -1.790501e-03 -1.568240e-03 -1.365029e-03 -1.166104e-03 -9.850248e-04 -8.098690e-04 -6.514816e-04 -5.007766e-04 -3.658982e-04 -2.405924e-04 -1.303165e-04 -3.164192e-05 5.265064e-05 1.231692e-04 1.798054e-04 2.203501e-04 2.473692e-04 2.558387e-04 2.510078e-04 2.250395e-04 1.858828e-04 1.228911e-04 4.673614e-05 -5.603110e-05 -1.719867e-04 -3.173687e-04 -4.759668e-04 -6.667846e-04 -8.707892e-04 -1.109713e-03 -1.361664e-03 -1.651049e-03 -1.953085e-03 -2.294780e-03 -2.648440e-03 -3.043569e-03 -3.449561e-03 -3.898289e-03 -4.356256e-03 -4.857546e-03 -5.365832e-03 -5.917217e-03 -6.472652e-03 -7.070032e-03 -7.667763e-03 -8.305268e-03 -8.938654e-03 -9.608583e-03 -1.026919e-02 -1.096205e-02 -1.163976e-02 -1.234444e-02 -1.302765e-02 -1.373169e-02 -1.440770e-02 -1.509771e-02 -1.575315e-02 -1.641529e-02 -1.703664e-02 -1.765721e-02 
-1.830564e-02 -1.887770e-02 -1.939822e-02 -1.990304e-02 -2.035262e-02 -2.077986e-02 -2.114957e-02 -2.149108e-02 -2.177432e-02 -2.202441e-02 -2.221703e-02 -2.237258e-02 -2.247299e-02 -2.253346e-02 -2.254255e-02 -2.250983e-02 -2.243077e-02 -2.230902e-02 -2.214698e-02 -2.194229e-02 -2.170417e-02 -2.142424e-02 -2.111825e-02 -2.077197e-02 -2.040727e-02 -2.000432e-02 -1.959059e-02 -1.914107e-02 -1.868816e-02 -1.820216e-02 -1.771971e-02 -1.720702e-02 -1.670418e-02 -1.617397e-02 -1.565918e-02 -1.511982e-02 -1.460062e-02 -1.405951e-02 -1.354244e-02 -1.300595e-02 -1.249652e-02 -1.196996e-02 -1.147269e-02 -1.096035e-02 -1.047876e-02 -9.983985e-03 -9.520766e-03 -9.046035e-03 -8.603086e-03 -8.150153e-03 -7.728736e-03 -7.298734e-03 -6.899586e-03 -6.493152e-03 -6.116601e-03 -5.733992e-03 -5.380064e-03 -5.021268e-03 -4.689789e-03 -4.354613e-03 -4.045294e-03 -3.733459e-03 -3.445975e-03 -3.157182e-03 -2.891234e-03 -2.625234e-03 -2.380610e-03 -2.137254e-03 -1.913872e-03 -1.693161e-03 -1.491114e-03 -1.293233e-03 -1.112821e-03 -9.381792e-04 -7.799364e-04 -6.291892e-04 -4.939108e-04 -3.679843e-04 -2.567433e-04 -1.568503e-04 -7.101096e-05 1.338639e-06 6.011483e-05 1.031111e-04 1.328672e-04 1.444073e-04 1.429032e-04 1.206100e-04 8.534782e-05 2.660376e-05 -4.512986e-05 -1.431303e-04 -2.542024e-04 -3.943780e-04 -5.477228e-04 -7.330044e-04 -9.315093e-04 -1.164709e-03 -1.411071e-03 -1.694721e-03 -1.991268e-03 -2.327424e-03 -2.675911e-03 -3.065931e-03 -3.467306e-03 -3.911602e-03 -4.365757e-03 -4.863542e-03 -5.369058e-03 -5.918094e-03 -6.472009e-03 -7.068389e-03 -7.666004e-03 -8.303984e-03 -8.938743e-03 -9.610662e-03 -1.027412e-02 -1.097043e-02 -1.165235e-02 -1.236177e-02 -1.305035e-02 -1.376016e-02 -1.444238e-02 -1.513885e-02 -1.580095e-02 -1.646984e-02 -1.709792e-02 -1.772510e-02 
-1.841351e-02 -1.899482e-02 -1.952309e-02 -2.003596e-02 -2.049195e-02 -2.092568e-02 -2.130017e-02 -2.164636e-02 -2.193258e-02 -2.218540e-02 -2.237917e-02 -2.253548e-02 -2.263528e-02 -2.269464e-02 -2.270149e-02 -2.266600e-02 -2.258331e-02 -2.245736e-02 -2.229060e-02 -2.208061e-02 -2.183701e-02 -2.155100e-02 -2.123912e-02 -2.088635e-02 -2.051569e-02 -2.010620e-02 -1.968675e-02 -1.923097e-02 -1.877285e-02 -1.828115e-02 -1.779425e-02 -1.727663e-02 -1.677026e-02 -1.623607e-02 -1.571876e-02 -1.517646e-02 -1.465579e-02 -1.411280e-02 -1.359530e-02 -1.305796e-02 -1.254907e-02 -1.202262e-02 -1.152675e-02 -1.101537e-02 -1.053592e-02 -1.004282e-02 -9.582309e-03 -9.109830e-03 -8.670028e-03 -8.219774e-03 -7.801795e-03 -7.374757e-03 -6.979201e-03 -6.575885e-03 -6.202956e-03 -5.823501e-03 -5.473119e-03 -5.117406e-03 -4.789304e-03 -4.457053e-03 -4.150863e-03 -3.841717e-03 -3.557047e-03 -3.270643e-03 -3.007141e-03 -2.743173e-03 -2.500578e-03 -2.258852e-03 -2.037043e-03 -1.817516e-03 -1.616550e-03 -1.419372e-03 -1.239516e-03 -1.065062e-03 -9.068208e-04 -7.557155e-04 -6.198563e-04 -4.929977e-04 -3.805688e-04 -2.791457e-04 -1.914903e-04 -1.169939e-04 -5.575873e-05 -9.988189e-06 2.287577e-05 3.781709e-05 4.006285e-05 2.178183e-05 -9.112509e-06 -6.326974e-05 -1.300642e-04 -2.229652e-04 -3.286012e-04 -4.632577e-04 -6.107769e-04 -7.902488e-04 -9.826836e-04 -1.209952e-03 -1.450183e-03 -1.727988e-03 -2.018569e-03 -2.349214e-03 -2.692160e-03 -3.077281e-03 -3.473826e-03 -3.914136e-03 -4.364466e-03 -4.859479e-03 -5.362465e-03 -5.910220e-03 -6.463153e-03 -7.059972e-03 -7.658346e-03 -8.298636e-03 -8.935993e-03 -9.612141e-03 -1.028003e-02 -1.098240e-02 -1.167044e-02 -1.238756e-02 -1.308367e-02 -1.380247e-02 -1.449325e-02 -1.519957e-02 -1.587080e-02 -1.654987e-02 -1.718711e-02 -1.782428e-02 
-1.851639e-02 -1.910644e-02 -1.964266e-02 -2.016300e-02 -2.062545e-02 -2.106498e-02 -2.144414e-02 -2.179422e-02 -2.208314e-02 -2.233783e-02 -2.253230e-02 -2.268849e-02 -2.278710e-02 -2.284448e-02 -2.284846e-02 -2.280937e-02 -2.272240e-02 -2.259156e-02 -2.241947e-02 -2.220364e-02 -2.195403e-02 -2.166166e-02 -2.134347e-02 -2.098420e-02 -2.060732e-02 -2.019158e-02 -1.976636e-02 -1.930490e-02 -1.884177e-02 -1.834526e-02 -1.785433e-02 -1.733299e-02 -1.682375e-02 -1.628707e-02 -1.576813e-02 -1.522462e-02 -1.470358e-02 -1.416067e-02 -1.364401e-02 -1.310795e-02 -1.260101e-02 -1.207693e-02 -1.158396e-02 -1.107588e-02 -1.060013e-02 -1.011107e-02 -9.654877e-03 -9.187009e-03 -8.751949e-03 -8.306684e-03 -7.893704e-03 -7.471862e-03 -7.081402e-03 -6.683329e-03 -6.315452e-03 -5.941149e-03 -5.595650e-03 -5.244878e-03 -4.921384e-03 -4.593760e-03 -4.291817e-03 -3.986898e-03 -3.706041e-03 -3.423394e-03 -3.163210e-03 -2.902469e-03 -2.662647e-03 -2.423566e-03 -2.203941e-03 -1.986436e-03 -1.787026e-03 -1.591206e-03 -1.412243e-03 -1.238447e-03 -1.080404e-03 -9.292226e-04 -7.928349e-04 -6.651355e-04 -5.514232e-04 -4.483663e-04 -3.586477e-04 -2.817020e-04 -2.176049e-04 -1.685549e-04 -1.320208e-04 -1.129670e-04 -1.062473e-04 -1.195969e-04 -1.452368e-04 -1.936800e-04 -2.544882e-04 -3.409579e-04 -4.399559e-04 -5.675645e-04 -7.079124e-04 -8.798619e-04 -1.064754e-03 -1.284214e-03 -1.516740e-03 -1.786687e-03 -2.069658e-03 -2.392680e-03 -2.728410e-03 -3.106468e-03 -3.496525e-03 -3.930680e-03 -4.375603e-03 -4.865726e-03 -5.364727e-03 -5.909195e-03 -6.459876e-03 -7.055292e-03 -7.653382e-03 -8.294351e-03 -8.933526e-03 -9.612509e-03 -1.028432e-02 -1.099162e-02 -1.168553e-02 -1.240944e-02 -1.311308e-02 -1.384017e-02 -1.453970e-02 -1.525530e-02 -1.593596e-02 -1.662473e-02 -1.727148e-02 -1.791816e-02 
-1.865269e-02 -1.925485e-02 -1.980126e-02 -2.033211e-02 -2.080295e-02 -2.125090e-02 -2.163625e-02 -2.199232e-02 -2.228503e-02 -2.254312e-02 -2.273894e-02 -2.289595e-02 -2.299357e-02 -2.304932e-02 -2.305019e-02 -2.300728e-02 -2.291542e-02 -2.277893e-02 -2.260055e-02 -2.237767e-02 -2.212081e-02 -2.182043e-02 -2.149451e-02 -2.112677e-02 -2.074212e-02 -2.031791e-02 -1.988531e-02 -1.941582e-02 -1.894606e-02 -1.844234e-02 -1.794583e-02 -1.741839e-02 -1.690483e-02 -1.636334e-02 -1.584148e-02 -1.529458e-02 -1.477203e-02 -1.422716e-02 -1.371037e-02 -1.317373e-02 -1.266794e-02 -1.214454e-02 -1.165383e-02 -1.114753e-02 -1.067497e-02 -1.018862e-02 -9.736351e-03 -9.271901e-03 -8.841299e-03 -8.399972e-03 -7.991788e-03 -7.574213e-03 -7.188710e-03 -6.795062e-03 -6.432143e-03 -6.062268e-03 -5.721591e-03 -5.375116e-03 -5.056192e-03 -4.732623e-03 -4.434899e-03 -4.133696e-03 -3.856627e-03 -3.577277e-03 -3.320382e-03 -3.062452e-03 -2.825364e-03 -2.588550e-03 -2.371056e-03 -2.155222e-03 -1.957296e-03 -1.762508e-03 -1.584341e-03 -1.410894e-03 -1.252921e-03 -1.101368e-03 -9.642891e-04 -8.354581e-04 -7.202599e-04 -6.152793e-04 -5.232496e-04 -4.435602e-04 -3.763034e-04 -3.236708e-04 -2.831150e-04 -2.596340e-04 -2.480322e-04 -2.561227e-04 -2.760430e-04 -3.184332e-04 -3.727353e-04 -4.524287e-04 -5.442206e-04 -6.644406e-04 -7.970124e-04 -9.611197e-04 -1.137846e-03 -1.349221e-03 -1.573427e-03 -1.835318e-03 -2.110104e-03 -2.425421e-03 -2.753447e-03 -3.124524e-03 -3.507741e-03 -3.936047e-03 -4.375402e-03 -4.861223e-03 -5.356335e-03 -5.898444e-03 -6.447275e-03 -7.042611e-03 -7.641178e-03 -8.284578e-03 -8.926720e-03 -9.610740e-03 -1.028801e-02 -1.100288e-02 -1.170458e-02 -1.243831e-02 -1.315171e-02 -1.389043e-02 -1.460117e-02 -1.532960e-02 -1.602227e-02 -1.672438e-02 -1.738323e-02 -1.804298e-02 
-1.878260e-02 -1.939632e-02 -1.995311e-02 -2.049381e-02 -2.097304e-02 -2.142862e-02 -2.181998e-02 -2.218113e-02 -2.247726e-02 -2.273777e-02 -2.293440e-02 -2.309120e-02 -2.318717e-02 -2.324030e-02 -2.323735e-02 -2.318973e-02 -2.309224e-02 -2.294936e-02 -2.276403e-02 -2.253356e-02 -2.226891e-02 -2.196026e-02 -2.162621e-02 -2.125005e-02 -2.085743e-02 -2.042514e-02 -1.998518e-02 -1.950840e-02 -1.903231e-02 -1.852245e-02 -1.802091e-02 -1.748877e-02 -1.697171e-02 -1.642713e-02 -1.590339e-02 -1.535507e-02 -1.483228e-02 -1.428764e-02 -1.377216e-02 -1.323730e-02 -1.273422e-02 -1.221397e-02 -1.172718e-02 -1.122519e-02 -1.075753e-02 -1.027641e-02 -9.829779e-03 -9.371241e-03 -8.946789e-03 -8.511819e-03 -8.110071e-03 -7.699080e-03 -7.320097e-03 -6.933063e-03 -6.576573e-03 -6.213170e-03 -5.878680e-03 -5.538390e-03 -5.225284e-03 -4.907489e-03 -4.615112e-03 -4.319172e-03 -4.046893e-03 -3.772211e-03 -3.519479e-03 -3.265555e-03 -3.031945e-03 -2.798415e-03 -2.583663e-03 -2.370341e-03 -2.174377e-03 -1.981281e-03 -1.804255e-03 -1.631637e-03 -1.473944e-03 -1.322314e-03 -1.184615e-03 -1.054763e-03 -9.380047e-04 -8.310204e-04 -7.364576e-04 -6.537491e-04 -5.829569e-04 -5.262651e-04 -4.811528e-04 -4.525610e-04 -4.353779e-04 -4.373135e-04 -4.506463e-04 -4.858720e-04 -5.326292e-04 -6.042179e-04 -6.875957e-04 -7.988845e-04 -9.223092e-04 -1.076826e-03 -1.243864e-03 -1.445218e-03 -1.659451e-03 -1.911181e-03 -2.176032e-03 -2.481410e-03 -2.799921e-03 -3.161698e-03 -3.536258e-03 -3.956365e-03 -4.388387e-03 -4.867592e-03 -5.357164e-03 -5.894701e-03 -6.440217e-03 -7.033429e-03 -7.631250e-03 -8.275265e-03 -8.919441e-03 -9.606947e-03 -1.028906e-02 -1.101023e-02 -1.171941e-02 -1.246197e-02 -1.318511e-02 -1.393469e-02 -1.465683e-02 -1.539750e-02 -1.610251e-02 -1.681744e-02 -1.748876e-02 -1.816110e-02 
-1.894562e-02 -1.957452e-02 -2.014412e-02 -2.069793e-02 -2.118762e-02 -2.165362e-02 -2.205261e-02 -2.242110e-02 -2.272179e-02 -2.298634e-02 -2.318445e-02 -2.334204e-02 -2.343655e-02 -2.348742e-02 -2.348038e-02 -2.342780e-02 -2.332403e-02 -2.317394e-02 -2.298062e-02 -2.274125e-02 -2.246748e-02 -2.214881e-02 -2.180511e-02 -2.141843e-02 -2.101619e-02 -2.057348e-02 -2.012449e-02 -1.963793e-02 -1.915383e-02 -1.863530e-02 -1.812717e-02 -1.758783e-02 -1.706583e-02 -1.651577e-02 -1.598888e-02 -1.543691e-02 -1.491278e-02 -1.436632e-02 -1.385124e-02 -1.331629e-02 -1.281519e-02 -1.229642e-02 -1.181298e-02 -1.131381e-02 -1.085062e-02 -1.037342e-02 -9.932115e-03 -9.478334e-03 -9.059808e-03 -8.630179e-03 -8.234714e-03 -7.829411e-03 -7.456850e-03 -7.075637e-03 -6.725515e-03 -6.367882e-03 -6.039543e-03 -5.704813e-03 -5.397505e-03 -5.084927e-03 -4.797882e-03 -4.506706e-03 -4.239203e-03 -3.968742e-03 -3.720154e-03 -3.469831e-03 -3.239671e-03 -3.009059e-03 -2.797008e-03 -2.585863e-03 -2.391803e-03 -2.200091e-03 -2.024126e-03 -1.852050e-03 -1.694530e-03 -1.542552e-03 -1.404093e-03 -1.272956e-03 -1.154463e-03 -1.045214e-03 -9.479004e-04 -8.619079e-04 -7.873131e-04 -7.262873e-04 -6.762956e-04 -6.423026e-04 -6.191545e-04 -6.146251e-04 -6.209218e-04 -6.486507e-04 -6.873476e-04 -7.504782e-04 -8.248614e-04 -9.268502e-04 -1.040489e-03 -1.185042e-03 -1.341710e-03 -1.532685e-03 -1.736241e-03 -1.977501e-03 -2.231722e-03 -2.526936e-03 -2.835292e-03 -3.187683e-03 -3.553055e-03 -3.965079e-03 -4.389414e-03 -4.862390e-03 -5.346316e-03 -5.880017e-03 -6.422432e-03 -7.014672e-03 -7.612346e-03 -8.258604e-03 -8.905847e-03 -9.598976e-03 -1.028743e-02 -1.101753e-02 -1.173613e-02 -1.249063e-02 -1.322581e-02 -1.398976e-02 -1.472591e-02 -1.548258e-02 -1.620270e-02 -1.693434e-02 -1.762091e-02 -1.830967e-02 
-1.910046e-02 -1.974392e-02 -2.032649e-02 -2.089265e-02 -2.139274e-02 -2.186824e-02 -2.227458e-02 -2.264931e-02 -2.295407e-02 -2.322150e-02 -2.342041e-02 -2.357760e-02 -2.366986e-02 -2.371733e-02 -2.370538e-02 -2.364682e-02 -2.353597e-02 -2.337787e-02 -2.317587e-02 -2.292704e-02 -2.264361e-02 -2.231471e-02 -2.196100e-02 -2.156393e-02 -2.115197e-02 -2.069936e-02 -2.024149e-02 -1.974607e-02 -1.925442e-02 -1.872854e-02 -1.821455e-02 -1.766969e-02 -1.714378e-02 -1.659023e-02 -1.606147e-02 -1.550811e-02 -1.498416e-02 -1.443835e-02 -1.392534e-02 -1.339294e-02 -1.289560e-02 -1.238103e-02 -1.190280e-02 -1.140921e-02 -1.095236e-02 -1.048181e-02 -1.004769e-02 -9.601323e-03 -9.190532e-03 -8.768793e-03 -8.381341e-03 -7.984141e-03 -7.619631e-03 -7.246501e-03 -6.904263e-03 -6.554491e-03 -6.233695e-03 -5.906440e-03 -5.606193e-03 -5.300565e-03 -5.019984e-03 -4.735125e-03 -4.473397e-03 -4.208528e-03 -3.964952e-03 -3.719422e-03 -3.493450e-03 -3.266770e-03 -3.058030e-03 -2.849900e-03 -2.658227e-03 -2.468563e-03 -2.294012e-03 -2.122968e-03 -1.965844e-03 -1.813832e-03 -1.674705e-03 -1.542419e-03 -1.422145e-03 -1.310583e-03 -1.210329e-03 -1.120814e-03 -1.042079e-03 -9.762822e-04 -9.209160e-04 -8.808787e-04 -8.511041e-04 -8.392510e-04 -8.376753e-04 -8.568247e-04 -8.864433e-04 -9.398022e-04 -1.003986e-03 -1.095127e-03 -1.197589e-03 -1.330399e-03 -1.475124e-03 -1.653717e-03 -1.844859e-03 -2.073439e-03 -2.315154e-03 -2.597824e-03 -2.894050e-03 -3.234546e-03 -3.588708e-03 -3.990072e-03 -4.404717e-03 -4.868893e-03 -5.345267e-03 -5.872647e-03 -6.410235e-03 -6.999190e-03 -7.595250e-03 -8.241682e-03 -8.890849e-03 -9.587838e-03 -1.028185e-02 -1.101946e-02 -1.174706e-02 -1.251239e-02 -1.325955e-02 -1.403705e-02 -1.478739e-02 -1.555944e-02 -1.629502e-02 -1.704284e-02 -1.774508e-02 -1.844973e-02 
-1.928796e-02 -1.994994e-02 -2.054809e-02 -2.113017e-02 -2.164288e-02 -2.213091e-02 -2.254633e-02 -2.292974e-02 -2.323978e-02 -2.351184e-02 -2.371223e-02 -2.387009e-02 -2.396028e-02 -2.400474e-02 -2.398757e-02 -2.392277e-02 -2.380410e-02 -2.363710e-02 -2.342532e-02 -2.316559e-02 -2.287111e-02 -2.253004e-02 -2.216472e-02 -2.175500e-02 -2.133157e-02 -2.086654e-02 -2.039802e-02 -1.989108e-02 -1.939016e-02 -1.885424e-02 -1.833279e-02 -1.777980e-02 -1.724853e-02 -1.668902e-02 -1.615716e-02 -1.560013e-02 -1.507530e-02 -1.452808e-02 -1.401632e-02 -1.348461e-02 -1.299040e-02 -1.247839e-02 -1.200488e-02 -1.151542e-02 -1.106458e-02 -1.059940e-02 -1.017224e-02 -9.732174e-03 -9.328962e-03 -8.914140e-03 -8.534604e-03 -8.144647e-03 -7.788134e-03 -7.422324e-03 -7.087940e-03 -6.745354e-03 -6.432087e-03 -6.111701e-03 -5.818509e-03 -5.519291e-03 -5.245170e-03 -4.966141e-03 -4.710181e-03 -4.450468e-03 -4.211892e-03 -3.970765e-03 -3.748960e-03 -3.525860e-03 -3.320400e-03 -3.114970e-03 -2.925637e-03 -2.737735e-03 -2.564537e-03 -2.394264e-03 -2.237454e-03 -2.085166e-03 -1.945262e-03 -1.811597e-03 -1.689403e-03 -1.575304e-03 -1.471932e-03 -1.378669e-03 -1.295567e-03 -1.224764e-03 -1.163741e-03 -1.117406e-03 -1.080659e-03 -1.061201e-03 -1.051334e-03 -1.061590e-03 -1.081631e-03 -1.124866e-03 -1.178267e-03 -1.258169e-03 -1.348786e-03 -1.469428e-03 -1.601468e-03 -1.767234e-03 -1.945159e-03 -2.160622e-03 -2.388996e-03 -2.658728e-03 -2.942001e-03 -3.270308e-03 -3.612508e-03 -4.003087e-03 -4.407437e-03 -4.862940e-03 -5.331391e-03 -5.852925e-03 -6.385641e-03 -6.972227e-03 -7.567048e-03 -8.215099e-03 -8.867054e-03 -9.569934e-03 -1.027089e-02 -1.101866e-02 -1.175719e-02 -1.253657e-02 -1.329811e-02 -1.409284e-02 -1.486016e-02 -1.565163e-02 -1.640566e-02 -1.717388e-02 -1.789481e-02 -1.861953e-02 
-1.946505e-02 -2.014484e-02 -2.075872e-02 -2.135581e-02 -2.188098e-02 -2.238042e-02 -2.280449e-02 -2.319526e-02 -2.350989e-02 -2.378517e-02 -2.398618e-02 -2.414328e-02 -2.423045e-02 -2.427057e-02 -2.424723e-02 -2.417506e-02 -2.404769e-02 -2.387092e-02 -2.364861e-02 -2.337747e-02 -2.307138e-02 -2.271802e-02 -2.234079e-02 -2.191870e-02 -2.148381e-02 -2.100709e-02 -2.052824e-02 -2.001098e-02 -1.950144e-02 -1.895710e-02 -1.842920e-02 -1.787009e-02 -1.733478e-02 -1.677167e-02 -1.623828e-02 -1.568023e-02 -1.515633e-02 -1.461056e-02 -1.410199e-02 -1.357395e-02 -1.308493e-02 -1.257852e-02 -1.211183e-02 -1.162953e-02 -1.118677e-02 -1.072994e-02 -1.031175e-02 -9.880838e-03 -9.487146e-03 -9.081933e-03 -8.712142e-03 -8.331948e-03 -7.985128e-03 -7.628971e-03 -7.303999e-03 -6.970732e-03 -6.666408e-03 -6.354829e-03 -6.069959e-03 -5.778891e-03 -5.512355e-03 -5.240705e-03 -4.991501e-03 -4.738304e-03 -4.505584e-03 -4.270037e-03 -4.053126e-03 -3.834611e-03 -3.633033e-03 -3.431135e-03 -3.244624e-03 -3.059150e-03 -2.887665e-03 -2.718662e-03 -2.562407e-03 -2.410176e-03 -2.269612e-03 -2.134734e-03 -2.010608e-03 -1.893963e-03 -1.787328e-03 -1.690126e-03 -1.602370e-03 -1.526179e-03 -1.459059e-03 -1.405839e-03 -1.361512e-03 -1.333647e-03 -1.314702e-03 -1.315030e-03 -1.324515e-03 -1.356346e-03 -1.397781e-03 -1.464908e-03 -1.542284e-03 -1.648957e-03 -1.766698e-03 -1.917574e-03 -2.080459e-03 -2.280488e-03 -2.493510e-03 -2.747758e-03 -3.015912e-03 -3.329300e-03 -3.657271e-03 -4.034213e-03 -4.425973e-03 -4.869911e-03 -5.328209e-03 -5.841063e-03 -6.366845e-03 -6.948394e-03 -7.540184e-03 -8.187452e-03 -8.840771e-03 -9.547491e-03 -1.025441e-02 -1.101067e-02 -1.175959e-02 -1.255177e-02 -1.332756e-02 -1.413862e-02 -1.492311e-02 -1.573335e-02 -1.650623e-02 -1.729430e-02 -1.803436e-02 -1.877859e-02 
-1.967413e-02 -2.037610e-02 -2.100857e-02 -2.162458e-02 -2.216463e-02 -2.267880e-02 -2.311336e-02 -2.351414e-02 -2.383462e-02 -2.411504e-02 -2.431737e-02 -2.447490e-02 -2.455920e-02 -2.459542e-02 -2.456557e-02 -2.448574e-02 -2.434887e-02 -2.416138e-02 -2.392736e-02 -2.364323e-02 -2.332405e-02 -2.295631e-02 -2.256546e-02 -2.212850e-02 -2.168031e-02 -2.118915e-02 -2.069811e-02 -2.016765e-02 -1.964771e-02 -1.909209e-02 -1.855609e-02 -1.798811e-02 -1.744733e-02 -1.687806e-02 -1.634196e-02 -1.578054e-02 -1.525663e-02 -1.471020e-02 -1.420411e-02 -1.367792e-02 -1.319354e-02 -1.269113e-02 -1.223090e-02 -1.175437e-02 -1.131946e-02 -1.086976e-02 -1.046040e-02 -1.003758e-02 -9.653328e-03 -9.256796e-03 -8.896712e-03 -8.525461e-03 -8.188322e-03 -7.841085e-03 -7.525526e-03 -7.200923e-03 -6.905546e-03 -6.602185e-03 -6.325642e-03 -6.042194e-03 -5.783244e-03 -5.518496e-03 -5.276044e-03 -5.028937e-03 -4.802061e-03 -4.571715e-03 -4.359682e-03 -4.145413e-03 -3.947695e-03 -3.749031e-03 -3.565310e-03 -3.382002e-03 -3.212190e-03 -3.044225e-03 -2.888469e-03 -2.736090e-03 -2.594794e-03 -2.458515e-03 -2.332360e-03 -2.212993e-03 -2.102964e-03 -2.001649e-03 -1.909067e-03 -1.827305e-03 -1.753862e-03 -1.693556e-03 -1.641357e-03 -1.604851e-03 -1.576457e-03 -1.566578e-03 -1.565042e-03 -1.585135e-03 -1.614035e-03 -1.667988e-03 -1.731441e-03 -1.823680e-03 -1.926326e-03 -2.061784e-03 -2.208725e-03 -2.392747e-03 -2.589429e-03 -2.827611e-03 -3.079612e-03 -3.377540e-03 -3.690266e-03 -4.053149e-03 -4.431401e-03 -4.863571e-03 -5.311004e-03 -5.815310e-03 -6.333771e-03 -6.910879e-03 -7.499700e-03 -8.147368e-03 -8.802670e-03 -9.515094e-03 -1.022922e-02 -1.099657e-02 -1.175779e-02 -1.256607e-02 -1.335861e-02 -1.418994e-02 -1.499458e-02 -1.582797e-02 -1.662299e-02 -1.743552e-02 -1.819808e-02 -1.896642e-02 