# vtk DataFile Version 2.0
Comment goes here
ASCII

DATASET STRUCTURED_POINTS
DIMENSIONS    128   128   1

ORIGIN    0.000   0.000   0.000
SPACING   0.00781250.0078125   1.000

POINT_DATA   16384
SCALARS uX double
LOOKUP_TABLE default

-6.298337e-03 -6.740509e-03 -7.156006e-03 -7.560764e-03 -7.935676e-03 -8.295257e-03 -8.622539e-03 -8.930379e-03 -9.204297e-03 -9.455258e-03 -9.671569e-03 -9.862086e-03 -1.001814e-02 -1.014628e-02 -1.024103e-02 -1.030648e-02 -1.034044e-02 -1.034442e-02 -1.031952e-02 -1.026461e-02 -1.018404e-02 -1.007402e-02 -9.941991e-03 -9.781559e-03 -9.603092e-03 -9.397667e-03 -9.178321e-03 -8.933765e-03 -8.679413e-03 -8.401808e-03 -8.118411e-03 -7.813839e-03 -7.507255e-03 -7.181614e-03 -6.857432e-03 -6.516291e-03 -6.179710e-03 -5.828194e-03 -5.483930e-03 -5.126647e-03 -4.778880e-03 -4.419879e-03 -4.072235e-03 -3.714995e-03 -3.370545e-03 -3.017991e-03 -2.679281e-03 -2.333815e-03 -2.002903e-03 -1.666454e-03 -1.344969e-03 -1.019048e-03 -7.082409e-04 -3.940020e-04 -9.481484e-05 2.068811e-04 4.937591e-04 7.822836e-04 1.056355e-03 1.331253e-03 1.592156e-03 1.853092e-03 2.100552e-03 2.347258e-03 2.581039e-03 2.813272e-03 3.033135e-03 3.250634e-03 3.456302e-03 3.658752e-03 3.849873e-03 4.036874e-03 4.212994e-03 4.384031e-03 4.544568e-03 4.698986e-03 4.843205e-03 4.980188e-03 5.107186e-03 5.225741e-03 5.334427e-03 5.433368e-03 5.522459e-03 5.600404e-03 5.668418e-03 5.723786e-03 5.769046e-03 5.800068e-03 5.820718e-03 5.825456e-03 5.819487e-03 5.795868e-03 5.761155e-03 5.707019e-03 5.641383e-03 5.554549e-03 5.455827e-03 5.334185e-03 5.200330e-03 5.041939e-03 4.871136e-03 4.674358e-03 4.465157e-03 4.228801e-03 3.980269e-03 3.703747e-03 3.415628e-03 3.099120e-03 2.771997e-03 2.416605e-03 2.052051e-03 1.659946e-03 1.260644e-03 8.351702e-04 4.050019e-04 -4.926059e-05 -5.051827e-04 -9.824200e-04 -1.457790e-03 -1.951025e-03 -2.438453e-03 -2.939696e-03 -3.430894e-03 -3.931363e-03 -4.417403e-03 -4.907816e-03 -5.379442e-03 -5.850355e-03 
-6.307466e-03 -6.750610e-03 -7.166824e-03 -7.572468e-03 -7.948012e-03 -8.308361e-03 -8.636165e-03 -8.944630e-03 -9.218942e-03 -9.470368e-03 -9.686934e-03 -9.877742e-03 -1.003391e-02 -1.016217e-02 -1.025689e-02 -1.032229e-02 -1.035610e-02 -1.035987e-02 -1.033471e-02 -1.027945e-02 -1.019852e-02 -1.008802e-02 -9.955568e-03 -9.794570e-03 -9.615621e-03 -9.409557e-03 -9.189699e-03 -8.944458e-03 -8.689584e-03 -8.411270e-03 -8.127360e-03 -7.822075e-03 -7.515000e-03 -7.188662e-03 -6.864024e-03 -6.522215e-03 -6.185220e-03 -5.833075e-03 -5.488445e-03 -5.130580e-03 -4.782498e-03 -4.422966e-03 -4.075057e-03 -3.717339e-03 -3.372672e-03 -3.019693e-03 -2.680809e-03 -2.334969e-03 -2.003923e-03 -1.667148e-03 -1.345562e-03 -1.019358e-03 -7.084804e-04 -3.939980e-04 -9.476367e-05 2.071411e-04 4.940473e-04 7.827504e-04 1.056836e-03 1.331886e-03 1.592794e-03 1.853860e-03 2.101319e-03 2.348137e-03 2.581914e-03 2.814245e-03 3.034105e-03 3.251690e-03 3.457358e-03 3.659887e-03 3.851014e-03 4.038088e-03 4.214224e-03 4.385331e-03 4.545895e-03 4.700383e-03 4.844643e-03 4.981699e-03 5.108753e-03 5.227385e-03 5.336145e-03 5.435168e-03 5.524352e-03 5.602387e-03 5.670513e-03 5.725978e-03 5.771371e-03 5.802497e-03 5.823300e-03 5.828148e-03 5.822348e-03 5.798842e-03 5.764312e-03 5.710287e-03 5.644841e-03 5.558111e-03 5.459580e-03 5.338023e-03 5.204351e-03 5.046019e-03 4.875377e-03 4.678618e-03 4.469544e-03 4.233151e-03 3.984698e-03 3.708068e-03 3.419963e-03 3.103260e-03 2.776071e-03 2.420384e-03 2.055669e-03 1.663156e-03 1.263589e-03 8.375869e-04 4.070434e-04 -4.786957e-05 -5.042774e-04 -9.822821e-04 -1.458241e-03 -1.952348e-03 -2.440455e-03 -2.942652e-03 -3.434597e-03 -3.936077e-03 -4.422905e-03 -4.914352e-03 -5.386776e-03 -5.858711e-03 
-6.315835e-03 -6.760172e-03 -7.177657e-03 -7.584361e-03 -7.960996e-03 -8.322210e-03 -8.650871e-03 -8.959959e-03 -9.234856e-03 -9.486639e-03 -9.703500e-03 -9.894395e-03 -1.005057e-02 -1.017866e-02 -1.027312e-02 -1.033812e-02 -1.037144e-02 -1.037462e-02 -1.034879e-02 -1.029281e-02 -1.021108e-02 -1.009978e-02 -9.966453e-03 -9.804625e-03 -9.624785e-03 -9.417919e-03 -9.197203e-03 -8.951235e-03 -8.695580e-03 -8.416652e-03 -8.132073e-03 -7.826316e-03 -7.518711e-03 -7.192061e-03 -6.867048e-03 -6.525097e-03 -6.187888e-03 -5.835772e-03 -5.491086e-03 -5.133412e-03 -4.785424e-03 -4.426230e-03 -4.078551e-03 -3.721300e-03 -3.376979e-03 -3.024573e-03 -2.686132e-03 -2.340948e-03 -2.010419e-03 -1.674360e-03 -1.353344e-03 -1.027894e-03 -7.176181e-04 -4.039050e-04 -1.052859e-04 1.958528e-04 4.821476e-04 7.701051e-04 1.043598e-03 1.317938e-03 1.578285e-03 1.838690e-03 2.085631e-03 2.331847e-03 2.565160e-03 2.796958e-03 3.016416e-03 3.233547e-03 3.438883e-03 3.641042e-03 3.831915e-03 4.018712e-03 4.194676e-03 4.365606e-03 4.526088e-03 4.680505e-03 4.824778e-03 4.961874e-03 5.089043e-03 5.207830e-03 5.316812e-03 5.416113e-03 5.505629e-03 5.584065e-03 5.652637e-03 5.708630e-03 5.754583e-03 5.786364e-03 5.807838e-03 5.813464e-03 5.808443e-03 5.785829e-03 5.752175e-03 5.699145e-03 5.634657e-03 5.549006e-03 5.451495e-03 5.331076e-03 5.198457e-03 5.041290e-03 4.871700e-03 4.676096e-03 4.468030e-03 4.232738e-03 3.985205e-03 3.709573e-03 3.422252e-03 3.106393e-03 2.779803e-03 2.424760e-03 2.060414e-03 1.668303e-03 1.268838e-03 8.429632e-04 4.122322e-04 -4.284543e-05 -4.997375e-04 -9.781983e-04 -1.454927e-03 -1.949760e-03 -2.438888e-03 -2.942043e-03 -3.435210e-03 -3.937820e-03 -4.426002e-03 -4.918681e-03 -5.392513e-03 -5.865700e-03 
-6.342464e-03 -6.789956e-03 -7.210161e-03 -7.619713e-03 -7.998716e-03 -8.362345e-03 -8.692914e-03 -9.003889e-03 -9.280162e-03 -9.533237e-03 -9.750906e-03 -9.942473e-03 -1.009888e-02 -1.022703e-02 -1.032119e-02 -1.038568e-02 -1.041820e-02 -1.042037e-02 -1.039333e-02 -1.033591e-02 -1.025266e-02 -1.013960e-02 -1.000453e-02 -9.840725e-03 -9.659020e-03 -9.450066e-03 -9.227460e-03 -8.979385e-03 -8.721900e-03 -8.440931e-03 -8.154654e-03 -7.846993e-03 -7.537876e-03 -7.209515e-03 -6.883216e-03 -6.539783e-03 -6.201536e-03 -5.848189e-03 -5.502722e-03 -5.144074e-03 -4.795556e-03 -4.435640e-03 -4.087665e-03 -3.729929e-03 -3.385525e-03 -3.032846e-03 -2.694505e-03 -2.349234e-03 -2.018959e-03 -1.682968e-03 -1.362326e-03 -1.037068e-03 -7.272561e-04 -4.138289e-04 -1.157345e-04 1.850525e-04 4.707892e-04 7.583553e-04 1.031281e-03 1.305214e-03 1.565006e-03 1.825008e-03 2.071426e-03 2.317264e-03 2.550102e-03 2.781561e-03 3.000609e-03 3.217456e-03 3.422458e-03 3.624403e-03 3.815032e-03 4.001697e-03 4.177519e-03 4.348410e-03 4.508862e-03 4.663345e-03 4.807712e-03 4.944988e-03 5.072383e-03 5.191477e-03 5.300826e-03 5.400567e-03 5.490598e-03 5.569613e-03 5.638854e-03 5.695568e-03 5.742344e-03 5.774987e-03 5.797437e-03 5.804059e-03 5.800155e-03 5.778661e-03 5.746250e-03 5.694439e-03 5.631295e-03 5.546933e-03 5.450829e-03 5.331727e-03 5.200532e-03 5.044656e-03 4.876451e-03 4.682047e-03 4.475259e-03 4.241004e-03 3.994563e-03 3.719725e-03 3.433230e-03 3.117841e-03 2.791732e-03 2.436755e-03 2.072471e-03 1.679956e-03 1.280076e-03 8.532799e-04 4.216193e-04 -3.491943e-05 -4.932632e-04 -9.737151e-04 -1.452391e-03 -1.949701e-03 -2.441212e-03 -2.947246e-03 -3.443137e-03 -3.948915e-03 -4.440039e-03 -4.936035e-03 -5.412884e-03 -5.889387e-03 
-6.368185e-03 -6.819058e-03 -7.242547e-03 -7.655123e-03 -8.036959e-03 -8.403096e-03 -8.735909e-03 -9.048759e-03 -9.326594e-03 -9.580842e-03 -9.799346e-03 -9.991363e-03 -1.014789e-02 -1.027579e-02 -1.036939e-02 -1.043300e-02 -1.046437e-02 -1.046513e-02 -1.043646e-02 -1.037723e-02 -1.029200e-02 -1.017684e-02 -1.003958e-02 -9.873536e-03 -9.689556e-03 -9.478354e-03 -9.253516e-03 -9.003302e-03 -8.743736e-03 -8.460837e-03 -8.172719e-03 -7.863416e-03 -7.552765e-03 -7.223104e-03 -6.895619e-03 -6.551260e-03 -6.212196e-03 -5.858305e-03 -5.512390e-03 -5.153571e-03 -4.804955e-03 -4.445216e-03 -4.097463e-03 -3.740212e-03 -3.396311e-03 -3.044382e-03 -2.706777e-03 -2.362471e-03 -2.033118e-03 -1.698255e-03 -1.378672e-03 -1.054657e-03 -7.459951e-04 -4.338793e-04 -1.369818e-04 1.624688e-04 4.469998e-04 7.332427e-04 1.004988e-03 1.277645e-03 1.536313e-03 1.795116e-03 2.040492e-03 2.285232e-03 2.517134e-03 2.747621e-03 2.965856e-03 3.181876e-03 3.386210e-03 3.587491e-03 3.777612e-03 3.963792e-03 4.139281e-03 4.309883e-03 4.470193e-03 4.624596e-03 4.769025e-03 4.906446e-03 5.034121e-03 5.153596e-03 5.263455e-03 5.363825e-03 5.454607e-03 5.534508e-03 5.604746e-03 5.662608e-03 5.710631e-03 5.744683e-03 5.768625e-03 5.776910e-03 5.774733e-03 5.755137e-03 5.724665e-03 5.674961e-03 5.613932e-03 5.531842e-03 5.437983e-03 5.321262e-03 5.192376e-03 5.038914e-03 4.873001e-03 4.680958e-03 4.476349e-03 4.244297e-03 3.999815e-03 3.726908e-03 3.442039e-03 3.128193e-03 2.803260e-03 2.449323e-03 2.085660e-03 1.693585e-03 1.293685e-03 8.666527e-04 4.342739e-04 -2.321608e-05 -4.829928e-04 -9.651072e-04 -1.445902e-03 -1.945532e-03 -2.439768e-03 -2.948680e-03 -3.447775e-03 -3.956842e-03 -4.451485e-03 -4.951002e-03 -5.431492e-03 -5.911546e-03 
-6.412168e-03 -6.868443e-03 -7.296707e-03 -7.714149e-03 -8.100127e-03 -8.470367e-03 -8.806502e-03 -9.122520e-03 -9.402724e-03 -9.659098e-03 -9.878954e-03 -1.007201e-02 -1.022887e-02 -1.035675e-02 -1.044972e-02 -1.051233e-02 -1.054223e-02 -1.054112e-02 -1.051027e-02 -1.044847e-02 -1.036051e-02 -1.024227e-02 -1.010191e-02 -9.932457e-03 -9.745204e-03 -9.530435e-03 -9.302313e-03 -9.048551e-03 -8.785840e-03 -8.499561e-03 -8.208563e-03 -7.896168e-03 -7.582997e-03 -7.250624e-03 -6.921045e-03 -6.574412e-03 -6.233715e-03 -5.878021e-03 -5.530942e-03 -5.170792e-03 -4.821468e-03 -4.460852e-03 -4.112813e-03 -3.755106e-03 -3.411294e-03 -3.059280e-03 -2.722087e-03 -2.378014e-03 -2.049335e-03 -1.714964e-03 -1.396260e-03 -1.072938e-03 -7.653000e-04 -4.540227e-04 -1.582429e-04 1.402760e-04 4.236451e-04 7.089104e-04 9.794931e-04 1.251169e-03 1.508712e-03 1.766567e-03 2.010889e-03 2.254749e-03 2.485698e-03 2.715400e-03 2.932811e-03 3.148168e-03 3.351828e-03 3.552593e-03 3.742211e-03 3.928044e-03 4.103225e-03 4.273669e-03 4.433882e-03 4.588337e-03 4.732901e-03 4.870601e-03 4.998660e-03 5.118660e-03 5.229167e-03 5.330322e-03 5.422030e-03 5.502987e-03 5.574439e-03 5.633636e-03 5.683163e-03 5.718829e-03 5.744562e-03 5.754729e-03 5.754616e-03 5.737149e-03 5.708985e-03 5.661620e-03 5.603101e-03 5.523506e-03 5.432294e-03 5.318149e-03 5.191966e-03 5.041069e-03 4.877810e-03 4.688203e-03 4.486077e-03 4.256200e-03 4.013890e-03 3.742752e-03 3.459594e-03 3.146956e-03 2.823126e-03 2.469693e-03 2.106386e-03 1.713982e-03 1.313578e-03 8.852886e-04 4.514748e-04 -8.248093e-06 -4.704121e-04 -9.557242e-04 -1.439817e-03 -1.943533e-03 -2.441871e-03 -2.955613e-03 -3.459444e-03 -3.973882e-03 -4.473670e-03 -4.978848e-03 -5.464634e-03 -5.950361e-03 
-6.454943e-03 -6.916858e-03 -7.350481e-03 -7.772967e-03 -8.163565e-03 -8.537994e-03 -8.877784e-03 -9.196943e-03 -9.479688e-03 -9.738042e-03 -9.959255e-03 -1.015310e-02 -1.031014e-02 -1.043766e-02 -1.052972e-02 -1.059093e-02 -1.061896e-02 -1.061557e-02 -1.058207e-02 -1.051730e-02 -1.042613e-02 -1.030446e-02 -1.016055e-02 -9.987410e-03 -9.796469e-03 -9.577986e-03 -9.346243e-03 -9.088924e-03 -8.822835e-03 -8.533321e-03 -8.239328e-03 -7.924146e-03 -7.608469e-03 -7.273846e-03 -6.942316e-03 -6.594022e-03 -6.251960e-03 -5.895207e-03 -5.547346e-03 -5.186727e-03 -4.837176e-03 -4.476639e-03 -4.128878e-03 -3.771739e-03 -3.428645e-03 -3.077619e-03 -2.741511e-03 -2.398766e-03 -2.071463e-03 -1.738683e-03 -1.421569e-03 -1.100023e-03 -7.941185e-04 -4.847299e-04 -1.907590e-04 1.058240e-04 3.873686e-04 6.707096e-04 9.395053e-04 1.209320e-03 1.465160e-03 1.721262e-03 1.964005e-03 2.206260e-03 2.435788e-03 2.664068e-03 2.880246e-03 3.094394e-03 3.297039e-03 3.496834e-03 3.685681e-03 3.870810e-03 4.045485e-03 4.215514e-03 4.375513e-03 4.529866e-03 4.674526e-03 4.812461e-03 4.940949e-03 5.061539e-03 5.172828e-03 5.274947e-03 5.367806e-03 5.450118e-03 5.523102e-03 5.584052e-03 5.635499e-03 5.673317e-03 5.701354e-03 5.714063e-03 5.716622e-03 5.702062e-03 5.676907e-03 5.632772e-03 5.577546e-03 5.501442e-03 5.413732e-03 5.303251e-03 5.180680e-03 5.033504e-03 4.873842e-03 4.687875e-03 4.489180e-03 4.262696e-03 4.023481e-03 3.755308e-03 3.474722e-03 3.164432e-03 2.842465e-03 2.490579e-03 2.128251e-03 1.736426e-03 1.335974e-03 9.071720e-04 4.721841e-04 1.078749e-05 -4.537094e-04 -9.418545e-04 -1.429396e-03 -1.937022e-03 -2.439799e-03 -2.958364e-03 -3.467421e-03 -3.987356e-03 -4.492887e-03 -5.003941e-03 -5.495672e-03 -5.987323e-03 
-6.515977e-03 -6.985650e-03 -7.426194e-03 -7.855656e-03 -8.252243e-03 -8.632530e-03 -8.977094e-03 -9.300743e-03 -9.586859e-03 -9.848179e-03 -1.007127e-02 -1.026650e-02 -1.042393e-02 -1.055130e-02 -1.064236e-02 -1.070201e-02 -1.072780e-02 -1.072164e-02 -1.068489e-02 -1.061637e-02 -1.052119e-02 -1.039504e-02 -1.024663e-02 -1.006857e-02 -9.872909e-03 -9.649335e-03 -9.412888e-03 -9.150554e-03 -8.880000e-03 -8.585757e-03 -8.287717e-03 -7.968267e-03 -7.649095e-03 -7.310789e-03 -6.976405e-03 -6.625092e-03 -6.280863e-03 -5.921791e-03 -5.572455e-03 -5.210212e-03 -4.859849e-03 -4.498351e-03 -4.150388e-03 -3.792890e-03 -3.450131e-03 -3.099276e-03 -2.763958e-03 -2.421828e-03 -2.095681e-03 -1.763873e-03 -1.448195e-03 -1.127892e-03 -8.236180e-04 -5.156623e-04 -2.234395e-04 7.159688e-05 3.513453e-04 6.330937e-04 9.001067e-04 1.168343e-03 1.422467e-03 1.677058e-03 1.918200e-03 2.159057e-03 2.387139e-03 2.614174e-03 2.829100e-03 3.042193e-03 3.243809e-03 3.442773e-03 3.630845e-03 3.815397e-03 3.989581e-03 4.159317e-03 4.319136e-03 4.473507e-03 4.618325e-03 4.756617e-03 4.885625e-03 5.006936e-03 5.119132e-03 5.222359e-03 5.316532e-03 5.400357e-03 5.475078e-03 5.537958e-03 5.591574e-03 5.631740e-03 5.662375e-03 5.677842e-03 5.683409e-03 5.671989e-03 5.650216e-03 5.609556e-03 5.558027e-03 5.485657e-03 5.401875e-03 5.295283e-03 5.176753e-03 5.033489e-03 4.877832e-03 4.695632e-03 4.500728e-03 4.277673e-03 4.041829e-03 3.776528e-03 3.498674e-03 3.190472e-03 2.870369e-03 2.519563e-03 2.158021e-03 1.766070e-03 1.365148e-03 9.348608e-04 4.980277e-04 3.370334e-05 -4.340564e-04 -9.265675e-04 -1.418738e-03 -1.932064e-03 -2.440683e-03 -2.966076e-03 -3.481938e-03 -4.009528e-03 -4.522494e-03 -5.041656e-03 -5.541061e-03 -6.040857e-03 
-6.575343e-03 -7.053028e-03 -7.501111e-03 -7.937731e-03 -8.340800e-03 -8.727017e-03 -9.076689e-03 -9.404769e-03 -9.694408e-03 -9.958502e-03 -1.018344e-02 -1.037975e-02 -1.053737e-02 -1.066420e-02 -1.075392e-02 -1.081155e-02 -1.083467e-02 -1.082526e-02 -1.078477e-02 -1.071204e-02 -1.061235e-02 -1.048135e-02 -1.032796e-02 -1.014472e-02 -9.943912e-03 -9.715120e-03 -9.473645e-03 -9.206326e-03 -8.931102e-03 -8.632333e-03 -8.330174e-03 -8.006831e-03 -7.684234e-03 -7.342788e-03 -7.005760e-03 -6.652128e-03 -6.306071e-03 -5.945518e-03 -5.595162e-03 -5.232249e-03 -4.881629e-03 -4.520212e-03 -4.172681e-03 -3.815932e-03 -3.474202e-03 -3.124662e-03 -2.790865e-03 -2.450510e-03 -2.126271e-03 -1.796589e-03 -1.483100e-03 -1.165168e-03 -8.632674e-04 -5.578306e-04 -2.680740e-04 2.438362e-05 3.016525e-04 5.808407e-04 8.454311e-04 1.111194e-03 1.363013e-03 1.615276e-03 1.854283e-03 2.093008e-03 2.319171e-03 2.544316e-03 2.757576e-03 2.969060e-03 3.169302e-03 3.366974e-03 3.553996e-03 3.737606e-03 3.911095e-03 4.080273e-03 4.239782e-03 4.394009e-03 4.538934e-03 4.677525e-03 4.807086e-03 4.929170e-03 5.042392e-03 5.146891e-03 5.242589e-03 5.328207e-03 5.404970e-03 5.470181e-03 5.526368e-03 5.569409e-03 5.603143e-03 5.622020e-03 5.631197e-03 5.623694e-03 5.606006e-03 5.569718e-03 5.522683e-03 5.455059e-03 5.376084e-03 5.274499e-03 5.160958e-03 5.022809e-03 4.872154e-03 4.694985e-03 4.504891e-03 4.286558e-03 4.055092e-03 3.793952e-03 3.519783e-03 3.214910e-03 2.897532e-03 2.548954e-03 2.188922e-03 1.797857e-03 1.397012e-03 9.660799e-04 5.277406e-04 6.112629e-05 -4.097842e-04 -9.062396e-04 -1.403156e-03 -1.921973e-03 -2.436764e-03 -2.968967e-03 -3.492140e-03 -4.027519e-03 -4.548550e-03 -5.076054e-03 -5.583824e-03 -6.092039e-03 
-6.652942e-03 -7.140901e-03 -7.598188e-03 -8.044027e-03 -8.455032e-03 -8.848956e-03 -9.204913e-03 -9.538849e-03 -9.832872e-03 -1.010077e-02 -1.032808e-02 -1.052609e-02 -1.068409e-02 -1.081057e-02 -1.089881e-02 -1.095424e-02 -1.097427e-02 -1.096105e-02 -1.091616e-02 -1.083836e-02 -1.073329e-02 -1.059632e-02 -1.043695e-02 -1.024721e-02 -1.004016e-02 -9.804698e-03 -9.557068e-03 -9.283235e-03 -9.002222e-03 -8.697377e-03 -8.390030e-03 -8.061269e-03 -7.734256e-03 -7.388209e-03 -7.047645e-03 -6.690324e-03 -6.341660e-03 -5.978363e-03 -5.626325e-03 -5.261599e-03 -4.910174e-03 -4.547818e-03 -4.200279e-03 -3.843376e-03 -3.502333e-03 -3.153319e-03 -2.820788e-03 -2.481524e-03 -2.159009e-03 -1.830862e-03 -1.519440e-03 -1.203373e-03 -9.037709e-04 -6.004205e-04 -3.130940e-04 -2.284633e-05 2.519506e-04 5.288922e-04 7.910470e-04 1.054603e-03 1.304091e-03 1.554252e-03 1.791090e-03 2.027878e-03 2.252084e-03 2.475505e-03 2.687067e-03 2.897085e-03 3.095927e-03 3.292433e-03 3.478390e-03 3.661173e-03 3.833969e-03 4.002694e-03 4.161915e-03 4.316101e-03 4.461179e-03 4.600175e-03 4.730363e-03 4.853332e-03 4.967687e-03 5.073583e-03 5.170950e-03 5.258504e-03 5.337495e-03 5.405200e-03 5.464190e-03 5.510292e-03 5.547405e-03 5.569902e-03 5.583020e-03 5.579668e-03 5.566442e-03 5.534781e-03 5.492661e-03 5.430050e-03 5.356337e-03 5.260024e-03 5.151945e-03 5.019155e-03 4.873972e-03 4.702036e-03 4.517188e-03 4.303702e-03 4.076985e-03 3.820012e-03 3.549792e-03 3.248094e-03 2.933551e-03 2.586842e-03 2.228232e-03 1.837444e-03 1.436348e-03 1.003873e-03 5.634268e-04 9.331408e-05 -3.816371e-04 -8.835613e-04 -1.386400e-03 -1.912532e-03 -2.434932e-03 -2.976021e-03 -3.508154e-03 -4.053586e-03 -4.584469e-03 -5.122680e-03 -5.640655e-03 -6.159655e-03 
-6.728244e-03 -7.226754e-03 -7.693904e-03 -8.149150e-03 -8.568604e-03 -8.970288e-03 -9.332856e-03 -9.672545e-03 -9.971071e-03 -1.024252e-02 -1.047211e-02 -1.067143e-02 -1.082954e-02 -1.095519e-02 -1.104155e-02 -1.109424e-02 -1.111067e-02 -1.109312e-02 -1.104326e-02 -1.095991e-02 -1.084891e-02 -1.070558e-02 -1.053971e-02 -1.034321e-02 -1.012951e-02 -9.887283e-03 -9.633196e-03 -9.352939e-03 -9.065978e-03 -8.755340e-03 -8.442798e-03 -8.109097e-03 -7.777818e-03 -7.427831e-03 -7.084032e-03 -6.723846e-03 -6.373015e-03 -6.007941e-03 -5.654780e-03 -5.289320e-03 -4.937747e-03 -4.575613e-03 -4.228796e-03 -3.872957e-03 -3.533380e-03 -3.186136e-03 -2.855678e-03 -2.518748e-03 -2.198776e-03 -1.873387e-03 -1.564841e-03 -1.251823e-03 -9.553052e-04 -6.551721e-04 -3.710273e-04 -8.405576e-05 1.875609e-04 4.612633e-04 7.203244e-04 9.807602e-04 1.227314e-03 1.474546e-03 1.708671e-03 1.942779e-03 2.164547e-03 2.385592e-03 2.595038e-03 2.803031e-03 3.000120e-03 3.194993e-03 3.379601e-03 3.561184e-03 3.733072e-03 3.901069e-03 4.059861e-03 4.213829e-03 4.358995e-03 4.498322e-03 4.629151e-03 4.753038e-03 4.868625e-03 4.976062e-03 5.075285e-03 5.165034e-03 5.246535e-03 5.317114e-03 5.379288e-03 5.428956e-03 5.469934e-03 5.496687e-03 5.514338e-03 5.515907e-03 5.507843e-03 5.481711e-03 5.445312e-03 5.388747e-03 5.321201e-03 5.231314e-03 5.129692e-03 5.003522e-03 4.864875e-03 4.699515e-03 4.521022e-03 4.313780e-03 4.092928e-03 3.841534e-03 3.576345e-03 3.279201e-03 2.968494e-03 2.624949e-03 2.268625e-03 1.879273e-03 1.478607e-03 1.045562e-03 6.034622e-04 1.306016e-04 -3.481936e-04 -8.550820e-04 -1.363911e-03 -1.897099e-03 -2.427426e-03 -2.977369e-03 -3.518988e-03 -4.074619e-03 -4.616032e-03 -5.165210e-03 -5.694142e-03 -6.224230e-03 
-6.821709e-03 -7.333226e-03 -7.812045e-03 -8.278931e-03 -8.708400e-03 -9.119760e-03 -9.490194e-03 -9.837161e-03 -1.014109e-02 -1.041718e-02 -1.064958e-02 -1.085083e-02 -1.100922e-02 -1.113422e-02 -1.121851e-02 -1.126821e-02 -1.128056e-02 -1.125804e-02 -1.120248e-02 -1.111261e-02 -1.099474e-02 -1.084382e-02 -1.067038e-02 -1.046569e-02 -1.024418e-02 -9.993630e-03 -9.731904e-03 -9.443603e-03 -9.149539e-03 -8.831484e-03 -8.512661e-03 -8.172441e-03 -7.835907e-03 -7.480483e-03 -7.132578e-03 -6.768142e-03 -6.414398e-03 -6.046286e-03 -5.691385e-03 -5.324063e-03 -4.971846e-03 -4.608939e-03 -4.262460e-03 -3.906814e-03 -3.568417e-03 -3.222189e-03 -2.893601e-03 -2.558357e-03 -2.240790e-03 -1.917604e-03 -1.611852e-03 -1.301409e-03 -1.007937e-03 -7.106172e-04 -4.296476e-04 -1.456083e-04 1.228114e-04 3.935665e-04 6.495012e-04 9.070648e-04 1.150641e-03 1.395153e-03 1.626518e-03 1.858125e-03 2.077407e-03 2.296227e-03 2.503512e-03 2.709607e-03 2.904906e-03 3.098256e-03 3.281488e-03 3.461967e-03 3.632933e-03 3.800289e-03 3.958656e-03 4.112489e-03 4.257768e-03 4.397509e-03 4.529032e-03 4.653926e-03 4.770829e-03 4.879905e-03 4.981105e-03 5.073165e-03 5.157340e-03 5.230931e-03 5.296499e-03 5.349900e-03 5.395006e-03 5.426212e-03 5.448716e-03 5.455434e-03 5.452912e-03 5.432571e-03 5.402329e-03 5.352101e-03 5.291209e-03 5.208058e-03 5.113418e-03 4.994181e-03 4.862616e-03 4.704123e-03 4.532523e-03 4.331760e-03 4.117266e-03 3.871590e-03 3.611835e-03 3.319235e-03 3.012622e-03 2.672028e-03 2.318050e-03 1.929658e-03 1.529226e-03 1.094825e-03 6.505747e-04 1.738291e-04 -3.096376e-04 -8.229940e-04 -1.338978e-03 -1.881081e-03 -2.420811e-03 -2.981779e-03 -3.534621e-03 -4.102859e-03 -4.656714e-03 -5.219405e-03 -5.761280e-03 -6.305019e-03 
-6.912061e-03 -7.436893e-03 -7.928096e-03 -8.406813e-03 -8.846835e-03 -9.267891e-03 -9.646503e-03 -1.000058e-02 -1.030998e-02 -1.059035e-02 -1.082541e-02 -1.102810e-02 -1.118640e-02 -1.131015e-02 -1.139188e-02 -1.143795e-02 -1.144561e-02 -1.141750e-02 -1.135561e-02 -1.125870e-02 -1.113335e-02 -1.097443e-02 -1.079288e-02 -1.057977e-02 -1.035003e-02 -1.009112e-02 -9.821490e-03 -9.525322e-03 -9.224061e-03 -8.898989e-03 -8.573970e-03 -8.227847e-03 -7.886320e-03 -7.526278e-03 -7.174694e-03 -6.806999e-03 -6.450917e-03 -6.080902e-03 -5.724954e-03 -5.357014e-03 -5.004940e-03 -4.642576e-03 -4.297286e-03 -3.943189e-03 -3.606860e-03 -3.263013e-03 -2.937197e-03 -2.604986e-03 -2.290721e-03 -1.971046e-03 -1.668961e-03 -1.362344e-03 -1.072754e-03 -7.794291e-04 -5.024235e-04 -2.224204e-04 4.206732e-05 3.088561e-04 5.609880e-04 8.147488e-04 1.054733e-03 1.295686e-03 1.523738e-03 1.752095e-03 1.968403e-03 2.184342e-03 2.389042e-03 2.592675e-03 2.785826e-03 2.977180e-03 3.158742e-03 3.337737e-03 3.507556e-03 3.673984e-03 3.831770e-03 3.985276e-03 4.130584e-03 4.270646e-03 4.402854e-03 4.528762e-03 4.647053e-03 4.757885e-03 4.861221e-03 4.955821e-03 5.042920e-03 5.119873e-03 5.189187e-03 5.246796e-03 5.296488e-03 5.332758e-03 5.360687e-03 5.373309e-03 5.377018e-03 5.363369e-03 5.340095e-03 5.297250e-03 5.243946e-03 5.168721e-03 5.082108e-03 4.971128e-03 4.847788e-03 4.697600e-03 4.534110e-03 4.341349e-03 4.134469e-03 3.896077e-03 3.643002e-03 3.356505e-03 3.055167e-03 2.719014e-03 2.368434e-03 1.982359e-03 1.583020e-03 1.148421e-03 7.026296e-04 2.229053e-04 -2.649169e-04 -7.841211e-04 -1.307256e-03 -1.857948e-03 -2.407380e-03 -2.979318e-03 -3.543937e-03 -4.124945e-03 -4.691981e-03 -5.268486e-03 -5.824134e-03 -6.381874e-03 
-7.020438e-03 -7.561289e-03 -8.066861e-03 -8.559865e-03 -9.012145e-03 -9.444991e-03 -9.833127e-03 -1.019596e-02 -1.051178e-02 -1.079759e-02 -1.103582e-02 -1.124060e-02 -1.139894e-02 -1.152159e-02 -1.160049e-02 -1.164263e-02 -1.164503e-02 -1.161062e-02 -1.154155e-02 -1.143651e-02 -1.130264e-02 -1.113437e-02 -1.094355e-02 -1.072046e-02 -1.048125e-02 -1.021229e-02 -9.933517e-03 -9.627753e-03 -9.318100e-03 -8.984299e-03 -8.651981e-03 -8.298313e-03 -7.950813e-03 -7.584617e-03 -7.228514e-03 -6.856161e-03 -6.497042e-03 -6.123872e-03 -5.766321e-03 -5.396659e-03 -5.044299e-03 -4.681519e-03 -4.337103e-03 -3.983728e-03 -3.649248e-03 -3.307073e-03 -2.983888e-03 -2.654105e-03 -2.343063e-03 -2.026384e-03 -1.727932e-03 -1.424705e-03 -1.138998e-03 -8.492967e-04 -5.762813e-04 -2.999982e-04 -3.948542e-05 2.236054e-04 4.718811e-04 7.220667e-04 9.584002e-04 1.195985e-03 1.420663e-03 1.645932e-03 1.859206e-03 2.072398e-03 2.274457e-03 2.475740e-03 2.666690e-03 2.856142e-03 3.035992e-03 3.213580e-03 3.382221e-03 3.547787e-03 3.704974e-03 3.858212e-03 4.003550e-03 4.143989e-03 4.276907e-03 4.403889e-03 4.523620e-03 4.636277e-03 4.741836e-03 4.839060e-03 4.929212e-03 5.009633e-03 5.082872e-03 5.144827e-03 5.199341e-03 5.240851e-03 5.274503e-03 5.293247e-03 5.303557e-03 5.296865e-03 5.281002e-03 5.245854e-03 5.200652e-03 5.133710e-03 5.055706e-03 4.953369e-03 4.838886e-03 4.697400e-03 4.542675e-03 4.358290e-03 4.159666e-03 3.928861e-03 3.683045e-03 3.402828e-03 3.107218e-03 2.775485e-03 2.428560e-03 2.044512e-03 1.646254e-03 1.210827e-03 7.631447e-04 2.794129e-04 -2.134973e-04 -7.400108e-04 -1.271433e-03 -1.832607e-03 -2.393261e-03 -2.978451e-03 -3.556696e-03 -4.153061e-03 -4.735357e-03 -5.328448e-03 -5.900051e-03 -6.474605e-03 
-7.124682e-03 -7.681903e-03 -8.202628e-03 -8.710111e-03 -9.175210e-03 -9.619819e-03 -1.001776e-02 -1.038909e-02 -1.071131e-02 -1.100209e-02 -1.124322e-02 -1.144944e-02 -1.160732e-02 -1.172813e-02 -1.180358e-02 -1.184101e-02 -1.183745e-02 -1.179601e-02 -1.171906e-02 -1.160529e-02 -1.146225e-02 -1.128420e-02 -1.108356e-02 -1.085028e-02 -1.060121e-02 -1.032225e-02 -1.003413e-02 -9.719067e-03 -9.401025e-03 -9.059054e-03 -8.719650e-03 -8.359241e-03 -8.006181e-03 -7.634857e-03 -7.274827e-03 -6.899024e-03 -6.537615e-03 -6.162641e-03 -5.804351e-03 -5.434417e-03 -5.082720e-03 -4.721029e-03 -4.378486e-03 -4.027357e-03 -3.695745e-03 -3.356752e-03 -3.037211e-03 -2.711324e-03 -2.404489e-03 -2.092212e-03 -1.798337e-03 -1.499823e-03 -1.218888e-03 -9.340471e-04 -6.658484e-04 -3.944269e-04 -1.386492e-04 1.197002e-04 3.634275e-04 6.090932e-04 8.411518e-04 1.074521e-03 1.295271e-03 1.516700e-03 1.726450e-03 1.936237e-03 2.135229e-03 2.333595e-03 2.521985e-03 2.709056e-03 2.886896e-03 3.062689e-03 3.229915e-03 3.394319e-03 3.550736e-03 3.703496e-03 3.848759e-03 3.989457e-03 4.123048e-03 4.251084e-03 4.372295e-03 4.486857e-03 4.594759e-03 4.694797e-03 4.788214e-03 4.872411e-03 4.949883e-03 5.016620e-03 5.076373e-03 5.123696e-03 5.163611e-03 5.189200e-03 5.206780e-03 5.207927e-03 5.200283e-03 5.173884e-03 5.137734e-03 5.080297e-03 5.011994e-03 4.919691e-03 4.815291e-03 4.684049e-03 4.539430e-03 4.365088e-03 4.176138e-03 3.954674e-03 3.717564e-03 3.445407e-03 3.156936e-03 2.831361e-03 2.489387e-03 2.108978e-03 1.712900e-03 1.278046e-03 8.292968e-04 3.426741e-04 -1.548424e-04 -6.878867e-04 -1.227490e-03 -1.798726e-03 -2.370868e-03 -2.969226e-03 -3.561685e-03 -4.173594e-03 -4.771970e-03 -5.382006e-03 -5.970501e-03 -6.562282e-03 
-7.246703e-03 -7.823312e-03 -8.361400e-03 -8.886094e-03 -9.365888e-03 -9.824570e-03 -1.023377e-02 -1.061539e-02 -1.094500e-02 -1.124198e-02 -1.148652e-02 -1.169485e-02 -1.185234e-02 -1.197144e-02 -1.204308e-02 -1.207543e-02 -1.206522e-02 -1.201593e-02 -1.193013e-02 -1.180643e-02 -1.165306e-02 -1.146372e-02 -1.125199e-02 -1.100680e-02 -1.074655e-02 -1.045576e-02 -1.015698e-02 -9.830759e-03 -9.503093e-03 -9.151136e-03 -8.803533e-03 -8.434670e-03 -8.075089e-03 -7.697063e-03 -7.332311e-03 -6.951649e-03 -6.587319e-03 -6.209303e-03 -5.849797e-03 -5.478522e-03 -5.127146e-03 -4.765632e-03 -4.424733e-03 -4.075075e-03 -3.746195e-03 -3.409728e-03 -3.093765e-03 -2.771221e-03 -2.468578e-03 -2.160234e-03 -1.870955e-03 -1.576760e-03 -1.300641e-03 -1.020323e-03 -7.570008e-04 -4.901537e-04 -2.391795e-04 1.467309e-05 2.537795e-04 4.951326e-04 7.228426e-04 9.521723e-04 1.168919e-03 1.386654e-03 1.592809e-03 1.799311e-03 1.995169e-03 2.190714e-03 2.376478e-03 2.561245e-03 2.737016e-03 2.911070e-03 3.076832e-03 3.240115e-03 3.395723e-03 3.548035e-03 3.693196e-03 3.834178e-03 3.968435e-03 4.097547e-03 4.220254e-03 4.336749e-03 4.447042e-03 4.549936e-03 4.646703e-03 4.734741e-03 4.816581e-03 4.888196e-03 4.953385e-03 5.006660e-03 5.053103e-03 5.085730e-03 5.110927e-03 5.120171e-03 5.121184e-03 5.103857e-03 5.077297e-03 5.029761e-03 4.971794e-03 4.889985e-03 4.796390e-03 4.675904e-03 4.542179e-03 4.378411e-03 4.199955e-03 3.988334e-03 3.760725e-03 3.497036e-03 3.216403e-03 2.897216e-03 2.560708e-03 2.183896e-03 1.790231e-03 1.355540e-03 9.055822e-04 4.152016e-04 -8.751126e-05 -6.284700e-04 -1.177334e-03 -1.760549e-03 -2.345741e-03 -2.959678e-03 -3.568332e-03 -4.198595e-03 -4.815334e-03 -5.445377e-03 -6.053193e-03 -6.665335e-03 
-7.363348e-03 -7.959751e-03 -8.516074e-03 -9.058165e-03 -9.553233e-03 -1.002588e-02 -1.044657e-02 -1.083808e-02 -1.117495e-02 -1.147746e-02 -1.172499e-02 -1.193458e-02 -1.209102e-02 -1.220746e-02 -1.227452e-02 -1.230085e-02 -1.228316e-02 -1.222518e-02 -1.212974e-02 -1.199544e-02 -1.183104e-02 -1.163000e-02 -1.140662e-02 -1.114939e-02 -1.087761e-02 -1.057514e-02 -1.026559e-02 -9.928692e-03 -9.591545e-03 -9.230376e-03 -8.874962e-03 -8.498695e-03 -8.133208e-03 -7.749772e-03 -7.381108e-03 -6.997068e-03 -6.630782e-03 -6.251343e-03 -5.891698e-03 -5.520782e-03 -5.170874e-03 -4.811268e-03 -4.473189e-03 -4.126724e-03 -3.801744e-03 -3.469479e-03 -3.158229e-03 -2.840628e-03 -2.543261e-03 -2.240356e-03 -1.956691e-03 -1.668214e-03 -1.397852e-03 -1.123346e-03 -8.657603e-04 -6.046619e-04 -3.592713e-04 -1.109768e-04 1.228073e-04 3.588963e-04 5.816320e-04 8.060749e-04 1.018265e-03 1.231559e-03 1.433632e-03 1.636197e-03 1.828498e-03 2.020660e-03 2.203437e-03 2.385423e-03 2.558822e-03 2.730745e-03 2.894797e-03 3.056649e-03 3.211257e-03 3.362894e-03 3.507823e-03 3.648945e-03 3.783800e-03 3.913932e-03 4.038135e-03 4.156602e-03 4.269360e-03 4.375251e-03 4.475526e-03 4.567656e-03 4.654119e-03 4.730990e-03 4.801976e-03 4.861722e-03 4.915180e-03 4.955520e-03 4.988961e-03 5.007149e-03 5.017602e-03 5.010387e-03 4.994367e-03 4.957971e-03 4.911469e-03 4.841602e-03 4.760118e-03 4.652034e-03 4.530672e-03 4.379307e-03 4.212947e-03 4.013139e-03 3.796716e-03 3.543544e-03 3.272441e-03 2.961688e-03 2.632252e-03 2.260977e-03 1.871139e-03 1.438333e-03 9.882756e-04 4.955362e-04 -1.166258e-05 -5.595411e-04 -1.117414e-03 -1.712056e-03 -2.310514e-03 -2.939905e-03 -3.565382e-03 -4.214221e-03 -4.850253e-03 -5.500743e-03 -6.128957e-03 -6.761959e-03 