# vtk DataFile Version 2.0
Comment goes here
ASCII

DATASET STRUCTURED_POINTS
DIMENSIONS    128   128   1

ORIGIN    0.000   0.000   0.000
SPACING   0.0078125 0.0078125   1.000

POINT_DATA   16384
SCALARS uY double
LOOKUP_TABLE default

2.211943e-14 2.192561e-14 2.171263e-14 2.150022e-14 2.127483e-14 2.105218e-14 2.081060e-14 2.057778e-14 2.032543e-14 2.008258e-14 1.982938e-14 1.957993e-14 1.932113e-14 1.906657e-14 1.880571e-14 1.856273e-14 1.830156e-14 1.806284e-14 1.781024e-14 1.757191e-14 1.732661e-14 1.710468e-14 1.686442e-14 1.665108e-14 1.642620e-14 1.622573e-14 1.601326e-14 1.582728e-14 1.563299e-14 1.546154e-14 1.528218e-14 1.512857e-14 1.495905e-14 1.482131e-14 1.467129e-14 1.455270e-14 1.442074e-14 1.432414e-14 1.421183e-14 1.412605e-14 1.402997e-14 1.396226e-14 1.388526e-14 1.383371e-14 1.377030e-14 1.373330e-14 1.368515e-14 1.365953e-14 1.362288e-14 1.361056e-14 1.358807e-14 1.358947e-14 1.357851e-14 1.358824e-14 1.358706e-14 1.360821e-14 1.362149e-14 1.365701e-14 1.368502e-14 1.373710e-14 1.377927e-14 1.384377e-14 1.390163e-14 1.398307e-14 1.406043e-14 1.415887e-14 1.425519e-14 1.437095e-14 1.448514e-14 1.462374e-14 1.476160e-14 1.492444e-14 1.508390e-14 1.526651e-14 1.544858e-14 1.565627e-14 1.586091e-14 1.608956e-14 1.631733e-14 1.656484e-14 1.680686e-14 1.706891e-14 1.732760e-14 1.760119e-14 1.787236e-14 1.815504e-14 1.843578e-14 1.872426e-14 1.900651e-14 1.929579e-14 1.957500e-14 1.986361e-14 2.013676e-14 2.041807e-14 2.068499e-14 2.095324e-14 2.120492e-14 2.145763e-14 2.169100e-14 2.192040e-14 2.213359e-14 2.233845e-14 2.252627e-14 2.270623e-14 2.286790e-14 2.301973e-14 2.314923e-14 2.326919e-14 2.336798e-14 2.345367e-14 2.352112e-14 2.358043e-14 2.361434e-14 2.363575e-14 2.363648e-14 2.362733e-14 2.359540e-14 2.355284e-14 2.348762e-14 2.341292e-14 2.331850e-14 2.321727e-14 2.309386e-14 2.296346e-14 2.281559e-14 2.266034e-14 2.248950e-14 2.231304e-14 
4.442639e-04 4.280911e-04 4.094596e-04 3.892438e-04 3.667366e-04 3.430035e-04 3.172190e-04 2.906215e-04 2.622702e-04 2.335519e-04 2.034176e-04 1.733722e-04 1.422705e-04 1.117008e-04 8.043852e-05 5.011849e-05 1.945768e-05 -9.900906e-06 -3.927397e-05 -6.704793e-05 -9.454606e-05 -1.202198e-04 -1.453707e-04 -1.685472e-04 -1.910014e-04 -2.114061e-04 -2.309379e-04 -2.484155e-04 -2.649168e-04 -2.794224e-04 -2.928920e-04 -3.044777e-04 -3.150062e-04 -3.238046e-04 -3.315567e-04 -3.377634e-04 -3.429596e-04 -3.468140e-04 -3.497123e-04 -3.514808e-04 -3.523595e-04 -3.523198e-04 -3.514624e-04 -3.498898e-04 -3.475731e-04 -3.447303e-04 -3.412142e-04 -3.373429e-04 -3.328638e-04 -3.281799e-04 -3.229460e-04 -3.176358e-04 -3.118249e-04 -3.060442e-04 -2.998028e-04 -2.936768e-04 -2.871207e-04 -2.807452e-04 -2.739611e-04 -2.674044e-04 -2.604515e-04 -2.537565e-04 -2.466693e-04 -2.398557e-04 -2.326461e-04 -2.257127e-04 -2.183724e-04 -2.112995e-04 -2.038017e-04 -1.965531e-04 -1.888550e-04 -1.813796e-04 -1.734242e-04 -1.656577e-04 -1.573755e-04 -1.492427e-04 -1.405533e-04 -1.319693e-04 -1.227840e-04 -1.136564e-04 -1.038799e-04 -9.411181e-05 -8.364541e-05 -7.313784e-05 -6.188293e-05 -5.053910e-05 -3.840151e-05 -2.613156e-05 -1.302700e-05 2.460305e-07 1.438528e-05 2.871834e-05 4.393569e-05 5.935734e-05 7.566293e-05 9.216405e-05 1.095249e-04 1.270486e-04 1.453783e-04 1.638097e-04 1.829585e-04 2.021154e-04 2.218613e-04 2.414860e-04 2.615281e-04 2.812832e-04 3.012394e-04 3.207071e-04 3.401160e-04 3.588036e-04 3.771337e-04 3.944862e-04 4.111518e-04 4.265713e-04 4.409562e-04 4.538292e-04 4.653172e-04 4.750478e-04 4.830585e-04 4.891053e-04 4.931322e-04 4.950467e-04 4.946950e-04 4.921566e-04 4.871755e-04 4.800202e-04 4.703279e-04 4.585671e-04 
8.902676e-04 8.578663e-04 8.205177e-04 7.800011e-04 7.348696e-04 6.872939e-04 6.355822e-04 5.822598e-04 5.253962e-04 4.678216e-04 4.073816e-04 3.471495e-04 2.847721e-04 2.234953e-04 1.608019e-04 1.000344e-04 3.855549e-05 -2.027415e-05 -7.916059e-05 -1.348023e-04 -1.899180e-04 -2.413383e-04 -2.917359e-04 -3.381400e-04 -3.831197e-04 -4.239588e-04 -4.630691e-04 -4.980340e-04 -5.310604e-04 -5.600635e-04 -5.870058e-04 -6.101542e-04 -6.311966e-04 -6.487591e-04 -6.642344e-04 -6.766050e-04 -6.869579e-04 -6.946189e-04 -7.003686e-04 -7.038557e-04 -7.055617e-04 -7.054325e-04 -7.036648e-04 -7.004721e-04 -6.957860e-04 -6.900564e-04 -6.829736e-04 -6.751918e-04 -6.661861e-04 -6.567840e-04 -6.462729e-04 -6.356235e-04 -6.239626e-04 -6.123774e-04 -5.998600e-04 -5.875892e-04 -5.744468e-04 -5.616818e-04 -5.480876e-04 -5.349643e-04 -5.210368e-04 -5.076407e-04 -4.934484e-04 -4.798186e-04 -4.653850e-04 -4.515190e-04 -4.368270e-04 -4.226850e-04 -4.076811e-04 -3.931904e-04 -3.777889e-04 -3.628470e-04 -3.469336e-04 -3.314121e-04 -3.148475e-04 -2.985955e-04 -2.812190e-04 -2.640666e-04 -2.457002e-04 -2.274626e-04 -2.079155e-04 -1.883982e-04 -1.674726e-04 -1.464772e-04 -1.239751e-04 -1.013073e-04 -7.703948e-05 -5.251871e-05 -2.631545e-05 2.135060e-07 2.848908e-05 5.714161e-05 8.757800e-05 1.184130e-04 1.510324e-04 1.840338e-04 2.187723e-04 2.538283e-04 2.905154e-04 3.273984e-04 3.657366e-04 4.040841e-04 4.436308e-04 4.829291e-04 5.230839e-04 5.626588e-04 6.026572e-04 6.416726e-04 6.805909e-04 7.180599e-04 7.548324e-04 7.896417e-04 8.230927e-04 8.540420e-04 8.829335e-04 9.087897e-04 9.318825e-04 9.514468e-04 9.675722e-04 9.797548e-04 9.878924e-04 9.917892e-04 9.911420e-04 9.861059e-04 9.761673e-04 9.618663e-04 9.424690e-04 9.189240e-04 
1.337105e-03 1.288422e-03 1.232309e-03 1.171398e-03 1.103564e-03 1.032021e-03 9.542844e-04 8.740925e-04 7.886119e-04 7.020298e-04 6.111842e-04 5.206204e-04 4.268830e-04 3.347711e-04 2.405866e-04 1.492692e-04 5.694264e-05 -3.142884e-05 -1.198245e-04 -2.033701e-04 -2.860650e-04 -3.632326e-04 -4.388067e-04 -5.084057e-04 -5.758126e-04 -6.370239e-04 -6.955924e-04 -7.479582e-04 -7.973737e-04 -8.407702e-04 -8.810408e-04 -9.156369e-04 -9.470474e-04 -9.732544e-04 -9.963125e-04 -1.014729e-03 -1.030109e-03 -1.041466e-03 -1.049953e-03 -1.055059e-03 -1.057496e-03 -1.057192e-03 -1.054439e-03 -1.049557e-03 -1.042448e-03 -1.033780e-03 -1.023097e-03 -1.011370e-03 -9.978257e-04 -9.836869e-04 -9.679047e-04 -9.519127e-04 -9.344249e-04 -9.170455e-04 -8.982898e-04 -8.798965e-04 -8.602182e-04 -8.410962e-04 -8.207529e-04 -8.011047e-04 -7.802724e-04 -7.602243e-04 -7.390041e-04 -7.186136e-04 -6.970395e-04 -6.763017e-04 -6.543468e-04 -6.332014e-04 -6.107849e-04 -5.891221e-04 -5.661147e-04 -5.437804e-04 -5.200104e-04 -4.968119e-04 -4.720699e-04 -4.477805e-04 -4.218254e-04 -3.961898e-04 -3.687542e-04 -3.414951e-04 -3.122922e-04 -2.831169e-04 -2.518491e-04 -2.204591e-04 -1.868282e-04 -1.529305e-04 -1.166507e-04 -7.997205e-05 -4.078640e-05 -1.091146e-06 4.120905e-05 8.409765e-05 1.296492e-04 1.758240e-04 2.246651e-04 2.741068e-04 3.261470e-04 3.786937e-04 4.336829e-04 4.889989e-04 5.464964e-04 6.040430e-04 6.633901e-04 7.224011e-04 7.827006e-04 8.421670e-04 9.022739e-04 9.609419e-04 1.019469e-03 1.075855e-03 1.131200e-03 1.183627e-03 1.234018e-03 1.280676e-03 1.324244e-03 1.363269e-03 1.398141e-03 1.427720e-03 1.452127e-03 1.470609e-03 1.483003e-03 1.489015e-03 1.488189e-03 1.480747e-03 1.465928e-03 1.444526e-03 1.415458e-03 1.380124e-03 
1.789196e-03 1.724064e-03 1.648928e-03 1.567364e-03 1.476474e-03 1.380631e-03 1.276438e-03 1.168991e-03 1.054406e-03 9.383987e-04 8.166288e-04 6.953062e-04 5.696831e-04 4.463210e-04 3.201353e-04 1.978837e-04 7.423488e-05 -4.401712e-05 -1.623450e-04 -2.740763e-04 -3.847096e-04 -4.878431e-04 -5.888814e-04 -6.818278e-04 -7.718752e-04 -8.535462e-04 -9.317120e-04 -1.001506e-03 -1.067380e-03 -1.125144e-03 -1.178750e-03 -1.224723e-03 -1.266456e-03 -1.301202e-03 -1.331755e-03 -1.356088e-03 -1.376374e-03 -1.391282e-03 -1.402363e-03 -1.408938e-03 -1.411952e-03 -1.411324e-03 -1.407424e-03 -1.400711e-03 -1.391020e-03 -1.379281e-03 -1.364848e-03 -1.349057e-03 -1.330832e-03 -1.311854e-03 -1.290670e-03 -1.269249e-03 -1.245818e-03 -1.222573e-03 -1.197476e-03 -1.172904e-03 -1.146600e-03 -1.121079e-03 -1.093909e-03 -1.067707e-03 -1.039904e-03 -1.013187e-03 -9.848848e-04 -9.577264e-04 -9.289683e-04 -9.013610e-04 -8.721096e-04 -8.439719e-04 -8.141181e-04 -7.853024e-04 -7.546732e-04 -7.249734e-04 -6.933388e-04 -6.624972e-04 -6.295775e-04 -5.972913e-04 -5.627642e-04 -5.286923e-04 -4.922003e-04 -4.559719e-04 -4.171312e-04 -3.783545e-04 -3.367663e-04 -2.950412e-04 -2.503050e-04 -2.052375e-04 -1.569685e-04 -1.081901e-04 -5.604045e-05 -3.231252e-06 5.308358e-05 1.101662e-04 1.708364e-04 2.323246e-04 2.974101e-04 3.632876e-04 4.326780e-04 5.027391e-04 5.761111e-04 6.499187e-04 7.266949e-04 8.035401e-04 8.828506e-04 9.617193e-04 1.042374e-03 1.121925e-03 1.202398e-03 1.280958e-03 1.359397e-03 1.434982e-03 1.509238e-03 1.579598e-03 1.647291e-03 1.709991e-03 1.768605e-03 1.821134e-03 1.868140e-03 1.908049e-03 1.941054e-03 1.966106e-03 1.983014e-03 1.991348e-03 1.990515e-03 1.980794e-03 1.961168e-03 1.932696e-03 1.893920e-03 1.846727e-03 
2.242972e-03 2.161283e-03 2.067025e-03 1.964616e-03 1.850510e-03 1.730111e-03 1.599262e-03 1.464264e-03 1.320361e-03 1.174621e-03 1.021724e-03 8.693490e-04 7.116699e-04 5.567996e-04 3.984930e-04 2.451022e-04 9.007414e-05 -5.819839e-05 -2.064465e-04 -3.464326e-04 -4.849229e-04 -6.140196e-04 -7.403759e-04 -8.565994e-04 -9.690846e-04 -1.071086e-03 -1.168602e-03 -1.255646e-03 -1.337702e-03 -1.409620e-03 -1.476269e-03 -1.533384e-03 -1.585144e-03 -1.628187e-03 -1.665950e-03 -1.695962e-03 -1.720894e-03 -1.739130e-03 -1.752577e-03 -1.760420e-03 -1.763820e-03 -1.762698e-03 -1.757504e-03 -1.748822e-03 -1.736444e-03 -1.721533e-03 -1.703286e-03 -1.683365e-03 -1.660436e-03 -1.636585e-03 -1.610016e-03 -1.583162e-03 -1.553835e-03 -1.524748e-03 -1.493387e-03 -1.462684e-03 -1.429856e-03 -1.398004e-03 -1.364132e-03 -1.331459e-03 -1.296828e-03 -1.263540e-03 -1.228312e-03 -1.194497e-03 -1.158722e-03 -1.124368e-03 -1.087998e-03 -1.052999e-03 -1.015895e-03 -9.800666e-04 -9.420101e-04 -9.050928e-04 -8.657958e-04 -8.274668e-04 -7.865789e-04 -7.464589e-04 -7.035762e-04 -6.612383e-04 -6.159129e-04 -5.708921e-04 -5.226427e-04 -4.744473e-04 -4.227727e-04 -3.708992e-04 -3.152949e-04 -2.592462e-04 -1.992256e-04 -1.385345e-04 -7.365512e-05 -7.913112e-06 6.219068e-05 1.332979e-04 2.088761e-04 2.855270e-04 3.666690e-04 4.488586e-04 5.354427e-04 6.229307e-04 7.145701e-04 8.068271e-04 9.028170e-04 9.989731e-04 1.098241e-03 1.197042e-03 1.298111e-03 1.397887e-03 1.498857e-03 1.597518e-03 1.696066e-03 1.791122e-03 1.884550e-03 1.973168e-03 2.058475e-03 2.137581e-03 2.211584e-03 2.277997e-03 2.337492e-03 2.388099e-03 2.430043e-03 2.462000e-03 2.483721e-03 2.494650e-03 2.494049e-03 2.482236e-03 2.457961e-03 2.422511e-03 2.374096e-03 2.315034e-03 
2.705619e-03 2.607087e-03 2.493273e-03 2.369581e-03 2.231658e-03 2.086139e-03 1.927902e-03 1.764698e-03 1.590650e-03 1.414470e-03 1.229566e-03 1.045415e-03 8.547909e-04 6.677114e-04 4.764222e-04 2.912447e-04 1.040373e-04 -7.482455e-05 -2.537043e-04 -4.224167e-04 -5.893665e-04 -7.447897e-04 -8.969447e-04 -1.036697e-03 -1.171973e-03 -1.294446e-03 -1.411541e-03 -1.515875e-03 -1.614223e-03 -1.700245e-03 -1.779942e-03 -1.848075e-03 -1.909780e-03 -1.960938e-03 -2.005757e-03 -2.041226e-03 -2.070596e-03 -2.091916e-03 -2.107485e-03 -2.116343e-03 -2.119865e-03 -2.117998e-03 -2.111240e-03 -2.100351e-03 -2.085020e-03 -2.066718e-03 -2.044403e-03 -2.020156e-03 -1.992287e-03 -1.963393e-03 -1.931222e-03 -1.898792e-03 -1.863376e-03 -1.828331e-03 -1.790535e-03 -1.753609e-03 -1.714109e-03 -1.675857e-03 -1.635154e-03 -1.595965e-03 -1.554397e-03 -1.514510e-03 -1.472266e-03 -1.431784e-03 -1.388921e-03 -1.347824e-03 -1.304279e-03 -1.262438e-03 -1.218042e-03 -1.175232e-03 -1.129722e-03 -1.085631e-03 -1.038658e-03 -9.928979e-04 -9.440408e-04 -8.961543e-04 -8.449267e-04 -7.944004e-04 -7.402629e-04 -6.865364e-04 -6.289085e-04 -5.713889e-04 -5.096648e-04 -4.477427e-04 -3.813108e-04 -3.143827e-04 -2.426503e-04 -1.701457e-04 -9.257019e-05 -1.398597e-05 6.988616e-05 1.549434e-04 2.454305e-04 3.371945e-04 4.344250e-04 5.329125e-04 6.367643e-04 7.417114e-04 8.517457e-04 9.625424e-04 1.077938e-03 1.193564e-03 1.313055e-03 1.432023e-03 1.553854e-03 1.674173e-03 1.796066e-03 1.915227e-03 2.034390e-03 2.149389e-03 2.262559e-03 2.369968e-03 2.473502e-03 2.569581e-03 2.659603e-03 2.740471e-03 2.813062e-03 2.874909e-03 2.926338e-03 2.965668e-03 2.992646e-03 3.006531e-03 3.006464e-03 2.992781e-03 2.963989e-03 2.921619e-03 2.863509e-03 2.792463e-03 
3.170839e-03 3.055297e-03 2.921768e-03 2.776494e-03 2.614501e-03 2.443464e-03 2.257525e-03 2.065658e-03 1.861132e-03 1.654038e-03 1.436814e-03 1.220439e-03 9.966098e-04 7.769294e-04 5.524792e-04 3.352075e-04 1.157410e-04 -9.391585e-05 -3.033996e-04 -5.009339e-04 -6.962083e-04 -8.779435e-04 -1.055663e-03 -1.218826e-03 -1.376575e-03 -1.519311e-03 -1.655600e-03 -1.776944e-03 -1.891154e-03 -1.990948e-03 -2.083240e-03 -2.162030e-03 -2.233226e-03 -2.292128e-03 -2.343572e-03 -2.384135e-03 -2.417549e-03 -2.441615e-03 -2.458963e-03 -2.468537e-03 -2.471898e-03 -2.469033e-03 -2.460493e-03 -2.447196e-03 -2.428761e-03 -2.406920e-03 -2.380450e-03 -2.351782e-03 -2.318948e-03 -2.284966e-03 -2.247224e-03 -2.209218e-03 -2.167794e-03 -2.126831e-03 -2.082723e-03 -2.039649e-03 -1.993638e-03 -1.949090e-03 -1.901747e-03 -1.856171e-03 -1.807882e-03 -1.761547e-03 -1.712524e-03 -1.665543e-03 -1.615844e-03 -1.568188e-03 -1.517736e-03 -1.469250e-03 -1.417843e-03 -1.368262e-03 -1.315588e-03 -1.264546e-03 -1.210199e-03 -1.157240e-03 -1.100726e-03 -1.045316e-03 -9.860672e-04 -9.276065e-04 -8.649903e-04 -8.028226e-04 -7.361592e-04 -6.695887e-04 -5.981662e-04 -5.264761e-04 -4.495734e-04 -3.720503e-04 -2.889647e-04 -2.049302e-04 -1.150137e-04 -2.386360e-05 7.343282e-05 1.721795e-04 2.772519e-04 3.838949e-04 4.969226e-04 6.115125e-04 7.323863e-04 8.546498e-04 9.828936e-04 1.112155e-03 1.246846e-03 1.381947e-03 1.521642e-03 1.660878e-03 1.803550e-03 1.944615e-03 2.087619e-03 2.227588e-03 2.367661e-03 2.503012e-03 2.636318e-03 2.763011e-03 2.885249e-03 2.998856e-03 3.105428e-03 3.201335e-03 3.287573e-03 3.361232e-03 3.422676e-03 3.469900e-03 3.502603e-03 3.519869e-03 3.520707e-03 3.505451e-03 3.472388e-03 3.423243e-03 3.355544e-03 3.272499e-03 
3.648723e-03 3.515765e-03 3.361898e-03 3.194412e-03 3.007486e-03 2.810118e-03 2.595423e-03 2.373950e-03 2.137759e-03 1.898732e-03 1.647928e-03 1.398292e-03 1.139985e-03 8.867024e-04 6.278609e-04 3.775742e-04 1.247092e-04 -1.165476e-04 -3.576447e-04 -5.846646e-04 -8.091147e-04 -1.017669e-03 -1.221628e-03 -1.408546e-03 -1.589260e-03 -1.752448e-03 -1.908242e-03 -2.046638e-03 -2.176854e-03 -2.290336e-03 -2.395219e-03 -2.484476e-03 -2.565034e-03 -2.631411e-03 -2.689249e-03 -2.734585e-03 -2.771740e-03 -2.798200e-03 -2.816976e-03 -2.826904e-03 -2.829727e-03 -2.825509e-03 -2.814803e-03 -2.798762e-03 -2.776846e-03 -2.751161e-03 -2.720179e-03 -2.686819e-03 -2.648689e-03 -2.609385e-03 -2.565770e-03 -2.521994e-03 -2.474291e-03 -2.427252e-03 -2.376595e-03 -2.327250e-03 -2.274520e-03 -2.223585e-03 -2.169425e-03 -2.117399e-03 -2.062239e-03 -2.009419e-03 -1.953492e-03 -1.899998e-03 -1.843364e-03 -1.789155e-03 -1.731717e-03 -1.676613e-03 -1.618136e-03 -1.561827e-03 -1.501953e-03 -1.444019e-03 -1.382279e-03 -1.322198e-03 -1.258025e-03 -1.195185e-03 -1.127929e-03 -1.061641e-03 -9.905755e-04 -9.200876e-04 -8.444311e-04 -7.689424e-04 -6.878742e-04 -6.065572e-04 -5.192425e-04 -4.312698e-04 -3.368908e-04 -2.414699e-04 -1.392655e-04 -3.568310e-05 7.500057e-05 1.873233e-04 3.069716e-04 4.284126e-04 5.572697e-04 6.879284e-04 8.259134e-04 9.655232e-04 1.112139e-03 1.259975e-03 1.414215e-03 1.568999e-03 1.729255e-03 1.889076e-03 2.053064e-03 2.215310e-03 2.380020e-03 2.541353e-03 2.703045e-03 2.859417e-03 3.013668e-03 3.160404e-03 3.302226e-03 3.434178e-03 3.558208e-03 3.669985e-03 3.770755e-03 3.857017e-03 3.929278e-03 3.985087e-03 4.024174e-03 4.045357e-03 4.047556e-03 4.031059e-03 3.993934e-03 3.938108e-03 3.860753e-03 3.765550e-03 
4.130127e-03 3.979514e-03 3.805081e-03 3.614959e-03 3.402739e-03 3.178481e-03 2.934587e-03 2.682869e-03 2.414547e-03 2.142932e-03 1.858115e-03 1.574602e-03 1.281464e-03 9.940500e-04 7.005820e-04 4.168714e-04 1.305134e-04 -1.426085e-04 -4.152629e-04 -6.718799e-04 -9.253010e-04 -1.160633e-03 -1.390491e-03 -1.600985e-03 -1.804207e-03 -1.987545e-03 -2.162302e-03 -2.317352e-03 -2.462973e-03 -2.589679e-03 -2.706527e-03 -2.805749e-03 -2.895048e-03 -2.968391e-03 -3.032036e-03 -3.081652e-03 -3.122016e-03 -3.150417e-03 -3.170163e-03 -3.180045e-03 -3.181958e-03 -3.176055e-03 -3.162901e-03 -3.143857e-03 -3.118271e-03 -3.088554e-03 -3.052959e-03 -3.014792e-03 -2.971347e-03 -2.926674e-03 -2.877242e-03 -2.827706e-03 -2.773847e-03 -2.720796e-03 -2.663767e-03 -2.608260e-03 -2.549035e-03 -2.491861e-03 -2.431147e-03 -2.372850e-03 -2.311113e-03 -2.252014e-03 -2.189503e-03 -2.129724e-03 -2.066494e-03 -2.005980e-03 -1.941914e-03 -1.880454e-03 -1.815281e-03 -1.752523e-03 -1.685835e-03 -1.621303e-03 -1.552570e-03 -1.485674e-03 -1.414258e-03 -1.344309e-03 -1.269473e-03 -1.195695e-03 -1.116622e-03 -1.038164e-03 -9.539701e-04 -8.699268e-04 -7.796805e-04 -6.891112e-04 -5.918617e-04 -4.938212e-04 -3.886306e-04 -2.822067e-04 -1.681944e-04 -5.255646e-05 7.104572e-05 1.965853e-04 3.303646e-04 4.662761e-04 6.105566e-04 7.570047e-04 9.117526e-04 1.068497e-03 1.233215e-03 1.399501e-03 1.573119e-03 1.747571e-03 1.928337e-03 2.108856e-03 2.294246e-03 2.477928e-03 2.664579e-03 2.847678e-03 3.031377e-03 3.209313e-03 3.385040e-03 3.552489e-03 3.714543e-03 3.865604e-03 4.007825e-03 4.136283e-03 4.252351e-03 4.352019e-03 4.435839e-03 4.500965e-03 4.547095e-03 4.572798e-03 4.576880e-03 4.559563e-03 4.518721e-03 4.456422e-03 4.369556e-03 4.262174e-03 
4.628244e-03 4.459438e-03 4.263616e-03 4.050016e-03 3.811355e-03 3.559118e-03 3.284623e-03 3.001400e-03 2.699365e-03 2.393807e-03 2.073303e-03 1.754540e-03 1.424886e-03 1.102020e-03 7.723023e-04 4.539600e-04 1.326115e-04 -1.734249e-04 -4.789576e-04 -7.660297e-04 -1.049529e-03 -1.312288e-03 -1.568916e-03 -1.803417e-03 -2.029775e-03 -2.233487e-03 -2.427593e-03 -2.599331e-03 -2.760522e-03 -2.900318e-03 -3.029100e-03 -3.138021e-03 -3.235867e-03 -3.315808e-03 -3.384940e-03 -3.438402e-03 -3.481564e-03 -3.511435e-03 -3.531682e-03 -3.541043e-03 -3.541547e-03 -3.533496e-03 -3.517390e-03 -3.494912e-03 -3.465166e-03 -3.431027e-03 -3.390357e-03 -3.347040e-03 -3.297854e-03 -3.247517e-03 -3.191883e-03 -3.136345e-03 -3.075985e-03 -3.016726e-03 -2.953024e-03 -2.891203e-03 -2.825222e-03 -2.761696e-03 -2.694204e-03 -2.629560e-03 -2.561057e-03 -2.495633e-03 -2.426382e-03 -2.360301e-03 -2.290348e-03 -2.223538e-03 -2.152743e-03 -2.084961e-03 -2.013017e-03 -1.943866e-03 -1.870313e-03 -1.799259e-03 -1.723506e-03 -1.649893e-03 -1.571227e-03 -1.494287e-03 -1.411888e-03 -1.330755e-03 -1.243712e-03 -1.157438e-03 -1.064761e-03 -9.723334e-04 -8.729782e-04 -7.733398e-04 -6.662348e-04 -5.583176e-04 -4.423987e-04 -3.251636e-04 -1.994214e-04 -7.191090e-05 6.454862e-05 2.031439e-04 3.510244e-04 5.012828e-04 6.610064e-04 8.231772e-04 9.947775e-04 1.168668e-03 1.351670e-03 1.536520e-03 1.729814e-03 1.924172e-03 2.125884e-03 2.327484e-03 2.534865e-03 2.740526e-03 2.949873e-03 3.155446e-03 3.362068e-03 3.562433e-03 3.760694e-03 3.949854e-03 4.133307e-03 4.304566e-03 4.466196e-03 4.612454e-03 4.745021e-03 4.859171e-03 4.955651e-03 5.031046e-03 5.085130e-03 5.116100e-03 5.122709e-03 5.105045e-03 5.060794e-03 4.992168e-03 4.895725e-03 4.775965e-03 
5.130908e-03 4.943587e-03 4.726058e-03 4.488412e-03 4.222813e-03 3.941851e-03 3.636155e-03 3.320582e-03 2.984215e-03 2.643857e-03 2.287099e-03 1.932289e-03 1.565670e-03 1.206678e-03 8.404233e-04 4.869421e-04 1.305069e-04 -2.087581e-04 -5.470649e-04 -8.647037e-04 -1.177983e-03 -1.468082e-03 -1.751007e-03 -2.009249e-03 -2.258124e-03 -2.481790e-03 -2.694518e-03 -2.882405e-03 -3.058374e-03 -3.210642e-03 -3.350540e-03 -3.468501e-03 -3.574091e-03 -3.659971e-03 -3.733836e-03 -3.790515e-03 -3.835802e-03 -3.866573e-03 -3.886749e-03 -3.895093e-03 -3.893732e-03 -3.883128e-03 -3.863736e-03 -3.837511e-03 -3.803390e-03 -3.764613e-03 -3.718766e-03 -3.670175e-03 -3.615250e-03 -3.559209e-03 -3.497468e-03 -3.435961e-03 -3.369276e-03 -3.303907e-03 -3.233774e-03 -3.165791e-03 -3.093351e-03 -3.023671e-03 -2.949743e-03 -2.878985e-03 -2.804094e-03 -2.732611e-03 -2.657024e-03 -2.584931e-03 -2.508684e-03 -2.435889e-03 -2.358815e-03 -2.285039e-03 -2.206789e-03 -2.131590e-03 -2.051655e-03 -1.974442e-03 -1.892166e-03 -1.812215e-03 -1.726813e-03 -1.643278e-03 -1.553847e-03 -1.465776e-03 -1.371309e-03 -1.277655e-03 -1.177060e-03 -1.076700e-03 -9.688191e-04 -8.605799e-04 -7.442170e-04 -6.269038e-04 -5.008638e-04 -3.733043e-04 -2.364420e-04 -9.754221e-05 5.117348e-05 2.023574e-04 3.637616e-04 5.279332e-04 7.025649e-04 8.800791e-04 1.068063e-03 1.258799e-03 1.459708e-03 1.662930e-03 1.875644e-03 2.089851e-03 2.312404e-03 2.535189e-03 2.764635e-03 2.992564e-03 3.224874e-03 3.453405e-03 3.683420e-03 3.906895e-03 4.128355e-03 4.340080e-03 4.545767e-03 4.738213e-03 4.920209e-03 5.085334e-03 5.235412e-03 5.365110e-03 5.475238e-03 5.561885e-03 5.624807e-03 5.661855e-03 5.671692e-03 5.654251e-03 5.607053e-03 5.532381e-03 5.426549e-03 5.294384e-03 
5.654678e-03 5.448160e-03 5.207879e-03 4.945107e-03 4.651106e-03 4.340021e-03 4.001330e-03 3.651793e-03 3.279077e-03 2.902189e-03 2.507049e-03 2.114453e-03 1.708732e-03 1.311952e-03 9.071134e-04 5.169816e-04 1.235796e-04 -2.502173e-04 -6.229480e-04 -9.722087e-04 -1.316642e-03 -1.634867e-03 -1.945158e-03 -2.227651e-03 -2.499799e-03 -2.743665e-03 -2.975467e-03 -3.179509e-03 -3.370424e-03 -3.534964e-03 -3.685902e-03 -3.812539e-03 -3.925597e-03 -4.016929e-03 -4.095099e-03 -4.154433e-03 -4.201309e-03 -4.232382e-03 -4.251886e-03 -4.258615e-03 -4.254760e-03 -4.241028e-03 -4.217721e-03 -4.187221e-03 -4.148119e-03 -4.104232e-03 -4.052642e-03 -3.998364e-03 -3.937182e-03 -3.875089e-03 -3.806774e-03 -3.739012e-03 -3.665589e-03 -3.593882e-03 -3.516956e-03 -3.442636e-03 -3.363424e-03 -3.287462e-03 -3.206829e-03 -3.129872e-03 -3.048366e-03 -2.970774e-03 -2.888663e-03 -2.810541e-03 -2.727845e-03 -2.649077e-03 -2.565600e-03 -2.485871e-03 -2.401223e-03 -2.320042e-03 -2.233660e-03 -2.150378e-03 -2.061543e-03 -1.975369e-03 -1.883222e-03 -1.793231e-03 -1.696785e-03 -1.601937e-03 -1.500090e-03 -1.399240e-03 -1.290793e-03 -1.182708e-03 -1.066387e-03 -9.497725e-04 -8.242532e-04 -6.977829e-04 -5.617322e-04 -4.240930e-04 -2.762196e-04 -1.261700e-04 3.470727e-05 1.982604e-04 3.731255e-04 5.510300e-04 7.405608e-04 9.333005e-04 1.137738e-03 1.345292e-03 1.564289e-03 1.785975e-03 2.018429e-03 2.252729e-03 2.496613e-03 2.741012e-03 2.993209e-03 3.244038e-03 3.500213e-03 3.752554e-03 4.007080e-03 4.254729e-03 4.500708e-03 4.736251e-03 4.965648e-03 5.180671e-03 5.384600e-03 5.570042e-03 5.739197e-03 5.885857e-03 6.011087e-03 6.110250e-03 6.183233e-03 6.227365e-03 6.241310e-03 6.224741e-03 6.175040e-03 6.094545e-03 5.979276e-03 5.834469e-03 
6.184131e-03 5.957990e-03 5.694522e-03 5.405876e-03 5.082807e-03 4.740628e-03 4.368153e-03 3.983565e-03 3.573698e-03 3.159193e-03 2.724954e-03 2.293578e-03 1.848207e-03 1.412816e-03 9.690658e-04 5.416856e-04 1.112393e-04 -2.974362e-04 -7.044102e-04 -1.085381e-03 -1.460542e-03 -1.806733e-03 -2.143749e-03 -2.450111e-03 -2.744715e-03 -3.008213e-03 -3.258144e-03 -3.477634e-03 -3.682479e-03 -3.858494e-03 -4.019438e-03 -4.153916e-03 -4.273439e-03 -4.369400e-03 -4.450947e-03 -4.512163e-03 -4.559812e-03 -4.590496e-03 -4.608649e-03 -4.613174e-03 -4.606295e-03 -4.588966e-03 -4.561369e-03 -4.526245e-03 -4.481938e-03 -4.432710e-03 -4.375292e-03 -4.315211e-03 -4.247811e-03 -4.179651e-03 -4.104912e-03 -4.030966e-03 -3.951047e-03 -3.873147e-03 -3.789747e-03 -3.709296e-03 -3.623694e-03 -3.541706e-03 -3.454798e-03 -3.371938e-03 -3.284284e-03 -3.200910e-03 -3.112772e-03 -3.028975e-03 -2.940351e-03 -2.855985e-03 -2.766645e-03 -2.681356e-03 -2.590866e-03 -2.504115e-03 -2.411858e-03 -2.322938e-03 -2.228134e-03 -2.136185e-03 -2.037900e-03 -1.941923e-03 -1.839089e-03 -1.737957e-03 -1.629378e-03 -1.521847e-03 -1.406221e-03 -1.290949e-03 -1.166884e-03 -1.042455e-03 -9.084960e-04 -7.734486e-04 -6.281218e-04 -4.809960e-04 -3.228559e-04 -1.622530e-04 1.004377e-05 1.853804e-04 3.729834e-04 5.640658e-04 7.678138e-04 9.752799e-04 1.195559e-03 1.419519e-03 1.656093e-03 1.895951e-03 2.147777e-03 2.402041e-03 2.667067e-03 2.933145e-03 3.208122e-03 3.482150e-03 3.762465e-03 4.039165e-03 4.318742e-03 4.591372e-03 4.862669e-03 5.123078e-03 5.377217e-03 5.616058e-03 5.843126e-03 6.050244e-03 6.239774e-03 6.404773e-03 6.546389e-03 6.659350e-03 6.743549e-03 6.795834e-03 6.814806e-03 6.799864e-03 6.748261e-03 6.662314e-03 6.537845e-03 6.380359e-03 
6.739530e-03 6.492919e-03 6.204973e-03 5.889095e-03 5.535134e-03 5.160102e-03 4.751608e-03 4.329948e-03 3.880423e-03 3.426153e-03 2.950182e-03 2.477881e-03 1.990231e-03 1.514196e-03 1.029024e-03 5.625615e-04 9.277881e-05 -3.523421e-04 -7.955592e-04 -1.209495e-03 -1.617036e-03 -1.992110e-03 -2.357121e-03 -2.687928e-03 -3.005867e-03 -3.289247e-03 -3.557809e-03 -3.792701e-03 -4.011630e-03 -4.198828e-03 -4.369632e-03 -4.511464e-03 -4.637068e-03 -4.737032e-03 -4.821393e-03 -4.883786e-03 -4.931524e-03 -4.961082e-03 -4.977133e-03 -4.978729e-03 -4.968053e-03 -4.946440e-03 -4.913793e-03 -4.873420e-03 -4.823184e-03 -4.768065e-03 -4.704148e-03 -4.637790e-03 -4.563567e-03 -4.488943e-03 -4.407238e-03 -4.326787e-03 -4.239894e-03 -4.155548e-03 -4.065258e-03 -3.978484e-03 -3.886131e-03 -3.797977e-03 -3.704487e-03 -3.615630e-03 -3.521567e-03 -3.432360e-03 -3.337975e-03 -3.248486e-03 -3.153753e-03 -3.063804e-03 -2.968457e-03 -2.877653e-03 -2.781211e-03 -2.688963e-03 -2.590753e-03 -2.496295e-03 -2.395474e-03 -2.297879e-03 -2.193441e-03 -2.091635e-03 -1.982428e-03 -1.875196e-03 -1.759932e-03 -1.645933e-03 -1.523203e-03 -1.400986e-03 -1.269278e-03 -1.137301e-03 -9.950281e-04 -8.516917e-04 -6.972293e-04 -5.409184e-04 -3.726580e-04 -2.018055e-04 -1.822717e-05 1.686037e-04 3.688345e-04 5.728410e-04 7.907493e-04 1.012751e-03 1.248899e-03 1.489171e-03 1.743471e-03 2.001546e-03 2.273053e-03 2.547499e-03 2.834182e-03 3.122380e-03 3.420893e-03 3.718815e-03 4.024298e-03 4.326335e-03 4.632277e-03 4.931149e-03 5.229351e-03 5.516146e-03 5.796844e-03 6.061225e-03 6.313400e-03 6.544026e-03 6.755929e-03 6.941082e-03 7.100969e-03 7.229377e-03 7.326405e-03 7.388174e-03 7.413358e-03 7.400921e-03 7.348045e-03 7.256973e-03 7.123297e-03 6.952864e-03 
7.301892e-03 7.034251e-03 6.721232e-03 6.377150e-03 5.991412e-03 5.582279e-03 5.136736e-03 4.676631e-03 4.186426e-03 3.691040e-03 3.172453e-03 2.658022e-03 2.127443e-03 1.609796e-03 1.082851e-03 5.766316e-04 6.748511e-05 -4.144353e-04 -8.935984e-04 -1.340531e-03 -1.779854e-03 -2.183542e-03 -2.575689e-03 -2.930406e-03 -3.270616e-03 -3.573125e-03 -3.859113e-03 -4.108497e-03 -4.340233e-03 -4.537609e-03 -4.716994e-03 -4.865146e-03 -4.995608e-03 -5.098573e-03 -5.184638e-03 -5.247280e-03 -5.294151e-03 -5.321772e-03 -5.334944e-03 -5.332938e-03 -5.317881e-03 -5.291463e-03 -5.253372e-03 -5.207381e-03 -5.151006e-03 -5.089772e-03 -5.019313e-03 -4.946588e-03 -4.865643e-03 -4.784582e-03 -4.696139e-03 -4.609308e-03 -4.515772e-03 -4.425187e-03 -4.328420e-03 -4.235596e-03 -4.136970e-03 -4.042975e-03 -3.943429e-03 -3.848940e-03 -3.749032e-03 -3.654386e-03 -3.554346e-03 -3.459585e-03 -3.359356e-03 -3.264265e-03 -3.163540e-03 -3.067680e-03 -2.965929e-03 -2.868659e-03 -2.765158e-03 -2.665654e-03 -2.559494e-03 -2.456767e-03 -2.346872e-03 -2.239772e-03 -2.124911e-03 -2.012141e-03 -1.890936e-03 -1.771059e-03 -1.641998e-03 -1.513456e-03 -1.374909e-03 -1.236035e-03 -1.086282e-03 -9.353350e-04 -7.725987e-04 -6.078048e-04 -4.303065e-04 -2.499203e-04 -5.595182e-05 1.416580e-04 3.536339e-04 5.698715e-04 8.010912e-04 1.036987e-03 1.288221e-03 1.544250e-03 1.815600e-03 2.091467e-03 2.382134e-03 2.676520e-03 2.984544e-03 3.294851e-03 3.616843e-03 3.938927e-03 4.269827e-03 4.597786e-03 4.930676e-03 5.256711e-03 5.582744e-03 5.897169e-03 6.205667e-03 6.497107e-03 6.775878e-03 7.031713e-03 7.267623e-03 7.474686e-03 7.654484e-03 7.799993e-03 7.911338e-03 7.983985e-03 8.016571e-03 8.007627e-03 7.954250e-03 7.858540e-03 7.715949e-03 7.532516e-03 
7.895607e-03 7.605894e-03 7.266227e-03 6.892254e-03 6.472491e-03 6.027077e-03 5.541739e-03 5.040696e-03 4.506749e-03 3.967624e-03 3.403221e-03 2.844065e-03 2.267384e-03 1.705689e-03 1.133959e-03 5.858087e-04 3.456025e-05 -4.859994e-04 -1.003483e-03 -1.484868e-03 -1.957918e-03 -2.391261e-03 -2.812023e-03 -3.191273e-03 -3.554751e-03 -3.876619e-03 -4.180565e-03 -4.444318e-03 -4.688973e-03 -4.896111e-03 -5.083831e-03 -5.237665e-03 -5.372459e-03 -5.477634e-03 -5.564675e-03 -5.626699e-03 -5.671847e-03 -5.696641e-03 -5.706016e-03 -5.699547e-03 -5.679179e-03 -5.647157e-03 -5.602724e-03 -5.550399e-03 -5.487042e-03 -5.419072e-03 -5.341300e-03 -5.261683e-03 -5.173324e-03 -5.085394e-03 -4.989600e-03 -4.896043e-03 -4.795329e-03 -4.698235e-03 -4.594526e-03 -4.495449e-03 -4.390149e-03 -4.290169e-03 -4.184223e-03 -4.084007e-03 -3.977961e-03 -3.877825e-03 -3.771883e-03 -3.671834e-03 -3.565903e-03 -3.465688e-03 -3.359417e-03 -3.258549e-03 -3.151359e-03 -3.049146e-03 -2.940255e-03 -2.835816e-03 -2.724254e-03 -2.616533e-03 -2.501155e-03 -2.388931e-03 -2.268426e-03 -2.150320e-03 -2.023220e-03 -1.897703e-03 -1.762392e-03 -1.627796e-03 -1.482526e-03 -1.337061e-03 -1.179975e-03 -1.021754e-03 -8.509170e-04 -6.780011e-04 -4.914540e-04 -3.019084e-04 -9.774107e-05 1.102765e-04 3.338249e-04 5.619486e-04 8.063533e-04 1.055856e-03 1.322131e-03 1.593727e-03 1.882210e-03 2.175822e-03 2.485910e-03 2.800389e-03 3.130249e-03 3.463073e-03 3.809329e-03 4.156297e-03 4.513735e-03 4.868689e-03 5.230016e-03 5.584658e-03 5.940381e-03 6.284236e-03 6.622720e-03 6.943313e-03 7.251103e-03 7.534426e-03 7.796858e-03 8.028132e-03 8.230259e-03 8.395000e-03 8.522770e-03 8.608043e-03 8.649613e-03 8.645343e-03 8.592347e-03 8.492471e-03 8.341031e-03 8.144303e-03 