# vtk DataFile Version 2.0
Comment goes here
ASCII

DATASET STRUCTURED_POINTS
DIMENSIONS    128   128   1

ORIGIN    0.000   0.000   0.000
SPACING   0.0078125 0.0078125   1.000

POINT_DATA   16384
SCALARS uY double
LOOKUP_TABLE default

1.702251e-14 1.341553e-14 9.540450e-15 5.862503e-15 1.948149e-15 -1.756130e-15 -5.663759e-15 -9.313133e-15 -1.314628e-14 -1.672143e-14 -2.043259e-14 -2.388017e-14 -2.742434e-14 -3.068679e-14 -3.403492e-14 -3.710243e-14 -4.021047e-14 -4.303122e-14 -4.587234e-14 -4.841189e-14 -5.097277e-14 -5.323987e-14 -5.549617e-14 -5.745498e-14 -5.936615e-14 -6.102329e-14 -6.261886e-14 -6.395805e-14 -6.522097e-14 -6.622293e-14 -6.715751e-14 -6.785512e-14 -6.847087e-14 -6.885577e-14 -6.915937e-14 -6.924668e-14 -6.925528e-14 -6.905894e-14 -6.878411e-14 -6.830096e-14 -6.775182e-14 -6.701387e-14 -6.619896e-14 -6.521338e-14 -6.415951e-14 -6.294780e-14 -6.167514e-14 -6.025796e-14 -5.877605e-14 -5.716482e-14 -5.549567e-14 -5.369356e-14 -5.185442e-14 -4.988989e-14 -4.789810e-14 -4.577236e-14 -4.361901e-14 -4.136817e-14 -3.908766e-14 -3.671137e-14 -3.431099e-14 -3.181436e-14 -2.930819e-14 -2.670649e-14 -2.410396e-14 -2.141138e-14 -1.872184e-14 -1.595048e-14 -1.318996e-14 -1.034077e-14 -7.518158e-15 -4.617588e-15 -1.751952e-15 1.191321e-15 4.089824e-15 7.048553e-15 9.954819e-15 1.292132e-14 1.581242e-14 1.876009e-14 2.161550e-14 2.451882e-14 2.731447e-14 3.014669e-14 3.285465e-14 3.558776e-14 3.817316e-14 4.078211e-14 4.322439e-14 4.567297e-14 4.793288e-14 5.019689e-14 5.224228e-14 5.428909e-14 5.608794e-14 5.787883e-14 5.941002e-14 6.091233e-14 6.214197e-14 6.333780e-14 6.423199e-14 6.509786e-14 6.563895e-14 6.615241e-14 6.631781e-14 6.645244e-14 6.622820e-14 6.597522e-14 6.535827e-14 6.471536e-14 6.367856e-14 6.263795e-14 6.120382e-14 5.977005e-14 5.794119e-14 5.612019e-14 5.391136e-14 5.173641e-14 4.916566e-14 4.664868e-14 4.375724e-14 4.093720e-14 3.775103e-14 3.466504e-14 3.123522e-14 2.792229e-14 2.429156e-14 2.080635e-14 
5.538750e-04 5.250999e-04 4.929981e-04 4.592730e-04 4.224755e-04 3.846599e-04 3.441120e-04 3.032055e-04 2.599726e-04 2.170634e-04 1.722774e-04 1.284880e-04 8.329364e-05 3.972944e-05 -4.766443e-06 -4.706418e-05 -8.983726e-05 -1.299313e-04 -1.700770e-04 -2.071656e-04 -2.439272e-04 -2.773667e-04 -3.101546e-04 -3.394718e-04 -3.678733e-04 -3.927696e-04 -4.165485e-04 -4.368946e-04 -4.559832e-04 -4.718058e-04 -4.862888e-04 -4.977512e-04 -5.078434e-04 -5.152216e-04 -5.212420e-04 -5.248974e-04 -5.272412e-04 -5.275928e-04 -5.267035e-04 -5.242017e-04 -5.205451e-04 -5.156475e-04 -5.096882e-04 -5.028397e-04 -4.950224e-04 -4.866387e-04 -4.773740e-04 -4.678303e-04 -4.574839e-04 -4.471070e-04 -4.359938e-04 -4.250586e-04 -4.134399e-04 -4.021681e-04 -3.902517e-04 -3.788133e-04 -3.667553e-04 -3.552716e-04 -3.431799e-04 -3.317276e-04 -3.196665e-04 -3.082820e-04 -2.962763e-04 -2.849605e-04 -2.730008e-04 -2.617236e-04 -2.497703e-04 -2.384753e-04 -2.264632e-04 -2.150709e-04 -2.029132e-04 -1.913253e-04 -1.789170e-04 -1.670198e-04 -1.542416e-04 -1.419093e-04 -1.286307e-04 -1.157290e-04 -1.018128e-04 -8.820254e-05 -7.350865e-05 -5.905066e-05 -4.344110e-05 -2.800119e-05 -1.134608e-05 5.198529e-06 2.301394e-05 4.076712e-05 5.983409e-05 7.887187e-05 9.924840e-05 1.196087e-04 1.413085e-04 1.629795e-04 1.859598e-04 2.088679e-04 2.330168e-04 2.570136e-04 2.821375e-04 3.069881e-04 3.328004e-04 3.581737e-04 3.842866e-04 4.097484e-04 4.356683e-04 4.606806e-04 4.858105e-04 5.097368e-04 5.333859e-04 5.555057e-04 5.769083e-04 5.964405e-04 6.147846e-04 6.309209e-04 6.453863e-04 6.573325e-04 6.671359e-04 6.741599e-04 6.786046e-04 6.800865e-04 6.786130e-04 6.740926e-04 6.663242e-04 6.555420e-04 6.413207e-04 6.242471e-04 6.036562e-04 5.805049e-04 
1.110291e-03 1.052643e-03 9.882970e-04 9.207127e-04 8.469337e-04 7.711392e-04 6.898262e-04 6.078297e-04 5.211232e-04 4.351101e-04 3.452844e-04 2.575091e-04 1.668638e-04 7.954585e-05 -9.695754e-06 -9.446632e-05 -1.802468e-04 -2.605894e-04 -3.410918e-04 -4.153983e-04 -4.891036e-04 -5.560831e-04 -6.218080e-04 -6.805129e-04 -7.374294e-04 -7.872625e-04 -8.348982e-04 -8.756024e-04 -9.138232e-04 -9.454550e-04 -9.744329e-04 -9.973232e-04 -1.017492e-03 -1.032197e-03 -1.044200e-03 -1.051448e-03 -1.056080e-03 -1.056713e-03 -1.054867e-03 -1.049790e-03 -1.042403e-03 -1.032535e-03 -1.020539e-03 -1.006774e-03 -9.910618e-04 -9.742319e-04 -9.556280e-04 -9.364854e-04 -9.157228e-04 -8.949219e-04 -8.726317e-04 -8.507223e-04 -8.274276e-04 -8.048531e-04 -7.809695e-04 -7.580694e-04 -7.339091e-04 -7.109254e-04 -6.867040e-04 -6.637893e-04 -6.396347e-04 -6.168610e-04 -5.928226e-04 -5.701913e-04 -5.462496e-04 -5.236999e-04 -4.997755e-04 -4.771937e-04 -4.531557e-04 -4.303828e-04 -4.060572e-04 -3.828963e-04 -3.580727e-04 -3.342960e-04 -3.087353e-04 -2.840907e-04 -2.575320e-04 -2.317504e-04 -2.039184e-04 -1.767213e-04 -1.473351e-04 -1.184433e-04 -8.722606e-05 -5.637041e-05 -2.306120e-05 1.000517e-05 4.563725e-05 8.112360e-05 1.192628e-04 1.573231e-04 1.980877e-04 2.387999e-04 2.822196e-04 3.255628e-04 3.715549e-04 4.173843e-04 4.657277e-04 5.137494e-04 5.640595e-04 6.138064e-04 6.655125e-04 7.163243e-04 7.686520e-04 8.196616e-04 8.716244e-04 9.217557e-04 9.721583e-04 1.020137e-03 1.067595e-03 1.111975e-03 1.154952e-03 1.194168e-03 1.231033e-03 1.263460e-03 1.292563e-03 1.316604e-03 1.336370e-03 1.350550e-03 1.359574e-03 1.362644e-03 1.359798e-03 1.350830e-03 1.335351e-03 1.313820e-03 1.285386e-03 1.251228e-03 1.210003e-03 1.163645e-03 
1.666552e-03 1.579958e-03 1.483321e-03 1.381766e-03 1.270939e-03 1.157031e-03 1.034882e-03 9.116522e-04 7.814115e-04 6.521583e-04 5.172554e-04 3.853788e-04 2.492788e-04 1.181230e-04 -1.582694e-05 -1.431153e-04 -2.718209e-04 -3.924133e-04 -5.131451e-04 -6.246256e-04 -7.351045e-04 -8.355368e-04 -9.339912e-04 -1.021957e-03 -1.107151e-03 -1.181762e-03 -1.252996e-03 -1.313874e-03 -1.370958e-03 -1.418199e-03 -1.461403e-03 -1.495515e-03 -1.525501e-03 -1.547330e-03 -1.565076e-03 -1.575725e-03 -1.582434e-03 -1.583177e-03 -1.580196e-03 -1.572398e-03 -1.561138e-03 -1.546183e-03 -1.528049e-03 -1.507279e-03 -1.483612e-03 -1.458280e-03 -1.430314e-03 -1.401548e-03 -1.370382e-03 -1.339161e-03 -1.305740e-03 -1.272885e-03 -1.237989e-03 -1.204164e-03 -1.168412e-03 -1.134121e-03 -1.097978e-03 -1.063581e-03 -1.027366e-03 -9.930899e-04 -9.569915e-04 -9.229402e-04 -8.870295e-04 -8.532028e-04 -8.174481e-04 -7.837531e-04 -7.480333e-04 -7.142978e-04 -6.784153e-04 -6.443998e-04 -6.080922e-04 -5.735006e-04 -5.364519e-04 -5.009418e-04 -4.627924e-04 -4.259854e-04 -3.863434e-04 -3.478351e-04 -3.062870e-04 -2.656587e-04 -2.217820e-04 -1.786137e-04 -1.319918e-04 -8.587782e-05 -3.611708e-05 1.331531e-05 6.656422e-05 1.196324e-04 1.766498e-04 2.335890e-04 2.945571e-04 3.554897e-04 4.204591e-04 4.853599e-04 5.542130e-04 6.228718e-04 6.952843e-04 7.672675e-04 8.426699e-04 9.172838e-04 9.948267e-04 1.071087e-03 1.149614e-03 1.226224e-03 1.304259e-03 1.379606e-03 1.455356e-03 1.527525e-03 1.598910e-03 1.665728e-03 1.730434e-03 1.789539e-03 1.845108e-03 1.894047e-03 1.937987e-03 1.974346e-03 2.004273e-03 2.025822e-03 2.039610e-03 2.044452e-03 2.040389e-03 2.027115e-03 2.004043e-03 1.971851e-03 1.929277e-03 1.878066e-03 1.816234e-03 1.746645e-03 
2.230481e-03 2.114647e-03 1.985289e-03 1.849358e-03 1.700928e-03 1.548412e-03 1.384771e-03 1.219753e-03 1.045251e-03 8.721696e-04 6.914229e-04 5.148523e-04 3.325226e-04 1.569574e-04 -2.245502e-05 -1.927890e-04 -3.651265e-04 -5.264338e-04 -6.880319e-04 -8.370745e-04 -9.848763e-04 -1.119063e-03 -1.250696e-03 -1.368133e-03 -1.481947e-03 -1.581454e-03 -1.676520e-03 -1.757606e-03 -1.833682e-03 -1.896490e-03 -1.953953e-03 -1.999180e-03 -2.038936e-03 -2.067733e-03 -2.091105e-03 -2.104963e-03 -2.113581e-03 -2.114220e-03 -2.109901e-03 -2.099160e-03 -2.083803e-03 -2.063543e-03 -2.039036e-03 -2.011058e-03 -1.979201e-03 -1.945181e-03 -1.907629e-03 -1.869074e-03 -1.827296e-03 -1.785514e-03 -1.740769e-03 -1.696855e-03 -1.650184e-03 -1.605017e-03 -1.557244e-03 -1.511494e-03 -1.463236e-03 -1.417378e-03 -1.369056e-03 -1.323388e-03 -1.275249e-03 -1.229906e-03 -1.182042e-03 -1.137021e-03 -1.089387e-03 -1.044560e-03 -9.969917e-04 -9.521277e-04 -9.043589e-04 -8.591361e-04 -8.108157e-04 -7.648377e-04 -7.155425e-04 -6.683516e-04 -6.176012e-04 -5.686913e-04 -5.159611e-04 -4.647918e-04 -4.095284e-04 -3.555393e-04 -2.971769e-04 -2.398050e-04 -1.777843e-04 -1.164850e-04 -5.027650e-05 1.545258e-05 8.632104e-05 1.569098e-04 2.328199e-04 3.085905e-04 3.897948e-04 4.709207e-04 5.574978e-04 6.439571e-04 7.357631e-04 8.272884e-04 9.239039e-04 1.019930e-03 1.120609e-03 1.220224e-03 1.323846e-03 1.425747e-03 1.530778e-03 1.633244e-03 1.737720e-03 1.838601e-03 1.940128e-03 2.036865e-03 2.132658e-03 2.222339e-03 2.309293e-03 2.388743e-03 2.463551e-03 2.529469e-03 2.588771e-03 2.637899e-03 2.678472e-03 2.707790e-03 2.726754e-03 2.733694e-03 2.728723e-03 2.711366e-03 2.680880e-03 2.638129e-03 2.581446e-03 2.513150e-03 2.430584e-03 2.337597e-03 
2.794093e-03 2.648868e-03 2.486691e-03 2.316155e-03 2.129984e-03 1.938585e-03 1.733306e-03 1.526208e-03 1.307321e-03 1.090137e-03 8.634711e-04 6.419744e-04 4.134100e-04 1.932683e-04 -3.152711e-05 -2.449934e-04 -4.607918e-04 -6.628120e-04 -8.650134e-04 -1.051525e-03 -1.236300e-03 -1.404060e-03 -1.568447e-03 -1.715096e-03 -1.857044e-03 -1.981123e-03 -2.099495e-03 -2.200414e-03 -2.294936e-03 -2.372905e-03 -2.444083e-03 -2.500008e-03 -2.549009e-03 -2.584364e-03 -2.612881e-03 -2.629565e-03 -2.639666e-03 -2.639858e-03 -2.633843e-03 -2.619868e-03 -2.600134e-03 -2.574337e-03 -2.543258e-03 -2.507901e-03 -2.467737e-03 -2.424922e-03 -2.377744e-03 -2.329355e-03 -2.276996e-03 -2.224665e-03 -2.168694e-03 -2.113782e-03 -2.055491e-03 -1.999089e-03 -1.939499e-03 -1.882435e-03 -1.822303e-03 -1.765163e-03 -1.705008e-03 -1.648152e-03 -1.588274e-03 -1.531865e-03 -1.472371e-03 -1.416397e-03 -1.357221e-03 -1.301518e-03 -1.242452e-03 -1.186726e-03 -1.127433e-03 -1.071279e-03 -1.011317e-03 -9.542368e-04 -8.930745e-04 -8.344946e-04 -7.715294e-04 -7.108157e-04 -6.453903e-04 -5.818652e-04 -5.132856e-04 -4.462462e-04 -3.738016e-04 -3.025405e-04 -2.255273e-04 -1.493579e-04 -6.710752e-05 1.460561e-05 1.026924e-04 1.904970e-04 2.849091e-04 3.792211e-04 4.802890e-04 5.813412e-04 6.891810e-04 7.969649e-04 9.114166e-04 1.025619e-03 1.146180e-03 1.266117e-03 1.391877e-03 1.516428e-03 1.646008e-03 1.773564e-03 1.905062e-03 2.033484e-03 2.164455e-03 2.291059e-03 2.418510e-03 2.540091e-03 2.660527e-03 2.773425e-03 2.882940e-03 2.983151e-03 3.077567e-03 3.160916e-03 3.235981e-03 3.298336e-03 3.349960e-03 3.387482e-03 3.411998e-03 3.421411e-03 3.415852e-03 3.394700e-03 3.357040e-03 3.303911e-03 3.233265e-03 3.147949e-03 3.044701e-03 2.928266e-03 
3.370640e-03 3.195526e-03 2.999806e-03 2.793980e-03 2.569128e-03 2.338009e-03 2.089983e-03 1.839867e-03 1.575366e-03 1.313085e-03 1.039206e-03 7.717838e-04 4.956766e-04 2.299958e-04 -4.145471e-05 -2.989408e-04 -5.593917e-04 -8.029054e-04 -1.046783e-03 -1.271413e-03 -1.494086e-03 -1.695923e-03 -1.893816e-03 -2.070026e-03 -2.240680e-03 -2.389525e-03 -2.531589e-03 -2.652392e-03 -2.765569e-03 -2.858621e-03 -2.943562e-03 -3.010000e-03 -3.068157e-03 -3.109801e-03 -3.143259e-03 -3.162440e-03 -3.173736e-03 -3.173120e-03 -3.165063e-03 -3.147481e-03 -3.122988e-03 -3.091287e-03 -3.053243e-03 -3.010163e-03 -2.961301e-03 -2.909379e-03 -2.852200e-03 -2.793704e-03 -2.730416e-03 -2.667304e-03 -2.599788e-03 -2.533689e-03 -2.463492e-03 -2.395706e-03 -2.324045e-03 -2.255556e-03 -2.183332e-03 -2.114830e-03 -2.042654e-03 -1.974563e-03 -1.902786e-03 -1.835289e-03 -1.764029e-03 -1.697105e-03 -1.626278e-03 -1.559721e-03 -1.489069e-03 -1.422522e-03 -1.351635e-03 -1.284607e-03 -1.212952e-03 -1.144842e-03 -1.071777e-03 -1.001895e-03 -9.266936e-04 -8.542747e-04 -7.761453e-04 -7.003735e-04 -6.184789e-04 -5.385064e-04 -4.519880e-04 -3.669598e-04 -2.749652e-04 -1.840488e-04 -8.576510e-05 1.181400e-05 1.171202e-04 2.220348e-04 3.349683e-04 4.477372e-04 5.687170e-04 6.896435e-04 8.188354e-04 9.479372e-04 1.085179e-03 1.222111e-03 1.366832e-03 1.510805e-03 1.661945e-03 1.811646e-03 1.967577e-03 2.121101e-03 2.279567e-03 2.434365e-03 2.592439e-03 2.745296e-03 2.899385e-03 3.046442e-03 3.192329e-03 3.329159e-03 3.462109e-03 3.583854e-03 3.698787e-03 3.800361e-03 3.892086e-03 3.968436e-03 4.031941e-03 4.078358e-03 4.109137e-03 4.121586e-03 4.115974e-03 4.091418e-03 4.046899e-03 3.983574e-03 3.899029e-03 3.796645e-03 3.672506e-03 3.532344e-03 
3.946693e-03 3.741453e-03 3.512027e-03 3.270554e-03 3.006803e-03 2.735536e-03 2.444533e-03 2.150950e-03 1.840643e-03 1.532846e-03 1.211641e-03 8.979424e-04 5.742913e-04 2.628245e-04 -5.514989e-05 -3.567773e-04 -6.616073e-04 -9.465989e-04 -1.231738e-03 -1.494332e-03 -1.754355e-03 -1.989980e-03 -2.220720e-03 -2.426082e-03 -2.624692e-03 -2.797797e-03 -2.962744e-03 -3.102849e-03 -3.233844e-03 -3.341354e-03 -3.439226e-03 -3.515536e-03 -3.582053e-03 -3.629362e-03 -3.667031e-03 -3.688130e-03 -3.699980e-03 -3.698040e-03 -3.687407e-03 -3.665783e-03 -3.636119e-03 -3.598171e-03 -3.552872e-03 -3.501823e-03 -3.444099e-03 -3.382920e-03 -3.315694e-03 -3.247035e-03 -3.172878e-03 -3.099014e-03 -3.020113e-03 -2.942932e-03 -2.861073e-03 -2.782075e-03 -2.698658e-03 -2.618971e-03 -2.535028e-03 -2.455439e-03 -2.371663e-03 -2.292646e-03 -2.209428e-03 -2.131185e-03 -2.048648e-03 -1.971137e-03 -1.889169e-03 -1.812143e-03 -1.730433e-03 -1.653463e-03 -1.571527e-03 -1.494037e-03 -1.411244e-03 -1.332530e-03 -1.248129e-03 -1.167379e-03 -1.080519e-03 -9.968413e-04 -9.065953e-04 -8.190327e-04 -7.244196e-04 -6.319785e-04 -5.319905e-04 -4.336663e-04 -3.272997e-04 -2.221103e-04 -1.084037e-04 4.569636e-06 1.264897e-04 2.480523e-04 3.789153e-04 5.096988e-04 6.500231e-04 7.904137e-04 9.404286e-04 1.090485e-03 1.250043e-03 1.409405e-03 1.577885e-03 1.745678e-03 1.921889e-03 2.096625e-03 2.278711e-03 2.458207e-03 2.643569e-03 2.824879e-03 3.010126e-03 3.189510e-03 3.370450e-03 3.543392e-03 3.715080e-03 3.876376e-03 4.033234e-03 4.177146e-03 4.313162e-03 4.433655e-03 4.542659e-03 4.633714e-03 4.709728e-03 4.765712e-03 4.803339e-03 4.819409e-03 4.814241e-03 4.786730e-03 4.735724e-03 4.662485e-03 4.564264e-03 4.444912e-03 4.299959e-03 4.135988e-03 
4.541183e-03 4.305107e-03 4.040944e-03 3.762839e-03 3.458846e-03 3.146233e-03 2.810667e-03 2.472273e-03 2.114404e-03 1.759672e-03 1.389292e-03 1.027894e-03 6.548332e-04 2.962119e-04 -7.009917e-05 -4.171269e-04 -7.680323e-04 -1.095607e-03 -1.423532e-03 -1.725007e-03 -2.023692e-03 -2.293811e-03 -2.558463e-03 -2.793462e-03 -3.020830e-03 -3.218459e-03 -3.406824e-03 -3.566290e-03 -3.715386e-03 -3.837228e-03 -3.948082e-03 -4.033987e-03 -4.108718e-03 -4.161298e-03 -4.202874e-03 -4.225415e-03 -4.237396e-03 -4.233613e-03 -4.219902e-03 -4.193705e-03 -4.158322e-03 -4.113612e-03 -4.060496e-03 -4.000995e-03 -3.933855e-03 -3.862987e-03 -3.785186e-03 -3.705985e-03 -3.620471e-03 -3.535537e-03 -3.444805e-03 -3.356283e-03 -3.262365e-03 -3.171951e-03 -3.076429e-03 -2.985393e-03 -2.889427e-03 -2.798645e-03 -2.703008e-03 -2.613003e-03 -2.518122e-03 -2.429105e-03 -2.335103e-03 -2.247011e-03 -2.153748e-03 -2.066284e-03 -1.973390e-03 -1.886057e-03 -1.792971e-03 -1.705100e-03 -1.611095e-03 -1.521876e-03 -1.426088e-03 -1.334590e-03 -1.236040e-03 -1.141239e-03 -1.038863e-03 -9.396610e-04 -8.323309e-04 -7.275849e-04 -6.141397e-04 -5.026914e-04 -3.819710e-04 -2.626833e-04 -1.335704e-04 -5.373082e-06 1.331554e-04 2.712101e-04 4.200199e-04 5.686889e-04 7.284125e-04 8.881805e-04 1.059128e-03 1.230113e-03 1.412170e-03 1.594017e-03 1.786535e-03 1.978304e-03 2.179981e-03 2.380032e-03 2.588803e-03 2.794692e-03 3.007635e-03 3.216031e-03 3.429294e-03 3.635937e-03 3.844727e-03 4.044440e-03 4.243069e-03 4.429847e-03 4.611861e-03 4.779047e-03 4.937451e-03 5.078008e-03 5.205591e-03 5.312468e-03 5.402205e-03 5.468770e-03 5.514291e-03 5.534814e-03 5.530888e-03 5.501006e-03 5.443992e-03 5.361119e-03 5.249335e-03 5.112960e-03 4.946911e-03 4.758740e-03 
5.134978e-03 4.867725e-03 4.568585e-03 4.253343e-03 3.908788e-03 3.554230e-03 3.173771e-03 2.789946e-03 2.384248e-03 1.982009e-03 1.562305e-03 1.152739e-03 7.302802e-04 3.241841e-04 -9.026376e-05 -4.828361e-04 -8.794188e-04 -1.249530e-03 -1.619650e-03 -1.959768e-03 -2.296343e-03 -2.600538e-03 -2.898177e-03 -3.162234e-03 -3.417317e-03 -3.638758e-03 -3.849422e-03 -4.027441e-03 -4.193483e-03 -4.328795e-03 -4.451491e-03 -4.546115e-03 -4.627978e-03 -4.684980e-03 -4.729477e-03 -4.752676e-03 -4.763931e-03 -4.757615e-03 -4.740123e-03 -4.708778e-03 -4.667140e-03 -4.615220e-03 -4.553923e-03 -4.485659e-03 -4.408908e-03 -4.328170e-03 -4.239759e-03 -4.149963e-03 -4.053203e-03 -3.957259e-03 -3.854936e-03 -3.755234e-03 -3.649606e-03 -3.548025e-03 -3.440838e-03 -3.338773e-03 -3.231300e-03 -3.129704e-03 -3.022780e-03 -2.922213e-03 -2.816290e-03 -2.716961e-03 -2.612152e-03 -2.513969e-03 -2.410094e-03 -2.312706e-03 -2.209335e-03 -2.112169e-03 -2.008657e-03 -1.910953e-03 -1.806474e-03 -1.707312e-03 -1.600888e-03 -1.499219e-03 -1.389744e-03 -1.284410e-03 -1.170682e-03 -1.060444e-03 -9.411887e-04 -8.247540e-04 -6.986547e-04 -5.747091e-04 -4.404469e-04 -3.076944e-04 -1.639915e-04 -2.120383e-05 1.331196e-04 2.870419e-04 4.529985e-04 6.189502e-04 7.973009e-04 9.758814e-04 1.167035e-03 1.358442e-03 1.562340e-03 1.766247e-03 1.982237e-03 2.197664e-03 2.424362e-03 2.649544e-03 2.884704e-03 3.116960e-03 3.357357e-03 3.592994e-03 3.834339e-03 4.068587e-03 4.305495e-03 4.532517e-03 4.758549e-03 4.971525e-03 5.179331e-03 5.370653e-03 5.552220e-03 5.713799e-03 5.860818e-03 5.984503e-03 6.088838e-03 6.166927e-03 6.221161e-03 6.246960e-03 6.244971e-03 6.213351e-03 6.150848e-03 6.058738e-03 5.933699e-03 5.780437e-03 5.593385e-03 5.380894e-03 
5.753051e-03 5.453682e-03 5.118205e-03 4.764520e-03 4.377629e-03 3.979535e-03 3.552089e-03 3.121053e-03 2.665207e-03 2.213588e-03 1.742123e-03 1.282515e-03 8.082012e-04 3.528361e-04 -1.121343e-04 -5.518971e-04 -9.963875e-04 -1.410477e-03 -1.824793e-03 -2.204746e-03 -2.580928e-03 -2.920109e-03 -3.252124e-03 -3.545856e-03 -3.829690e-03 -4.075269e-03 -4.308912e-03 -4.505537e-03 -4.688868e-03 -4.837459e-03 -4.972035e-03 -5.074990e-03 -5.163763e-03 -5.224649e-03 -5.271640e-03 -5.294860e-03 -5.304813e-03 -5.295275e-03 -5.273327e-03 -5.236138e-03 -5.187517e-03 -5.127717e-03 -5.057501e-03 -4.979853e-03 -4.892769e-03 -4.801608e-03 -4.701905e-03 -4.601036e-03 -4.492400e-03 -4.385048e-03 -4.270564e-03 -4.159361e-03 -4.041516e-03 -3.928518e-03 -3.809223e-03 -3.695945e-03 -3.576578e-03 -3.464044e-03 -3.345501e-03 -3.234296e-03 -3.117049e-03 -3.007377e-03 -2.891522e-03 -2.783256e-03 -2.668572e-03 -2.561302e-03 -2.447292e-03 -2.340365e-03 -2.226299e-03 -2.118861e-03 -2.003810e-03 -1.894831e-03 -1.777701e-03 -1.666010e-03 -1.545567e-03 -1.429872e-03 -1.304773e-03 -1.183690e-03 -1.052510e-03 -9.245952e-04 -7.858587e-04 -6.496376e-04 -5.018604e-04 -3.558717e-04 -1.976072e-04 -4.045586e-05 1.296441e-04 2.992209e-04 4.823305e-04 6.653811e-04 8.624079e-04 1.059666e-03 1.271140e-03 1.482905e-03 1.708849e-03 1.934851e-03 2.174637e-03 2.413886e-03 2.666077e-03 2.916709e-03 3.178907e-03 3.438035e-03 3.706737e-03 3.970325e-03 4.240817e-03 4.503598e-03 4.769904e-03 5.025373e-03 5.280290e-03 5.520787e-03 5.756029e-03 5.972949e-03 6.179418e-03 6.363551e-03 6.531753e-03 6.673758e-03 6.794341e-03 6.885338e-03 6.949724e-03 6.981947e-03 6.983008e-03 6.950467e-03 6.883161e-03 6.782219e-03 6.644114e-03 6.473917e-03 6.265519e-03 6.028199e-03 
6.370191e-03 6.038241e-03 5.666078e-03 5.273270e-03 4.843595e-03 4.401168e-03 3.926286e-03 3.447229e-03 2.940882e-03 2.439149e-03 1.915740e-03 1.405506e-03 8.793780e-04 3.743616e-04 -1.408366e-04 -6.279378e-04 -1.119780e-03 -1.577746e-03 -2.035451e-03 -2.454891e-03 -2.869642e-03 -3.243233e-03 -3.608394e-03 -3.931019e-03 -4.242228e-03 -4.511000e-03 -4.766154e-03 -4.980320e-03 -5.179441e-03 -5.340185e-03 -5.485169e-03 -5.595321e-03 -5.689618e-03 -5.753300e-03 -5.801535e-03 -5.823782e-03 -5.831359e-03 -5.817736e-03 -5.790463e-03 -5.746723e-03 -5.690475e-03 -5.622259e-03 -5.542701e-03 -5.455310e-03 -5.357692e-03 -5.255919e-03 -5.144925e-03 -5.032953e-03 -4.912624e-03 -4.793977e-03 -4.667675e-03 -4.545208e-03 -4.415623e-03 -4.291549e-03 -4.160731e-03 -4.036666e-03 -3.906080e-03 -3.783100e-03 -3.653681e-03 -3.532386e-03 -3.404607e-03 -3.285180e-03 -3.159113e-03 -3.041382e-03 -2.916751e-03 -2.800240e-03 -2.676475e-03 -2.560450e-03 -2.436731e-03 -2.320239e-03 -2.195534e-03 -2.077434e-03 -1.950531e-03 -1.829530e-03 -1.699067e-03 -1.573740e-03 -1.438234e-03 -1.307055e-03 -1.164931e-03 -1.026301e-03 -8.759260e-04 -7.282098e-04 -5.679309e-04 -4.094985e-04 -2.376957e-04 -6.697878e-05 1.178721e-04 3.023103e-04 5.015570e-04 7.009331e-04 9.156468e-04 1.130848e-03 1.361702e-03 1.593155e-03 1.840282e-03 2.087802e-03 2.350629e-03 2.613251e-03 2.890326e-03 3.166125e-03 3.454933e-03 3.740848e-03 4.037645e-03 4.329330e-03 4.629005e-03 4.920717e-03 5.216722e-03 5.501294e-03 5.785659e-03 6.054579e-03 6.318060e-03 6.561685e-03 6.794055e-03 7.001990e-03 7.192500e-03 7.354127e-03 7.492116e-03 7.597275e-03 7.672904e-03 7.712653e-03 7.717692e-03 7.685080e-03 7.613658e-03 7.504416e-03 7.353642e-03 7.166687e-03 6.937046e-03 6.674728e-03 
7.017900e-03 6.652177e-03 6.241616e-03 5.808018e-03 5.333316e-03 4.844533e-03 4.319564e-03 3.790231e-03 3.230455e-03 2.676249e-03 2.097824e-03 1.534613e-03 9.535777e-04 3.966668e-04 -1.717588e-04 -7.082502e-04 -1.250246e-03 -1.753880e-03 -2.257487e-03 -2.717888e-03 -3.173359e-03 -3.582478e-03 -3.982513e-03 -4.334777e-03 -4.674637e-03 -4.966975e-03 -5.244462e-03 -5.476196e-03 -5.691494e-03 -5.864113e-03 -6.019506e-03 -6.136330e-03 -6.235827e-03 -6.301601e-03 -6.350502e-03 -6.370956e-03 -6.375400e-03 -6.356820e-03 -6.323353e-03 -6.272189e-03 -6.207392e-03 -6.129929e-03 -6.040106e-03 -5.942212e-03 -5.833165e-03 -5.720111e-03 -5.596988e-03 -5.473343e-03 -5.340555e-03 -5.210142e-03 -5.071332e-03 -4.937226e-03 -4.795290e-03 -4.659853e-03 -4.516978e-03 -4.381917e-03 -4.239647e-03 -4.106082e-03 -3.965387e-03 -3.833919e-03 -3.695269e-03 -3.566056e-03 -3.429487e-03 -3.302305e-03 -3.167483e-03 -3.041785e-03 -2.908064e-03 -2.783028e-03 -2.649495e-03 -2.524066e-03 -2.389582e-03 -2.262508e-03 -2.125742e-03 -1.995606e-03 -1.855065e-03 -1.720309e-03 -1.574368e-03 -1.433320e-03 -1.280252e-03 -1.131158e-03 -9.691652e-04 -8.102249e-04 -6.374811e-04 -4.668891e-04 -2.815918e-04 -9.759696e-05 1.019666e-04 3.009882e-04 5.163560e-04 7.318069e-04 9.642354e-04 1.197180e-03 1.447512e-03 1.698532e-03 1.967041e-03 2.236072e-03 2.522280e-03 2.808417e-03 3.110892e-03 3.412189e-03 3.728342e-03 4.041606e-03 4.367485e-03 4.688087e-03 5.018212e-03 5.339957e-03 5.667214e-03 5.982275e-03 6.297917e-03 6.596903e-03 6.890684e-03 7.162864e-03 7.423350e-03 7.657051e-03 7.872126e-03 8.055339e-03 8.212895e-03 8.334039e-03 8.422820e-03 8.471627e-03 8.482142e-03 8.450566e-03 8.375980e-03 8.259009e-03 8.095871e-03 7.892132e-03 7.640856e-03 7.352908e-03 
7.664387e-03 7.264265e-03 6.814809e-03 6.339524e-03 5.819180e-03 5.283010e-03 4.707360e-03 4.126723e-03 3.513070e-03 2.905485e-03 2.271837e-03 1.654955e-03 1.019110e-03 4.098800e-04 -2.113438e-04 -7.973471e-04 -1.388734e-03 -1.937846e-03 -2.486277e-03 -2.987145e-03 -3.481978e-03 -3.925847e-03 -4.359168e-03 -4.740047e-03 -5.106800e-03 -5.421483e-03 -5.719442e-03 -5.967389e-03 -6.196976e-03 -6.380050e-03 -6.544015e-03 -6.666097e-03 -6.769082e-03 -6.835605e-03 -6.883649e-03 -6.901099e-03 -6.901122e-03 -6.876551e-03 -6.835873e-03 -6.776459e-03 -6.702380e-03 -6.615066e-03 -6.514528e-03 -6.405748e-03 -6.285095e-03 -6.160588e-03 -6.025407e-03 -5.890112e-03 -5.745154e-03 -5.603167e-03 -5.452327e-03 -5.306918e-03 -5.153263e-03 -5.006918e-03 -4.852741e-03 -4.707234e-03 -4.554131e-03 -4.410603e-03 -4.259556e-03 -4.118594e-03 -3.970048e-03 -3.831768e-03 -3.685710e-03 -3.549827e-03 -3.405856e-03 -3.271742e-03 -3.129127e-03 -2.995870e-03 -2.853601e-03 -2.720042e-03 -2.576871e-03 -2.441649e-03 -2.296126e-03 -2.157698e-03 -2.008203e-03 -1.864879e-03 -1.709647e-03 -1.559614e-03 -1.396767e-03 -1.238117e-03 -1.065695e-03 -8.964604e-04 -7.124626e-04 -5.306612e-04 -3.330993e-04 -1.367907e-04 7.624439e-05 2.888816e-04 5.191307e-04 7.497011e-04 9.986243e-04 1.248391e-03 1.517027e-03 1.786758e-03 2.075553e-03 2.365338e-03 2.673947e-03 2.982986e-03 3.310048e-03 3.636420e-03 3.979318e-03 4.319744e-03 4.674368e-03 5.023988e-03 5.384531e-03 5.736726e-03 6.095542e-03 6.441844e-03 6.789413e-03 7.119546e-03 7.444602e-03 7.746700e-03 8.036548e-03 8.297589e-03 8.538656e-03 8.745123e-03 8.923737e-03 9.062492e-03 9.165840e-03 9.225144e-03 9.242344e-03 9.212919e-03 9.136054e-03 9.012046e-03 8.837044e-03 8.616741e-03 8.343929e-03 8.030114e-03 
8.348308e-03 7.912307e-03 7.421853e-03 6.902808e-03 6.334055e-03 5.747989e-03 5.118393e-03 4.483676e-03 3.812554e-03 3.148703e-03 2.456073e-03 1.782659e-03 1.088226e-03 4.239600e-04 -2.537248e-04 -8.917186e-04 -1.535919e-03 -2.132666e-03 -2.728992e-03 -3.272096e-03 -3.808909e-03 -4.288862e-03 -4.757562e-03 -5.167925e-03 -5.563096e-03 -5.900533e-03 -6.219915e-03 -6.484055e-03 -6.728342e-03 -6.921477e-03 -7.093945e-03 -7.220593e-03 -7.326602e-03 -7.392972e-03 -7.439394e-03 -7.452813e-03 -7.447446e-03 -7.415807e-03 -7.366830e-03 -7.298106e-03 -7.213610e-03 -7.115451e-03 -7.003074e-03 -6.882515e-03 -6.749184e-03 -6.612449e-03 -6.464216e-03 -6.316618e-03 -6.158589e-03 -6.004499e-03 -5.840825e-03 -5.683696e-03 -5.517613e-03 -5.360046e-03 -5.193948e-03 -5.037770e-03 -4.873300e-03 -4.719660e-03 -4.557798e-03 -4.407258e-03 -4.248419e-03 -4.101045e-03 -3.945160e-03 -3.800594e-03 -3.647187e-03 -3.504718e-03 -3.352969e-03 -3.211587e-03 -3.060385e-03 -2.918829e-03 -2.766816e-03 -2.623608e-03 -2.469214e-03 -2.322690e-03 -2.164163e-03 -2.012501e-03 -1.847936e-03 -1.689179e-03 -1.516545e-03 -1.348629e-03 -1.165801e-03 -9.865901e-04 -7.913854e-04 -5.987142e-04 -3.889500e-04 -1.806799e-04 4.576184e-05 2.716636e-04 5.167445e-04 7.621037e-04 1.027511e-03 1.293816e-03 1.580815e-03 1.869051e-03 2.178301e-03 2.488754e-03 2.820086e-03 3.152107e-03 3.504280e-03 3.856027e-03 4.226449e-03 4.594610e-03 4.979065e-03 5.358595e-03 5.750991e-03 6.134885e-03 6.527067e-03 6.906229e-03 7.287902e-03 7.651153e-03 8.009987e-03 8.344270e-03 8.666221e-03 8.957057e-03 9.226961e-03 9.459179e-03 9.661617e-03 9.820336e-03 9.940735e-03 1.001254e-02 1.003841e-02 1.001262e-02 9.934770e-03 9.804517e-03 9.618120e-03 9.381273e-03 9.086504e-03 8.746059e-03 
9.030645e-03 8.557928e-03 8.025771e-03 7.461791e-03 6.843794e-03 6.206513e-03 5.522196e-03 4.832122e-03 4.102979e-03 3.381777e-03 2.629955e-03 1.899223e-03 1.146397e-03 4.266640e-04 -3.068593e-04 -9.968941e-04 -1.692872e-03 -2.336925e-03 -2.979729e-03 -3.564375e-03 -4.141422e-03 -4.656430e-03 -5.158495e-03 -5.597027e-03 -6.018409e-03 -6.377057e-03 -6.715550e-03 -6.994189e-03 -7.250853e-03 -7.452294e-03 -7.631030e-03 -7.760518e-03 -7.867493e-03 -7.932096e-03 -7.975092e-03 -7.983049e-03 -7.970798e-03 -7.930899e-03 -7.872475e-03 -7.793516e-03 -7.697815e-03 -7.588166e-03 -7.463515e-03 -7.330804e-03 -7.184687e-03 -7.035607e-03 -6.874509e-03 -6.714719e-03 -6.544059e-03 -6.378171e-03 -6.202312e-03 -6.033932e-03 -5.856240e-03 -5.688047e-03 -5.510979e-03 -5.344825e-03 -5.170035e-03 -5.007051e-03 -4.835494e-03 -4.676198e-03 -4.508234e-03 -4.352622e-03 -4.188111e-03 -4.035744e-03 -3.874124e-03 -3.724200e-03 -3.564553e-03 -3.415963e-03 -3.257076e-03 -3.108452e-03 -2.948856e-03 -2.798607e-03 -2.636614e-03 -2.482957e-03 -2.316689e-03 -2.157673e-03 -1.985089e-03 -1.818618e-03 -1.637538e-03 -1.461397e-03 -1.269532e-03 -1.081419e-03 -8.764095e-04 -6.739722e-04 -4.534389e-04 -2.343375e-04 4.052756e-06 2.420719e-04 5.005134e-04 7.595133e-04 1.039940e-03 1.321658e-03 1.625589e-03 1.931260e-03 2.259603e-03 2.589752e-03 2.942564e-03 3.296746e-03 3.672961e-03 4.049471e-03 4.446588e-03 4.842146e-03 5.255910e-03 5.665348e-03 6.089444e-03 6.505427e-03 6.931240e-03 7.344080e-03 7.760565e-03 8.158182e-03 8.551933e-03 8.920039e-03 9.275606e-03 9.598176e-03 9.898695e-03 1.015876e-02 1.038691e-02 1.056767e-02 1.070694e-02 1.079311e-02 1.082920e-02 1.080847e-02 1.073078e-02 1.059517e-02 1.039799e-02 1.014487e-02 9.828218e-03 9.460807e-03 
9.757991e-03 9.246742e-03 8.670334e-03 8.058871e-03 7.388274e-03 6.696716e-03 5.953731e-03 5.204944e-03 4.413459e-03 3.631451e-03 2.815932e-03 2.024484e-03 1.208746e-03 4.303324e-04 -3.634122e-04 -1.108414e-03 -1.860272e-03 -2.554176e-03 -3.247141e-03 -3.875414e-03 -4.495832e-03 -5.047452e-03 -5.585375e-03 -6.053067e-03 -6.502448e-03 -6.882734e-03 -7.241415e-03 -7.534454e-03 -7.803902e-03 -8.013101e-03 -8.197925e-03 -8.329355e-03 -8.436644e-03 -8.498343e-03 -8.536915e-03 -8.538143e-03 -8.517787e-03 -8.468327e-03 -8.399116e-03 -8.308667e-03 -8.200392e-03 -8.078097e-03 -7.939838e-03 -7.793955e-03 -7.633799e-03 -7.471504e-03 -7.296392e-03 -7.123694e-03 -6.939372e-03 -6.761114e-03 -6.572160e-03 -6.392087e-03 -6.201989e-03 -6.022842e-03 -5.834110e-03 -5.657750e-03 -5.472038e-03 -5.299564e-03 -5.117789e-03 -4.949657e-03 -4.772117e-03 -4.608245e-03 -4.434719e-03 -4.274577e-03 -4.104409e-03 -3.947096e-03 -3.779270e-03 -3.623574e-03 -3.456768e-03 -3.301213e-03 -3.133845e-03 -2.976728e-03 -2.806991e-03 -2.646410e-03 -2.472299e-03 -2.306176e-03 -2.125512e-03 -1.951613e-03 -1.762067e-03 -1.578025e-03 -1.377144e-03 -1.180487e-03 -9.657293e-04 -7.539190e-04 -5.226991e-04 -2.931845e-04 -4.294287e-05 2.067633e-04 4.784711e-04 7.506885e-04 1.046069e-03 1.342810e-03 1.663668e-03 1.986457e-03 2.333993e-03 2.683639e-03 3.058189e-03 3.434507e-03 3.835243e-03 4.236731e-03 4.661312e-03 5.084793e-03 5.528995e-03 5.969249e-03 6.426599e-03 6.876021e-03 7.337490e-03 7.785832e-03 8.239641e-03 8.673921e-03 9.105556e-03 9.510199e-03 9.902710e-03 1.026003e-02 1.059469e-02 1.088573e-02 1.114310e-02 1.134890e-02 1.151023e-02 1.161337e-02 1.166229e-02 1.164859e-02 1.157280e-02 1.143292e-02 1.122567e-02 1.095636e-02 1.061740e-02 1.022211e-02 