# vtk DataFile Version 2.0
Comment goes here
ASCII

DATASET STRUCTURED_POINTS
FIELD FieldData 1
TIME 1 1 double
1.20000000
DIMENSIONS    384   64   1

ORIGIN    0.000   0.000   0.000
SPACING   0.078125 0.078125   1.000

POINT_DATA   24576
SCALARS Concentration double
LOOKUP_TABLE default

0 0 0 0 0 0 0 0 0 0 0 0 0 0 0 0 0 0 0 0 0 0 0 0 0 0 0 0 0 0 0 0 0 0 0 0 0 0 0 0 0 0 0 0 0 0 0 0 0 0 0 0 0 0 0 0 0 0 0 0 0 0 0 0 0 0 0 0 0 0 0 0 0 0 0 0 0 0 0 0 0 0 0 0 0 0 0 0 0 0 0 0 0 0 0 0 0 0 0 0 0 0 0 0 0 0 0 0 0 0 0 0 0 0 0 0 0 0 0 0 0 0 0 0 0 0 0 0 0 0 0 0 0 0 0 0 0 0 0 0 0 0 0 0 0 0 0 0 0 0 0 0 0 0 0 0 0 0 0 0 0 0 0 0 0 0 0 0 0 0 0 0 0 0 0 0 0 0 0 0 0 0 0 0 0 0 0 0 0 0 0 0 0 0 0 0 0 0 0 0 0 0 0 0 0 0 0 0 0 0 0 0 0 0 0 0 0 0 0 0 0 0 0 0 0 0 0 0 0 0 0 0 0 0 0 0 0 0 0 0 0 0 0 0 0 0 0 0 0 0 0 0 0 0 0 0 0 0 0 0 0 0 0 0 0 0 0 0 0 0 0 0 0 0 0 0 0 0 0 0 0 0 0 0 0 0 0 0 0 0 0 0 0 0 0 0 0 0 0 0 0 0 0 0 0 0 0 0 0 0 0 0 0 0 0 0 0 0 0 0 0 0 0 0 0 0 0 0 0 0 0 0 0 0 0 0 0 0 0 0 0 0 0 0 0 0 0 0 0 0 0 0 0 0 0 0 0 0 0 0 0 0 0 0 0 0 0 0 0 0 0 0 0 0 0 0 0 0 0 0 0 0 0 0 
0 0 0 0 0 0 0 0 0 0 0 0 0 0 0 0 0 0 0 0 0 0 0 0 0 0 0 0 0 0 0 0 0 0 0 0 0 0 0 0 0 0 0 0 0 0 0 0 0 0 0 0 0 0 0 0 0 0 0 0 0 0 0 0 0 0 0 0 0 0 0 0 0 0 0 0 0 0 0 0 0 0 0 0 0 0 0 0 0 0 0 0 0 0 0 0 0 0 0 0 0 0 0 0 0 0 0 0 0 0 0 0 0 0 0 0 0 0 0 0 0 0 0 0 0 0 0 0 0 0 0 0 0 0 0 0 0 0 0 0 0 0 0 0 0 0 0 0 0 0 0 0 0 0 0 0 0 0 0 0 0 0 0 0 0 0 0 0 0 0 0 0 0 0 0 0 0 0 0 0 0 0 0 0 0 0 0 0 0 0 0 0 0 0 0 0 0 0 0 0 0 0 0 0 0 0 0 0 0 0 0 0 0 0 0 0 0 0 0 0 0 0 0 0 0 0 0 0 0 0 0 0 0 0 0 0 0 0 0 0 0 0 0 0 0 0 0 0 0 0 0 0 0 0 0 0 0 0 0 0 0 0 0 0 0 0 0 0 0 0 0 0 0 0 0 0 0 0 0 0 0 0 0 0 0 0 0 0 0 0 0 0 0 0 0 0 0 0 0 0 0 0 0 0 0 0 0 0 0 0 0 0 0 0 0 0 0 0 0 0 0 0 0 0 0 0 0 0 0 0 0 0 0 0 0 0 0 0 0 0 0 0 0 0 0 0 0 0 0 0 0 0 0 0 0 0 0 0 0 0 0 0 0 0 0 0 0 0 0 0 0 0 0 0 0 0 0 0 0 0 0 0 0 0 
0 0 0 0 0 0 0 0 0 0 0 0 0 0 0 0 0 0 0 0 0 0 0 0 0 0 0 0 0 0 0 0 0 0 0 0 0 0 0 0 0 0 0 0 0 0 0 0 0 0 0 0 0 0 0 0 0 0 0 0 0 0 0 0 0 0 0 0 0 0 0 0 0 0 0 0 0 0 0 0 0 0 0 0 0 0 0 0 0 0 0 0 0 0 0 0 0 0 0 0 0 0 0 0 0 0 0 0 0 0 0 0 0 0 0 0 0 0 0 0 0 0 0 0 0 0 0 0 0 0 0 0 0 0 0 0 0 0 0 0 0 0 0 0 0 0 0 0 0 0 0 0 0 0 0 0 0 0 0 0 0 0 0 0 0 0 0 0 0 0 0 0 0 0 0 0 0 0 0 0 0 0 0 0 0 0 0 0 0 0 0 0 0 0 0 0 0 0 0 0 0 0 0 0 0 0 0 0 0 0 0 0 0 0 0 0 0 0 0 0 0 0 0 0 0 0 0 0 0 0 0 0 0 0 0 0 0 0 0 0 0 0 0 0 0 0 0 0 0 0 0 0 0 0 0 0 0 0 0 0 0 0 0 0 0 0 0 0 0 0 0 0 0 0 0 0 0 0 0 0 0 0 0 0 0 0 0 0 0 0 0 0 0 0 0 0 0 0 0 0 0 0 0 0 0 0 0 0 0 0 0 0 0 0 0 0 0 0 0 0 0 0 0 0 0 0 0 0 0 0 0 0 0 0 0 0 0 0 0 0 0 0 0 0 0 0 0 0 0 0 0 0 0 0 0 0 0 0 0 0 0 0 0 0 0 0 0 0 0 0 0 0 0 0 0 0 0 0 0 0 0 0 0 0 
0 0 0 0 0 0 0 0 0 0 0 0 0 0 0 0 0 0 0 0 0 0 0 0 0 0 0 0 0 0 0 0 0 0 0 0 0 0 0 0 0 0 0 0 0 0 0 0 0 0 0 0 0 0 0 0 0 0 0 0 0 0 0 0 0 0 0 0 0 0 0 0 0 0 0 0 0 0 0 0 0 0 0 0 0 0 0 0 0 0 0 0 0 0 0 0 0 0 0 0 0 0 0 0 0 0 0 0 0 0 0 0 0 0 0 0 0 0 0 0 0 0 0 0 0 0 0 0 0 0 0 0 0 0 0 0 0 0 0 0 0 0 0 0 0 0 0 0 0 0 0 0 0 0 0 0 0 0 0 0 0 0 0 0 0 0 0 0 0 0 0 0 0 0 0 0 0 0 0 0 0 0 0 0 0 0 0 0 0 0 0 0 0 0 0 0 0 0 0 0 0 0 0 0 0 0 0 0 0 0 0 0 0 0 0 0 0 0 0 0 0 0 0 0 0 0 0 0 0 0 0 0 0 0 0 0 0 0 0 0 0 0 0 0 0 0 0 0 0 0 0 0 0 0 0 0 0 0 0 0 0 0 0 0 0 0 0 0 0 0 0 0 0 0 0 0 0 0 0 0 0 0 0 0 0 0 0 0 0 0 0 0 0 0 0 0 0 0 0 0 0 0 0 0 0 0 0 0 0 0 0 0 0 0 0 0 0 0 0 0 0 0 0 0 0 0 0 0 0 0 0 0 0 0 0 0 0 0 0 0 0 0 0 0 0 0 0 0 0 0 0 0 0 0 0 0 0 0 0 0 0 0 0 0 0 0 0 0 0 0 0 0 0 0 0 0 0 0 0 0 0 0 0 0 
0 0 0 0 0 0 0 0 0 0 0 0 0 0 0 0 0 0 0 0 0 0 0 0 0 0 0 0 0 0 0 0 0 0 0 0 0 0 0 0 0 0 0 0 0 0 0 0 0 0 0 0 0 0 1.002024e-15 1.185080e-15 1.335559e-15 1.435817e-15 1.476586e-15 1.453572e-15 1.373598e-15 1.246534e-15 1.089448e-15 0 0 0 0 0 0 0 0 0 0 0 0 0 0 0 0 0 0 0 0 0 0 0 0 0 0 0 0 0 0 0 0 0 0 0 0 0 0 0 0 0 0 0 0 0 0 0 0 0 0 0 0 0 0 0 0 0 0 0 0 0 0 0 0 0 0 0 0 0 0 0 0 0 0 0 0 0 0 0 0 0 0 0 0 0 0 0 0 0 0 0 0 0 0 0 0 0 0 0 0 0 0 0 0 0 0 0 0 0 0 0 0 0 0 0 0 0 0 0 0 0 0 0 0 0 0 0 0 0 0 0 0 0 0 0 0 0 0 0 0 0 0 0 0 0 0 0 0 0 0 0 0 0 0 0 0 0 0 0 0 0 0 0 0 0 0 0 0 0 0 0 0 0 0 0 0 0 0 0 0 0 0 0 0 0 0 0 0 0 0 0 0 0 0 0 0 0 0 0 0 0 0 0 0 0 0 0 0 0 0 0 0 0 0 0 0 0 0 0 0 0 0 0 0 0 0 0 0 0 0 0 0 0 0 0 0 0 0 0 0 0 0 0 0 0 0 0 0 0 0 0 0 0 0 0 0 0 0 0 0 0 0 0 0 0 0 0 0 0 0 0 0 0 0 0 0 0 0 0 0 0 0 0 0 0 0 0 0 0 0 0 0 0 0 0 0 0 0 0 0 0 0 0 0 0 0 0 0 0 0 0 0 0 0 0 0 0 0 0 0 0 
0 0 0 0 0 0 0 0 0 0 0 0 0 0 0 0 0 0 0 0 0 0 0 0 0 0 0 0 0 0 0 0 0 0 0 0 0 0 0 0 0 0 0 0 0 0 0 0 1.248208e-15 2.055944e-15 3.177392e-15 4.627627e-15 6.362497e-15 8.283013e-15 1.023189e-14 1.201689e-14 1.345100e-14 1.436721e-14 1.468306e-14 1.436740e-14 1.349935e-14 1.218278e-14 1.059239e-14 8.873021e-15 7.183474e-15 5.619923e-15 4.262262e-15 3.133073e-15 2.239320e-15 1.555824e-15 1.054149e-15 0 0 0 0 0 0 0 0 0 0 0 0 0 0 0 0 0 0 0 0 0 0 0 0 0 0 0 0 0 0 0 0 0 0 0 0 0 0 0 0 0 0 0 0 0 0 0 0 0 0 0 0 0 0 0 0 0 0 0 0 0 0 0 0 0 0 0 0 0 0 0 0 0 0 0 0 0 0 0 0 0 0 0 0 0 0 0 0 0 0 0 0 0 0 0 0 0 0 0 0 0 0 0 0 0 0 0 0 0 0 0 0 0 0 0 0 0 0 0 0 0 0 0 0 0 0 0 0 0 0 0 0 0 0 0 0 0 0 0 0 0 0 0 0 0 0 0 0 0 0 0 0 0 0 0 0 0 0 0 0 0 0 0 0 0 0 0 0 0 0 0 0 0 0 0 0 0 0 0 0 0 0 0 0 0 0 0 0 0 0 0 0 0 0 0 0 0 0 0 0 0 0 0 0 0 0 0 0 0 0 0 0 0 0 0 0 0 0 0 0 0 0 0 0 0 0 0 0 0 0 0 0 0 0 0 0 0 0 0 0 0 0 0 0 0 0 0 0 0 0 0 0 0 0 0 0 0 0 0 0 0 0 0 0 0 0 0 0 0 0 0 0 0 0 0 0 0 0 0 0 0 0 0 0 0 0 0 0 0 0 0 0 0 0 0 0 0 0 0 0 0 0 0 0 0 0 0 0 0 0 0 0 0 
0 0 0 0 0 0 0 0 0 0 0 0 0 0 0 0 0 0 0 0 0 0 0 0 0 0 0 0 0 0 0 0 0 0 0 0 0 0 0 0 0 0 0 0 0 1.929774e-15 3.875671e-15 7.240949e-15 1.260845e-14 2.057367e-14 3.152121e-14 4.551969e-14 6.209397e-14 8.021892e-14 9.838642e-14 1.147493e-13 1.276049e-13 1.354358e-13 1.375823e-13 1.338491e-13 1.250686e-13 1.122819e-13 9.713465e-14 8.099007e-14 6.527675e-14 5.086543e-14 3.843171e-14 2.815974e-14 2.006719e-14 1.391064e-14 9.406644e-15 6.206580e-15 4.006771e-15 2.531484e-15 1.569440e-15 0 0 0 0 0 0 0 0 0 0 0 0 0 0 0 0 0 0 0 0 0 0 0 0 0 0 0 0 0 0 0 0 0 0 0 0 0 0 0 0 0 0 0 0 0 0 0 0 0 0 0 0 0 0 0 0 0 0 0 0 0 0 0 0 0 0 0 0 0 0 0 0 0 0 0 0 0 0 0 0 0 0 0 0 0 0 0 0 0 0 0 0 0 0 0 0 0 0 0 0 0 0 0 0 0 0 0 0 0 0 0 0 0 0 0 0 0 0 0 0 0 0 0 0 0 0 0 0 0 0 0 0 0 0 0 0 0 0 0 0 0 0 0 0 0 0 0 0 0 0 0 0 0 0 0 0 0 0 0 0 0 0 0 0 0 0 0 0 0 0 0 0 0 0 0 0 0 0 0 0 0 0 0 0 0 0 0 0 0 0 0 0 0 0 0 0 0 0 0 0 0 0 0 0 0 0 0 0 0 0 0 0 0 0 0 0 0 0 0 0 0 0 0 0 0 0 0 0 0 0 0 0 0 0 0 0 0 0 0 0 0 0 0 0 0 0 0 0 0 0 0 0 0 0 0 0 0 0 0 0 0 0 0 0 0 0 0 0 0 0 0 0 0 0 0 0 0 0 0 0 0 0 0 0 0 0 0 0 0 0 0 0 0 0 0 0 0 0 0 0 0 0 0 0 0 0 0 0 0 
0 0 0 0 0 0 0 0 0 0 0 0 0 0 0 0 0 0 0 0 0 0 0 0 0 0 0 0 0 0 0 0 0 0 0 0 0 0 0 0 0 0 1.463328e-15 3.743445e-15 8.734612e-15 1.879925e-14 3.734683e-14 6.908686e-14 1.191065e-13 1.926126e-13 2.925144e-13 4.190747e-13 5.672863e-13 7.277670e-13 8.866265e-13 1.027713e-12 1.136160e-12 1.199275e-12 1.212000e-12 1.173347e-12 1.091403e-12 9.755726e-13 8.406469e-13 6.982917e-13 5.609658e-13 4.357654e-13 3.284109e-13 2.400770e-13 1.708036e-13 1.182424e-13 7.991539e-14 5.272101e-14 3.406204e-14 2.154714e-14 1.338869e-14 8.169146e-15 4.909596e-15 2.905114e-15 1.697540e-15 0 0 0 0 0 0 0 0 0 0 0 0 0 0 0 0 0 0 0 0 0 0 0 0 0 0 0 0 0 0 0 0 0 0 0 0 0 0 0 0 0 0 0 0 0 0 0 0 0 0 0 0 0 0 0 0 0 0 0 0 0 0 0 0 0 0 0 0 0 0 0 0 0 0 0 0 0 0 0 0 0 0 0 0 0 0 0 0 0 0 0 0 0 0 0 0 0 0 0 0 0 0 0 0 0 0 0 0 0 0 0 0 0 0 0 0 0 0 0 0 0 0 0 0 0 0 0 0 0 0 0 0 0 0 0 0 0 0 0 0 0 0 0 0 0 0 0 0 0 0 0 0 0 0 0 0 0 0 0 0 0 0 0 0 0 0 0 0 0 0 0 0 0 0 0 0 0 0 0 0 0 0 0 0 0 0 0 0 0 0 0 0 0 0 0 0 0 0 0 0 0 0 0 0 0 0 0 0 0 0 0 0 0 0 0 0 0 0 0 0 0 0 0 0 0 0 0 0 0 0 0 0 0 0 0 0 0 0 0 0 0 0 0 0 0 0 0 0 0 0 0 0 0 0 0 0 0 0 0 0 0 0 0 0 0 0 0 0 0 0 0 0 0 0 0 0 0 0 0 0 0 0 0 0 0 0 0 0 0 0 0 0 0 0 0 0 0 0 0 0 0 0 0 0 0 
0 0 0 0 0 0 0 0 0 0 0 0 0 0 0 0 0 0 0 0 0 0 0 0 0 0 0 0 0 0 0 0 0 0 0 0 0 0 0 0 1.626513e-15 5.017525e-15 1.392203e-14 3.517786e-14 8.110826e-14 1.724469e-13 3.386939e-13 6.195159e-13 1.057080e-12 1.692491e-12 2.547237e-12 3.618029e-12 4.859678e-12 6.188539e-12 7.489064e-12 8.625714e-12 9.480526e-12 9.952083e-12 1.000636e-11 9.640793e-12 8.927250e-12 7.946752e-12 6.821026e-12 5.646262e-12 4.521149e-12 3.502505e-12 2.633094e-12 1.921341e-12 1.364878e-12 9.442043e-13 6.379656e-13 4.211568e-13 2.724157e-13 1.727072e-13 1.076034e-13 6.590118e-14 3.977158e-14 2.365634e-14 1.389998e-14 8.069564e-15 4.639022e-15 2.641460e-15 1.493046e-15 0 0 0 0 0 0 0 0 0 0 0 0 0 0 0 0 0 0 0 0 0 0 0 0 0 0 0 0 0 0 0 0 0 0 0 0 0 0 0 0 0 0 0 0 0 0 0 0 0 0 0 0 0 0 0 0 0 0 0 0 0 0 0 0 0 0 0 0 0 0 0 0 0 0 0 0 0 0 0 0 0 0 0 0 0 0 0 0 0 0 0 0 0 0 0 0 0 0 0 0 0 0 0 0 0 0 0 0 0 0 0 0 0 0 0 0 0 0 0 0 0 0 0 0 0 0 0 0 0 0 0 0 0 0 0 0 0 0 0 0 0 0 0 0 0 0 0 0 0 0 0 0 0 0 0 0 0 0 0 0 0 0 0 0 0 0 0 0 0 0 0 0 0 0 0 0 0 0 0 0 0 0 0 0 0 0 0 0 0 0 0 0 0 0 0 0 0 0 0 0 0 0 0 0 0 0 0 0 0 0 0 0 0 0 0 0 0 0 0 0 0 0 0 0 0 0 0 0 0 0 0 0 0 0 0 0 0 0 0 0 0 0 0 0 0 0 0 0 0 0 0 0 0 0 0 0 0 0 0 0 0 0 0 0 0 0 0 0 0 0 0 0 0 0 0 0 0 0 0 0 0 0 0 0 0 0 0 0 0 0 0 0 0 0 0 0 0 0 0 0 0 
0 0 0 0 0 0 0 0 0 0 0 0 0 0 0 0 0 0 0 0 0 0 0 0 0 0 0 0 0 0 0 0 0 0 0 0 0 0 1.142904e-15 4.380365e-15 1.487340e-14 4.534634e-14 1.241380e-13 3.096412e-13 7.042386e-13 1.478533e-12 2.867193e-12 5.184681e-12 8.748120e-12 1.386808e-11 2.067487e-11 2.912137e-11 3.880971e-11 4.907980e-11 5.901264e-11 6.757802e-11 7.388241e-11 7.718404e-11 7.726602e-11 7.414300e-11 6.840906e-11 6.069231e-11 5.194551e-11 4.288534e-11 3.426730e-11 2.649693e-11 1.989519e-11 1.450390e-11 1.030189e-11 7.128719e-12 4.822518e-12 3.189096e-12 2.068472e-12 1.315652e-12 8.232239e-13 5.065706e-13 3.074710e-13 1.840027e-13 1.088809e-13 6.367854e-14 3.691424e-14 2.120214e-14 1.210043e-14 6.859423e-15 3.873061e-15 2.177074e-15 1.221367e-15 0 0 0 0 0 0 0 0 0 0 0 0 0 0 0 0 0 0 0 0 0 0 0 0 0 0 0 0 0 0 0 0 0 0 0 0 0 0 0 0 0 0 0 0 0 0 0 0 0 0 0 0 0 0 0 0 0 0 0 0 0 0 0 0 0 0 0 0 0 0 0 0 0 0 0 0 0 0 0 0 0 0 0 0 0 0 0 0 0 0 0 0 0 0 0 0 0 0 0 0 0 0 0 0 0 0 0 0 0 0 0 0 0 0 0 0 0 0 0 0 0 0 0 0 0 0 0 0 0 0 0 0 0 0 0 0 0 0 0 0 0 0 0 0 0 0 0 0 0 0 0 0 0 0 0 0 0 0 0 0 0 0 0 0 0 0 0 0 0 0 0 0 0 0 0 0 0 0 0 0 0 0 0 0 0 0 0 0 0 0 0 0 0 0 0 0 0 0 0 0 0 0 0 0 0 0 0 0 0 0 0 0 0 0 0 0 0 0 0 0 0 0 0 0 0 0 0 0 0 0 0 0 0 0 0 0 0 0 0 0 0 0 0 0 0 0 0 0 0 0 0 0 0 0 0 0 0 0 0 0 0 0 0 0 0 0 0 0 0 0 0 0 0 0 0 0 0 0 0 0 0 0 0 0 0 0 0 0 0 0 0 0 0 0 0 0 0 
0 0 0 0 0 0 0 0 0 0 0 0 0 0 0 0 0 0 0 0 0 0 0 0 0 0 0 0 0 0 0 0 0 0 0 0 0 2.428879e-15 1.028525e-14 3.877732e-14 1.292530e-13 3.879961e-13 1.046256e-12 2.569002e-12 5.756148e-12 1.190711e-11 2.277620e-11 4.064683e-11 6.777144e-11 1.062374e-10 1.568096e-10 2.188327e-10 2.892632e-10 3.630544e-10 4.336368e-10 4.935324e-10 5.366440e-10 5.578154e-10 5.559019e-10 5.312476e-10 4.883489e-10 4.318379e-10 3.685062e-10 3.034774e-10 2.419628e-10 1.868006e-10 1.400866e-10 1.020791e-10 7.250484e-11 5.022001e-11 3.402420e-11 2.255788e-11 1.467696e-11 9.374755e-12 5.893594e-12 3.647573e-12 2.227629e-12 1.342696e-12 8.005126e-13 4.721782e-13 2.761439e-13 1.601666e-13 9.232998e-14 5.291206e-14 3.020440e-14 1.717589e-14 9.746075e-15 5.516852e-15 3.119345e-15 1.760757e-15 0 0 0 0 0 0 0 0 0 0 0 0 0 0 0 0 0 0 0 0 0 0 0 0 0 0 0 0 0 0 0 0 0 0 0 0 0 0 0 0 0 0 0 0 0 0 0 0 0 0 0 0 0 0 0 0 0 0 0 0 0 0 0 0 0 0 0 0 0 0 0 0 0 0 0 0 0 0 0 0 0 0 0 0 0 0 0 0 0 0 0 0 0 0 0 0 0 0 0 0 0 0 0 0 0 0 0 0 0 0 0 0 0 0 0 0 0 0 0 0 0 0 0 0 0 0 0 0 0 0 0 0 0 0 0 0 0 0 0 0 0 0 0 0 0 0 0 0 0 0 0 0 0 0 0 0 0 0 0 0 0 0 0 0 0 0 0 0 0 0 0 0 0 0 0 0 0 0 0 0 0 0 0 0 0 0 0 0 0 0 0 0 0 0 0 0 0 0 0 0 0 0 0 0 0 0 0 0 0 0 0 0 0 0 0 0 0 0 0 0 0 0 0 0 0 0 0 0 0 0 0 0 0 0 0 0 0 0 0 0 0 0 0 0 0 0 0 0 0 0 0 0 0 0 0 0 0 0 0 0 0 0 0 0 0 0 0 0 0 0 0 0 0 0 0 0 0 0 0 0 0 0 0 0 0 0 0 0 0 0 0 0 0 0 
0 0 0 0 0 0 0 0 0 0 0 0 0 0 0 0 0 0 0 0 0 0 0 0 0 0 0 0 0 0 0 0 0 0 0 0 4.379495e-15 2.122989e-14 8.844243e-14 3.272307e-13 1.061542e-12 3.121651e-12 8.264284e-12 1.994691e-11 4.392434e-11 8.943159e-11 1.684362e-10 2.964614e-10 4.878316e-10 7.559267e-10 1.103857e-09 1.526175e-09 2.000333e-09 2.492256e-09 2.957283e-09 3.346542e-09 3.620527e-09 3.746637e-09 3.719387e-09 3.542234e-09 3.246818e-09 2.863761e-09 2.438900e-09 2.005099e-09 1.596956e-09 1.231984e-09 9.239305e-10 6.735825e-10 4.791149e-10 3.325147e-10 2.259656e-10 1.503592e-10 9.829102e-11 6.311262e-11 3.992659e-11 2.487729e-11 1.531011e-11 9.302568e-12 5.595993e-12 3.331299e-12 1.967892e-12 1.153074e-12 6.719704e-13 3.892869e-13 2.247586e-13 1.292381e-13 7.417539e-14 4.245061e-14 2.427049e-14 1.384493e-14 7.893564e-15 4.492723e-15 2.557960e-15 1.456065e-15 0 0 0 0 0 0 0 0 0 0 0 0 0 0 0 0 0 0 0 0 0 0 0 0 0 0 0 0 0 0 0 0 0 0 0 0 0 0 0 0 0 0 0 0 0 0 0 0 0 0 0 0 0 0 0 0 0 0 0 0 0 0 0 0 0 0 0 0 0 0 0 0 0 0 0 0 0 0 0 0 0 0 0 0 0 0 0 0 0 0 0 0 0 0 0 0 0 0 0 0 0 0 0 0 0 0 0 0 0 0 0 0 0 0 0 0 0 0 0 0 0 0 0 0 0 0 0 0 0 0 0 0 0 0 0 0 0 0 0 0 0 0 0 0 0 0 0 0 0 0 0 0 0 0 0 0 0 0 0 0 0 0 0 0 0 0 0 0 0 0 0 0 0 0 0 0 0 0 0 0 0 0 0 0 0 0 0 0 0 0 0 0 0 0 0 0 0 0 0 0 0 0 0 0 0 0 0 0 0 0 0 0 0 0 0 0 0 0 0 0 0 0 0 0 0 0 0 0 0 0 0 0 0 0 0 0 0 0 0 0 0 0 0 0 0 0 0 0 0 0 0 0 0 0 0 0 0 0 0 0 0 0 0 0 0 0 0 0 0 0 0 0 0 0 0 0 0 0 0 0 0 0 0 0 0 0 0 0 0 0 
0 0 0 0 0 0 0 0 0 0 0 0 0 0 0 0 0 0 0 0 0 0 0 0 0 0 0 0 0 0 0 0 0 0 1.048128e-15 6.744567e-15 3.709711e-14 1.772556e-13 7.254925e-13 2.625439e-12 8.305901e-12 2.381735e-11 6.163700e-11 1.456936e-10 3.146461e-10 6.288200e-10 1.164377e-09 2.017084e-09 3.272298e-09 5.004735e-09 7.224919e-09 9.885443e-09 1.284070e-08 1.586909e-08 1.869974e-08 2.102908e-08 2.262910e-08 2.330483e-08 2.303953e-08 2.186191e-08 1.997541e-08 1.757188e-08 1.493135e-08 1.225512e-08 9.748348e-09 7.516606e-09 5.637055e-09 4.113510e-09 2.930458e-09 2.039221e-09 1.390391e-09 9.293340e-10 6.106064e-10 3.945080e-10 2.512475e-10 1.577573e-10 9.787243e-11 6.000384e-11 3.642766e-11 2.190215e-11 1.306800e-11 7.738945e-12 4.557680e-12 2.669687e-12 1.558105e-12 9.060020e-13 5.256348e-13 3.041590e-13 1.757379e-13 1.013298e-13 5.837010e-14 3.358086e-14 1.932580e-14 1.113135e-14 6.433694e-15 3.737545e-15 2.190178e-15 1.297448e-15 0 0 0 0 0 0 0 0 0 0 0 0 0 0 0 0 0 0 0 0 0 0 0 0 0 0 0 0 0 0 0 0 0 0 0 0 0 0 0 0 0 0 0 0 0 0 0 0 0 0 0 0 0 0 0 0 0 0 0 0 0 0 0 0 0 0 0 0 0 0 0 0 0 0 0 0 0 0 0 0 0 0 0 0 0 0 0 0 0 0 0 0 0 0 0 0 0 0 0 0 0 0 0 0 0 0 0 0 0 0 0 0 0 0 0 0 0 0 0 0 0 0 0 0 0 0 0 0 0 0 0 0 0 0 0 0 0 0 0 0 0 0 0 0 0 0 0 0 0 0 0 0 0 0 0 0 0 0 0 0 0 0 0 0 0 0 0 0 0 0 0 0 0 0 0 0 0 0 0 0 0 0 0 0 0 0 0 0 0 0 0 0 0 0 0 0 0 0 0 0 0 0 0 0 0 0 0 0 0 0 0 0 0 0 0 0 0 0 0 0 0 0 0 0 0 0 0 0 0 0 0 0 0 0 0 0 0 0 0 0 0 0 0 0 0 0 0 0 0 0 0 0 0 0 0 0 0 0 0 0 0 0 0 0 0 0 0 0 0 0 0 0 0 0 0 0 0 0 0 0 0 0 0 0 0 0 
0 0 0 0 0 0 0 0 0 0 0 0 0 0 0 0 0 0 0 0 0 0 0 0 0 0 0 0 0 0 0 0 0 1.174039e-15 8.674473e-15 5.600983e-14 3.051068e-13 1.432783e-12 5.721377e-12 2.015375e-11 6.181385e-11 1.718759e-10 4.313512e-10 9.953736e-10 2.100998e-09 4.113156e-09 7.469358e-09 1.271869e-08 2.030733e-08 3.063160e-08 4.366909e-08 5.911124e-08 7.605532e-08 9.323548e-08 1.090986e-07 1.219591e-07 1.305740e-07 1.338902e-07 1.318901e-07 1.247638e-07 1.137230e-07 9.983950e-08 8.472413e-08 6.947445e-08 5.525506e-08 4.261992e-08 3.200385e-08 2.339895e-08 1.671977e-08 1.167818e-08 8.001366e-09 5.377768e-09 3.556888e-09 2.314588e-09 1.486104e-09 9.410581e-10 5.892671e-10 3.646819e-10 2.236236e-10 1.358016e-10 8.187957e-11 4.899309e-11 2.916619e-11 1.726606e-11 1.018825e-11 5.987904e-12 3.512360e-12 2.054040e-12 1.199694e-12 6.990113e-13 4.070766e-13 2.367755e-13 1.379129e-13 8.046418e-14 4.720085e-14 2.787670e-14 1.664905e-14 1.006959e-14 6.188297e-15 3.862182e-15 2.449132e-15 1.572523e-15 1.020147e-15 0 0 0 0 0 0 0 0 0 0 0 0 0 0 0 0 0 0 0 0 0 0 0 0 0 0 0 0 0 0 0 0 0 0 0 0 0 0 0 0 0 0 0 0 0 0 0 0 0 0 0 0 0 0 0 0 0 0 0 0 0 0 0 0 0 0 0 0 0 0 0 0 0 0 0 0 0 0 0 0 0 0 0 0 0 0 0 0 0 0 0 0 0 0 0 0 0 0 0 0 0 0 0 0 0 0 0 0 0 0 0 0 0 0 0 0 0 0 0 0 0 0 0 0 0 0 0 0 0 0 0 0 0 0 0 0 0 0 0 0 0 0 0 0 0 0 0 0 0 0 0 0 0 0 0 0 0 0 0 0 0 0 0 0 0 0 0 0 0 0 0 0 0 0 0 0 0 0 0 0 0 0 0 0 0 0 0 0 0 0 0 0 0 0 0 0 0 0 0 0 0 0 0 0 0 0 0 0 0 0 0 0 0 0 0 0 0 0 0 0 0 0 0 0 0 0 0 0 0 0 0 0 0 0 0 0 0 0 0 0 0 0 0 0 0 0 0 0 0 0 0 0 0 0 0 0 0 0 0 0 0 0 0 0 0 0 0 0 0 0 0 0 0 0 0 0 0 0 0 0 0 
0 0 0 0 0 0 0 0 0 0 0 0 0 0 0 0 0 0 0 0 0 0 0 0 0 0 0 0 0 0 0 0 1.067632e-15 9.335909e-15 6.955976e-14 4.485146e-13 2.419126e-12 1.111127e-11 4.315571e-11 1.471728e-10 4.363330e-10 1.173147e-09 2.848941e-09 6.387212e-09 1.313257e-08 2.509426e-08 4.459025e-08 7.444356e-08 1.168131e-07 1.734728e-07 2.439973e-07 3.263445e-07 4.156541e-07 5.049996e-07 5.865157e-07 6.513353e-07 6.935152e-07 7.076859e-07 6.942934e-07 6.544910e-07 5.948570e-07 5.210427e-07 4.413841e-07 3.615662e-07 2.874351e-07 2.218167e-07 1.667640e-07 1.222131e-07 8.760178e-08 6.145598e-08 4.232321e-08 2.862614e-08 1.906433e-08 1.250432e-08 8.094765e-09 5.172274e-09 3.268172e-09 2.042143e-09 1.264188e-09 7.754253e-10 4.721535e-10 2.854631e-10 1.716902e-10 1.027420e-10 6.127184e-11 3.641128e-11 2.158844e-11 1.276579e-11 7.536928e-12 4.441510e-12 2.616310e-12 1.541110e-12 9.099177e-13 5.393243e-13 3.220262e-13 1.941528e-13 1.186276e-13 7.357050e-14 4.639251e-14 2.971140e-14 1.929854e-14 1.266414e-14 8.368473e-15 5.542662e-15 3.667943e-15 2.415932e-15 1.580593e-15 1.024374e-15 0 0 0 0 0 0 0 0 0 0 0 0 0 0 0 0 0 0 0 0 0 0 0 0 0 0 0 0 0 0 0 0 0 0 0 0 0 0 0 0 0 0 0 0 0 0 0 0 0 0 0 0 0 0 0 0 0 0 0 0 0 0 0 0 0 0 0 0 0 0 0 0 0 0 0 0 0 0 0 0 0 0 0 0 0 0 0 0 0 0 0 0 0 0 0 0 0 0 0 0 0 0 0 0 0 0 0 0 0 0 0 0 0 0 0 0 0 0 0 0 0 0 0 0 0 0 0 0 0 0 0 0 0 0 0 0 0 0 0 0 0 0 0 0 0 0 0 0 0 0 0 0 0 0 0 0 0 0 0 0 0 0 0 0 0 0 0 0 0 0 0 0 0 0 0 0 0 0 0 0 0 0 0 0 0 0 0 0 0 0 0 0 0 0 0 0 0 0 0 0 0 0 0 0 0 0 0 0 0 0 0 0 0 0 0 0 0 0 0 0 0 0 0 0 0 0 0 0 0 0 0 0 0 0 0 0 0 0 0 0 0 0 0 0 0 0 0 0 0 0 0 0 0 0 0 0 0 0 0 0 0 0 0 0 0 0 0 0 0 0 0 0 0 0 0 0 
0 0 0 0 0 0 0 0 0 0 0 0 0 0 0 0 0 0 0 0 0 0 0 0 0 0 0 0 0 0 0 0 8.203714e-15 7.348150e-14 5.503472e-13 3.546080e-12 1.878451e-11 8.416558e-11 3.157752e-10 1.036115e-09 2.947406e-09 7.608212e-09 1.771284e-08 3.837884e-08 7.648161e-08 1.421364e-07 2.462279e-07 4.021120e-07 6.186177e-07 9.032904e-07 1.251752e-06 1.653338e-06 2.083151e-06 2.508171e-06 2.890929e-06 3.190046e-06 3.378757e-06 3.432499e-06 3.355494e-06 3.153675e-06 2.859971e-06 2.500812e-06 2.116587e-06 1.733277e-06 1.378797e-06 1.065489e-06 8.030675e-07 5.905071e-07 4.252238e-07 2.999280e-07 2.079151e-07 1.416419e-07 9.509977e-08 6.290409e-08 4.109254e-08 2.649590e-08 1.690155e-08 1.066019e-08 6.663845e-09 4.127035e-09 2.538599e-09 1.550468e-09 9.425722e-10 5.700971e-10 3.438036e-10 2.065627e-10 1.238742e-10 7.407479e-11 4.425255e-11 2.639314e-11 1.575475e-11 9.414583e-12 5.652179e-12 3.413945e-12 2.083761e-12 1.287447e-12 8.081898e-13 5.154646e-13 3.343418e-13 2.198644e-13 1.462917e-13 9.799198e-14 6.588237e-14 4.423775e-14 2.959979e-14 1.965933e-14 1.294764e-14 8.432087e-15 5.429909e-15 3.450322e-15 2.164775e-15 1.338834e-15 0 0 0 0 0 0 0 0 0 0 0 0 0 0 0 0 0 0 0 0 0 0 0 0 0 0 0 0 0 0 0 0 0 0 0 0 0 0 0 0 0 0 0 0 0 0 0 0 0 0 0 0 0 0 0 0 0 0 0 0 0 0 0 0 0 0 0 0 0 0 0 0 0 0 0 0 0 0 0 0 0 0 0 0 0 0 0 0 0 0 0 0 0 0 0 0 0 0 0 0 0 0 0 0 0 0 0 0 0 0 0 0 0 0 0 0 0 0 0 0 0 0 0 0 0 0 0 0 0 0 0 0 0 0 0 0 0 0 0 0 0 0 0 0 0 0 0 0 0 0 0 0 0 0 0 0 0 0 0 0 0 0 0 0 0 0 0 0 0 0 0 0 0 0 0 0 0 0 0 0 0 0 0 0 0 0 0 0 0 0 0 0 0 0 0 0 0 0 0 0 0 0 0 0 0 0 0 0 0 0 0 0 0 0 0 0 0 0 0 0 0 0 0 0 0 0 0 0 0 0 0 0 0 0 0 0 0 0 0 0 0 0 0 0 0 0 0 0 0 0 0 0 0 0 0 0 0 0 0 0 0 0 0 0 0 0 0 0 0 0 0 0 
0 0 0 0 0 0 0 0 0 0 0 0 0 0 0 0 0 0 0 0 0 0 0 0 0 0 0 0 0 0 0 5.898829e-15 6.141438e-14 5.617822e-13 4.246809e-12 2.713826e-11 1.405004e-10 6.091854e-10 2.203268e-09 6.930713e-09 1.885139e-08 4.659298e-08 1.039172e-07 2.165263e-07 4.162420e-07 7.487029e-07 1.260046e-06 2.006040e-06 3.019386e-06 4.325846e-06 5.899591e-06 7.685368e-06 9.573599e-06 1.141387e-05 1.305050e-05 1.430022e-05 1.505927e-05 1.522118e-05 1.481692e-05 1.387504e-05 1.254565e-05 1.094536e-05 9.249224e-06 7.569516e-06 6.022720e-06 4.660833e-06 3.521264e-06 2.598931e-06 1.880170e-06 1.334015e-06 9.308291e-07 6.389214e-07 4.323306e-07 2.883871e-07 1.899683e-07 1.235678e-07 7.950114e-08 5.059863e-08 3.191471e-08 1.995665e-08 1.239542e-08 7.650433e-09 4.700313e-09 2.875087e-09 1.753370e-09 1.065931e-09 6.467543e-10 3.916006e-10 2.369632e-10 1.433667e-10 8.692902e-11 5.290595e-11 3.243181e-11 2.007384e-11 1.259217e-11 8.019932e-12 5.196010e-12 3.421426e-12 2.286717e-12 1.545382e-12 1.052440e-12 7.188492e-13 4.907928e-13 3.336203e-13 2.252865e-13 1.507100e-13 9.977155e-14 6.524334e-14 4.213227e-14 2.683524e-14 1.686197e-14 1.044305e-14 6.378079e-15 3.838599e-15 2.278123e-15 1.332337e-15 0 0 0 0 0 0 0 0 0 0 0 0 0 0 0 0 0 0 0 0 0 0 0 0 0 0 0 0 0 0 0 0 0 0 0 0 0 0 0 0 0 0 0 0 0 0 0 0 0 0 0 0 0 0 0 0 0 0 0 0 0 0 0 0 0 0 0 0 0 0 0 0 0 0 0 0 0 0 0 0 0 0 0 0 0 0 0 0 0 0 0 0 0 0 0 0 0 0 0 0 0 0 0 0 0 0 0 0 0 0 0 0 0 0 0 0 0 0 0 0 0 0 0 0 0 0 0 0 0 0 0 0 0 0 0 0 0 0 0 0 0 0 0 0 0 0 0 0 0 0 0 0 0 0 0 0 0 0 0 0 0 0 0 0 0 0 0 0 0 0 0 0 0 0 0 0 0 0 0 0 0 0 0 0 0 0 0 0 0 0 0 0 0 0 0 0 0 0 0 0 0 0 0 0 0 0 0 0 0 0 0 0 0 0 0 0 0 0 0 0 0 0 0 0 0 0 0 0 0 0 0 0 0 0 0 0 0 0 0 0 0 0 0 0 0 0 0 0 0 0 0 0 0 0 0 0 0 0 0 0 0 0 0 0 0 0 0 0 
0 0 0 0 0 0 0 0 0 0 0 0 0 0 0 0 0 0 0 0 0 0 0 0 0 0 0 0 0 0 3.341905e-15 4.190169e-14 4.524262e-13 4.247503e-12 3.224614e-11 2.045334e-10 1.027093e-09 4.296271e-09 1.489295e-08 4.470583e-08 1.157245e-07 2.719337e-07 5.762331e-07 1.147000e-06 2.113920e-06 3.660308e-06 5.952433e-06 9.201906e-06 1.350222e-05 1.894069e-05 2.537494e-05 3.257846e-05 4.009626e-05 4.733745e-05 5.369341e-05 5.844673e-05 6.121523e-05 6.158522e-05 5.972042e-05 5.574095e-05 5.027631e-05 4.378240e-05 3.696653e-05 3.025306e-05 2.410112e-05 1.869383e-05 1.417507e-05 1.051105e-05 7.649189e-06 5.463214e-06 3.840719e-06 2.656770e-06 1.812593e-06 1.218967e-06 8.097666e-07 5.310921e-07 3.446703e-07 2.212790e-07 1.408831e-07 8.894431e-08 5.582343e-08 3.482331e-08 2.164088e-08 1.339093e-08 8.266859e-09 5.088091e-09 3.128344e-09 1.920547e-09 1.180308e-09 7.264557e-10 4.494036e-10 2.798652e-10 1.762260e-10 1.124053e-10 7.289100e-11 4.805406e-11 3.223081e-11 2.192431e-11 1.509096e-11 1.045731e-11 7.272023e-12 5.049645e-12 3.493092e-12 2.397931e-12 1.631770e-12 1.097705e-12 7.299186e-13 4.787951e-13 3.099971e-13 1.977880e-13 1.244803e-13 7.717008e-14 4.718236e-14 2.841304e-14 1.687601e-14 9.873445e-15 5.698638e-15 3.240432e-15 1.818267e-15 1.005417e-15 0 0 0 0 0 0 0 0 0 0 0 0 0 0 0 0 0 0 0 0 0 0 0 0 0 0 0 0 0 0 0 0 0 0 0 0 0 0 0 0 0 0 0 0 0 0 0 0 0 0 0 0 0 0 0 0 0 0 0 0 0 0 0 0 0 0 0 0 0 0 0 0 0 0 0 0 0 0 0 0 0 0 0 0 0 0 0 0 0 0 0 0 0 0 0 0 0 0 0 0 0 0 0 0 0 0 0 0 0 0 0 0 0 0 0 0 0 0 0 0 0 0 0 0 0 0 0 0 0 0 0 0 0 0 0 0 0 0 0 0 0 0 0 0 0 0 0 0 0 0 0 0 0 0 0 0 0 0 0 0 0 0 0 0 0 0 0 0 0 0 0 0 0 0 0 0 0 0 0 0 0 0 0 0 0 0 0 0 0 0 0 0 0 0 0 0 0 0 0 0 0 0 0 0 0 0 0 0 0 0 0 0 0 0 0 0 0 0 0 0 0 0 0 0 0 0 0 0 0 0 0 0 0 0 0 0 0 0 0 0 0 0 0 0 0 0 0 0 0 0 0 0 0 0 0 0 0 0 0 0 0 0 0 0 
0 0 0 0 0 0 0 0 0 0 0 0 0 0 0 0 0 0 0 0 0 0 0 0 0 0 0 0 0 1.474020e-15 2.157751e-14 2.844395e-13 3.204809e-12 3.077496e-11 2.351658e-10 1.467815e-09 7.135348e-09 2.851383e-08 9.428924e-08 2.697533e-07 6.639224e-07 1.486935e-06 2.999652e-06 5.695332e-06 1.002159e-05 1.661813e-05 2.599211e-05 3.883612e-05 5.537775e-05 7.584848e-05 9.968282e-05 1.259795e-04 1.531518e-04 1.789718e-04 2.013897e-04 2.177002e-04 2.267059e-04 2.268556e-04 2.189509e-04 2.034781e-04 1.828569e-04 1.587819e-04 1.338034e-04 1.094315e-04 8.722394e-05 6.779487e-05 5.157298e-05 3.842066e-05 2.811171e-05 2.020712e-05 1.430025e-05 9.962962e-06 6.844773e-06 4.636890e-06 3.102310e-06 2.050309e-06 1.340947e-06 8.683337e-07 5.578247e-07 3.557246e-07 2.256036e-07 1.423566e-07 8.951346e-08 5.609724e-08 3.508607e-08 2.190488e-08 1.367354e-08 8.540566e-09 5.351279e-09 3.369684e-09 2.140087e-09 1.374361e-09 8.956732e-10 5.932953e-10 4.000190e-10 2.741496e-10 1.906282e-10 1.339350e-10 9.473616e-11 6.714112e-11 4.751707e-11 3.345306e-11 2.337809e-11 1.617454e-11 1.106768e-11 7.477223e-12 4.986217e-12 3.278286e-12 2.125499e-12 1.357822e-12 8.550826e-13 5.304613e-13 3.243899e-13 1.954239e-13 1.160693e-13 6.792457e-14 3.919839e-14 2.229372e-14 1.250697e-14 6.916935e-15 3.774543e-15 2.031105e-15 1.078766e-15 0 0 0 0 0 0 0 0 0 0 0 0 0 0 0 0 0 0 0 0 0 0 0 0 0 0 0 0 0 0 0 0 0 0 0 0 0 0 0 0 0 0 0 0 0 0 0 0 0 0 0 0 0 0 0 0 0 0 0 0 0 0 0 0 0 0 0 0 0 0 0 0 0 0 0 0 0 0 0 0 0 0 0 0 0 0 0 0 0 0 0 0 0 0 0 0 0 0 0 0 0 0 0 0 0 0 0 0 0 0 0 0 0 0 0 0 0 0 0 0 0 0 0 0 0 0 0 0 0 0 0 0 0 0 0 0 0 0 0 0 0 0 0 0 0 0 0 0 0 0 0 0 0 0 0 0 0 0 0 0 0 0 0 0 0 0 0 0 0 0 0 0 0 0 0 0 0 0 0 0 0 0 0 0 0 0 0 0 0 0 0 0 0 0 0 0 0 0 0 0 0 0 0 0 0 0 0 0 0 0 0 0 0 0 0 0 0 0 0 0 0 0 0 0 0 0 0 0 0 0 0 0 0 0 0 0 0 0 0 0 0 0 0 0 0 0 0 0 0 0 0 0 0 0 0 0 0 0 0 0 0 
0 0 0 0 0 0 0 0 0 0 0 0 0 0 0 0 0 0 0 0 0 0 0 0 0 0 0 0 0 8.473032e-15 1.315445e-13 1.831679e-12 2.157776e-11 2.149045e-10 1.663448e-09 1.033556e-08 4.811079e-08 1.825164e-07 5.706981e-07 1.546915e-06 3.615762e-06 7.677244e-06 1.468890e-05 2.650095e-05 4.433904e-05 7.005462e-05 1.047351e-04 1.504221e-04 2.073751e-04 2.764199e-04 3.554968e-04 4.419040e-04 5.304566e-04 6.139834e-04 6.858786e-04 7.370512e-04 7.637254e-04 7.606070e-04 7.308938e-04 6.763884e-04 6.057053e-04 5.244940e-04 4.413231e-04 3.608468e-04 2.880115e-04 2.244555e-04 1.714507e-04 1.283639e-04 9.447479e-05 6.832703e-05 4.866973e-05 3.412457e-05 2.359973e-05 1.609146e-05 1.084164e-05 7.217199e-06 4.758806e-06 3.108479e-06 2.016683e-06 1.299593e-06 8.338679e-07 5.326376e-07 3.394256e-07 2.157228e-07 1.370399e-07 8.701608e-08 5.538410e-08 3.536656e-08 2.274537e-08 1.476013e-08 9.706413e-09 6.478850e-09 4.402117e-09 3.042429e-09 2.138149e-09 1.522113e-09 1.094457e-09 7.907217e-10 5.721597e-10 4.127090e-10 2.961091e-10 2.105844e-10 1.483034e-10 1.031695e-10 7.089470e-11 4.803322e-11 3.210576e-11 2.113938e-11 1.372398e-11 8.773538e-12 5.529557e-12 3.431493e-12 2.099601e-12 1.265062e-12 7.516950e-13 4.399236e-13 2.539746e-13 1.444493e-13 8.106905e-14 4.483572e-14 2.447661e-14 1.317134e-14 6.998613e-15 3.666642e-15 1.897457e-15 0 0 0 0 0 0 0 0 0 0 0 0 0 0 0 0 0 0 0 0 0 0 0 0 0 0 0 0 0 0 0 0 0 0 0 0 0 0 0 0 0 0 0 0 0 0 0 0 0 0 0 0 0 0 0 0 0 0 0 0 0 0 0 0 0 0 0 0 0 0 0 0 0 0 0 0 0 0 0 0 0 0 0 0 0 0 0 0 0 0 0 0 0 0 0 0 0 0 0 0 0 0 0 0 0 0 0 0 0 0 0 0 0 0 0 0 0 0 0 0 0 0 0 0 0 0 0 0 0 0 0 0 0 0 0 0 0 0 0 0 0 0 0 0 0 0 0 0 0 0 0 0 0 0 0 0 0 0 0 0 0 0 0 0 0 0 0 0 0 0 0 0 0 0 0 0 0 0 0 0 0 0 0 0 0 0 0 0 0 0 0 0 0 0 0 0 0 0 0 0 0 0 0 0 0 0 0 0 0 0 0 0 0 0 0 0 0 0 0 0 0 0 0 0 0 0 0 0 0 0 0 0 0 0 0 0 0 0 0 0 0 0 0 0 0 0 0 0 0 0 0 0 0 0 0 0 0 0 0 
0 0 0 0 0 0 0 0 0 0 0 0 0 0 0 0 0 0 0 0 0 0 0 0 0 0 0 0 2.501083e-15 4.529874e-14 7.444577e-13 1.089424e-11 1.353155e-10 1.408342e-09 1.130046e-08 7.049822e-08 3.107496e-07 1.087773e-06 3.163979e-06 8.061376e-06 1.782906e-05 3.619713e-05 6.622312e-05 1.140796e-04 1.817064e-04 2.731876e-04 3.892983e-04 5.350361e-04 7.104158e-04 9.182910e-04 1.153761e-03 1.409275e-03 1.671292e-03 1.917250e-03 2.128889e-03 2.275736e-03 2.347184e-03 2.325135e-03 2.221766e-03 2.043894e-03 1.820168e-03 1.568881e-03 1.315759e-03 1.074235e-03 8.574769e-04 6.694930e-04 5.128662e-04 3.855070e-04 2.849244e-04 2.070314e-04 1.481289e-04 1.043608e-04 7.251379e-05 4.971126e-05 3.368552e-05 2.257968e-05 1.500255e-05 9.889534e-06 6.480520e-06 4.224666e-06 2.744622e-06 1.777951e-06 1.150347e-06 7.438857e-07 4.817831e-07 3.129368e-07 2.044593e-07 1.346798e-07 8.976923e-08 6.069237e-08 4.173861e-08 2.921261e-08 2.080708e-08 1.504256e-08 1.100593e-08 8.112189e-09 6.000613e-09 4.434720e-09 3.264659e-09 2.385989e-09 1.728145e-09 1.237690e-09 8.758225e-10 6.114500e-10 4.210956e-10 2.857845e-10 1.911795e-10 1.259674e-10 8.178993e-11 5.229867e-11 3.295386e-11 2.045011e-11 1.250770e-11 7.535437e-12 4.475448e-12 2.618896e-12 1.511201e-12 8.594078e-13 4.820964e-13 2.666051e-13 1.454789e-13 7.828183e-14 4.157756e-14 2.178289e-14 1.126802e-14 5.751290e-15 2.899303e-15 1.442553e-15 0 0 0 0 0 0 0 0 0 0 0 0 0 0 0 0 0 0 0 0 0 0 0 0 0 0 0 0 0 0 0 0 0 0 0 0 0 0 0 0 0 0 0 0 0 0 0 0 0 0 0 0 0 0 0 0 0 0 0 0 0 0 0 0 0 0 0 0 0 0 0 0 0 0 0 0 0 0 0 0 0 0 0 0 0 0 0 0 0 0 0 0 0 0 0 0 0 0 0 0 0 0 0 0 0 0 0 0 0 0 0 0 0 0 0 0 0 0 0 0 0 0 0 0 0 0 0 0 0 0 0 0 0 0 0 0 0 0 0 0 0 0 0 0 0 0 0 0 0 0 0 0 0 0 0 0 0 0 0 0 0 0 0 0 0 0 0 0 0 0 0 0 0 0 0 0 0 0 0 0 0 0 0 0 0 0 0 0 0 0 0 0 0 0 0 0 0 0 0 0 0 0 0 0 0 0 0 0 0 0 0 0 0 0 0 0 0 0 0 0 0 0 0 0 0 0 0 0 0 0 0 0 0 0 0 0 0 0 0 0 0 0 0 0 0 0 0 0 0 0 0 0 0 0 0 0 
0 0 0 0 0 0 0 0 0 0 0 0 0 0 0 0 0 0 0 0 0 0 0 0 0 0 0 0 1.163818e-14 2.225750e-13 3.860075e-12 5.993709e-11 7.948444e-10 8.913393e-09 7.618000e-08 4.947860e-07 2.047726e-06 6.483669e-06 1.702005e-05 3.963808e-05 8.205078e-05 1.574542e-04 2.749716e-04 4.523295e-04 6.865859e-04 9.819798e-04 1.330118e-03 1.742628e-03 2.217794e-03 2.770395e-03 3.392039e-03 4.070489e-03 4.772561e-03 5.438006e-03 6.016309e-03 6.414458e-03 6.597973e-03 6.508846e-03 6.186867e-03 5.656843e-03 5.008576e-03 4.295924e-03 3.591049e-03 2.926991e-03 2.336577e-03 1.826667e-03 1.402583e-03 1.057135e-03 7.837211e-04 5.711576e-04 4.099770e-04 2.897843e-04 2.021520e-04 1.392120e-04 9.488364e-05 6.403950e-05 4.291563e-05 2.856977e-05 1.894237e-05 1.251203e-05 8.253627e-06 5.438898e-06 3.589898e-06 2.375140e-06 1.580496e-06 1.059465e-06 7.183358e-07 4.935623e-07 3.448634e-07 2.451555e-07 1.774770e-07 1.305170e-07 9.730149e-08 7.319052e-08 5.536146e-08 4.190255e-08 3.164604e-08 2.375396e-08 1.769186e-08 1.303772e-08 9.500863e-09 6.832342e-09 4.849353e-09 3.391725e-09 2.339105e-09 1.588523e-09 1.063300e-09 7.006622e-10 4.550369e-10 2.909099e-10 1.833174e-10 1.137285e-10 6.956064e-11 4.189494e-11 2.488344e-11 1.455686e-11 8.400642e-12 4.776191e-12 2.679676e-12 1.481593e-12 8.086364e-13 4.350578e-13 2.311340e-13 1.210802e-13 6.265398e-14 3.197698e-14 1.612621e-14 8.023401e-15 3.945721e-15 1.914873e-15 0 0 0 0 0 0 0 0 0 0 0 0 0 0 0 0 0 0 0 0 0 0 0 0 0 0 0 0 0 0 0 0 0 0 0 0 0 0 0 0 0 0 0 0 0 0 0 0 0 0 0 0 0 0 0 0 0 0 0 0 0 0 0 0 0 0 0 0 0 0 0 0 0 0 0 0 0 0 0 0 0 0 0 0 0 0 0 0 0 0 0 0 0 0 0 0 0 0 0 0 0 0 0 0 0 0 0 0 0 0 0 0 0 0 0 0 0 0 0 0 0 0 0 0 0 0 0 0 0 0 0 0 0 0 0 0 0 0 0 0 0 0 0 0 0 0 0 0 0 0 0 0 0 0 0 0 0 0 0 0 0 0 0 0 0 0 0 0 0 0 0 0 0 0 0 0 0 0 0 0 0 0 0 0 0 0 0 0 0 0 0 0 0 0 0 0 0 0 0 0 0 0 0 0 0 0 0 0 0 0 0 0 0 0 0 0 0 0 0 0 0 0 0 0 0 0 0 0 0 0 0 0 0 0 0 0 0 0 0 0 0 0 0 0 0 0 0 0 0 0 0 0 0 0 