# vtk DataFile Version 2.0
Comment goes here
ASCII

DATASET STRUCTURED_POINTS
FIELD FieldData 1
TIME 1 1 double
1.65000000
DIMENSIONS    384   64   1

ORIGIN    0.000   0.000   0.000
SPACING   0.078125 0.078125   1.000

POINT_DATA   24576
SCALARS Concentration double
LOOKUP_TABLE default

0 0 0 0 0 0 0 0 0 0 0 0 0 0 0 0 0 0 0 0 0 0 0 0 0 0 0 0 0 0 0 0 0 0 0 0 0 0 0 0 0 0 0 0 0 0 0 0 0 0 0 0 0 0 0 0 0 0 0 0 0 0 0 0 0 0 0 0 0 0 0 0 0 0 0 0 0 0 0 0 0 0 0 0 0 0 0 0 0 0 0 0 0 0 0 0 0 0 0 0 0 0 0 0 0 0 0 0 0 0 0 0 0 0 0 0 0 0 0 0 0 0 0 0 0 0 0 0 0 0 0 0 0 0 0 0 0 0 0 0 0 0 0 0 0 0 0 0 0 0 0 0 0 0 0 0 0 0 0 0 0 0 0 0 0 0 0 0 0 0 0 0 0 0 0 0 0 0 0 0 0 0 0 0 0 0 0 0 0 0 0 0 0 0 0 0 0 0 0 0 0 0 0 0 0 0 0 0 0 0 0 0 0 0 0 0 0 0 0 0 0 0 0 0 0 0 0 0 0 0 0 0 0 0 0 0 0 0 0 0 0 0 0 0 0 0 0 0 0 0 0 0 0 0 0 0 0 0 0 0 0 0 0 0 0 0 0 0 0 0 0 0 0 0 0 0 0 0 0 0 0 0 0 0 0 0 0 0 0 0 0 0 0 0 0 0 0 0 0 0 0 0 0 0 0 0 0 0 0 0 0 0 0 0 0 0 0 0 0 0 0 0 0 0 0 0 0 0 0 0 0 0 0 0 0 0 0 0 0 0 0 0 0 0 0 0 0 0 0 0 0 0 0 0 0 0 0 0 0 0 0 0 0 0 0 0 0 0 0 0 0 0 0 0 0 0 0 0 0 0 0 0 0 0 
0 0 0 0 0 0 0 0 0 0 0 0 0 0 0 0 0 0 0 0 0 0 0 0 0 0 0 0 0 0 0 0 0 0 0 0 0 0 0 0 0 0 0 0 0 0 0 0 0 0 0 0 0 0 0 0 0 0 0 0 0 0 0 0 0 0 0 0 0 0 0 0 0 0 0 0 0 0 0 0 0 0 0 0 0 0 0 0 0 0 0 0 0 0 0 0 0 0 0 0 0 0 0 0 0 0 0 0 0 0 0 0 0 0 0 0 0 0 0 0 0 0 0 0 0 0 0 0 0 0 0 0 0 0 0 0 0 0 0 0 0 0 0 0 0 0 0 0 0 0 0 0 0 0 0 0 0 0 0 0 0 0 0 0 0 0 0 0 0 0 0 0 0 0 0 0 0 0 0 0 0 0 0 0 0 0 0 0 0 0 0 0 0 0 0 0 0 0 0 0 0 0 0 0 0 0 0 0 0 0 0 0 0 0 0 0 0 0 0 0 0 0 0 0 0 0 0 0 0 0 0 0 0 0 0 0 0 0 0 0 0 0 0 0 0 0 0 0 0 0 0 0 0 0 0 0 0 0 0 0 0 0 0 0 0 0 0 0 0 0 0 0 0 0 0 0 0 0 0 0 0 0 0 0 0 0 0 0 0 0 0 0 0 0 0 0 0 0 0 0 0 0 0 0 0 0 0 0 0 0 0 0 0 0 0 0 0 0 0 0 0 0 0 0 0 0 0 0 0 0 0 0 0 0 0 0 0 0 0 0 0 0 0 0 0 0 0 0 0 0 0 0 0 0 0 0 0 0 0 0 0 0 0 0 0 0 0 0 0 0 0 0 0 0 0 0 0 0 0 0 0 0 0 0 
0 0 0 0 0 0 0 0 0 0 0 0 0 0 0 0 0 0 0 0 0 0 0 0 0 0 0 0 0 0 0 0 0 0 0 0 0 0 0 0 0 0 0 0 0 0 0 0 0 0 0 0 0 0 0 0 0 0 0 0 0 0 0 0 0 0 0 0 0 0 0 0 0 0 0 0 0 1.081810e-15 1.202698e-15 1.316447e-15 1.418198e-15 1.503372e-15 1.567756e-15 1.608066e-15 1.622093e-15 1.608972e-15 1.569280e-15 1.504899e-15 1.419013e-15 1.315604e-15 1.199419e-15 1.075266e-15 0 0 0 0 0 0 0 0 0 0 0 0 0 0 0 0 0 0 0 0 0 0 0 0 0 0 0 0 0 0 0 0 0 0 0 0 0 0 0 0 0 0 0 0 0 0 0 0 0 0 0 0 0 0 0 0 0 0 0 0 0 0 0 0 0 0 0 0 0 0 0 0 0 0 0 0 0 0 0 0 0 0 0 0 0 0 0 0 0 0 0 0 0 0 0 0 0 0 0 0 0 0 0 0 0 0 0 0 0 0 0 0 0 0 0 0 0 0 0 0 0 0 0 0 0 0 0 0 0 0 0 0 0 0 0 0 0 0 0 0 0 0 0 0 0 0 0 0 0 0 0 0 0 0 0 0 0 0 0 0 0 0 0 0 0 0 0 0 0 0 0 0 0 0 0 0 0 0 0 0 0 0 0 0 0 0 0 0 0 0 0 0 0 0 0 0 0 0 0 0 0 0 0 0 0 0 0 0 0 0 0 0 0 0 0 0 0 0 0 0 0 0 0 0 0 0 0 0 0 0 0 0 0 0 0 0 0 0 0 0 0 0 0 0 0 0 0 0 0 0 0 0 0 0 0 0 0 0 0 0 0 0 0 0 0 0 0 0 0 0 0 0 0 0 0 0 0 0 0 0 0 0 0 0 0 0 0 0 0 0 0 0 
0 0 0 0 0 0 0 0 0 0 0 0 0 0 0 0 0 0 0 0 0 0 0 0 0 0 0 0 0 0 0 0 0 0 0 0 0 0 0 0 0 0 0 0 0 0 0 0 0 0 0 0 0 0 0 0 0 0 0 0 0 0 0 0 0 0 1.017663e-15 1.278038e-15 1.591334e-15 1.973944e-15 2.440966e-15 2.995250e-15 3.635960e-15 4.360701e-15 5.160253e-15 6.021970e-15 6.924824e-15 7.844308e-15 8.748218e-15 9.602995e-15 1.037111e-14 1.101795e-14 1.151093e-14 1.182510e-14 1.194338e-14 1.185904e-14 1.157637e-14 1.110905e-14 1.048114e-14 9.721804e-15 8.866847e-15 7.951397e-15 7.012476e-15 6.081418e-15 5.187617e-15 4.352095e-15 3.592078e-15 2.916358e-15 2.330047e-15 1.831672e-15 1.417449e-15 1.079638e-15 0 0 0 0 0 0 0 0 0 0 0 0 0 0 0 0 0 0 0 0 0 0 0 0 0 0 0 0 0 0 0 0 0 0 0 0 0 0 0 0 0 0 0 0 0 0 0 0 0 0 0 0 0 0 0 0 0 0 0 0 0 0 0 0 0 0 0 0 0 0 0 0 0 0 0 0 0 0 0 0 0 0 0 0 0 0 0 0 0 0 0 0 0 0 0 0 0 0 0 0 0 0 0 0 0 0 0 0 0 0 0 0 0 0 0 0 0 0 0 0 0 0 0 0 0 0 0 0 0 0 0 0 0 0 0 0 0 0 0 0 0 0 0 0 0 0 0 0 0 0 0 0 0 0 0 0 0 0 0 0 0 0 0 0 0 0 0 0 0 0 0 0 0 0 0 0 0 0 0 0 0 0 0 0 0 0 0 0 0 0 0 0 0 0 0 0 0 0 0 0 0 0 0 0 0 0 0 0 0 0 0 0 0 0 0 0 0 0 0 0 0 0 0 0 0 0 0 0 0 0 0 0 0 0 0 0 0 0 0 0 0 0 0 0 0 0 0 0 0 0 0 0 0 0 0 0 0 0 0 0 0 0 0 0 0 0 0 0 0 0 0 0 0 0 0 0 0 0 0 0 0 0 
0 0 0 0 0 0 0 0 0 0 0 0 0 0 0 0 0 0 0 0 0 0 0 0 0 0 0 0 0 0 0 0 0 0 0 0 0 0 0 0 0 0 0 0 0 0 0 0 0 1.211939e-15 1.534485e-15 1.800578e-15 1.968024e-15 2.019391e-15 1.961699e-15 1.831151e-15 1.674729e-15 1.546459e-15 1.490849e-15 1.544986e-15 1.733545e-15 2.077081e-15 2.591362e-15 3.295843e-15 4.210193e-15 5.361589e-15 6.778945e-15 8.513544e-15 1.065318e-14 1.332491e-14 1.657427e-14 2.043122e-14 2.490493e-14 2.998456e-14 3.561607e-14 4.171239e-14 4.813175e-14 5.469665e-14 6.117964e-14 6.733334e-14 7.288792e-14 7.758739e-14 8.119599e-14 8.352943e-14 8.446311e-14 8.394668e-14 8.200823e-14 7.874649e-14 7.432988e-14 6.896956e-14 6.291698e-14 5.642727e-14 4.976062e-14 4.314630e-14 3.679098e-14 3.085062e-14 2.544566e-14 2.064356e-14 1.647821e-14 1.294192e-14 1.000499e-14 7.613551e-15 5.705656e-15 4.211202e-15 3.062727e-15 2.195093e-15 1.551242e-15 1.081016e-15 0 0 0 0 0 0 0 0 0 0 0 0 0 0 0 0 0 0 0 0 0 0 0 0 0 0 0 0 0 0 0 0 0 0 0 0 0 0 0 0 0 0 0 0 0 0 0 0 0 0 0 0 0 0 0 0 0 0 0 0 0 0 0 0 0 0 0 0 0 0 0 0 0 0 0 0 0 0 0 0 0 0 0 0 0 0 0 0 0 0 0 0 0 0 0 0 0 0 0 0 0 0 0 0 0 0 0 0 0 0 0 0 0 0 0 0 0 0 0 0 0 0 0 0 0 0 0 0 0 0 0 0 0 0 0 0 0 0 0 0 0 0 0 0 0 0 0 0 0 0 0 0 0 0 0 0 0 0 0 0 0 0 0 0 0 0 0 0 0 0 0 0 0 0 0 0 0 0 0 0 0 0 0 0 0 0 0 0 0 0 0 0 0 0 0 0 0 0 0 0 0 0 0 0 0 0 0 0 0 0 0 0 0 0 0 0 0 0 0 0 0 0 0 0 0 0 0 0 0 0 0 0 0 0 0 0 0 0 0 0 0 0 0 0 0 0 0 0 0 0 0 0 0 0 0 0 0 0 0 0 0 0 0 0 0 0 0 0 0 0 0 0 0 0 0 0 
0 0 0 0 0 0 0 0 0 0 0 0 0 0 0 0 0 0 0 0 0 0 0 0 0 0 0 0 0 0 0 0 0 0 0 0 0 0 0 0 0 0 0 0 1.393401e-15 2.753117e-15 4.920466e-15 7.984143e-15 1.184348e-14 1.613002e-14 2.025571e-14 2.357635e-14 2.552106e-14 2.586694e-14 2.467416e-14 2.239571e-14 1.958746e-14 1.689127e-14 1.479334e-14 1.366398e-14 1.369013e-14 1.498249e-14 1.757858e-14 2.154176e-14 2.693677e-14 3.390808e-14 4.265070e-14 5.364450e-14 6.763814e-14 8.515628e-14 1.064736e-13 1.318936e-13 1.615308e-13 1.953992e-13 2.331739e-13 2.743366e-13 3.179271e-13 3.627711e-13 4.072789e-13 4.497611e-13 4.883122e-13 5.211610e-13 5.466329e-13 5.634370e-13 5.706759e-13 5.679727e-13 5.554982e-13 5.338940e-13 5.043140e-13 4.681707e-13 4.272093e-13 3.831533e-13 3.378291e-13 2.927944e-13 2.495164e-13 2.090521e-13 1.722662e-13 1.396021e-13 1.113129e-13 8.732226e-14 6.743508e-14 5.126201e-14 3.838339e-14 2.830707e-14 2.057631e-14 1.474083e-14 1.041596e-14 7.258631e-15 4.992867e-15 3.389489e-15 2.272946e-15 1.505421e-15 0 0 0 0 0 0 0 0 0 0 0 0 0 0 0 0 0 0 0 0 0 0 0 0 0 0 0 0 0 0 0 0 0 0 0 0 0 0 0 0 0 0 0 0 0 0 0 0 0 0 0 0 0 0 0 0 0 0 0 0 0 0 0 0 0 0 0 0 0 0 0 0 0 0 0 0 0 0 0 0 0 0 0 0 0 0 0 0 0 0 0 0 0 0 0 0 0 0 0 0 0 0 0 0 0 0 0 0 0 0 0 0 0 0 0 0 0 0 0 0 0 0 0 0 0 0 0 0 0 0 0 0 0 0 0 0 0 0 0 0 0 0 0 0 0 0 0 0 0 0 0 0 0 0 0 0 0 0 0 0 0 0 0 0 0 0 0 0 0 0 0 0 0 0 0 0 0 0 0 0 0 0 0 0 0 0 0 0 0 0 0 0 0 0 0 0 0 0 0 0 0 0 0 0 0 0 0 0 0 0 0 0 0 0 0 0 0 0 0 0 0 0 0 0 0 0 0 0 0 0 0 0 0 0 0 0 0 0 0 0 0 0 0 0 0 0 0 0 0 0 0 0 0 0 0 0 0 0 0 0 0 0 0 0 0 0 0 0 0 0 0 0 
0 0 0 0 0 0 0 0 0 0 0 0 0 0 0 0 0 0 0 0 0 0 0 0 0 0 0 0 0 0 0 0 0 0 0 0 0 0 0 0 0 1.228649e-15 3.415682e-15 8.328122e-15 1.812261e-14 3.531341e-14 6.235947e-14 1.001213e-13 1.472197e-13 1.989962e-13 2.483048e-13 2.872896e-13 3.090835e-13 3.109159e-13 2.934466e-13 2.619670e-13 2.229844e-13 1.839138e-13 1.502078e-13 1.257213e-13 1.120126e-13 1.094880e-13 1.176748e-13 1.361598e-13 1.646619e-13 2.036420e-13 2.546198e-13 3.215192e-13 4.078486e-13 5.160133e-13 6.483945e-13 8.072869e-13 9.939850e-13 1.208893e-12 1.450445e-12 1.715419e-12 1.997927e-12 2.290207e-12 2.582016e-12 2.862005e-12 3.117658e-12 3.336979e-12 3.508825e-12 3.624364e-12 3.677468e-12 3.665393e-12 3.588973e-12 3.452298e-12 3.262678e-12 3.029483e-12 2.764025e-12 2.477933e-12 2.183151e-12 1.890286e-12 1.608893e-12 1.346178e-12 1.107638e-12 8.962932e-13 7.135713e-13 5.589969e-13 4.310922e-13 3.273227e-13 2.448226e-13 1.804077e-13 1.310471e-13 9.384857e-14 6.629948e-14 4.620973e-14 3.179546e-14 2.160048e-14 1.449801e-14 9.615213e-15 6.305321e-15 4.088965e-15 2.624113e-15 1.666776e-15 1.048613e-15 0 0 0 0 0 0 0 0 0 0 0 0 0 0 0 0 0 0 0 0 0 0 0 0 0 0 0 0 0 0 0 0 0 0 0 0 0 0 0 0 0 0 0 0 0 0 0 0 0 0 0 0 0 0 0 0 0 0 0 0 0 0 0 0 0 0 0 0 0 0 0 0 0 0 0 0 0 0 0 0 0 0 0 0 0 0 0 0 0 0 0 0 0 0 0 0 0 0 0 0 0 0 0 0 0 0 0 0 0 0 0 0 0 0 0 0 0 0 0 0 0 0 0 0 0 0 0 0 0 0 0 0 0 0 0 0 0 0 0 0 0 0 0 0 0 0 0 0 0 0 0 0 0 0 0 0 0 0 0 0 0 0 0 0 0 0 0 0 0 0 0 0 0 0 0 0 0 0 0 0 0 0 0 0 0 0 0 0 0 0 0 0 0 0 0 0 0 0 0 0 0 0 0 0 0 0 0 0 0 0 0 0 0 0 0 0 0 0 0 0 0 0 0 0 0 0 0 0 0 0 0 0 0 0 0 0 0 0 0 0 0 0 0 0 0 0 0 0 0 0 0 0 0 0 0 0 0 0 0 0 0 0 0 0 0 0 0 
0 0 0 0 0 0 0 0 0 0 0 0 0 0 0 0 0 0 0 0 0 0 0 0 0 0 0 0 0 0 0 0 0 0 0 0 0 0 0 1.349106e-15 4.949775e-15 1.551123e-14 4.242284e-14 1.017446e-13 2.179486e-13 4.186687e-13 7.300224e-13 1.159875e-12 1.690582e-12 2.269978e-12 2.816872e-12 3.245810e-12 3.478140e-12 3.484780e-12 3.269833e-12 2.893035e-12 2.424549e-12 1.947091e-12 1.519623e-12 1.183121e-12 9.515740e-13 8.248334e-13 7.923360e-13 8.430235e-13 9.674713e-13 1.164583e-12 1.444968e-12 1.828260e-12 2.326050e-12 2.955083e-12 3.731416e-12 4.671941e-12 5.786660e-12 7.081435e-12 8.548199e-12 1.016992e-11 1.191050e-11 1.372356e-11 1.554438e-11 1.730277e-11 1.891846e-11 2.031579e-11 2.142232e-11 2.218109e-11 2.255102e-11 2.251266e-11 2.206942e-11 2.124502e-11 2.008536e-11 1.864846e-11 1.700724e-11 1.523472e-11 1.340839e-11 1.159444e-11 9.854502e-12 8.232460e-12 6.763316e-12 5.464208e-12 4.344037e-12 3.398275e-12 2.617657e-12 1.985405e-12 1.483825e-12 1.092691e-12 7.934672e-13 5.681372e-13 4.014443e-13 2.799059e-13 1.927469e-13 1.310724e-13 8.809980e-14 5.852380e-14 3.845859e-14 2.499808e-14 1.608789e-14 1.024984e-14 6.471494e-15 4.048617e-15 2.512374e-15 1.546266e-15 0 0 0 0 0 0 0 0 0 0 0 0 0 0 0 0 0 0 0 0 0 0 0 0 0 0 0 0 0 0 0 0 0 0 0 0 0 0 0 0 0 0 0 0 0 0 0 0 0 0 0 0 0 0 0 0 0 0 0 0 0 0 0 0 0 0 0 0 0 0 0 0 0 0 0 0 0 0 0 0 0 0 0 0 0 0 0 0 0 0 0 0 0 0 0 0 0 0 0 0 0 0 0 0 0 0 0 0 0 0 0 0 0 0 0 0 0 0 0 0 0 0 0 0 0 0 0 0 0 0 0 0 0 0 0 0 0 0 0 0 0 0 0 0 0 0 0 0 0 0 0 0 0 0 0 0 0 0 0 0 0 0 0 0 0 0 0 0 0 0 0 0 0 0 0 0 0 0 0 0 0 0 0 0 0 0 0 0 0 0 0 0 0 0 0 0 0 0 0 0 0 0 0 0 0 0 0 0 0 0 0 0 0 0 0 0 0 0 0 0 0 0 0 0 0 0 0 0 0 0 0 0 0 0 0 0 0 0 0 0 0 0 0 0 0 0 0 0 0 0 0 0 0 0 0 0 0 0 0 0 0 0 0 0 
0 0 0 0 0 0 0 0 0 0 0 0 0 0 0 0 0 0 0 0 0 0 0 0 0 0 0 0 0 0 0 0 0 0 0 0 0 0 3.796606e-15 1.621848e-14 5.869546e-14 1.809385e-13 4.864936e-13 1.146270e-12 2.414944e-12 4.567522e-12 7.859369e-12 1.234750e-11 1.784149e-11 2.379747e-11 2.939726e-11 3.376854e-11 3.611408e-11 3.612107e-11 3.381916e-11 2.980163e-11 2.478317e-11 1.961264e-11 1.490142e-11 1.107035e-11 8.255467e-12 6.434716e-12 5.473237e-12 5.221518e-12 5.551220e-12 6.414871e-12 7.848506e-12 9.883475e-12 1.258098e-11 1.603664e-11 2.035268e-11 2.563488e-11 3.195855e-11 3.936733e-11 4.783216e-11 5.725860e-11 6.744902e-11 7.812854e-11 8.892264e-11 9.940606e-11 1.091018e-10 1.175438e-10 1.242916e-10 1.289867e-10 1.313697e-10 1.313104e-10 1.288180e-10 1.240338e-10 1.172303e-10 1.087675e-10 9.908481e-11 8.863505e-11 7.787979e-11 6.722437e-11 5.702673e-11 4.755053e-11 3.898997e-11 3.144505e-11 2.495572e-11 1.949341e-11 1.499469e-11 1.136053e-11 8.482353e-12 6.242615e-12 4.531122e-12 3.244197e-12 2.292652e-12 1.599446e-12 1.102249e-12 7.504776e-13 5.051645e-13 3.362281e-13 2.214325e-13 1.443193e-13 9.315254e-14 5.955574e-14 3.774278e-14 2.371376e-14 1.478285e-14 9.145068e-15 5.618694e-15 3.429193e-15 2.080759e-15 1.255531e-15 0 0 0 0 0 0 0 0 0 0 0 0 0 0 0 0 0 0 0 0 0 0 0 0 0 0 0 0 0 0 0 0 0 0 0 0 0 0 0 0 0 0 0 0 0 0 0 0 0 0 0 0 0 0 0 0 0 0 0 0 0 0 0 0 0 0 0 0 0 0 0 0 0 0 0 0 0 0 0 0 0 0 0 0 0 0 0 0 0 0 0 0 0 0 0 0 0 0 0 0 0 0 0 0 0 0 0 0 0 0 0 0 0 0 0 0 0 0 0 0 0 0 0 0 0 0 0 0 0 0 0 0 0 0 0 0 0 0 0 0 0 0 0 0 0 0 0 0 0 0 0 0 0 0 0 0 0 0 0 0 0 0 0 0 0 0 0 0 0 0 0 0 0 0 0 0 0 0 0 0 0 0 0 0 0 0 0 0 0 0 0 0 0 0 0 0 0 0 0 0 0 0 0 0 0 0 0 0 0 0 0 0 0 0 0 0 0 0 0 0 0 0 0 0 0 0 0 0 0 0 0 0 0 0 0 0 0 0 0 0 0 0 0 0 0 0 0 0 0 0 0 0 0 0 0 0 0 0 0 0 
0 0 0 0 0 0 0 0 0 0 0 0 0 0 0 0 0 0 0 0 0 0 0 0 0 0 0 0 0 0 0 0 0 0 0 0 1.366905e-15 8.407649e-15 4.273931e-14 1.805094e-13 6.440214e-13 1.952055e-12 5.154248e-12 1.191923e-11 2.465990e-11 4.586987e-11 7.777478e-11 1.207336e-10 1.727896e-10 2.289637e-10 2.815572e-10 3.227532e-10 3.448394e-10 3.450294e-10 3.230968e-10 2.846183e-10 2.360478e-10 1.855401e-10 1.389415e-10 1.003934e-10 7.124414e-11 5.124178e-11 3.899837e-11 3.291356e-11 3.161983e-11 3.441552e-11 4.083315e-11 5.074741e-11 6.438125e-11 8.222932e-11 1.048522e-10 1.328879e-10 1.667958e-10 2.069109e-10 2.531224e-10 3.050052e-10 3.614838e-10 4.210943e-10 4.817137e-10 5.409712e-10 5.960972e-10 6.444173e-10 6.833190e-10 7.106883e-10 7.249516e-10 7.253088e-10 7.117954e-10 6.852155e-10 6.471905e-10 5.997989e-10 5.456311e-10 4.872594e-10 4.273573e-10 3.681663e-10 3.117175e-10 2.594125e-10 2.123273e-10 1.709403e-10 1.354576e-10 1.056595e-10 8.118518e-11 6.144975e-11 4.585363e-11 3.373162e-11 2.448288e-11 1.753226e-11 1.239744e-11 8.656118e-12 5.973046e-12 4.073052e-12 2.747237e-12 1.832683e-12 1.210346e-12 7.912631e-13 5.125694e-13 3.289723e-13 2.094054e-13 1.321878e-13 8.283859e-14 5.153084e-14 3.185484e-14 1.956681e-14 1.195650e-14 7.267859e-15 4.400098e-15 2.653265e-15 1.595671e-15 0 0 0 0 0 0 0 0 0 0 0 0 0 0 0 0 0 0 0 0 0 0 0 0 0 0 0 0 0 0 0 0 0 0 0 0 0 0 0 0 0 0 0 0 0 0 0 0 0 0 0 0 0 0 0 0 0 0 0 0 0 0 0 0 0 0 0 0 0 0 0 0 0 0 0 0 0 0 0 0 0 0 0 0 0 0 0 0 0 0 0 0 0 0 0 0 0 0 0 0 0 0 0 0 0 0 0 0 0 0 0 0 0 0 0 0 0 0 0 0 0 0 0 0 0 0 0 0 0 0 0 0 0 0 0 0 0 0 0 0 0 0 0 0 0 0 0 0 0 0 0 0 0 0 0 0 0 0 0 0 0 0 0 0 0 0 0 0 0 0 0 0 0 0 0 0 0 0 0 0 0 0 0 0 0 0 0 0 0 0 0 0 0 0 0 0 0 0 0 0 0 0 0 0 0 0 0 0 0 0 0 0 0 0 0 0 0 0 0 0 0 0 0 0 0 0 0 0 0 0 0 0 0 0 0 0 0 0 0 0 0 0 0 0 0 0 0 0 0 0 0 0 0 0 0 0 0 
0 0 0 0 0 0 0 0 0 0 0 0 0 0 0 0 0 0 0 0 0 0 0 0 0 0 0 0 0 0 0 0 0 0 0 1.926294e-15 1.438883e-14 8.807198e-14 4.439810e-13 1.852447e-12 6.512150e-12 1.938883e-11 5.022902e-11 1.138342e-10 2.309718e-10 4.217743e-10 7.037802e-10 1.077853e-09 1.526919e-09 2.008615e-09 2.459713e-09 2.814634e-09 3.008541e-09 3.015475e-09 2.831054e-09 2.499765e-09 2.075714e-09 1.629207e-09 1.212436e-09 8.632490e-10 5.948645e-10 4.056990e-10 2.834213e-10 2.133815e-10 1.829148e-10 1.827006e-10 2.056810e-10 2.492014e-10 3.133329e-10 4.000351e-10 5.121143e-10 6.528795e-10 8.250674e-10 1.030650e-09 1.269584e-09 1.539855e-09 1.836282e-09 2.151111e-09 2.473284e-09 2.789794e-09 3.085677e-09 3.345941e-09 3.556165e-09 3.704406e-09 3.781961e-09 3.784451e-09 3.712225e-09 3.570073e-09 3.367054e-09 3.114942e-09 2.827766e-09 2.519684e-09 2.204741e-09 1.894962e-09 1.600651e-09 1.329127e-09 1.085542e-09 8.722714e-10 6.899665e-10 5.373814e-10 4.123545e-10 3.118111e-10 2.324921e-10 1.709674e-10 1.240730e-10 8.887667e-11 6.288158e-11 4.395082e-11 3.036727e-11 2.074529e-11 1.402181e-11 9.378589e-12 6.211899e-12 4.075136e-12 2.649751e-12 1.708015e-12 1.092261e-12 6.930932e-13 4.367411e-13 2.733463e-13 1.700643e-13 1.052028e-13 6.476411e-14 3.968849e-14 2.423456e-14 1.475095e-14 8.959698e-15 5.433670e-15 3.294335e-15 1.998157e-15 1.214217e-15 0 0 0 0 0 0 0 0 0 0 0 0 0 0 0 0 0 0 0 0 0 0 0 0 0 0 0 0 0 0 0 0 0 0 0 0 0 0 0 0 0 0 0 0 0 0 0 0 0 0 0 0 0 0 0 0 0 0 0 0 0 0 0 0 0 0 0 0 0 0 0 0 0 0 0 0 0 0 0 0 0 0 0 0 0 0 0 0 0 0 0 0 0 0 0 0 0 0 0 0 0 0 0 0 0 0 0 0 0 0 0 0 0 0 0 0 0 0 0 0 0 0 0 0 0 0 0 0 0 0 0 0 0 0 0 0 0 0 0 0 0 0 0 0 0 0 0 0 0 0 0 0 0 0 0 0 0 0 0 0 0 0 0 0 0 0 0 0 0 0 0 0 0 0 0 0 0 0 0 0 0 0 0 0 0 0 0 0 0 0 0 0 0 0 0 0 0 0 0 0 0 0 0 0 0 0 0 0 0 0 0 0 0 0 0 0 0 0 0 0 0 0 0 0 0 0 0 0 0 0 0 0 0 0 0 0 0 0 0 0 0 0 0 0 0 0 0 0 0 0 0 0 0 
0 0 0 0 0 0 0 0 0 0 0 0 0 0 0 0 0 0 0 0 0 0 0 0 0 0 0 0 0 0 0 0 0 0 2.061182e-15 1.874663e-14 1.401178e-13 8.530525e-13 4.260566e-12 1.755286e-11 6.075646e-11 1.775782e-10 4.508846e-10 1.000268e-09 1.986914e-09 3.555983e-09 5.826731e-09 8.790426e-09 1.230414e-08 1.605651e-08 1.956391e-08 2.235629e-08 2.391418e-08 2.404621e-08 2.266692e-08 2.011034e-08 1.676573e-08 1.319186e-08 9.809437e-09 6.940445e-09 4.707961e-09 3.109296e-09 2.049789e-09 1.410459e-09 1.084135e-09 9.715434e-10 1.010938e-09 1.172795e-09 1.447605e-09 1.839744e-09 2.360284e-09 3.025277e-09 3.848568e-09 4.842009e-09 6.006769e-09 7.335551e-09 8.803265e-09 1.037277e-08 1.198730e-08 1.358089e-08 1.507472e-08 1.639102e-08 1.745350e-08 1.820043e-08 1.858699e-08 1.859207e-08 1.821974e-08 1.749659e-08 1.647182e-08 1.520632e-08 1.377318e-08 1.224303e-08 1.068703e-08 9.163111e-09 7.722194e-09 6.397897e-09 5.214882e-09 4.182441e-09 3.303092e-09 2.569006e-09 1.969265e-09 1.487880e-09 1.108947e-09 8.153558e-10 5.918946e-10 4.242312e-10 3.004709e-10 2.102965e-10 1.455744e-10 9.966422e-11 6.754628e-11 4.531494e-11 3.012165e-11 1.983707e-11 1.295599e-11 8.391106e-12 5.394745e-12 3.442610e-12 2.182909e-12 1.375257e-12 8.618328e-13 5.372058e-13 3.334747e-13 2.061639e-13 1.271067e-13 7.816467e-14 4.801638e-14 2.947546e-14 1.811151e-14 1.114549e-14 6.881367e-15 4.265068e-15 2.658213e-15 1.666497e-15 1.052237e-15 0 0 0 0 0 0 0 0 0 0 0 0 0 0 0 0 0 0 0 0 0 0 0 0 0 0 0 0 0 0 0 0 0 0 0 0 0 0 0 0 0 0 0 0 0 0 0 0 0 0 0 0 0 0 0 0 0 0 0 0 0 0 0 0 0 0 0 0 0 0 0 0 0 0 0 0 0 0 0 0 0 0 0 0 0 0 0 0 0 0 0 0 0 0 0 0 0 0 0 0 0 0 0 0 0 0 0 0 0 0 0 0 0 0 0 0 0 0 0 0 0 0 0 0 0 0 0 0 0 0 0 0 0 0 0 0 0 0 0 0 0 0 0 0 0 0 0 0 0 0 0 0 0 0 0 0 0 0 0 0 0 0 0 0 0 0 0 0 0 0 0 0 0 0 0 0 0 0 0 0 0 0 0 0 0 0 0 0 0 0 0 0 0 0 0 0 0 0 0 0 0 0 0 0 0 0 0 0 0 0 0 0 0 0 0 0 0 0 0 0 0 0 0 0 0 0 0 0 0 0 0 0 0 0 0 0 0 0 0 0 0 0 0 0 0 0 0 0 0 
0 0 0 0 0 0 0 0 0 0 0 0 0 0 0 0 0 0 0 0 0 0 0 0 0 0 0 0 0 0 0 0 0 1.683211e-15 1.840773e-14 1.684866e-13 1.259506e-12 7.612378e-12 3.760768e-11 1.527496e-10 5.200344e-10 1.490520e-09 3.705682e-09 8.036417e-09 1.560520e-08 2.731673e-08 4.387582e-08 6.506013e-08 8.985956e-08 1.161505e-07 1.407825e-07 1.606071e-07 1.721001e-07 1.737709e-07 1.648005e-07 1.472146e-07 1.235722e-07 9.777841e-08 7.295059e-08 5.158604e-08 3.475293e-08 2.255456e-08 1.435741e-08 9.324836e-09 6.553490e-09 5.247547e-09 4.935664e-09 5.360383e-09 6.404536e-09 8.044519e-09 1.031092e-08 1.326807e-08 1.698310e-08 2.151445e-08 2.687891e-08 3.304616e-08 3.990677e-08 4.728044e-08 5.489712e-08 6.242805e-08 6.948977e-08 7.569531e-08 8.067656e-08 8.413514e-08 8.586504e-08 8.577721e-08 8.390644e-08 8.039777e-08 7.549675e-08 6.950665e-08 6.277424e-08 5.563832e-08 4.842438e-08 4.140220e-08 3.479530e-08 2.875505e-08 2.338174e-08 1.871341e-08 1.475087e-08 1.145519e-08 8.769680e-09 6.620352e-09 4.931453e-09 3.625543e-09 2.632450e-09 1.888143e-09 1.338709e-09 9.384396e-10 6.508620e-10 4.467049e-10 3.035998e-10 2.043688e-10 1.363537e-10 9.018625e-11 5.917674e-11 3.852864e-11 2.490959e-11 1.599529e-11 1.020957e-11 6.479213e-12 4.091782e-12 2.572291e-12 1.611264e-12 1.006112e-12 6.269715e-13 3.901574e-13 2.427695e-13 1.511688e-13 9.433828e-14 5.905703e-14 3.714168e-14 2.348569e-14 1.494897e-14 9.581185e-15 6.186588e-15 4.022569e-15 2.632928e-15 1.732687e-15 1.145320e-15 0 0 0 0 0 0 0 0 0 0 0 0 0 0 0 0 0 0 0 0 0 0 0 0 0 0 0 0 0 0 0 0 0 0 0 0 0 0 0 0 0 0 0 0 0 0 0 0 0 0 0 0 0 0 0 0 0 0 0 0 0 0 0 0 0 0 0 0 0 0 0 0 0 0 0 0 0 0 0 0 0 0 0 0 0 0 0 0 0 0 0 0 0 0 0 0 0 0 0 0 0 0 0 0 0 0 0 0 0 0 0 0 0 0 0 0 0 0 0 0 0 0 0 0 0 0 0 0 0 0 0 0 0 0 0 0 0 0 0 0 0 0 0 0 0 0 0 0 0 0 0 0 0 0 0 0 0 0 0 0 0 0 0 0 0 0 0 0 0 0 0 0 0 0 0 0 0 0 0 0 0 0 0 0 0 0 0 0 0 0 0 0 0 0 0 0 0 0 0 0 0 0 0 0 0 0 0 0 0 0 0 0 0 0 0 0 0 0 0 0 0 0 0 0 0 0 0 0 0 0 0 0 0 0 0 0 0 0 0 0 0 0 0 0 0 
0 0 0 0 0 0 0 0 0 0 0 0 0 0 0 0 0 0 0 0 0 0 0 0 0 0 0 0 0 0 0 0 1.053560e-15 1.374436e-14 1.521603e-13 1.403567e-12 1.048551e-11 6.278648e-11 3.060617e-10 1.223309e-09 4.090927e-09 1.148752e-08 2.793955e-08 5.916816e-08 1.121328e-07 1.916290e-07 3.009360e-07 4.376275e-07 5.948320e-07 7.603798e-07 9.151764e-07 1.042039e-06 1.118153e-06 1.134910e-06 1.084025e-06 9.770147e-07 8.275206e-07 6.602898e-07 4.958295e-07 3.518297e-07 2.367975e-07 1.524458e-07 9.529704e-08 5.999420e-08 3.955918e-08 2.868788e-08 2.412707e-08 2.395714e-08 2.716817e-08 3.335882e-08 4.249512e-08 5.478812e-08 7.050533e-08 8.992581e-08 1.131370e-07 1.400415e-07 1.701439e-07 2.026458e-07 2.362870e-07 2.695694e-07 3.007086e-07 3.279536e-07 3.496307e-07 3.644333e-07 3.714821e-07 3.704482e-07 3.615703e-07 3.455607e-07 3.235884e-07 2.970232e-07 2.674390e-07 2.363039e-07 2.050492e-07 1.747980e-07 1.465034e-07 1.207576e-07 9.796877e-08 7.824606e-08 6.157399e-08 4.774878e-08 3.651934e-08 2.755032e-08 2.051853e-08 1.508722e-08 1.096216e-08 7.870762e-09 5.589341e-09 3.925750e-09 2.729614e-09 1.878796e-09 1.281345e-09 8.658349e-10 5.802392e-10 3.856132e-10 2.543924e-10 1.665849e-10 1.083929e-10 7.007797e-11 4.506731e-11 2.883020e-11 1.836822e-11 1.165660e-11 7.378253e-12 4.659438e-12 2.940278e-12 1.854925e-12 1.171952e-12 7.420270e-13 4.716903e-13 3.012278e-13 1.935758e-13 1.252108e-13 8.160755e-14 5.356989e-14 3.542472e-14 2.356834e-14 1.576680e-14 1.058603e-14 7.126462e-15 4.800312e-15 3.232173e-15 2.171282e-15 1.454180e-15 0 0 0 0 0 0 0 0 0 0 0 0 0 0 0 0 0 0 0 0 0 0 0 0 0 0 0 0 0 0 0 0 0 0 0 0 0 0 0 0 0 0 0 0 0 0 0 0 0 0 0 0 0 0 0 0 0 0 0 0 0 0 0 0 0 0 0 0 0 0 0 0 0 0 0 0 0 0 0 0 0 0 0 0 0 0 0 0 0 0 0 0 0 0 0 0 0 0 0 0 0 0 0 0 0 0 0 0 0 0 0 0 0 0 0 0 0 0 0 0 0 0 0 0 0 0 0 0 0 0 0 0 0 0 0 0 0 0 0 0 0 0 0 0 0 0 0 0 0 0 0 0 0 0 0 0 0 0 0 0 0 0 0 0 0 0 0 0 0 0 0 0 0 0 0 0 0 0 0 0 0 0 0 0 0 0 0 0 0 0 0 0 0 0 0 0 0 0 0 0 0 0 0 0 0 0 0 0 0 0 0 0 0 0 0 0 0 0 0 0 0 0 0 0 0 0 0 0 0 0 0 0 0 0 0 0 0 0 0 0 0 
0 0 0 0 0 0 0 0 0 0 0 0 0 0 0 0 0 0 0 0 0 0 0 0 0 0 0 0 0 0 0 0 7.818995e-15 1.038015e-13 1.166047e-12 1.084925e-11 8.087745e-11 4.776201e-10 2.286766e-09 8.960998e-09 2.936270e-08 8.065818e-08 1.917030e-07 3.960373e-07 7.316072e-07 1.218396e-06 1.867164e-06 2.656000e-06 3.546070e-06 4.472713e-06 5.341455e-06 6.064470e-06 6.521017e-06 6.657675e-06 6.417461e-06 5.847478e-06 5.011261e-06 4.042982e-06 3.064564e-06 2.188988e-06 1.477615e-06 9.495124e-07 5.900168e-07 3.660474e-07 2.319076e-07 1.561315e-07 1.183611e-07 1.059701e-07 1.117748e-07 1.322532e-07 1.662313e-07 2.140109e-07 2.765110e-07 3.547884e-07 4.492764e-07 5.595057e-07 6.834342e-07 8.175153e-07 9.563804e-07 1.093458e-06 1.221184e-06 1.332048e-06 1.419131e-06 1.477077e-06 1.502517e-06 1.494435e-06 1.454205e-06 1.385194e-06 1.292495e-06 1.182041e-06 1.060320e-06 9.334320e-07 8.070278e-07 6.856064e-07 5.727398e-07 4.706886e-07 3.808149e-07 3.034405e-07 2.382963e-07 1.845014e-07 1.409357e-07 1.062472e-07 7.910178e-08 5.817646e-08 4.229565e-08 3.040458e-08 2.162577e-08 1.522267e-08 1.061190e-08 7.327720e-09 5.015551e-09 3.403534e-09 2.291458e-09 1.530928e-09 1.015737e-09 6.694110e-10 4.385670e-10 2.857171e-10 1.852583e-10 1.195995e-10 7.695461e-11 4.937758e-11 3.163304e-11 2.024856e-11 1.296910e-11 8.319575e-12 5.353696e-12 3.459444e-12 2.248051e-12 1.470205e-12 9.686328e-13 6.429620e-13 4.300650e-13 2.896392e-13 1.962719e-13 1.336208e-13 9.127960e-14 6.245410e-14 4.274271e-14 2.920894e-14 1.990863e-14 1.351460e-14 9.129871e-15 6.131010e-15 4.090808e-15 2.709713e-15 1.781520e-15 1.161794e-15 0 0 0 0 0 0 0 0 0 0 0 0 0 0 0 0 0 0 0 0 0 0 0 0 0 0 0 0 0 0 0 0 0 0 0 0 0 0 0 0 0 0 0 0 0 0 0 0 0 0 0 0 0 0 0 0 0 0 0 0 0 0 0 0 0 0 0 0 0 0 0 0 0 0 0 0 0 0 0 0 0 0 0 0 0 0 0 0 0 0 0 0 0 0 0 0 0 0 0 0 0 0 0 0 0 0 0 0 0 0 0 0 0 0 0 0 0 0 0 0 0 0 0 0 0 0 0 0 0 0 0 0 0 0 0 0 0 0 0 0 0 0 0 0 0 0 0 0 0 0 0 0 0 0 0 0 0 0 0 0 0 0 0 0 0 0 0 0 0 0 0 0 0 0 0 0 0 0 0 0 0 0 0 0 0 0 0 0 0 0 0 0 0 0 0 0 0 0 0 0 0 0 0 0 0 0 0 0 0 0 0 0 0 0 0 0 0 0 0 0 0 0 0 0 0 0 0 0 0 0 0 0 0 0 0 0 
0 0 0 0 0 0 0 0 0 0 0 0 0 0 0 0 0 0 0 0 0 0 0 0 0 0 0 0 0 0 0 3.462404e-15 5.368489e-14 7.286352e-13 8.340459e-12 7.854614e-11 5.829824e-10 3.374339e-09 1.576210e-08 6.023429e-08 1.927851e-07 5.170563e-07 1.199802e-06 2.415724e-06 4.344965e-06 7.039725e-06 1.050130e-05 1.457490e-05 1.905061e-05 2.365618e-05 2.795581e-05 3.162248e-05 3.403874e-05 3.498403e-05 3.406231e-05 3.144737e-05 2.733240e-05 2.235615e-05 1.714983e-05 1.236202e-05 8.394331e-06 5.407002e-06 3.372038e-06 2.080750e-06 1.289565e-06 8.260506e-07 5.756225e-07 4.640964e-07 4.472449e-07 5.010382e-07 6.148044e-07 7.864157e-07 1.017673e-06 1.312102e-06 1.670920e-06 2.092336e-06 2.567816e-06 3.083307e-06 3.616836e-06 4.142305e-06 4.629226e-06 5.048239e-06 5.372299e-06 5.581380e-06 5.663498e-06 5.616206e-06 5.446567e-06 5.168946e-06 4.804431e-06 4.376319e-06 3.910108e-06 3.428603e-06 2.953167e-06 2.499768e-06 2.081358e-06 1.705255e-06 1.376006e-06 1.093865e-06 8.574533e-07 6.629056e-07 5.059136e-07 3.811944e-07 2.838250e-07 2.088456e-07 1.520059e-07 1.094387e-07 7.800994e-08 5.505488e-08 3.850418e-08 2.668535e-08 1.834427e-08 1.250755e-08 8.466692e-09 5.689988e-09 3.800277e-09 2.522490e-09 1.665877e-09 1.094704e-09 7.167016e-10 4.675973e-10 3.044586e-10 1.979248e-10 1.286824e-10 8.372890e-11 5.462406e-11 3.575937e-11 2.353438e-11 1.558104e-11 1.039219e-11 6.983165e-12 4.730620e-12 3.228009e-12 2.218092e-12 1.532245e-12 1.063083e-12 7.392474e-13 5.146311e-13 3.579197e-13 2.484466e-13 1.718131e-13 1.182979e-13 8.097669e-14 5.509075e-14 3.720713e-14 2.494608e-14 1.658807e-14 1.094212e-14 7.154399e-15 4.638449e-15 2.979858e-15 1.897805e-15 1.197457e-15 0 0 0 0 0 0 0 0 0 0 0 0 0 0 0 0 0 0 0 0 0 0 0 0 0 0 0 0 0 0 0 0 0 0 0 0 0 0 0 0 0 0 0 0 0 0 0 0 0 0 0 0 0 0 0 0 0 0 0 0 0 0 0 0 0 0 0 0 0 0 0 0 0 0 0 0 0 0 0 0 0 0 0 0 0 0 0 0 0 0 0 0 0 0 0 0 0 0 0 0 0 0 0 0 0 0 0 0 0 0 0 0 0 0 0 0 0 0 0 0 0 0 0 0 0 0 0 0 0 0 0 0 0 0 0 0 0 0 0 0 0 0 0 0 0 0 0 0 0 0 0 0 0 0 0 0 0 0 0 0 0 0 0 0 0 0 0 0 0 0 0 0 0 0 0 0 0 0 0 0 0 0 0 0 0 0 0 0 0 0 0 0 0 0 0 0 0 0 0 0 0 0 0 0 0 0 0 0 0 0 0 0 0 0 0 0 0 0 0 0 0 0 0 0 0 0 0 0 0 0 0 0 
0 0 0 0 0 0 0 0 0 0 0 0 0 0 0 0 0 0 0 0 0 0 0 0 0 0 0 0 0 0 1.204932e-15 2.153938e-14 3.429786e-13 4.787011e-12 5.623594e-11 5.379518e-10 3.956097e-09 2.219460e-08 9.998872e-08 3.693139e-07 1.147887e-06 2.997397e-06 6.779438e-06 1.329481e-05 2.326182e-05 3.662481e-05 5.309760e-05 7.173108e-05 9.161639e-05 1.117004e-04 1.305030e-04 1.468778e-04 1.583666e-04 1.639466e-04 1.616124e-04 1.515635e-04 1.340488e-04 1.115042e-04 8.679968e-05 6.327879e-05 4.329979e-05 2.803139e-05 1.758968e-05 1.085146e-05 6.648863e-06 4.130811e-06 2.710366e-06 1.997097e-06 1.749368e-06 1.828382e-06 2.164678e-06 2.732566e-06 3.529705e-06 4.563669e-06 5.837406e-06 7.342002e-06 9.045734e-06 1.089379e-05 1.280421e-05 1.467732e-05 1.640061e-05 1.786497e-05 1.897402e-05 1.965786e-05 1.987898e-05 1.963538e-05 1.895950e-05 1.791013e-05 1.656713e-05 1.501787e-05 1.335301e-05 1.165383e-05 9.992226e-06 8.422382e-06 6.984820e-06 5.702466e-06 4.586785e-06 3.636626e-06 2.844253e-06 2.195298e-06 1.673380e-06 1.260149e-06 9.381746e-07 6.907304e-07 5.032648e-07 3.629601e-07 2.592937e-07 1.835251e-07 1.287856e-07 8.961962e-08 6.188842e-08 4.242165e-08 2.888435e-08 1.954135e-08 1.314688e-08 8.798814e-09 5.863716e-09 3.893050e-09 2.577924e-09 1.703828e-09 1.125526e-09 7.438374e-10 4.925944e-10 3.272514e-10 2.184612e-10 1.466949e-10 9.921666e-11 6.762309e-11 4.647202e-11 3.218774e-11 2.246001e-11 1.576781e-11 1.112403e-11 7.871844e-12 5.579304e-12 3.953188e-12 2.796432e-12 1.971690e-12 1.384278e-12 9.665002e-13 6.706637e-13 4.620789e-13 3.160083e-13 2.143600e-13 1.442157e-13 9.617701e-14 6.358431e-14 4.165471e-14 2.704523e-14 1.739707e-14 1.108995e-14 7.003510e-15 4.382945e-15 2.717412e-15 1.669670e-15 1.016418e-15 0 0 0 0 0 0 0 0 0 0 0 0 0 0 0 0 0 0 0 0 0 0 0 0 0 0 0 0 0 0 0 0 0 0 0 0 0 0 0 0 0 0 0 0 0 0 0 0 0 0 0 0 0 0 0 0 0 0 0 0 0 0 0 0 0 0 0 0 0 0 0 0 0 0 0 0 0 0 0 0 0 0 0 0 0 0 0 0 0 0 0 0 0 0 0 0 0 0 0 0 0 0 0 0 0 0 0 0 0 0 0 0 0 0 0 0 0 0 0 0 0 0 0 0 0 0 0 0 0 0 0 0 0 0 0 0 0 0 0 0 0 0 0 0 0 0 0 0 0 0 0 0 0 0 0 0 0 0 0 0 0 0 0 0 0 0 0 0 0 0 0 0 0 0 0 0 0 0 0 0 0 0 0 0 0 0 0 0 0 0 0 0 0 0 0 0 0 0 0 0 0 0 0 0 0 0 0 0 0 0 0 0 0 0 0 0 0 0 0 0 0 0 0 0 0 0 0 0 
0 0 0 0 0 0 0 0 0 0 0 0 0 0 0 0 0 0 0 0 0 0 0 0 0 0 0 0 0 0 6.750551e-15 1.244561e-13 2.052030e-12 2.980960e-11 3.635001e-10 3.555601e-09 2.572171e-08 1.378002e-07 5.894245e-07 2.077360e-06 6.224173e-06 1.575770e-05 3.468982e-05 6.619173e-05 1.126006e-04 1.720644e-04 2.419707e-04 3.174472e-04 3.948522e-04 4.715721e-04 5.429501e-04 6.074519e-04 6.551424e-04 6.837488e-04 6.833020e-04 6.529942e-04 5.897992e-04 5.007440e-04 3.967255e-04 2.930468e-04 2.023648e-04 1.318961e-04 8.341174e-05 5.159523e-05 3.146480e-05 1.920154e-05 1.210158e-05 8.306966e-06 6.643077e-06 6.406824e-06 7.222528e-06 8.921924e-06 1.145190e-05 1.481734e-05 1.901526e-05 2.401163e-05 2.968879e-05 3.585498e-05 4.221607e-05 4.842500e-05 5.408632e-05 5.882952e-05 6.233049e-05 6.436839e-05 6.483775e-05 6.375736e-05 6.126426e-05 5.757591e-05 5.297895e-05 4.776944e-05 4.225330e-05 3.668950e-05 3.130856e-05 2.627104e-05 2.169891e-05 1.765002e-05 1.415260e-05 1.119084e-05 8.734669e-06 6.731254e-06 5.126490e-06 3.859136e-06 2.874121e-06 2.117899e-06 1.545557e-06 1.117021e-06 8.002569e-07 5.683190e-07 4.004554e-07 2.799725e-07 1.944018e-07 1.340668e-07 9.192594e-08 6.267519e-08 4.254131e-08 2.875335e-08 1.937890e-08 1.302953e-08 8.753818e-09 5.880893e-09 3.958081e-09 2.671282e-09 1.811380e-09 1.235192e-09 8.484697e-10 5.873306e-10 4.100956e-10 2.886791e-10 2.048492e-10 1.463162e-10 1.050941e-10 7.575008e-11 5.471932e-11 3.952777e-11 2.851999e-11 2.051363e-11 1.469650e-11 1.047090e-11 7.415711e-12 5.214195e-12 3.639409e-12 2.519195e-12 1.729545e-12 1.176780e-12 7.937456e-13 5.303863e-13 3.512469e-13 2.303945e-13 1.497594e-13 9.641043e-14 6.150531e-14 3.886082e-14 2.433288e-14 1.509074e-14 9.275777e-15 5.647599e-15 3.408403e-15 2.037786e-15 1.207805e-15 0 0 0 0 0 0 0 0 0 0 0 0 0 0 0 0 0 0 0 0 0 0 0 0 0 0 0 0 0 0 0 0 0 0 0 0 0 0 0 0 0 0 0 0 0 0 0 0 0 0 0 0 0 0 0 0 0 0 0 0 0 0 0 0 0 0 0 0 0 0 0 0 0 0 0 0 0 0 0 0 0 0 0 0 0 0 0 0 0 0 0 0 0 0 0 0 0 0 0 0 0 0 0 0 0 0 0 0 0 0 0 0 0 0 0 0 0 0 0 0 0 0 0 0 0 0 0 0 0 0 0 0 0 0 0 0 0 0 0 0 0 0 0 0 0 0 0 0 0 0 0 0 0 0 0 0 0 0 0 0 0 0 0 0 0 0 0 0 0 0 0 0 0 0 0 0 0 0 0 0 0 0 0 0 0 0 0 0 0 0 0 0 0 0 0 0 0 0 0 0 0 0 0 0 0 0 0 0 0 0 0 0 0 0 0 0 0 0 0 0 0 0 0 0 0 