# vtk DataFile Version 2.0
Comment goes here
ASCII

DATASET STRUCTURED_POINTS
FIELD FieldData 1
TIME 1 1 double
1.60000000
DIMENSIONS    384   64   1

ORIGIN    0.000   0.000   0.000
SPACING   0.078125 0.078125   1.000

POINT_DATA   24576
SCALARS Concentration double
LOOKUP_TABLE default

0 0 0 0 0 0 0 0 0 0 0 0 0 0 0 0 0 0 0 0 0 0 0 0 0 0 0 0 0 0 0 0 0 0 0 0 0 0 0 0 0 0 0 0 0 0 0 0 0 0 0 0 0 0 0 0 0 0 0 0 0 0 0 0 0 0 0 0 0 0 0 0 0 0 0 0 0 0 0 0 0 0 0 0 0 0 0 0 0 0 0 0 0 0 0 0 0 0 0 0 0 0 0 0 0 0 0 0 0 0 0 0 0 0 0 0 0 0 0 0 0 0 0 0 0 0 0 0 0 0 0 0 0 0 0 0 0 0 0 0 0 0 0 0 0 0 0 0 0 0 0 0 0 0 0 0 0 0 0 0 0 0 0 0 0 0 0 0 0 0 0 0 0 0 0 0 0 0 0 0 0 0 0 0 0 0 0 0 0 0 0 0 0 0 0 0 0 0 0 0 0 0 0 0 0 0 0 0 0 0 0 0 0 0 0 0 0 0 0 0 0 0 0 0 0 0 0 0 0 0 0 0 0 0 0 0 0 0 0 0 0 0 0 0 0 0 0 0 0 0 0 0 0 0 0 0 0 0 0 0 0 0 0 0 0 0 0 0 0 0 0 0 0 0 0 0 0 0 0 0 0 0 0 0 0 0 0 0 0 0 0 0 0 0 0 0 0 0 0 0 0 0 0 0 0 0 0 0 0 0 0 0 0 0 0 0 0 0 0 0 0 0 0 0 0 0 0 0 0 0 0 0 0 0 0 0 0 0 0 0 0 0 0 0 0 0 0 0 0 0 0 0 0 0 0 0 0 0 0 0 0 0 0 0 0 0 0 0 0 0 0 0 0 0 0 0 0 0 0 0 0 0 0 0 
0 0 0 0 0 0 0 0 0 0 0 0 0 0 0 0 0 0 0 0 0 0 0 0 0 0 0 0 0 0 0 0 0 0 0 0 0 0 0 0 0 0 0 0 0 0 0 0 0 0 0 0 0 0 0 0 0 0 0 0 0 0 0 0 0 0 0 0 0 0 0 0 0 0 0 0 0 0 0 0 0 0 0 0 0 0 0 0 0 0 0 0 0 0 0 0 0 0 0 0 0 0 0 0 0 0 0 0 0 0 0 0 0 0 0 0 0 0 0 0 0 0 0 0 0 0 0 0 0 0 0 0 0 0 0 0 0 0 0 0 0 0 0 0 0 0 0 0 0 0 0 0 0 0 0 0 0 0 0 0 0 0 0 0 0 0 0 0 0 0 0 0 0 0 0 0 0 0 0 0 0 0 0 0 0 0 0 0 0 0 0 0 0 0 0 0 0 0 0 0 0 0 0 0 0 0 0 0 0 0 0 0 0 0 0 0 0 0 0 0 0 0 0 0 0 0 0 0 0 0 0 0 0 0 0 0 0 0 0 0 0 0 0 0 0 0 0 0 0 0 0 0 0 0 0 0 0 0 0 0 0 0 0 0 0 0 0 0 0 0 0 0 0 0 0 0 0 0 0 0 0 0 0 0 0 0 0 0 0 0 0 0 0 0 0 0 0 0 0 0 0 0 0 0 0 0 0 0 0 0 0 0 0 0 0 0 0 0 0 0 0 0 0 0 0 0 0 0 0 0 0 0 0 0 0 0 0 0 0 0 0 0 0 0 0 0 0 0 0 0 0 0 0 0 0 0 0 0 0 0 0 0 0 0 0 0 0 0 0 0 0 0 0 0 0 0 0 0 0 0 0 0 0 0 
0 0 0 0 0 0 0 0 0 0 0 0 0 0 0 0 0 0 0 0 0 0 0 0 0 0 0 0 0 0 0 0 0 0 0 0 0 0 0 0 0 0 0 0 0 0 0 0 0 0 0 0 0 0 0 0 0 0 0 0 0 0 0 0 0 0 0 0 0 0 0 0 0 0 0 0 0 0 0 1.039489e-15 1.063358e-15 1.068777e-15 1.055492e-15 1.023999e-15 0 0 0 0 0 0 0 0 0 0 0 0 0 0 0 0 0 0 0 0 0 0 0 0 0 0 0 0 0 0 0 0 0 0 0 0 0 0 0 0 0 0 0 0 0 0 0 0 0 0 0 0 0 0 0 0 0 0 0 0 0 0 0 0 0 0 0 0 0 0 0 0 0 0 0 0 0 0 0 0 0 0 0 0 0 0 0 0 0 0 0 0 0 0 0 0 0 0 0 0 0 0 0 0 0 0 0 0 0 0 0 0 0 0 0 0 0 0 0 0 0 0 0 0 0 0 0 0 0 0 0 0 0 0 0 0 0 0 0 0 0 0 0 0 0 0 0 0 0 0 0 0 0 0 0 0 0 0 0 0 0 0 0 0 0 0 0 0 0 0 0 0 0 0 0 0 0 0 0 0 0 0 0 0 0 0 0 0 0 0 0 0 0 0 0 0 0 0 0 0 0 0 0 0 0 0 0 0 0 0 0 0 0 0 0 0 0 0 0 0 0 0 0 0 0 0 0 0 0 0 0 0 0 0 0 0 0 0 0 0 0 0 0 0 0 0 0 0 0 0 0 0 0 0 0 0 0 0 0 0 0 0 0 0 0 0 0 0 0 0 0 0 0 0 0 0 0 0 0 0 0 0 0 0 0 0 0 0 0 0 0 0 0 0 0 0 0 0 0 0 
0 0 0 0 0 0 0 0 0 0 0 0 0 0 0 0 0 0 0 0 0 0 0 0 0 0 0 0 0 0 0 0 0 0 0 0 0 0 0 0 0 0 0 0 0 0 0 0 0 0 0 0 0 0 0 0 0 0 0 0 0 0 0 0 0 1.019201e-15 1.296695e-15 1.621539e-15 2.005479e-15 2.451703e-15 2.957149e-15 3.515278e-15 4.116520e-15 4.745949e-15 5.385293e-15 6.011465e-15 6.599768e-15 7.123193e-15 7.556849e-15 7.877397e-15 8.068124e-15 8.117300e-15 8.022874e-15 7.788666e-15 7.428240e-15 6.959025e-15 6.405571e-15 5.792486e-15 5.147547e-15 4.494739e-15 3.857658e-15 3.253733e-15 2.697988e-15 2.198910e-15 1.762252e-15 1.388441e-15 1.075983e-15 0 0 0 0 0 0 0 0 0 0 0 0 0 0 0 0 0 0 0 0 0 0 0 0 0 0 0 0 0 0 0 0 0 0 0 0 0 0 0 0 0 0 0 0 0 0 0 0 0 0 0 0 0 0 0 0 0 0 0 0 0 0 0 0 0 0 0 0 0 0 0 0 0 0 0 0 0 0 0 0 0 0 0 0 0 0 0 0 0 0 0 0 0 0 0 0 0 0 0 0 0 0 0 0 0 0 0 0 0 0 0 0 0 0 0 0 0 0 0 0 0 0 0 0 0 0 0 0 0 0 0 0 0 0 0 0 0 0 0 0 0 0 0 0 0 0 0 0 0 0 0 0 0 0 0 0 0 0 0 0 0 0 0 0 0 0 0 0 0 0 0 0 0 0 0 0 0 0 0 0 0 0 0 0 0 0 0 0 0 0 0 0 0 0 0 0 0 0 0 0 0 0 0 0 0 0 0 0 0 0 0 0 0 0 0 0 0 0 0 0 0 0 0 0 0 0 0 0 0 0 0 0 0 0 0 0 0 0 0 0 0 0 0 0 0 0 0 0 0 0 0 0 0 0 0 0 0 0 0 0 0 0 0 0 0 0 0 0 0 0 0 0 0 0 0 0 0 0 0 0 0 0 0 0 0 0 0 
0 0 0 0 0 0 0 0 0 0 0 0 0 0 0 0 0 0 0 0 0 0 0 0 0 0 0 0 0 0 0 0 0 0 0 0 0 0 0 0 0 0 0 0 0 0 0 0 0 0 0 0 0 0 0 0 0 0 0 1.226281e-15 1.708368e-15 2.342254e-15 3.172258e-15 4.218764e-15 5.535549e-15 7.136837e-15 9.080019e-15 1.139050e-14 1.415005e-14 1.735938e-14 2.100985e-14 2.505747e-14 2.943953e-14 3.404792e-14 3.875247e-14 4.337952e-14 4.774604e-14 5.164611e-14 5.489335e-14 5.731120e-14 5.877515e-14 5.919745e-14 5.856125e-14 5.689521e-14 5.429656e-14 5.089570e-14 4.686972e-14 4.240226e-14 3.769316e-14 3.292172e-14 2.825766e-14 2.383314e-14 1.975663e-14 1.609510e-14 1.288988e-14 1.014765e-14 7.856163e-15 5.981351e-15 4.480636e-15 3.302689e-15 2.396744e-15 1.712575e-15 1.205625e-15 0 0 0 0 0 0 0 0 0 0 0 0 0 0 0 0 0 0 0 0 0 0 0 0 0 0 0 0 0 0 0 0 0 0 0 0 0 0 0 0 0 0 0 0 0 0 0 0 0 0 0 0 0 0 0 0 0 0 0 0 0 0 0 0 0 0 0 0 0 0 0 0 0 0 0 0 0 0 0 0 0 0 0 0 0 0 0 0 0 0 0 0 0 0 0 0 0 0 0 0 0 0 0 0 0 0 0 0 0 0 0 0 0 0 0 0 0 0 0 0 0 0 0 0 0 0 0 0 0 0 0 0 0 0 0 0 0 0 0 0 0 0 0 0 0 0 0 0 0 0 0 0 0 0 0 0 0 0 0 0 0 0 0 0 0 0 0 0 0 0 0 0 0 0 0 0 0 0 0 0 0 0 0 0 0 0 0 0 0 0 0 0 0 0 0 0 0 0 0 0 0 0 0 0 0 0 0 0 0 0 0 0 0 0 0 0 0 0 0 0 0 0 0 0 0 0 0 0 0 0 0 0 0 0 0 0 0 0 0 0 0 0 0 0 0 0 0 0 0 0 0 0 0 0 0 0 0 0 0 0 0 0 0 0 0 0 0 0 0 0 0 0 0 0 0 0 0 0 0 0 0 
0 0 0 0 0 0 0 0 0 0 0 0 0 0 0 0 0 0 0 0 0 0 0 0 0 0 0 0 0 0 0 0 0 0 0 0 0 0 0 0 0 0 0 0 0 0 0 1.365825e-15 1.818124e-15 2.203573e-15 2.500869e-15 2.650885e-15 2.718693e-15 2.737751e-15 2.842245e-15 3.115447e-15 3.705596e-15 4.702504e-15 6.266633e-15 8.499119e-15 1.160862e-14 1.572285e-14 2.112362e-14 2.795815e-14 3.657551e-14 4.710506e-14 5.994680e-14 7.561086e-14 9.433510e-14 1.162148e-13 1.412431e-13 1.691952e-13 1.996519e-13 2.319069e-13 2.650213e-13 2.977881e-13 3.288626e-13 3.567918e-13 3.802076e-13 3.978563e-13 4.088124e-13 4.124411e-13 4.085950e-13 3.974602e-13 3.797146e-13 3.562551e-13 3.283311e-13 2.972076e-13 2.643066e-13 2.308730e-13 1.981386e-13 1.670340e-13 1.383681e-13 1.126135e-13 9.009134e-14 7.083796e-14 5.477829e-14 4.165588e-14 3.117314e-14 2.295569e-14 1.664748e-14 1.188833e-14 8.367130e-15 5.803306e-15 3.970180e-15 2.678763e-15 1.784275e-15 1.173116e-15 0 0 0 0 0 0 0 0 0 0 0 0 0 0 0 0 0 0 0 0 0 0 0 0 0 0 0 0 0 0 0 0 0 0 0 0 0 0 0 0 0 0 0 0 0 0 0 0 0 0 0 0 0 0 0 0 0 0 0 0 0 0 0 0 0 0 0 0 0 0 0 0 0 0 0 0 0 0 0 0 0 0 0 0 0 0 0 0 0 0 0 0 0 0 0 0 0 0 0 0 0 0 0 0 0 0 0 0 0 0 0 0 0 0 0 0 0 0 0 0 0 0 0 0 0 0 0 0 0 0 0 0 0 0 0 0 0 0 0 0 0 0 0 0 0 0 0 0 0 0 0 0 0 0 0 0 0 0 0 0 0 0 0 0 0 0 0 0 0 0 0 0 0 0 0 0 0 0 0 0 0 0 0 0 0 0 0 0 0 0 0 0 0 0 0 0 0 0 0 0 0 0 0 0 0 0 0 0 0 0 0 0 0 0 0 0 0 0 0 0 0 0 0 0 0 0 0 0 0 0 0 0 0 0 0 0 0 0 0 0 0 0 0 0 0 0 0 0 0 0 0 0 0 0 0 0 0 0 0 0 0 0 0 0 0 0 0 0 0 0 0 0 0 0 0 0 
0 0 0 0 0 0 0 0 0 0 0 0 0 0 0 0 0 0 0 0 0 0 0 0 0 0 0 0 0 0 0 0 0 0 0 0 0 0 0 0 0 0 1.045265e-15 2.351703e-15 4.703200e-15 8.308169e-15 1.329699e-14 1.904626e-14 2.507431e-14 2.996368e-14 3.338155e-14 3.441896e-14 3.384688e-14 3.195209e-14 3.023148e-14 2.946611e-14 3.098791e-14 3.540829e-14 4.378077e-14 5.661829e-14 7.513049e-14 1.000057e-13 1.329346e-13 1.748367e-13 2.279110e-13 2.932104e-13 3.747994e-13 4.749300e-13 5.953742e-13 7.371033e-13 9.005675e-13 1.084555e-12 1.286629e-12 1.502058e-12 1.724645e-12 1.946087e-12 2.157330e-12 2.348333e-12 2.509758e-12 2.632879e-12 2.711266e-12 2.740445e-12 2.719207e-12 2.648700e-12 2.533218e-12 2.378751e-12 2.193440e-12 1.985926e-12 1.765693e-12 1.541483e-12 1.321651e-12 1.112847e-12 9.205154e-13 7.480448e-13 5.974617e-13 4.690610e-13 3.621642e-13 2.750442e-13 2.055723e-13 1.512381e-13 1.095858e-13 7.821945e-14 5.503263e-14 3.817173e-14 2.611988e-14 1.763518e-14 1.175636e-14 7.739672e-15 5.035561e-15 3.238344e-15 2.060063e-15 1.296576e-15 0 0 0 0 0 0 0 0 0 0 0 0 0 0 0 0 0 0 0 0 0 0 0 0 0 0 0 0 0 0 0 0 0 0 0 0 0 0 0 0 0 0 0 0 0 0 0 0 0 0 0 0 0 0 0 0 0 0 0 0 0 0 0 0 0 0 0 0 0 0 0 0 0 0 0 0 0 0 0 0 0 0 0 0 0 0 0 0 0 0 0 0 0 0 0 0 0 0 0 0 0 0 0 0 0 0 0 0 0 0 0 0 0 0 0 0 0 0 0 0 0 0 0 0 0 0 0 0 0 0 0 0 0 0 0 0 0 0 0 0 0 0 0 0 0 0 0 0 0 0 0 0 0 0 0 0 0 0 0 0 0 0 0 0 0 0 0 0 0 0 0 0 0 0 0 0 0 0 0 0 0 0 0 0 0 0 0 0 0 0 0 0 0 0 0 0 0 0 0 0 0 0 0 0 0 0 0 0 0 0 0 0 0 0 0 0 0 0 0 0 0 0 0 0 0 0 0 0 0 0 0 0 0 0 0 0 0 0 0 0 0 0 0 0 0 0 0 0 0 0 0 0 0 0 0 0 0 0 0 0 0 0 0 0 0 0 0 0 0 0 0 0 
0 0 0 0 0 0 0 0 0 0 0 0 0 0 0 0 0 0 0 0 0 0 0 0 0 0 0 0 0 0 0 0 0 0 0 0 0 0 0 0 1.901456e-15 5.605224e-15 1.428763e-14 3.173580e-14 6.273432e-14 1.096682e-13 1.739007e-13 2.469295e-13 3.222943e-13 3.814305e-13 4.197947e-13 4.254578e-13 4.074939e-13 3.689440e-13 3.268712e-13 2.895609e-13 2.698914e-13 2.724353e-13 3.039396e-13 3.662272e-13 4.651175e-13 6.034884e-13 7.901284e-13 1.030363e-12 1.336885e-12 1.723527e-12 2.211742e-12 2.815199e-12 3.547319e-12 4.417564e-12 5.430437e-12 6.581216e-12 7.854727e-12 9.222874e-12 1.064528e-11 1.207009e-11 1.343743e-11 1.468310e-11 1.574463e-11 1.656544e-11 1.710180e-11 1.732385e-11 1.722161e-11 1.680055e-11 1.608648e-11 1.511616e-11 1.394214e-11 1.261996e-11 1.121312e-11 9.778806e-12 8.373353e-12 7.039613e-12 5.813815e-12 4.716690e-12 3.761429e-12 2.948581e-12 2.273677e-12 1.724651e-12 1.287862e-12 9.467281e-13 6.856969e-13 4.892982e-13 3.442976e-13 2.388845e-13 1.635840e-13 1.105502e-13 7.380214e-14 4.866645e-14 3.173118e-14 2.045476e-14 1.305021e-14 8.239641e-15 5.154055e-15 3.193679e-15 1.962616e-15 1.196006e-15 0 0 0 0 0 0 0 0 0 0 0 0 0 0 0 0 0 0 0 0 0 0 0 0 0 0 0 0 0 0 0 0 0 0 0 0 0 0 0 0 0 0 0 0 0 0 0 0 0 0 0 0 0 0 0 0 0 0 0 0 0 0 0 0 0 0 0 0 0 0 0 0 0 0 0 0 0 0 0 0 0 0 0 0 0 0 0 0 0 0 0 0 0 0 0 0 0 0 0 0 0 0 0 0 0 0 0 0 0 0 0 0 0 0 0 0 0 0 0 0 0 0 0 0 0 0 0 0 0 0 0 0 0 0 0 0 0 0 0 0 0 0 0 0 0 0 0 0 0 0 0 0 0 0 0 0 0 0 0 0 0 0 0 0 0 0 0 0 0 0 0 0 0 0 0 0 0 0 0 0 0 0 0 0 0 0 0 0 0 0 0 0 0 0 0 0 0 0 0 0 0 0 0 0 0 0 0 0 0 0 0 0 0 0 0 0 0 0 0 0 0 0 0 0 0 0 0 0 0 0 0 0 0 0 0 0 0 0 0 0 0 0 0 0 0 0 0 0 0 0 0 0 0 0 0 0 0 0 0 0 0 0 0 0 0 0 0 0 
0 0 0 0 0 0 0 0 0 0 0 0 0 0 0 0 0 0 0 0 0 0 0 0 0 0 0 0 0 0 0 0 0 0 0 0 0 0 1.776323e-15 7.269036e-15 2.470617e-14 7.175112e-14 1.802449e-13 3.948023e-13 7.711877e-13 1.333682e-12 2.096927e-12 2.954186e-12 3.831036e-12 4.502126e-12 4.917357e-12 4.930403e-12 4.648076e-12 4.101511e-12 3.483610e-12 2.884245e-12 2.434538e-12 2.172280e-12 2.141836e-12 2.339404e-12 2.783509e-12 3.474725e-12 4.450647e-12 5.734986e-12 7.407673e-12 9.582008e-12 1.234782e-11 1.579641e-11 2.002499e-11 2.510224e-11 3.107023e-11 3.790660e-11 4.553145e-11 5.377682e-11 6.240666e-11 7.110288e-11 7.950363e-11 8.720865e-11 9.383218e-11 9.901586e-11 1.024810e-10 1.040298e-10 1.035835e-10 1.011634e-10 9.691463e-11 9.106637e-11 8.394251e-11 7.590260e-11 6.734228e-11 5.862921e-11 5.010687e-11 4.204450e-11 3.465400e-11 2.806198e-11 2.233750e-11 1.748221e-11 1.346026e-11 1.019763e-11 7.606753e-12 5.587852e-12 4.044961e-12 2.886002e-12 2.030871e-12 1.409804e-12 9.661137e-13 6.536973e-13 4.370375e-13 2.887617e-13 1.886975e-13 1.219788e-13 7.806084e-14 4.946527e-14 3.106256e-14 1.933457e-14 1.193868e-14 7.314710e-15 4.450762e-15 2.690108e-15 1.616574e-15 0 0 0 0 0 0 0 0 0 0 0 0 0 0 0 0 0 0 0 0 0 0 0 0 0 0 0 0 0 0 0 0 0 0 0 0 0 0 0 0 0 0 0 0 0 0 0 0 0 0 0 0 0 0 0 0 0 0 0 0 0 0 0 0 0 0 0 0 0 0 0 0 0 0 0 0 0 0 0 0 0 0 0 0 0 0 0 0 0 0 0 0 0 0 0 0 0 0 0 0 0 0 0 0 0 0 0 0 0 0 0 0 0 0 0 0 0 0 0 0 0 0 0 0 0 0 0 0 0 0 0 0 0 0 0 0 0 0 0 0 0 0 0 0 0 0 0 0 0 0 0 0 0 0 0 0 0 0 0 0 0 0 0 0 0 0 0 0 0 0 0 0 0 0 0 0 0 0 0 0 0 0 0 0 0 0 0 0 0 0 0 0 0 0 0 0 0 0 0 0 0 0 0 0 0 0 0 0 0 0 0 0 0 0 0 0 0 0 0 0 0 0 0 0 0 0 0 0 0 0 0 0 0 0 0 0 0 0 0 0 0 0 0 0 0 0 0 0 0 0 0 0 0 0 0 0 0 0 0 0 0 0 0 0 0 
0 0 0 0 0 0 0 0 0 0 0 0 0 0 0 0 0 0 0 0 0 0 0 0 0 0 0 0 0 0 0 0 0 0 0 0 0 4.532680e-15 2.197514e-14 8.887869e-14 2.974582e-13 8.499430e-13 2.099679e-12 4.529035e-12 8.726657e-12 1.492057e-11 2.324372e-11 3.250652e-11 4.191036e-11 4.900454e-11 5.325563e-11 5.306800e-11 4.957049e-11 4.309766e-11 3.568382e-11 2.829606e-11 2.225228e-11 1.790463e-11 1.555514e-11 1.504437e-11 1.631548e-11 1.920923e-11 2.379284e-11 3.013786e-11 3.881985e-11 5.026067e-11 6.499777e-11 8.361500e-11 1.067003e-10 1.347252e-10 1.679621e-10 2.063770e-10 2.495361e-10 2.965679e-10 3.461077e-10 3.963854e-10 4.452613e-10 4.904387e-10 5.295894e-10 5.605940e-10 5.816992e-10 5.916607e-10 5.899042e-10 5.764966e-10 5.522862e-10 5.186456e-10 4.775616e-10 4.311826e-10 3.819021e-10 3.318551e-10 2.830700e-10 2.370513e-10 1.950194e-10 1.576339e-10 1.252771e-10 9.789999e-11 7.528701e-11 5.697835e-11 4.247283e-11 3.118436e-11 2.257179e-11 1.610642e-11 1.134056e-11 7.878827e-12 5.406261e-12 3.663708e-12 2.454525e-12 1.625581e-12 1.065360e-12 6.908692e-13 4.437879e-13 2.823559e-13 1.781328e-13 1.114233e-13 6.918196e-14 4.263384e-14 2.610824e-14 1.588642e-14 9.616953e-15 5.791462e-15 3.474118e-15 2.075915e-15 1.237355e-15 0 0 0 0 0 0 0 0 0 0 0 0 0 0 0 0 0 0 0 0 0 0 0 0 0 0 0 0 0 0 0 0 0 0 0 0 0 0 0 0 0 0 0 0 0 0 0 0 0 0 0 0 0 0 0 0 0 0 0 0 0 0 0 0 0 0 0 0 0 0 0 0 0 0 0 0 0 0 0 0 0 0 0 0 0 0 0 0 0 0 0 0 0 0 0 0 0 0 0 0 0 0 0 0 0 0 0 0 0 0 0 0 0 0 0 0 0 0 0 0 0 0 0 0 0 0 0 0 0 0 0 0 0 0 0 0 0 0 0 0 0 0 0 0 0 0 0 0 0 0 0 0 0 0 0 0 0 0 0 0 0 0 0 0 0 0 0 0 0 0 0 0 0 0 0 0 0 0 0 0 0 0 0 0 0 0 0 0 0 0 0 0 0 0 0 0 0 0 0 0 0 0 0 0 0 0 0 0 0 0 0 0 0 0 0 0 0 0 0 0 0 0 0 0 0 0 0 0 0 0 0 0 0 0 0 0 0 0 0 0 0 0 0 0 0 0 0 0 0 0 0 0 0 0 0 0 0 0 0 0 0 
0 0 0 0 0 0 0 0 0 0 0 0 0 0 0 0 0 0 0 0 0 0 0 0 0 0 0 0 0 0 0 0 0 0 0 1.178530e-15 8.666597e-15 5.222912e-14 2.509553e-13 1.002105e-12 3.298517e-12 9.255658e-12 2.244906e-11 4.758930e-11 9.034513e-11 1.525178e-10 2.353843e-10 3.267194e-10 4.192471e-10 4.882884e-10 5.292581e-10 5.256533e-10 4.888070e-10 4.215881e-10 3.440766e-10 2.658985e-10 1.998083e-10 1.492095e-10 1.163007e-10 9.898400e-11 9.547219e-11 1.033554e-10 1.217586e-10 1.510922e-10 1.930964e-10 2.497977e-10 3.241642e-10 4.193932e-10 5.388619e-10 6.852663e-10 8.604723e-10 1.064560e-09 1.295675e-09 1.549284e-09 1.818336e-09 2.093127e-09 2.362036e-09 2.612097e-09 2.830193e-09 3.003971e-09 3.123173e-09 3.180393e-09 3.172189e-09 3.099097e-09 2.966074e-09 2.781368e-09 2.556269e-09 2.303192e-09 2.035274e-09 1.764459e-09 1.501492e-09 1.254556e-09 1.029818e-09 8.307392e-10 6.589688e-10 5.141460e-10 3.948231e-10 2.984917e-10 2.223099e-10 1.631531e-10 1.180687e-10 8.427223e-11 5.936729e-11 4.128814e-11 2.836817e-11 1.926033e-11 1.293137e-11 8.587558e-12 5.645085e-12 3.674019e-12 2.369319e-12 1.514298e-12 9.599677e-13 6.037474e-13 3.770254e-13 2.338320e-13 1.441561e-13 8.836305e-14 5.390341e-14 3.273439e-14 1.980933e-14 1.195056e-14 7.195316e-15 4.326078e-15 2.600692e-15 1.564422e-15 0 0 0 0 0 0 0 0 0 0 0 0 0 0 0 0 0 0 0 0 0 0 0 0 0 0 0 0 0 0 0 0 0 0 0 0 0 0 0 0 0 0 0 0 0 0 0 0 0 0 0 0 0 0 0 0 0 0 0 0 0 0 0 0 0 0 0 0 0 0 0 0 0 0 0 0 0 0 0 0 0 0 0 0 0 0 0 0 0 0 0 0 0 0 0 0 0 0 0 0 0 0 0 0 0 0 0 0 0 0 0 0 0 0 0 0 0 0 0 0 0 0 0 0 0 0 0 0 0 0 0 0 0 0 0 0 0 0 0 0 0 0 0 0 0 0 0 0 0 0 0 0 0 0 0 0 0 0 0 0 0 0 0 0 0 0 0 0 0 0 0 0 0 0 0 0 0 0 0 0 0 0 0 0 0 0 0 0 0 0 0 0 0 0 0 0 0 0 0 0 0 0 0 0 0 0 0 0 0 0 0 0 0 0 0 0 0 0 0 0 0 0 0 0 0 0 0 0 0 0 0 0 0 0 0 0 0 0 0 0 0 0 0 0 0 0 0 0 0 0 0 0 0 0 0 0 0 0 
0 0 0 0 0 0 0 0 0 0 0 0 0 0 0 0 0 0 0 0 0 0 0 0 0 0 0 0 0 0 0 0 0 0 1.369185e-15 1.260943e-14 9.297138e-14 5.579535e-13 2.654919e-12 1.046162e-11 3.380390e-11 9.298500e-11 2.207842e-10 4.589026e-10 8.558403e-10 1.424013e-09 2.172987e-09 2.991935e-09 3.819145e-09 4.434493e-09 4.799081e-09 4.762279e-09 4.422226e-09 3.802732e-09 3.081794e-09 2.348736e-09 1.718111e-09 1.222677e-09 8.795630e-10 6.681028e-10 5.665511e-10 5.491995e-10 6.021162e-10 7.218128e-10 9.090878e-10 1.172135e-09 1.524709e-09 1.983271e-09 2.565037e-09 3.285456e-09 4.154980e-09 5.176897e-09 6.342860e-09 7.632643e-09 9.010106e-09 1.042695e-08 1.182098e-08 1.312424e-08 1.426427e-08 1.517447e-08 1.579780e-08 1.609515e-08 1.604890e-08 1.566417e-08 1.496989e-08 1.401146e-08 1.285035e-08 1.155140e-08 1.018371e-08 8.807407e-09 7.477532e-09 6.233636e-09 5.106470e-09 4.111335e-09 3.255905e-09 2.536617e-09 1.945784e-09 1.469740e-09 1.094137e-09 8.028234e-10 5.811410e-10 4.150236e-10 2.926878e-10 2.038356e-10 1.403216e-10 9.548364e-11 6.428847e-11 4.282699e-11 2.825764e-11 1.846548e-11 1.196353e-11 7.684209e-12 4.898489e-12 3.098946e-12 1.947840e-12 1.216325e-12 7.554818e-13 4.667238e-13 2.871511e-13 1.759503e-13 1.075231e-13 6.554122e-14 3.991203e-14 2.428944e-14 1.479848e-14 9.030933e-15 5.530801e-15 3.401285e-15 2.104202e-15 1.310023e-15 0 0 0 0 0 0 0 0 0 0 0 0 0 0 0 0 0 0 0 0 0 0 0 0 0 0 0 0 0 0 0 0 0 0 0 0 0 0 0 0 0 0 0 0 0 0 0 0 0 0 0 0 0 0 0 0 0 0 0 0 0 0 0 0 0 0 0 0 0 0 0 0 0 0 0 0 0 0 0 0 0 0 0 0 0 0 0 0 0 0 0 0 0 0 0 0 0 0 0 0 0 0 0 0 0 0 0 0 0 0 0 0 0 0 0 0 0 0 0 0 0 0 0 0 0 0 0 0 0 0 0 0 0 0 0 0 0 0 0 0 0 0 0 0 0 0 0 0 0 0 0 0 0 0 0 0 0 0 0 0 0 0 0 0 0 0 0 0 0 0 0 0 0 0 0 0 0 0 0 0 0 0 0 0 0 0 0 0 0 0 0 0 0 0 0 0 0 0 0 0 0 0 0 0 0 0 0 0 0 0 0 0 0 0 0 0 0 0 0 0 0 0 0 0 0 0 0 0 0 0 0 0 0 0 0 0 0 0 0 0 0 0 0 0 0 0 0 0 0 0 0 0 0 0 
0 0 0 0 0 0 0 0 0 0 0 0 0 0 0 0 0 0 0 0 0 0 0 0 0 0 0 0 0 0 0 0 0 1.215756e-15 1.336865e-14 1.241933e-13 9.179578e-13 5.480380e-12 2.581180e-11 1.002845e-10 3.177130e-10 8.550285e-10 1.983419e-09 4.031215e-09 7.370739e-09 1.206020e-08 1.817830e-08 2.480156e-08 3.150418e-08 3.647740e-08 3.947582e-08 3.919983e-08 3.644609e-08 3.134885e-08 2.535133e-08 1.919712e-08 1.383640e-08 9.567896e-09 6.528372e-09 4.549077e-09 3.426141e-09 2.931958e-09 2.933849e-09 3.330306e-09 4.088497e-09 5.226193e-09 6.798404e-09 8.878276e-09 1.155042e-08 1.489272e-08 1.896605e-08 2.379396e-08 2.934895e-08 3.553745e-08 4.219070e-08 4.906677e-08 5.585605e-08 6.220775e-08 6.775442e-08 7.215597e-08 7.513132e-08 7.649434e-08 7.617150e-08 7.420641e-08 7.075478e-08 6.605584e-08 6.041398e-08 5.415337e-08 4.760284e-08 4.105342e-08 3.475746e-08 2.890080e-08 2.361662e-08 1.897319e-08 1.499575e-08 1.166427e-08 8.935201e-09 6.743002e-09 5.016565e-09 3.680416e-09 2.664603e-09 1.904305e-09 1.344381e-09 9.377872e-10 6.468470e-10 4.412873e-10 2.979811e-10 1.992073e-10 1.319480e-10 8.661232e-11 5.638662e-11 3.641586e-11 2.334931e-11 1.486723e-11 9.408613e-12 5.919400e-12 3.705773e-12 2.309262e-12 1.433822e-12 8.874380e-13 5.481522e-13 3.381053e-13 2.085343e-13 1.287166e-13 7.963337e-14 4.942873e-14 3.083042e-14 1.934083e-14 1.221887e-14 7.777018e-15 4.989737e-15 3.225699e-15 2.100438e-15 1.375819e-15 0 0 0 0 0 0 0 0 0 0 0 0 0 0 0 0 0 0 0 0 0 0 0 0 0 0 0 0 0 0 0 0 0 0 0 0 0 0 0 0 0 0 0 0 0 0 0 0 0 0 0 0 0 0 0 0 0 0 0 0 0 0 0 0 0 0 0 0 0 0 0 0 0 0 0 0 0 0 0 0 0 0 0 0 0 0 0 0 0 0 0 0 0 0 0 0 0 0 0 0 0 0 0 0 0 0 0 0 0 0 0 0 0 0 0 0 0 0 0 0 0 0 0 0 0 0 0 0 0 0 0 0 0 0 0 0 0 0 0 0 0 0 0 0 0 0 0 0 0 0 0 0 0 0 0 0 0 0 0 0 0 0 0 0 0 0 0 0 0 0 0 0 0 0 0 0 0 0 0 0 0 0 0 0 0 0 0 0 0 0 0 0 0 0 0 0 0 0 0 0 0 0 0 0 0 0 0 0 0 0 0 0 0 0 0 0 0 0 0 0 0 0 0 0 0 0 0 0 0 0 0 0 0 0 0 0 0 0 0 0 0 0 0 0 0 0 0 0 0 0 
0 0 0 0 0 0 0 0 0 0 0 0 0 0 0 0 0 0 0 0 0 0 0 0 0 0 0 0 0 0 0 0 0 1.081505e-14 1.205974e-13 1.130978e-12 8.378940e-12 4.973978e-11 2.317539e-10 8.874969e-10 2.752151e-09 7.233119e-09 1.633823e-08 3.236993e-08 5.778860e-08 9.270386e-08 1.375658e-07 1.856702e-07 2.343177e-07 2.705563e-07 2.928527e-07 2.914721e-07 2.718425e-07 2.346080e-07 1.900482e-07 1.437958e-07 1.029817e-07 7.013200e-08 4.635834e-08 3.047853e-08 2.089629e-08 1.590974e-08 1.423852e-08 1.493262e-08 1.757064e-08 2.207046e-08 2.858212e-08 3.740154e-08 4.889604e-08 6.345004e-08 8.136172e-08 1.028001e-07 1.276586e-07 1.555557e-07 1.856864e-07 2.169334e-07 2.477885e-07 2.766093e-07 3.016378e-07 3.213235e-07 3.343799e-07 3.400191e-07 3.379690e-07 3.285087e-07 3.124267e-07 2.908606e-07 2.652445e-07 2.370441e-07 2.077572e-07 1.786496e-07 1.508387e-07 1.250942e-07 1.019852e-07 8.175899e-08 6.450715e-08 5.010152e-08 3.834006e-08 2.891252e-08 2.150551e-08 1.577955e-08 1.143221e-08 8.178747e-09 5.783412e-09 4.042355e-09 2.795550e-09 1.912844e-09 1.296317e-09 8.700563e-10 5.789470e-10 3.819115e-10 2.500254e-10 1.624344e-10 1.048400e-10 6.722219e-11 4.286906e-11 2.719076e-11 1.717491e-11 1.080447e-11 6.778899e-12 4.242960e-12 2.653562e-12 1.658971e-12 1.038699e-12 6.517298e-13 4.106021e-13 2.599256e-13 1.656282e-13 1.062746e-13 6.874827e-14 4.481828e-14 2.945338e-14 1.948604e-14 1.297068e-14 8.669178e-15 5.811719e-15 3.899181e-15 2.615262e-15 1.749974e-15 1.167283e-15 0 0 0 0 0 0 0 0 0 0 0 0 0 0 0 0 0 0 0 0 0 0 0 0 0 0 0 0 0 0 0 0 0 0 0 0 0 0 0 0 0 0 0 0 0 0 0 0 0 0 0 0 0 0 0 0 0 0 0 0 0 0 0 0 0 0 0 0 0 0 0 0 0 0 0 0 0 0 0 0 0 0 0 0 0 0 0 0 0 0 0 0 0 0 0 0 0 0 0 0 0 0 0 0 0 0 0 0 0 0 0 0 0 0 0 0 0 0 0 0 0 0 0 0 0 0 0 0 0 0 0 0 0 0 0 0 0 0 0 0 0 0 0 0 0 0 0 0 0 0 0 0 0 0 0 0 0 0 0 0 0 0 0 0 0 0 0 0 0 0 0 0 0 0 0 0 0 0 0 0 0 0 0 0 0 0 0 0 0 0 0 0 0 0 0 0 0 0 0 0 0 0 0 0 0 0 0 0 0 0 0 0 0 0 0 0 0 0 0 0 0 0 0 0 0 0 0 0 0 0 0 0 0 0 0 0 0 0 0 0 0 0 0 0 0 
0 0 0 0 0 0 0 0 0 0 0 0 0 0 0 0 0 0 0 0 0 0 0 0 0 0 0 0 0 0 0 0 6.479020e-15 8.827170e-14 9.984201e-13 9.447249e-12 7.010557e-11 4.131012e-10 1.902413e-09 7.175582e-09 2.175610e-08 5.574761e-08 1.223754e-07 2.356520e-07 4.097065e-07 6.423726e-07 9.367029e-07 1.248148e-06 1.564440e-06 1.800489e-06 1.951314e-06 1.948344e-06 1.826220e-06 1.584591e-06 1.289282e-06 9.781543e-07 6.995655e-07 4.730965e-07 3.071656e-07 1.948529e-07 1.251871e-07 8.690423e-08 6.949106e-08 6.605978e-08 7.303317e-08 8.899366e-08 1.139956e-07 1.489959e-07 1.954956e-07 2.551477e-07 3.293718e-07 4.189576e-07 5.235634e-07 6.414554e-07 7.691145e-07 9.014624e-07 1.031880e-06 1.153067e-06 1.257465e-06 1.338420e-06 1.390633e-06 1.411011e-06 1.398749e-06 1.355453e-06 1.284778e-06 1.191897e-06 1.082967e-06 9.643244e-07 8.421245e-07 7.216461e-07 6.072770e-07 5.021034e-07 4.081922e-07 3.264446e-07 2.570093e-07 1.992831e-07 1.522983e-07 1.147601e-07 8.532527e-08 6.261900e-08 4.539366e-08 3.251469e-08 2.302917e-08 1.613289e-08 1.118669e-08 7.679925e-09 5.223982e-09 3.521601e-09 2.354518e-09 1.561677e-09 1.028369e-09 6.724915e-10 4.370850e-10 2.824336e-10 1.816077e-10 1.162484e-10 7.415240e-11 4.716066e-11 2.994217e-11 1.899140e-11 1.205132e-11 7.658376e-12 4.881806e-12 3.124898e-12 2.011901e-12 1.303979e-12 8.517964e-13 5.609046e-13 3.724416e-13 2.491790e-13 1.678630e-13 1.136827e-13 7.729623e-14 5.266090e-14 3.589670e-14 2.443603e-14 1.659156e-14 1.121854e-14 7.547614e-15 5.046356e-15 3.351415e-15 2.208847e-15 1.444446e-15 0 0 0 0 0 0 0 0 0 0 0 0 0 0 0 0 0 0 0 0 0 0 0 0 0 0 0 0 0 0 0 0 0 0 0 0 0 0 0 0 0 0 0 0 0 0 0 0 0 0 0 0 0 0 0 0 0 0 0 0 0 0 0 0 0 0 0 0 0 0 0 0 0 0 0 0 0 0 0 0 0 0 0 0 0 0 0 0 0 0 0 0 0 0 0 0 0 0 0 0 0 0 0 0 0 0 0 0 0 0 0 0 0 0 0 0 0 0 0 0 0 0 0 0 0 0 0 0 0 0 0 0 0 0 0 0 0 0 0 0 0 0 0 0 0 0 0 0 0 0 0 0 0 0 0 0 0 0 0 0 0 0 0 0 0 0 0 0 0 0 0 0 0 0 0 0 0 0 0 0 0 0 0 0 0 0 0 0 0 0 0 0 0 0 0 0 0 0 0 0 0 0 0 0 0 0 0 0 0 0 0 0 0 0 0 0 0 0 0 0 0 0 0 0 0 0 0 0 0 0 0 0 0 0 0 0 0 0 0 0 0 
0 0 0 0 0 0 0 0 0 0 0 0 0 0 0 0 0 0 0 0 0 0 0 0 0 0 0 0 0 0 0 3.063204e-15 4.773806e-14 6.635618e-13 7.618980e-12 7.279836e-11 5.411102e-10 3.159970e-09 1.437029e-08 5.335290e-08 1.579293e-07 3.939285e-07 8.377071e-07 1.562536e-06 2.632627e-06 4.017559e-06 5.729537e-06 7.515632e-06 9.329948e-06 1.069487e-05 1.160042e-05 1.163427e-05 1.097606e-05 9.600150e-06 7.868225e-06 6.007013e-06 4.309340e-06 2.911569e-06 1.874915e-06 1.165757e-06 7.212454e-07 4.691340e-07 3.398132e-07 2.898593e-07 2.946929e-07 3.424138e-07 4.295774e-07 5.582531e-07 7.334983e-07 9.619172e-07 1.249027e-06 1.598382e-06 2.008240e-06 2.471828e-06 2.974170e-06 3.494817e-06 4.006158e-06 4.478960e-06 4.882376e-06 5.190456e-06 5.382545e-06 5.447734e-06 5.384246e-06 5.200016e-06 4.911062e-06 4.538689e-06 4.108038e-06 3.643824e-06 3.170198e-06 2.706799e-06 2.270207e-06 1.871162e-06 1.517051e-06 1.210296e-06 9.510358e-07 7.362769e-07 5.621327e-07 4.233336e-07 3.147675e-07 2.311126e-07 1.677271e-07 1.203279e-07 8.541525e-08 5.999653e-08 4.174137e-08 2.876444e-08 1.965310e-08 1.331317e-08 8.950725e-09 5.972415e-09 3.959408e-09 2.607953e-09 1.708704e-09 1.113687e-09 7.230206e-10 4.676470e-10 3.017924e-10 1.944003e-10 1.252078e-10 8.068518e-11 5.212337e-11 3.378373e-11 2.201369e-11 1.443137e-11 9.534078e-12 6.348692e-12 4.264757e-12 2.887853e-12 1.970802e-12 1.353179e-12 9.338614e-13 6.463306e-13 4.480467e-13 3.103916e-13 2.146541e-13 1.478970e-13 1.014511e-13 6.917408e-14 4.686784e-14 3.151428e-14 2.102986e-14 1.391313e-14 9.127932e-15 5.933530e-15 3.823149e-15 2.439914e-15 1.543119e-15 0 0 0 0 0 0 0 0 0 0 0 0 0 0 0 0 0 0 0 0 0 0 0 0 0 0 0 0 0 0 0 0 0 0 0 0 0 0 0 0 0 0 0 0 0 0 0 0 0 0 0 0 0 0 0 0 0 0 0 0 0 0 0 0 0 0 0 0 0 0 0 0 0 0 0 0 0 0 0 0 0 0 0 0 0 0 0 0 0 0 0 0 0 0 0 0 0 0 0 0 0 0 0 0 0 0 0 0 0 0 0 0 0 0 0 0 0 0 0 0 0 0 0 0 0 0 0 0 0 0 0 0 0 0 0 0 0 0 0 0 0 0 0 0 0 0 0 0 0 0 0 0 0 0 0 0 0 0 0 0 0 0 0 0 0 0 0 0 0 0 0 0 0 0 0 0 0 0 0 0 0 0 0 0 0 0 0 0 0 0 0 0 0 0 0 0 0 0 0 0 0 0 0 0 0 0 0 0 0 0 0 0 0 0 0 0 0 0 0 0 0 0 0 0 0 0 0 0 0 0 0 0 0 0 0 0 0 
0 0 0 0 0 0 0 0 0 0 0 0 0 0 0 0 0 0 0 0 0 0 0 0 0 0 0 0 0 0 1.116711e-15 2.023131e-14 3.222746e-13 4.570632e-12 5.327907e-11 5.139694e-10 3.821910e-09 2.203632e-08 9.868046e-08 3.600448e-07 1.038979e-06 2.519810e-06 5.184034e-06 9.343579e-06 1.521837e-05 2.252793e-05 3.134521e-05 4.036503e-05 4.958608e-05 5.654636e-05 6.144038e-05 6.193187e-05 5.890133e-05 5.201913e-05 4.302682e-05 3.312449e-05 2.388720e-05 1.617679e-05 1.038465e-05 6.391100e-06 3.885483e-06 2.426393e-06 1.632880e-06 1.261051e-06 1.165806e-06 1.270265e-06 1.542713e-06 1.980250e-06 2.596652e-06 3.413636e-06 4.451326e-06 5.721936e-06 7.219401e-06 8.916554e-06 1.075683e-05 1.266028e-05 1.452231e-05 1.623062e-05 1.767056e-05 1.874620e-05 1.938507e-05 1.955228e-05 1.924811e-05 1.850943e-05 1.740071e-05 1.600576e-05 1.441787e-05 1.272885e-05 1.102360e-05 9.371742e-06 7.828080e-06 6.428515e-06 5.194601e-06 4.132651e-06 3.239626e-06 2.503617e-06 1.908936e-06 1.436656e-06 1.068035e-06 7.846042e-07 5.699967e-07 4.096282e-07 2.914215e-07 2.053006e-07 1.433220e-07 9.917524e-08 6.807450e-08 4.636284e-08 3.135443e-08 2.106189e-08 1.406480e-08 9.340388e-09 6.174605e-09 4.065185e-09 2.668534e-09 1.747785e-09 1.143737e-09 7.485157e-10 4.907105e-10 3.226338e-10 2.131199e-10 1.416029e-10 9.478099e-11 6.395418e-11 4.353687e-11 2.989326e-11 2.069634e-11 1.442959e-11 1.011895e-11 7.123395e-12 5.025988e-12 3.546826e-12 2.499785e-12 1.756414e-12 1.228944e-12 8.550808e-13 5.912182e-13 4.057900e-13 2.763832e-13 1.866582e-13 1.249858e-13 8.292869e-14 5.452665e-14 3.551228e-14 2.291371e-14 1.464195e-14 9.268406e-15 5.809956e-15 3.607800e-15 2.218623e-15 1.351614e-15 0 0 0 0 0 0 0 0 0 0 0 0 0 0 0 0 0 0 0 0 0 0 0 0 0 0 0 0 0 0 0 0 0 0 0 0 0 0 0 0 0 0 0 0 0 0 0 0 0 0 0 0 0 0 0 0 0 0 0 0 0 0 0 0 0 0 0 0 0 0 0 0 0 0 0 0 0 0 0 0 0 0 0 0 0 0 0 0 0 0 0 0 0 0 0 0 0 0 0 0 0 0 0 0 0 0 0 0 0 0 0 0 0 0 0 0 0 0 0 0 0 0 0 0 0 0 0 0 0 0 0 0 0 0 0 0 0 0 0 0 0 0 0 0 0 0 0 0 0 0 0 0 0 0 0 0 0 0 0 0 0 0 0 0 0 0 0 0 0 0 0 0 0 0 0 0 0 0 0 0 0 0 0 0 0 0 0 0 0 0 0 0 0 0 0 0 0 0 0 0 0 0 0 0 0 0 0 0 0 0 0 0 0 0 0 0 0 0 0 0 0 0 0 0 0 0 0 0 0 0 0 0 0 
0 0 0 0 0 0 0 0 0 0 0 0 0 0 0 0 0 0 0 0 0 0 0 0 0 0 0 0 0 0 6.602344e-15 1.224508e-13 1.997296e-12 2.897050e-11 3.435913e-10 3.354844e-09 2.496882e-08 1.414294e-07 6.215080e-07 2.222640e-06 6.240896e-06 1.469644e-05 2.917188e-05 5.065051e-05 7.934617e-05 1.134020e-04 1.530664e-04 1.927851e-04 2.334949e-04 2.645899e-04 2.878040e-04 2.919699e-04 2.804442e-04 2.508383e-04 2.100473e-04 1.635609e-04 1.189170e-04 8.095194e-05 5.202188e-05 3.191173e-05 1.928039e-05 1.177707e-05 7.548239e-06 5.375875e-06 4.513802e-06 4.543183e-06 5.262016e-06 6.608589e-06 8.600024e-06 1.129944e-05 1.476801e-05 1.905035e-05 2.412060e-05 2.988702e-05 3.614172e-05 4.260380e-05 4.889361e-05 5.461898e-05 5.937462e-05 6.283851e-05 6.477182e-05 6.507827e-05 6.378479e-05 6.104341e-05 5.709917e-05 5.225041e-05 4.682532e-05 4.113011e-05 3.544831e-05 2.999789e-05 2.495223e-05 2.041269e-05 1.644066e-05 1.304258e-05 1.020188e-05 7.870793e-06 5.995371e-06 4.510027e-06 3.353794e-06 2.465792e-06 1.794163e-06 1.292085e-06 9.218613e-07 6.516313e-07 4.568025e-07 3.175789e-07 2.191880e-07 1.501880e-07 1.022782e-07 6.923036e-08 4.663407e-08 3.126737e-08 2.089617e-08 1.392524e-08 9.268609e-09 6.165827e-09 4.107437e-09 2.742548e-09 1.839319e-09 1.240239e-09 8.424484e-10 5.768007e-10 3.985571e-10 2.778412e-10 1.954336e-10 1.385099e-10 9.882149e-11 7.082108e-11 5.091046e-11 3.662305e-11 2.632824e-11 1.887486e-11 1.348079e-11 9.575617e-12 6.760833e-12 4.738396e-12 3.295982e-12 2.273017e-12 1.554290e-12 1.052933e-12 7.068757e-13 4.699382e-13 3.095202e-13 2.018370e-13 1.303809e-13 8.337925e-14 5.282030e-14 3.312680e-14 2.058183e-14 1.266054e-14 7.715986e-15 4.656256e-15 2.784257e-15 1.648691e-15 0 0 0 0 0 0 0 0 0 0 0 0 0 0 0 0 0 0 0 0 0 0 0 0 0 0 0 0 0 0 0 0 0 0 0 0 0 0 0 0 0 0 0 0 0 0 0 0 0 0 0 0 0 0 0 0 0 0 0 0 0 0 0 0 0 0 0 0 0 0 0 0 0 0 0 0 0 0 0 0 0 0 0 0 0 0 0 0 0 0 0 0 0 0 0 0 0 0 0 0 0 0 0 0 0 0 0 0 0 0 0 0 0 0 0 0 0 0 0 0 0 0 0 0 0 0 0 0 0 0 0 0 0 0 0 0 0 0 0 0 0 0 0 0 0 0 0 0 0 0 0 0 0 0 0 0 0 0 0 0 0 0 0 0 0 0 0 0 0 0 0 0 0 0 0 0 0 0 0 0 0 0 0 0 0 0 0 0 0 0 0 0 0 0 0 0 0 0 0 0 0 0 0 0 0 0 0 0 0 0 0 0 0 0 0 0 0 0 0 0 0 0 0 0 0 0 0 0 0 0 