# vtk DataFile Version 2.0
Comment goes here
ASCII

DATASET STRUCTURED_POINTS
FIELD FieldData 1
TIME 1 1 double
1.45000000
DIMENSIONS    384   64   1

ORIGIN    0.000   0.000   0.000
SPACING   0.078125 0.078125   1.000

POINT_DATA   24576
SCALARS Concentration double
LOOKUP_TABLE default

0 0 0 0 0 0 0 0 0 0 0 0 0 0 0 0 0 0 0 0 0 0 0 0 0 0 0 0 0 0 0 0 0 0 0 0 0 0 0 0 0 0 0 0 0 0 0 0 0 0 0 0 0 0 0 0 0 0 0 0 0 0 0 0 0 0 0 0 0 0 0 0 0 0 0 0 0 0 0 0 0 0 0 0 0 0 0 0 0 0 0 0 0 0 0 0 0 0 0 0 0 0 0 0 0 0 0 0 0 0 0 0 0 0 0 0 0 0 0 0 0 0 0 0 0 0 0 0 0 0 0 0 0 0 0 0 0 0 0 0 0 0 0 0 0 0 0 0 0 0 0 0 0 0 0 0 0 0 0 0 0 0 0 0 0 0 0 0 0 0 0 0 0 0 0 0 0 0 0 0 0 0 0 0 0 0 0 0 0 0 0 0 0 0 0 0 0 0 0 0 0 0 0 0 0 0 0 0 0 0 0 0 0 0 0 0 0 0 0 0 0 0 0 0 0 0 0 0 0 0 0 0 0 0 0 0 0 0 0 0 0 0 0 0 0 0 0 0 0 0 0 0 0 0 0 0 0 0 0 0 0 0 0 0 0 0 0 0 0 0 0 0 0 0 0 0 0 0 0 0 0 0 0 0 0 0 0 0 0 0 0 0 0 0 0 0 0 0 0 0 0 0 0 0 0 0 0 0 0 0 0 0 0 0 0 0 0 0 0 0 0 0 0 0 0 0 0 0 0 0 0 0 0 0 0 0 0 0 0 0 0 0 0 0 0 0 0 0 0 0 0 0 0 0 0 0 0 0 0 0 0 0 0 0 0 0 0 0 0 0 0 0 0 0 0 0 0 0 0 0 0 0 0 0 
0 0 0 0 0 0 0 0 0 0 0 0 0 0 0 0 0 0 0 0 0 0 0 0 0 0 0 0 0 0 0 0 0 0 0 0 0 0 0 0 0 0 0 0 0 0 0 0 0 0 0 0 0 0 0 0 0 0 0 0 0 0 0 0 0 0 0 0 0 0 0 0 0 0 0 0 0 0 0 0 0 0 0 0 0 0 0 0 0 0 0 0 0 0 0 0 0 0 0 0 0 0 0 0 0 0 0 0 0 0 0 0 0 0 0 0 0 0 0 0 0 0 0 0 0 0 0 0 0 0 0 0 0 0 0 0 0 0 0 0 0 0 0 0 0 0 0 0 0 0 0 0 0 0 0 0 0 0 0 0 0 0 0 0 0 0 0 0 0 0 0 0 0 0 0 0 0 0 0 0 0 0 0 0 0 0 0 0 0 0 0 0 0 0 0 0 0 0 0 0 0 0 0 0 0 0 0 0 0 0 0 0 0 0 0 0 0 0 0 0 0 0 0 0 0 0 0 0 0 0 0 0 0 0 0 0 0 0 0 0 0 0 0 0 0 0 0 0 0 0 0 0 0 0 0 0 0 0 0 0 0 0 0 0 0 0 0 0 0 0 0 0 0 0 0 0 0 0 0 0 0 0 0 0 0 0 0 0 0 0 0 0 0 0 0 0 0 0 0 0 0 0 0 0 0 0 0 0 0 0 0 0 0 0 0 0 0 0 0 0 0 0 0 0 0 0 0 0 0 0 0 0 0 0 0 0 0 0 0 0 0 0 0 0 0 0 0 0 0 0 0 0 0 0 0 0 0 0 0 0 0 0 0 0 0 0 0 0 0 0 0 0 0 0 0 0 0 0 0 0 0 0 0 0 
0 0 0 0 0 0 0 0 0 0 0 0 0 0 0 0 0 0 0 0 0 0 0 0 0 0 0 0 0 0 0 0 0 0 0 0 0 0 0 0 0 0 0 0 0 0 0 0 0 0 0 0 0 0 0 0 0 0 0 0 0 0 0 0 0 0 0 0 0 0 0 0 0 0 0 0 0 0 0 0 0 0 0 0 0 0 0 0 0 0 0 0 0 0 0 0 0 0 0 0 0 0 0 0 0 0 0 0 0 0 0 0 0 0 0 0 0 0 0 0 0 0 0 0 0 0 0 0 0 0 0 0 0 0 0 0 0 0 0 0 0 0 0 0 0 0 0 0 0 0 0 0 0 0 0 0 0 0 0 0 0 0 0 0 0 0 0 0 0 0 0 0 0 0 0 0 0 0 0 0 0 0 0 0 0 0 0 0 0 0 0 0 0 0 0 0 0 0 0 0 0 0 0 0 0 0 0 0 0 0 0 0 0 0 0 0 0 0 0 0 0 0 0 0 0 0 0 0 0 0 0 0 0 0 0 0 0 0 0 0 0 0 0 0 0 0 0 0 0 0 0 0 0 0 0 0 0 0 0 0 0 0 0 0 0 0 0 0 0 0 0 0 0 0 0 0 0 0 0 0 0 0 0 0 0 0 0 0 0 0 0 0 0 0 0 0 0 0 0 0 0 0 0 0 0 0 0 0 0 0 0 0 0 0 0 0 0 0 0 0 0 0 0 0 0 0 0 0 0 0 0 0 0 0 0 0 0 0 0 0 0 0 0 0 0 0 0 0 0 0 0 0 0 0 0 0 0 0 0 0 0 0 0 0 0 0 0 0 0 0 0 0 0 0 0 0 0 0 0 0 0 0 0 0 
0 0 0 0 0 0 0 0 0 0 0 0 0 0 0 0 0 0 0 0 0 0 0 0 0 0 0 0 0 0 0 0 0 0 0 0 0 0 0 0 0 0 0 0 0 0 0 0 0 0 0 0 0 0 0 0 0 0 0 0 0 0 0 0 0 1.009733e-15 1.207816e-15 1.408436e-15 1.595690e-15 1.763337e-15 1.895795e-15 1.989034e-15 2.032839e-15 2.028559e-15 1.974182e-15 1.876992e-15 1.742354e-15 1.581139e-15 1.402410e-15 1.216887e-15 1.033117e-15 0 0 0 0 0 0 0 0 0 0 0 0 0 0 0 0 0 0 0 0 0 0 0 0 0 0 0 0 0 0 0 0 0 0 0 0 0 0 0 0 0 0 0 0 0 0 0 0 0 0 0 0 0 0 0 0 0 0 0 0 0 0 0 0 0 0 0 0 0 0 0 0 0 0 0 0 0 0 0 0 0 0 0 0 0 0 0 0 0 0 0 0 0 0 0 0 0 0 0 0 0 0 0 0 0 0 0 0 0 0 0 0 0 0 0 0 0 0 0 0 0 0 0 0 0 0 0 0 0 0 0 0 0 0 0 0 0 0 0 0 0 0 0 0 0 0 0 0 0 0 0 0 0 0 0 0 0 0 0 0 0 0 0 0 0 0 0 0 0 0 0 0 0 0 0 0 0 0 0 0 0 0 0 0 0 0 0 0 0 0 0 0 0 0 0 0 0 0 0 0 0 0 0 0 0 0 0 0 0 0 0 0 0 0 0 0 0 0 0 0 0 0 0 0 0 0 0 0 0 0 0 0 0 0 0 0 0 0 0 0 0 0 0 0 0 0 0 0 0 0 0 0 0 0 0 0 0 0 0 0 0 0 0 0 0 0 0 0 0 0 0 0 0 0 0 0 0 0 0 0 0 0 0 0 0 0 0 0 0 0 0 0 0 0 0 0 0 0 0 0 0 0 0 
0 0 0 0 0 0 0 0 0 0 0 0 0 0 0 0 0 0 0 0 0 0 0 0 0 0 0 0 0 0 0 0 0 0 0 0 0 0 0 0 0 0 0 0 0 0 0 0 0 0 0 0 0 0 0 0 0 0 1.091501e-15 1.609996e-15 2.290632e-15 3.169068e-15 4.238782e-15 5.518967e-15 6.961016e-15 8.553229e-15 1.019832e-14 1.185302e-14 1.338807e-14 1.474814e-14 1.580987e-14 1.653803e-14 1.685589e-14 1.677426e-14 1.628414e-14 1.544577e-14 1.430853e-14 1.296124e-14 1.147987e-14 9.950215e-15 8.440741e-15 7.010975e-15 5.702852e-15 4.543506e-15 3.546483e-15 2.712445e-15 2.033819e-15 1.495295e-15 1.078765e-15 0 0 0 0 0 0 0 0 0 0 0 0 0 0 0 0 0 0 0 0 0 0 0 0 0 0 0 0 0 0 0 0 0 0 0 0 0 0 0 0 0 0 0 0 0 0 0 0 0 0 0 0 0 0 0 0 0 0 0 0 0 0 0 0 0 0 0 0 0 0 0 0 0 0 0 0 0 0 0 0 0 0 0 0 0 0 0 0 0 0 0 0 0 0 0 0 0 0 0 0 0 0 0 0 0 0 0 0 0 0 0 0 0 0 0 0 0 0 0 0 0 0 0 0 0 0 0 0 0 0 0 0 0 0 0 0 0 0 0 0 0 0 0 0 0 0 0 0 0 0 0 0 0 0 0 0 0 0 0 0 0 0 0 0 0 0 0 0 0 0 0 0 0 0 0 0 0 0 0 0 0 0 0 0 0 0 0 0 0 0 0 0 0 0 0 0 0 0 0 0 0 0 0 0 0 0 0 0 0 0 0 0 0 0 0 0 0 0 0 0 0 0 0 0 0 0 0 0 0 0 0 0 0 0 0 0 0 0 0 0 0 0 0 0 0 0 0 0 0 0 0 0 0 0 0 0 0 0 0 0 0 0 0 0 0 0 0 0 0 0 0 0 0 0 0 0 0 0 0 0 0 0 0 0 0 0 0 0 0 0 0 0 0 0 0 
0 0 0 0 0 0 0 0 0 0 0 0 0 0 0 0 0 0 0 0 0 0 0 0 0 0 0 0 0 0 0 0 0 0 0 0 0 0 0 0 0 0 0 0 0 0 0 0 0 0 0 0 0 0 1.385604e-15 2.336341e-15 3.780299e-15 5.933732e-15 8.963452e-15 1.315802e-14 1.863689e-14 2.568418e-14 3.422990e-14 4.442489e-14 5.586485e-14 6.845276e-14 8.140700e-14 9.437860e-14 1.063522e-13 1.168842e-13 1.250310e-13 1.305089e-13 1.327633e-13 1.318714e-13 1.278200e-13 1.210666e-13 1.120457e-13 1.014175e-13 8.979716e-14 7.780416e-14 6.598204e-14 5.476429e-14 4.450330e-14 3.540329e-14 2.759187e-14 2.106490e-14 1.576983e-14 1.157544e-14 8.340795e-15 5.898966e-15 4.100155e-15 2.800313e-15 1.881836e-15 1.244066e-15 0 0 0 0 0 0 0 0 0 0 0 0 0 0 0 0 0 0 0 0 0 0 0 0 0 0 0 0 0 0 0 0 0 0 0 0 0 0 0 0 0 0 0 0 0 0 0 0 0 0 0 0 0 0 0 0 0 0 0 0 0 0 0 0 0 0 0 0 0 0 0 0 0 0 0 0 0 0 0 0 0 0 0 0 0 0 0 0 0 0 0 0 0 0 0 0 0 0 0 0 0 0 0 0 0 0 0 0 0 0 0 0 0 0 0 0 0 0 0 0 0 0 0 0 0 0 0 0 0 0 0 0 0 0 0 0 0 0 0 0 0 0 0 0 0 0 0 0 0 0 0 0 0 0 0 0 0 0 0 0 0 0 0 0 0 0 0 0 0 0 0 0 0 0 0 0 0 0 0 0 0 0 0 0 0 0 0 0 0 0 0 0 0 0 0 0 0 0 0 0 0 0 0 0 0 0 0 0 0 0 0 0 0 0 0 0 0 0 0 0 0 0 0 0 0 0 0 0 0 0 0 0 0 0 0 0 0 0 0 0 0 0 0 0 0 0 0 0 0 0 0 0 0 0 0 0 0 0 0 0 0 0 0 0 0 0 0 0 0 0 0 0 0 0 0 0 0 0 0 0 0 0 0 0 0 0 0 0 0 0 
0 0 0 0 0 0 0 0 0 0 0 0 0 0 0 0 0 0 0 0 0 0 0 0 0 0 0 0 0 0 0 0 0 0 0 0 0 0 0 0 0 0 0 0 0 0 0 0 0 0 0 1.902220e-15 3.546898e-15 6.391139e-15 1.103238e-14 1.845040e-14 2.964281e-14 4.623575e-14 6.946653e-14 1.014818e-13 1.431500e-13 1.965479e-13 2.611286e-13 3.379166e-13 4.238976e-13 5.181747e-13 6.149861e-13 7.115019e-13 8.003314e-13 8.779407e-13 9.376014e-13 9.770339e-13 9.924994e-13 9.844930e-13 9.532934e-13 9.022188e-13 8.346472e-13 7.552175e-13 6.683982e-13 5.786498e-13 4.900950e-13 4.060779e-13 3.293311e-13 2.614416e-13 2.033259e-13 1.549278e-13 1.157724e-13 8.485193e-14 6.105897e-14 4.314297e-14 2.996470e-14 2.045954e-14 1.374815e-14 9.093077e-15 5.926228e-15 3.806403e-15 2.412165e-15 1.508473e-15 0 0 0 0 0 0 0 0 0 0 0 0 0 0 0 0 0 0 0 0 0 0 0 0 0 0 0 0 0 0 0 0 0 0 0 0 0 0 0 0 0 0 0 0 0 0 0 0 0 0 0 0 0 0 0 0 0 0 0 0 0 0 0 0 0 0 0 0 0 0 0 0 0 0 0 0 0 0 0 0 0 0 0 0 0 0 0 0 0 0 0 0 0 0 0 0 0 0 0 0 0 0 0 0 0 0 0 0 0 0 0 0 0 0 0 0 0 0 0 0 0 0 0 0 0 0 0 0 0 0 0 0 0 0 0 0 0 0 0 0 0 0 0 0 0 0 0 0 0 0 0 0 0 0 0 0 0 0 0 0 0 0 0 0 0 0 0 0 0 0 0 0 0 0 0 0 0 0 0 0 0 0 0 0 0 0 0 0 0 0 0 0 0 0 0 0 0 0 0 0 0 0 0 0 0 0 0 0 0 0 0 0 0 0 0 0 0 0 0 0 0 0 0 0 0 0 0 0 0 0 0 0 0 0 0 0 0 0 0 0 0 0 0 0 0 0 0 0 0 0 0 0 0 0 0 0 0 0 0 0 0 0 0 0 0 0 0 0 0 0 0 0 0 0 0 0 0 0 0 0 0 0 0 0 0 0 
0 0 0 0 0 0 0 0 0 0 0 0 0 0 0 0 0 0 0 0 0 0 0 0 0 0 0 0 0 0 0 0 0 0 0 0 0 0 0 0 0 0 0 0 0 0 0 0 1.868071e-15 3.865488e-15 7.671140e-15 1.473636e-14 2.710511e-14 4.829601e-14 8.252914e-14 1.368785e-13 2.182503e-13 3.383312e-13 5.054859e-13 7.351529e-13 1.032840e-12 1.413582e-12 1.872746e-12 2.417942e-12 3.027147e-12 3.694196e-12 4.378002e-12 5.058376e-12 5.683417e-12 6.227605e-12 6.644737e-12 6.918040e-12 7.023452e-12 6.963576e-12 6.742710e-12 6.381551e-12 5.904262e-12 5.340287e-12 4.722823e-12 4.082788e-12 3.452246e-12 2.854602e-12 2.310681e-12 1.830650e-12 1.421312e-12 1.081180e-12 8.069157e-13 5.907052e-13 4.247700e-13 2.999580e-13 2.083240e-13 1.422566e-13 9.565849e-14 6.332527e-14 4.133400e-14 2.659531e-14 1.689480e-14 1.059375e-14 6.567289e-15 4.024118e-15 2.441197e-15 1.465893e-15 0 0 0 0 0 0 0 0 0 0 0 0 0 0 0 0 0 0 0 0 0 0 0 0 0 0 0 0 0 0 0 0 0 0 0 0 0 0 0 0 0 0 0 0 0 0 0 0 0 0 0 0 0 0 0 0 0 0 0 0 0 0 0 0 0 0 0 0 0 0 0 0 0 0 0 0 0 0 0 0 0 0 0 0 0 0 0 0 0 0 0 0 0 0 0 0 0 0 0 0 0 0 0 0 0 0 0 0 0 0 0 0 0 0 0 0 0 0 0 0 0 0 0 0 0 0 0 0 0 0 0 0 0 0 0 0 0 0 0 0 0 0 0 0 0 0 0 0 0 0 0 0 0 0 0 0 0 0 0 0 0 0 0 0 0 0 0 0 0 0 0 0 0 0 0 0 0 0 0 0 0 0 0 0 0 0 0 0 0 0 0 0 0 0 0 0 0 0 0 0 0 0 0 0 0 0 0 0 0 0 0 0 0 0 0 0 0 0 0 0 0 0 0 0 0 0 0 0 0 0 0 0 0 0 0 0 0 0 0 0 0 0 0 0 0 0 0 0 0 0 0 0 0 0 0 0 0 0 0 0 0 0 0 0 0 0 0 0 0 0 0 0 0 0 0 0 0 0 0 0 0 0 
0 0 0 0 0 0 0 0 0 0 0 0 0 0 0 0 0 0 0 0 0 0 0 0 0 0 0 0 0 0 0 0 0 0 0 0 0 0 0 0 0 0 0 0 0 1.643955e-15 3.454258e-15 7.212344e-15 1.475031e-14 2.958653e-14 5.733608e-14 1.080649e-13 1.957307e-13 3.442815e-13 5.819718e-13 9.563717e-13 1.513077e-12 2.330147e-12 3.462295e-12 5.012254e-12 7.015804e-12 9.572378e-12 1.265154e-11 1.630158e-11 2.037851e-11 2.483539e-11 2.940432e-11 3.394082e-11 3.810867e-11 4.172601e-11 4.449947e-11 4.630832e-11 4.700974e-11 4.660899e-11 4.513862e-11 4.271340e-11 3.949406e-11 3.567433e-11 3.149265e-11 2.716554e-11 2.291712e-11 1.890600e-11 1.526944e-11 1.207258e-11 9.355374e-12 7.105195e-12 5.295328e-12 3.872477e-12 2.782392e-12 1.964138e-12 1.363968e-12 9.317999e-13 6.270134e-13 4.156174e-13 2.717163e-13 1.752221e-13 1.115960e-13 7.020382e-14 4.367711e-14 2.687903e-14 1.638188e-14 9.890272e-15 5.921980e-15 3.517707e-15 2.075390e-15 1.216515e-15 0 0 0 0 0 0 0 0 0 0 0 0 0 0 0 0 0 0 0 0 0 0 0 0 0 0 0 0 0 0 0 0 0 0 0 0 0 0 0 0 0 0 0 0 0 0 0 0 0 0 0 0 0 0 0 0 0 0 0 0 0 0 0 0 0 0 0 0 0 0 0 0 0 0 0 0 0 0 0 0 0 0 0 0 0 0 0 0 0 0 0 0 0 0 0 0 0 0 0 0 0 0 0 0 0 0 0 0 0 0 0 0 0 0 0 0 0 0 0 0 0 0 0 0 0 0 0 0 0 0 0 0 0 0 0 0 0 0 0 0 0 0 0 0 0 0 0 0 0 0 0 0 0 0 0 0 0 0 0 0 0 0 0 0 0 0 0 0 0 0 0 0 0 0 0 0 0 0 0 0 0 0 0 0 0 0 0 0 0 0 0 0 0 0 0 0 0 0 0 0 0 0 0 0 0 0 0 0 0 0 0 0 0 0 0 0 0 0 0 0 0 0 0 0 0 0 0 0 0 0 0 0 0 0 0 0 0 0 0 0 0 0 0 0 0 0 0 0 0 0 0 0 0 0 0 0 0 0 0 0 0 0 0 0 0 0 0 0 0 0 0 0 0 0 0 0 0 0 
0 0 0 0 0 0 0 0 0 0 0 0 0 0 0 0 0 0 0 0 0 0 0 0 0 0 0 0 0 0 0 0 0 0 0 0 0 0 0 0 0 0 2.055654e-15 4.093536e-15 7.928189e-15 1.529711e-14 2.957038e-14 5.768407e-14 1.119211e-13 2.158247e-13 4.058935e-13 7.479093e-13 1.330025e-12 2.306166e-12 3.850474e-12 6.266210e-12 9.828657e-12 1.503529e-11 2.220924e-11 3.201010e-11 4.463679e-11 6.073903e-11 8.010217e-11 1.030605e-10 1.286948e-10 1.567311e-10 1.854836e-10 2.140393e-10 2.403047e-10 2.631099e-10 2.806728e-10 2.921901e-10 2.968239e-10 2.944338e-10 2.851969e-10 2.696966e-10 2.490792e-10 2.245764e-10 1.978646e-10 1.702962e-10 1.433697e-10 1.180251e-10 9.515214e-11 7.509697e-11 5.811495e-11 4.407978e-11 3.282459e-11 2.398803e-11 1.723285e-11 1.216529e-11 8.453287e-12 5.779800e-12 3.895097e-12 2.586423e-12 1.695068e-12 1.096100e-12 7.005110e-13 4.423465e-13 2.764492e-13 1.709489e-13 1.047694e-13 6.362457e-14 3.834890e-14 2.293675e-14 1.363551e-14 8.055456e-15 4.736838e-15 2.771969e-15 1.616907e-15 0 0 0 0 0 0 0 0 0 0 0 0 0 0 0 0 0 0 0 0 0 0 0 0 0 0 0 0 0 0 0 0 0 0 0 0 0 0 0 0 0 0 0 0 0 0 0 0 0 0 0 0 0 0 0 0 0 0 0 0 0 0 0 0 0 0 0 0 0 0 0 0 0 0 0 0 0 0 0 0 0 0 0 0 0 0 0 0 0 0 0 0 0 0 0 0 0 0 0 0 0 0 0 0 0 0 0 0 0 0 0 0 0 0 0 0 0 0 0 0 0 0 0 0 0 0 0 0 0 0 0 0 0 0 0 0 0 0 0 0 0 0 0 0 0 0 0 0 0 0 0 0 0 0 0 0 0 0 0 0 0 0 0 0 0 0 0 0 0 0 0 0 0 0 0 0 0 0 0 0 0 0 0 0 0 0 0 0 0 0 0 0 0 0 0 0 0 0 0 0 0 0 0 0 0 0 0 0 0 0 0 0 0 0 0 0 0 0 0 0 0 0 0 0 0 0 0 0 0 0 0 0 0 0 0 0 0 0 0 0 0 0 0 0 0 0 0 0 0 0 0 0 0 0 0 0 0 0 0 0 0 0 0 0 0 0 0 0 0 0 0 0 0 0 0 
0 0 0 0 0 0 0 0 0 0 0 0 0 0 0 0 0 0 0 0 0 0 0 0 0 0 0 0 0 0 0 0 0 0 0 0 0 0 0 2.599199e-15 6.373938e-15 1.367399e-14 2.655165e-14 4.815302e-14 8.407146e-14 1.456734e-13 2.547549e-13 4.558660e-13 8.265101e-13 1.513904e-12 2.741472e-12 4.909965e-12 8.543878e-12 1.456366e-11 2.398271e-11 3.859682e-11 5.998566e-11 9.108809e-11 1.337485e-10 1.918740e-10 2.666122e-10 3.618275e-10 4.763245e-10 6.120660e-10 7.638221e-10 9.298160e-10 1.100393e-09 1.269797e-09 1.426095e-09 1.561929e-09 1.667338e-09 1.736718e-09 1.765060e-09 1.750364e-09 1.693954e-09 1.599204e-09 1.473887e-09 1.325672e-09 1.165097e-09 1.000257e-09 8.400822e-10 6.900191e-10 5.551347e-10 4.373303e-10 3.378857e-10 2.559612e-10 1.904106e-10 1.390728e-10 9.988064e-11 7.052751e-11 4.903532e-11 3.356683e-11 2.265563e-11 1.507681e-11 9.906082e-12 6.426570e-12 4.122038e-12 2.614252e-12 1.641487e-12 1.020585e-12 6.290984e-13 3.845298e-13 2.333487e-13 1.406186e-13 8.424597e-14 5.019182e-14 2.977067e-14 1.758475e-14 1.035543e-14 6.081813e-15 3.566561e-15 2.089444e-15 1.224525e-15 0 0 0 0 0 0 0 0 0 0 0 0 0 0 0 0 0 0 0 0 0 0 0 0 0 0 0 0 0 0 0 0 0 0 0 0 0 0 0 0 0 0 0 0 0 0 0 0 0 0 0 0 0 0 0 0 0 0 0 0 0 0 0 0 0 0 0 0 0 0 0 0 0 0 0 0 0 0 0 0 0 0 0 0 0 0 0 0 0 0 0 0 0 0 0 0 0 0 0 0 0 0 0 0 0 0 0 0 0 0 0 0 0 0 0 0 0 0 0 0 0 0 0 0 0 0 0 0 0 0 0 0 0 0 0 0 0 0 0 0 0 0 0 0 0 0 0 0 0 0 0 0 0 0 0 0 0 0 0 0 0 0 0 0 0 0 0 0 0 0 0 0 0 0 0 0 0 0 0 0 0 0 0 0 0 0 0 0 0 0 0 0 0 0 0 0 0 0 0 0 0 0 0 0 0 0 0 0 0 0 0 0 0 0 0 0 0 0 0 0 0 0 0 0 0 0 0 0 0 0 0 0 0 0 0 0 0 0 0 0 0 0 0 0 0 0 0 0 0 0 0 0 0 0 0 0 0 0 0 0 0 0 0 0 0 0 0 0 0 0 0 
0 0 0 0 0 0 0 0 0 0 0 0 0 0 0 0 0 0 0 0 0 0 0 0 0 0 0 0 0 0 0 0 0 0 0 0 0 4.010488e-15 1.395661e-14 3.921733e-14 9.310313e-14 1.905499e-13 3.475802e-13 5.817119e-13 9.217048e-13 1.430754e-12 2.234671e-12 3.601153e-12 5.983961e-12 1.025289e-11 1.767345e-11 3.054830e-11 5.174465e-11 8.645681e-11 1.400643e-10 2.226344e-10 3.423646e-10 5.157890e-10 7.522913e-10 1.074139e-09 1.486867e-09 2.013056e-09 2.645632e-09 3.396943e-09 4.238013e-09 5.159978e-09 6.109737e-09 7.055361e-09 7.931892e-09 8.696778e-09 9.294897e-09 9.688071e-09 9.846907e-09 9.755807e-09 9.427560e-09 8.881481e-09 8.167650e-09 7.328331e-09 6.426118e-09 5.503969e-09 4.613146e-09 3.781351e-09 3.037136e-09 2.388843e-09 1.843586e-09 1.395232e-09 1.037477e-09 7.575931e-10 5.443126e-10 3.846038e-10 2.677591e-10 1.835937e-10 1.242072e-10 8.287916e-11 5.464180e-11 3.558228e-11 2.292578e-11 1.461022e-11 9.225021e-12 5.769380e-12 3.579845e-12 2.203216e-12 1.347155e-12 8.181640e-13 4.943388e-13 2.970808e-13 1.778626e-13 1.060664e-13 6.310473e-14 3.745457e-14 2.221591e-14 1.317038e-14 7.819194e-15 4.650969e-15 2.777857e-15 1.667085e-15 1.007583e-15 0 0 0 0 0 0 0 0 0 0 0 0 0 0 0 0 0 0 0 0 0 0 0 0 0 0 0 0 0 0 0 0 0 0 0 0 0 0 0 0 0 0 0 0 0 0 0 0 0 0 0 0 0 0 0 0 0 0 0 0 0 0 0 0 0 0 0 0 0 0 0 0 0 0 0 0 0 0 0 0 0 0 0 0 0 0 0 0 0 0 0 0 0 0 0 0 0 0 0 0 0 0 0 0 0 0 0 0 0 0 0 0 0 0 0 0 0 0 0 0 0 0 0 0 0 0 0 0 0 0 0 0 0 0 0 0 0 0 0 0 0 0 0 0 0 0 0 0 0 0 0 0 0 0 0 0 0 0 0 0 0 0 0 0 0 0 0 0 0 0 0 0 0 0 0 0 0 0 0 0 0 0 0 0 0 0 0 0 0 0 0 0 0 0 0 0 0 0 0 0 0 0 0 0 0 0 0 0 0 0 0 0 0 0 0 0 0 0 0 0 0 0 0 0 0 0 0 0 0 0 0 0 0 0 0 0 0 0 0 0 0 0 0 0 0 0 0 0 0 0 0 0 0 0 0 0 0 0 0 0 0 0 0 0 0 0 0 
0 0 0 0 0 0 0 0 0 0 0 0 0 0 0 0 0 0 0 0 0 0 0 0 0 0 0 0 0 0 0 0 0 0 0 2.414185e-15 1.371539e-14 5.894369e-14 2.046811e-13 5.657595e-13 1.310868e-12 2.587567e-12 4.500835e-12 7.069254e-12 1.033207e-11 1.451189e-11 2.022774e-11 2.897657e-11 4.327955e-11 6.800164e-11 1.099113e-10 1.813747e-10 2.970864e-10 4.842696e-10 7.696958e-10 1.205666e-09 1.832357e-09 2.735812e-09 3.962089e-09 5.628036e-09 7.761817e-09 1.048325e-08 1.375948e-08 1.765641e-08 2.203207e-08 2.683713e-08 3.180814e-08 3.676889e-08 4.139549e-08 4.543232e-08 4.858545e-08 5.061485e-08 5.138265e-08 5.080158e-08 4.897493e-08 4.601046e-08 4.219501e-08 3.775082e-08 3.301229e-08 2.819980e-08 2.357672e-08 1.928167e-08 1.545497e-08 1.213519e-08 9.351791e-09 7.070480e-09 5.254012e-09 3.836196e-09 2.756910e-09 1.949732e-09 1.359133e-09 9.337594e-10 6.332234e-10 4.238448e-10 2.804192e-10 1.833842e-10 1.187017e-10 7.605303e-11 4.829466e-11 3.039822e-11 1.898886e-11 1.177373e-11 7.254549e-12 4.442924e-12 2.707661e-12 1.642438e-12 9.927920e-13 5.981952e-13 3.597311e-13 2.160116e-13 1.297033e-13 7.793506e-14 4.694077e-14 2.837081e-14 1.723925e-14 1.054408e-14 6.502741e-15 4.046856e-15 2.543786e-15 1.614591e-15 1.034476e-15 0 0 0 0 0 0 0 0 0 0 0 0 0 0 0 0 0 0 0 0 0 0 0 0 0 0 0 0 0 0 0 0 0 0 0 0 0 0 0 0 0 0 0 0 0 0 0 0 0 0 0 0 0 0 0 0 0 0 0 0 0 0 0 0 0 0 0 0 0 0 0 0 0 0 0 0 0 0 0 0 0 0 0 0 0 0 0 0 0 0 0 0 0 0 0 0 0 0 0 0 0 0 0 0 0 0 0 0 0 0 0 0 0 0 0 0 0 0 0 0 0 0 0 0 0 0 0 0 0 0 0 0 0 0 0 0 0 0 0 0 0 0 0 0 0 0 0 0 0 0 0 0 0 0 0 0 0 0 0 0 0 0 0 0 0 0 0 0 0 0 0 0 0 0 0 0 0 0 0 0 0 0 0 0 0 0 0 0 0 0 0 0 0 0 0 0 0 0 0 0 0 0 0 0 0 0 0 0 0 0 0 0 0 0 0 0 0 0 0 0 0 0 0 0 0 0 0 0 0 0 0 0 0 0 0 0 0 0 0 0 0 0 0 0 0 0 0 0 0 0 0 0 0 0 0 0 0 0 0 0 0 0 0 
0 0 0 0 0 0 0 0 0 0 0 0 0 0 0 0 0 0 0 0 0 0 0 0 0 0 0 0 0 0 0 0 0 0 4.571738e-15 3.214250e-14 1.872522e-13 8.091666e-13 2.803631e-12 7.642810e-12 1.736173e-11 3.332253e-11 5.591476e-11 8.373844e-11 1.150350e-10 1.490012e-10 1.876926e-10 2.391154e-10 3.166638e-10 4.470668e-10 6.641860e-10 1.031496e-09 1.617507e-09 2.557116e-09 3.969591e-09 6.111906e-09 9.158416e-09 1.353461e-08 1.943797e-08 2.745615e-08 3.770667e-08 5.080975e-08 6.660502e-08 8.546042e-08 1.067048e-07 1.301320e-07 1.544913e-07 1.788800e-07 2.016878e-07 2.214894e-07 2.368187e-07 2.463968e-07 2.496896e-07 2.462689e-07 2.368228e-07 2.218654e-07 2.029277e-07 1.810469e-07 1.579209e-07 1.345535e-07 1.122471e-07 9.160288e-08 7.330024e-08 5.746825e-08 4.424472e-08 3.342787e-08 2.483828e-08 1.814008e-08 1.304894e-08 9.240572e-09 6.454788e-09 4.445458e-09 3.024358e-09 2.031612e-09 1.349992e-09 8.870077e-10 5.772833e-10 3.720088e-10 2.377685e-10 1.506765e-10 9.482940e-11 5.925400e-11 3.681926e-11 2.274606e-11 1.399316e-11 8.570894e-12 5.235538e-12 3.189348e-12 1.941017e-12 1.180393e-12 7.187531e-13 4.384437e-13 2.685554e-13 1.653030e-13 1.024908e-13 6.405223e-14 4.042406e-14 2.576021e-14 1.658708e-14 1.077708e-14 7.061111e-15 4.653905e-15 3.081141e-15 2.043222e-15 1.355110e-15 0 0 0 0 0 0 0 0 0 0 0 0 0 0 0 0 0 0 0 0 0 0 0 0 0 0 0 0 0 0 0 0 0 0 0 0 0 0 0 0 0 0 0 0 0 0 0 0 0 0 0 0 0 0 0 0 0 0 0 0 0 0 0 0 0 0 0 0 0 0 0 0 0 0 0 0 0 0 0 0 0 0 0 0 0 0 0 0 0 0 0 0 0 0 0 0 0 0 0 0 0 0 0 0 0 0 0 0 0 0 0 0 0 0 0 0 0 0 0 0 0 0 0 0 0 0 0 0 0 0 0 0 0 0 0 0 0 0 0 0 0 0 0 0 0 0 0 0 0 0 0 0 0 0 0 0 0 0 0 0 0 0 0 0 0 0 0 0 0 0 0 0 0 0 0 0 0 0 0 0 0 0 0 0 0 0 0 0 0 0 0 0 0 0 0 0 0 0 0 0 0 0 0 0 0 0 0 0 0 0 0 0 0 0 0 0 0 0 0 0 0 0 0 0 0 0 0 0 0 0 0 0 0 0 0 0 0 0 0 0 0 0 0 0 0 0 0 0 0 0 0 0 0 0 0 0 0 0 0 
0 0 0 0 0 0 0 0 0 0 0 0 0 0 0 0 0 0 0 0 0 0 0 0 0 0 0 0 0 0 0 0 0 5.902065e-15 5.500211e-14 3.975633e-13 2.373492e-12 1.027928e-11 3.552174e-11 9.548115e-11 2.131878e-10 3.996111e-10 6.520289e-10 9.418270e-10 1.235968e-09 1.506314e-09 1.751144e-09 2.013738e-09 2.367094e-09 2.961442e-09 3.961932e-09 5.681385e-09 8.416868e-09 1.279085e-08 1.929124e-08 2.908628e-08 4.287821e-08 6.261091e-08 8.909679e-08 1.250554e-07 1.710178e-07 2.299014e-07 3.011236e-07 3.864525e-07 4.831327e-07 5.901226e-07 7.019548e-07 8.136947e-07 9.178502e-07 1.007006e-06 1.074963e-06 1.115609e-06 1.127404e-06 1.108384e-06 1.062435e-06 9.919213e-07 9.042220e-07 8.040150e-07 6.990695e-07 5.938158e-07 4.939778e-07 4.021194e-07 3.210674e-07 2.512838e-07 1.931988e-07 1.458520e-07 1.083353e-07 7.914578e-08 5.697726e-08 4.040963e-08 2.828315e-08 1.953244e-08 1.333087e-08 8.990554e-09 6.000297e-09 3.962721e-09 2.593205e-09 1.681525e-09 1.081804e-09 6.905577e-10 4.379171e-10 2.759188e-10 1.729390e-10 1.078501e-10 6.700342e-11 4.148300e-11 2.562793e-11 1.580759e-11 9.749626e-12 6.018030e-12 3.724359e-12 2.313650e-12 1.445663e-12 9.097345e-13 5.775833e-13 3.702493e-13 2.398416e-13 1.569347e-13 1.036695e-13 6.901918e-14 4.623458e-14 3.108680e-14 2.093781e-14 1.409196e-14 9.461207e-15 6.323958e-15 4.203147e-15 2.773745e-15 1.816179e-15 1.178707e-15 0 0 0 0 0 0 0 0 0 0 0 0 0 0 0 0 0 0 0 0 0 0 0 0 0 0 0 0 0 0 0 0 0 0 0 0 0 0 0 0 0 0 0 0 0 0 0 0 0 0 0 0 0 0 0 0 0 0 0 0 0 0 0 0 0 0 0 0 0 0 0 0 0 0 0 0 0 0 0 0 0 0 0 0 0 0 0 0 0 0 0 0 0 0 0 0 0 0 0 0 0 0 0 0 0 0 0 0 0 0 0 0 0 0 0 0 0 0 0 0 0 0 0 0 0 0 0 0 0 0 0 0 0 0 0 0 0 0 0 0 0 0 0 0 0 0 0 0 0 0 0 0 0 0 0 0 0 0 0 0 0 0 0 0 0 0 0 0 0 0 0 0 0 0 0 0 0 0 0 0 0 0 0 0 0 0 0 0 0 0 0 0 0 0 0 0 0 0 0 0 0 0 0 0 0 0 0 0 0 0 0 0 0 0 0 0 0 0 0 0 0 0 0 0 0 0 0 0 0 0 0 0 0 0 0 0 0 0 0 0 0 0 0 0 0 0 0 0 0 0 0 0 0 0 
0 0 0 0 0 0 0 0 0 0 0 0 0 0 0 0 0 0 0 0 0 0 0 0 0 0 0 0 0 0 0 0 5.708892e-15 6.305014e-14 6.095462e-13 4.524441e-12 2.757083e-11 1.194008e-10 4.103516e-10 1.086690e-09 2.385397e-09 4.377042e-09 6.977530e-09 9.797528e-09 1.243055e-08 1.449854e-08 1.589686e-08 1.689101e-08 1.791444e-08 1.988982e-08 2.361562e-08 3.064607e-08 4.212672e-08 6.080167e-08 8.835039e-08 1.297917e-07 1.874833e-07 2.698412e-07 3.796746e-07 5.289962e-07 7.197782e-07 9.653500e-07 1.263636e-06 1.623236e-06 2.033092e-06 2.487792e-06 2.963031e-06 3.435025e-06 3.872110e-06 4.241054e-06 4.517935e-06 4.676037e-06 4.712138e-06 4.617525e-06 4.411846e-06 4.104656e-06 3.729350e-06 3.304717e-06 2.864434e-06 2.425706e-06 2.012592e-06 1.634346e-06 1.302485e-06 1.017788e-06 7.818189e-07 5.899155e-07 4.382780e-07 3.204053e-07 2.310000e-07 1.641462e-07 1.152022e-07 7.981187e-08 5.468810e-08 3.704415e-08 2.485071e-08 1.650255e-08 1.086701e-08 7.093144e-09 4.596928e-09 2.956977e-09 1.891039e-09 1.202019e-09 7.606916e-10 4.792128e-10 3.010444e-10 1.885957e-10 1.180500e-10 7.385415e-11 4.628194e-11 2.907198e-11 1.834995e-11 1.164913e-11 7.456025e-12 4.814680e-12 3.142150e-12 2.071811e-12 1.380721e-12 9.284578e-13 6.293585e-13 4.288865e-13 2.933439e-13 2.007838e-13 1.373138e-13 9.358611e-14 6.349652e-14 4.279996e-14 2.864579e-14 1.900761e-14 1.250286e-14 8.142998e-15 5.252430e-15 3.352077e-15 2.117624e-15 1.323124e-15 0 0 0 0 0 0 0 0 0 0 0 0 0 0 0 0 0 0 0 0 0 0 0 0 0 0 0 0 0 0 0 0 0 0 0 0 0 0 0 0 0 0 0 0 0 0 0 0 0 0 0 0 0 0 0 0 0 0 0 0 0 0 0 0 0 0 0 0 0 0 0 0 0 0 0 0 0 0 0 0 0 0 0 0 0 0 0 0 0 0 0 0 0 0 0 0 0 0 0 0 0 0 0 0 0 0 0 0 0 0 0 0 0 0 0 0 0 0 0 0 0 0 0 0 0 0 0 0 0 0 0 0 0 0 0 0 0 0 0 0 0 0 0 0 0 0 0 0 0 0 0 0 0 0 0 0 0 0 0 0 0 0 0 0 0 0 0 0 0 0 0 0 0 0 0 0 0 0 0 0 0 0 0 0 0 0 0 0 0 0 0 0 0 0 0 0 0 0 0 0 0 0 0 0 0 0 0 0 0 0 0 0 0 0 0 0 0 0 0 0 0 0 0 0 0 0 0 0 0 0 0 0 0 0 0 0 0 0 0 0 0 0 0 0 0 0 0 0 0 0 
0 0 0 0 0 0 0 0 0 0 0 0 0 0 0 0 0 0 0 0 0 0 0 0 0 0 0 0 0 0 0 3.968585e-15 5.393242e-14 6.195986e-13 6.205211e-12 4.707713e-11 2.924158e-10 1.259973e-09 4.295584e-09 1.118010e-08 2.410830e-08 4.332397e-08 6.763725e-08 9.272720e-08 1.145905e-07 1.293795e-07 1.360306e-07 1.365416e-07 1.338112e-07 1.341019e-07 1.414127e-07 1.637307e-07 2.049767e-07 2.766157e-07 3.833245e-07 5.450364e-07 7.684347e-07 1.087171e-06 1.510353e-06 2.086911e-06 2.825209e-06 3.780838e-06 4.949610e-06 6.363799e-06 7.980506e-06 9.767561e-06 1.163075e-05 1.346408e-05 1.515107e-05 1.655086e-05 1.758184e-05 1.813316e-05 1.820667e-05 1.776766e-05 1.690573e-05 1.565988e-05 1.416710e-05 1.250076e-05 1.079166e-05 9.104445e-06 7.528010e-06 6.095104e-06 4.845163e-06 3.778887e-06 2.898683e-06 2.185721e-06 1.623674e-06 1.187804e-06 8.574097e-07 6.105206e-07 4.295815e-07 2.986245e-07 2.054122e-07 1.397903e-07 9.425478e-08 6.296007e-08 4.172020e-08 2.742484e-08 1.790687e-08 1.161488e-08 7.493557e-09 4.809916e-09 3.075695e-09 1.960128e-09 1.246814e-09 7.921247e-10 5.035132e-10 3.205613e-10 2.048225e-10 1.315245e-10 8.506113e-11 5.547757e-11 3.655072e-11 2.433798e-11 1.638649e-11 1.114582e-11 7.651073e-12 5.289118e-12 3.674870e-12 2.559461e-12 1.783195e-12 1.239770e-12 8.587285e-13 5.914635e-13 4.046551e-13 2.746306e-13 1.847823e-13 1.231468e-13 8.127029e-14 5.307785e-14 3.430565e-14 2.193274e-14 1.387263e-14 8.677904e-15 5.369903e-15 3.286185e-15 1.989407e-15 1.191119e-15 0 0 0 0 0 0 0 0 0 0 0 0 0 0 0 0 0 0 0 0 0 0 0 0 0 0 0 0 0 0 0 0 0 0 0 0 0 0 0 0 0 0 0 0 0 0 0 0 0 0 0 0 0 0 0 0 0 0 0 0 0 0 0 0 0 0 0 0 0 0 0 0 0 0 0 0 0 0 0 0 0 0 0 0 0 0 0 0 0 0 0 0 0 0 0 0 0 0 0 0 0 0 0 0 0 0 0 0 0 0 0 0 0 0 0 0 0 0 0 0 0 0 0 0 0 0 0 0 0 0 0 0 0 0 0 0 0 0 0 0 0 0 0 0 0 0 0 0 0 0 0 0 0 0 0 0 0 0 0 0 0 0 0 0 0 0 0 0 0 0 0 0 0 0 0 0 0 0 0 0 0 0 0 0 0 0 0 0 0 0 0 0 0 0 0 0 0 0 0 0 0 0 0 0 0 0 0 0 0 0 0 0 0 0 0 0 0 0 0 0 0 0 0 0 0 0 0 0 0 0 0 0 0 0 0 0 0 0 0 0 0 0 0 0 0 0 
0 0 0 0 0 0 0 0 0 0 0 0 0 0 0 0 0 0 0 0 0 0 0 0 0 0 0 0 0 0 2.175217e-15 3.342626e-14 4.679810e-13 5.576365e-12 5.744109e-11 4.451049e-10 2.803313e-09 1.197495e-08 4.029092e-08 1.027116e-07 2.170285e-07 3.814344e-07 5.834789e-07 7.825968e-07 9.465775e-07 1.042791e-06 1.064795e-06 1.028551e-06 9.543515e-07 8.862219e-07 8.443019e-07 8.724761e-07 9.805386e-07 1.215903e-06 1.583545e-06 2.158277e-06 2.949575e-06 4.084430e-06 5.584876e-06 7.640692e-06 1.028267e-05 1.372576e-05 1.795458e-05 2.307653e-05 2.893032e-05 3.537725e-05 4.208583e-05 4.864231e-05 5.464327e-05 5.954353e-05 6.307926e-05 6.482923e-05 6.484950e-05 6.301373e-05 5.969665e-05 5.504069e-05 4.957195e-05 4.354454e-05 3.743693e-05 3.145996e-05 2.592552e-05 2.092777e-05 1.659801e-05 1.292176e-05 9.901999e-06 7.463033e-06 5.546197e-06 4.061245e-06 2.936983e-06 2.096260e-06 1.479769e-06 1.032505e-06 7.134626e-07 4.879762e-07 3.309449e-07 2.224549e-07 1.484606e-07 9.833452e-08 6.475523e-08 4.238538e-08 2.762480e-08 1.792670e-08 1.160499e-08 7.495901e-09 4.841334e-09 3.128373e-09 2.027442e-09 1.319070e-09 8.638293e-10 5.700084e-10 3.798813e-10 2.558130e-10 1.742813e-10 1.200200e-10 8.352098e-11 5.859871e-11 4.138773e-11 2.933878e-11 2.083495e-11 1.477937e-11 1.045618e-11 7.360421e-12 5.150390e-12 3.575964e-12 2.462603e-12 1.679765e-12 1.134926e-12 7.587342e-13 5.020545e-13 3.285271e-13 2.127011e-13 1.361486e-13 8.621369e-14 5.396970e-14 3.342308e-14 2.046292e-14 1.239516e-14 7.423424e-15 4.399289e-15 2.578027e-15 1.495182e-15 0 0 0 0 0 0 0 0 0 0 0 0 0 0 0 0 0 0 0 0 0 0 0 0 0 0 0 0 0 0 0 0 0 0 0 0 0 0 0 0 0 0 0 0 0 0 0 0 0 0 0 0 0 0 0 0 0 0 0 0 0 0 0 0 0 0 0 0 0 0 0 0 0 0 0 0 0 0 0 0 0 0 0 0 0 0 0 0 0 0 0 0 0 0 0 0 0 0 0 0 0 0 0 0 0 0 0 0 0 0 0 0 0 0 0 0 0 0 0 0 0 0 0 0 0 0 0 0 0 0 0 0 0 0 0 0 0 0 0 0 0 0 0 0 0 0 0 0 0 0 0 0 0 0 0 0 0 0 0 0 0 0 0 0 0 0 0 0 0 0 0 0 0 0 0 0 0 0 0 0 0 0 0 0 0 0 0 0 0 0 0 0 0 0 0 0 0 0 0 0 0 0 0 0 0 0 0 0 0 0 0 0 0 0 0 0 0 0 0 0 0 0 0 0 0 0 0 0 0 0 0 0 0 0 0 0 0 0 0 0 0 0 0 
0 0 0 0 0 0 0 0 0 0 0 0 0 0 0 0 0 0 0 0 0 0 0 0 0 0 0 0 0 0 1.618780e-14 2.622946e-13 3.783260e-12 4.569105e-11 4.822741e-10 3.798427e-09 2.424677e-08 1.020215e-07 3.372183e-07 8.388163e-07 1.731320e-06 2.971499e-06 4.451312e-06 5.844610e-06 6.932485e-06 7.480538e-06 7.466709e-06 7.018974e-06 6.271438e-06 5.526539e-06 4.877058e-06 4.572698e-06 4.612759e-06 5.192904e-06 6.267622e-06 8.098043e-06 1.065405e-05 1.437879e-05 1.931338e-05 2.613199e-05 3.494279e-05 4.645014e-05 6.059648e-05 7.767587e-05 9.721560e-05 1.186520e-04 1.409717e-04 1.626075e-04 1.822996e-04 1.980325e-04 2.090620e-04 2.138972e-04 2.129247e-04 2.057557e-04 1.938192e-04 1.776481e-04 1.590692e-04 1.389393e-04 1.188150e-04 9.935932e-05 8.152036e-05 6.556106e-05 5.183453e-05 4.026106e-05 3.080112e-05 2.319712e-05 1.723736e-05 1.263271e-05 9.148874e-06 6.545455e-06 4.634081e-06 3.245844e-06 2.252701e-06 1.548887e-06 1.056572e-06 7.150243e-07 4.807147e-07 3.211034e-07 2.134054e-07 1.411569e-07 9.306675e-08 6.119778e-08 4.020513e-08 2.641474e-08 1.739100e-08 1.148965e-08 7.634834e-09 5.110589e-09 3.453463e-09 2.358384e-09 1.629546e-09 1.138989e-09 8.050173e-10 5.743374e-10 4.128989e-10 2.983148e-10 2.161113e-10 1.565569e-10 1.131852e-10 8.148252e-11 5.832845e-11 4.145128e-11 2.921912e-11 2.040747e-11 1.411635e-11 9.663678e-12 6.546310e-12 4.385916e-12 2.906455e-12 1.904336e-12 1.233908e-12 7.904147e-13 5.006980e-13 3.135738e-13 1.942155e-13 1.189361e-13 7.204110e-14 4.315133e-14 2.556914e-14 1.498503e-14 8.689328e-15 4.984397e-15 2.829496e-15 1.589220e-15 0 0 0 0 0 0 0 0 0 0 0 0 0 0 0 0 0 0 0 0 0 0 0 0 0 0 0 0 0 0 0 0 0 0 0 0 0 0 0 0 0 0 0 0 0 0 0 0 0 0 0 0 0 0 0 0 0 0 0 0 0 0 0 0 0 0 0 0 0 0 0 0 0 0 0 0 0 0 0 0 0 0 0 0 0 0 0 0 0 0 0 0 0 0 0 0 0 0 0 0 0 0 0 0 0 0 0 0 0 0 0 0 0 0 0 0 0 0 0 0 0 0 0 0 0 0 0 0 0 0 0 0 0 0 0 0 0 0 0 0 0 0 0 0 0 0 0 0 0 0 0 0 0 0 0 0 0 0 0 0 0 0 0 0 0 0 0 0 0 0 0 0 0 0 0 0 0 0 0 0 0 0 0 0 0 0 0 0 0 0 0 0 0 0 0 0 0 0 0 0 0 0 0 0 0 0 0 0 0 0 0 0 0 0 0 0 0 0 0 0 0 0 0 0 0 0 0 0 0 0 0 0 0 0 0 0 0 0 0 0 
0 0 0 0 0 0 0 0 0 0 0 0 0 0 0 0 0 0 0 0 0 0 0 0 0 0 0 0 0 5.727567e-15 1.083213e-13 1.856046e-12 2.792276e-11 3.498153e-10 3.682238e-09 2.930506e-08 1.882958e-07 7.763964e-07 2.500279e-06 6.029146e-06 1.209313e-05 2.017176e-05 2.951309e-05 3.786333e-05 4.407361e-05 4.669678e-05 4.583059e-05 4.232500e-05 3.696082e-05 3.158627e-05 2.652729e-05 2.318826e-05 2.130753e-05 2.174437e-05 2.401295e-05 2.899749e-05 3.631026e-05 4.740876e-05 6.226847e-05 8.302985e-05 1.098958e-04 1.449722e-04 1.881303e-04 2.402390e-04 3.001147e-04 3.658112e-04 4.343948e-04 5.004820e-04 5.602756e-04 6.069756e-04 6.385928e-04 6.503337e-04 6.440160e-04 6.186011e-04 5.791185e-04 5.273580e-04 4.692472e-04 4.073359e-04 3.463728e-04 2.881339e-04 2.353390e-04 1.885227e-04 1.485989e-04 1.151464e-04 8.796671e-05 6.620253e-05 4.920671e-05 3.609578e-05 2.619096e-05 1.878560e-05 1.334631e-05 9.386588e-06 6.547645e-06 4.527797e-06 3.109609e-06 2.120309e-06 1.438029e-06 9.699655e-07 6.519492e-07 4.367247e-07 2.922013e-07 1.953758e-07 1.308751e-07 8.791486e-08 5.938739e-08 4.039092e-08 2.773280e-08 1.923981e-08 1.351071e-08 9.600210e-09 6.903727e-09 5.014826e-09 3.674635e-09 2.708126e-09 2.003303e-09 1.482845e-09 1.096284e-09 8.073823e-10 5.915944e-10 4.304054e-10 3.107153e-10 2.222425e-10 1.574710e-10 1.104056e-10 7.660789e-11 5.256020e-11 3.567087e-11 2.392833e-11 1.587414e-11 1.040755e-11 6.747903e-12 4.323817e-12 2.740041e-12 1.716165e-12 1.063187e-12 6.510702e-13 3.944283e-13 2.362351e-13 1.399991e-13 8.203843e-14 4.757747e-14 2.728819e-14 1.549278e-14 8.700670e-15 4.837787e-15 2.661270e-15 1.449739e-15 0 0 0 0 0 0 0 0 0 0 0 0 0 0 0 0 0 0 0 0 0 0 0 0 0 0 0 0 0 0 0 0 0 0 0 0 0 0 0 0 0 0 0 0 0 0 0 0 0 0 0 0 0 0 0 0 0 0 0 0 0 0 0 0 0 0 0 0 0 0 0 0 0 0 0 0 0 0 0 0 0 0 0 0 0 0 0 0 0 0 0 0 0 0 0 0 0 0 0 0 0 0 0 0 0 0 0 0 0 0 0 0 0 0 0 0 0 0 0 0 0 0 0 0 0 0 0 0 0 0 0 0 0 0 0 0 0 0 0 0 0 0 0 0 0 0 0 0 0 0 0 0 0 0 0 0 0 0 0 0 0 0 0 0 0 0 0 0 0 0 0 0 0 0 0 0 0 0 0 0 0 0 0 0 0 0 0 0 0 0 0 0 0 0 0 0 0 0 0 0 0 0 0 0 0 0 0 0 0 0 0 0 0 0 0 0 0 0 0 0 0 0 0 0 0 0 0 0 0 0 0 0 0 0 0 0 0 