# vtk DataFile Version 2.0
Comment goes here
ASCII

DATASET STRUCTURED_POINTS
FIELD FieldData 1
TIME 1 1 double
2.25000000
DIMENSIONS    384   64   1

ORIGIN    0.000   0.000   0.000
SPACING   0.078125 0.078125   1.000

POINT_DATA   24576
SCALARS Concentration double
LOOKUP_TABLE default

0 0 0 0 0 0 0 0 0 0 0 0 0 0 0 0 0 0 0 0 0 0 0 0 0 0 0 0 0 0 0 0 0 0 0 0 0 0 0 0 0 0 0 0 0 0 0 0 0 0 0 0 0 0 2.294846e-15 5.702876e-15 1.370925e-14 3.201626e-14 7.275459e-14 1.632708e-13 3.614722e-13 7.928287e-13 1.682351e-12 3.468166e-12 6.851708e-12 1.307763e-11 2.389411e-11 4.210772e-11 7.105872e-11 1.155494e-10 1.799739e-10 2.697999e-10 3.873407e-10 5.346335e-10 7.067370e-10 8.977774e-10 1.092909e-09 1.278820e-09 1.435527e-09 1.550053e-09 1.607933e-09 1.606229e-09 1.543996e-09 1.431260e-09 1.279066e-09 1.104160e-09 9.207834e-10 7.431556e-10 5.806971e-10 4.400888e-10 3.236759e-10 2.314241e-10 1.609847e-10 1.091372e-10 7.217736e-11 4.664419e-11 2.948920e-11 1.827015e-11 1.110826e-11 6.641794e-12 3.916178e-12 2.291292e-12 1.339328e-12 7.862208e-13 4.682773e-13 2.881423e-13 1.882197e-13 1.344793e-13 1.068918e-13 9.364625e-14 8.782279e-14 8.537761e-14 8.402403e-14 8.251958e-14 8.028652e-14 7.713019e-14 7.310035e-14 6.835977e-14 6.313285e-14 5.764047e-14 5.208849e-14 4.663898e-14 4.141948e-14 3.651377e-14 3.197210e-14 2.781238e-14 2.404002e-14 2.064892e-14 1.763119e-14 1.496699e-14 1.262626e-14 1.058164e-14 8.808600e-15 7.282504e-15 5.979720e-15 4.876360e-15 3.949669e-15 3.177449e-15 2.539170e-15 2.015589e-15 1.589454e-15 1.245154e-15 0 0 0 0 0 0 0 0 0 0 0 0 0 0 0 0 0 0 0 0 0 0 0 0 0 0 0 0 0 0 0 0 0 0 0 0 0 0 0 0 0 0 0 0 0 0 0 0 0 0 0 0 0 0 0 0 0 0 0 0 0 0 0 0 0 0 0 0 0 0 0 0 0 0 0 0 0 0 0 0 0 0 0 0 0 0 0 0 0 0 0 0 0 0 0 0 0 0 0 0 0 0 0 0 0 0 0 0 0 0 0 0 0 0 0 0 0 0 0 0 0 0 0 0 0 0 0 0 0 0 0 0 0 0 0 0 0 0 0 0 0 0 0 0 0 0 0 0 0 0 0 0 0 0 0 0 0 0 0 0 0 0 0 0 0 0 0 0 0 0 0 0 0 0 0 0 0 0 0 0 0 0 0 0 0 0 0 0 0 0 0 0 0 0 0 0 0 0 0 0 0 0 0 0 0 0 0 0 0 0 0 0 0 0 0 0 0 0 0 0 0 0 0 0 0 0 0 0 0 0 0 0 0 0 0 0 0 0 0 0 0 0 
0 0 0 0 0 0 0 0 0 0 0 0 0 0 0 0 0 0 0 0 0 0 0 0 0 0 0 0 0 0 0 0 0 0 0 0 0 0 0 0 0 0 0 0 0 0 0 0 0 0 0 0 2.281318e-15 5.990962e-15 1.513468e-14 3.697430e-14 8.735465e-14 2.004601e-13 4.476908e-13 9.860272e-13 2.138299e-12 4.588456e-12 9.533453e-12 1.926390e-11 3.736526e-11 7.012267e-11 1.261748e-10 2.192968e-10 3.655044e-10 5.877980e-10 9.065090e-10 1.347136e-09 1.919154e-09 2.631306e-09 3.458330e-09 4.372028e-09 5.301072e-09 6.183383e-09 6.924514e-09 7.464755e-09 7.736064e-09 7.725639e-09 7.428715e-09 6.892663e-09 6.168896e-09 5.336119e-09 4.461268e-09 3.611578e-09 2.832008e-09 2.154756e-09 1.591749e-09 1.143508e-09 7.995682e-10 5.450262e-10 3.625517e-10 2.357192e-10 1.499727e-10 9.352177e-11 5.724551e-11 3.446978e-11 2.049451e-11 1.210563e-11 7.109033e-12 4.150826e-12 2.411210e-12 1.394695e-12 8.049612e-13 4.651973e-13 2.710190e-13 1.609371e-13 9.912029e-14 6.474074e-14 4.582967e-14 3.553085e-14 2.996757e-14 2.695779e-14 2.529378e-14 2.431105e-14 2.365187e-14 2.312352e-14 2.262413e-14 2.209761e-14 2.151331e-14 2.085257e-14 2.010536e-14 1.926650e-14 1.833706e-14 1.732223e-14 1.623295e-14 1.508290e-14 1.388997e-14 1.267305e-14 1.145328e-14 1.025039e-14 9.083961e-15 7.970190e-15 6.923484e-15 5.953932e-15 5.069194e-15 4.272741e-15 3.565821e-15 2.946348e-15 2.410725e-15 1.953179e-15 1.567277e-15 1.245528e-15 0 0 0 0 0 0 0 0 0 0 0 0 0 0 0 0 0 0 0 0 0 0 0 0 0 0 0 0 0 0 0 0 0 0 0 0 0 0 0 0 0 0 0 0 0 0 0 0 0 0 0 0 0 0 0 0 0 0 0 0 0 0 0 0 0 0 0 0 0 0 0 0 0 0 0 0 0 0 0 0 0 0 0 0 0 0 0 0 0 0 0 0 0 0 0 0 0 0 0 0 0 0 0 0 0 0 0 0 0 0 0 0 0 0 0 0 0 0 0 0 0 0 0 0 0 0 0 0 0 0 0 0 0 0 0 0 0 0 0 0 0 0 0 0 0 0 0 0 0 0 0 0 0 0 0 0 0 0 0 0 0 0 0 0 0 0 0 0 0 0 0 0 0 0 0 0 0 0 0 0 0 0 0 0 0 0 0 0 0 0 0 0 0 0 0 0 0 0 0 0 0 0 0 0 0 0 0 0 0 0 0 0 0 0 0 0 0 0 0 0 0 0 0 0 0 0 0 0 0 0 0 0 0 0 0 0 0 0 
0 0 0 0 0 0 0 0 0 0 0 0 0 0 0 0 0 0 0 0 0 0 0 0 0 0 0 0 0 0 0 0 0 0 0 0 0 0 0 0 0 0 0 0 0 0 0 0 0 0 1.949065e-15 5.470485e-15 1.469432e-14 3.794089e-14 9.429446e-14 2.265868e-13 5.266179e-13 1.188429e-12 2.610252e-12 5.644351e-12 1.200632e-11 2.524957e-11 5.147059e-11 1.021243e-10 1.948246e-10 3.600168e-10 6.388660e-10 1.096366e-09 1.806784e-09 2.876053e-09 4.395358e-09 6.478709e-09 9.163569e-09 1.248460e-08 1.631934e-08 2.053552e-08 2.480422e-08 2.884407e-08 3.222585e-08 3.468291e-08 3.590742e-08 3.584551e-08 3.447449e-08 3.201125e-08 2.868633e-08 2.485836e-08 2.082960e-08 1.690845e-08 1.330022e-08 1.015567e-08 7.531486e-09 5.433877e-09 3.816935e-09 2.614651e-09 1.748257e-09 1.142887e-09 7.312884e-10 4.588013e-10 2.827098e-10 1.716637e-10 1.033483e-10 6.182600e-11 3.674869e-11 2.170335e-11 1.273881e-11 7.433592e-12 4.315792e-12 2.495980e-12 1.441304e-12 8.344359e-13 4.880714e-13 2.922957e-13 1.831526e-13 1.236013e-13 9.232592e-14 7.708041e-14 7.083844e-14 6.954934e-14 7.085361e-14 7.335371e-14 7.619738e-14 7.885240e-14 8.097577e-14 8.234989e-14 8.284263e-14 8.239029e-14 8.098407e-14 7.866223e-14 7.550263e-14 7.161338e-14 6.712656e-14 6.218642e-14 5.694443e-14 5.154720e-14 4.613410e-14 4.082721e-14 3.573216e-14 3.093133e-14 2.648760e-14 2.244074e-14 1.881306e-14 1.560821e-14 1.281730e-14 1.041913e-14 8.385656e-15 6.682716e-15 5.274243e-15 4.122835e-15 3.192590e-15 2.449274e-15 1.861929e-15 1.402668e-15 1.047367e-15 0 0 0 0 0 0 0 0 0 0 0 0 0 0 0 0 0 0 0 0 0 0 0 0 0 0 0 0 0 0 0 0 0 0 0 0 0 0 0 0 0 0 0 0 0 0 0 0 0 0 0 0 0 0 0 0 0 0 0 0 0 0 0 0 0 0 0 0 0 0 0 0 0 0 0 0 0 0 0 0 0 0 0 0 0 0 0 0 0 0 0 0 0 0 0 0 0 0 0 0 0 0 0 0 0 0 0 0 0 0 0 0 0 0 0 0 0 0 0 0 0 0 0 0 0 0 0 0 0 0 0 0 0 0 0 0 0 0 0 0 0 0 0 0 0 0 0 0 0 0 0 0 0 0 0 0 0 0 0 0 0 0 0 0 0 0 0 0 0 0 0 0 0 0 0 0 0 0 0 0 0 0 0 0 0 0 0 0 0 0 0 0 0 0 0 0 0 0 0 0 0 0 0 0 0 0 0 0 0 0 0 0 0 0 0 0 0 0 0 0 0 0 0 0 0 0 0 0 0 0 0 
0 0 0 0 0 0 0 0 0 0 0 0 0 0 0 0 0 0 0 0 0 0 0 0 0 0 0 0 0 0 0 0 0 0 0 0 0 0 0 0 0 0 0 0 0 0 0 0 1.399704e-15 4.236468e-15 1.222056e-14 3.372106e-14 8.909193e-14 2.263622e-13 5.537163e-13 1.309791e-12 2.996290e-12 6.655681e-12 1.438629e-11 3.058696e-11 6.390427e-11 1.319299e-10 2.642426e-10 5.156303e-10 9.687437e-10 1.765014e-09 3.092190e-09 5.244997e-09 8.553296e-09 1.348651e-08 2.043535e-08 2.989063e-08 4.198843e-08 5.686054e-08 7.393617e-08 9.262348e-08 1.114638e-07 1.292345e-07 1.440610e-07 1.547987e-07 1.601120e-07 1.597789e-07 1.537019e-07 1.428267e-07 1.281552e-07 1.112476e-07 9.342532e-08 7.603807e-08 5.999549e-08 4.596792e-08 3.422014e-08 2.479104e-08 1.749172e-08 1.203846e-08 8.089768e-09 5.316260e-09 3.420774e-09 2.159308e-09 1.340644e-09 8.234432e-10 5.023616e-10 3.043469e-10 1.831242e-10 1.094334e-10 6.497738e-11 3.834617e-11 2.251254e-11 1.316276e-11 7.682189e-12 4.491632e-12 2.649263e-12 1.595166e-12 1.000274e-12 6.715057e-13 4.965416e-13 4.099503e-13 3.737197e-13 3.656082e-13 3.724741e-13 3.864254e-13 4.025820e-13 4.178750e-13 4.303104e-13 4.386290e-13 4.420663e-13 4.402594e-13 4.331627e-13 4.209958e-13 4.042061e-13 3.833998e-13 3.593224e-13 3.327703e-13 3.045878e-13 2.755727e-13 2.464935e-13 2.180050e-13 1.906841e-13 1.649645e-13 1.411866e-13 1.195523e-13 1.001811e-13 8.308162e-14 6.820544e-14 5.543079e-14 4.460733e-14 3.554697e-14 2.805740e-14 2.193586e-14 1.699159e-14 1.304054e-14 9.918636e-15 7.476692e-15 5.587074e-15 4.138850e-15 3.040287e-15 2.214570e-15 1.600024e-15 1.146631e-15 0 0 0 0 0 0 0 0 0 0 0 0 0 0 0 0 0 0 0 0 0 0 0 0 0 0 0 0 0 0 0 0 0 0 0 0 0 0 0 0 0 0 0 0 0 0 0 0 0 0 0 0 0 0 0 0 0 0 0 0 0 0 0 0 0 0 0 0 0 0 0 0 0 0 0 0 0 0 0 0 0 0 0 0 0 0 0 0 0 0 0 0 0 0 0 0 0 0 0 0 0 0 0 0 0 0 0 0 0 0 0 0 0 0 0 0 0 0 0 0 0 0 0 0 0 0 0 0 0 0 0 0 0 0 0 0 0 0 0 0 0 0 0 0 0 0 0 0 0 0 0 0 0 0 0 0 0 0 0 0 0 0 0 0 0 0 0 0 0 0 0 0 0 0 0 0 0 0 0 0 0 0 0 0 0 0 0 0 0 0 0 0 0 0 0 0 0 0 0 0 0 0 0 0 0 0 0 0 0 0 0 0 0 0 0 0 0 0 0 0 0 0 0 0 0 0 
0 0 0 0 0 0 0 0 0 0 0 0 0 0 0 0 0 0 0 0 0 0 0 0 0 0 0 0 0 0 0 0 0 0 0 0 0 0 0 0 0 0 0 0 0 0 0 2.741768e-15 8.556009e-15 2.542680e-14 7.209118e-14 1.955890e-13 5.085230e-13 1.271727e-12 3.063577e-12 7.136425e-12 1.608175e-11 3.518635e-11 7.489384e-11 1.566200e-10 3.217345e-10 6.528842e-10 1.286787e-09 2.472675e-09 4.580979e-09 8.237563e-09 1.426220e-08 2.392869e-08 3.864159e-08 6.037995e-08 9.075018e-08 1.317515e-07 1.838527e-07 2.474936e-07 3.201729e-07 3.993268e-07 4.788176e-07 5.535306e-07 6.156824e-07 6.605441e-07 6.826021e-07 6.809651e-07 6.552343e-07 6.093497e-07 5.474586e-07 4.760678e-07 4.006769e-07 3.269607e-07 2.587479e-07 1.989152e-07 1.486209e-07 1.080979e-07 7.659178e-08 5.295033e-08 3.574956e-08 2.361093e-08 1.527497e-08 9.705417e-09 6.085359e-09 3.787485e-09 2.340013e-09 1.435102e-09 8.737781e-10 5.282800e-10 3.172869e-10 1.894079e-10 1.124840e-10 6.653844e-11 3.928893e-11 2.323843e-11 1.385658e-11 8.422592e-12 5.316309e-12 3.576769e-12 2.637184e-12 2.163424e-12 1.958562e-12 1.905884e-12 1.935480e-12 2.004835e-12 2.087415e-12 2.166381e-12 2.230797e-12 2.273741e-12 2.291058e-12 2.280801e-12 2.242761e-12 2.178183e-12 2.089495e-12 1.980002e-12 1.853667e-12 1.714758e-12 1.567691e-12 1.416684e-12 1.265690e-12 1.118127e-12 9.769048e-13 8.442558e-13 7.218456e-13 6.106899e-13 5.113166e-13 4.237447e-13 3.476555e-13 2.824049e-13 2.271736e-13 1.809880e-13 1.428342e-13 1.116723e-13 8.651152e-14 6.641332e-14 5.053291e-14 3.811246e-14 2.849831e-14 2.112832e-14 1.553430e-14 1.132745e-14 8.193602e-15 5.879656e-15 4.186524e-15 2.958088e-15 2.074515e-15 1.444113e-15 0 0 0 0 0 0 0 0 0 0 0 0 0 0 0 0 0 0 0 0 0 0 0 0 0 0 0 0 0 0 0 0 0 0 0 0 0 0 0 0 0 0 0 0 0 0 0 0 0 0 0 0 0 0 0 0 0 0 0 0 0 0 0 0 0 0 0 0 0 0 0 0 0 0 0 0 0 0 0 0 0 0 0 0 0 0 0 0 0 0 0 0 0 0 0 0 0 0 0 0 0 0 0 0 0 0 0 0 0 0 0 0 0 0 0 0 0 0 0 0 0 0 0 0 0 0 0 0 0 0 0 0 0 0 0 0 0 0 0 0 0 0 0 0 0 0 0 0 0 0 0 0 0 0 0 0 0 0 0 0 0 0 0 0 0 0 0 0 0 0 0 0 0 0 0 0 0 0 0 0 0 0 0 0 0 0 0 0 0 0 0 0 0 0 0 0 0 0 0 0 0 0 0 0 0 0 0 0 0 0 0 0 0 0 0 0 0 0 0 0 0 0 
0 0 0 0 0 0 0 0 0 0 0 0 0 0 0 0 0 0 0 0 0 0 0 0 0 0 0 0 0 0 0 0 0 0 0 0 0 0 0 0 0 0 0 0 0 1.470167e-15 4.992545e-15 1.607150e-14 4.918392e-14 1.434752e-13 3.996831e-13 1.066334e-12 2.728231e-12 6.718068e-12 1.594044e-11 3.658657e-11 8.124413e-11 1.752079e-10 3.674053e-10 7.565441e-10 1.529378e-09 3.053997e-09 5.928935e-09 1.123197e-08 2.053772e-08 3.648311e-08 6.246459e-08 1.037277e-07 1.659378e-07 2.570411e-07 3.832604e-07 5.523537e-07 7.657110e-07 1.024699e-06 1.318855e-06 1.637738e-06 1.956751e-06 2.255652e-06 2.503687e-06 2.682304e-06 2.769844e-06 2.762818e-06 2.659685e-06 2.475892e-06 2.227837e-06 1.941159e-06 1.637770e-06 1.340242e-06 1.064074e-06 8.209246e-07 6.157548e-07 4.497201e-07 3.200625e-07 2.222980e-07 1.508290e-07 1.001425e-07 6.518852e-08 4.177645e-08 2.654167e-08 1.673250e-08 1.046709e-08 6.497005e-09 4.002854e-09 2.448452e-09 1.487830e-09 8.986437e-10 5.400774e-10 3.233370e-10 1.932481e-10 1.156665e-10 6.974990e-11 4.280894e-11 2.720635e-11 1.834701e-11 1.348884e-11 1.099106e-11 9.874441e-12 9.549978e-12 9.660296e-12 9.985343e-12 1.038626e-11 1.077444e-11 1.109200e-11 1.130251e-11 1.138415e-11 1.132689e-11 1.112989e-11 1.079979e-11 1.034943e-11 9.795845e-12 9.159573e-12 8.462198e-12 7.726235e-12 6.972642e-12 6.221293e-12 5.488834e-12 4.789682e-12 4.134417e-12 3.531132e-12 2.984355e-12 2.496514e-12 2.067288e-12 1.694966e-12 1.376075e-12 1.106507e-12 8.812899e-13 6.954186e-13 5.436910e-13 4.212582e-13 3.234786e-13 2.462393e-13 1.858192e-13 1.390468e-13 1.031744e-13 7.593508e-14 5.543348e-14 4.014977e-14 2.885179e-14 2.057626e-14 1.456329e-14 1.023248e-14 7.137143e-15 4.943366e-15 3.399931e-15 2.322752e-15 1.576216e-15 1.062798e-15 0 0 0 0 0 0 0 0 0 0 0 0 0 0 0 0 0 0 0 0 0 0 0 0 0 0 0 0 0 0 0 0 0 0 0 0 0 0 0 0 0 0 0 0 0 0 0 0 0 0 0 0 0 0 0 0 0 0 0 0 0 0 0 0 0 0 0 0 0 0 0 0 0 0 0 0 0 0 0 0 0 0 0 0 0 0 0 0 0 0 0 0 0 0 0 0 0 0 0 0 0 0 0 0 0 0 0 0 0 0 0 0 0 0 0 0 0 0 0 0 0 0 0 0 0 0 0 0 0 0 0 0 0 0 0 0 0 0 0 0 0 0 0 0 0 0 0 0 0 0 0 0 0 0 0 0 0 0 0 0 0 0 0 0 0 0 0 0 0 0 0 0 0 0 0 0 0 0 0 0 0 0 0 0 0 0 0 0 0 0 0 0 0 0 0 0 0 0 0 0 0 0 0 0 0 0 0 0 0 0 0 0 0 0 0 0 0 
0 0 0 0 0 0 0 0 0 0 0 0 0 0 0 0 0 0 0 0 0 0 0 0 0 0 0 0 0 0 0 0 0 0 0 0 0 0 0 0 0 0 0 0 2.432247e-15 8.519558e-15 2.825948e-14 8.893967e-14 2.665731e-13 7.623668e-13 2.085352e-12 5.467734e-12 1.376463e-11 3.336774e-11 7.800155e-11 1.764259e-10 3.862802e-10 8.214841e-10 1.698122e-09 3.444616e-09 6.856839e-09 1.348422e-08 2.581069e-08 4.824285e-08 8.713188e-08 1.529810e-07 2.591514e-07 4.260289e-07 6.752948e-07 1.036940e-06 1.533826e-06 2.194030e-06 3.021243e-06 4.018673e-06 5.145593e-06 6.361281e-06 7.573338e-06 8.705445e-06 9.643423e-06 1.031787e-05 1.064865e-05 1.062230e-05 1.023305e-05 9.537882e-06 8.597756e-06 7.508408e-06 6.352101e-06 5.214306e-06 4.154190e-06 3.217067e-06 2.422825e-06 1.777168e-06 1.270514e-06 8.866344e-07 6.046011e-07 4.036950e-07 2.647306e-07 1.717052e-07 1.104858e-07 7.051628e-08 4.464251e-08 2.803895e-08 1.747760e-08 1.081672e-08 6.650848e-09 4.065680e-09 2.473371e-09 1.499226e-09 9.071829e-10 5.496467e-10 3.352792e-10 2.078659e-10 1.330849e-10 9.004148e-11 6.607880e-11 5.352780e-11 4.774154e-11 4.588800e-11 4.622431e-11 4.766347e-11 4.951283e-11 5.132613e-11 5.281189e-11 5.378607e-11 5.413987e-11 5.382412e-11 5.283589e-11 5.121002e-11 4.901098e-11 4.632432e-11 4.325051e-11 3.989585e-11 3.636830e-11 3.276931e-11 2.919227e-11 2.571636e-11 2.240769e-11 1.931556e-11 1.647559e-11 1.390804e-11 1.162194e-11 9.614765e-12 7.876594e-12 6.390443e-12 5.135764e-12 4.088914e-12 3.225718e-12 2.521756e-12 1.953996e-12 1.500814e-12 1.142874e-12 8.629276e-13 6.461606e-13 4.798780e-13 3.535348e-13 2.583910e-13 1.873934e-13 1.348637e-13 9.633613e-14 6.830756e-14 4.808678e-14 3.361184e-14 2.333263e-14 1.608694e-14 1.101846e-14 7.497945e-15 5.070397e-15 3.407696e-15 2.276724e-15 1.512302e-15 0 0 0 0 0 0 0 0 0 0 0 0 0 0 0 0 0 0 0 0 0 0 0 0 0 0 0 0 0 0 0 0 0 0 0 0 0 0 0 0 0 0 0 0 0 0 0 0 0 0 0 0 0 0 0 0 0 0 0 0 0 0 0 0 0 0 0 0 0 0 0 0 0 0 0 0 0 0 0 0 0 0 0 0 0 0 0 0 0 0 0 0 0 0 0 0 0 0 0 0 0 0 0 0 0 0 0 0 0 0 0 0 0 0 0 0 0 0 0 0 0 0 0 0 0 0 0 0 0 0 0 0 0 0 0 0 0 0 0 0 0 0 0 0 0 0 0 0 0 0 0 0 0 0 0 0 0 0 0 0 0 0 0 0 0 0 0 0 0 0 0 0 0 0 0 0 0 0 0 0 0 0 0 0 0 0 0 0 0 0 0 0 0 0 0 0 0 0 0 0 0 0 0 0 0 0 0 0 0 0 0 0 0 0 
0 0 0 0 0 0 0 0 0 0 0 0 0 0 0 0 0 0 0 0 0 0 0 0 0 0 0 0 0 0 0 0 0 0 0 0 0 0 0 0 0 0 0 3.820381e-15 1.379583e-14 4.698262e-14 1.517657e-13 4.658821e-13 1.364493e-12 3.819664e-12 1.024431e-11 2.637539e-11 6.528071e-11 1.557503e-10 3.585743e-10 7.993043e-10 1.725477e-09 3.619730e-09 7.379830e-09 1.475431e-08 2.892795e-08 5.605342e-08 1.058385e-07 1.953033e-07 3.485610e-07 6.051368e-07 1.014416e-06 1.651158e-06 2.592983e-06 3.946526e-06 5.789703e-06 8.218281e-06 1.123856e-05 1.485623e-05 1.892127e-05 2.328662e-05 2.762503e-05 3.166806e-05 3.501607e-05 3.742563e-05 3.861635e-05 3.853805e-05 3.716888e-05 3.470395e-05 3.135624e-05 2.745991e-05 2.330736e-05 1.920222e-05 1.535998e-05 1.194616e-05 9.038362e-06 6.661604e-06 4.786613e-06 3.357994e-06 2.303043e-06 1.548342e-06 1.026109e-06 6.742626e-07 4.393279e-07 2.838149e-07 1.818374e-07 1.155630e-07 7.289261e-08 4.565248e-08 2.841244e-08 1.758299e-08 1.083120e-08 6.648229e-09 4.073727e-09 2.498613e-09 1.541936e-09 9.657434e-10 6.230806e-10 4.231002e-10 3.101024e-10 2.498082e-10 2.211812e-10 2.112049e-10 2.117636e-10 2.177296e-10 2.257984e-10 2.338275e-10 2.404095e-10 2.446599e-10 2.460583e-10 2.443749e-10 2.396042e-10 2.319176e-10 2.216296e-10 2.091450e-10 1.949409e-10 1.795089e-10 1.633520e-10 1.469293e-10 1.306679e-10 1.149175e-10 9.997443e-11 8.604891e-11 7.329591e-11 6.179418e-11 5.157855e-11 4.262731e-11 3.489159e-11 2.828792e-11 2.272182e-11 1.808305e-11 1.426264e-11 1.114924e-11 8.640144e-12 6.638021e-12 5.057229e-12 3.820758e-12 2.863291e-12 2.128450e-12 1.569863e-12 1.148842e-12 8.344127e-13 6.014795e-13 4.304325e-13 3.057948e-13 2.157371e-13 1.511421e-13 1.051830e-13 7.271145e-14 4.994555e-14 3.409008e-14 2.312831e-14 1.559732e-14 1.045933e-14 6.974607e-15 4.626671e-15 3.053349e-15 2.005544e-15 1.311229e-15 0 0 0 0 0 0 0 0 0 0 0 0 0 0 0 0 0 0 0 0 0 0 0 0 0 0 0 0 0 0 0 0 0 0 0 0 0 0 0 0 0 0 0 0 0 0 0 0 0 0 0 0 0 0 0 0 0 0 0 0 0 0 0 0 0 0 0 0 0 0 0 0 0 0 0 0 0 0 0 0 0 0 0 0 0 0 0 0 0 0 0 0 0 0 0 0 0 0 0 0 0 0 0 0 0 0 0 0 0 0 0 0 0 0 0 0 0 0 0 0 0 0 0 0 0 0 0 0 0 0 0 0 0 0 0 0 0 0 0 0 0 0 0 0 0 0 0 0 0 0 0 0 0 0 0 0 0 0 0 0 0 0 0 0 0 0 0 0 0 0 0 0 0 0 0 0 0 0 0 0 0 0 0 0 0 0 0 0 0 0 0 0 0 0 0 0 0 0 0 0 0 0 0 0 0 0 0 0 0 0 
0 0 0 0 0 0 0 0 0 0 0 0 0 0 0 0 0 0 0 0 0 0 0 0 0 0 0 0 0 0 0 0 0 0 0 0 0 0 0 0 0 1.466125e-15 5.820160e-15 2.157174e-14 7.533395e-14 2.483398e-13 7.782292e-13 2.321505e-12 6.624154e-12 1.810077e-11 4.750315e-11 1.198874e-10 2.914236e-10 6.836873e-10 1.549586e-09 3.403078e-09 7.243933e-09 1.499192e-08 3.016983e-08 5.944690e-08 1.148279e-07 2.193088e-07 4.086684e-07 7.446729e-07 1.313594e-06 2.254890e-06 3.740307e-06 6.025811e-06 9.372140e-06 1.413126e-05 2.055204e-05 2.893451e-05 3.928047e-05 5.158402e-05 6.533670e-05 8.003600e-05 9.460828e-05 1.081636e-04 1.194021e-04 1.275160e-04 1.315890e-04 1.314364e-04 1.269756e-04 1.188244e-04 1.076722e-04 9.461168e-05 8.061272e-05 6.669399e-05 5.359076e-05 4.188011e-05 3.184503e-05 2.359341e-05 1.704407e-05 1.202499e-05 8.299458e-06 5.627077e-06 3.775969e-06 2.511967e-06 1.656439e-06 1.082829e-06 7.019289e-07 4.513810e-07 2.881034e-07 1.826269e-07 1.150565e-07 7.209475e-08 4.497166e-08 2.795569e-08 1.734651e-08 1.077181e-08 6.725937e-09 4.257539e-09 2.770126e-09 1.890475e-09 1.386205e-09 1.112497e-09 9.790949e-10 9.294078e-10 9.276327e-10 9.508497e-10 9.841339e-10 1.017715e-09 1.045170e-09 1.062455e-09 1.067226e-09 1.058472e-09 1.036212e-09 1.001278e-09 9.551146e-10 8.995827e-10 8.368122e-10 7.690072e-10 6.983599e-10 6.268854e-10 5.563994e-10 4.884035e-10 4.241183e-10 3.644208e-10 3.099139e-10 2.609037e-10 2.174834e-10 1.795340e-10 1.468049e-10 1.189231e-10 9.545896e-11 7.593507e-11 5.987325e-11 4.679852e-11 3.626831e-11 2.787135e-11 2.124272e-11 1.605905e-11 1.204407e-11 8.961975e-12 6.617563e-12 4.849411e-12 3.527477e-12 2.547159e-12 1.826227e-12 1.300149e-12 9.193158e-13 6.456607e-13 4.505156e-13 3.123343e-13 2.151979e-13 1.473700e-13 1.003335e-13 6.792055e-14 4.572986e-14 3.062719e-14 2.041100e-14 1.353797e-14 8.939990e-15 5.879220e-15 3.852030e-15 2.515238e-15 1.637593e-15 1.063488e-15 0 0 0 0 0 0 0 0 0 0 0 0 0 0 0 0 0 0 0 0 0 0 0 0 0 0 0 0 0 0 0 0 0 0 0 0 0 0 0 0 0 0 0 0 0 0 0 0 0 0 0 0 0 0 0 0 0 0 0 0 0 0 0 0 0 0 0 0 0 0 0 0 0 0 0 0 0 0 0 0 0 0 0 0 0 0 0 0 0 0 0 0 0 0 0 0 0 0 0 0 0 0 0 0 0 0 0 0 0 0 0 0 0 0 0 0 0 0 0 0 0 0 0 0 0 0 0 0 0 0 0 0 0 0 0 0 0 0 0 0 0 0 0 0 0 0 0 0 0 0 0 0 0 0 0 0 0 0 0 0 0 0 0 0 0 0 0 0 0 0 0 0 0 0 0 0 0 0 0 0 0 0 0 0 0 0 0 0 0 0 0 0 0 0 0 0 0 0 0 0 0 0 0 0 0 0 
0 0 0 0 0 0 0 0 0 0 0 0 0 0 0 0 0 0 0 0 0 0 0 0 0 0 0 0 0 0 0 0 0 0 0 0 0 0 0 0 2.128601e-15 8.730070e-15 3.332785e-14 1.187640e-13 3.991640e-13 1.267867e-12 3.836283e-12 1.107320e-11 3.065490e-11 8.148211e-11 2.085787e-10 5.147588e-10 1.226335e-09 2.825092e-09 6.296253e-09 1.361372e-08 2.855588e-08 5.828808e-08 1.157372e-07 2.247992e-07 4.277472e-07 8.052811e-07 1.480817e-06 2.664833e-06 4.645606e-06 7.884417e-06 1.293663e-05 2.062135e-05 3.174741e-05 4.739841e-05 6.829931e-05 9.532883e-05 1.284180e-04 1.674913e-04 2.109329e-04 2.571766e-04 3.029315e-04 3.454801e-04 3.808667e-04 4.066045e-04 4.198723e-04 4.200234e-04 4.067353e-04 3.817909e-04 3.472511e-04 3.064208e-04 2.623145e-04 2.181169e-04 1.762065e-04 1.384683e-04 1.059000e-04 7.892384e-05 5.736656e-05 4.073677e-05 2.833232e-05 1.942321e-05 1.319695e-05 8.885372e-06 5.929050e-06 3.921563e-06 2.572193e-06 1.673720e-06 1.081190e-06 6.937311e-07 4.424977e-07 2.807521e-07 1.773547e-07 1.116476e-07 7.015458e-08 4.410391e-08 2.786684e-08 1.783122e-08 1.170612e-08 8.035471e-09 5.901850e-09 4.724419e-09 4.136582e-09 3.904854e-09 3.879542e-09 3.963500e-09 4.092732e-09 4.225051e-09 4.332586e-09 4.397869e-09 4.410857e-09 4.367380e-09 4.267774e-09 4.115805e-09 3.917919e-09 3.682128e-09 3.417621e-09 3.133641e-09 2.839423e-09 2.543197e-09 2.252441e-09 1.973103e-09 1.710079e-09 1.466679e-09 1.245217e-09 1.046676e-09 8.712971e-10 7.183870e-10 5.868303e-10 4.749700e-10 3.810118e-10 3.029399e-10 2.388011e-10 1.866365e-10 1.446611e-10 1.112024e-10 8.480052e-11 6.415215e-11 4.815802e-11 3.587348e-11 2.652431e-11 1.946618e-11 1.418420e-11 1.026161e-11 7.372891e-12 5.261035e-12 3.729464e-12 2.626421e-12 1.838074e-12 1.278343e-12 8.838217e-13 6.074731e-13 4.152355e-13 2.822864e-13 1.909369e-13 1.285089e-13 8.610294e-14 5.743865e-14 3.816952e-14 2.527216e-14 1.668157e-14 1.098037e-14 7.212248e-15 4.728714e-15 3.097045e-15 2.026971e-15 1.326676e-15 0 0 0 0 0 0 0 0 0 0 0 0 0 0 0 0 0 0 0 0 0 0 0 0 0 0 0 0 0 0 0 0 0 0 0 0 0 0 0 0 0 0 0 0 0 0 0 0 0 0 0 0 0 0 0 0 0 0 0 0 0 0 0 0 0 0 0 0 0 0 0 0 0 0 0 0 0 0 0 0 0 0 0 0 0 0 0 0 0 0 0 0 0 0 0 0 0 0 0 0 0 0 0 0 0 0 0 0 0 0 0 0 0 0 0 0 0 0 0 0 0 0 0 0 0 0 0 0 0 0 0 0 0 0 0 0 0 0 0 0 0 0 0 0 0 0 0 0 0 0 0 0 0 0 0 0 0 0 0 0 0 0 0 0 0 0 0 0 0 0 0 0 0 0 0 0 0 0 0 0 0 0 0 0 0 0 0 0 0 0 0 0 0 0 0 0 0 0 0 0 0 0 0 
0 0 0 0 0 0 0 0 0 0 0 0 0 0 0 0 0 0 0 0 0 0 0 0 0 0 0 0 0 0 0 0 0 0 0 0 0 0 0 3.074125e-15 1.315972e-14 5.167274e-14 1.887973e-13 6.434641e-13 2.070870e-12 6.304130e-12 1.832345e-11 5.091180e-11 1.360910e-10 3.502729e-10 8.711592e-10 2.095096e-09 4.878727e-09 1.101200e-08 2.409834e-08 5.123995e-08 1.058423e-07 2.129624e-07 4.171886e-07 7.987710e-07 1.497503e-06 2.778492e-06 5.040957e-06 8.954900e-06 1.542225e-05 2.586176e-05 4.194820e-05 6.610385e-05 1.006598e-04 1.486778e-04 2.121181e-04 2.933126e-04 3.918927e-04 5.074318e-04 6.352580e-04 7.708007e-04 9.048087e-04 1.029526e-03 1.133858e-03 1.210604e-03 1.251692e-03 1.254922e-03 1.219080e-03 1.148810e-03 1.049716e-03 9.310578e-04 8.014975e-04 6.703804e-04 5.448834e-04 4.308678e-04 3.316191e-04 2.487366e-04 1.819847e-04 1.301435e-04 9.130181e-05 6.333598e-05 4.353731e-05 2.965283e-05 2.001397e-05 1.339044e-05 8.884859e-06 5.849571e-06 3.823801e-06 2.483336e-06 1.603459e-06 1.030027e-06 6.588136e-07 4.199501e-07 2.671755e-07 1.700475e-07 1.087344e-07 7.036485e-08 4.665021e-08 3.226071e-08 2.378609e-08 1.904048e-08 1.662234e-08 1.562695e-08 1.546532e-08 1.575005e-08 1.622311e-08 1.671281e-08 1.710562e-08 1.733045e-08 1.734716e-08 1.713989e-08 1.671123e-08 1.607790e-08 1.526691e-08 1.431164e-08 1.324918e-08 1.211692e-08 1.095108e-08 9.784116e-09 8.644470e-09 7.554940e-09 6.533412e-09 5.592063e-09 4.738648e-09 3.976281e-09 3.304876e-09 2.721221e-09 2.220282e-09 1.795357e-09 1.439094e-09 1.143605e-09 9.011633e-10 7.042334e-10 5.458881e-10 4.197635e-10 3.202622e-10 2.424619e-10 1.821813e-10 1.358691e-10 1.005960e-10 7.394647e-11 5.397837e-11 3.913109e-11 2.817840e-11 2.015763e-11 1.432813e-11 1.012064e-11 7.105586e-12 4.959242e-12 3.441682e-12 2.375347e-12 1.630858e-12 1.114079e-12 7.574922e-13 5.127466e-13 3.456751e-13 2.321675e-13 1.554218e-13 1.037429e-13 6.908492e-14 4.591720e-14 3.047931e-14 2.021540e-14 1.340569e-14 8.892721e-15 5.904510e-15 3.925641e-15 2.614717e-15 1.745121e-15 1.167430e-15 0 0 0 0 0 0 0 0 0 0 0 0 0 0 0 0 0 0 0 0 0 0 0 0 0 0 0 0 0 0 0 0 0 0 0 0 0 0 0 0 0 0 0 0 0 0 0 0 0 0 0 0 0 0 0 0 0 0 0 0 0 0 0 0 0 0 0 0 0 0 0 0 0 0 0 0 0 0 0 0 0 0 0 0 0 0 0 0 0 0 0 0 0 0 0 0 0 0 0 0 0 0 0 0 0 0 0 0 0 0 0 0 0 0 0 0 0 0 0 0 0 0 0 0 0 0 0 0 0 0 0 0 0 0 0 0 0 0 0 0 0 0 0 0 0 0 0 0 0 0 0 0 0 0 0 0 0 0 0 0 0 0 0 0 0 0 0 0 0 0 0 0 0 0 0 0 0 0 0 0 0 0 0 0 0 0 0 0 0 0 0 0 0 0 0 0 0 0 0 
0 0 0 0 0 0 0 0 0 0 0 0 0 0 0 0 0 0 0 0 0 0 0 0 0 0 0 0 0 0 0 0 0 0 0 0 0 0 4.457653e-15 1.999518e-14 8.178940e-14 3.061720e-13 1.065785e-12 3.458706e-12 1.060805e-11 3.080091e-11 8.555888e-11 2.276531e-10 5.844364e-10 1.449059e-09 3.483935e-09 8.128701e-09 1.842808e-08 4.062743e-08 8.706806e-08 1.817130e-07 3.690029e-07 7.310477e-07 1.411326e-06 2.663589e-06 4.919442e-06 8.987179e-06 1.606929e-05 2.816156e-05 4.788114e-05 7.929087e-05 1.270406e-04 1.977756e-04 2.976297e-04 4.346243e-04 6.135174e-04 8.400904e-04 1.112798e-03 1.430178e-03 1.779645e-03 2.149179e-03 2.514610e-03 2.855739e-03 3.143567e-03 3.358911e-03 3.480036e-03 3.500002e-03 3.414374e-03 3.233843e-03 2.972141e-03 2.652959e-03 2.299378e-03 1.936792e-03 1.585627e-03 1.262938e-03 9.791199e-04 7.397306e-04 5.452297e-04 3.930209e-04 2.785127e-04 1.954568e-04 1.358848e-04 9.358877e-05 6.387926e-05 4.322209e-05 2.900822e-05 1.931996e-05 1.277862e-05 8.398130e-06 5.488388e-06 3.568648e-06 2.310684e-06 1.491069e-06 9.603751e-07 6.187401e-07 4.004291e-07 2.621147e-07 1.755959e-07 1.224554e-07 9.077407e-08 7.278951e-08 6.346115e-08 5.948182e-08 5.866883e-08 5.956593e-08 6.119183e-08 6.288907e-08 6.422139e-08 6.491747e-08 6.482669e-08 6.389319e-08 6.213348e-08 5.961687e-08 5.645246e-08 5.277013e-08 4.871400e-08 4.442479e-08 4.003929e-08 3.567583e-08 3.143882e-08 2.740823e-08 2.364744e-08 2.019630e-08 1.708034e-08 1.430651e-08 1.187198e-08 9.761625e-09 7.955381e-09 6.426601e-09 5.147617e-09 4.088507e-09 3.220887e-09 2.516852e-09 1.951315e-09 1.501056e-09 1.145991e-09 8.683364e-10 6.531806e-10 4.877764e-10 3.617178e-10 2.663683e-10 1.948419e-10 1.415702e-10 1.022071e-10 7.331874e-11 5.227724e-11 3.704976e-11 2.610861e-11 1.829488e-11 1.275232e-11 8.843009e-12 6.103090e-12 4.192730e-12 2.868510e-12 1.954852e-12 1.327753e-12 8.990494e-13 6.072885e-13 4.093562e-13 2.755588e-13 1.853133e-13 1.245962e-13 8.378827e-14 5.639667e-14 3.800641e-14 2.565968e-14 1.735817e-14 1.177009e-14 7.999082e-15 5.449222e-15 3.719710e-15 2.543913e-15 1.742064e-15 1.194132e-15 0 0 0 0 0 0 0 0 0 0 0 0 0 0 0 0 0 0 0 0 0 0 0 0 0 0 0 0 0 0 0 0 0 0 0 0 0 0 0 0 0 0 0 0 0 0 0 0 0 0 0 0 0 0 0 0 0 0 0 0 0 0 0 0 0 0 0 0 0 0 0 0 0 0 0 0 0 0 0 0 0 0 0 0 0 0 0 0 0 0 0 0 0 0 0 0 0 0 0 0 0 0 0 0 0 0 0 0 0 0 0 0 0 0 0 0 0 0 0 0 0 0 0 0 0 0 0 0 0 0 0 0 0 0 0 0 0 0 0 0 0 0 0 0 0 0 0 0 0 0 0 0 0 0 0 0 0 0 0 0 0 0 0 0 0 0 0 0 0 0 0 0 0 0 0 0 0 0 0 0 0 0 0 0 0 0 0 0 0 0 0 0 0 0 0 
0 0 0 0 0 0 0 0 0 0 0 0 0 0 0 0 0 0 0 0 0 0 0 0 0 0 0 0 0 0 0 0 0 0 0 0 1.212149e-15 6.444260e-15 3.089407e-14 1.321414e-13 5.141051e-13 1.825469e-12 6.025782e-12 1.852991e-11 5.391019e-11 1.485992e-10 3.926458e-10 9.956485e-10 2.442650e-09 5.804313e-09 1.342212e-08 3.023169e-08 6.642653e-08 1.424735e-07 2.980801e-07 6.090301e-07 1.213597e-06 2.363672e-06 4.492677e-06 8.356331e-06 1.519651e-05 2.730745e-05 4.808353e-05 8.305396e-05 1.392898e-04 2.275339e-04 3.597467e-04 5.526479e-04 8.211447e-04 1.184384e-03 1.653056e-03 2.240051e-03 2.940612e-03 3.750094e-03 4.637862e-03 5.574410e-03 6.502125e-03 7.371989e-03 8.114512e-03 8.681859e-03 9.019975e-03 9.108229e-03 8.931974e-03 8.512266e-03 7.878736e-03 7.086583e-03 6.191900e-03 5.258876e-03 4.341394e-03 3.486481e-03 2.724826e-03 2.074898e-03 1.541352e-03 1.120389e-03 8.022092e-04 5.689497e-04 3.997135e-04 2.782134e-04 1.919142e-04 1.312559e-04 8.905420e-05 5.997313e-05 4.011560e-05 2.666759e-05 1.763050e-05 1.159893e-05 7.599382e-06 4.962721e-06 3.234896e-06 2.109427e-06 1.381612e-06 9.151367e-07 6.199676e-07 4.366659e-07 3.261750e-07 2.627493e-07 2.293987e-07 2.148215e-07 2.114398e-07 2.141289e-07 2.193977e-07 2.248883e-07 2.290379e-07 2.308800e-07 2.298932e-07 2.259035e-07 2.189988e-07 2.094586e-07 1.976961e-07 1.841977e-07 1.694852e-07 1.540671e-07 1.384219e-07 1.229640e-07 1.080450e-07 9.393489e-08 8.083569e-08 6.887374e-08 5.811905e-08 4.858444e-08 4.024517e-08 3.304074e-08 2.689154e-08 2.170093e-08 1.736754e-08 1.378640e-08 1.085699e-08 8.483217e-09 6.577994e-09 5.062314e-09 3.867356e-09 2.933096e-09 2.208880e-09 1.651917e-09 1.227052e-09 9.053859e-10 6.637332e-10 4.834855e-10 3.500283e-10 2.518841e-10 1.802131e-10 1.282092e-10 9.072448e-11 6.386715e-11 4.474294e-11 3.120059e-11 2.166535e-11 1.498509e-11 1.032880e-11 7.097358e-12 4.864537e-12 3.327193e-12 2.272369e-12 1.550469e-12 1.057594e-12 7.215533e-13 4.927043e-13 3.368690e-13 2.307346e-13 1.583633e-13 1.089459e-13 7.512519e-14 5.192598e-14 3.596600e-14 2.495749e-14 1.734184e-14 1.206109e-14 8.390710e-15 5.835873e-15 4.055223e-15 2.813851e-15 1.948446e-15 1.345798e-15 0 0 0 0 0 0 0 0 0 0 0 0 0 0 0 0 0 0 0 0 0 0 0 0 0 0 0 0 0 0 0 0 0 0 0 0 0 0 0 0 0 0 0 0 0 0 0 0 0 0 0 0 0 0 0 0 0 0 0 0 0 0 0 0 0 0 0 0 0 0 0 0 0 0 0 0 0 0 0 0 0 0 0 0 0 0 0 0 0 0 0 0 0 0 0 0 0 0 0 0 0 0 0 0 0 0 0 0 0 0 0 0 0 0 0 0 0 0 0 0 0 0 0 0 0 0 0 0 0 0 0 0 0 0 0 0 0 0 0 0 0 0 0 0 0 0 0 0 0 0 0 0 0 0 0 0 0 0 0 0 0 0 0 0 0 0 0 0 0 0 0 0 0 0 0 0 0 0 0 0 0 0 0 0 0 0 0 0 0 0 0 