# vtk DataFile Version 2.0
Comment goes here
ASCII

DATASET STRUCTURED_POINTS
FIELD FieldData 1
TIME 1 1 double
1.72500000
DIMENSIONS    384   64   1

ORIGIN    0.000   0.000   0.000
SPACING   0.078125 0.078125   1.000

POINT_DATA   24576
SCALARS Concentration double
LOOKUP_TABLE default

0 0 0 0 0 0 0 0 0 0 0 0 0 0 0 0 0 0 0 0 0 0 0 0 0 0 0 0 0 0 0 0 0 0 0 0 0 0 0 0 0 0 0 0 0 0 0 0 0 0 0 0 0 0 0 0 0 0 0 0 0 0 0 0 0 0 0 0 0 0 0 0 0 0 0 0 0 1.028601e-15 1.103702e-15 1.158881e-15 1.190426e-15 1.196388e-15 1.177368e-15 1.134033e-15 1.069307e-15 0 0 0 0 0 0 0 0 0 0 0 0 0 0 0 0 0 0 0 0 0 0 0 0 0 0 0 0 0 0 0 0 0 0 0 0 0 0 0 0 0 0 0 0 0 0 0 0 0 0 0 0 0 0 0 0 0 0 0 0 0 0 0 0 0 0 0 0 0 0 0 0 0 0 0 0 0 0 0 0 0 0 0 0 0 0 0 0 0 0 0 0 0 0 0 0 0 0 0 0 0 0 0 0 0 0 0 0 0 0 0 0 0 0 0 0 0 0 0 0 0 0 0 0 0 0 0 0 0 0 0 0 0 0 0 0 0 0 0 0 0 0 0 0 0 0 0 0 0 0 0 0 0 0 0 0 0 0 0 0 0 0 0 0 0 0 0 0 0 0 0 0 0 0 0 0 0 0 0 0 0 0 0 0 0 0 0 0 0 0 0 0 0 0 0 0 0 0 0 0 0 0 0 0 0 0 0 0 0 0 0 0 0 0 0 0 0 0 0 0 0 0 0 0 0 0 0 0 0 0 0 0 0 0 0 0 0 0 0 0 0 0 0 0 0 0 0 0 0 0 0 0 0 0 0 0 0 0 0 0 0 0 0 0 0 0 0 0 0 0 0 0 0 0 0 0 0 0 0 0 0 0 0 0 0 0 0 0 0 0 0 0 0 0 0 0 0 0 0 
0 0 0 0 0 0 0 0 0 0 0 0 0 0 0 0 0 0 0 0 0 0 0 0 0 0 0 0 0 0 0 0 0 0 0 0 0 0 0 0 0 0 0 0 0 0 0 0 0 0 0 0 0 0 0 0 0 0 0 0 0 0 0 0 0 0 0 0 0 0 0 0 0 0 0 0 0 0 0 0 0 0 0 0 0 0 0 0 0 0 0 0 0 0 0 0 0 0 0 0 0 0 0 0 0 0 0 0 0 0 0 0 0 0 0 0 0 0 0 0 0 0 0 0 0 0 0 0 0 0 0 0 0 0 0 0 0 0 0 0 0 0 0 0 0 0 0 0 0 0 0 0 0 0 0 0 0 0 0 0 0 0 0 0 0 0 0 0 0 0 0 0 0 0 0 0 0 0 0 0 0 0 0 0 0 0 0 0 0 0 0 0 0 0 0 0 0 0 0 0 0 0 0 0 0 0 0 0 0 0 0 0 0 0 0 0 0 0 0 0 0 0 0 0 0 0 0 0 0 0 0 0 0 0 0 0 0 0 0 0 0 0 0 0 0 0 0 0 0 0 0 0 0 0 0 0 0 0 0 0 0 0 0 0 0 0 0 0 0 0 0 0 0 0 0 0 0 0 0 0 0 0 0 0 0 0 0 0 0 0 0 0 0 0 0 0 0 0 0 0 0 0 0 0 0 0 0 0 0 0 0 0 0 0 0 0 0 0 0 0 0 0 0 0 0 0 0 0 0 0 0 0 0 0 0 0 0 0 0 0 0 0 0 0 0 0 0 0 0 0 0 0 0 0 0 0 0 0 0 0 0 0 0 0 0 0 0 0 0 0 0 0 0 0 0 0 0 0 0 0 0 0 0 0 
0 0 0 0 0 0 0 0 0 0 0 0 0 0 0 0 0 0 0 0 0 0 0 0 0 0 0 0 0 0 0 0 0 0 0 0 0 0 0 0 0 0 0 0 0 0 0 0 0 0 0 0 0 0 0 0 0 0 0 0 0 0 0 0 0 0 0 0 0 0 0 0 0 0 0 0 0 1.032781e-15 1.209026e-15 1.404248e-15 1.612761e-15 1.828599e-15 2.044952e-15 2.254575e-15 2.449526e-15 2.621945e-15 2.764201e-15 2.869723e-15 2.933315e-15 2.951686e-15 2.923742e-15 2.850559e-15 2.735536e-15 2.583778e-15 2.402128e-15 2.198122e-15 1.980030e-15 1.755680e-15 1.532641e-15 1.317187e-15 1.114679e-15 0 0 0 0 0 0 0 0 0 0 0 0 0 0 0 0 0 0 0 0 0 0 0 0 0 0 0 0 0 0 0 0 0 0 0 0 0 0 0 0 0 0 0 0 0 0 0 0 0 0 0 0 0 0 0 0 0 0 0 0 0 0 0 0 0 0 0 0 0 0 0 0 0 0 0 0 0 0 0 0 0 0 0 0 0 0 0 0 0 0 0 0 0 0 0 0 0 0 0 0 0 0 0 0 0 0 0 0 0 0 0 0 0 0 0 0 0 0 0 0 0 0 0 0 0 0 0 0 0 0 0 0 0 0 0 0 0 0 0 0 0 0 0 0 0 0 0 0 0 0 0 0 0 0 0 0 0 0 0 0 0 0 0 0 0 0 0 0 0 0 0 0 0 0 0 0 0 0 0 0 0 0 0 0 0 0 0 0 0 0 0 0 0 0 0 0 0 0 0 0 0 0 0 0 0 0 0 0 0 0 0 0 0 0 0 0 0 0 0 0 0 0 0 0 0 0 0 0 0 0 0 0 0 0 0 0 0 0 0 0 0 0 0 0 0 0 0 0 0 0 0 0 0 0 0 0 0 0 0 0 0 0 0 0 0 0 0 0 0 0 0 0 0 0 0 0 0 0 0 0 0 0 0 
0 0 0 0 0 0 0 0 0 0 0 0 0 0 0 0 0 0 0 0 0 0 0 0 0 0 0 0 0 0 0 0 0 0 0 0 0 0 0 0 0 0 0 0 0 0 0 1.263789e-15 2.158139e-15 3.403733e-15 4.951475e-15 6.700625e-15 8.429975e-15 9.918953e-15 1.091815e-14 1.129150e-14 1.098641e-14 1.009358e-14 8.781825e-15 7.268430e-15 5.758712e-15 4.407678e-15 3.308797e-15 2.491399e-15 1.943343e-15 1.625550e-15 1.492836e-15 1.502578e-15 1.622040e-15 1.829378e-15 2.113720e-15 2.473975e-15 2.916927e-15 3.455637e-15 4.106576e-15 4.888976e-15 5.829628e-15 6.940148e-15 8.199231e-15 9.583289e-15 1.106030e-14 1.259469e-14 1.413960e-14 1.564480e-14 1.705186e-14 1.830415e-14 1.934477e-14 2.012581e-14 2.060833e-14 2.076797e-14 2.059609e-14 2.009973e-14 1.930328e-14 1.824256e-14 1.696712e-14 1.553002e-14 1.399130e-14 1.240599e-14 1.082922e-14 9.304915e-15 7.872395e-15 6.557391e-15 5.379503e-15 4.345975e-15 3.459011e-15 2.711954e-15 2.095526e-15 1.595619e-15 1.197935e-15 0 0 0 0 0 0 0 0 0 0 0 0 0 0 0 0 0 0 0 0 0 0 0 0 0 0 0 0 0 0 0 0 0 0 0 0 0 0 0 0 0 0 0 0 0 0 0 0 0 0 0 0 0 0 0 0 0 0 0 0 0 0 0 0 0 0 0 0 0 0 0 0 0 0 0 0 0 0 0 0 0 0 0 0 0 0 0 0 0 0 0 0 0 0 0 0 0 0 0 0 0 0 0 0 0 0 0 0 0 0 0 0 0 0 0 0 0 0 0 0 0 0 0 0 0 0 0 0 0 0 0 0 0 0 0 0 0 0 0 0 0 0 0 0 0 0 0 0 0 0 0 0 0 0 0 0 0 0 0 0 0 0 0 0 0 0 0 0 0 0 0 0 0 0 0 0 0 0 0 0 0 0 0 0 0 0 0 0 0 0 0 0 0 0 0 0 0 0 0 0 0 0 0 0 0 0 0 0 0 0 0 0 0 0 0 0 0 0 0 0 0 0 0 0 0 0 0 0 0 0 0 0 0 0 0 0 0 0 0 0 0 0 0 0 0 0 0 0 0 0 0 0 0 0 0 0 0 0 0 0 0 0 0 0 0 0 0 0 0 0 0 0 0 0 0 
0 0 0 0 0 0 0 0 0 0 0 0 0 0 0 0 0 0 0 0 0 0 0 0 0 0 0 0 0 0 0 0 0 0 0 0 0 0 0 0 0 0 0 0 1.807123e-15 4.035569e-15 8.119952e-15 1.494905e-14 2.515505e-14 3.914880e-14 5.629979e-14 7.544416e-14 9.416739e-14 1.100997e-13 1.206170e-13 1.242899e-13 1.206038e-13 1.105300e-13 9.589355e-14 7.901996e-14 6.212725e-14 4.689271e-14 3.433365e-14 2.477058e-14 1.806519e-14 1.378105e-14 1.140898e-14 1.046512e-14 1.057328e-14 1.147260e-14 1.301999e-14 1.516694e-14 1.794393e-14 2.143682e-14 2.577290e-14 3.118106e-14 3.769505e-14 4.526062e-14 5.378940e-14 6.316326e-14 7.319998e-14 8.366453e-14 9.424781e-14 1.045977e-13 1.143153e-13 1.229993e-13 1.302566e-13 1.357466e-13 1.391977e-13 1.404358e-13 1.393973e-13 1.361289e-13 1.307936e-13 1.236406e-13 1.150048e-13 1.052571e-13 9.480398e-14 8.403121e-14 7.331109e-14 6.295269e-14 5.321938e-14 4.429363e-14 3.630325e-14 2.930180e-14 2.329847e-14 1.825005e-14 1.408851e-14 1.071905e-14 8.041151e-15 5.948142e-15 4.340534e-15 3.124905e-15 2.220623e-15 1.557730e-15 1.079230e-15 0 0 0 0 0 0 0 0 0 0 0 0 0 0 0 0 0 0 0 0 0 0 0 0 0 0 0 0 0 0 0 0 0 0 0 0 0 0 0 0 0 0 0 0 0 0 0 0 0 0 0 0 0 0 0 0 0 0 0 0 0 0 0 0 0 0 0 0 0 0 0 0 0 0 0 0 0 0 0 0 0 0 0 0 0 0 0 0 0 0 0 0 0 0 0 0 0 0 0 0 0 0 0 0 0 0 0 0 0 0 0 0 0 0 0 0 0 0 0 0 0 0 0 0 0 0 0 0 0 0 0 0 0 0 0 0 0 0 0 0 0 0 0 0 0 0 0 0 0 0 0 0 0 0 0 0 0 0 0 0 0 0 0 0 0 0 0 0 0 0 0 0 0 0 0 0 0 0 0 0 0 0 0 0 0 0 0 0 0 0 0 0 0 0 0 0 0 0 0 0 0 0 0 0 0 0 0 0 0 0 0 0 0 0 0 0 0 0 0 0 0 0 0 0 0 0 0 0 0 0 0 0 0 0 0 0 0 0 0 0 0 0 0 0 0 0 0 0 0 0 0 0 0 0 0 0 0 0 0 0 0 0 0 0 0 0 0 0 0 
0 0 0 0 0 0 0 0 0 0 0 0 0 0 0 0 0 0 0 0 0 0 0 0 0 0 0 0 0 0 0 0 0 0 0 0 0 0 0 0 0 1.005387e-15 3.126102e-15 8.599536e-15 2.093716e-14 4.596800e-14 9.094984e-14 1.648017e-13 2.732414e-13 4.196634e-13 5.966327e-13 7.919040e-13 9.809550e-13 1.140336e-12 1.244287e-12 1.278848e-12 1.239179e-12 1.134765e-12 9.838999e-13 8.096540e-13 6.345532e-13 4.755797e-13 3.433724e-13 2.413023e-13 1.681185e-13 1.193261e-13 8.965976e-14 7.402129e-14 6.840528e-14 6.996010e-14 7.699848e-14 8.876304e-14 1.052368e-13 1.270332e-13 1.553568e-13 1.903887e-13 2.321191e-13 2.805161e-13 3.352186e-13 3.956593e-13 4.607088e-13 5.289250e-13 5.982555e-13 6.664245e-13 7.307363e-13 7.885454e-13 8.371718e-13 8.743419e-13 8.981859e-13 9.075147e-13 9.018589e-13 8.814861e-13 8.474597e-13 8.013862e-13 7.455022e-13 6.822211e-13 6.142751e-13 5.441766e-13 4.744349e-13 4.070491e-13 3.437966e-13 2.858334e-13 2.340258e-13 1.886798e-13 1.498687e-13 1.172709e-13 9.044903e-14 6.875730e-14 5.154656e-14 3.810735e-14 2.779921e-14 2.000909e-14 1.421998e-14 9.976952e-15 6.915882e-15 4.735793e-15 3.206074e-15 2.145506e-15 1.420423e-15 0 0 0 0 0 0 0 0 0 0 0 0 0 0 0 0 0 0 0 0 0 0 0 0 0 0 0 0 0 0 0 0 0 0 0 0 0 0 0 0 0 0 0 0 0 0 0 0 0 0 0 0 0 0 0 0 0 0 0 0 0 0 0 0 0 0 0 0 0 0 0 0 0 0 0 0 0 0 0 0 0 0 0 0 0 0 0 0 0 0 0 0 0 0 0 0 0 0 0 0 0 0 0 0 0 0 0 0 0 0 0 0 0 0 0 0 0 0 0 0 0 0 0 0 0 0 0 0 0 0 0 0 0 0 0 0 0 0 0 0 0 0 0 0 0 0 0 0 0 0 0 0 0 0 0 0 0 0 0 0 0 0 0 0 0 0 0 0 0 0 0 0 0 0 0 0 0 0 0 0 0 0 0 0 0 0 0 0 0 0 0 0 0 0 0 0 0 0 0 0 0 0 0 0 0 0 0 0 0 0 0 0 0 0 0 0 0 0 0 0 0 0 0 0 0 0 0 0 0 0 0 0 0 0 0 0 0 0 0 0 0 0 0 0 0 0 0 0 0 0 0 0 0 0 0 0 0 0 0 0 0 0 0 0 0 
0 0 0 0 0 0 0 0 0 0 0 0 0 0 0 0 0 0 0 0 0 0 0 0 0 0 0 0 0 0 0 0 0 0 0 0 0 0 0 0 3.223372e-15 1.136854e-14 3.480815e-14 9.419618e-14 2.255125e-13 4.867712e-13 9.471415e-13 1.688930e-12 2.758944e-12 4.180954e-12 5.875982e-12 7.724725e-12 9.498442e-12 1.098214e-11 1.194290e-11 1.225306e-11 1.186942e-11 1.087591e-11 9.440618e-12 7.775953e-12 6.093787e-12 4.556265e-12 3.267433e-12 2.262817e-12 1.532628e-12 1.035158e-12 7.198092e-13 5.370342e-13 4.471904e-13 4.215162e-13 4.421996e-13 5.001094e-13 5.938686e-13 7.261503e-13 8.970745e-13 1.107806e-12 1.359486e-12 1.652826e-12 1.986662e-12 2.357865e-12 2.760082e-12 3.184286e-12 3.617996e-12 4.046590e-12 4.453201e-12 4.820632e-12 5.131844e-12 5.371912e-12 5.528760e-12 5.594435e-12 5.565675e-12 5.443996e-12 5.235889e-12 4.951636e-12 4.605219e-12 4.212233e-12 3.789785e-12 3.354127e-12 2.920855e-12 2.502855e-12 2.110975e-12 1.752627e-12 1.432860e-12 1.153637e-12 9.150704e-13 7.151654e-13 5.509485e-13 4.184235e-13 3.134165e-13 2.315669e-13 1.688466e-13 1.215112e-13 8.635211e-14 6.060494e-14 4.202970e-14 2.880469e-14 1.951974e-14 1.308080e-14 8.673605e-15 5.691366e-15 3.697863e-15 2.379311e-15 1.517030e-15 0 0 0 0 0 0 0 0 0 0 0 0 0 0 0 0 0 0 0 0 0 0 0 0 0 0 0 0 0 0 0 0 0 0 0 0 0 0 0 0 0 0 0 0 0 0 0 0 0 0 0 0 0 0 0 0 0 0 0 0 0 0 0 0 0 0 0 0 0 0 0 0 0 0 0 0 0 0 0 0 0 0 0 0 0 0 0 0 0 0 0 0 0 0 0 0 0 0 0 0 0 0 0 0 0 0 0 0 0 0 0 0 0 0 0 0 0 0 0 0 0 0 0 0 0 0 0 0 0 0 0 0 0 0 0 0 0 0 0 0 0 0 0 0 0 0 0 0 0 0 0 0 0 0 0 0 0 0 0 0 0 0 0 0 0 0 0 0 0 0 0 0 0 0 0 0 0 0 0 0 0 0 0 0 0 0 0 0 0 0 0 0 0 0 0 0 0 0 0 0 0 0 0 0 0 0 0 0 0 0 0 0 0 0 0 0 0 0 0 0 0 0 0 0 0 0 0 0 0 0 0 0 0 0 0 0 0 0 0 0 0 0 0 0 0 0 0 0 0 0 0 0 0 0 0 0 0 0 0 0 0 
0 0 0 0 0 0 0 0 0 0 0 0 0 0 0 0 0 0 0 0 0 0 0 0 0 0 0 0 0 0 0 0 0 0 0 0 0 0 1.813768e-15 8.545631e-15 3.436677e-14 1.194220e-13 3.598746e-13 9.581173e-13 2.255002e-12 4.785556e-12 9.154435e-12 1.606105e-11 2.583748e-11 3.861860e-11 5.362980e-11 6.981173e-11 8.519726e-11 9.798587e-11 1.062385e-10 1.088786e-10 1.055410e-10 9.688705e-11 8.433179e-11 6.966098e-11 5.472685e-11 4.095909e-11 2.932338e-11 2.016959e-11 1.344950e-11 8.807456e-12 5.800182e-12 3.980234e-12 2.985381e-12 2.547071e-12 2.494285e-12 2.738983e-12 3.238269e-12 3.967423e-12 4.921965e-12 6.110933e-12 7.543690e-12 9.229106e-12 1.116264e-11 1.333012e-11 1.569479e-11 1.820614e-11 2.078875e-11 2.335668e-11 2.580601e-11 2.803315e-11 2.993173e-11 3.141026e-11 3.239220e-11 3.282763e-11 3.269465e-11 3.200105e-11 3.078606e-11 2.911124e-11 2.706288e-11 2.473475e-11 2.223244e-11 1.965284e-11 1.709157e-11 1.462408e-11 1.231620e-11 1.020973e-11 8.334911e-12 6.700994e-12 5.308512e-12 4.143779e-12 3.189152e-12 2.419885e-12 1.811501e-12 1.337777e-12 9.752828e-13 7.018547e-13 4.989427e-13 3.503492e-13 2.431818e-13 1.668376e-13 1.132238e-13 7.599937e-14 5.049800e-14 3.321036e-14 2.163647e-14 1.396219e-14 8.932391e-15 5.664599e-15 3.564234e-15 2.224847e-15 1.379102e-15 0 0 0 0 0 0 0 0 0 0 0 0 0 0 0 0 0 0 0 0 0 0 0 0 0 0 0 0 0 0 0 0 0 0 0 0 0 0 0 0 0 0 0 0 0 0 0 0 0 0 0 0 0 0 0 0 0 0 0 0 0 0 0 0 0 0 0 0 0 0 0 0 0 0 0 0 0 0 0 0 0 0 0 0 0 0 0 0 0 0 0 0 0 0 0 0 0 0 0 0 0 0 0 0 0 0 0 0 0 0 0 0 0 0 0 0 0 0 0 0 0 0 0 0 0 0 0 0 0 0 0 0 0 0 0 0 0 0 0 0 0 0 0 0 0 0 0 0 0 0 0 0 0 0 0 0 0 0 0 0 0 0 0 0 0 0 0 0 0 0 0 0 0 0 0 0 0 0 0 0 0 0 0 0 0 0 0 0 0 0 0 0 0 0 0 0 0 0 0 0 0 0 0 0 0 0 0 0 0 0 0 0 0 0 0 0 0 0 0 0 0 0 0 0 0 0 0 0 0 0 0 0 0 0 0 0 0 0 0 0 0 0 0 0 0 0 0 0 0 0 0 0 0 0 0 0 0 
0 0 0 0 0 0 0 0 0 0 0 0 0 0 0 0 0 0 0 0 0 0 0 0 0 0 0 0 0 0 0 0 0 0 0 0 0 3.359424e-15 1.848625e-14 8.582031e-14 3.399184e-13 1.162123e-12 3.444977e-12 9.018555e-12 2.086530e-11 4.352583e-11 8.184951e-11 1.412451e-10 2.236980e-10 3.296277e-10 4.521295e-10 5.825517e-10 7.054644e-10 8.070732e-10 8.726800e-10 8.939164e-10 8.678774e-10 7.991692e-10 6.985340e-10 5.797112e-10 4.574997e-10 3.436566e-10 2.464620e-10 1.692666e-10 1.120432e-10 7.211084e-11 4.588351e-11 2.965523e-11 2.035223e-11 1.566818e-11 1.412904e-11 1.478442e-11 1.706558e-11 2.072630e-11 2.570075e-11 3.202189e-11 3.974908e-11 4.893632e-11 5.957872e-11 7.160327e-11 8.482345e-11 9.895301e-11 1.135769e-10 1.281941e-10 1.422134e-10 1.550212e-10 1.660000e-10 1.746019e-10 1.803765e-10 1.830218e-10 1.824058e-10 1.785733e-10 1.717508e-10 1.623051e-10 1.507346e-10 1.375944e-10 1.234868e-10 1.089786e-10 9.460465e-11 8.079938e-11 6.791989e-11 5.620239e-11 4.580005e-11 3.676244e-11 2.907814e-11 2.266852e-11 1.742533e-11 1.321010e-11 9.881323e-12 7.294066e-12 5.316121e-12 3.826040e-12 2.720615e-12 1.911630e-12 1.328014e-12 9.122586e-13 6.200141e-13 4.169728e-13 2.776499e-13 1.830736e-13 1.196088e-13 7.744021e-14 4.971839e-14 3.165737e-14 2.000473e-14 1.254747e-14 7.817228e-15 4.838356e-15 2.977259e-15 1.821803e-15 1.109439e-15 0 0 0 0 0 0 0 0 0 0 0 0 0 0 0 0 0 0 0 0 0 0 0 0 0 0 0 0 0 0 0 0 0 0 0 0 0 0 0 0 0 0 0 0 0 0 0 0 0 0 0 0 0 0 0 0 0 0 0 0 0 0 0 0 0 0 0 0 0 0 0 0 0 0 0 0 0 0 0 0 0 0 0 0 0 0 0 0 0 0 0 0 0 0 0 0 0 0 0 0 0 0 0 0 0 0 0 0 0 0 0 0 0 0 0 0 0 0 0 0 0 0 0 0 0 0 0 0 0 0 0 0 0 0 0 0 0 0 0 0 0 0 0 0 0 0 0 0 0 0 0 0 0 0 0 0 0 0 0 0 0 0 0 0 0 0 0 0 0 0 0 0 0 0 0 0 0 0 0 0 0 0 0 0 0 0 0 0 0 0 0 0 0 0 0 0 0 0 0 0 0 0 0 0 0 0 0 0 0 0 0 0 0 0 0 0 0 0 0 0 0 0 0 0 0 0 0 0 0 0 0 0 0 0 0 0 0 0 0 0 0 0 0 0 0 0 0 0 0 0 0 0 0 
0 0 0 0 0 0 0 0 0 0 0 0 0 0 0 0 0 0 0 0 0 0 0 0 0 0 0 0 0 0 0 0 0 0 0 0 5.011660e-15 3.246299e-14 1.760153e-13 8.028089e-13 3.122505e-12 1.048536e-11 3.053040e-11 7.854131e-11 1.785070e-10 3.659257e-10 6.761084e-10 1.147094e-09 1.787346e-09 2.594641e-09 3.512322e-09 4.476045e-09 5.375432e-09 6.114995e-09 6.593982e-09 6.753279e-09 6.571733e-09 6.076661e-09 5.341618e-09 4.461274e-09 3.544039e-09 2.677984e-09 1.929593e-09 1.328190e-09 8.778116e-10 5.603313e-10 3.496642e-10 2.174765e-10 1.398850e-10 9.884546e-11 8.136170e-11 7.890838e-11 8.696226e-11 1.033850e-10 1.273701e-10 1.588934e-10 1.981719e-10 2.455264e-10 3.009498e-10 3.641602e-10 4.341821e-10 5.095736e-10 5.880653e-10 6.669850e-10 7.430251e-10 8.128232e-10 8.728799e-10 9.201527e-10 9.520770e-10 9.669760e-10 9.641088e-10 9.437410e-10 9.071748e-10 8.564521e-10 7.943869e-10 7.240103e-10 6.486678e-10 5.713849e-10 4.950802e-10 4.220057e-10 3.540727e-10 2.924431e-10 2.379139e-10 1.906590e-10 1.505998e-10 1.172565e-10 9.004924e-11 6.821113e-11 5.099907e-11 3.763483e-11 2.743165e-11 1.974814e-11 1.405206e-11 9.882395e-12 6.874386e-12 4.729513e-12 3.220806e-12 2.170869e-12 1.449412e-12 9.584968e-13 6.283651e-13 4.083238e-13 2.632481e-13 1.683613e-13 1.069173e-13 6.741170e-14 4.224111e-14 2.630331e-14 1.629358e-14 1.004005e-14 6.161101e-15 3.765296e-15 2.294546e-15 1.394491e-15 0 0 0 0 0 0 0 0 0 0 0 0 0 0 0 0 0 0 0 0 0 0 0 0 0 0 0 0 0 0 0 0 0 0 0 0 0 0 0 0 0 0 0 0 0 0 0 0 0 0 0 0 0 0 0 0 0 0 0 0 0 0 0 0 0 0 0 0 0 0 0 0 0 0 0 0 0 0 0 0 0 0 0 0 0 0 0 0 0 0 0 0 0 0 0 0 0 0 0 0 0 0 0 0 0 0 0 0 0 0 0 0 0 0 0 0 0 0 0 0 0 0 0 0 0 0 0 0 0 0 0 0 0 0 0 0 0 0 0 0 0 0 0 0 0 0 0 0 0 0 0 0 0 0 0 0 0 0 0 0 0 0 0 0 0 0 0 0 0 0 0 0 0 0 0 0 0 0 0 0 0 0 0 0 0 0 0 0 0 0 0 0 0 0 0 0 0 0 0 0 0 0 0 0 0 0 0 0 0 0 0 0 0 0 0 0 0 0 0 0 0 0 0 0 0 0 0 0 0 0 0 0 0 0 0 0 0 0 0 0 0 0 0 0 0 0 0 0 0 0 
0 0 0 0 0 0 0 0 0 0 0 0 0 0 0 0 0 0 0 0 0 0 0 0 0 0 0 0 0 0 0 0 0 0 0 5.876030e-15 4.615868e-14 2.947367e-13 1.567720e-12 6.987541e-12 2.658636e-11 8.739896e-11 2.495038e-10 6.298971e-10 1.405551e-09 2.830180e-09 5.136899e-09 8.566011e-09 1.312645e-08 1.876229e-08 2.504996e-08 3.155276e-08 3.755633e-08 4.246565e-08 4.566325e-08 4.677251e-08 4.565291e-08 4.243784e-08 3.757082e-08 3.163571e-08 2.534606e-08 1.930848e-08 1.400991e-08 9.693163e-09 6.420377e-09 4.089338e-09 2.527557e-09 1.538899e-09 9.546349e-10 6.352102e-10 4.775952e-10 4.214665e-10 4.334235e-10 4.962694e-10 6.023303e-10 7.493875e-10 9.377173e-10 1.168501e-09 1.441956e-09 1.756702e-09 2.108269e-09 2.489235e-09 2.888267e-09 3.291211e-09 3.680980e-09 4.039530e-09 4.348546e-09 4.591706e-09 4.755656e-09 4.831609e-09 4.815969e-09 4.710524e-09 4.522399e-09 4.262769e-09 3.946363e-09 3.589266e-09 3.208500e-09 2.819742e-09 2.437404e-09 2.072886e-09 1.735251e-09 1.430207e-09 1.161183e-09 9.288994e-10 7.325267e-10 5.695813e-10 4.369091e-10 3.306828e-10 2.470857e-10 1.822948e-10 1.328702e-10 9.569234e-11 6.813423e-11 4.796866e-11 3.341208e-11 2.302852e-11 1.571456e-11 1.061875e-11 7.109605e-12 4.717152e-12 3.103496e-12 2.024991e-12 1.311237e-12 8.427405e-13 5.379727e-13 3.411605e-13 2.150836e-13 1.348349e-13 8.411812e-14 5.223902e-14 3.232257e-14 1.993398e-14 1.226603e-14 7.534750e-15 4.625960e-15 2.840554e-15 1.746804e-15 1.076628e-15 0 0 0 0 0 0 0 0 0 0 0 0 0 0 0 0 0 0 0 0 0 0 0 0 0 0 0 0 0 0 0 0 0 0 0 0 0 0 0 0 0 0 0 0 0 0 0 0 0 0 0 0 0 0 0 0 0 0 0 0 0 0 0 0 0 0 0 0 0 0 0 0 0 0 0 0 0 0 0 0 0 0 0 0 0 0 0 0 0 0 0 0 0 0 0 0 0 0 0 0 0 0 0 0 0 0 0 0 0 0 0 0 0 0 0 0 0 0 0 0 0 0 0 0 0 0 0 0 0 0 0 0 0 0 0 0 0 0 0 0 0 0 0 0 0 0 0 0 0 0 0 0 0 0 0 0 0 0 0 0 0 0 0 0 0 0 0 0 0 0 0 0 0 0 0 0 0 0 0 0 0 0 0 0 0 0 0 0 0 0 0 0 0 0 0 0 0 0 0 0 0 0 0 0 0 0 0 0 0 0 0 0 0 0 0 0 0 0 0 0 0 0 0 0 0 0 0 0 0 0 0 0 0 0 0 0 0 0 0 0 0 0 0 0 0 0 
0 0 0 0 0 0 0 0 0 0 0 0 0 0 0 0 0 0 0 0 0 0 0 0 0 0 0 0 0 0 0 0 0 0 5.409000e-15 5.169417e-14 4.047318e-13 2.536539e-12 1.314842e-11 5.691002e-11 2.105389e-10 6.747462e-10 1.882400e-09 4.655199e-09 1.018444e-08 2.012875e-08 3.586518e-08 5.874806e-08 8.847195e-08 1.244036e-07 1.636497e-07 2.035149e-07 2.398387e-07 2.693260e-07 2.886499e-07 2.956848e-07 2.896200e-07 2.709160e-07 2.419156e-07 2.057351e-07 1.665915e-07 1.282218e-07 9.391317e-08 6.547485e-08 4.360203e-08 2.782911e-08 1.716244e-08 1.038456e-08 6.371814e-09 4.074543e-09 2.839126e-09 2.267736e-09 2.130793e-09 2.301707e-09 2.716789e-09 3.350226e-09 4.194771e-09 5.253159e-09 6.524875e-09 8.004691e-09 9.670895e-09 1.148926e-08 1.340333e-08 1.534449e-08 1.722633e-08 1.895988e-08 2.045250e-08 2.162404e-08 2.240818e-08 2.276335e-08 2.267374e-08 2.215063e-08 2.123203e-08 1.997434e-08 1.845193e-08 1.674284e-08 1.493062e-08 1.308893e-08 1.128679e-08 9.575755e-09 7.998129e-09 6.577960e-09 5.330500e-09 4.256687e-09 3.351956e-09 2.603042e-09 1.994917e-09 1.508847e-09 1.127085e-09 8.314955e-10 6.062888e-10 4.369213e-10 3.114347e-10 2.195572e-10 1.532121e-10 1.058208e-10 7.240045e-11 4.906431e-11 3.296219e-11 2.195079e-11 1.450285e-11 9.505660e-12 6.186398e-12 3.997428e-12 2.567033e-12 1.638180e-12 1.039967e-12 6.567493e-13 4.130367e-13 2.587139e-13 1.615976e-13 1.006757e-13 6.264690e-14 3.895116e-14 2.423642e-14 1.509951e-14 9.434542e-15 5.915132e-15 3.726993e-15 2.360581e-15 1.504632e-15 0 0 0 0 0 0 0 0 0 0 0 0 0 0 0 0 0 0 0 0 0 0 0 0 0 0 0 0 0 0 0 0 0 0 0 0 0 0 0 0 0 0 0 0 0 0 0 0 0 0 0 0 0 0 0 0 0 0 0 0 0 0 0 0 0 0 0 0 0 0 0 0 0 0 0 0 0 0 0 0 0 0 0 0 0 0 0 0 0 0 0 0 0 0 0 0 0 0 0 0 0 0 0 0 0 0 0 0 0 0 0 0 0 0 0 0 0 0 0 0 0 0 0 0 0 0 0 0 0 0 0 0 0 0 0 0 0 0 0 0 0 0 0 0 0 0 0 0 0 0 0 0 0 0 0 0 0 0 0 0 0 0 0 0 0 0 0 0 0 0 0 0 0 0 0 0 0 0 0 0 0 0 0 0 0 0 0 0 0 0 0 0 0 0 0 0 0 0 0 0 0 0 0 0 0 0 0 0 0 0 0 0 0 0 0 0 0 0 0 0 0 0 0 0 0 0 0 0 0 0 0 0 0 0 0 0 0 0 0 0 0 0 0 
0 0 0 0 0 0 0 0 0 0 0 0 0 0 0 0 0 0 0 0 0 0 0 0 0 0 0 0 0 0 0 0 0 3.818169e-15 4.516394e-14 4.362928e-13 3.398971e-12 2.077011e-11 1.041589e-10 4.338421e-10 1.548859e-09 4.808170e-09 1.305377e-08 3.153138e-08 6.752958e-08 1.308905e-07 2.288491e-07 3.681319e-07 5.446522e-07 7.530745e-07 9.754098e-07 1.196610e-06 1.394986e-06 1.554501e-06 1.659733e-06 1.700231e-06 1.672027e-06 1.575588e-06 1.421306e-06 1.223295e-06 1.003311e-06 7.820517e-07 5.794585e-07 4.080134e-07 2.737860e-07 1.756554e-07 1.087086e-07 6.640399e-08 4.068164e-08 2.543995e-08 1.678474e-08 1.227602e-08 1.044418e-08 1.043565e-08 1.178780e-08 1.427703e-08 1.781421e-08 2.237935e-08 2.796151e-08 3.452917e-08 4.198743e-08 5.017268e-08 5.882718e-08 6.762183e-08 7.615520e-08 8.400219e-08 9.073436e-08 9.597609e-08 9.942949e-08 1.009112e-07 1.003643e-07 9.785821e-08 9.358216e-08 8.781139e-08 8.089119e-08 7.318630e-08 6.507001e-08 5.687613e-08 4.890190e-08 4.137400e-08 3.446540e-08 2.827712e-08 2.286276e-08 1.822171e-08 1.432387e-08 1.110841e-08 8.503682e-09 6.427213e-09 4.798911e-09 3.540411e-09 2.582271e-09 1.862369e-09 1.328909e-09 9.383463e-10 6.560308e-10 4.542003e-10 3.115973e-10 2.118509e-10 1.428322e-10 9.551007e-11 6.338382e-11 4.175297e-11 2.731928e-11 1.775861e-11 1.147682e-11 7.375872e-12 4.717725e-12 3.004153e-12 1.906247e-12 1.205873e-12 7.612963e-13 4.799596e-13 3.025485e-13 1.908378e-13 1.206175e-13 7.645438e-14 4.866580e-14 3.112983e-14 2.003120e-14 1.296925e-14 8.452456e-15 5.542599e-15 3.655753e-15 2.422650e-15 1.611705e-15 1.074755e-15 0 0 0 0 0 0 0 0 0 0 0 0 0 0 0 0 0 0 0 0 0 0 0 0 0 0 0 0 0 0 0 0 0 0 0 0 0 0 0 0 0 0 0 0 0 0 0 0 0 0 0 0 0 0 0 0 0 0 0 0 0 0 0 0 0 0 0 0 0 0 0 0 0 0 0 0 0 0 0 0 0 0 0 0 0 0 0 0 0 0 0 0 0 0 0 0 0 0 0 0 0 0 0 0 0 0 0 0 0 0 0 0 0 0 0 0 0 0 0 0 0 0 0 0 0 0 0 0 0 0 0 0 0 0 0 0 0 0 0 0 0 0 0 0 0 0 0 0 0 0 0 0 0 0 0 0 0 0 0 0 0 0 0 0 0 0 0 0 0 0 0 0 0 0 0 0 0 0 0 0 0 0 0 0 0 0 0 0 0 0 0 0 0 0 0 0 0 0 0 0 0 0 0 0 0 0 0 0 0 0 0 0 0 0 0 0 0 0 0 0 0 0 0 0 0 0 0 0 0 0 0 0 0 0 0 0 0 0 
0 0 0 0 0 0 0 0 0 0 0 0 0 0 0 0 0 0 0 0 0 0 0 0 0 0 0 0 0 0 0 0 2.105120e-15 2.994876e-14 3.647838e-13 3.566988e-12 2.757405e-11 1.634300e-10 7.864574e-10 3.123510e-09 1.065651e-08 3.179399e-08 8.347935e-08 1.961698e-07 4.101540e-07 7.783799e-07 1.333966e-06 2.105589e-06 3.058230e-06 4.154088e-06 5.292121e-06 6.396097e-06 7.366206e-06 8.135303e-06 8.644826e-06 8.851819e-06 8.741478e-06 8.305523e-06 7.581038e-06 6.617463e-06 5.511189e-06 4.361459e-06 3.277541e-06 2.336116e-06 1.583417e-06 1.024312e-06 6.427137e-07 3.981928e-07 2.452364e-07 1.518330e-07 9.673880e-08 6.603760e-08 5.104639e-08 4.647572e-08 4.929920e-08 5.791447e-08 7.155605e-08 8.994310e-08 1.129141e-07 1.403038e-07 1.716605e-07 2.062788e-07 2.429915e-07 2.803620e-07 3.165857e-07 3.498111e-07 3.781428e-07 3.999798e-07 4.140542e-07 4.196414e-07 4.165689e-07 4.052148e-07 3.864782e-07 3.615874e-07 3.320761e-07 2.994951e-07 2.654453e-07 2.312912e-07 1.982691e-07 1.672622e-07 1.389644e-07 1.137306e-07 9.175648e-08 7.298907e-08 5.728763e-08 4.437069e-08 3.393810e-08 2.563676e-08 1.914043e-08 1.412417e-08 1.030937e-08 7.443096e-09 5.319494e-09 3.763265e-09 2.637478e-09 1.831117e-09 1.260402e-09 8.600729e-10 5.823315e-10 3.911837e-10 2.609505e-10 1.728522e-10 1.138008e-10 7.446579e-11 4.847934e-11 3.140239e-11 2.026143e-11 1.302405e-11 8.351275e-12 5.343508e-12 3.416719e-12 2.184318e-12 1.398490e-12 8.972358e-13 5.778110e-13 3.737087e-13 2.430946e-13 1.590684e-13 1.047955e-13 6.947644e-14 4.635825e-14 3.109477e-14 2.095530e-14 1.416478e-14 9.595460e-15 6.502209e-15 4.403791e-15 2.975885e-15 2.005177e-15 1.345233e-15 0 0 0 0 0 0 0 0 0 0 0 0 0 0 0 0 0 0 0 0 0 0 0 0 0 0 0 0 0 0 0 0 0 0 0 0 0 0 0 0 0 0 0 0 0 0 0 0 0 0 0 0 0 0 0 0 0 0 0 0 0 0 0 0 0 0 0 0 0 0 0 0 0 0 0 0 0 0 0 0 0 0 0 0 0 0 0 0 0 0 0 0 0 0 0 0 0 0 0 0 0 0 0 0 0 0 0 0 0 0 0 0 0 0 0 0 0 0 0 0 0 0 0 0 0 0 0 0 0 0 0 0 0 0 0 0 0 0 0 0 0 0 0 0 0 0 0 0 0 0 0 0 0 0 0 0 0 0 0 0 0 0 0 0 0 0 0 0 0 0 0 0 0 0 0 0 0 0 0 0 0 0 0 0 0 0 0 0 0 0 0 0 0 0 0 0 0 0 0 0 0 0 0 0 0 0 0 0 0 0 0 0 0 0 0 0 0 0 0 0 0 0 0 0 0 0 0 0 0 0 0 0 0 0 
0 0 0 0 0 0 0 0 0 0 0 0 0 0 0 0 0 0 0 0 0 0 0 0 0 0 0 0 0 0 0 0 1.534401e-14 2.273246e-13 2.856868e-12 2.821714e-11 2.159557e-10 1.234447e-09 5.664720e-09 2.124212e-08 6.855198e-08 1.946031e-07 4.903930e-07 1.114983e-06 2.268283e-06 4.206973e-06 7.059970e-06 1.093080e-05 1.558101e-05 2.078599e-05 2.603093e-05 3.097009e-05 3.520026e-05 3.848726e-05 4.066910e-05 4.160682e-05 4.127154e-05 3.958114e-05 3.662505e-05 3.250620e-05 2.756724e-05 2.221408e-05 1.697333e-05 1.227398e-05 8.418796e-06 5.510345e-06 3.521562e-06 2.213454e-06 1.373848e-06 8.484519e-07 5.297996e-07 3.448789e-07 2.462443e-07 2.040066e-07 2.003168e-07 2.251316e-07 2.732593e-07 3.423038e-07 4.310100e-07 5.382872e-07 6.621722e-07 7.995391e-07 9.455676e-07 1.094125e-06 1.237800e-06 1.368845e-06 1.479619e-06 1.563642e-06 1.616048e-06 1.634196e-06 1.617791e-06 1.568772e-06 1.491085e-06 1.389990e-06 1.271724e-06 1.142607e-06 1.008855e-06 8.758240e-07 7.480989e-07 6.290080e-07 5.209490e-07 4.251578e-07 3.421345e-07 2.715719e-07 2.127554e-07 1.645553e-07 1.257300e-07 9.492301e-08 7.085413e-08 5.230170e-08 3.820123e-08 2.761435e-08 1.976710e-08 1.401456e-08 9.846966e-09 6.857816e-09 4.736897e-09 3.245650e-09 2.207414e-09 1.490466e-09 9.997899e-10 6.664098e-10 4.417132e-10 2.912278e-10 1.911536e-10 1.249583e-10 8.143435e-11 5.293656e-11 3.436507e-11 2.229571e-11 1.447630e-11 9.415046e-12 6.142487e-12 4.023605e-12 2.649696e-12 1.755263e-12 1.170570e-12 7.858504e-13 5.311140e-13 3.610659e-13 2.467408e-13 1.692553e-13 1.164159e-13 8.015694e-14 5.518559e-14 3.793088e-14 2.600290e-14 1.775608e-14 1.206900e-14 8.157372e-15 5.480331e-15 3.656804e-15 2.423009e-15 1.593335e-15 1.039803e-15 0 0 0 0 0 0 0 0 0 0 0 0 0 0 0 0 0 0 0 0 0 0 0 0 0 0 0 0 0 0 0 0 0 0 0 0 0 0 0 0 0 0 0 0 0 0 0 0 0 0 0 0 0 0 0 0 0 0 0 0 0 0 0 0 0 0 0 0 0 0 0 0 0 0 0 0 0 0 0 0 0 0 0 0 0 0 0 0 0 0 0 0 0 0 0 0 0 0 0 0 0 0 0 0 0 0 0 0 0 0 0 0 0 0 0 0 0 0 0 0 0 0 0 0 0 0 0 0 0 0 0 0 0 0 0 0 0 0 0 0 0 0 0 0 0 0 0 0 0 0 0 0 0 0 0 0 0 0 0 0 0 0 0 0 0 0 0 0 0 0 0 0 0 0 0 0 0 0 0 0 0 0 0 0 0 0 0 0 0 0 0 0 0 0 0 0 0 0 0 0 0 0 0 0 0 0 0 0 0 0 0 0 0 0 0 0 0 0 0 0 0 0 0 0 0 0 0 0 0 
0 0 0 0 0 0 0 0 0 0 0 0 0 0 0 0 0 0 0 0 0 0 0 0 0 0 0 0 0 0 0 6.069294e-15 1.082567e-13 1.673563e-12 2.165456e-11 2.156965e-10 1.630150e-09 8.970174e-09 3.910029e-08 1.375570e-07 4.158337e-07 1.111748e-06 2.663271e-06 5.817351e-06 1.145759e-05 2.070035e-05 3.394810e-05 5.148266e-05 7.195195e-05 9.417625e-05 1.158199e-04 1.354692e-04 1.517387e-04 1.640058e-04 1.721068e-04 1.757773e-04 1.751288e-04 1.696938e-04 1.595001e-04 1.443506e-04 1.250817e-04 1.029752e-04 8.024819e-05 5.901852e-05 4.106351e-05 2.735706e-05 1.781395e-05 1.135740e-05 7.114627e-06 4.401273e-06 2.719928e-06 1.716511e-06 1.153776e-06 8.766732e-07 7.898325e-07 8.372220e-07 9.881536e-07 1.227244e-06 1.545960e-06 1.938403e-06 2.395636e-06 2.905227e-06 3.447672e-06 3.999231e-06 4.530647e-06 5.012383e-06 5.415065e-06 5.714839e-06 5.894074e-06 5.944275e-06 5.865944e-06 5.667947e-06 5.366683e-06 4.982700e-06 4.540149e-06 4.062364e-06 3.572430e-06 3.089169e-06 2.628938e-06 2.202696e-06 1.818543e-06 1.479864e-06 1.187956e-06 9.409293e-07 7.359300e-07 5.684660e-07 4.340123e-07 3.275426e-07 2.445354e-07 1.806095e-07 1.320705e-07 9.561748e-08 6.859325e-08 4.875568e-08 3.436560e-08 2.401915e-08 1.666074e-08 1.146870e-08 7.841603e-09 5.325455e-09 3.595723e-09 2.413840e-09 1.612812e-09 1.072684e-09 7.110438e-10 4.698772e-10 3.099873e-10 2.042620e-10 1.346522e-10 8.886164e-11 5.880905e-11 3.905849e-11 2.607591e-11 1.750737e-11 1.183515e-11 8.054541e-12 5.520850e-12 3.807748e-12 2.641603e-12 1.840419e-12 1.286570e-12 9.007404e-13 6.309287e-13 4.413449e-13 3.080574e-13 2.142145e-13 1.483187e-13 1.021189e-13 6.989966e-14 4.751662e-14 3.207905e-14 2.148960e-14 1.428736e-14 9.420514e-15 6.162292e-15 3.996443e-15 2.570736e-15 1.639211e-15 1.036633e-15 0 0 0 0 0 0 0 0 0 0 0 0 0 0 0 0 0 0 0 0 0 0 0 0 0 0 0 0 0 0 0 0 0 0 0 0 0 0 0 0 0 0 0 0 0 0 0 0 0 0 0 0 0 0 0 0 0 0 0 0 0 0 0 0 0 0 0 0 0 0 0 0 0 0 0 0 0 0 0 0 0 0 0 0 0 0 0 0 0 0 0 0 0 0 0 0 0 0 0 0 0 0 0 0 0 0 0 0 0 0 0 0 0 0 0 0 0 0 0 0 0 0 0 0 0 0 0 0 0 0 0 0 0 0 0 0 0 0 0 0 0 0 0 0 0 0 0 0 0 0 0 0 0 0 0 0 0 0 0 0 0 0 0 0 0 0 0 0 0 0 0 0 0 0 0 0 0 0 0 0 0 0 0 0 0 0 0 0 0 0 0 0 0 0 0 0 0 0 0 0 0 0 0 0 0 0 0 0 0 0 0 0 0 0 0 0 0 0 0 0 0 0 0 0 0 
0 0 0 0 0 0 0 0 0 0 0 0 0 0 0 0 0 0 0 0 0 0 0 0 0 0 0 0 0 0 1.905934e-15 3.938011e-14 7.383662e-13 1.185119e-11 1.571586e-10 1.570692e-09 1.170311e-08 6.188537e-08 2.561780e-07 8.422805e-07 2.369513e-06 5.908541e-06 1.332468e-05 2.773266e-05 5.257462e-05 9.220673e-05 1.474610e-04 2.188555e-04 2.997290e-04 3.848341e-04 4.645981e-04 5.339082e-04 5.888340e-04 6.284240e-04 6.542363e-04 6.666102e-04 6.671906e-04 6.540412e-04 6.260883e-04 5.799187e-04 5.155838e-04 4.354283e-04 3.472205e-04 2.603478e-04 1.840795e-04 1.250030e-04 8.270985e-05 5.339220e-05 3.371693e-05 2.091565e-05 1.285361e-05 7.955312e-06 5.125516e-06 3.632246e-06 3.012591e-06 2.987359e-06 3.398414e-06 4.161410e-06 5.230043e-06 6.572971e-06 8.153586e-06 9.922112e-06 1.180655e-05 1.371745e-05 1.554914e-05 1.719364e-05 1.854807e-05 1.952938e-05 2.008053e-05 2.017739e-05 1.982888e-05 1.907328e-05 1.797335e-05 1.660575e-05 1.505574e-05 1.340548e-05 1.173205e-05 1.009860e-05 8.556517e-06 7.140448e-06 5.873207e-06 4.763795e-06 3.812988e-06 3.012901e-06 2.351797e-06 1.814070e-06 1.383634e-06 1.043810e-06 7.793256e-07 5.759908e-07 4.216673e-07 3.058241e-07 2.198767e-07 1.567386e-07 1.108474e-07 7.778813e-08 5.420210e-08 3.750858e-08 2.579635e-08 1.763686e-08 1.199669e-08 8.121698e-09 5.477472e-09 3.682128e-09 2.469963e-09 1.654560e-09 1.108304e-09 7.430811e-10 4.994231e-10 3.368285e-10 2.282909e-10 1.556213e-10 1.068076e-10 7.382296e-11 5.139955e-11 3.602867e-11 2.541068e-11 1.800896e-11 1.281074e-11 9.131464e-12 6.513667e-12 4.642003e-12 3.301317e-12 2.339662e-12 1.650975e-12 1.158683e-12 8.083458e-13 5.601091e-13 3.853664e-13 2.631035e-13 1.782370e-13 1.197504e-13 7.979774e-14 5.271948e-14 3.453713e-14 2.242827e-14 1.444096e-14 9.216450e-15 5.831962e-15 3.657929e-15 2.274866e-15 1.402385e-15 0 0 0 0 0 0 0 0 0 0 0 0 0 0 0 0 0 0 0 0 0 0 0 0 0 0 0 0 0 0 0 0 0 0 0 0 0 0 0 0 0 0 0 0 0 0 0 0 0 0 0 0 0 0 0 0 0 0 0 0 0 0 0 0 0 0 0 0 0 0 0 0 0 0 0 0 0 0 0 0 0 0 0 0 0 0 0 0 0 0 0 0 0 0 0 0 0 0 0 0 0 0 0 0 0 0 0 0 0 0 0 0 0 0 0 0 0 0 0 0 0 0 0 0 0 0 0 0 0 0 0 0 0 0 0 0 0 0 0 0 0 0 0 0 0 0 0 0 0 0 0 0 0 0 0 0 0 0 0 0 0 0 0 0 0 0 0 0 0 0 0 0 0 0 0 0 0 0 0 0 0 0 0 0 0 0 0 0 0 0 0 0 0 0 0 0 0 0 0 0 0 0 0 0 0 0 0 0 0 0 0 0 0 0 0 0 0 0 0 0 0 0 