# vtk DataFile Version 2.0
Comment goes here
ASCII

DATASET STRUCTURED_POINTS
FIELD FieldData 1
TIME 1 1 double
1.52500000
DIMENSIONS    384   64   1

ORIGIN    0.000   0.000   0.000
SPACING   0.078125 0.078125   1.000

POINT_DATA   24576
SCALARS Concentration double
LOOKUP_TABLE default

0 0 0 0 0 0 0 0 0 0 0 0 0 0 0 0 0 0 0 0 0 0 0 0 0 0 0 0 0 0 0 0 0 0 0 0 0 0 0 0 0 0 0 0 0 0 0 0 0 0 0 0 0 0 0 0 0 0 0 0 0 0 0 0 0 0 0 0 0 0 0 0 0 0 0 0 0 0 0 0 0 0 0 0 0 0 0 0 0 0 0 0 0 0 0 0 0 0 0 0 0 0 0 0 0 0 0 0 0 0 0 0 0 0 0 0 0 0 0 0 0 0 0 0 0 0 0 0 0 0 0 0 0 0 0 0 0 0 0 0 0 0 0 0 0 0 0 0 0 0 0 0 0 0 0 0 0 0 0 0 0 0 0 0 0 0 0 0 0 0 0 0 0 0 0 0 0 0 0 0 0 0 0 0 0 0 0 0 0 0 0 0 0 0 0 0 0 0 0 0 0 0 0 0 0 0 0 0 0 0 0 0 0 0 0 0 0 0 0 0 0 0 0 0 0 0 0 0 0 0 0 0 0 0 0 0 0 0 0 0 0 0 0 0 0 0 0 0 0 0 0 0 0 0 0 0 0 0 0 0 0 0 0 0 0 0 0 0 0 0 0 0 0 0 0 0 0 0 0 0 0 0 0 0 0 0 0 0 0 0 0 0 0 0 0 0 0 0 0 0 0 0 0 0 0 0 0 0 0 0 0 0 0 0 0 0 0 0 0 0 0 0 0 0 0 0 0 0 0 0 0 0 0 0 0 0 0 0 0 0 0 0 0 0 0 0 0 0 0 0 0 0 0 0 0 0 0 0 0 0 0 0 0 0 0 0 0 0 0 0 0 0 0 0 0 0 0 0 0 0 0 0 0 0 
0 0 0 0 0 0 0 0 0 0 0 0 0 0 0 0 0 0 0 0 0 0 0 0 0 0 0 0 0 0 0 0 0 0 0 0 0 0 0 0 0 0 0 0 0 0 0 0 0 0 0 0 0 0 0 0 0 0 0 0 0 0 0 0 0 0 0 0 0 0 0 0 0 0 0 0 0 0 0 0 0 0 0 0 0 0 0 0 0 0 0 0 0 0 0 0 0 0 0 0 0 0 0 0 0 0 0 0 0 0 0 0 0 0 0 0 0 0 0 0 0 0 0 0 0 0 0 0 0 0 0 0 0 0 0 0 0 0 0 0 0 0 0 0 0 0 0 0 0 0 0 0 0 0 0 0 0 0 0 0 0 0 0 0 0 0 0 0 0 0 0 0 0 0 0 0 0 0 0 0 0 0 0 0 0 0 0 0 0 0 0 0 0 0 0 0 0 0 0 0 0 0 0 0 0 0 0 0 0 0 0 0 0 0 0 0 0 0 0 0 0 0 0 0 0 0 0 0 0 0 0 0 0 0 0 0 0 0 0 0 0 0 0 0 0 0 0 0 0 0 0 0 0 0 0 0 0 0 0 0 0 0 0 0 0 0 0 0 0 0 0 0 0 0 0 0 0 0 0 0 0 0 0 0 0 0 0 0 0 0 0 0 0 0 0 0 0 0 0 0 0 0 0 0 0 0 0 0 0 0 0 0 0 0 0 0 0 0 0 0 0 0 0 0 0 0 0 0 0 0 0 0 0 0 0 0 0 0 0 0 0 0 0 0 0 0 0 0 0 0 0 0 0 0 0 0 0 0 0 0 0 0 0 0 0 0 0 0 0 0 0 0 0 0 0 0 0 0 0 0 0 0 0 0 
0 0 0 0 0 0 0 0 0 0 0 0 0 0 0 0 0 0 0 0 0 0 0 0 0 0 0 0 0 0 0 0 0 0 0 0 0 0 0 0 0 0 0 0 0 0 0 0 0 0 0 0 0 0 0 0 0 0 0 0 0 0 0 0 0 0 0 0 0 0 0 0 0 0 0 0 0 0 0 0 0 0 0 0 0 0 0 0 0 0 0 0 0 0 0 0 0 0 0 0 0 0 0 0 0 0 0 0 0 0 0 0 0 0 0 0 0 0 0 0 0 0 0 0 0 0 0 0 0 0 0 0 0 0 0 0 0 0 0 0 0 0 0 0 0 0 0 0 0 0 0 0 0 0 0 0 0 0 0 0 0 0 0 0 0 0 0 0 0 0 0 0 0 0 0 0 0 0 0 0 0 0 0 0 0 0 0 0 0 0 0 0 0 0 0 0 0 0 0 0 0 0 0 0 0 0 0 0 0 0 0 0 0 0 0 0 0 0 0 0 0 0 0 0 0 0 0 0 0 0 0 0 0 0 0 0 0 0 0 0 0 0 0 0 0 0 0 0 0 0 0 0 0 0 0 0 0 0 0 0 0 0 0 0 0 0 0 0 0 0 0 0 0 0 0 0 0 0 0 0 0 0 0 0 0 0 0 0 0 0 0 0 0 0 0 0 0 0 0 0 0 0 0 0 0 0 0 0 0 0 0 0 0 0 0 0 0 0 0 0 0 0 0 0 0 0 0 0 0 0 0 0 0 0 0 0 0 0 0 0 0 0 0 0 0 0 0 0 0 0 0 0 0 0 0 0 0 0 0 0 0 0 0 0 0 0 0 0 0 0 0 0 0 0 0 0 0 0 0 0 0 0 0 0 
0 0 0 0 0 0 0 0 0 0 0 0 0 0 0 0 0 0 0 0 0 0 0 0 0 0 0 0 0 0 0 0 0 0 0 0 0 0 0 0 0 0 0 0 0 0 0 0 0 0 0 0 0 0 0 0 0 0 0 0 0 0 0 0 0 1.126654e-15 1.422119e-15 1.746782e-15 2.109070e-15 2.479901e-15 2.866718e-15 3.229579e-15 3.576378e-15 3.862481e-15 4.099272e-15 4.246147e-15 4.321067e-15 4.295119e-15 4.193772e-15 4.003000e-15 3.753446e-15 3.444298e-15 3.107144e-15 2.745035e-15 2.383527e-15 2.028723e-15 1.696677e-15 1.392120e-15 1.122295e-15 0 0 0 0 0 0 0 0 0 0 0 0 0 0 0 0 0 0 0 0 0 0 0 0 0 0 0 0 0 0 0 0 0 0 0 0 0 0 0 0 0 0 0 0 0 0 0 0 0 0 0 0 0 0 0 0 0 0 0 0 0 0 0 0 0 0 0 0 0 0 0 0 0 0 0 0 0 0 0 0 0 0 0 0 0 0 0 0 0 0 0 0 0 0 0 0 0 0 0 0 0 0 0 0 0 0 0 0 0 0 0 0 0 0 0 0 0 0 0 0 0 0 0 0 0 0 0 0 0 0 0 0 0 0 0 0 0 0 0 0 0 0 0 0 0 0 0 0 0 0 0 0 0 0 0 0 0 0 0 0 0 0 0 0 0 0 0 0 0 0 0 0 0 0 0 0 0 0 0 0 0 0 0 0 0 0 0 0 0 0 0 0 0 0 0 0 0 0 0 0 0 0 0 0 0 0 0 0 0 0 0 0 0 0 0 0 0 0 0 0 0 0 0 0 0 0 0 0 0 0 0 0 0 0 0 0 0 0 0 0 0 0 0 0 0 0 0 0 0 0 0 0 0 0 0 0 0 0 0 0 0 0 0 0 0 0 0 0 0 0 0 0 0 0 0 0 0 0 0 0 0 0 0 0 0 0 0 0 0 0 0 0 0 0 0 
0 0 0 0 0 0 0 0 0 0 0 0 0 0 0 0 0 0 0 0 0 0 0 0 0 0 0 0 0 0 0 0 0 0 0 0 0 0 0 0 0 0 0 0 0 0 0 0 0 0 0 0 0 0 0 0 0 0 0 1.344314e-15 1.955311e-15 2.762470e-15 3.823719e-15 5.142641e-15 6.791114e-15 8.718195e-15 1.100249e-14 1.350648e-14 1.630713e-14 1.916350e-14 2.214879e-14 2.493368e-14 2.759845e-14 2.977637e-14 3.157744e-14 3.266895e-14 3.321232e-14 3.297028e-14 3.216514e-14 3.068554e-14 2.878465e-14 2.642910e-14 2.384710e-14 2.108460e-14 1.831334e-14 1.560301e-14 1.305665e-14 1.072527e-14 8.651306e-15 6.847387e-15 5.321475e-15 4.059385e-15 3.042224e-15 2.239461e-15 1.620768e-15 1.153111e-15 0 0 0 0 0 0 0 0 0 0 0 0 0 0 0 0 0 0 0 0 0 0 0 0 0 0 0 0 0 0 0 0 0 0 0 0 0 0 0 0 0 0 0 0 0 0 0 0 0 0 0 0 0 0 0 0 0 0 0 0 0 0 0 0 0 0 0 0 0 0 0 0 0 0 0 0 0 0 0 0 0 0 0 0 0 0 0 0 0 0 0 0 0 0 0 0 0 0 0 0 0 0 0 0 0 0 0 0 0 0 0 0 0 0 0 0 0 0 0 0 0 0 0 0 0 0 0 0 0 0 0 0 0 0 0 0 0 0 0 0 0 0 0 0 0 0 0 0 0 0 0 0 0 0 0 0 0 0 0 0 0 0 0 0 0 0 0 0 0 0 0 0 0 0 0 0 0 0 0 0 0 0 0 0 0 0 0 0 0 0 0 0 0 0 0 0 0 0 0 0 0 0 0 0 0 0 0 0 0 0 0 0 0 0 0 0 0 0 0 0 0 0 0 0 0 0 0 0 0 0 0 0 0 0 0 0 0 0 0 0 0 0 0 0 0 0 0 0 0 0 0 0 0 0 0 0 0 0 0 0 0 0 0 0 0 0 0 0 0 0 0 0 0 0 0 0 0 0 0 0 0 0 0 0 0 0 0 0 
0 0 0 0 0 0 0 0 0 0 0 0 0 0 0 0 0 0 0 0 0 0 0 0 0 0 0 0 0 0 0 0 0 0 0 0 0 0 0 0 0 0 0 0 0 0 0 0 0 0 0 0 0 0 1.057138e-15 1.751586e-15 2.812857e-15 4.401047e-15 6.704825e-15 9.934457e-15 1.439414e-14 2.027217e-14 2.800668e-14 3.760656e-14 4.963203e-14 6.367750e-14 8.037672e-14 9.866357e-14 1.191832e-13 1.400770e-13 1.619819e-13 1.823587e-13 2.019142e-13 2.178185e-13 2.310124e-13 2.389233e-13 2.429003e-13 2.411959e-13 2.355762e-13 2.250123e-13 2.112315e-13 1.941836e-13 1.753512e-13 1.552745e-13 1.350204e-13 1.151902e-13 9.645834e-14 7.919727e-14 6.381595e-14 5.043523e-14 3.914042e-14 2.981220e-14 2.231371e-14 1.640481e-14 1.186165e-14 8.431760e-15 5.900108e-15 4.062570e-15 2.756296e-15 1.841911e-15 1.214030e-15 0 0 0 0 0 0 0 0 0 0 0 0 0 0 0 0 0 0 0 0 0 0 0 0 0 0 0 0 0 0 0 0 0 0 0 0 0 0 0 0 0 0 0 0 0 0 0 0 0 0 0 0 0 0 0 0 0 0 0 0 0 0 0 0 0 0 0 0 0 0 0 0 0 0 0 0 0 0 0 0 0 0 0 0 0 0 0 0 0 0 0 0 0 0 0 0 0 0 0 0 0 0 0 0 0 0 0 0 0 0 0 0 0 0 0 0 0 0 0 0 0 0 0 0 0 0 0 0 0 0 0 0 0 0 0 0 0 0 0 0 0 0 0 0 0 0 0 0 0 0 0 0 0 0 0 0 0 0 0 0 0 0 0 0 0 0 0 0 0 0 0 0 0 0 0 0 0 0 0 0 0 0 0 0 0 0 0 0 0 0 0 0 0 0 0 0 0 0 0 0 0 0 0 0 0 0 0 0 0 0 0 0 0 0 0 0 0 0 0 0 0 0 0 0 0 0 0 0 0 0 0 0 0 0 0 0 0 0 0 0 0 0 0 0 0 0 0 0 0 0 0 0 0 0 0 0 0 0 0 0 0 0 0 0 0 0 0 0 0 0 0 0 0 0 0 0 0 0 0 0 0 0 0 
0 0 0 0 0 0 0 0 0 0 0 0 0 0 0 0 0 0 0 0 0 0 0 0 0 0 0 0 0 0 0 0 0 0 0 0 0 0 0 0 0 0 0 0 0 0 0 0 0 0 0 1.643198e-15 2.767072e-15 4.692405e-15 7.762203e-15 1.265160e-14 2.006250e-14 3.108653e-14 4.701140e-14 6.925134e-14 9.993576e-14 1.402973e-13 1.934926e-13 2.594669e-13 3.423815e-13 4.392173e-13 5.548290e-13 6.814398e-13 8.241409e-13 9.694026e-13 1.122359e-12 1.264503e-12 1.401505e-12 1.512736e-12 1.605537e-12 1.661879e-12 1.692593e-12 1.683915e-12 1.646590e-12 1.575256e-12 1.480099e-12 1.362866e-12 1.231953e-12 1.092318e-12 9.502291e-13 8.101046e-13 6.773592e-13 5.551834e-13 4.465024e-13 3.522425e-13 2.728574e-13 2.074971e-13 1.550669e-13 1.138661e-13 8.224070e-14 5.841923e-14 4.085541e-14 2.812842e-14 1.908500e-14 1.276089e-14 8.417132e-15 5.477031e-15 3.519502e-15 2.233508e-15 1.401291e-15 0 0 0 0 0 0 0 0 0 0 0 0 0 0 0 0 0 0 0 0 0 0 0 0 0 0 0 0 0 0 0 0 0 0 0 0 0 0 0 0 0 0 0 0 0 0 0 0 0 0 0 0 0 0 0 0 0 0 0 0 0 0 0 0 0 0 0 0 0 0 0 0 0 0 0 0 0 0 0 0 0 0 0 0 0 0 0 0 0 0 0 0 0 0 0 0 0 0 0 0 0 0 0 0 0 0 0 0 0 0 0 0 0 0 0 0 0 0 0 0 0 0 0 0 0 0 0 0 0 0 0 0 0 0 0 0 0 0 0 0 0 0 0 0 0 0 0 0 0 0 0 0 0 0 0 0 0 0 0 0 0 0 0 0 0 0 0 0 0 0 0 0 0 0 0 0 0 0 0 0 0 0 0 0 0 0 0 0 0 0 0 0 0 0 0 0 0 0 0 0 0 0 0 0 0 0 0 0 0 0 0 0 0 0 0 0 0 0 0 0 0 0 0 0 0 0 0 0 0 0 0 0 0 0 0 0 0 0 0 0 0 0 0 0 0 0 0 0 0 0 0 0 0 0 0 0 0 0 0 0 0 0 0 0 0 0 0 0 0 0 0 0 0 0 0 0 0 0 0 
0 0 0 0 0 0 0 0 0 0 0 0 0 0 0 0 0 0 0 0 0 0 0 0 0 0 0 0 0 0 0 0 0 0 0 0 0 0 0 0 0 0 0 0 0 1.508818e-15 2.127409e-15 3.027781e-15 4.080949e-15 5.835859e-15 8.469743e-15 1.318684e-14 2.083509e-14 3.383978e-14 5.431380e-14 8.667288e-14 1.353334e-13 2.072580e-13 3.107506e-13 4.546862e-13 6.531779e-13 9.137500e-13 1.257905e-12 1.684628e-12 2.222997e-12 2.852352e-12 3.607363e-12 4.435522e-12 5.373724e-12 6.330484e-12 7.343091e-12 8.285902e-12 9.199588e-12 9.944891e-12 1.058148e-11 1.098305e-11 1.120800e-11 1.117731e-11 1.094650e-11 1.049593e-11 9.877360e-12 9.113251e-12 8.247370e-12 7.310244e-12 6.352101e-12 5.406402e-12 4.512675e-12 3.691758e-12 2.963926e-12 2.334101e-12 1.805364e-12 1.370918e-12 1.023395e-12 7.507299e-13 5.419055e-13 3.847652e-13 2.690909e-13 1.852986e-13 1.258124e-13 8.419683e-14 5.561715e-14 3.624996e-14 2.334669e-14 1.485284e-14 9.347764e-15 5.817953e-15 3.586406e-15 2.188918e-15 1.324823e-15 0 0 0 0 0 0 0 0 0 0 0 0 0 0 0 0 0 0 0 0 0 0 0 0 0 0 0 0 0 0 0 0 0 0 0 0 0 0 0 0 0 0 0 0 0 0 0 0 0 0 0 0 0 0 0 0 0 0 0 0 0 0 0 0 0 0 0 0 0 0 0 0 0 0 0 0 0 0 0 0 0 0 0 0 0 0 0 0 0 0 0 0 0 0 0 0 0 0 0 0 0 0 0 0 0 0 0 0 0 0 0 0 0 0 0 0 0 0 0 0 0 0 0 0 0 0 0 0 0 0 0 0 0 0 0 0 0 0 0 0 0 0 0 0 0 0 0 0 0 0 0 0 0 0 0 0 0 0 0 0 0 0 0 0 0 0 0 0 0 0 0 0 0 0 0 0 0 0 0 0 0 0 0 0 0 0 0 0 0 0 0 0 0 0 0 0 0 0 0 0 0 0 0 0 0 0 0 0 0 0 0 0 0 0 0 0 0 0 0 0 0 0 0 0 0 0 0 0 0 0 0 0 0 0 0 0 0 0 0 0 0 0 0 0 0 0 0 0 0 0 0 0 0 0 0 0 0 0 0 0 0 0 0 0 0 0 0 0 0 0 0 0 0 0 0 
0 0 0 0 0 0 0 0 0 0 0 0 0 0 0 0 0 0 0 0 0 0 0 0 0 0 0 0 0 0 0 0 0 0 0 0 0 0 0 0 0 2.134086e-15 4.361189e-15 8.571919e-15 1.372117e-14 2.135485e-14 2.858124e-14 3.802028e-14 4.661421e-14 5.957120e-14 7.641841e-14 1.066102e-13 1.543581e-13 2.359720e-13 3.633716e-13 5.639604e-13 8.636602e-13 1.304260e-12 1.936178e-12 2.811768e-12 4.019481e-12 5.602501e-12 7.699605e-12 1.030077e-11 1.359866e-11 1.746040e-11 2.212077e-11 2.724512e-11 3.308685e-11 3.906046e-11 4.542224e-11 5.136518e-11 5.720141e-11 6.206120e-11 6.622170e-11 6.895777e-11 7.051227e-11 7.049860e-11 6.915803e-11 6.646765e-11 6.263740e-11 5.778998e-11 5.224160e-11 4.622786e-11 4.008759e-11 3.404771e-11 2.835690e-11 2.315023e-11 1.854776e-11 1.457983e-11 1.125743e-11 8.536384e-12 6.364231e-12 4.664497e-12 3.364572e-12 2.388318e-12 1.670186e-12 1.150632e-12 7.817649e-13 5.238263e-13 3.465281e-13 2.263314e-13 1.461090e-13 9.323112e-14 5.886685e-14 3.678267e-14 2.276971e-14 1.396560e-14 8.496407e-15 5.127894e-15 3.073709e-15 1.830073e-15 1.083564e-15 0 0 0 0 0 0 0 0 0 0 0 0 0 0 0 0 0 0 0 0 0 0 0 0 0 0 0 0 0 0 0 0 0 0 0 0 0 0 0 0 0 0 0 0 0 0 0 0 0 0 0 0 0 0 0 0 0 0 0 0 0 0 0 0 0 0 0 0 0 0 0 0 0 0 0 0 0 0 0 0 0 0 0 0 0 0 0 0 0 0 0 0 0 0 0 0 0 0 0 0 0 0 0 0 0 0 0 0 0 0 0 0 0 0 0 0 0 0 0 0 0 0 0 0 0 0 0 0 0 0 0 0 0 0 0 0 0 0 0 0 0 0 0 0 0 0 0 0 0 0 0 0 0 0 0 0 0 0 0 0 0 0 0 0 0 0 0 0 0 0 0 0 0 0 0 0 0 0 0 0 0 0 0 0 0 0 0 0 0 0 0 0 0 0 0 0 0 0 0 0 0 0 0 0 0 0 0 0 0 0 0 0 0 0 0 0 0 0 0 0 0 0 0 0 0 0 0 0 0 0 0 0 0 0 0 0 0 0 0 0 0 0 0 0 0 0 0 0 0 0 0 0 0 0 0 0 0 0 0 0 0 0 0 0 0 0 0 0 0 0 0 
0 0 0 0 0 0 0 0 0 0 0 0 0 0 0 0 0 0 0 0 0 0 0 0 0 0 0 0 0 0 0 0 0 0 0 0 0 0 1.172937e-15 4.366011e-15 1.197904e-14 3.126746e-14 6.288697e-14 1.218719e-13 1.908518e-13 2.900312e-13 3.741932e-13 4.747232e-13 5.421825e-13 6.311089e-13 7.190873e-13 8.862953e-13 1.147422e-12 1.612399e-12 2.342271e-12 3.497856e-12 5.221470e-12 7.745700e-12 1.135992e-11 1.634921e-11 2.323804e-11 3.225492e-11 4.424392e-11 5.912900e-11 7.810529e-11 1.003892e-10 1.274555e-10 1.573391e-10 1.916338e-10 2.268817e-10 2.647545e-10 3.007010e-10 3.361736e-10 3.663264e-10 3.920264e-10 4.096576e-10 4.198957e-10 4.211859e-10 4.140846e-10 3.983639e-10 3.753478e-10 3.459023e-10 3.121873e-10 2.757074e-10 2.386076e-10 2.022275e-10 1.680931e-10 1.369563e-10 1.095380e-10 8.596076e-11 6.628435e-11 5.020188e-11 3.739783e-11 2.739222e-11 1.975521e-11 1.402348e-11 9.812319e-12 6.765205e-12 4.602685e-12 3.088996e-12 2.048018e-12 1.340964e-12 8.683814e-13 5.559962e-13 3.524957e-13 2.212154e-13 1.376321e-13 8.486472e-14 5.194108e-14 3.154520e-14 1.904044e-14 1.141845e-14 6.814241e-15 4.045580e-15 2.393363e-15 1.410568e-15 0 0 0 0 0 0 0 0 0 0 0 0 0 0 0 0 0 0 0 0 0 0 0 0 0 0 0 0 0 0 0 0 0 0 0 0 0 0 0 0 0 0 0 0 0 0 0 0 0 0 0 0 0 0 0 0 0 0 0 0 0 0 0 0 0 0 0 0 0 0 0 0 0 0 0 0 0 0 0 0 0 0 0 0 0 0 0 0 0 0 0 0 0 0 0 0 0 0 0 0 0 0 0 0 0 0 0 0 0 0 0 0 0 0 0 0 0 0 0 0 0 0 0 0 0 0 0 0 0 0 0 0 0 0 0 0 0 0 0 0 0 0 0 0 0 0 0 0 0 0 0 0 0 0 0 0 0 0 0 0 0 0 0 0 0 0 0 0 0 0 0 0 0 0 0 0 0 0 0 0 0 0 0 0 0 0 0 0 0 0 0 0 0 0 0 0 0 0 0 0 0 0 0 0 0 0 0 0 0 0 0 0 0 0 0 0 0 0 0 0 0 0 0 0 0 0 0 0 0 0 0 0 0 0 0 0 0 0 0 0 0 0 0 0 0 0 0 0 0 0 0 0 0 0 0 0 0 0 0 0 0 0 0 0 0 0 0 0 
0 0 0 0 0 0 0 0 0 0 0 0 0 0 0 0 0 0 0 0 0 0 0 0 0 0 0 0 0 0 0 0 0 0 0 0 0 4.116413e-15 1.646750e-14 6.071779e-14 1.645225e-13 4.245293e-13 8.416459e-13 1.610640e-12 2.479188e-12 3.701466e-12 4.652828e-12 5.714252e-12 6.209964e-12 6.748757e-12 6.971207e-12 7.628366e-12 8.699317e-12 1.096781e-11 1.469520e-11 2.079828e-11 2.998595e-11 4.347451e-11 6.281166e-11 8.945072e-11 1.263155e-10 1.745386e-10 2.389613e-10 3.190790e-10 4.218964e-10 5.430621e-10 6.913509e-10 8.558618e-10 1.046343e-09 1.244738e-09 1.459718e-09 1.666994e-09 1.870567e-09 2.046881e-09 2.196818e-09 2.303877e-09 2.367042e-09 2.378473e-09 2.339626e-09 2.249015e-09 2.115647e-09 1.945665e-09 1.751949e-09 1.543516e-09 1.332499e-09 1.126641e-09 9.342549e-10 7.595673e-10 6.062551e-10 4.749400e-10 3.656428e-10 2.765992e-10 2.058451e-10 1.506930e-10 1.086459e-10 7.714167e-11 5.400244e-11 3.727269e-11 2.539250e-11 1.707555e-11 1.134690e-11 7.451425e-12 4.841026e-12 3.111759e-12 1.981162e-12 1.249458e-12 7.814247e-13 4.846910e-13 2.984927e-13 1.825363e-13 1.109672e-13 6.707099e-14 4.035175e-14 2.416905e-14 1.442919e-14 8.588693e-15 5.103603e-15 3.028822e-15 1.797864e-15 1.068074e-15 0 0 0 0 0 0 0 0 0 0 0 0 0 0 0 0 0 0 0 0 0 0 0 0 0 0 0 0 0 0 0 0 0 0 0 0 0 0 0 0 0 0 0 0 0 0 0 0 0 0 0 0 0 0 0 0 0 0 0 0 0 0 0 0 0 0 0 0 0 0 0 0 0 0 0 0 0 0 0 0 0 0 0 0 0 0 0 0 0 0 0 0 0 0 0 0 0 0 0 0 0 0 0 0 0 0 0 0 0 0 0 0 0 0 0 0 0 0 0 0 0 0 0 0 0 0 0 0 0 0 0 0 0 0 0 0 0 0 0 0 0 0 0 0 0 0 0 0 0 0 0 0 0 0 0 0 0 0 0 0 0 0 0 0 0 0 0 0 0 0 0 0 0 0 0 0 0 0 0 0 0 0 0 0 0 0 0 0 0 0 0 0 0 0 0 0 0 0 0 0 0 0 0 0 0 0 0 0 0 0 0 0 0 0 0 0 0 0 0 0 0 0 0 0 0 0 0 0 0 0 0 0 0 0 0 0 0 0 0 0 0 0 0 0 0 0 0 0 0 0 0 0 0 0 0 0 0 0 0 0 0 0 0 0 
0 0 0 0 0 0 0 0 0 0 0 0 0 0 0 0 0 0 0 0 0 0 0 0 0 0 0 0 0 0 0 0 0 0 0 1.520509e-15 9.679333e-15 5.396044e-14 2.140660e-13 7.803912e-13 2.084319e-12 5.312741e-12 1.038000e-11 1.964094e-11 2.978989e-11 4.389152e-11 5.413446e-11 6.502961e-11 6.834241e-11 7.084759e-11 6.812184e-11 6.752379e-11 6.806994e-11 7.569042e-11 9.123296e-11 1.197346e-10 1.643891e-10 2.309471e-10 3.271729e-10 4.597269e-10 6.439695e-10 8.849611e-10 1.208746e-09 1.612432e-09 2.134246e-09 2.752262e-09 3.514800e-09 4.371428e-09 5.373946e-09 6.434872e-09 7.580501e-09 8.704294e-09 9.804916e-09 1.077974e-08 1.160609e-08 1.221110e-08 1.256971e-08 1.263216e-08 1.241390e-08 1.191347e-08 1.118490e-08 1.026302e-08 9.219743e-09 8.103036e-09 6.978900e-09 5.886907e-09 4.871317e-09 3.952386e-09 3.149209e-09 2.463187e-09 1.894114e-09 1.431436e-09 1.064741e-09 7.792547e-10 5.619798e-10 3.992387e-10 2.798046e-10 1.933994e-10 1.320301e-10 8.899704e-11 5.932035e-11 3.908624e-11 2.549641e-11 1.646016e-11 1.053263e-11 6.678063e-12 4.201742e-12 2.622632e-12 1.626432e-12 1.001827e-12 6.138756e-13 3.740899e-13 2.270769e-13 1.372690e-13 8.277635e-14 4.978813e-14 2.992470e-14 1.797438e-14 1.081159e-14 6.514417e-15 3.940820e-15 2.394538e-15 1.464680e-15 0 0 0 0 0 0 0 0 0 0 0 0 0 0 0 0 0 0 0 0 0 0 0 0 0 0 0 0 0 0 0 0 0 0 0 0 0 0 0 0 0 0 0 0 0 0 0 0 0 0 0 0 0 0 0 0 0 0 0 0 0 0 0 0 0 0 0 0 0 0 0 0 0 0 0 0 0 0 0 0 0 0 0 0 0 0 0 0 0 0 0 0 0 0 0 0 0 0 0 0 0 0 0 0 0 0 0 0 0 0 0 0 0 0 0 0 0 0 0 0 0 0 0 0 0 0 0 0 0 0 0 0 0 0 0 0 0 0 0 0 0 0 0 0 0 0 0 0 0 0 0 0 0 0 0 0 0 0 0 0 0 0 0 0 0 0 0 0 0 0 0 0 0 0 0 0 0 0 0 0 0 0 0 0 0 0 0 0 0 0 0 0 0 0 0 0 0 0 0 0 0 0 0 0 0 0 0 0 0 0 0 0 0 0 0 0 0 0 0 0 0 0 0 0 0 0 0 0 0 0 0 0 0 0 0 0 0 0 0 0 0 0 0 0 0 0 0 0 0 0 0 0 0 0 0 0 0 0 0 0 0 
0 0 0 0 0 0 0 0 0 0 0 0 0 0 0 0 0 0 0 0 0 0 0 0 0 0 0 0 0 0 0 0 0 0 2.142729e-15 1.837348e-14 1.179591e-13 6.535203e-13 2.567540e-12 9.219149e-12 2.422919e-11 6.081881e-11 1.170455e-10 2.187440e-10 3.274085e-10 4.768630e-10 5.796439e-10 6.854277e-10 7.039513e-10 7.073875e-10 6.475783e-10 5.973580e-10 5.432612e-10 5.339149e-10 5.687425e-10 6.761060e-10 8.671290e-10 1.166624e-09 1.609694e-09 2.223971e-09 3.084605e-09 4.212225e-09 5.738421e-09 7.647880e-09 1.013753e-08 1.311387e-08 1.684263e-08 2.110039e-08 2.607303e-08 3.141424e-08 3.717599e-08 4.291772e-08 4.852806e-08 5.357143e-08 5.783056e-08 6.088524e-08 6.263576e-08 6.285203e-08 6.164063e-08 5.901237e-08 5.525498e-08 5.055812e-08 4.528627e-08 3.968719e-08 3.408374e-08 2.867410e-08 2.366625e-08 1.915834e-08 1.523289e-08 1.189430e-08 9.132704e-09 6.894986e-09 5.124897e-09 3.750146e-09 2.704861e-09 1.923028e-09 1.349196e-09 9.341896e-10 6.390803e-10 4.319818e-10 2.888310e-10 1.910403e-10 1.251352e-10 8.117954e-11 5.221466e-11 3.330132e-11 2.108238e-11 1.325008e-11 8.276153e-12 5.138230e-12 3.174364e-12 1.951840e-12 1.195880e-12 7.303254e-13 4.451396e-13 2.709137e-13 1.648819e-13 1.004222e-13 6.131332e-14 3.756207e-14 2.313223e-14 1.433358e-14 8.950697e-15 5.635235e-15 3.580007e-15 2.293772e-15 1.481858e-15 0 0 0 0 0 0 0 0 0 0 0 0 0 0 0 0 0 0 0 0 0 0 0 0 0 0 0 0 0 0 0 0 0 0 0 0 0 0 0 0 0 0 0 0 0 0 0 0 0 0 0 0 0 0 0 0 0 0 0 0 0 0 0 0 0 0 0 0 0 0 0 0 0 0 0 0 0 0 0 0 0 0 0 0 0 0 0 0 0 0 0 0 0 0 0 0 0 0 0 0 0 0 0 0 0 0 0 0 0 0 0 0 0 0 0 0 0 0 0 0 0 0 0 0 0 0 0 0 0 0 0 0 0 0 0 0 0 0 0 0 0 0 0 0 0 0 0 0 0 0 0 0 0 0 0 0 0 0 0 0 0 0 0 0 0 0 0 0 0 0 0 0 0 0 0 0 0 0 0 0 0 0 0 0 0 0 0 0 0 0 0 0 0 0 0 0 0 0 0 0 0 0 0 0 0 0 0 0 0 0 0 0 0 0 0 0 0 0 0 0 0 0 0 0 0 0 0 0 0 0 0 0 0 0 0 0 0 0 0 0 0 0 0 0 0 0 0 0 0 0 0 0 0 0 0 0 0 
0 0 0 0 0 0 0 0 0 0 0 0 0 0 0 0 0 0 0 0 0 0 0 0 0 0 0 0 0 0 0 0 0 2.337460e-15 2.372109e-14 2.052276e-13 1.327518e-12 7.294330e-12 2.830012e-11 9.979544e-11 2.572077e-10 6.342907e-10 1.199921e-09 2.213749e-09 3.270167e-09 4.716041e-09 5.665779e-09 6.624040e-09 6.698299e-09 6.593018e-09 5.848169e-09 5.136278e-09 4.333243e-09 3.832526e-09 3.604158e-09 3.803944e-09 4.453411e-09 5.636214e-09 7.494136e-09 1.011745e-08 1.384839e-08 1.875626e-08 2.546059e-08 3.389393e-08 4.506963e-08 5.870272e-08 7.576447e-08 9.558715e-08 1.187301e-07 1.440333e-07 1.712753e-07 1.988110e-07 2.256384e-07 2.495466e-07 2.695042e-07 2.835638e-07 2.913244e-07 2.917701e-07 2.854897e-07 2.726009e-07 2.545370e-07 2.322204e-07 2.074047e-07 1.812324e-07 1.552178e-07 1.302348e-07 1.072354e-07 8.661788e-08 6.874612e-08 5.359448e-08 4.110665e-08 3.100993e-08 2.304396e-08 1.686421e-08 1.217264e-08 8.663621e-09 6.089155e-09 4.225139e-09 2.898612e-09 1.965543e-09 1.319325e-09 8.763364e-10 5.768616e-10 3.762040e-10 2.434225e-10 1.562258e-10 9.959591e-11 6.305240e-11 3.969996e-11 2.485401e-11 1.549547e-11 9.619184e-12 5.955648e-12 3.677583e-12 2.269084e-12 1.399187e-12 8.640814e-13 5.346653e-13 3.322469e-13 2.074637e-13 1.304663e-13 8.265501e-14 5.284165e-14 3.407362e-14 2.217489e-14 1.454243e-14 9.606008e-15 6.375940e-15 4.247866e-15 2.833116e-15 1.889473e-15 1.256969e-15 0 0 0 0 0 0 0 0 0 0 0 0 0 0 0 0 0 0 0 0 0 0 0 0 0 0 0 0 0 0 0 0 0 0 0 0 0 0 0 0 0 0 0 0 0 0 0 0 0 0 0 0 0 0 0 0 0 0 0 0 0 0 0 0 0 0 0 0 0 0 0 0 0 0 0 0 0 0 0 0 0 0 0 0 0 0 0 0 0 0 0 0 0 0 0 0 0 0 0 0 0 0 0 0 0 0 0 0 0 0 0 0 0 0 0 0 0 0 0 0 0 0 0 0 0 0 0 0 0 0 0 0 0 0 0 0 0 0 0 0 0 0 0 0 0 0 0 0 0 0 0 0 0 0 0 0 0 0 0 0 0 0 0 0 0 0 0 0 0 0 0 0 0 0 0 0 0 0 0 0 0 0 0 0 0 0 0 0 0 0 0 0 0 0 0 0 0 0 0 0 0 0 0 0 0 0 0 0 0 0 0 0 0 0 0 0 0 0 0 0 0 0 0 0 0 0 0 0 0 0 0 0 0 0 0 0 0 0 0 0 0 0 0 0 0 0 0 0 0 0 0 0 
0 0 0 0 0 0 0 0 0 0 0 0 0 0 0 0 0 0 0 0 0 0 0 0 0 0 0 0 0 0 0 0 1.883012e-15 2.328522e-14 2.423051e-13 2.113072e-12 1.379093e-11 7.487779e-11 2.863559e-10 9.868667e-10 2.485787e-09 5.993102e-09 1.111929e-08 2.018836e-08 2.942503e-08 4.198756e-08 4.993901e-08 5.785521e-08 5.784875e-08 5.617597e-08 4.880172e-08 4.154693e-08 3.330950e-08 2.726046e-08 2.301968e-08 2.150202e-08 2.254322e-08 2.630709e-08 3.323038e-08 4.348433e-08 5.848864e-08 7.840939e-08 1.060305e-07 1.416178e-07 1.890391e-07 2.478262e-07 3.214873e-07 4.085874e-07 5.103073e-07 6.227255e-07 7.438095e-07 8.654053e-07 9.832196e-07 1.087165e-06 1.172970e-06 1.231966e-06 1.262775e-06 1.261167e-06 1.230160e-06 1.170662e-06 1.089219e-06 9.901726e-07 8.811685e-07 7.673045e-07 6.549316e-07 5.478095e-07 4.497390e-07 3.623519e-07 2.869315e-07 2.232980e-07 1.710198e-07 1.289052e-07 9.574527e-08 7.008274e-08 5.061528e-08 3.607127e-08 2.539538e-08 1.766433e-08 1.215266e-08 8.270175e-09 5.573061e-09 3.719179e-09 2.460549e-09 1.613956e-09 1.050706e-09 6.789745e-10 4.359838e-10 2.782291e-10 1.766573e-10 1.116249e-10 7.027683e-11 4.410071e-11 2.762183e-11 1.727767e-11 1.081028e-11 6.771394e-12 4.254123e-12 2.683456e-12 1.702807e-12 1.088038e-12 7.011356e-13 4.558126e-13 2.991340e-13 1.980243e-13 1.321626e-13 8.876962e-14 5.992211e-14 4.055841e-14 2.748211e-14 1.860043e-14 1.255779e-14 8.441349e-15 5.644470e-15 3.749096e-15 2.472355e-15 1.617012e-15 1.048738e-15 0 0 0 0 0 0 0 0 0 0 0 0 0 0 0 0 0 0 0 0 0 0 0 0 0 0 0 0 0 0 0 0 0 0 0 0 0 0 0 0 0 0 0 0 0 0 0 0 0 0 0 0 0 0 0 0 0 0 0 0 0 0 0 0 0 0 0 0 0 0 0 0 0 0 0 0 0 0 0 0 0 0 0 0 0 0 0 0 0 0 0 0 0 0 0 0 0 0 0 0 0 0 0 0 0 0 0 0 0 0 0 0 0 0 0 0 0 0 0 0 0 0 0 0 0 0 0 0 0 0 0 0 0 0 0 0 0 0 0 0 0 0 0 0 0 0 0 0 0 0 0 0 0 0 0 0 0 0 0 0 0 0 0 0 0 0 0 0 0 0 0 0 0 0 0 0 0 0 0 0 0 0 0 0 0 0 0 0 0 0 0 0 0 0 0 0 0 0 0 0 0 0 0 0 0 0 0 0 0 0 0 0 0 0 0 0 0 0 0 0 0 0 0 0 0 0 0 0 0 0 0 0 0 0 0 0 0 0 0 0 0 0 0 0 0 0 0 
0 0 0 0 0 0 0 0 0 0 0 0 0 0 0 0 0 0 0 0 0 0 0 0 0 0 0 0 0 0 0 1.143568e-15 1.689543e-14 2.127258e-13 2.272136e-12 2.000877e-11 1.317613e-10 7.053320e-10 2.651319e-09 8.893578e-09 2.178306e-08 5.112232e-08 9.265819e-08 1.652264e-07 2.372255e-07 3.350133e-07 3.947901e-07 4.540385e-07 4.505338e-07 4.334331e-07 3.719270e-07 3.102920e-07 2.410842e-07 1.870526e-07 1.457417e-07 1.219846e-07 1.137063e-07 1.198916e-07 1.412174e-07 1.768375e-07 2.320449e-07 3.070242e-07 4.142006e-07 5.549404e-07 7.426926e-07 9.805038e-07 1.279036e-06 1.635704e-06 2.053300e-06 2.513829e-06 3.008716e-06 3.504160e-06 3.981896e-06 4.400046e-06 4.740795e-06 4.969193e-06 5.080430e-06 5.058742e-06 4.917989e-06 4.663427e-06 4.323034e-06 3.915150e-06 3.471328e-06 3.011823e-06 2.562067e-06 2.136161e-06 1.748824e-06 1.405454e-06 1.110681e-06 8.629265e-07 6.602063e-07 4.973063e-07 3.693929e-07 2.705129e-07 1.956054e-07 1.396282e-07 9.853800e-08 6.873343e-08 4.745591e-08 3.242320e-08 2.195236e-08 1.472466e-08 9.798624e-09 6.467260e-09 4.239719e-09 2.759981e-09 1.786796e-09 1.150164e-09 7.373062e-10 4.706569e-10 2.996974e-10 1.903846e-10 1.208939e-10 7.676553e-11 4.885274e-11 3.117849e-11 2.000359e-11 1.291078e-11 8.401160e-12 5.512889e-12 3.653201e-12 2.442873e-12 1.648683e-12 1.120894e-12 7.670182e-13 5.269015e-13 3.628838e-13 2.498893e-13 1.718552e-13 1.177552e-13 8.033032e-14 5.445301e-14 3.666818e-14 2.449137e-14 1.622718e-14 1.065208e-14 6.930438e-15 4.464341e-15 2.848954e-15 1.799399e-15 1.125656e-15 0 0 0 0 0 0 0 0 0 0 0 0 0 0 0 0 0 0 0 0 0 0 0 0 0 0 0 0 0 0 0 0 0 0 0 0 0 0 0 0 0 0 0 0 0 0 0 0 0 0 0 0 0 0 0 0 0 0 0 0 0 0 0 0 0 0 0 0 0 0 0 0 0 0 0 0 0 0 0 0 0 0 0 0 0 0 0 0 0 0 0 0 0 0 0 0 0 0 0 0 0 0 0 0 0 0 0 0 0 0 0 0 0 0 0 0 0 0 0 0 0 0 0 0 0 0 0 0 0 0 0 0 0 0 0 0 0 0 0 0 0 0 0 0 0 0 0 0 0 0 0 0 0 0 0 0 0 0 0 0 0 0 0 0 0 0 0 0 0 0 0 0 0 0 0 0 0 0 0 0 0 0 0 0 0 0 0 0 0 0 0 0 0 0 0 0 0 0 0 0 0 0 0 0 0 0 0 0 0 0 0 0 0 0 0 0 0 0 0 0 0 0 0 0 0 0 0 0 0 0 0 0 0 0 0 0 0 0 0 0 0 0 0 
0 0 0 0 0 0 0 0 0 0 0 0 0 0 0 0 0 0 0 0 0 0 0 0 0 0 0 0 0 0 0 9.078509e-15 1.383419e-13 1.774226e-12 1.955590e-11 1.739974e-10 1.158968e-09 6.095978e-09 2.249034e-08 7.304014e-08 1.729976e-07 3.924447e-07 6.917902e-07 1.205136e-06 1.701651e-06 2.372018e-06 2.770389e-06 3.163497e-06 3.120140e-06 2.984023e-06 2.539371e-06 2.094135e-06 1.595174e-06 1.197366e-06 8.832956e-07 6.798621e-07 5.694173e-07 5.380545e-07 5.810421e-07 6.863959e-07 8.720371e-07 1.141557e-06 1.530568e-06 2.054345e-06 2.757238e-06 3.655866e-06 4.789709e-06 6.141954e-06 7.727817e-06 9.473860e-06 1.134974e-05 1.321825e-05 1.501054e-05 1.656068e-05 1.780373e-05 1.860663e-05 1.895734e-05 1.880216e-05 1.820074e-05 1.718108e-05 1.585283e-05 1.429070e-05 1.261223e-05 1.089488e-05 9.228875e-06 7.665488e-06 6.253464e-06 5.010767e-06 3.949588e-06 3.062690e-06 2.339730e-06 1.761133e-06 1.307807e-06 9.582410e-07 6.935961e-07 4.960096e-07 3.508433e-07 2.454831e-07 1.700901e-07 1.167156e-07 7.940005e-08 5.355536e-08 3.585284e-08 2.382566e-08 1.573362e-08 1.032679e-08 6.744485e-09 4.384500e-09 2.840747e-09 1.835307e-09 1.184122e-09 7.635484e-10 4.929470e-10 3.189757e-10 2.072917e-10 1.354580e-10 8.917976e-11 5.920543e-11 3.968674e-11 2.686025e-11 1.835678e-11 1.265211e-11 8.784942e-12 6.131755e-12 4.294991e-12 3.011758e-12 2.110734e-12 1.475249e-12 1.026989e-12 7.108832e-13 4.889025e-13 3.336502e-13 2.258623e-13 1.515228e-13 1.007311e-13 6.631274e-14 4.323529e-14 2.790271e-14 1.782961e-14 1.127510e-14 7.058995e-15 4.373470e-15 2.682618e-15 1.628424e-15 0 0 0 0 0 0 0 0 0 0 0 0 0 0 0 0 0 0 0 0 0 0 0 0 0 0 0 0 0 0 0 0 0 0 0 0 0 0 0 0 0 0 0 0 0 0 0 0 0 0 0 0 0 0 0 0 0 0 0 0 0 0 0 0 0 0 0 0 0 0 0 0 0 0 0 0 0 0 0 0 0 0 0 0 0 0 0 0 0 0 0 0 0 0 0 0 0 0 0 0 0 0 0 0 0 0 0 0 0 0 0 0 0 0 0 0 0 0 0 0 0 0 0 0 0 0 0 0 0 0 0 0 0 0 0 0 0 0 0 0 0 0 0 0 0 0 0 0 0 0 0 0 0 0 0 0 0 0 0 0 0 0 0 0 0 0 0 0 0 0 0 0 0 0 0 0 0 0 0 0 0 0 0 0 0 0 0 0 0 0 0 0 0 0 0 0 0 0 0 0 0 0 0 0 0 0 0 0 0 0 0 0 0 0 0 0 0 0 0 0 0 0 0 0 0 0 0 0 0 0 0 0 0 0 0 0 0 0 0 0 
0 0 0 0 0 0 0 0 0 0 0 0 0 0 0 0 0 0 0 0 0 0 0 0 0 0 0 0 0 0 3.863754e-15 6.539106e-14 1.026759e-12 1.346678e-11 1.535784e-10 1.384468e-09 9.334459e-09 4.813979e-08 1.741657e-07 5.452577e-07 1.240905e-06 2.702778e-06 4.604434e-06 7.807785e-06 1.080470e-05 1.485869e-05 1.718866e-05 1.950044e-05 1.915414e-05 1.823418e-05 1.546132e-05 1.265315e-05 9.542645e-06 7.015183e-06 5.008368e-06 3.635281e-06 2.798543e-06 2.380510e-06 2.330507e-06 2.557250e-06 3.121328e-06 4.007261e-06 5.317520e-06 7.122217e-06 9.563945e-06 1.268692e-05 1.663916e-05 2.136493e-05 2.692159e-05 3.304387e-05 3.961481e-05 4.613825e-05 5.235456e-05 5.767242e-05 6.185502e-05 6.444677e-05 6.541733e-05 6.460822e-05 6.225309e-05 5.847951e-05 5.368996e-05 4.815738e-05 4.229497e-05 3.636478e-05 3.067097e-05 2.537340e-05 2.062779e-05 1.647850e-05 1.295794e-05 1.002946e-05 7.653474e-06 5.757559e-06 4.276545e-06 3.135913e-06 2.273491e-06 1.629306e-06 1.155870e-06 8.115547e-07 5.647174e-07 3.893557e-07 2.663579e-07 1.807548e-07 1.218530e-07 8.158811e-08 5.433924e-08 3.599665e-08 2.375666e-08 1.562160e-08 1.025395e-08 6.721093e-09 4.408671e-09 2.895951e-09 1.909619e-09 1.265219e-09 8.443278e-10 5.679292e-10 3.857788e-10 2.646052e-10 1.833962e-10 1.282702e-10 9.048037e-11 6.421409e-11 4.578841e-11 3.271241e-11 2.338110e-11 1.667558e-11 1.185459e-11 8.382033e-12 5.891369e-12 4.109174e-12 2.843863e-12 1.950291e-12 1.325628e-12 8.920702e-13 5.946107e-13 3.922011e-13 2.561550e-13 1.655143e-13 1.058849e-13 6.700944e-14 4.198611e-14 2.602467e-14 1.597230e-14 9.698228e-15 5.831427e-15 3.469352e-15 2.044306e-15 1.192043e-15 0 0 0 0 0 0 0 0 0 0 0 0 0 0 0 0 0 0 0 0 0 0 0 0 0 0 0 0 0 0 0 0 0 0 0 0 0 0 0 0 0 0 0 0 0 0 0 0 0 0 0 0 0 0 0 0 0 0 0 0 0 0 0 0 0 0 0 0 0 0 0 0 0 0 0 0 0 0 0 0 0 0 0 0 0 0 0 0 0 0 0 0 0 0 0 0 0 0 0 0 0 0 0 0 0 0 0 0 0 0 0 0 0 0 0 0 0 0 0 0 0 0 0 0 0 0 0 0 0 0 0 0 0 0 0 0 0 0 0 0 0 0 0 0 0 0 0 0 0 0 0 0 0 0 0 0 0 0 0 0 0 0 0 0 0 0 0 0 0 0 0 0 0 0 0 0 0 0 0 0 0 0 0 0 0 0 0 0 0 0 0 0 0 0 0 0 0 0 0 0 0 0 0 0 0 0 0 0 0 0 0 0 0 0 0 0 0 0 0 0 0 0 0 0 0 0 0 0 0 0 0 0 0 0 0 0 
0 0 0 0 0 0 0 0 0 0 0 0 0 0 0 0 0 0 0 0 0 0 0 0 0 0 0 0 0 1.231487e-15 2.448851e-14 4.245089e-13 6.901148e-12 9.274828e-11 1.101917e-09 1.006630e-08 6.887316e-08 3.473683e-07 1.233859e-06 3.711195e-06 8.057176e-06 1.669921e-05 2.729685e-05 4.469684e-05 6.044028e-05 8.161553e-05 9.347374e-05 1.052293e-04 1.029618e-04 9.777852e-05 8.268587e-05 6.748497e-05 5.058932e-05 3.678103e-05 2.576805e-05 1.804400e-05 1.311021e-05 1.024576e-05 9.129316e-06 9.323218e-06 1.078090e-05 1.344381e-05 1.756917e-05 2.329230e-05 3.110662e-05 4.113524e-05 5.391808e-05 6.923403e-05 8.731681e-05 1.072261e-04 1.285901e-04 1.496791e-04 1.696262e-04 1.864171e-04 1.992925e-04 2.067849e-04 2.088765e-04 2.051673e-04 1.965187e-04 1.834748e-04 1.673883e-04 1.492137e-04 1.302540e-04 1.113558e-04 9.341549e-05 7.691163e-05 6.225584e-05 4.955479e-05 3.884875e-05 3.000265e-05 2.285780e-05 1.718295e-05 1.276122e-05 9.364827e-06 6.798539e-06 4.883227e-06 3.474048e-06 2.448289e-06 1.710932e-06 1.185802e-06 8.159251e-07 5.574894e-07 3.786576e-07 2.557513e-07 1.719817e-07 1.152011e-07 7.697797e-08 5.135090e-08 3.425765e-08 2.288118e-08 1.533208e-08 1.032100e-08 6.994730e-09 4.778524e-09 3.296253e-09 2.296993e-09 1.617898e-09 1.150907e-09 8.261747e-10 5.972802e-10 4.341170e-10 3.164206e-10 2.308481e-10 1.681750e-10 1.221510e-10 8.828877e-11 6.343638e-11 4.524634e-11 3.201814e-11 2.245612e-11 1.560663e-11 1.073978e-11 7.318311e-12 4.935228e-12 3.294378e-12 2.175739e-12 1.422147e-12 9.196224e-13 5.885339e-13 3.726211e-13 2.335010e-13 1.447699e-13 8.884723e-14 5.395470e-14 3.243797e-14 1.930009e-14 1.137037e-14 6.630378e-15 3.829004e-15 2.189027e-15 1.239585e-15 0 0 0 0 0 0 0 0 0 0 0 0 0 0 0 0 0 0 0 0 0 0 0 0 0 0 0 0 0 0 0 0 0 0 0 0 0 0 0 0 0 0 0 0 0 0 0 0 0 0 0 0 0 0 0 0 0 0 0 0 0 0 0 0 0 0 0 0 0 0 0 0 0 0 0 0 0 0 0 0 0 0 0 0 0 0 0 0 0 0 0 0 0 0 0 0 0 0 0 0 0 0 0 0 0 0 0 0 0 0 0 0 0 0 0 0 0 0 0 0 0 0 0 0 0 0 0 0 0 0 0 0 0 0 0 0 0 0 0 0 0 0 0 0 0 0 0 0 0 0 0 0 0 0 0 0 0 0 0 0 0 0 0 0 0 0 0 0 0 0 0 0 0 0 0 0 0 0 0 0 0 0 0 0 0 0 0 0 0 0 0 0 0 0 0 0 0 0 0 0 0 0 0 0 0 0 0 0 0 0 0 0 0 0 0 0 0 0 0 0 0 0 0 0 0 0 0 0 0 0 0 0 0 