# vtk DataFile Version 2.0
Comment goes here
ASCII

DATASET STRUCTURED_POINTS
FIELD FieldData 1
TIME 1 1 double
2.35000000
DIMENSIONS    384   64   1

ORIGIN    0.000   0.000   0.000
SPACING   0.078125 0.078125   1.000

POINT_DATA   24576
SCALARS Concentration double
LOOKUP_TABLE default

0 0 0 0 0 0 0 0 0 0 0 0 0 0 0 0 0 0 0 0 0 0 0 0 0 0 0 0 0 0 0 0 0 0 0 0 0 0 0 0 0 0 0 0 0 0 0 0 0 0 0 0 0 0 0 0 0 1.070919e-15 2.673291e-15 6.564731e-15 1.591001e-14 3.822976e-14 9.142150e-14 2.182967e-13 5.234098e-13 1.247754e-12 2.895578e-12 6.486378e-12 1.399819e-11 2.904245e-11 5.791854e-11 1.109008e-10 2.038970e-10 3.596564e-10 6.086797e-10 9.877389e-10 1.537055e-09 2.292772e-09 3.279099e-09 4.495876e-09 5.911687e-09 7.455848e-09 9.024330e-09 1.048599e-08 1.170554e-08 1.255985e-08 1.296464e-08 1.288287e-08 1.233580e-08 1.139142e-08 1.015596e-08 8.749826e-09 7.293442e-09 5.887954e-09 4.609457e-09 3.503203e-09 2.588179e-09 1.860970e-09 1.304088e-09 8.917016e-10 5.958036e-10 3.894916e-10 2.494877e-10 1.567922e-10 9.683540e-11 5.887908e-11 3.537179e-11 2.112342e-11 1.255883e-11 7.443488e-12 4.409535e-12 2.622641e-12 1.578794e-12 9.744278e-13 6.281732e-13 4.318854e-13 3.215546e-13 2.594280e-13 2.234936e-13 2.010894e-13 1.851405e-13 1.718679e-13 1.594251e-13 1.470548e-13 1.345914e-13 1.221467e-13 1.099423e-13 9.820128e-14 8.711090e-14 7.679697e-14 6.733093e-14 5.872318e-14 5.095453e-14 4.398786e-14 3.778488e-14 3.230192e-14 2.747258e-14 2.323203e-14 1.952805e-14 1.631178e-14 1.353870e-14 1.116448e-14 9.147368e-15 7.446175e-15 6.022574e-15 4.839903e-15 3.864884e-15 3.066731e-15 2.418204e-15 1.894860e-15 1.475578e-15 1.141904e-15 0 0 0 0 0 0 0 0 0 0 0 0 0 0 0 0 0 0 0 0 0 0 0 0 0 0 0 0 0 0 0 0 0 0 0 0 0 0 0 0 0 0 0 0 0 0 0 0 0 0 0 0 0 0 0 0 0 0 0 0 0 0 0 0 0 0 0 0 0 0 0 0 0 0 0 0 0 0 0 0 0 0 0 0 0 0 0 0 0 0 0 0 0 0 0 0 0 0 0 0 0 0 0 0 0 0 0 0 0 0 0 0 0 0 0 0 0 0 0 0 0 0 0 0 0 0 0 0 0 0 0 0 0 0 0 0 0 0 0 0 0 0 0 0 0 0 0 0 0 0 0 0 0 0 0 0 0 0 0 0 0 0 0 0 0 0 0 0 0 0 0 0 0 0 0 0 0 0 0 0 0 0 0 0 0 0 0 0 0 0 0 0 0 0 0 0 0 0 0 0 0 0 0 0 0 0 0 0 0 0 0 0 0 0 0 0 0 0 0 0 0 0 0 0 0 0 0 0 0 0 0 0 
0 0 0 0 0 0 0 0 0 0 0 0 0 0 0 0 0 0 0 0 0 0 0 0 0 0 0 0 0 0 0 0 0 0 0 0 0 0 0 0 0 0 0 0 0 0 0 0 0 0 0 0 0 0 0 1.033185e-15 2.670667e-15 6.729039e-15 1.657441e-14 4.007446e-14 9.543505e-14 2.249215e-13 5.264047e-13 1.227760e-12 2.867670e-12 6.665776e-12 1.511003e-11 3.313543e-11 7.013296e-11 1.429890e-10 2.806833e-10 5.299077e-10 9.619402e-10 1.677703e-09 2.810708e-09 4.520514e-09 6.978931e-09 1.033853e-08 1.469706e-08 2.004728e-08 2.624541e-08 3.298206e-08 3.980446e-08 4.614833e-08 5.143158e-08 5.512757e-08 5.687518e-08 5.651616e-08 5.414193e-08 5.004305e-08 4.467633e-08 3.855852e-08 3.221056e-08 2.606964e-08 2.046911e-08 1.560781e-08 1.157355e-08 8.354985e-09 5.880423e-09 4.039641e-09 2.712690e-09 1.782713e-09 1.148327e-09 7.259290e-10 4.512186e-10 2.764294e-10 1.678946e-10 1.013698e-10 6.086887e-11 3.635340e-11 2.160768e-11 1.278456e-11 7.535615e-12 4.427818e-12 2.597755e-12 1.525039e-12 8.996244e-13 5.366363e-13 3.270271e-13 2.064305e-13 1.372654e-13 9.759126e-14 7.474459e-14 6.142377e-14 5.346819e-14 4.850754e-14 4.520446e-14 4.279939e-14 4.086192e-14 3.914239e-14 3.749589e-14 3.583549e-14 3.411285e-14 3.230257e-14 3.039882e-14 2.840683e-14 2.634340e-14 2.423056e-14 2.209750e-14 1.997373e-14 1.789117e-14 1.587777e-14 1.396029e-14 1.215903e-14 1.049113e-14 8.966686e-15 7.592277e-15 6.368292e-15 5.292307e-15 4.357380e-15 3.554977e-15 2.873884e-15 2.302527e-15 1.828247e-15 1.438960e-15 1.122634e-15 0 0 0 0 0 0 0 0 0 0 0 0 0 0 0 0 0 0 0 0 0 0 0 0 0 0 0 0 0 0 0 0 0 0 0 0 0 0 0 0 0 0 0 0 0 0 0 0 0 0 0 0 0 0 0 0 0 0 0 0 0 0 0 0 0 0 0 0 0 0 0 0 0 0 0 0 0 0 0 0 0 0 0 0 0 0 0 0 0 0 0 0 0 0 0 0 0 0 0 0 0 0 0 0 0 0 0 0 0 0 0 0 0 0 0 0 0 0 0 0 0 0 0 0 0 0 0 0 0 0 0 0 0 0 0 0 0 0 0 0 0 0 0 0 0 0 0 0 0 0 0 0 0 0 0 0 0 0 0 0 0 0 0 0 0 0 0 0 0 0 0 0 0 0 0 0 0 0 0 0 0 0 0 0 0 0 0 0 0 0 0 0 0 0 0 0 0 0 0 0 0 0 0 0 0 0 0 0 0 0 0 0 0 0 0 0 0 0 0 0 0 0 0 0 0 0 0 0 
0 0 0 0 0 0 0 0 0 0 0 0 0 0 0 0 0 0 0 0 0 0 0 0 0 0 0 0 0 0 0 0 0 0 0 0 0 0 0 0 0 0 0 0 0 0 0 0 0 0 0 0 0 0 2.403802e-15 6.313440e-15 1.610357e-14 4.001525e-14 9.715361e-14 2.312856e-13 5.417064e-13 1.253489e-12 2.875775e-12 6.562103e-12 1.495877e-11 3.396781e-11 7.537046e-11 1.620756e-10 3.370113e-10 6.760865e-10 1.307971e-09 2.436936e-09 4.371696e-09 7.543303e-09 1.251725e-08 1.995920e-08 3.058020e-08 4.499600e-08 6.359095e-08 8.629850e-08 1.124942e-07 1.408597e-07 1.695041e-07 1.960721e-07 2.181570e-07 2.335759e-07 2.408421e-07 2.393009e-07 2.293318e-07 2.121393e-07 1.896144e-07 1.639083e-07 1.371878e-07 1.112877e-07 8.760741e-08 6.699849e-08 4.984180e-08 3.610956e-08 2.551212e-08 1.759875e-08 1.186980e-08 7.837323e-09 5.073525e-09 3.224858e-09 2.017341e-09 1.247756e-09 7.668331e-10 4.683906e-10 2.844594e-10 1.717991e-10 1.032228e-10 6.171058e-11 3.672273e-11 2.175687e-11 1.284048e-11 7.553744e-12 4.435538e-12 2.605675e-12 1.538219e-12 9.195609e-13 5.641153e-13 3.622492e-13 2.496300e-13 1.885339e-13 1.569398e-13 1.419691e-13 1.360899e-13 1.348707e-13 1.356905e-13 1.369907e-13 1.378478e-13 1.377295e-13 1.363556e-13 1.336146e-13 1.295164e-13 1.241548e-13 1.176881e-13 1.103127e-13 1.022530e-13 9.373817e-14 8.499772e-14 7.624189e-14 6.766241e-14 5.941781e-14 5.163897e-14 4.441984e-14 3.782623e-14 3.189110e-14 2.662472e-14 2.201305e-14 1.802742e-14 1.462456e-14 1.175457e-14 9.361370e-15 7.388579e-15 5.779664e-15 4.481725e-15 3.445228e-15 2.626048e-15 1.984844e-15 1.487894e-15 1.106281e-15 0 0 0 0 0 0 0 0 0 0 0 0 0 0 0 0 0 0 0 0 0 0 0 0 0 0 0 0 0 0 0 0 0 0 0 0 0 0 0 0 0 0 0 0 0 0 0 0 0 0 0 0 0 0 0 0 0 0 0 0 0 0 0 0 0 0 0 0 0 0 0 0 0 0 0 0 0 0 0 0 0 0 0 0 0 0 0 0 0 0 0 0 0 0 0 0 0 0 0 0 0 0 0 0 0 0 0 0 0 0 0 0 0 0 0 0 0 0 0 0 0 0 0 0 0 0 0 0 0 0 0 0 0 0 0 0 0 0 0 0 0 0 0 0 0 0 0 0 0 0 0 0 0 0 0 0 0 0 0 0 0 0 0 0 0 0 0 0 0 0 0 0 0 0 0 0 0 0 0 0 0 0 0 0 0 0 0 0 0 0 0 0 0 0 0 0 0 0 0 0 0 0 0 0 0 0 0 0 0 0 0 0 0 0 0 0 0 0 0 0 0 0 
0 0 0 0 0 0 0 0 0 0 0 0 0 0 0 0 0 0 0 0 0 0 0 0 0 0 0 0 0 0 0 0 0 0 0 0 0 0 0 0 0 0 0 0 0 0 0 0 0 0 0 0 1.891982e-15 5.237416e-15 1.401034e-14 3.631577e-14 9.139924e-14 2.240660e-13 5.363276e-13 1.257893e-12 2.899119e-12 6.593577e-12 1.484453e-11 3.319430e-11 7.397273e-11 1.644004e-10 3.577160e-10 7.557210e-10 1.545996e-09 3.056040e-09 5.832767e-09 1.073518e-08 1.904363e-08 3.252928e-08 5.348332e-08 8.457962e-08 1.286245e-07 1.880171e-07 2.641722e-07 3.567109e-07 4.629947e-07 5.776846e-07 6.931572e-07 8.000318e-07 8.887130e-07 9.505524e-07 9.796371e-07 9.733695e-07 9.332475e-07 8.640391e-07 7.732784e-07 6.695297e-07 5.614900e-07 4.565229e-07 3.603182e-07 2.763481e-07 2.062364e-07 1.499268e-07 1.063210e-07 7.363220e-08 4.987404e-08 3.307913e-08 2.152005e-08 1.375678e-08 8.674976e-09 5.429470e-09 3.376266e-09 2.086172e-09 1.281493e-09 7.826675e-10 4.754878e-10 2.873619e-10 1.728426e-10 1.034794e-10 6.170521e-11 3.666706e-11 2.174437e-11 1.289493e-11 7.679978e-12 4.626641e-12 2.855244e-12 1.839655e-12 1.268268e-12 9.560535e-13 7.939131e-13 7.171971e-13 6.876650e-13 6.825175e-13 6.881100e-13 6.962434e-13 7.020167e-13 7.025969e-13 6.964942e-13 6.831244e-13 6.625609e-13 6.353166e-13 6.022570e-13 5.644282e-13 5.230356e-13 4.792806e-13 4.343807e-13 3.894218e-13 3.454098e-13 3.031504e-13 2.633237e-13 2.263958e-13 1.927058e-13 1.624051e-13 1.355456e-13 1.120408e-13 9.174336e-14 7.442149e-14 5.982069e-14 4.764811e-14 3.761722e-14 2.943617e-14 2.283690e-14 1.756534e-14 1.339829e-14 1.013477e-14 7.604355e-15 5.659653e-15 4.179374e-15 3.062090e-15 2.226527e-15 1.606681e-15 1.150915e-15 0 0 0 0 0 0 0 0 0 0 0 0 0 0 0 0 0 0 0 0 0 0 0 0 0 0 0 0 0 0 0 0 0 0 0 0 0 0 0 0 0 0 0 0 0 0 0 0 0 0 0 0 0 0 0 0 0 0 0 0 0 0 0 0 0 0 0 0 0 0 0 0 0 0 0 0 0 0 0 0 0 0 0 0 0 0 0 0 0 0 0 0 0 0 0 0 0 0 0 0 0 0 0 0 0 0 0 0 0 0 0 0 0 0 0 0 0 0 0 0 0 0 0 0 0 0 0 0 0 0 0 0 0 0 0 0 0 0 0 0 0 0 0 0 0 0 0 0 0 0 0 0 0 0 0 0 0 0 0 0 0 0 0 0 0 0 0 0 0 0 0 0 0 0 0 0 0 0 0 0 0 0 0 0 0 0 0 0 0 0 0 0 0 0 0 0 0 0 0 0 0 0 0 0 0 0 0 0 0 0 0 0 0 0 0 0 0 
0 0 0 0 0 0 0 0 0 0 0 0 0 0 0 0 0 0 0 0 0 0 0 0 0 0 0 0 0 0 0 0 0 0 0 0 0 0 0 0 0 0 0 0 0 0 0 0 0 0 1.286229e-15 3.774916e-15 1.067530e-14 2.914250e-14 7.692604e-14 1.967778e-13 4.888418e-13 1.182480e-12 2.792058e-12 6.454522e-12 1.465232e-11 3.278243e-11 7.252419e-11 1.591243e-10 3.473046e-10 7.560840e-10 1.615549e-09 3.356771e-09 6.763758e-09 1.318451e-08 2.484481e-08 4.519051e-08 7.930656e-08 1.341263e-07 2.185381e-07 3.427463e-07 5.173607e-07 7.511958e-07 1.049261e-06 1.409536e-06 1.821555e-06 2.264529e-06 2.709324e-06 3.120123e-06 3.460578e-06 3.697832e-06 3.809483e-06 3.785578e-06 3.631672e-06 3.365781e-06 3.016425e-06 2.616298e-06 2.198615e-06 1.791817e-06 1.417905e-06 1.090604e-06 8.164241e-07 5.955003e-07 4.237937e-07 2.946109e-07 2.003497e-07 1.334625e-07 8.725396e-08 5.614845e-08 3.579751e-08 2.266489e-08 1.425504e-08 8.908037e-09 5.533057e-09 3.416675e-09 2.098250e-09 1.281743e-09 7.791169e-10 4.713833e-10 2.840359e-10 1.705662e-10 1.022206e-10 6.127114e-11 3.688543e-11 2.246031e-11 1.400349e-11 9.105111e-12 6.320298e-12 4.782764e-12 3.975178e-12 3.587695e-12 3.434622e-12 3.403970e-12 3.427914e-12 3.465271e-12 3.491247e-12 3.491441e-12 3.458286e-12 3.388872e-12 3.283621e-12 3.145252e-12 2.978187e-12 2.787819e-12 2.580209e-12 2.361461e-12 2.137600e-12 1.914071e-12 1.695766e-12 1.486668e-12 1.290011e-12 1.108058e-12 9.423452e-13 7.935760e-13 6.618875e-13 5.468188e-13 4.475591e-13 3.629493e-13 2.916841e-13 2.323203e-13 1.834217e-13 1.435608e-13 1.114101e-13 8.573247e-14 6.543053e-14 4.952865e-14 3.719253e-14 2.770786e-14 2.048242e-14 1.502498e-14 1.093918e-14 7.905252e-15 5.671428e-15 4.039575e-15 2.857148e-15 2.006798e-15 1.400032e-15 0 0 0 0 0 0 0 0 0 0 0 0 0 0 0 0 0 0 0 0 0 0 0 0 0 0 0 0 0 0 0 0 0 0 0 0 0 0 0 0 0 0 0 0 0 0 0 0 0 0 0 0 0 0 0 0 0 0 0 0 0 0 0 0 0 0 0 0 0 0 0 0 0 0 0 0 0 0 0 0 0 0 0 0 0 0 0 0 0 0 0 0 0 0 0 0 0 0 0 0 0 0 0 0 0 0 0 0 0 0 0 0 0 0 0 0 0 0 0 0 0 0 0 0 0 0 0 0 0 0 0 0 0 0 0 0 0 0 0 0 0 0 0 0 0 0 0 0 0 0 0 0 0 0 0 0 0 0 0 0 0 0 0 0 0 0 0 0 0 0 0 0 0 0 0 0 0 0 0 0 0 0 0 0 0 0 0 0 0 0 0 0 0 0 0 0 0 0 0 0 0 0 0 0 0 0 0 0 0 0 0 0 0 
0 0 0 0 0 0 0 0 0 0 0 0 0 0 0 0 0 0 0 0 0 0 0 0 0 0 0 0 0 0 0 0 0 0 0 0 0 0 0 0 0 0 0 0 0 0 0 0 0 2.348594e-15 7.042881e-15 2.034466e-14 5.666794e-14 1.525182e-13 3.970909e-13 1.002442e-12 2.457610e-12 5.867204e-12 1.366656e-11 3.115561e-11 6.968769e-11 1.535062e-10 3.339464e-10 7.197827e-10 1.540632e-09 3.288762e-09 6.908561e-09 1.413674e-08 2.808277e-08 5.403124e-08 1.005784e-07 1.808910e-07 3.141113e-07 5.260815e-07 8.494081e-07 1.321169e-06 1.979125e-06 2.854186e-06 3.962614e-06 5.295505e-06 6.813014e-06 8.439157e-06 1.006776e-05 1.156989e-05 1.281426e-05 1.368276e-05 1.409408e-05 1.401171e-05 1.345460e-05 1.248668e-05 1.121049e-05 9.743962e-06 8.208285e-06 6.707522e-06 5.323475e-06 4.107538e-06 3.085305e-06 2.258425e-06 1.613316e-06 1.125983e-06 7.689947e-07 5.146764e-07 3.384862e-07 2.199462e-07 1.418751e-07 9.085731e-08 5.779333e-08 3.651830e-08 2.293355e-08 1.431545e-08 8.886263e-09 5.486017e-09 3.370131e-09 2.060532e-09 1.254822e-09 7.616029e-10 4.614109e-10 2.796201e-10 1.702177e-10 1.047993e-10 6.603752e-11 4.334040e-11 3.029759e-11 2.301516e-11 1.914355e-11 1.725619e-11 1.648829e-11 1.631127e-11 1.640134e-11 1.655984e-11 1.666622e-11 1.665019e-11 1.647491e-11 1.612632e-11 1.560699e-11 1.493043e-11 1.411871e-11 1.319806e-11 1.219821e-11 1.114834e-11 1.007758e-11 9.011489e-12 7.973364e-12 6.981494e-12 6.051018e-12 5.191939e-12 4.411255e-12 3.711625e-12 3.093456e-12 2.554057e-12 2.089447e-12 1.693817e-12 1.360953e-12 1.083863e-12 8.557895e-13 6.699282e-13 5.200753e-13 4.003895e-13 3.057645e-13 2.316205e-13 1.740860e-13 1.298199e-13 9.607786e-14 7.056676e-14 5.145035e-14 3.723709e-14 2.675972e-14 1.909377e-14 1.353097e-14 9.523068e-15 6.658287e-15 4.624547e-15 3.191742e-15 2.188882e-15 1.492069e-15 1.010912e-15 0 0 0 0 0 0 0 0 0 0 0 0 0 0 0 0 0 0 0 0 0 0 0 0 0 0 0 0 0 0 0 0 0 0 0 0 0 0 0 0 0 0 0 0 0 0 0 0 0 0 0 0 0 0 0 0 0 0 0 0 0 0 0 0 0 0 0 0 0 0 0 0 0 0 0 0 0 0 0 0 0 0 0 0 0 0 0 0 0 0 0 0 0 0 0 0 0 0 0 0 0 0 0 0 0 0 0 0 0 0 0 0 0 0 0 0 0 0 0 0 0 0 0 0 0 0 0 0 0 0 0 0 0 0 0 0 0 0 0 0 0 0 0 0 0 0 0 0 0 0 0 0 0 0 0 0 0 0 0 0 0 0 0 0 0 0 0 0 0 0 0 0 0 0 0 0 0 0 0 0 0 0 0 0 0 0 0 0 0 0 0 0 0 0 0 0 0 0 0 0 0 0 0 0 0 0 0 0 
0 0 0 0 0 0 0 0 0 0 0 0 0 0 0 0 0 0 0 0 0 0 0 0 0 0 0 0 0 0 0 0 0 0 0 0 0 0 0 0 0 0 0 0 0 0 0 1.273326e-15 4.052259e-15 1.239233e-14 3.647754e-14 1.035480e-13 2.838294e-13 7.524151e-13 1.931504e-12 4.809811e-12 1.163778e-11 2.741904e-11 6.303256e-11 1.417491e-10 3.126482e-10 6.784884e-10 1.452980e-09 3.079240e-09 6.473067e-09 1.355406e-08 2.800994e-08 5.646939e-08 1.106513e-07 2.101671e-07 3.865446e-07 6.873283e-07 1.180863e-06 1.957921e-06 3.131812e-06 4.828987e-06 7.176742e-06 1.027581e-05 1.417641e-05 1.884087e-05 2.412849e-05 2.977543e-05 3.541938e-05 4.062030e-05 4.493258e-05 4.795293e-05 4.940237e-05 4.915172e-05 4.725941e-05 4.393833e-05 3.953397e-05 3.444980e-05 2.910222e-05 2.385466e-05 1.899427e-05 1.470667e-05 1.108643e-05 8.145903e-06 5.841757e-06 4.093969e-06 2.808317e-06 1.889428e-06 1.252264e-06 8.230600e-07 5.368788e-07 3.476395e-07 2.235454e-07 1.427860e-07 9.062812e-08 5.717315e-08 3.586310e-08 2.237361e-08 1.388872e-08 8.581994e-09 5.282268e-09 3.241158e-09 1.985480e-09 1.216952e-09 7.493589e-10 4.667131e-10 2.973727e-10 1.971310e-10 1.388855e-10 1.060019e-10 8.830483e-11 7.954428e-11 7.587765e-11 7.492751e-11 7.521917e-11 7.583845e-11 7.622666e-11 7.605681e-11 7.515810e-11 7.346723e-11 7.099817e-11 6.781714e-11 6.402832e-11 5.975615e-11 5.513795e-11 5.030975e-11 4.540354e-11 4.053643e-11 3.581175e-11 3.131176e-11 2.710154e-11 2.322494e-11 1.971000e-11 1.656725e-11 1.379554e-11 1.138158e-11 9.305302e-12 7.539920e-12 6.056141e-12 4.822325e-12 3.807418e-12 2.980929e-12 2.314732e-12 1.782819e-12 1.362234e-12 1.032668e-12 7.768109e-13 5.798813e-13 4.296491e-13 3.159817e-13 2.307099e-13 1.672430e-13 1.203904e-13 8.606339e-14 6.111037e-14 4.310250e-14 3.020445e-14 2.103017e-14 1.455165e-14 1.000700e-14 6.840970e-15 4.649248e-15 3.141995e-15 2.111650e-15 1.411718e-15 0 0 0 0 0 0 0 0 0 0 0 0 0 0 0 0 0 0 0 0 0 0 0 0 0 0 0 0 0 0 0 0 0 0 0 0 0 0 0 0 0 0 0 0 0 0 0 0 0 0 0 0 0 0 0 0 0 0 0 0 0 0 0 0 0 0 0 0 0 0 0 0 0 0 0 0 0 0 0 0 0 0 0 0 0 0 0 0 0 0 0 0 0 0 0 0 0 0 0 0 0 0 0 0 0 0 0 0 0 0 0 0 0 0 0 0 0 0 0 0 0 0 0 0 0 0 0 0 0 0 0 0 0 0 0 0 0 0 0 0 0 0 0 0 0 0 0 0 0 0 0 0 0 0 0 0 0 0 0 0 0 0 0 0 0 0 0 0 0 0 0 0 0 0 0 0 0 0 0 0 0 0 0 0 0 0 0 0 0 0 0 0 0 0 0 0 0 0 0 0 0 0 0 0 0 
0 0 0 0 0 0 0 0 0 0 0 0 0 0 0 0 0 0 0 0 0 0 0 0 0 0 0 0 0 0 0 0 0 0 0 0 0 0 0 0 0 0 0 0 0 0 2.069416e-15 6.694309e-15 2.078519e-14 6.213140e-14 1.790317e-13 4.984385e-13 1.341832e-12 3.499274e-12 8.845860e-12 2.171559e-11 5.182096e-11 1.204720e-10 2.732531e-10 6.062935e-10 1.318731e-09 2.820731e-09 5.948294e-09 1.240387e-08 2.562660e-08 5.265839e-08 1.070984e-07 2.128830e-07 4.116281e-07 7.721319e-07 1.403187e-06 2.466876e-06 4.192191e-06 6.879719e-06 1.089768e-05 1.665240e-05 2.454296e-05 3.487959e-05 4.780113e-05 6.316980e-05 8.051474e-05 9.898608e-05 1.174177e-04 1.344088e-04 1.485313e-04 1.584936e-04 1.633850e-04 1.627687e-04 1.568009e-04 1.461351e-04 1.318626e-04 1.152730e-04 9.772041e-05 8.039725e-05 6.426661e-05 4.996029e-05 3.781946e-05 2.790707e-05 2.010218e-05 1.415301e-05 9.758640e-06 6.609234e-06 4.427660e-06 2.942453e-06 1.940530e-06 1.270163e-06 8.255530e-07 5.328994e-07 3.418084e-07 2.178841e-07 1.381046e-07 8.705979e-08 5.461686e-08 3.410986e-08 2.122501e-08 1.316875e-08 8.159418e-09 5.059414e-09 3.152458e-09 1.986654e-09 1.280379e-09 8.575415e-10 6.091167e-10 4.672450e-10 3.899529e-10 3.510781e-10 3.343383e-10 3.295163e-10 3.302003e-10 3.323742e-10 3.335656e-10 3.323242e-10 3.278969e-10 3.200108e-10 3.087436e-10 2.944002e-10 2.774589e-10 2.584749e-10 2.380647e-10 2.168226e-10 1.953304e-10 1.740884e-10 1.535437e-10 1.340376e-10 1.158453e-10 9.913917e-11 8.403255e-11 7.055540e-11 5.869607e-11 4.838572e-11 3.953363e-11 3.201700e-11 2.570800e-11 2.046654e-11 1.615909e-11 1.265299e-11 9.828361e-12 7.573251e-12 5.790360e-12 4.392860e-12 3.307640e-12 2.471786e-12 1.833741e-12 1.350483e-12 9.875964e-13 7.171286e-13 5.172021e-13 3.704721e-13 2.636365e-13 1.863788e-13 1.309351e-13 9.140531e-14 6.342738e-14 4.374839e-14 3.000332e-14 2.045944e-14 1.387674e-14 9.361680e-15 6.284315e-15 4.197731e-15 2.791296e-15 1.847829e-15 1.218388e-15 0 0 0 0 0 0 0 0 0 0 0 0 0 0 0 0 0 0 0 0 0 0 0 0 0 0 0 0 0 0 0 0 0 0 0 0 0 0 0 0 0 0 0 0 0 0 0 0 0 0 0 0 0 0 0 0 0 0 0 0 0 0 0 0 0 0 0 0 0 0 0 0 0 0 0 0 0 0 0 0 0 0 0 0 0 0 0 0 0 0 0 0 0 0 0 0 0 0 0 0 0 0 0 0 0 0 0 0 0 0 0 0 0 0 0 0 0 0 0 0 0 0 0 0 0 0 0 0 0 0 0 0 0 0 0 0 0 0 0 0 0 0 0 0 0 0 0 0 0 0 0 0 0 0 0 0 0 0 0 0 0 0 0 0 0 0 0 0 0 0 0 0 0 0 0 0 0 0 0 0 0 0 0 0 0 0 0 0 0 0 0 0 0 0 0 0 0 0 0 0 0 
0 0 0 0 0 0 0 0 0 0 0 0 0 0 0 0 0 0 0 0 0 0 0 0 0 0 0 0 0 0 0 0 0 0 0 0 0 0 0 0 0 0 0 0 0 3.303820e-15 1.080639e-14 3.390926e-14 1.023370e-13 2.978646e-13 8.376353e-13 2.280211e-12 6.015470e-12 1.539924e-11 3.828359e-11 9.253415e-11 2.176687e-10 4.990513e-10 1.116888e-09 2.444962e-09 5.246415e-09 1.106427e-08 2.299252e-08 4.720374e-08 9.592962e-08 1.934715e-07 3.871988e-07 7.586099e-07 1.447264e-06 2.679943e-06 4.810422e-06 8.356285e-06 1.403887e-05 2.278699e-05 3.572369e-05 5.406136e-05 7.897451e-05 1.113402e-04 1.515208e-04 1.990363e-04 2.524405e-04 3.091585e-04 3.657109e-04 4.179084e-04 4.614865e-04 4.925467e-04 5.082958e-04 5.073167e-04 4.899461e-04 4.580304e-04 4.147586e-04 3.639968e-04 3.098562e-04 2.560433e-04 2.055893e-04 1.605577e-04 1.221025e-04 9.052404e-05 6.551760e-05 4.636089e-05 3.215164e-05 2.196269e-05 1.487352e-05 9.989721e-06 6.657103e-06 4.402705e-06 2.890967e-06 1.885276e-06 1.221548e-06 7.866453e-07 5.037260e-07 3.208573e-07 2.034159e-07 1.284170e-07 8.079193e-08 5.069791e-08 3.177881e-08 1.994160e-08 1.257689e-08 8.023792e-09 5.233785e-09 3.544871e-09 2.541510e-09 1.962220e-09 1.642873e-09 1.479909e-09 1.407905e-09 1.385288e-09 1.385635e-09 1.392231e-09 1.394723e-09 1.387030e-09 1.366020e-09 1.330616e-09 1.281216e-09 1.219200e-09 1.146636e-09 1.065931e-09 9.796814e-10 8.904075e-10 8.005024e-10 7.120431e-10 6.268193e-10 5.462136e-10 4.712839e-10 4.027008e-10 3.408548e-10 2.858321e-10 2.375233e-10 1.956193e-10 1.597054e-10 1.292638e-10 1.037459e-10 8.257350e-11 6.518831e-11 5.104950e-11 3.966312e-11 3.057630e-11 2.339190e-11 1.776045e-11 1.338537e-11 1.001424e-11 7.438703e-12 5.486431e-12 4.018631e-12 2.923368e-12 2.112470e-12 1.516427e-12 1.081594e-12 7.665543e-13 5.399464e-13 3.780203e-13 2.631092e-13 1.820735e-13 1.253014e-13 8.576423e-14 5.840064e-14 3.956805e-14 2.668231e-14 1.791120e-14 1.197304e-14 7.971745e-15 5.288734e-15 3.497152e-15 2.305940e-15 1.516676e-15 0 0 0 0 0 0 0 0 0 0 0 0 0 0 0 0 0 0 0 0 0 0 0 0 0 0 0 0 0 0 0 0 0 0 0 0 0 0 0 0 0 0 0 0 0 0 0 0 0 0 0 0 0 0 0 0 0 0 0 0 0 0 0 0 0 0 0 0 0 0 0 0 0 0 0 0 0 0 0 0 0 0 0 0 0 0 0 0 0 0 0 0 0 0 0 0 0 0 0 0 0 0 0 0 0 0 0 0 0 0 0 0 0 0 0 0 0 0 0 0 0 0 0 0 0 0 0 0 0 0 0 0 0 0 0 0 0 0 0 0 0 0 0 0 0 0 0 0 0 0 0 0 0 0 0 0 0 0 0 0 0 0 0 0 0 0 0 0 0 0 0 0 0 0 0 0 0 0 0 0 0 0 0 0 0 0 0 0 0 0 0 0 0 0 0 0 0 0 
0 0 0 0 0 0 0 0 0 0 0 0 0 0 0 0 0 0 0 0 0 0 0 0 0 0 0 0 0 0 0 0 0 0 0 0 0 0 0 0 0 0 0 1.538143e-15 5.306149e-15 1.747106e-14 5.506794e-14 1.668453e-13 4.870453e-13 1.374446e-12 3.755430e-12 9.959156e-12 2.565315e-11 6.428465e-11 1.567557e-10 3.723909e-10 8.620778e-10 1.947481e-09 4.296660e-09 9.276222e-09 1.962770e-08 4.081105e-08 8.356464e-08 1.689469e-07 3.377808e-07 6.691898e-07 1.316456e-06 2.542293e-06 4.784703e-06 8.745685e-06 1.549946e-05 2.659489e-05 4.414655e-05 7.083909e-05 1.098476e-04 1.645554e-04 2.381478e-04 3.329562e-04 4.498018e-04 5.872212e-04 7.410402e-04 9.040822e-04 1.066629e-03 1.217083e-03 1.343509e-03 1.434945e-03 1.483297e-03 1.484210e-03 1.438127e-03 1.349743e-03 1.227675e-03 1.082631e-03 9.263202e-04 7.694847e-04 6.211842e-04 4.877409e-04 3.729343e-04 2.779788e-04 2.022990e-04 1.439826e-04 1.005622e-04 6.940037e-05 4.748975e-05 3.222423e-05 2.169296e-05 1.449095e-05 9.610704e-06 6.329844e-06 4.142513e-06 2.694520e-06 1.743107e-06 1.121843e-06 7.188191e-07 4.587457e-07 2.918666e-07 1.852636e-07 1.175116e-07 7.463796e-08 4.766174e-08 3.079109e-08 2.033671e-08 1.393672e-08 1.009339e-08 7.850135e-09 6.599498e-09 5.952167e-09 5.659068e-09 5.559598e-09 5.550506e-09 5.565822e-09 5.564471e-09 5.522325e-09 5.427140e-09 5.274916e-09 5.067691e-09 4.811309e-09 4.514451e-09 4.186889e-09 3.839211e-09 3.481382e-09 3.122942e-09 2.771883e-09 2.435171e-09 2.117928e-09 1.824142e-09 1.556108e-09 1.315178e-09 1.101400e-09 9.142051e-10 7.521735e-10 6.135985e-10 4.963270e-10 3.981809e-10 3.168381e-10 2.501196e-10 1.958929e-10 1.522503e-10 1.174268e-10 8.989871e-11 6.831455e-11 5.154135e-11 3.860765e-11 2.871956e-11 2.121578e-11 1.556796e-11 1.134710e-11 8.217470e-12 5.912623e-12 4.228014e-12 3.004678e-12 2.122745e-12 1.490841e-12 1.041217e-12 7.231531e-13 4.996365e-13 3.434208e-13 2.349198e-13 1.599419e-13 1.084294e-13 7.320206e-14 4.923888e-14 3.300461e-14 2.205808e-14 1.470234e-14 9.779188e-15 6.492898e-15 4.306120e-15 2.853514e-15 1.890674e-15 1.252919e-15 0 0 0 0 0 0 0 0 0 0 0 0 0 0 0 0 0 0 0 0 0 0 0 0 0 0 0 0 0 0 0 0 0 0 0 0 0 0 0 0 0 0 0 0 0 0 0 0 0 0 0 0 0 0 0 0 0 0 0 0 0 0 0 0 0 0 0 0 0 0 0 0 0 0 0 0 0 0 0 0 0 0 0 0 0 0 0 0 0 0 0 0 0 0 0 0 0 0 0 0 0 0 0 0 0 0 0 0 0 0 0 0 0 0 0 0 0 0 0 0 0 0 0 0 0 0 0 0 0 0 0 0 0 0 0 0 0 0 0 0 0 0 0 0 0 0 0 0 0 0 0 0 0 0 0 0 0 0 0 0 0 0 0 0 0 0 0 0 0 0 0 0 0 0 0 0 0 0 0 0 0 0 0 0 0 0 0 0 0 0 0 0 0 0 
0 0 0 0 0 0 0 0 0 0 0 0 0 0 0 0 0 0 0 0 0 0 0 0 0 0 0 0 0 0 0 0 0 0 0 0 0 0 0 0 0 0 2.545403e-15 8.807613e-15 2.902169e-14 9.143433e-14 2.763445e-13 8.042152e-13 2.260113e-12 6.153034e-12 1.626303e-11 4.182393e-11 1.047873e-10 2.560815e-10 6.107274e-10 1.422190e-09 3.234525e-09 7.188834e-09 1.562374e-08 3.324369e-08 6.935341e-08 1.421493e-07 2.868575e-07 5.711530e-07 1.123826e-06 2.188138e-06 4.226990e-06 8.037030e-06 1.491061e-05 2.687731e-05 4.699307e-05 7.957044e-05 1.304021e-04 2.066787e-04 3.167774e-04 4.694054e-04 6.726364e-04 9.321070e-04 1.249565e-03 1.620765e-03 2.034699e-03 2.472633e-03 2.909541e-03 3.315429e-03 3.659379e-03 3.912543e-03 4.053084e-03 4.068368e-03 3.957917e-03 3.732404e-03 3.413018e-03 3.027250e-03 2.605899e-03 2.178209e-03 1.769411e-03 1.397966e-03 1.075433e-03 8.064515e-04 5.904231e-04 4.229270e-04 2.977635e-04 2.075672e-04 1.434242e-04 9.826090e-05 6.677845e-05 4.503327e-05 3.015027e-05 2.004789e-05 1.324657e-05 8.701110e-06 5.685178e-06 3.696698e-06 2.393723e-06 1.544411e-06 9.936652e-07 6.380953e-07 4.095918e-07 2.633839e-07 1.703340e-07 1.114881e-07 7.461153e-08 5.179457e-08 3.794881e-08 2.978748e-08 2.519079e-08 2.278281e-08 2.166943e-08 2.126678e-08 2.119479e-08 2.120853e-08 2.115487e-08 2.094420e-08 2.053187e-08 1.990481e-08 1.907262e-08 1.805956e-08 1.689983e-08 1.563183e-08 1.429589e-08 1.293009e-08 1.156973e-08 1.024458e-08 8.979513e-09 7.793012e-09 6.698545e-09 5.703851e-09 4.812657e-09 4.024438e-09 3.336064e-09 2.741784e-09 2.234588e-09 1.806246e-09 1.448305e-09 1.152093e-09 9.093744e-10 7.122945e-10 5.537563e-10 4.273154e-10 3.273620e-10 2.489907e-10 1.880582e-10 1.410518e-10 1.050807e-10 7.775845e-11 5.716573e-11 4.175526e-11 3.030826e-11 2.186311e-11 1.567679e-11 1.117451e-11 7.920054e-12 5.582079e-12 3.913322e-12 2.729159e-12 1.893979e-12 1.308135e-12 8.995186e-13 6.159386e-13 4.201535e-13 2.855856e-13 1.935192e-13 1.307715e-13 8.817242e-14 5.934029e-14 3.988547e-14 2.678607e-14 1.798411e-14 1.207619e-14 8.114633e-15 5.458154e-15 3.676598e-15 2.480523e-15 1.676649e-15 1.135342e-15 0 0 0 0 0 0 0 0 0 0 0 0 0 0 0 0 0 0 0 0 0 0 0 0 0 0 0 0 0 0 0 0 0 0 0 0 0 0 0 0 0 0 0 0 0 0 0 0 0 0 0 0 0 0 0 0 0 0 0 0 0 0 0 0 0 0 0 0 0 0 0 0 0 0 0 0 0 0 0 0 0 0 0 0 0 0 0 0 0 0 0 0 0 0 0 0 0 0 0 0 0 0 0 0 0 0 0 0 0 0 0 0 0 0 0 0 0 0 0 0 0 0 0 0 0 0 0 0 0 0 0 0 0 0 0 0 0 0 0 0 0 0 0 0 0 0 0 0 0 0 0 0 0 0 0 0 0 0 0 0 0 0 0 0 0 0 0 0 0 0 0 0 0 0 0 0 0 0 0 0 0 0 0 0 0 0 0 0 0 0 
0 0 0 0 0 0 0 0 0 0 0 0 0 0 0 0 0 0 0 0 0 0 0 0 0 0 0 0 0 0 0 0 0 0 0 0 0 0 0 0 1.256670e-15 4.537128e-15 1.557622e-14 5.098204e-14 1.594209e-13 4.780123e-13 1.377787e-12 3.832553e-12 1.031458e-11 2.695738e-11 6.855675e-11 1.701417e-10 4.125141e-10 9.787741e-10 2.273021e-09 5.170531e-09 1.151607e-08 2.512429e-08 5.368060e-08 1.124285e-07 2.309820e-07 4.663711e-07 9.268512e-07 1.816800e-06 3.516467e-06 6.728807e-06 1.274935e-05 2.385121e-05 4.359272e-05 7.746220e-05 1.335381e-04 2.230260e-04 3.606224e-04 5.642794e-04 8.543925e-04 1.251865e-03 1.775447e-03 2.437918e-03 3.242227e-03 4.177386e-03 5.216026e-03 6.313184e-03 7.408648e-03 8.430962e-03 9.305550e-03 9.962414e-03 1.034666e-02 1.042442e-02 1.018989e-02 9.663966e-03 8.893880e-03 7.943727e-03 6.888454e-03 5.801332e-03 4.748341e-03 3.779585e-03 2.928866e-03 2.211924e-03 1.630860e-03 1.176887e-03 8.362737e-04 5.885474e-04 4.105016e-04 2.838340e-04 1.946647e-04 1.324701e-04 8.950304e-05 6.006168e-05 4.005894e-05 2.656512e-05 1.752904e-05 1.151386e-05 7.534298e-06 4.913948e-06 3.197329e-06 2.077095e-06 1.349386e-06 8.785173e-07 5.755169e-07 3.817384e-07 2.589977e-07 1.822530e-07 1.352305e-07 1.072533e-07 9.135273e-08 8.293122e-08 7.896250e-08 7.744132e-08 7.704844e-08 7.692662e-08 7.653895e-08 7.557304e-08 7.387805e-08 7.141564e-08 6.822999e-08 6.441516e-08 6.010130e-08 5.542932e-08 5.054721e-08 4.559024e-08 4.068438e-08 3.593168e-08 3.141835e-08 2.720456e-08 2.333480e-08 1.983115e-08 1.670369e-08 1.394619e-08 1.154533e-08 9.477760e-09 7.717446e-09 6.233576e-09 4.995860e-09 3.972909e-09 3.135753e-09 2.456503e-09 1.910481e-09 1.475090e-09 1.130974e-09 8.610753e-10 6.511681e-10 4.891047e-10 3.649891e-10 2.705948e-10 1.993600e-10 1.459583e-10 1.062225e-10 7.684191e-11 5.527231e-11 3.953202e-11 2.812347e-11 1.990134e-11 1.401369e-11 9.819971e-12 6.850777e-12 4.758746e-12 3.292904e-12 2.270261e-12 1.560353e-12 1.069362e-12 7.312248e-13 4.990352e-13 3.401405e-13 2.316207e-13 1.576842e-13 1.073570e-13 7.314482e-14 4.988300e-14 3.406941e-14 2.330536e-14 1.597242e-14 1.096614e-14 7.543120e-15 5.196495e-15 3.584980e-15 2.475412e-15 1.710334e-15 1.181698e-15 0 0 0 0 0 0 0 0 0 0 0 0 0 0 0 0 0 0 0 0 0 0 0 0 0 0 0 0 0 0 0 0 0 0 0 0 0 0 0 0 0 0 0 0 0 0 0 0 0 0 0 0 0 0 0 0 0 0 0 0 0 0 0 0 0 0 0 0 0 0 0 0 0 0 0 0 0 0 0 0 0 0 0 0 0 0 0 0 0 0 0 0 0 0 0 0 0 0 0 0 0 0 0 0 0 0 0 0 0 0 0 0 0 0 0 0 0 0 0 0 0 0 0 0 0 0 0 0 0 0 0 0 0 0 0 0 0 0 0 0 0 0 0 0 0 0 0 0 0 0 0 0 0 0 0 0 0 0 0 0 0 0 0 0 0 0 0 0 0 0 0 0 0 0 0 0 0 0 0 0 0 0 0 0 0 0 
0 0 0 0 0 0 0 0 0 0 0 0 0 0 0 0 0 0 0 0 0 0 0 0 0 0 0 0 0 0 0 0 0 0 0 0 0 0 0 2.742002e-15 9.271131e-15 3.063909e-14 9.774884e-14 2.998624e-13 8.839149e-13 2.507654e-12 6.860095e-12 1.815126e-11 4.657922e-11 1.163113e-10 2.833631e-10 6.753482e-10 1.577442e-09 3.616590e-09 8.144353e-09 1.802199e-08 3.917846e-08 8.365186e-08 1.753555e-07 3.608915e-07 7.294685e-07 1.449566e-06 2.835764e-06 5.469225e-06 1.041057e-05 1.957014e-05 3.636003e-05 6.678025e-05 1.200869e-04 2.100932e-04 3.567607e-04 5.871029e-04 9.359071e-04 1.444600e-03 2.159477e-03 3.126628e-03 4.386612e-03 5.965239e-03 7.866409e-03 1.006228e-02 1.248992e-02 1.504758e-02 1.760174e-02 1.999402e-02 2.205975e-02 2.364234e-02 2.461620e-02 2.489863e-02 2.446579e-02 2.335185e-02 2.164997e-02 1.949547e-02 1.705305e-02 1.449171e-02 1.196930e-02 9.613127e-03 7.514255e-03 5.722594e-03 4.253587e-03 3.095151e-03 2.220021e-03 1.576777e-03 1.109566e-03 7.738987e-04 5.353300e-04 3.674279e-04 2.503886e-04 1.695003e-04 1.140605e-04 7.633857e-05 5.085147e-05 3.373288e-05 2.230008e-05 1.469998e-05 9.670518e-06 6.354725e-06 4.177612e-06 2.753836e-06 1.827627e-06 1.229048e-06 8.459798e-07 6.041965e-07 4.547456e-07 3.651447e-07 3.138494e-07 2.864616e-07 2.733536e-07 2.680692e-07 2.663135e-07 2.652799e-07 2.632115e-07 2.590993e-07 2.524763e-07 2.432566e-07 2.316271e-07 2.179429e-07 2.026675e-07 1.862993e-07 1.693435e-07 1.522622e-07 1.354703e-07 1.193052e-07 1.040381e-07 8.985921e-08 7.689715e-08 6.521307e-08 5.482273e-08 4.569502e-08 3.777199e-08 3.096906e-08 2.519083e-08 2.033127e-08 1.628487e-08 1.294622e-08 1.021704e-08 8.005056e-09 6.227898e-09 4.811553e-09 3.692116e-09 2.814088e-09 2.130849e-09 1.603045e-09 1.198395e-09 8.903140e-10 6.574510e-10 4.826058e-10 3.522307e-10 2.556272e-10 1.845188e-10 1.324889e-10 9.465596e-11 6.729993e-11 4.763486e-11 3.357140e-11 2.356785e-11 1.648520e-11 1.149459e-11 7.992177e-12 5.544226e-12 3.838800e-12 2.654506e-12 1.833986e-12 1.266760e-12 8.751113e-13 6.049830e-13 4.186787e-13 2.901760e-13 2.014465e-13 1.401119e-13 9.763055e-14 6.815382e-14 4.765053e-14 3.335981e-14 2.337526e-14 1.638726e-14 1.148747e-14 8.048604e-15 5.632915e-15 3.936172e-15 2.744700e-15 1.909109e-15 1.323920e-15 0 0 0 0 0 0 0 0 0 0 0 0 0 0 0 0 0 0 0 0 0 0 0 0 0 0 0 0 0 0 0 0 0 0 0 0 0 0 0 0 0 0 0 0 0 0 0 0 0 0 0 0 0 0 0 0 0 0 0 0 0 0 0 0 0 0 0 0 0 0 0 0 0 0 0 0 0 0 0 0 0 0 0 0 0 0 0 0 0 0 0 0 0 0 0 0 0 0 0 0 0 0 0 0 0 0 0 0 0 0 0 0 0 0 0 0 0 0 0 0 0 0 0 0 0 0 0 0 0 0 0 0 0 0 0 0 0 0 0 0 0 0 0 0 0 0 0 0 0 0 0 0 0 0 0 0 0 0 0 0 0 0 0 0 0 0 0 0 0 0 0 0 0 0 0 0 0 0 0 0 0 0 