# vtk DataFile Version 2.0
Comment goes here
ASCII

DATASET STRUCTURED_POINTS
FIELD FieldData 1
TIME 1 1 double
0.87500000
DIMENSIONS    384   64   1

ORIGIN    0.000   0.000   0.000
SPACING   0.078125 0.078125   1.000

POINT_DATA   24576
SCALARS Omega double
LOOKUP_TABLE default

-9.650021e-04 2.310534e-02 1.565478e-01 1.424493e-01 5.039719e-02 -1.234015e-02 -3.318777e-02 -2.824656e-02 -1.604704e-02 -5.987527e-03 -5.523577e-04 1.272461e-03 1.155768e-03 4.378937e-04 -2.480828e-04 -6.523938e-04 -8.334916e-04 -8.479474e-04 -8.122977e-04 -7.452860e-04 -6.976318e-04 -6.470374e-04 -6.147221e-04 -5.747742e-04 -5.433088e-04 -5.015090e-04 -4.646851e-04 -4.189883e-04 -3.790568e-04 -3.323270e-04 -2.939496e-04 -2.496598e-04 -2.170166e-04 -1.777630e-04 -1.535064e-04 -1.206638e-04 -1.055491e-04 -7.943532e-05 -7.238276e-05 -5.271693e-05 -5.123737e-05 -3.762362e-05 -3.848642e-05 -3.066628e-05 -3.066340e-05 -2.844855e-05 -2.510179e-05 -2.809981e-05 -2.016108e-05 -2.751117e-05 -1.513752e-05 -2.543843e-05 -1.000172e-05 -2.148410e-05 -5.086101e-06 -1.594624e-05 -8.063385e-07 -9.553035e-06 2.532816e-06 -3.155988e-06 4.825589e-06 2.524081e-06 6.156359e-06 7.035552e-06 6.729878e-06 1.021407e-05 6.786481e-06 1.212008e-05 6.537719e-06 1.294799e-05 6.136267e-06 1.294520e-05 5.674989e-06 1.235724e-05 5.201586e-06 1.139833e-05 4.736383e-06 1.024011e-05 4.286386e-06 9.010867e-06 3.853842e-06 7.799923e-06 3.440318e-06 6.664333e-06 3.047990e-06 5.636041e-06 2.679571e-06 4.728680e-06 2.337765e-06 3.943432e-06 2.024724e-06 3.273734e-06 1.741706e-06 2.708800e-06 1.488962e-06 2.236079e-06 1.265805e-06 1.842835e-06 1.070779e-06 1.517072e-06 9.018817e-07 1.247996e-06 7.567712e-07 1.026184e-06 6.329549e-07 8.435725e-07 5.279330e-07 6.933615e-07 4.393026e-07 5.698649e-07 3.648260e-07 4.683609e-07 3.024693e-07 3.849451e-07 2.504197e-07 3.163979e-07 2.070840e-07 2.600681e-07 1.710804e-07 2.137770e-07 1.412214e-07 1.757330e-07 1.164954e-07 1.444653e-07 9.604468e-08 1.187652e-07 7.914737e-08 9.764009e-08 6.519778e-08 8.027465e-08 5.368972e-08 6.599924e-08 4.420142e-08 5.426342e-08 3.638200e-08 4.461514e-08 2.994047e-08 3.668290e-08 2.463596e-08 3.016125e-08 2.026861e-08 2.479935e-08 1.667398e-08 2.039068e-08 1.371548e-08 1.676592e-08 1.128138e-08 1.378563e-08 9.278665e-09 1.133509e-08 7.631177e-09 9.320175e-09 6.275898e-09 7.663477e-09 5.161075e-09 6.301296e-09 4.244344e-09 5.181252e-09 3.490324e-09 4.260243e-09 2.870049e-09 3.502881e-09 2.360174e-09 2.880407e-09 1.940868e-09 2.368502e-09 1.595955e-09 1.947460e-09 1.312343e-09 1.601294e-09 1.079199e-09 1.316642e-09 8.873959e-10 1.082662e-09 7.296583e-10 8.903602e-10 6.000272e-10 7.319948e-10 4.933665e-10 6.020151e-10 4.057165e-10 4.950704e-10 3.336438e-10 4.070015e-10 2.742901e-10 3.345891e-10 2.256338e-10 2.752010e-10 1.855132e-10 2.261165e-10 1.524744e-10 1.859550e-10 1.254251e-10 1.530567e-10 1.030895e-10 1.257655e-10 8.479204e-11 1.034615e-10 6.981338e-11 8.504471e-11 5.738570e-11 7.004862e-11 4.727784e-11 5.761231e-11 3.880274e-11 4.746985e-11 3.200178e-11 3.891421e-11 2.618933e-11 3.196806e-11 2.164159e-11 2.640104e-11 1.780010e-11 2.166984e-11 1.469237e-11 1.786553e-11 1.212263e-11 1.466773e-11 9.995382e-12 1.202428e-11 8.158629e-12 9.994316e-12 6.873258e-12 8.268112e-12 5.590373e-12 6.797466e-12 4.642213e-12 5.738225e-12 3.806851e-12 4.700655e-12 3.233029e-12 3.875004e-12 2.607573e-12 3.084229e-12 2.277171e-12 2.768334e-12 1.953519e-12 2.208841e-12 1.570655e-12 1.860260e-12 1.301774e-12 1.703289e-12 1.221423e-12 1.467508e-12 1.210942e-12 1.431151e-12 1.165290e-12 1.299760e-12 9.989047e-13 1.034846e-12 7.998343e-13 1.015632e-12 1.014093e-12 1.102407e-12 1.093733e-12 1.180241e-12 1.213844e-12 1.256092e-12 1.376469e-12 1.392634e-12 1.506913e-12 1.594014e-12 1.821965e-12 1.904151e-12 2.058827e-12 2.125781e-12 2.630163e-12 2.708396e-12 3.188501e-12 3.204785e-12 3.721046e-12 3.777201e-12 4.485960e-12 4.551389e-12 5.363080e-12 5.548909e-12 6.520384e-12 6.671493e-12 7.919680e-12 8.004567e-12 9.553092e-12 9.792752e-12 1.173678e-11 1.191722e-11 1.414491e-11 1.447670e-11 1.718137e-11 1.747264e-11 2.080682e-11 2.137706e-11 2.539871e-11 2.593607e-11 3.089761e-11 3.156138e-11 3.774547e-11 3.847416e-11 4.572953e-11 4.667586e-11 5.566022e-11 5.679580e-11 6.774383e-11 6.914427e-11 8.257207e-11 8.403810e-11 1.003788e-10 1.020367e-10 1.221950e-10 1.242494e-10 1.489409e-10 1.510223e-10 1.813604e-10 1.837749e-10 2.210584e-10 2.235151e-10 2.696983e-10 2.718024e-10 3.290300e-10 3.307201e-10 4.017572e-10 4.022161e-10 4.908872e-10 4.892932e-10 6.004210e-10 5.953321e-10 7.354311e-10 7.243057e-10 9.021788e-10 8.811820e-10 1.108320e-09 1.072197e-09 1.364958e-09 1.304786e-09 1.685066e-09 1.587883e-09 2.086520e-09 1.932589e-09 2.592850e-09 2.352293e-09 3.236077e-09 2.863210e-09 4.059322e-09 3.485274e-09 5.121671e-09 4.241611e-09 6.506183e-09 5.160481e-09 8.330673e-09 6.274657e-09 1.076407e-08 7.620359e-09 1.405240e-08 9.235247e-09 1.856082e-08 1.115221e-08 2.484079e-08 1.338356e-08 3.374086e-08 1.588779e-08 4.659759e-08 1.849379e-08 6.557237e-08 2.073340e-08 9.427348e-08 2.145234e-08 1.389674e-07 1.786937e-08 2.110923e-07 3.142234e-09 3.329257e-07 -4.050908e-08 5.517691e-07 -1.635438e-07 9.802359e-07 -5.272922e-07 1.927546e-06 -1.723822e-06 4.377611e-06 -6.227896e-06 1.172809e-05 -2.516012e-05 3.177106e-05 -1.411434e-04 -3.882674e-04 -2.619092e-03 
-1.324964e+01 -8.604327e+00 -1.205048e+01 -9.853945e+00 -4.635818e+00 -2.412826e+00 -1.406177e+00 -9.019413e-01 -6.245246e-01 -4.595733e-01 -3.559763e-01 -2.875373e-01 -2.399079e-01 -2.050053e-01 -1.781533e-01 -1.567225e-01 -1.390936e-01 -1.242787e-01 -1.115559e-01 -1.004208e-01 -9.046451e-02 -8.140095e-02 -7.300599e-02 -6.514724e-02 -5.773332e-02 -5.073722e-02 -4.415058e-02 -3.799969e-02 -3.231217e-02 -2.712056e-02 -2.245334e-02 -1.831711e-02 -1.472365e-02 -1.164068e-02 -9.062600e-03 -6.921990e-03 -5.205266e-03 -3.823474e-03 -2.765613e-03 -1.937590e-03 -1.336311e-03 -8.771531e-04 -5.629784e-04 -3.296260e-04 -1.786133e-04 -7.319648e-05 -4.830215e-06 3.302003e-05 6.525093e-05 6.969819e-05 8.913698e-05 7.829068e-05 9.428796e-05 7.739880e-05 9.195682e-05 7.375521e-05 8.586276e-05 6.887354e-05 7.703463e-05 6.268731e-05 6.611098e-05 5.520059e-05 5.406572e-05 4.689817e-05 4.209224e-05 3.852572e-05 3.121652e-05 3.072882e-05 2.201854e-05 2.384706e-05 1.460628e-05 1.793161e-05 8.784534e-06 1.289216e-05 4.269557e-06 8.638073e-06 8.289232e-07 5.135690e-06 -1.687207e-06 2.385923e-06 -3.384440e-06 3.727988e-07 -4.372756e-06 -9.699192e-07 -4.788315e-06 -1.757566e-06 -4.784874e-06 -2.129639e-06 -4.510911e-06 -2.220783e-06 -4.089669e-06 -2.141375e-06 -3.610324e-06 -1.971036e-06 -3.129575e-06 -1.761508e-06 -2.678884e-06 -1.543553e-06 -2.272798e-06 -1.334012e-06 -1.915781e-06 -1.141240e-06 -1.606885e-06 -9.687083e-07 -1.342555e-06 -8.171588e-07 -1.118181e-06 -6.858525e-07 -9.289046e-07 -5.732761e-07 -7.700268e-07 -4.775581e-07 -6.372034e-07 -3.967171e-07 -5.265295e-07 -3.288104e-07 -4.345622e-07 -2.720193e-07 -3.583105e-07 -2.246945e-07 -2.952045e-07 -1.853723e-07 -2.430559e-07 -1.527770e-07 -2.000144e-07 -1.258096e-07 -1.645252e-07 -1.035333e-07 -1.352863e-07 -8.515531e-08 -1.112128e-07 -7.000859e-08 -9.140226e-08 -5.753561e-08 -7.510705e-08 -4.727118e-08 -6.170801e-08 -3.882884e-08 -5.069329e-08 -3.188833e-08 -4.164050e-08 -2.618422e-08 -3.420198e-08 -2.149779e-08 -2.809038e-08 -1.764845e-08 -2.306975e-08 -1.448705e-08 -1.894571e-08 -1.189130e-08 -1.555840e-08 -9.760125e-09 -1.277626e-08 -8.010399e-09 -1.049148e-08 -6.574132e-09 -8.615080e-09 -5.395288e-09 -7.074299e-09 -4.427662e-09 -5.808813e-09 -3.633559e-09 -4.769817e-09 -2.981754e-09 -3.916392e-09 -2.446780e-09 -3.215886e-09 -2.007927e-09 -2.640638e-09 -1.647660e-09 -2.168026e-09 -1.352047e-09 -1.780163e-09 -1.109430e-09 -1.461867e-09 -9.104475e-10 -1.200251e-09 -7.470637e-10 -9.856351e-10 -6.130559e-10 -8.092555e-10 -5.031211e-10 -6.645518e-10 -4.129399e-10 -5.458042e-10 -3.388240e-10 -4.481957e-10 -2.782151e-10 -3.680277e-10 -2.285216e-10 -3.025107e-10 -1.876564e-10 -2.485799e-10 -1.542618e-10 -2.043152e-10 -1.266907e-10 -1.679337e-10 -1.044294e-10 -1.383694e-10 -8.598136e-11 -1.139308e-10 -7.095557e-11 -9.402829e-11 -5.889780e-11 -7.802226e-11 -4.906237e-11 -6.483131e-11 -4.112860e-11 -5.425337e-11 -3.490029e-11 -4.589014e-11 -3.001057e-11 -3.906730e-11 -2.630385e-11 -3.399980e-11 -2.376000e-11 -3.030382e-11 -2.199945e-11 -2.758507e-11 -2.113273e-11 -2.601637e-11 -2.104690e-11 -2.564435e-11 -2.183427e-11 -2.599047e-11 -2.342967e-11 -2.754422e-11 -2.587169e-11 -3.013506e-11 -2.946490e-11 -3.380987e-11 -3.418557e-11 -3.896717e-11 -4.020239e-11 -4.541310e-11 -4.770501e-11 -5.367680e-11 -5.721252e-11 -6.414120e-11 -6.887904e-11 -7.699867e-11 -8.313101e-11 -9.273104e-11 -1.004909e-10 -1.120875e-10 -1.218684e-10 -1.357701e-10 -1.478510e-10 -1.645068e-10 -1.794270e-10 -1.998135e-10 -2.180604e-10 -2.427594e-10 -2.650281e-10 -2.950066e-10 -3.220774e-10 -3.584166e-10 -3.916022e-10 -4.357785e-10 -4.762056e-10 -5.297643e-10 -5.790397e-10 -6.442925e-10 -7.041792e-10 -7.834017e-10 -8.563935e-10 -9.526623e-10 -1.041280e-09 -1.158352e-09 -1.266340e-09 -1.408783e-09 -1.540026e-09 -1.713140e-09 -1.872822e-09 -2.083465e-09 -2.277584e-09 -2.533772e-09 -2.770042e-09 -3.081499e-09 -3.368666e-09 -3.747553e-09 -4.096949e-09 -4.557789e-09 -4.982837e-09 -5.543006e-09 -6.060120e-09 -6.741538e-09 -7.370541e-09 -8.199442e-09 -8.964664e-09 -9.972922e-09 -1.090393e-08 -1.213017e-08 -1.326314e-08 -1.475499e-08 -1.613366e-08 -1.794860e-08 -1.962627e-08 -2.183492e-08 -2.387701e-08 -2.656464e-08 -2.905078e-08 -3.232192e-08 -3.534911e-08 -3.933160e-08 -4.301844e-08 -4.786794e-08 -5.235969e-08 -5.826643e-08 -6.374091e-08 -7.093864e-08 -7.761363e-08 -8.638783e-08 -9.453105e-08 -1.052331e-07 -1.151738e-07 -1.282358e-07 -1.403807e-07 -1.563355e-07 -1.711871e-07 -1.906940e-07 -2.088769e-07 -2.327544e-07 -2.550468e-07 -2.843149e-07 -3.116916e-07 -3.476279e-07 -3.813169e-07 -4.255303e-07 -4.670888e-07 -5.216192e-07 -5.730361e-07 -6.404895e-07 -7.043282e-07 -7.880637e-07 -8.676600e-07 -9.720498e-07 -1.071794e-06 -1.202595e-06 -1.328337e-06 -1.493229e-06 -1.652874e-06 -1.862246e-06 -2.066642e-06 -2.334775e-06 -2.599058e-06 -2.945937e-06 -3.291627e-06 -3.745762e-06 -4.204074e-06 -4.807031e-06 -5.424275e-06 -6.238115e-06 -7.084707e-06 -8.204608e-06 -9.390631e-06 -1.096705e-05 -1.267006e-05 -1.494921e-05 -1.746613e-05 -2.086753e-05 -2.471625e-05 -2.998979e-05 -3.612016e-05 -4.468655e-05 -5.495125e-05 -6.970446e-05 -8.800686e-05 -1.154150e-04 -1.508387e-04 -2.072177e-04 -2.838410e-04 -4.173476e-04 -6.107056e-04 -9.941620e-04 -1.595817e-03 -3.007383e-03 -5.444782e-03 -1.238400e-02 -2.582034e-02 -7.394960e-02 -2.002467e-01 -1.075276e+00 -1.056889e+01 
5.874181e-02 -2.570555e-02 7.160114e-01 6.751117e-01 -1.124040e+00 -1.418438e+00 -1.274919e+00 -1.047460e+00 -8.421788e-01 -6.823233e-01 -5.629986e-01 -4.746758e-01 -4.077490e-01 -3.558089e-01 -3.140959e-01 -2.798819e-01 -2.510705e-01 -2.264410e-01 -2.048871e-01 -1.857308e-01 -1.682996e-01 -1.522140e-01 -1.370947e-01 -1.227929e-01 -1.091515e-01 -9.618719e-02 -8.388570e-02 -7.234672e-02 -6.161679e-02 -5.179851e-02 -4.293358e-02 -3.507121e-02 -2.821418e-02 -2.233679e-02 -1.740110e-02 -1.331580e-02 -1.002071e-02 -7.385583e-03 -5.350366e-03 -3.775914e-03 -2.616269e-03 -1.747880e-03 -1.140519e-03 -7.020192e-04 -4.101450e-04 -2.115864e-04 -8.121223e-05 -5.124578e-06 5.298065e-05 7.257305e-05 1.037001e-04 1.004694e-04 1.234963e-04 1.128153e-04 1.327668e-04 1.206492e-04 1.367748e-04 1.251058e-04 1.355124e-04 1.248337e-04 1.286161e-04 1.193205e-04 1.170071e-04 1.095644e-04 1.026423e-04 9.739253e-05 8.758729e-05 8.452222e-05 7.327998e-05 7.202750e-05 6.034561e-05 6.034482e-05 4.885767e-05 4.958414e-05 3.872193e-05 3.982846e-05 2.991766e-05 3.124524e-05 2.252282e-05 2.402476e-05 1.661062e-05 1.826396e-05 1.214609e-05 1.390110e-05 8.956897e-06 1.073296e-05 6.776756e-06 8.484801e-06 5.317770e-06 6.884754e-06 4.329688e-06 5.711633e-06 3.627824e-06 4.809982e-06 3.093156e-06 4.082556e-06 2.657550e-06 3.473712e-06 2.285848e-06 2.953203e-06 1.961299e-06 2.504369e-06 1.676056e-06 2.117018e-06 1.425923e-06 1.783752e-06 1.207895e-06 1.498336e-06 1.019186e-06 1.255095e-06 8.569691e-07 1.048763e-06 7.183905e-07 8.744749e-07 6.006478e-07 7.277992e-07 5.010776e-07 6.047593e-07 4.172128e-07 5.018332e-07 3.468179e-07 4.159385e-07 2.879012e-07 3.444031e-07 2.387128e-07 2.849303e-07 1.977318e-07 2.355588e-07 1.636487e-07 1.946245e-07 1.353448e-07 1.607216e-07 1.118697e-07 1.326673e-07 9.241979e-08 1.094703e-07 7.631938e-08 9.030178e-08 6.300150e-08 7.447051e-08 5.199219e-08 6.140155e-08 4.289593e-08 5.061708e-08 3.538388e-08 4.172030e-08 2.918200e-08 3.438290e-08 2.406368e-08 2.833297e-08 1.984052e-08 2.334532e-08 1.635689e-08 1.923439e-08 1.348384e-08 1.584638e-08 1.111460e-08 1.305441e-08 9.161033e-09 1.075382e-08 7.550330e-09 8.858294e-09 6.222643e-09 7.296791e-09 5.128299e-09 6.010361e-09 4.226208e-09 4.950545e-09 3.482647e-09 4.077564e-09 2.869877e-09 3.358488e-09 2.364834e-09 2.766002e-09 1.948501e-09 2.277953e-09 1.605546e-09 1.876022e-09 1.322795e-09 1.545050e-09 1.089909e-09 1.272435e-09 8.979609e-10 1.047737e-09 7.397162e-10 8.627001e-10 6.092788e-10 7.103626e-10 5.017835e-10 5.848472e-10 4.130891e-10 4.812172e-10 3.400712e-10 3.958274e-10 2.797273e-10 3.256817e-10 2.300230e-10 2.675052e-10 1.886574e-10 2.195795e-10 1.546886e-10 1.798650e-10 1.263156e-10 1.468524e-10 1.028629e-10 1.196663e-10 8.311815e-11 9.671253e-11 6.655836e-11 7.759824e-11 5.241459e-11 6.130731e-11 4.032194e-11 4.724943e-11 2.960396e-11 3.497657e-11 2.011307e-11 2.405810e-11 1.129162e-11 1.399914e-11 2.881192e-12 4.400243e-12 -5.586938e-12 -5.009415e-12 -1.409598e-11 -1.466018e-11 -2.318454e-11 -2.483160e-11 -3.320739e-11 -3.590008e-11 -4.442988e-11 -4.839779e-11 -5.749499e-11 -6.292791e-11 -7.280754e-11 -7.985440e-11 -9.091572e-11 -9.963130e-11 -1.124250e-10 -1.235498e-10 -1.383399e-10 -1.519783e-10 -1.695002e-10 -1.863350e-10 -2.074277e-10 -2.280562e-10 -2.530625e-10 -2.781308e-10 -3.082433e-10 -3.388791e-10 -3.755484e-10 -4.130271e-10 -4.573400e-10 -5.028423e-10 -5.565369e-10 -6.120685e-10 -6.772722e-10 -7.448317e-10 -8.239319e-10 -9.060636e-10 -1.002171e-09 -1.102211e-09 -1.219181e-09 -1.340810e-09 -1.482870e-09 -1.630875e-09 -1.803595e-09 -1.983542e-09 -2.193578e-09 -2.412627e-09 -2.667987e-09 -2.934363e-09 -3.244795e-09 -3.568848e-09 -3.946407e-09 -4.340596e-09 -4.799654e-09 -5.279127e-09 -5.837377e-09 -6.420658e-09 -7.099631e-09 -7.809156e-09 -8.634932e-09 -9.498093e-09 -1.050225e-08 -1.155229e-08 -1.277373e-08 -1.405123e-08 -1.553684e-08 -1.709112e-08 -1.889818e-08 -2.078923e-08 -2.298751e-08 -2.528857e-08 -2.796304e-08 -3.076313e-08 -3.401690e-08 -3.742465e-08 -4.138410e-08 -4.553180e-08 -5.035028e-08 -5.539951e-08 -6.126470e-08 -6.741260e-08 -7.455312e-08 -8.204023e-08 -9.073552e-08 -9.985628e-08 -1.104481e-07 -1.215625e-07 -1.344695e-07 -1.480187e-07 -1.637537e-07 -1.802791e-07 -1.994722e-07 -2.196394e-07 -2.430659e-07 -2.676949e-07 -2.963109e-07 -3.264150e-07 -3.614038e-07 -3.982386e-07 -4.410688e-07 -4.861960e-07 -5.386984e-07 -5.940690e-07 -6.585366e-07 -7.266011e-07 -8.059215e-07 -8.897760e-07 -9.876107e-07 -1.091194e-06 -1.212220e-06 -1.340584e-06 -1.490829e-06 -1.650516e-06 -1.837821e-06 -2.037388e-06 -2.272079e-06 -2.522854e-06 -2.818687e-06 -3.135867e-06 -3.511437e-06 -3.915710e-06 -4.396538e-06 -4.916523e-06 -5.538238e-06 -6.214238e-06 -7.027522e-06 -7.917404e-06 -8.995837e-06 -1.018449e-05 -1.163733e-05 -1.325225e-05 -1.524585e-05 -1.748357e-05 -2.027835e-05 -2.345094e-05 -2.746760e-05 -3.208735e-05 -3.803049e-05 -4.497130e-05 -5.407140e-05 -6.489254e-05 -7.940665e-05 -9.704231e-05 -1.213612e-04 -1.516972e-04 -1.949916e-04 -2.507870e-04 -3.339458e-04 -4.455983e-04 -6.215222e-04 -8.701845e-04 -1.291333e-03 -1.924869e-03 -3.107458e-03 -5.014425e-03 -9.156209e-03 -1.642673e-02 -3.855594e-02 -9.255628e-02 -3.972242e-01 -2.626359e-01 
-1.643401e+00 -9.630798e-03 -7.044337e-01 -5.360271e-01 -6.163012e-01 -7.896909e-01 -8.438354e-01 -8.053101e-01 -7.302831e-01 -6.495446e-01 -5.771738e-01 -5.153736e-01 -4.633317e-01 -4.190074e-01 -3.807651e-01 -3.473690e-01 -3.178227e-01 -2.914184e-01 -2.674265e-01 -2.453451e-01 -2.246213e-01 -2.049512e-01 -1.860017e-01 -1.676917e-01 -1.499077e-01 -1.327519e-01 -1.162667e-01 -1.006463e-01 -8.599565e-02 -7.249866e-02 -6.023948e-02 -4.931667e-02 -3.974980e-02 -3.152341e-02 -2.459254e-02 -1.884235e-02 -1.419162e-02 -1.046537e-02 -7.579713e-03 -5.343257e-03 -3.691067e-03 -2.450673e-03 -1.579967e-03 -9.479372e-04 -5.256488e-04 -2.339566e-04 -4.264798e-05 7.493329e-05 1.615669e-04 1.982981e-04 2.443839e-04 2.473927e-04 2.795641e-04 2.697555e-04 2.950641e-04 2.801226e-04 2.977011e-04 2.798827e-04 2.876440e-04 2.679316e-04 2.655286e-04 2.452611e-04 2.344772e-04 2.153886e-04 1.991705e-04 1.827596e-04 1.639965e-04 1.509880e-04 1.317530e-04 1.220226e-04 1.034630e-04 9.637174e-05 7.902006e-05 7.386418e-05 5.801517e-05 5.431746e-05 4.023347e-05 3.778465e-05 2.570050e-05 2.443222e-05 1.446604e-05 1.429890e-05 6.387370e-06 7.151618e-06 1.061853e-06 2.505850e-06 -2.093903e-06 -2.469340e-07 -3.704238e-06 -1.698662e-06 -4.317362e-06 -2.333097e-06 -4.348159e-06 -2.496378e-06 -4.075289e-06 -2.411212e-06 -3.668249e-06 -2.209159e-06 -3.221765e-06 -1.962855e-06 -2.784816e-06 -1.710295e-06 -2.380578e-06 -1.470350e-06 -2.018424e-06 -1.251673e-06 -1.700565e-06 -1.057485e-06 -1.425555e-06 -8.880974e-07 -1.190153e-06 -7.422753e-07 -9.903243e-07 -6.179998e-07 -8.218122e-07 -5.129215e-07 -6.804636e-07 -4.246308e-07 -5.624086e-07 -3.508167e-07 -4.641514e-07 -2.893525e-07 -3.826021e-07 -2.383367e-07 -3.150740e-07 -1.961027e-07 -2.592596e-07 -1.612113e-07 -2.131965e-07 -1.324343e-07 -1.752264e-07 -1.087320e-07 -1.439582e-07 -8.923046e-08 -1.182296e-07 -7.319947e-08 -9.707232e-08 -6.003050e-08 -7.968351e-08 -4.921865e-08 -6.539781e-08 -4.034612e-08 -5.366517e-08 -3.306759e-08 -4.403212e-08 -2.709860e-08 -3.612489e-08 -2.220470e-08 -2.963517e-08 -1.819304e-08 -2.430958e-08 -1.490491e-08 -1.994013e-08 -1.221034e-08 -1.635527e-08 -1.000249e-08 -1.341430e-08 -8.193339e-09 -1.100193e-08 -6.711280e-09 -9.023231e-09 -5.497148e-09 -7.400134e-09 -4.502386e-09 -6.069037e-09 -3.687622e-09 -4.977039e-09 -3.020170e-09 -4.081630e-09 -2.473479e-09 -3.347341e-09 -2.025809e-09 -2.745123e-09 -1.659285e-09 -2.251226e-09 -1.358954e-09 -1.846274e-09 -1.113058e-09 -1.514172e-09 -9.116118e-10 -1.241787e-09 -7.466658e-10 -1.018439e-09 -6.116229e-10 -8.353217e-10 -5.012514e-10 -6.854123e-10 -4.107514e-10 -5.624540e-10 -3.366318e-10 -4.615572e-10 -2.761191e-10 -3.789770e-10 -2.266923e-10 -3.115195e-10 -1.864070e-10 -2.562999e-10 -1.536429e-10 -2.112618e-10 -1.270666e-10 -1.746734e-10 -1.055117e-10 -1.448867e-10 -8.832052e-11 -1.208443e-10 -7.450779e-11 -1.015327e-10 -6.380393e-11 -8.632581e-11 -5.551125e-11 -7.452132e-11 -4.962408e-11 -6.577163e-11 -4.564463e-11 -5.938676e-11 -4.351669e-11 -5.553353e-11 -4.302142e-11 -5.392448e-11 -4.446243e-11 -5.442723e-11 -4.763240e-11 -5.697286e-11 -5.254914e-11 -6.179996e-11 -5.950046e-11 -6.884964e-11 -6.874196e-11 -7.874368e-11 -8.076810e-11 -9.152042e-11 -9.570194e-11 -1.078197e-10 -1.145038e-10 -1.286627e-10 -1.379330e-10 -1.542515e-10 -1.662534e-10 -1.856445e-10 -2.011917e-10 -2.242545e-10 -2.436695e-10 -2.714301e-10 -2.958007e-10 -3.291185e-10 -3.591969e-10 -3.992984e-10 -4.361760e-10 -4.849407e-10 -5.300478e-10 -5.891868e-10 -6.443610e-10 -7.161353e-10 -7.832381e-10 -8.703084e-10 -9.523445e-10 -1.058212e-09 -1.158091e-09 -1.286674e-09 -1.408027e-09 -1.564446e-09 -1.712339e-09 -1.902439e-09 -2.082354e-09 -2.313498e-09 -2.532231e-09 -2.813129e-09 -3.079522e-09 -3.421219e-09 -3.745141e-09 -4.160615e-09 -4.554524e-09 -5.059693e-09 -5.538844e-09 -6.153073e-09 -6.736056e-09 -7.482912e-09 -8.191957e-09 -9.100305e-09 -9.962749e-09 -1.106727e-08 -1.211642e-08 -1.345973e-08 -1.473601e-08 -1.636972e-08 -1.792213e-08 -1.990903e-08 -2.179758e-08 -2.421410e-08 -2.651178e-08 -2.945110e-08 -3.224641e-08 -3.582192e-08 -3.922318e-08 -4.357275e-08 -4.771156e-08 -5.300345e-08 -5.804016e-08 -6.447876e-08 -7.060918e-08 -7.844450e-08 -8.590716e-08 -9.544377e-08 -1.045301e-07 -1.161396e-07 -1.272055e-07 -1.413416e-07 -1.548221e-07 -1.720402e-07 -1.884677e-07 -2.094470e-07 -2.294747e-07 -2.550479e-07 -2.794768e-07 -3.106662e-07 -3.404821e-07 -3.785453e-07 -4.149634e-07 -4.614507e-07 -5.059733e-07 -5.628026e-07 -6.172928e-07 -6.868425e-07 -7.536206e-07 -8.388540e-07 -9.208217e-07 -1.025447e-06 -1.126254e-06 -1.254938e-06 -1.379202e-06 -1.537854e-06 -1.691462e-06 -1.887624e-06 -2.078142e-06 -2.321518e-06 -2.558765e-06 -2.861968e-06 -3.158821e-06 -3.538424e-06 -3.911982e-06 -4.390036e-06 -4.863307e-06 -5.469565e-06 -6.073968e-06 -6.849195e-06 -7.628349e-06 -8.629363e-06 -9.644912e-06 -1.095240e-05 -1.229317e-05 -1.402409e-05 -1.582088e-05 -1.814868e-05 -2.059861e-05 -2.378705e-05 -2.719508e-05 -3.165669e-05 -3.650855e-05 -4.290926e-05 -5.000443e-05 -5.945875e-05 -7.016358e-05 -8.461577e-05 -1.013689e-04 -1.243783e-04 -1.517572e-04 -1.902163e-04 -2.373340e-04 -3.054865e-04 -3.917560e-04 -5.212774e-04 -6.912911e-04 -9.582859e-04 -1.322669e-03 -1.923181e-03 -2.774516e-03 -4.232774e-03 -6.367603e-03 -1.006272e-02 -1.583268e-02 -2.714624e-02 -5.881493e-02 -2.236769e-01 -1.525627e+00 
5.226634e-02 5.441267e-04 5.589269e-01 7.314385e-01 8.263365e-02 -2.603364e-01 -4.305847e-01 -4.975040e-01 -5.117927e-01 -5.016240e-01 -4.819223e-01 -4.586218e-01 -4.342082e-01 -4.096705e-01 -3.854905e-01 -3.620691e-01 -3.394903e-01 -3.178518e-01 -2.969378e-01 -2.766402e-01 -2.566496e-01 -2.368736e-01 -2.171121e-01 -1.974294e-01 -1.778111e-01 -1.584878e-01 -1.395922e-01 -1.214387e-01 -1.042109e-01 -8.819406e-02 -7.352828e-02 -6.038155e-02 -4.880001e-02 -3.880101e-02 -3.033934e-02 -2.330105e-02 -1.758752e-02 -1.300339e-02 -9.441204e-03 -6.679767e-03 -4.632137e-03 -3.096394e-03 -2.012951e-03 -1.227893e-03 -6.988326e-04 -3.328364e-04 -8.869348e-05 6.546389e-05 1.817086e-04 2.404241e-04 3.079324e-04 3.288778e-04 3.792788e-04 3.860067e-04 4.261155e-04 4.250244e-04 4.521617e-04 4.433710e-04 4.543486e-04 4.377437e-04 4.326817e-04 4.100972e-04 3.925150e-04 3.672927e-04 3.422661e-04 3.177431e-04 2.898652e-04 2.681533e-04 2.404093e-04 2.221154e-04 1.958863e-04 1.806357e-04 1.563687e-04 1.435658e-04 1.214705e-04 1.107909e-04 9.117291e-05 8.262365e-05 6.584061e-05 5.954013e-05 4.579909e-05 4.173128e-05 3.094815e-05 2.885656e-05 2.066639e-05 2.010426e-05 1.398252e-05 1.443998e-05 9.846181e-06 1.086768e-05 7.345220e-06 8.592418e-06 5.806551e-06 7.066306e-06 4.795814e-06 5.955796e-06 4.063777e-06 5.078751e-06 3.481895e-06 4.344647e-06 2.989964e-06 3.711465e-06 2.561837e-06 3.159784e-06 2.186257e-06 2.679351e-06 1.857532e-06 2.263043e-06 1.571599e-06 1.904565e-06 1.324646e-06 1.597802e-06 1.112797e-06 1.336772e-06 9.321521e-07 1.115752e-06 7.789161e-07 9.294009e-07 6.495075e-07 7.728478e-07 5.406341e-07 6.417314e-07 4.493306e-07 5.322036e-07 3.729687e-07 4.409104e-07 3.092490e-07 3.649570e-07 2.561813e-07 3.018640e-07 2.120564e-07 2.495231e-07 1.754178e-07 2.061497e-07 1.450301e-07 1.702405e-07 1.198512e-07 1.405346e-07 9.900535e-08 1.159761e-07 8.175865e-08 9.568426e-08 6.749783e-08 7.892568e-08 5.571164e-08 6.509018e-08 4.597464e-08 5.367190e-08 3.793314e-08 4.425082e-08 3.129406e-08 3.647960e-08 2.581390e-08 3.007031e-08 2.129125e-08 2.478530e-08 1.755969e-08 2.042763e-08 1.448085e-08 1.683530e-08 1.194131e-08 1.387419e-08 9.846643e-09 1.143320e-08 8.118995e-09 9.421437e-09 6.694247e-09 7.763432e-09 5.519223e-09 6.397048e-09 4.550309e-09 5.270919e-09 3.751343e-09 4.342983e-09 3.092544e-09 3.578269e-09 2.549390e-09 2.948221e-09 2.101537e-09 2.428916e-09 1.732447e-09 2.000929e-09 1.427728e-09 1.648420e-09 1.176720e-09 1.357897e-09 9.696267e-10 1.118146e-09 7.988081e-10 9.207219e-10 6.579490e-10 7.581648e-10 5.417497e-10 6.238703e-10 4.456251e-10 5.128314e-10 3.661514e-10 4.212637e-10 3.004153e-10 3.454754e-10 2.458830e-10 2.828230e-10 2.006841e-10 2.307715e-10 1.628297e-10 1.871122e-10 1.311014e-10 1.507537e-10 1.042285e-10 1.200446e-10 8.121980e-11 9.363722e-11 6.125132e-11 7.092316e-11 4.353328e-11 5.066808e-11 2.726704e-11 3.238147e-11 1.212739e-11 1.516300e-11 -2.794165e-12 -1.487432e-12 -1.769882e-11 -1.809607e-11 -3.321601e-11 -3.554363e-11 -5.013983e-11 -5.418895e-11 -6.896167e-11 -7.523025e-11 -9.049656e-11 -9.905487e-11 -1.156437e-10 -1.265677e-10 -1.452131e-10 -1.593033e-10 -1.803398e-10 -1.980483e-10 -2.223826e-10 -2.441503e-10 -2.729082e-10 -2.998399e-10 -3.339534e-10 -3.670240e-10 -4.077634e-10 -4.482548e-10 -4.972855e-10 -5.467626e-10 -6.060594e-10 -6.663608e-10 -7.379369e-10 -8.113394e-10 -8.982306e-10 -9.877291e-10 -1.093008e-09 -1.201926e-09 -1.329771e-09 -1.462181e-09 -1.617612e-09 -1.778900e-09 -1.967588e-09 -2.163970e-09 -2.393343e-09 -2.632127e-09 -2.911058e-09 -3.201459e-09 -3.540420e-09 -3.893772e-09 -4.306004e-09 -4.735690e-09 -5.237042e-09 -5.759669e-09 -6.369247e-09 -7.004980e-09 -7.746288e-09 -8.519663e-09 -9.421137e-09 -1.036193e-08 -1.145812e-08 -1.260248e-08 -1.393568e-08 -1.532772e-08 -1.694919e-08 -1.864256e-08 -2.061455e-08 -2.267460e-08 -2.507305e-08 -2.757908e-08 -3.049629e-08 -3.354543e-08 -3.709381e-08 -4.080341e-08 -4.512001e-08 -4.963359e-08 -5.488484e-08 -6.037745e-08 -6.676647e-08 -7.345056e-08 -8.122433e-08 -8.935959e-08 -9.881996e-08 -1.087231e-07 -1.202375e-07 -1.322945e-07 -1.463120e-07 -1.609942e-07 -1.780629e-07 -1.959468e-07 -2.167365e-07 -2.385267e-07 -2.638576e-07 -2.904177e-07 -3.212947e-07 -3.536834e-07 -3.913397e-07 -4.308578e-07 -4.768107e-07 -5.250597e-07 -5.811789e-07 -6.401355e-07 -7.087324e-07 -7.808433e-07 -8.647838e-07 -9.530882e-07 -1.055940e-06 -1.164230e-06 -1.290455e-06 -1.423482e-06 -1.578691e-06 -1.742446e-06 -1.933736e-06 -2.135822e-06 -2.372238e-06 -2.622378e-06 -2.915541e-06 -3.226279e-06 -3.591265e-06 -3.978947e-06 -4.435521e-06 -4.921689e-06 -5.496076e-06 -6.109481e-06 -6.836947e-06 -7.616496e-06 -8.545163e-06 -9.544329e-06 -1.074093e-05 -1.203444e-05 -1.359317e-05 -1.528741e-05 -1.734376e-05 -1.959322e-05 -2.234625e-05 -2.538024e-05 -2.912912e-05 -3.329623e-05 -3.850198e-05 -4.434632e-05 -5.173935e-05 -6.013526e-05 -7.090903e-05 -8.330817e-05 -9.948110e-05 -1.183830e-04 -1.435033e-04 -1.733907e-04 -2.139709e-04 -2.632545e-04 -3.318281e-04 -4.170693e-04 -5.389931e-04 -6.944058e-04 -9.234821e-04 -1.222504e-03 -1.676785e-03 -2.278208e-03 -3.215878e-03 -4.445414e-03 -6.419891e-03 -9.088355e-03 -1.476265e-02 -3.091318e-02 -9.746953e-02 -2.568059e-02 