# vtk DataFile Version 2.0
Comment goes here
ASCII

DATASET STRUCTURED_POINTS
FIELD FieldData 1
TIME 1 1 double
2.37500000
DIMENSIONS    384   64   1

ORIGIN    0.000   0.000   0.000
SPACING   0.078125 0.078125   1.000

POINT_DATA   24576
SCALARS Omega double
LOOKUP_TABLE default

2.317985e-04 -2.699857e-03 -1.457538e-02 -6.515086e-04 2.073316e-02 3.795552e-02 4.411872e-02 3.855015e-02 2.653219e-02 1.585956e-02 1.299576e-02 2.059922e-02 3.739153e-02 5.927402e-02 8.088784e-02 9.703240e-02 1.039726e-01 1.003501e-01 8.745148e-02 6.864366e-02 4.818261e-02 2.991727e-02 1.631117e-02 8.146808e-03 4.742433e-03 4.592443e-03 5.965205e-03 7.436994e-03 8.079280e-03 7.527064e-03 5.810629e-03 3.225790e-03 1.408523e-04 -3.091423e-03 -6.206698e-03 -9.048903e-03 -1.154282e-02 -1.370408e-02 -1.556193e-02 -1.720040e-02 -1.866191e-02 -2.002615e-02 -2.130965e-02 -2.256707e-02 -2.379573e-02 -2.503490e-02 -2.628288e-02 -2.757241e-02 -2.890832e-02 -3.030813e-02 -3.176880e-02 -3.327368e-02 -3.479401e-02 -3.627058e-02 -3.764845e-02 -3.884179e-02 -3.979243e-02 -4.042268e-02 -4.070370e-02 -4.059880e-02 -4.012871e-02 -3.930880e-02 -3.820399e-02 -3.686610e-02 -3.537752e-02 -3.379630e-02 -3.219162e-02 -3.060184e-02 -2.906546e-02 -2.759192e-02 -2.619067e-02 -2.484925e-02 -2.356206e-02 -2.230821e-02 -2.108207e-02 -1.986449e-02 -1.865837e-02 -1.744979e-02 -1.625192e-02 -1.505524e-02 -1.388164e-02 -1.272458e-02 -1.161271e-02 -1.054184e-02 -9.545216e-03 -8.620121e-03 -7.800504e-03 -7.082235e-03 -6.493704e-03 -6.024607e-03 -5.690853e-03 -5.471996e-03 -5.367566e-03 -5.347364e-03 -5.396759e-03 -5.482178e-03 -5.583133e-03 -5.673060e-03 -5.736337e-03 -5.763019e-03 -5.750229e-03 -5.708684e-03 -5.649487e-03 -5.600430e-03 -5.580826e-03 -5.625878e-03 -5.753228e-03 -5.993716e-03 -6.353557e-03 -6.849521e-03 -7.470285e-03 -8.213689e-03 -9.050098e-03 -9.959243e-03 -1.089765e-02 -1.183266e-02 -1.271523e-02 -1.350915e-02 -1.416963e-02 -1.466637e-02 -1.496786e-02 -1.505741e-02 -1.492268e-02 -1.456468e-02 -1.399171e-02 -1.322210e-02 -1.228162e-02 -1.120143e-02 -1.001817e-02 -8.768725e-03 -7.492391e-03 -6.224182e-03 -4.998509e-03 -3.842390e-03 -2.780132e-03 -1.827406e-03 -9.963637e-04 -2.910228e-04 2.877172e-04 7.453535e-04 1.089325e-03 1.331179e-03 1.482988e-03 1.558722e-03 1.571662e-03 1.535261e-03 1.461518e-03 1.361528e-03 1.244648e-03 1.118863e-03 9.905232e-04 8.645769e-04 7.446693e-04 6.332710e-04 5.319574e-04 4.414489e-04 3.619512e-04 2.931228e-04 2.344035e-04 1.849305e-04 1.438201e-04 1.100541e-04 8.270521e-05 6.081215e-05 4.355254e-05 3.012129e-05 1.985963e-05 1.214541e-05 6.488520e-06 2.437227e-06 -3.514355e-07 -2.188391e-06 -3.300354e-06 -3.890766e-06 -4.100848e-06 -4.056884e-06 -3.840876e-06 -3.526609e-06 -3.157334e-06 -2.772942e-06 -2.392828e-06 -2.036212e-06 -1.708862e-06 -1.418227e-06 -1.163072e-06 -9.447431e-07 -7.590252e-07 -6.045474e-07 -4.763611e-07 -3.722478e-07 -2.876365e-07 -2.203795e-07 -1.667185e-07 -1.249387e-07 -9.216499e-08 -6.718576e-08 -4.790526e-08 -3.355298e-08 -2.265210e-08 -1.476712e-08 -8.880302e-09 -4.785160e-09 -1.789348e-09 1.693548e-10 1.561867e-09 2.367761e-09 2.909867e-09 3.126206e-09 3.242315e-09 3.179350e-09 3.099198e-09 2.921336e-09 2.764371e-09 2.553589e-09 2.378989e-09 2.173505e-09 2.007170e-09 1.822752e-09 1.674876e-09 1.515771e-09 1.389127e-09 1.254784e-09 1.148260e-09 1.036153e-09 9.473610e-10 8.545500e-10 7.810949e-10 7.045101e-10 6.438633e-10 5.806044e-10 5.306689e-10 4.784885e-10 4.370771e-10 3.939499e-10 3.599674e-10 3.245000e-10 2.962555e-10 2.669845e-10 2.439046e-10 2.197725e-10 2.005671e-10 1.807530e-10 1.650731e-10 1.487892e-10 1.359305e-10 1.223847e-10 1.115608e-10 1.004789e-10 9.174978e-11 8.264074e-11 7.544193e-11 6.791995e-11 6.208296e-11 5.585639e-11 5.085372e-11 4.579167e-11 4.185043e-11 3.774008e-11 3.442628e-11 3.097438e-11 2.821815e-11 2.531747e-11 2.334929e-11 2.113077e-11 1.922290e-11 1.727732e-11 1.574930e-11 1.425331e-11 1.323990e-11 1.179430e-11 1.074500e-11 9.731593e-12 8.828849e-12 8.072594e-12 7.320248e-12 6.450781e-12 5.843030e-12 5.379282e-12 4.877047e-12 4.483525e-12 4.110371e-12 3.569175e-12 3.230009e-12 2.824644e-12 2.468129e-12 1.825917e-12 1.489179e-12 1.197797e-12 1.057228e-12 6.938450e-13 4.760636e-13 2.786512e-13 2.261894e-13 6.086983e-14 4.559316e-14 -2.611837e-13 -4.416911e-13 -4.238091e-13 -7.222371e-13 -9.129586e-13 -1.205110e-12 -1.269444e-12 -1.503908e-12 -1.400746e-12 -1.624019e-12 -1.572905e-12 -1.697043e-12 -1.723451e-12 -2.149747e-12 -2.072120e-12 -2.379519e-12 -2.536401e-12 -3.226900e-12 -3.263049e-12 -4.033159e-12 -4.181426e-12 -4.998550e-12 -5.294254e-12 -6.459544e-12 -6.666075e-12 -8.108477e-12 -8.440300e-12 -1.020647e-11 -1.062546e-11 -1.278669e-11 -1.318033e-11 -1.597750e-11 -1.621695e-11 -1.937508e-11 -1.966972e-11 -2.375510e-11 -2.379181e-11 -2.908145e-11 -2.895781e-11 -3.550712e-11 -3.500003e-11 -4.351885e-11 -4.228902e-11 -5.316470e-11 -5.063458e-11 -6.502484e-11 -6.066969e-11 -7.991664e-11 -7.294526e-11 -9.863683e-11 -8.731197e-11 -1.222199e-10 -1.037755e-10 -1.518227e-10 -1.230419e-10 -1.894650e-10 -1.440914e-10 -2.377881e-10 -1.669139e-10 -3.008779e-10 -1.895656e-10 -3.845023e-10 -2.095964e-10 -4.978636e-10 -2.214005e-10 -6.552673e-10 -2.134855e-10 -8.812367e-10 -1.653576e-10 -1.219086e-09 -3.667993e-11 -1.750414e-09 2.578036e-10 -2.638651e-09 9.109049e-10 -4.237469e-09 2.415657e-09 -7.400980e-09 6.247548e-09 -1.444134e-08 1.769641e-08 -3.241663e-08 5.913228e-08 -8.249359e-08 2.180745e-07 1.126536e-08 -2.980619e-07 -6.525538e-06 3.183363e-04 
-1.342364e+00 -8.386368e-01 -1.190263e+00 -9.704491e-01 -5.494563e-01 -3.249868e-01 -2.025775e-01 -1.363596e-01 -1.008201e-01 -7.935456e-02 -6.115961e-02 -4.040461e-02 -1.554767e-02 1.165932e-02 3.743454e-02 5.737750e-02 6.796800e-02 6.776827e-02 5.790039e-02 4.161715e-02 2.314315e-02 6.376561e-03 -6.124468e-03 -1.346610e-02 -1.622955e-02 -1.584315e-02 -1.398916e-02 -1.206636e-02 -1.099459e-02 -1.114055e-02 -1.247690e-02 -1.471214e-02 -1.747706e-02 -2.041880e-02 -2.326798e-02 -2.586677e-02 -2.813524e-02 -3.008868e-02 -3.175415e-02 -3.321659e-02 -3.451769e-02 -3.573722e-02 -3.689042e-02 -3.802962e-02 -3.914942e-02 -4.028478e-02 -4.143042e-02 -4.261458e-02 -4.383871e-02 -4.511722e-02 -4.644424e-02 -4.780208e-02 -4.915934e-02 -5.045806e-02 -5.164062e-02 -5.262510e-02 -5.335100e-02 -5.374762e-02 -5.378446e-02 -5.343447e-02 -5.271685e-02 -5.165744e-02 -5.031829e-02 -4.876011e-02 -4.705970e-02 -4.528071e-02 -4.348366e-02 -4.170878e-02 -3.998335e-02 -3.831528e-02 -3.670058e-02 -3.512178e-02 -3.355757e-02 -3.197844e-02 -3.036127e-02 -2.867613e-02 -2.690936e-02 -2.503824e-02 -2.306555e-02 -2.098089e-02 -1.880782e-02 -1.655183e-02 -1.425868e-02 -1.195046e-02 -9.691566e-03 -7.516040e-03 -5.496722e-03 -3.668654e-03 -2.097345e-03 -8.043719e-04 1.685573e-04 8.253089e-04 1.158151e-03 1.199515e-03 9.743903e-04 5.354288e-04 -7.216104e-05 -7.920632e-04 -1.576783e-03 -2.383571e-03 -3.177773e-03 -3.940553e-03 -4.656358e-03 -5.330186e-03 -5.961975e-03 -6.571778e-03 -7.165207e-03 -7.765023e-03 -8.371963e-03 -9.000850e-03 -9.640552e-03 -1.029219e-02 -1.093111e-02 -1.154455e-02 -1.209763e-02 -1.256810e-02 -1.291770e-02 -1.312193e-02 -1.314745e-02 -1.297556e-02 -1.258561e-02 -1.197150e-02 -1.113047e-02 -1.007273e-02 -8.814704e-03 -7.382490e-03 -5.808643e-03 -4.130760e-03 -2.390961e-03 -6.312631e-04 1.104881e-03 2.778735e-03 4.353206e-03 5.799095e-03 7.090987e-03 8.212655e-03 9.152413e-03 9.907252e-03 1.047818e-02 1.087309e-02 1.110251e-02 1.118147e-02 1.112601e-02 1.095430e-02 1.068411e-02 1.033348e-02 9.919034e-03 9.456528e-03 8.959793e-03 8.441241e-03 7.911318e-03 7.378965e-03 6.851386e-03 6.334484e-03 5.832768e-03 5.349772e-03 4.887989e-03 4.449267e-03 4.034701e-03 3.645019e-03 3.280405e-03 2.940875e-03 2.626035e-03 2.335456e-03 2.068378e-03 1.824084e-03 1.601577e-03 1.399950e-03 1.218046e-03 1.054835e-03 9.090660e-04 7.796368e-04 6.652579e-04 5.648102e-04 4.770197e-04 4.007995e-04 3.349418e-04 2.784365e-04 2.301827e-04 1.892810e-04 1.547661e-04 1.258702e-04 1.017779e-04 8.185995e-05 6.545182e-05 5.205856e-05 4.115655e-05 3.237193e-05 2.530507e-05 1.968492e-05 1.521534e-05 1.170797e-05 8.949152e-06 6.813835e-06 5.151416e-06 3.883050e-06 2.904590e-06 2.169411e-06 1.606469e-06 1.190576e-06 8.736082e-07 6.439427e-07 4.689578e-07 3.451258e-07 2.501262e-07 1.849158e-07 1.339480e-07 1.003948e-07 7.315946e-08 5.627822e-08 4.160506e-08 3.328831e-08 2.517760e-08 2.115383e-08 1.645536e-08 1.453174e-08 1.162161e-08 1.070123e-08 8.754650e-09 8.303163e-09 6.903192e-09 6.666953e-09 5.601083e-09 5.462526e-09 4.618941e-09 4.525436e-09 3.842041e-09 3.770460e-09 3.209281e-09 3.149768e-09 2.685688e-09 2.634092e-09 2.248862e-09 2.203123e-09 1.883212e-09 1.842405e-09 1.576274e-09 1.540313e-09 1.319042e-09 1.287203e-09 1.103186e-09 1.075350e-09 9.223785e-10 8.979263e-10 7.707762e-10 7.494225e-10 6.438251e-10 6.249863e-10 5.371811e-10 5.211712e-10 4.479612e-10 4.341367e-10 3.736544e-10 3.614521e-10 3.111853e-10 3.007811e-10 2.588284e-10 2.500083e-10 2.152026e-10 2.072583e-10 1.781075e-10 1.713733e-10 1.471737e-10 1.414685e-10 1.212795e-10 1.160942e-10 9.900022e-11 9.440519e-11 8.000972e-11 7.589804e-11 6.364935e-11 5.973462e-11 4.921610e-11 4.570057e-11 3.642159e-11 3.296362e-11 2.496883e-11 2.140285e-11 1.415910e-11 1.069201e-11 3.573556e-12 -2.979543e-13 -7.014833e-12 -1.125808e-11 -1.810404e-11 -2.298772e-11 -3.001913e-11 -3.548024e-11 -4.307215e-11 -4.917856e-11 -5.780123e-11 -6.525352e-11 -7.465365e-11 -8.331824e-11 -9.436079e-11 -1.046527e-10 -1.177894e-10 -1.303101e-10 -1.458249e-10 -1.609569e-10 -1.795505e-10 -1.976808e-10 -2.200241e-10 -2.419626e-10 -2.689655e-10 -2.956957e-10 -3.282365e-10 -3.605793e-10 -4.004325e-10 -4.397894e-10 -4.880588e-10 -5.361922e-10 -5.949640e-10 -6.535833e-10 -7.255530e-10 -7.972492e-10 -8.848390e-10 -9.719293e-10 -1.078749e-09 -1.185478e-09 -1.316141e-09 -1.446518e-09 -1.606741e-09 -1.766351e-09 -1.962048e-09 -2.157794e-09 -2.398194e-09 -2.638504e-09 -2.933792e-09 -3.229562e-09 -3.593354e-09 -3.958112e-09 -4.407414e-09 -4.859066e-09 -5.416324e-09 -5.977284e-09 -6.670894e-09 -7.370594e-09 -8.237987e-09 -9.115440e-09 -1.020677e-08 -1.131451e-08 -1.269752e-08 -1.410650e-08 -1.587361e-08 -1.768221e-08 -1.996343e-08 -2.231061e-08 -2.529023e-08 -2.837610e-08 -3.232471e-08 -3.644454e-08 -4.176708e-08 -4.736891e-08 -5.469003e-08 -6.247266e-08 -7.278941e-08 -8.388081e-08 -9.884084e-08 -1.151299e-07 -1.375792e-07 -1.623679e-07 -1.974744e-07 -2.368301e-07 -2.945604e-07 -3.603052e-07 -4.613665e-07 -5.782290e-07 -7.698849e-07 -9.943128e-07 -1.398400e-06 -1.874204e-06 -2.858188e-06 -4.006150e-06 -6.916895e-06 -1.019507e-05 -2.122217e-05 -3.275085e-05 -8.804663e-05 -1.443316e-04 -4.093387e-04 -2.954856e-03 4.101553e-02 -1.022120e+00 
-1.188470e-02 -2.677798e-03 4.504663e-02 4.017371e-02 -1.163686e-01 -1.533911e-01 -1.497067e-01 -1.359826e-01 -1.218952e-01 -1.080569e-01 -9.212632e-02 -7.201444e-02 -4.738768e-02 -2.007973e-02 6.308688e-03 2.744662e-02 3.969560e-02 4.139026e-02 3.340797e-02 1.881218e-02 1.718624e-03 -1.399971e-02 -2.574989e-02 -3.256648e-02 -3.495196e-02 -3.426469e-02 -3.213859e-02 -2.994505e-02 -2.859524e-02 -2.845804e-02 -2.951353e-02 -3.147789e-02 -3.398729e-02 -3.669145e-02 -3.932098e-02 -4.171682e-02 -4.379717e-02 -4.557595e-02 -4.707923e-02 -4.839158e-02 -4.955435e-02 -5.064673e-02 -5.168266e-02 -5.271232e-02 -5.372712e-02 -5.475845e-02 -5.579659e-02 -5.686616e-02 -5.796430e-02 -5.910333e-02 -6.027399e-02 -6.145883e-02 -6.262405e-02 -6.371431e-02 -6.467033e-02 -6.541528e-02 -6.588763e-02 -6.602419e-02 -6.579383e-02 -6.517868e-02 -6.419673e-02 -6.288298e-02 -6.129612e-02 -5.950385e-02 -5.757620e-02 -5.558025e-02 -5.356596e-02 -5.157297e-02 -4.961441e-02 -4.769325e-02 -4.578762e-02 -4.387018e-02 -4.189776e-02 -3.982628e-02 -3.760825e-02 -3.519758e-02 -3.255894e-02 -2.965864e-02 -2.648863e-02 -2.304121e-02 -1.934762e-02 -1.543568e-02 -1.138052e-02 -7.246152e-03 -3.144535e-03 8.356384e-04 4.565640e-03 7.954850e-03 1.088678e-02 1.329651e-02 1.510869e-02 1.630627e-02 1.687276e-02 1.684584e-02 1.626691e-02 1.521641e-02 1.377458e-02 1.203894e-02 1.010031e-02 8.045365e-03 5.950452e-03 3.872679e-03 1.861366e-03 -5.984281e-05 -1.866912e-03 -3.560884e-03 -5.132015e-03 -6.591741e-03 -7.932024e-03 -9.162147e-03 -1.026736e-02 -1.124798e-02 -1.208025e-02 -1.275489e-02 -1.324206e-02 -1.352674e-02 -1.357916e-02 -1.338503e-02 -1.292200e-02 -1.218355e-02 -1.116151e-02 -9.862981e-03 -8.298371e-03 -6.491362e-03 -4.471490e-03 -2.277947e-03 4.435988e-05 2.445865e-03 4.873631e-03 7.275595e-03 9.599797e-03 1.180009e-02 1.383376e-02 1.566727e-02 1.727270e-02 1.863256e-02 1.973560e-02 2.058030e-02 2.117051e-02 2.151774e-02 2.163707e-02 2.154857e-02 2.127381e-02 2.083674e-02 2.026102e-02 1.957059e-02 1.878784e-02 1.793413e-02 1.702858e-02 1.608864e-02 1.512934e-02 1.416398e-02 1.320353e-02 1.225750e-02 1.133338e-02 1.043756e-02 9.574765e-03 8.748998e-03 7.962927e-03 7.218787e-03 6.517735e-03 5.860733e-03 5.247827e-03 4.679034e-03 4.153573e-03 3.670742e-03 3.229127e-03 2.827473e-03 2.463893e-03 2.136718e-03 1.843732e-03 1.582993e-03 1.352097e-03 1.148965e-03 9.711450e-04 8.165514e-04 6.828114e-04 5.679442e-04 4.697587e-04 3.864669e-04 3.161303e-04 2.572084e-04 2.080541e-04 1.673973e-04 1.338902e-04 1.065294e-04 8.425026e-05 6.629241e-05 5.184198e-05 4.034639e-05 3.120194e-05 2.402388e-05 1.837645e-05 1.400373e-05 1.059853e-05 7.999203e-06 5.993349e-06 4.485143e-06 3.329771e-06 2.475254e-06 1.823588e-06 1.350567e-06 9.898370e-07 7.338022e-07 5.371253e-07 4.014342e-07 2.952022e-07 2.246351e-07 1.672687e-07 1.311178e-07 9.971787e-08 8.135177e-08 6.360503e-08 5.424470e-08 4.367010e-08 3.879488e-08 3.204122e-08 2.937767e-08 2.473141e-08 2.316052e-08 1.974662e-08 1.872725e-08 1.609191e-08 1.536553e-08 1.326407e-08 1.270694e-08 1.099879e-08 1.055059e-08 9.146916e-09 8.776570e-09 7.616847e-09 7.306224e-09 6.345349e-09 6.083140e-09 5.285946e-09 5.064247e-09 4.402926e-09 4.215413e-09 3.666462e-09 3.507668e-09 3.052320e-09 2.918143e-09 2.540239e-09 2.427048e-09 2.113500e-09 2.017917e-09 1.757855e-09 1.677306e-09 1.461467e-09 1.393648e-09 1.214613e-09 1.157318e-09 1.008984e-09 9.606129e-10 8.375943e-10 7.970585e-10 6.948482e-10 6.604376e-10 5.757172e-10 5.469193e-10 4.763348e-10 4.517347e-10 3.932184e-10 3.725084e-10 3.236178e-10 3.059428e-10 2.649189e-10 2.497945e-10 2.152359e-10 2.020081e-10 1.730076e-10 1.612896e-10 1.365461e-10 1.260791e-10 1.047296e-10 9.508507e-11 7.654843e-11 6.767623e-11 5.113255e-11 4.216787e-11 2.684644e-11 1.782539e-11 3.119283e-12 -6.196525e-12 -2.054280e-11 -3.052024e-11 -4.523457e-11 -5.648608e-11 -7.178323e-11 -8.417421e-11 -1.009119e-10 -1.156280e-10 -1.343881e-10 -1.512868e-10 -1.727023e-10 -1.928492e-10 -2.179186e-10 -2.422512e-10 -2.715543e-10 -3.008472e-10 -3.359261e-10 -3.710303e-10 -4.128578e-10 -4.555785e-10 -5.060037e-10 -5.575852e-10 -6.186530e-10 -6.811904e-10 -7.551823e-10 -8.313260e-10 -9.212451e-10 -1.014017e-09 -1.123296e-09 -1.236290e-09 -1.369657e-09 -1.507609e-09 -1.670185e-09 -1.838288e-09 -2.036638e-09 -2.241962e-09 -2.484310e-09 -2.735327e-09 -3.031800e-09 -3.338868e-09 -3.701516e-09 -4.077438e-09 -4.522519e-09 -4.984073e-09 -5.530772e-09 -6.097944e-09 -6.771202e-09 -7.469810e-09 -8.300917e-09 -9.164292e-09 -1.019423e-08 -1.126450e-08 -1.254502e-08 -1.387677e-08 -1.547660e-08 -1.714240e-08 -1.915225e-08 -2.124799e-08 -2.378984e-08 -2.644530e-08 -2.968538e-08 -3.307815e-08 -3.724804e-08 -4.162777e-08 -4.705429e-08 -5.277624e-08 -5.993263e-08 -6.751757e-08 -7.710453e-08 -8.733368e-08 -1.004163e-07 -1.144967e-07 -1.327418e-07 -1.526003e-07 -1.787035e-07 -2.075285e-07 -2.460143e-07 -2.893065e-07 -3.481008e-07 -4.158120e-07 -5.095020e-07 -6.206577e-07 -7.777060e-07 -9.711143e-07 -1.251045e-06 -1.612173e-06 -2.150337e-06 -2.885193e-06 -4.022420e-06 -5.681383e-06 -8.391885e-06 -1.260514e-05 -2.017841e-05 -3.201745e-05 -5.836714e-05 -9.443150e-05 -1.324860e-04 -1.518679e-03 1.390802e-02 -2.412213e-02 
-1.866844e-01 -1.200375e-03 -9.163093e-02 -7.646482e-02 -5.618195e-02 -6.252198e-02 -7.316593e-02 -8.259343e-02 -8.898189e-02 -9.057922e-02 -8.572753e-02 -7.352062e-02 -5.457304e-02 -3.126761e-02 -7.541879e-03 1.204607e-02 2.361817e-02 2.526610e-02 1.760728e-02 3.484035e-03 -1.316276e-02 -2.855516e-02 -4.013364e-02 -4.690808e-02 -4.933433e-02 -4.871422e-02 -4.664092e-02 -4.445887e-02 -4.307369e-02 -4.285809e-02 -4.380532e-02 -4.564375e-02 -4.802126e-02 -5.059485e-02 -5.309931e-02 -5.537739e-02 -5.734697e-02 -5.902208e-02 -6.042757e-02 -6.164852e-02 -6.272517e-02 -6.373704e-02 -6.469617e-02 -6.565157e-02 -6.659126e-02 -6.754365e-02 -6.849470e-02 -6.946547e-02 -7.044914e-02 -7.145575e-02 -7.247345e-02 -7.348503e-02 -7.445548e-02 -7.533268e-02 -7.605704e-02 -7.655779e-02 -7.677337e-02 -7.664902e-02 -7.615312e-02 -7.527737e-02 -7.403761e-02 -7.247756e-02 -7.065055e-02 -6.863013e-02 -6.647663e-02 -6.425863e-02 -6.201166e-02 -5.977172e-02 -5.753243e-02 -5.528700e-02 -5.298823e-02 -5.059194e-02 -4.802362e-02 -4.521642e-02 -4.208905e-02 -3.857269e-02 -3.460440e-02 -3.013867e-02 -2.515799e-02 -1.966511e-02 -1.370943e-02 -7.357679e-03 -7.327911e-04 6.036602e-03 1.276846e-02 1.929518e-02 2.541031e-02 3.094679e-02 3.572054e-02 3.960980e-02 4.249733e-02 4.434114e-02 4.511723e-02 4.487398e-02 4.367880e-02 4.165257e-02 3.892543e-02 3.565221e-02 3.198320e-02 2.806451e-02 2.402804e-02 1.998121e-02 1.601679e-02 1.219474e-02 8.568763e-03 5.161181e-03 2.000387e-03 -9.108403e-04 -3.552994e-03 -5.926898e-03 -8.011066e-03 -9.801606e-03 -1.127217e-02 -1.241348e-02 -1.319759e-02 -1.361409e-02 -1.363983e-02 -1.326968e-02 -1.249233e-02 -1.131444e-02 -9.742513e-03 -7.799946e-03 -5.514399e-03 -2.927807e-03 -8.825038e-05 2.946263e-03 6.112536e-03 9.343241e-03 1.256908e-02 1.572291e-02 1.873984e-02 2.156267e-02 2.414021e-02 2.643252e-02 2.840796e-02 3.004729e-02 3.133982e-02 3.228624e-02 3.289433e-02 3.318064e-02 3.316642e-02 3.287849e-02 3.234564e-02 3.159924e-02 3.067034e-02 2.959017e-02 2.838803e-02 2.709193e-02 2.572702e-02 2.431651e-02 2.288043e-02 2.143681e-02 2.000063e-02 1.858511e-02 1.720081e-02 1.585694e-02 1.456045e-02 1.331741e-02 1.213194e-02 1.100771e-02 9.946704e-03 8.950734e-03 8.020158e-03 7.155335e-03 6.355342e-03 5.619390e-03 4.945542e-03 4.332097e-03 3.776333e-03 3.275857e-03 2.827390e-03 2.428065e-03 2.074274e-03 1.762899e-03 1.490229e-03 1.253106e-03 1.047919e-03 8.716520e-04 7.209600e-04 5.931095e-04 4.851358e-04 3.946780e-04 3.192137e-04 2.567933e-04 2.053516e-04 1.633465e-04 1.291460e-04 1.015804e-04 7.940240e-05 6.176100e-05 4.773120e-05 3.671998e-05 2.805995e-05 2.135618e-05 1.613856e-05 1.215714e-05 9.087264e-06 6.780290e-06 5.015186e-06 3.710870e-06 2.718031e-06 1.998432e-06 1.451209e-06 1.063799e-06 7.674676e-07 5.639586e-07 4.056148e-07 3.013310e-07 2.172499e-07 1.651488e-07 1.202818e-07 9.492569e-08 7.046646e-08 5.846277e-08 4.454730e-08 3.903065e-08 3.058867e-08 2.813343e-08 2.259833e-08 2.154099e-08 1.762384e-08 1.718019e-08 1.422995e-08 1.404256e-08 1.172238e-08 1.163379e-08 9.759544e-09 9.705062e-09 8.168137e-09 8.122254e-09 6.851661e-09 6.806226e-09 5.751826e-09 5.705258e-09 4.828411e-09 4.781603e-09 4.052136e-09 4.006144e-09 3.399144e-09 3.355012e-09 2.849837e-09 2.808186e-09 2.388024e-09 2.349502e-09 1.999833e-09 1.964692e-09 1.673728e-09 1.642073e-09 1.400164e-09 1.371519e-09 1.170436e-09 1.144636e-09 9.773276e-10 9.545258e-10 8.153263e-10 7.951515e-10 6.791856e-10 6.612939e-10 5.648903e-10 5.491498e-10 4.687880e-10 4.545585e-10 3.875488e-10 3.748859e-10 3.184709e-10 3.073261e-10 2.598618e-10 2.496903e-10 2.094641e-10 1.998549e-10 1.656948e-10 1.568132e-10 1.272941e-10 1.186210e-10 9.280055e-11 8.412897e-11 6.078622e-11 5.244469e-11 3.121142e-11 2.185262e-11 1.851911e-12 -8.419458e-12 -2.799029e-11 -3.928289e-11 -5.939912e-11 -7.229020e-11 -9.329929e-11 -1.081506e-10 -1.310247e-10 -1.484815e-10 -1.736232e-10 -1.943463e-10 -2.233418e-10 -2.477340e-10 -2.813028e-10 -3.109682e-10 -3.507118e-10 -3.863525e-10 -4.335537e-10 -4.769081e-10 -5.335609e-10 -5.859032e-10 -6.538801e-10 -7.174608e-10 -7.995397e-10 -8.764900e-10 -9.760630e-10 -1.069782e-09 -1.190477e-09 -1.304572e-09 -1.451419e-09 -1.590234e-09 -1.768937e-09 -1.938308e-09 -2.155929e-09 -2.362518e-09 -2.628050e-09 -2.880440e-09 -3.204681e-09 -3.512866e-09 -3.908576e-09 -4.285503e-09 -4.769560e-09 -5.231021e-09 -5.823729e-09 -6.388991e-09 -7.116067e-09 -7.810398e-09 -8.703457e-09 -9.557786e-09 -1.065734e-08 -1.171098e-08 -1.306840e-08 -1.437186e-08 -1.605315e-08 -1.767142e-08 -1.976171e-08 -2.177956e-08 -2.439004e-08 -2.691941e-08 -3.019798e-08 -3.338806e-08 -3.753308e-08 -4.158703e-08 -4.686909e-08 -5.206634e-08 -5.886194e-08 -6.559551e-08 -7.443806e-08 -8.327167e-08 -9.493363e-08 -1.066948e-07 -1.223236e-07 -1.382574e-07 -1.596030e-07 -1.816351e-07 -2.114483e-07 -2.426500e-07 -2.854067e-07 -3.308461e-07 -3.941107e-07 -4.624806e-07 -5.596113e-07 -6.664838e-07 -8.222829e-07 -9.969721e-07 -1.260219e-06 -1.561122e-06 -2.034255e-06 -2.585427e-06 -3.499769e-06 -4.584202e-06 -6.502691e-06 -8.815575e-06 -1.319811e-05 -1.855971e-05 -2.926305e-05 -4.250426e-05 -6.827854e-05 -1.038677e-04 -8.687379e-05 -1.052456e-03 1.060461e-02 -1.518204e-01 
-6.212661e-03 -5.682051e-05 1.947155e-02 2.886800e-02 9.024144e-03 -4.473176e-03 -1.958243e-02 -3.629239e-02 -5.175244e-02 -6.245978e-02 -6.571463e-02 -6.030934e-02 -4.694951e-02 -2.819338e-02 -8.106700e-03 8.694697e-03 1.827611e-02 1.863693e-02 1.023467e-02 -4.277824e-03 -2.115182e-02 -3.674951e-02 -4.859409e-02 -5.570878e-02 -5.852610e-02 -5.829919e-02 -5.658098e-02 -5.468436e-02 -5.350729e-02 -5.342455e-02 -5.444610e-02 -5.631516e-02 -5.869819e-02 -6.126245e-02 -6.375319e-02 -6.601575e-02 -6.797164e-02 -6.963371e-02 -7.102761e-02 -7.223693e-02 -7.330183e-02 -7.430084e-02 -7.524476e-02 -7.618131e-02 -7.709545e-02 -7.801341e-02 -7.891667e-02 -7.982390e-02 -8.072395e-02 -8.162566e-02 -8.251441e-02 -8.337426e-02 -8.416944e-02 -8.485193e-02 -8.536282e-02 -8.563800e-02 -8.561693e-02 -8.525319e-02 -8.451520e-02 -8.340318e-02 -8.193031e-02 -8.014700e-02 -7.809948e-02 -7.586410e-02 -7.348845e-02 -7.103846e-02 -6.853053e-02 -6.599126e-02 -6.338765e-02 -6.069502e-02 -5.783066e-02 -5.472286e-02 -5.125349e-02 -4.732173e-02 -4.280127e-02 -3.759344e-02 -3.160303e-02 -2.477484e-02 -1.708823e-02 -8.570793e-03 6.915458e-04 1.056785e-02 2.086035e-02 3.134460e-02 4.173859e-02 5.176518e-02 6.111365e-02 6.951624e-02 7.670282e-02 8.248076e-02 8.668338e-02 8.924163e-02 9.012789e-02 8.941040e-02 8.719632e-02 8.366466e-02 7.901548e-02 7.348271e-02 6.729764e-02 6.068676e-02 5.385612e-02 4.697972e-02 4.020675e-02 3.364379e-02 2.738146e-02 2.147078e-02 1.596232e-02 1.087584e-02 6.244505e-03 2.078286e-03 -1.592220e-03 -4.756114e-03 -7.381702e-03 -9.456827e-03 -1.095305e-02 -1.186254e-02 -1.216772e-02 -1.187236e-02 -1.097718e-02 -9.503969e-03 -7.477170e-03 -4.940591e-03 -1.944318e-03 1.445685e-03 5.156412e-03 9.104487e-03 1.320178e-02 1.735686e-02 2.147811e-02 2.547809e-02 2.927448e-02 3.279540e-02 3.597850e-02 3.877573e-02 4.115078e-02 4.308257e-02 4.456150e-02 4.559152e-02 4.618584e-02 4.636782e-02 4.616674e-02 4.561811e-02 4.475986e-02 4.363256e-02 4.227626e-02 4.073092e-02 3.903400e-02 3.722114e-02 3.532439e-02 3.337329e-02 3.139338e-02 2.940772e-02 2.743548e-02 2.549372e-02 2.359606e-02 2.175452e-02 1.997817e-02 1.827503e-02 1.665057e-02 1.510973e-02 1.365519e-02 1.228946e-02 1.101305e-02 9.826530e-03 8.728683e-03 7.718504e-03 6.793381e-03 5.951044e-03 5.187798e-03 4.500399e-03 3.884374e-03 3.335811e-03 2.849774e-03 2.421991e-03 2.047378e-03 1.721597e-03 1.439695e-03 1.197528e-03 9.905032e-04 8.148612e-04 6.665329e-04 5.422682e-04 4.386063e-04 3.528624e-04 2.822034e-04 2.245050e-04 1.775297e-04 1.396655e-04 1.092032e-04 8.496927e-05 6.569729e-05 5.056864e-05 3.867055e-05 2.945699e-05 2.228581e-05 1.681062e-05 1.258861e-05 9.412960e-06 6.982777e-06 5.184395e-06 3.815024e-06 2.820167e-06 2.063217e-06 1.525218e-06 1.113382e-06 8.286500e-07 6.069156e-07 4.591592e-07 3.400007e-07 2.645724e-07 1.998168e-07 1.617176e-07 1.254806e-07 1.062461e-07 8.492007e-08 7.504981e-08 6.161042e-08 5.633164e-08 4.719831e-08 4.416596e-08 3.751826e-08 3.560251e-08 3.050310e-08 2.916689e-08 2.511619e-08 2.410510e-08 2.081897e-08 2.001108e-08 1.731377e-08 1.664726e-08 1.441962e-08 1.386069e-08 1.201562e-08 1.154343e-08 1.001319e-08 9.613075e-09 8.342995e-09 8.003805e-09 6.949731e-09 6.662508e-09 5.787700e-09 5.544385e-09 4.818575e-09 4.612868e-09 4.010446e-09 3.836265e-09 3.336548e-09 3.189589e-09 2.775292e-09 2.650957e-09 2.307214e-09 2.202332e-09 1.917226e-09 1.828788e-09 1.592212e-09 1.517395e-09 1.320952e-09 1.258164e-09 1.094864e-09 1.041527e-09 9.061145e-10 8.609568e-10 7.481125e-10 7.095406e-10 6.154120e-10 5.825092e-10 5.037790e-10 4.753196e-10 4.092982e-10 3.844814e-10 3.285724e-10 3.067165e-10 2.590306e-10 2.393637e-10 1.984096e-10 1.802527e-10 1.441784e-10 1.269661e-10 9.484680e-11 7.805786e-11 4.844599e-11 3.146425e-11 3.452290e-12 -1.432792e-11 -4.227605e-11 -6.181994e-11 -9.005040e-11 -1.117214e-10 -1.415250e-10 -1.661721e-10 -1.985397e-10 -2.271208e-10 -2.633197e-10 -2.967538e-10 -3.382391e-10 -3.780481e-10 -4.267234e-10 -4.743052e-10 -5.316805e-10 -5.890132e-10 -6.574614e-10 -7.265471e-10 -8.087111e-10 -8.922021e-10 -9.909383e-10 -1.091894e-09 -1.211397e-09 -1.334384e-09 -1.479045e-09 -1.628469e-09 -1.804407e-09 -1.986016e-09 -2.200020e-09 -2.421678e-09 -2.681995e-09 -2.951876e-09 -3.269496e-09 -3.598843e-09 -3.986123e-09 -4.388128e-09 -4.861065e-09 -5.352401e-09 -5.930524e-09 -6.531245e-09 -7.239172e-09 -7.974922e-09 -8.842486e-09 -9.744635e-09 -1.080999e-08 -1.191821e-08 -1.322907e-08 -1.459360e-08 -1.621071e-08 -1.789547e-08 -1.989628e-08 -2.198263e-08 -2.446725e-08 -2.706083e-08 -3.015934e-08 -3.339820e-08 -3.728267e-08 -4.135010e-08 -4.625025e-08 -5.139206e-08 -5.761927e-08 -6.417130e-08 -7.215484e-08 -8.058252e-08 -9.092461e-08 -1.018884e-07 -1.154518e-07 -1.299065e-07 -1.479535e-07 -1.673149e-07 -1.917378e-07 -2.181592e-07 -2.518697e-07 -2.887231e-07 -3.363348e-07 -3.890686e-07 -4.581289e-07 -5.358595e-07 -6.391621e-07 -7.577387e-07 -9.178407e-07 -1.105987e-06 -1.364425e-06 -1.676556e-06 -2.113495e-06 -2.657382e-06 -3.435338e-06 -4.432735e-06 -5.897025e-06 -7.811067e-06 -1.072101e-05 -1.446483e-05 -2.047628e-05 -2.733413e-05 -3.930900e-05 -5.079604e-05 -2.661460e-05 -5.289254e-04 4.088423e-03 -2.690998e-03 