# vtk DataFile Version 2.0
Comment goes here
ASCII

DATASET STRUCTURED_POINTS
FIELD FieldData 1
TIME 1 1 double
1.52500000
DIMENSIONS    384   64   1

ORIGIN    0.000   0.000   0.000
SPACING   0.078125 0.078125   1.000

POINT_DATA   24576
SCALARS Omega double
LOOKUP_TABLE default

-5.931873e-04 1.812232e-02 -3.652748e-02 -3.743335e-01 -4.269883e-01 -2.718390e-01 -9.011441e-02 3.881715e-02 9.184869e-02 8.373603e-02 4.477828e-02 3.802126e-03 -2.404262e-02 -3.563929e-02 -3.515653e-02 -2.785234e-02 -1.787203e-02 -7.189727e-03 3.365906e-03 1.366156e-02 2.338351e-02 3.208867e-02 3.903239e-02 4.358698e-02 4.527441e-02 4.409019e-02 4.035623e-02 3.479686e-02 2.820907e-02 2.146080e-02 1.517128e-02 9.829672e-03 5.582246e-03 2.491843e-03 3.779155e-04 -8.836345e-04 -1.538121e-03 -1.698503e-03 -1.537232e-03 -1.109911e-03 -5.074972e-04 2.373821e-04 1.083827e-03 1.990783e-03 2.947269e-03 3.899035e-03 4.857130e-03 5.763060e-03 6.642499e-03 7.441297e-03 8.189991e-03 8.842564e-03 9.426532e-03 9.904078e-03 1.029734e-02 1.057492e-02 1.075662e-02 1.081525e-02 1.077380e-02 1.060768e-02 1.034773e-02 9.971391e-03 9.518816e-03 8.969755e-03 8.371449e-03 7.706543e-03 7.024378e-03 6.310721e-03 5.611241e-03 4.914366e-03 4.257429e-03 3.630515e-03 3.060272e-03 2.537308e-03 2.077782e-03 1.671985e-03 1.327720e-03 1.034613e-03 7.951600e-04 5.984119e-04 4.445428e-04 3.223698e-04 2.320161e-04 1.624578e-04 1.150884e-04 7.935358e-05 5.837029e-05 4.224443e-05 3.565824e-05 2.947419e-05 2.946530e-05 2.729948e-05 2.928870e-05 2.793817e-05 2.961271e-05 2.767407e-05 2.817610e-05 2.533352e-05 2.465067e-05 2.116106e-05 1.968781e-05 1.602144e-05 1.425671e-05 1.086357e-05 9.225114e-06 6.409879e-06 5.150445e-06 3.037904e-06 2.240924e-06 8.041693e-07 4.275786e-07 -4.538219e-07 -5.178169e-07 -9.982971e-07 -8.713923e-07 -1.095869e-06 -8.810391e-07 -9.624022e-07 -7.308055e-07 -7.448350e-07 -5.365162e-07 -5.272159e-07 -3.586051e-07 -3.474390e-07 -2.202667e-07 -2.150692e-07 -1.237505e-07 -1.254220e-07 -6.198246e-08 -6.869805e-08 -2.546570e-08 -3.490142e-08 -5.626476e-09 -1.589320e-08 4.040065e-09 -5.832753e-09 7.952975e-09 -8.825510e-10 8.869502e-09 1.309234e-09 8.388765e-09 2.098872e-09 7.369360e-09 2.224642e-09 6.236247e-09 2.069180e-09 5.177802e-09 1.817416e-09 4.258915e-09 1.552589e-09 3.489591e-09 1.308312e-09 2.856167e-09 1.094931e-09 2.338354e-09 9.131962e-10 1.916023e-09 7.599455e-10 1.571603e-09 6.320943e-10 1.290974e-09 5.260152e-10 1.061434e-09 4.369296e-10 8.728265e-10 3.627264e-10 7.180589e-10 3.011510e-10 5.917132e-10 2.503321e-10 4.877878e-10 2.080957e-10 4.022992e-10 1.726816e-10 3.318263e-10 1.434247e-10 2.737006e-10 1.190666e-10 2.259848e-10 9.903047e-11 1.865785e-10 8.210286e-11 1.538955e-10 6.810730e-11 1.268110e-10 5.618048e-11 1.043963e-10 4.636777e-11 8.636256e-11 3.892827e-11 7.157451e-11 3.222715e-11 5.864671e-11 2.640208e-11 4.832508e-11 2.179269e-11 3.973666e-11 1.810034e-11 3.300231e-11 1.500731e-11 2.697664e-11 1.237345e-11 2.218664e-11 1.003168e-11 1.834414e-11 8.347811e-12 1.517009e-11 7.183883e-12 1.271179e-11 5.821181e-12 1.047464e-11 4.870711e-12 8.834533e-12 4.302336e-12 7.140599e-12 3.431092e-12 5.676111e-12 2.546644e-12 4.614205e-12 2.318027e-12 4.012198e-12 1.979394e-12 3.528082e-12 1.709092e-12 3.018741e-12 1.742961e-12 2.442609e-12 1.028629e-12 1.766291e-12 7.994790e-13 1.742251e-12 1.046748e-12 1.387216e-12 6.437517e-13 1.078841e-12 4.188649e-13 1.006957e-12 6.041982e-13 9.586406e-13 8.275454e-13 1.073156e-12 4.912219e-13 5.751843e-13 1.743198e-13 2.908488e-13 2.457294e-13 4.745241e-13 1.012523e-13 2.855790e-13 1.080617e-13 1.686947e-13 2.531901e-13 4.493591e-13 4.497143e-13 5.516180e-13 5.719277e-13 7.270629e-13 5.923262e-13 6.370016e-13 5.721349e-13 7.480535e-13 9.638956e-13 1.007535e-12 9.094651e-13 1.058472e-12 1.324022e-12 1.446547e-12 1.382761e-12 1.575480e-12 1.832512e-12 1.938087e-12 2.140651e-12 2.470120e-12 2.485671e-12 2.564423e-12 2.482000e-12 2.960550e-12 3.125159e-12 3.540901e-12 3.536090e-12 4.093481e-12 3.949211e-12 4.618498e-12 4.999290e-12 6.147468e-12 6.584022e-12 7.909229e-12 8.343896e-12 9.645743e-12 9.973622e-12 1.172963e-11 1.235572e-11 1.426326e-11 1.500799e-11 1.711022e-11 1.765524e-11 2.097158e-11 2.200204e-11 2.552418e-11 2.675375e-11 3.127207e-11 3.277577e-11 3.810886e-11 3.977210e-11 4.625761e-11 4.814861e-11 5.637023e-11 5.889602e-11 6.864989e-11 7.138397e-11 8.326461e-11 8.700406e-11 1.018223e-10 1.057564e-10 1.238393e-10 1.287407e-10 1.511925e-10 1.567761e-10 1.841059e-10 1.903393e-10 2.243674e-10 2.313432e-10 2.733213e-10 2.814126e-10 3.337207e-10 3.421072e-10 4.075876e-10 4.165462e-10 4.986864e-10 5.067128e-10 6.099308e-10 6.160795e-10 7.477276e-10 7.499478e-10 9.187116e-10 9.133226e-10 1.131411e-09 1.112194e-09 1.396285e-09 1.354425e-09 1.728152e-09 1.649241e-09 2.146679e-09 2.009493e-09 2.678863e-09 2.449203e-09 3.359982e-09 2.985625e-09 4.240619e-09 3.640984e-09 5.391884e-09 4.441268e-09 6.915698e-09 5.418489e-09 8.963212e-09 6.612026e-09 1.176214e-08 8.066195e-09 1.566067e-08 9.830117e-09 2.121450e-08 1.195191e-08 2.933666e-08 1.446085e-08 4.158839e-08 1.731641e-08 6.077510e-08 2.027189e-08 9.225756e-08 2.244199e-08 1.470901e-07 2.076119e-08 2.503045e-07 3.568973e-09 4.646898e-07 -7.975881e-08 9.575451e-07 -4.742908e-07 2.060824e-06 -2.408629e-06 1.470266e-06 -8.202206e-06 -1.263291e-04 -1.230384e-03 
-5.605351e+00 -3.553845e+00 -5.059856e+00 -4.473304e+00 -2.534867e+00 -1.395879e+00 -7.633820e-01 -4.182157e-01 -2.465593e-01 -1.805852e-01 -1.691445e-01 -1.743972e-01 -1.759989e-01 -1.678477e-01 -1.520574e-01 -1.326938e-01 -1.129889e-01 -9.436343e-02 -7.716898e-02 -6.125921e-02 -4.669153e-02 -3.377537e-02 -2.311614e-02 -1.527913e-02 -1.066029e-02 -9.233258e-03 -1.062293e-02 -1.408684e-02 -1.879158e-02 -2.385322e-02 -2.862821e-02 -3.260693e-02 -3.563075e-02 -3.760885e-02 -3.872287e-02 -3.906170e-02 -3.888410e-02 -3.826410e-02 -3.739379e-02 -3.629309e-02 -3.506832e-02 -3.372927e-02 -3.231619e-02 -3.086932e-02 -2.937432e-02 -2.791096e-02 -2.641631e-02 -2.499756e-02 -2.355682e-02 -2.221012e-02 -2.084685e-02 -1.957509e-02 -1.829370e-02 -1.709171e-02 -1.589112e-02 -1.475817e-02 -1.364027e-02 -1.258383e-02 -1.155525e-02 -1.058777e-02 -9.656921e-03 -8.789558e-03 -7.962119e-03 -7.199373e-03 -6.474716e-03 -5.812158e-03 -5.182365e-03 -4.607885e-03 -4.059513e-03 -3.557038e-03 -3.074618e-03 -2.628479e-03 -2.198186e-03 -1.796492e-03 -1.408665e-03 -1.044794e-03 -6.947229e-04 -3.670108e-04 -5.426773e-05 2.354089e-04 5.084166e-04 7.563701e-04 9.859829e-04 1.188254e-03 1.370939e-03 1.524490e-03 1.657931e-03 1.761516e-03 1.845421e-03 1.900178e-03 1.936782e-03 1.946493e-03 1.940676e-03 1.911614e-03 1.870536e-03 1.810842e-03 1.743123e-03 1.661817e-03 1.576449e-03 1.482323e-03 1.387620e-03 1.288336e-03 1.191199e-03 1.092782e-03 9.984165e-04 9.051893e-04 8.172013e-04 7.320228e-04 6.527215e-04 5.773204e-04 5.080399e-04 4.433014e-04 3.846309e-04 3.307753e-04 2.826899e-04 2.393725e-04 2.013160e-04 1.677091e-04 1.386870e-04 1.135913e-04 9.230184e-05 7.429430e-05 5.928910e-05 4.688757e-05 3.673142e-05 2.854088e-05 2.193928e-05 1.675479e-05 1.263110e-05 9.487873e-06 7.009141e-06 5.185862e-06 3.748750e-06 2.739043e-06 1.932272e-06 1.400901e-06 9.595277e-07 6.964520e-07 4.586078e-07 3.389300e-07 2.105143e-07 1.635995e-07 9.238761e-08 8.019656e-08 3.841417e-08 4.144453e-08 1.486317e-08 2.362171e-08 5.162390e-09 1.530255e-08 1.498297e-09 1.119329e-08 3.308292e-10 8.925872e-09 1.202122e-10 7.475009e-09 2.269118e-10 6.408161e-09 4.008857e-10 5.546372e-09 5.544210e-10 4.813857e-09 6.625632e-10 4.175974e-09 7.247279e-10 3.616396e-09 7.486335e-10 3.125389e-09 7.442995e-10 2.695026e-09 7.193461e-10 2.318860e-09 6.802746e-10 1.991215e-09 6.327805e-10 1.706109e-09 5.804889e-10 1.459058e-09 5.269702e-10 1.245882e-09 4.738798e-10 1.061915e-09 4.231336e-10 9.041115e-10 3.752586e-10 7.682711e-10 3.308274e-10 6.521804e-10 2.905734e-10 5.533638e-10 2.542792e-10 4.688759e-10 2.210841e-10 3.964218e-10 1.919097e-10 3.351772e-10 1.659167e-10 2.831707e-10 1.433715e-10 2.391581e-10 1.234219e-10 2.015009e-10 1.058030e-10 1.696325e-10 9.071096e-11 1.428912e-10 7.760725e-11 1.204134e-10 6.652054e-11 1.012191e-10 5.673577e-11 8.515239e-11 4.831347e-11 7.150286e-11 4.108654e-11 5.983214e-11 3.430483e-11 4.962993e-11 2.889789e-11 4.157782e-11 2.435604e-11 3.451698e-11 2.024905e-11 2.867591e-11 1.679545e-11 2.351091e-11 1.333618e-11 1.866264e-11 1.022412e-11 1.453593e-11 7.748705e-12 1.119448e-11 5.300530e-12 7.927170e-12 2.970424e-12 4.837612e-12 3.074282e-13 2.049679e-12 -1.938953e-12 -7.363591e-13 -4.344850e-12 -4.113095e-12 -7.426119e-12 -7.564793e-12 -1.073156e-11 -1.107712e-11 -1.420339e-11 -1.500720e-11 -1.834681e-11 -1.958895e-11 -2.312503e-11 -2.487012e-11 -2.889612e-11 -3.102686e-11 -3.566025e-11 -3.857161e-11 -4.387856e-11 -4.740889e-11 -5.373533e-11 -5.837689e-11 -6.576553e-11 -7.115748e-11 -8.021521e-11 -8.709415e-11 -9.778103e-11 -1.061594e-10 -1.191201e-10 -1.295460e-10 -1.453357e-10 -1.578933e-10 -1.766757e-10 -1.920426e-10 -2.149096e-10 -2.339433e-10 -2.619468e-10 -2.848337e-10 -3.187636e-10 -3.463734e-10 -3.876454e-10 -4.217787e-10 -4.720557e-10 -5.133267e-10 -5.742406e-10 -6.241016e-10 -6.977920e-10 -7.586904e-10 -8.485600e-10 -9.226597e-10 -1.031940e-09 -1.122140e-09 -1.255132e-09 -1.364814e-09 -1.526648e-09 -1.660237e-09 -1.857130e-09 -2.020046e-09 -2.258916e-09 -2.456539e-09 -2.747728e-09 -2.988368e-09 -3.342667e-09 -3.635437e-09 -4.066547e-09 -4.423079e-09 -4.947881e-09 -5.381712e-09 -6.020338e-09 -6.548496e-09 -7.326381e-09 -7.970053e-09 -8.917053e-09 -9.700917e-09 -1.085472e-08 -1.181027e-08 -1.321661e-08 -1.438157e-08 -1.609604e-08 -1.751750e-08 -1.960928e-08 -2.134483e-08 -2.389810e-08 -2.601878e-08 -2.913844e-08 -3.173233e-08 -3.554739e-08 -3.872404e-08 -4.339504e-08 -4.729045e-08 -5.301815e-08 -5.780430e-08 -6.484013e-08 -7.073316e-08 -7.939432e-08 -8.666898e-08 -9.735813e-08 -1.063673e-07 -1.196019e-07 -1.308024e-07 -1.472512e-07 -1.612407e-07 -1.817800e-07 -1.993520e-07 -2.251435e-07 -2.473653e-07 -2.799742e-07 -3.083082e-07 -3.498803e-07 -3.863666e-07 -4.399004e-07 -4.874469e-07 -5.572292e-07 -6.200809e-07 -7.123977e-07 -7.969198e-07 -9.212582e-07 -1.037286e-06 -1.208447e-06 -1.371707e-06 -1.613673e-06 -1.850303e-06 -2.203694e-06 -2.559118e-06 -3.096422e-06 -3.653828e-06 -4.512832e-06 -5.434371e-06 -6.898236e-06 -8.525072e-06 -1.123631e-05 -1.435855e-05 -1.997426e-05 -2.666174e-05 -4.021789e-05 -5.682279e-05 -9.702405e-05 -1.472388e-04 -3.012975e-04 -4.953943e-04 -1.281581e-03 -2.264646e-03 -7.639353e-03 -1.527630e-02 6.267775e-03 -4.352724e+00 
-3.440993e-02 -1.117536e-02 1.756336e-01 -1.270983e-01 -8.910584e-01 -8.395663e-01 -6.144678e-01 -4.250255e-01 -3.132811e-01 -2.689676e-01 -2.627990e-01 -2.666305e-01 -2.640639e-01 -2.509216e-01 -2.300786e-01 -2.060163e-01 -1.820647e-01 -1.596793e-01 -1.391456e-01 -1.202684e-01 -1.030302e-01 -8.769665e-02 -7.482081e-02 -6.494275e-02 -5.842843e-02 -5.524223e-02 -5.499703e-02 -5.694848e-02 -6.026197e-02 -6.404708e-02 -6.766466e-02 -7.058528e-02 -7.266150e-02 -7.376705e-02 -7.410641e-02 -7.371937e-02 -7.290144e-02 -7.166829e-02 -7.025835e-02 -6.863138e-02 -6.693907e-02 -6.514008e-02 -6.330590e-02 -6.144610e-02 -5.955215e-02 -5.770107e-02 -5.580549e-02 -5.399713e-02 -5.212768e-02 -5.035591e-02 -4.850720e-02 -4.673685e-02 -4.488177e-02 -4.307020e-02 -4.117727e-02 -3.929393e-02 -3.734215e-02 -3.537932e-02 -3.336689e-02 -3.134117e-02 -2.928750e-02 -2.723487e-02 -2.517695e-02 -2.314453e-02 -2.112949e-02 -1.916701e-02 -1.724343e-02 -1.539599e-02 -1.360639e-02 -1.190966e-02 -1.028564e-02 -8.763567e-03 -7.323964e-03 -5.988735e-03 -4.740364e-03 -3.593975e-03 -2.534020e-03 -1.570787e-03 -6.899943e-04 1.005336e-04 8.146354e-04 1.444944e-03 2.005481e-03 2.488138e-03 2.907483e-03 3.254356e-03 3.544028e-03 3.766675e-03 3.938262e-03 4.049045e-03 4.115509e-03 4.128733e-03 4.105360e-03 4.037769e-03 3.942218e-03 3.812488e-03 3.663803e-03 3.491150e-03 3.308104e-03 3.110525e-03 2.909924e-03 2.702741e-03 2.498275e-03 2.293392e-03 2.095292e-03 1.901236e-03 1.716604e-03 1.539076e-03 1.372532e-03 1.215080e-03 1.069377e-03 9.339159e-04 8.103467e-04 6.974568e-04 5.960551e-04 5.051318e-04 4.248041e-04 3.541999e-04 2.929029e-04 2.401534e-04 1.951694e-04 1.573117e-04 1.255953e-04 9.952311e-05 7.804675e-05 6.082788e-05 4.685732e-05 3.595627e-05 2.721693e-05 2.060333e-05 1.533603e-05 1.149265e-05 8.423893e-06 6.286592e-06 4.548907e-06 3.414053e-06 2.449053e-06 1.876435e-06 1.343207e-06 1.071517e-06 7.719592e-07 6.537036e-07 4.778573e-07 4.337649e-07 3.230626e-07 3.125532e-07 2.368625e-07 2.401786e-07 1.843581e-07 1.924013e-07 1.488764e-07 1.577413e-07 1.226193e-07 1.308012e-07 1.019375e-07 1.089818e-07 8.506092e-08 9.093716e-08 7.105037e-08 7.587916e-08 5.933607e-08 6.327479e-08 4.952001e-08 5.272041e-08 4.129402e-08 4.388938e-08 3.440664e-08 3.650956e-08 2.864720e-08 3.035022e-08 2.383666e-08 2.521497e-08 1.982226e-08 2.093783e-08 1.647589e-08 1.737805e-08 1.368781e-08 1.441809e-08 1.136781e-08 1.195825e-08 9.437456e-09 9.914853e-09 7.832678e-09 8.218860e-09 6.499179e-09 6.811410e-09 5.391439e-09 5.643818e-09 4.471591e-09 4.675537e-09 3.708140e-09 3.872929e-09 3.074265e-09 3.207508e-09 2.548541e-09 2.656005e-09 2.112172e-09 2.199075e-09 1.750554e-09 1.820874e-09 1.450819e-09 1.507267e-09 1.201822e-09 1.247495e-09 9.955972e-10 1.032409e-09 8.247117e-10 8.544617e-10 6.829998e-10 7.070682e-10 5.657509e-10 5.850766e-10 4.683879e-10 4.840323e-10 3.877484e-10 4.000201e-10 3.203176e-10 3.302643e-10 2.648382e-10 2.729825e-10 2.188823e-10 2.251346e-10 1.803823e-10 1.854403e-10 1.483128e-10 1.524267e-10 1.217183e-10 1.244148e-10 9.853961e-11 1.008855e-10 7.969187e-11 8.108169e-11 6.351684e-11 6.448400e-11 4.945981e-11 5.001072e-11 3.715463e-11 3.735193e-11 2.637250e-11 2.595873e-11 1.620251e-11 1.499897e-11 6.448175e-12 4.711846e-12 -3.133375e-12 -5.289991e-12 -1.280659e-11 -1.559446e-11 -2.286781e-11 -2.642295e-11 -3.380591e-11 -3.851982e-11 -4.639039e-11 -5.155953e-11 -6.025864e-11 -6.714265e-11 -7.683854e-11 -8.511212e-11 -9.610692e-11 -1.063551e-10 -1.194135e-10 -1.317273e-10 -1.470134e-10 -1.624385e-10 -1.806709e-10 -1.989100e-10 -2.207393e-10 -2.433854e-10 -2.698854e-10 -2.973171e-10 -3.288969e-10 -3.623441e-10 -4.007160e-10 -4.412805e-10 -4.882567e-10 -5.378948e-10 -5.945380e-10 -6.545672e-10 -7.234974e-10 -7.968656e-10 -8.807406e-10 -9.697354e-10 -1.071448e-09 -1.179628e-09 -1.303085e-09 -1.434685e-09 -1.584774e-09 -1.744921e-09 -1.927451e-09 -2.122006e-09 -2.344251e-09 -2.581244e-09 -2.851565e-09 -3.140114e-09 -3.468938e-09 -3.820068e-09 -4.219700e-09 -4.646333e-09 -5.132736e-09 -5.652286e-09 -6.243934e-09 -6.876266e-09 -7.596354e-09 -8.365980e-09 -9.242565e-09 -1.017913e-08 -1.124591e-08 -1.238584e-08 -1.368496e-08 -1.507346e-08 -1.665493e-08 -1.834632e-08 -2.027315e-08 -2.233365e-08 -2.468197e-08 -2.719343e-08 -3.005629e-08 -3.311931e-08 -3.661154e-08 -4.034888e-08 -4.461121e-08 -4.917465e-08 -5.438169e-08 -5.995842e-08 -6.632519e-08 -7.314724e-08 -8.094089e-08 -8.929670e-08 -9.885075e-08 -1.091005e-07 -1.208328e-07 -1.334296e-07 -1.478659e-07 -1.633802e-07 -1.811889e-07 -2.003491e-07 -2.223850e-07 -2.461252e-07 -2.734929e-07 -3.030244e-07 -3.371660e-07 -3.740798e-07 -4.169022e-07 -4.633120e-07 -5.173746e-07 -5.761367e-07 -6.449310e-07 -7.199718e-07 -8.083510e-07 -9.051732e-07 -1.020025e-06 -1.146521e-06 -1.297856e-06 -1.465628e-06 -1.668386e-06 -1.894991e-06 -2.172145e-06 -2.485015e-06 -2.873104e-06 -3.316700e-06 -3.876117e-06 -4.525587e-06 -5.360651e-06 -6.349320e-06 -7.649682e-06 -9.227893e-06 -1.135970e-05 -1.403005e-05 -1.775258e-05 -2.260779e-05 -2.963685e-05 -3.928787e-05 -5.392575e-05 -7.532693e-05 -1.098194e-04 -1.636899e-04 -2.588964e-04 -4.112848e-04 -7.370691e-04 -1.151675e-03 -2.697651e-03 -2.988800e-03 7.054092e-03 -1.120764e-01 
-7.613812e-01 -4.786507e-03 -3.924492e-01 -6.261619e-01 -6.921811e-01 -5.593121e-01 -3.925224e-01 -2.734458e-01 -2.187380e-01 -2.158561e-01 -2.387241e-01 -2.624016e-01 -2.731718e-01 -2.689044e-01 -2.538781e-01 -2.336619e-01 -2.122102e-01 -1.914908e-01 -1.720113e-01 -1.538093e-01 -1.369203e-01 -1.217271e-01 -1.087782e-01 -9.868990e-02 -9.181648e-02 -8.818937e-02 -8.741892e-02 -8.882065e-02 -9.156406e-02 -9.479917e-02 -9.789319e-02 -1.003278e-01 -1.019684e-01 -1.026690e-01 -1.026629e-01 -1.019432e-01 -1.008550e-01 -9.934768e-02 -9.772362e-02 -9.586964e-02 -9.399948e-02 -9.201027e-02 -9.001311e-02 -8.798664e-02 -8.592234e-02 -8.390924e-02 -8.181381e-02 -7.982191e-02 -7.770055e-02 -7.569051e-02 -7.351341e-02 -7.141257e-02 -6.912595e-02 -6.685546e-02 -6.440142e-02 -6.190283e-02 -5.923975e-02 -5.649212e-02 -5.361026e-02 -5.063589e-02 -4.756487e-02 -4.442523e-02 -4.123187e-02 -3.801657e-02 -3.479407e-02 -3.160609e-02 -2.845791e-02 -2.539825e-02 -2.242151e-02 -1.957623e-02 -1.684871e-02 -1.428072e-02 -1.185405e-02 -9.600249e-03 -7.499328e-03 -5.572604e-03 -3.799640e-03 -2.194028e-03 -7.352255e-04 5.674729e-04 1.734772e-03 2.758631e-03 3.660045e-03 4.430338e-03 5.090911e-03 5.631877e-03 6.075143e-03 6.410067e-03 6.659094e-03 6.811794e-03 6.891013e-03 6.887490e-03 6.824074e-03 6.693226e-03 6.517110e-03 6.289946e-03 6.032341e-03 5.739900e-03 5.430844e-03 5.101635e-03 4.767551e-03 4.425496e-03 4.087642e-03 3.751148e-03 3.425285e-03 3.107475e-03 2.804515e-03 2.514178e-03 2.241248e-03 1.983897e-03 1.745281e-03 1.523932e-03 1.321650e-03 1.137219e-03 9.712930e-04 8.227912e-04 6.914146e-04 5.761490e-04 4.759617e-04 3.898974e-04 3.164329e-04 2.547151e-04 2.029718e-04 1.605120e-04 1.255217e-04 9.751915e-05 7.479943e-05 5.710619e-05 4.293161e-05 3.222880e-05 2.372057e-05 1.752999e-05 1.260566e-05 9.190422e-06 6.432341e-06 4.644678e-06 3.140781e-06 2.263061e-06 1.456769e-06 1.063287e-06 6.313869e-07 4.820873e-07 2.453814e-07 2.114669e-07 7.475098e-08 9.052414e-08 5.086446e-09 3.881232e-08 -1.953503e-08 1.779195e-08 -2.527451e-08 9.759158e-09 -2.382395e-08 6.919080e-09 -2.014493e-08 5.991376e-09 -1.619968e-08 5.668844e-09 -1.267514e-08 5.470120e-09 -9.745025e-09 5.241428e-09 -7.392059e-09 4.951380e-09 -5.539418e-09 4.608954e-09 -4.098817e-09 4.235405e-09 -2.988741e-09 3.849703e-09 -2.140530e-09 3.466776e-09 -1.498069e-09 3.097130e-09 -1.016021e-09 2.748173e-09 -6.583830e-10 2.424445e-09 -3.953993e-10 2.128532e-09 -2.057810e-10 1.859895e-09 -7.131350e-11 1.619209e-09 2.161909e-11 1.405088e-09 8.353034e-11 1.215412e-09 1.224958e-10 1.048589e-09 1.451511e-10 9.026105e-10 1.554767e-10 7.750237e-10 1.575386e-10 6.641686e-10 1.537202e-10 5.681783e-10 1.464954e-10 4.856122e-10 1.369230e-10 4.137994e-10 1.257061e-10 3.523363e-10 1.143321e-10 2.993724e-10 1.028791e-10 2.543768e-10 9.177376e-11 2.155382e-10 8.114901e-11 1.825396e-10 7.153365e-11 1.544883e-10 6.255879e-11 1.299946e-10 5.368056e-11 1.087704e-10 4.588549e-11 9.106570e-11 3.920260e-11 7.600190e-11 3.293816e-11 6.267342e-11 2.691939e-11 5.115695e-11 2.131036e-11 4.075330e-11 1.563028e-11 3.120159e-11 1.037262e-11 2.284975e-11 5.223792e-12 1.515825e-11 -8.633094e-14 7.494686e-12 -5.525772e-12 1.295556e-13 -1.133718e-11 -7.365131e-12 -1.782550e-11 -1.584226e-11 -2.575717e-11 -2.501975e-11 -3.462652e-11 -3.474968e-11 -4.425142e-11 -4.629316e-11 -5.617634e-11 -5.962661e-11 -6.998828e-11 -7.487273e-11 -8.637624e-11 -9.310869e-11 -1.062981e-10 -1.151363e-10 -1.303706e-10 -1.416194e-10 -1.593508e-10 -1.732719e-10 -1.944825e-10 -2.119016e-10 -2.370640e-10 -2.588391e-10 -2.892627e-10 -3.155149e-10 -3.520325e-10 -3.844655e-10 -4.287348e-10 -4.677658e-10 -5.214743e-10 -5.693569e-10 -6.344243e-10 -6.926433e-10 -7.718392e-10 -8.429668e-10 -9.389456e-10 -1.025673e-09 -1.142428e-09 -1.247873e-09 -1.389720e-09 -1.517977e-09 -1.690449e-09 -1.846310e-09 -2.055680e-09 -2.245252e-09 -2.500019e-09 -2.730545e-09 -3.040579e-09 -3.320792e-09 -3.697894e-09 -4.039082e-09 -4.497770e-09 -4.913126e-09 -5.471376e-09 -5.976422e-09 -6.655176e-09 -7.269624e-09 -8.095365e-09 -8.843033e-09 -9.847631e-09 -1.075820e-08 -1.198067e-08 -1.308848e-08 -1.457667e-08 -1.592530e-08 -1.773654e-08 -1.937812e-08 -2.158346e-08 -2.358295e-08 -2.626848e-08 -2.870452e-08 -3.197585e-08 -3.494435e-08 -3.893079e-08 -4.254994e-08 -4.741004e-08 -5.182500e-08 -5.775374e-08 -6.314207e-08 -7.037868e-08 -7.696117e-08 -8.580136e-08 -9.384904e-08 -1.046584e-07 -1.145098e-07 -1.277424e-07 -1.398175e-07 -1.560397e-07 -1.708652e-07 -1.907867e-07 -2.090268e-07 -2.335416e-07 -2.560367e-07 -2.862810e-07 -3.141072e-07 -3.515338e-07 -3.860792e-07 -4.325673e-07 -4.756410e-07 -5.336443e-07 -5.876364e-07 -6.604030e-07 -7.285122e-07 -8.204046e-07 -9.069846e-07 -1.023960e-06 -1.135043e-06 -1.285395e-06 -1.429509e-06 -1.625029e-06 -1.814511e-06 -2.072379e-06 -2.325529e-06 -2.671467e-06 -3.016216e-06 -3.489939e-06 -3.970289e-06 -4.635291e-06 -5.323077e-06 -6.284981e-06 -7.302294e-06 -8.744972e-06 -1.030904e-05 -1.256975e-05 -1.508781e-05 -1.882350e-05 -2.310615e-05 -2.968689e-05 -3.746093e-05 -4.996748e-05 -6.519676e-05 -9.110588e-05 -1.236057e-04 -1.822165e-04 -2.578012e-04 -3.992098e-04 -5.855296e-04 -9.174920e-04 -1.347840e-03 -1.898977e-03 -2.704932e-03 1.287725e-02 -6.462983e-01 
-1.697049e-02 -1.578681e-04 1.120083e-01 -1.168435e-01 -4.071096e-01 -3.482918e-01 -2.171430e-01 -1.263166e-01 -9.837786e-02 -1.204123e-01 -1.650535e-01 -2.070569e-01 -2.328275e-01 -2.407028e-01 -2.354055e-01 -2.229820e-01 -2.077629e-01 -1.920735e-01 -1.766642e-01 -1.617945e-01 -1.476184e-01 -1.346408e-01 -1.234562e-01 -1.147607e-01 -1.089342e-01 -1.060834e-01 -1.058491e-01 -1.076212e-01 -1.106018e-01 -1.139966e-01 -1.172010e-01 -1.197175e-01 -1.214408e-01 -1.222063e-01 -1.222926e-01 -1.216371e-01 -1.206572e-01 -1.192159e-01 -1.177125e-01 -1.159288e-01 -1.141843e-01 -1.122723e-01 -1.103941e-01 -1.084505e-01 -1.064838e-01 -1.045506e-01 -1.025150e-01 -1.005808e-01 -9.846330e-02 -9.645880e-02 -9.420765e-02 -9.202198e-02 -8.955668e-02 -8.707137e-02 -8.430450e-02 -8.142816e-02 -7.829201e-02 -7.498499e-02 -7.145532e-02 -6.774019e-02 -6.385060e-02 -5.980927e-02 -5.565146e-02 -5.141162e-02 -4.712152e-02 -4.283604e-02 -3.857023e-02 -3.439390e-02 -3.030385e-02 -2.637281e-02 -2.258401e-02 -1.900204e-02 -1.560254e-02 -1.243580e-02 -9.474406e-03 -6.753542e-03 -4.245091e-03 -1.972111e-03 9.344749e-05 1.936138e-03 3.583919e-03 5.024773e-03 6.286755e-03 7.358549e-03 8.268528e-03 9.005060e-03 9.597032e-03 1.003280e-02 1.034182e-02 1.051338e-02 1.057734e-02 1.052483e-02 1.038554e-02 1.015291e-02 9.855502e-03 9.488888e-03 9.079395e-03 8.624052e-03 8.145894e-03 7.642664e-03 7.133429e-03 6.616103e-03 6.105651e-03 5.599959e-03 5.110237e-03 4.634423e-03 4.180576e-03 3.746857e-03 3.338795e-03 2.954873e-03 2.598580e-03 2.268676e-03 1.966943e-03 1.692283e-03 1.445010e-03 1.224029e-03 1.028426e-03 8.570416e-04 7.080155e-04 5.801507e-04 4.709739e-04 3.793462e-04 3.025129e-04 2.395096e-04 1.875859e-04 1.460424e-04 1.123379e-04 8.607744e-05 6.504417e-05 4.913476e-05 3.649419e-05 2.726013e-05 1.992297e-05 1.479267e-05 1.065951e-05 7.936469e-06 5.658726e-06 4.283835e-06 3.039744e-06 2.385557e-06 1.698477e-06 1.411493e-06 1.017361e-06 9.079123e-07 6.664076e-07 6.375426e-07 4.767081e-07 4.812785e-07 3.651508e-07 3.814513e-07 2.922092e-07 3.109029e-07 2.395351e-07 2.569996e-07 1.986621e-07 2.137670e-07 1.655745e-07 1.781988e-07 1.382152e-07 1.485986e-07 1.153849e-07 1.238596e-07 9.627294e-08 1.031642e-07 8.026665e-08 8.586019e-08 6.687039e-08 7.140700e-08 5.567073e-08 5.934826e-08 4.631743e-08 4.929799e-08 3.851447e-08 4.092941e-08 3.201011e-08 3.396680e-08 2.659306e-08 2.817812e-08 2.208448e-08 2.336858e-08 1.833409e-08 1.937418e-08 1.521625e-08 1.605880e-08 1.262549e-08 1.330795e-08 1.047354e-08 1.102621e-08 8.686809e-09 9.134347e-09 7.203641e-09 7.566112e-09 5.972612e-09 6.265880e-09 4.951122e-09 5.188629e-09 4.103922e-09 4.296094e-09 3.401394e-09 3.557114e-09 2.818724e-09 2.944376e-09 2.335189e-09 2.436927e-09 1.934733e-09 2.017001e-09 1.602820e-09 1.669227e-09 1.327551e-09 1.381072e-09 1.099163e-09 1.142554e-09 9.100373e-10 9.451264e-10 7.532365e-10 7.812080e-10 6.226414e-10 6.450189e-10 5.141341e-10 5.324561e-10 4.246641e-10 4.392019e-10 3.502433e-10 3.615497e-10 2.878603e-10 2.968775e-10 2.354946e-10 2.424124e-10 1.917383e-10 1.966656e-10 1.543324e-10 1.581813e-10 1.229049e-10 1.253654e-10 9.576802e-11 9.701561e-11 7.180165e-11 7.205910e-11 5.037890e-11 4.966717e-11 3.086870e-11 2.880943e-11 1.174231e-11 8.774966e-12 -6.807118e-12 -1.076247e-11 -2.542073e-11 -3.110940e-11 -4.557249e-11 -5.262019e-11 -6.724677e-11 -7.574788e-11 -9.111591e-11 -1.020931e-10 -1.189466e-10 -1.322910e-10 -1.512395e-10 -1.677874e-10 -1.894926e-10 -2.096367e-10 -2.349604e-10 -2.592616e-10 -2.894918e-10 -3.193620e-10 -3.551711e-10 -3.916553e-10 -4.348503e-10 -4.793490e-10 -5.310417e-10 -5.847661e-10 -6.473464e-10 -7.129616e-10 -7.887311e-10 -8.685494e-10 -9.603823e-10 -1.057359e-09 -1.168917e-09 -1.287256e-09 -1.422834e-09 -1.566854e-09 -1.731400e-09 -1.906496e-09 -2.106473e-09 -2.319063e-09 -2.562076e-09 -2.820680e-09 -3.116451e-09 -3.431021e-09 -3.790645e-09 -4.173172e-09 -4.610328e-09 -5.075854e-09 -5.607548e-09 -6.174370e-09 -6.821522e-09 -7.510644e-09 -8.297509e-09 -9.135856e-09 -1.009339e-08 -1.111328e-08 -1.227843e-08 -1.351989e-08 -1.493761e-08 -1.644813e-08 -1.817354e-08 -2.001215e-08 -2.211222e-08 -2.435064e-08 -2.690730e-08 -2.963272e-08 -3.274634e-08 -3.606564e-08 -3.985791e-08 -4.390155e-08 -4.852266e-08 -5.345104e-08 -5.908374e-08 -6.509234e-08 -7.196297e-08 -7.929259e-08 -8.767712e-08 -9.662434e-08 -1.068647e-07 -1.177945e-07 -1.303124e-07 -1.436779e-07 -1.589969e-07 -1.753584e-07 -1.941308e-07 -2.141880e-07 -2.372293e-07 -2.618596e-07 -2.901964e-07 -3.205038e-07 -3.554362e-07 -3.928225e-07 -4.360098e-07 -4.822687e-07 -5.358491e-07 -5.932963e-07 -6.600510e-07 -7.317100e-07 -8.153027e-07 -9.051704e-07 -1.010492e-06 -1.123931e-06 -1.257613e-06 -1.401934e-06 -1.573126e-06 -1.758484e-06 -1.980055e-06 -2.220854e-06 -2.511304e-06 -2.828451e-06 -3.215025e-06 -3.639671e-06 -4.163569e-06 -4.743489e-06 -5.468904e-06 -6.279753e-06 -7.310034e-06 -8.475976e-06 -9.983693e-06 -1.171668e-05 -1.400187e-05 -1.667966e-05 -2.028760e-05 -2.461518e-05 -3.058529e-05 -3.794099e-05 -4.835396e-05 -6.154280e-05 -8.075396e-05 -1.055766e-04 -1.429459e-04 -1.907023e-04 -2.657168e-04 -3.516544e-04 -4.958280e-04 -5.973410e-04 -7.934475e-04 -8.978423e-04 4.976924e-03 -1.660047e-02 