# vtk DataFile Version 2.0
Comment goes here
ASCII

DATASET STRUCTURED_POINTS
FIELD FieldData 1
TIME 1 1 double
1.57500000
DIMENSIONS    384   64   1

ORIGIN    0.000   0.000   0.000
SPACING   0.078125 0.078125   1.000

POINT_DATA   24576
SCALARS Omega double
LOOKUP_TABLE default

-2.436971e-04 7.312475e-03 4.414622e-02 5.007046e-02 -1.323474e-02 -1.204649e-01 -2.078750e-01 -2.270369e-01 -1.784368e-01 -9.774813e-02 -2.420103e-02 1.966911e-02 3.149126e-02 2.138020e-02 2.730824e-03 -1.427476e-02 -2.458663e-02 -2.748817e-02 -2.450807e-02 -1.779757e-02 -9.120586e-03 2.905446e-04 9.665818e-03 1.838835e-02 2.592470e-02 3.173214e-02 3.540006e-02 3.668034e-02 3.561740e-02 3.249393e-02 2.783116e-02 2.223533e-02 1.634204e-02 1.067054e-02 5.620669e-03 1.401528e-03 -1.897995e-03 -4.325381e-03 -5.971640e-03 -6.975840e-03 -7.462812e-03 -7.547986e-03 -7.327121e-03 -6.861733e-03 -6.221612e-03 -5.427145e-03 -4.541237e-03 -3.559412e-03 -2.546791e-03 -1.482883e-03 -4.340374e-04 6.304490e-04 1.646875e-03 2.649578e-03 3.580524e-03 4.471045e-03 5.270927e-03 6.004123e-03 6.630336e-03 7.165243e-03 7.580561e-03 7.885755e-03 8.066028e-03 8.128106e-03 8.070739e-03 7.901112e-03 7.629733e-03 7.265986e-03 6.828617e-03 6.329154e-03 5.790023e-03 5.223434e-03 4.650933e-03 4.083396e-03 3.537922e-03 3.022371e-03 2.547483e-03 2.117318e-03 1.736116e-03 1.404359e-03 1.121011e-03 8.839124e-04 6.886617e-04 5.316662e-04 4.070990e-04 3.110123e-04 2.376779e-04 1.835276e-04 1.438521e-04 1.158094e-04 9.606104e-05 8.253068e-05 7.319730e-05 6.661727e-05 6.182290e-05 5.782122e-05 5.437972e-05 5.079890e-05 4.729812e-05 4.336153e-05 3.944244e-05 3.513868e-05 3.098355e-05 2.664377e-05 2.263188e-05 1.865465e-05 1.514616e-05 1.183719e-05 9.060176e-06 6.565179e-06 4.585161e-06 2.893115e-06 1.639859e-06 6.285472e-07 -4.929090e-08 -5.541978e-07 -8.327104e-07 -1.006897e-06 -1.045441e-06 -1.034268e-06 -9.541992e-07 -8.606546e-07 -7.412752e-07 -6.280841e-07 -5.131389e-07 -4.120234e-07 -3.202162e-07 -2.426892e-07 -1.778075e-07 -1.242818e-07 -8.286353e-08 -4.895918e-08 -2.513836e-08 -5.358706e-09 6.582674e-09 1.710029e-08 2.171065e-08 2.662139e-08 2.710243e-08 2.887547e-08 2.728409e-08 2.745331e-08 2.500873e-08 2.445781e-08 2.182498e-08 2.102547e-08 1.853157e-08 1.771300e-08 1.549389e-08 1.475283e-08 1.284386e-08 1.221054e-08 1.059904e-08 1.007315e-08 8.727301e-09 8.296758e-09 7.179358e-09 6.828682e-09 5.903798e-09 5.618446e-09 4.854590e-09 4.622990e-09 3.993008e-09 3.804524e-09 3.284951e-09 3.130952e-09 2.702579e-09 2.576550e-09 2.223550e-09 2.120596e-09 1.829878e-09 1.745755e-09 1.506353e-09 1.437259e-09 1.240212e-09 1.183628e-09 1.021171e-09 9.745010e-10 8.405852e-10 8.022625e-10 6.923913e-10 6.607769e-10 5.701210e-10 5.441547e-10 4.694755e-10 4.479206e-10 3.865527e-10 3.687351e-10 3.180806e-10 3.034967e-10 2.619582e-10 2.500698e-10 2.157311e-10 2.057936e-10 1.777234e-10 1.692612e-10 1.458746e-10 1.391894e-10 1.202477e-10 1.146638e-10 9.892629e-11 9.449722e-11 8.139770e-11 7.767251e-11 6.690796e-11 6.379709e-11 5.495130e-11 5.265219e-11 4.523635e-11 4.325873e-11 3.731140e-11 3.577441e-11 3.078335e-11 2.937973e-11 2.544163e-11 2.424094e-11 2.106072e-11 2.003633e-11 1.725174e-11 1.630376e-11 1.401984e-11 1.337955e-11 1.177363e-11 1.126776e-11 9.753058e-12 9.471209e-12 8.171686e-12 7.755988e-12 6.764189e-12 6.550612e-12 5.809812e-12 5.432336e-12 4.700299e-12 4.500755e-12 3.930367e-12 3.668118e-12 3.168132e-12 3.168902e-12 2.808420e-12 2.631495e-12 2.465583e-12 2.325843e-12 2.028303e-12 1.774995e-12 1.486751e-12 1.372650e-12 1.278030e-12 1.080291e-12 8.132458e-13 7.916038e-13 6.360542e-13 4.917548e-13 4.667230e-13 5.125678e-13 5.281405e-13 6.971164e-13 5.375922e-13 7.047104e-13 8.176052e-13 7.285209e-13 7.012890e-13 5.907631e-13 6.235443e-13 6.481237e-13 7.412066e-13 6.935378e-13 7.711720e-13 7.534047e-13 8.387809e-13 8.589611e-13 1.049627e-12 1.131795e-12 1.133878e-12 1.200358e-12 1.112429e-12 9.340010e-13 1.129741e-12 1.285054e-12 1.536208e-12 1.242554e-12 1.555793e-12 1.352488e-12 1.470328e-12 1.415275e-12 1.578426e-12 1.413292e-12 2.028059e-12 1.922521e-12 2.656046e-12 2.649351e-12 3.525898e-12 3.345372e-12 4.312765e-12 4.274810e-12 5.560219e-12 4.967034e-12 6.201928e-12 5.962490e-12 7.385048e-12 7.036978e-12 9.377210e-12 8.903955e-12 1.149830e-11 1.108331e-11 1.406100e-11 1.321873e-11 1.705471e-11 1.607851e-11 2.085520e-11 1.959396e-11 2.513059e-11 2.355690e-11 3.061279e-11 2.894292e-11 3.744544e-11 3.530289e-11 4.605127e-11 4.306501e-11 5.610542e-11 5.219012e-11 6.824411e-11 6.314312e-11 8.297905e-11 7.640878e-11 1.012022e-10 9.233502e-11 1.231981e-10 1.115948e-10 1.507102e-10 1.352352e-10 1.847247e-10 1.636611e-10 2.263121e-10 1.975464e-10 2.781215e-10 2.382006e-10 3.426602e-10 2.874151e-10 4.240883e-10 3.463372e-10 5.263744e-10 4.153332e-10 6.555191e-10 4.960682e-10 8.199628e-10 5.896219e-10 1.032072e-09 6.959005e-10 1.308315e-09 8.134637e-10 1.672272e-09 9.382282e-10 2.157987e-09 1.059485e-09 2.817824e-09 1.157832e-09 3.731594e-09 1.195304e-09 5.024282e-09 1.098406e-09 6.899112e-09 7.265484e-10 9.698062e-09 -1.963872e-10 1.402225e-08 -2.236825e-09 2.098324e-08 -6.625592e-09 3.277038e-08 -1.627010e-08 5.406604e-08 -3.883911e-08 9.601220e-08 -9.760855e-08 1.889265e-07 -2.754282e-07 4.282952e-07 -9.158000e-07 1.144748e-06 -3.610102e-06 3.224294e-06 -1.614934e-05 1.500935e-05 -8.884613e-04 
-4.477643e+00 -2.821613e+00 -3.929480e+00 -3.167451e+00 -1.794429e+00 -1.189463e+00 -8.967548e-01 -6.950896e-01 -5.118302e-01 -3.473179e-01 -2.210577e-01 -1.429167e-01 -1.075015e-01 -1.002472e-01 -1.054129e-01 -1.115963e-01 -1.130526e-01 -1.086347e-01 -9.954130e-02 -8.768285e-02 -7.461426e-02 -6.141715e-02 -4.873102e-02 -3.708615e-02 -2.694090e-02 -1.879196e-02 -1.300695e-02 -9.808551e-03 -9.125678e-03 -1.066002e-02 -1.387291e-02 -1.814747e-02 -2.283636e-02 -2.741138e-02 -3.146397e-02 -3.477545e-02 -3.724964e-02 -3.892342e-02 -3.988178e-02 -4.025311e-02 -4.015780e-02 -3.970143e-02 -3.897677e-02 -3.803635e-02 -3.694797e-02 -3.572314e-02 -3.442344e-02 -3.303468e-02 -3.162100e-02 -3.015074e-02 -2.868927e-02 -2.719318e-02 -2.572479e-02 -2.423633e-02 -2.278388e-02 -2.132337e-02 -1.990287e-02 -1.848824e-02 -1.711832e-02 -1.577152e-02 -1.447651e-02 -1.322332e-02 -1.202993e-02 -1.089479e-02 -9.825459e-03 -8.824884e-03 -7.891516e-03 -7.029520e-03 -6.230540e-03 -5.497978e-03 -4.819641e-03 -4.197530e-03 -3.618640e-03 -3.083878e-03 -2.581880e-03 -2.113127e-03 -1.669339e-03 -1.251137e-03 -8.536716e-04 -4.779479e-04 -1.220283e-04 2.127332e-04 5.263362e-04 8.172689e-04 1.084636e-03 1.326995e-03 1.543427e-03 1.732758e-03 1.894649e-03 2.028357e-03 2.134441e-03 2.212702e-03 2.264686e-03 2.290781e-03 2.293422e-03 2.273544e-03 2.234230e-03 2.176832e-03 2.104749e-03 2.019544e-03 1.924581e-03 1.821407e-03 1.713045e-03 1.600847e-03 1.487296e-03 1.373453e-03 1.261192e-03 1.151275e-03 1.045007e-03 9.429022e-04 8.457823e-04 7.539881e-04 6.679534e-04 5.878976e-04 5.139447e-04 4.462189e-04 3.845891e-04 3.290927e-04 2.793868e-04 2.354289e-04 1.967096e-04 1.631219e-04 1.340436e-04 1.093301e-04 8.830494e-05 7.081769e-05 5.619315e-05 4.430451e-05 3.452177e-05 2.676144e-05 2.046693e-05 1.560594e-05 1.170740e-05 8.787491e-06 6.460045e-06 4.780121e-06 3.437708e-06 2.514202e-06 1.763369e-06 1.280700e-06 8.709486e-07 6.336730e-07 4.132819e-07 3.062674e-07 1.875486e-07 1.461813e-07 8.062814e-08 7.033914e-08 3.217336e-08 3.534775e-08 1.134222e-08 1.946634e-08 3.015927e-09 1.222914e-08 8.128736e-11 8.788712e-09 -6.718251e-10 6.980377e-09 -6.291596e-10 5.871445e-09 -3.560093e-10 5.073514e-09 -6.606782e-11 4.429211e-09 1.711125e-10 3.875130e-09 3.423371e-10 3.385911e-09 4.539687e-10 2.950934e-09 5.181889e-10 2.564670e-09 5.468629e-10 2.222576e-09 5.493530e-10 1.920616e-09 5.338409e-10 1.655411e-09 5.062605e-10 1.423379e-09 4.715423e-10 1.221320e-09 4.328881e-10 1.045562e-09 3.932277e-10 8.937802e-10 3.535535e-10 7.625783e-10 3.153910e-10 6.496188e-10 2.796829e-10 5.526864e-10 2.467336e-10 4.697147e-10 2.164605e-10 3.984993e-10 1.888356e-10 3.375266e-10 1.644081e-10 2.859230e-10 1.429166e-10 2.420432e-10 1.236428e-10 2.045931e-10 1.065501e-10 1.724801e-10 9.131957e-11 1.454881e-10 7.854313e-11 1.225533e-10 6.724387e-11 1.033360e-10 5.732860e-11 8.681109e-11 4.932102e-11 7.307535e-11 4.197078e-11 6.145105e-11 3.536001e-11 5.116455e-11 2.960387e-11 4.262990e-11 2.495651e-11 3.551535e-11 2.079628e-11 2.932484e-11 1.714895e-11 2.400320e-11 1.403144e-11 1.941280e-11 1.102608e-11 1.533138e-11 8.195755e-12 1.173876e-11 5.566569e-12 8.292981e-12 3.104006e-12 5.181440e-12 6.834311e-13 2.085280e-12 -1.641539e-12 -8.060515e-13 -4.520887e-12 -4.123812e-12 -7.485153e-12 -7.439234e-12 -1.068792e-11 -1.129680e-11 -1.447444e-11 -1.525050e-11 -1.876233e-11 -2.003307e-11 -2.361446e-11 -2.541345e-11 -2.934801e-11 -3.188922e-11 -3.631582e-11 -3.937543e-11 -4.444721e-11 -4.850219e-11 -5.465172e-11 -5.961157e-11 -6.686023e-11 -7.289476e-11 -8.156208e-11 -8.917249e-11 -9.942232e-11 -1.084737e-10 -1.211414e-10 -1.322272e-10 -1.474131e-10 -1.610723e-10 -1.795020e-10 -1.962450e-10 -2.184162e-10 -2.390015e-10 -2.662029e-10 -2.909827e-10 -3.239445e-10 -3.541058e-10 -3.939622e-10 -4.307784e-10 -4.793837e-10 -5.241062e-10 -5.833530e-10 -6.377409e-10 -7.095131e-10 -7.754459e-10 -8.626303e-10 -9.428694e-10 -1.048856e-09 -1.146420e-09 -1.275543e-09 -1.394297e-09 -1.551330e-09 -1.696197e-09 -1.887410e-09 -2.063512e-09 -2.296135e-09 -2.510495e-09 -2.793202e-09 -3.053858e-09 -3.398010e-09 -3.715182e-09 -4.134067e-09 -4.520364e-09 -5.030399e-09 -5.500980e-09 -6.121719e-09 -6.694635e-09 -7.450972e-09 -8.149027e-09 -9.070249e-09 -9.920827e-09 -1.104374e-08 -1.208065e-08 -1.344989e-08 -1.471512e-08 -1.638554e-08 -1.793043e-08 -1.996995e-08 -2.185744e-08 -2.434962e-08 -2.665794e-08 -2.970617e-08 -3.253273e-08 -3.626567e-08 -3.973145e-08 -4.430976e-08 -4.856710e-08 -5.419217e-08 -5.943311e-08 -6.636020e-08 -7.282859e-08 -8.138120e-08 -8.938953e-08 -9.998371e-08 -1.099359e-07 -1.231103e-07 -1.355352e-07 -1.519972e-07 -1.675962e-07 -1.882855e-07 -2.080006e-07 -2.341854e-07 -2.593044e-07 -2.927277e-07 -3.250458e-07 -3.681499e-07 -4.102212e-07 -4.665080e-07 -5.220538e-07 -5.966748e-07 -6.712642e-07 -7.720205e-07 -8.742394e-07 -1.013342e-06 -1.156884e-06 -1.354188e-06 -1.561745e-06 -1.850979e-06 -2.161861e-06 -2.603364e-06 -3.089269e-06 -3.797864e-06 -4.597836e-06 -5.809297e-06 -7.213859e-06 -9.461027e-06 -1.213633e-05 -1.678162e-05 -2.244683e-05 -3.357230e-05 -4.738647e-05 -7.986810e-05 -1.204739e-04 -2.422511e-04 -3.929137e-04 -1.000451e-03 -1.724085e-03 -5.788395e-03 -1.181453e-02 2.351375e-02 -3.445519e+00 
-2.930782e-02 -8.913201e-03 2.382749e-01 2.594119e-01 -4.077851e-01 -6.664120e-01 -7.382362e-01 -6.882506e-01 -5.653383e-01 -4.228930e-01 -3.029221e-01 -2.246542e-01 -1.864558e-01 -1.753643e-01 -1.763886e-01 -1.785102e-01 -1.761840e-01 -1.683395e-01 -1.561971e-01 -1.416381e-01 -1.261834e-01 -1.108603e-01 -9.626956e-02 -8.289362e-02 -7.116457e-02 -6.154452e-02 -5.438880e-02 -4.989767e-02 -4.799975e-02 -4.838391e-02 -5.051959e-02 -5.378234e-02 -5.753570e-02 -6.124398e-02 -6.450703e-02 -6.709604e-02 -6.891880e-02 -7.000024e-02 -7.042579e-02 -7.031248e-02 -6.977930e-02 -6.892245e-02 -6.783252e-02 -6.655421e-02 -6.515296e-02 -6.363256e-02 -6.205259e-02 -6.038965e-02 -5.870680e-02 -5.696051e-02 -5.521608e-02 -5.341540e-02 -5.162135e-02 -4.976951e-02 -4.791656e-02 -4.600184e-02 -4.407385e-02 -4.208439e-02 -4.007302e-02 -3.800893e-02 -3.592271e-02 -3.380158e-02 -3.166764e-02 -2.952328e-02 -2.738291e-02 -2.525931e-02 -2.316029e-02 -2.110383e-02 -1.909244e-02 -1.714495e-02 -1.526003e-02 -1.345437e-02 -1.172429e-02 -1.008284e-02 -8.525356e-03 -7.060899e-03 -5.684738e-03 -4.402376e-03 -3.209496e-03 -2.108781e-03 -1.096413e-03 -1.731162e-04 6.645694e-04 1.417096e-03 2.087786e-03 2.677682e-03 3.190226e-03 3.626746e-03 3.991077e-03 4.284806e-03 4.512409e-03 4.675881e-03 4.780498e-03 4.828841e-03 4.826974e-03 4.778120e-03 4.688907e-03 4.563055e-03 4.407340e-03 4.225663e-03 4.024435e-03 3.807357e-03 3.580019e-03 3.345606e-03 3.108606e-03 2.871538e-03 2.637724e-03 2.409029e-03 2.187715e-03 1.975120e-03 1.772630e-03 1.581196e-03 1.401509e-03 1.234234e-03 1.079497e-03 9.377230e-04 8.085587e-04 6.922030e-04 5.878938e-04 4.956194e-04 4.142905e-04 3.437243e-04 2.826093e-04 2.306562e-04 1.864498e-04 1.496708e-04 1.189136e-04 9.389710e-05 7.331629e-05 5.697470e-05 4.372498e-05 3.347550e-05 2.526023e-05 1.908892e-05 1.417411e-05 1.060801e-05 7.762276e-06 5.785999e-06 4.183193e-06 3.134508e-06 2.249040e-06 1.718070e-06 1.231819e-06 9.772233e-07 7.064296e-07 5.927656e-07 4.357868e-07 3.905165e-07 2.932863e-07 2.793254e-07 2.140131e-07 2.132863e-07 1.658875e-07 1.700320e-07 1.335341e-07 1.389179e-07 1.097266e-07 1.149116e-07 9.106637e-08 9.557841e-08 7.589718e-08 7.965496e-08 6.333864e-08 6.640534e-08 5.285911e-08 5.533742e-08 4.409040e-08 4.608371e-08 3.675041e-08 3.835059e-08 3.061104e-08 3.189410e-08 2.548050e-08 2.650863e-08 2.119719e-08 2.202088e-08 1.762473e-08 1.828450e-08 1.464775e-08 1.517616e-08 1.216841e-08 1.259155e-08 1.010525e-08 1.044394e-08 8.389315e-09 8.660278e-09 6.962596e-09 7.179433e-09 5.777379e-09 5.950790e-09 4.792750e-09 4.931361e-09 3.975448e-09 4.086138e-09 3.296655e-09 3.385062e-09 2.733204e-09 2.803706e-09 2.265792e-09 2.322062e-09 1.878513e-09 1.923202e-09 1.556921e-09 1.592532e-09 1.290089e-09 1.318214e-09 1.068753e-09 1.091233e-09 8.853743e-10 9.033230e-10 7.335139e-10 7.475436e-10 6.072570e-10 6.185488e-10 5.030745e-10 5.121606e-10 4.166221e-10 4.234847e-10 3.443824e-10 3.497825e-10 2.845304e-10 2.887369e-10 2.348783e-10 2.382384e-10 1.936966e-10 1.960841e-10 1.594839e-10 1.613172e-10 1.307220e-10 1.318627e-10 1.064614e-10 1.072137e-10 8.596045e-11 8.633420e-11 6.838814e-11 6.847826e-11 5.367422e-11 5.302496e-11 4.039530e-11 3.978572e-11 2.877141e-11 2.772721e-11 1.807952e-11 1.639104e-11 7.720106e-12 5.709152e-12 -2.404092e-12 -4.886817e-12 -1.234248e-11 -1.550416e-11 -2.304423e-11 -2.696351e-11 -3.476487e-11 -3.944767e-11 -4.731346e-11 -5.324505e-11 -6.192214e-11 -6.903472e-11 -7.905301e-11 -8.769086e-11 -9.909547e-11 -1.096540e-10 -1.229218e-10 -1.358208e-10 -1.517711e-10 -1.673903e-10 -1.859674e-10 -2.049757e-10 -2.276435e-10 -2.509158e-10 -2.782519e-10 -3.064822e-10 -3.392814e-10 -3.737680e-10 -4.134326e-10 -4.551210e-10 -5.037018e-10 -5.546431e-10 -6.131168e-10 -6.749079e-10 -7.461146e-10 -8.214926e-10 -9.082207e-10 -9.999795e-10 -1.104962e-09 -1.216361e-09 -1.344060e-09 -1.479439e-09 -1.634893e-09 -1.799389e-09 -1.988269e-09 -2.188361e-09 -2.418131e-09 -2.661816e-09 -2.941544e-09 -3.238112e-09 -3.578275e-09 -3.939239e-09 -4.353015e-09 -4.792020e-09 -5.295692e-09 -5.829748e-09 -6.442320e-09 -7.092483e-09 -7.838128e-09 -8.629639e-09 -9.537407e-09 -1.050091e-08 -1.160610e-08 -1.277930e-08 -1.412536e-08 -1.555446e-08 -1.719452e-08 -1.893591e-08 -2.093407e-08 -2.305689e-08 -2.549328e-08 -2.808218e-08 -3.105451e-08 -3.421397e-08 -3.784222e-08 -4.170054e-08 -4.613288e-08 -5.084884e-08 -5.626911e-08 -6.203956e-08 -6.867530e-08 -7.574440e-08 -8.388044e-08 -9.255472e-08 -1.025473e-07 -1.132115e-07 -1.255100e-07 -1.386511e-07 -1.538265e-07 -1.700646e-07 -1.888478e-07 -2.089806e-07 -2.323165e-07 -2.573819e-07 -2.865066e-07 -3.178684e-07 -3.544185e-07 -3.938958e-07 -4.400693e-07 -4.901258e-07 -5.489275e-07 -6.129601e-07 -6.885736e-07 -7.713616e-07 -8.697367e-07 -9.781587e-07 -1.107963e-06 -1.252175e-06 -1.426377e-06 -1.621809e-06 -1.860412e-06 -2.131278e-06 -2.466199e-06 -2.851926e-06 -3.336114e-06 -3.903634e-06 -4.628926e-06 -5.497495e-06 -6.631610e-06 -8.025995e-06 -9.894371e-06 -1.226715e-05 -1.554834e-05 -1.988502e-05 -2.612149e-05 -3.477626e-05 -4.786037e-05 -6.708893e-05 -9.817991e-05 -1.465672e-04 -2.332448e-04 -3.703369e-04 -6.709475e-04 -1.055946e-03 -2.495823e-03 -3.429463e-03 1.002191e-02 -8.935638e-02 
-6.096044e-01 -3.861720e-03 -2.208643e-01 -1.398729e-01 -2.099505e-01 -3.772150e-01 -5.002745e-01 -5.250001e-01 -4.652726e-01 -3.680169e-01 -2.782049e-01 -2.193387e-01 -1.936393e-01 -1.906039e-01 -1.969292e-01 -2.025355e-01 -2.025307e-01 -1.962072e-01 -1.850662e-01 -1.711422e-01 -1.560838e-01 -1.409771e-01 -1.264774e-01 -1.130815e-01 -1.012438e-01 -9.142574e-02 -8.399718e-02 -7.915929e-02 -7.685974e-02 -7.679561e-02 -7.846057e-02 -8.124162e-02 -8.452527e-02 -8.778324e-02 -9.063129e-02 -9.284049e-02 -9.432656e-02 -9.510864e-02 -9.527490e-02 -9.493478e-02 -9.420760e-02 -9.318258e-02 -9.194965e-02 -9.054719e-02 -8.903956e-02 -8.742362e-02 -8.575801e-02 -8.401038e-02 -8.224348e-02 -8.040203e-02 -7.855158e-02 -7.661971e-02 -7.466929e-02 -7.262034e-02 -7.052851e-02 -6.831844e-02 -6.603629e-02 -6.362237e-02 -6.111337e-02 -5.847216e-02 -5.572740e-02 -5.286627e-02 -4.991142e-02 -4.687152e-02 -4.376495e-02 -4.061608e-02 -3.743993e-02 -3.426962e-02 -3.111697e-02 -2.801720e-02 -2.497881e-02 -2.203392e-02 -1.918767e-02 -1.646595e-02 -1.387076e-02 -1.142065e-02 -9.114897e-03 -6.965061e-03 -4.968241e-03 -3.130171e-03 -1.446270e-03 8.196135e-05 1.460324e-03 2.689983e-03 3.777566e-03 4.725663e-03 5.541501e-03 6.228364e-03 6.794065e-03 7.242368e-03 7.581801e-03 7.816730e-03 7.956531e-03 8.006364e-03 7.976414e-03 7.872671e-03 7.705813e-03 7.482413e-03 7.213061e-03 6.904421e-03 6.566296e-03 6.204868e-03 5.828538e-03 5.442565e-03 5.053592e-03 4.665762e-03 4.283927e-03 3.911174e-03 3.550763e-03 3.204937e-03 2.875663e-03 2.564561e-03 2.272578e-03 2.000859e-03 1.749514e-03 1.519278e-03 1.309534e-03 1.120624e-03 9.513031e-04 8.015425e-04 6.695902e-04 5.551173e-04 4.560269e-04 3.718019e-04 3.001886e-04 2.406115e-04 1.908409e-04 1.503594e-04 1.171048e-04 9.069691e-05 6.933113e-05 5.279949e-05 3.959073e-05 2.966501e-05 2.179799e-05 1.608810e-05 1.156510e-05 8.424565e-06 5.906270e-06 4.261960e-06 2.896919e-06 2.085051e-06 1.358355e-06 9.883737e-07 6.029525e-07 4.559079e-07 2.477757e-07 2.066303e-07 8.888626e-08 9.403201e-08 2.227108e-08 4.488655e-08 -2.919844e-09 2.406644e-08 -1.051866e-08 1.538447e-08 -1.121623e-08 1.167763e-08 -9.578538e-09 9.908242e-09 -7.436345e-09 8.847319e-09 -5.452443e-09 8.027666e-09 -3.816357e-09 7.287788e-09 -2.540062e-09 6.581406e-09 -1.577369e-09 5.903743e-09 -8.682907e-10 5.260880e-09 -3.587575e-10 4.659323e-09 -1.826924e-12 4.104250e-09 2.393681e-10 3.597974e-09 3.944559e-10 3.140822e-09 4.863186e-10 2.731459e-09 5.325447e-10 2.367633e-09 5.463328e-10 2.045762e-09 5.378879e-10 1.763159e-09 5.152014e-10 1.516204e-09 4.832029e-10 1.301043e-09 4.462162e-10 1.114111e-09 4.069995e-10 9.524887e-10 3.673188e-10 8.127389e-10 3.285347e-10 6.925124e-10 2.923566e-10 5.895297e-10 2.583506e-10 5.009497e-10 2.269372e-10 4.249465e-10 1.985873e-10 3.603329e-10 1.729548e-10 3.051134e-10 1.502649e-10 2.580472e-10 1.300784e-10 2.180539e-10 1.120303e-10 1.841598e-10 9.632171e-11 1.547001e-10 8.201481e-11 1.294910e-10 6.920959e-11 1.080127e-10 5.837701e-11 8.999740e-11 4.877201e-11 7.454345e-11 4.031371e-11 6.105883e-11 3.229660e-11 4.901436e-11 2.497877e-11 3.832691e-11 1.817776e-11 2.858519e-11 1.137005e-11 1.947994e-11 4.960891e-12 1.104420e-11 -1.420878e-12 3.097966e-12 -8.136336e-12 -5.103000e-12 -1.532362e-11 -1.395494e-11 -2.381603e-11 -2.371078e-11 -3.321177e-11 -3.420049e-11 -4.326655e-11 -4.601928e-11 -5.557178e-11 -5.985237e-11 -7.025556e-11 -7.578446e-11 -8.720380e-11 -9.455405e-11 -1.075371e-10 -1.170658e-10 -1.321785e-10 -1.441452e-10 -1.618278e-10 -1.767243e-10 -1.977545e-10 -2.162532e-10 -2.414210e-10 -2.639323e-10 -2.940081e-10 -3.216906e-10 -3.583446e-10 -3.923241e-10 -4.365274e-10 -4.778113e-10 -5.313662e-10 -5.815929e-10 -6.466128e-10 -7.078973e-10 -7.866598e-10 -8.612640e-10 -9.568100e-10 -1.047510e-09 -1.164170e-09 -1.274620e-09 -1.416437e-09 -1.550933e-09 -1.722888e-09 -1.886163e-09 -2.095222e-09 -2.294099e-09 -2.548489e-09 -2.789982e-09 -3.099402e-09 -3.393422e-09 -3.769689e-09 -4.127504e-09 -4.585356e-09 -5.020984e-09 -5.577815e-09 -6.107768e-09 -6.785364e-09 -7.429850e-09 -8.254247e-09 -9.038700e-09 -1.004182e-08 -1.099635e-08 -1.221757e-08 -1.337988e-08 -1.486641e-08 -1.628119e-08 -1.809094e-08 -1.981398e-08 -2.201788e-08 -2.411721e-08 -2.680240e-08 -2.936045e-08 -3.263242e-08 -3.575135e-08 -3.974076e-08 -4.354519e-08 -4.841221e-08 -5.305562e-08 -5.899685e-08 -6.466884e-08 -7.192735e-08 -7.886201e-08 -8.773884e-08 -9.622699e-08 -1.070955e-07 -1.174991e-07 -1.308260e-07 -1.435987e-07 -1.599684e-07 -1.756815e-07 -1.958321e-07 -2.152093e-07 -2.400782e-07 -2.640449e-07 -2.948331e-07 -3.245823e-07 -3.628439e-07 -3.999319e-07 -4.477013e-07 -4.941809e-07 -5.541541e-07 -6.127733e-07 -6.885774e-07 -7.630727e-07 -8.596715e-07 -9.552167e-07 -1.079535e-06 -1.203439e-06 -1.365345e-06 -1.528174e-06 -1.742081e-06 -1.959490e-06 -2.247028e-06 -2.542888e-06 -2.937532e-06 -3.349397e-06 -3.904785e-06 -4.493865e-06 -5.299389e-06 -6.169519e-06 -7.381002e-06 -8.716469e-06 -1.061988e-05 -1.276510e-05 -1.591718e-05 -1.955487e-05 -2.511478e-05 -3.169159e-05 -4.225877e-05 -5.507358e-05 -7.694021e-05 -1.041016e-04 -1.535226e-04 -2.162293e-04 -3.360247e-04 -4.899174e-04 -7.797764e-04 -1.137994e-03 -1.704553e-03 -2.654169e-03 1.363496e-02 -5.142679e-01 
-1.516315e-02 -1.583351e-04 1.659301e-01 2.376152e-01 2.050879e-02 -1.755571e-01 -3.184251e-01 -3.712799e-01 -3.430739e-01 -2.748499e-01 -2.088224e-01 -1.683968e-01 -1.567363e-01 -1.644554e-01 -1.791734e-01 -1.914469e-01 -1.968408e-01 -1.949244e-01 -1.874272e-01 -1.765181e-01 -1.639842e-01 -1.509828e-01 -1.382557e-01 -1.263289e-01 -1.157084e-01 -1.068606e-01 -1.001937e-01 -9.591161e-02 -9.400408e-02 -9.417928e-02 -9.597931e-02 -9.880659e-02 -1.020933e-01 -1.053213e-01 -1.081401e-01 -1.103213e-01 -1.118004e-01 -1.125905e-01 -1.127892e-01 -1.124985e-01 -1.118416e-01 -1.109019e-01 -1.097701e-01 -1.084804e-01 -1.070967e-01 -1.056106e-01 -1.040807e-01 -1.024663e-01 -1.008321e-01 -9.910927e-02 -9.736787e-02 -9.551706e-02 -9.362546e-02 -9.159151e-02 -8.947616e-02 -8.718226e-02 -8.475954e-02 -8.212966e-02 -7.933108e-02 -7.631396e-02 -7.310813e-02 -6.969561e-02 -6.610123e-02 -6.233622e-02 -5.842349e-02 -5.439648e-02 -5.027747e-02 -4.611302e-02 -4.192432e-02 -3.776188e-02 -3.364439e-02 -2.961885e-02 -2.570006e-02 -2.192688e-02 -1.830948e-02 -1.487667e-02 -1.163395e-02 -8.600267e-03 -5.776741e-03 -3.173863e-03 -7.888797e-04 1.374226e-03 3.321378e-03 5.053066e-03 6.577620e-03 7.898297e-03 9.025215e-03 9.963302e-03 1.072412e-02 1.131381e-02 1.174525e-02 1.202575e-02 1.216942e-02 1.218478e-02 1.208689e-02 1.188535e-02 1.159561e-02 1.122787e-02 1.079713e-02 1.031346e-02 9.790497e-03 9.237382e-03 8.665608e-03 8.082856e-03 7.498079e-03 6.917291e-03 6.346942e-03 5.791517e-03 5.255299e-03 4.741566e-03 4.252866e-03 3.791588e-03 3.358910e-03 2.956528e-03 2.584485e-03 2.243855e-03 1.933680e-03 1.654423e-03 1.404246e-03 1.183038e-03 9.882447e-04 8.192913e-04 6.731366e-04 5.489163e-04 4.433765e-04 3.555609e-04 2.822648e-04 2.226178e-04 1.736706e-04 1.347594e-04 1.033180e-04 7.894256e-05 5.949829e-05 4.483676e-05 3.324138e-05 2.477542e-05 1.809000e-05 1.339954e-05 9.656620e-06 7.166395e-06 5.116889e-06 3.853606e-06 2.743023e-06 2.134469e-06 1.527918e-06 1.253374e-06 9.108971e-07 7.987623e-07 5.931308e-07 5.557189e-07 4.217541e-07 4.163082e-07 3.214588e-07 3.281553e-07 2.563291e-07 2.665100e-07 2.096271e-07 2.198136e-07 1.735954e-07 1.825876e-07 1.445450e-07 1.520820e-07 1.205880e-07 1.267579e-07 1.006305e-07 1.056256e-07 8.394230e-08 8.796534e-08 6.997627e-08 7.320862e-08 5.829400e-08 6.088850e-08 4.853056e-08 5.061185e-08 4.037872e-08 4.204789e-08 3.357880e-08 3.491704e-08 2.791115e-08 2.898411e-08 2.319116e-08 2.405087e-08 1.926220e-08 1.995138e-08 1.599400e-08 1.654604e-08 1.327660e-08 1.371891e-08 1.101838e-08 1.137247e-08 9.142393e-09 9.425896e-09 7.584280e-09 7.811084e-09 6.290745e-09 6.471953e-09 5.216828e-09 5.361583e-09 4.325436e-09 4.441397e-09 3.586164e-09 3.678785e-09 2.972931e-09 3.046472e-09 2.463900e-09 2.522503e-09 2.041906e-09 2.088613e-09 1.692040e-09 1.729206e-09 1.401792e-09 1.431358e-09 1.161239e-09 1.184666e-09 9.618600e-10 9.802851e-10 7.960164e-10 8.103443e-10 6.584396e-10 6.696646e-10 5.439446e-10 5.526974e-10 4.490529e-10 4.560141e-10 3.704163e-10 3.758266e-10 3.048682e-10 3.085643e-10 2.498471e-10 2.524046e-10 2.034856e-10 2.050444e-10 1.642710e-10 1.648370e-10 1.306560e-10 1.305655e-10 1.017483e-10 1.012200e-10 7.691424e-11 7.548634e-11 5.462315e-11 5.238168e-11 3.375297e-11 3.055399e-11 1.380371e-11 9.857596e-12 -5.461616e-12 -1.026909e-11 -2.491349e-11 -3.126403e-11 -4.553513e-11 -5.334451e-11 -6.820307e-11 -7.757972e-11 -9.334106e-11 -1.047397e-10 -1.220200e-10 -1.359643e-10 -1.553527e-10 -1.722882e-10 -1.947196e-10 -2.153891e-10 -2.415291e-10 -2.668554e-10 -2.976121e-10 -3.284443e-10 -3.652675e-10 -4.028689e-10 -4.472350e-10 -4.928815e-10 -5.461798e-10 -6.014710e-10 -6.661506e-10 -7.336151e-10 -8.118741e-10 -8.939984e-10 -9.886422e-10 -1.088293e-09 -1.203600e-09 -1.324785e-09 -1.464730e-09 -1.612366e-09 -1.782519e-09 -1.962037e-09 -2.168841e-09 -2.386929e-09 -2.638020e-09 -2.903415e-09 -3.208860e-09 -3.531569e-09 -3.902986e-09 -4.295877e-09 -4.747480e-09 -5.225058e-09 -5.774656e-09 -6.356151e-09 -7.024955e-09 -7.732149e-09 -8.545651e-09 -9.406092e-09 -1.039567e-08 -1.144270e-08 -1.264697e-08 -1.392106e-08 -1.538677e-08 -1.693797e-08 -1.872204e-08 -2.061020e-08 -2.278209e-08 -2.508140e-08 -2.772627e-08 -3.052710e-08 -3.374867e-08 -3.716078e-08 -4.108646e-08 -4.524514e-08 -5.003094e-08 -5.510178e-08 -6.093891e-08 -6.712573e-08 -7.424976e-08 -8.180290e-08 -9.050413e-08 -9.973288e-08 -1.103700e-07 -1.216573e-07 -1.346760e-07 -1.484979e-07 -1.644526e-07 -1.814029e-07 -2.009878e-07 -2.218112e-07 -2.459008e-07 -2.715369e-07 -3.012383e-07 -3.328820e-07 -3.696094e-07 -4.087916e-07 -4.543682e-07 -5.030706e-07 -5.598705e-07 -6.206869e-07 -6.918397e-07 -7.682079e-07 -8.578967e-07 -9.544427e-07 -1.068345e-06 -1.191398e-06 -1.337360e-06 -1.495742e-06 -1.684820e-06 -1.891091e-06 -2.139212e-06 -2.411678e-06 -2.742351e-06 -3.108397e-06 -3.557280e-06 -4.059082e-06 -4.681906e-06 -5.386533e-06 -6.273366e-06 -7.291333e-06 -8.593222e-06 -1.011391e-05 -1.209478e-05 -1.445692e-05 -1.759916e-05 -2.143701e-05 -2.666634e-05 -3.322386e-05 -4.240852e-05 -5.422734e-05 -7.131950e-05 -9.369499e-05 -1.273221e-04 -1.707832e-04 -2.394348e-04 -3.195110e-04 -4.558008e-04 -5.596065e-04 -7.619446e-04 -1.006604e-03 5.786908e-03 -1.485645e-02 