# vtk DataFile Version 2.0
Comment goes here
ASCII

DATASET STRUCTURED_POINTS
FIELD FieldData 1
TIME 1 1 double
0.17500000
DIMENSIONS    384   64   1

ORIGIN    0.000   0.000   0.000
SPACING   0.078125 0.078125   1.000

POINT_DATA   24576
SCALARS Omega double
LOOKUP_TABLE default

3.477791e-08 6.844644e-06 -6.980641e-05 -1.326529e-04 -8.765393e-05 -4.966903e-05 -2.414778e-05 -1.147809e-05 -4.488445e-06 -1.746896e-06 -3.811812e-07 -6.067734e-08 1.260242e-07 8.250593e-08 1.016995e-07 5.217047e-08 5.833501e-08 3.065673e-08 3.654036e-08 2.333108e-08 2.747305e-08 2.371172e-08 2.481244e-08 2.825462e-08 2.562769e-08 3.508760e-08 2.843275e-08 4.278217e-08 3.218496e-08 4.979641e-08 3.582617e-08 5.431789e-08 3.812162e-08 5.443184e-08 3.775256e-08 4.858948e-08 3.364483e-08 3.624174e-08 2.541763e-08 1.833505e-08 1.371134e-08 -2.685705e-09 1.526465e-10 -2.349620e-08 -1.309227e-08 -4.086799e-08 -2.396727e-08 -5.253155e-08 -3.107421e-08 -5.759585e-08 -3.392269e-08 -5.647846e-08 -3.286673e-08 -5.051043e-08 -2.883592e-08 -4.143788e-08 -2.300170e-08 -3.098928e-08 -1.648926e-08 -2.059009e-08 -1.019160e-08 -1.123484e-08 -4.695379e-09 -3.483393e-09 -2.934584e-10 2.466788e-09 2.952191e-09 6.677158e-09 5.131987e-09 9.364236e-09 6.416867e-09 1.081535e-08 7.004384e-09 1.132823e-08 7.084380e-09 1.117437e-08 6.820401e-09 1.058128e-08 6.343319e-09 9.727723e-09 5.751618e-09 8.746059e-09 5.115444e-09 7.729369e-09 4.481941e-09 6.739117e-09 3.880772e-09 5.812702e-09 3.328689e-09 4.970385e-09 2.833574e-09 4.220519e-09 2.397354e-09 3.563394e-09 2.018151e-09 2.994554e-09 1.691974e-09 2.507031e-09 1.413828e-09 2.092327e-09 1.178178e-09 1.741714e-09 9.795534e-10 1.446826e-09 8.129609e-10 1.199803e-09 6.736268e-10 9.934880e-10 5.574976e-10 8.217209e-10 4.609007e-10 6.789818e-10 3.807253e-10 5.605506e-10 3.142175e-10 4.625209e-10 2.592788e-10 3.814098e-10 2.137585e-10 3.143371e-10 1.761853e-10 2.590305e-10 1.451547e-10 2.133590e-10 1.195662e-10 1.756648e-10 9.846267e-11 1.446527e-10 8.109291e-11 1.190738e-10 6.675289e-11 9.799234e-11 5.493186e-11 8.065426e-11 4.521762e-11 6.637182e-11 3.720455e-11 5.455825e-11 3.063100e-11 4.495632e-11 2.520368e-11 3.697439e-11 2.073458e-11 3.037110e-11 1.702119e-11 2.502870e-11 1.400403e-11 2.057605e-11 1.155252e-11 1.690303e-11 9.501349e-12 1.392142e-11 7.811409e-12 1.144798e-11 6.429443e-12 9.377886e-12 5.293483e-12 7.751574e-12 4.337894e-12 6.369525e-12 3.568394e-12 5.220980e-12 2.916581e-12 4.321480e-12 2.419501e-12 3.543625e-12 1.995006e-12 2.899054e-12 1.621968e-12 2.403043e-12 1.336209e-12 1.969381e-12 1.124497e-12 1.622151e-12 9.150985e-13 1.334505e-12 7.582322e-13 1.095821e-12 6.378629e-13 8.881767e-13 4.976951e-13 7.486088e-13 4.272463e-13 6.218336e-13 3.494959e-13 4.867799e-13 2.669442e-13 4.066646e-13 2.162954e-13 3.350452e-13 2.148637e-13 2.718300e-13 1.360637e-13 2.470403e-13 1.194347e-13 1.990808e-13 1.052817e-13 1.466898e-13 8.140336e-14 1.185997e-13 7.090726e-14 1.073066e-13 5.741537e-14 8.171382e-14 6.211063e-14 8.642440e-14 3.720888e-14 5.155952e-14 2.989887e-14 4.413164e-14 7.048369e-15 4.396717e-14 2.530999e-14 4.644046e-14 3.701064e-14 -5.252164e-15 -5.921883e-15 4.487740e-14 1.044014e-14 1.280060e-14 3.009803e-15 4.099007e-17 1.880648e-14 1.861639e-14 3.182448e-14 9.047275e-15 8.879670e-16 -1.373078e-14 -1.608063e-14 1.592928e-14 6.232283e-15 7.454396e-16 -1.549030e-14 -2.100915e-14 7.612689e-16 1.826667e-14 9.365685e-15 1.838521e-14 1.060494e-14 6.718757e-15 -2.642646e-14 4.747447e-15 -2.221455e-14 -2.548280e-15 1.371496e-14 -5.009506e-15 -2.429940e-14 -1.021174e-16 2.422793e-14 3.228341e-14 1.351225e-14 -4.292923e-14 -1.340279e-14 -4.156094e-15 -2.438531e-14 9.248432e-15 2.751618e-15 1.463268e-15 -5.917604e-15 1.998532e-15 -1.448537e-15 -4.196672e-15 9.704867e-15 -1.001194e-14 2.434395e-16 7.114932e-15 -8.179525e-15 -1.865775e-15 -7.976331e-15 -2.711139e-14 -2.031419e-15 2.626918e-14 2.187313e-14 2.054367e-14 1.834400e-14 2.397063e-15 5.874059e-15 1.564096e-14 1.657273e-14 1.543712e-15 2.850424e-14 -5.271382e-15 3.782817e-14 6.481856e-14 6.622468e-14 7.382099e-14 5.511534e-14 2.518869e-14 5.455449e-14 7.769326e-14 7.055018e-14 1.147538e-13 1.312394e-13 1.078615e-13 1.477695e-13 1.523351e-13 1.941727e-13 1.984957e-13 2.254762e-13 1.891972e-13 2.844673e-13 2.966818e-13 3.169148e-13 3.323850e-13 3.988640e-13 3.782711e-13 4.717659e-13 4.893202e-13 6.036589e-13 5.883722e-13 7.215568e-13 6.938566e-13 8.819676e-13 8.899386e-13 1.072076e-12 1.065034e-12 1.301421e-12 1.271460e-12 1.567626e-12 1.580404e-12 1.918530e-12 1.951474e-12 2.392406e-12 2.350823e-12 2.878032e-12 2.950010e-12 3.558086e-12 3.575990e-12 4.390189e-12 4.382345e-12 5.407905e-12 5.444357e-12 6.659614e-12 6.731832e-12 8.223896e-12 8.291758e-12 1.015075e-11 1.033623e-11 1.269252e-11 1.291733e-11 1.587673e-11 1.618804e-11 1.992002e-11 2.039961e-11 2.527478e-11 2.596418e-11 3.218821e-11 3.323020e-11 4.139793e-11 4.298528e-11 5.371145e-11 5.615064e-11 7.049901e-11 7.415277e-11 9.362304e-11 9.933159e-11 1.261330e-10 1.349619e-10 1.725593e-10 1.863570e-10 2.401902e-10 2.622195e-10 3.410573e-10 3.768001e-10 4.955275e-10 5.549159e-10 7.396865e-10 8.416430e-10 1.141322e-09 1.324154e-09 1.837439e-09 2.186742e-09 3.139839e-09 3.898558e-09 5.981204e-09 8.225583e-09 1.446764e-08 2.391347e-08 4.722703e-08 8.496562e-08 1.550727e-07 2.616024e-07 3.988617e-07 7.159189e-07 
-2.295421e+01 -1.585386e+01 -2.330884e+01 -1.927513e+01 -5.151685e+00 -1.459026e+00 -4.271601e-01 -1.362500e-01 -3.881719e-02 -7.095391e-03 3.382267e-03 5.256751e-03 4.670958e-03 3.416778e-03 2.359942e-03 1.565888e-03 1.046738e-03 7.003228e-04 4.821038e-04 3.353970e-04 2.408785e-04 1.743565e-04 1.299942e-04 9.718650e-05 7.460961e-05 5.721882e-05 4.488638e-05 3.514308e-05 2.797763e-05 2.230593e-05 1.791440e-05 1.454375e-05 1.173714e-05 9.726966e-06 7.889945e-06 6.701881e-06 5.502258e-06 4.803829e-06 4.050135e-06 3.623867e-06 3.194233e-06 2.896186e-06 2.704523e-06 2.443980e-06 2.425132e-06 2.151263e-06 2.254149e-06 1.944472e-06 2.127668e-06 1.778139e-06 2.006464e-06 1.624249e-06 1.866851e-06 1.465874e-06 1.696321e-06 1.294475e-06 1.492277e-06 1.108955e-06 1.261171e-06 9.144984e-07 1.016177e-06 7.203325e-07 7.734386e-07 5.368208e-07 5.481282e-07 3.728580e-07 3.515776e-07 2.342745e-07 1.900511e-07 1.234089e-07 6.497709e-08 3.957188e-08 -2.593262e-08 -2.004325e-08 -8.726731e-08 -5.938256e-08 -1.246261e-07 -8.271885e-08 -1.436540e-07 -9.409361e-08 -1.494439e-07 -9.700463e-08 -1.462469e-07 -9.428492e-08 -1.374018e-07 -8.810762e-08 -1.253976e-07 -8.006133e-08 -1.120002e-07 -7.125323e-08 -9.839895e-08 -6.241582e-08 -8.534626e-08 -5.400344e-08 -7.327749e-08 -4.627157e-08 -6.240810e-08 -3.933990e-08 -5.280570e-08 -3.323834e-08 -4.444624e-08 -2.794204e-08 -3.725035e-08 -2.339355e-08 -3.111080e-08 -1.952031e-08 -2.590930e-08 -1.624414e-08 -2.152723e-08 -1.348778e-08 -1.785217e-08 -1.117875e-08 -1.478135e-08 -9.251211e-09 -1.222309e-08 -7.646651e-09 -1.009675e-08 -6.313882e-09 -8.333103e-09 -5.209315e-09 -6.872649e-09 -4.294819e-09 -5.664671e-09 -3.538972e-09 -4.666894e-09 -2.914795e-09 -3.843267e-09 -2.399985e-09 -3.164083e-09 -1.975289e-09 -2.604033e-09 -1.625220e-09 -2.142631e-09 -1.337038e-09 -1.762675e-09 -1.099701e-09 -1.449923e-09 -9.044311e-10 -1.192474e-09 -7.436866e-10 -9.806560e-10 -6.115688e-10 -8.065209e-10 -5.027990e-10 -6.631255e-10 -4.134234e-10 -5.453344e-10 -3.398467e-10 -4.483090e-10 -2.793479e-10 -3.685075e-10 -2.295762e-10 -3.029430e-10 -1.886989e-10 -2.490525e-10 -1.551374e-10 -2.047506e-10 -1.275286e-10 -1.683280e-10 -1.047964e-10 -1.383260e-10 -8.612917e-11 -1.137065e-10 -7.079838e-11 -9.347024e-11 -5.817662e-11 -7.686059e-11 -4.789300e-11 -6.323976e-11 -3.937295e-11 -5.192579e-11 -3.235602e-11 -4.272306e-11 -2.664451e-11 -3.520727e-11 -2.189675e-11 -2.892618e-11 -1.804791e-11 -2.385394e-11 -1.490987e-11 -1.970980e-11 -1.233268e-11 -1.619972e-11 -1.013888e-11 -1.339283e-11 -8.457146e-12 -1.112670e-11 -7.031235e-12 -9.291945e-12 -5.989283e-12 -7.840958e-12 -5.156616e-12 -6.611668e-12 -4.377654e-12 -5.612154e-12 -3.764011e-12 -4.924535e-12 -3.429198e-12 -4.307369e-12 -3.112236e-12 -3.947687e-12 -2.998313e-12 -3.703719e-12 -2.972615e-12 -3.636232e-12 -3.087330e-12 -3.717486e-12 -3.307192e-12 -3.918688e-12 -3.634337e-12 -4.344421e-12 -4.248983e-12 -4.934693e-12 -4.845472e-12 -5.575540e-12 -5.687263e-12 -6.509769e-12 -6.683325e-12 -7.594634e-12 -8.023760e-12 -9.159239e-12 -9.639187e-12 -1.093773e-11 -1.154898e-11 -1.313734e-11 -1.398100e-11 -1.590514e-11 -1.696291e-11 -1.923064e-11 -2.058952e-11 -2.336042e-11 -2.497043e-11 -2.833418e-11 -3.036128e-11 -3.441133e-11 -3.686621e-11 -4.182355e-11 -4.486675e-11 -5.091264e-11 -5.464664e-11 -6.186538e-11 -6.629924e-11 -7.513721e-11 -8.063949e-11 -9.134712e-11 -9.801291e-11 -1.110322e-10 -1.191217e-10 -1.350069e-10 -1.448799e-10 -1.641717e-10 -1.762313e-10 -1.996382e-10 -2.142466e-10 -2.427874e-10 -2.606453e-10 -2.954854e-10 -3.170973e-10 -3.593416e-10 -3.855396e-10 -4.368138e-10 -4.687555e-10 -5.311609e-10 -5.700282e-10 -6.458975e-10 -6.932635e-10 -7.854791e-10 -8.431108e-10 -9.552729e-10 -1.025310e-09 -1.161667e-09 -1.246899e-09 -1.412784e-09 -1.516464e-09 -1.718081e-09 -1.844183e-09 -2.089475e-09 -2.243019e-09 -2.541332e-09 -2.728050e-09 -3.090890e-09 -3.318140e-09 -3.759407e-09 -4.035917e-09 -4.572692e-09 -4.909195e-09 -5.562184e-09 -5.971768e-09 -6.766304e-09 -7.265002e-09 -8.231809e-09 -8.838900e-09 -1.001519e-08 -1.075467e-08 -1.218636e-08 -1.308728e-08 -1.483020e-08 -1.592815e-08 -1.805037e-08 -1.938900e-08 -2.197395e-08 -2.360681e-08 -2.675646e-08 -2.874948e-08 -3.258902e-08 -3.502340e-08 -3.970629e-08 -4.268255e-08 -4.839781e-08 -5.204036e-08 -5.902104e-08 -6.348474e-08 -7.201913e-08 -7.749805e-08 -8.794377e-08 -9.468105e-08 -1.074839e-07 -1.157875e-07 -1.315054e-07 -1.417667e-07 -1.611019e-07 -1.738236e-07 -1.976659e-07 -2.134978e-07 -2.429823e-07 -2.627736e-07 -2.993612e-07 -3.242328e-07 -3.698213e-07 -4.012710e-07 -4.583521e-07 -4.984060e-07 -5.702905e-07 -6.217262e-07 -7.128711e-07 -7.795515e-07 -8.960432e-07 -9.834220e-07 -1.133703e-06 -1.249603e-06 -1.445584e-06 -1.601414e-06 -1.860205e-06 -2.072906e-06 -2.419576e-06 -2.714787e-06 -3.186853e-06 -3.604184e-06 -4.259115e-06 -4.861160e-06 -5.789250e-06 -6.677432e-06 -8.024622e-06 -9.367977e-06 -1.137773e-05 -1.346716e-05 -1.656050e-05 -1.991548e-05 -2.485133e-05 -3.044046e-05 -3.865467e-05 -4.837922e-05 -6.274993e-05 -8.058149e-05 -1.072983e-04 -1.422005e-04 -1.958052e-04 -2.701409e-04 -3.890663e-04 -5.670401e-04 -8.718240e-04 -1.380834e-03 -2.354589e-03 -4.244586e-03 -8.369657e-03 -1.751093e-02 -3.905604e-02 -8.916175e-02 -2.075438e-01 -4.801936e-01 -1.118334e+00 -2.618378e+00 -6.587220e+00 -1.912132e+01 
8.882759e-01 -4.385548e-02 6.261382e-01 1.486380e-02 -1.841992e+00 -1.282237e+00 -6.578389e-01 -3.032031e-01 -1.236995e-01 -4.371715e-02 -1.011757e-02 1.317089e-03 4.344459e-03 4.076456e-03 3.189074e-03 2.242270e-03 1.573055e-03 1.075169e-03 7.606179e-04 5.338292e-04 3.906805e-04 2.840381e-04 2.150579e-04 1.615499e-04 1.259279e-04 9.744268e-05 7.782225e-05 6.193395e-05 5.044574e-05 4.126018e-05 3.410417e-05 2.862930e-05 2.388112e-05 2.050156e-05 1.716245e-05 1.496116e-05 1.251450e-05 1.095626e-05 9.140853e-06 7.915266e-06 6.598442e-06 5.533340e-06 4.638008e-06 3.645608e-06 3.112657e-06 2.154688e-06 1.928728e-06 9.955162e-07 1.022674e-06 1.221414e-07 3.509361e-07 -4.973280e-07 -1.165337e-07 -8.864575e-07 -4.034192e-07 -1.068852e-06 -5.343368e-07 -1.075758e-06 -5.393949e-07 -9.485510e-07 -4.541006e-07 -7.350423e-07 -3.154404e-07 -4.823005e-07 -1.567521e-07 -2.297961e-07 -3.828666e-09 -5.395037e-09 1.266436e-07 1.752940e-07 2.265031e-07 3.070918e-07 2.942315e-07 3.922511e-07 3.326660e-07 4.373793e-07 3.469280e-07 4.509162e-07 3.428620e-07 4.413865e-07 3.260346e-07 4.163821e-07 3.012041e-07 3.821063e-07 2.721290e-07 3.432918e-07 2.415845e-07 3.033297e-07 2.114883e-07 2.644946e-07 1.830672e-07 2.281917e-07 1.570248e-07 1.951849e-07 1.336888e-07 1.657882e-07 1.131304e-07 1.400166e-07 9.525700e-08 1.176994e-07 7.987940e-08 9.856023e-08 6.675879e-08 8.227349e-08 5.563861e-08 6.850006e-08 4.626471e-08 5.691062e-08 3.839745e-08 4.719876e-08 3.181832e-08 3.908734e-08 2.633258e-08 3.233117e-08 2.176948e-08 2.671631e-08 1.798132e-08 2.205861e-08 1.484158e-08 1.820057e-08 1.224271e-08 1.500903e-08 1.009396e-08 1.237137e-08 8.318923e-09 1.019344e-08 6.853697e-09 8.396187e-09 5.644906e-09 6.914093e-09 4.648337e-09 5.692457e-09 3.826992e-09 4.685783e-09 3.150241e-09 3.856595e-09 2.592848e-09 3.173819e-09 2.133876e-09 2.611575e-09 1.755933e-09 2.148722e-09 1.444784e-09 1.767852e-09 1.188765e-09 1.454355e-09 9.779972e-10 1.196392e-09 8.045964e-10 9.842024e-10 6.619716e-10 8.096456e-10 5.445902e-10 6.659917e-10 4.480060e-10 5.478165e-10 3.685357e-10 4.505721e-10 3.031574e-10 3.706015e-10 2.493695e-10 3.048474e-10 2.051557e-10 2.507235e-10 1.687177e-10 2.062092e-10 1.387745e-10 1.696107e-10 1.141537e-10 1.394526e-10 9.385093e-11 1.146474e-10 7.714837e-11 9.423867e-11 6.339400e-11 7.746823e-11 5.209357e-11 6.365536e-11 4.276285e-11 5.227213e-11 3.508627e-11 4.284913e-11 2.874903e-11 3.517839e-11 2.355389e-11 2.882207e-11 1.922855e-11 2.352016e-11 1.558353e-11 1.906516e-11 1.251537e-11 1.541702e-11 1.006813e-11 1.238156e-11 7.920706e-12 9.826562e-12 6.102778e-12 7.610668e-12 4.522323e-12 5.725938e-12 3.057791e-12 4.015551e-12 1.766661e-12 2.437909e-12 4.860408e-13 9.764930e-13 -7.560397e-13 -4.307332e-13 -2.021644e-12 -1.881813e-12 -3.382914e-12 -3.461192e-12 -4.903424e-12 -5.117901e-12 -6.558548e-12 -6.919730e-12 -8.436003e-12 -9.010909e-12 -1.065767e-11 -1.144887e-11 -1.334510e-11 -1.438184e-11 -1.648357e-11 -1.778647e-11 -2.032368e-11 -2.195409e-11 -2.488550e-11 -2.692472e-11 -3.040536e-11 -3.297937e-11 -3.717901e-11 -4.027485e-11 -4.530389e-11 -4.909270e-11 -5.518298e-11 -5.985357e-11 -6.723807e-11 -7.293727e-11 -8.190166e-11 -8.880456e-11 -9.960004e-11 -1.079877e-10 -1.211589e-10 -1.314025e-10 -1.473814e-10 -1.598340e-10 -1.792229e-10 -1.943971e-10 -2.180317e-10 -2.364928e-10 -2.652068e-10 -2.876431e-10 -3.225472e-10 -3.498872e-10 -3.923888e-10 -4.256743e-10 -4.773244e-10 -5.177439e-10 -5.805364e-10 -6.296907e-10 -7.060007e-10 -7.657960e-10 -8.586318e-10 -9.314216e-10 -1.044275e-09 -1.132812e-09 -1.270054e-09 -1.377789e-09 -1.544674e-09 -1.675702e-09 -1.878668e-09 -2.038136e-09 -2.284992e-09 -2.478969e-09 -2.779125e-09 -3.015121e-09 -3.380230e-09 -3.667435e-09 -4.111516e-09 -4.460948e-09 -5.001079e-09 -5.426298e-09 -6.083326e-09 -6.600852e-09 -7.400131e-09 -8.029974e-09 -9.002334e-09 -9.769000e-09 -1.095220e-08 -1.188557e-08 -1.332547e-08 -1.446186e-08 -1.621420e-08 -1.759809e-08 -1.973134e-08 -2.141711e-08 -2.401466e-08 -2.606866e-08 -2.923239e-08 -3.173602e-08 -3.559075e-08 -3.864372e-08 -4.334230e-08 -4.706700e-08 -5.279720e-08 -5.734428e-08 -6.433688e-08 -6.989222e-08 -7.843175e-08 -8.522503e-08 -9.566317e-08 -1.039794e-07 -1.167523e-07 -1.269465e-07 -1.425971e-07 -1.551133e-07 -1.743203e-07 -1.897171e-07 -2.133338e-07 -2.323179e-07 -2.614233e-07 -2.848954e-07 -3.208638e-07 -3.499804e-07 -3.945758e-07 -4.308362e-07 -4.863434e-07 -5.317097e-07 -6.011178e-07 -6.581877e-07 -7.454511e-07 -8.177047e-07 -9.281189e-07 -1.020280e-06 -1.161030e-06 -1.279600e-06 -1.460577e-06 -1.614643e-06 -1.849666e-06 -2.052130e-06 -2.360830e-06 -2.630317e-06 -3.041062e-06 -3.404957e-06 -3.959506e-06 -4.458840e-06 -5.219890e-06 -5.917428e-06 -6.981154e-06 -7.975071e-06 -9.492485e-06 -1.094017e-05 -1.315458e-05 -1.531533e-05 -1.863015e-05 -2.194440e-05 -2.705063e-05 -3.229294e-05 -4.041864e-05 -4.900649e-05 -6.242927e-05 -7.707930e-05 -1.002385e-04 -1.264475e-04 -1.685202e-04 -2.181582e-04 -2.995229e-04 -4.004268e-04 -5.708737e-04 -7.968481e-04 -1.198577e-03 -1.793415e-03 -2.959851e-03 -5.035386e-03 -9.679019e-03 -1.953705e-02 -4.295214e-02 -9.498902e-02 -2.124501e-01 -4.550874e-01 -9.342241e-01 -1.735098e+00 -2.607079e+00 1.161982e-01 
-2.013133e+00 -1.284420e-02 -2.160798e+00 -2.276488e+00 -1.485473e+00 -9.991199e-01 -5.859104e-01 -2.983867e-01 -1.326986e-01 -4.858111e-02 -1.137642e-02 2.359174e-03 5.933674e-03 5.672506e-03 4.468586e-03 3.235256e-03 2.299194e-03 1.614471e-03 1.153992e-03 8.277574e-04 6.093707e-04 4.500801e-04 3.412846e-04 2.587230e-04 2.010208e-04 1.557158e-04 1.232287e-04 9.720769e-05 7.788071e-05 6.245738e-05 5.037813e-05 4.109428e-05 3.324369e-05 2.766239e-05 2.244969e-05 1.913988e-05 1.569543e-05 1.375097e-05 1.156627e-05 1.038137e-05 9.125690e-06 8.293992e-06 7.728516e-06 6.993558e-06 6.935371e-06 6.154730e-06 6.459774e-06 5.571142e-06 6.121321e-06 5.113176e-06 5.805440e-06 4.696882e-06 5.437518e-06 4.267245e-06 4.973445e-06 3.793399e-06 4.399918e-06 3.268579e-06 3.734207e-06 2.707713e-06 3.017147e-06 2.140095e-06 2.300253e-06 1.599310e-06 1.632139e-06 1.114271e-06 1.048915e-06 7.038990e-07 5.703244e-07 3.758562e-07 2.007596e-07 1.282073e-07 -6.693232e-08 -4.755366e-08 -2.468599e-07 -1.633659e-07 -3.560310e-07 -2.320714e-07 -4.114152e-07 -2.657251e-07 -4.281790e-07 -2.746834e-07 -4.188761e-07 -2.672773e-07 -3.932917e-07 -2.498579e-07 -3.586695e-07 -2.270412e-07 -3.201162e-07 -2.020280e-07 -2.810498e-07 -1.769266e-07 -2.436182e-07 -1.530381e-07 -2.090548e-07 -1.310913e-07 -1.779606e-07 -1.114246e-07 -1.505176e-07 -9.412110e-08 -1.266453e-07 -7.910678e-08 -1.061099e-07 -6.621764e-08 -8.859890e-08 -5.524547e-08 -7.377026e-08 -4.596719e-08 -6.128262e-08 -3.816293e-08 -5.081316e-08 -3.162651e-08 -4.206731e-08 -2.617085e-08 -3.478265e-08 -2.163001e-08 -2.872949e-08 -1.785913e-08 -2.370940e-08 -1.473368e-08 -1.955284e-08 -1.214695e-08 -1.611554e-08 -1.000880e-08 -1.327611e-08 -8.243203e-09 -1.093274e-08 -6.786635e-09 -9.000105e-09 -5.585645e-09 -7.407038e-09 -4.595932e-09 -6.094678e-09 -3.780869e-09 -5.013880e-09 -3.109778e-09 -4.124091e-09 -2.557394e-09 -3.391859e-09 -2.102976e-09 -2.789346e-09 -1.729119e-09 -2.293683e-09 -1.421593e-09 -1.885939e-09 -1.168692e-09 -1.550633e-09 -9.607197e-10 -1.274827e-09 -7.897239e-10 -1.048075e-09 -6.491368e-10 -8.616017e-10 -5.335492e-10 -7.082666e-10 -4.385132e-10 -5.822310e-10 -3.604549e-10 -4.786093e-10 -2.962723e-10 -3.934570e-10 -2.435053e-10 -3.234258e-10 -2.001710e-10 -2.659163e-10 -1.645437e-10 -2.186119e-10 -1.352546e-10 -1.797324e-10 -1.111955e-10 -1.478071e-10 -9.144771e-11 -1.215494e-10 -7.522738e-11 -1.000263e-10 -6.194859e-11 -8.230840e-11 -5.102132e-11 -6.778107e-11 -4.208787e-11 -5.594124e-11 -3.481992e-11 -4.616507e-11 -2.875639e-11 -3.815409e-11 -2.389934e-11 -3.168420e-11 -2.000646e-11 -2.640975e-11 -1.683939e-11 -2.214128e-11 -1.428079e-11 -1.872461e-11 -1.230664e-11 -1.605616e-11 -1.080002e-11 -1.395577e-11 -9.749594e-12 -1.243296e-11 -9.035735e-12 -1.145265e-11 -8.718951e-12 -1.082038e-11 -8.674039e-12 -1.064360e-11 -9.030791e-12 -1.087873e-11 -9.689346e-12 -1.149297e-11 -1.072820e-11 -1.263147e-11 -1.223119e-11 -1.419964e-11 -1.409509e-11 -1.626454e-11 -1.660731e-11 -1.905828e-11 -1.970813e-11 -2.255497e-11 -2.354689e-11 -2.690009e-11 -2.838268e-11 -3.230360e-11 -3.423957e-11 -3.892389e-11 -4.144094e-11 -4.701060e-11 -5.016056e-11 -5.695725e-11 -6.090877e-11 -6.909932e-11 -7.399247e-11 -8.389030e-11 -8.988887e-11 -1.019345e-10 -1.092902e-10 -1.238860e-10 -1.328253e-10 -1.505772e-10 -1.615138e-10 -1.830306e-10 -1.963184e-10 -2.225121e-10 -2.386970e-10 -2.705121e-10 -2.902408e-10 -3.288877e-10 -3.529081e-10 -3.999140e-10 -4.291285e-10 -4.862770e-10 -5.218657e-10 -5.913781e-10 -6.346824e-10 -7.192018e-10 -7.718861e-10 -8.746304e-10 -9.386980e-10 -1.063632e-09 -1.141558e-09 -1.293461e-09 -1.388189e-09 -1.572942e-09 -1.688252e-09 -1.912857e-09 -2.053070e-09 -2.326209e-09 -2.496767e-09 -2.828900e-09 -3.036391e-09 -3.440304e-09 -3.692723e-09 -4.183869e-09 -4.490943e-09 -5.088217e-09 -5.461764e-09 -6.188227e-09 -6.642776e-09 -7.526238e-09 -8.079198e-09 -9.153656e-09 -9.826540e-09 -1.113348e-08 -1.195228e-08 -1.354195e-08 -1.453844e-08 -1.647217e-08 -1.768514e-08 -2.003773e-08 -2.151432e-08 -2.437675e-08 -2.617456e-08 -2.965764e-08 -3.184714e-08 -3.608635e-08 -3.875363e-08 -4.391403e-08 -4.716430e-08 -5.344757e-08 -5.740997e-08 -6.506269e-08 -6.989557e-08 -7.921940e-08 -8.511736e-08 -9.648219e-08 -1.036852e-07 -1.175448e-07 -1.263492e-07 -1.432619e-07 -1.540349e-07 -1.746886e-07 -1.878868e-07 -2.131321e-07 -2.293259e-07 -2.602175e-07 -2.801227e-07 -3.179735e-07 -3.424941e-07 -3.889458e-07 -4.192302e-07 -4.763472e-07 -5.138659e-07 -5.842591e-07 -6.309111e-07 -7.179069e-07 -7.761675e-07 -8.840379e-07 -9.571679e-07 -1.091451e-06 -1.183794e-06 -1.351742e-06 -1.469158e-06 -1.680381e-06 -1.830878e-06 -2.098270e-06 -2.292947e-06 -2.634056e-06 -2.888519e-06 -3.327587e-06 -3.664131e-06 -4.235201e-06 -4.686192e-06 -5.437922e-06 -6.051169e-06 -7.054434e-06 -7.901865e-06 -9.262033e-06 -1.045402e-05 -1.233123e-05 -1.404080e-05 -1.668440e-05 -1.918926e-05 -2.299785e-05 -2.675558e-05 -3.238532e-05 -3.817228e-05 -4.673928e-05 -5.591728e-05 -6.939147e-05 -8.444168e-05 -1.064490e-04 -1.320936e-04 -1.696360e-04 -2.153263e-04 -2.826910e-04 -3.684785e-04 -4.967373e-04 -6.682133e-04 -9.304478e-04 -1.301395e-03 -1.891072e-03 -2.794996e-03 -4.347168e-03 -7.061384e-03 -1.233853e-02 -2.299903e-02 -4.548662e-02 -9.259675e-02 -1.873051e-01 -3.660558e-01 -6.650665e-01 -1.093573e+00 -1.550995e+00 -2.121193e+00 
6.584670e-01 3.692463e-03 5.446695e-01 3.957399e-01 -5.495189e-01 -6.061165e-01 -4.383106e-01 -2.587259e-01 -1.310990e-01 -5.672487e-02 -1.913296e-02 -3.102981e-03 2.669869e-03 3.794367e-03 3.477007e-03 2.697406e-03 2.036689e-03 1.476721e-03 1.096815e-03 8.015994e-04 6.067686e-04 4.538826e-04 3.519218e-04 2.699067e-04 2.140506e-04 1.683088e-04 1.361598e-04 1.098134e-04 9.032015e-05 7.475806e-05 6.224276e-05 5.283708e-05 4.429498e-05 3.842689e-05 3.225786e-05 2.838330e-05 2.375801e-05 2.095383e-05 1.746456e-05 1.519375e-05 1.264159e-05 1.061307e-05 8.878595e-06 6.950906e-06 5.929779e-06 4.045561e-06 3.630344e-06 1.778862e-06 1.862907e-06 6.358388e-08 5.467752e-07 -1.157749e-06 -3.704909e-07 -1.922501e-06 -9.278817e-07 -2.268426e-06 -1.168723e-06 -2.253706e-06 -1.152097e-06 -1.963353e-06 -9.521003e-07 -1.499315e-06 -6.474524e-07 -9.622494e-07 -3.087018e-07 -4.351462e-07 1.081897e-08 2.535798e-08 2.780531e-07 3.895344e-07 4.782877e-07 6.496753e-07 6.105341e-07 8.130494e-07 6.823439e-07 8.951294e-07 7.053690e-07 9.143307e-07 6.921867e-07 8.885586e-07 6.543771e-07 8.333338e-07 6.015913e-07 7.610620e-07 5.412900e-07 6.810235e-07 4.788733e-07 5.997416e-07 4.179954e-07 5.215003e-07 3.609360e-07 4.488742e-07 3.089534e-07 3.831987e-07 2.625842e-07 3.249555e-07 2.218828e-07 2.740688e-07 1.866017e-07 2.301241e-07 1.563199e-07 1.925219e-07 1.305334e-07 1.605821e-07 1.087136e-07 1.336117e-07 9.034482e-08 1.109459e-07 7.494535e-08 9.197145e-08 6.207903e-08 7.613721e-08 5.135893e-08 6.295754e-08 4.244727e-08 5.201062e-08 3.505281e-08 4.293399e-08 2.892668e-08 3.541871e-08 2.385758e-08 2.920352e-08 1.966767e-08 2.406853e-08 1.620732e-08 1.982934e-08 1.335146e-08 1.633186e-08 1.099593e-08 1.344805e-08 9.054073e-09 1.107123e-08 7.453742e-09 9.112940e-09 6.135361e-09 7.500002e-09 5.049599e-09 6.171848e-09 4.155492e-09 5.078386e-09 3.419437e-09 4.178337e-09 2.813545e-09 3.437603e-09 2.314893e-09 2.828012e-09 1.904526e-09 2.326449e-09 1.566875e-09 1.913750e-09 1.288995e-09 1.574188e-09 1.060358e-09 1.294862e-09 8.723290e-10 1.065101e-09 7.175753e-10 8.760606e-10 5.902454e-10 7.205728e-10 4.855711e-10 5.926806e-10 3.993881e-10 4.874371e-10 3.284874e-10 4.008792e-10 2.701478e-10 3.296720e-10 2.221618e-10 2.710969e-10 1.826921e-10 2.229237e-10 1.502199e-10 1.833203e-10 1.234891e-10 1.506518e-10 1.014594e-10 1.237720e-10 8.332308e-11 1.016205e-10 6.828730e-11 8.335413e-11 5.596412e-11 6.837491e-11 4.582984e-11 5.592875e-11 3.732042e-11 4.565427e-11 3.035886e-11 3.714322e-11 2.451385e-11 3.006040e-11 1.956544e-11 2.412611e-11 1.540173e-11 1.906693e-11 1.181371e-11 1.474102e-11 8.704248e-12 1.101423e-11 5.887809e-12 7.679383e-12 3.318664e-12 4.689145e-12 8.708589e-13 1.809923e-12 -1.564852e-12 -9.788651e-13 -4.027464e-12 -3.780224e-12 -6.657700e-12 -6.735582e-12 -9.556422e-12 -9.934017e-12 -1.280734e-11 -1.357866e-11 -1.660549e-11 -1.773232e-11 -2.100886e-11 -2.258394e-11 -2.621177e-11 -2.825924e-11 -3.244991e-11 -3.502136e-11 -3.987626e-11 -4.313823e-11 -4.885997e-11 -5.289732e-11 -5.979007e-11 -6.473466e-11 -7.295904e-11 -7.907575e-11 -8.893574e-11 -9.644969e-11 -1.084021e-10 -1.174985e-10 -1.319657e-10 -1.430785e-10 -1.605979e-10 -1.741401e-10 -1.954298e-10 -2.119173e-10 -2.377676e-10 -2.578214e-10 -2.892107e-10 -3.136408e-10 -3.517699e-10 -3.814850e-10 -4.278158e-10 -4.639917e-10 -5.203093e-10 -5.643960e-10 -6.328862e-10 -6.864931e-10 -7.697594e-10 -8.349581e-10 -9.362134e-10 -1.015549e-09 -1.138661e-09 -1.235151e-09 -1.384845e-09 -1.502171e-09 -1.684228e-09 -1.827006e-09 -2.048407e-09 -2.222082e-09 -2.491320e-09 -2.702611e-09 -3.029989e-09 -3.287036e-09 -3.685184e-09 -3.997918e-09 -4.482064e-09 -4.862567e-09 -5.451398e-09 -5.914366e-09 -6.630518e-09 -7.193848e-09 -8.064872e-09 -8.750261e-09 -9.809662e-09 -1.064373e-08 -1.193241e-08 -1.294737e-08 -1.451497e-08 -1.575025e-08 -1.765740e-08 -1.916093e-08 -2.148139e-08 -2.331172e-08 -2.613535e-08 -2.836372e-08 -3.180015e-08 -3.451376e-08 -3.869679e-08 -4.200206e-08 -4.709503e-08 -5.112197e-08 -5.732451e-08 -6.223236e-08 -6.978875e-08 -7.577256e-08 -8.498191e-08 -9.228113e-08 -1.035105e-07 -1.124196e-07 -1.261200e-07 -1.370018e-07 -1.537290e-07 -1.670315e-07 -1.874717e-07 -2.037505e-07 -2.287535e-07 -2.486997e-07 -2.793222e-07 -3.037987e-07 -3.413600e-07 -3.714506e-07 -4.176061e-07 -4.546790e-07 -5.115181e-07 -5.573129e-07 -6.274897e-07 -6.842348e-07 -7.711476e-07 -8.417220e-07 -9.497583e-07 -1.037918e-06 -1.172798e-06 -1.283496e-06 -1.452758e-06 -1.592600e-06 -1.806294e-06 -1.984206e-06 -2.255902e-06 -2.484106e-06 -2.832381e-06 -3.127860e-06 -3.578518e-06 -3.965229e-06 -4.554679e-06 -5.066970e-06 -5.847431e-06 -6.535400e-06 -7.583093e-06 -8.521138e-06 -9.949405e-06 -1.125017e-05 -1.323093e-05 -1.506851e-05 -1.786822e-05 -2.051783e-05 -2.455911e-05 -2.846657e-05 -3.443710e-05 -4.034429e-05 -4.939497e-05 -5.857383e-05 -7.269167e-05 -8.739644e-05 -1.101329e-04 -1.345090e-04 -1.724607e-04 -2.144504e-04 -2.804024e-04 -3.559332e-04 -4.758663e-04 -6.186137e-04 -8.485059e-04 -1.135484e-03 -1.609498e-03 -2.251105e-03 -3.384046e-03 -5.196539e-03 -8.838317e-03 -1.598164e-02 -3.142566e-02 -6.330210e-02 -1.266214e-01 -2.407567e-01 -4.158477e-01 -6.184353e-01 -6.280505e-01 4.510437e-01 