# vtk DataFile Version 2.0
Comment goes here
ASCII

DATASET STRUCTURED_POINTS
FIELD FieldData 1
TIME 1 1 double
0.42500000
DIMENSIONS    384   64   1

ORIGIN    0.000   0.000   0.000
SPACING   0.078125 0.078125   1.000

POINT_DATA   24576
SCALARS Omega double
LOOKUP_TABLE default

2.614226e-07 2.848121e-05 2.350422e-06 -1.318563e-04 -2.009116e-04 -2.134701e-04 -1.915887e-04 -1.629907e-04 -1.310280e-04 -1.029897e-04 -7.785420e-05 -5.750435e-05 -4.077122e-05 -2.815218e-05 -1.854652e-05 -1.188573e-05 -7.183751e-06 -4.216605e-06 -2.266105e-06 -1.160445e-06 -4.865495e-07 -1.479144e-07 2.849084e-08 1.147547e-07 1.255389e-07 1.546633e-07 1.165656e-07 1.464525e-07 9.430563e-08 1.344119e-07 7.847114e-08 1.236093e-07 6.900736e-08 1.100890e-07 6.176273e-08 8.936302e-08 5.245402e-08 5.881904e-08 3.796395e-08 1.863406e-08 1.714333e-08 -2.807840e-08 -8.844371e-09 -7.595984e-08 -3.686646e-08 -1.187688e-07 -6.277160e-08 -1.509359e-07 -8.258803e-08 -1.688093e-07 -9.355487e-08 -1.712640e-07 -9.468786e-08 -1.596091e-07 -8.679154e-08 -1.369646e-07 -7.202409e-08 -1.073957e-07 -5.322867e-08 -7.506196e-08 -3.325745e-08 -4.355796e-08 -1.446046e-08 -1.552269e-08 1.580663e-09 7.481173e-09 1.408076e-08 2.487116e-08 2.291516e-08 3.681854e-08 2.840919e-08 4.397902e-08 3.113000e-08 4.724696e-08 3.172171e-08 4.756691e-08 3.079792e-08 4.581218e-08 2.888437e-08 4.272151e-08 2.639846e-08 3.887835e-08 2.365156e-08 3.471560e-08 2.086226e-08 3.053651e-08 1.817447e-08 2.653927e-08 1.567521e-08 2.284215e-08 1.341027e-08 1.950526e-08 1.139684e-08 1.654861e-08 9.633176e-09 1.396599e-08 8.106187e-09 1.173520e-08 6.796131e-09 9.825502e-09 5.680524e-09 8.202273e-09 4.736081e-09 6.830535e-09 3.940469e-09 5.676799e-09 3.272798e-09 4.710001e-09 2.714388e-09 3.902577e-09 2.248648e-09 3.229861e-09 1.860969e-09 2.670548e-09 1.538807e-09 2.206404e-09 1.271624e-09 1.821808e-09 1.050230e-09 1.503342e-09 8.669482e-10 1.240080e-09 7.153595e-10 1.022510e-09 5.901372e-10 8.429139e-10 4.867046e-10 6.946131e-10 4.012921e-10 5.723510e-10 3.307965e-10 4.714310e-10 2.726824e-10 3.883819e-10 2.247658e-10 3.198695e-10 1.851995e-10 2.634346e-10 1.526073e-10 2.168902e-10 1.257516e-10 1.786183e-10 1.035873e-10 1.470349e-10 8.531514e-11 1.210635e-10 7.029391e-11 9.970190e-11 5.791727e-11 8.207900e-11 4.771491e-11 6.755696e-11 3.932412e-11 5.559256e-11 3.235294e-11 4.578275e-11 2.667071e-11 3.769335e-11 2.200986e-11 3.107113e-11 1.811833e-11 2.555921e-11 1.493394e-11 2.108372e-11 1.231661e-11 1.733509e-11 1.013637e-11 1.431286e-11 8.378876e-12 1.176780e-11 6.922642e-12 9.725256e-12 5.684917e-12 8.013955e-12 4.719290e-12 6.557599e-12 3.877636e-12 5.447995e-12 3.244275e-12 4.519274e-12 2.667743e-12 3.715251e-12 2.236096e-12 3.095690e-12 1.809067e-12 2.470976e-12 1.474318e-12 2.066640e-12 1.247077e-12 1.737958e-12 1.041640e-12 1.424237e-12 8.665192e-13 1.199270e-12 6.898297e-13 1.022523e-12 6.233933e-13 7.950901e-13 4.757594e-13 7.039302e-13 4.268450e-13 5.650028e-13 3.353225e-13 4.784066e-13 2.605101e-13 4.103394e-13 3.087104e-13 3.988293e-13 2.791416e-13 3.331560e-13 2.392003e-13 2.487256e-13 1.722109e-13 1.945575e-13 1.227300e-13 1.709108e-13 9.498689e-14 2.166266e-13 1.590734e-13 1.822527e-13 1.126413e-13 1.591091e-13 1.199625e-13 9.225872e-14 8.210684e-14 1.060309e-13 9.080056e-14 7.983422e-14 1.069386e-13 4.488053e-14 2.837429e-14 3.685715e-14 5.435831e-14 7.035963e-14 6.841310e-14 3.285555e-14 6.002768e-14 5.176265e-14 7.551274e-14 5.491603e-14 3.186571e-14 4.468810e-14 4.395963e-14 8.222485e-14 8.203739e-14 4.553707e-14 6.511874e-14 4.729134e-14 9.003828e-14 7.210147e-14 1.903512e-14 1.585618e-14 4.128584e-14 6.588746e-14 6.201278e-14 6.295138e-14 1.022983e-13 7.415191e-14 5.928105e-14 8.122201e-14 1.035079e-13 5.743178e-14 4.091785e-14 6.090394e-14 7.177355e-14 1.237606e-13 1.016798e-13 1.144691e-13 9.590534e-14 1.148978e-13 9.796325e-14 9.751080e-14 1.361585e-13 1.198468e-13 1.182195e-13 1.048563e-13 1.812757e-13 2.001881e-13 1.850829e-13 1.672011e-13 2.258883e-13 1.749150e-13 1.800102e-13 2.255998e-13 2.922913e-13 3.153384e-13 3.475927e-13 3.564371e-13 3.914661e-13 4.086551e-13 4.294612e-13 5.238730e-13 5.468343e-13 5.619937e-13 6.335196e-13 6.871050e-13 8.220537e-13 8.490921e-13 9.286744e-13 1.000063e-12 1.104245e-12 1.220847e-12 1.340739e-12 1.468630e-12 1.687786e-12 1.730387e-12 1.997462e-12 2.139199e-12 2.441537e-12 2.629793e-12 2.985914e-12 3.137896e-12 3.591114e-12 3.811163e-12 4.343413e-12 4.698014e-12 5.349656e-12 5.676784e-12 6.492955e-12 6.849446e-12 7.895470e-12 8.379966e-12 9.628070e-12 1.019227e-11 1.170987e-11 1.248317e-11 1.433649e-11 1.526257e-11 1.756998e-11 1.866747e-11 2.159188e-11 2.294916e-11 2.657529e-11 2.821056e-11 3.273110e-11 3.480193e-11 4.044510e-11 4.304647e-11 5.018640e-11 5.341616e-11 6.247157e-11 6.643660e-11 7.815716e-11 8.314051e-11 9.834292e-11 1.046521e-10 1.243772e-10 1.324207e-10 1.585637e-10 1.689334e-10 2.039018e-10 2.173008e-10 2.646857e-10 2.821278e-10 3.473689e-10 3.704544e-10 4.615660e-10 4.921982e-10 6.218745e-10 6.629605e-10 8.510538e-10 9.065673e-10 1.185369e-09 1.260521e-09 1.684285e-09 1.785658e-09 2.449951e-09 2.584294e-09 3.667400e-09 3.839131e-09 5.705301e-09 5.912657e-09 9.399060e-09 9.626716e-09 1.691071e-08 1.704272e-08 3.450621e-08 3.392383e-08 8.256841e-08 7.708369e-08 2.021910e-07 8.144686e-08 2.913384e-08 -2.655644e-07 
-2.078827e+01 -1.410661e+01 -2.029156e+01 -1.688969e+01 -5.965232e+00 -2.333825e+00 -1.062609e+00 -5.789715e-01 -3.583989e-01 -2.393800e-01 -1.645976e-01 -1.138124e-01 -7.769490e-02 -5.195849e-02 -3.368284e-02 -2.107547e-02 -1.257305e-02 -7.091850e-03 -3.673130e-03 -1.670515e-03 -5.519483e-04 9.189618e-06 2.616001e-04 3.385660e-04 3.360520e-04 2.959675e-04 2.479256e-04 2.007147e-04 1.603160e-04 1.272913e-04 1.004905e-04 8.020633e-05 6.329657e-05 5.133686e-05 4.061477e-05 3.368432e-05 2.681237e-05 2.285265e-05 1.849284e-05 1.623333e-05 1.360108e-05 1.223585e-05 1.082665e-05 9.843343e-06 9.298105e-06 8.389833e-06 8.437616e-06 7.446707e-06 7.880294e-06 6.751959e-06 7.412768e-06 6.155504e-06 6.920643e-06 5.576528e-06 6.349081e-06 4.975054e-06 5.679577e-06 4.336903e-06 4.919341e-06 3.666893e-06 4.095864e-06 2.984303e-06 3.250736e-06 2.317233e-06 2.431036e-06 1.695721e-06 1.680079e-06 1.145317e-06 1.030182e-06 6.827957e-07 4.991441e-07 3.146952e-07 9.046313e-08 3.831265e-08 -2.037790e-07 -1.558172e-07 -3.988745e-07 -2.809956e-07 -5.135354e-07 -3.517561e-07 -5.667725e-07 -3.819693e-07 -5.758578e-07 -3.837197e-07 -5.552798e-07 -3.668297e-07 -5.164433e-07 -3.388364e-07 -4.678435e-07 -3.052285e-07 -4.154815e-07 -2.698004e-07 -3.633619e-07 -2.350273e-07 -3.139757e-07 -2.024048e-07 -2.687198e-07 -1.727351e-07 -2.282324e-07 -1.463480e-07 -1.926528e-07 -1.232700e-07 -1.618097e-07 -1.033421e-07 -1.353544e-07 -8.630480e-08 -1.128509e-07 -7.185236e-08 -9.383547e-08 -5.966853e-08 -7.785240e-08 -4.944820e-08 -6.447537e-08 -4.090928e-08 -5.331813e-08 -3.379804e-08 -4.403813e-08 -2.789120e-08 -3.633713e-08 -2.299556e-08 -2.995851e-08 -1.894463e-08 -2.468296e-08 -1.559760e-08 -2.032522e-08 -1.283530e-08 -1.672931e-08 -1.055796e-08 -1.376464e-08 -8.681627e-09 -1.132168e-08 -7.136536e-09 -9.309914e-09 -5.865142e-09 -7.654071e-09 -4.819274e-09 -6.291646e-09 -3.959335e-09 -5.171075e-09 -3.252379e-09 -4.249527e-09 -2.671441e-09 -3.491981e-09 -2.194045e-09 -2.869204e-09 -1.801842e-09 -2.357435e-09 -1.479655e-09 -1.936695e-09 -1.215015e-09 -1.590997e-09 -9.975651e-10 -1.306939e-09 -8.190916e-10 -1.073587e-09 -6.724583e-10 -8.819107e-10 -5.521564e-10 -7.244461e-10 -4.533279e-10 -5.949845e-10 -3.721494e-10 -4.886904e-10 -3.055485e-10 -4.014387e-10 -2.507849e-10 -3.297926e-10 -2.060327e-10 -2.709211e-10 -1.691574e-10 -2.225183e-10 -1.388457e-10 -1.827787e-10 -1.140662e-10 -1.502328e-10 -9.370975e-11 -1.234732e-10 -7.701644e-11 -1.014737e-10 -6.336155e-11 -8.351945e-11 -5.214266e-11 -6.868999e-11 -4.290140e-11 -5.651680e-11 -3.536802e-11 -4.662630e-11 -2.922672e-11 -3.852332e-11 -2.428487e-11 -3.197667e-11 -2.036682e-11 -2.669149e-11 -1.712268e-11 -2.238570e-11 -1.446100e-11 -1.883696e-11 -1.253646e-11 -1.614892e-11 -1.087130e-11 -1.404622e-11 -9.810197e-12 -1.247837e-11 -9.179324e-12 -1.154528e-11 -8.825459e-12 -1.084216e-11 -8.801441e-12 -1.069638e-11 -9.179479e-12 -1.096071e-11 -9.936585e-12 -1.168047e-11 -1.100463e-11 -1.273569e-11 -1.262362e-11 -1.444145e-11 -1.456711e-11 -1.651987e-11 -1.708337e-11 -1.934241e-11 -2.034901e-11 -2.293554e-11 -2.433261e-11 -2.740390e-11 -2.936125e-11 -3.291653e-11 -3.547156e-11 -3.966584e-11 -4.287118e-11 -4.797506e-11 -5.202958e-11 -5.806002e-11 -6.308845e-11 -7.040299e-11 -7.659186e-11 -8.551660e-11 -9.307464e-11 -1.039468e-10 -1.132919e-10 -1.263493e-10 -1.375708e-10 -1.535555e-10 -1.673278e-10 -1.866131e-10 -2.033961e-10 -2.269084e-10 -2.473014e-10 -2.759078e-10 -3.007595e-10 -3.354119e-10 -3.656871e-10 -4.078934e-10 -4.446715e-10 -4.960358e-10 -5.408174e-10 -6.033303e-10 -6.578166e-10 -7.337303e-10 -7.999132e-10 -8.921803e-10 -9.726446e-10 -1.084890e-09 -1.182858e-09 -1.319319e-09 -1.438504e-09 -1.604400e-09 -1.749339e-09 -1.951106e-09 -2.127479e-09 -2.372778e-09 -2.587238e-09 -2.885521e-09 -3.146479e-09 -3.509090e-09 -3.826458e-09 -4.267495e-09 -4.653675e-09 -5.190067e-09 -5.659835e-09 -6.312096e-09 -6.883701e-09 -7.677052e-09 -8.372368e-09 -9.337279e-09 -1.018338e-08 -1.135699e-08 -1.238653e-08 -1.381440e-08 -1.506739e-08 -1.680457e-08 -1.832955e-08 -2.044291e-08 -2.229948e-08 -2.487140e-08 -2.713178e-08 -3.026217e-08 -3.301502e-08 -3.682588e-08 -4.017941e-08 -4.481998e-08 -4.890648e-08 -5.455915e-08 -5.954099e-08 -6.642930e-08 -7.250553e-08 -8.090340e-08 -8.831893e-08 -9.856310e-08 -1.076196e-07 -1.201244e-07 -1.311946e-07 -1.464719e-07 -1.600180e-07 -1.787009e-07 -1.952973e-07 -2.181728e-07 -2.385379e-07 -2.665877e-07 -2.916229e-07 -3.260779e-07 -3.569223e-07 -3.993346e-07 -4.374365e-07 -4.897764e-07 -5.369920e-07 -6.017790e-07 -6.605083e-07 -7.409929e-07 -8.143696e-07 -9.147860e-07 -1.006946e-06 -1.132870e-06 -1.249338e-06 -1.408203e-06 -1.556456e-06 -1.758297e-06 -1.948598e-06 -2.207166e-06 -2.453814e-06 -2.788243e-06 -3.111482e-06 -3.548844e-06 -3.977836e-06 -4.557131e-06 -5.134658e-06 -5.913164e-06 -6.703235e-06 -7.766856e-06 -8.867305e-06 -1.034785e-05 -1.191174e-05 -1.401657e-05 -1.628962e-05 -1.935423e-05 -2.274253e-05 -2.732700e-05 -3.252414e-05 -3.959788e-05 -4.783464e-05 -5.914767e-05 -7.270992e-05 -9.158728e-05 -1.149699e-04 -1.481621e-04 -1.909156e-04 -2.534580e-04 -3.382568e-04 -4.683010e-04 -6.575758e-04 -9.685221e-04 -1.463540e-03 -2.345898e-03 -3.884670e-03 -6.847311e-03 -1.244146e-02 -2.404205e-02 -4.779662e-02 -1.018988e-01 -2.248797e-01 -5.455895e-01 -1.403922e+00 -4.377080e+00 -1.717906e+01 
5.916827e-01 -3.936418e-02 7.767583e-01 3.755667e-01 -1.863093e+00 -1.737591e+00 -1.260272e+00 -8.768911e-01 -6.098334e-01 -4.290468e-01 -3.020376e-01 -2.115999e-01 -1.456646e-01 -9.815389e-02 -6.405624e-02 -4.039161e-02 -2.429821e-02 -1.386599e-02 -7.301456e-03 -3.427742e-03 -1.235251e-03 -1.169963e-04 4.043694e-04 5.807373e-04 5.982166e-04 5.380236e-04 4.580618e-04 3.768432e-04 3.059207e-04 2.478483e-04 1.999603e-04 1.639490e-04 1.331902e-04 1.115198e-04 9.130903e-05 7.801000e-05 6.414179e-05 5.552233e-05 4.568313e-05 3.959753e-05 3.257876e-05 2.781854e-05 2.296869e-05 1.888218e-05 1.579008e-05 1.205162e-05 1.039229e-05 6.862208e-06 6.342540e-06 2.985806e-06 3.338285e-06 1.801688e-07 1.168400e-06 -1.730977e-06 -3.122577e-07 -2.878012e-06 -1.209556e-06 -3.372402e-06 -1.616730e-06 -3.331460e-06 -1.632824e-06 -2.889674e-06 -1.367410e-06 -2.193255e-06 -9.330219e-07 -1.383666e-06 -4.320109e-07 -5.798382e-07 5.486846e-08 1.333036e-07 4.739061e-07 7.073690e-07 7.975347e-07 1.125708e-06 1.019165e-06 1.394786e-06 1.146402e-06 1.534975e-06 1.194654e-06 1.572784e-06 1.182165e-06 1.535341e-06 1.126714e-06 1.447080e-06 1.043787e-06 1.328177e-06 9.458285e-07 1.194180e-06 8.421807e-07 1.056345e-06 7.394194e-07 9.222976e-07 6.418428e-07 7.968072e-07 5.519917e-07 6.825064e-07 4.711200e-07 5.805134e-07 3.995897e-07 4.909282e-07 3.371778e-07 4.132074e-07 2.833063e-07 3.464374e-07 2.372065e-07 2.895240e-07 1.980313e-07 2.413186e-07 1.649283e-07 2.006982e-07 1.370852e-07 1.666125e-07 1.137543e-07 1.381084e-07 9.426499e-08 1.143384e-07 7.802617e-08 9.456234e-08 6.452400e-08 7.814021e-08 5.331671e-08 6.452444e-08 4.402756e-08 5.325012e-08 3.633728e-08 4.392450e-08 2.997694e-08 3.621754e-08 2.472062e-08 2.985295e-08 2.037990e-08 2.460013e-08 1.679708e-08 2.026693e-08 1.384122e-08 1.669390e-08 1.140354e-08 1.374865e-08 9.393862e-09 1.132156e-08 7.737356e-09 9.321888e-09 6.372311e-09 7.674783e-09 5.247726e-09 6.318182e-09 4.321218e-09 5.201059e-09 3.558123e-09 4.281288e-09 2.929676e-09 3.524039e-09 2.412145e-09 2.900673e-09 1.986021e-09 2.387423e-09 1.634983e-09 1.964936e-09 1.345995e-09 1.617170e-09 1.108149e-09 1.330990e-09 9.122735e-10 1.095385e-09 7.510052e-10 9.014995e-10 6.181665e-10 7.418298e-10 5.087760e-10 6.104735e-10 4.187501e-10 5.022005e-10 3.446569e-10 4.132496e-10 2.835518e-10 3.399485e-10 2.332861e-10 2.795775e-10 1.918728e-10 2.298469e-10 1.576629e-10 1.889193e-10 1.295943e-10 1.552397e-10 1.063992e-10 1.274819e-10 8.725026e-11 1.045196e-10 7.132886e-11 8.539456e-11 5.814883e-11 6.971604e-11 4.717322e-11 5.659429e-11 3.804312e-11 4.569516e-11 3.029295e-11 3.653017e-11 2.374973e-11 2.870858e-11 1.807538e-11 2.203392e-11 1.311061e-11 1.611459e-11 8.568820e-12 1.087788e-11 4.353555e-12 5.991370e-12 3.460047e-13 1.382820e-12 -3.698982e-12 -3.213792e-12 -7.864487e-12 -7.958612e-12 -1.231407e-11 -1.296736e-11 -1.732335e-11 -1.850807e-11 -2.296388e-11 -2.476369e-11 -2.941037e-11 -3.195402e-11 -3.709817e-11 -4.039392e-11 -4.618124e-11 -5.043780e-11 -5.705570e-11 -6.235779e-11 -7.011008e-11 -7.662153e-11 -8.579120e-11 -9.397786e-11 -1.049435e-10 -1.148915e-10 -1.280017e-10 -1.401898e-10 -1.560729e-10 -1.709751e-10 -1.901308e-10 -2.082971e-10 -2.314312e-10 -2.535619e-10 -2.816620e-10 -3.086194e-10 -3.427070e-10 -3.754550e-10 -4.169215e-10 -4.567912e-10 -5.071287e-10 -5.556649e-10 -6.167771e-10 -6.758878e-10 -7.501933e-10 -8.220794e-10 -9.125276e-10 -1.000025e-09 -1.109933e-09 -1.216331e-09 -1.349939e-09 -1.479316e-09 -1.641734e-09 -1.799170e-09 -1.996686e-09 -2.188241e-09 -2.428422e-09 -2.661480e-09 -2.953476e-09 -3.236905e-09 -3.591950e-09 -3.936805e-09 -4.368596e-09 -4.788062e-09 -5.313249e-09 -5.823508e-09 -6.462067e-09 -7.082853e-09 -7.859583e-09 -8.614835e-09 -9.559364e-09 -1.047829e-08 -1.162713e-08 -1.274510e-08 -1.414242e-08 -1.550278e-08 -1.720250e-08 -1.885781e-08 -2.092536e-08 -2.293974e-08 -2.545520e-08 -2.790691e-08 -3.096735e-08 -3.395155e-08 -3.767562e-08 -4.130841e-08 -4.584069e-08 -5.026395e-08 -5.578096e-08 -6.116762e-08 -6.788470e-08 -7.444642e-08 -8.262705e-08 -9.062246e-08 -1.005886e-07 -1.103347e-07 -1.224811e-07 -1.343663e-07 -1.491772e-07 -1.636790e-07 -1.817495e-07 -1.994557e-07 -2.215190e-07 -2.431544e-07 -2.701160e-07 -2.965784e-07 -3.295602e-07 -3.619636e-07 -4.023606e-07 -4.420944e-07 -4.916488e-07 -5.404532e-07 -6.013520e-07 -6.614188e-07 -7.364230e-07 -8.105306e-07 -9.031501e-07 -9.948461e-07 -1.109577e-06 -1.223429e-06 -1.366080e-06 -1.508024e-06 -1.686179e-06 -1.864009e-06 -2.087671e-06 -2.311744e-06 -2.594269e-06 -2.878516e-06 -3.237976e-06 -3.601400e-06 -4.062589e-06 -4.531492e-06 -5.128951e-06 -5.740318e-06 -6.522957e-06 -7.329680e-06 -8.367965e-06 -9.447053e-06 -1.084441e-05 -1.231017e-05 -1.422145e-05 -1.624712e-05 -1.890925e-05 -2.176337e-05 -2.554750e-05 -2.965678e-05 -3.515969e-05 -4.122119e-05 -4.943094e-05 -5.861923e-05 -7.122678e-05 -8.559286e-05 -1.056054e-04 -1.288841e-04 -1.619023e-04 -2.012614e-04 -2.583615e-04 -3.285903e-04 -4.336471e-04 -5.687492e-04 -7.801465e-04 -1.070917e-03 -1.555584e-03 -2.285393e-03 -3.590798e-03 -5.745314e-03 -9.822245e-03 -1.703981e-02 -3.126273e-02 -5.793396e-02 -1.131055e-01 -2.236062e-01 -4.660316e-01 -9.557988e-01 -1.824128e+00 -1.047486e-01 
-2.044905e+00 -1.191785e-02 -1.607174e+00 -1.592747e+00 -1.311207e+00 -1.213346e+00 -1.030926e+00 -8.213521e-01 -6.344746e-01 -4.793755e-01 -3.556390e-01 -2.581703e-01 -1.826345e-01 -1.254058e-01 -8.309037e-02 -5.292830e-02 -3.210152e-02 -1.838957e-02 -9.694547e-03 -4.514163e-03 -1.575010e-03 -6.946732e-05 6.274064e-04 8.578173e-04 8.711589e-04 7.786770e-04 6.598510e-04 5.395621e-04 4.346676e-04 3.479703e-04 2.765154e-04 2.222568e-04 1.761928e-04 1.437866e-04 1.140184e-04 9.510140e-05 7.570654e-05 6.488176e-05 5.241087e-05 4.625086e-05 3.864261e-05 3.492010e-05 3.081298e-05 2.809355e-05 2.649195e-05 2.392071e-05 2.406070e-05 2.121148e-05 2.250382e-05 1.924148e-05 2.123008e-05 1.759068e-05 1.991342e-05 1.601875e-05 1.838017e-05 1.438956e-05 1.655239e-05 1.263924e-05 1.443036e-05 1.076639e-05 1.208500e-05 8.822818e-06 9.640481e-06 6.895206e-06 7.244512e-06 5.080406e-06 5.035577e-06 3.462452e-06 3.117842e-06 2.097539e-06 1.549257e-06 1.009036e-06 3.424581e-07 1.908078e-07 -5.256864e-07 -3.846511e-07 -1.101024e-06 -7.568050e-07 -1.439632e-06 -9.688720e-07 -1.598197e-06 -1.061976e-06 -1.627888e-06 -1.071777e-06 -1.571343e-06 -1.027109e-06 -1.461913e-06 -9.499853e-07 -1.324290e-06 -8.563638e-07 -1.175821e-06 -7.572326e-07 -1.028021e-06 -6.597351e-07 -8.880178e-07 -5.681801e-07 -7.597844e-07 -4.848757e-07 -6.451224e-07 -4.107775e-07 -5.444102e-07 -3.459705e-07 -4.571454e-07 -2.900140e-07 -3.823255e-07 -2.421791e-07 -3.187052e-07 -2.016062e-07 -2.649626e-07 -1.674063e-07 -2.198024e-07 -1.387214e-07 -1.820141e-07 -1.147579e-07 -1.505021e-07 -9.480320e-08 -1.242968e-07 -7.822996e-08 -1.025535e-07 -6.449443e-08 -8.454576e-08 -5.313034e-08 -6.965377e-08 -4.374141e-08 -5.735375e-08 -3.599321e-08 -4.720469e-08 -2.960530e-08 -3.883739e-08 -2.434268e-08 -3.194357e-08 -2.000980e-08 -2.626687e-08 -1.644436e-08 -2.159456e-08 -1.351167e-08 -1.775038e-08 -1.110022e-08 -1.458844e-08 -9.117950e-09 -1.198849e-08 -7.488927e-09 -9.850970e-09 -6.150410e-09 -8.093883e-09 -5.050777e-09 -6.649851e-09 -4.147441e-09 -5.463064e-09 -3.405495e-09 -4.487977e-09 -2.796173e-09 -3.686704e-09 -2.295744e-09 -3.028443e-09 -1.884944e-09 -2.487655e-09 -1.547528e-09 -2.043373e-09 -1.270521e-09 -1.678449e-09 -1.043054e-09 -1.378683e-09 -8.563449e-10 -1.132491e-09 -7.031783e-10 -9.302880e-10 -5.773476e-10 -7.642567e-10 -4.740695e-10 -6.278477e-10 -3.893686e-10 -5.158192e-10 -3.197642e-10 -4.238959e-10 -2.627259e-10 -3.483454e-10 -2.159121e-10 -2.864058e-10 -1.775763e-10 -2.356227e-10 -1.461339e-10 -1.939416e-10 -1.203544e-10 -1.597525e-10 -9.943689e-11 -1.318421e-10 -8.223529e-11 -1.090077e-10 -6.841360e-11 -9.045760e-11 -5.708133e-11 -7.536900e-11 -4.800232e-11 -6.318938e-11 -4.085502e-11 -5.356616e-11 -3.538076e-11 -4.604127e-11 -3.122847e-11 -4.021240e-11 -2.824159e-11 -3.598769e-11 -2.638938e-11 -3.307949e-11 -2.551494e-11 -3.155201e-11 -2.573423e-11 -3.113740e-11 -2.686186e-11 -3.201085e-11 -2.901695e-11 -3.409202e-11 -3.239755e-11 -3.752175e-11 -3.703427e-11 -4.247646e-11 -4.301791e-11 -4.898277e-11 -5.069662e-11 -5.733769e-11 -6.035660e-11 -6.797863e-11 -7.227746e-11 -8.112807e-11 -8.696003e-11 -9.744250e-11 -1.049483e-10 -1.174774e-10 -1.270321e-10 -1.420725e-10 -1.540245e-10 -1.721737e-10 -1.870290e-10 -2.089110e-10 -2.271579e-10 -2.535598e-10 -2.759648e-10 -3.080414e-10 -3.354136e-10 -3.742935e-10 -4.076982e-10 -4.548320e-10 -4.955638e-10 -5.528948e-10 -6.025846e-10 -6.722268e-10 -7.326000e-10 -8.172379e-10 -8.907945e-10 -9.936820e-10 -1.083242e-09 -1.208276e-09 -1.317178e-09 -1.469281e-09 -1.601884e-09 -1.786749e-09 -1.948038e-09 -2.172842e-09 -2.368914e-09 -2.642214e-09 -2.880832e-09 -3.213132e-09 -3.503413e-09 -3.907458e-09 -4.260447e-09 -4.751690e-09 -5.181115e-09 -5.778398e-09 -6.300724e-09 -7.027096e-09 -7.662380e-09 -8.545717e-09 -9.318500e-09 -1.039257e-08 -1.133263e-08 -1.263888e-08 -1.378247e-08 -1.537095e-08 -1.676213e-08 -1.869398e-08 -2.038645e-08 -2.273587e-08 -2.479507e-08 -2.765266e-08 -3.015817e-08 -3.363391e-08 -3.668277e-08 -4.091082e-08 -4.462118e-08 -4.976491e-08 -5.428082e-08 -6.053920e-08 -6.603641e-08 -7.365199e-08 -8.034507e-08 -8.961381e-08 -9.776443e-08 -1.090477e-07 -1.189760e-07 -1.327151e-07 -1.448127e-07 -1.615473e-07 -1.762940e-07 -1.966846e-07 -2.146691e-07 -2.395258e-07 -2.614714e-07 -2.917889e-07 -3.185867e-07 -3.555893e-07 -3.883395e-07 -4.335373e-07 -4.736026e-07 -5.288639e-07 -5.779381e-07 -6.455824e-07 -7.057794e-07 -7.886979e-07 -8.626697e-07 -9.644833e-07 -1.055575e-06 -1.180844e-06 -1.293303e-06 -1.447806e-06 -1.587068e-06 -1.778185e-06 -1.951262e-06 -2.188493e-06 -2.404521e-06 -2.700215e-06 -2.971223e-06 -3.341601e-06 -3.683612e-06 -4.150232e-06 -4.584865e-06 -5.176749e-06 -5.733574e-06 -6.490342e-06 -7.210408e-06 -8.186972e-06 -9.128156e-06 -1.040187e-05 -1.164715e-05 -1.332888e-05 -1.499938e-05 -1.725106e-05 -1.952692e-05 -2.258982e-05 -2.574453e-05 -2.998611e-05 -3.444416e-05 -4.043743e-05 -4.687402e-05 -5.553626e-05 -6.505468e-05 -7.789774e-05 -9.235643e-05 -1.119554e-04 -1.345952e-04 -1.655050e-04 -2.022107e-04 -2.528566e-04 -3.148581e-04 -4.017380e-04 -5.119429e-04 -6.700403e-04 -8.799414e-04 -1.192484e-03 -1.634359e-03 -2.329685e-03 -3.394598e-03 -5.181040e-03 -8.137245e-03 -1.334427e-02 -2.240804e-02 -3.870340e-02 -6.772526e-02 -1.199464e-01 -2.138166e-01 -3.799716e-01 -6.686565e-01 -1.134493e+00 -2.101419e+00 
4.870259e-01 3.194460e-03 6.489038e-01 6.881249e-01 -2.846517e-01 -6.206919e-01 -6.963986e-01 -6.528936e-01 -5.632374e-01 -4.605252e-01 -3.614433e-01 -2.735876e-01 -1.996580e-01 -1.405365e-01 -9.500430e-02 -6.162333e-02 -3.801913e-02 -2.219859e-02 -1.198547e-02 -5.803594e-03 -2.225357e-03 -3.463639e-04 5.618383e-04 8.980921e-04 9.603281e-04 8.843325e-04 7.662926e-04 6.407049e-04 5.270969e-04 4.331360e-04 3.532632e-04 2.934992e-04 2.404685e-04 2.038657e-04 1.679165e-04 1.451117e-04 1.197176e-04 1.046624e-04 8.620537e-05 7.529620e-05 6.191291e-05 5.310849e-05 4.379792e-05 3.601687e-05 3.010632e-05 2.283414e-05 1.973367e-05 1.277268e-05 1.191258e-05 5.236595e-06 6.085647e-06 -2.324375e-07 1.859100e-06 -3.965168e-06 -1.031496e-06 -6.195181e-06 -2.771949e-06 -7.118816e-06 -3.528389e-06 -6.955060e-06 -3.490062e-06 -5.973076e-06 -2.879536e-06 -4.477818e-06 -1.932818e-06 -2.768586e-06 -8.661564e-07 -1.095480e-06 1.519140e-07 3.672938e-07 1.012925e-06 1.525774e-06 1.665248e-06 2.353628e-06 2.101299e-06 2.871738e-06 2.341903e-06 3.127685e-06 2.422347e-06 3.179330e-06 2.382092e-06 3.083752e-06 2.258323e-06 2.891032e-06 2.082624e-06 2.641648e-06 1.879842e-06 2.366201e-06 1.668282e-06 2.086429e-06 1.460568e-06 1.816770e-06 1.264766e-06 1.566013e-06 1.085482e-06 1.338803e-06 9.248410e-07 1.136900e-06 7.832713e-07 9.601510e-07 6.601146e-07 8.072280e-07 5.540697e-07 6.761447e-07 4.635056e-07 5.646167e-07 3.866728e-07 4.702957e-07 3.218387e-07 3.909154e-07 2.673686e-07 3.243742e-07 2.217693e-07 2.687763e-07 1.837082e-07 2.224458e-07 1.520155e-07 1.839222e-07 1.256784e-07 1.519476e-07 1.038274e-07 1.254480e-07 8.572308e-08 1.035127e-07 7.073965e-08 8.537392e-08 5.835056e-08 7.038680e-08 4.811443e-08 5.801247e-08 3.966247e-08 4.780130e-08 3.268749e-08 3.937898e-08 2.693372e-08 3.243481e-08 2.218906e-08 2.671127e-08 1.827768e-08 2.199496e-08 1.505412e-08 1.810962e-08 1.239787e-08 1.490938e-08 1.020954e-08 1.227377e-08 8.406893e-09 1.010355e-08 6.922221e-09 8.316656e-09 5.699450e-09 6.845508e-09 4.692544e-09 5.634421e-09 3.863321e-09 4.637361e-09 3.180606e-09 3.816749e-09 2.618475e-09 3.141330e-09 2.155635e-09 2.585322e-09 1.774546e-09 2.127624e-09 1.460709e-09 1.750860e-09 1.202394e-09 1.440797e-09 9.897069e-10 1.185639e-09 8.145503e-10 9.756174e-10 6.703742e-10 8.027331e-10 5.516626e-10 6.603926e-10 4.538894e-10 5.432514e-10 3.733032e-10 4.466933e-10 3.068736e-10 3.670911e-10 2.520643e-10 3.016285e-10 2.069555e-10 2.475094e-10 1.696258e-10 2.029319e-10 1.387824e-10 1.660564e-10 1.131177e-10 1.354080e-10 9.179652e-11 1.100617e-10 7.398861e-11 8.880353e-11 5.889144e-11 7.089107e-11 4.605924e-11 5.567588e-11 3.501603e-11 4.266337e-11 2.523738e-11 3.123164e-11 1.648228e-11 2.097211e-11 8.348714e-12 1.152265e-11 5.152471e-13 2.494301e-12 -7.315778e-12 -6.449300e-12 -1.549033e-11 -1.572652e-11 -2.431676e-11 -2.560677e-11 -3.409225e-11 -3.649208e-11 -4.512758e-11 -4.873403e-11 -5.794936e-11 -6.289163e-11 -7.298271e-11 -7.945195e-11 -9.070203e-11 -9.895402e-11 -1.119964e-10 -1.223416e-10 -1.375718e-10 -1.504907e-10 -1.684695e-10 -1.843534e-10 -2.058858e-10 -2.254636e-10 -2.512815e-10 -2.752307e-10 -3.062795e-10 -3.354243e-10 -3.730389e-10 -4.085749e-10 -4.540726e-10 -4.974454e-10 -5.525478e-10 -6.053910e-10 -6.723005e-10 -7.366396e-10 -8.179029e-10 -8.961512e-10 -9.948157e-10 -1.090081e-09 -1.210019e-09 -1.325942e-09 -1.471780e-09 -1.612748e-09 -1.790010e-09 -1.961519e-09 -2.177113e-09 -2.385862e-09 -2.647935e-09 -2.901821e-09 -3.220436e-09 -3.529287e-09 -3.916694e-09 -4.292436e-09 -4.763522e-09 -5.220485e-09 -5.793338e-09 -6.349323e-09 -7.045900e-09 -7.722147e-09 -8.569239e-09 -9.391993e-09 -1.042206e-08 -1.142296e-08 -1.267568e-08 -1.389329e-08 -1.541679e-08 -1.689823e-08 -1.875107e-08 -2.055335e-08 -2.280680e-08 -2.499965e-08 -2.774042e-08 -3.040854e-08 -3.374223e-08 -3.698886e-08 -4.104416e-08 -4.499503e-08 -4.992841e-08 -5.473667e-08 -6.073880e-08 -6.659116e-08 -7.389458e-08 -8.101871e-08 -8.990673e-08 -9.858040e-08 -1.093987e-07 -1.199610e-07 -1.331317e-07 -1.459969e-07 -1.620356e-07 -1.777103e-07 -1.972477e-07 -2.163520e-07 -2.401603e-07 -2.634546e-07 -2.924808e-07 -3.208984e-07 -3.563059e-07 -3.909950e-07 -4.342156e-07 -4.765921e-07 -5.293931e-07 -5.812072e-07 -6.457756e-07 -7.091983e-07 -7.882505e-07 -8.659848e-07 -9.629082e-07 -1.058335e-06 -1.177374e-06 -1.294743e-06 -1.441248e-06 -1.585935e-06 -1.766688e-06 -1.945542e-06 -2.169210e-06 -2.391021e-06 -2.668772e-06 -2.944929e-06 -3.291285e-06 -3.636691e-06 -4.070739e-06 -4.505111e-06 -5.052230e-06 -5.601976e-06 -6.296335e-06 -6.997292e-06 -7.885527e-06 -8.787027e-06 -9.933726e-06 -1.110471e-05 -1.260073e-05 -1.413912e-05 -1.611440e-05 -1.816168e-05 -2.080538e-05 -2.356975e-05 -2.716243e-05 -3.095633e-05 -3.592260e-05 -4.122479e-05 -4.822146e-05 -5.578257e-05 -6.584992e-05 -7.687652e-05 -9.170587e-05 -1.081919e-04 -1.306140e-04 -1.559581e-04 -1.908690e-04 -2.310757e-04 -2.872772e-04 -3.534307e-04 -4.475542e-04 -5.614158e-04 -7.273028e-04 -9.359638e-04 -1.251018e-03 -1.672289e-03 -2.343253e-03 -3.321841e-03 -4.979912e-03 -7.623530e-03 -1.229546e-02 -2.017145e-02 -3.416381e-02 -5.808566e-02 -9.947177e-02 -1.687449e-01 -2.795633e-01 -4.377781e-01 -5.408449e-01 2.801436e-01 