# vtk DataFile Version 2.0
Comment goes here
ASCII

DATASET STRUCTURED_POINTS
FIELD FieldData 1
TIME 1 1 double
1.62500000
DIMENSIONS    384   64   1

ORIGIN    0.000   0.000   0.000
SPACING   0.078125 0.078125   1.000

POINT_DATA   24576
SCALARS uMag double
LOOKUP_TABLE default

4.099890e+00 4.192406e+00 4.099757e+00 4.197183e+00 4.280251e+00 4.368006e+00 4.415662e+00 4.460398e+00 4.483505e+00 4.507593e+00 4.521722e+00 4.537472e+00 4.548777e+00 4.560789e+00 4.571361e+00 4.581716e+00 4.592656e+00 4.602629e+00 4.614590e+00 4.624926e+00 4.638225e+00 4.649333e+00 4.664094e+00 4.676204e+00 4.692445e+00 4.705673e+00 4.723322e+00 4.737683e+00 4.756576e+00 4.771984e+00 4.791859e+00 4.808128e+00 4.828631e+00 4.845478e+00 4.866176e+00 4.883232e+00 4.903640e+00 4.920476e+00 4.940098e+00 4.956260e+00 4.974639e+00 4.989693e+00 5.006455e+00 5.020030e+00 5.034921e+00 5.046742e+00 5.059638e+00 5.069542e+00 5.080445e+00 5.088377e+00 5.097393e+00 5.103396e+00 5.110697e+00 5.114886e+00 5.120677e+00 5.123214e+00 5.127703e+00 5.128773e+00 5.132156e+00 5.131953e+00 5.134405e+00 5.133120e+00 5.134791e+00 5.132598e+00 5.133610e+00 5.130655e+00 5.131092e+00 5.127478e+00 5.127378e+00 5.123154e+00 5.122506e+00 5.117666e+00 5.116417e+00 5.110911e+00 5.108973e+00 5.102722e+00 5.099999e+00 5.092915e+00 5.089315e+00 5.081326e+00 5.076783e+00 5.067844e+00 5.062328e+00 5.052431e+00 5.045953e+00 5.035130e+00 5.027743e+00 5.016065e+00 5.007856e+00 4.995425e+00 4.986512e+00 4.973455e+00 4.963978e+00 4.950443e+00 4.940555e+00 4.926700e+00 4.916564e+00 4.902552e+00 4.892333e+00 4.878324e+00 4.868180e+00 4.854329e+00 4.844411e+00 4.830859e+00 4.821301e+00 4.808173e+00 4.799090e+00 4.786492e+00 4.777981e+00 4.765997e+00 4.758133e+00 4.746827e+00 4.739664e+00 4.729080e+00 4.722649e+00 4.712810e+00 4.707129e+00 4.698040e+00 4.693104e+00 4.684755e+00 4.680548e+00 4.672915e+00 4.669407e+00 4.662453e+00 4.659604e+00 4.653286e+00 4.651047e+00 4.645315e+00 4.643635e+00 4.638434e+00 4.637258e+00 4.632533e+00 4.631805e+00 4.627502e+00 4.627170e+00 4.623236e+00 4.623248e+00 4.619635e+00 4.619944e+00 4.616607e+00 4.617173e+00 4.614071e+00 4.614854e+00 4.611953e+00 4.612920e+00 4.610189e+00 4.611311e+00 4.608722e+00 4.609975e+00 4.607505e+00 4.608866e+00 4.606496e+00 4.607949e+00 4.605662e+00 4.607190e+00 4.604972e+00 4.606564e+00 4.604402e+00 4.606046e+00 4.603932e+00 4.605619e+00 4.603545e+00 4.605267e+00 4.603225e+00 4.604977e+00 4.602962e+00 4.604738e+00 4.602745e+00 4.604542e+00 4.602567e+00 4.604380e+00 4.602420e+00 4.604246e+00 4.602299e+00 4.604137e+00 4.602199e+00 4.604046e+00 4.602117e+00 4.603972e+00 4.602050e+00 4.603911e+00 4.601994e+00 4.603861e+00 4.601949e+00 4.603819e+00 4.601911e+00 4.603785e+00 4.601881e+00 4.603757e+00 4.601855e+00 4.603734e+00 4.601834e+00 4.603716e+00 4.601817e+00 4.603700e+00 4.601803e+00 4.603687e+00 4.601791e+00 4.603677e+00 4.601782e+00 4.603668e+00 4.601774e+00 4.603661e+00 4.601768e+00 4.603655e+00 4.601762e+00 4.603650e+00 4.601758e+00 4.603646e+00 4.601754e+00 4.603643e+00 4.601751e+00 4.603640e+00 4.601749e+00 4.603638e+00 4.601747e+00 4.603636e+00 4.601745e+00 4.603635e+00 4.601744e+00 4.603634e+00 4.601743e+00 4.603633e+00 4.601742e+00 4.603632e+00 4.601741e+00 4.603631e+00 4.601741e+00 4.603631e+00 4.601740e+00 4.603630e+00 4.601740e+00 4.603630e+00 4.601739e+00 4.603629e+00 4.601739e+00 4.603629e+00 4.601739e+00 4.603629e+00 4.601739e+00 4.603629e+00 4.601739e+00 4.603629e+00 4.601738e+00 4.603629e+00 4.601738e+00 4.603628e+00 4.601738e+00 4.603628e+00 4.601738e+00 4.603628e+00 4.601738e+00 4.603628e+00 4.601738e+00 4.603628e+00 4.601738e+00 4.603628e+00 4.601738e+00 4.603628e+00 4.601738e+00 4.603628e+00 4.601738e+00 4.603628e+00 4.601738e+00 4.603628e+00 4.601738e+00 4.603628e+00 4.601738e+00 4.603628e+00 4.601738e+00 4.603628e+00 4.601737e+00 4.603627e+00 4.601737e+00 4.603627e+00 4.601737e+00 4.603627e+00 4.601737e+00 4.603627e+00 4.601737e+00 4.603627e+00 4.601737e+00 4.603627e+00 4.601736e+00 4.603626e+00 4.601736e+00 4.603626e+00 4.601736e+00 4.603625e+00 4.601735e+00 4.603625e+00 4.601735e+00 4.603624e+00 4.601734e+00 4.603623e+00 4.601733e+00 4.603622e+00 4.601732e+00 4.603621e+00 4.601731e+00 4.603619e+00 4.601729e+00 4.603618e+00 4.601728e+00 4.603615e+00 4.601725e+00 4.603613e+00 4.601723e+00 4.603609e+00 4.601719e+00 4.603605e+00 4.601715e+00 4.603600e+00 4.601711e+00 4.603594e+00 4.601705e+00 4.603587e+00 4.601698e+00 4.603578e+00 4.601689e+00 4.603568e+00 4.601678e+00 4.603554e+00 4.601665e+00 4.603538e+00 4.601650e+00 4.603519e+00 4.601631e+00 4.603495e+00 4.601607e+00 4.603467e+00 4.601579e+00 4.603432e+00 4.601544e+00 4.603389e+00 4.601502e+00 4.603337e+00 4.601451e+00 4.603273e+00 4.601388e+00 4.603195e+00 4.601311e+00 4.603100e+00 4.601216e+00 4.602983e+00 4.601101e+00 4.602840e+00 4.600959e+00 4.602664e+00 4.600784e+00 4.602448e+00 4.600567e+00 4.602181e+00 4.600299e+00 4.601849e+00 4.599966e+00 4.601437e+00 4.599548e+00 4.600920e+00 4.599021e+00 4.600269e+00 4.598351e+00 4.599442e+00 4.597490e+00 4.598378e+00 4.596367e+00 4.596991e+00 4.594874e+00 4.595149e+00 4.592840e+00 4.592639e+00 4.589969e+00 4.589098e+00 4.585704e+00 4.583836e+00 4.578847e+00 4.575375e+00 4.566377e+00 4.559968e+00 4.539112e+00 4.526260e+00 4.463955e+00 4.433826e+00 4.205444e+00 
4.607171e+00 4.600326e+00 4.607182e+00 4.599336e+00 4.576840e+00 4.565232e+00 4.561331e+00 4.558050e+00 4.563203e+00 4.563487e+00 4.572298e+00 4.574085e+00 4.584509e+00 4.586979e+00 4.598354e+00 4.601500e+00 4.613935e+00 4.618074e+00 4.631806e+00 4.637179e+00 4.652341e+00 4.659073e+00 4.675719e+00 4.683874e+00 4.702011e+00 4.711611e+00 4.731191e+00 4.742200e+00 4.763095e+00 4.775400e+00 4.797388e+00 4.810784e+00 4.833546e+00 4.847732e+00 4.870858e+00 4.885449e+00 4.908466e+00 4.923013e+00 4.945423e+00 4.959456e+00 4.980791e+00 4.993863e+00 5.013725e+00 5.025453e+00 5.043551e+00 5.053642e+00 5.069807e+00 5.078072e+00 5.092250e+00 5.098603e+00 5.110834e+00 5.115270e+00 5.125661e+00 5.128237e+00 5.136927e+00 5.137737e+00 5.144879e+00 5.144046e+00 5.149791e+00 5.147463e+00 5.151971e+00 5.148317e+00 5.151751e+00 5.146959e+00 5.149486e+00 5.143744e+00 5.145517e+00 5.138994e+00 5.140137e+00 5.132959e+00 5.133550e+00 5.125789e+00 5.125851e+00 5.117522e+00 5.117028e+00 5.108097e+00 5.106983e+00 5.097382e+00 5.095565e+00 5.085215e+00 5.082614e+00 5.071446e+00 5.068000e+00 5.055973e+00 5.051656e+00 5.038764e+00 5.033591e+00 5.019872e+00 5.013899e+00 4.999430e+00 4.992754e+00 4.977646e+00 4.970393e+00 4.954784e+00 4.947103e+00 4.931152e+00 4.923205e+00 4.907075e+00 4.899029e+00 4.882886e+00 4.874906e+00 4.858909e+00 4.851147e+00 4.835441e+00 4.828036e+00 4.812751e+00 4.805820e+00 4.791063e+00 4.784706e+00 4.770564e+00 4.764855e+00 4.751392e+00 4.746386e+00 4.733646e+00 4.729377e+00 4.717383e+00 4.713864e+00 4.702622e+00 4.699851e+00 4.689350e+00 4.687310e+00 4.677525e+00 4.676184e+00 4.667080e+00 4.666398e+00 4.657931e+00 4.657860e+00 4.649978e+00 4.650466e+00 4.643114e+00 4.644106e+00 4.637230e+00 4.638669e+00 4.632214e+00 4.634049e+00 4.627963e+00 4.630141e+00 4.624374e+00 4.626850e+00 4.621359e+00 4.624089e+00 4.618833e+00 4.621780e+00 4.616723e+00 4.619854e+00 4.614967e+00 4.618252e+00 4.613506e+00 4.616922e+00 4.612294e+00 4.615819e+00 4.611291e+00 4.614905e+00 4.610460e+00 4.614150e+00 4.609774e+00 4.613527e+00 4.609207e+00 4.613012e+00 4.608739e+00 4.612587e+00 4.608353e+00 4.612237e+00 4.608035e+00 4.611948e+00 4.607773e+00 4.611710e+00 4.607558e+00 4.611514e+00 4.607380e+00 4.611353e+00 4.607234e+00 4.611221e+00 4.607113e+00 4.611111e+00 4.607014e+00 4.611022e+00 4.606933e+00 4.610948e+00 4.606866e+00 4.610887e+00 4.606811e+00 4.610837e+00 4.606765e+00 4.610796e+00 4.606728e+00 4.610762e+00 4.606697e+00 4.610734e+00 4.606672e+00 4.610711e+00 4.606651e+00 4.610692e+00 4.606634e+00 4.610677e+00 4.606620e+00 4.610664e+00 4.606608e+00 4.610654e+00 4.606599e+00 4.610645e+00 4.606591e+00 4.610638e+00 4.606585e+00 4.610632e+00 4.606579e+00 4.610627e+00 4.606575e+00 4.610623e+00 4.606572e+00 4.610620e+00 4.606569e+00 4.610617e+00 4.606566e+00 4.610615e+00 4.606564e+00 4.610613e+00 4.606563e+00 4.610612e+00 4.606561e+00 4.610611e+00 4.606560e+00 4.610610e+00 4.606559e+00 4.610609e+00 4.606559e+00 4.610608e+00 4.606558e+00 4.610608e+00 4.606557e+00 4.610607e+00 4.606557e+00 4.610607e+00 4.606557e+00 4.610607e+00 4.606556e+00 4.610606e+00 4.606556e+00 4.610606e+00 4.606556e+00 4.610606e+00 4.606556e+00 4.610606e+00 4.606556e+00 4.610606e+00 4.606556e+00 4.610606e+00 4.606555e+00 4.610605e+00 4.606555e+00 4.610605e+00 4.606555e+00 4.610605e+00 4.606555e+00 4.610605e+00 4.606555e+00 4.610605e+00 4.606555e+00 4.610605e+00 4.606555e+00 4.610605e+00 4.606555e+00 4.610605e+00 4.606555e+00 4.610605e+00 4.606555e+00 4.610605e+00 4.606555e+00 4.610605e+00 4.606555e+00 4.610605e+00 4.606555e+00 4.610605e+00 4.606555e+00 4.610605e+00 4.606555e+00 4.610605e+00 4.606555e+00 4.610605e+00 4.606555e+00 4.610605e+00 4.606555e+00 4.610605e+00 4.606555e+00 4.610605e+00 4.606555e+00 4.610605e+00 4.606555e+00 4.610605e+00 4.606555e+00 4.610605e+00 4.606555e+00 4.610605e+00 4.606555e+00 4.610605e+00 4.606555e+00 4.610605e+00 4.606555e+00 4.610605e+00 4.606555e+00 4.610605e+00 4.606554e+00 4.610605e+00 4.606554e+00 4.610605e+00 4.606554e+00 4.610605e+00 4.606554e+00 4.610604e+00 4.606554e+00 4.610604e+00 4.606554e+00 4.610604e+00 4.606553e+00 4.610604e+00 4.606553e+00 4.610604e+00 4.606552e+00 4.610603e+00 4.606552e+00 4.610603e+00 4.606551e+00 4.610603e+00 4.606550e+00 4.610602e+00 4.606549e+00 4.610601e+00 4.606548e+00 4.610601e+00 4.606546e+00 4.610600e+00 4.606544e+00 4.610598e+00 4.606542e+00 4.610597e+00 4.606539e+00 4.610595e+00 4.606536e+00 4.610593e+00 4.606532e+00 4.610591e+00 4.606527e+00 4.610588e+00 4.606521e+00 4.610584e+00 4.606513e+00 4.610580e+00 4.606504e+00 4.610574e+00 4.606493e+00 4.610567e+00 4.606479e+00 4.610559e+00 4.606463e+00 4.610549e+00 4.606442e+00 4.610537e+00 4.606416e+00 4.610522e+00 4.606384e+00 4.610504e+00 4.606344e+00 4.610481e+00 4.606294e+00 4.610452e+00 4.606229e+00 4.610416e+00 4.606145e+00 4.610369e+00 4.606035e+00 4.610310e+00 4.605886e+00 4.610233e+00 4.605679e+00 4.610130e+00 4.605375e+00 4.609992e+00 4.604899e+00 4.609813e+00 4.604087e+00 4.609694e+00 4.602631e+00 4.611203e+00 4.601635e+00 
4.621720e+00 4.616846e+00 4.621781e+00 4.614875e+00 4.573965e+00 4.564260e+00 4.548180e+00 4.550678e+00 4.548294e+00 4.555081e+00 4.558246e+00 4.565790e+00 4.571393e+00 4.578787e+00 4.585902e+00 4.593323e+00 4.601904e+00 4.609791e+00 4.619946e+00 4.628626e+00 4.640409e+00 4.650097e+00 4.663531e+00 4.674386e+00 4.689479e+00 4.701622e+00 4.718346e+00 4.731837e+00 4.750094e+00 4.764906e+00 4.784502e+00 4.800503e+00 4.821131e+00 4.838074e+00 4.859317e+00 4.876846e+00 4.898204e+00 4.915878e+00 4.936812e+00 4.954148e+00 4.974136e+00 4.990655e+00 5.009247e+00 5.024516e+00 5.041371e+00 5.055039e+00 5.069941e+00 5.081754e+00 5.094613e+00 5.104414e+00 5.115236e+00 5.122954e+00 5.131810e+00 5.137437e+00 5.144424e+00 5.147999e+00 5.153222e+00 5.154826e+00 5.158400e+00 5.158158e+00 5.160219e+00 5.158312e+00 5.159032e+00 5.155690e+00 5.155274e+00 5.150757e+00 5.149428e+00 5.143994e+00 5.141960e+00 5.135835e+00 5.133260e+00 5.126606e+00 5.123591e+00 5.116496e+00 5.113072e+00 5.105546e+00 5.101680e+00 5.093674e+00 5.089285e+00 5.080713e+00 5.075702e+00 5.066466e+00 5.060738e+00 5.050758e+00 5.044247e+00 5.033478e+00 5.026162e+00 5.014605e+00 5.006510e+00 4.994216e+00 4.985417e+00 4.972480e+00 4.963091e+00 4.949642e+00 4.939808e+00 4.926002e+00 4.915887e+00 4.901891e+00 4.891666e+00 4.877650e+00 4.867484e+00 4.853612e+00 4.843662e+00 4.830083e+00 4.820492e+00 4.807338e+00 4.798227e+00 4.785608e+00 4.777076e+00 4.765079e+00 4.757203e+00 4.745893e+00 4.738726e+00 4.728146e+00 4.721721e+00 4.711894e+00 4.706226e+00 4.697155e+00 4.692240e+00 4.683915e+00 4.679733e+00 4.672128e+00 4.668648e+00 4.661726e+00 4.658908e+00 4.652623e+00 4.650417e+00 4.644718e+00 4.643070e+00 4.637902e+00 4.636757e+00 4.632063e+00 4.631365e+00 4.627092e+00 4.626787e+00 4.622880e+00 4.622917e+00 4.619329e+00 4.619661e+00 4.616346e+00 4.616931e+00 4.613849e+00 4.614650e+00 4.611766e+00 4.612748e+00 4.610031e+00 4.611166e+00 4.608589e+00 4.609853e+00 4.607394e+00 4.608765e+00 4.606404e+00 4.607865e+00 4.605585e+00 4.607121e+00 4.604908e+00 4.606506e+00 4.604350e+00 4.605998e+00 4.603889e+00 4.605580e+00 4.603509e+00 4.605235e+00 4.603195e+00 4.604950e+00 4.602937e+00 4.604716e+00 4.602725e+00 4.604523e+00 4.602550e+00 4.604365e+00 4.602406e+00 4.604234e+00 4.602287e+00 4.604126e+00 4.602190e+00 4.604038e+00 4.602110e+00 4.603965e+00 4.602044e+00 4.603905e+00 4.601989e+00 4.603856e+00 4.601945e+00 4.603816e+00 4.601908e+00 4.603782e+00 4.601878e+00 4.603755e+00 4.601853e+00 4.603732e+00 4.601832e+00 4.603714e+00 4.601816e+00 4.603699e+00 4.601802e+00 4.603686e+00 4.601790e+00 4.603676e+00 4.601781e+00 4.603667e+00 4.601773e+00 4.603660e+00 4.601767e+00 4.603655e+00 4.601762e+00 4.603650e+00 4.601758e+00 4.603646e+00 4.601754e+00 4.603643e+00 4.601751e+00 4.603640e+00 4.601749e+00 4.603638e+00 4.601747e+00 4.603636e+00 4.601745e+00 4.603635e+00 4.601744e+00 4.603634e+00 4.601743e+00 4.603633e+00 4.601742e+00 4.603632e+00 4.601741e+00 4.603631e+00 4.601741e+00 4.603631e+00 4.601740e+00 4.603630e+00 4.601740e+00 4.603630e+00 4.601739e+00 4.603629e+00 4.601739e+00 4.603629e+00 4.601739e+00 4.603629e+00 4.601739e+00 4.603629e+00 4.601739e+00 4.603629e+00 4.601738e+00 4.603629e+00 4.601738e+00 4.603628e+00 4.601738e+00 4.603628e+00 4.601738e+00 4.603628e+00 4.601738e+00 4.603628e+00 4.601738e+00 4.603628e+00 4.601738e+00 4.603628e+00 4.601738e+00 4.603628e+00 4.601738e+00 4.603628e+00 4.601738e+00 4.603628e+00 4.601738e+00 4.603628e+00 4.601738e+00 4.603628e+00 4.601738e+00 4.603628e+00 4.601738e+00 4.603628e+00 4.601737e+00 4.603628e+00 4.601737e+00 4.603627e+00 4.601737e+00 4.603627e+00 4.601737e+00 4.603627e+00 4.601737e+00 4.603627e+00 4.601737e+00 4.603627e+00 4.601736e+00 4.603626e+00 4.601736e+00 4.603626e+00 4.601736e+00 4.603625e+00 4.601735e+00 4.603625e+00 4.601735e+00 4.603624e+00 4.601734e+00 4.603623e+00 4.601733e+00 4.603622e+00 4.601732e+00 4.603621e+00 4.601731e+00 4.603620e+00 4.601730e+00 4.603618e+00 4.601728e+00 4.603616e+00 4.601726e+00 4.603613e+00 4.601723e+00 4.603610e+00 4.601720e+00 4.603606e+00 4.601716e+00 4.603601e+00 4.601711e+00 4.603595e+00 4.601705e+00 4.603588e+00 4.601698e+00 4.603579e+00 4.601690e+00 4.603569e+00 4.601679e+00 4.603556e+00 4.601667e+00 4.603540e+00 4.601651e+00 4.603521e+00 4.601633e+00 4.603498e+00 4.601610e+00 4.603470e+00 4.601582e+00 4.603435e+00 4.601548e+00 4.603393e+00 4.601507e+00 4.603342e+00 4.601456e+00 4.603280e+00 4.601395e+00 4.603204e+00 4.601319e+00 4.603110e+00 4.601227e+00 4.602996e+00 4.601114e+00 4.602857e+00 4.600975e+00 4.602685e+00 4.600804e+00 4.602473e+00 4.600593e+00 4.602213e+00 4.600332e+00 4.601890e+00 4.600007e+00 4.601488e+00 4.599602e+00 4.600987e+00 4.599092e+00 4.600357e+00 4.598446e+00 4.599559e+00 4.597620e+00 4.598539e+00 4.596550e+00 4.597219e+00 4.595144e+00 4.595483e+00 4.593258e+00 4.593156e+00 4.590667e+00 4.589961e+00 4.587002e+00 4.585445e+00 4.581666e+00 4.578878e+00 4.573822e+00 4.569255e+00 4.563288e+00 4.556426e+00 4.557326e+00 4.549345e+00 4.611286e+00 
4.609605e+00 4.605161e+00 4.609595e+00 4.606753e+00 4.621722e+00 4.617634e+00 4.620314e+00 4.613176e+00 4.614749e+00 4.609031e+00 4.612614e+00 4.608972e+00 4.614719e+00 4.612942e+00 4.620673e+00 4.620666e+00 4.630323e+00 4.632058e+00 4.643573e+00 4.646989e+00 4.660286e+00 4.665343e+00 4.680385e+00 4.687090e+00 4.703880e+00 4.712265e+00 4.730799e+00 4.740874e+00 4.761089e+00 4.772799e+00 4.794533e+00 4.807721e+00 4.830692e+00 4.845082e+00 4.868880e+00 4.884081e+00 4.908196e+00 4.923728e+00 4.947597e+00 4.962941e+00 4.986010e+00 5.000654e+00 5.022433e+00 5.035920e+00 5.056027e+00 5.067985e+00 5.086157e+00 5.096315e+00 5.112410e+00 5.120589e+00 5.134562e+00 5.140654e+00 5.152518e+00 5.156462e+00 5.166253e+00 5.168020e+00 5.175782e+00 5.175380e+00 5.181178e+00 5.178675e+00 5.182621e+00 5.178172e+00 5.180452e+00 5.174303e+00 5.175176e+00 5.167643e+00 5.167414e+00 5.158837e+00 5.157816e+00 5.148514e+00 5.146965e+00 5.137191e+00 5.135303e+00 5.125213e+00 5.123078e+00 5.112729e+00 5.110343e+00 5.099700e+00 5.096986e+00 5.085949e+00 5.082784e+00 5.071225e+00 5.067477e+00 5.055275e+00 5.050834e+00 5.037903e+00 5.032707e+00 5.019014e+00 5.013059e+00 4.998629e+00 4.991969e+00 4.976882e+00 4.969621e+00 4.954003e+00 4.946284e+00 4.930291e+00 4.922280e+00 4.906084e+00 4.897957e+00 4.881735e+00 4.873666e+00 4.857588e+00 4.849741e+00 4.833961e+00 4.826481e+00 4.811134e+00 4.804146e+00 4.789344e+00 4.782946e+00 4.768777e+00 4.763048e+00 4.749576e+00 4.744567e+00 4.731835e+00 4.727579e+00 4.715609e+00 4.712118e+00 4.700912e+00 4.698181e+00 4.687727e+00 4.685735e+00 4.676005e+00 4.674720e+00 4.665676e+00 4.665055e+00 4.656650e+00 4.656642e+00 4.648823e+00 4.649374e+00 4.642085e+00 4.643138e+00 4.636322e+00 4.637819e+00 4.631421e+00 4.633309e+00 4.627275e+00 4.629502e+00 4.623783e+00 4.626302e+00 4.620853e+00 4.623622e+00 4.618403e+00 4.621385e+00 4.616360e+00 4.619521e+00 4.614661e+00 4.617972e+00 4.613250e+00 4.616687e+00 4.612080e+00 4.615623e+00 4.611112e+00 4.614743e+00 4.610312e+00 4.614015e+00 4.609651e+00 4.613414e+00 4.609105e+00 4.612919e+00 4.608655e+00 4.612510e+00 4.608283e+00 4.612173e+00 4.607978e+00 4.611896e+00 4.607726e+00 4.611667e+00 4.607518e+00 4.611479e+00 4.607348e+00 4.611324e+00 4.607207e+00 4.611196e+00 4.607091e+00 4.611091e+00 4.606996e+00 4.611005e+00 4.606918e+00 4.610934e+00 4.606853e+00 4.610876e+00 4.606800e+00 4.610828e+00 4.606757e+00 4.610788e+00 4.606721e+00 4.610756e+00 4.606692e+00 4.610729e+00 4.606667e+00 4.610707e+00 4.606647e+00 4.610689e+00 4.606631e+00 4.610674e+00 4.606617e+00 4.610662e+00 4.606606e+00 4.610652e+00 4.606597e+00 4.610643e+00 4.606590e+00 4.610637e+00 4.606584e+00 4.610631e+00 4.606579e+00 4.610626e+00 4.606574e+00 4.610623e+00 4.606571e+00 4.610620e+00 4.606568e+00 4.610617e+00 4.606566e+00 4.610615e+00 4.606564e+00 4.610613e+00 4.606562e+00 4.610612e+00 4.606561e+00 4.610611e+00 4.606560e+00 4.610610e+00 4.606559e+00 4.610609e+00 4.606558e+00 4.610608e+00 4.606558e+00 4.610608e+00 4.606557e+00 4.610607e+00 4.606557e+00 4.610607e+00 4.606557e+00 4.610606e+00 4.606556e+00 4.610606e+00 4.606556e+00 4.610606e+00 4.606556e+00 4.610606e+00 4.606556e+00 4.610606e+00 4.606556e+00 4.610606e+00 4.606556e+00 4.610606e+00 4.606555e+00 4.610605e+00 4.606555e+00 4.610605e+00 4.606555e+00 4.610605e+00 4.606555e+00 4.610605e+00 4.606555e+00 4.610605e+00 4.606555e+00 4.610605e+00 4.606555e+00 4.610605e+00 4.606555e+00 4.610605e+00 4.606555e+00 4.610605e+00 4.606555e+00 4.610605e+00 4.606555e+00 4.610605e+00 4.606555e+00 4.610605e+00 4.606555e+00 4.610605e+00 4.606555e+00 4.610605e+00 4.606555e+00 4.610605e+00 4.606555e+00 4.610605e+00 4.606555e+00 4.610605e+00 4.606555e+00 4.610605e+00 4.606555e+00 4.610605e+00 4.606555e+00 4.610605e+00 4.606555e+00 4.610605e+00 4.606555e+00 4.610605e+00 4.606555e+00 4.610605e+00 4.606555e+00 4.610605e+00 4.606555e+00 4.610605e+00 4.606555e+00 4.610605e+00 4.606555e+00 4.610605e+00 4.606554e+00 4.610605e+00 4.606554e+00 4.610605e+00 4.606554e+00 4.610605e+00 4.606554e+00 4.610604e+00 4.606554e+00 4.610604e+00 4.606554e+00 4.610604e+00 4.606553e+00 4.610604e+00 4.606553e+00 4.610604e+00 4.606552e+00 4.610603e+00 4.606552e+00 4.610603e+00 4.606551e+00 4.610603e+00 4.606550e+00 4.610602e+00 4.606549e+00 4.610601e+00 4.606548e+00 4.610601e+00 4.606547e+00 4.610600e+00 4.606545e+00 4.610599e+00 4.606542e+00 4.610597e+00 4.606540e+00 4.610596e+00 4.606537e+00 4.610594e+00 4.606533e+00 4.610591e+00 4.606528e+00 4.610588e+00 4.606522e+00 4.610585e+00 4.606515e+00 4.610580e+00 4.606506e+00 4.610575e+00 4.606495e+00 4.610569e+00 4.606482e+00 4.610561e+00 4.606466e+00 4.610552e+00 4.606446e+00 4.610540e+00 4.606422e+00 4.610526e+00 4.606392e+00 4.610508e+00 4.606354e+00 4.610486e+00 4.606307e+00 4.610459e+00 4.606247e+00 4.610426e+00 4.606172e+00 4.610384e+00 4.606075e+00 4.610332e+00 4.605949e+00 4.610266e+00 4.605785e+00 4.610185e+00 4.605575e+00 4.610090e+00 4.605322e+00 4.609997e+00 4.605104e+00 4.609962e+00 4.605304e+00 4.609966e+00 4.607503e+00 
4.621102e+00 4.616154e+00 4.621111e+00 4.616085e+00 4.607499e+00 4.605614e+00 4.599531e+00 4.600364e+00 4.597867e+00 4.599968e+00 4.600012e+00 4.602639e+00 4.604670e+00 4.607870e+00 4.611857e+00 4.615974e+00 4.621999e+00 4.627268e+00 4.635291e+00 4.641796e+00 4.651735e+00 4.659548e+00 4.671379e+00 4.680616e+00 4.694372e+00 4.705173e+00 4.720891e+00 4.733369e+00 4.751028e+00 4.765219e+00 4.784690e+00 4.800512e+00 4.821522e+00 4.838751e+00 4.860874e+00 4.879145e+00 4.901825e+00 4.920654e+00 4.943264e+00 4.962102e+00 4.984012e+00 5.002298e+00 5.022947e+00 5.040157e+00 5.059100e+00 5.074787e+00 5.091719e+00 5.105535e+00 5.120291e+00 5.131987e+00 5.144506e+00 5.153909e+00 5.164186e+00 5.171173e+00 5.179209e+00 5.183692e+00 5.189477e+00 5.191415e+00 5.194954e+00 5.194386e+00 5.195754e+00 5.192844e+00 5.192227e+00 5.187273e+00 5.184980e+00 5.178388e+00 5.174810e+00 5.167035e+00 5.162587e+00 5.154068e+00 5.149122e+00 5.140218e+00 5.135055e+00 5.126004e+00 5.120777e+00 5.111682e+00 5.106418e+00 5.097254e+00 5.091871e+00 5.082521e+00 5.076865e+00 5.067162e+00 5.061057e+00 5.050829e+00 5.044119e+00 5.033234e+00 5.025814e+00 5.014200e+00 5.006035e+00 4.993692e+00 4.984816e+00 4.971809e+00 4.962319e+00 4.948769e+00 4.938806e+00 4.924873e+00 4.914609e+00 4.900469e+00 4.890088e+00 4.875925e+00 4.865607e+00 4.851598e+00 4.841513e+00 4.827816e+00 4.818113e+00 4.804867e+00 4.795672e+00 4.782988e+00 4.774402e+00 4.762369e+00 4.754467e+00 4.743149e+00 4.735983e+00 4.725419e+00 4.719020e+00 4.709231e+00 4.703609e+00 4.694595e+00 4.689743e+00 4.681490e+00 4.677384e+00 4.669862e+00 4.666469e+00 4.659637e+00 4.656910e+00 4.650720e+00 4.648608e+00 4.643004e+00 4.641450e+00 4.636375e+00 4.635322e+00 4.630718e+00 4.630106e+00 4.625916e+00 4.625692e+00 4.621862e+00 4.621973e+00 4.618453e+00 4.618852e+00 4.615598e+00 4.616242e+00 4.613215e+00 4.614066e+00 4.611229e+00 4.612256e+00 4.609580e+00 4.610753e+00 4.608211e+00 4.609508e+00 4.607078e+00 4.608477e+00 4.606141e+00 4.607625e+00 4.605366e+00 4.606921e+00 4.604727e+00 4.606340e+00 4.604199e+00 4.605861e+00 4.603764e+00 4.605466e+00 4.603406e+00 4.605141e+00 4.603111e+00 4.604873e+00 4.602867e+00 4.604652e+00 4.602667e+00 4.604471e+00 4.602502e+00 4.604321e+00 4.602367e+00 4.604198e+00 4.602255e+00 4.604097e+00 4.602163e+00 4.604014e+00 4.602088e+00 4.603945e+00 4.602026e+00 4.603889e+00 4.601974e+00 4.603843e+00 4.601932e+00 4.603804e+00 4.601898e+00 4.603773e+00 4.601869e+00 4.603747e+00 4.601846e+00 4.603726e+00 4.601827e+00 4.603709e+00 4.601811e+00 4.603694e+00 4.601798e+00 4.603683e+00 4.601787e+00 4.603673e+00 4.601779e+00 4.603665e+00 4.601771e+00 4.603658e+00 4.601765e+00 4.603653e+00 4.601760e+00 4.603649e+00 4.601756e+00 4.603645e+00 4.601753e+00 4.603642e+00 4.601750e+00 4.603639e+00 4.601748e+00 4.603637e+00 4.601746e+00 4.603636e+00 4.601745e+00 4.603634e+00 4.601744e+00 4.603633e+00 4.601743e+00 4.603632e+00 4.601742e+00 4.603632e+00 4.601741e+00 4.603631e+00 4.601740e+00 4.603630e+00 4.601740e+00 4.603630e+00 4.601740e+00 4.603630e+00 4.601739e+00 4.603629e+00 4.601739e+00 4.603629e+00 4.601739e+00 4.603629e+00 4.601739e+00 4.603629e+00 4.601738e+00 4.603629e+00 4.601738e+00 4.603628e+00 4.601738e+00 4.603628e+00 4.601738e+00 4.603628e+00 4.601738e+00 4.603628e+00 4.601738e+00 4.603628e+00 4.601738e+00 4.603628e+00 4.601738e+00 4.603628e+00 4.601738e+00 4.603628e+00 4.601738e+00 4.603628e+00 4.601738e+00 4.603628e+00 4.601738e+00 4.603628e+00 4.601738e+00 4.603628e+00 4.601738e+00 4.603628e+00 4.601738e+00 4.603628e+00 4.601737e+00 4.603628e+00 4.601737e+00 4.603627e+00 4.601737e+00 4.603627e+00 4.601737e+00 4.603627e+00 4.601737e+00 4.603627e+00 4.601737e+00 4.603627e+00 4.601737e+00 4.603626e+00 4.601736e+00 4.603626e+00 4.601736e+00 4.603626e+00 4.601735e+00 4.603625e+00 4.601735e+00 4.603624e+00 4.601734e+00 4.603624e+00 4.601734e+00 4.603623e+00 4.601733e+00 4.603622e+00 4.601731e+00 4.603620e+00 4.601730e+00 4.603618e+00 4.601728e+00 4.603616e+00 4.601726e+00 4.603614e+00 4.601724e+00 4.603611e+00 4.601721e+00 4.603607e+00 4.601717e+00 4.603602e+00 4.601713e+00 4.603597e+00 4.601707e+00 4.603590e+00 4.601701e+00 4.603582e+00 4.601693e+00 4.603572e+00 4.601683e+00 4.603560e+00 4.601671e+00 4.603545e+00 4.601656e+00 4.603527e+00 4.601639e+00 4.603506e+00 4.601617e+00 4.603479e+00 4.601591e+00 4.603447e+00 4.601559e+00 4.603407e+00 4.601520e+00 4.603359e+00 4.601473e+00 4.603301e+00 4.601415e+00 4.603229e+00 4.601345e+00 4.603142e+00 4.601258e+00 4.603035e+00 4.601153e+00 4.602905e+00 4.601023e+00 4.602745e+00 4.600864e+00 4.602548e+00 4.600669e+00 4.602307e+00 4.600428e+00 4.602009e+00 4.600130e+00 4.601640e+00 4.599760e+00 4.601183e+00 4.599299e+00 4.600614e+00 4.598721e+00 4.599900e+00 4.597994e+00 4.599002e+00 4.597072e+00 4.597863e+00 4.595894e+00 4.596409e+00 4.594384e+00 4.594545e+00 4.592443e+00 4.592151e+00 4.589980e+00 4.589114e+00 4.587004e+00 4.585450e+00 4.583969e+00 4.581713e+00 4.582807e+00 4.580258e+00 4.589446e+00 4.588223e+00 4.615796e+00 