# vtk DataFile Version 2.0
Comment goes here
ASCII

DATASET STRUCTURED_POINTS
FIELD FieldData 1
TIME 1 1 double
0.87500000
DIMENSIONS    384   64   1

ORIGIN    0.000   0.000   0.000
SPACING   0.078125 0.078125   1.000

POINT_DATA   24576
SCALARS uMag double
LOOKUP_TABLE default

1.900779e+00 2.171417e+00 1.900732e+00 2.190068e+00 2.506362e+00 2.772946e+00 2.924042e+00 3.048808e+00 3.111704e+00 3.172578e+00 3.204074e+00 3.238764e+00 3.259702e+00 3.282729e+00 3.300358e+00 3.317733e+00 3.334858e+00 3.349496e+00 3.367397e+00 3.380922e+00 3.400238e+00 3.413599e+00 3.434599e+00 3.448288e+00 3.470953e+00 3.485118e+00 3.509195e+00 3.523715e+00 3.548773e+00 3.563349e+00 3.588854e+00 3.603084e+00 3.628462e+00 3.641906e+00 3.666598e+00 3.678813e+00 3.702304e+00 3.712864e+00 3.734698e+00 3.743204e+00 3.762995e+00 3.769086e+00 3.786530e+00 3.789900e+00 3.804782e+00 3.805204e+00 3.817405e+00 3.814754e+00 3.824257e+00 3.818528e+00 3.825407e+00 3.816719e+00 3.821135e+00 3.809726e+00 3.811908e+00 3.798115e+00 3.798347e+00 3.782577e+00 3.781178e+00 3.763878e+00 3.761186e+00 3.742811e+00 3.739167e+00 3.720151e+00 3.715882e+00 3.696622e+00 3.692032e+00 3.672871e+00 3.668232e+00 3.649453e+00 3.644998e+00 3.626824e+00 3.622744e+00 3.605342e+00 3.601787e+00 3.585269e+00 3.582347e+00 3.566781e+00 3.564563e+00 3.549975e+00 3.548496e+00 3.534879e+00 3.534148e+00 3.521470e+00 3.521469e+00 3.509676e+00 3.510371e+00 3.499397e+00 3.500740e+00 3.490510e+00 3.492446e+00 3.482883e+00 3.485350e+00 3.476377e+00 3.479317e+00 3.470860e+00 3.474213e+00 3.466202e+00 3.469914e+00 3.462287e+00 3.466307e+00 3.459008e+00 3.463290e+00 3.456269e+00 3.460775e+00 3.453988e+00 3.458682e+00 3.452091e+00 3.456944e+00 3.450518e+00 3.455503e+00 3.449215e+00 3.454310e+00 3.448136e+00 3.453324e+00 3.447245e+00 3.452509e+00 3.446509e+00 3.451837e+00 3.445902e+00 3.451282e+00 3.445401e+00 3.450825e+00 3.444988e+00 3.450448e+00 3.444648e+00 3.450137e+00 3.444368e+00 3.449882e+00 3.444137e+00 3.449671e+00 3.443948e+00 3.449498e+00 3.443791e+00 3.449355e+00 3.443663e+00 3.449238e+00 3.443557e+00 3.449142e+00 3.443470e+00 3.449062e+00 3.443398e+00 3.448997e+00 3.443339e+00 3.448943e+00 3.443291e+00 3.448899e+00 3.443251e+00 3.448863e+00 3.443218e+00 3.448833e+00 3.443192e+00 3.448808e+00 3.443169e+00 3.448788e+00 3.443151e+00 3.448772e+00 3.443136e+00 3.448758e+00 3.443124e+00 3.448747e+00 3.443114e+00 3.448738e+00 3.443105e+00 3.448730e+00 3.443099e+00 3.448724e+00 3.443093e+00 3.448719e+00 3.443088e+00 3.448714e+00 3.443085e+00 3.448711e+00 3.443081e+00 3.448708e+00 3.443079e+00 3.448706e+00 3.443077e+00 3.448704e+00 3.443075e+00 3.448702e+00 3.443074e+00 3.448701e+00 3.443072e+00 3.448700e+00 3.443071e+00 3.448699e+00 3.443071e+00 3.448698e+00 3.443070e+00 3.448698e+00 3.443069e+00 3.448697e+00 3.443069e+00 3.448697e+00 3.443069e+00 3.448696e+00 3.443068e+00 3.448696e+00 3.443068e+00 3.448696e+00 3.443068e+00 3.448696e+00 3.443068e+00 3.448695e+00 3.443068e+00 3.448695e+00 3.443067e+00 3.448695e+00 3.443067e+00 3.448695e+00 3.443067e+00 3.448695e+00 3.443067e+00 3.448695e+00 3.443067e+00 3.448695e+00 3.443067e+00 3.448695e+00 3.443067e+00 3.448695e+00 3.443067e+00 3.448695e+00 3.443067e+00 3.448695e+00 3.443067e+00 3.448695e+00 3.443067e+00 3.448695e+00 3.443067e+00 3.448695e+00 3.443067e+00 3.448695e+00 3.443067e+00 3.448695e+00 3.443067e+00 3.448695e+00 3.443067e+00 3.448695e+00 3.443067e+00 3.448695e+00 3.443067e+00 3.448695e+00 3.443067e+00 3.448695e+00 3.443067e+00 3.448695e+00 3.443067e+00 3.448695e+00 3.443067e+00 3.448695e+00 3.443067e+00 3.448695e+00 3.443067e+00 3.448694e+00 3.443067e+00 3.448694e+00 3.443067e+00 3.448694e+00 3.443066e+00 3.448694e+00 3.443066e+00 3.448694e+00 3.443066e+00 3.448694e+00 3.443066e+00 3.448694e+00 3.443066e+00 3.448694e+00 3.443066e+00 3.448693e+00 3.443065e+00 3.448693e+00 3.443065e+00 3.448693e+00 3.443065e+00 3.448692e+00 3.443064e+00 3.448692e+00 3.443064e+00 3.448691e+00 3.443063e+00 3.448690e+00 3.443062e+00 3.448689e+00 3.443061e+00 3.448688e+00 3.443060e+00 3.448686e+00 3.443059e+00 3.448684e+00 3.443057e+00 3.448682e+00 3.443055e+00 3.448679e+00 3.443052e+00 3.448676e+00 3.443049e+00 3.448672e+00 3.443045e+00 3.448667e+00 3.443040e+00 3.448661e+00 3.443034e+00 3.448654e+00 3.443027e+00 3.448645e+00 3.443018e+00 3.448635e+00 3.443008e+00 3.448622e+00 3.442995e+00 3.448606e+00 3.442980e+00 3.448587e+00 3.442961e+00 3.448564e+00 3.442938e+00 3.448535e+00 3.442910e+00 3.448501e+00 3.442877e+00 3.448459e+00 3.442836e+00 3.448408e+00 3.442786e+00 3.448346e+00 3.442725e+00 3.448271e+00 3.442651e+00 3.448179e+00 3.442561e+00 3.448067e+00 3.442451e+00 3.447930e+00 3.442317e+00 3.447764e+00 3.442153e+00 3.447561e+00 3.441954e+00 3.447313e+00 3.441710e+00 3.447010e+00 3.441411e+00 3.446638e+00 3.441045e+00 3.446183e+00 3.440594e+00 3.445623e+00 3.440040e+00 3.444934e+00 3.439356e+00 3.444082e+00 3.438507e+00 3.443026e+00 3.437451e+00 3.441710e+00 3.436129e+00 3.440062e+00 3.434461e+00 3.437981e+00 3.432340e+00 3.435332e+00 3.429613e+00 3.431919e+00 3.426054e+00 3.427456e+00 3.421320e+00 3.421503e+00 3.414860e+00 3.413344e+00 3.405724e+00 3.401729e+00 3.392106e+00 3.384230e+00 3.370112e+00 3.355453e+00 3.329857e+00 3.301257e+00 3.241413e+00 3.177878e+00 2.999259e+00 2.833702e+00 2.205186e+00 
3.459306e+00 3.437701e+00 3.459428e+00 3.446958e+00 3.374581e+00 3.339463e+00 3.325796e+00 3.315913e+00 3.327625e+00 3.324058e+00 3.342666e+00 3.339859e+00 3.360641e+00 3.357940e+00 3.379989e+00 3.377739e+00 3.401081e+00 3.399734e+00 3.424592e+00 3.424513e+00 3.451083e+00 3.452488e+00 3.480835e+00 3.483755e+00 3.513760e+00 3.518027e+00 3.549377e+00 3.554648e+00 3.586876e+00 3.592685e+00 3.625220e+00 3.631042e+00 3.663277e+00 3.668573e+00 3.699917e+00 3.704172e+00 3.734080e+00 3.736819e+00 3.764819e+00 3.765609e+00 3.791321e+00 3.789785e+00 3.812929e+00 3.808758e+00 3.829170e+00 3.822141e+00 3.839774e+00 3.829772e+00 3.844689e+00 3.831717e+00 3.844076e+00 3.828261e+00 3.838296e+00 3.819879e+00 3.827872e+00 3.807187e+00 3.813451e+00 3.790898e+00 3.795755e+00 3.771771e+00 3.775540e+00 3.750565e+00 3.753557e+00 3.728010e+00 3.730512e+00 3.704773e+00 3.707052e+00 3.681448e+00 3.683737e+00 3.658540e+00 3.661041e+00 3.636463e+00 3.639345e+00 3.615544e+00 3.618937e+00 3.596021e+00 3.600022e+00 3.578052e+00 3.582726e+00 3.561725e+00 3.567104e+00 3.547066e+00 3.553156e+00 3.534045e+00 3.540832e+00 3.522595e+00 3.530045e+00 3.512617e+00 3.520684e+00 3.503991e+00 3.512623e+00 3.496587e+00 3.505728e+00 3.490273e+00 3.499865e+00 3.484918e+00 3.494905e+00 3.480398e+00 3.490727e+00 3.476598e+00 3.487223e+00 3.473416e+00 3.484292e+00 3.470758e+00 3.481847e+00 3.468544e+00 3.479813e+00 3.466703e+00 3.478124e+00 3.465176e+00 3.476724e+00 3.463911e+00 3.475565e+00 3.462865e+00 3.474607e+00 3.461999e+00 3.473815e+00 3.461285e+00 3.473161e+00 3.460695e+00 3.472622e+00 3.460209e+00 3.472177e+00 3.459809e+00 3.471811e+00 3.459478e+00 3.471509e+00 3.459206e+00 3.471261e+00 3.458982e+00 3.471056e+00 3.458798e+00 3.470888e+00 3.458646e+00 3.470749e+00 3.458522e+00 3.470635e+00 3.458419e+00 3.470541e+00 3.458334e+00 3.470464e+00 3.458265e+00 3.470400e+00 3.458208e+00 3.470348e+00 3.458160e+00 3.470305e+00 3.458122e+00 3.470270e+00 3.458090e+00 3.470241e+00 3.458064e+00 3.470217e+00 3.458042e+00 3.470197e+00 3.458025e+00 3.470181e+00 3.458010e+00 3.470168e+00 3.457998e+00 3.470157e+00 3.457988e+00 3.470148e+00 3.457980e+00 3.470141e+00 3.457973e+00 3.470134e+00 3.457968e+00 3.470129e+00 3.457963e+00 3.470125e+00 3.457960e+00 3.470122e+00 3.457957e+00 3.470119e+00 3.457954e+00 3.470117e+00 3.457952e+00 3.470115e+00 3.457950e+00 3.470113e+00 3.457949e+00 3.470112e+00 3.457948e+00 3.470111e+00 3.457947e+00 3.470110e+00 3.457946e+00 3.470110e+00 3.457946e+00 3.470109e+00 3.457945e+00 3.470109e+00 3.457945e+00 3.470108e+00 3.457944e+00 3.470108e+00 3.457944e+00 3.470108e+00 3.457944e+00 3.470107e+00 3.457944e+00 3.470107e+00 3.457943e+00 3.470107e+00 3.457943e+00 3.470107e+00 3.457943e+00 3.470107e+00 3.457943e+00 3.470107e+00 3.457943e+00 3.470107e+00 3.457943e+00 3.470107e+00 3.457943e+00 3.470107e+00 3.457943e+00 3.470107e+00 3.457943e+00 3.470106e+00 3.457943e+00 3.470106e+00 3.457943e+00 3.470106e+00 3.457943e+00 3.470106e+00 3.457943e+00 3.470106e+00 3.457943e+00 3.470106e+00 3.457943e+00 3.470106e+00 3.457943e+00 3.470106e+00 3.457943e+00 3.470106e+00 3.457943e+00 3.470106e+00 3.457943e+00 3.470106e+00 3.457943e+00 3.470106e+00 3.457943e+00 3.470106e+00 3.457943e+00 3.470106e+00 3.457943e+00 3.470106e+00 3.457943e+00 3.470106e+00 3.457943e+00 3.470106e+00 3.457943e+00 3.470106e+00 3.457943e+00 3.470106e+00 3.457943e+00 3.470106e+00 3.457943e+00 3.470106e+00 3.457943e+00 3.470106e+00 3.457943e+00 3.470106e+00 3.457943e+00 3.470106e+00 3.457943e+00 3.470106e+00 3.457943e+00 3.470106e+00 3.457942e+00 3.470106e+00 3.457942e+00 3.470106e+00 3.457942e+00 3.470106e+00 3.457942e+00 3.470106e+00 3.457942e+00 3.470106e+00 3.457942e+00 3.470106e+00 3.457942e+00 3.470106e+00 3.457942e+00 3.470106e+00 3.457942e+00 3.470106e+00 3.457942e+00 3.470106e+00 3.457942e+00 3.470105e+00 3.457941e+00 3.470105e+00 3.457941e+00 3.470105e+00 3.457941e+00 3.470105e+00 3.457940e+00 3.470104e+00 3.457940e+00 3.470104e+00 3.457939e+00 3.470103e+00 3.457939e+00 3.470103e+00 3.457938e+00 3.470102e+00 3.457937e+00 3.470101e+00 3.457936e+00 3.470100e+00 3.457934e+00 3.470099e+00 3.457932e+00 3.470097e+00 3.457930e+00 3.470096e+00 3.457928e+00 3.470093e+00 3.457925e+00 3.470091e+00 3.457921e+00 3.470088e+00 3.457917e+00 3.470084e+00 3.457911e+00 3.470079e+00 3.457905e+00 3.470074e+00 3.457897e+00 3.470067e+00 3.457887e+00 3.470059e+00 3.457876e+00 3.470049e+00 3.457862e+00 3.470037e+00 3.457845e+00 3.470023e+00 3.457825e+00 3.470006e+00 3.457800e+00 3.469985e+00 3.457770e+00 3.469959e+00 3.457733e+00 3.469928e+00 3.457688e+00 3.469890e+00 3.457633e+00 3.469843e+00 3.457566e+00 3.469785e+00 3.457482e+00 3.469713e+00 3.457379e+00 3.469624e+00 3.457250e+00 3.469511e+00 3.457089e+00 3.469366e+00 3.456883e+00 3.469180e+00 3.456619e+00 3.468934e+00 3.456274e+00 3.468602e+00 3.455814e+00 3.468140e+00 3.455181e+00 3.467468e+00 3.454278e+00 3.466435e+00 3.452922e+00 3.464730e+00 3.450760e+00 3.461743e+00 3.447243e+00 3.457099e+00 3.443644e+00 3.465028e+00 3.463225e+00 
3.504296e+00 3.489934e+00 3.504365e+00 3.483871e+00 3.339830e+00 3.304683e+00 3.256238e+00 3.263884e+00 3.257628e+00 3.275842e+00 3.282336e+00 3.299760e+00 3.310373e+00 3.325247e+00 3.337977e+00 3.350929e+00 3.365497e+00 3.377469e+00 3.393985e+00 3.405769e+00 3.424359e+00 3.436498e+00 3.457172e+00 3.469944e+00 3.492536e+00 3.505960e+00 3.530113e+00 3.543987e+00 3.569184e+00 3.583145e+00 3.608758e+00 3.622354e+00 3.647707e+00 3.660453e+00 3.684873e+00 3.696290e+00 3.719154e+00 3.728796e+00 3.749561e+00 3.757026e+00 3.775264e+00 3.780210e+00 3.795631e+00 3.797790e+00 3.810257e+00 3.809454e+00 3.818986e+00 3.815153e+00 3.821911e+00 3.815097e+00 3.819345e+00 3.809715e+00 3.811789e+00 3.799613e+00 3.799877e+00 3.785508e+00 3.784322e+00 3.768170e+00 3.765872e+00 3.748371e+00 3.745267e+00 3.726852e+00 3.723216e+00 3.704293e+00 3.700367e+00 3.681303e+00 3.677302e+00 3.658409e+00 3.654520e+00 3.636058e+00 3.632442e+00 3.614612e+00 3.611403e+00 3.594354e+00 3.591660e+00 3.575492e+00 3.573393e+00 3.558164e+00 3.556712e+00 3.542441e+00 3.541663e+00 3.528342e+00 3.528241e+00 3.515832e+00 3.516392e+00 3.504843e+00 3.506031e+00 3.495275e+00 3.497048e+00 3.487012e+00 3.489319e+00 3.479927e+00 3.482713e+00 3.473889e+00 3.477100e+00 3.468772e+00 3.472356e+00 3.464456e+00 3.468362e+00 3.460830e+00 3.465014e+00 3.457795e+00 3.462215e+00 3.455261e+00 3.459882e+00 3.453152e+00 3.457942e+00 3.451399e+00 3.456332e+00 3.449945e+00 3.454997e+00 3.448741e+00 3.453892e+00 3.447746e+00 3.452979e+00 3.446923e+00 3.452224e+00 3.446243e+00 3.451602e+00 3.445683e+00 3.451089e+00 3.445220e+00 3.450665e+00 3.444839e+00 3.450317e+00 3.444526e+00 3.450029e+00 3.444267e+00 3.449793e+00 3.444054e+00 3.449598e+00 3.443879e+00 3.449438e+00 3.443735e+00 3.449306e+00 3.443617e+00 3.449197e+00 3.443519e+00 3.449108e+00 3.443439e+00 3.449035e+00 3.443373e+00 3.448974e+00 3.443318e+00 3.448925e+00 3.443274e+00 3.448884e+00 3.443237e+00 3.448850e+00 3.443207e+00 3.448823e+00 3.443182e+00 3.448800e+00 3.443161e+00 3.448781e+00 3.443145e+00 3.448766e+00 3.443131e+00 3.448753e+00 3.443119e+00 3.448743e+00 3.443110e+00 3.448734e+00 3.443102e+00 3.448727e+00 3.443096e+00 3.448722e+00 3.443091e+00 3.448717e+00 3.443087e+00 3.448713e+00 3.443083e+00 3.448710e+00 3.443080e+00 3.448707e+00 3.443078e+00 3.448705e+00 3.443076e+00 3.448703e+00 3.443074e+00 3.448702e+00 3.443073e+00 3.448700e+00 3.443072e+00 3.448699e+00 3.443071e+00 3.448699e+00 3.443070e+00 3.448698e+00 3.443070e+00 3.448697e+00 3.443069e+00 3.448697e+00 3.443069e+00 3.448697e+00 3.443068e+00 3.448696e+00 3.443068e+00 3.448696e+00 3.443068e+00 3.448696e+00 3.443068e+00 3.448696e+00 3.443068e+00 3.448695e+00 3.443068e+00 3.448695e+00 3.443067e+00 3.448695e+00 3.443067e+00 3.448695e+00 3.443067e+00 3.448695e+00 3.443067e+00 3.448695e+00 3.443067e+00 3.448695e+00 3.443067e+00 3.448695e+00 3.443067e+00 3.448695e+00 3.443067e+00 3.448695e+00 3.443067e+00 3.448695e+00 3.443067e+00 3.448695e+00 3.443067e+00 3.448695e+00 3.443067e+00 3.448695e+00 3.443067e+00 3.448695e+00 3.443067e+00 3.448695e+00 3.443067e+00 3.448695e+00 3.443067e+00 3.448695e+00 3.443067e+00 3.448695e+00 3.443067e+00 3.448695e+00 3.443067e+00 3.448695e+00 3.443067e+00 3.448695e+00 3.443067e+00 3.448695e+00 3.443067e+00 3.448695e+00 3.443067e+00 3.448695e+00 3.443067e+00 3.448695e+00 3.443067e+00 3.448694e+00 3.443067e+00 3.448694e+00 3.443066e+00 3.448694e+00 3.443066e+00 3.448694e+00 3.443066e+00 3.448694e+00 3.443066e+00 3.448694e+00 3.443066e+00 3.448694e+00 3.443066e+00 3.448693e+00 3.443066e+00 3.448693e+00 3.443065e+00 3.448693e+00 3.443065e+00 3.448692e+00 3.443064e+00 3.448692e+00 3.443064e+00 3.448691e+00 3.443063e+00 3.448690e+00 3.443062e+00 3.448689e+00 3.443061e+00 3.448688e+00 3.443060e+00 3.448686e+00 3.443059e+00 3.448685e+00 3.443057e+00 3.448682e+00 3.443055e+00 3.448680e+00 3.443052e+00 3.448677e+00 3.443049e+00 3.448673e+00 3.443045e+00 3.448668e+00 3.443040e+00 3.448662e+00 3.443035e+00 3.448655e+00 3.443028e+00 3.448646e+00 3.443019e+00 3.448636e+00 3.443009e+00 3.448623e+00 3.442997e+00 3.448608e+00 3.442982e+00 3.448589e+00 3.442963e+00 3.448566e+00 3.442941e+00 3.448538e+00 3.442914e+00 3.448505e+00 3.442881e+00 3.448464e+00 3.442841e+00 3.448414e+00 3.442792e+00 3.448353e+00 3.442732e+00 3.448279e+00 3.442660e+00 3.448189e+00 3.442572e+00 3.448080e+00 3.442464e+00 3.447946e+00 3.442334e+00 3.447783e+00 3.442174e+00 3.447585e+00 3.441979e+00 3.447342e+00 3.441741e+00 3.447046e+00 3.441449e+00 3.446683e+00 3.441092e+00 3.446238e+00 3.440653e+00 3.445692e+00 3.440113e+00 3.445020e+00 3.439448e+00 3.444190e+00 3.438623e+00 3.443163e+00 3.437599e+00 3.441885e+00 3.436319e+00 3.440288e+00 3.434710e+00 3.438279e+00 3.432671e+00 3.435730e+00 3.430063e+00 3.432465e+00 3.426684e+00 3.428230e+00 3.422239e+00 3.422645e+00 3.416274e+00 3.415132e+00 3.408071e+00 3.404769e+00 3.396465e+00 3.390063e+00 3.379584e+00 3.368680e+00 3.354915e+00 3.337843e+00 3.322445e+00 3.299909e+00 3.306695e+00 3.296110e+00 3.475544e+00 
3.466946e+00 3.453491e+00 3.466931e+00 3.459727e+00 3.498325e+00 3.478418e+00 3.477679e+00 3.449944e+00 3.448417e+00 3.426669e+00 3.432394e+00 3.417024e+00 3.428852e+00 3.417988e+00 3.434146e+00 3.426491e+00 3.445931e+00 3.440843e+00 3.463063e+00 3.460260e+00 3.485015e+00 3.484336e+00 3.511430e+00 3.512685e+00 3.541840e+00 3.544733e+00 3.575531e+00 3.579640e+00 3.611524e+00 3.616326e+00 3.648631e+00 3.653548e+00 3.685550e+00 3.689993e+00 3.720966e+00 3.724367e+00 3.753627e+00 3.755463e+00 3.782416e+00 3.782224e+00 3.806411e+00 3.803803e+00 3.824934e+00 3.819611e+00 3.837584e+00 3.829354e+00 3.844254e+00 3.833044e+00 3.845115e+00 3.830978e+00 3.840579e+00 3.823689e+00 3.831238e+00 3.811876e+00 3.817799e+00 3.796331e+00 3.801022e+00 3.777865e+00 3.781671e+00 3.757264e+00 3.760477e+00 3.735250e+00 3.738114e+00 3.712470e+00 3.715190e+00 3.689483e+00 3.692237e+00 3.666769e+00 3.669708e+00 3.644724e+00 3.647980e+00 3.623670e+00 3.627354e+00 3.603856e+00 3.608058e+00 3.585463e+00 3.590252e+00 3.568610e+00 3.574030e+00 3.553354e+00 3.559427e+00 3.539703e+00 3.546428e+00 3.527617e+00 3.534977e+00 3.517020e+00 3.524983e+00 3.507813e+00 3.516334e+00 3.499875e+00 3.508906e+00 3.493081e+00 3.502568e+00 3.487300e+00 3.497190e+00 3.482408e+00 3.492651e+00 3.478287e+00 3.488835e+00 3.474829e+00 3.485638e+00 3.471937e+00 3.482969e+00 3.469525e+00 3.480746e+00 3.467518e+00 3.478898e+00 3.465852e+00 3.477365e+00 3.464471e+00 3.476095e+00 3.463327e+00 3.475045e+00 3.462382e+00 3.474177e+00 3.461601e+00 3.473460e+00 3.460956e+00 3.472868e+00 3.460424e+00 3.472380e+00 3.459985e+00 3.471978e+00 3.459624e+00 3.471647e+00 3.459326e+00 3.471374e+00 3.459081e+00 3.471149e+00 3.458879e+00 3.470964e+00 3.458713e+00 3.470812e+00 3.458577e+00 3.470687e+00 3.458464e+00 3.470584e+00 3.458372e+00 3.470499e+00 3.458295e+00 3.470429e+00 3.458233e+00 3.470372e+00 3.458181e+00 3.470325e+00 3.458139e+00 3.470286e+00 3.458104e+00 3.470254e+00 3.458075e+00 3.470228e+00 3.458052e+00 3.470206e+00 3.458032e+00 3.470188e+00 3.458016e+00 3.470174e+00 3.458003e+00 3.470162e+00 3.457993e+00 3.470152e+00 3.457984e+00 3.470144e+00 3.457976e+00 3.470137e+00 3.457970e+00 3.470132e+00 3.457965e+00 3.470127e+00 3.457961e+00 3.470124e+00 3.457958e+00 3.470120e+00 3.457955e+00 3.470118e+00 3.457953e+00 3.470116e+00 3.457951e+00 3.470114e+00 3.457950e+00 3.470113e+00 3.457948e+00 3.470112e+00 3.457947e+00 3.470111e+00 3.457947e+00 3.470110e+00 3.457946e+00 3.470109e+00 3.457945e+00 3.470109e+00 3.457945e+00 3.470108e+00 3.457944e+00 3.470108e+00 3.457944e+00 3.470108e+00 3.457944e+00 3.470107e+00 3.457944e+00 3.470107e+00 3.457943e+00 3.470107e+00 3.457943e+00 3.470107e+00 3.457943e+00 3.470107e+00 3.457943e+00 3.470107e+00 3.457943e+00 3.470107e+00 3.457943e+00 3.470107e+00 3.457943e+00 3.470107e+00 3.457943e+00 3.470107e+00 3.457943e+00 3.470106e+00 3.457943e+00 3.470106e+00 3.457943e+00 3.470106e+00 3.457943e+00 3.470106e+00 3.457943e+00 3.470106e+00 3.457943e+00 3.470106e+00 3.457943e+00 3.470106e+00 3.457943e+00 3.470106e+00 3.457943e+00 3.470106e+00 3.457943e+00 3.470106e+00 3.457943e+00 3.470106e+00 3.457943e+00 3.470106e+00 3.457943e+00 3.470106e+00 3.457943e+00 3.470106e+00 3.457943e+00 3.470106e+00 3.457943e+00 3.470106e+00 3.457943e+00 3.470106e+00 3.457943e+00 3.470106e+00 3.457943e+00 3.470106e+00 3.457943e+00 3.470106e+00 3.457943e+00 3.470106e+00 3.457943e+00 3.470106e+00 3.457943e+00 3.470106e+00 3.457943e+00 3.470106e+00 3.457943e+00 3.470106e+00 3.457943e+00 3.470106e+00 3.457943e+00 3.470106e+00 3.457942e+00 3.470106e+00 3.457942e+00 3.470106e+00 3.457942e+00 3.470106e+00 3.457942e+00 3.470106e+00 3.457942e+00 3.470106e+00 3.457942e+00 3.470106e+00 3.457942e+00 3.470106e+00 3.457942e+00 3.470106e+00 3.457942e+00 3.470106e+00 3.457942e+00 3.470106e+00 3.457942e+00 3.470105e+00 3.457941e+00 3.470105e+00 3.457941e+00 3.470105e+00 3.457941e+00 3.470105e+00 3.457941e+00 3.470104e+00 3.457940e+00 3.470104e+00 3.457940e+00 3.470104e+00 3.457939e+00 3.470103e+00 3.457938e+00 3.470102e+00 3.457937e+00 3.470102e+00 3.457936e+00 3.470101e+00 3.457935e+00 3.470099e+00 3.457933e+00 3.470098e+00 3.457931e+00 3.470096e+00 3.457929e+00 3.470094e+00 3.457926e+00 3.470092e+00 3.457922e+00 3.470089e+00 3.457918e+00 3.470085e+00 3.457913e+00 3.470081e+00 3.457907e+00 3.470075e+00 3.457900e+00 3.470069e+00 3.457891e+00 3.470062e+00 3.457880e+00 3.470052e+00 3.457867e+00 3.470041e+00 3.457852e+00 3.470028e+00 3.457833e+00 3.470012e+00 3.457810e+00 3.469992e+00 3.457782e+00 3.469968e+00 3.457748e+00 3.469939e+00 3.457707e+00 3.469904e+00 3.457656e+00 3.469861e+00 3.457595e+00 3.469807e+00 3.457519e+00 3.469742e+00 3.457425e+00 3.469660e+00 3.457309e+00 3.469559e+00 3.457165e+00 3.469431e+00 3.456984e+00 3.469270e+00 3.456755e+00 3.469063e+00 3.456465e+00 3.468796e+00 3.456094e+00 3.468451e+00 3.455620e+00 3.468009e+00 3.455025e+00 3.467474e+00 3.454332e+00 3.466966e+00 3.453754e+00 3.467084e+00 3.454203e+00 3.470116e+00 3.458677e+00 3.481680e+00 3.467871e+00 
3.502453e+00 3.488073e+00 3.502444e+00 3.488840e+00 3.456176e+00 3.444656e+00 3.417736e+00 3.412183e+00 3.397414e+00 3.397178e+00 3.392087e+00 3.394996e+00 3.396574e+00 3.401191e+00 3.407515e+00 3.413241e+00 3.423289e+00 3.430015e+00 3.443276e+00 3.451094e+00 3.467289e+00 3.476312e+00 3.495206e+00 3.505453e+00 3.526735e+00 3.538074e+00 3.561299e+00 3.573439e+00 3.598014e+00 3.610533e+00 3.635741e+00 3.648127e+00 3.673174e+00 3.684876e+00 3.708936e+00 3.719403e+00 3.741682e+00 3.750394e+00 3.770189e+00 3.776685e+00 3.793452e+00 3.797352e+00 3.810760e+00 3.811782e+00 3.821744e+00 3.819729e+00 3.826398e+00 3.821310e+00 3.825043e+00 3.816975e+00 3.818261e+00 3.807428e+00 3.806811e+00 3.793531e+00 3.791534e+00 3.776200e+00 3.773277e+00 3.756327e+00 3.752841e+00 3.734724e+00 3.730949e+00 3.712097e+00 3.708236e+00 3.689046e+00 3.685254e+00 3.666072e+00 3.662471e+00 3.643588e+00 3.640282e+00 3.621930e+00 3.619010e+00 3.601367e+00 3.598912e+00 3.582106e+00 3.580184e+00 3.564298e+00 3.562960e+00 3.548037e+00 3.547316e+00 3.533366e+00 3.533276e+00 3.520277e+00 3.520816e+00 3.508725e+00 3.509871e+00 3.498628e+00 3.500346e+00 3.489879e+00 3.492128e+00 3.482359e+00 3.485088e+00 3.475939e+00 3.479097e+00 3.470491e+00 3.474026e+00 3.465891e+00 3.469755e+00 3.462025e+00 3.466171e+00 3.458787e+00 3.463175e+00 3.456083e+00 3.460677e+00 3.453831e+00 3.458599e+00 3.451961e+00 3.456874e+00 3.450409e+00 3.455444e+00 3.449124e+00 3.454261e+00 3.448060e+00 3.453283e+00 3.447182e+00 3.452475e+00 3.446457e+00 3.451808e+00 3.445859e+00 3.451258e+00 3.445365e+00 3.450805e+00 3.444959e+00 3.450431e+00 3.444624e+00 3.450124e+00 3.444348e+00 3.449871e+00 3.444121e+00 3.449662e+00 3.443934e+00 3.449490e+00 3.443780e+00 3.449349e+00 3.443653e+00 3.449233e+00 3.443549e+00 3.449137e+00 3.443464e+00 3.449059e+00 3.443393e+00 3.448994e+00 3.443335e+00 3.448941e+00 3.443288e+00 3.448897e+00 3.443248e+00 3.448861e+00 3.443216e+00 3.448832e+00 3.443190e+00 3.448807e+00 3.443168e+00 3.448787e+00 3.443150e+00 3.448771e+00 3.443135e+00 3.448757e+00 3.443123e+00 3.448746e+00 3.443113e+00 3.448737e+00 3.443105e+00 3.448730e+00 3.443098e+00 3.448723e+00 3.443093e+00 3.448718e+00 3.443088e+00 3.448714e+00 3.443084e+00 3.448711e+00 3.443081e+00 3.448708e+00 3.443079e+00 3.448706e+00 3.443077e+00 3.448704e+00 3.443075e+00 3.448702e+00 3.443073e+00 3.448701e+00 3.443072e+00 3.448700e+00 3.443071e+00 3.448699e+00 3.443071e+00 3.448698e+00 3.443070e+00 3.448698e+00 3.443069e+00 3.448697e+00 3.443069e+00 3.448697e+00 3.443069e+00 3.448696e+00 3.443068e+00 3.448696e+00 3.443068e+00 3.448696e+00 3.443068e+00 3.448696e+00 3.443068e+00 3.448695e+00 3.443068e+00 3.448695e+00 3.443067e+00 3.448695e+00 3.443067e+00 3.448695e+00 3.443067e+00 3.448695e+00 3.443067e+00 3.448695e+00 3.443067e+00 3.448695e+00 3.443067e+00 3.448695e+00 3.443067e+00 3.448695e+00 3.443067e+00 3.448695e+00 3.443067e+00 3.448695e+00 3.443067e+00 3.448695e+00 3.443067e+00 3.448695e+00 3.443067e+00 3.448695e+00 3.443067e+00 3.448695e+00 3.443067e+00 3.448695e+00 3.443067e+00 3.448695e+00 3.443067e+00 3.448695e+00 3.443067e+00 3.448695e+00 3.443067e+00 3.448695e+00 3.443067e+00 3.448695e+00 3.443067e+00 3.448695e+00 3.443067e+00 3.448695e+00 3.443067e+00 3.448695e+00 3.443067e+00 3.448695e+00 3.443067e+00 3.448695e+00 3.443067e+00 3.448695e+00 3.443067e+00 3.448694e+00 3.443067e+00 3.448694e+00 3.443067e+00 3.448694e+00 3.443066e+00 3.448694e+00 3.443066e+00 3.448694e+00 3.443066e+00 3.448694e+00 3.443066e+00 3.448694e+00 3.443066e+00 3.448693e+00 3.443066e+00 3.448693e+00 3.443065e+00 3.448693e+00 3.443065e+00 3.448692e+00 3.443065e+00 3.448692e+00 3.443064e+00 3.448691e+00 3.443063e+00 3.448690e+00 3.443063e+00 3.448689e+00 3.443062e+00 3.448688e+00 3.443061e+00 3.448687e+00 3.443059e+00 3.448685e+00 3.443058e+00 3.448683e+00 3.443056e+00 3.448681e+00 3.443053e+00 3.448678e+00 3.443050e+00 3.448674e+00 3.443046e+00 3.448669e+00 3.443042e+00 3.448664e+00 3.443037e+00 3.448657e+00 3.443030e+00 3.448649e+00 3.443022e+00 3.448639e+00 3.443013e+00 3.448627e+00 3.443001e+00 3.448613e+00 3.442987e+00 3.448595e+00 3.442970e+00 3.448574e+00 3.442949e+00 3.448548e+00 3.442923e+00 3.448516e+00 3.442892e+00 3.448478e+00 3.442855e+00 3.448431e+00 3.442809e+00 3.448374e+00 3.442753e+00 3.448304e+00 3.442685e+00 3.448220e+00 3.442603e+00 3.448117e+00 3.442502e+00 3.447992e+00 3.442379e+00 3.447839e+00 3.442230e+00 3.447653e+00 3.442048e+00 3.447426e+00 3.441825e+00 3.447149e+00 3.441554e+00 3.446810e+00 3.441221e+00 3.446395e+00 3.440814e+00 3.445888e+00 3.440314e+00 3.445264e+00 3.439699e+00 3.444498e+00 3.438942e+00 3.443552e+00 3.438005e+00 3.442383e+00 3.436842e+00 3.440931e+00 3.435394e+00 3.439121e+00 3.433579e+00 3.436854e+00 3.431294e+00 3.433996e+00 3.428397e+00 3.430371e+00 3.424701e+00 3.425746e+00 3.419962e+00 3.419818e+00 3.413886e+00 3.412235e+00 3.406210e+00 3.402719e+00 3.397030e+00 3.391555e+00 3.387920e+00 3.381164e+00 3.385202e+00 3.380475e+00 3.407382e+00 3.413445e+00 3.487227e+00 