# vtk DataFile Version 2.0
Comment goes here
ASCII

DATASET STRUCTURED_POINTS
FIELD FieldData 1
TIME 1 1 double
0.42500000
DIMENSIONS    384   64   1

ORIGIN    0.000   0.000   0.000
SPACING   0.078125 0.078125   1.000

POINT_DATA   24576
SCALARS uMag double
LOOKUP_TABLE default

6.226081e-01 2.054130e-01 6.220475e-01 1.666879e-01 5.134210e-01 9.358332e-01 1.204277e+00 1.386217e+00 1.489787e+00 1.578484e+00 1.630859e+00 1.682725e+00 1.717186e+00 1.750730e+00 1.777015e+00 1.799335e+00 1.820933e+00 1.835668e+00 1.854367e+00 1.863875e+00 1.880848e+00 1.886782e+00 1.902817e+00 1.906317e+00 1.921897e+00 1.923709e+00 1.939085e+00 1.939668e+00 1.954922e+00 1.954531e+00 1.969626e+00 1.968369e+00 1.983188e+00 1.981069e+00 1.995443e+00 1.992401e+00 2.006141e+00 2.002080e+00 2.014999e+00 2.009817e+00 2.021761e+00 2.015377e+00 2.026239e+00 2.018611e+00 2.028346e+00 2.019477e+00 2.028102e+00 2.018047e+00 2.025634e+00 2.014492e+00 2.021160e+00 2.009069e+00 2.014970e+00 2.002095e+00 2.007403e+00 1.993928e+00 1.998823e+00 1.984936e+00 1.989599e+00 1.975481e+00 1.980078e+00 1.965898e+00 1.970573e+00 1.956474e+00 1.961347e+00 1.947444e+00 1.952602e+00 1.938980e+00 1.944486e+00 1.931199e+00 1.937085e+00 1.924164e+00 1.930443e+00 1.917894e+00 1.924560e+00 1.912376e+00 1.919409e+00 1.907570e+00 1.914945e+00 1.903423e+00 1.911108e+00 1.899873e+00 1.907834e+00 1.896853e+00 1.905056e+00 1.894299e+00 1.902713e+00 1.892148e+00 1.900744e+00 1.890345e+00 1.899096e+00 1.888838e+00 1.897720e+00 1.887582e+00 1.896575e+00 1.886537e+00 1.895623e+00 1.885670e+00 1.894834e+00 1.884952e+00 1.894181e+00 1.884357e+00 1.893641e+00 1.883866e+00 1.893195e+00 1.883460e+00 1.892826e+00 1.883125e+00 1.892522e+00 1.882849e+00 1.892272e+00 1.882621e+00 1.892065e+00 1.882434e+00 1.891895e+00 1.882279e+00 1.891755e+00 1.882152e+00 1.891640e+00 1.882048e+00 1.891545e+00 1.881961e+00 1.891467e+00 1.881891e+00 1.891402e+00 1.881832e+00 1.891349e+00 1.881784e+00 1.891306e+00 1.881745e+00 1.891270e+00 1.881712e+00 1.891241e+00 1.881686e+00 1.891217e+00 1.881664e+00 1.891197e+00 1.881646e+00 1.891180e+00 1.881631e+00 1.891167e+00 1.881618e+00 1.891156e+00 1.881608e+00 1.891147e+00 1.881600e+00 1.891139e+00 1.881593e+00 1.891133e+00 1.881588e+00 1.891128e+00 1.881583e+00 1.891124e+00 1.881579e+00 1.891120e+00 1.881576e+00 1.891118e+00 1.881574e+00 1.891115e+00 1.881572e+00 1.891113e+00 1.881570e+00 1.891112e+00 1.881569e+00 1.891110e+00 1.881567e+00 1.891109e+00 1.881566e+00 1.891109e+00 1.881566e+00 1.891108e+00 1.881565e+00 1.891107e+00 1.881564e+00 1.891107e+00 1.881564e+00 1.891106e+00 1.881564e+00 1.891106e+00 1.881563e+00 1.891106e+00 1.881563e+00 1.891106e+00 1.881563e+00 1.891105e+00 1.881563e+00 1.891105e+00 1.881563e+00 1.891105e+00 1.881563e+00 1.891105e+00 1.881562e+00 1.891105e+00 1.881562e+00 1.891105e+00 1.881562e+00 1.891105e+00 1.881562e+00 1.891105e+00 1.881562e+00 1.891105e+00 1.881562e+00 1.891105e+00 1.881562e+00 1.891105e+00 1.881562e+00 1.891105e+00 1.881562e+00 1.891105e+00 1.881562e+00 1.891105e+00 1.881562e+00 1.891105e+00 1.881562e+00 1.891105e+00 1.881562e+00 1.891105e+00 1.881562e+00 1.891105e+00 1.881562e+00 1.891105e+00 1.881562e+00 1.891105e+00 1.881562e+00 1.891105e+00 1.881562e+00 1.891105e+00 1.881562e+00 1.891105e+00 1.881562e+00 1.891104e+00 1.881562e+00 1.891104e+00 1.881562e+00 1.891104e+00 1.881562e+00 1.891104e+00 1.881562e+00 1.891104e+00 1.881562e+00 1.891104e+00 1.881562e+00 1.891104e+00 1.881562e+00 1.891104e+00 1.881562e+00 1.891104e+00 1.881562e+00 1.891104e+00 1.881562e+00 1.891104e+00 1.881562e+00 1.891104e+00 1.881562e+00 1.891104e+00 1.881561e+00 1.891104e+00 1.881561e+00 1.891104e+00 1.881561e+00 1.891104e+00 1.881561e+00 1.891103e+00 1.881561e+00 1.891103e+00 1.881561e+00 1.891103e+00 1.881560e+00 1.891102e+00 1.881560e+00 1.891102e+00 1.881559e+00 1.891101e+00 1.881559e+00 1.891101e+00 1.881558e+00 1.891100e+00 1.881557e+00 1.891099e+00 1.881557e+00 1.891098e+00 1.881555e+00 1.891096e+00 1.881554e+00 1.891094e+00 1.881552e+00 1.891092e+00 1.881550e+00 1.891090e+00 1.881547e+00 1.891086e+00 1.881544e+00 1.891083e+00 1.881541e+00 1.891078e+00 1.881536e+00 1.891072e+00 1.881530e+00 1.891065e+00 1.881523e+00 1.891056e+00 1.881515e+00 1.891046e+00 1.881505e+00 1.891034e+00 1.881493e+00 1.891018e+00 1.881478e+00 1.891000e+00 1.881460e+00 1.890977e+00 1.881438e+00 1.890950e+00 1.881411e+00 1.890916e+00 1.881379e+00 1.890876e+00 1.881339e+00 1.890826e+00 1.881291e+00 1.890766e+00 1.881232e+00 1.890693e+00 1.881161e+00 1.890604e+00 1.881074e+00 1.890496e+00 1.880969e+00 1.890364e+00 1.880841e+00 1.890203e+00 1.880684e+00 1.890008e+00 1.880493e+00 1.889769e+00 1.880260e+00 1.889478e+00 1.879976e+00 1.889122e+00 1.879629e+00 1.888688e+00 1.879204e+00 1.888156e+00 1.878684e+00 1.887504e+00 1.878045e+00 1.886704e+00 1.877259e+00 1.885718e+00 1.876290e+00 1.884503e+00 1.875091e+00 1.882997e+00 1.873602e+00 1.881125e+00 1.871743e+00 1.878784e+00 1.869407e+00 1.875840e+00 1.866451e+00 1.872105e+00 1.862672e+00 1.867319e+00 1.857782e+00 1.861103e+00 1.851351e+00 1.852889e+00 1.842712e+00 1.841784e+00 1.830776e+00 1.826297e+00 1.813624e+00 1.803739e+00 1.787569e+00 1.768770e+00 1.744643e+00 1.709381e+00 1.665058e+00 1.594536e+00 1.492119e+00 1.333925e+00 1.047899e+00 6.656455e-01 1.620620e-01 
1.908243e+00 1.871618e+00 1.908344e+00 1.947078e+00 1.858565e+00 1.786025e+00 1.772040e+00 1.764170e+00 1.791342e+00 1.792029e+00 1.826618e+00 1.825552e+00 1.860372e+00 1.856284e+00 1.889432e+00 1.882350e+00 1.913437e+00 1.903845e+00 1.933153e+00 1.921733e+00 1.949779e+00 1.937184e+00 1.964453e+00 1.951176e+00 1.978009e+00 1.964362e+00 1.990946e+00 1.977080e+00 2.003472e+00 1.989418e+00 2.015573e+00 2.001270e+00 2.027072e+00 2.012397e+00 2.037683e+00 2.022473e+00 2.047058e+00 2.031139e+00 2.054844e+00 2.038053e+00 2.060730e+00 2.042934e+00 2.064484e+00 2.045603e+00 2.065987e+00 2.045995e+00 2.065236e+00 2.044162e+00 2.062339e+00 2.040265e+00 2.057502e+00 2.034550e+00 2.051005e+00 2.027328e+00 2.043177e+00 2.018949e+00 2.034378e+00 2.009780e+00 2.024970e+00 2.000178e+00 2.015298e+00 1.990474e+00 2.005671e+00 1.980954e+00 1.996347e+00 1.971849e+00 1.987527e+00 1.963328e+00 1.979353e+00 1.955505e+00 1.971910e+00 1.948440e+00 1.965237e+00 1.942149e+00 1.959332e+00 1.936617e+00 1.954167e+00 1.931803e+00 1.949693e+00 1.927652e+00 1.945850e+00 1.924099e+00 1.942571e+00 1.921078e+00 1.939792e+00 1.918523e+00 1.937447e+00 1.916373e+00 1.935478e+00 1.914571e+00 1.933829e+00 1.913064e+00 1.932454e+00 1.911809e+00 1.931309e+00 1.910765e+00 1.930357e+00 1.909899e+00 1.929569e+00 1.909181e+00 1.928915e+00 1.908587e+00 1.928375e+00 1.908096e+00 1.927929e+00 1.907690e+00 1.927561e+00 1.907356e+00 1.927257e+00 1.907080e+00 1.927006e+00 1.906852e+00 1.926799e+00 1.906665e+00 1.926629e+00 1.906510e+00 1.926489e+00 1.906383e+00 1.926374e+00 1.906279e+00 1.926279e+00 1.906192e+00 1.926201e+00 1.906121e+00 1.926136e+00 1.906063e+00 1.926084e+00 1.906015e+00 1.926040e+00 1.905976e+00 1.926004e+00 1.905943e+00 1.925975e+00 1.905916e+00 1.925951e+00 1.905894e+00 1.925931e+00 1.905876e+00 1.925914e+00 1.905862e+00 1.925901e+00 1.905849e+00 1.925890e+00 1.905839e+00 1.925881e+00 1.905831e+00 1.925873e+00 1.905824e+00 1.925867e+00 1.905819e+00 1.925862e+00 1.905814e+00 1.925858e+00 1.905810e+00 1.925854e+00 1.905807e+00 1.925851e+00 1.905805e+00 1.925849e+00 1.905802e+00 1.925847e+00 1.905801e+00 1.925846e+00 1.905799e+00 1.925844e+00 1.905798e+00 1.925843e+00 1.905797e+00 1.925842e+00 1.905796e+00 1.925842e+00 1.905796e+00 1.925841e+00 1.905795e+00 1.925841e+00 1.905795e+00 1.925840e+00 1.905794e+00 1.925840e+00 1.905794e+00 1.925840e+00 1.905794e+00 1.925839e+00 1.905794e+00 1.925839e+00 1.905794e+00 1.925839e+00 1.905793e+00 1.925839e+00 1.905793e+00 1.925839e+00 1.905793e+00 1.925839e+00 1.905793e+00 1.925839e+00 1.905793e+00 1.925839e+00 1.905793e+00 1.925839e+00 1.905793e+00 1.925839e+00 1.905793e+00 1.925839e+00 1.905793e+00 1.925839e+00 1.905793e+00 1.925838e+00 1.905793e+00 1.925838e+00 1.905793e+00 1.925838e+00 1.905793e+00 1.925838e+00 1.905793e+00 1.925838e+00 1.905793e+00 1.925838e+00 1.905793e+00 1.925838e+00 1.905793e+00 1.925838e+00 1.905793e+00 1.925838e+00 1.905793e+00 1.925838e+00 1.905793e+00 1.925838e+00 1.905793e+00 1.925838e+00 1.905793e+00 1.925838e+00 1.905793e+00 1.925838e+00 1.905793e+00 1.925838e+00 1.905793e+00 1.925838e+00 1.905793e+00 1.925838e+00 1.905793e+00 1.925838e+00 1.905793e+00 1.925838e+00 1.905793e+00 1.925838e+00 1.905793e+00 1.925838e+00 1.905793e+00 1.925838e+00 1.905793e+00 1.925838e+00 1.905793e+00 1.925838e+00 1.905793e+00 1.925838e+00 1.905793e+00 1.925838e+00 1.905793e+00 1.925838e+00 1.905793e+00 1.925838e+00 1.905793e+00 1.925838e+00 1.905793e+00 1.925838e+00 1.905793e+00 1.925838e+00 1.905792e+00 1.925838e+00 1.905792e+00 1.925838e+00 1.905792e+00 1.925838e+00 1.905792e+00 1.925838e+00 1.905792e+00 1.925838e+00 1.905792e+00 1.925838e+00 1.905792e+00 1.925837e+00 1.905792e+00 1.925837e+00 1.905792e+00 1.925837e+00 1.905791e+00 1.925837e+00 1.905791e+00 1.925836e+00 1.905791e+00 1.925836e+00 1.905790e+00 1.925836e+00 1.905790e+00 1.925835e+00 1.905789e+00 1.925834e+00 1.905788e+00 1.925833e+00 1.905787e+00 1.925832e+00 1.905786e+00 1.925831e+00 1.905784e+00 1.925830e+00 1.905783e+00 1.925828e+00 1.905781e+00 1.925825e+00 1.905778e+00 1.925823e+00 1.905775e+00 1.925819e+00 1.905771e+00 1.925815e+00 1.905767e+00 1.925811e+00 1.905761e+00 1.925805e+00 1.905755e+00 1.925798e+00 1.905746e+00 1.925789e+00 1.905737e+00 1.925779e+00 1.905725e+00 1.925766e+00 1.905710e+00 1.925751e+00 1.905693e+00 1.925732e+00 1.905672e+00 1.925710e+00 1.905646e+00 1.925682e+00 1.905615e+00 1.925649e+00 1.905577e+00 1.925608e+00 1.905530e+00 1.925558e+00 1.905473e+00 1.925496e+00 1.905403e+00 1.925421e+00 1.905317e+00 1.925328e+00 1.905211e+00 1.925212e+00 1.905080e+00 1.925069e+00 1.904917e+00 1.924889e+00 1.904713e+00 1.924663e+00 1.904456e+00 1.924374e+00 1.904129e+00 1.924003e+00 1.903709e+00 1.923520e+00 1.903162e+00 1.922879e+00 1.902438e+00 1.922013e+00 1.901458e+00 1.920812e+00 1.900097e+00 1.919094e+00 1.898144e+00 1.916541e+00 1.895227e+00 1.912571e+00 1.890664e+00 1.906085e+00 1.883217e+00 1.895046e+00 1.870887e+00 1.876414e+00 1.852874e+00 1.853270e+00 1.851376e+00 1.902043e+00 1.969125e+00 
1.981182e+00 1.957708e+00 1.981068e+00 1.944989e+00 1.671405e+00 1.626626e+00 1.572967e+00 1.606020e+00 1.618310e+00 1.660300e+00 1.684289e+00 1.718958e+00 1.742843e+00 1.768784e+00 1.790419e+00 1.808921e+00 1.828262e+00 1.840941e+00 1.858501e+00 1.866859e+00 1.883253e+00 1.888526e+00 1.904275e+00 1.907390e+00 1.922844e+00 1.924436e+00 1.939780e+00 1.940248e+00 1.955530e+00 1.955094e+00 1.970257e+00 1.969004e+00 1.983915e+00 1.981831e+00 1.996307e+00 1.993315e+00 2.007152e+00 2.003140e+00 2.016140e+00 2.010995e+00 2.022992e+00 2.016624e+00 2.027508e+00 2.019868e+00 2.029593e+00 2.020687e+00 2.029271e+00 2.019156e+00 2.026679e+00 2.015459e+00 2.022045e+00 2.009863e+00 2.015672e+00 2.002700e+00 2.007911e+00 1.994337e+00 1.999139e+00 1.985156e+00 1.989732e+00 1.975529e+00 1.980050e+00 1.965797e+00 1.970410e+00 1.956254e+00 1.961079e+00 1.947134e+00 1.952261e+00 1.938612e+00 1.944100e+00 1.930800e+00 1.936680e+00 1.923756e+00 1.930037e+00 1.917494e+00 1.924170e+00 1.911997e+00 1.919045e+00 1.907221e+00 1.914612e+00 1.903107e+00 1.910809e+00 1.899592e+00 1.907570e+00 1.896607e+00 1.904826e+00 1.894085e+00 1.902514e+00 1.891965e+00 1.900574e+00 1.890188e+00 1.898951e+00 1.888705e+00 1.897598e+00 1.887470e+00 1.896472e+00 1.886443e+00 1.895537e+00 1.885591e+00 1.894763e+00 1.884886e+00 1.894121e+00 1.884303e+00 1.893591e+00 1.883821e+00 1.893153e+00 1.883423e+00 1.892792e+00 1.883094e+00 1.892494e+00 1.882823e+00 1.892248e+00 1.882600e+00 1.892046e+00 1.882416e+00 1.891879e+00 1.882265e+00 1.891742e+00 1.882140e+00 1.891629e+00 1.882038e+00 1.891536e+00 1.881953e+00 1.891459e+00 1.881884e+00 1.891396e+00 1.881827e+00 1.891344e+00 1.881780e+00 1.891302e+00 1.881741e+00 1.891267e+00 1.881709e+00 1.891238e+00 1.881683e+00 1.891214e+00 1.881662e+00 1.891195e+00 1.881644e+00 1.891179e+00 1.881629e+00 1.891166e+00 1.881617e+00 1.891155e+00 1.881608e+00 1.891146e+00 1.881599e+00 1.891138e+00 1.881593e+00 1.891132e+00 1.881587e+00 1.891127e+00 1.881583e+00 1.891123e+00 1.881579e+00 1.891120e+00 1.881576e+00 1.891117e+00 1.881574e+00 1.891115e+00 1.881572e+00 1.891113e+00 1.881570e+00 1.891112e+00 1.881568e+00 1.891110e+00 1.881567e+00 1.891109e+00 1.881566e+00 1.891108e+00 1.881566e+00 1.891108e+00 1.881565e+00 1.891107e+00 1.881564e+00 1.891107e+00 1.881564e+00 1.891106e+00 1.881564e+00 1.891106e+00 1.881563e+00 1.891106e+00 1.881563e+00 1.891106e+00 1.881563e+00 1.891105e+00 1.881563e+00 1.891105e+00 1.881563e+00 1.891105e+00 1.881562e+00 1.891105e+00 1.881562e+00 1.891105e+00 1.881562e+00 1.891105e+00 1.881562e+00 1.891105e+00 1.881562e+00 1.891105e+00 1.881562e+00 1.891105e+00 1.881562e+00 1.891105e+00 1.881562e+00 1.891105e+00 1.881562e+00 1.891105e+00 1.881562e+00 1.891105e+00 1.881562e+00 1.891105e+00 1.881562e+00 1.891105e+00 1.881562e+00 1.891105e+00 1.881562e+00 1.891105e+00 1.881562e+00 1.891105e+00 1.881562e+00 1.891105e+00 1.881562e+00 1.891105e+00 1.881562e+00 1.891105e+00 1.881562e+00 1.891105e+00 1.881562e+00 1.891105e+00 1.881562e+00 1.891104e+00 1.881562e+00 1.891104e+00 1.881562e+00 1.891104e+00 1.881562e+00 1.891104e+00 1.881562e+00 1.891104e+00 1.881562e+00 1.891104e+00 1.881562e+00 1.891104e+00 1.881562e+00 1.891104e+00 1.881562e+00 1.891104e+00 1.881562e+00 1.891104e+00 1.881562e+00 1.891104e+00 1.881562e+00 1.891104e+00 1.881562e+00 1.891104e+00 1.881561e+00 1.891104e+00 1.881561e+00 1.891104e+00 1.881561e+00 1.891104e+00 1.881561e+00 1.891103e+00 1.881561e+00 1.891103e+00 1.881561e+00 1.891103e+00 1.881560e+00 1.891102e+00 1.881560e+00 1.891102e+00 1.881560e+00 1.891101e+00 1.881559e+00 1.891101e+00 1.881558e+00 1.891100e+00 1.881558e+00 1.891099e+00 1.881557e+00 1.891098e+00 1.881555e+00 1.891096e+00 1.881554e+00 1.891095e+00 1.881552e+00 1.891093e+00 1.881550e+00 1.891090e+00 1.881548e+00 1.891087e+00 1.881545e+00 1.891083e+00 1.881541e+00 1.891078e+00 1.881536e+00 1.891073e+00 1.881531e+00 1.891066e+00 1.881524e+00 1.891057e+00 1.881516e+00 1.891047e+00 1.881506e+00 1.891035e+00 1.881494e+00 1.891020e+00 1.881480e+00 1.891002e+00 1.881462e+00 1.890980e+00 1.881440e+00 1.890953e+00 1.881414e+00 1.890920e+00 1.881382e+00 1.890880e+00 1.881343e+00 1.890832e+00 1.881296e+00 1.890773e+00 1.881239e+00 1.890701e+00 1.881169e+00 1.890614e+00 1.881084e+00 1.890508e+00 1.880981e+00 1.890378e+00 1.880855e+00 1.890221e+00 1.880701e+00 1.890029e+00 1.880514e+00 1.889795e+00 1.880286e+00 1.889510e+00 1.880008e+00 1.889162e+00 1.879668e+00 1.888737e+00 1.879253e+00 1.888217e+00 1.878744e+00 1.887579e+00 1.878119e+00 1.886797e+00 1.877352e+00 1.885835e+00 1.876407e+00 1.884649e+00 1.875238e+00 1.883182e+00 1.873789e+00 1.881362e+00 1.871984e+00 1.879091e+00 1.869723e+00 1.876241e+00 1.866869e+00 1.872641e+00 1.863239e+00 1.868048e+00 1.858570e+00 1.862125e+00 1.852484e+00 1.854374e+00 1.844415e+00 1.844049e+00 1.833488e+00 1.829985e+00 1.818309e+00 1.810318e+00 1.796623e+00 1.782067e+00 1.764952e+00 1.740915e+00 1.719322e+00 1.683480e+00 1.663255e+00 1.623238e+00 1.650539e+00 1.660029e+00 1.941695e+00 
1.920399e+00 1.897750e+00 1.920325e+00 1.921712e+00 1.964344e+00 1.923912e+00 1.917143e+00 1.878615e+00 1.884010e+00 1.860535e+00 1.879257e+00 1.864281e+00 1.889652e+00 1.877801e+00 1.905514e+00 1.894106e+00 1.922125e+00 1.910149e+00 1.937762e+00 1.925050e+00 1.952182e+00 1.938904e+00 1.965698e+00 1.952081e+00 1.978695e+00 1.964908e+00 1.991430e+00 1.977551e+00 2.003987e+00 1.990006e+00 2.016277e+00 2.002106e+00 2.028071e+00 2.013561e+00 2.039030e+00 2.023995e+00 2.048757e+00 2.032997e+00 2.056848e+00 2.040180e+00 2.062953e+00 2.045231e+00 2.066816e+00 2.047952e+00 2.068309e+00 2.048277e+00 2.067437e+00 2.046273e+00 2.064324e+00 2.042120e+00 2.059197e+00 2.036086e+00 2.052361e+00 2.028507e+00 2.044169e+00 2.019757e+00 2.035002e+00 2.010225e+00 2.025244e+00 2.000288e+00 2.015258e+00 1.990294e+00 2.005368e+00 1.980539e+00 1.995838e+00 1.971259e+00 1.986873e+00 1.962622e+00 1.978610e+00 1.954735e+00 1.971127e+00 1.947651e+00 1.964453e+00 1.941376e+00 1.958577e+00 1.935884e+00 1.953460e+00 1.931126e+00 1.949047e+00 1.927039e+00 1.945270e+00 1.923553e+00 1.942060e+00 1.920599e+00 1.939346e+00 1.918108e+00 1.937062e+00 1.916017e+00 1.935148e+00 1.914266e+00 1.933549e+00 1.912806e+00 1.932216e+00 1.911591e+00 1.931109e+00 1.910583e+00 1.930190e+00 1.909746e+00 1.929429e+00 1.909054e+00 1.928799e+00 1.908481e+00 1.928279e+00 1.908008e+00 1.927849e+00 1.907617e+00 1.927494e+00 1.907295e+00 1.927202e+00 1.907030e+00 1.926961e+00 1.906811e+00 1.926762e+00 1.906631e+00 1.926598e+00 1.906482e+00 1.926464e+00 1.906360e+00 1.926353e+00 1.906259e+00 1.926262e+00 1.906177e+00 1.926187e+00 1.906109e+00 1.926125e+00 1.906052e+00 1.926074e+00 1.906006e+00 1.926032e+00 1.905968e+00 1.925998e+00 1.905937e+00 1.925969e+00 1.905912e+00 1.925946e+00 1.905890e+00 1.925927e+00 1.905873e+00 1.925911e+00 1.905859e+00 1.925898e+00 1.905847e+00 1.925888e+00 1.905837e+00 1.925879e+00 1.905830e+00 1.925872e+00 1.905823e+00 1.925866e+00 1.905818e+00 1.925861e+00 1.905813e+00 1.925857e+00 1.905810e+00 1.925854e+00 1.905807e+00 1.925851e+00 1.905804e+00 1.925849e+00 1.905802e+00 1.925847e+00 1.905800e+00 1.925845e+00 1.905799e+00 1.925844e+00 1.905798e+00 1.925843e+00 1.905797e+00 1.925842e+00 1.905796e+00 1.925842e+00 1.905796e+00 1.925841e+00 1.905795e+00 1.925841e+00 1.905795e+00 1.925840e+00 1.905794e+00 1.925840e+00 1.905794e+00 1.925840e+00 1.905794e+00 1.925839e+00 1.905794e+00 1.925839e+00 1.905793e+00 1.925839e+00 1.905793e+00 1.925839e+00 1.905793e+00 1.925839e+00 1.905793e+00 1.925839e+00 1.905793e+00 1.925839e+00 1.905793e+00 1.925839e+00 1.905793e+00 1.925839e+00 1.905793e+00 1.925839e+00 1.905793e+00 1.925839e+00 1.905793e+00 1.925838e+00 1.905793e+00 1.925838e+00 1.905793e+00 1.925838e+00 1.905793e+00 1.925838e+00 1.905793e+00 1.925838e+00 1.905793e+00 1.925838e+00 1.905793e+00 1.925838e+00 1.905793e+00 1.925838e+00 1.905793e+00 1.925838e+00 1.905793e+00 1.925838e+00 1.905793e+00 1.925838e+00 1.905793e+00 1.925838e+00 1.905793e+00 1.925838e+00 1.905793e+00 1.925838e+00 1.905793e+00 1.925838e+00 1.905793e+00 1.925838e+00 1.905793e+00 1.925838e+00 1.905793e+00 1.925838e+00 1.905793e+00 1.925838e+00 1.905793e+00 1.925838e+00 1.905793e+00 1.925838e+00 1.905793e+00 1.925838e+00 1.905793e+00 1.925838e+00 1.905793e+00 1.925838e+00 1.905793e+00 1.925838e+00 1.905793e+00 1.925838e+00 1.905793e+00 1.925838e+00 1.905793e+00 1.925838e+00 1.905793e+00 1.925838e+00 1.905793e+00 1.925838e+00 1.905793e+00 1.925838e+00 1.905793e+00 1.925838e+00 1.905793e+00 1.925838e+00 1.905792e+00 1.925838e+00 1.905792e+00 1.925838e+00 1.905792e+00 1.925838e+00 1.905792e+00 1.925838e+00 1.905792e+00 1.925838e+00 1.905792e+00 1.925838e+00 1.905792e+00 1.925837e+00 1.905792e+00 1.925837e+00 1.905791e+00 1.925837e+00 1.905791e+00 1.925837e+00 1.905791e+00 1.925836e+00 1.905790e+00 1.925836e+00 1.905790e+00 1.925835e+00 1.905789e+00 1.925834e+00 1.905788e+00 1.925834e+00 1.905787e+00 1.925833e+00 1.905786e+00 1.925831e+00 1.905785e+00 1.925830e+00 1.905783e+00 1.925828e+00 1.905781e+00 1.925826e+00 1.905779e+00 1.925823e+00 1.905776e+00 1.925820e+00 1.905772e+00 1.925816e+00 1.905768e+00 1.925812e+00 1.905762e+00 1.925806e+00 1.905756e+00 1.925799e+00 1.905748e+00 1.925791e+00 1.905739e+00 1.925781e+00 1.905728e+00 1.925769e+00 1.905714e+00 1.925754e+00 1.905697e+00 1.925736e+00 1.905677e+00 1.925715e+00 1.905652e+00 1.925689e+00 1.905622e+00 1.925656e+00 1.905586e+00 1.925617e+00 1.905541e+00 1.925570e+00 1.905487e+00 1.925511e+00 1.905420e+00 1.925440e+00 1.905339e+00 1.925352e+00 1.905239e+00 1.925243e+00 1.905115e+00 1.925109e+00 1.904962e+00 1.924941e+00 1.904772e+00 1.924732e+00 1.904535e+00 1.924467e+00 1.904236e+00 1.924132e+00 1.903857e+00 1.923701e+00 1.903372e+00 1.923142e+00 1.902744e+00 1.922409e+00 1.901924e+00 1.921434e+00 1.900840e+00 1.920122e+00 1.899396e+00 1.918345e+00 1.897477e+00 1.915969e+00 1.895024e+00 1.913010e+00 1.892351e+00 1.910299e+00 1.891296e+00 1.911734e+00 1.898416e+00 1.929217e+00 1.926310e+00 1.972305e+00 1.933249e+00 
1.977971e+00 1.954671e+00 1.977878e+00 1.956708e+00 1.879540e+00 1.850101e+00 1.797126e+00 1.788110e+00 1.768504e+00 1.774564e+00 1.774646e+00 1.786467e+00 1.795894e+00 1.808120e+00 1.821423e+00 1.831767e+00 1.846407e+00 1.854236e+00 1.869199e+00 1.874662e+00 1.889659e+00 1.893192e+00 1.908226e+00 1.910293e+00 1.925430e+00 1.926406e+00 1.941680e+00 1.941821e+00 1.957196e+00 1.956637e+00 1.972004e+00 1.970769e+00 1.985954e+00 1.983981e+00 1.998761e+00 1.995924e+00 2.010052e+00 2.006198e+00 2.019438e+00 2.014413e+00 2.026571e+00 2.020260e+00 2.031210e+00 2.023553e+00 2.033246e+00 2.024246e+00 2.032713e+00 2.022436e+00 2.029772e+00 2.018336e+00 2.024685e+00 2.012247e+00 2.017788e+00 2.004535e+00 2.009467e+00 1.995604e+00 2.000130e+00 1.985868e+00 1.990188e+00 1.975730e+00 1.980026e+00 1.965555e+00 1.969985e+00 1.955654e+00 1.960341e+00 1.946268e+00 1.951301e+00 1.937570e+00 1.943004e+00 1.929661e+00 1.935522e+00 1.922588e+00 1.928878e+00 1.916350e+00 1.923053e+00 1.910912e+00 1.918000e+00 1.906219e+00 1.913658e+00 1.902202e+00 1.909955e+00 1.898787e+00 1.906815e+00 1.895901e+00 1.904169e+00 1.893473e+00 1.901947e+00 1.891439e+00 1.900088e+00 1.889740e+00 1.898539e+00 1.888325e+00 1.897249e+00 1.887150e+00 1.896179e+00 1.886175e+00 1.895292e+00 1.885367e+00 1.894558e+00 1.884699e+00 1.893951e+00 1.884147e+00 1.893449e+00 1.883691e+00 1.893036e+00 1.883316e+00 1.892695e+00 1.883006e+00 1.892413e+00 1.882750e+00 1.892182e+00 1.882540e+00 1.891991e+00 1.882367e+00 1.891834e+00 1.882224e+00 1.891704e+00 1.882106e+00 1.891598e+00 1.882010e+00 1.891510e+00 1.881930e+00 1.891438e+00 1.881865e+00 1.891379e+00 1.881811e+00 1.891330e+00 1.881767e+00 1.891290e+00 1.881730e+00 1.891257e+00 1.881701e+00 1.891230e+00 1.881676e+00 1.891208e+00 1.881656e+00 1.891189e+00 1.881639e+00 1.891174e+00 1.881625e+00 1.891162e+00 1.881614e+00 1.891152e+00 1.881605e+00 1.891143e+00 1.881597e+00 1.891136e+00 1.881591e+00 1.891131e+00 1.881586e+00 1.891126e+00 1.881582e+00 1.891122e+00 1.881578e+00 1.891119e+00 1.881575e+00 1.891117e+00 1.881573e+00 1.891114e+00 1.881571e+00 1.891113e+00 1.881569e+00 1.891111e+00 1.881568e+00 1.891110e+00 1.881567e+00 1.891109e+00 1.881566e+00 1.891108e+00 1.881565e+00 1.891108e+00 1.881565e+00 1.891107e+00 1.881564e+00 1.891107e+00 1.881564e+00 1.891106e+00 1.881564e+00 1.891106e+00 1.881563e+00 1.891106e+00 1.881563e+00 1.891105e+00 1.881563e+00 1.891105e+00 1.881563e+00 1.891105e+00 1.881563e+00 1.891105e+00 1.881562e+00 1.891105e+00 1.881562e+00 1.891105e+00 1.881562e+00 1.891105e+00 1.881562e+00 1.891105e+00 1.881562e+00 1.891105e+00 1.881562e+00 1.891105e+00 1.881562e+00 1.891105e+00 1.881562e+00 1.891105e+00 1.881562e+00 1.891105e+00 1.881562e+00 1.891105e+00 1.881562e+00 1.891105e+00 1.881562e+00 1.891105e+00 1.881562e+00 1.891105e+00 1.881562e+00 1.891105e+00 1.881562e+00 1.891105e+00 1.881562e+00 1.891105e+00 1.881562e+00 1.891105e+00 1.881562e+00 1.891105e+00 1.881562e+00 1.891105e+00 1.881562e+00 1.891105e+00 1.881562e+00 1.891104e+00 1.881562e+00 1.891104e+00 1.881562e+00 1.891104e+00 1.881562e+00 1.891104e+00 1.881562e+00 1.891104e+00 1.881562e+00 1.891104e+00 1.881562e+00 1.891104e+00 1.881562e+00 1.891104e+00 1.881562e+00 1.891104e+00 1.881562e+00 1.891104e+00 1.881562e+00 1.891104e+00 1.881562e+00 1.891104e+00 1.881562e+00 1.891104e+00 1.881562e+00 1.891104e+00 1.881561e+00 1.891104e+00 1.881561e+00 1.891104e+00 1.881561e+00 1.891103e+00 1.881561e+00 1.891103e+00 1.881561e+00 1.891103e+00 1.881560e+00 1.891103e+00 1.881560e+00 1.891102e+00 1.881560e+00 1.891102e+00 1.881559e+00 1.891101e+00 1.881559e+00 1.891100e+00 1.881558e+00 1.891099e+00 1.881557e+00 1.891098e+00 1.881556e+00 1.891097e+00 1.881555e+00 1.891095e+00 1.881553e+00 1.891093e+00 1.881551e+00 1.891091e+00 1.881549e+00 1.891088e+00 1.881546e+00 1.891084e+00 1.881542e+00 1.891080e+00 1.881538e+00 1.891074e+00 1.881533e+00 1.891068e+00 1.881526e+00 1.891060e+00 1.881519e+00 1.891051e+00 1.881509e+00 1.891039e+00 1.881498e+00 1.891025e+00 1.881484e+00 1.891008e+00 1.881468e+00 1.890987e+00 1.881447e+00 1.890961e+00 1.881423e+00 1.890931e+00 1.881393e+00 1.890893e+00 1.881356e+00 1.890847e+00 1.881312e+00 1.890792e+00 1.881258e+00 1.890725e+00 1.881192e+00 1.890642e+00 1.881112e+00 1.890543e+00 1.881015e+00 1.890421e+00 1.880897e+00 1.890273e+00 1.880752e+00 1.890093e+00 1.880577e+00 1.889874e+00 1.880363e+00 1.889606e+00 1.880102e+00 1.889280e+00 1.879784e+00 1.888882e+00 1.879395e+00 1.888395e+00 1.878920e+00 1.887800e+00 1.878338e+00 1.887072e+00 1.877625e+00 1.886178e+00 1.876748e+00 1.885079e+00 1.875670e+00 1.883726e+00 1.874338e+00 1.882055e+00 1.872689e+00 1.879983e+00 1.870639e+00 1.877406e+00 1.868079e+00 1.874184e+00 1.864866e+00 1.870134e+00 1.860808e+00 1.865014e+00 1.855652e+00 1.858500e+00 1.849062e+00 1.850169e+00 1.840609e+00 1.839494e+00 1.829811e+00 1.825933e+00 1.816345e+00 1.809302e+00 1.800829e+00 1.791057e+00 1.787194e+00 1.777891e+00 1.788594e+00 1.789385e+00 1.835993e+00 1.862236e+00 1.955361e+00 