# vtk DataFile Version 2.0
Comment goes here
ASCII

DATASET STRUCTURED_POINTS
FIELD FieldData 1
TIME 1 1 double
0.20000000
DIMENSIONS    384   64   1

ORIGIN    0.000   0.000   0.000
SPACING   0.078125 0.078125   1.000

POINT_DATA   24576
SCALARS uMag double
LOOKUP_TABLE default

1.958335e+00 1.489047e+00 1.957381e+00 1.439144e+00 5.541645e-01 9.720370e-02 2.182697e-01 4.047499e-01 5.176771e-01 6.026375e-01 6.522739e-01 6.960832e-01 7.234071e-01 7.475851e-01 7.661151e-01 7.796566e-01 7.944651e-01 8.016346e-01 8.148055e-01 8.178492e-01 8.303035e-01 8.305204e-01 8.426863e-01 8.408837e-01 8.529609e-01 8.496639e-01 8.617342e-01 8.572915e-01 8.693704e-01 8.640128e-01 8.760752e-01 8.699512e-01 8.819475e-01 8.751477e-01 8.870153e-01 8.795915e-01 8.912650e-01 8.832456e-01 8.946657e-01 8.860681e-01 8.971891e-01 8.880299e-01 8.988243e-01 8.891258e-01 8.995864e-01 8.893803e-01 8.995196e-01 8.888486e-01 8.986957e-01 8.876130e-01 8.972105e-01 8.857784e-01 8.951781e-01 8.834650e-01 8.927238e-01 8.808013e-01 8.899767e-01 8.779156e-01 8.870622e-01 8.749285e-01 8.840947e-01 8.719464e-01 8.811721e-01 8.690566e-01 8.783722e-01 8.663259e-01 8.757521e-01 8.637998e-01 8.733484e-01 8.615054e-01 8.711807e-01 8.594535e-01 8.692540e-01 8.576428e-01 8.675626e-01 8.560629e-01 8.660933e-01 8.546975e-01 8.648283e-01 8.535271e-01 8.637474e-01 8.525307e-01 8.628297e-01 8.516873e-01 8.620547e-01 8.509768e-01 8.614031e-01 8.503809e-01 8.608574e-01 8.498826e-01 8.604018e-01 8.494672e-01 8.600223e-01 8.491217e-01 8.597070e-01 8.488349e-01 8.594455e-01 8.485972e-01 8.592289e-01 8.484005e-01 8.590498e-01 8.482379e-01 8.589018e-01 8.481036e-01 8.587796e-01 8.479928e-01 8.586787e-01 8.479014e-01 8.585956e-01 8.478261e-01 8.585271e-01 8.477640e-01 8.584707e-01 8.477129e-01 8.584242e-01 8.476708e-01 8.583859e-01 8.476361e-01 8.583544e-01 8.476076e-01 8.583285e-01 8.475841e-01 8.583072e-01 8.475648e-01 8.582897e-01 8.475489e-01 8.582752e-01 8.475359e-01 8.582634e-01 8.475251e-01 8.582536e-01 8.475163e-01 8.582456e-01 8.475090e-01 8.582390e-01 8.475030e-01 8.582335e-01 8.474981e-01 8.582291e-01 8.474941e-01 8.582254e-01 8.474907e-01 8.582224e-01 8.474880e-01 8.582199e-01 8.474858e-01 8.582179e-01 8.474839e-01 8.582162e-01 8.474824e-01 8.582148e-01 8.474811e-01 8.582137e-01 8.474801e-01 8.582127e-01 8.474793e-01 8.582120e-01 8.474786e-01 8.582113e-01 8.474780e-01 8.582108e-01 8.474775e-01 8.582104e-01 8.474772e-01 8.582100e-01 8.474768e-01 8.582098e-01 8.474766e-01 8.582095e-01 8.474764e-01 8.582093e-01 8.474762e-01 8.582092e-01 8.474760e-01 8.582090e-01 8.474759e-01 8.582089e-01 8.474758e-01 8.582088e-01 8.474757e-01 8.582088e-01 8.474757e-01 8.582087e-01 8.474756e-01 8.582087e-01 8.474756e-01 8.582086e-01 8.474755e-01 8.582086e-01 8.474755e-01 8.582086e-01 8.474755e-01 8.582085e-01 8.474755e-01 8.582085e-01 8.474754e-01 8.582085e-01 8.474754e-01 8.582085e-01 8.474754e-01 8.582085e-01 8.474754e-01 8.582085e-01 8.474754e-01 8.582085e-01 8.474754e-01 8.582084e-01 8.474754e-01 8.582084e-01 8.474754e-01 8.582084e-01 8.474754e-01 8.582084e-01 8.474754e-01 8.582084e-01 8.474754e-01 8.582084e-01 8.474754e-01 8.582084e-01 8.474754e-01 8.582084e-01 8.474754e-01 8.582084e-01 8.474753e-01 8.582084e-01 8.474753e-01 8.582084e-01 8.474753e-01 8.582084e-01 8.474753e-01 8.582084e-01 8.474753e-01 8.582084e-01 8.474753e-01 8.582083e-01 8.474753e-01 8.582083e-01 8.474753e-01 8.582083e-01 8.474752e-01 8.582083e-01 8.474752e-01 8.582082e-01 8.474752e-01 8.582082e-01 8.474751e-01 8.582081e-01 8.474751e-01 8.582081e-01 8.474750e-01 8.582080e-01 8.474750e-01 8.582079e-01 8.474749e-01 8.582078e-01 8.474748e-01 8.582077e-01 8.474747e-01 8.582075e-01 8.474745e-01 8.582073e-01 8.474743e-01 8.582071e-01 8.474741e-01 8.582068e-01 8.474738e-01 8.582065e-01 8.474735e-01 8.582061e-01 8.474731e-01 8.582055e-01 8.474726e-01 8.582049e-01 8.474720e-01 8.582042e-01 8.474712e-01 8.582032e-01 8.474703e-01 8.582021e-01 8.474693e-01 8.582008e-01 8.474679e-01 8.581991e-01 8.474663e-01 8.581971e-01 8.474644e-01 8.581946e-01 8.474620e-01 8.581917e-01 8.474592e-01 8.581881e-01 8.474557e-01 8.581837e-01 8.474514e-01 8.581783e-01 8.474463e-01 8.581718e-01 8.474400e-01 8.581639e-01 8.474323e-01 8.581543e-01 8.474230e-01 8.581426e-01 8.474118e-01 8.581284e-01 8.473980e-01 8.581112e-01 8.473813e-01 8.580902e-01 8.473610e-01 8.580646e-01 8.473363e-01 8.580336e-01 8.473063e-01 8.579958e-01 8.472698e-01 8.579498e-01 8.472254e-01 8.578939e-01 8.471713e-01 8.578259e-01 8.471055e-01 8.577431e-01 8.470255e-01 8.576423e-01 8.469280e-01 8.575196e-01 8.468093e-01 8.573702e-01 8.466646e-01 8.571881e-01 8.464884e-01 8.569661e-01 8.462734e-01 8.566953e-01 8.460111e-01 8.563648e-01 8.456907e-01 8.559611e-01 8.452990e-01 8.554675e-01 8.448196e-01 8.548630e-01 8.442321e-01 8.541219e-01 8.435106e-01 8.532113e-01 8.426227e-01 8.520901e-01 8.415271e-01 8.507055e-01 8.401708e-01 8.489900e-01 8.384849e-01 8.468550e-01 8.363786e-01 8.441838e-01 8.337303e-01 8.408191e-01 8.303739e-01 8.365448e-01 8.260766e-01 8.310553e-01 8.205025e-01 8.239055e-01 8.131476e-01 8.144186e-01 8.032204e-01 8.015125e-01 7.893988e-01 7.833360e-01 7.692957e-01 7.564379e-01 7.381516e-01 7.136636e-01 6.853216e-01 6.384035e-01 5.842423e-01 4.883543e-01 3.633537e-01 1.512471e-01 1.725980e-01 6.452420e-01 1.446728e+00 
8.774298e-01 8.362147e-01 8.776638e-01 1.083803e+00 1.014508e+00 8.510590e-01 8.233405e-01 8.061684e-01 8.347549e-01 8.293617e-01 8.606665e-01 8.493180e-01 8.778424e-01 8.620582e-01 8.886472e-01 8.705019e-01 8.960830e-01 8.767465e-01 9.018256e-01 8.818848e-01 9.067115e-01 8.864630e-01 9.111606e-01 8.907566e-01 9.153826e-01 8.948967e-01 9.194683e-01 8.989259e-01 9.234320e-01 9.028254e-01 9.272335e-01 9.065316e-01 9.307938e-01 9.099495e-01 9.340091e-01 9.129671e-01 9.367664e-01 9.154709e-01 9.389585e-01 9.173605e-01 9.404986e-01 9.185618e-01 9.413304e-01 9.190348e-01 9.414335e-01 9.187773e-01 9.408244e-01 9.178230e-01 9.395530e-01 9.162378e-01 9.376979e-01 9.141133e-01 9.353592e-01 9.115597e-01 9.326513e-01 9.086970e-01 9.296947e-01 9.056470e-01 9.266077e-01 9.025251e-01 9.234989e-01 8.994329e-01 9.204611e-01 8.964541e-01 9.175680e-01 8.936517e-01 9.148728e-01 8.910684e-01 9.124092e-01 8.887285e-01 9.101936e-01 8.866406e-01 9.082288e-01 8.848014e-01 9.065071e-01 8.831990e-01 9.050137e-01 8.818158e-01 9.037295e-01 8.806313e-01 9.026333e-01 8.796237e-01 9.017033e-01 8.787713e-01 9.009184e-01 8.780537e-01 9.002588e-01 8.774519e-01 8.997066e-01 8.769489e-01 8.992457e-01 8.765297e-01 8.988620e-01 8.761810e-01 8.985432e-01 8.758917e-01 8.982788e-01 8.756519e-01 8.980598e-01 8.754535e-01 8.978787e-01 8.752894e-01 8.977291e-01 8.751540e-01 8.976055e-01 8.750422e-01 8.975036e-01 8.749499e-01 8.974196e-01 8.748739e-01 8.973503e-01 8.748113e-01 8.972932e-01 8.747597e-01 8.972463e-01 8.747172e-01 8.972076e-01 8.746823e-01 8.971757e-01 8.746535e-01 8.971495e-01 8.746298e-01 8.971279e-01 8.746103e-01 8.971102e-01 8.745943e-01 8.970956e-01 8.745811e-01 8.970836e-01 8.745702e-01 8.970737e-01 8.745613e-01 8.970656e-01 8.745539e-01 8.970589e-01 8.745479e-01 8.970534e-01 8.745429e-01 8.970489e-01 8.745389e-01 8.970452e-01 8.745355e-01 8.970421e-01 8.745327e-01 8.970396e-01 8.745305e-01 8.970375e-01 8.745286e-01 8.970358e-01 8.745271e-01 8.970344e-01 8.745258e-01 8.970333e-01 8.745248e-01 8.970323e-01 8.745239e-01 8.970316e-01 8.745232e-01 8.970309e-01 8.745226e-01 8.970304e-01 8.745221e-01 8.970300e-01 8.745218e-01 8.970296e-01 8.745214e-01 8.970293e-01 8.745212e-01 8.970291e-01 8.745210e-01 8.970289e-01 8.745208e-01 8.970287e-01 8.745206e-01 8.970286e-01 8.745205e-01 8.970285e-01 8.745204e-01 8.970284e-01 8.745203e-01 8.970283e-01 8.745203e-01 8.970283e-01 8.745202e-01 8.970282e-01 8.745202e-01 8.970282e-01 8.745201e-01 8.970281e-01 8.745201e-01 8.970281e-01 8.745201e-01 8.970281e-01 8.745200e-01 8.970281e-01 8.745200e-01 8.970280e-01 8.745200e-01 8.970280e-01 8.745200e-01 8.970280e-01 8.745200e-01 8.970280e-01 8.745200e-01 8.970280e-01 8.745200e-01 8.970280e-01 8.745200e-01 8.970280e-01 8.745200e-01 8.970280e-01 8.745200e-01 8.970280e-01 8.745200e-01 8.970280e-01 8.745200e-01 8.970280e-01 8.745200e-01 8.970280e-01 8.745200e-01 8.970280e-01 8.745199e-01 8.970280e-01 8.745199e-01 8.970280e-01 8.745199e-01 8.970280e-01 8.745199e-01 8.970280e-01 8.745199e-01 8.970280e-01 8.745199e-01 8.970280e-01 8.745199e-01 8.970280e-01 8.745199e-01 8.970280e-01 8.745199e-01 8.970280e-01 8.745199e-01 8.970280e-01 8.745199e-01 8.970279e-01 8.745199e-01 8.970279e-01 8.745199e-01 8.970279e-01 8.745199e-01 8.970279e-01 8.745199e-01 8.970279e-01 8.745199e-01 8.970279e-01 8.745199e-01 8.970279e-01 8.745199e-01 8.970279e-01 8.745198e-01 8.970279e-01 8.745198e-01 8.970278e-01 8.745198e-01 8.970278e-01 8.745198e-01 8.970278e-01 8.745197e-01 8.970277e-01 8.745197e-01 8.970277e-01 8.745196e-01 8.970276e-01 8.745195e-01 8.970275e-01 8.745194e-01 8.970274e-01 8.745193e-01 8.970273e-01 8.745192e-01 8.970272e-01 8.745191e-01 8.970270e-01 8.745189e-01 8.970268e-01 8.745186e-01 8.970266e-01 8.745184e-01 8.970262e-01 8.745180e-01 8.970259e-01 8.745176e-01 8.970254e-01 8.745171e-01 8.970249e-01 8.745165e-01 8.970242e-01 8.745158e-01 8.970234e-01 8.745149e-01 8.970225e-01 8.745138e-01 8.970213e-01 8.745125e-01 8.970199e-01 8.745109e-01 8.970182e-01 8.745090e-01 8.970161e-01 8.745066e-01 8.970135e-01 8.745038e-01 8.970104e-01 8.745003e-01 8.970067e-01 8.744961e-01 8.970021e-01 8.744911e-01 8.969966e-01 8.744849e-01 8.969899e-01 8.744774e-01 8.969817e-01 8.744682e-01 8.969718e-01 8.744572e-01 8.969597e-01 8.744437e-01 8.969451e-01 8.744273e-01 8.969272e-01 8.744073e-01 8.969054e-01 8.743830e-01 8.968789e-01 8.743533e-01 8.968465e-01 8.743171e-01 8.968069e-01 8.742729e-01 8.967585e-01 8.742187e-01 8.966990e-01 8.741523e-01 8.966259e-01 8.740707e-01 8.965359e-01 8.739701e-01 8.964245e-01 8.738458e-01 8.962861e-01 8.736915e-01 8.961135e-01 8.734989e-01 8.958966e-01 8.732572e-01 8.956223e-01 8.729515e-01 8.952718e-01 8.725612e-01 8.948191e-01 8.720568e-01 8.942258e-01 8.713953e-01 8.934342e-01 8.705112e-01 8.923540e-01 8.693005e-01 8.908371e-01 8.675900e-01 8.886282e-01 8.650744e-01 8.852604e-01 8.611816e-01 8.798259e-01 8.547805e-01 8.704891e-01 8.436435e-01 8.537478e-01 8.243928e-01 8.259819e-01 8.007289e-01 8.087516e-01 8.413432e-01 9.644215e-01 1.053502e+00 
9.592972e-01 9.327375e-01 9.590396e-01 9.178471e-01 5.934574e-01 5.692002e-01 5.343061e-01 5.871371e-01 6.116083e-01 6.592001e-01 6.851109e-01 7.170245e-01 7.372023e-01 7.568777e-01 7.729442e-01 7.844535e-01 7.982931e-01 8.043981e-01 8.171449e-01 8.195669e-01 8.318234e-01 8.316503e-01 8.437245e-01 8.416669e-01 8.537077e-01 8.502415e-01 8.623073e-01 8.577531e-01 8.698473e-01 8.644185e-01 8.765084e-01 8.703411e-01 8.823715e-01 8.755470e-01 8.874499e-01 8.800122e-01 8.917176e-01 8.836884e-01 8.951332e-01 8.865252e-01 8.976611e-01 8.884876e-01 8.992861e-01 8.895680e-01 9.000223e-01 8.897909e-01 8.999149e-01 8.892134e-01 8.990382e-01 8.879210e-01 8.974914e-01 8.860221e-01 8.953921e-01 8.836411e-01 8.928697e-01 8.809104e-01 8.900572e-01 8.779623e-01 8.870835e-01 8.749206e-01 8.840657e-01 8.718937e-01 8.811032e-01 8.689701e-01 8.782744e-01 8.662162e-01 8.756357e-01 8.636768e-01 8.732226e-01 8.613771e-01 8.710527e-01 8.593263e-01 8.691294e-01 8.575213e-01 8.674452e-01 8.559500e-01 8.659854e-01 8.545950e-01 8.647312e-01 8.534357e-01 8.636614e-01 8.524503e-01 8.627546e-01 8.516175e-01 8.619897e-01 8.509168e-01 8.613474e-01 8.503296e-01 8.608100e-01 8.498391e-01 8.603617e-01 8.494305e-01 8.599886e-01 8.490909e-01 8.596787e-01 8.488091e-01 8.594219e-01 8.485757e-01 8.592092e-01 8.483827e-01 8.590334e-01 8.482231e-01 8.588882e-01 8.480913e-01 8.587683e-01 8.479826e-01 8.586694e-01 8.478930e-01 8.585879e-01 8.478191e-01 8.585208e-01 8.477582e-01 8.584654e-01 8.477081e-01 8.584199e-01 8.476669e-01 8.583824e-01 8.476329e-01 8.583515e-01 8.476049e-01 8.583261e-01 8.475819e-01 8.583052e-01 8.475630e-01 8.582880e-01 8.475475e-01 8.582739e-01 8.475346e-01 8.582623e-01 8.475241e-01 8.582527e-01 8.475155e-01 8.582448e-01 8.475083e-01 8.582384e-01 8.475025e-01 8.582330e-01 8.474977e-01 8.582287e-01 8.474937e-01 8.582251e-01 8.474904e-01 8.582221e-01 8.474878e-01 8.582197e-01 8.474856e-01 8.582177e-01 8.474837e-01 8.582160e-01 8.474823e-01 8.582147e-01 8.474810e-01 8.582136e-01 8.474800e-01 8.582127e-01 8.474792e-01 8.582119e-01 8.474785e-01 8.582113e-01 8.474780e-01 8.582108e-01 8.474775e-01 8.582104e-01 8.474771e-01 8.582100e-01 8.474768e-01 8.582097e-01 8.474765e-01 8.582095e-01 8.474763e-01 8.582093e-01 8.474762e-01 8.582092e-01 8.474760e-01 8.582090e-01 8.474759e-01 8.582089e-01 8.474758e-01 8.582088e-01 8.474757e-01 8.582088e-01 8.474757e-01 8.582087e-01 8.474756e-01 8.582086e-01 8.474756e-01 8.582086e-01 8.474755e-01 8.582086e-01 8.474755e-01 8.582085e-01 8.474755e-01 8.582085e-01 8.474755e-01 8.582085e-01 8.474754e-01 8.582085e-01 8.474754e-01 8.582085e-01 8.474754e-01 8.582085e-01 8.474754e-01 8.582085e-01 8.474754e-01 8.582085e-01 8.474754e-01 8.582084e-01 8.474754e-01 8.582084e-01 8.474754e-01 8.582084e-01 8.474754e-01 8.582084e-01 8.474754e-01 8.582084e-01 8.474754e-01 8.582084e-01 8.474754e-01 8.582084e-01 8.474754e-01 8.582084e-01 8.474754e-01 8.582084e-01 8.474753e-01 8.582084e-01 8.474753e-01 8.582084e-01 8.474753e-01 8.582084e-01 8.474753e-01 8.582084e-01 8.474753e-01 8.582084e-01 8.474753e-01 8.582083e-01 8.474753e-01 8.582083e-01 8.474753e-01 8.582083e-01 8.474752e-01 8.582083e-01 8.474752e-01 8.582082e-01 8.474752e-01 8.582082e-01 8.474751e-01 8.582082e-01 8.474751e-01 8.582081e-01 8.474750e-01 8.582080e-01 8.474750e-01 8.582079e-01 8.474749e-01 8.582078e-01 8.474748e-01 8.582077e-01 8.474747e-01 8.582075e-01 8.474745e-01 8.582074e-01 8.474743e-01 8.582071e-01 8.474741e-01 8.582068e-01 8.474738e-01 8.582065e-01 8.474735e-01 8.582061e-01 8.474731e-01 8.582056e-01 8.474726e-01 8.582050e-01 8.474720e-01 8.582042e-01 8.474713e-01 8.582033e-01 8.474704e-01 8.582022e-01 8.474694e-01 8.582009e-01 8.474681e-01 8.581993e-01 8.474665e-01 8.581973e-01 8.474646e-01 8.581949e-01 8.474623e-01 8.581920e-01 8.474595e-01 8.581884e-01 8.474560e-01 8.581841e-01 8.474519e-01 8.581789e-01 8.474468e-01 8.581725e-01 8.474407e-01 8.581648e-01 8.474332e-01 8.581554e-01 8.474241e-01 8.581439e-01 8.474130e-01 8.581300e-01 8.473995e-01 8.581130e-01 8.473831e-01 8.580924e-01 8.473632e-01 8.580674e-01 8.473390e-01 8.580369e-01 8.473096e-01 8.579999e-01 8.472738e-01 8.579548e-01 8.472302e-01 8.579000e-01 8.471772e-01 8.578333e-01 8.471127e-01 8.577521e-01 8.470342e-01 8.576533e-01 8.469386e-01 8.575330e-01 8.468223e-01 8.573866e-01 8.466805e-01 8.572081e-01 8.465078e-01 8.569906e-01 8.462972e-01 8.567253e-01 8.460402e-01 8.564016e-01 8.457265e-01 8.560063e-01 8.453431e-01 8.555231e-01 8.448740e-01 8.549317e-01 8.442994e-01 8.542070e-01 8.435942e-01 8.533172e-01 8.427272e-01 8.522225e-01 8.416583e-01 8.508721e-01 8.403369e-01 8.492012e-01 8.386968e-01 8.471252e-01 8.366520e-01 8.445336e-01 8.340880e-01 8.412786e-01 8.308500e-01 8.371595e-01 8.267241e-01 8.318972e-01 8.214079e-01 8.250939e-01 8.144605e-01 8.161647e-01 8.052183e-01 8.042201e-01 7.926463e-01 7.878595e-01 7.750784e-01 7.648187e-01 7.498055e-01 7.314728e-01 7.127136e-01 6.827861e-01 6.597312e-01 6.163095e-01 5.983205e-01 5.536315e-01 5.950559e-01 6.242188e-01 9.269998e-01 
8.909155e-01 8.655051e-01 8.908412e-01 9.343199e-01 9.723041e-01 9.312097e-01 9.193176e-01 8.797072e-01 8.867347e-01 8.621550e-01 8.820793e-01 8.626679e-01 8.866607e-01 8.677630e-01 8.925692e-01 8.731652e-01 8.979850e-01 8.780915e-01 9.028084e-01 8.826000e-01 9.072399e-01 8.868588e-01 9.114594e-01 8.909951e-01 9.155779e-01 8.950762e-01 9.196414e-01 8.991135e-01 9.236402e-01 9.030696e-01 9.275174e-01 9.068656e-01 9.311788e-01 9.103911e-01 9.345048e-01 9.135183e-01 9.373663e-01 9.161181e-01 9.396421e-01 9.180775e-01 9.412347e-01 9.193142e-01 9.420827e-01 9.197852e-01 9.421652e-01 9.194896e-01 9.415020e-01 9.184657e-01 9.401485e-01 9.167858e-01 9.381900e-01 9.145488e-01 9.357343e-01 9.118730e-01 9.329037e-01 9.088869e-01 9.298270e-01 9.057204e-01 9.266299e-01 9.024955e-01 9.234267e-01 8.993186e-01 9.203141e-01 8.962756e-01 9.173668e-01 8.934297e-01 9.146373e-01 8.908215e-01 9.121566e-01 8.884725e-01 9.099380e-01 8.863877e-01 9.079808e-01 8.845604e-01 9.062740e-01 8.829756e-01 9.048000e-01 8.816133e-01 9.035374e-01 8.804509e-01 9.024634e-01 8.794652e-01 9.015549e-01 8.786337e-01 9.007901e-01 8.779353e-01 9.001490e-01 8.773509e-01 8.996132e-01 8.768633e-01 8.991667e-01 8.764575e-01 8.987955e-01 8.761204e-01 8.984874e-01 8.758410e-01 8.982322e-01 8.756096e-01 8.980210e-01 8.754183e-01 8.978465e-01 8.752602e-01 8.977023e-01 8.751297e-01 8.975834e-01 8.750221e-01 8.974853e-01 8.749334e-01 8.974044e-01 8.748602e-01 8.973378e-01 8.748000e-01 8.972829e-01 8.747504e-01 8.972377e-01 8.747095e-01 8.972006e-01 8.746759e-01 8.971699e-01 8.746483e-01 8.971448e-01 8.746255e-01 8.971240e-01 8.746068e-01 8.971070e-01 8.745913e-01 8.970929e-01 8.745787e-01 8.970814e-01 8.745682e-01 8.970719e-01 8.745597e-01 8.970641e-01 8.745526e-01 8.970577e-01 8.745468e-01 8.970524e-01 8.745420e-01 8.970481e-01 8.745381e-01 8.970445e-01 8.745349e-01 8.970416e-01 8.745322e-01 8.970391e-01 8.745300e-01 8.970372e-01 8.745283e-01 8.970355e-01 8.745268e-01 8.970342e-01 8.745256e-01 8.970331e-01 8.745246e-01 8.970322e-01 8.745237e-01 8.970314e-01 8.745231e-01 8.970308e-01 8.745225e-01 8.970303e-01 8.745221e-01 8.970299e-01 8.745217e-01 8.970296e-01 8.745214e-01 8.970293e-01 8.745211e-01 8.970290e-01 8.745209e-01 8.970289e-01 8.745207e-01 8.970287e-01 8.745206e-01 8.970286e-01 8.745205e-01 8.970285e-01 8.745204e-01 8.970284e-01 8.745203e-01 8.970283e-01 8.745202e-01 8.970282e-01 8.745202e-01 8.970282e-01 8.745201e-01 8.970282e-01 8.745201e-01 8.970281e-01 8.745201e-01 8.970281e-01 8.745201e-01 8.970281e-01 8.745200e-01 8.970281e-01 8.745200e-01 8.970280e-01 8.745200e-01 8.970280e-01 8.745200e-01 8.970280e-01 8.745200e-01 8.970280e-01 8.745200e-01 8.970280e-01 8.745200e-01 8.970280e-01 8.745200e-01 8.970280e-01 8.745200e-01 8.970280e-01 8.745200e-01 8.970280e-01 8.745200e-01 8.970280e-01 8.745200e-01 8.970280e-01 8.745200e-01 8.970280e-01 8.745200e-01 8.970280e-01 8.745199e-01 8.970280e-01 8.745199e-01 8.970280e-01 8.745199e-01 8.970280e-01 8.745199e-01 8.970280e-01 8.745199e-01 8.970280e-01 8.745199e-01 8.970280e-01 8.745199e-01 8.970280e-01 8.745199e-01 8.970280e-01 8.745199e-01 8.970280e-01 8.745199e-01 8.970280e-01 8.745199e-01 8.970280e-01 8.745199e-01 8.970279e-01 8.745199e-01 8.970279e-01 8.745199e-01 8.970279e-01 8.745199e-01 8.970279e-01 8.745199e-01 8.970279e-01 8.745199e-01 8.970279e-01 8.745199e-01 8.970279e-01 8.745198e-01 8.970279e-01 8.745198e-01 8.970278e-01 8.745198e-01 8.970278e-01 8.745198e-01 8.970278e-01 8.745197e-01 8.970277e-01 8.745197e-01 8.970277e-01 8.745196e-01 8.970276e-01 8.745196e-01 8.970275e-01 8.745195e-01 8.970275e-01 8.745194e-01 8.970273e-01 8.745192e-01 8.970272e-01 8.745191e-01 8.970270e-01 8.745189e-01 8.970268e-01 8.745187e-01 8.970266e-01 8.745184e-01 8.970263e-01 8.745181e-01 8.970260e-01 8.745177e-01 8.970255e-01 8.745172e-01 8.970250e-01 8.745166e-01 8.970244e-01 8.745159e-01 8.970236e-01 8.745151e-01 8.970227e-01 8.745140e-01 8.970216e-01 8.745128e-01 8.970202e-01 8.745113e-01 8.970185e-01 8.745094e-01 8.970165e-01 8.745071e-01 8.970141e-01 8.745044e-01 8.970111e-01 8.745011e-01 8.970075e-01 8.744971e-01 8.970031e-01 8.744922e-01 8.969978e-01 8.744862e-01 8.969914e-01 8.744790e-01 8.969835e-01 8.744703e-01 8.969740e-01 8.744596e-01 8.969624e-01 8.744467e-01 8.969484e-01 8.744310e-01 8.969312e-01 8.744118e-01 8.969104e-01 8.743885e-01 8.968850e-01 8.743601e-01 8.968540e-01 8.743255e-01 8.968162e-01 8.742833e-01 8.967699e-01 8.742316e-01 8.967133e-01 8.741684e-01 8.966439e-01 8.740909e-01 8.965585e-01 8.739957e-01 8.964533e-01 8.738784e-01 8.963231e-01 8.737334e-01 8.961614e-01 8.735535e-01 8.959597e-01 8.733292e-01 8.957066e-01 8.730483e-01 8.953868e-01 8.726939e-01 8.949795e-01 8.722435e-01 8.944557e-01 8.716659e-01 8.937750e-01 8.709180e-01 8.928799e-01 8.699399e-01 8.916894e-01 8.686511e-01 8.900937e-01 8.669553e-01 8.879672e-01 8.647885e-01 8.852621e-01 8.623404e-01 8.824342e-01 8.609124e-01 8.820214e-01 8.656571e-01 8.929837e-01 8.904548e-01 9.333640e-01 9.454708e-01 9.880253e-01 9.304339e-01 
9.555825e-01 9.293713e-01 9.554495e-01 9.330221e-01 8.290285e-01 7.966885e-01 7.404358e-01 7.399332e-01 7.261974e-01 7.391599e-01 7.434934e-01 7.574958e-01 7.676698e-01 7.783374e-01 7.899229e-01 7.966550e-01 8.084315e-01 8.118012e-01 8.235583e-01 8.243019e-01 8.360731e-01 8.348163e-01 8.466608e-01 8.438818e-01 8.558337e-01 8.518825e-01 8.639440e-01 8.590677e-01 8.712113e-01 8.655762e-01 8.777496e-01 8.714580e-01 8.835898e-01 8.766960e-01 8.887035e-01 8.812287e-01 8.930280e-01 8.849751e-01 8.964917e-01 8.878587e-01 8.990370e-01 8.898278e-01 9.006368e-01 8.908673e-01 9.013018e-01 8.910022e-01 9.010802e-01 8.902948e-01 9.000535e-01 8.888392e-01 8.983296e-01 8.867540e-01 8.960365e-01 8.841750e-01 8.933148e-01 8.812469e-01 8.903093e-01 8.781136e-01 8.871598e-01 8.749089e-01 8.839920e-01 8.717483e-01 8.809106e-01 8.687234e-01 8.779955e-01 8.659004e-01 8.753014e-01 8.633210e-01 8.728598e-01 8.610056e-01 8.706833e-01 8.589579e-01 8.687696e-01 8.571695e-01 8.671063e-01 8.556236e-01 8.656743e-01 8.542989e-01 8.644514e-01 8.531718e-01 8.634138e-01 8.522186e-01 8.625383e-01 8.514163e-01 8.618028e-01 8.507438e-01 8.611874e-01 8.501821e-01 8.606739e-01 8.497141e-01 8.602466e-01 8.493251e-01 8.598918e-01 8.490024e-01 8.595976e-01 8.487351e-01 8.593541e-01 8.485140e-01 8.591528e-01 8.483313e-01 8.589865e-01 8.481805e-01 8.588493e-01 8.480560e-01 8.587361e-01 8.479534e-01 8.586428e-01 8.478688e-01 8.585659e-01 8.477992e-01 8.585026e-01 8.477418e-01 8.584504e-01 8.476945e-01 8.584075e-01 8.476557e-01 8.583722e-01 8.476237e-01 8.583431e-01 8.475973e-01 8.583192e-01 8.475757e-01 8.582995e-01 8.475579e-01 8.582833e-01 8.475432e-01 8.582700e-01 8.475312e-01 8.582591e-01 8.475212e-01 8.582501e-01 8.475131e-01 8.582427e-01 8.475064e-01 8.582366e-01 8.475009e-01 8.582316e-01 8.474963e-01 8.582275e-01 8.474926e-01 8.582241e-01 8.474895e-01 8.582213e-01 8.474870e-01 8.582190e-01 8.474850e-01 8.582171e-01 8.474832e-01 8.582156e-01 8.474818e-01 8.582143e-01 8.474807e-01 8.582133e-01 8.474797e-01 8.582124e-01 8.474790e-01 8.582117e-01 8.474783e-01 8.582111e-01 8.474778e-01 8.582106e-01 8.474774e-01 8.582102e-01 8.474770e-01 8.582099e-01 8.474767e-01 8.582097e-01 8.474765e-01 8.582094e-01 8.474763e-01 8.582093e-01 8.474761e-01 8.582091e-01 8.474760e-01 8.582090e-01 8.474759e-01 8.582089e-01 8.474758e-01 8.582088e-01 8.474757e-01 8.582087e-01 8.474756e-01 8.582087e-01 8.474756e-01 8.582086e-01 8.474756e-01 8.582086e-01 8.474755e-01 8.582086e-01 8.474755e-01 8.582085e-01 8.474755e-01 8.582085e-01 8.474755e-01 8.582085e-01 8.474754e-01 8.582085e-01 8.474754e-01 8.582085e-01 8.474754e-01 8.582085e-01 8.474754e-01 8.582085e-01 8.474754e-01 8.582085e-01 8.474754e-01 8.582084e-01 8.474754e-01 8.582084e-01 8.474754e-01 8.582084e-01 8.474754e-01 8.582084e-01 8.474754e-01 8.582084e-01 8.474754e-01 8.582084e-01 8.474754e-01 8.582084e-01 8.474754e-01 8.582084e-01 8.474754e-01 8.582084e-01 8.474753e-01 8.582084e-01 8.474753e-01 8.582084e-01 8.474753e-01 8.582084e-01 8.474753e-01 8.582084e-01 8.474753e-01 8.582084e-01 8.474753e-01 8.582083e-01 8.474753e-01 8.582083e-01 8.474753e-01 8.582083e-01 8.474753e-01 8.582083e-01 8.474752e-01 8.582083e-01 8.474752e-01 8.582082e-01 8.474752e-01 8.582082e-01 8.474751e-01 8.582081e-01 8.474751e-01 8.582080e-01 8.474750e-01 8.582080e-01 8.474749e-01 8.582079e-01 8.474748e-01 8.582077e-01 8.474747e-01 8.582076e-01 8.474746e-01 8.582074e-01 8.474744e-01 8.582072e-01 8.474742e-01 8.582069e-01 8.474739e-01 8.582066e-01 8.474736e-01 8.582062e-01 8.474732e-01 8.582058e-01 8.474728e-01 8.582052e-01 8.474722e-01 8.582045e-01 8.474716e-01 8.582036e-01 8.474707e-01 8.582026e-01 8.474697e-01 8.582013e-01 8.474685e-01 8.581998e-01 8.474670e-01 8.581980e-01 8.474652e-01 8.581957e-01 8.474631e-01 8.581929e-01 8.474604e-01 8.581896e-01 8.474572e-01 8.581855e-01 8.474532e-01 8.581806e-01 8.474485e-01 8.581746e-01 8.474427e-01 8.581673e-01 8.474356e-01 8.581584e-01 8.474270e-01 8.581477e-01 8.474166e-01 8.581345e-01 8.474039e-01 8.581186e-01 8.473885e-01 8.580992e-01 8.473698e-01 8.580756e-01 8.473470e-01 8.580469e-01 8.473192e-01 8.580121e-01 8.472855e-01 8.579696e-01 8.472445e-01 8.579180e-01 8.471946e-01 8.578552e-01 8.471339e-01 8.577789e-01 8.470601e-01 8.576859e-01 8.469702e-01 8.575728e-01 8.468608e-01 8.574351e-01 8.467276e-01 8.572673e-01 8.465653e-01 8.570630e-01 8.463675e-01 8.568140e-01 8.461264e-01 8.565103e-01 8.458323e-01 8.561398e-01 8.454733e-01 8.556874e-01 8.450346e-01 8.551345e-01 8.444980e-01 8.544580e-01 8.438408e-01 8.536292e-01 8.430347e-01 8.526120e-01 8.420440e-01 8.513614e-01 8.408238e-01 8.498201e-01 8.393167e-01 8.479150e-01 8.374494e-01 8.455524e-01 8.351266e-01 8.426105e-01 8.322240e-01 8.389300e-01 8.285777e-01 8.343001e-01 8.239699e-01 8.284413e-01 8.181112e-01 8.209833e-01 8.106228e-01 8.114477e-01 8.010347e-01 7.992651e-01 7.888614e-01 7.839298e-01 7.739436e-01 7.656076e-01 7.575944e-01 7.469945e-01 7.456964e-01 7.376906e-01 7.544989e-01 7.603596e-01 8.139861e-01 8.485120e-01 9.348953e-01 