# vtk DataFile Version 2.0
Comment goes here
ASCII

DATASET STRUCTURED_POINTS
FIELD FieldData 1
TIME 1 1 double
1.32500000
DIMENSIONS    384   64   1

ORIGIN    0.000   0.000   0.000
SPACING   0.078125 0.078125   1.000

POINT_DATA   24576
SCALARS uMag double
LOOKUP_TABLE default

3.504485e+00 3.648368e+00 3.504324e+00 3.656367e+00 3.794955e+00 3.932601e+00 4.007740e+00 4.076291e+00 4.110892e+00 4.146319e+00 4.165408e+00 4.186830e+00 4.200598e+00 4.215813e+00 4.228051e+00 4.240381e+00 4.252573e+00 4.263600e+00 4.276410e+00 4.287028e+00 4.300827e+00 4.311611e+00 4.326619e+00 4.337939e+00 4.354255e+00 4.366327e+00 4.383953e+00 4.396871e+00 4.415717e+00 4.429467e+00 4.449352e+00 4.463817e+00 4.484471e+00 4.499439e+00 4.520514e+00 4.535696e+00 4.556792e+00 4.571845e+00 4.592541e+00 4.607100e+00 4.626986e+00 4.640692e+00 4.659405e+00 4.671928e+00 4.689167e+00 4.700226e+00 4.715765e+00 4.725139e+00 4.738830e+00 4.746356e+00 4.758120e+00 4.763697e+00 4.773507e+00 4.777086e+00 4.784955e+00 4.786531e+00 4.792494e+00 4.792088e+00 4.796192e+00 4.793847e+00 4.796139e+00 4.791912e+00 4.792446e+00 4.786405e+00 4.785245e+00 4.777475e+00 4.774699e+00 4.765307e+00 4.761018e+00 4.750133e+00 4.744460e+00 4.732237e+00 4.725338e+00 4.711957e+00 4.704014e+00 4.689677e+00 4.680893e+00 4.665817e+00 4.656411e+00 4.640822e+00 4.631019e+00 4.615144e+00 4.605164e+00 4.589223e+00 4.579280e+00 4.563476e+00 4.553762e+00 4.538279e+00 4.528965e+00 4.513958e+00 4.505185e+00 4.490783e+00 4.482665e+00 4.468966e+00 4.461587e+00 4.448660e+00 4.442076e+00 4.429965e+00 4.424209e+00 4.412932e+00 4.408011e+00 4.397568e+00 4.393471e+00 4.383840e+00 4.380539e+00 4.371685e+00 4.369139e+00 4.361016e+00 4.359173e+00 4.351726e+00 4.350528e+00 4.343696e+00 4.343082e+00 4.336801e+00 4.336709e+00 4.330918e+00 4.331285e+00 4.325925e+00 4.326694e+00 4.321707e+00 4.322823e+00 4.318159e+00 4.319574e+00 4.315185e+00 4.316854e+00 4.312700e+00 4.314584e+00 4.310628e+00 4.312695e+00 4.308906e+00 4.311125e+00 4.307476e+00 4.309823e+00 4.306291e+00 4.308745e+00 4.305310e+00 4.307853e+00 4.304499e+00 4.307116e+00 4.303829e+00 4.306508e+00 4.303276e+00 4.306006e+00 4.302820e+00 4.305592e+00 4.302445e+00 4.305251e+00 4.302135e+00 4.304970e+00 4.301880e+00 4.304738e+00 4.301670e+00 4.304548e+00 4.301497e+00 4.304391e+00 4.301355e+00 4.304262e+00 4.301237e+00 4.304155e+00 4.301141e+00 4.304068e+00 4.301062e+00 4.303996e+00 4.300997e+00 4.303937e+00 4.300943e+00 4.303888e+00 4.300899e+00 4.303848e+00 4.300862e+00 4.303815e+00 4.300833e+00 4.303788e+00 4.300808e+00 4.303766e+00 4.300788e+00 4.303748e+00 4.300771e+00 4.303733e+00 4.300758e+00 4.303720e+00 4.300746e+00 4.303710e+00 4.300737e+00 4.303702e+00 4.300730e+00 4.303695e+00 4.300723e+00 4.303689e+00 4.300718e+00 4.303685e+00 4.300714e+00 4.303681e+00 4.300711e+00 4.303678e+00 4.300708e+00 4.303675e+00 4.300705e+00 4.303673e+00 4.300703e+00 4.303671e+00 4.300702e+00 4.303670e+00 4.300701e+00 4.303669e+00 4.300699e+00 4.303668e+00 4.300699e+00 4.303667e+00 4.300698e+00 4.303666e+00 4.300697e+00 4.303666e+00 4.300697e+00 4.303665e+00 4.300696e+00 4.303665e+00 4.300696e+00 4.303665e+00 4.300696e+00 4.303664e+00 4.300696e+00 4.303664e+00 4.300695e+00 4.303664e+00 4.300695e+00 4.303664e+00 4.300695e+00 4.303664e+00 4.300695e+00 4.303664e+00 4.300695e+00 4.303664e+00 4.300695e+00 4.303663e+00 4.300695e+00 4.303663e+00 4.300695e+00 4.303663e+00 4.300695e+00 4.303663e+00 4.300695e+00 4.303663e+00 4.300695e+00 4.303663e+00 4.300695e+00 4.303663e+00 4.300695e+00 4.303663e+00 4.300694e+00 4.303663e+00 4.300694e+00 4.303663e+00 4.300694e+00 4.303663e+00 4.300694e+00 4.303663e+00 4.300694e+00 4.303663e+00 4.300694e+00 4.303663e+00 4.300694e+00 4.303663e+00 4.300694e+00 4.303663e+00 4.300694e+00 4.303663e+00 4.300694e+00 4.303663e+00 4.300694e+00 4.303662e+00 4.300694e+00 4.303662e+00 4.300694e+00 4.303662e+00 4.300693e+00 4.303662e+00 4.300693e+00 4.303662e+00 4.300693e+00 4.303661e+00 4.300693e+00 4.303661e+00 4.300692e+00 4.303660e+00 4.300692e+00 4.303660e+00 4.300691e+00 4.303659e+00 4.300690e+00 4.303658e+00 4.300689e+00 4.303657e+00 4.300688e+00 4.303656e+00 4.300687e+00 4.303654e+00 4.300685e+00 4.303652e+00 4.300683e+00 4.303649e+00 4.300681e+00 4.303646e+00 4.300678e+00 4.303643e+00 4.300674e+00 4.303638e+00 4.300670e+00 4.303633e+00 4.300665e+00 4.303627e+00 4.300658e+00 4.303619e+00 4.300651e+00 4.303609e+00 4.300641e+00 4.303598e+00 4.300630e+00 4.303583e+00 4.300616e+00 4.303566e+00 4.300599e+00 4.303545e+00 4.300578e+00 4.303519e+00 4.300553e+00 4.303488e+00 4.300522e+00 4.303450e+00 4.300485e+00 4.303404e+00 4.300439e+00 4.303348e+00 4.300384e+00 4.303279e+00 4.300316e+00 4.303196e+00 4.300233e+00 4.303094e+00 4.300132e+00 4.302969e+00 4.300009e+00 4.302816e+00 4.299858e+00 4.302630e+00 4.299672e+00 4.302401e+00 4.299444e+00 4.302119e+00 4.299164e+00 4.301772e+00 4.298817e+00 4.301344e+00 4.298388e+00 4.300813e+00 4.297853e+00 4.300153e+00 4.297184e+00 4.299325e+00 4.296340e+00 4.298282e+00 4.295267e+00 4.296956e+00 4.293888e+00 4.295250e+00 4.292090e+00 4.293025e+00 4.289700e+00 4.290067e+00 4.286444e+00 4.286032e+00 4.281848e+00 4.280326e+00 4.275017e+00 4.271820e+00 4.264031e+00 4.258065e+00 4.244037e+00 4.232793e+00 4.200309e+00 4.176862e+00 4.079976e+00 4.022362e+00 3.668088e+00 
4.309224e+00 4.298233e+00 4.309240e+00 4.297867e+00 4.260822e+00 4.241329e+00 4.233294e+00 4.226817e+00 4.232889e+00 4.231383e+00 4.242399e+00 4.242489e+00 4.255527e+00 4.256447e+00 4.270766e+00 4.272470e+00 4.287900e+00 4.290456e+00 4.306988e+00 4.310513e+00 4.328223e+00 4.332853e+00 4.351822e+00 4.357654e+00 4.377913e+00 4.384982e+00 4.406493e+00 4.414763e+00 4.437410e+00 4.446770e+00 4.470352e+00 4.480607e+00 4.504836e+00 4.515709e+00 4.540225e+00 4.551372e+00 4.575767e+00 4.586799e+00 4.610654e+00 4.621172e+00 4.644088e+00 4.653711e+00 4.675343e+00 4.683736e+00 4.703813e+00 4.710701e+00 4.729033e+00 4.734212e+00 4.750684e+00 4.754021e+00 4.768589e+00 4.770013e+00 4.782682e+00 4.782176e+00 4.792985e+00 4.790571e+00 4.799576e+00 4.795300e+00 4.802561e+00 4.796479e+00 4.802050e+00 4.794221e+00 4.798152e+00 4.788635e+00 4.790974e+00 4.779836e+00 4.780642e+00 4.767963e+00 4.767312e+00 4.753195e+00 4.751190e+00 4.735764e+00 4.732540e+00 4.715964e+00 4.711686e+00 4.694146e+00 4.689007e+00 4.670709e+00 4.664922e+00 4.646089e+00 4.639876e+00 4.620734e+00 4.614318e+00 4.595088e+00 4.588686e+00 4.569575e+00 4.563382e+00 4.544576e+00 4.538766e+00 4.520424e+00 4.515142e+00 4.497394e+00 4.492756e+00 4.475703e+00 4.471795e+00 4.455507e+00 4.452388e+00 4.436910e+00 4.434612e+00 4.419964e+00 4.418496e+00 4.404677e+00 4.404029e+00 4.391020e+00 4.391164e+00 4.378929e+00 4.379824e+00 4.368316e+00 4.369912e+00 4.359077e+00 4.361315e+00 4.351093e+00 4.353912e+00 4.344239e+00 4.347577e+00 4.338392e+00 4.342187e+00 4.333430e+00 4.337624e+00 4.329239e+00 4.333779e+00 4.325714e+00 4.330551e+00 4.322760e+00 4.327850e+00 4.320292e+00 4.325596e+00 4.318235e+00 4.323719e+00 4.316524e+00 4.322161e+00 4.315104e+00 4.320868e+00 4.313928e+00 4.319798e+00 4.312954e+00 4.318912e+00 4.312149e+00 4.318181e+00 4.311484e+00 4.317577e+00 4.310935e+00 4.317078e+00 4.310483e+00 4.316667e+00 4.310110e+00 4.316329e+00 4.309802e+00 4.316050e+00 4.309549e+00 4.315820e+00 4.309340e+00 4.315631e+00 4.309169e+00 4.315475e+00 4.309027e+00 4.315347e+00 4.308911e+00 4.315241e+00 4.308815e+00 4.315154e+00 4.308737e+00 4.315083e+00 4.308672e+00 4.315024e+00 4.308619e+00 4.314976e+00 4.308575e+00 4.314936e+00 4.308539e+00 4.314904e+00 4.308509e+00 4.314877e+00 4.308485e+00 4.314855e+00 4.308465e+00 4.314836e+00 4.308448e+00 4.314821e+00 4.308435e+00 4.314809e+00 4.308424e+00 4.314799e+00 4.308414e+00 4.314791e+00 4.308407e+00 4.314784e+00 4.308401e+00 4.314778e+00 4.308396e+00 4.314774e+00 4.308391e+00 4.314770e+00 4.308388e+00 4.314767e+00 4.308385e+00 4.314764e+00 4.308383e+00 4.314762e+00 4.308381e+00 4.314760e+00 4.308379e+00 4.314759e+00 4.308378e+00 4.314758e+00 4.308377e+00 4.314757e+00 4.308376e+00 4.314756e+00 4.308375e+00 4.314755e+00 4.308375e+00 4.314755e+00 4.308374e+00 4.314754e+00 4.308374e+00 4.314754e+00 4.308374e+00 4.314754e+00 4.308373e+00 4.314753e+00 4.308373e+00 4.314753e+00 4.308373e+00 4.314753e+00 4.308373e+00 4.314753e+00 4.308373e+00 4.314753e+00 4.308372e+00 4.314753e+00 4.308372e+00 4.314753e+00 4.308372e+00 4.314753e+00 4.308372e+00 4.314753e+00 4.308372e+00 4.314753e+00 4.308372e+00 4.314752e+00 4.308372e+00 4.314752e+00 4.308372e+00 4.314752e+00 4.308372e+00 4.314752e+00 4.308372e+00 4.314752e+00 4.308372e+00 4.314752e+00 4.308372e+00 4.314752e+00 4.308372e+00 4.314752e+00 4.308372e+00 4.314752e+00 4.308372e+00 4.314752e+00 4.308372e+00 4.314752e+00 4.308372e+00 4.314752e+00 4.308372e+00 4.314752e+00 4.308372e+00 4.314752e+00 4.308372e+00 4.314752e+00 4.308372e+00 4.314752e+00 4.308372e+00 4.314752e+00 4.308372e+00 4.314752e+00 4.308372e+00 4.314752e+00 4.308372e+00 4.314752e+00 4.308372e+00 4.314752e+00 4.308372e+00 4.314752e+00 4.308372e+00 4.314752e+00 4.308372e+00 4.314752e+00 4.308372e+00 4.314752e+00 4.308372e+00 4.314752e+00 4.308372e+00 4.314752e+00 4.308371e+00 4.314752e+00 4.308371e+00 4.314752e+00 4.308371e+00 4.314752e+00 4.308371e+00 4.314752e+00 4.308371e+00 4.314752e+00 4.308371e+00 4.314751e+00 4.308370e+00 4.314751e+00 4.308370e+00 4.314751e+00 4.308370e+00 4.314751e+00 4.308369e+00 4.314750e+00 4.308369e+00 4.314750e+00 4.308368e+00 4.314749e+00 4.308367e+00 4.314749e+00 4.308366e+00 4.314748e+00 4.308365e+00 4.314747e+00 4.308363e+00 4.314746e+00 4.308361e+00 4.314745e+00 4.308359e+00 4.314743e+00 4.308356e+00 4.314741e+00 4.308353e+00 4.314739e+00 4.308349e+00 4.314736e+00 4.308344e+00 4.314733e+00 4.308338e+00 4.314729e+00 4.308330e+00 4.314724e+00 4.308321e+00 4.314718e+00 4.308311e+00 4.314711e+00 4.308298e+00 4.314702e+00 4.308282e+00 4.314691e+00 4.308262e+00 4.314678e+00 4.308238e+00 4.314662e+00 4.308209e+00 4.314643e+00 4.308172e+00 4.314619e+00 4.308128e+00 4.314590e+00 4.308072e+00 4.314553e+00 4.308002e+00 4.314507e+00 4.307915e+00 4.314450e+00 4.307803e+00 4.314376e+00 4.307659e+00 4.314281e+00 4.307469e+00 4.314155e+00 4.307213e+00 4.313984e+00 4.306857e+00 4.313742e+00 4.306338e+00 4.313384e+00 4.305531e+00 4.312835e+00 4.304196e+00 4.312171e+00 4.302099e+00 4.314947e+00 4.303199e+00 
4.332280e+00 4.324645e+00 4.332358e+00 4.321459e+00 4.253649e+00 4.236446e+00 4.209516e+00 4.211904e+00 4.206455e+00 4.215317e+00 4.218088e+00 4.227895e+00 4.234247e+00 4.243834e+00 4.252378e+00 4.261793e+00 4.272051e+00 4.281526e+00 4.293310e+00 4.303115e+00 4.316391e+00 4.326789e+00 4.341571e+00 4.352765e+00 4.369038e+00 4.381143e+00 4.398835e+00 4.411872e+00 4.430842e+00 4.444736e+00 4.464753e+00 4.479330e+00 4.500075e+00 4.515064e+00 4.536138e+00 4.551188e+00 4.572141e+00 4.586857e+00 4.607222e+00 4.621198e+00 4.640537e+00 4.653398e+00 4.671337e+00 4.682765e+00 4.699020e+00 4.708775e+00 4.723161e+00 4.731086e+00 4.743512e+00 4.749530e+00 4.759986e+00 4.764082e+00 4.772619e+00 4.774831e+00 4.781535e+00 4.781931e+00 4.786901e+00 4.785561e+00 4.788891e+00 4.785891e+00 4.787657e+00 4.783058e+00 4.783315e+00 4.777167e+00 4.775954e+00 4.768298e+00 4.765651e+00 4.756537e+00 4.752506e+00 4.742002e+00 4.736662e+00 4.724870e+00 4.718332e+00 4.705386e+00 4.697797e+00 4.683869e+00 4.675409e+00 4.660698e+00 4.651575e+00 4.636301e+00 4.626737e+00 4.611128e+00 4.601348e+00 4.585629e+00 4.575852e+00 4.560235e+00 4.550661e+00 4.535336e+00 4.526142e+00 4.511273e+00 4.502606e+00 4.488325e+00 4.480304e+00 4.466714e+00 4.459424e+00 4.446597e+00 4.440098e+00 4.428081e+00 4.422405e+00 4.411217e+00 4.406373e+00 4.396013e+00 4.391991e+00 4.382440e+00 4.379210e+00 4.370432e+00 4.367955e+00 4.359903e+00 4.358125e+00 4.350744e+00 4.349607e+00 4.342836e+00 4.342278e+00 4.336054e+00 4.336013e+00 4.330273e+00 4.330687e+00 4.325372e+00 4.326182e+00 4.321235e+00 4.322388e+00 4.317759e+00 4.319205e+00 4.314847e+00 4.316543e+00 4.312415e+00 4.314324e+00 4.310390e+00 4.312477e+00 4.308707e+00 4.310943e+00 4.307310e+00 4.309672e+00 4.306153e+00 4.308619e+00 4.305195e+00 4.307749e+00 4.304404e+00 4.307030e+00 4.303751e+00 4.306436e+00 4.303211e+00 4.305947e+00 4.302767e+00 4.305543e+00 4.302400e+00 4.305211e+00 4.302098e+00 4.304937e+00 4.301850e+00 4.304711e+00 4.301645e+00 4.304525e+00 4.301476e+00 4.304372e+00 4.301338e+00 4.304246e+00 4.301224e+00 4.304143e+00 4.301130e+00 4.304058e+00 4.301052e+00 4.303988e+00 4.300989e+00 4.303930e+00 4.300937e+00 4.303883e+00 4.300894e+00 4.303844e+00 4.300858e+00 4.303812e+00 4.300829e+00 4.303785e+00 4.300805e+00 4.303764e+00 4.300786e+00 4.303746e+00 4.300769e+00 4.303731e+00 4.300756e+00 4.303719e+00 4.300745e+00 4.303709e+00 4.300736e+00 4.303701e+00 4.300729e+00 4.303694e+00 4.300723e+00 4.303689e+00 4.300718e+00 4.303684e+00 4.300714e+00 4.303680e+00 4.300710e+00 4.303677e+00 4.300707e+00 4.303675e+00 4.300705e+00 4.303673e+00 4.300703e+00 4.303671e+00 4.300702e+00 4.303670e+00 4.300700e+00 4.303669e+00 4.300699e+00 4.303668e+00 4.300698e+00 4.303667e+00 4.300698e+00 4.303666e+00 4.300697e+00 4.303666e+00 4.300697e+00 4.303665e+00 4.300696e+00 4.303665e+00 4.300696e+00 4.303665e+00 4.300696e+00 4.303664e+00 4.300695e+00 4.303664e+00 4.300695e+00 4.303664e+00 4.300695e+00 4.303664e+00 4.300695e+00 4.303664e+00 4.300695e+00 4.303664e+00 4.300695e+00 4.303664e+00 4.300695e+00 4.303663e+00 4.300695e+00 4.303663e+00 4.300695e+00 4.303663e+00 4.300695e+00 4.303663e+00 4.300695e+00 4.303663e+00 4.300695e+00 4.303663e+00 4.300695e+00 4.303663e+00 4.300695e+00 4.303663e+00 4.300694e+00 4.303663e+00 4.300694e+00 4.303663e+00 4.300694e+00 4.303663e+00 4.300694e+00 4.303663e+00 4.300694e+00 4.303663e+00 4.300694e+00 4.303663e+00 4.300694e+00 4.303663e+00 4.300694e+00 4.303663e+00 4.300694e+00 4.303663e+00 4.300694e+00 4.303663e+00 4.300694e+00 4.303662e+00 4.300694e+00 4.303662e+00 4.300694e+00 4.303662e+00 4.300693e+00 4.303662e+00 4.300693e+00 4.303662e+00 4.300693e+00 4.303661e+00 4.300693e+00 4.303661e+00 4.300692e+00 4.303660e+00 4.300692e+00 4.303660e+00 4.300691e+00 4.303659e+00 4.300690e+00 4.303658e+00 4.300689e+00 4.303657e+00 4.300688e+00 4.303656e+00 4.300687e+00 4.303654e+00 4.300685e+00 4.303652e+00 4.300684e+00 4.303650e+00 4.300681e+00 4.303647e+00 4.300678e+00 4.303643e+00 4.300675e+00 4.303639e+00 4.300671e+00 4.303634e+00 4.300665e+00 4.303627e+00 4.300659e+00 4.303620e+00 4.300652e+00 4.303610e+00 4.300642e+00 4.303599e+00 4.300631e+00 4.303585e+00 4.300617e+00 4.303568e+00 4.300601e+00 4.303547e+00 4.300580e+00 4.303522e+00 4.300556e+00 4.303492e+00 4.300525e+00 4.303455e+00 4.300489e+00 4.303409e+00 4.300444e+00 4.303354e+00 4.300390e+00 4.303287e+00 4.300323e+00 4.303205e+00 4.300242e+00 4.303105e+00 4.300143e+00 4.302983e+00 4.300023e+00 4.302833e+00 4.299875e+00 4.302651e+00 4.299693e+00 4.302427e+00 4.299471e+00 4.302152e+00 4.299197e+00 4.301813e+00 4.298859e+00 4.301395e+00 4.298440e+00 4.300878e+00 4.297920e+00 4.300236e+00 4.297270e+00 4.299433e+00 4.296454e+00 4.298424e+00 4.295420e+00 4.297145e+00 4.294097e+00 4.295510e+00 4.292385e+00 4.293393e+00 4.290134e+00 4.290607e+00 4.287117e+00 4.286872e+00 4.282971e+00 4.281737e+00 4.277108e+00 4.274473e+00 4.268577e+00 4.263913e+00 4.256054e+00 4.248503e+00 4.239303e+00 4.228374e+00 4.230046e+00 4.219562e+00 4.316237e+00 
4.313093e+00 4.306019e+00 4.313074e+00 4.308747e+00 4.331233e+00 4.323147e+00 4.324812e+00 4.311133e+00 4.310767e+00 4.299441e+00 4.302629e+00 4.295048e+00 4.302104e+00 4.297815e+00 4.308076e+00 4.306412e+00 4.319187e+00 4.319598e+00 4.334405e+00 4.336572e+00 4.353167e+00 4.356956e+00 4.375226e+00 4.380575e+00 4.400433e+00 4.407272e+00 4.428598e+00 4.436813e+00 4.459426e+00 4.468836e+00 4.492470e+00 4.502809e+00 4.527112e+00 4.538027e+00 4.562564e+00 4.573627e+00 4.597914e+00 4.608657e+00 4.632202e+00 4.642160e+00 4.664512e+00 4.673264e+00 4.694051e+00 4.701261e+00 4.720218e+00 4.725647e+00 4.742625e+00 4.746140e+00 4.761093e+00 4.762655e+00 4.775626e+00 4.775273e+00 4.786363e+00 4.784186e+00 4.793530e+00 4.789646e+00 4.797383e+00 4.791913e+00 4.798165e+00 4.791206e+00 4.796058e+00 4.787679e+00 4.791178e+00 4.781411e+00 4.783575e+00 4.772434e+00 4.773263e+00 4.760761e+00 4.760270e+00 4.746437e+00 4.744667e+00 4.729572e+00 4.726606e+00 4.710359e+00 4.706325e+00 4.689082e+00 4.684152e+00 4.666105e+00 4.660484e+00 4.641853e+00 4.635765e+00 4.616781e+00 4.610459e+00 4.591352e+00 4.585020e+00 4.566008e+00 4.559872e+00 4.541151e+00 4.535393e+00 4.517129e+00 4.511900e+00 4.494229e+00 4.489649e+00 4.472673e+00 4.468830e+00 4.452624e+00 4.449576e+00 4.434186e+00 4.431966e+00 4.417410e+00 4.416027e+00 4.402304e+00 4.401746e+00 4.388835e+00 4.389073e+00 4.376937e+00 4.377928e+00 4.366519e+00 4.368209e+00 4.357471e+00 4.359801e+00 4.349671e+00 4.352578e+00 4.342992e+00 4.346411e+00 4.337307e+00 4.341177e+00 4.332493e+00 4.336756e+00 4.328436e+00 4.333037e+00 4.325031e+00 4.329921e+00 4.322181e+00 4.327317e+00 4.319803e+00 4.325147e+00 4.317824e+00 4.323344e+00 4.316181e+00 4.321847e+00 4.314818e+00 4.320606e+00 4.313689e+00 4.319580e+00 4.312756e+00 4.318732e+00 4.311984e+00 4.318031e+00 4.311348e+00 4.317453e+00 4.310823e+00 4.316976e+00 4.310390e+00 4.316583e+00 4.310033e+00 4.316259e+00 4.309739e+00 4.315992e+00 4.309497e+00 4.315772e+00 4.309297e+00 4.315591e+00 4.309133e+00 4.315443e+00 4.308998e+00 4.315320e+00 4.308887e+00 4.315219e+00 4.308796e+00 4.315136e+00 4.308720e+00 4.315068e+00 4.308659e+00 4.315012e+00 4.308608e+00 4.314966e+00 4.308566e+00 4.314928e+00 4.308531e+00 4.314897e+00 4.308503e+00 4.314871e+00 4.308480e+00 4.314850e+00 4.308461e+00 4.314833e+00 4.308445e+00 4.314818e+00 4.308432e+00 4.314807e+00 4.308421e+00 4.314797e+00 4.308412e+00 4.314789e+00 4.308405e+00 4.314783e+00 4.308399e+00 4.314777e+00 4.308395e+00 4.314773e+00 4.308391e+00 4.314769e+00 4.308387e+00 4.314766e+00 4.308385e+00 4.314764e+00 4.308382e+00 4.314762e+00 4.308380e+00 4.314760e+00 4.308379e+00 4.314759e+00 4.308378e+00 4.314758e+00 4.308377e+00 4.314757e+00 4.308376e+00 4.314756e+00 4.308375e+00 4.314755e+00 4.308375e+00 4.314755e+00 4.308374e+00 4.314754e+00 4.308374e+00 4.314754e+00 4.308373e+00 4.314754e+00 4.308373e+00 4.314753e+00 4.308373e+00 4.314753e+00 4.308373e+00 4.314753e+00 4.308373e+00 4.314753e+00 4.308373e+00 4.314753e+00 4.308372e+00 4.314753e+00 4.308372e+00 4.314753e+00 4.308372e+00 4.314753e+00 4.308372e+00 4.314753e+00 4.308372e+00 4.314752e+00 4.308372e+00 4.314752e+00 4.308372e+00 4.314752e+00 4.308372e+00 4.314752e+00 4.308372e+00 4.314752e+00 4.308372e+00 4.314752e+00 4.308372e+00 4.314752e+00 4.308372e+00 4.314752e+00 4.308372e+00 4.314752e+00 4.308372e+00 4.314752e+00 4.308372e+00 4.314752e+00 4.308372e+00 4.314752e+00 4.308372e+00 4.314752e+00 4.308372e+00 4.314752e+00 4.308372e+00 4.314752e+00 4.308372e+00 4.314752e+00 4.308372e+00 4.314752e+00 4.308372e+00 4.314752e+00 4.308372e+00 4.314752e+00 4.308372e+00 4.314752e+00 4.308372e+00 4.314752e+00 4.308372e+00 4.314752e+00 4.308372e+00 4.314752e+00 4.308372e+00 4.314752e+00 4.308372e+00 4.314752e+00 4.308372e+00 4.314752e+00 4.308372e+00 4.314752e+00 4.308372e+00 4.314752e+00 4.308371e+00 4.314752e+00 4.308371e+00 4.314752e+00 4.308371e+00 4.314752e+00 4.308371e+00 4.314752e+00 4.308371e+00 4.314752e+00 4.308371e+00 4.314751e+00 4.308370e+00 4.314751e+00 4.308370e+00 4.314751e+00 4.308370e+00 4.314751e+00 4.308369e+00 4.314750e+00 4.308369e+00 4.314750e+00 4.308368e+00 4.314749e+00 4.308367e+00 4.314749e+00 4.308366e+00 4.314748e+00 4.308365e+00 4.314747e+00 4.308363e+00 4.314746e+00 4.308361e+00 4.314745e+00 4.308359e+00 4.314743e+00 4.308357e+00 4.314742e+00 4.308353e+00 4.314739e+00 4.308349e+00 4.314737e+00 4.308345e+00 4.314734e+00 4.308339e+00 4.314730e+00 4.308332e+00 4.314725e+00 4.308323e+00 4.314719e+00 4.308313e+00 4.314712e+00 4.308300e+00 4.314704e+00 4.308285e+00 4.314694e+00 4.308266e+00 4.314681e+00 4.308243e+00 4.314666e+00 4.308215e+00 4.314648e+00 4.308181e+00 4.314625e+00 4.308139e+00 4.314597e+00 4.308086e+00 4.314563e+00 4.308021e+00 4.314521e+00 4.307940e+00 4.314468e+00 4.307838e+00 4.314402e+00 4.307709e+00 4.314319e+00 4.307543e+00 4.314214e+00 4.307331e+00 4.314081e+00 4.307058e+00 4.313920e+00 4.306716e+00 4.313744e+00 4.306328e+00 4.313641e+00 4.306072e+00 4.313944e+00 4.306689e+00 4.315371e+00 4.310752e+00 
4.331308e+00 4.323572e+00 4.331315e+00 4.323524e+00 4.308746e+00 4.304487e+00 4.292579e+00 4.291440e+00 4.284751e+00 4.285780e+00 4.283695e+00 4.286418e+00 4.288201e+00 4.292465e+00 4.297521e+00 4.303182e+00 4.310951e+00 4.317833e+00 4.327876e+00 4.335897e+00 4.347971e+00 4.357160e+00 4.371146e+00 4.381562e+00 4.397364e+00 4.409024e+00 4.426511e+00 4.439359e+00 4.458330e+00 4.472217e+00 4.492379e+00 4.507050e+00 4.528009e+00 4.543098e+00 4.564362e+00 4.579417e+00 4.600430e+00 4.614945e+00 4.635140e+00 4.648616e+00 4.667469e+00 4.679467e+00 4.696558e+00 4.706742e+00 4.721783e+00 4.729945e+00 4.742794e+00 4.748853e+00 4.759504e+00 4.763491e+00 4.772044e+00 4.774074e+00 4.780704e+00 4.780945e+00 4.785861e+00 4.784500e+00 4.787909e+00 4.785119e+00 4.787192e+00 4.783102e+00 4.783953e+00 4.778636e+00 4.778314e+00 4.771785e+00 4.770284e+00 4.762521e+00 4.759809e+00 4.750780e+00 4.746827e+00 4.736519e+00 4.731330e+00 4.719774e+00 4.713401e+00 4.700681e+00 4.693234e+00 4.679491e+00 4.671131e+00 4.656555e+00 4.647486e+00 4.632297e+00 4.622748e+00 4.607185e+00 4.597396e+00 4.581698e+00 4.571900e+00 4.556293e+00 4.546698e+00 4.531384e+00 4.522178e+00 4.507328e+00 4.498665e+00 4.484417e+00 4.476418e+00 4.462877e+00 4.455629e+00 4.442869e+00 4.436431e+00 4.424496e+00 4.418899e+00 4.407808e+00 4.403059e+00 4.392809e+00 4.388894e+00 4.379463e+00 4.376350e+00 4.367698e+00 4.365343e+00 4.357420e+00 4.355767e+00 4.348514e+00 4.347501e+00 4.340854e+00 4.340416e+00 4.334310e+00 4.334381e+00 4.328753e+00 4.329270e+00 4.324057e+00 4.324961e+00 4.320106e+00 4.321344e+00 4.316796e+00 4.318317e+00 4.314030e+00 4.315792e+00 4.311726e+00 4.313691e+00 4.309811e+00 4.311946e+00 4.308221e+00 4.310500e+00 4.306905e+00 4.309302e+00 4.305815e+00 4.308312e+00 4.304915e+00 4.307494e+00 4.304172e+00 4.306818e+00 4.303558e+00 4.306261e+00 4.303052e+00 4.305802e+00 4.302635e+00 4.305423e+00 4.302292e+00 4.305112e+00 4.302009e+00 4.304855e+00 4.301776e+00 4.304644e+00 4.301584e+00 4.304470e+00 4.301426e+00 4.304327e+00 4.301296e+00 4.304209e+00 4.301190e+00 4.304112e+00 4.301102e+00 4.304032e+00 4.301029e+00 4.303967e+00 4.300970e+00 4.303913e+00 4.300921e+00 4.303868e+00 4.300881e+00 4.303832e+00 4.300848e+00 4.303802e+00 4.300820e+00 4.303777e+00 4.300798e+00 4.303757e+00 4.300780e+00 4.303740e+00 4.300764e+00 4.303727e+00 4.300752e+00 4.303715e+00 4.300742e+00 4.303706e+00 4.300733e+00 4.303698e+00 4.300726e+00 4.303692e+00 4.300721e+00 4.303687e+00 4.300716e+00 4.303683e+00 4.300712e+00 4.303679e+00 4.300709e+00 4.303676e+00 4.300707e+00 4.303674e+00 4.300704e+00 4.303672e+00 4.300703e+00 4.303671e+00 4.300701e+00 4.303669e+00 4.300700e+00 4.303668e+00 4.300699e+00 4.303667e+00 4.300698e+00 4.303667e+00 4.300698e+00 4.303666e+00 4.300697e+00 4.303665e+00 4.300697e+00 4.303665e+00 4.300696e+00 4.303665e+00 4.300696e+00 4.303664e+00 4.300696e+00 4.303664e+00 4.300695e+00 4.303664e+00 4.300695e+00 4.303664e+00 4.300695e+00 4.303664e+00 4.300695e+00 4.303664e+00 4.300695e+00 4.303664e+00 4.300695e+00 4.303664e+00 4.300695e+00 4.303663e+00 4.300695e+00 4.303663e+00 4.300695e+00 4.303663e+00 4.300695e+00 4.303663e+00 4.300695e+00 4.303663e+00 4.300695e+00 4.303663e+00 4.300695e+00 4.303663e+00 4.300695e+00 4.303663e+00 4.300694e+00 4.303663e+00 4.300694e+00 4.303663e+00 4.300694e+00 4.303663e+00 4.300694e+00 4.303663e+00 4.300694e+00 4.303663e+00 4.300694e+00 4.303663e+00 4.300694e+00 4.303663e+00 4.300694e+00 4.303663e+00 4.300694e+00 4.303663e+00 4.300694e+00 4.303663e+00 4.300694e+00 4.303663e+00 4.300694e+00 4.303662e+00 4.300694e+00 4.303662e+00 4.300694e+00 4.303662e+00 4.300693e+00 4.303662e+00 4.300693e+00 4.303661e+00 4.300693e+00 4.303661e+00 4.300692e+00 4.303661e+00 4.300692e+00 4.303660e+00 4.300691e+00 4.303659e+00 4.300691e+00 4.303658e+00 4.300690e+00 4.303657e+00 4.300689e+00 4.303656e+00 4.300688e+00 4.303655e+00 4.300686e+00 4.303653e+00 4.300684e+00 4.303650e+00 4.300682e+00 4.303648e+00 4.300679e+00 4.303644e+00 4.300676e+00 4.303640e+00 4.300672e+00 4.303635e+00 4.300667e+00 4.303629e+00 4.300661e+00 4.303622e+00 4.300654e+00 4.303613e+00 4.300645e+00 4.303603e+00 4.300635e+00 4.303589e+00 4.300622e+00 4.303573e+00 4.300606e+00 4.303554e+00 4.300587e+00 4.303530e+00 4.300564e+00 4.303502e+00 4.300535e+00 4.303467e+00 4.300501e+00 4.303424e+00 4.300459e+00 4.303372e+00 4.300408e+00 4.303309e+00 4.300345e+00 4.303232e+00 4.300269e+00 4.303138e+00 4.300177e+00 4.303024e+00 4.300064e+00 4.302884e+00 4.299925e+00 4.302713e+00 4.299756e+00 4.302504e+00 4.299548e+00 4.302248e+00 4.299294e+00 4.301933e+00 4.298981e+00 4.301547e+00 4.298595e+00 4.301070e+00 4.298117e+00 4.300480e+00 4.297525e+00 4.299748e+00 4.296787e+00 4.298836e+00 4.295863e+00 4.297694e+00 4.294698e+00 4.296255e+00 4.293223e+00 4.294432e+00 4.291340e+00 4.292105e+00 4.288924e+00 4.289121e+00 4.285823e+00 4.285293e+00 4.281891e+00 4.280451e+00 4.277150e+00 4.274646e+00 4.272333e+00 4.268847e+00 4.270540e+00 4.266990e+00 4.281186e+00 4.280667e+00 4.323038e+00 