# vtk DataFile Version 2.0
Comment goes here
ASCII

DATASET STRUCTURED_POINTS
FIELD FieldData 1
TIME 1 1 double
0.97500000
DIMENSIONS    384   64   1

ORIGIN    0.000   0.000   0.000
SPACING   0.078125 0.078125   1.000

POINT_DATA   24576
SCALARS uMag double
LOOKUP_TABLE default

2.357461e+00 2.596001e+00 2.357349e+00 2.611433e+00 2.870297e+00 3.099499e+00 3.227249e+00 3.336528e+00 3.391020e+00 3.444714e+00 3.472367e+00 3.502947e+00 3.521520e+00 3.541713e+00 3.557436e+00 3.572500e+00 3.587765e+00 3.600232e+00 3.616126e+00 3.627426e+00 3.644539e+00 3.655585e+00 3.674263e+00 3.685653e+00 3.706070e+00 3.718158e+00 3.740307e+00 3.753222e+00 3.776903e+00 3.790552e+00 3.815373e+00 3.829468e+00 3.854876e+00 3.868983e+00 3.894321e+00 3.907916e+00 3.932494e+00 3.945034e+00 3.968202e+00 3.979176e+00 4.000376e+00 4.009348e+00 4.028155e+00 4.034779e+00 4.050911e+00 4.054945e+00 4.068259e+00 4.069560e+00 4.080034e+00 4.078552e+00 4.086260e+00 4.082034e+00 4.087126e+00 4.080276e+00 4.082954e+00 4.073672e+00 4.074176e+00 4.062717e+00 4.061319e+00 4.047987e+00 4.044980e+00 4.030112e+00 4.025804e+00 4.009759e+00 4.004464e+00 3.987597e+00 3.981627e+00 3.964284e+00 3.957935e+00 3.940430e+00 3.933978e+00 3.916589e+00 3.910274e+00 3.893238e+00 3.887265e+00 3.870770e+00 3.865306e+00 3.849496e+00 3.844667e+00 3.829643e+00 3.825539e+00 3.811365e+00 3.808039e+00 3.794744e+00 3.792219e+00 3.779803e+00 3.778077e+00 3.766514e+00 3.765562e+00 3.754812e+00 3.754592e+00 3.744597e+00 3.745057e+00 3.735753e+00 3.736833e+00 3.728152e+00 3.729788e+00 3.721660e+00 3.723790e+00 3.716148e+00 3.718709e+00 3.711489e+00 3.714425e+00 3.707570e+00 3.710827e+00 3.704284e+00 3.707816e+00 3.701537e+00 3.705303e+00 3.699248e+00 3.703211e+00 3.697345e+00 3.701473e+00 3.695765e+00 3.700032e+00 3.694455e+00 3.698838e+00 3.693371e+00 3.697851e+00 3.692475e+00 3.697035e+00 3.691735e+00 3.696361e+00 3.691124e+00 3.695805e+00 3.690621e+00 3.695347e+00 3.690205e+00 3.694969e+00 3.689863e+00 3.694658e+00 3.689581e+00 3.694402e+00 3.689349e+00 3.694191e+00 3.689158e+00 3.694017e+00 3.689001e+00 3.693875e+00 3.688871e+00 3.693757e+00 3.688765e+00 3.693660e+00 3.688677e+00 3.693581e+00 3.688605e+00 3.693515e+00 3.688546e+00 3.693461e+00 3.688497e+00 3.693417e+00 3.688457e+00 3.693381e+00 3.688424e+00 3.693351e+00 3.688397e+00 3.693326e+00 3.688375e+00 3.693306e+00 3.688356e+00 3.693289e+00 3.688341e+00 3.693275e+00 3.688329e+00 3.693264e+00 3.688319e+00 3.693255e+00 3.688310e+00 3.693247e+00 3.688303e+00 3.693241e+00 3.688298e+00 3.693236e+00 3.688293e+00 3.693232e+00 3.688289e+00 3.693228e+00 3.688286e+00 3.693225e+00 3.688284e+00 3.693223e+00 3.688281e+00 3.693221e+00 3.688280e+00 3.693219e+00 3.688278e+00 3.693218e+00 3.688277e+00 3.693217e+00 3.688276e+00 3.693216e+00 3.688275e+00 3.693215e+00 3.688275e+00 3.693215e+00 3.688274e+00 3.693214e+00 3.688274e+00 3.693214e+00 3.688273e+00 3.693214e+00 3.688273e+00 3.693213e+00 3.688273e+00 3.693213e+00 3.688273e+00 3.693213e+00 3.688272e+00 3.693213e+00 3.688272e+00 3.693213e+00 3.688272e+00 3.693213e+00 3.688272e+00 3.693212e+00 3.688272e+00 3.693212e+00 3.688272e+00 3.693212e+00 3.688272e+00 3.693212e+00 3.688272e+00 3.693212e+00 3.688272e+00 3.693212e+00 3.688272e+00 3.693212e+00 3.688272e+00 3.693212e+00 3.688272e+00 3.693212e+00 3.688272e+00 3.693212e+00 3.688272e+00 3.693212e+00 3.688272e+00 3.693212e+00 3.688272e+00 3.693212e+00 3.688272e+00 3.693212e+00 3.688272e+00 3.693212e+00 3.688272e+00 3.693212e+00 3.688272e+00 3.693212e+00 3.688271e+00 3.693212e+00 3.688271e+00 3.693212e+00 3.688271e+00 3.693212e+00 3.688271e+00 3.693212e+00 3.688271e+00 3.693212e+00 3.688271e+00 3.693212e+00 3.688271e+00 3.693212e+00 3.688271e+00 3.693212e+00 3.688271e+00 3.693211e+00 3.688271e+00 3.693211e+00 3.688271e+00 3.693211e+00 3.688271e+00 3.693211e+00 3.688270e+00 3.693211e+00 3.688270e+00 3.693210e+00 3.688270e+00 3.693210e+00 3.688269e+00 3.693209e+00 3.688269e+00 3.693209e+00 3.688268e+00 3.693208e+00 3.688268e+00 3.693207e+00 3.688267e+00 3.693206e+00 3.688266e+00 3.693205e+00 3.688264e+00 3.693203e+00 3.688263e+00 3.693201e+00 3.688261e+00 3.693199e+00 3.688259e+00 3.693196e+00 3.688256e+00 3.693193e+00 3.688253e+00 3.693189e+00 3.688249e+00 3.693183e+00 3.688244e+00 3.693177e+00 3.688238e+00 3.693170e+00 3.688230e+00 3.693161e+00 3.688221e+00 3.693150e+00 3.688210e+00 3.693136e+00 3.688197e+00 3.693120e+00 3.688181e+00 3.693100e+00 3.688162e+00 3.693076e+00 3.688138e+00 3.693046e+00 3.688109e+00 3.693010e+00 3.688074e+00 3.692967e+00 3.688031e+00 3.692914e+00 3.687979e+00 3.692849e+00 3.687916e+00 3.692770e+00 3.687839e+00 3.692675e+00 3.687745e+00 3.692558e+00 3.687631e+00 3.692415e+00 3.687491e+00 3.692242e+00 3.687320e+00 3.692029e+00 3.687112e+00 3.691770e+00 3.686856e+00 3.691452e+00 3.686543e+00 3.691062e+00 3.686159e+00 3.690583e+00 3.685685e+00 3.689993e+00 3.685100e+00 3.689264e+00 3.684375e+00 3.688361e+00 3.683472e+00 3.687235e+00 3.682342e+00 3.685826e+00 3.680918e+00 3.684047e+00 3.679106e+00 3.681784e+00 3.676777e+00 3.678870e+00 3.673739e+00 3.675063e+00 3.669700e+00 3.669991e+00 3.664191e+00 3.663050e+00 3.656406e+00 3.653190e+00 3.644816e+00 3.638383e+00 3.626127e+00 3.614159e+00 3.591994e+00 3.568866e+00 3.517129e+00 3.466534e+00 3.311750e+00 3.181075e+00 2.626419e+00 
3.702312e+00 3.683755e+00 3.702348e+00 3.688281e+00 3.627628e+00 3.596116e+00 3.583488e+00 3.573152e+00 3.582441e+00 3.578254e+00 3.594066e+00 3.590955e+00 3.608963e+00 3.606075e+00 3.625306e+00 3.622775e+00 3.643138e+00 3.641262e+00 3.662901e+00 3.661978e+00 3.685091e+00 3.685384e+00 3.710142e+00 3.711845e+00 3.738338e+00 3.741538e+00 3.769722e+00 3.774364e+00 3.804021e+00 3.809886e+00 3.840618e+00 3.847332e+00 3.878583e+00 3.885651e+00 3.916768e+00 3.923625e+00 3.953923e+00 3.959994e+00 3.988830e+00 3.993578e+00 4.020407e+00 4.023366e+00 4.047775e+00 4.048569e+00 4.070291e+00 4.068640e+00 4.087546e+00 4.083266e+00 4.099346e+00 4.092344e+00 4.105683e+00 4.095958e+00 4.106706e+00 4.094344e+00 4.102704e+00 4.087871e+00 4.094079e+00 4.077016e+00 4.081335e+00 4.062339e+00 4.065054e+00 4.044469e+00 4.045881e+00 4.024070e+00 4.024488e+00 4.001823e+00 4.001556e+00 3.978391e+00 3.977736e+00 3.954399e+00 3.953631e+00 3.930410e+00 3.929771e+00 3.906908e+00 3.906607e+00 3.884295e+00 3.884499e+00 3.862887e+00 3.863724e+00 3.842915e+00 3.844475e+00 3.824533e+00 3.826871e+00 3.807823e+00 3.810963e+00 3.792808e+00 3.796747e+00 3.779460e+00 3.784174e+00 3.767709e+00 3.773157e+00 3.757457e+00 3.763585e+00 3.748585e+00 3.755332e+00 3.740962e+00 3.748265e+00 3.734454e+00 3.742250e+00 3.728929e+00 3.737157e+00 3.724262e+00 3.732863e+00 3.720336e+00 3.729259e+00 3.717045e+00 3.726242e+00 3.714295e+00 3.723725e+00 3.712003e+00 3.721630e+00 3.710097e+00 3.719889e+00 3.708515e+00 3.718445e+00 3.707204e+00 3.717250e+00 3.706119e+00 3.716261e+00 3.705222e+00 3.715444e+00 3.704482e+00 3.714770e+00 3.703870e+00 3.714213e+00 3.703366e+00 3.713754e+00 3.702950e+00 3.713376e+00 3.702608e+00 3.713065e+00 3.702326e+00 3.712808e+00 3.702093e+00 3.712597e+00 3.701902e+00 3.712423e+00 3.701745e+00 3.712280e+00 3.701615e+00 3.712162e+00 3.701508e+00 3.712065e+00 3.701421e+00 3.711985e+00 3.701349e+00 3.711920e+00 3.701289e+00 3.711866e+00 3.701240e+00 3.711822e+00 3.701200e+00 3.711785e+00 3.701167e+00 3.711755e+00 3.701140e+00 3.711730e+00 3.701118e+00 3.711710e+00 3.701099e+00 3.711693e+00 3.701084e+00 3.711680e+00 3.701072e+00 3.711668e+00 3.701062e+00 3.711659e+00 3.701053e+00 3.711651e+00 3.701046e+00 3.711645e+00 3.701041e+00 3.711640e+00 3.701036e+00 3.711636e+00 3.701032e+00 3.711632e+00 3.701029e+00 3.711629e+00 3.701026e+00 3.711627e+00 3.701024e+00 3.711625e+00 3.701022e+00 3.711623e+00 3.701021e+00 3.711622e+00 3.701020e+00 3.711621e+00 3.701019e+00 3.711620e+00 3.701018e+00 3.711619e+00 3.701017e+00 3.711619e+00 3.701017e+00 3.711618e+00 3.701016e+00 3.711618e+00 3.701016e+00 3.711618e+00 3.701016e+00 3.711617e+00 3.701015e+00 3.711617e+00 3.701015e+00 3.711617e+00 3.701015e+00 3.711617e+00 3.701015e+00 3.711617e+00 3.701015e+00 3.711617e+00 3.701015e+00 3.711617e+00 3.701015e+00 3.711616e+00 3.701015e+00 3.711616e+00 3.701015e+00 3.711616e+00 3.701015e+00 3.711616e+00 3.701014e+00 3.711616e+00 3.701014e+00 3.711616e+00 3.701014e+00 3.711616e+00 3.701014e+00 3.711616e+00 3.701014e+00 3.711616e+00 3.701014e+00 3.711616e+00 3.701014e+00 3.711616e+00 3.701014e+00 3.711616e+00 3.701014e+00 3.711616e+00 3.701014e+00 3.711616e+00 3.701014e+00 3.711616e+00 3.701014e+00 3.711616e+00 3.701014e+00 3.711616e+00 3.701014e+00 3.711616e+00 3.701014e+00 3.711616e+00 3.701014e+00 3.711616e+00 3.701014e+00 3.711616e+00 3.701014e+00 3.711616e+00 3.701014e+00 3.711616e+00 3.701014e+00 3.711616e+00 3.701014e+00 3.711616e+00 3.701014e+00 3.711616e+00 3.701014e+00 3.711616e+00 3.701014e+00 3.711616e+00 3.701014e+00 3.711616e+00 3.701014e+00 3.711616e+00 3.701014e+00 3.711616e+00 3.701014e+00 3.711616e+00 3.701014e+00 3.711616e+00 3.701014e+00 3.711616e+00 3.701014e+00 3.711616e+00 3.701014e+00 3.711616e+00 3.701014e+00 3.711616e+00 3.701014e+00 3.711615e+00 3.701013e+00 3.711615e+00 3.701013e+00 3.711615e+00 3.701013e+00 3.711615e+00 3.701013e+00 3.711615e+00 3.701012e+00 3.711615e+00 3.701012e+00 3.711614e+00 3.701012e+00 3.711614e+00 3.701011e+00 3.711613e+00 3.701010e+00 3.711613e+00 3.701010e+00 3.711612e+00 3.701009e+00 3.711611e+00 3.701007e+00 3.711610e+00 3.701006e+00 3.711609e+00 3.701004e+00 3.711608e+00 3.701002e+00 3.711606e+00 3.701000e+00 3.711604e+00 3.700997e+00 3.711601e+00 3.700993e+00 3.711598e+00 3.700988e+00 3.711595e+00 3.700983e+00 3.711590e+00 3.700977e+00 3.711585e+00 3.700969e+00 3.711579e+00 3.700959e+00 3.711571e+00 3.700948e+00 3.711562e+00 3.700934e+00 3.711551e+00 3.700917e+00 3.711537e+00 3.700897e+00 3.711521e+00 3.700872e+00 3.711501e+00 3.700841e+00 3.711477e+00 3.700804e+00 3.711447e+00 3.700759e+00 3.711411e+00 3.700704e+00 3.711367e+00 3.700635e+00 3.711312e+00 3.700551e+00 3.711243e+00 3.700446e+00 3.711157e+00 3.700314e+00 3.711048e+00 3.700147e+00 3.710908e+00 3.699934e+00 3.710725e+00 3.699657e+00 3.710482e+00 3.699290e+00 3.710147e+00 3.698790e+00 3.709667e+00 3.698085e+00 3.708943e+00 3.697039e+00 3.707772e+00 3.695395e+00 3.705760e+00 3.692729e+00 3.702700e+00 3.689631e+00 3.708533e+00 3.701771e+00 
3.741142e+00 3.728452e+00 3.741220e+00 3.722857e+00 3.601687e+00 3.571802e+00 3.528145e+00 3.533267e+00 3.525666e+00 3.540023e+00 3.544060e+00 3.558027e+00 3.566133e+00 3.578051e+00 3.588280e+00 3.598542e+00 3.610487e+00 3.619809e+00 3.633475e+00 3.642517e+00 3.658023e+00 3.667326e+00 3.684790e+00 3.694759e+00 3.714234e+00 3.725120e+00 3.746534e+00 3.758411e+00 3.781532e+00 3.794285e+00 3.818700e+00 3.832044e+00 3.857184e+00 3.870696e+00 3.895885e+00 3.909062e+00 3.933582e+00 3.945899e+00 3.969068e+00 3.980026e+00 4.001254e+00 4.010413e+00 4.029248e+00 4.036243e+00 4.052387e+00 4.056939e+00 4.070242e+00 4.072155e+00 4.082598e+00 4.081761e+00 4.089428e+00 4.085816e+00 4.090862e+00 4.084538e+00 4.087168e+00 4.078285e+00 4.078739e+00 4.067528e+00 4.066069e+00 4.052833e+00 4.049748e+00 4.034837e+00 4.030428e+00 4.014222e+00 4.008806e+00 3.991692e+00 3.985583e+00 3.967934e+00 3.961436e+00 3.943597e+00 3.936991e+00 3.919263e+00 3.912798e+00 3.895433e+00 3.889321e+00 3.872521e+00 3.866932e+00 3.850849e+00 3.845913e+00 3.830652e+00 3.826459e+00 3.812084e+00 3.808688e+00 3.795226e+00 3.792650e+00 3.780100e+00 3.778338e+00 3.766670e+00 3.765697e+00 3.754865e+00 3.754635e+00 3.744579e+00 3.745037e+00 3.735689e+00 3.736773e+00 3.728061e+00 3.729705e+00 3.721556e+00 3.723696e+00 3.716039e+00 3.718613e+00 3.711384e+00 3.714332e+00 3.707471e+00 3.710741e+00 3.704194e+00 3.707738e+00 3.701458e+00 3.705234e+00 3.699178e+00 3.703150e+00 3.697284e+00 3.701421e+00 3.695713e+00 3.699987e+00 3.694411e+00 3.698800e+00 3.693334e+00 3.697818e+00 3.692444e+00 3.697007e+00 3.691709e+00 3.696338e+00 3.691102e+00 3.695786e+00 3.690602e+00 3.695331e+00 3.690190e+00 3.694956e+00 3.689850e+00 3.694647e+00 3.689571e+00 3.694393e+00 3.689340e+00 3.694184e+00 3.689151e+00 3.694011e+00 3.688995e+00 3.693869e+00 3.688866e+00 3.693753e+00 3.688761e+00 3.693657e+00 3.688674e+00 3.693578e+00 3.688603e+00 3.693513e+00 3.688544e+00 3.693459e+00 3.688495e+00 3.693415e+00 3.688456e+00 3.693379e+00 3.688423e+00 3.693350e+00 3.688396e+00 3.693325e+00 3.688374e+00 3.693305e+00 3.688356e+00 3.693289e+00 3.688341e+00 3.693275e+00 3.688328e+00 3.693264e+00 3.688318e+00 3.693255e+00 3.688310e+00 3.693247e+00 3.688303e+00 3.693241e+00 3.688298e+00 3.693236e+00 3.688293e+00 3.693232e+00 3.688289e+00 3.693228e+00 3.688286e+00 3.693225e+00 3.688283e+00 3.693223e+00 3.688281e+00 3.693221e+00 3.688280e+00 3.693219e+00 3.688278e+00 3.693218e+00 3.688277e+00 3.693217e+00 3.688276e+00 3.693216e+00 3.688275e+00 3.693215e+00 3.688275e+00 3.693215e+00 3.688274e+00 3.693214e+00 3.688274e+00 3.693214e+00 3.688273e+00 3.693214e+00 3.688273e+00 3.693213e+00 3.688273e+00 3.693213e+00 3.688273e+00 3.693213e+00 3.688272e+00 3.693213e+00 3.688272e+00 3.693213e+00 3.688272e+00 3.693213e+00 3.688272e+00 3.693212e+00 3.688272e+00 3.693212e+00 3.688272e+00 3.693212e+00 3.688272e+00 3.693212e+00 3.688272e+00 3.693212e+00 3.688272e+00 3.693212e+00 3.688272e+00 3.693212e+00 3.688272e+00 3.693212e+00 3.688272e+00 3.693212e+00 3.688272e+00 3.693212e+00 3.688272e+00 3.693212e+00 3.688272e+00 3.693212e+00 3.688272e+00 3.693212e+00 3.688272e+00 3.693212e+00 3.688272e+00 3.693212e+00 3.688272e+00 3.693212e+00 3.688272e+00 3.693212e+00 3.688271e+00 3.693212e+00 3.688271e+00 3.693212e+00 3.688271e+00 3.693212e+00 3.688271e+00 3.693212e+00 3.688271e+00 3.693212e+00 3.688271e+00 3.693212e+00 3.688271e+00 3.693212e+00 3.688271e+00 3.693212e+00 3.688271e+00 3.693211e+00 3.688271e+00 3.693211e+00 3.688271e+00 3.693211e+00 3.688271e+00 3.693211e+00 3.688270e+00 3.693211e+00 3.688270e+00 3.693210e+00 3.688270e+00 3.693210e+00 3.688269e+00 3.693209e+00 3.688269e+00 3.693209e+00 3.688268e+00 3.693208e+00 3.688268e+00 3.693207e+00 3.688267e+00 3.693206e+00 3.688266e+00 3.693205e+00 3.688265e+00 3.693203e+00 3.688263e+00 3.693201e+00 3.688261e+00 3.693199e+00 3.688259e+00 3.693196e+00 3.688256e+00 3.693193e+00 3.688253e+00 3.693189e+00 3.688249e+00 3.693184e+00 3.688244e+00 3.693178e+00 3.688238e+00 3.693171e+00 3.688231e+00 3.693162e+00 3.688222e+00 3.693151e+00 3.688212e+00 3.693138e+00 3.688199e+00 3.693122e+00 3.688183e+00 3.693102e+00 3.688164e+00 3.693078e+00 3.688141e+00 3.693049e+00 3.688112e+00 3.693014e+00 3.688078e+00 3.692971e+00 3.688036e+00 3.692919e+00 3.687985e+00 3.692856e+00 3.687923e+00 3.692779e+00 3.687848e+00 3.692685e+00 3.687755e+00 3.692571e+00 3.687643e+00 3.692431e+00 3.687506e+00 3.692261e+00 3.687339e+00 3.692053e+00 3.687135e+00 3.691799e+00 3.686885e+00 3.691488e+00 3.686579e+00 3.691107e+00 3.686203e+00 3.690639e+00 3.685741e+00 3.690063e+00 3.685170e+00 3.689353e+00 3.684464e+00 3.688473e+00 3.683586e+00 3.687379e+00 3.682490e+00 3.686012e+00 3.681112e+00 3.684293e+00 3.679367e+00 3.682113e+00 3.677134e+00 3.679323e+00 3.674243e+00 3.675705e+00 3.670442e+00 3.670939e+00 3.665343e+00 3.664533e+00 3.658336e+00 3.655709e+00 3.648425e+00 3.643200e+00 3.634012e+00 3.625013e+00 3.612919e+00 3.598690e+00 3.584998e+00 3.565698e+00 3.570755e+00 3.559005e+00 3.715480e+00 
3.708799e+00 3.696997e+00 3.708765e+00 3.702245e+00 3.736870e+00 3.720415e+00 3.720207e+00 3.695424e+00 3.693148e+00 3.672801e+00 3.676487e+00 3.661582e+00 3.670639e+00 3.659708e+00 3.672653e+00 3.664534e+00 3.680402e+00 3.674468e+00 3.692778e+00 3.688757e+00 3.709315e+00 3.707129e+00 3.729872e+00 3.729508e+00 3.754386e+00 3.755815e+00 3.782704e+00 3.785810e+00 3.814448e+00 3.818988e+00 3.848951e+00 3.854555e+00 3.885264e+00 3.891455e+00 3.922224e+00 3.928456e+00 3.958559e+00 3.964271e+00 3.993013e+00 3.997667e+00 4.024450e+00 4.027565e+00 4.051931e+00 4.053095e+00 4.074748e+00 4.073626e+00 4.092427e+00 4.088765e+00 4.104707e+00 4.098337e+00 4.111514e+00 4.102360e+00 4.112935e+00 4.101021e+00 4.109201e+00 4.094653e+00 4.100671e+00 4.083713e+00 4.087827e+00 4.068761e+00 4.071249e+00 4.050441e+00 4.051602e+00 4.029449e+00 4.029596e+00 4.006507e+00 4.005957e+00 3.982325e+00 3.981387e+00 3.957573e+00 3.956532e+00 3.932850e+00 3.931960e+00 3.908671e+00 3.908147e+00 3.885457e+00 3.885472e+00 3.863534e+00 3.864218e+00 3.843139e+00 3.844582e+00 3.824422e+00 3.826678e+00 3.807463e+00 3.810552e+00 3.792275e+00 3.796191e+00 3.778819e+00 3.783531e+00 3.767014e+00 3.772477e+00 3.756750e+00 3.762905e+00 3.747896e+00 3.754679e+00 3.740312e+00 3.747656e+00 3.733856e+00 3.741694e+00 3.728391e+00 3.736659e+00 3.723784e+00 3.732425e+00 3.719918e+00 3.728877e+00 3.716683e+00 3.725913e+00 3.713984e+00 3.723443e+00 3.711739e+00 3.721390e+00 3.709873e+00 3.719687e+00 3.708327e+00 3.718276e+00 3.707046e+00 3.717108e+00 3.705987e+00 3.716143e+00 3.705112e+00 3.715345e+00 3.704390e+00 3.714688e+00 3.703794e+00 3.714145e+00 3.703303e+00 3.713698e+00 3.702898e+00 3.713330e+00 3.702565e+00 3.713026e+00 3.702290e+00 3.712776e+00 3.702064e+00 3.712571e+00 3.701878e+00 3.712401e+00 3.701725e+00 3.712262e+00 3.701599e+00 3.712147e+00 3.701495e+00 3.712053e+00 3.701410e+00 3.711975e+00 3.701339e+00 3.711912e+00 3.701282e+00 3.711859e+00 3.701234e+00 3.711816e+00 3.701195e+00 3.711780e+00 3.701163e+00 3.711751e+00 3.701137e+00 3.711727e+00 3.701115e+00 3.711707e+00 3.701097e+00 3.711691e+00 3.701082e+00 3.711678e+00 3.701070e+00 3.711667e+00 3.701060e+00 3.711658e+00 3.701052e+00 3.711650e+00 3.701045e+00 3.711644e+00 3.701040e+00 3.711639e+00 3.701035e+00 3.711635e+00 3.701032e+00 3.711632e+00 3.701029e+00 3.711629e+00 3.701026e+00 3.711627e+00 3.701024e+00 3.711625e+00 3.701022e+00 3.711623e+00 3.701021e+00 3.711622e+00 3.701020e+00 3.711621e+00 3.701019e+00 3.711620e+00 3.701018e+00 3.711619e+00 3.701017e+00 3.711619e+00 3.701017e+00 3.711618e+00 3.701016e+00 3.711618e+00 3.701016e+00 3.711618e+00 3.701016e+00 3.711617e+00 3.701015e+00 3.711617e+00 3.701015e+00 3.711617e+00 3.701015e+00 3.711617e+00 3.701015e+00 3.711617e+00 3.701015e+00 3.711617e+00 3.701015e+00 3.711616e+00 3.701015e+00 3.711616e+00 3.701015e+00 3.711616e+00 3.701015e+00 3.711616e+00 3.701015e+00 3.711616e+00 3.701014e+00 3.711616e+00 3.701014e+00 3.711616e+00 3.701014e+00 3.711616e+00 3.701014e+00 3.711616e+00 3.701014e+00 3.711616e+00 3.701014e+00 3.711616e+00 3.701014e+00 3.711616e+00 3.701014e+00 3.711616e+00 3.701014e+00 3.711616e+00 3.701014e+00 3.711616e+00 3.701014e+00 3.711616e+00 3.701014e+00 3.711616e+00 3.701014e+00 3.711616e+00 3.701014e+00 3.711616e+00 3.701014e+00 3.711616e+00 3.701014e+00 3.711616e+00 3.701014e+00 3.711616e+00 3.701014e+00 3.711616e+00 3.701014e+00 3.711616e+00 3.701014e+00 3.711616e+00 3.701014e+00 3.711616e+00 3.701014e+00 3.711616e+00 3.701014e+00 3.711616e+00 3.701014e+00 3.711616e+00 3.701014e+00 3.711616e+00 3.701014e+00 3.711616e+00 3.701014e+00 3.711616e+00 3.701014e+00 3.711616e+00 3.701014e+00 3.711616e+00 3.701014e+00 3.711616e+00 3.701014e+00 3.711616e+00 3.701014e+00 3.711616e+00 3.701014e+00 3.711616e+00 3.701014e+00 3.711616e+00 3.701013e+00 3.711615e+00 3.701013e+00 3.711615e+00 3.701013e+00 3.711615e+00 3.701013e+00 3.711615e+00 3.701013e+00 3.711615e+00 3.701012e+00 3.711614e+00 3.701012e+00 3.711614e+00 3.701011e+00 3.711613e+00 3.701011e+00 3.711613e+00 3.701010e+00 3.711612e+00 3.701009e+00 3.711611e+00 3.701008e+00 3.711611e+00 3.701006e+00 3.711609e+00 3.701005e+00 3.711608e+00 3.701003e+00 3.711606e+00 3.701000e+00 3.711604e+00 3.700997e+00 3.711602e+00 3.700994e+00 3.711599e+00 3.700989e+00 3.711596e+00 3.700984e+00 3.711592e+00 3.700978e+00 3.711587e+00 3.700970e+00 3.711580e+00 3.700961e+00 3.711573e+00 3.700950e+00 3.711564e+00 3.700937e+00 3.711554e+00 3.700921e+00 3.711541e+00 3.700901e+00 3.711525e+00 3.700877e+00 3.711506e+00 3.700848e+00 3.711483e+00 3.700813e+00 3.711455e+00 3.700770e+00 3.711421e+00 3.700718e+00 3.711379e+00 3.700653e+00 3.711328e+00 3.700574e+00 3.711265e+00 3.700476e+00 3.711186e+00 3.700354e+00 3.711087e+00 3.700201e+00 3.710963e+00 3.700010e+00 3.710805e+00 3.699768e+00 3.710603e+00 3.699459e+00 3.710344e+00 3.699065e+00 3.710014e+00 3.698568e+00 3.709613e+00 3.697978e+00 3.709220e+00 3.697423e+00 3.709222e+00 3.697504e+00 3.711117e+00 3.700293e+00 3.718741e+00 3.708088e+00 
3.739471e+00 3.726639e+00 3.739465e+00 3.726896e+00 3.699448e+00 3.689952e+00 3.666711e+00 3.661689e+00 3.648014e+00 3.646910e+00 3.641144e+00 3.642379e+00 3.642241e+00 3.644769e+00 3.648729e+00 3.652102e+00 3.659299e+00 3.663428e+00 3.673418e+00 3.678401e+00 3.690982e+00 3.696993e+00 3.712077e+00 3.719290e+00 3.736807e+00 3.745334e+00 3.765146e+00 3.774987e+00 3.796829e+00 3.807841e+00 3.831285e+00 3.843182e+00 3.867642e+00 3.880016e+00 3.904781e+00 3.917143e+00 3.941445e+00 3.953273e+00 3.976359e+00 3.987145e+00 4.008349e+00 4.017623e+00 4.036430e+00 4.043779e+00 4.059848e+00 4.064922e+00 4.078087e+00 4.080609e+00 4.090854e+00 4.090623e+00 4.098047e+00 4.094953e+00 4.099729e+00 4.093767e+00 4.096107e+00 4.087389e+00 4.087530e+00 4.076274e+00 4.074475e+00 4.060994e+00 4.057537e+00 4.042212e+00 4.037401e+00 4.020659e+00 4.014816e+00 3.997091e+00 3.990547e+00 3.972258e+00 3.965334e+00 3.946865e+00 3.939858e+00 3.921539e+00 3.914713e+00 3.896817e+00 3.890392e+00 3.873133e+00 3.867285e+00 3.850819e+00 3.845680e+00 3.830112e+00 3.825770e+00 3.811161e+00 3.807667e+00 3.794037e+00 3.791409e+00 3.778747e+00 3.776972e+00 3.765241e+00 3.764285e+00 3.753429e+00 3.753240e+00 3.743189e+00 3.743704e+00 3.734381e+00 3.735533e+00 3.726859e+00 3.728575e+00 3.720472e+00 3.722684e+00 3.715077e+00 3.717720e+00 3.710541e+00 3.713554e+00 3.706740e+00 3.710069e+00 3.703566e+00 3.707163e+00 3.700922e+00 3.704745e+00 3.698725e+00 3.702737e+00 3.696901e+00 3.701073e+00 3.695391e+00 3.699695e+00 3.694142e+00 3.698556e+00 3.693110e+00 3.697615e+00 3.692257e+00 3.696839e+00 3.691554e+00 3.696198e+00 3.690974e+00 3.695670e+00 3.690496e+00 3.695235e+00 3.690102e+00 3.694877e+00 3.689778e+00 3.694582e+00 3.689511e+00 3.694339e+00 3.689291e+00 3.694139e+00 3.689110e+00 3.693975e+00 3.688961e+00 3.693839e+00 3.688839e+00 3.693728e+00 3.688738e+00 3.693636e+00 3.688655e+00 3.693561e+00 3.688587e+00 3.693499e+00 3.688531e+00 3.693448e+00 3.688485e+00 3.693406e+00 3.688447e+00 3.693372e+00 3.688416e+00 3.693343e+00 3.688390e+00 3.693320e+00 3.688369e+00 3.693301e+00 3.688352e+00 3.693285e+00 3.688338e+00 3.693272e+00 3.688326e+00 3.693261e+00 3.688316e+00 3.693253e+00 3.688308e+00 3.693245e+00 3.688302e+00 3.693239e+00 3.688296e+00 3.693235e+00 3.688292e+00 3.693231e+00 3.688288e+00 3.693227e+00 3.688285e+00 3.693225e+00 3.688283e+00 3.693222e+00 3.688281e+00 3.693221e+00 3.688279e+00 3.693219e+00 3.688278e+00 3.693218e+00 3.688277e+00 3.693217e+00 3.688276e+00 3.693216e+00 3.688275e+00 3.693215e+00 3.688274e+00 3.693215e+00 3.688274e+00 3.693214e+00 3.688274e+00 3.693214e+00 3.688273e+00 3.693214e+00 3.688273e+00 3.693213e+00 3.688273e+00 3.693213e+00 3.688272e+00 3.693213e+00 3.688272e+00 3.693213e+00 3.688272e+00 3.693213e+00 3.688272e+00 3.693213e+00 3.688272e+00 3.693212e+00 3.688272e+00 3.693212e+00 3.688272e+00 3.693212e+00 3.688272e+00 3.693212e+00 3.688272e+00 3.693212e+00 3.688272e+00 3.693212e+00 3.688272e+00 3.693212e+00 3.688272e+00 3.693212e+00 3.688272e+00 3.693212e+00 3.688272e+00 3.693212e+00 3.688272e+00 3.693212e+00 3.688272e+00 3.693212e+00 3.688272e+00 3.693212e+00 3.688272e+00 3.693212e+00 3.688272e+00 3.693212e+00 3.688272e+00 3.693212e+00 3.688272e+00 3.693212e+00 3.688272e+00 3.693212e+00 3.688271e+00 3.693212e+00 3.688271e+00 3.693212e+00 3.688271e+00 3.693212e+00 3.688271e+00 3.693212e+00 3.688271e+00 3.693212e+00 3.688271e+00 3.693212e+00 3.688271e+00 3.693212e+00 3.688271e+00 3.693211e+00 3.688271e+00 3.693211e+00 3.688271e+00 3.693211e+00 3.688271e+00 3.693211e+00 3.688270e+00 3.693211e+00 3.688270e+00 3.693210e+00 3.688270e+00 3.693210e+00 3.688270e+00 3.693210e+00 3.688269e+00 3.693209e+00 3.688269e+00 3.693208e+00 3.688268e+00 3.693208e+00 3.688267e+00 3.693207e+00 3.688266e+00 3.693205e+00 3.688265e+00 3.693204e+00 3.688264e+00 3.693202e+00 3.688262e+00 3.693200e+00 3.688260e+00 3.693197e+00 3.688257e+00 3.693194e+00 3.688254e+00 3.693190e+00 3.688250e+00 3.693186e+00 3.688246e+00 3.693180e+00 3.688240e+00 3.693173e+00 3.688233e+00 3.693165e+00 3.688225e+00 3.693154e+00 3.688215e+00 3.693142e+00 3.688203e+00 3.693127e+00 3.688188e+00 3.693108e+00 3.688170e+00 3.693086e+00 3.688148e+00 3.693059e+00 3.688122e+00 3.693026e+00 3.688089e+00 3.692986e+00 3.688050e+00 3.692937e+00 3.688002e+00 3.692877e+00 3.687944e+00 3.692805e+00 3.687873e+00 3.692716e+00 3.687786e+00 3.692609e+00 3.687681e+00 3.692478e+00 3.687552e+00 3.692318e+00 3.687396e+00 3.692124e+00 3.687205e+00 3.691886e+00 3.686971e+00 3.691595e+00 3.686685e+00 3.691240e+00 3.686335e+00 3.690804e+00 3.685905e+00 3.690269e+00 3.685377e+00 3.689612e+00 3.684726e+00 3.688801e+00 3.683921e+00 3.687798e+00 3.682922e+00 3.686554e+00 3.681677e+00 3.685003e+00 3.680119e+00 3.683060e+00 3.678157e+00 3.680612e+00 3.675670e+00 3.677507e+00 3.672497e+00 3.673547e+00 3.668429e+00 3.668470e+00 3.663213e+00 3.661971e+00 3.656615e+00 3.653795e+00 3.648701e+00 3.644135e+00 3.640776e+00 3.634930e+00 3.638168e+00 3.633528e+00 3.656697e+00 3.660277e+00 3.725851e+00 