# vtk DataFile Version 2.0
Comment goes here
ASCII

DATASET STRUCTURED_POINTS
FIELD FieldData 1
TIME 1 1 double
0.05000000
DIMENSIONS    384   64   1

ORIGIN    0.000   0.000   0.000
SPACING   0.078125 0.078125   1.000

POINT_DATA   24576
SCALARS uMag double
LOOKUP_TABLE default

2.061742e+00 1.630478e+00 2.061091e+00 1.584972e+00 8.421988e-01 4.996646e-01 2.704191e-01 1.464682e-01 7.482075e-02 2.153016e-02 7.319370e-03 3.444483e-02 5.016787e-02 6.497832e-02 7.609127e-02 8.395439e-02 9.330289e-02 9.676879e-02 1.054386e-01 1.059135e-01 1.143586e-01 1.127007e-01 1.211194e-01 1.178901e-01 1.263670e-01 1.219515e-01 1.305181e-01 1.251899e-01 1.338513e-01 1.278096e-01 1.365582e-01 1.299503e-01 1.387724e-01 1.317087e-01 1.405883e-01 1.331523e-01 1.420733e-01 1.343288e-01 1.432766e-01 1.352729e-01 1.442352e-01 1.360112e-01 1.449785e-01 1.365657e-01 1.455314e-01 1.369561e-01 1.459166e-01 1.372016e-01 1.461558e-01 1.373216e-01 1.462703e-01 1.373360e-01 1.462815e-01 1.372647e-01 1.462102e-01 1.371275e-01 1.460765e-01 1.369432e-01 1.458991e-01 1.367287e-01 1.456945e-01 1.364988e-01 1.454769e-01 1.362654e-01 1.452573e-01 1.360378e-01 1.450443e-01 1.358226e-01 1.448439e-01 1.356240e-01 1.446597e-01 1.354444e-01 1.444937e-01 1.352845e-01 1.443463e-01 1.351441e-01 1.442173e-01 1.350221e-01 1.441054e-01 1.349172e-01 1.440094e-01 1.348276e-01 1.439275e-01 1.347516e-01 1.438582e-01 1.346874e-01 1.437997e-01 1.346335e-01 1.437506e-01 1.345884e-01 1.437096e-01 1.345508e-01 1.436753e-01 1.345194e-01 1.436469e-01 1.344934e-01 1.436232e-01 1.344718e-01 1.436036e-01 1.344540e-01 1.435874e-01 1.344392e-01 1.435740e-01 1.344270e-01 1.435629e-01 1.344169e-01 1.435538e-01 1.344086e-01 1.435462e-01 1.344017e-01 1.435400e-01 1.343961e-01 1.435349e-01 1.343914e-01 1.435307e-01 1.343876e-01 1.435272e-01 1.343845e-01 1.435244e-01 1.343819e-01 1.435220e-01 1.343797e-01 1.435201e-01 1.343780e-01 1.435185e-01 1.343765e-01 1.435172e-01 1.343753e-01 1.435161e-01 1.343744e-01 1.435152e-01 1.343736e-01 1.435145e-01 1.343729e-01 1.435139e-01 1.343723e-01 1.435134e-01 1.343719e-01 1.435130e-01 1.343715e-01 1.435127e-01 1.343712e-01 1.435124e-01 1.343710e-01 1.435122e-01 1.343708e-01 1.435120e-01 1.343706e-01 1.435118e-01 1.343705e-01 1.435117e-01 1.343704e-01 1.435116e-01 1.343703e-01 1.435115e-01 1.343702e-01 1.435114e-01 1.343701e-01 1.435114e-01 1.343701e-01 1.435113e-01 1.343700e-01 1.435113e-01 1.343700e-01 1.435113e-01 1.343700e-01 1.435112e-01 1.343699e-01 1.435112e-01 1.343699e-01 1.435112e-01 1.343699e-01 1.435112e-01 1.343699e-01 1.435112e-01 1.343699e-01 1.435112e-01 1.343699e-01 1.435111e-01 1.343699e-01 1.435111e-01 1.343699e-01 1.435111e-01 1.343699e-01 1.435111e-01 1.343698e-01 1.435111e-01 1.343698e-01 1.435111e-01 1.343698e-01 1.435111e-01 1.343698e-01 1.435111e-01 1.343698e-01 1.435111e-01 1.343698e-01 1.435111e-01 1.343698e-01 1.435111e-01 1.343698e-01 1.435111e-01 1.343698e-01 1.435111e-01 1.343698e-01 1.435111e-01 1.343698e-01 1.435111e-01 1.343698e-01 1.435111e-01 1.343698e-01 1.435111e-01 1.343698e-01 1.435111e-01 1.343698e-01 1.435111e-01 1.343698e-01 1.435111e-01 1.343698e-01 1.435111e-01 1.343698e-01 1.435111e-01 1.343698e-01 1.435111e-01 1.343698e-01 1.435111e-01 1.343698e-01 1.435111e-01 1.343698e-01 1.435111e-01 1.343698e-01 1.435111e-01 1.343698e-01 1.435111e-01 1.343698e-01 1.435110e-01 1.343698e-01 1.435110e-01 1.343698e-01 1.435110e-01 1.343697e-01 1.435110e-01 1.343697e-01 1.435110e-01 1.343697e-01 1.435109e-01 1.343697e-01 1.435109e-01 1.343696e-01 1.435109e-01 1.343696e-01 1.435108e-01 1.343696e-01 1.435108e-01 1.343695e-01 1.435107e-01 1.343694e-01 1.435106e-01 1.343693e-01 1.435105e-01 1.343692e-01 1.435103e-01 1.343691e-01 1.435102e-01 1.343689e-01 1.435100e-01 1.343688e-01 1.435097e-01 1.343685e-01 1.435094e-01 1.343682e-01 1.435090e-01 1.343679e-01 1.435086e-01 1.343675e-01 1.435080e-01 1.343670e-01 1.435074e-01 1.343663e-01 1.435066e-01 1.343656e-01 1.435056e-01 1.343647e-01 1.435044e-01 1.343636e-01 1.435029e-01 1.343622e-01 1.435012e-01 1.343606e-01 1.434990e-01 1.343586e-01 1.434964e-01 1.343561e-01 1.434932e-01 1.343532e-01 1.434894e-01 1.343495e-01 1.434847e-01 1.343452e-01 1.434790e-01 1.343398e-01 1.434720e-01 1.343333e-01 1.434635e-01 1.343255e-01 1.434533e-01 1.343159e-01 1.434407e-01 1.343042e-01 1.434255e-01 1.342900e-01 1.434070e-01 1.342727e-01 1.433845e-01 1.342517e-01 1.433571e-01 1.342261e-01 1.433237e-01 1.341950e-01 1.432832e-01 1.341571e-01 1.432338e-01 1.341111e-01 1.431737e-01 1.340549e-01 1.431005e-01 1.339866e-01 1.430114e-01 1.339034e-01 1.429029e-01 1.338020e-01 1.427706e-01 1.336784e-01 1.426094e-01 1.335277e-01 1.424128e-01 1.333438e-01 1.421728e-01 1.331192e-01 1.418797e-01 1.328447e-01 1.415215e-01 1.325089e-01 1.410831e-01 1.320975e-01 1.405458e-01 1.315927e-01 1.398864e-01 1.309720e-01 1.390753e-01 1.302071e-01 1.380752e-01 1.292617e-01 1.368381e-01 1.280888e-01 1.353022e-01 1.266271e-01 1.333863e-01 1.247951e-01 1.309819e-01 1.224828e-01 1.279420e-01 1.195379e-01 1.240622e-01 1.157440e-01 1.190497e-01 1.107828e-01 1.124698e-01 1.041660e-01 1.036469e-01 9.510099e-02 9.146430e-02 8.220171e-02 7.391686e-02 6.278506e-02 4.697053e-02 3.089614e-02 1.197037e-03 2.908615e-02 8.958869e-02 1.656139e-01 3.095204e-01 5.433396e-01 9.211570e-01 1.593463e+00 
1.577132e-01 1.254020e-01 1.583432e-01 6.207668e-01 5.552724e-01 3.094298e-01 2.278775e-01 1.668984e-01 1.697927e-01 1.487796e-01 1.663174e-01 1.483679e-01 1.677472e-01 1.496082e-01 1.691814e-01 1.507876e-01 1.703019e-01 1.517684e-01 1.711885e-01 1.525901e-01 1.719224e-01 1.532997e-01 1.725578e-01 1.539316e-01 1.731281e-01 1.545080e-01 1.736529e-01 1.550420e-01 1.741418e-01 1.555390e-01 1.745972e-01 1.559987e-01 1.750165e-01 1.564166e-01 1.753932e-01 1.567852e-01 1.757190e-01 1.570955e-01 1.759850e-01 1.573391e-01 1.761831e-01 1.575090e-01 1.763078e-01 1.576008e-01 1.763562e-01 1.576137e-01 1.763292e-01 1.575505e-01 1.762309e-01 1.574175e-01 1.760687e-01 1.572243e-01 1.758527e-01 1.569824e-01 1.755947e-01 1.567051e-01 1.753076e-01 1.564055e-01 1.750041e-01 1.560963e-01 1.746959e-01 1.557886e-01 1.743932e-01 1.554915e-01 1.741040e-01 1.552118e-01 1.738339e-01 1.549539e-01 1.735867e-01 1.547204e-01 1.733643e-01 1.545122e-01 1.731670e-01 1.543290e-01 1.729940e-01 1.541695e-01 1.728441e-01 1.540320e-01 1.727151e-01 1.539143e-01 1.726050e-01 1.538143e-01 1.725117e-01 1.537297e-01 1.724329e-01 1.536586e-01 1.723667e-01 1.535990e-01 1.723113e-01 1.535492e-01 1.722651e-01 1.535077e-01 1.722266e-01 1.534732e-01 1.721947e-01 1.534446e-01 1.721681e-01 1.534209e-01 1.721462e-01 1.534012e-01 1.721280e-01 1.533850e-01 1.721130e-01 1.533716e-01 1.721007e-01 1.533606e-01 1.720904e-01 1.533515e-01 1.720820e-01 1.533440e-01 1.720751e-01 1.533378e-01 1.720694e-01 1.533327e-01 1.720647e-01 1.533285e-01 1.720608e-01 1.533250e-01 1.720576e-01 1.533222e-01 1.720550e-01 1.533199e-01 1.720528e-01 1.533179e-01 1.720510e-01 1.533164e-01 1.720496e-01 1.533150e-01 1.720484e-01 1.533140e-01 1.720474e-01 1.533131e-01 1.720466e-01 1.533124e-01 1.720459e-01 1.533118e-01 1.720453e-01 1.533113e-01 1.720449e-01 1.533109e-01 1.720445e-01 1.533106e-01 1.720442e-01 1.533103e-01 1.720440e-01 1.533101e-01 1.720438e-01 1.533099e-01 1.720436e-01 1.533097e-01 1.720434e-01 1.533096e-01 1.720433e-01 1.533095e-01 1.720432e-01 1.533094e-01 1.720432e-01 1.533093e-01 1.720431e-01 1.533093e-01 1.720430e-01 1.533092e-01 1.720430e-01 1.533092e-01 1.720430e-01 1.533092e-01 1.720429e-01 1.533091e-01 1.720429e-01 1.533091e-01 1.720429e-01 1.533091e-01 1.720429e-01 1.533091e-01 1.720429e-01 1.533091e-01 1.720428e-01 1.533091e-01 1.720428e-01 1.533091e-01 1.720428e-01 1.533090e-01 1.720428e-01 1.533090e-01 1.720428e-01 1.533090e-01 1.720428e-01 1.533090e-01 1.720428e-01 1.533090e-01 1.720428e-01 1.533090e-01 1.720428e-01 1.533090e-01 1.720428e-01 1.533090e-01 1.720428e-01 1.533090e-01 1.720428e-01 1.533090e-01 1.720428e-01 1.533090e-01 1.720428e-01 1.533090e-01 1.720428e-01 1.533090e-01 1.720428e-01 1.533090e-01 1.720428e-01 1.533090e-01 1.720428e-01 1.533090e-01 1.720428e-01 1.533090e-01 1.720428e-01 1.533090e-01 1.720428e-01 1.533090e-01 1.720428e-01 1.533090e-01 1.720428e-01 1.533090e-01 1.720428e-01 1.533090e-01 1.720428e-01 1.533090e-01 1.720428e-01 1.533090e-01 1.720428e-01 1.533090e-01 1.720428e-01 1.533090e-01 1.720428e-01 1.533090e-01 1.720428e-01 1.533090e-01 1.720428e-01 1.533090e-01 1.720428e-01 1.533090e-01 1.720428e-01 1.533090e-01 1.720428e-01 1.533090e-01 1.720428e-01 1.533090e-01 1.720428e-01 1.533090e-01 1.720428e-01 1.533090e-01 1.720428e-01 1.533090e-01 1.720428e-01 1.533090e-01 1.720428e-01 1.533090e-01 1.720428e-01 1.533090e-01 1.720428e-01 1.533090e-01 1.720428e-01 1.533090e-01 1.720427e-01 1.533089e-01 1.720427e-01 1.533089e-01 1.720427e-01 1.533089e-01 1.720427e-01 1.533089e-01 1.720427e-01 1.533089e-01 1.720427e-01 1.533088e-01 1.720426e-01 1.533088e-01 1.720426e-01 1.533087e-01 1.720425e-01 1.533087e-01 1.720425e-01 1.533086e-01 1.720424e-01 1.533085e-01 1.720423e-01 1.533084e-01 1.720422e-01 1.533083e-01 1.720421e-01 1.533081e-01 1.720420e-01 1.533079e-01 1.720418e-01 1.533077e-01 1.720416e-01 1.533074e-01 1.720413e-01 1.533071e-01 1.720410e-01 1.533066e-01 1.720406e-01 1.533061e-01 1.720401e-01 1.533055e-01 1.720395e-01 1.533047e-01 1.720388e-01 1.533038e-01 1.720380e-01 1.533027e-01 1.720369e-01 1.533013e-01 1.720356e-01 1.532997e-01 1.720341e-01 1.532977e-01 1.720322e-01 1.532952e-01 1.720299e-01 1.532922e-01 1.720272e-01 1.532886e-01 1.720238e-01 1.532842e-01 1.720196e-01 1.532788e-01 1.720146e-01 1.532722e-01 1.720085e-01 1.532642e-01 1.720011e-01 1.532545e-01 1.719920e-01 1.532427e-01 1.719809e-01 1.532282e-01 1.719674e-01 1.532106e-01 1.719508e-01 1.531891e-01 1.719306e-01 1.531628e-01 1.719058e-01 1.531306e-01 1.718755e-01 1.530912e-01 1.718381e-01 1.530428e-01 1.717921e-01 1.529834e-01 1.717352e-01 1.529102e-01 1.716647e-01 1.528198e-01 1.715769e-01 1.527076e-01 1.714668e-01 1.525679e-01 1.713279e-01 1.523928e-01 1.711511e-01 1.521719e-01 1.709236e-01 1.518906e-01 1.706265e-01 1.515287e-01 1.702314e-01 1.510565e-01 1.696940e-01 1.504310e-01 1.689426e-01 1.495918e-01 1.678632e-01 1.484808e-01 1.663199e-01 1.472588e-01 1.646278e-01 1.481948e-01 1.687250e-01 1.717100e-01 2.332921e-01 3.259379e-01 5.355642e-01 5.821665e-01 
2.242606e-01 2.010029e-01 2.240489e-01 1.852221e-01 5.986758e-02 6.103288e-02 7.798043e-02 3.740876e-02 2.163015e-02 1.336614e-02 2.672541e-02 4.702445e-02 5.854429e-02 7.071270e-02 8.042025e-02 8.701994e-02 9.583124e-02 9.859777e-02 1.070426e-01 1.070898e-01 1.154367e-01 1.134988e-01 1.218755e-01 1.184540e-01 1.269155e-01 1.223634e-01 1.309276e-01 1.255000e-01 1.341654e-01 1.280501e-01 1.368058e-01 1.301427e-01 1.389730e-01 1.318675e-01 1.407554e-01 1.332873e-01 1.422160e-01 1.344466e-01 1.434008e-01 1.353774e-01 1.443447e-01 1.361046e-01 1.450753e-01 1.366489e-01 1.456166e-01 1.370295e-01 1.459907e-01 1.372651e-01 1.462189e-01 1.373750e-01 1.463225e-01 1.373791e-01 1.463230e-01 1.372978e-01 1.462414e-01 1.371511e-01 1.460982e-01 1.369581e-01 1.459124e-01 1.367362e-01 1.457007e-01 1.365002e-01 1.454774e-01 1.362622e-01 1.452535e-01 1.360313e-01 1.450376e-01 1.358139e-01 1.448353e-01 1.356142e-01 1.446502e-01 1.354342e-01 1.444839e-01 1.352744e-01 1.443368e-01 1.351345e-01 1.442083e-01 1.350133e-01 1.440972e-01 1.349093e-01 1.440020e-01 1.348206e-01 1.439210e-01 1.347454e-01 1.438525e-01 1.346821e-01 1.437948e-01 1.346290e-01 1.437464e-01 1.345846e-01 1.437060e-01 1.345475e-01 1.436723e-01 1.345167e-01 1.436443e-01 1.344911e-01 1.436211e-01 1.344699e-01 1.436019e-01 1.344524e-01 1.435859e-01 1.344379e-01 1.435728e-01 1.344259e-01 1.435619e-01 1.344160e-01 1.435530e-01 1.344078e-01 1.435456e-01 1.344011e-01 1.435395e-01 1.343956e-01 1.435344e-01 1.343910e-01 1.435303e-01 1.343873e-01 1.435269e-01 1.343842e-01 1.435241e-01 1.343816e-01 1.435218e-01 1.343795e-01 1.435199e-01 1.343778e-01 1.435183e-01 1.343764e-01 1.435171e-01 1.343752e-01 1.435160e-01 1.343743e-01 1.435151e-01 1.343735e-01 1.435144e-01 1.343728e-01 1.435138e-01 1.343723e-01 1.435133e-01 1.343719e-01 1.435129e-01 1.343715e-01 1.435126e-01 1.343712e-01 1.435124e-01 1.343710e-01 1.435121e-01 1.343708e-01 1.435119e-01 1.343706e-01 1.435118e-01 1.343705e-01 1.435117e-01 1.343703e-01 1.435116e-01 1.343703e-01 1.435115e-01 1.343702e-01 1.435114e-01 1.343701e-01 1.435114e-01 1.343701e-01 1.435113e-01 1.343700e-01 1.435113e-01 1.343700e-01 1.435113e-01 1.343700e-01 1.435112e-01 1.343699e-01 1.435112e-01 1.343699e-01 1.435112e-01 1.343699e-01 1.435112e-01 1.343699e-01 1.435112e-01 1.343699e-01 1.435112e-01 1.343699e-01 1.435111e-01 1.343699e-01 1.435111e-01 1.343699e-01 1.435111e-01 1.343699e-01 1.435111e-01 1.343698e-01 1.435111e-01 1.343698e-01 1.435111e-01 1.343698e-01 1.435111e-01 1.343698e-01 1.435111e-01 1.343698e-01 1.435111e-01 1.343698e-01 1.435111e-01 1.343698e-01 1.435111e-01 1.343698e-01 1.435111e-01 1.343698e-01 1.435111e-01 1.343698e-01 1.435111e-01 1.343698e-01 1.435111e-01 1.343698e-01 1.435111e-01 1.343698e-01 1.435111e-01 1.343698e-01 1.435111e-01 1.343698e-01 1.435111e-01 1.343698e-01 1.435111e-01 1.343698e-01 1.435111e-01 1.343698e-01 1.435111e-01 1.343698e-01 1.435111e-01 1.343698e-01 1.435111e-01 1.343698e-01 1.435111e-01 1.343698e-01 1.435111e-01 1.343698e-01 1.435111e-01 1.343698e-01 1.435111e-01 1.343698e-01 1.435110e-01 1.343698e-01 1.435110e-01 1.343698e-01 1.435110e-01 1.343697e-01 1.435110e-01 1.343697e-01 1.435110e-01 1.343697e-01 1.435109e-01 1.343697e-01 1.435109e-01 1.343696e-01 1.435109e-01 1.343696e-01 1.435108e-01 1.343696e-01 1.435108e-01 1.343695e-01 1.435107e-01 1.343694e-01 1.435106e-01 1.343693e-01 1.435105e-01 1.343692e-01 1.435103e-01 1.343691e-01 1.435102e-01 1.343690e-01 1.435100e-01 1.343688e-01 1.435097e-01 1.343685e-01 1.435094e-01 1.343683e-01 1.435091e-01 1.343679e-01 1.435086e-01 1.343675e-01 1.435081e-01 1.343670e-01 1.435074e-01 1.343664e-01 1.435067e-01 1.343657e-01 1.435057e-01 1.343648e-01 1.435045e-01 1.343637e-01 1.435031e-01 1.343624e-01 1.435014e-01 1.343607e-01 1.434993e-01 1.343588e-01 1.434967e-01 1.343564e-01 1.434936e-01 1.343535e-01 1.434898e-01 1.343499e-01 1.434852e-01 1.343456e-01 1.434796e-01 1.343404e-01 1.434727e-01 1.343340e-01 1.434645e-01 1.343263e-01 1.434544e-01 1.343169e-01 1.434421e-01 1.343055e-01 1.434272e-01 1.342915e-01 1.434090e-01 1.342746e-01 1.433869e-01 1.342540e-01 1.433601e-01 1.342289e-01 1.433274e-01 1.341984e-01 1.432876e-01 1.341613e-01 1.432392e-01 1.341161e-01 1.431802e-01 1.340611e-01 1.431085e-01 1.339941e-01 1.430211e-01 1.339125e-01 1.429147e-01 1.338131e-01 1.427851e-01 1.336920e-01 1.426271e-01 1.335443e-01 1.424344e-01 1.333641e-01 1.421994e-01 1.331442e-01 1.419123e-01 1.328754e-01 1.415616e-01 1.325467e-01 1.411325e-01 1.321442e-01 1.406070e-01 1.316507e-01 1.399623e-01 1.310442e-01 1.391699e-01 1.302975e-01 1.381937e-01 1.293756e-01 1.369877e-01 1.282334e-01 1.354926e-01 1.268125e-01 1.336308e-01 1.250357e-01 1.313002e-01 1.227998e-01 1.283629e-01 1.199635e-01 1.246301e-01 1.163294e-01 1.198359e-01 1.116140e-01 1.135961e-01 1.053967e-01 1.053363e-01 9.703212e-02 9.416812e-02 8.549506e-02 7.867326e-02 6.912584e-02 5.657632e-02 4.536978e-02 2.470587e-02 1.304155e-02 2.297189e-02 3.695520e-02 7.164244e-02 5.207654e-02 3.407510e-02 1.921505e-01 
1.673427e-01 1.467538e-01 1.673040e-01 3.595870e-01 3.561142e-01 3.088885e-01 2.584624e-01 2.118695e-01 1.980868e-01 1.708075e-01 1.781558e-01 1.576021e-01 1.726728e-01 1.537376e-01 1.714330e-01 1.528127e-01 1.714332e-01 1.528453e-01 1.718024e-01 1.532011e-01 1.722764e-01 1.536649e-01 1.727727e-01 1.541604e-01 1.732658e-01 1.546592e-01 1.737476e-01 1.551492e-01 1.742138e-01 1.556227e-01 1.746595e-01 1.560720e-01 1.750771e-01 1.564874e-01 1.754568e-01 1.568581e-01 1.757878e-01 1.571724e-01 1.760590e-01 1.574197e-01 1.762610e-01 1.575915e-01 1.763870e-01 1.576825e-01 1.764337e-01 1.576915e-01 1.764017e-01 1.576212e-01 1.762955e-01 1.574783e-01 1.761229e-01 1.572731e-01 1.758947e-01 1.570180e-01 1.756238e-01 1.567272e-01 1.753239e-01 1.564149e-01 1.750085e-01 1.560946e-01 1.746903e-01 1.557779e-01 1.743795e-01 1.554740e-01 1.740845e-01 1.551897e-01 1.738107e-01 1.549292e-01 1.735617e-01 1.546948e-01 1.733389e-01 1.544870e-01 1.731423e-01 1.543050e-01 1.729708e-01 1.541473e-01 1.728227e-01 1.540119e-01 1.726960e-01 1.538965e-01 1.725881e-01 1.537986e-01 1.724969e-01 1.537162e-01 1.724202e-01 1.536470e-01 1.723558e-01 1.535891e-01 1.723020e-01 1.535408e-01 1.722573e-01 1.535006e-01 1.722200e-01 1.534672e-01 1.721891e-01 1.534396e-01 1.721635e-01 1.534167e-01 1.721423e-01 1.533978e-01 1.721248e-01 1.533822e-01 1.721104e-01 1.533693e-01 1.720985e-01 1.533586e-01 1.720886e-01 1.533499e-01 1.720805e-01 1.533426e-01 1.720738e-01 1.533367e-01 1.720683e-01 1.533318e-01 1.720638e-01 1.533277e-01 1.720601e-01 1.533244e-01 1.720570e-01 1.533217e-01 1.720545e-01 1.533194e-01 1.720524e-01 1.533176e-01 1.720507e-01 1.533161e-01 1.720493e-01 1.533148e-01 1.720481e-01 1.533138e-01 1.720472e-01 1.533129e-01 1.720464e-01 1.533122e-01 1.720458e-01 1.533117e-01 1.720452e-01 1.533112e-01 1.720448e-01 1.533108e-01 1.720445e-01 1.533105e-01 1.720442e-01 1.533102e-01 1.720439e-01 1.533100e-01 1.720437e-01 1.533098e-01 1.720436e-01 1.533097e-01 1.720434e-01 1.533096e-01 1.720433e-01 1.533095e-01 1.720432e-01 1.533094e-01 1.720431e-01 1.533093e-01 1.720431e-01 1.533093e-01 1.720430e-01 1.533092e-01 1.720430e-01 1.533092e-01 1.720430e-01 1.533092e-01 1.720429e-01 1.533091e-01 1.720429e-01 1.533091e-01 1.720429e-01 1.533091e-01 1.720429e-01 1.533091e-01 1.720429e-01 1.533091e-01 1.720428e-01 1.533091e-01 1.720428e-01 1.533091e-01 1.720428e-01 1.533090e-01 1.720428e-01 1.533090e-01 1.720428e-01 1.533090e-01 1.720428e-01 1.533090e-01 1.720428e-01 1.533090e-01 1.720428e-01 1.533090e-01 1.720428e-01 1.533090e-01 1.720428e-01 1.533090e-01 1.720428e-01 1.533090e-01 1.720428e-01 1.533090e-01 1.720428e-01 1.533090e-01 1.720428e-01 1.533090e-01 1.720428e-01 1.533090e-01 1.720428e-01 1.533090e-01 1.720428e-01 1.533090e-01 1.720428e-01 1.533090e-01 1.720428e-01 1.533090e-01 1.720428e-01 1.533090e-01 1.720428e-01 1.533090e-01 1.720428e-01 1.533090e-01 1.720428e-01 1.533090e-01 1.720428e-01 1.533090e-01 1.720428e-01 1.533090e-01 1.720428e-01 1.533090e-01 1.720428e-01 1.533090e-01 1.720428e-01 1.533090e-01 1.720428e-01 1.533090e-01 1.720428e-01 1.533090e-01 1.720428e-01 1.533090e-01 1.720428e-01 1.533090e-01 1.720428e-01 1.533090e-01 1.720428e-01 1.533090e-01 1.720428e-01 1.533090e-01 1.720428e-01 1.533090e-01 1.720428e-01 1.533090e-01 1.720428e-01 1.533090e-01 1.720428e-01 1.533090e-01 1.720428e-01 1.533090e-01 1.720428e-01 1.533090e-01 1.720428e-01 1.533090e-01 1.720428e-01 1.533090e-01 1.720427e-01 1.533089e-01 1.720427e-01 1.533089e-01 1.720427e-01 1.533089e-01 1.720427e-01 1.533089e-01 1.720427e-01 1.533089e-01 1.720427e-01 1.533088e-01 1.720426e-01 1.533088e-01 1.720426e-01 1.533088e-01 1.720425e-01 1.533087e-01 1.720425e-01 1.533086e-01 1.720424e-01 1.533085e-01 1.720423e-01 1.533084e-01 1.720423e-01 1.533083e-01 1.720421e-01 1.533082e-01 1.720420e-01 1.533080e-01 1.720418e-01 1.533077e-01 1.720416e-01 1.533075e-01 1.720414e-01 1.533071e-01 1.720410e-01 1.533067e-01 1.720407e-01 1.533062e-01 1.720402e-01 1.533056e-01 1.720397e-01 1.533049e-01 1.720390e-01 1.533040e-01 1.720381e-01 1.533029e-01 1.720371e-01 1.533016e-01 1.720359e-01 1.533000e-01 1.720344e-01 1.532981e-01 1.720326e-01 1.532957e-01 1.720304e-01 1.532929e-01 1.720278e-01 1.532894e-01 1.720245e-01 1.532852e-01 1.720206e-01 1.532800e-01 1.720158e-01 1.532737e-01 1.720099e-01 1.532661e-01 1.720028e-01 1.532568e-01 1.719941e-01 1.532455e-01 1.719835e-01 1.532318e-01 1.719707e-01 1.532150e-01 1.719550e-01 1.531947e-01 1.719358e-01 1.531699e-01 1.719125e-01 1.531397e-01 1.718839e-01 1.531030e-01 1.718491e-01 1.530582e-01 1.718064e-01 1.530038e-01 1.717541e-01 1.529375e-01 1.716901e-01 1.528569e-01 1.716116e-01 1.527591e-01 1.715152e-01 1.526408e-01 1.713969e-01 1.524986e-01 1.712523e-01 1.523298e-01 1.710766e-01 1.521341e-01 1.708666e-01 1.519186e-01 1.706257e-01 1.517105e-01 1.703778e-01 1.515918e-01 1.702110e-01 1.518014e-01 1.704178e-01 1.530512e-01 1.719706e-01 1.575622e-01 1.781751e-01 1.722839e-01 1.997077e-01 2.157881e-01 2.611651e-01 3.116644e-01 3.533948e-01 3.480418e-01 
2.207071e-01 1.973925e-01 2.206233e-01 1.979376e-01 1.045249e-01 8.823978e-02 4.869134e-02 5.489920e-02 4.599959e-02 5.788582e-02 6.051018e-02 7.076402e-02 7.702216e-02 8.385605e-02 9.121264e-02 9.480917e-02 1.025534e-01 1.035080e-01 1.114610e-01 1.103471e-01 1.184691e-01 1.157504e-01 1.240307e-01 1.200639e-01 1.284926e-01 1.235489e-01 1.321122e-01 1.263975e-01 1.350781e-01 1.287492e-01 1.375275e-01 1.307038e-01 1.395594e-01 1.323321e-01 1.412450e-01 1.336837e-01 1.426350e-01 1.347932e-01 1.437664e-01 1.356857e-01 1.446675e-01 1.363808e-01 1.453614e-01 1.368959e-01 1.458691e-01 1.372479e-01 1.462107e-01 1.374543e-01 1.464066e-01 1.375343e-01 1.464781e-01 1.375080e-01 1.464468e-01 1.373967e-01 1.463347e-01 1.372215e-01 1.461632e-01 1.370026e-01 1.459522e-01 1.367584e-01 1.457193e-01 1.365043e-01 1.454789e-01 1.362524e-01 1.452424e-01 1.360117e-01 1.450177e-01 1.357881e-01 1.448100e-01 1.355850e-01 1.446221e-01 1.354039e-01 1.444552e-01 1.352447e-01 1.443088e-01 1.351065e-01 1.441821e-01 1.349875e-01 1.440733e-01 1.348861e-01 1.439806e-01 1.348001e-01 1.439021e-01 1.347276e-01 1.438360e-01 1.346667e-01 1.437806e-01 1.346158e-01 1.437343e-01 1.345733e-01 1.436958e-01 1.345380e-01 1.436637e-01 1.345087e-01 1.436371e-01 1.344844e-01 1.436150e-01 1.344643e-01 1.435968e-01 1.344477e-01 1.435817e-01 1.344340e-01 1.435693e-01 1.344227e-01 1.435590e-01 1.344134e-01 1.435506e-01 1.344057e-01 1.435436e-01 1.343993e-01 1.435378e-01 1.343941e-01 1.435331e-01 1.343898e-01 1.435292e-01 1.343862e-01 1.435260e-01 1.343833e-01 1.435233e-01 1.343809e-01 1.435212e-01 1.343790e-01 1.435194e-01 1.343773e-01 1.435179e-01 1.343760e-01 1.435167e-01 1.343749e-01 1.435157e-01 1.343740e-01 1.435149e-01 1.343733e-01 1.435142e-01 1.343727e-01 1.435137e-01 1.343722e-01 1.435132e-01 1.343717e-01 1.435128e-01 1.343714e-01 1.435125e-01 1.343711e-01 1.435123e-01 1.343709e-01 1.435121e-01 1.343707e-01 1.435119e-01 1.343705e-01 1.435118e-01 1.343704e-01 1.435116e-01 1.343703e-01 1.435115e-01 1.343702e-01 1.435115e-01 1.343702e-01 1.435114e-01 1.343701e-01 1.435114e-01 1.343701e-01 1.435113e-01 1.343700e-01 1.435113e-01 1.343700e-01 1.435112e-01 1.343700e-01 1.435112e-01 1.343699e-01 1.435112e-01 1.343699e-01 1.435112e-01 1.343699e-01 1.435112e-01 1.343699e-01 1.435112e-01 1.343699e-01 1.435112e-01 1.343699e-01 1.435111e-01 1.343699e-01 1.435111e-01 1.343699e-01 1.435111e-01 1.343698e-01 1.435111e-01 1.343698e-01 1.435111e-01 1.343698e-01 1.435111e-01 1.343698e-01 1.435111e-01 1.343698e-01 1.435111e-01 1.343698e-01 1.435111e-01 1.343698e-01 1.435111e-01 1.343698e-01 1.435111e-01 1.343698e-01 1.435111e-01 1.343698e-01 1.435111e-01 1.343698e-01 1.435111e-01 1.343698e-01 1.435111e-01 1.343698e-01 1.435111e-01 1.343698e-01 1.435111e-01 1.343698e-01 1.435111e-01 1.343698e-01 1.435111e-01 1.343698e-01 1.435111e-01 1.343698e-01 1.435111e-01 1.343698e-01 1.435111e-01 1.343698e-01 1.435111e-01 1.343698e-01 1.435111e-01 1.343698e-01 1.435111e-01 1.343698e-01 1.435111e-01 1.343698e-01 1.435111e-01 1.343698e-01 1.435111e-01 1.343698e-01 1.435111e-01 1.343698e-01 1.435110e-01 1.343698e-01 1.435110e-01 1.343698e-01 1.435110e-01 1.343697e-01 1.435110e-01 1.343697e-01 1.435110e-01 1.343697e-01 1.435109e-01 1.343697e-01 1.435109e-01 1.343696e-01 1.435108e-01 1.343696e-01 1.435108e-01 1.343695e-01 1.435107e-01 1.343695e-01 1.435106e-01 1.343694e-01 1.435105e-01 1.343693e-01 1.435104e-01 1.343692e-01 1.435102e-01 1.343690e-01 1.435100e-01 1.343688e-01 1.435098e-01 1.343686e-01 1.435095e-01 1.343684e-01 1.435092e-01 1.343680e-01 1.435088e-01 1.343677e-01 1.435083e-01 1.343672e-01 1.435077e-01 1.343666e-01 1.435069e-01 1.343659e-01 1.435060e-01 1.343651e-01 1.435049e-01 1.343640e-01 1.435036e-01 1.343628e-01 1.435019e-01 1.343613e-01 1.434999e-01 1.343594e-01 1.434975e-01 1.343572e-01 1.434946e-01 1.343544e-01 1.434910e-01 1.343511e-01 1.434867e-01 1.343470e-01 1.434814e-01 1.343421e-01 1.434750e-01 1.343361e-01 1.434672e-01 1.343288e-01 1.434577e-01 1.343200e-01 1.434461e-01 1.343092e-01 1.434321e-01 1.342961e-01 1.434150e-01 1.342801e-01 1.433942e-01 1.342607e-01 1.433689e-01 1.342371e-01 1.433381e-01 1.342084e-01 1.433006e-01 1.341734e-01 1.432550e-01 1.341309e-01 1.431996e-01 1.340791e-01 1.431321e-01 1.340161e-01 1.430499e-01 1.339394e-01 1.429498e-01 1.338460e-01 1.428280e-01 1.337321e-01 1.426795e-01 1.335934e-01 1.424986e-01 1.334243e-01 1.422779e-01 1.332180e-01 1.420087e-01 1.329661e-01 1.416801e-01 1.326584e-01 1.412785e-01 1.322822e-01 1.407874e-01 1.318215e-01 1.401860e-01 1.312568e-01 1.394484e-01 1.305633e-01 1.385424e-01 1.297099e-01 1.374268e-01 1.286570e-01 1.360499e-01 1.273542e-01 1.343450e-01 1.257363e-01 1.322261e-01 1.237184e-01 1.295810e-01 1.211888e-01 1.262619e-01 1.179995e-01 1.220722e-01 1.139526e-01 1.167499e-01 1.087850e-01 1.099485e-01 1.021563e-01 1.012277e-01 9.366635e-02 9.009989e-02 8.299388e-02 7.628677e-02 7.045141e-02 6.067443e-02 5.881947e-02 4.826363e-02 5.818432e-02 5.469903e-02 9.368435e-02 1.138273e-01 1.985652e-01 