# vtk DataFile Version 2.0
Comment goes here
ASCII

DATASET STRUCTURED_POINTS
FIELD FieldData 1
TIME 1 1 double
1.60000000
DIMENSIONS    384   64   1

ORIGIN    0.000   0.000   0.000
SPACING   0.078125 0.078125   1.000

POINT_DATA   24576
SCALARS uMag double
LOOKUP_TABLE default

4.064554e+00 4.163310e+00 4.064417e+00 4.168461e+00 4.254466e+00 4.344012e+00 4.391274e+00 4.436655e+00 4.460149e+00 4.485238e+00 4.499832e+00 4.515911e+00 4.527162e+00 4.538998e+00 4.549471e+00 4.559620e+00 4.570645e+00 4.580430e+00 4.592592e+00 4.602673e+00 4.616217e+00 4.626961e+00 4.641994e+00 4.653619e+00 4.670162e+00 4.682776e+00 4.700761e+00 4.714368e+00 4.733633e+00 4.748136e+00 4.768427e+00 4.783635e+00 4.804602e+00 4.820232e+00 4.841450e+00 4.857143e+00 4.878132e+00 4.893478e+00 4.913747e+00 4.928329e+00 4.947419e+00 4.960858e+00 4.978388e+00 4.990377e+00 5.006071e+00 5.016405e+00 5.030109e+00 5.038687e+00 5.050366e+00 5.057188e+00 5.066912e+00 5.072054e+00 5.079970e+00 5.083559e+00 5.089865e+00 5.092056e+00 5.096967e+00 5.097926e+00 5.101657e+00 5.101547e+00 5.104295e+00 5.103266e+00 5.105198e+00 5.103374e+00 5.104613e+00 5.102083e+00 5.102701e+00 5.099504e+00 5.099518e+00 5.095646e+00 5.095020e+00 5.090421e+00 5.089080e+00 5.083674e+00 5.081523e+00 5.075221e+00 5.072168e+00 5.064890e+00 5.060861e+00 5.052557e+00 5.047514e+00 5.038169e+00 5.032114e+00 5.021758e+00 5.014736e+00 5.003436e+00 4.995530e+00 4.983388e+00 4.974712e+00 4.961858e+00 4.952551e+00 4.939136e+00 4.929354e+00 4.915540e+00 4.905450e+00 4.891407e+00 4.881176e+00 4.867073e+00 4.856868e+00 4.842867e+00 4.832844e+00 4.819095e+00 4.809396e+00 4.796033e+00 4.786782e+00 4.773920e+00 4.765220e+00 4.752952e+00 4.744886e+00 4.733283e+00 4.725911e+00 4.715023e+00 4.708384e+00 4.698241e+00 4.692355e+00 4.682967e+00 4.677836e+00 4.669197e+00 4.664808e+00 4.656897e+00 4.653222e+00 4.646006e+00 4.643006e+00 4.636444e+00 4.634073e+00 4.628114e+00 4.626320e+00 4.620910e+00 4.619639e+00 4.614723e+00 4.613919e+00 4.609441e+00 4.609049e+00 4.604957e+00 4.604924e+00 4.601167e+00 4.601447e+00 4.597978e+00 4.598526e+00 4.595305e+00 4.596081e+00 4.593071e+00 4.594040e+00 4.591208e+00 4.592342e+00 4.589659e+00 4.590930e+00 4.588373e+00 4.589759e+00 4.587307e+00 4.588789e+00 4.586425e+00 4.587987e+00 4.585696e+00 4.587324e+00 4.585093e+00 4.586777e+00 4.584596e+00 4.586326e+00 4.584186e+00 4.585953e+00 4.583848e+00 4.585646e+00 4.583570e+00 4.585393e+00 4.583340e+00 4.585185e+00 4.583151e+00 4.585014e+00 4.582996e+00 4.584873e+00 4.582868e+00 4.584757e+00 4.582762e+00 4.584661e+00 4.582675e+00 4.584582e+00 4.582604e+00 4.584518e+00 4.582545e+00 4.584465e+00 4.582497e+00 4.584421e+00 4.582458e+00 4.584385e+00 4.582425e+00 4.584355e+00 4.582398e+00 4.584331e+00 4.582376e+00 4.584311e+00 4.582358e+00 4.584294e+00 4.582343e+00 4.584281e+00 4.582331e+00 4.584270e+00 4.582320e+00 4.584261e+00 4.582312e+00 4.584253e+00 4.582305e+00 4.584247e+00 4.582300e+00 4.584242e+00 4.582295e+00 4.584238e+00 4.582291e+00 4.584234e+00 4.582288e+00 4.584231e+00 4.582286e+00 4.584229e+00 4.582283e+00 4.584227e+00 4.582282e+00 4.584225e+00 4.582280e+00 4.584224e+00 4.582279e+00 4.584223e+00 4.582278e+00 4.584222e+00 4.582277e+00 4.584221e+00 4.582277e+00 4.584221e+00 4.582276e+00 4.584220e+00 4.582276e+00 4.584220e+00 4.582275e+00 4.584220e+00 4.582275e+00 4.584219e+00 4.582275e+00 4.584219e+00 4.582275e+00 4.584219e+00 4.582274e+00 4.584219e+00 4.582274e+00 4.584219e+00 4.582274e+00 4.584219e+00 4.582274e+00 4.584218e+00 4.582274e+00 4.584218e+00 4.582274e+00 4.584218e+00 4.582274e+00 4.584218e+00 4.582274e+00 4.584218e+00 4.582274e+00 4.584218e+00 4.582274e+00 4.584218e+00 4.582274e+00 4.584218e+00 4.582274e+00 4.584218e+00 4.582274e+00 4.584218e+00 4.582274e+00 4.584218e+00 4.582273e+00 4.584218e+00 4.582273e+00 4.584218e+00 4.582273e+00 4.584218e+00 4.582273e+00 4.584217e+00 4.582273e+00 4.584217e+00 4.582273e+00 4.584217e+00 4.582273e+00 4.584217e+00 4.582273e+00 4.584217e+00 4.582272e+00 4.584216e+00 4.582272e+00 4.584216e+00 4.582272e+00 4.584215e+00 4.582271e+00 4.584215e+00 4.582271e+00 4.584214e+00 4.582270e+00 4.584213e+00 4.582269e+00 4.584212e+00 4.582268e+00 4.584211e+00 4.582267e+00 4.584209e+00 4.582265e+00 4.584207e+00 4.582263e+00 4.584205e+00 4.582261e+00 4.584202e+00 4.582258e+00 4.584199e+00 4.582255e+00 4.584195e+00 4.582251e+00 4.584190e+00 4.582246e+00 4.584183e+00 4.582240e+00 4.584176e+00 4.582233e+00 4.584167e+00 4.582224e+00 4.584156e+00 4.582213e+00 4.584142e+00 4.582200e+00 4.584126e+00 4.582184e+00 4.584106e+00 4.582164e+00 4.584081e+00 4.582140e+00 4.584052e+00 4.582111e+00 4.584016e+00 4.582076e+00 4.583971e+00 4.582033e+00 4.583918e+00 4.581980e+00 4.583852e+00 4.581916e+00 4.583772e+00 4.581838e+00 4.583674e+00 4.581741e+00 4.583553e+00 4.581623e+00 4.583406e+00 4.581478e+00 4.583225e+00 4.581299e+00 4.583002e+00 4.581079e+00 4.582726e+00 4.580805e+00 4.582385e+00 4.580464e+00 4.581959e+00 4.580037e+00 4.581427e+00 4.579499e+00 4.580755e+00 4.578815e+00 4.579902e+00 4.577936e+00 4.578805e+00 4.576788e+00 4.577375e+00 4.575263e+00 4.575475e+00 4.573185e+00 4.572886e+00 4.570251e+00 4.569233e+00 4.565891e+00 4.563803e+00 4.558880e+00 4.555067e+00 4.546127e+00 4.539151e+00 4.518240e+00 4.504299e+00 4.441366e+00 4.408635e+00 4.176924e+00 
4.587797e+00 4.580808e+00 4.587805e+00 4.579815e+00 4.557446e+00 4.544968e+00 4.540619e+00 4.536776e+00 4.542153e+00 4.542362e+00 4.551456e+00 4.552865e+00 4.563265e+00 4.565161e+00 4.576562e+00 4.579230e+00 4.591859e+00 4.595579e+00 4.609584e+00 4.614494e+00 4.629950e+00 4.636131e+00 4.653092e+00 4.660601e+00 4.679091e+00 4.687944e+00 4.707929e+00 4.718075e+00 4.739438e+00 4.750746e+00 4.773274e+00 4.785526e+00 4.808909e+00 4.821794e+00 4.845631e+00 4.858769e+00 4.882593e+00 4.895559e+00 4.918879e+00 4.931248e+00 4.953589e+00 4.964975e+00 4.985921e+00 4.996009e+00 5.015231e+00 5.023798e+00 5.041069e+00 5.047984e+00 5.063188e+00 5.068404e+00 5.081525e+00 5.085053e+00 5.096161e+00 5.098056e+00 5.107283e+00 5.107626e+00 5.115143e+00 5.114041e+00 5.120044e+00 5.117626e+00 5.122325e+00 5.118741e+00 5.122343e+00 5.117748e+00 5.120445e+00 5.114986e+00 5.116932e+00 5.110725e+00 5.112026e+00 5.105141e+00 5.105844e+00 5.098300e+00 5.098399e+00 5.090169e+00 5.089613e+00 5.080636e+00 5.079348e+00 5.069552e+00 5.067453e+00 5.056769e+00 5.053796e+00 5.042182e+00 5.038302e+00 5.025751e+00 5.020972e+00 5.007517e+00 5.001890e+00 4.987607e+00 4.981222e+00 4.966221e+00 4.959200e+00 4.943622e+00 4.936114e+00 4.920118e+00 4.912287e+00 4.896042e+00 4.888058e+00 4.871738e+00 4.863770e+00 4.847540e+00 4.839748e+00 4.823764e+00 4.816293e+00 4.800691e+00 4.793667e+00 4.778565e+00 4.772095e+00 4.757587e+00 4.751753e+00 4.737911e+00 4.732774e+00 4.719649e+00 4.715248e+00 4.702870e+00 4.699225e+00 4.687603e+00 4.684715e+00 4.673844e+00 4.671699e+00 4.661558e+00 4.660128e+00 4.650682e+00 4.649929e+00 4.641136e+00 4.641013e+00 4.632824e+00 4.633278e+00 4.625638e+00 4.626614e+00 4.619467e+00 4.620910e+00 4.614201e+00 4.616055e+00 4.609731e+00 4.611945e+00 4.605955e+00 4.608480e+00 4.602778e+00 4.605570e+00 4.600115e+00 4.603135e+00 4.597890e+00 4.601103e+00 4.596035e+00 4.599411e+00 4.594493e+00 4.598006e+00 4.593213e+00 4.596841e+00 4.592152e+00 4.595875e+00 4.591274e+00 4.595077e+00 4.590548e+00 4.594417e+00 4.589948e+00 4.593872e+00 4.589454e+00 4.593423e+00 4.589045e+00 4.593053e+00 4.588709e+00 4.592747e+00 4.588432e+00 4.592496e+00 4.588203e+00 4.592288e+00 4.588015e+00 4.592118e+00 4.587861e+00 4.591977e+00 4.587733e+00 4.591862e+00 4.587628e+00 4.591767e+00 4.587542e+00 4.591688e+00 4.587471e+00 4.591624e+00 4.587413e+00 4.591571e+00 4.587365e+00 4.591527e+00 4.587325e+00 4.591492e+00 4.587293e+00 4.591462e+00 4.587266e+00 4.591438e+00 4.587244e+00 4.591418e+00 4.587226e+00 4.591402e+00 4.587211e+00 4.591388e+00 4.587199e+00 4.591377e+00 4.587189e+00 4.591368e+00 4.587180e+00 4.591360e+00 4.587174e+00 4.591354e+00 4.587168e+00 4.591349e+00 4.587163e+00 4.591345e+00 4.587160e+00 4.591342e+00 4.587157e+00 4.591339e+00 4.587154e+00 4.591337e+00 4.587152e+00 4.591335e+00 4.587150e+00 4.591333e+00 4.587149e+00 4.591332e+00 4.587148e+00 4.591331e+00 4.587147e+00 4.591330e+00 4.587146e+00 4.591329e+00 4.587145e+00 4.591329e+00 4.587145e+00 4.591328e+00 4.587144e+00 4.591328e+00 4.587144e+00 4.591327e+00 4.587144e+00 4.591327e+00 4.587143e+00 4.591327e+00 4.587143e+00 4.591327e+00 4.587143e+00 4.591326e+00 4.587143e+00 4.591326e+00 4.587143e+00 4.591326e+00 4.587143e+00 4.591326e+00 4.587143e+00 4.591326e+00 4.587142e+00 4.591326e+00 4.587142e+00 4.591326e+00 4.587142e+00 4.591326e+00 4.587142e+00 4.591326e+00 4.587142e+00 4.591326e+00 4.587142e+00 4.591326e+00 4.587142e+00 4.591326e+00 4.587142e+00 4.591326e+00 4.587142e+00 4.591326e+00 4.587142e+00 4.591326e+00 4.587142e+00 4.591326e+00 4.587142e+00 4.591326e+00 4.587142e+00 4.591326e+00 4.587142e+00 4.591326e+00 4.587142e+00 4.591326e+00 4.587142e+00 4.591326e+00 4.587142e+00 4.591326e+00 4.587142e+00 4.591326e+00 4.587142e+00 4.591326e+00 4.587142e+00 4.591326e+00 4.587142e+00 4.591326e+00 4.587142e+00 4.591326e+00 4.587142e+00 4.591326e+00 4.587142e+00 4.591326e+00 4.587142e+00 4.591326e+00 4.587142e+00 4.591325e+00 4.587142e+00 4.591325e+00 4.587141e+00 4.591325e+00 4.587141e+00 4.591325e+00 4.587141e+00 4.591325e+00 4.587141e+00 4.591325e+00 4.587141e+00 4.591325e+00 4.587140e+00 4.591325e+00 4.587140e+00 4.591324e+00 4.587139e+00 4.591324e+00 4.587139e+00 4.591324e+00 4.587138e+00 4.591323e+00 4.587137e+00 4.591323e+00 4.587136e+00 4.591322e+00 4.587135e+00 4.591321e+00 4.587133e+00 4.591320e+00 4.587131e+00 4.591319e+00 4.587129e+00 4.591317e+00 4.587126e+00 4.591316e+00 4.587123e+00 4.591314e+00 4.587119e+00 4.591311e+00 4.587114e+00 4.591308e+00 4.587108e+00 4.591304e+00 4.587100e+00 4.591299e+00 4.587091e+00 4.591294e+00 4.587080e+00 4.591287e+00 4.587066e+00 4.591278e+00 4.587049e+00 4.591268e+00 4.587028e+00 4.591255e+00 4.587002e+00 4.591240e+00 4.586970e+00 4.591221e+00 4.586930e+00 4.591197e+00 4.586879e+00 4.591167e+00 4.586813e+00 4.591129e+00 4.586729e+00 4.591081e+00 4.586617e+00 4.591020e+00 4.586467e+00 4.590938e+00 4.586256e+00 4.590830e+00 4.585947e+00 4.590683e+00 4.585463e+00 4.590489e+00 4.584638e+00 4.590347e+00 4.583168e+00 4.591874e+00 4.582287e+00 
4.602965e+00 4.597858e+00 4.603029e+00 4.595733e+00 4.553216e+00 4.543858e+00 4.527195e+00 4.529916e+00 4.527126e+00 4.533975e+00 4.536754e+00 4.544111e+00 4.549315e+00 4.556466e+00 4.563373e+00 4.570635e+00 4.579186e+00 4.586913e+00 4.597105e+00 4.605542e+00 4.617387e+00 4.626733e+00 4.640269e+00 4.650693e+00 4.665958e+00 4.677580e+00 4.694567e+00 4.707431e+00 4.726059e+00 4.740113e+00 4.760196e+00 4.775277e+00 4.796516e+00 4.812349e+00 4.834334e+00 4.850549e+00 4.872789e+00 4.888956e+00 4.910916e+00 4.926587e+00 4.947737e+00 4.962497e+00 4.982354e+00 4.995850e+00 5.014014e+00 5.025980e+00 5.042156e+00 5.052417e+00 5.066422e+00 5.074885e+00 5.086646e+00 5.093271e+00 5.102806e+00 5.107595e+00 5.114989e+00 5.117974e+00 5.123365e+00 5.124614e+00 5.128183e+00 5.127811e+00 5.129777e+00 5.127949e+00 5.128559e+00 5.125481e+00 5.124991e+00 5.120880e+00 5.119529e+00 5.114590e+00 5.112572e+00 5.106963e+00 5.104409e+00 5.098226e+00 5.095195e+00 5.088466e+00 5.084948e+00 5.077641e+00 5.073574e+00 5.065619e+00 5.060913e+00 5.052223e+00 5.046786e+00 5.037284e+00 5.031048e+00 5.020690e+00 5.013623e+00 5.002408e+00 4.994528e+00 4.982502e+00 4.973876e+00 4.961132e+00 4.951867e+00 4.938534e+00 4.928772e+00 4.915007e+00 4.904911e+00 4.890885e+00 4.880627e+00 4.866518e+00 4.856271e+00 4.842249e+00 4.832178e+00 4.818401e+00 4.808654e+00 4.795264e+00 4.785971e+00 4.773086e+00 4.764354e+00 4.752070e+00 4.743982e+00 4.732372e+00 4.724989e+00 4.714102e+00 4.707462e+00 4.697329e+00 4.691451e+00 4.682080e+00 4.676965e+00 4.668348e+00 4.663981e+00 4.656098e+00 4.652448e+00 4.645264e+00 4.642293e+00 4.635763e+00 4.633424e+00 4.627498e+00 4.625736e+00 4.620360e+00 4.619120e+00 4.614236e+00 4.613462e+00 4.609014e+00 4.608650e+00 4.604586e+00 4.604579e+00 4.600847e+00 4.601150e+00 4.597705e+00 4.598273e+00 4.595072e+00 4.595866e+00 4.592874e+00 4.593859e+00 4.591042e+00 4.592189e+00 4.589520e+00 4.590802e+00 4.588257e+00 4.589653e+00 4.587210e+00 4.588701e+00 4.586344e+00 4.587914e+00 4.585629e+00 4.587263e+00 4.585038e+00 4.586726e+00 4.584550e+00 4.586284e+00 4.584148e+00 4.585919e+00 4.583817e+00 4.585618e+00 4.583544e+00 4.585370e+00 4.583319e+00 4.585166e+00 4.583133e+00 4.584998e+00 4.582981e+00 4.584860e+00 4.582856e+00 4.584746e+00 4.582752e+00 4.584652e+00 4.582667e+00 4.584575e+00 4.582597e+00 4.584512e+00 4.582540e+00 4.584460e+00 4.582493e+00 4.584417e+00 4.582454e+00 4.584381e+00 4.582422e+00 4.584352e+00 4.582395e+00 4.584329e+00 4.582374e+00 4.584309e+00 4.582356e+00 4.584293e+00 4.582341e+00 4.584280e+00 4.582329e+00 4.584269e+00 4.582320e+00 4.584260e+00 4.582311e+00 4.584252e+00 4.582305e+00 4.584246e+00 4.582299e+00 4.584241e+00 4.582295e+00 4.584237e+00 4.582291e+00 4.584234e+00 4.582288e+00 4.584231e+00 4.582285e+00 4.584229e+00 4.582283e+00 4.584227e+00 4.582282e+00 4.584225e+00 4.582280e+00 4.584224e+00 4.582279e+00 4.584223e+00 4.582278e+00 4.584222e+00 4.582277e+00 4.584221e+00 4.582277e+00 4.584221e+00 4.582276e+00 4.584220e+00 4.582276e+00 4.584220e+00 4.582275e+00 4.584220e+00 4.582275e+00 4.584219e+00 4.582275e+00 4.584219e+00 4.582275e+00 4.584219e+00 4.582274e+00 4.584219e+00 4.582274e+00 4.584219e+00 4.582274e+00 4.584219e+00 4.582274e+00 4.584218e+00 4.582274e+00 4.584218e+00 4.582274e+00 4.584218e+00 4.582274e+00 4.584218e+00 4.582274e+00 4.584218e+00 4.582274e+00 4.584218e+00 4.582274e+00 4.584218e+00 4.582274e+00 4.584218e+00 4.582274e+00 4.584218e+00 4.582274e+00 4.584218e+00 4.582274e+00 4.584218e+00 4.582273e+00 4.584218e+00 4.582273e+00 4.584218e+00 4.582273e+00 4.584218e+00 4.582273e+00 4.584217e+00 4.582273e+00 4.584217e+00 4.582273e+00 4.584217e+00 4.582273e+00 4.584217e+00 4.582273e+00 4.584217e+00 4.582272e+00 4.584216e+00 4.582272e+00 4.584216e+00 4.582272e+00 4.584215e+00 4.582271e+00 4.584215e+00 4.582271e+00 4.584214e+00 4.582270e+00 4.584213e+00 4.582269e+00 4.584212e+00 4.582268e+00 4.584211e+00 4.582267e+00 4.584210e+00 4.582265e+00 4.584208e+00 4.582263e+00 4.584205e+00 4.582261e+00 4.584203e+00 4.582259e+00 4.584199e+00 4.582255e+00 4.584195e+00 4.582251e+00 4.584190e+00 4.582246e+00 4.584184e+00 4.582241e+00 4.584177e+00 4.582233e+00 4.584168e+00 4.582225e+00 4.584157e+00 4.582214e+00 4.584144e+00 4.582201e+00 4.584128e+00 4.582185e+00 4.584108e+00 4.582166e+00 4.584084e+00 4.582143e+00 4.584055e+00 4.582115e+00 4.584020e+00 4.582080e+00 4.583976e+00 4.582038e+00 4.583924e+00 4.581986e+00 4.583859e+00 4.581923e+00 4.583781e+00 4.581846e+00 4.583685e+00 4.581752e+00 4.583567e+00 4.581636e+00 4.583423e+00 4.581495e+00 4.583246e+00 4.581320e+00 4.583028e+00 4.581105e+00 4.582759e+00 4.580838e+00 4.582426e+00 4.580506e+00 4.582012e+00 4.580092e+00 4.581496e+00 4.579571e+00 4.580846e+00 4.578911e+00 4.580023e+00 4.578068e+00 4.578971e+00 4.576975e+00 4.577609e+00 4.575538e+00 4.575819e+00 4.573611e+00 4.573419e+00 4.570963e+00 4.570123e+00 4.567217e+00 4.565464e+00 4.561761e+00 4.558687e+00 4.553741e+00 4.548757e+00 4.542969e+00 4.535530e+00 4.536869e+00 4.528320e+00 4.592055e+00 
4.590302e+00 4.585743e+00 4.590291e+00 4.587383e+00 4.602726e+00 4.598765e+00 4.601795e+00 4.594314e+00 4.595610e+00 4.589109e+00 4.592210e+00 4.587773e+00 4.593196e+00 4.590847e+00 4.598526e+00 4.598128e+00 4.607868e+00 4.609223e+00 4.620830e+00 4.623793e+00 4.637175e+00 4.641702e+00 4.656865e+00 4.662978e+00 4.679967e+00 4.687699e+00 4.706543e+00 4.715883e+00 4.736541e+00 4.747398e+00 4.769724e+00 4.781899e+00 4.805621e+00 4.818800e+00 4.843520e+00 4.857295e+00 4.882517e+00 4.896422e+00 4.921590e+00 4.935152e+00 4.959702e+00 4.972485e+00 4.995884e+00 5.007520e+00 5.029300e+00 5.039509e+00 5.059296e+00 5.067878e+00 5.085405e+00 5.092227e+00 5.107337e+00 5.112300e+00 5.124937e+00 5.127966e+00 5.138154e+00 5.139198e+00 5.147032e+00 5.146091e+00 5.151734e+00 5.148886e+00 5.152573e+00 5.147985e+00 5.150015e+00 5.143934e+00 5.144642e+00 5.137363e+00 5.137087e+00 5.128905e+00 5.127942e+00 5.119106e+00 5.117679e+00 5.108366e+00 5.106604e+00 5.096895e+00 5.094831e+00 5.084722e+00 5.082304e+00 5.071722e+00 5.068846e+00 5.057680e+00 5.054222e+00 5.042359e+00 5.038208e+00 5.025562e+00 5.020647e+00 5.007182e+00 5.001487e+00 4.987222e+00 4.980789e+00 4.965800e+00 4.958724e+00 4.943131e+00 4.935548e+00 4.919507e+00 4.911580e+00 4.895268e+00 4.887175e+00 4.870772e+00 4.862692e+00 4.846375e+00 4.838476e+00 4.822411e+00 4.814846e+00 4.799175e+00 4.792075e+00 4.776921e+00 4.770395e+00 4.755853e+00 4.749984e+00 4.736127e+00 4.730975e+00 4.717853e+00 4.713455e+00 4.701095e+00 4.697470e+00 4.685881e+00 4.683026e+00 4.672199e+00 4.670098e+00 4.660009e+00 4.658632e+00 4.649245e+00 4.648550e+00 4.639820e+00 4.639758e+00 4.631632e+00 4.632148e+00 4.624572e+00 4.625609e+00 4.618524e+00 4.620025e+00 4.613374e+00 4.615283e+00 4.609013e+00 4.611277e+00 4.605336e+00 4.607906e+00 4.602248e+00 4.605080e+00 4.599664e+00 4.602720e+00 4.597508e+00 4.600752e+00 4.595714e+00 4.599117e+00 4.594223e+00 4.597759e+00 4.592987e+00 4.596634e+00 4.591964e+00 4.595704e+00 4.591117e+00 4.594934e+00 4.590418e+00 4.594299e+00 4.589841e+00 4.593774e+00 4.589364e+00 4.593342e+00 4.588972e+00 4.592985e+00 4.588648e+00 4.592692e+00 4.588381e+00 4.592450e+00 4.588162e+00 4.592251e+00 4.587981e+00 4.592087e+00 4.587832e+00 4.591952e+00 4.587710e+00 4.591841e+00 4.587609e+00 4.591749e+00 4.587526e+00 4.591674e+00 4.587458e+00 4.591612e+00 4.587402e+00 4.591561e+00 4.587356e+00 4.591520e+00 4.587318e+00 4.591485e+00 4.587287e+00 4.591457e+00 4.587261e+00 4.591434e+00 4.587240e+00 4.591414e+00 4.587223e+00 4.591399e+00 4.587208e+00 4.591386e+00 4.587196e+00 4.591375e+00 4.587187e+00 4.591366e+00 4.587179e+00 4.591359e+00 4.587172e+00 4.591353e+00 4.587167e+00 4.591348e+00 4.587163e+00 4.591344e+00 4.587159e+00 4.591341e+00 4.587156e+00 4.591338e+00 4.587154e+00 4.591336e+00 4.587151e+00 4.591334e+00 4.587150e+00 4.591333e+00 4.587148e+00 4.591332e+00 4.587147e+00 4.591330e+00 4.587146e+00 4.591330e+00 4.587146e+00 4.591329e+00 4.587145e+00 4.591328e+00 4.587145e+00 4.591328e+00 4.587144e+00 4.591328e+00 4.587144e+00 4.591327e+00 4.587143e+00 4.591327e+00 4.587143e+00 4.591327e+00 4.587143e+00 4.591327e+00 4.587143e+00 4.591326e+00 4.587143e+00 4.591326e+00 4.587143e+00 4.591326e+00 4.587143e+00 4.591326e+00 4.587142e+00 4.591326e+00 4.587142e+00 4.591326e+00 4.587142e+00 4.591326e+00 4.587142e+00 4.591326e+00 4.587142e+00 4.591326e+00 4.587142e+00 4.591326e+00 4.587142e+00 4.591326e+00 4.587142e+00 4.591326e+00 4.587142e+00 4.591326e+00 4.587142e+00 4.591326e+00 4.587142e+00 4.591326e+00 4.587142e+00 4.591326e+00 4.587142e+00 4.591326e+00 4.587142e+00 4.591326e+00 4.587142e+00 4.591326e+00 4.587142e+00 4.591326e+00 4.587142e+00 4.591326e+00 4.587142e+00 4.591326e+00 4.587142e+00 4.591326e+00 4.587142e+00 4.591326e+00 4.587142e+00 4.591326e+00 4.587142e+00 4.591326e+00 4.587142e+00 4.591326e+00 4.587142e+00 4.591326e+00 4.587142e+00 4.591326e+00 4.587142e+00 4.591326e+00 4.587142e+00 4.591325e+00 4.587142e+00 4.591325e+00 4.587141e+00 4.591325e+00 4.587141e+00 4.591325e+00 4.587141e+00 4.591325e+00 4.587141e+00 4.591325e+00 4.587141e+00 4.591325e+00 4.587140e+00 4.591325e+00 4.587140e+00 4.591324e+00 4.587139e+00 4.591324e+00 4.587139e+00 4.591324e+00 4.587138e+00 4.591323e+00 4.587137e+00 4.591323e+00 4.587136e+00 4.591322e+00 4.587135e+00 4.591321e+00 4.587134e+00 4.591320e+00 4.587132e+00 4.591319e+00 4.587129e+00 4.591318e+00 4.587127e+00 4.591316e+00 4.587123e+00 4.591314e+00 4.587119e+00 4.591311e+00 4.587115e+00 4.591308e+00 4.587109e+00 4.591305e+00 4.587101e+00 4.591300e+00 4.587092e+00 4.591295e+00 4.587082e+00 4.591288e+00 4.587068e+00 4.591280e+00 4.587052e+00 4.591270e+00 4.587032e+00 4.591258e+00 4.587008e+00 4.591243e+00 4.586977e+00 4.591225e+00 4.586939e+00 4.591202e+00 4.586891e+00 4.591175e+00 4.586831e+00 4.591140e+00 4.586754e+00 4.591096e+00 4.586656e+00 4.591042e+00 4.586529e+00 4.590973e+00 4.586363e+00 4.590888e+00 4.586150e+00 4.590789e+00 4.585895e+00 4.590694e+00 4.585679e+00 4.590668e+00 4.585899e+00 4.590719e+00 4.588178e+00 
4.602296e+00 4.597106e+00 4.602306e+00 4.597030e+00 4.588097e+00 4.586698e+00 4.580528e+00 4.581408e+00 4.578187e+00 4.579747e+00 4.578896e+00 4.580996e+00 4.582435e+00 4.585397e+00 4.589143e+00 4.593186e+00 4.599097e+00 4.604244e+00 4.612134e+00 4.618401e+00 4.628195e+00 4.635682e+00 4.647419e+00 4.656278e+00 4.670047e+00 4.680424e+00 4.696303e+00 4.708289e+00 4.726283e+00 4.739868e+00 4.759863e+00 4.774908e+00 4.796643e+00 4.812863e+00 4.835926e+00 4.852914e+00 4.876767e+00 4.894035e+00 4.918064e+00 4.935098e+00 4.958662e+00 4.974974e+00 4.997454e+00 5.012624e+00 5.033471e+00 5.047167e+00 5.065930e+00 5.077910e+00 5.094262e+00 5.104351e+00 5.118086e+00 5.126145e+00 5.137162e+00 5.143061e+00 5.151343e+00 5.154973e+00 5.160573e+00 5.161883e+00 5.164943e+00 5.163987e+00 5.164747e+00 5.161710e+00 5.160514e+00 5.155703e+00 5.152967e+00 5.146771e+00 5.142935e+00 5.135758e+00 5.131228e+00 5.123428e+00 5.118526e+00 5.110367e+00 5.105295e+00 5.096920e+00 5.091753e+00 5.083182e+00 5.077877e+00 5.069032e+00 5.063462e+00 5.054202e+00 5.048205e+00 5.038373e+00 5.031790e+00 5.021257e+00 5.013974e+00 5.002661e+00 4.994627e+00 4.982527e+00 4.973761e+00 4.960931e+00 4.951516e+00 4.938071e+00 4.928140e+00 4.914238e+00 4.903957e+00 4.889778e+00 4.879331e+00 4.865063e+00 4.854635e+00 4.840462e+00 4.830227e+00 4.816318e+00 4.806434e+00 4.792937e+00 4.783537e+00 4.770573e+00 4.761766e+00 4.749433e+00 4.741302e+00 4.729671e+00 4.722274e+00 4.711394e+00 4.704767e+00 4.694663e+00 4.688821e+00 4.679500e+00 4.674439e+00 4.665889e+00 4.661592e+00 4.653788e+00 4.650220e+00 4.643123e+00 4.640242e+00 4.633805e+00 4.631559e+00 4.625728e+00 4.624061e+00 4.618778e+00 4.617631e+00 4.612838e+00 4.612151e+00 4.607790e+00 4.607507e+00 4.603522e+00 4.603591e+00 4.599931e+00 4.600302e+00 4.596921e+00 4.597550e+00 4.594406e+00 4.595253e+00 4.592310e+00 4.593342e+00 4.590567e+00 4.591754e+00 4.589122e+00 4.590438e+00 4.587924e+00 4.589348e+00 4.586933e+00 4.588447e+00 4.586114e+00 4.587703e+00 4.585437e+00 4.587089e+00 4.584879e+00 4.586582e+00 4.584419e+00 4.586164e+00 4.584039e+00 4.585820e+00 4.583727e+00 4.585536e+00 4.583469e+00 4.585303e+00 4.583258e+00 4.585110e+00 4.583083e+00 4.584952e+00 4.582939e+00 4.584822e+00 4.582821e+00 4.584715e+00 4.582724e+00 4.584627e+00 4.582644e+00 4.584554e+00 4.582578e+00 4.584494e+00 4.582524e+00 4.584445e+00 4.582480e+00 4.584405e+00 4.582443e+00 4.584372e+00 4.582413e+00 4.584344e+00 4.582388e+00 4.584322e+00 4.582368e+00 4.584304e+00 4.582351e+00 4.584288e+00 4.582337e+00 4.584276e+00 4.582326e+00 4.584266e+00 4.582317e+00 4.584257e+00 4.582309e+00 4.584250e+00 4.582303e+00 4.584245e+00 4.582298e+00 4.584240e+00 4.582293e+00 4.584236e+00 4.582290e+00 4.584233e+00 4.582287e+00 4.584230e+00 4.582285e+00 4.584228e+00 4.582283e+00 4.584226e+00 4.582281e+00 4.584225e+00 4.582280e+00 4.584224e+00 4.582279e+00 4.584223e+00 4.582278e+00 4.584222e+00 4.582277e+00 4.584221e+00 4.582277e+00 4.584221e+00 4.582276e+00 4.584220e+00 4.582276e+00 4.584220e+00 4.582275e+00 4.584220e+00 4.582275e+00 4.584219e+00 4.582275e+00 4.584219e+00 4.582275e+00 4.584219e+00 4.582274e+00 4.584219e+00 4.582274e+00 4.584219e+00 4.582274e+00 4.584219e+00 4.582274e+00 4.584218e+00 4.582274e+00 4.584218e+00 4.582274e+00 4.584218e+00 4.582274e+00 4.584218e+00 4.582274e+00 4.584218e+00 4.582274e+00 4.584218e+00 4.582274e+00 4.584218e+00 4.582274e+00 4.584218e+00 4.582274e+00 4.584218e+00 4.582274e+00 4.584218e+00 4.582274e+00 4.584218e+00 4.582273e+00 4.584218e+00 4.582273e+00 4.584218e+00 4.582273e+00 4.584218e+00 4.582273e+00 4.584218e+00 4.582273e+00 4.584217e+00 4.582273e+00 4.584217e+00 4.582273e+00 4.584217e+00 4.582273e+00 4.584217e+00 4.582272e+00 4.584216e+00 4.582272e+00 4.584216e+00 4.582272e+00 4.584216e+00 4.582271e+00 4.584215e+00 4.582271e+00 4.584214e+00 4.582270e+00 4.584214e+00 4.582269e+00 4.584213e+00 4.582268e+00 4.584211e+00 4.582267e+00 4.584210e+00 4.582266e+00 4.584208e+00 4.582264e+00 4.584206e+00 4.582262e+00 4.584204e+00 4.582259e+00 4.584200e+00 4.582256e+00 4.584196e+00 4.582253e+00 4.584192e+00 4.582248e+00 4.584186e+00 4.582242e+00 4.584179e+00 4.582236e+00 4.584171e+00 4.582228e+00 4.584161e+00 4.582218e+00 4.584148e+00 4.582205e+00 4.584133e+00 4.582191e+00 4.584114e+00 4.582173e+00 4.584092e+00 4.582151e+00 4.584065e+00 4.582124e+00 4.584031e+00 4.582091e+00 4.583991e+00 4.582052e+00 4.583941e+00 4.582003e+00 4.583881e+00 4.581944e+00 4.583807e+00 4.581872e+00 4.583717e+00 4.581784e+00 4.583607e+00 4.581676e+00 4.583472e+00 4.581544e+00 4.583307e+00 4.581381e+00 4.583105e+00 4.581182e+00 4.582856e+00 4.580936e+00 4.582549e+00 4.580631e+00 4.582169e+00 4.580253e+00 4.581697e+00 4.579782e+00 4.581110e+00 4.579192e+00 4.580375e+00 4.578449e+00 4.579448e+00 4.577507e+00 4.578273e+00 4.576304e+00 4.576775e+00 4.574760e+00 4.574852e+00 4.572777e+00 4.572383e+00 4.570260e+00 4.569252e+00 4.567220e+00 4.565474e+00 4.564121e+00 4.561628e+00 4.562940e+00 4.560150e+00 4.569744e+00 4.568422e+00 4.596730e+00 