# vtk DataFile Version 2.0
fMag
ASCII
DATASET UNSTRUCTURED_GRID

FIELD FieldData 1
TIME 1 1 double
1.72000000
POINTS 249 float
7.670941883618037e-01 5.000000000003961e-01 0.000000000000000e+00
7.670092289581245e-01 5.068466116658685e-01 0.000000000000000e+00
7.667703111852912e-01 5.137196849709211e-01 0.000000000000000e+00
7.663439295428609e-01 5.205862399365941e-01 0.000000000000000e+00
7.657920691997837e-01 5.273288283564778e-01 0.000000000000000e+00
7.649891495460407e-01 5.342599204564497e-01 0.000000000000000e+00
7.642214457631502e-01 5.407814663295922e-01 0.000000000000000e+00
7.629671747795337e-01 5.479109018654804e-01 0.000000000000000e+00
7.621245015381365e-01 5.540841985758818e-01 0.000000000000000e+00
7.602983379996588e-01 5.611519181538387e-01 0.000000000000000e+00
7.590782236187614e-01 5.676479055946423e-01 0.000000000000000e+00
7.571383796595056e-01 5.743342825586706e-01 0.000000000000000e+00
7.552473164693253e-01 5.809383045944251e-01 0.000000000000000e+00
7.534743329758143e-01 5.872126051227017e-01 0.000000000000000e+00
7.507910989694049e-01 5.941214418183779e-01 0.000000000000000e+00
7.490988276209949e-01 5.997528556202048e-01 0.000000000000000e+00
7.462924707485172e-01 6.065337379407656e-01 0.000000000000000e+00
7.436928958391529e-01 6.126627084144314e-01 0.000000000000000e+00
7.409758707010643e-01 6.186929937492562e-01 0.000000000000000e+00
7.376536073453460e-01 6.253099752330497e-01 0.000000000000000e+00
7.350987685958439e-01 6.305509596014883e-01 0.000000000000000e+00
7.316460844975677e-01 6.368856203632265e-01 0.000000000000000e+00
7.282737412261129e-01 6.426767957700240e-01 0.000000000000000e+00
7.248438724605505e-01 6.482448650919338e-01 0.000000000000000e+00
7.208031086018315e-01 6.544242475197458e-01 0.000000000000000e+00
7.172866299282173e-01 6.596866585049046e-01 0.000000000000000e+00
7.132621493561935e-01 6.652111231814445e-01 0.000000000000000e+00
7.090214176039776e-01 6.707645969687029e-01 0.000000000000000e+00
7.049324312625558e-01 6.759092826602060e-01 0.000000000000000e+00
7.004676926047806e-01 6.811985359031518e-01 0.000000000000000e+00
6.959279884536365e-01 6.863031789674212e-01 0.000000000000000e+00
6.913725269352166e-01 6.911736793071458e-01 0.000000000000000e+00
6.864928426685760e-01 6.961624061083127e-01 0.000000000000000e+00
6.817110959302516e-01 7.007552399728582e-01 0.000000000000000e+00
6.767144014880356e-01 7.053475774445072e-01 0.000000000000000e+00
6.715942930196057e-01 7.098670638554897e-01 0.000000000000000e+00
6.664589958243216e-01 7.140717276339174e-01 0.000000000000000e+00
6.608648233041242e-01 7.184858957181008e-01 0.000000000000000e+00
6.556676801529164e-01 7.224029055010053e-01 0.000000000000000e+00
6.502289184171367e-01 7.261881530497586e-01 0.000000000000000e+00
6.441256355824146e-01 7.302859132922714e-01 0.000000000000000e+00
6.389279866618768e-01 7.335919980917295e-01 0.000000000000000e+00
6.328111203924016e-01 7.372398277302029e-01 0.000000000000000e+00
6.270282988053102e-01 7.404271472043077e-01 0.000000000000000e+00
6.213411426812837e-01 7.434357984957001e-01 0.000000000000000e+00
6.146035670197836e-01 7.469089688383193e-01 0.000000000000000e+00
6.091850460022787e-01 7.491639097574427e-01 0.000000000000000e+00
6.026767973919309e-01 7.522929978426930e-01 0.000000000000000e+00
5.964881393921474e-01 7.544726095264396e-01 0.000000000000000e+00
5.901806079900954e-01 7.569106200249022e-01 0.000000000000000e+00
5.835182998958323e-01 7.594058864649789e-01 0.000000000000000e+00
5.774272568277603e-01 7.610288211838904e-01 0.000000000000000e+00
5.703893731080548e-01 7.634077836913385e-01 0.000000000000000e+00
5.644805153030238e-01 7.645521644338976e-01 0.000000000000000e+00
5.574704677851120e-01 7.663277246468533e-01 0.000000000000000e+00
5.510623269405828e-01 7.675745711047464e-01 0.000000000000000e+00
5.443101626822816e-01 7.687737145301384e-01 0.000000000000000e+00
5.374556823444153e-01 7.698523920291763e-01 0.000000000000000e+00
5.308258301496668e-01 7.706366713365396e-01 0.000000000000000e+00
5.238633534346503e-01 7.713329906482996e-01 0.000000000000000e+00
5.172580158349219e-01 7.717801408004137e-01 0.000000000000000e+00
5.103203436423593e-01 7.721267149708745e-01 0.000000000000000e+00
5.036033540983628e-01 7.722506514789084e-01 0.000000000000000e+00
4.966907335502803e-01 7.721914956115893e-01 0.000000000000000e+00
4.899850285973986e-01 7.719716458882948e-01 0.000000000000000e+00
4.830486775942025e-01 7.715535347399572e-01 0.000000000000000e+00
4.765139589986187e-01 7.710304810653286e-01 0.000000000000000e+00
4.694503185945849e-01 7.702059587735364e-01 0.000000000000000e+00
4.630453132033621e-01 7.693565439858111e-01 0.000000000000000e+00
4.559785100646780e-01 7.681532645562354e-01 0.000000000000000e+00
4.495990583436502e-01 7.669896852080785e-01 0.000000000000000e+00
4.427949286689207e-01 7.654823871285100e-01 0.000000000000000e+00
4.360447563881666e-01 7.636774794956993e-01 0.000000000000000e+00
4.300064929577826e-01 7.624478978029056e-01 0.000000000000000e+00
4.230112308515426e-01 7.599762874935698e-01 0.000000000000000e+00
4.168952927392053e-01 7.582920530506195e-01 0.000000000000000e+00
4.103515095897856e-01 7.556284181699678e-01 0.000000000000000e+00
4.039803288243590e-01 7.533722672586444e-01 0.000000000000000e+00
3.979205481401810e-01 7.508317036355514e-01 0.000000000000000e+00
3.913955731319507e-01 7.476788707424578e-01 0.000000000000000e+00
3.858559315855595e-01 7.451728034098083e-01 0.000000000000000e+00
3.793195647531240e-01 7.418081420503827e-01 0.000000000000000e+00
3.736002275437667e-01 7.386498637497833e-01 0.000000000000000e+00
3.679764426241109e-01 7.353895337757308e-01 0.000000000000000e+00
3.618252659890998e-01 7.315680816296859e-01 0.000000000000000e+00
3.565841469198878e-01 7.282074083039934e-01 0.000000000000000e+00
3.507098268691952e-01 7.241136070965368e-01 0.000000000000000e+00
3.451807696122591e-01 7.200843488811551e-01 0.000000000000000e+00
3.402121740218123e-01 7.163301835012138e-01 0.000000000000000e+00
3.345866860518767e-01 7.117229737426363e-01 0.000000000000000e+00
3.293981520804640e-01 7.073426499387501e-01 0.000000000000000e+00
3.246747011073845e-01 7.030914470420955e-01 0.000000000000000e+00
3.195471644149103e-01 6.982146506483043e-01 0.000000000000000e+00
3.146051357702301e-01 6.933589646331827e-01 0.000000000000000e+00
3.101337736588317e-01 6.886579466467656e-01 0.000000000000000e+00
3.056459082708474e-01 6.836647106104583e-01 0.000000000000000e+00
3.009490965967961e-01 6.782570814594854e-01 0.000000000000000e+00
2.967784250134407e-01 6.732090470872515e-01 0.000000000000000e+00
2.927908006982788e-01 6.680253429761661e-01 0.000000000000000e+00
2.883815962959311e-01 6.621057220243165e-01 0.000000000000000e+00
2.847567782070184e-01 6.568758750972169e-01 0.000000000000000e+00
2.810225897507704e-01 6.513060395672963e-01 0.000000000000000e+00
2.772033803261980e-01 6.452788334263529e-01 0.000000000000000e+00
2.741495530089361e-01 6.399645978592640e-01 0.000000000000000e+00
2.705024218671924e-01 6.335683776714357e-01 0.000000000000000e+00
2.673697499666608e-01 6.277223876356868e-01 0.000000000000000e+00
2.644371618829429e-01 6.219340147905955e-01 0.000000000000000e+00
2.613368985153466e-01 6.151956366402744e-01 0.000000000000000e+00
2.591705080014940e-01 6.097915580076785e-01 0.000000000000000e+00
2.561445851262429e-01 6.031439626064335e-01 0.000000000000000e+00
2.539041607457039e-01 5.969413221808573e-01 0.000000000000000e+00
2.516647937830979e-01 5.904329142486979e-01 0.000000000000000e+00
2.491815759918393e-01 5.838693637479044e-01 0.000000000000000e+00
2.478322693793403e-01 5.776575428853865e-01 0.000000000000000e+00
2.454751708140961e-01 5.705863240043629e-01 0.000000000000000e+00
2.442628840838547e-01 5.644156633251225e-01 0.000000000000000e+00
2.426455249001005e-01 5.575573602995981e-01 0.000000000000000e+00
2.413773438530786e-01 5.508378337732384e-01 0.000000000000000e+00
2.402966305395571e-01 5.443413937812813e-01 0.000000000000000e+00
2.391666942485167e-01 5.371896676597168e-01 0.000000000000000e+00
2.384631461418791e-01 5.308476337467795e-01 0.000000000000000e+00
2.377260195823177e-01 5.236946770545311e-01 0.000000000000000e+00
2.372939326254779e-01 5.171799338191114e-01 0.000000000000000e+00
2.369356687216947e-01 5.102021694126351e-01 0.000000000000000e+00
2.367848324621409e-01 5.034553463871567e-01 0.000000000000000e+00
2.367848324621530e-01 4.965446536143722e-01 0.000000000000000e+00
2.369356687217095e-01 4.897978305888669e-01 0.000000000000000e+00
2.372939326254643e-01 4.828200661824000e-01 0.000000000000000e+00
2.377260195822938e-01 4.763053229470074e-01 0.000000000000000e+00
2.384631461418543e-01 4.691523662547328e-01 0.000000000000000e+00
2.391666942485404e-01 4.628103323417507e-01 0.000000000000000e+00
2.402966305395502e-01 4.556586062201977e-01 0.000000000000000e+00
2.413773438530656e-01 4.491621662282585e-01 0.000000000000000e+00
2.426455249000299e-01 4.424426397019377e-01 0.000000000000000e+00
2.442628840838561e-01 4.355843366763479e-01 0.000000000000000e+00
2.454751708140075e-01 4.294136759972057e-01 0.000000000000000e+00
2.478322693792465e-01 4.223424571161729e-01 0.000000000000000e+00
2.491815759918886e-01 4.161306362535255e-01 0.000000000000000e+00
2.516647937830520e-01 4.095670857528145e-01 0.000000000000000e+00
2.539041607456960e-01 4.030586778206058e-01 0.000000000000000e+00
2.561445851261103e-01 3.968560373952151e-01 0.000000000000000e+00
2.591705080014394e-01 3.902084419938023e-01 0.000000000000000e+00
2.613368985153544e-01 3.848043633611714e-01 0.000000000000000e+00
2.644371618828297e-01 3.780659852109795e-01 0.000000000000000e+00
2.673697499666747e-01 3.722776123656656e-01 0.000000000000000e+00
2.705024218670721e-01 3.664316223301622e-01 0.000000000000000e+00
2.741495530089004e-01 3.600354021422091e-01 0.000000000000000e+00
2.772033803261841e-01 3.547211665750337e-01 0.000000000000000e+00
2.810225897506424e-01 3.486939604342483e-01 0.000000000000000e+00
2.847567782070564e-01 3.431241249041437e-01 0.000000000000000e+00
2.883815962958365e-01 3.378942779771642e-01 0.000000000000000e+00
2.927908006981841e-01 3.319746570253331e-01 0.000000000000000e+00
2.967784250134506e-01 3.267909529140997e-01 0.000000000000000e+00
3.009490965965929e-01 3.217429185420722e-01 0.000000000000000e+00
3.056459082707235e-01 3.163352893910562e-01 0.000000000000000e+00
3.101337736588089e-01 3.113420533546080e-01 0.000000000000000e+00
3.146051357700616e-01 3.066410353683176e-01 0.000000000000000e+00
3.195471644147339e-01 3.017853493532301e-01 0.000000000000000e+00
3.246747011073264e-01 2.969085529593049e-01 0.000000000000000e+00
3.293981520803427e-01 2.926573500627132e-01 0.000000000000000e+00
3.345866860516720e-01 2.882770262588915e-01 0.000000000000000e+00
3.402121740216947e-01 2.836698165002539e-01 0.000000000000000e+00
3.451807696121589e-01 2.799156511202856e-01 0.000000000000000e+00
3.507098268690197e-01 2.758863929049428e-01 0.000000000000000e+00
3.565841469197048e-01 2.717925916974929e-01 0.000000000000000e+00
3.618252659889110e-01 2.684319183718435e-01 0.000000000000000e+00
3.679764426239569e-01 2.646104662257392e-01 0.000000000000000e+00
3.736002275436605e-01 2.613501362516151e-01 0.000000000000000e+00
3.793195647529423e-01 2.581918579510509e-01 0.000000000000000e+00
3.858559315854000e-01 2.548271965916822e-01 0.000000000000000e+00
3.913955731317721e-01 2.523211292590596e-01 0.000000000000000e+00
3.979205481399929e-01 2.491682963658921e-01 0.000000000000000e+00
4.039803288242176e-01 2.466277327427701e-01 0.000000000000000e+00
4.103515095896718e-01 2.443715818314744e-01 0.000000000000000e+00
4.168952927390337e-01 2.417079469508116e-01 0.000000000000000e+00
4.230112308514023e-01 2.400237125078706e-01 0.000000000000000e+00
4.300064929576443e-01 2.375521021985269e-01 0.000000000000000e+00
4.360447563880446e-01 2.363225205057121e-01 0.000000000000000e+00
4.427949286687971e-01 2.345176128729099e-01 0.000000000000000e+00
4.495990583435156e-01 2.330103147933398e-01 0.000000000000000e+00
4.559785100645525e-01 2.318467354451788e-01 0.000000000000000e+00
4.630453132032538e-01 2.306434560156093e-01 0.000000000000000e+00
4.694503185944429e-01 2.297940412278879e-01 0.000000000000000e+00
4.765139589985161e-01 2.289695189360786e-01 0.000000000000000e+00
4.830486775940727e-01 2.284464652614650e-01 0.000000000000000e+00
4.899850285972844e-01 2.280283541131237e-01 0.000000000000000e+00
4.966907335501677e-01 2.278085043898360e-01 0.000000000000000e+00
5.036033540982497e-01 2.277493485225111e-01 0.000000000000000e+00
5.103203436422604e-01 2.278732850305476e-01 0.000000000000000e+00
5.172580158348213e-01 2.282198592010019e-01 0.000000000000000e+00
5.238633534345696e-01 2.286670093531313e-01 0.000000000000000e+00
5.308258301495773e-01 2.293633286648842e-01 0.000000000000000e+00
5.374556823443493e-01 2.301476079722543e-01 0.000000000000000e+00
5.443101626822023e-01 2.312262854712812e-01 0.000000000000000e+00
5.510623269405028e-01 2.324254288966761e-01 0.000000000000000e+00
5.574704677850538e-01 2.336722753545818e-01 0.000000000000000e+00
5.644805153029625e-01 2.354478355675109e-01 0.000000000000000e+00
5.703893731080415e-01 2.365922163100983e-01 0.000000000000000e+00
5.774272568277075e-01 2.389711788175790e-01 0.000000000000000e+00
5.835182998958592e-01 2.405941135364959e-01 0.000000000000000e+00
5.901806079900646e-01 2.430893799765246e-01 0.000000000000000e+00
5.964881393921480e-01 2.455273904750093e-01 0.000000000000000e+00
6.026767973919835e-01 2.477070021587850e-01 0.000000000000000e+00
6.091850460022746e-01 2.508360902440731e-01 0.000000000000000e+00
6.146035670198259e-01 2.530910311631782e-01 0.000000000000000e+00
6.213411426813353e-01 2.565642015057646e-01 0.000000000000000e+00
6.270282988053716e-01 2.595728527971762e-01 0.000000000000000e+00
6.328111203924345e-01 2.627601722712949e-01 0.000000000000000e+00
6.389279866619354e-01 2.664080019097800e-01 0.000000000000000e+00
6.441256355824487e-01 2.697140867092158e-01 0.000000000000000e+00
6.502289184171824e-01 2.738118469517225e-01 0.000000000000000e+00
6.556676801529320e-01 2.775970945004544e-01 0.000000000000000e+00
6.608648233041111e-01 2.815141042833440e-01 0.000000000000000e+00
6.664589958244120e-01 2.859282723676064e-01 0.000000000000000e+00
6.715942930196871e-01 2.901329361460136e-01 0.000000000000000e+00
6.767144014880158e-01 2.946524225569299e-01 0.000000000000000e+00
6.817110959303021e-01 2.992447600286197e-01 0.000000000000000e+00
6.864928426686769e-01 3.038375938932314e-01 0.000000000000000e+00
6.913725269352520e-01 3.088263206943438e-01 0.000000000000000e+00
6.959279884536661e-01 3.136968210340493e-01 0.000000000000000e+00
7.004676926048434e-01 3.188014640983698e-01 0.000000000000000e+00
7.049324312625826e-01 3.240907173412660e-01 0.000000000000000e+00
7.090214176040053e-01 3.292354030327853e-01 0.000000000000000e+00
7.132621493563087e-01 3.347888768201445e-01 0.000000000000000e+00
7.172866299282530e-01 3.403133414965619e-01 0.000000000000000e+00
7.208031086018782e-01 3.455757524817752e-01 0.000000000000000e+00
7.248438724606402e-01 3.517551349096387e-01 0.000000000000000e+00
7.282737412261047e-01 3.573232042314105e-01 0.000000000000000e+00
7.316460844976512e-01 3.631143796383532e-01 0.000000000000000e+00
7.350987685958407e-01 3.694490403999684e-01 0.000000000000000e+00
7.376536073453915e-01 3.746900247684638e-01 0.000000000000000e+00
7.409758707011748e-01 3.813070062524137e-01 0.000000000000000e+00
7.436928958391715e-01 3.873372915870598e-01 0.000000000000000e+00
7.462924707485920e-01 3.934662620608106e-01 0.000000000000000e+00
7.490988276209591e-01 4.002471443812717e-01 0.000000000000000e+00
7.507910989694779e-01 4.058785581832005e-01 0.000000000000000e+00
7.534743329759322e-01 4.127873948789699e-01 0.000000000000000e+00
7.552473164693472e-01 4.190616954071655e-01 0.000000000000000e+00
7.571383796595608e-01 4.256657174429198e-01 0.000000000000000e+00
7.590782236187628e-01 4.323520944069267e-01 0.000000000000000e+00
7.602983379996964e-01 4.388480818477559e-01 0.000000000000000e+00
7.621245015381224e-01 4.459158014256775e-01 0.000000000000000e+00
7.629671747795531e-01 4.520890981361173e-01 0.000000000000000e+00
7.642214457632222e-01 4.592185336720673e-01 0.000000000000000e+00
7.649891495460712e-01 4.657400795451649e-01 0.000000000000000e+00
7.657920691997842e-01 4.726711716450624e-01 0.000000000000000e+00
7.663439295428519e-01 4.794137600649797e-01 0.000000000000000e+00
7.667703111853105e-01 4.862803150308693e-01 0.000000000000000e+00
7.670092289581588e-01 4.931533883361453e-01 0.000000000000000e+00

POINT_DATA   249
SCALARS fMag double
LOOKUP_TABLE default

1.699169e+01 
1.562158e+01 
1.875764e+01 
1.763905e+01 
3.139481e+01 
4.110583e+01 
7.786426e+01 
1.040978e+02 
1.329391e+02 
8.331904e+01 
7.444895e+01 
9.573020e+00 
3.502192e+01 
1.109595e+02 
1.616754e+02 
1.600772e+02 
6.839230e+01 
1.534051e+01 
8.429205e+01 
1.575525e+02 
1.414990e+02 
5.494055e+01 
2.303826e+01 
8.642285e+01 
1.056263e+02 
5.715788e+01 
2.181869e+01 
4.360075e+01 
4.026026e+01 
1.992729e+01 
2.346585e+01 
3.451315e+01 
4.078599e+01 
2.149437e+01 
1.433230e+01 
3.151990e+01 
5.044496e+01 
6.362143e+01 
2.751930e+01 
7.343515e+01 
1.202871e+02 
9.806961e+01 
5.688927e+01 
2.026993e+01 
1.148545e+02 
1.795558e+02 
1.397041e+02 
1.001823e+02 
2.844181e+01 
3.593744e+01 
1.042756e+02 
1.211663e+02 
1.673001e+02 
1.269264e+02 
8.011366e+01 
3.473196e+01 
1.580528e+01 
3.703126e+01 
3.440566e+01 
4.354660e+01 
3.472197e+01 
3.134812e+01 
2.679462e+01 
2.619841e+01 
3.041441e+01 
4.151123e+01 
6.088021e+01 
6.591012e+01 
7.504573e+01 
6.884945e+01 
5.463540e+01 
3.024543e+01 
9.153055e+01 
1.567937e+02 
1.180319e+02 
1.068767e+02 
4.425473e+01 
4.217430e+01 
7.689301e+01 
1.178646e+02 
1.315533e+02 
8.426963e+01 
1.398074e+01 
7.700548e+01 
1.020079e+02 
9.687168e+01 
3.512506e+01 
6.242840e+01 
1.076619e+02 
4.923623e+01 
4.826365e+01 
7.447294e+01 
1.867386e+01 
4.953939e+01 
2.927037e+01 
4.640417e+01 
6.372591e+01 
2.278396e+01 
8.480814e+01 
1.044531e+02 
3.571562e+01 
4.652195e+01 
1.046005e+02 
1.233941e+02 
7.532686e+01 
2.082035e+01 
9.646930e+01 
1.628645e+02 
1.511657e+02 
9.027683e+01 
3.057617e+01 
2.500159e+01 
1.187225e+02 
1.324497e+02 
1.456588e+02 
7.980877e+01 
3.757407e+01 
2.913928e+01 
6.571340e+01 
9.151045e+01 
8.116185e+01 
7.073655e+01 
4.688693e+01 
3.104192e+01 
2.227217e+01 
2.227217e+01 
3.104192e+01 
4.688693e+01 
7.073655e+01 
8.116185e+01 
9.151045e+01 
6.571340e+01 
2.913928e+01 
3.757407e+01 
7.980877e+01 
1.456588e+02 
1.324497e+02 
1.187225e+02 
2.500159e+01 
3.057617e+01 
9.027683e+01 
1.511657e+02 
1.628645e+02 
9.646930e+01 
2.082035e+01 
7.532686e+01 
1.233941e+02 
1.046005e+02 
4.652195e+01 
3.571562e+01 
1.044531e+02 
8.480814e+01 
2.278396e+01 
6.372591e+01 
4.640417e+01 
2.927037e+01 
4.953939e+01 
1.867386e+01 
7.447294e+01 
4.826365e+01 
4.923623e+01 
1.076619e+02 
6.242840e+01 
3.512506e+01 
9.687168e+01 
1.020079e+02 
7.700548e+01 
1.398074e+01 
8.426963e+01 
1.315533e+02 
1.178646e+02 
7.689301e+01 
4.217430e+01 
4.425473e+01 
1.068767e+02 
1.180319e+02 
1.567937e+02 
9.153055e+01 
3.024543e+01 
5.463540e+01 
6.884945e+01 
7.504573e+01 
6.591012e+01 
6.088021e+01 
4.151123e+01 
3.041441e+01 
2.619841e+01 
2.679462e+01 
3.134812e+01 
3.472197e+01 
4.354660e+01 
3.440566e+01 
3.703126e+01 
1.580528e+01 
3.473196e+01 
8.011366e+01 
1.269264e+02 
1.673001e+02 
1.211663e+02 
1.042756e+02 
3.593744e+01 
2.844181e+01 
1.001823e+02 
1.397041e+02 
1.795558e+02 
1.148545e+02 
2.026993e+01 
5.688927e+01 
9.806961e+01 
1.202871e+02 
7.343515e+01 
2.751930e+01 
6.362143e+01 
5.044496e+01 
3.151990e+01 
1.433230e+01 
2.149437e+01 
4.078599e+01 
3.451315e+01 
2.346585e+01 
1.992729e+01 
4.026026e+01 
4.360075e+01 
2.181869e+01 
5.715788e+01 
1.056263e+02 
8.642285e+01 
2.303826e+01 
5.494055e+01 
1.414990e+02 
1.575525e+02 
8.429205e+01 
1.534051e+01 
6.839230e+01 
1.600772e+02 
1.616754e+02 
1.109595e+02 
3.502192e+01 
9.573020e+00 
7.444895e+01 
8.331904e+01 
1.329391e+02 
1.040978e+02 
7.786426e+01 
4.110583e+01 
3.139481e+01 
1.763905e+01 
1.875764e+01 
1.562158e+01 
