# vtk DataFile Version 2.0
fMag
ASCII
DATASET UNSTRUCTURED_GRID

FIELD FieldData 1
TIME 1 1 double
1.75000000
POINTS 249 float
7.681611646387774e-01 5.000000000003511e-01 0.000000000000000e+00
7.680732404954697e-01 5.068384912571232e-01 0.000000000000000e+00
7.678285638673483e-01 5.136979458443527e-01 0.000000000000000e+00
7.673936247131585e-01 5.205479248859439e-01 0.000000000000000e+00
7.668346392620669e-01 5.272792658841426e-01 0.000000000000000e+00
7.660237414078502e-01 5.342000770559169e-01 0.000000000000000e+00
7.652397931484333e-01 5.407139875027911e-01 0.000000000000000e+00
7.639593337794933e-01 5.478252877855736e-01 0.000000000000000e+00
7.630970525000392e-01 5.540010390455642e-01 0.000000000000000e+00
7.612510003332167e-01 5.610278791206244e-01 0.000000000000000e+00
7.600122213118179e-01 5.675339744329445e-01 0.000000000000000e+00
7.580402824498578e-01 5.741814916283202e-01 0.000000000000000e+00
7.560968136950020e-01 5.807647743628869e-01 0.000000000000000e+00
7.543089104303065e-01 5.870202238084227e-01 0.000000000000000e+00
7.516117938143828e-01 5.938915545949431e-01 0.000000000000000e+00
7.498792719653296e-01 5.995221364487597e-01 0.000000000000000e+00
7.470077684923996e-01 6.062635760810361e-01 0.000000000000000e+00
7.443705066301276e-01 6.123718147603582e-01 0.000000000000000e+00
7.416292281385827e-01 6.183625092992984e-01 0.000000000000000e+00
7.382660400283830e-01 6.249461798950453e-01 0.000000000000000e+00
7.356829060684263e-01 6.301422307382565e-01 0.000000000000000e+00
7.321724780290174e-01 6.364347316191539e-01 0.000000000000000e+00
7.287423293293448e-01 6.422129963241610e-01 0.000000000000000e+00
7.252863701633248e-01 6.477241729131764e-01 0.000000000000000e+00
7.212103598621423e-01 6.538482366213877e-01 0.000000000000000e+00
7.176747854052991e-01 6.590461194454958e-01 0.000000000000000e+00
7.135896252782384e-01 6.645440164411759e-01 0.000000000000000e+00
7.092820473195562e-01 6.700858369667250e-01 0.000000000000000e+00
7.051709515281140e-01 6.751644644082363e-01 0.000000000000000e+00
7.006816169253863e-01 6.803783809953227e-01 0.000000000000000e+00
6.960786151363395e-01 6.854677919450762e-01 0.000000000000000e+00
6.914954825078564e-01 6.902875886769698e-01 0.000000000000000e+00
6.866120415646164e-01 6.951898249745518e-01 0.000000000000000e+00
6.817796676841252e-01 6.997555027990842e-01 0.000000000000000e+00
6.767287409347402e-01 7.043126216147119e-01 0.000000000000000e+00
6.715969408604600e-01 7.087696133017777e-01 0.000000000000000e+00
6.664210632229062e-01 7.129396317926738e-01 0.000000000000000e+00
6.607891539307601e-01 7.173083610501088e-01 0.000000000000000e+00
6.556054502055841e-01 7.211443134413743e-01 0.000000000000000e+00
6.501150512214177e-01 7.249041144299511e-01 0.000000000000000e+00
6.439787181590204e-01 7.289644877203530e-01 0.000000000000000e+00
6.387616176658946e-01 7.322454063507198e-01 0.000000000000000e+00
6.326385666705580e-01 7.358339975330327e-01 0.000000000000000e+00
6.268770659757948e-01 7.389412603249402e-01 0.000000000000000e+00
6.211658671162056e-01 7.419204525281927e-01 0.000000000000000e+00
6.144062706884761e-01 7.453674145142704e-01 0.000000000000000e+00
6.089439032425104e-01 7.476179109447423e-01 0.000000000000000e+00
6.024426805051171e-01 7.507026623258847e-01 0.000000000000000e+00
5.962407124422032e-01 7.528346813624454e-01 0.000000000000000e+00
5.899324602850611e-01 7.552586111136238e-01 0.000000000000000e+00
5.832826588119916e-01 7.577211051851058e-01 0.000000000000000e+00
5.771494211795405e-01 7.593184127635193e-01 0.000000000000000e+00
5.701216269695735e-01 7.616784318648210e-01 0.000000000000000e+00
5.641923081826586e-01 7.628082016850285e-01 0.000000000000000e+00
5.571871915228749e-01 7.645747784533061e-01 0.000000000000000e+00
5.507815295946923e-01 7.657984911214792e-01 0.000000000000000e+00
5.440408554001089e-01 7.669788524811972e-01 0.000000000000000e+00
5.371912634584063e-01 7.680446043812931e-01 0.000000000000000e+00
5.305650703714059e-01 7.688266044533546e-01 0.000000000000000e+00
5.236020824508477e-01 7.695215128245039e-01 0.000000000000000e+00
5.170011855382602e-01 7.699646413409628e-01 0.000000000000000e+00
5.100667768590703e-01 7.703052554136153e-01 0.000000000000000e+00
5.033548287363874e-01 7.704333945689825e-01 0.000000000000000e+00
4.964448732570915e-01 7.703866989440014e-01 0.000000000000000e+00
4.897431199465322e-01 7.701770730736314e-01 0.000000000000000e+00
4.828059387991734e-01 7.697662042986876e-01 0.000000000000000e+00
4.762802049645085e-01 7.692541634265211e-01 0.000000000000000e+00
4.692188226996770e-01 7.684490638884950e-01 0.000000000000000e+00
4.628252770394464e-01 7.676239575407239e-01 0.000000000000000e+00
4.557546588655466e-01 7.664440142429123e-01 0.000000000000000e+00
4.493754800724890e-01 7.652947112423668e-01 0.000000000000000e+00
4.425763956290118e-01 7.638159408190534e-01 0.000000000000000e+00
4.358215057392903e-01 7.620352046487072e-01 0.000000000000000e+00
4.297998081626818e-01 7.608552108040185e-01 0.000000000000000e+00
4.227899121072133e-01 7.584082195318769e-01 0.000000000000000e+00
4.166719811742973e-01 7.567669981591437e-01 0.000000000000000e+00
4.101164480193514e-01 7.541412615245322e-01 0.000000000000000e+00
4.037274602718082e-01 7.518998598101286e-01 0.000000000000000e+00
3.976850424175822e-01 7.494222140892139e-01 0.000000000000000e+00
3.911351567824516e-01 7.463050579323207e-01 0.000000000000000e+00
3.855860350176830e-01 7.438404672156439e-01 0.000000000000000e+00
3.790249999561153e-01 7.405079489446538e-01 0.000000000000000e+00
3.732771441277844e-01 7.373776611308794e-01 0.000000000000000e+00
3.676667864300382e-01 7.341940691256195e-01 0.000000000000000e+00
3.614915428093652e-01 7.304274375280755e-01 0.000000000000000e+00
3.562264560542588e-01 7.270953222497420e-01 0.000000000000000e+00
3.503157411912178e-01 7.230356232119346e-01 0.000000000000000e+00
3.447425869322114e-01 7.190381762820838e-01 0.000000000000000e+00
3.397989930372986e-01 7.153747711127996e-01 0.000000000000000e+00
3.341407840765975e-01 7.108082857881524e-01 0.000000000000000e+00
3.289024213283262e-01 7.064550809077650e-01 0.000000000000000e+00
3.241855126025119e-01 7.022839406328349e-01 0.000000000000000e+00
3.190199496828225e-01 6.974494472706488e-01 0.000000000000000e+00
3.139981205112813e-01 6.926002107687502e-01 0.000000000000000e+00
3.095062549844751e-01 6.879564295393293e-01 0.000000000000000e+00
3.050114896452463e-01 6.830347990426964e-01 0.000000000000000e+00
3.002414759553042e-01 6.776413544499642e-01 0.000000000000000e+00
2.960460612971733e-01 6.726465184015524e-01 0.000000000000000e+00
2.920492377437033e-01 6.675276171546873e-01 0.000000000000000e+00
2.875752836924027e-01 6.616276400287591e-01 0.000000000000000e+00
2.838975412429169e-01 6.564186958821115e-01 0.000000000000000e+00
2.801174154492447e-01 6.508866589483896e-01 0.000000000000000e+00
2.762697282397608e-01 6.449063248805740e-01 0.000000000000000e+00
2.732018229056634e-01 6.396454358779501e-01 0.000000000000000e+00
2.694857257605505e-01 6.332582405149464e-01 0.000000000000000e+00
2.662939983017303e-01 6.274340957912472e-01 0.000000000000000e+00
2.633224180076911e-01 6.216772990195015e-01 0.000000000000000e+00
2.602004297097122e-01 6.149693810628190e-01 0.000000000000000e+00
2.580054765689314e-01 6.095889635597197e-01 0.000000000000000e+00
2.549218831734962e-01 6.029702574918492e-01 0.000000000000000e+00
2.526368084365229e-01 5.967838091357367e-01 0.000000000000000e+00
2.503575354653408e-01 5.902807287061894e-01 0.000000000000000e+00
2.478456274658786e-01 5.837693284248391e-01 0.000000000000000e+00
2.464583013894831e-01 5.775252542704735e-01 0.000000000000000e+00
2.440701171553800e-01 5.704979905406797e-01 0.000000000000000e+00
2.428255657800340e-01 5.643260430414953e-01 0.000000000000000e+00
2.411741713180218e-01 5.574810164728943e-01 0.000000000000000e+00
2.398829672934338e-01 5.507733215058936e-01 0.000000000000000e+00
2.387899373112103e-01 5.442894307133825e-01 0.000000000000000e+00
2.376439451031849e-01 5.371536924730466e-01 0.000000000000000e+00
2.369219977687537e-01 5.308184892929491e-01 0.000000000000000e+00
2.361691158181308e-01 5.236732563923455e-01 0.000000000000000e+00
2.357276980722351e-01 5.171637690876786e-01 0.000000000000000e+00
2.353666837468944e-01 5.101923840093742e-01 0.000000000000000e+00
2.352146284466242e-01 5.034519357739056e-01 0.000000000000000e+00
2.352146284466348e-01 4.965480642275354e-01 0.000000000000000e+00
2.353666837469067e-01 4.898076159920386e-01 0.000000000000000e+00
2.357276980722196e-01 4.828362309137442e-01 0.000000000000000e+00
2.361691158181031e-01 4.763267436091039e-01 0.000000000000000e+00
2.369219977687229e-01 4.691815107084756e-01 0.000000000000000e+00
2.376439451032010e-01 4.628463075283344e-01 0.000000000000000e+00
2.387899373111958e-01 4.557105692880078e-01 0.000000000000000e+00
2.398829672934103e-01 4.492266784955151e-01 0.000000000000000e+00
2.411741713179415e-01 4.425189835285516e-01 0.000000000000000e+00
2.428255657800331e-01 4.356739569598763e-01 0.000000000000000e+00
2.440701171552873e-01 4.295020094607934e-01 0.000000000000000e+00
2.464583013893742e-01 4.224747457309930e-01 0.000000000000000e+00
2.478456274659094e-01 4.162306715765184e-01 0.000000000000000e+00
2.503575354652817e-01 4.097192712952388e-01 0.000000000000000e+00
2.526368084364976e-01 4.032161908656438e-01 0.000000000000000e+00
2.549218831733412e-01 3.970297425097193e-01 0.000000000000000e+00
2.580054765688630e-01 3.904110364416705e-01 0.000000000000000e+00
2.602004297097227e-01 3.850306189385301e-01 0.000000000000000e+00
2.633224180075803e-01 3.783227009819790e-01 0.000000000000000e+00
2.662939983017383e-01 3.725659042100153e-01 0.000000000000000e+00
2.694857257604171e-01 3.667417594865751e-01 0.000000000000000e+00
2.732018229056276e-01 3.603545641234399e-01 0.000000000000000e+00
2.762697282397595e-01 3.550936751207200e-01 0.000000000000000e+00
2.801174154491219e-01 3.491133410530760e-01 0.000000000000000e+00
2.838975412429585e-01 3.435813041191766e-01 0.000000000000000e+00
2.875752836923176e-01 3.383723599726441e-01 0.000000000000000e+00
2.920492377436287e-01 3.324723828467310e-01 0.000000000000000e+00
2.960460612972136e-01 3.273534815997161e-01 0.000000000000000e+00
3.002414759551248e-01 3.223586455515132e-01 0.000000000000000e+00
3.050114896451532e-01 3.169652009587368e-01 0.000000000000000e+00
3.095062549844959e-01 3.120435704619554e-01 0.000000000000000e+00
3.139981205111446e-01 3.073997892326764e-01 0.000000000000000e+00
3.190199496826778e-01 3.025505527308184e-01 0.000000000000000e+00
3.241855126025052e-01 2.977160593684841e-01 0.000000000000000e+00
3.289024213282480e-01 2.935449190936292e-01 0.000000000000000e+00
3.341407840764361e-01 2.891917142133127e-01 0.000000000000000e+00
3.397989930372292e-01 2.846252288886089e-01 0.000000000000000e+00
3.447425869321539e-01 2.809618237193041e-01 0.000000000000000e+00
3.503157411910712e-01 2.769643767895038e-01 0.000000000000000e+00
3.562264560541114e-01 2.729046777517056e-01 0.000000000000000e+00
3.614915428092167e-01 2.695725624734205e-01 0.000000000000000e+00
3.676667864299509e-01 2.658059308758058e-01 0.000000000000000e+00
3.732771441277428e-01 2.626223388704765e-01 0.000000000000000e+00
3.790249999560003e-01 2.594920510567379e-01 0.000000000000000e+00
3.855860350175834e-01 2.561595327858199e-01 0.000000000000000e+00
3.911351567823190e-01 2.536949420691861e-01 0.000000000000000e+00
3.976850424174581e-01 2.505777859122031e-01 0.000000000000000e+00
4.037274602717290e-01 2.481001401912519e-01 0.000000000000000e+00
4.101164480192914e-01 2.458587384768922e-01 0.000000000000000e+00
4.166719811741843e-01 2.432330018422712e-01 0.000000000000000e+00
4.227899121071225e-01 2.415917804695407e-01 0.000000000000000e+00
4.297998081625990e-01 2.391447891973885e-01 0.000000000000000e+00
4.358215057392216e-01 2.379647953526896e-01 0.000000000000000e+00
4.425763956289419e-01 2.361840591823619e-01 0.000000000000000e+00
4.493754800724062e-01 2.347052887590319e-01 0.000000000000000e+00
4.557546588654739e-01 2.335559857584831e-01 0.000000000000000e+00
4.628252770393885e-01 2.323760424606810e-01 0.000000000000000e+00
4.692188226995787e-01 2.315509361129167e-01 0.000000000000000e+00
4.762802049644481e-01 2.307458365748718e-01 0.000000000000000e+00
4.828059387990811e-01 2.302337957027205e-01 0.000000000000000e+00
4.897431199464553e-01 2.298229269277693e-01 0.000000000000000e+00
4.964448732570142e-01 2.296133010574060e-01 0.000000000000000e+00
5.033548287363109e-01 2.295666054324214e-01 0.000000000000000e+00
5.100667768590043e-01 2.296947445877876e-01 0.000000000000000e+00
5.170011855381874e-01 2.300353586604330e-01 0.000000000000000e+00
5.236020824507930e-01 2.304784871769053e-01 0.000000000000000e+00
5.305650703713417e-01 2.311733955480468e-01 0.000000000000000e+00
5.371912634583622e-01 2.319553956201136e-01 0.000000000000000e+00
5.440408554000509e-01 2.330211475201946e-01 0.000000000000000e+00
5.507815295946267e-01 2.342015088799135e-01 0.000000000000000e+00
5.571871915228270e-01 2.354252215481081e-01 0.000000000000000e+00
5.641923081826110e-01 2.371917983163566e-01 0.000000000000000e+00
5.701216269695667e-01 2.383215681365823e-01 0.000000000000000e+00
5.771494211795004e-01 2.406815872379151e-01 0.000000000000000e+00
5.832826588120195e-01 2.422788948163382e-01 0.000000000000000e+00
5.899324602850329e-01 2.447413888877706e-01 0.000000000000000e+00
5.962407124422042e-01 2.471653186389628e-01 0.000000000000000e+00
6.024426805051653e-01 2.492973376755493e-01 0.000000000000000e+00
6.089439032424994e-01 2.523820890567369e-01 0.000000000000000e+00
6.144062706885363e-01 2.546325854871998e-01 0.000000000000000e+00
6.211658671162719e-01 2.580795474732401e-01 0.000000000000000e+00
6.268770659758642e-01 2.610587396765093e-01 0.000000000000000e+00
6.326385666705969e-01 2.641660024684224e-01 0.000000000000000e+00
6.387616176659570e-01 2.677545936507454e-01 0.000000000000000e+00
6.439787181590786e-01 2.710355122811005e-01 0.000000000000000e+00
6.501150512214895e-01 2.750958855715004e-01 0.000000000000000e+00
6.556054502056181e-01 2.788556865600492e-01 0.000000000000000e+00
6.607891539307534e-01 2.826916389512881e-01 0.000000000000000e+00
6.664210632230090e-01 2.870603682088103e-01 0.000000000000000e+00
6.715969408605456e-01 2.912303866996865e-01 0.000000000000000e+00
6.767287409347196e-01 2.956873783866759e-01 0.000000000000000e+00
6.817796676841604e-01 3.002444972023340e-01 0.000000000000000e+00
6.866120415647130e-01 3.048101750269373e-01 0.000000000000000e+00
6.914954825078935e-01 3.097124113244735e-01 0.000000000000000e+00
6.960786151363567e-01 3.145322080563357e-01 0.000000000000000e+00
7.006816169254468e-01 3.196216190061471e-01 0.000000000000000e+00
7.051709515281314e-01 3.248355355931771e-01 0.000000000000000e+00
7.092820473195700e-01 3.299141630346993e-01 0.000000000000000e+00
7.135896252783428e-01 3.354559835603551e-01 0.000000000000000e+00
7.176747854053118e-01 3.409538805558995e-01 0.000000000000000e+00
7.212103598621654e-01 3.461517633800626e-01 0.000000000000000e+00
7.252863701633904e-01 3.522758270883219e-01 0.000000000000000e+00
7.287423293293041e-01 3.577870036771907e-01 0.000000000000000e+00
7.321724780290686e-01 3.635652683823398e-01 0.000000000000000e+00
7.356829060683937e-01 3.698577692631173e-01 0.000000000000000e+00
7.382660400284098e-01 3.750538201063907e-01 0.000000000000000e+00
7.416292281386720e-01 3.816374907023029e-01 0.000000000000000e+00
7.443705066301168e-01 3.876281852410473e-01 0.000000000000000e+00
7.470077684924473e-01 3.937364239204517e-01 0.000000000000000e+00
7.498792719652699e-01 4.004778635526302e-01 0.000000000000000e+00
7.516117938144317e-01 4.061084454065452e-01 0.000000000000000e+00
7.543089104303961e-01 4.129797761931572e-01 0.000000000000000e+00
7.560968136949991e-01 4.192352256386117e-01 0.000000000000000e+00
7.580402824498966e-01 4.258185083731790e-01 0.000000000000000e+00
7.600122213117999e-01 4.324660255685374e-01 0.000000000000000e+00
7.612510003332328e-01 4.389721208808722e-01 0.000000000000000e+00
7.630970525000058e-01 4.459989609558965e-01 0.000000000000000e+00
7.639593337794949e-01 4.521747122159216e-01 0.000000000000000e+00
7.652397931484902e-01 4.592860124987653e-01 0.000000000000000e+00
7.660237414078671e-01 4.657999229455957e-01 0.000000000000000e+00
7.668346392620601e-01 4.727207341172985e-01 0.000000000000000e+00
7.673936247131425e-01 4.794520751155287e-01 0.000000000000000e+00
7.678285638673614e-01 4.863020541573324e-01 0.000000000000000e+00
7.680732404954987e-01 4.931615087447824e-01 0.000000000000000e+00

POINT_DATA   249
SCALARS fMag double
LOOKUP_TABLE default

1.758441e+01 
1.581462e+01 
1.904960e+01 
1.716479e+01 
3.152120e+01 
4.077953e+01 
7.767838e+01 
1.024763e+02 
1.300846e+02 
7.999864e+01 
7.466686e+01 
7.027457e+00 
3.628664e+01 
1.098179e+02 
1.571614e+02 
1.591010e+02 
6.751495e+01 
1.569563e+01 
8.592866e+01 
1.591837e+02 
1.435995e+02 
5.204851e+01 
2.683137e+01 
8.718294e+01 
1.072315e+02 
6.261163e+01 
2.267043e+01 
5.031103e+01 
4.017086e+01 
1.685970e+01 
2.703217e+01 
3.114287e+01 
3.404465e+01 
2.187201e+01 
1.287099e+01 
2.903525e+01 
4.974406e+01 
6.961947e+01 
3.159852e+01 
7.124505e+01 
1.205221e+02 
9.567842e+01 
6.019693e+01 
1.376285e+01 
1.148020e+02 
1.764768e+02 
1.332398e+02 
9.986213e+01 
3.106445e+01 
3.437279e+01 
1.007685e+02 
1.175587e+02 
1.649302e+02 
1.250155e+02 
8.087312e+01 
3.378093e+01 
1.581082e+01 
3.611453e+01 
3.478707e+01 
4.410225e+01 
3.489103e+01 
3.076296e+01 
2.641502e+01 
2.643750e+01 
3.097145e+01 
4.236984e+01 
6.105754e+01 
6.681308e+01 
7.644112e+01 
6.921170e+01 
5.337382e+01 
3.051885e+01 
9.478543e+01 
1.606780e+02 
1.202011e+02 
1.077386e+02 
4.188772e+01 
4.194246e+01 
8.163635e+01 
1.194697e+02 
1.333129e+02 
8.379516e+01 
1.474601e+01 
8.117733e+01 
1.008546e+02 
9.727351e+01 
3.432530e+01 
7.126533e+01 
1.151581e+02 
4.709195e+01 
5.522913e+01 
8.007924e+01 
1.444982e+01 
5.683544e+01 
2.778575e+01 
5.461988e+01 
6.992832e+01 
2.341575e+01 
9.152446e+01 
1.054258e+02 
3.389354e+01 
4.533582e+01 
1.060961e+02 
1.299475e+02 
7.693954e+01 
2.302079e+01 
9.629384e+01 
1.619158e+02 
1.524145e+02 
9.080028e+01 
3.166817e+01 
2.327952e+01 
1.155937e+02 
1.270889e+02 
1.428108e+02 
7.864890e+01 
3.854779e+01 
2.989297e+01 
6.539965e+01 
9.059132e+01 
8.106197e+01 
7.079413e+01 
4.688434e+01 
3.114406e+01 
2.232212e+01 
2.232212e+01 
3.114406e+01 
4.688434e+01 
7.079413e+01 
8.106197e+01 
9.059132e+01 
6.539965e+01 
2.989297e+01 
3.854779e+01 
7.864890e+01 
1.428108e+02 
1.270889e+02 
1.155937e+02 
2.327952e+01 
3.166817e+01 
9.080028e+01 
1.524145e+02 
1.619158e+02 
9.629384e+01 
2.302079e+01 
7.693954e+01 
1.299475e+02 
1.060961e+02 
4.533582e+01 
3.389354e+01 
1.054258e+02 
9.152446e+01 
2.341575e+01 
6.992832e+01 
5.461988e+01 
2.778575e+01 
5.683544e+01 
1.444982e+01 
8.007924e+01 
5.522913e+01 
4.709195e+01 
1.151581e+02 
7.126533e+01 
3.432530e+01 
9.727351e+01 
1.008546e+02 
8.117733e+01 
1.474601e+01 
8.379516e+01 
1.333129e+02 
1.194697e+02 
8.163635e+01 
4.194246e+01 
4.188772e+01 
1.077386e+02 
1.202011e+02 
1.606780e+02 
9.478543e+01 
3.051885e+01 
5.337382e+01 
6.921170e+01 
7.644112e+01 
6.681308e+01 
6.105754e+01 
4.236984e+01 
3.097145e+01 
2.643750e+01 
2.641502e+01 
3.076296e+01 
3.489103e+01 
4.410225e+01 
3.478707e+01 
3.611453e+01 
1.581082e+01 
3.378093e+01 
8.087312e+01 
1.250155e+02 
1.649302e+02 
1.175587e+02 
1.007685e+02 
3.437279e+01 
3.106445e+01 
9.986213e+01 
1.332398e+02 
1.764768e+02 
1.148020e+02 
1.376285e+01 
6.019693e+01 
9.567842e+01 
1.205221e+02 
7.124505e+01 
3.159852e+01 
6.961947e+01 
4.974406e+01 
2.903525e+01 
1.287099e+01 
2.187201e+01 
3.404465e+01 
3.114287e+01 
2.703217e+01 
1.685970e+01 
4.017086e+01 
5.031103e+01 
2.267043e+01 
6.261163e+01 
1.072315e+02 
8.718294e+01 
2.683137e+01 
5.204851e+01 
1.435995e+02 
1.591837e+02 
8.592866e+01 
1.569563e+01 
6.751495e+01 
1.591010e+02 
1.571614e+02 
1.098179e+02 
3.628664e+01 
7.027457e+00 
7.466686e+01 
7.999864e+01 
1.300846e+02 
1.024763e+02 
7.767838e+01 
4.077953e+01 
3.152120e+01 
1.716479e+01 
1.904960e+01 
1.581462e+01 
