# vtk DataFile Version 2.0
fMag
ASCII
DATASET UNSTRUCTURED_GRID

FIELD FieldData 1
TIME 1 1 double
1.85000000
POINTS 249 float
7.714009920189239e-01 5.000000000000345e-01 0.000000000000000e+00
7.713035469872968e-01 5.067860336893718e-01 0.000000000000000e+00
7.710398952195838e-01 5.135895123551070e-01 0.000000000000000e+00
7.705785472003209e-01 5.203799357216268e-01 0.000000000000000e+00
7.699992776144577e-01 5.270508412867254e-01 0.000000000000000e+00
7.691761668488325e-01 5.339063963946660e-01 0.000000000000000e+00
7.683582158460417e-01 5.403635257890659e-01 0.000000000000000e+00
7.669940528428252e-01 5.474401540892574e-01 0.000000000000000e+00
7.660700971334993e-01 5.535968303161328e-01 0.000000000000000e+00
7.641657993023717e-01 5.605083144929015e-01 0.000000000000000e+00
7.628956444173245e-01 5.670119582767906e-01 0.000000000000000e+00
7.608358283068100e-01 5.735252400109846e-01 0.000000000000000e+00
7.587922103677268e-01 5.800396493830660e-01 0.000000000000000e+00
7.569192564099998e-01 5.862593325960772e-01 0.000000000000000e+00
7.541106867879132e-01 5.930439570510437e-01 0.000000000000000e+00
7.522449384946533e-01 5.987295315885564e-01 0.000000000000000e+00
7.493355754296139e-01 6.052307492581862e-01 0.000000000000000e+00
7.465850362246613e-01 6.112895062008895e-01 0.000000000000000e+00
7.437338872848913e-01 6.171798348676715e-01 0.000000000000000e+00
7.401852803032535e-01 6.237370404134793e-01 0.000000000000000e+00
7.374891205881581e-01 6.288588707739654e-01 0.000000000000000e+00
7.339460959179575e-01 6.349419268701834e-01 0.000000000000000e+00
7.303664294914531e-01 6.406564718130784e-01 0.000000000000000e+00
7.268011475006031e-01 6.460309419582817e-01 0.000000000000000e+00
7.225623024054646e-01 6.520698072172273e-01 0.000000000000000e+00
7.189807042115137e-01 6.571072672766136e-01 0.000000000000000e+00
7.148275952873628e-01 6.624020156010735e-01 0.000000000000000e+00
7.103051859872138e-01 6.679149742892110e-01 0.000000000000000e+00
7.060941085229108e-01 6.728602097650570e-01 0.000000000000000e+00
7.015773515458272e-01 6.778195366830665e-01 0.000000000000000e+00
6.967763983159109e-01 6.828665874232351e-01 0.000000000000000e+00
6.920984654616240e-01 6.875466557160157e-01 0.000000000000000e+00
6.872125349331035e-01 6.921798268889544e-01 0.000000000000000e+00
6.822249495251771e-01 6.966615614999675e-01 0.000000000000000e+00
6.769506911516452e-01 7.011847965414455e-01 0.000000000000000e+00
6.718351945416884e-01 7.053917658187534e-01 0.000000000000000e+00
6.665749425310772e-01 7.094017240604409e-01 0.000000000000000e+00
6.607620129071058e-01 7.136918833246725e-01 0.000000000000000e+00
6.555634767243104e-01 7.173335071645790e-01 0.000000000000000e+00
6.499983776814904e-01 7.209630462672323e-01 0.000000000000000e+00
6.438486723265102e-01 7.248094142601171e-01 0.000000000000000e+00
6.385797550088831e-01 7.279469360368156e-01 0.000000000000000e+00
6.322463206575929e-01 7.314845871940346e-01 0.000000000000000e+00
6.264891067694920e-01 7.344364239618464e-01 0.000000000000000e+00
6.207221455730889e-01 7.373146512090167e-01 0.000000000000000e+00
6.139690516195510e-01 7.405474481995378e-01 0.000000000000000e+00
6.084075764147221e-01 7.426887663111972e-01 0.000000000000000e+00
6.018411266477360e-01 7.457184835244307e-01 0.000000000000000e+00
5.955816364420585e-01 7.477643834350356e-01 0.000000000000000e+00
5.892557828450683e-01 7.501097343167936e-01 0.000000000000000e+00
5.826276156541277e-01 7.523952931009121e-01 0.000000000000000e+00
5.763798527835319e-01 7.539443245307181e-01 0.000000000000000e+00
5.693840804007909e-01 7.562380495995786e-01 0.000000000000000e+00
5.633670650584404e-01 7.573192650343984e-01 0.000000000000000e+00
5.563322068404993e-01 7.590255489928492e-01 0.000000000000000e+00
5.499181080778799e-01 7.601928108169833e-01 0.000000000000000e+00
5.431923252813309e-01 7.613038195339681e-01 0.000000000000000e+00
5.363460182282952e-01 7.623192570963121e-01 0.000000000000000e+00
5.297246808344876e-01 7.630775621908344e-01 0.000000000000000e+00
5.227575893680354e-01 7.637495627664707e-01 0.000000000000000e+00
5.161602271683650e-01 7.641701274949689e-01 0.000000000000000e+00
5.092236523165096e-01 7.644890492268475e-01 0.000000000000000e+00
5.025198085284115e-01 7.646164327094642e-01 0.000000000000000e+00
4.956146781475471e-01 7.645871733890713e-01 0.000000000000000e+00
4.889173848779317e-01 7.643966847286534e-01 0.000000000000000e+00
4.819694514204069e-01 7.640006255684243e-01 0.000000000000000e+00
4.754558748569331e-01 7.635187441820915e-01 0.000000000000000e+00
4.684040599040334e-01 7.627622013368516e-01 0.000000000000000e+00
4.620353376912003e-01 7.619945937008384e-01 0.000000000000000e+00
4.549489682126447e-01 7.608679000588368e-01 0.000000000000000e+00
4.485479324094890e-01 7.597706647169823e-01 0.000000000000000e+00
4.417419306640496e-01 7.583600295669061e-01 0.000000000000000e+00
4.349396619005217e-01 7.566573455327514e-01 0.000000000000000e+00
4.289287732796723e-01 7.555938637552574e-01 0.000000000000000e+00
4.218826799792394e-01 7.532167436683449e-01 0.000000000000000e+00
4.157671416760909e-01 7.517068815466631e-01 0.000000000000000e+00
4.091791173451076e-01 7.492257065011744e-01 0.000000000000000e+00
4.027037477661518e-01 7.470488711227879e-01 0.000000000000000e+00
3.966684938494855e-01 7.446538853367197e-01 0.000000000000000e+00
3.900199512073703e-01 7.416236222561496e-01 0.000000000000000e+00
3.845553749498504e-01 7.393839335894012e-01 0.000000000000000e+00
3.779544156988554e-01 7.362491783983448e-01 0.000000000000000e+00
3.721466623754943e-01 7.332363571390755e-01 0.000000000000000e+00
3.664726927015404e-01 7.301553730074453e-01 0.000000000000000e+00
3.600919542607504e-01 7.264324351840163e-01 0.000000000000000e+00
3.548166007871925e-01 7.233054028495043e-01 0.000000000000000e+00
3.488620467766983e-01 7.194538010674468e-01 0.000000000000000e+00
3.432586015539595e-01 7.156094364276911e-01 0.000000000000000e+00
3.382713387227245e-01 7.121161624435692e-01 0.000000000000000e+00
3.324308348488283e-01 7.076528149109960e-01 0.000000000000000e+00
3.271214304428280e-01 7.034790965847411e-01 0.000000000000000e+00
3.223655363646475e-01 6.994985943123969e-01 0.000000000000000e+00
3.169964506504975e-01 6.947068162623539e-01 0.000000000000000e+00
3.119216217494581e-01 6.900750540273811e-01 0.000000000000000e+00
3.074013897032097e-01 6.856717074534258e-01 0.000000000000000e+00
3.027058780751014e-01 6.807880942296155e-01 0.000000000000000e+00
2.977456855599436e-01 6.754811065762855e-01 0.000000000000000e+00
2.935746258181238e-01 6.707417647994598e-01 0.000000000000000e+00
2.894516653162030e-01 6.657245917902689e-01 0.000000000000000e+00
2.847757133151932e-01 6.599022517537898e-01 0.000000000000000e+00
2.810544826532510e-01 6.548864702066052e-01 0.000000000000000e+00
2.771569046687667e-01 6.494576412778480e-01 0.000000000000000e+00
2.731591442992426e-01 6.435527593717119e-01 0.000000000000000e+00
2.699747250897939e-01 6.383988515012028e-01 0.000000000000000e+00
2.660860966496719e-01 6.320746281061587e-01 0.000000000000000e+00
2.628512320042053e-01 6.264670128531520e-01 0.000000000000000e+00
2.597667908398091e-01 6.207929265610395e-01 0.000000000000000e+00
2.565410166510539e-01 6.141591727957244e-01 0.000000000000000e+00
2.542465343829562e-01 6.088113378759211e-01 0.000000000000000e+00
2.509662973186147e-01 6.022295843633176e-01 0.000000000000000e+00
2.485787072817264e-01 5.961425238273912e-01 0.000000000000000e+00
2.462439782307691e-01 5.897034409254566e-01 0.000000000000000e+00
2.437112361116602e-01 5.833079381587634e-01 0.000000000000000e+00
2.421912424872857e-01 5.770668132096712e-01 0.000000000000000e+00
2.396486068147564e-01 5.701280903249352e-01 0.000000000000000e+00
2.383567893993113e-01 5.639921312969787e-01 0.000000000000000e+00
2.366664401688751e-01 5.571762467487082e-01 0.000000000000000e+00
2.353153206582858e-01 5.505283347512584e-01 0.000000000000000e+00
2.341544729361561e-01 5.440915453343230e-01 0.000000000000000e+00
2.329603480710732e-01 5.369890013594669e-01 0.000000000000000e+00
2.322053356267390e-01 5.306839970463770e-01 0.000000000000000e+00
2.314250624518547e-01 5.235560844597478e-01 0.000000000000000e+00
2.309596958873188e-01 5.170858804267470e-01 0.000000000000000e+00
2.305794501726076e-01 5.101512018075188e-01 0.000000000000000e+00
2.304150797808688e-01 5.034424820485114e-01 0.000000000000000e+00
2.304150797808797e-01 4.965575179523016e-01 0.000000000000000e+00
2.305794501726300e-01 4.898487981932603e-01 0.000000000000000e+00
2.309596958873316e-01 4.829141195740350e-01 0.000000000000000e+00
2.314250624518667e-01 4.764439155410684e-01 0.000000000000000e+00
2.322053356267502e-01 4.693160029544272e-01 0.000000000000000e+00
2.329603480711346e-01 4.630109986413016e-01 0.000000000000000e+00
2.341544729361973e-01 4.559084546664551e-01 0.000000000000000e+00
2.353153206583345e-01 4.494716652495301e-01 0.000000000000000e+00
2.366664401688787e-01 4.428237532521207e-01 0.000000000000000e+00
2.383567893994222e-01 4.360078687037697e-01 0.000000000000000e+00
2.396486068147605e-01 4.298719096759270e-01 0.000000000000000e+00
2.421912424872628e-01 4.229331867911815e-01 0.000000000000000e+00
2.437112361117890e-01 4.166920618420333e-01 0.000000000000000e+00
2.462439782308158e-01 4.102965590754042e-01 0.000000000000000e+00
2.485787072818116e-01 4.038574761734080e-01 0.000000000000000e+00
2.509662973185631e-01 3.977704156376790e-01 0.000000000000000e+00
2.542465343830150e-01 3.911886621249098e-01 0.000000000000000e+00
2.565410166512114e-01 3.858408272050685e-01 0.000000000000000e+00
2.597667908398285e-01 3.792070734399126e-01 0.000000000000000e+00
2.628512320043380e-01 3.735329871475798e-01 0.000000000000000e+00
2.660860966496763e-01 3.679253718948249e-01 0.000000000000000e+00
2.699747250899139e-01 3.616011484996698e-01 0.000000000000000e+00
2.731591442994102e-01 3.564472406290652e-01 0.000000000000000e+00
2.771569046688016e-01 3.505423587231132e-01 0.000000000000000e+00
2.810544826534607e-01 3.451135297941934e-01 0.000000000000000e+00
2.847757133152679e-01 3.400977482471295e-01 0.000000000000000e+00
2.894516653162763e-01 3.342754082106913e-01 0.000000000000000e+00
2.935746258183734e-01 3.292582352013235e-01 0.000000000000000e+00
2.977456855599772e-01 3.245188934246865e-01 0.000000000000000e+00
3.027058780751987e-01 3.192119057713468e-01 0.000000000000000e+00
3.074013897034343e-01 3.143282925473939e-01 0.000000000000000e+00
3.119216217495308e-01 3.099249459735726e-01 0.000000000000000e+00
3.169964506505578e-01 3.052931837386640e-01 0.000000000000000e+00
3.223655363648190e-01 3.005014056885124e-01 0.000000000000000e+00
3.271214304429017e-01 2.965209034162618e-01 0.000000000000000e+00
3.324308348488155e-01 2.923471850900828e-01 0.000000000000000e+00
3.382713387228166e-01 2.878838375574596e-01 0.000000000000000e+00
3.432586015541104e-01 2.843905635732926e-01 0.000000000000000e+00
3.488620467767666e-01 2.805461989335806e-01 0.000000000000000e+00
3.548166007872457e-01 2.766945971515407e-01 0.000000000000000e+00
3.600919542607552e-01 2.735675648171266e-01 0.000000000000000e+00
3.664726927015963e-01 2.698446269936574e-01 0.000000000000000e+00
3.721466623756128e-01 2.667636428619383e-01 0.000000000000000e+00
3.779544156989190e-01 2.637508216026865e-01 0.000000000000000e+00
3.845553749499193e-01 2.606160664117140e-01 0.000000000000000e+00
3.900199512074012e-01 2.583763777450137e-01 0.000000000000000e+00
3.966684938495023e-01 2.553461146643795e-01 0.000000000000000e+00
4.027037477662105e-01 2.529511288782799e-01 0.000000000000000e+00
4.091791173451976e-01 2.507742934999461e-01 0.000000000000000e+00
4.157671416761169e-01 2.482931184544263e-01 0.000000000000000e+00
4.218826799793018e-01 2.467832563327465e-01 0.000000000000000e+00
4.289287732797354e-01 2.444061362458429e-01 0.000000000000000e+00
4.349396619005959e-01 2.433426544683336e-01 0.000000000000000e+00
4.417419306641192e-01 2.416399704342005e-01 0.000000000000000e+00
4.485479324095462e-01 2.402293352841070e-01 0.000000000000000e+00
4.549489682127101e-01 2.391320999422534e-01 0.000000000000000e+00
4.620353376912788e-01 2.380054063002627e-01 0.000000000000000e+00
4.684040599040697e-01 2.372377986642588e-01 0.000000000000000e+00
4.754558748569990e-01 2.364812558190045e-01 0.000000000000000e+00
4.819694514204381e-01 2.359993744326861e-01 0.000000000000000e+00
4.889173848779733e-01 2.356033152724491e-01 0.000000000000000e+00
4.956146781475812e-01 2.354128266120374e-01 0.000000000000000e+00
5.025198085284380e-01 2.353835672916462e-01 0.000000000000000e+00
5.092236523165402e-01 2.355109507742638e-01 0.000000000000000e+00
5.161602271683872e-01 2.358298725061351e-01 0.000000000000000e+00
5.227575893680654e-01 2.362504372346410e-01 0.000000000000000e+00
5.297246808344994e-01 2.369224378102711e-01 0.000000000000000e+00
5.363460182283245e-01 2.376807429048058e-01 0.000000000000000e+00
5.431923252813440e-01 2.386961804671365e-01 0.000000000000000e+00
5.499181080778871e-01 2.398071891841165e-01 0.000000000000000e+00
5.563322068405124e-01 2.409744510082698e-01 0.000000000000000e+00
5.633670650584582e-01 2.426807349666950e-01 0.000000000000000e+00
5.693840804008146e-01 2.437619504015296e-01 0.000000000000000e+00
5.763798527835370e-01 2.460556754704109e-01 0.000000000000000e+00
5.826276156541719e-01 2.476047069002128e-01 0.000000000000000e+00
5.892557828450484e-01 2.498902656843013e-01 0.000000000000000e+00
5.955816364420627e-01 2.522356165660745e-01 0.000000000000000e+00
6.018411266477833e-01 2.542815164766959e-01 0.000000000000000e+00
6.084075764147240e-01 2.573112336899763e-01 0.000000000000000e+00
6.139690516195944e-01 2.594525518016110e-01 0.000000000000000e+00
6.207221455731088e-01 2.626853487920876e-01 0.000000000000000e+00
6.264891067694955e-01 2.655635760392661e-01 0.000000000000000e+00
6.322463206576002e-01 2.685154128071101e-01 0.000000000000000e+00
6.385797550089471e-01 2.720530639643562e-01 0.000000000000000e+00
6.438486723265230e-01 2.751905857410070e-01 0.000000000000000e+00
6.499983776814985e-01 2.790369537338785e-01 0.000000000000000e+00
6.555634767242698e-01 2.826664928365100e-01 0.000000000000000e+00
6.607620129070501e-01 2.863081166764008e-01 0.000000000000000e+00
6.665749425311082e-01 2.905982759406954e-01 0.000000000000000e+00
6.718351945416803e-01 2.946082341823403e-01 0.000000000000000e+00
6.769506911515516e-01 2.988152034595831e-01 0.000000000000000e+00
6.822249495251689e-01 3.033384385011227e-01 0.000000000000000e+00
6.872125349331333e-01 3.078201731121641e-01 0.000000000000000e+00
6.920984654615481e-01 3.124533442850087e-01 0.000000000000000e+00
6.967763983158571e-01 3.171334125778069e-01 0.000000000000000e+00
7.015773515458493e-01 3.221804633180451e-01 0.000000000000000e+00
7.060941085228637e-01 3.271397902359615e-01 0.000000000000000e+00
7.103051859871441e-01 3.320850257118076e-01 0.000000000000000e+00
7.148275952873899e-01 3.375979844000446e-01 0.000000000000000e+00
7.189807042114446e-01 3.428927327243667e-01 0.000000000000000e+00
7.225623024054290e-01 3.479301927838139e-01 0.000000000000000e+00
7.268011475006003e-01 3.539690580427866e-01 0.000000000000000e+00
7.303664294913353e-01 3.593435281878330e-01 0.000000000000000e+00
7.339460959179369e-01 3.650580731308906e-01 0.000000000000000e+00
7.374891205880728e-01 3.711411292269829e-01 0.000000000000000e+00
7.401852803032459e-01 3.762629595875259e-01 0.000000000000000e+00
7.437338872849277e-01 3.828201651334729e-01 0.000000000000000e+00
7.465850362245520e-01 3.887104938000181e-01 0.000000000000000e+00
7.493355754295760e-01 3.947692507428046e-01 0.000000000000000e+00
7.522449384945386e-01 4.012704684123801e-01 0.000000000000000e+00
7.541106867879166e-01 4.069560429499455e-01 0.000000000000000e+00
7.569192564100141e-01 4.137406674049829e-01 0.000000000000000e+00
7.587922103676330e-01 4.199603506178897e-01 0.000000000000000e+00
7.608358283067899e-01 4.264747599899857e-01 0.000000000000000e+00
7.628956444172532e-01 4.329880417241880e-01 0.000000000000000e+00
7.641657993023330e-01 4.394916855080629e-01 0.000000000000000e+00
7.660700971334248e-01 4.464031696848098e-01 0.000000000000000e+00
7.669940528427901e-01 4.525598459117054e-01 0.000000000000000e+00
7.683582158460497e-01 4.596364742119516e-01 0.000000000000000e+00
7.691761668488019e-01 4.660936036062935e-01 0.000000000000000e+00
7.699992776144315e-01 4.729491587141711e-01 0.000000000000000e+00
7.705785472002935e-01 4.796200642793118e-01 0.000000000000000e+00
7.710398952195779e-01 4.864104876460641e-01 0.000000000000000e+00
7.713035469873082e-01 4.932139663120346e-01 0.000000000000000e+00

POINT_DATA   249
SCALARS fMag double
LOOKUP_TABLE default

1.948906e+01 
1.671205e+01 
1.981280e+01 
1.678988e+01 
3.058674e+01 
3.984559e+01 
8.259033e+01 
1.019844e+02 
1.237256e+02 
7.539724e+01 
7.897174e+01 
1.622969e+00 
3.405697e+01 
1.092939e+02 
1.448051e+02 
1.324577e+02 
4.701335e+01 
1.961804e+01 
9.649528e+01 
1.669406e+02 
1.281091e+02 
3.703498e+01 
3.403666e+01 
9.460838e+01 
1.197805e+02 
6.267664e+01 
4.289094e+01 
6.474656e+01 
3.060214e+01 
2.973850e+01 
3.870424e+01 
2.132407e+01 
1.823997e+01 
2.896419e+01 
3.538203e+01 
2.444740e+01 
6.196233e+01 
8.933335e+01 
3.667619e+01 
6.235438e+01 
1.130601e+02 
1.137191e+02 
8.216876e+01 
7.424832e+00 
1.047962e+02 
1.615978e+02 
1.341358e+02 
1.030592e+02 
3.067199e+01 
3.081749e+01 
8.289914e+01 
1.055530e+02 
1.558274e+02 
1.194464e+02 
8.221208e+01 
3.167230e+01 
1.538194e+01 
3.416583e+01 
3.563607e+01 
4.471235e+01 
3.541132e+01 
3.014140e+01 
2.550564e+01 
2.630423e+01 
3.241575e+01 
4.427523e+01 
6.042705e+01 
6.831820e+01 
8.024685e+01 
6.859692e+01 
5.120727e+01 
2.920714e+01 
1.017283e+02 
1.672519e+02 
1.272039e+02 
1.080137e+02 
3.245371e+01 
4.911995e+01 
8.830046e+01 
1.423631e+02 
1.446540e+02 
8.025246e+01 
1.501494e+01 
9.547848e+01 
1.255739e+02 
9.931296e+01 
3.511897e+01 
7.092062e+01 
1.291918e+02 
6.049005e+01 
5.862810e+01 
1.016916e+02 
3.348939e+01 
5.998217e+01 
5.112136e+01 
4.993369e+01 
9.720569e+01 
2.819369e+01 
9.767913e+01 
1.249773e+02 
4.490750e+01 
4.864812e+01 
1.107014e+02 
1.365858e+02 
9.699833e+01 
1.644684e+01 
9.700230e+01 
1.587737e+02 
1.579321e+02 
1.020531e+02 
3.559575e+01 
2.027522e+01 
1.024460e+02 
1.237912e+02 
1.486242e+02 
7.881089e+01 
3.785419e+01 
2.842173e+01 
6.665833e+01 
9.104302e+01 
8.232918e+01 
7.292064e+01 
4.722075e+01 
3.125054e+01 
2.409962e+01 
2.409962e+01 
3.125054e+01 
4.722075e+01 
7.292064e+01 
8.232918e+01 
9.104302e+01 
6.665833e+01 
2.842173e+01 
3.785419e+01 
7.881089e+01 
1.486242e+02 
1.237912e+02 
1.024460e+02 
2.027522e+01 
3.559575e+01 
1.020531e+02 
1.579321e+02 
1.587737e+02 
9.700230e+01 
1.644684e+01 
9.699833e+01 
1.365858e+02 
1.107014e+02 
4.864812e+01 
4.490750e+01 
1.249773e+02 
9.767913e+01 
2.819369e+01 
9.720569e+01 
4.993369e+01 
5.112136e+01 
5.998217e+01 
3.348939e+01 
1.016916e+02 
5.862810e+01 
6.049005e+01 
1.291918e+02 
7.092062e+01 
3.511897e+01 
9.931296e+01 
1.255739e+02 
9.547848e+01 
1.501494e+01 
8.025246e+01 
1.446540e+02 
1.423631e+02 
8.830046e+01 
4.911995e+01 
3.245371e+01 
1.080137e+02 
1.272039e+02 
1.672519e+02 
1.017283e+02 
2.920714e+01 
5.120727e+01 
6.859692e+01 
8.024685e+01 
6.831820e+01 
6.042705e+01 
4.427523e+01 
3.241575e+01 
2.630423e+01 
2.550564e+01 
3.014140e+01 
3.541132e+01 
4.471235e+01 
3.563607e+01 
3.416583e+01 
1.538194e+01 
3.167230e+01 
8.221208e+01 
1.194464e+02 
1.558274e+02 
1.055530e+02 
8.289914e+01 
3.081749e+01 
3.067199e+01 
1.030592e+02 
1.341358e+02 
1.615978e+02 
1.047962e+02 
7.424832e+00 
8.216876e+01 
1.137191e+02 
1.130601e+02 
6.235438e+01 
3.667619e+01 
8.933335e+01 
6.196233e+01 
2.444740e+01 
3.538203e+01 
2.896419e+01 
1.823997e+01 
2.132407e+01 
3.870424e+01 
2.973850e+01 
3.060214e+01 
6.474656e+01 
4.289094e+01 
6.267664e+01 
1.197805e+02 
9.460838e+01 
3.403666e+01 
3.703498e+01 
1.281091e+02 
1.669406e+02 
9.649528e+01 
1.961804e+01 
4.701335e+01 
1.324577e+02 
1.448051e+02 
1.092939e+02 
3.405697e+01 
1.622969e+00 
7.897174e+01 
7.539724e+01 
1.237256e+02 
1.019844e+02 
8.259033e+01 
3.984559e+01 
3.058674e+01 
1.678988e+01 
1.981280e+01 
1.671205e+01 
