# vtk DataFile Version 2.0
fNorm
ASCII
DATASET UNSTRUCTURED_GRID

FIELD FieldData 1
TIME 1 1 double
0.88000000
POINTS 249 float
7.574595116249234e-01 5.000000000000000e-01 0.000000000000000e+00
7.573930311485201e-01 5.071436082526499e-01 0.000000000000000e+00
7.571652466581845e-01 5.143210169993551e-01 0.000000000000000e+00
7.567883685280196e-01 5.214858075668586e-01 0.000000000000000e+00
7.563259147153357e-01 5.285277732267375e-01 0.000000000000000e+00
7.556114961894443e-01 5.358166171276966e-01 0.000000000000000e+00
7.549420002520892e-01 5.426366592578807e-01 0.000000000000000e+00
7.538140749498348e-01 5.501072082559457e-01 0.000000000000000e+00
7.530636679765483e-01 5.564690940246751e-01 0.000000000000000e+00
7.515671866905808e-01 5.640696073097704e-01 0.000000000000000e+00
7.505753362373969e-01 5.703883160029098e-01 0.000000000000000e+00
7.488125842965752e-01 5.777491183032690e-01 0.000000000000000e+00
7.472240911865428e-01 5.845801941510865e-01 0.000000000000000e+00
7.454676205095288e-01 5.914170013083180e-01 0.000000000000000e+00
7.433483364005875e-01 5.985790413673636e-01 0.000000000000000e+00
7.416379638876666e-01 6.047358921263093e-01 0.000000000000000e+00
7.391555519502884e-01 6.119235513047393e-01 0.000000000000000e+00
7.369445560260406e-01 6.183432736483631e-01 0.000000000000000e+00
7.344407804594498e-01 6.250304450000131e-01 0.000000000000000e+00
7.316920065459155e-01 6.317927683837214e-01 0.000000000000000e+00
7.290189501326938e-01 6.380616523990011e-01 0.000000000000000e+00
7.259652304481847e-01 6.446922468540512e-01 0.000000000000000e+00
7.229629022401864e-01 6.509988842600992e-01 0.000000000000000e+00
7.198349865331545e-01 6.572347726419554e-01 0.000000000000000e+00
7.163781575976585e-01 6.635440718807434e-01 0.000000000000000e+00
7.128897225700720e-01 6.696551096885226e-01 0.000000000000000e+00
7.092699957090239e-01 6.757161622967038e-01 0.000000000000000e+00
7.054844948608149e-01 6.816890437321848e-01 0.000000000000000e+00
7.016100671646011e-01 6.875150880540221e-01 0.000000000000000e+00
6.975894565581656e-01 6.932344486035862e-01 0.000000000000000e+00
6.933514367695855e-01 6.989271669641342e-01 0.000000000000000e+00
6.890234067783565e-01 7.044860620018326e-01 0.000000000000000e+00
6.846469506074058e-01 7.098687621926288e-01 0.000000000000000e+00
6.799755285417250e-01 7.152018638269860e-01 0.000000000000000e+00
6.752636471760803e-01 7.203913971774787e-01 0.000000000000000e+00
6.705080173563628e-01 7.253899650965349e-01 0.000000000000000e+00
6.654793754986144e-01 7.303236630119970e-01 0.000000000000000e+00
6.603316067681100e-01 7.351478724628353e-01 0.000000000000000e+00
6.552292627088171e-01 7.396865710781876e-01 0.000000000000000e+00
6.497871470081980e-01 7.442683345241004e-01 0.000000000000000e+00
6.442713344803578e-01 7.486562705584606e-01 0.000000000000000e+00
6.388789752179765e-01 7.526912382643535e-01 0.000000000000000e+00
6.330184092021972e-01 7.568406066953851e-01 0.000000000000000e+00
6.272925068217685e-01 7.606563810697392e-01 0.000000000000000e+00
6.214965179629349e-01 7.643164126700041e-01 0.000000000000000e+00
6.152211445485026e-01 7.680435424200704e-01 0.000000000000000e+00
6.095013104955402e-01 7.710721423273247e-01 0.000000000000000e+00
6.030436677189843e-01 7.745285550248754e-01 0.000000000000000e+00
5.970440153829106e-01 7.772320499705599e-01 0.000000000000000e+00
5.906884307432607e-01 7.800602682798017e-01 0.000000000000000e+00
5.839714522981908e-01 7.829077565336224e-01 0.000000000000000e+00
5.777194748859246e-01 7.851559067844035e-01 0.000000000000000e+00
5.707902448338869e-01 7.875679849060713e-01 0.000000000000000e+00
5.647435826647905e-01 7.891876499086945e-01 0.000000000000000e+00
5.576733044526790e-01 7.912796268893738e-01 0.000000000000000e+00
5.511534706705582e-01 7.927892805510575e-01 0.000000000000000e+00
5.442872525841737e-01 7.942167345422465e-01 0.000000000000000e+00
5.373842821231456e-01 7.954464469428053e-01 0.000000000000000e+00
5.305595316782692e-01 7.964336286367919e-01 0.000000000000000e+00
5.235477846015621e-01 7.972586324773614e-01 0.000000000000000e+00
5.167336822460755e-01 7.977959245940546e-01 0.000000000000000e+00
5.096775369287274e-01 7.981897722318920e-01 0.000000000000000e+00
5.027920311458239e-01 7.983412099625959e-01 0.000000000000000e+00
4.957771836162108e-01 7.982933098338660e-01 0.000000000000000e+00
4.888759604386466e-01 7.980318994570231e-01 0.000000000000000e+00
4.818401005525904e-01 7.975194142074717e-01 0.000000000000000e+00
4.750522380840868e-01 7.968758292035556e-01 0.000000000000000e+00
4.680207596223579e-01 7.959256581159898e-01 0.000000000000000e+00
4.613613715037309e-01 7.949054722454213e-01 0.000000000000000e+00
4.542918374201788e-01 7.934814224764742e-01 0.000000000000000e+00
4.477248984998192e-01 7.920642996760358e-01 0.000000000000000e+00
4.408328828433815e-01 7.902244821681765e-01 0.000000000000000e+00
4.341162634243214e-01 7.882143289317358e-01 0.000000000000000e+00
4.278218443745028e-01 7.863857721437051e-01 0.000000000000000e+00
4.210167038475731e-01 7.838834497919965e-01 0.000000000000000e+00
4.148984570090379e-01 7.816581318320031e-01 0.000000000000000e+00
4.080196169216284e-01 7.784613780721291e-01 0.000000000000000e+00
4.021488827459831e-01 7.760069678777212e-01 0.000000000000000e+00
3.957076256857354e-01 7.727746714353489e-01 0.000000000000000e+00
3.896325991013241e-01 7.694926161037410e-01 0.000000000000000e+00
3.837004044343579e-01 7.661986828496781e-01 0.000000000000000e+00
3.775473928855321e-01 7.624007922436600e-01 0.000000000000000e+00
3.719501399313953e-01 7.588167468865868e-01 0.000000000000000e+00
3.660728156268300e-01 7.547584139365497e-01 0.000000000000000e+00
3.604081104107102e-01 7.506347110402942e-01 0.000000000000000e+00
3.550364233870713e-01 7.464969972203578e-01 0.000000000000000e+00
3.494841693035061e-01 7.419561554116918e-01 0.000000000000000e+00
3.442295717838616e-01 7.373956327219060e-01 0.000000000000000e+00
3.391645918301135e-01 7.327763549912562e-01 0.000000000000000e+00
3.340477893609349e-01 7.278793341189496e-01 0.000000000000000e+00
3.291210858282994e-01 7.228766853414469e-01 0.000000000000000e+00
3.244527064785733e-01 7.178270329319896e-01 0.000000000000000e+00
3.197040764159749e-01 7.125095524128322e-01 0.000000000000000e+00
3.151589694733418e-01 7.071560990076946e-01 0.000000000000000e+00
3.108792735322303e-01 7.017420679490171e-01 0.000000000000000e+00
3.065811776836820e-01 6.960852335110687e-01 0.000000000000000e+00
3.024539719674366e-01 6.903822476931779e-01 0.000000000000000e+00
2.984946623146181e-01 6.846101567157138e-01 0.000000000000000e+00
2.946472220389573e-01 6.786899013808568e-01 0.000000000000000e+00
2.909572103972392e-01 6.726841751939374e-01 0.000000000000000e+00
2.874626360490450e-01 6.666449815313620e-01 0.000000000000000e+00
2.839566923868190e-01 6.604041448627562e-01 0.000000000000000e+00
2.806018873546082e-01 6.540788822411456e-01 0.000000000000000e+00
2.776315030771487e-01 6.479203289365469e-01 0.000000000000000e+00
2.745737554060593e-01 6.413683250118372e-01 0.000000000000000e+00
2.716671805065644e-01 6.348595980073825e-01 0.000000000000000e+00
2.690551561824595e-01 6.285233766219737e-01 0.000000000000000e+00
2.663258263786885e-01 6.216052457850120e-01 0.000000000000000e+00
2.641156725613480e-01 6.153208602761676e-01 0.000000000000000e+00
2.616626246635714e-01 6.083435209064251e-01 0.000000000000000e+00
2.594999057262337e-01 6.015053104260147e-01 0.000000000000000e+00
2.577225158234394e-01 5.950573593315265e-01 0.000000000000000e+00
2.555286211129796e-01 5.876691651281681e-01 0.000000000000000e+00
2.542418627182555e-01 5.815370179594648e-01 0.000000000000000e+00
2.523964435543088e-01 5.740830393715228e-01 0.000000000000000e+00
2.512020579357080e-01 5.675851988810362e-01 0.000000000000000e+00
2.498015770470524e-01 5.603658360883678e-01 0.000000000000000e+00
2.486448021644110e-01 5.532698246697079e-01 0.000000000000000e+00
2.477164304781693e-01 5.464217281568989e-01 0.000000000000000e+00
2.467144064534438e-01 5.389742490707661e-01 0.000000000000000e+00
2.461208254302320e-01 5.322384686205890e-01 0.000000000000000e+00
2.454616165099886e-01 5.248559893666767e-01 0.000000000000000e+00
2.451029781819836e-01 5.179605710028548e-01 0.000000000000000e+00
2.447715502543839e-01 5.106767737869603e-01 0.000000000000000e+00
2.446442781364087e-01 5.035957073091216e-01 0.000000000000000e+00
2.446442781364064e-01 4.964042926912572e-01 0.000000000000000e+00
2.447715502543789e-01 4.893232262134050e-01 0.000000000000000e+00
2.451029781819793e-01 4.820394289975147e-01 0.000000000000000e+00
2.454616165099836e-01 4.751440106337018e-01 0.000000000000000e+00
2.461208254302190e-01 4.677615313797850e-01 0.000000000000000e+00
2.467144064534323e-01 4.610257509296073e-01 0.000000000000000e+00
2.477164304781579e-01 4.535782718434702e-01 0.000000000000000e+00
2.486448021644038e-01 4.467301753306512e-01 0.000000000000000e+00
2.498015770470337e-01 4.396341639120058e-01 0.000000000000000e+00
2.512020579356916e-01 4.324148011193293e-01 0.000000000000000e+00
2.523964435542789e-01 4.259169606288675e-01 0.000000000000000e+00
2.542418627182313e-01 4.184629820409155e-01 0.000000000000000e+00
2.555286211129492e-01 4.123308348722209e-01 0.000000000000000e+00
2.577225158234066e-01 4.049426406688588e-01 0.000000000000000e+00
2.594999057262206e-01 3.984946895743452e-01 0.000000000000000e+00
2.616626246635395e-01 3.916564790939533e-01 0.000000000000000e+00
2.641156725613190e-01 3.846791397242040e-01 0.000000000000000e+00
2.663258263786564e-01 3.783947542153674e-01 0.000000000000000e+00
2.690551561824228e-01 3.714766233784027e-01 0.000000000000000e+00
2.716671805065312e-01 3.651404019929867e-01 0.000000000000000e+00
2.745737554060238e-01 3.586316749885384e-01 0.000000000000000e+00
2.776315030771123e-01 3.520796710638198e-01 0.000000000000000e+00
2.806018873545725e-01 3.459211177592217e-01 0.000000000000000e+00
2.839566923867747e-01 3.395958551376151e-01 0.000000000000000e+00
2.874626360490042e-01 3.333550184690082e-01 0.000000000000000e+00
2.909572103971961e-01 3.273158248064278e-01 0.000000000000000e+00
2.946472220389106e-01 3.213100986195102e-01 0.000000000000000e+00
2.984946623145748e-01 3.153898432846489e-01 0.000000000000000e+00
3.024539719673898e-01 3.096177523071874e-01 0.000000000000000e+00
3.065811776836327e-01 3.039147664892930e-01 0.000000000000000e+00
3.108792735321791e-01 2.982579320513446e-01 0.000000000000000e+00
3.151589694732920e-01 2.928439009926659e-01 0.000000000000000e+00
3.197040764159178e-01 2.874904475875299e-01 0.000000000000000e+00
3.244527064785228e-01 2.821729670683619e-01 0.000000000000000e+00
3.291210858282442e-01 2.771233146589151e-01 0.000000000000000e+00
3.340477893608758e-01 2.721206658814003e-01 0.000000000000000e+00
3.391645918300586e-01 2.672236450090919e-01 0.000000000000000e+00
3.442295717838030e-01 2.626043672784448e-01 0.000000000000000e+00
3.494841693034433e-01 2.580438445886571e-01 0.000000000000000e+00
3.550364233870016e-01 2.535030027799878e-01 0.000000000000000e+00
3.604081104106522e-01 2.493652889600514e-01 0.000000000000000e+00
3.660728156267485e-01 2.452415860637932e-01 0.000000000000000e+00
3.719501399313289e-01 2.411832531137482e-01 0.000000000000000e+00
3.775473928854532e-01 2.375992077566887e-01 0.000000000000000e+00
3.837004044342812e-01 2.338013171506541e-01 0.000000000000000e+00
3.896325991012493e-01 2.305073838965907e-01 0.000000000000000e+00
3.957076256856537e-01 2.272253285649753e-01 0.000000000000000e+00
4.021488827459055e-01 2.239930321226043e-01 0.000000000000000e+00
4.080196169215331e-01 2.215386219282115e-01 0.000000000000000e+00
4.148984570089428e-01 2.183418681683272e-01 0.000000000000000e+00
4.210167038474928e-01 2.161165502083086e-01 0.000000000000000e+00
4.278218443744116e-01 2.136142278566174e-01 0.000000000000000e+00
4.341162634242404e-01 2.117856710685710e-01 0.000000000000000e+00
4.408328828433013e-01 2.097755178321165e-01 0.000000000000000e+00
4.477248984997265e-01 2.079357003242817e-01 0.000000000000000e+00
4.542918374200919e-01 2.065185775238197e-01 0.000000000000000e+00
4.613613715036527e-01 2.050945277548664e-01 0.000000000000000e+00
4.680207596222580e-01 2.040743418843019e-01 0.000000000000000e+00
4.750522380840022e-01 2.031241707967206e-01 0.000000000000000e+00
4.818401005524929e-01 2.024805857928161e-01 0.000000000000000e+00
4.888759604385548e-01 2.019681005432508e-01 0.000000000000000e+00
4.957771836161134e-01 2.017066901664057e-01 0.000000000000000e+00
5.027920311457320e-01 2.016587900376685e-01 0.000000000000000e+00
5.096775369286317e-01 2.018102277683736e-01 0.000000000000000e+00
5.167336822459805e-01 2.022040754062090e-01 0.000000000000000e+00
5.235477846014751e-01 2.027413675228907e-01 0.000000000000000e+00
5.305595316781696e-01 2.035663713634571e-01 0.000000000000000e+00
5.373842821230624e-01 2.045535530574414e-01 0.000000000000000e+00
5.442872525840768e-01 2.057832654579947e-01 0.000000000000000e+00
5.511534706704684e-01 2.072107194491820e-01 0.000000000000000e+00
5.576733044525909e-01 2.087203731108584e-01 0.000000000000000e+00
5.647435826646986e-01 2.108123500915328e-01 0.000000000000000e+00
5.707902448338020e-01 2.124320150941523e-01 0.000000000000000e+00
5.777194748858460e-01 2.148440932158261e-01 0.000000000000000e+00
5.839714522981104e-01 2.170922434665777e-01 0.000000000000000e+00
5.906884307431876e-01 2.199397317204294e-01 0.000000000000000e+00
5.970440153828313e-01 2.227679500296464e-01 0.000000000000000e+00
6.030436677189104e-01 2.254714449753337e-01 0.000000000000000e+00
6.095013104954655e-01 2.289278576728841e-01 0.000000000000000e+00
6.152211445484388e-01 2.319564575801389e-01 0.000000000000000e+00
6.214965179628623e-01 2.356835873302031e-01 0.000000000000000e+00
6.272925068217041e-01 2.393436189304682e-01 0.000000000000000e+00
6.330184092021280e-01 2.431593933048142e-01 0.000000000000000e+00
6.388789752179106e-01 2.473087617358486e-01 0.000000000000000e+00
6.442713344802907e-01 2.513437294417404e-01 0.000000000000000e+00
6.497871470081357e-01 2.557316654760988e-01 0.000000000000000e+00
6.552292627087549e-01 2.603134289220092e-01 0.000000000000000e+00
6.603316067680457e-01 2.648521275373644e-01 0.000000000000000e+00
6.654793754985550e-01 2.696763369881979e-01 0.000000000000000e+00
6.705080173563038e-01 2.746100349036574e-01 0.000000000000000e+00
6.752636471760193e-01 2.796086028227163e-01 0.000000000000000e+00
6.799755285416665e-01 2.847981361731999e-01 0.000000000000000e+00
6.846469506073524e-01 2.901312378075659e-01 0.000000000000000e+00
6.890234067782997e-01 2.955139379983535e-01 0.000000000000000e+00
6.933514367695333e-01 3.010728330360537e-01 0.000000000000000e+00
6.975894565581066e-01 3.067655513966012e-01 0.000000000000000e+00
7.016100671645535e-01 3.124849119461645e-01 0.000000000000000e+00
7.054844948607628e-01 3.183109562680011e-01 0.000000000000000e+00
7.092699957089716e-01 3.242838377034790e-01 0.000000000000000e+00
7.128897225700191e-01 3.303448903116613e-01 0.000000000000000e+00
7.163781575976116e-01 3.364559281194333e-01 0.000000000000000e+00
7.198349865331122e-01 3.427652273582318e-01 0.000000000000000e+00
7.229629022401335e-01 3.490011157400760e-01 0.000000000000000e+00
7.259652304481445e-01 3.553077531461301e-01 0.000000000000000e+00
7.290189501326537e-01 3.619383476011810e-01 0.000000000000000e+00
7.316920065458740e-01 3.682072316164536e-01 0.000000000000000e+00
7.344407804594101e-01 3.749695550001620e-01 0.000000000000000e+00
7.369445560260027e-01 3.816567263518128e-01 0.000000000000000e+00
7.391555519502541e-01 3.880764486954367e-01 0.000000000000000e+00
7.416379638876314e-01 3.952641078738643e-01 0.000000000000000e+00
7.433483364005554e-01 4.014209586328185e-01 0.000000000000000e+00
7.454676205095059e-01 4.085829986918580e-01 0.000000000000000e+00
7.472240911865092e-01 4.154198058490884e-01 0.000000000000000e+00
7.488125842965503e-01 4.222508816969094e-01 0.000000000000000e+00
7.505753362373724e-01 4.296116839972599e-01 0.000000000000000e+00
7.515671866905648e-01 4.359303926904200e-01 0.000000000000000e+00
7.530636679765365e-01 4.435309059755088e-01 0.000000000000000e+00
7.538140749498273e-01 4.498927917442466e-01 0.000000000000000e+00
7.549420002520820e-01 4.573633407423218e-01 0.000000000000000e+00
7.556114961894332e-01 4.641833828724769e-01 0.000000000000000e+00
7.563259147153326e-01 4.714722267734254e-01 0.000000000000000e+00
7.567883685280153e-01 4.785141924333235e-01 0.000000000000000e+00
7.571652466581805e-01 4.856789830008717e-01 0.000000000000000e+00
7.573930311485195e-01 4.928563917476226e-01 0.000000000000000e+00

POINT_DATA   249
SCALARS fNorm double
LOOKUP_TABLE default

1.329590e+01 
1.605752e+01 
1.494916e+01 
9.266990e+00 
2.309127e+01 
1.051047e-01 
3.736651e+01 
2.249140e+01 
5.397961e+01 
2.711783e+01 
5.500065e+01 
4.785702e+00 
1.617926e+01 
2.628694e+01 
1.152131e+01 
4.275397e+01 
6.162039e-01 
1.849645e+01 
2.008504e+01 
1.196426e+01 
2.011538e+01 
9.080883e+00 
1.438929e+01 
2.570954e+01 
1.243540e+01 
1.385886e+01 
1.873872e+01 
1.545418e+01 
1.808812e+01 
1.917487e+01 
1.526864e+01 
1.475790e+01 
2.573738e+01 
1.257587e+01 
1.620406e+01 
2.400204e+01 
1.614787e+01 
1.801676e+01 
1.897113e+01 
1.966716e+01 
2.039190e+01 
1.828736e+01 
1.986232e+01 
1.688130e+01 
1.929810e+01 
3.360182e+01 
3.079934e+00 
4.719137e+01 
3.162134e+00 
1.262561e+01 
3.877592e+01 
7.120357e+00 
4.948559e+01 
1.757463e+01 
4.218777e+01 
1.545196e+01 
2.011446e+01 
2.269721e+01 
1.850900e+01 
2.669408e+01 
1.593439e+01 
2.355664e+01 
2.003094e+01 
2.159903e+01 
2.432282e+01 
1.513232e+01 
2.766533e+01 
1.223135e+01 
3.257308e+01 
9.574703e+00 
3.343679e+01 
2.116456e+01 
5.468660e+00 
4.793921e+01 
2.415509e+00 
6.036806e+01 
2.701366e+01 
4.669727e+01 
2.132107e+01 
7.903474e+00 
3.228879e+01 
1.145589e+01 
2.395103e+01 
1.762938e+01 
1.868158e+01 
2.033226e+01 
2.068010e+01 
1.699351e+01 
1.675309e+01 
2.086795e+01 
2.193144e+01 
1.206799e+01 
1.771075e+01 
2.436694e+01 
1.341614e+01 
1.647554e+01 
1.770440e+01 
1.753115e+01 
1.787357e+01 
1.849851e+01 
8.999983e+00 
1.731130e+01 
2.675502e+01 
8.966520e+00 
1.195439e+01 
2.025343e+01 
1.087031e+01 
2.641730e+01 
7.208474e-02 
2.312768e+01 
2.584687e+01 
1.409298e+01 
5.653210e+01 
2.474343e+01 
4.325571e+01 
6.839043e+00 
2.182057e+01 
1.892231e+01 
7.217672e-01 
3.263176e+01 
8.214843e-01 
2.651749e+01 
4.605306e+00 
1.975814e+01 
1.282498e+01 
1.282498e+01 
1.975814e+01 
4.605306e+00 
2.651749e+01 
8.214843e-01 
3.263176e+01 
7.217672e-01 
1.892231e+01 
2.182057e+01 
6.839043e+00 
4.325571e+01 
2.474343e+01 
5.653210e+01 
1.409298e+01 
2.584687e+01 
2.312768e+01 
7.208474e-02 
2.641730e+01 
1.087031e+01 
2.025343e+01 
1.195439e+01 
8.966520e+00 
2.675502e+01 
1.731130e+01 
8.999983e+00 
1.849851e+01 
1.787357e+01 
1.753115e+01 
1.770440e+01 
1.647554e+01 
1.341614e+01 
2.436694e+01 
1.771075e+01 
1.206799e+01 
2.193144e+01 
2.086795e+01 
1.675309e+01 
1.699351e+01 
2.068010e+01 
2.033226e+01 
1.868158e+01 
1.762938e+01 
2.395103e+01 
1.145589e+01 
3.228879e+01 
7.903474e+00 
2.132107e+01 
4.669727e+01 
2.701366e+01 
6.036806e+01 
2.415509e+00 
4.793921e+01 
5.468660e+00 
2.116456e+01 
3.343679e+01 
9.574703e+00 
3.257308e+01 
1.223135e+01 
2.766533e+01 
1.513232e+01 
2.432282e+01 
2.159903e+01 
2.003094e+01 
2.355664e+01 
1.593439e+01 
2.669408e+01 
1.850900e+01 
2.269721e+01 
2.011446e+01 
1.545196e+01 
4.218777e+01 
1.757463e+01 
4.948559e+01 
7.120357e+00 
3.877592e+01 
1.262561e+01 
3.162134e+00 
4.719137e+01 
3.079934e+00 
3.360182e+01 
1.929810e+01 
1.688130e+01 
1.986232e+01 
1.828736e+01 
2.039190e+01 
1.966716e+01 
1.897113e+01 
1.801676e+01 
1.614787e+01 
2.400204e+01 
1.620406e+01 
1.257587e+01 
2.573738e+01 
1.475790e+01 
1.526864e+01 
1.917487e+01 
1.808812e+01 
1.545418e+01 
1.873872e+01 
1.385886e+01 
1.243540e+01 
2.570954e+01 
1.438929e+01 
9.080883e+00 
2.011538e+01 
1.196426e+01 
2.008504e+01 
1.849645e+01 
6.162039e-01 
4.275397e+01 
1.152131e+01 
2.628694e+01 
1.617926e+01 
4.785702e+00 
5.500065e+01 
2.711783e+01 
5.397961e+01 
2.249140e+01 
3.736651e+01 
1.051047e-01 
2.309127e+01 
9.266990e+00 
1.494916e+01 
1.605752e+01 
