# vtk DataFile Version 2.0
fNorm
ASCII
DATASET UNSTRUCTURED_GRID

FIELD FieldData 1
TIME 1 1 double
1.76000000
POINTS 249 float
7.687454083240973e-01 5.000000000003387e-01 0.000000000000000e+00
7.686561028776646e-01 5.068333000087294e-01 0.000000000000000e+00
7.684085687934559e-01 5.136861951751233e-01 0.000000000000000e+00
7.679691857393791e-01 5.205288299089884e-01 0.000000000000000e+00
7.674057544566872e-01 5.272540038043406e-01 0.000000000000000e+00
7.665901423298599e-01 5.341686301136558e-01 0.000000000000000e+00
7.657996311207429e-01 5.406784162598531e-01 0.000000000000000e+00
7.645056029508656e-01 5.477834287011690e-01 0.000000000000000e+00
7.636321771280622e-01 5.539581739353255e-01 0.000000000000000e+00
7.617757782920269e-01 5.609683104945752e-01 0.000000000000000e+00
7.605298170385767e-01 5.674743356568315e-01 0.000000000000000e+00
7.585426307501723e-01 5.741055626645555e-01 0.000000000000000e+00
7.565760582100872e-01 5.806786863711982e-01 0.000000000000000e+00
7.547752420015502e-01 5.869268879668081e-01 0.000000000000000e+00
7.520671293003421e-01 5.937831192225380e-01 0.000000000000000e+00
7.503187284109694e-01 5.994120389288761e-01 0.000000000000000e+00
7.474227473813878e-01 6.061304301063986e-01 0.000000000000000e+00
7.447671316484061e-01 6.122282978864961e-01 0.000000000000000e+00
7.420101665207263e-01 6.182038572857248e-01 0.000000000000000e+00
7.386244781125678e-01 6.247760248070202e-01 0.000000000000000e+00
7.360252467913129e-01 6.299572070307098e-01 0.000000000000000e+00
7.324951613632705e-01 6.362264437964362e-01 0.000000000000000e+00
7.290398929864919e-01 6.419955135388580e-01 0.000000000000000e+00
7.255687109355533e-01 6.474852270050387e-01 0.000000000000000e+00
7.214738134954973e-01 6.535884120213428e-01 0.000000000000000e+00
7.179281122945267e-01 6.587613130709300e-01 0.000000000000000e+00
7.138202426268091e-01 6.642422240407270e-01 0.000000000000000e+00
7.094843642644725e-01 6.697753336734247e-01 0.000000000000000e+00
7.053598438004960e-01 6.748293449112511e-01 0.000000000000000e+00
7.008576481132428e-01 6.800130424615983e-01 0.000000000000000e+00
6.962286520747403e-01 6.850918082220100e-01 0.000000000000000e+00
6.916342618799169e-01 6.898864197560809e-01 0.000000000000000e+00
6.867433860711966e-01 6.947557364615515e-01 0.000000000000000e+00
6.818875356916057e-01 6.993093085336417e-01 0.000000000000000e+00
6.768129717519178e-01 7.038505870347517e-01 0.000000000000000e+00
6.716744036380884e-01 7.082784609722732e-01 0.000000000000000e+00
6.664822975334062e-01 7.124297602845329e-01 0.000000000000000e+00
6.608305833896947e-01 7.167808310976459e-01 0.000000000000000e+00
6.556477240691970e-01 7.205841621269669e-01 0.000000000000000e+00
6.501404444534588e-01 7.243260296522193e-01 0.000000000000000e+00
6.439903012185908e-01 7.283650922144674e-01 0.000000000000000e+00
6.387578636167176e-01 7.316346878479891e-01 0.000000000000000e+00
6.326236857927637e-01 7.352017529135675e-01 0.000000000000000e+00
6.268668820457873e-01 7.382767336416328e-01 0.000000000000000e+00
6.211450930959505e-01 7.412399439111033e-01 0.000000000000000e+00
6.143756346473758e-01 7.446674382020043e-01 0.000000000000000e+00
6.088942507152696e-01 7.469091514366673e-01 0.000000000000000e+00
6.023899966968009e-01 7.499794291951097e-01 0.000000000000000e+00
5.961844949345185e-01 7.520917295284902e-01 0.000000000000000e+00
5.898723952829082e-01 7.545039241410288e-01 0.000000000000000e+00
5.832231757655741e-01 7.569488211586882e-01 0.000000000000000e+00
5.770753301796473e-01 7.585364655674024e-01 0.000000000000000e+00
5.700480374026126e-01 7.608864633502171e-01 0.000000000000000e+00
5.641102190972366e-01 7.620066536050444e-01 0.000000000000000e+00
5.571048192308170e-01 7.637657420173133e-01 0.000000000000000e+00
5.507003745349478e-01 7.649834166137575e-01 0.000000000000000e+00
5.439625937584743e-01 7.661565822430643e-01 0.000000000000000e+00
5.371139883700171e-01 7.672157953656032e-01 0.000000000000000e+00
5.304888935598046e-01 7.679956515751741e-01 0.000000000000000e+00
5.235251937408845e-01 7.686894841176264e-01 0.000000000000000e+00
5.169250779411614e-01 7.691311970990675e-01 0.000000000000000e+00
5.099904895140710e-01 7.694704774721219e-01 0.000000000000000e+00
5.032794150982326e-01 7.696008585452229e-01 0.000000000000000e+00
4.963697106247409e-01 7.695593554886372e-01 0.000000000000000e+00
4.896681879962617e-01 7.693546277337591e-01 0.000000000000000e+00
4.827290069368197e-01 7.689482473554615e-01 0.000000000000000e+00
4.762051598659894e-01 7.684423415269338e-01 0.000000000000000e+00
4.691439870050596e-01 7.676463163067699e-01 0.000000000000000e+00
4.627541923863704e-01 7.668325401199282e-01 0.000000000000000e+00
4.556809045142984e-01 7.656647796420833e-01 0.000000000000000e+00
4.493004232501311e-01 7.645232778397655e-01 0.000000000000000e+00
4.425028727760892e-01 7.630555996163287e-01 0.000000000000000e+00
4.357428111190707e-01 7.612899222481583e-01 0.000000000000000e+00
4.297254431307902e-01 7.601323144411274e-01 0.000000000000000e+00
4.227060297507283e-01 7.576980648642370e-01 0.000000000000000e+00
4.165883824009363e-01 7.560754743296250e-01 0.000000000000000e+00
4.100241319257127e-01 7.534707528489747e-01 0.000000000000000e+00
4.036273939481073e-01 7.512445980949326e-01 0.000000000000000e+00
3.975866138059748e-01 7.487876248882378e-01 0.000000000000000e+00
3.910189966103899e-01 7.456845460110126e-01 0.000000000000000e+00
3.854701356436091e-01 7.432467709686990e-01 0.000000000000000e+00
3.788994573311303e-01 7.399378492517733e-01 0.000000000000000e+00
3.731404221810153e-01 7.368265232927692e-01 0.000000000000000e+00
3.675275280965097e-01 7.336712658864082e-01 0.000000000000000e+00
3.613287416714762e-01 7.299214268961979e-01 0.000000000000000e+00
3.560522367788456e-01 7.266080532269004e-01 0.000000000000000e+00
3.501260930040679e-01 7.225707961800577e-01 0.000000000000000e+00
3.445387141381963e-01 7.185946525308945e-01 0.000000000000000e+00
3.395990406611679e-01 7.149654700592025e-01 0.000000000000000e+00
3.339227106599663e-01 7.104195452322520e-01 0.000000000000000e+00
3.286641915806991e-01 7.060852262991670e-01 0.000000000000000e+00
3.239433384162131e-01 7.019457647228932e-01 0.000000000000000e+00
3.187538780990698e-01 6.971266114985255e-01 0.000000000000000e+00
3.137034301144426e-01 6.922888875502289e-01 0.000000000000000e+00
3.092036763894731e-01 6.876754984470065e-01 0.000000000000000e+00
3.046940599976008e-01 6.827764786579755e-01 0.000000000000000e+00
2.998929808623344e-01 6.773931036950644e-01 0.000000000000000e+00
2.956881831754075e-01 6.724246067403127e-01 0.000000000000000e+00
2.916808567111096e-01 6.673289990997946e-01 0.000000000000000e+00
2.871777314320572e-01 6.614399347917546e-01 0.000000000000000e+00
2.834785264950767e-01 6.562445111301356e-01 0.000000000000000e+00
2.796793729914271e-01 6.507303979243667e-01 0.000000000000000e+00
2.758146709770240e-01 6.447656267988494e-01 0.000000000000000e+00
2.727358856685991e-01 6.395239201863749e-01 0.000000000000000e+00
2.689906715840530e-01 6.331437019987192e-01 0.000000000000000e+00
2.657769000600789e-01 6.273336438870996e-01 0.000000000000000e+00
2.627897561713741e-01 6.215899169310370e-01 0.000000000000000e+00
2.596558399749949e-01 6.148930085399489e-01 0.000000000000000e+00
2.574473039193085e-01 6.095199514730913e-01 0.000000000000000e+00
2.543391041198645e-01 6.029105654923328e-01 0.000000000000000e+00
2.520351452194540e-01 5.967314934014978e-01 0.000000000000000e+00
2.497406051489897e-01 5.902341017933579e-01 0.000000000000000e+00
2.472215281512195e-01 5.837388074189600e-01 0.000000000000000e+00
2.458190324506424e-01 5.774884317742781e-01 0.000000000000000e+00
2.434155171368746e-01 5.704755851986874e-01 0.000000000000000e+00
2.421587947347466e-01 5.643043404286103e-01 0.000000000000000e+00
2.404963751934618e-01 5.574626395799761e-01 0.000000000000000e+00
2.391970959041750e-01 5.507588648437159e-01 0.000000000000000e+00
2.380987825029545e-01 5.442792844173545e-01 0.000000000000000e+00
2.369461042662198e-01 5.371483677553679e-01 0.000000000000000e+00
2.362176930673976e-01 5.308148144352220e-01 0.000000000000000e+00
2.354595332116280e-01 5.236704837685638e-01 0.000000000000000e+00
2.350149546517913e-01 5.171617448427241e-01 0.000000000000000e+00
2.346528403451379e-01 5.101912540413897e-01 0.000000000000000e+00
2.345003520982201e-01 5.034516582401521e-01 0.000000000000000e+00
2.345003520982299e-01 4.965483417612375e-01 0.000000000000000e+00
2.346528403451481e-01 4.898087459599709e-01 0.000000000000000e+00
2.350149546517728e-01 4.828382551586460e-01 0.000000000000000e+00
2.354595332115961e-01 4.763295162328313e-01 0.000000000000000e+00
2.362176930673610e-01 4.691851855661496e-01 0.000000000000000e+00
2.369461042662285e-01 4.628516322459607e-01 0.000000000000000e+00
2.380987825029314e-01 4.557207155839840e-01 0.000000000000000e+00
2.391970959041415e-01 4.492411351576404e-01 0.000000000000000e+00
2.404963751933712e-01 4.425373604214164e-01 0.000000000000000e+00
2.421587947347371e-01 4.356956595727066e-01 0.000000000000000e+00
2.434155171367723e-01 4.295244148027305e-01 0.000000000000000e+00
2.458190324505194e-01 4.225115682271343e-01 0.000000000000000e+00
2.472215281512354e-01 4.162611925823521e-01 0.000000000000000e+00
2.497406051489164e-01 4.097658982080218e-01 0.000000000000000e+00
2.520351452194131e-01 4.032685065998347e-01 0.000000000000000e+00
2.543391041196909e-01 3.970894345091883e-01 0.000000000000000e+00
2.574473039192242e-01 3.904800485282507e-01 0.000000000000000e+00
2.596558399749949e-01 3.851069914613499e-01 0.000000000000000e+00
2.627897561712524e-01 3.784100830703934e-01 0.000000000000000e+00
2.657769000600729e-01 3.726663561141135e-01 0.000000000000000e+00
2.689906715839036e-01 3.668562980027569e-01 0.000000000000000e+00
2.727358856685518e-01 3.604760798149685e-01 0.000000000000000e+00
2.758146709770166e-01 3.552343732023943e-01 0.000000000000000e+00
2.796793729912970e-01 3.492696020770526e-01 0.000000000000000e+00
2.834785264951125e-01 3.437554888711094e-01 0.000000000000000e+00
2.871777314319677e-01 3.385600652096062e-01 0.000000000000000e+00
2.916808567110353e-01 3.326710009015827e-01 0.000000000000000e+00
2.956881831754554e-01 3.275753932609155e-01 0.000000000000000e+00
2.998929808621616e-01 3.226068963063741e-01 0.000000000000000e+00
3.046940599975170e-01 3.172235213434221e-01 0.000000000000000e+00
3.092036763895119e-01 3.123245015542400e-01 0.000000000000000e+00
3.137034301143226e-01 3.077111124511637e-01 0.000000000000000e+00
3.187538780989432e-01 3.028733885029117e-01 0.000000000000000e+00
3.239433384162296e-01 2.980542352783979e-01 0.000000000000000e+00
3.286641915806453e-01 2.939147737022035e-01 0.000000000000000e+00
3.339227106598321e-01 2.895804547691906e-01 0.000000000000000e+00
3.395990406611302e-01 2.850345299421844e-01 0.000000000000000e+00
3.445387141381723e-01 2.814053474704735e-01 0.000000000000000e+00
3.501260930039480e-01 2.774292038213668e-01 0.000000000000000e+00
3.560522367787252e-01 2.733919467745355e-01 0.000000000000000e+00
3.613287416713500e-01 2.700785731052946e-01 0.000000000000000e+00
3.675275280964515e-01 2.663287341150096e-01 0.000000000000000e+00
3.731404221810069e-01 2.631734767085763e-01 0.000000000000000e+00
3.788994573310505e-01 2.600621507496089e-01 0.000000000000000e+00
3.854701356435405e-01 2.567532290327614e-01 0.000000000000000e+00
3.910189966102820e-01 2.543154539904983e-01 0.000000000000000e+00
3.975866138058766e-01 2.512123751131822e-01 0.000000000000000e+00
4.036273939480573e-01 2.487554019064440e-01 0.000000000000000e+00
4.100241319256785e-01 2.465292471524525e-01 0.000000000000000e+00
4.165883824008510e-01 2.439245256717957e-01 0.000000000000000e+00
4.227060297506628e-01 2.423019351371850e-01 0.000000000000000e+00
4.297254431307350e-01 2.398676855602818e-01 0.000000000000000e+00
4.357428111190276e-01 2.387100777532408e-01 0.000000000000000e+00
4.425028727760467e-01 2.369444003850914e-01 0.000000000000000e+00
4.493004232500743e-01 2.354767221616355e-01 0.000000000000000e+00
4.556809045142493e-01 2.343352203593121e-01 0.000000000000000e+00
4.627541923863353e-01 2.331674598814753e-01 0.000000000000000e+00
4.691439870049826e-01 2.323536836946400e-01 0.000000000000000e+00
4.762051598659494e-01 2.315576584744585e-01 0.000000000000000e+00
4.827290069367468e-01 2.310517526459461e-01 0.000000000000000e+00
4.896681879962030e-01 2.306453722676395e-01 0.000000000000000e+00
4.963697106246813e-01 2.304406445127697e-01 0.000000000000000e+00
5.032794150981725e-01 2.303991414561798e-01 0.000000000000000e+00
5.099904895140209e-01 2.305295225292816e-01 0.000000000000000e+00
5.169250779411048e-01 2.308688029023290e-01 0.000000000000000e+00
5.235251937408429e-01 2.313105158837817e-01 0.000000000000000e+00
5.304888935597537e-01 2.320043484262272e-01 0.000000000000000e+00
5.371139883699840e-01 2.327842046358035e-01 0.000000000000000e+00
5.439625937584271e-01 2.338434177583276e-01 0.000000000000000e+00
5.507003745348928e-01 2.350165833876365e-01 0.000000000000000e+00
5.571048192307737e-01 2.362342579841046e-01 0.000000000000000e+00
5.641102190971944e-01 2.379933463963422e-01 0.000000000000000e+00
5.700480374026072e-01 2.391135366511845e-01 0.000000000000000e+00
5.770753301796118e-01 2.414635344340313e-01 0.000000000000000e+00
5.832231757656015e-01 2.430511788427570e-01 0.000000000000000e+00
5.898723952828812e-01 2.454960758603649e-01 0.000000000000000e+00
5.961844949345192e-01 2.479082704729111e-01 0.000000000000000e+00
6.023899966968389e-01 2.500205708063172e-01 0.000000000000000e+00
6.088942507152577e-01 2.530908485648128e-01 0.000000000000000e+00
6.143756346474318e-01 2.553325617994605e-01 0.000000000000000e+00
6.211450930960083e-01 2.587600560903182e-01 0.000000000000000e+00
6.268668820458445e-01 2.617232663598019e-01 0.000000000000000e+00
6.326236857927898e-01 2.647982470878711e-01 0.000000000000000e+00
6.387578636167789e-01 2.683653121534638e-01 0.000000000000000e+00
6.439903012186526e-01 2.716349077869746e-01 0.000000000000000e+00
6.501404444535320e-01 2.756739703492173e-01 0.000000000000000e+00
6.556477240692282e-01 2.794158378744377e-01 0.000000000000000e+00
6.608305833896829e-01 2.832191689037283e-01 0.000000000000000e+00
6.664822975335063e-01 2.875702397169277e-01 0.000000000000000e+00
6.716744036381722e-01 2.917215390291650e-01 0.000000000000000e+00
6.768129717518947e-01 2.961494129666078e-01 0.000000000000000e+00
6.818875356916403e-01 3.006906914677477e-01 0.000000000000000e+00
6.867433860712969e-01 3.052442635399085e-01 0.000000000000000e+00
6.916342618799576e-01 3.101135802453309e-01 0.000000000000000e+00
6.962286520747589e-01 3.149081917793674e-01 0.000000000000000e+00
7.008576481133103e-01 3.199869575398386e-01 0.000000000000000e+00
7.053598438005182e-01 3.251706550901261e-01 0.000000000000000e+00
7.094843642644906e-01 3.302246663279622e-01 0.000000000000000e+00
7.138202426269207e-01 3.357577759607689e-01 0.000000000000000e+00
7.179281122945433e-01 3.412386869304277e-01 0.000000000000000e+00
7.214738134955265e-01 3.464115879800720e-01 0.000000000000000e+00
7.255687109356257e-01 3.525147729964235e-01 0.000000000000000e+00
7.290398929864552e-01 3.580044864624551e-01 0.000000000000000e+00
7.324951613633250e-01 3.637735562050195e-01 0.000000000000000e+00
7.360252467912850e-01 3.700427929706258e-01 0.000000000000000e+00
7.386244781126025e-01 3.752239751943794e-01 0.000000000000000e+00
7.420101665208222e-01 3.817961427158398e-01 0.000000000000000e+00
7.447671316483943e-01 3.877717021148653e-01 0.000000000000000e+00
7.474227473814341e-01 3.938695698950452e-01 0.000000000000000e+00
7.503187284109093e-01 4.005879610724732e-01 0.000000000000000e+00
7.520671293003931e-01 4.062168807789109e-01 0.000000000000000e+00
7.547752420016430e-01 4.130731120347348e-01 0.000000000000000e+00
7.565760582100879e-01 4.193213136302640e-01 0.000000000000000e+00
7.585426307502151e-01 4.258944373369092e-01 0.000000000000000e+00
7.605298170385603e-01 4.325256643446184e-01 0.000000000000000e+00
7.617757782920432e-01 4.390316895068868e-01 0.000000000000000e+00
7.636321771280300e-01 4.460418260661008e-01 0.000000000000000e+00
7.645056029508691e-01 4.522165713002919e-01 0.000000000000000e+00
7.657996311208010e-01 4.593215837416696e-01 0.000000000000000e+00
7.665901423298774e-01 4.658313698878259e-01 0.000000000000000e+00
7.674057544566815e-01 4.727459961970699e-01 0.000000000000000e+00
7.679691857393639e-01 4.794711700924539e-01 0.000000000000000e+00
7.684085687934695e-01 4.863138048265278e-01 0.000000000000000e+00
7.686561028776934e-01 4.931666999931408e-01 0.000000000000000e+00

POINT_DATA   249
SCALARS fNorm double
LOOKUP_TABLE default

1.786064e+01 
1.576962e+01 
1.921194e+01 
1.323688e+01 
2.318439e+01 
2.316730e+00 
4.076214e+01 
2.652549e+01 
7.931865e+01 
4.821784e+01 
6.898095e+01 
3.089617e-01 
6.741613e+00 
6.601049e+01 
4.912688e+01 
6.905214e+01 
2.609923e+00 
1.425150e+01 
3.023629e+01 
6.963754e+00 
3.071762e+01 
1.863174e+01 
1.599358e+01 
1.870224e+01 
6.719507e+00 
2.768526e+01 
1.491939e+01 
1.339797e+01 
2.052397e+01 
1.644864e+01 
1.686892e+01 
1.592601e+01 
2.026656e+01 
1.567808e+01 
1.274457e+01 
2.469785e+01 
1.263782e+01 
1.556974e+01 
2.372924e+01 
1.097000e+01 
1.516586e+01 
2.098533e+01 
2.455745e+01 
8.262839e+00 
6.384206e+00 
5.351940e+01 
3.430453e+01 
7.742551e+01 
2.457927e+01 
8.766919e+00 
6.669416e+01 
4.785912e+01 
9.062977e+01 
3.918267e+01 
3.983216e+01 
1.034503e+01 
1.304126e+01 
2.465704e+01 
1.220314e+01 
2.209080e+01 
1.215309e+01 
2.010928e+01 
1.731811e+01 
1.669632e+01 
1.908138e+01 
1.273797e+01 
2.375408e+01 
9.740885e+00 
2.506878e+01 
9.131392e+00 
2.389656e+01 
2.985762e+01 
4.271099e+01 
9.646099e+01 
5.094436e+01 
7.905123e+01 
2.962323e+01 
3.414443e+01 
3.786087e+01 
1.813560e+01 
3.493529e+01 
1.995925e+01 
1.090129e+01 
2.176140e+01 
1.117361e+01 
2.488463e+01 
1.433576e+01 
9.806217e+00 
2.768850e+01 
9.912892e+00 
1.994762e+01 
1.899735e+01 
1.088864e+01 
2.279083e+01 
1.892520e+01 
1.090605e+01 
1.775488e+01 
2.333592e+01 
9.403217e+00 
2.336211e+01 
1.009093e+01 
1.957153e+01 
2.872365e+01 
1.796745e-01 
1.788610e+01 
1.683081e+01 
2.891072e+01 
3.103679e+01 
3.209019e+01 
5.729248e+01 
1.173990e+01 
2.112883e+01 
9.951899e+01 
7.518672e+01 
8.798523e+01 
2.491073e+01 
3.252945e+01 
1.576042e+01 
5.264440e+00 
3.098583e+01 
5.931583e+00 
2.565936e+01 
1.098993e+01 
2.008170e+01 
1.543079e+01 
1.543079e+01 
2.008170e+01 
1.098993e+01 
2.565936e+01 
5.931583e+00 
3.098583e+01 
5.264440e+00 
1.576042e+01 
3.252945e+01 
2.491073e+01 
8.798523e+01 
7.518672e+01 
9.951899e+01 
2.112883e+01 
1.173990e+01 
5.729248e+01 
3.209019e+01 
3.103679e+01 
2.891072e+01 
1.683081e+01 
1.788610e+01 
1.796745e-01 
2.872365e+01 
1.957153e+01 
1.009093e+01 
2.336211e+01 
9.403217e+00 
2.333592e+01 
1.775488e+01 
1.090605e+01 
1.892520e+01 
2.279083e+01 
1.088864e+01 
1.899735e+01 
1.994762e+01 
9.912892e+00 
2.768850e+01 
9.806217e+00 
1.433576e+01 
2.488463e+01 
1.117361e+01 
2.176140e+01 
1.090129e+01 
1.995925e+01 
3.493529e+01 
1.813560e+01 
3.786087e+01 
3.414443e+01 
2.962323e+01 
7.905123e+01 
5.094436e+01 
9.646099e+01 
4.271099e+01 
2.985762e+01 
2.389656e+01 
9.131392e+00 
2.506878e+01 
9.740885e+00 
2.375408e+01 
1.273797e+01 
1.908138e+01 
1.669632e+01 
1.731811e+01 
2.010928e+01 
1.215309e+01 
2.209080e+01 
1.220314e+01 
2.465704e+01 
1.304126e+01 
1.034503e+01 
3.983216e+01 
3.918267e+01 
9.062977e+01 
4.785912e+01 
6.669416e+01 
8.766919e+00 
2.457927e+01 
7.742551e+01 
3.430453e+01 
5.351940e+01 
6.384206e+00 
8.262839e+00 
2.455745e+01 
2.098533e+01 
1.516586e+01 
1.097000e+01 
2.372924e+01 
1.556974e+01 
1.263782e+01 
2.469785e+01 
1.274457e+01 
1.567808e+01 
2.026656e+01 
1.592601e+01 
1.686892e+01 
1.644864e+01 
2.052397e+01 
1.339797e+01 
1.491939e+01 
2.768526e+01 
6.719507e+00 
1.870224e+01 
1.599358e+01 
1.863174e+01 
3.071762e+01 
6.963754e+00 
3.023629e+01 
1.425150e+01 
2.609923e+00 
6.905214e+01 
4.912688e+01 
6.601049e+01 
6.741613e+00 
3.089617e-01 
6.898095e+01 
4.821784e+01 
7.931865e+01 
2.652549e+01 
4.076214e+01 
2.316730e+00 
2.318439e+01 
1.323688e+01 
1.921194e+01 
1.576962e+01 
