# vtk DataFile Version 2.0
fNorm
ASCII
DATASET UNSTRUCTURED_GRID

FIELD FieldData 1
TIME 1 1 double
1.45000000
POINTS 249 float
7.682084893467666e-01 5.000000000001764e-01 0.000000000000000e+00
7.681271417440521e-01 5.069327338168753e-01 0.000000000000000e+00
7.678891960736924e-01 5.138888669281190e-01 0.000000000000000e+00
7.674687649782277e-01 5.208364284038358e-01 0.000000000000000e+00
7.669285325701097e-01 5.276644824510548e-01 0.000000000000000e+00
7.661296825179588e-01 5.347028498742677e-01 0.000000000000000e+00
7.653808057481003e-01 5.413027751856027e-01 0.000000000000000e+00
7.641427145427676e-01 5.485053025089618e-01 0.000000000000000e+00
7.633225137605169e-01 5.546875480581398e-01 0.000000000000000e+00
7.615361753941030e-01 5.619601218003889e-01 0.000000000000000e+00
7.603948134947613e-01 5.683484204639282e-01 0.000000000000000e+00
7.584352929817805e-01 5.752635478383209e-01 0.000000000000000e+00
7.565640730711888e-01 5.819207453733566e-01 0.000000000000000e+00
7.548045740308400e-01 5.882815387928926e-01 0.000000000000000e+00
7.522722815767595e-01 5.952819778432240e-01 0.000000000000000e+00
7.505892466168843e-01 6.008694676428992e-01 0.000000000000000e+00
7.477121937108027e-01 6.078710467926034e-01 0.000000000000000e+00
7.452345391432698e-01 6.139757990585701e-01 0.000000000000000e+00
7.425106906953514e-01 6.202375060222842e-01 0.000000000000000e+00
7.393499049736549e-01 6.267975858095601e-01 0.000000000000000e+00
7.366781418373264e-01 6.322979493747487e-01 0.000000000000000e+00
7.331880896381510e-01 6.387903381796328e-01 0.000000000000000e+00
7.299156624146609e-01 6.446054574547415e-01 0.000000000000000e+00
7.264628211331320e-01 6.504324082014314e-01 0.000000000000000e+00
7.225958628458631e-01 6.565204757245323e-01 0.000000000000000e+00
7.189916665402207e-01 6.619772202595213e-01 0.000000000000000e+00
7.149627304136686e-01 6.677135555148725e-01 0.000000000000000e+00
7.108239040614985e-01 6.732987444182861e-01 0.000000000000000e+00
7.067289319934336e-01 6.785835638215482e-01 0.000000000000000e+00
7.023161998102336e-01 6.839625959328081e-01 0.000000000000000e+00
6.977993217792638e-01 6.891738725646185e-01 0.000000000000000e+00
6.932447585088426e-01 6.942018537685052e-01 0.000000000000000e+00
6.884229322235862e-01 6.992717125026969e-01 0.000000000000000e+00
6.836078257961098e-01 7.040331446485073e-01 0.000000000000000e+00
6.786491655574860e-01 7.087187738315865e-01 0.000000000000000e+00
6.734898458643230e-01 7.133889222789269e-01 0.000000000000000e+00
6.683573212339522e-01 7.177522015086711e-01 0.000000000000000e+00
6.629117355401185e-01 7.221527050261599e-01 0.000000000000000e+00
6.575392580894432e-01 7.263042109731769e-01 0.000000000000000e+00
6.520751749311059e-01 7.302688569948156e-01 0.000000000000000e+00
6.461638658430069e-01 7.343374092982548e-01 0.000000000000000e+00
6.408746156382209e-01 7.377666248006283e-01 0.000000000000000e+00
6.347637947158650e-01 7.415277166676582e-01 0.000000000000000e+00
6.288105633094171e-01 7.449778308541066e-01 0.000000000000000e+00
6.230791950250164e-01 7.480950885223525e-01 0.000000000000000e+00
6.164714486590163e-01 7.515521027128669e-01 0.000000000000000e+00
6.111346425551021e-01 7.538452071439673e-01 0.000000000000000e+00
6.044782671838843e-01 7.570837088808047e-01 0.000000000000000e+00
5.984123838245036e-01 7.593393437153685e-01 0.000000000000000e+00
5.920432025347493e-01 7.618064440685886e-01 0.000000000000000e+00
5.852375516520818e-01 7.644416739591623e-01 0.000000000000000e+00
5.793148396466371e-01 7.661250003195075e-01 0.000000000000000e+00
5.721502592967003e-01 7.684590529868249e-01 0.000000000000000e+00
5.664243261184153e-01 7.696045783713202e-01 0.000000000000000e+00
5.593187381703246e-01 7.714606826796782e-01 0.000000000000000e+00
5.528885156569466e-01 7.727668134583117e-01 0.000000000000000e+00
5.460637518475889e-01 7.740089089734673e-01 0.000000000000000e+00
5.391504536619368e-01 7.751133090155417e-01 0.000000000000000e+00
5.324873270584001e-01 7.759313545494677e-01 0.000000000000000e+00
5.255063137308151e-01 7.766571469707769e-01 0.000000000000000e+00
5.188548676473418e-01 7.771114168960643e-01 0.000000000000000e+00
5.118541761951034e-01 7.774620337942403e-01 0.000000000000000e+00
5.050832124767783e-01 7.775847028643958e-01 0.000000000000000e+00
4.981482902407351e-01 7.775283401120898e-01 0.000000000000000e+00
4.913878303202077e-01 7.773054961453970e-01 0.000000000000000e+00
4.844060765271067e-01 7.768718764417700e-01 0.000000000000000e+00
4.777776946018914e-01 7.763273980282687e-01 0.000000000000000e+00
4.706934236776140e-01 7.754622812913644e-01 0.000000000000000e+00
4.642258667638821e-01 7.745814301628637e-01 0.000000000000000e+00
4.571438946931542e-01 7.733482127049883e-01 0.000000000000000e+00
4.507238409629842e-01 7.721840126922571e-01 0.000000000000000e+00
4.438487355873313e-01 7.705767893137548e-01 0.000000000000000e+00
4.371199904726398e-01 7.687361195404061e-01 0.000000000000000e+00
4.309847654008772e-01 7.673448561066004e-01 0.000000000000000e+00
4.239357944653012e-01 7.649158024829958e-01 0.000000000000000e+00
4.178660970543033e-01 7.631745130544015e-01 0.000000000000000e+00
4.112018054868429e-01 7.603293724279351e-01 0.000000000000000e+00
4.049511400483929e-01 7.580964857334050e-01 0.000000000000000e+00
3.986813389152083e-01 7.553788787371298e-01 0.000000000000000e+00
3.922564954016117e-01 7.522495807759840e-01 0.000000000000000e+00
3.865937217833184e-01 7.496012137757189e-01 0.000000000000000e+00
3.800836701725185e-01 7.461240265482099e-01 0.000000000000000e+00
3.744751046955861e-01 7.429628276705342e-01 0.000000000000000e+00
3.686081785240608e-01 7.394323758816350e-01 0.000000000000000e+00
3.625556559174076e-01 7.356100848323578e-01 0.000000000000000e+00
3.572870333308614e-01 7.321426643355885e-01 0.000000000000000e+00
3.514142235346224e-01 7.279214541977475e-01 0.000000000000000e+00
3.459455072655577e-01 7.238172457234160e-01 0.000000000000000e+00
3.407809217886226e-01 7.197554678190299e-01 0.000000000000000e+00
3.353430964047919e-01 7.152309164691103e-01 0.000000000000000e+00
3.302128561139615e-01 7.107617605954434e-01 0.000000000000000e+00
3.253014727646321e-01 7.061623861875519e-01 0.000000000000000e+00
3.203218309495716e-01 7.013507287345976e-01 0.000000000000000e+00
3.155108802621973e-01 6.964575712546535e-01 0.000000000000000e+00
3.108851444343498e-01 6.914532592188810e-01 0.000000000000000e+00
3.063394043397910e-01 6.863232507229797e-01 0.000000000000000e+00
3.018928035052011e-01 6.810061206881204e-01 0.000000000000000e+00
2.976041707593751e-01 6.756680080419091e-01 0.000000000000000e+00
2.935615506017342e-01 6.703249946285120e-01 0.000000000000000e+00
2.893707938047394e-01 6.645155422159327e-01 0.000000000000000e+00
2.856242223909172e-01 6.590011705702394e-01 0.000000000000000e+00
2.818934732860501e-01 6.532793347953907e-01 0.000000000000000e+00
2.781132190517183e-01 6.471762951625192e-01 0.000000000000000e+00
2.750639960001089e-01 6.417312509846034e-01 0.000000000000000e+00
2.715548256871377e-01 6.353822798135501e-01 0.000000000000000e+00
2.683533056174703e-01 6.292865866802704e-01 0.000000000000000e+00
2.654850768883625e-01 6.233958740071333e-01 0.000000000000000e+00
2.623825302746152e-01 6.165995673816821e-01 0.000000000000000e+00
2.601798652500718e-01 6.110608596338605e-01 0.000000000000000e+00
2.572844103100603e-01 6.043633782960505e-01 0.000000000000000e+00
2.550242808856560e-01 5.979954098194783e-01 0.000000000000000e+00
2.528808434546160e-01 5.915048943187150e-01 0.000000000000000e+00
2.503319019938167e-01 5.846409758252025e-01 0.000000000000000e+00
2.490425723271904e-01 5.786307340757307e-01 0.000000000000000e+00
2.468206472807344e-01 5.714023127647933e-01 0.000000000000000e+00
2.456027437006697e-01 5.651996791898156e-01 0.000000000000000e+00
2.439933304328152e-01 5.582702063020332e-01 0.000000000000000e+00
2.427160916176833e-01 5.514551562743905e-01 0.000000000000000e+00
2.416558542857225e-01 5.448595619101110e-01 0.000000000000000e+00
2.405345673337862e-01 5.376191580414560e-01 0.000000000000000e+00
2.398500689477134e-01 5.312008299562401e-01 0.000000000000000e+00
2.391195959836892e-01 5.239929174723950e-01 0.000000000000000e+00
2.386987196147991e-01 5.173834824398913e-01 0.000000000000000e+00
2.383372549535637e-01 5.103179860562771e-01 0.000000000000000e+00
2.381894555061938e-01 5.034871704592324e-01 0.000000000000000e+00
2.381894555062000e-01 4.965128295425559e-01 0.000000000000000e+00
2.383372549535618e-01 4.896820139454992e-01 0.000000000000000e+00
2.386987196147619e-01 4.826165175619048e-01 0.000000000000000e+00
2.391195959836329e-01 4.760070825294122e-01 0.000000000000000e+00
2.398500689476497e-01 4.687991700455347e-01 0.000000000000000e+00
2.405345673337518e-01 4.623808419602617e-01 0.000000000000000e+00
2.416558542856639e-01 4.551404380916268e-01 0.000000000000000e+00
2.427160916176086e-01 4.485448437273515e-01 0.000000000000000e+00
2.439933304326754e-01 4.417297936997482e-01 0.000000000000000e+00
2.456027437005468e-01 4.348003208119440e-01 0.000000000000000e+00
2.468206472805602e-01 4.285976872370345e-01 0.000000000000000e+00
2.490425723270447e-01 4.213692659260559e-01 0.000000000000000e+00
2.503319019937469e-01 4.153590241764122e-01 0.000000000000000e+00
2.528808434544645e-01 4.084951056829886e-01 0.000000000000000e+00
2.550242808855634e-01 4.020045901821733e-01 0.000000000000000e+00
2.572844103098804e-01 3.956366217057220e-01 0.000000000000000e+00
2.601798652499054e-01 3.889391403677941e-01 0.000000000000000e+00
2.623825302744504e-01 3.834004326200287e-01 0.000000000000000e+00
2.654850768881424e-01 3.766041259946199e-01 0.000000000000000e+00
2.683533056173368e-01 3.707134133213242e-01 0.000000000000000e+00
2.715548256869019e-01 3.646177201881843e-01 0.000000000000000e+00
2.750639959999434e-01 3.582687490170242e-01 0.000000000000000e+00
2.781132190515335e-01 3.528237048391062e-01 0.000000000000000e+00
2.818934732857978e-01 3.467206652063151e-01 0.000000000000000e+00
2.856242223907517e-01 3.409988294313400e-01 0.000000000000000e+00
2.893707938044879e-01 3.354844577857438e-01 0.000000000000000e+00
2.935615506014906e-01 3.296750053731402e-01 0.000000000000000e+00
2.976041707591737e-01 3.243319919596760e-01 0.000000000000000e+00
3.018928035049256e-01 3.189938793135388e-01 0.000000000000000e+00
3.063394043395604e-01 3.136767492786290e-01 0.000000000000000e+00
3.108851444340994e-01 3.085467407827263e-01 0.000000000000000e+00
3.155108802619156e-01 3.035424287469685e-01 0.000000000000000e+00
3.203218309493119e-01 2.986492712669986e-01 0.000000000000000e+00
3.253014727643772e-01 2.938376138140262e-01 0.000000000000000e+00
3.302128561136787e-01 2.892382394061551e-01 0.000000000000000e+00
3.353430964044924e-01 2.847690835324731e-01 0.000000000000000e+00
3.407809217883774e-01 2.802445321825133e-01 0.000000000000000e+00
3.459455072652790e-01 2.761827542781340e-01 0.000000000000000e+00
3.514142235343094e-01 2.720785458038261e-01 0.000000000000000e+00
3.572870333305585e-01 2.678573356659583e-01 0.000000000000000e+00
3.625556559171249e-01 2.643899151691689e-01 0.000000000000000e+00
3.686081785237497e-01 2.605676241198913e-01 0.000000000000000e+00
3.744751046952907e-01 2.570371723309628e-01 0.000000000000000e+00
3.800836701721746e-01 2.538759734533079e-01 0.000000000000000e+00
3.865937217830194e-01 2.503987862257760e-01 0.000000000000000e+00
3.922564954013150e-01 2.477504192255034e-01 0.000000000000000e+00
3.986813389148645e-01 2.446211212643340e-01 0.000000000000000e+00
4.049511400480791e-01 2.419035142680517e-01 0.000000000000000e+00
4.112018054865414e-01 2.396706275735194e-01 0.000000000000000e+00
4.178660970539767e-01 2.368254869470294e-01 0.000000000000000e+00
4.239357944649783e-01 2.350841975184333e-01 0.000000000000000e+00
4.309847654005510e-01 2.326551438948019e-01 0.000000000000000e+00
4.371199904723178e-01 2.312638804609808e-01 0.000000000000000e+00
4.438487355870132e-01 2.294232106876325e-01 0.000000000000000e+00
4.507238409626433e-01 2.278159873091434e-01 0.000000000000000e+00
4.571438946928222e-01 2.266517872963766e-01 0.000000000000000e+00
4.642258667635741e-01 2.254185698384858e-01 0.000000000000000e+00
4.706934236772723e-01 2.245377187099888e-01 0.000000000000000e+00
4.777776946015832e-01 2.236726019730588e-01 0.000000000000000e+00
4.844060765267647e-01 2.231281235595655e-01 0.000000000000000e+00
4.913878303198758e-01 2.226945038559258e-01 0.000000000000000e+00
4.981482902403984e-01 2.224716598892239e-01 0.000000000000000e+00
5.050832124764434e-01 2.224152971368972e-01 0.000000000000000e+00
5.118541761947794e-01 2.225379662070534e-01 0.000000000000000e+00
5.188548676470095e-01 2.228885831052248e-01 0.000000000000000e+00
5.255063137305013e-01 2.233428530305097e-01 0.000000000000000e+00
5.324873270580731e-01 2.240686454518001e-01 0.000000000000000e+00
5.391504536616398e-01 2.248866909857238e-01 0.000000000000000e+00
5.460637518472709e-01 2.259910910277820e-01 0.000000000000000e+00
5.528885156566440e-01 2.272331865429435e-01 0.000000000000000e+00
5.593187381700354e-01 2.285393173215715e-01 0.000000000000000e+00
5.664243261180987e-01 2.303954216299086e-01 0.000000000000000e+00
5.721502592964581e-01 2.315409470144155e-01 0.000000000000000e+00
5.793148396463890e-01 2.338749996817432e-01 0.000000000000000e+00
5.852375516518783e-01 2.355583260420782e-01 0.000000000000000e+00
5.920432025344888e-01 2.381935559326508e-01 0.000000000000000e+00
5.984123838242811e-01 2.406606562858782e-01 0.000000000000000e+00
6.044782671836998e-01 2.429162911204239e-01 0.000000000000000e+00
6.111346425548908e-01 2.461547928572664e-01 0.000000000000000e+00
6.164714486588131e-01 2.484478972883512e-01 0.000000000000000e+00
6.230791950248356e-01 2.519049114788791e-01 0.000000000000000e+00
6.288105633092630e-01 2.550221691471333e-01 0.000000000000000e+00
6.347637947156792e-01 2.584722833335536e-01 0.000000000000000e+00
6.408746156380380e-01 2.622333752005676e-01 0.000000000000000e+00
6.461638658428114e-01 2.656625907029257e-01 0.000000000000000e+00
6.520751749309645e-01 2.697311430063987e-01 0.000000000000000e+00
6.575392580893100e-01 2.736957890280429e-01 0.000000000000000e+00
6.629117355399650e-01 2.778472949750242e-01 0.000000000000000e+00
6.683573212338009e-01 2.822477984925092e-01 0.000000000000000e+00
6.734898458641881e-01 2.866110777222587e-01 0.000000000000000e+00
6.786491655573346e-01 2.912812261695910e-01 0.000000000000000e+00
6.836078257959605e-01 2.959668553526480e-01 0.000000000000000e+00
6.884229322234563e-01 3.007282874984787e-01 0.000000000000000e+00
6.932447585086881e-01 3.057981462326430e-01 0.000000000000000e+00
6.977993217791421e-01 3.108261274365411e-01 0.000000000000000e+00
7.023161998101103e-01 3.160374040683668e-01 0.000000000000000e+00
7.067289319933165e-01 3.214164361796044e-01 0.000000000000000e+00
7.108239040613635e-01 3.267012555828575e-01 0.000000000000000e+00
7.149627304135618e-01 3.322864444863033e-01 0.000000000000000e+00
7.189916665400984e-01 3.380227797416165e-01 0.000000000000000e+00
7.225958628457340e-01 3.434795242766034e-01 0.000000000000000e+00
7.264628211330495e-01 3.495675917997635e-01 0.000000000000000e+00
7.299156624145162e-01 3.553945425463614e-01 0.000000000000000e+00
7.331880896380653e-01 3.612096618215584e-01 0.000000000000000e+00
7.366781418372180e-01 3.677020506264019e-01 0.000000000000000e+00
7.393499049735380e-01 3.732024141915608e-01 0.000000000000000e+00
7.425106906952547e-01 3.797624939788981e-01 0.000000000000000e+00
7.452345391431211e-01 3.860242009425170e-01 0.000000000000000e+00
7.477121937107329e-01 3.921289532085855e-01 0.000000000000000e+00
7.505892466167723e-01 3.991305323582436e-01 0.000000000000000e+00
7.522722815766748e-01 4.047180221579457e-01 0.000000000000000e+00
7.548045740307865e-01 4.117184612083233e-01 0.000000000000000e+00
7.565640730710868e-01 4.180792546278053e-01 0.000000000000000e+00
7.584352929816984e-01 4.247364521628318e-01 0.000000000000000e+00
7.603948134946454e-01 4.316515795371893e-01 0.000000000000000e+00
7.615361753940481e-01 4.380398782008077e-01 0.000000000000000e+00
7.633225137604635e-01 4.453124519430291e-01 0.000000000000000e+00
7.641427145427249e-01 4.514946974922372e-01 0.000000000000000e+00
7.653808057480779e-01 4.586972248156261e-01 0.000000000000000e+00
7.661296825179249e-01 4.652971501269178e-01 0.000000000000000e+00
7.669285325700821e-01 4.723355175500594e-01 0.000000000000000e+00
7.674687649782009e-01 4.791635715973299e-01 0.000000000000000e+00
7.678891960736832e-01 4.861111330732607e-01 0.000000000000000e+00
7.681271417440534e-01 4.930672661847185e-01 0.000000000000000e+00

POINT_DATA   249
SCALARS fNorm double
LOOKUP_TABLE default

1.626916e+01 
1.560176e+01 
1.826841e+01 
1.278232e+01 
2.372039e+01 
2.179567e-02 
3.983521e+01 
2.579595e+01 
7.411302e+01 
4.453467e+01 
6.771963e+01 
1.492062e+00 
2.797897e+00 
5.401450e+01 
3.566269e+01 
6.410213e+01 
3.053382e+00 
1.660791e+01 
2.726482e+01 
2.114252e+00 
2.744734e+01 
1.354053e+01 
1.503020e+01 
2.161742e+01 
1.224017e+01 
1.933791e+01 
1.775517e+01 
1.464086e+01 
1.896346e+01 
1.877619e+01 
1.497549e+01 
1.673544e+01 
2.111047e+01 
1.542731e+01 
1.475952e+01 
2.129552e+01 
1.710623e+01 
1.499924e+01 
2.044812e+01 
1.731026e+01 
1.852534e+01 
1.575824e+01 
1.860734e+01 
1.814650e+01 
1.122340e+01 
4.974404e+01 
3.058050e+01 
6.682100e+01 
9.000233e+00 
8.621392e-02 
6.177424e+01 
2.576534e+01 
7.725440e+01 
3.776341e+01 
3.819108e+01 
1.373629e+01 
1.506414e+01 
2.484582e+01 
1.274140e+01 
2.420861e+01 
1.240267e+01 
2.199277e+01 
1.798281e+01 
1.700043e+01 
1.999757e+01 
1.359038e+01 
2.723430e+01 
9.441098e+00 
2.534397e+01 
4.776538e+00 
3.408461e+01 
2.622392e+01 
2.912237e+01 
7.424721e+01 
3.587615e+01 
8.370462e+01 
4.184312e+01 
4.437448e+01 
3.090771e+01 
1.052858e+01 
3.595107e+01 
1.559680e+01 
1.888482e+01 
1.509396e+01 
1.260108e+01 
2.772403e+01 
1.448075e+01 
1.515938e+01 
1.876611e+01 
1.571611e+01 
2.433285e+01 
1.067407e+01 
1.766378e+01 
2.107537e+01 
1.436537e+01 
1.972101e+01 
1.354687e+01 
1.969907e+01 
1.578593e+01 
1.943606e+01 
1.281083e+01 
1.625982e+01 
2.942764e+01 
3.733206e+00 
1.505788e+01 
2.047346e+01 
1.735948e+01 
3.297852e+01 
1.938252e+01 
4.700226e+01 
1.500966e+01 
2.587795e+01 
9.631858e+01 
5.891286e+01 
7.181263e+01 
2.297496e+01 
3.015569e+01 
1.760874e+01 
4.012296e+00 
3.252764e+01 
3.582342e+00 
2.588267e+01 
8.535874e+00 
2.049264e+01 
1.493265e+01 
1.493265e+01 
2.049264e+01 
8.535874e+00 
2.588267e+01 
3.582342e+00 
3.252764e+01 
4.012296e+00 
1.760874e+01 
3.015569e+01 
2.297496e+01 
7.181263e+01 
5.891286e+01 
9.631858e+01 
2.587795e+01 
1.500966e+01 
4.700226e+01 
1.938252e+01 
3.297852e+01 
1.735948e+01 
2.047346e+01 
1.505788e+01 
3.733206e+00 
2.942764e+01 
1.625982e+01 
1.281083e+01 
1.943606e+01 
1.578593e+01 
1.969907e+01 
1.354687e+01 
1.972101e+01 
1.436537e+01 
2.107537e+01 
1.766378e+01 
1.067407e+01 
2.433285e+01 
1.571611e+01 
1.876611e+01 
1.515938e+01 
1.448075e+01 
2.772403e+01 
1.260108e+01 
1.509396e+01 
1.888482e+01 
1.559680e+01 
3.595107e+01 
1.052858e+01 
3.090771e+01 
4.437448e+01 
4.184312e+01 
8.370462e+01 
3.587615e+01 
7.424721e+01 
2.912237e+01 
2.622392e+01 
3.408461e+01 
4.776538e+00 
2.534397e+01 
9.441098e+00 
2.723430e+01 
1.359038e+01 
1.999757e+01 
1.700043e+01 
1.798281e+01 
2.199277e+01 
1.240267e+01 
2.420861e+01 
1.274140e+01 
2.484582e+01 
1.506414e+01 
1.373629e+01 
3.819108e+01 
3.776341e+01 
7.725440e+01 
2.576534e+01 
6.177424e+01 
8.621392e-02 
9.000233e+00 
6.682100e+01 
3.058050e+01 
4.974404e+01 
1.122340e+01 
1.814650e+01 
1.860734e+01 
1.575824e+01 
1.852534e+01 
1.731026e+01 
2.044812e+01 
1.499924e+01 
1.710623e+01 
2.129552e+01 
1.475952e+01 
1.542731e+01 
2.111047e+01 
1.673544e+01 
1.497549e+01 
1.877619e+01 
1.896346e+01 
1.464086e+01 
1.775517e+01 
1.933791e+01 
1.224017e+01 
2.161742e+01 
1.503020e+01 
1.354053e+01 
2.744734e+01 
2.114252e+00 
2.726482e+01 
1.660791e+01 
3.053381e+00 
6.410213e+01 
3.566269e+01 
5.401450e+01 
2.797897e+00 
1.492062e+00 
6.771963e+01 
4.453467e+01 
7.411302e+01 
2.579595e+01 
3.983521e+01 
2.179567e-02 
2.372039e+01 
1.278232e+01 
1.826841e+01 
1.560176e+01 
