# vtk DataFile Version 2.0
fTan
ASCII
DATASET UNSTRUCTURED_GRID

FIELD FieldData 1
TIME 1 1 double
1.20000000
POINTS 249 float
7.703132815546091e-01 5.000000000000087e-01 0.000000000000000e+00
7.702315783071128e-01 5.070138305827258e-01 0.000000000000000e+00
7.699813615146767e-01 5.140517237798823e-01 0.000000000000000e+00
7.695502712724057e-01 5.210772998315253e-01 0.000000000000000e+00
7.690098520027445e-01 5.279847990462468e-01 0.000000000000000e+00
7.682030586761440e-01 5.351236292738798e-01 0.000000000000000e+00
7.674272942242791e-01 5.417964873866857e-01 0.000000000000000e+00
7.661560954095762e-01 5.490819666028472e-01 0.000000000000000e+00
7.653055227864668e-01 5.552893081033942e-01 0.000000000000000e+00
7.635574450424695e-01 5.627009599535127e-01 0.000000000000000e+00
7.624158449522792e-01 5.689565412876706e-01 0.000000000000000e+00
7.604029815517960e-01 5.760464327724473e-01 0.000000000000000e+00
7.585336888943286e-01 5.827403312264667e-01 0.000000000000000e+00
7.566397387354655e-01 5.892375572870072e-01 0.000000000000000e+00
7.541637837517534e-01 5.962183511377586e-01 0.000000000000000e+00
7.523684045988734e-01 6.019460757370068e-01 0.000000000000000e+00
7.494864325078332e-01 6.090014380525200e-01 0.000000000000000e+00
7.469848433416508e-01 6.150972958041756e-01 0.000000000000000e+00
7.441236267472997e-01 6.215135621229962e-01 0.000000000000000e+00
7.410105685096590e-01 6.280056261366254e-01 0.000000000000000e+00
7.382095300680416e-01 6.337592926414796e-01 0.000000000000000e+00
7.346978180925964e-01 6.402179640682194e-01 0.000000000000000e+00
7.313248004218984e-01 6.461093462987345e-01 0.000000000000000e+00
7.277926096751057e-01 6.520465408919746e-01 0.000000000000000e+00
7.239784769781396e-01 6.580561977953443e-01 0.000000000000000e+00
7.202346546624574e-01 6.636455216717622e-01 0.000000000000000e+00
7.161683187171032e-01 6.693813826008677e-01 0.000000000000000e+00
7.119567947851518e-01 6.750122206052817e-01 0.000000000000000e+00
7.077432321639301e-01 6.804098839824363e-01 0.000000000000000e+00
7.034079535904724e-01 6.856735784250774e-01 0.000000000000000e+00
6.987594776435313e-01 6.909793183540118e-01 0.000000000000000e+00
6.940585265398213e-01 6.961346334946807e-01 0.000000000000000e+00
6.893884769941003e-01 7.010122987422259e-01 0.000000000000000e+00
6.844169129714324e-01 7.058699391800528e-01 0.000000000000000e+00
6.792939064913598e-01 7.106983497404162e-01 0.000000000000000e+00
6.742278572950603e-01 7.152393663253864e-01 0.000000000000000e+00
6.689901168034887e-01 7.196421589051293e-01 0.000000000000000e+00
6.634182131566569e-01 7.241071713311583e-01 0.000000000000000e+00
6.580289516732225e-01 7.282319055472674e-01 0.000000000000000e+00
6.524850411462674e-01 7.322466270489794e-01 0.000000000000000e+00
6.466428647693038e-01 7.362141777071450e-01 0.000000000000000e+00
6.411520054852957e-01 7.397177775938388e-01 0.000000000000000e+00
6.349608087394765e-01 7.435115282463630e-01 0.000000000000000e+00
6.290181900361461e-01 7.469647912906169e-01 0.000000000000000e+00
6.231551481966240e-01 7.501449229254078e-01 0.000000000000000e+00
6.165612937634934e-01 7.534795505022236e-01 0.000000000000000e+00
6.110872723793973e-01 7.558574160096064e-01 0.000000000000000e+00
6.043255718478614e-01 7.591146688985212e-01 0.000000000000000e+00
5.983151955125227e-01 7.614128365502841e-01 0.000000000000000e+00
5.918751177854011e-01 7.638658842411049e-01 0.000000000000000e+00
5.850033271865418e-01 7.664166546326819e-01 0.000000000000000e+00
5.790184924556965e-01 7.681796831748816e-01 0.000000000000000e+00
5.717960889731917e-01 7.704945790956450e-01 0.000000000000000e+00
5.660774889958031e-01 7.716794242878454e-01 0.000000000000000e+00
5.588879678301193e-01 7.735217620630778e-01 0.000000000000000e+00
5.524306196798749e-01 7.748029360296762e-01 0.000000000000000e+00
5.455676271160168e-01 7.760493480188528e-01 0.000000000000000e+00
5.386258222651532e-01 7.771474459788902e-01 0.000000000000000e+00
5.318974038258841e-01 7.779748742559874e-01 0.000000000000000e+00
5.248665430893706e-01 7.787032472580190e-01 0.000000000000000e+00
5.181695511996333e-01 7.791502667457202e-01 0.000000000000000e+00
5.111423255701206e-01 7.794959011243942e-01 0.000000000000000e+00
5.043245517136282e-01 7.796208851021554e-01 0.000000000000000e+00
4.973410950835118e-01 7.795738693994780e-01 0.000000000000000e+00
4.905242905444094e-01 7.793533960250438e-01 0.000000000000000e+00
4.835235452772702e-01 7.789102745502714e-01 0.000000000000000e+00
4.768374353161352e-01 7.783658877668884e-01 0.000000000000000e+00
4.697393557382774e-01 7.775032820153053e-01 0.000000000000000e+00
4.632036435517409e-01 7.766370403188748e-01 0.000000000000000e+00
4.560846248561210e-01 7.754032456177736e-01 0.000000000000000e+00
4.496085427753864e-01 7.742306454873678e-01 0.000000000000000e+00
4.426678537965813e-01 7.725852501060826e-01 0.000000000000000e+00
4.359036395953265e-01 7.707905969482990e-01 0.000000000000000e+00
4.297117910336724e-01 7.693394694523977e-01 0.000000000000000e+00
4.226597714161613e-01 7.669945874082464e-01 0.000000000000000e+00
4.166839556649939e-01 7.652313091773830e-01 0.000000000000000e+00
4.097341044340678e-01 7.623465907328101e-01 0.000000000000000e+00
4.036618965720560e-01 7.602376411963666e-01 0.000000000000000e+00
3.971639495832122e-01 7.573658398404400e-01 0.000000000000000e+00
3.908130148010170e-01 7.542682523616934e-01 0.000000000000000e+00
3.850032077116632e-01 7.515907088996212e-01 0.000000000000000e+00
3.785589413174251e-01 7.482233202110377e-01 0.000000000000000e+00
3.729417318193191e-01 7.450918225390177e-01 0.000000000000000e+00
3.668177483451115e-01 7.413690910468974e-01 0.000000000000000e+00
3.607908832786509e-01 7.375638615148551e-01 0.000000000000000e+00
3.553356236554947e-01 7.340110906942473e-01 0.000000000000000e+00
3.495334597827228e-01 7.299187460189984e-01 0.000000000000000e+00
3.440542108237226e-01 7.258176575332651e-01 0.000000000000000e+00
3.387148486585332e-01 7.216078154177757e-01 0.000000000000000e+00
3.332442779728261e-01 7.171367323500922e-01 0.000000000000000e+00
3.280986343303308e-01 7.126459631966605e-01 0.000000000000000e+00
3.231340987143150e-01 7.080489653954729e-01 0.000000000000000e+00
3.180111838561074e-01 7.031369558572447e-01 0.000000000000000e+00
3.131566467772933e-01 6.982097370887654e-01 0.000000000000000e+00
3.085668050971243e-01 6.932794626129909e-01 0.000000000000000e+00
3.038784506429483e-01 6.880377551070093e-01 0.000000000000000e+00
2.994140571151009e-01 6.827278799015815e-01 0.000000000000000e+00
2.951183024279005e-01 6.773861221540164e-01 0.000000000000000e+00
2.909273519473988e-01 6.719213331490417e-01 0.000000000000000e+00
2.867786206384638e-01 6.661744775795003e-01 0.000000000000000e+00
2.829119381460103e-01 6.605127440863394e-01 0.000000000000000e+00
2.791259904518663e-01 6.547591872125027e-01 0.000000000000000e+00
2.753664731615612e-01 6.486987556249164e-01 0.000000000000000e+00
2.721612761433294e-01 6.430167842909236e-01 0.000000000000000e+00
2.686861416115520e-01 6.367418506604050e-01 0.000000000000000e+00
2.653617060110270e-01 6.304928585357672e-01 0.000000000000000e+00
2.624688729511810e-01 6.245502814306871e-01 0.000000000000000e+00
2.593806895690809e-01 6.177848699589986e-01 0.000000000000000e+00
2.570546379200725e-01 6.120097578645691e-01 0.000000000000000e+00
2.541918647053363e-01 6.053172819774575e-01 0.000000000000000e+00
2.517931415297362e-01 5.988037659291141e-01 0.000000000000000e+00
2.496787644501598e-01 5.924077007125763e-01 0.000000000000000e+00
2.471424115025667e-01 5.853019412675176e-01 0.000000000000000e+00
2.458121177192893e-01 5.794253916391935e-01 0.000000000000000e+00
2.436309961737426e-01 5.721457497607816e-01 0.000000000000000e+00
2.423147684058125e-01 5.658738806674473e-01 0.000000000000000e+00
2.407042012842044e-01 5.588633302444834e-01 0.000000000000000e+00
2.393988280729362e-01 5.519829131901853e-01 0.000000000000000e+00
2.383250883003180e-01 5.453248101431384e-01 0.000000000000000e+00
2.371925088388475e-01 5.380276195659062e-01 0.000000000000000e+00
2.365013845290827e-01 5.315208630207323e-01 0.000000000000000e+00
2.357525787606458e-01 5.242609573919061e-01 0.000000000000000e+00
2.353294009892037e-01 5.175639666803871e-01 0.000000000000000e+00
2.349638562961509e-01 5.104346888021783e-01 0.000000000000000e+00
2.348162839674627e-01 5.035232883949115e-01 0.000000000000000e+00
2.348162839674577e-01 4.964767116061760e-01 0.000000000000000e+00
2.349638562961404e-01 4.895653111988931e-01 0.000000000000000e+00
2.353294009891864e-01 4.824360333206994e-01 0.000000000000000e+00
2.357525787606250e-01 4.757390426091828e-01 0.000000000000000e+00
2.365013845290441e-01 4.684791369803443e-01 0.000000000000000e+00
2.371925088388185e-01 4.619723804351450e-01 0.000000000000000e+00
2.383250883002812e-01 4.546751898579185e-01 0.000000000000000e+00
2.393988280729024e-01 4.480170868108608e-01 0.000000000000000e+00
2.407042012841349e-01 4.411366697565960e-01 0.000000000000000e+00
2.423147684057431e-01 4.341261193336192e-01 0.000000000000000e+00
2.436309961736410e-01 4.278542502403314e-01 0.000000000000000e+00
2.458121177192133e-01 4.205746083618833e-01 0.000000000000000e+00
2.471424115025105e-01 4.146980587335019e-01 0.000000000000000e+00
2.496787644500632e-01 4.075922992884927e-01 0.000000000000000e+00
2.517931415296939e-01 4.011962340718702e-01 0.000000000000000e+00
2.541918647052454e-01 3.946827180235914e-01 0.000000000000000e+00
2.570546379199943e-01 3.879902421364559e-01 0.000000000000000e+00
2.593806895689889e-01 3.822151300420688e-01 0.000000000000000e+00
2.624688729510757e-01 3.754497185703584e-01 0.000000000000000e+00
2.653617060109523e-01 3.695071414652237e-01 0.000000000000000e+00
2.686861416114416e-01 3.632581493406390e-01 0.000000000000000e+00
2.721612761432459e-01 3.569832157100824e-01 0.000000000000000e+00
2.753664731614603e-01 3.513012443761102e-01 0.000000000000000e+00
2.791259904517467e-01 3.452408127885326e-01 0.000000000000000e+00
2.829119381459110e-01 3.394872559146607e-01 0.000000000000000e+00
2.867786206383345e-01 3.338255224215352e-01 0.000000000000000e+00
2.909273519472813e-01 3.280786668519700e-01 0.000000000000000e+00
2.951183024277857e-01 3.226138778469836e-01 0.000000000000000e+00
2.994140571149719e-01 3.172721200994309e-01 0.000000000000000e+00
3.038784506428118e-01 3.119622448939874e-01 0.000000000000000e+00
3.085668050969831e-01 3.067205373880205e-01 0.000000000000000e+00
3.131566467771625e-01 3.017902629122210e-01 0.000000000000000e+00
3.180111838559581e-01 2.968630441437390e-01 0.000000000000000e+00
3.231340987141507e-01 2.919510346055178e-01 0.000000000000000e+00
3.280986343301782e-01 2.873540368043169e-01 0.000000000000000e+00
3.332442779726621e-01 2.828632676508736e-01 0.000000000000000e+00
3.387148486583447e-01 2.783921845832080e-01 0.000000000000000e+00
3.440542108235450e-01 2.741823424677013e-01 0.000000000000000e+00
3.495334597825652e-01 2.700812539819440e-01 0.000000000000000e+00
3.553356236553234e-01 2.659889093066830e-01 0.000000000000000e+00
3.607908832784681e-01 2.624361384860920e-01 0.000000000000000e+00
3.668177483449023e-01 2.586309089540466e-01 0.000000000000000e+00
3.729417318191448e-01 2.549081774618992e-01 0.000000000000000e+00
3.785589413172374e-01 2.517766797898817e-01 0.000000000000000e+00
3.850032077114599e-01 2.484092911012802e-01 0.000000000000000e+00
3.908130148008085e-01 2.457317476392212e-01 0.000000000000000e+00
3.971639495829816e-01 2.426341601604696e-01 0.000000000000000e+00
4.036618965718508e-01 2.397623588045323e-01 0.000000000000000e+00
4.097341044338427e-01 2.376534092680910e-01 0.000000000000000e+00
4.166839556647811e-01 2.347686908234904e-01 0.000000000000000e+00
4.226597714159464e-01 2.330054125926078e-01 0.000000000000000e+00
4.297117910334385e-01 2.306605305484820e-01 0.000000000000000e+00
4.359036395950917e-01 2.292094030525636e-01 0.000000000000000e+00
4.426678537963621e-01 2.274147498947555e-01 0.000000000000000e+00
4.496085427751410e-01 2.257693545134855e-01 0.000000000000000e+00
4.560846248558915e-01 2.245967543830521e-01 0.000000000000000e+00
4.632036435515292e-01 2.233629596819444e-01 0.000000000000000e+00
4.697393557380325e-01 2.224967179855166e-01 0.000000000000000e+00
4.768374353159109e-01 2.216341122339108e-01 0.000000000000000e+00
4.835235452770226e-01 2.210897254505297e-01 0.000000000000000e+00
4.905242905441699e-01 2.206466039757438e-01 0.000000000000000e+00
4.973410950832627e-01 2.204261306013070e-01 0.000000000000000e+00
5.043245517133719e-01 2.203791148986161e-01 0.000000000000000e+00
5.111423255698718e-01 2.205040988763754e-01 0.000000000000000e+00
5.181695511993744e-01 2.208497332550380e-01 0.000000000000000e+00
5.248665430891284e-01 2.212967527427253e-01 0.000000000000000e+00
5.318974038256248e-01 2.220251257447567e-01 0.000000000000000e+00
5.386258222649192e-01 2.228525540218529e-01 0.000000000000000e+00
5.455676271157620e-01 2.239506519818660e-01 0.000000000000000e+00
5.524306196796289e-01 2.251970639710369e-01 0.000000000000000e+00
5.588879678298839e-01 2.264782379376353e-01 0.000000000000000e+00
5.660774889955521e-01 2.283205757128615e-01 0.000000000000000e+00
5.717960889729804e-01 2.295054209050649e-01 0.000000000000000e+00
5.790184924554901e-01 2.318203168258268e-01 0.000000000000000e+00
5.850033271863271e-01 2.335833453679854e-01 0.000000000000000e+00
5.918751177851858e-01 2.361341157595885e-01 0.000000000000000e+00
5.983151955123104e-01 2.385871634503934e-01 0.000000000000000e+00
6.043255718476666e-01 2.408853311021565e-01 0.000000000000000e+00
6.110872723791945e-01 2.441425839910774e-01 0.000000000000000e+00
6.165612937633030e-01 2.465204494984460e-01 0.000000000000000e+00
6.231551481964208e-01 2.498550770752476e-01 0.000000000000000e+00
6.290181900359533e-01 2.530352087100521e-01 0.000000000000000e+00
6.349608087392835e-01 2.564884717543018e-01 0.000000000000000e+00
6.411520054851215e-01 2.602822224068326e-01 0.000000000000000e+00
6.466428647691194e-01 2.637858222935077e-01 0.000000000000000e+00
6.524850411460752e-01 2.677533729516591e-01 0.000000000000000e+00
6.580289516730443e-01 2.717680944533821e-01 0.000000000000000e+00
6.634182131564810e-01 2.758928286694915e-01 0.000000000000000e+00
6.689901168033259e-01 2.803578410955103e-01 0.000000000000000e+00
6.742278572948881e-01 2.847606336752463e-01 0.000000000000000e+00
6.792939064911939e-01 2.893016502602250e-01 0.000000000000000e+00
6.844169129712760e-01 2.941300608205733e-01 0.000000000000000e+00
6.893884769939447e-01 2.989877012584055e-01 0.000000000000000e+00
6.940585265396612e-01 3.038653665059377e-01 0.000000000000000e+00
6.987594776433921e-01 3.090206816466110e-01 0.000000000000000e+00
7.034079535903138e-01 3.143264215755340e-01 0.000000000000000e+00
7.077432321638024e-01 3.195901160181825e-01 0.000000000000000e+00
7.119567947850197e-01 3.249877793953301e-01 0.000000000000000e+00
7.161683187169701e-01 3.306186173997410e-01 0.000000000000000e+00
7.202346546623357e-01 3.363544783288504e-01 0.000000000000000e+00
7.239784769780147e-01 3.419438022052527e-01 0.000000000000000e+00
7.277926096750020e-01 3.479534591086448e-01 0.000000000000000e+00
7.313248004217705e-01 3.538906537018377e-01 0.000000000000000e+00
7.346978180924867e-01 3.597820359323791e-01 0.000000000000000e+00
7.382095300679403e-01 3.662407073591241e-01 0.000000000000000e+00
7.410105685095539e-01 3.719943738639521e-01 0.000000000000000e+00
7.441236267472140e-01 3.784864378775908e-01 0.000000000000000e+00
7.469848433415383e-01 3.849027041963780e-01 0.000000000000000e+00
7.494864325077534e-01 3.909985619480681e-01 0.000000000000000e+00
7.523684045987942e-01 3.980539242635812e-01 0.000000000000000e+00
7.541637837516920e-01 4.037816488628259e-01 0.000000000000000e+00
7.566397387354163e-01 4.107624427135837e-01 0.000000000000000e+00
7.585336888942575e-01 4.172596687741003e-01 0.000000000000000e+00
7.604029815517356e-01 4.239535672281158e-01 0.000000000000000e+00
7.624158449522117e-01 4.310434587128701e-01 0.000000000000000e+00
7.635574450424338e-01 4.372990400470807e-01 0.000000000000000e+00
7.653055227864449e-01 4.447106918971937e-01 0.000000000000000e+00
7.661560954095578e-01 4.509180333977579e-01 0.000000000000000e+00
7.674272942242660e-01 4.582035126139303e-01 0.000000000000000e+00
7.682030586761218e-01 4.648763707267031e-01 0.000000000000000e+00
7.690098520027314e-01 4.720152009542844e-01 0.000000000000000e+00
7.695502712723949e-01 4.789227001690528e-01 0.000000000000000e+00
7.699813615146733e-01 4.859482762208453e-01 0.000000000000000e+00
7.702315783071113e-01 4.929861694181448e-01 0.000000000000000e+00

POINT_DATA   249
SCALARS fTan double
LOOKUP_TABLE default

8.531893e-08 
2.803892e+00 
3.548889e-01 
1.101886e+01 
2.557076e+01 
4.664921e+01 
6.780359e+01 
1.130416e+02 
1.351238e+02 
1.256573e+02 
1.012409e+02 
4.201092e+01 
1.823629e+01 
6.395182e+01 
1.404625e+02 
1.620206e+02 
1.032115e+02 
4.361667e+01 
1.745791e+01 
8.005984e+01 
9.526232e+01 
5.630370e+01 
1.197866e+01 
2.094390e+01 
3.905400e+01 
3.037315e+01 
5.876046e-02 
1.840894e+01 
2.834830e+00 
2.349017e+01 
7.725196e+00 
2.239718e+01 
1.979960e+01 
8.896743e+00 
2.364351e+01 
3.909686e+00 
2.977608e+01 
3.536363e+01 
5.835837e+00 
2.171638e+01 
5.486370e+01 
7.476567e+01 
3.880001e+01 
2.031609e+01 
7.191940e+01 
1.421452e+02 
1.537394e+02 
1.071477e+02 
4.566619e+01 
4.384798e+01 
1.091419e+02 
1.345244e+02 
1.746608e+02 
1.582139e+02 
8.389067e+01 
3.920480e+01 
5.286442e+00 
2.490349e+01 
2.893948e+01 
3.566431e+01 
3.238365e+01 
2.168216e+01 
1.647077e+01 
1.632575e+01 
1.944037e+01 
3.065317e+01 
4.421363e+01 
5.574366e+01 
6.323870e+01 
6.437530e+01 
5.518592e+01 
1.348299e+01 
6.386521e+01 
1.073083e+02 
1.201254e+02 
1.296019e+02 
1.097230e+02 
6.768254e+01 
3.823283e+00 
6.689301e+01 
8.741543e+01 
8.400119e+01 
7.357439e+01 
3.913323e+00 
6.174268e+01 
5.900730e+01 
2.561707e+01 
4.464483e+00 
2.658897e+01 
2.356094e+01 
6.368052e+00 
3.313351e+01 
1.804023e+01 
1.809438e+01 
2.964778e+01 
9.524896e+00 
8.251022e+00 
3.203884e+00 
2.011087e+01 
2.318105e+01 
3.134689e+00 
2.443855e+01 
6.082970e+01 
6.493040e+01 
9.471386e+00 
4.690314e+01 
8.276723e+01 
1.211277e+02 
1.053179e+02 
3.380281e+01 
2.047189e+01 
8.084782e+01 
1.522410e+02 
1.575098e+02 
1.191957e+02 
7.847458e+01 
1.900663e+01 
2.590543e+01 
6.404414e+01 
8.414613e+01 
7.550679e+01 
5.881919e+01 
4.283074e+01 
2.256962e+01 
1.336079e+01 
1.336079e+01 
2.256962e+01 
4.283074e+01 
5.881919e+01 
7.550679e+01 
8.414613e+01 
6.404414e+01 
2.590543e+01 
1.900663e+01 
7.847458e+01 
1.191957e+02 
1.575098e+02 
1.522410e+02 
8.084782e+01 
2.047189e+01 
3.380281e+01 
1.053179e+02 
1.211277e+02 
8.276723e+01 
4.690314e+01 
9.471386e+00 
6.493040e+01 
6.082970e+01 
2.443855e+01 
3.134689e+00 
2.318105e+01 
2.011087e+01 
3.203884e+00 
8.251022e+00 
9.524896e+00 
2.964778e+01 
1.809438e+01 
1.804023e+01 
3.313351e+01 
6.368052e+00 
2.356094e+01 
2.658897e+01 
4.464483e+00 
2.561707e+01 
5.900730e+01 
6.174268e+01 
3.913323e+00 
7.357439e+01 
8.400119e+01 
8.741543e+01 
6.689301e+01 
3.823283e+00 
6.768254e+01 
1.097230e+02 
1.296019e+02 
1.201254e+02 
1.073083e+02 
6.386521e+01 
1.348299e+01 
5.518592e+01 
6.437530e+01 
6.323870e+01 
5.574366e+01 
4.421363e+01 
3.065317e+01 
1.944037e+01 
1.632575e+01 
1.647077e+01 
2.168216e+01 
3.238365e+01 
3.566431e+01 
2.893948e+01 
2.490349e+01 
5.286442e+00 
3.920480e+01 
8.389067e+01 
1.582139e+02 
1.746608e+02 
1.345244e+02 
1.091419e+02 
4.384798e+01 
4.566619e+01 
1.071477e+02 
1.537394e+02 
1.421452e+02 
7.191940e+01 
2.031609e+01 
3.880001e+01 
7.476567e+01 
5.486370e+01 
2.171638e+01 
5.835837e+00 
3.536363e+01 
2.977608e+01 
3.909686e+00 
2.364351e+01 
8.896743e+00 
1.979960e+01 
2.239718e+01 
7.725196e+00 
2.349017e+01 
2.834830e+00 
1.840894e+01 
5.876046e-02 
3.037315e+01 
3.905400e+01 
2.094390e+01 
1.197866e+01 
5.630370e+01 
9.526232e+01 
8.005984e+01 
1.745791e+01 
4.361667e+01 
1.032115e+02 
1.620206e+02 
1.404625e+02 
6.395182e+01 
1.823629e+01 
4.201092e+01 
1.012409e+02 
1.256573e+02 
1.351238e+02 
1.130416e+02 
6.780359e+01 
4.664921e+01 
2.557076e+01 
1.101886e+01 
3.548889e-01 
2.803892e+00 
