# vtk DataFile Version 2.0
fTan
ASCII
DATASET UNSTRUCTURED_GRID

FIELD FieldData 1
TIME 1 1 double
1.19000000
POINTS 249 float
7.682218319710618e-01 5.000000000000087e-01 0.000000000000000e+00
7.681431911857021e-01 5.070224420752232e-01 0.000000000000000e+00
7.678993473936576e-01 5.140701823623188e-01 0.000000000000000e+00
7.674791223985330e-01 5.211052140960371e-01 0.000000000000000e+00
7.669517152689072e-01 5.280196059068912e-01 0.000000000000000e+00
7.661600681471509e-01 5.351659598062055e-01 0.000000000000000e+00
7.654047785788817e-01 5.418394780738257e-01 0.000000000000000e+00
7.641619510796903e-01 5.491373649524285e-01 0.000000000000000e+00
7.633386070869255e-01 5.553410720317564e-01 0.000000000000000e+00
7.616176669131661e-01 5.627815136244843e-01 0.000000000000000e+00
7.605038883836666e-01 5.690343656252810e-01 0.000000000000000e+00
7.585277250386604e-01 5.761568754440302e-01 0.000000000000000e+00
7.567024098929963e-01 5.828706320616892e-01 0.000000000000000e+00
7.548495328257735e-01 5.893895104337488e-01 0.000000000000000e+00
7.524171151969735e-01 5.964096763779070e-01 0.000000000000000e+00
7.506541056480017e-01 6.021553470455284e-01 0.000000000000000e+00
7.478167816212967e-01 6.092528033438077e-01 0.000000000000000e+00
7.453619748405553e-01 6.153782817140349e-01 0.000000000000000e+00
7.425586775010642e-01 6.218258390109624e-01 0.000000000000000e+00
7.395050651972421e-01 6.283580853817295e-01 0.000000000000000e+00
7.367471395223330e-01 6.341508222539781e-01 0.000000000000000e+00
7.332859096719547e-01 6.406558111737002e-01 0.000000000000000e+00
7.299706879256426e-01 6.465879836983304e-01 0.000000000000000e+00
7.265064619184277e-01 6.525568861891958e-01 0.000000000000000e+00
7.227527763712509e-01 6.586159746590979e-01 0.000000000000000e+00
7.190672634078306e-01 6.642571890496318e-01 0.000000000000000e+00
7.150622711948501e-01 6.700456771904044e-01 0.000000000000000e+00
7.109045211883046e-01 6.757378329629120e-01 0.000000000000000e+00
7.067589608368573e-01 6.811825097308858e-01 0.000000000000000e+00
7.024772472219283e-01 6.865072300736856e-01 0.000000000000000e+00
6.978776743452451e-01 6.918828169274316e-01 0.000000000000000e+00
6.932484280511251e-01 6.970819933058762e-01 0.000000000000000e+00
6.886321978009756e-01 7.020162671974994e-01 0.000000000000000e+00
6.837003037655501e-01 7.069529152547720e-01 0.000000000000000e+00
6.786460462724566e-01 7.118289952615493e-01 0.000000000000000e+00
6.736325260611795e-01 7.164264512436143e-01 0.000000000000000e+00
6.684278768507492e-01 7.209024653752285e-01 0.000000000000000e+00
6.629193515209323e-01 7.254216261170063e-01 0.000000000000000e+00
6.575797282232607e-01 7.296047943834129e-01 0.000000000000000e+00
6.520772518561629e-01 7.336786897849465e-01 0.000000000000000e+00
6.462732315757725e-01 7.377091895905793e-01 0.000000000000000e+00
6.408056686860474e-01 7.412885418842154e-01 0.000000000000000e+00
6.346617851852652e-01 7.451450210198720e-01 0.000000000000000e+00
6.287558805827417e-01 7.486514380596385e-01 0.000000000000000e+00
6.229211930013039e-01 7.518773996875403e-01 0.000000000000000e+00
6.163637010136781e-01 7.552707797220541e-01 0.000000000000000e+00
6.108852288511307e-01 7.577177199659885e-01 0.000000000000000e+00
6.041605652306699e-01 7.610282562332369e-01 0.000000000000000e+00
5.981562655196784e-01 7.633795798381758e-01 0.000000000000000e+00
5.917333221164999e-01 7.658770643203918e-01 0.000000000000000e+00
5.848868293994874e-01 7.684690707587964e-01 0.000000000000000e+00
5.788969892538057e-01 7.702826324501980e-01 0.000000000000000e+00
5.717050841108257e-01 7.726315384219283e-01 0.000000000000000e+00
5.659772338529786e-01 7.738557521670435e-01 0.000000000000000e+00
5.588106877201271e-01 7.757319373264159e-01 0.000000000000000e+00
5.523641685097532e-01 7.770408591253087e-01 0.000000000000000e+00
5.455128015344813e-01 7.783137728779430e-01 0.000000000000000e+00
5.385820939058591e-01 7.794320018186079e-01 0.000000000000000e+00
5.318523276141718e-01 7.802791554882137e-01 0.000000000000000e+00
5.248220092329048e-01 7.810218545213747e-01 0.000000000000000e+00
5.181190092356343e-01 7.814786372589837e-01 0.000000000000000e+00
5.110881539957390e-01 7.818279559770637e-01 0.000000000000000e+00
5.042639486724575e-01 7.819543805946468e-01 0.000000000000000e+00
4.972754129618835e-01 7.819062120084413e-01 0.000000000000000e+00
4.904511621804380e-01 7.816780283445761e-01 0.000000000000000e+00
4.834459453408646e-01 7.812222973442047e-01 0.000000000000000e+00
4.767539654504011e-01 7.806613303839258e-01 0.000000000000000e+00
4.696610634544085e-01 7.797800355257060e-01 0.000000000000000e+00
4.631267993217522e-01 7.788915359137037e-01 0.000000000000000e+00
4.560188950536605e-01 7.776284981795195e-01 0.000000000000000e+00
4.495506944620553e-01 7.764215667230943e-01 0.000000000000000e+00
4.426272772566714e-01 7.747406579003476e-01 0.000000000000000e+00
4.358835681266044e-01 7.729135328272452e-01 0.000000000000000e+00
4.296918667227198e-01 7.714167490228890e-01 0.000000000000000e+00
4.226727559637893e-01 7.690273248247661e-01 0.000000000000000e+00
4.167024045790897e-01 7.672148356042650e-01 0.000000000000000e+00
4.097721334654051e-01 7.642831884083437e-01 0.000000000000000e+00
4.037265214630562e-01 7.621270456160968e-01 0.000000000000000e+00
3.972528760131311e-01 7.591929871702822e-01 0.000000000000000e+00
3.909460232169159e-01 7.560450160775664e-01 0.000000000000000e+00
3.851379087362476e-01 7.533001716679099e-01 0.000000000000000e+00
3.787162871569603e-01 7.498659314214469e-01 0.000000000000000e+00
3.731282495360754e-01 7.466861482344682e-01 0.000000000000000e+00
3.670381755567589e-01 7.429011356475033e-01 0.000000000000000e+00
3.610632618404863e-01 7.390389796926455e-01 0.000000000000000e+00
3.556317540211404e-01 7.354099721002759e-01 0.000000000000000e+00
3.498731823745947e-01 7.312547094079874e-01 0.000000000000000e+00
3.444562120223044e-01 7.271065390578578e-01 0.000000000000000e+00
3.391664489335735e-01 7.228329063266187e-01 0.000000000000000e+00
3.337423583663023e-01 7.182922615857560e-01 0.000000000000000e+00
3.286438376821870e-01 7.137414693758539e-01 0.000000000000000e+00
3.237305835041829e-01 7.090846246169796e-01 0.000000000000000e+00
3.186623544442364e-01 7.041115450865092e-01 0.000000000000000e+00
3.138516054155162e-01 6.991168043240046e-01 0.000000000000000e+00
3.093190512805911e-01 6.941315068213882e-01 0.000000000000000e+00
3.046932036438333e-01 6.888372477891097e-01 0.000000000000000e+00
3.002809108750672e-01 6.834716190548693e-01 0.000000000000000e+00
2.960460944871944e-01 6.780818195340431e-01 0.000000000000000e+00
2.919122345544157e-01 6.725627561285173e-01 0.000000000000000e+00
2.878219714759936e-01 6.667680098203025e-01 0.000000000000000e+00
2.840212102091090e-01 6.610708940101515e-01 0.000000000000000e+00
2.802895610779428e-01 6.552667267254051e-01 0.000000000000000e+00
2.765855489789223e-01 6.491604401553565e-01 0.000000000000000e+00
2.734337570009388e-01 6.434365852426595e-01 0.000000000000000e+00
2.700201381603940e-01 6.371184942109759e-01 0.000000000000000e+00
2.667618613480133e-01 6.308376730265042e-01 0.000000000000000e+00
2.639180239165515e-01 6.248586199079276e-01 0.000000000000000e+00
2.608814900453500e-01 6.180618721092895e-01 0.000000000000000e+00
2.586010583708356e-01 6.122597296343374e-01 0.000000000000000e+00
2.557963517247459e-01 6.055269871165281e-01 0.000000000000000e+00
2.534516264132975e-01 5.989914742039304e-01 0.000000000000000e+00
2.513853206969456e-01 5.925866446517185e-01 0.000000000000000e+00
2.488867960270482e-01 5.854375833501337e-01 0.000000000000000e+00
2.475938260979637e-01 5.795728073355810e-01 0.000000000000000e+00
2.454600134854546e-01 5.722671238806724e-01 0.000000000000000e+00
2.441824404162810e-01 5.659907108558865e-01 0.000000000000000e+00
2.426056177886309e-01 5.589551634165147e-01 0.000000000000000e+00
2.413288328593598e-01 5.520569025046967e-01 0.000000000000000e+00
2.402768719451909e-01 5.453850780710284e-01 0.000000000000000e+00
2.391656157026583e-01 5.380702026814087e-01 0.000000000000000e+00
2.384953913983722e-01 5.315566428847501e-01 0.000000000000000e+00
2.377649398493229e-01 5.242867612555219e-01 0.000000000000000e+00
2.373532341988115e-01 5.175827408942948e-01 0.000000000000000e+00
2.369924083298492e-01 5.104440625675867e-01 0.000000000000000e+00
2.368471862723157e-01 5.035261557035563e-01 0.000000000000000e+00
2.368471862723103e-01 4.964738442975085e-01 0.000000000000000e+00
2.369924083298378e-01 4.895559374334620e-01 0.000000000000000e+00
2.373532341987934e-01 4.824172591067684e-01 0.000000000000000e+00
2.377649398493011e-01 4.757132387455439e-01 0.000000000000000e+00
2.384953913983327e-01 4.684433571163051e-01 0.000000000000000e+00
2.391656157026274e-01 4.619297973196209e-01 0.000000000000000e+00
2.402768719451510e-01 4.546149219300091e-01 0.000000000000000e+00
2.413288328593243e-01 4.479430974963283e-01 0.000000000000000e+00
2.426056177885592e-01 4.410448365845433e-01 0.000000000000000e+00
2.441824404162088e-01 4.340092891451588e-01 0.000000000000000e+00
2.454600134853504e-01 4.277328761204193e-01 0.000000000000000e+00
2.475938260978841e-01 4.204271926654767e-01 0.000000000000000e+00
2.488867960269846e-01 4.145624166508671e-01 0.000000000000000e+00
2.513853206968404e-01 4.074133553493294e-01 0.000000000000000e+00
2.534516264132466e-01 4.010085257970320e-01 0.000000000000000e+00
2.557963517246470e-01 3.944730128844997e-01 0.000000000000000e+00
2.586010583707467e-01 3.877402703666679e-01 0.000000000000000e+00
2.608814900452469e-01 3.819381278917570e-01 0.000000000000000e+00
2.639180239164349e-01 3.751413800930968e-01 0.000000000000000e+00
2.667618613479244e-01 3.691623269744653e-01 0.000000000000000e+00
2.700201381602712e-01 3.628815057900437e-01 0.000000000000000e+00
2.734337570008420e-01 3.565634147583244e-01 0.000000000000000e+00
2.765855489788098e-01 3.508395598456456e-01 0.000000000000000e+00
2.802895610778083e-01 3.447332732756078e-01 0.000000000000000e+00
2.840212102089930e-01 3.389291059908239e-01 0.000000000000000e+00
2.878219714758484e-01 3.332319901807082e-01 0.000000000000000e+00
2.919122345542811e-01 3.274372438724736e-01 0.000000000000000e+00
2.960460944870691e-01 3.219181804669321e-01 0.000000000000000e+00
3.002809108749288e-01 3.165283809461177e-01 0.000000000000000e+00
3.046932036436865e-01 3.111627522118635e-01 0.000000000000000e+00
3.093190512804471e-01 3.058684931795949e-01 0.000000000000000e+00
3.138516054153838e-01 3.008831956769581e-01 0.000000000000000e+00
3.186623544440854e-01 2.958884549144541e-01 0.000000000000000e+00
3.237305835040290e-01 2.909153753839859e-01 0.000000000000000e+00
3.286438376820463e-01 2.862585306251002e-01 0.000000000000000e+00
3.337423583661437e-01 2.817077384151894e-01 0.000000000000000e+00
3.391664489333954e-01 2.771670936743447e-01 0.000000000000000e+00
3.444562120221398e-01 2.728934609430844e-01 0.000000000000000e+00
3.498731823744515e-01 2.687452905929326e-01 0.000000000000000e+00
3.556317540209816e-01 2.645900279006397e-01 0.000000000000000e+00
3.610632618403211e-01 2.609610203082862e-01 0.000000000000000e+00
3.670381755565714e-01 2.570988643534232e-01 0.000000000000000e+00
3.731282495359230e-01 2.533138517664275e-01 0.000000000000000e+00
3.787162871567912e-01 2.501340685794471e-01 0.000000000000000e+00
3.851379087360648e-01 2.466998283329656e-01 0.000000000000000e+00
3.909460232167234e-01 2.439549839233242e-01 0.000000000000000e+00
3.972528760129129e-01 2.408070128306047e-01 0.000000000000000e+00
4.037265214628594e-01 2.378729543847770e-01 0.000000000000000e+00
4.097721334651865e-01 2.357168115925301e-01 0.000000000000000e+00
4.167024045788817e-01 2.327851643965834e-01 0.000000000000000e+00
4.226727559635810e-01 2.309726751760639e-01 0.000000000000000e+00
4.296918667224927e-01 2.285832509779648e-01 0.000000000000000e+00
4.358835681263780e-01 2.270864671735889e-01 0.000000000000000e+00
4.426272772564611e-01 2.252593421004587e-01 0.000000000000000e+00
4.495506944618194e-01 2.235784332777275e-01 0.000000000000000e+00
4.560188950534391e-01 2.223715018212762e-01 0.000000000000000e+00
4.631267993215465e-01 2.211084640870867e-01 0.000000000000000e+00
4.696610634541671e-01 2.202199644750847e-01 0.000000000000000e+00
4.767539654501781e-01 2.193386696168434e-01 0.000000000000000e+00
4.834459453406176e-01 2.187777026565667e-01 0.000000000000000e+00
4.904511621802017e-01 2.183219716561815e-01 0.000000000000000e+00
4.972754129616389e-01 2.180937879923136e-01 0.000000000000000e+00
5.042639486722069e-01 2.180456194060964e-01 0.000000000000000e+00
5.110881539954956e-01 2.181720440236791e-01 0.000000000000000e+00
5.181190092353819e-01 2.185213627417486e-01 0.000000000000000e+00
5.248220092326681e-01 2.189781454793454e-01 0.000000000000000e+00
5.318523276139167e-01 2.197208445125087e-01 0.000000000000000e+00
5.385820939056279e-01 2.205679981821148e-01 0.000000000000000e+00
5.455128015342279e-01 2.216862271227577e-01 0.000000000000000e+00
5.523641685095085e-01 2.229591408753858e-01 0.000000000000000e+00
5.588106877198937e-01 2.242680626742783e-01 0.000000000000000e+00
5.659772338527312e-01 2.261442478336428e-01 0.000000000000000e+00
5.717050841106179e-01 2.273684615787634e-01 0.000000000000000e+00
5.788969892536037e-01 2.297173675504948e-01 0.000000000000000e+00
5.848868293992779e-01 2.315309292418567e-01 0.000000000000000e+00
5.917333221162903e-01 2.341229356802847e-01 0.000000000000000e+00
5.981562655194743e-01 2.366204201624867e-01 0.000000000000000e+00
6.041605652304816e-01 2.389717437674286e-01 0.000000000000000e+00
6.108852288509340e-01 2.422822800346820e-01 0.000000000000000e+00
6.163637010134950e-01 2.447292202786004e-01 0.000000000000000e+00
6.229211930011137e-01 2.481226003131006e-01 0.000000000000000e+00
6.287558805825624e-01 2.513485619410162e-01 0.000000000000000e+00
6.346617851850875e-01 2.548549789807800e-01 0.000000000000000e+00
6.408056686858908e-01 2.587114581164417e-01 0.000000000000000e+00
6.462732315756085e-01 2.622908104100605e-01 0.000000000000000e+00
6.520772518559887e-01 2.663213102156801e-01 0.000000000000000e+00
6.575797282230962e-01 2.703952056172226e-01 0.000000000000000e+00
6.629193515207701e-01 2.745783738836283e-01 0.000000000000000e+00
6.684278768506015e-01 2.790975346253979e-01 0.000000000000000e+00
6.736325260610248e-01 2.835735487570050e-01 0.000000000000000e+00
6.786460462723098e-01 2.881710047390784e-01 0.000000000000000e+00
6.837003037654127e-01 2.930470847458412e-01 0.000000000000000e+00
6.886321978008431e-01 2.979837328031194e-01 0.000000000000000e+00
6.932484280509869e-01 3.029180066947298e-01 0.000000000000000e+00
6.978776743451282e-01 3.081171830731768e-01 0.000000000000000e+00
7.024772472217943e-01 3.134927699269111e-01 0.000000000000000e+00
7.067589608367516e-01 3.188174902697153e-01 0.000000000000000e+00
7.109045211881956e-01 3.242621670376812e-01 0.000000000000000e+00
7.150622711947398e-01 3.299543228101873e-01 0.000000000000000e+00
7.190672634077324e-01 3.357428109509623e-01 0.000000000000000e+00
7.227527763711498e-01 3.413840253414808e-01 0.000000000000000e+00
7.265064619183501e-01 3.474431138114047e-01 0.000000000000000e+00
7.299706879255405e-01 3.534120163022243e-01 0.000000000000000e+00
7.332859096718686e-01 3.593441888268791e-01 0.000000000000000e+00
7.367471395222528e-01 3.658491777466064e-01 0.000000000000000e+00
7.395050651971590e-01 3.716419146188289e-01 0.000000000000000e+00
7.425586775009981e-01 3.781741609896054e-01 0.000000000000000e+00
7.453619748404623e-01 3.846217182865009e-01 0.000000000000000e+00
7.478167816212349e-01 3.907471966567644e-01 0.000000000000000e+00
7.506541056479371e-01 3.978446529550446e-01 0.000000000000000e+00
7.524171151969256e-01 4.035903236226656e-01 0.000000000000000e+00
7.548495328257370e-01 4.106104895668308e-01 0.000000000000000e+00
7.567024098929336e-01 4.171293679388662e-01 0.000000000000000e+00
7.585277250386079e-01 4.238431245565229e-01 0.000000000000000e+00
7.605038883836032e-01 4.309656343752487e-01 0.000000000000000e+00
7.616176669131343e-01 4.372184863760976e-01 0.000000000000000e+00
7.633386070869047e-01 4.446589279688208e-01 0.000000000000000e+00
7.641619510796736e-01 4.508626350481654e-01 0.000000000000000e+00
7.654047785788692e-01 4.581605219267794e-01 0.000000000000000e+00
7.661600681471290e-01 4.648340401943654e-01 0.000000000000000e+00
7.669517152688941e-01 4.719803940936302e-01 0.000000000000000e+00
7.674791223985210e-01 4.788947859045282e-01 0.000000000000000e+00
7.678993473936547e-01 4.859298176383926e-01 0.000000000000000e+00
7.681431911857008e-01 4.929775579256272e-01 0.000000000000000e+00

POINT_DATA   249
SCALARS fTan double
LOOKUP_TABLE default

8.330414e-08 
2.907739e+00 
4.388790e-01 
1.131021e+01 
2.556298e+01 
4.739532e+01 
6.871200e+01 
1.145069e+02 
1.380365e+02 
1.286059e+02 
1.041501e+02 
4.341320e+01 
1.803702e+01 
6.528264e+01 
1.419812e+02 
1.634902e+02 
1.044528e+02 
4.315945e+01 
1.801598e+01 
7.949796e+01 
9.529934e+01 
5.728708e+01 
1.056532e+01 
2.263028e+01 
3.892123e+01 
3.005334e+01 
1.002979e+00 
2.057188e+01 
1.052923e+00 
2.421529e+01 
1.134471e+01 
2.044266e+01 
2.212009e+01 
4.476442e+00 
2.205725e+01 
6.231441e+00 
2.604099e+01 
3.419638e+01 
6.336799e+00 
2.198033e+01 
5.312684e+01 
7.189502e+01 
3.855810e+01 
2.012895e+01 
7.164297e+01 
1.383877e+02 
1.495471e+02 
1.047980e+02 
4.431121e+01 
4.292968e+01 
1.062910e+02 
1.307411e+02 
1.710812e+02 
1.551198e+02 
8.303074e+01 
3.905648e+01 
5.172893e+00 
2.374789e+01 
2.865688e+01 
3.509466e+01 
3.209876e+01 
2.141746e+01 
1.633347e+01 
1.606452e+01 
1.919810e+01 
3.045817e+01 
4.320639e+01 
5.530469e+01 
6.249720e+01 
6.394093e+01 
5.448841e+01 
1.377236e+01 
6.168174e+01 
1.045639e+02 
1.175374e+02 
1.287186e+02 
1.106705e+02 
6.895201e+01 
5.872452e+00 
6.247569e+01 
8.584330e+01 
8.529442e+01 
7.411859e+01 
5.599975e+00 
5.821419e+01 
5.689857e+01 
2.784701e+01 
2.238833e+00 
2.733778e+01 
2.397210e+01 
6.458167e+00 
3.310850e+01 
1.658376e+01 
1.970471e+01 
2.927346e+01 
8.365167e+00 
9.238687e+00 
4.112454e+00 
1.973539e+01 
2.443857e+01 
5.171713e+00 
2.416398e+01 
6.077744e+01 
6.470600e+01 
1.056596e+01 
4.548045e+01 
8.233548e+01 
1.210328e+02 
1.059443e+02 
3.503182e+01 
2.135449e+01 
8.433164e+01 
1.570313e+02 
1.606258e+02 
1.206875e+02 
8.050352e+01 
1.947013e+01 
2.612046e+01 
6.445642e+01 
8.511159e+01 
7.585413e+01 
5.899502e+01 
4.311517e+01 
2.283906e+01 
1.328861e+01 
1.328861e+01 
2.283906e+01 
4.311517e+01 
5.899502e+01 
7.585413e+01 
8.511159e+01 
6.445642e+01 
2.612046e+01 
1.947013e+01 
8.050352e+01 
1.206875e+02 
1.606258e+02 
1.570313e+02 
8.433164e+01 
2.135449e+01 
3.503182e+01 
1.059443e+02 
1.210328e+02 
8.233548e+01 
4.548045e+01 
1.056596e+01 
6.470600e+01 
6.077744e+01 
2.416398e+01 
5.171713e+00 
2.443857e+01 
1.973539e+01 
4.112454e+00 
9.238687e+00 
8.365167e+00 
2.927346e+01 
1.970471e+01 
1.658376e+01 
3.310850e+01 
6.458167e+00 
2.397210e+01 
2.733778e+01 
2.238833e+00 
2.784701e+01 
5.689857e+01 
5.821419e+01 
5.599975e+00 
7.411859e+01 
8.529442e+01 
8.584330e+01 
6.247569e+01 
5.872452e+00 
6.895201e+01 
1.106705e+02 
1.287186e+02 
1.175374e+02 
1.045639e+02 
6.168174e+01 
1.377236e+01 
5.448841e+01 
6.394093e+01 
6.249720e+01 
5.530469e+01 
4.320639e+01 
3.045817e+01 
1.919810e+01 
1.606452e+01 
1.633347e+01 
2.141746e+01 
3.209876e+01 
3.509466e+01 
2.865688e+01 
2.374789e+01 
5.172893e+00 
3.905648e+01 
8.303074e+01 
1.551198e+02 
1.710812e+02 
1.307411e+02 
1.062910e+02 
4.292968e+01 
4.431121e+01 
1.047980e+02 
1.495471e+02 
1.383877e+02 
7.164297e+01 
2.012895e+01 
3.855810e+01 
7.189502e+01 
5.312684e+01 
2.198033e+01 
6.336799e+00 
3.419638e+01 
2.604099e+01 
6.231441e+00 
2.205725e+01 
4.476442e+00 
2.212009e+01 
2.044266e+01 
1.134471e+01 
2.421529e+01 
1.052923e+00 
2.057188e+01 
1.002979e+00 
3.005334e+01 
3.892123e+01 
2.263028e+01 
1.056532e+01 
5.728708e+01 
9.529934e+01 
7.949796e+01 
1.801598e+01 
4.315945e+01 
1.044528e+02 
1.634902e+02 
1.419812e+02 
6.528264e+01 
1.803702e+01 
4.341320e+01 
1.041501e+02 
1.286059e+02 
1.380365e+02 
1.145069e+02 
6.871200e+01 
4.739532e+01 
2.556298e+01 
1.131021e+01 
4.388790e-01 
2.907740e+00 
