# vtk DataFile Version 2.0
fTan
ASCII
DATASET UNSTRUCTURED_GRID

FIELD FieldData 1
TIME 1 1 double
0.87000000
POINTS 249 float
7.566777631243840e-01 5.000000000000000e-01 0.000000000000000e+00
7.566133377926739e-01 5.071441306657560e-01 0.000000000000000e+00
7.563897327686926e-01 5.143217384847359e-01 0.000000000000000e+00
7.560199469187441e-01 5.214862293550226e-01 0.000000000000000e+00
7.555656625335164e-01 5.285283549521251e-01 0.000000000000000e+00
7.548604559406861e-01 5.358202706231984e-01 0.000000000000000e+00
7.542043202528265e-01 5.426370900527160e-01 0.000000000000000e+00
7.530901627696263e-01 5.501133871472178e-01 0.000000000000000e+00
7.523572352572129e-01 5.564615567993761e-01 0.000000000000000e+00
7.508773394065031e-01 5.640703689341888e-01 0.000000000000000e+00
7.499002499471743e-01 5.703776915359415e-01 0.000000000000000e+00
7.481517978148435e-01 5.777563457401306e-01 0.000000000000000e+00
7.465799872858179e-01 5.845874983494975e-01 0.000000000000000e+00
7.448418358716135e-01 5.914272969759066e-01 0.000000000000000e+00
7.427409774347509e-01 5.986025630096901e-01 0.000000000000000e+00
7.410503599039819e-01 6.047612352085578e-01 0.000000000000000e+00
7.385886012279790e-01 6.119692511490668e-01 0.000000000000000e+00
7.363874853795278e-01 6.184030466077794e-01 0.000000000000000e+00
7.339017793668955e-01 6.250972175946864e-01 0.000000000000000e+00
7.311807462147950e-01 6.318764111002770e-01 0.000000000000000e+00
7.285379055057859e-01 6.381558359181704e-01 0.000000000000000e+00
7.255022060824050e-01 6.448108089240401e-01 0.000000000000000e+00
7.225149151421766e-01 6.511380828949699e-01 0.000000000000000e+00
7.194094093456959e-01 6.573908792263775e-01 0.000000000000000e+00
7.159829978018208e-01 6.637252694517581e-01 0.000000000000000e+00
7.125280572029868e-01 6.698472456327195e-01 0.000000000000000e+00
7.089287237541219e-01 6.759296938119224e-01 0.000000000000000e+00
7.051635250992840e-01 6.819300690931792e-01 0.000000000000000e+00
7.013063868069478e-01 6.877903042357265e-01 0.000000000000000e+00
6.973196287820800e-01 6.935257499036996e-01 0.000000000000000e+00
6.931167028628701e-01 6.992298882340789e-01 0.000000000000000e+00
6.888044956837289e-01 7.048203836726985e-01 0.000000000000000e+00
6.844601461276535e-01 7.102269957130858e-01 0.000000000000000e+00
6.798254345495163e-01 7.155778352709214e-01 0.000000000000000e+00
6.751262449421960e-01 7.208053005326680e-01 0.000000000000000e+00
6.703921021768025e-01 7.258379470363381e-01 0.000000000000000e+00
6.653997628300482e-01 7.307893999087839e-01 0.000000000000000e+00
6.602775575209929e-01 7.356425155728233e-01 0.000000000000000e+00
6.551942694815130e-01 7.402177749393749e-01 0.000000000000000e+00
6.497867572040843e-01 7.448175852656773e-01 0.000000000000000e+00
6.442874547715770e-01 7.492352841513578e-01 0.000000000000000e+00
6.388985332899958e-01 7.533144245235494e-01 0.000000000000000e+00
6.330678362543573e-01 7.574872425932185e-01 0.000000000000000e+00
6.273546957637230e-01 7.613302176464141e-01 0.000000000000000e+00
6.215708318654892e-01 7.650072229736070e-01 0.000000000000000e+00
6.153095646061471e-01 7.687602911770782e-01 0.000000000000000e+00
6.095777691721068e-01 7.718317586670337e-01 0.000000000000000e+00
6.031441677882098e-01 7.753036973386568e-01 0.000000000000000e+00
5.971279113618395e-01 7.780396421133104e-01 0.000000000000000e+00
5.907748762781760e-01 7.808851277647569e-01 0.000000000000000e+00
5.840792030324864e-01 7.837417520482926e-01 0.000000000000000e+00
5.778106481829126e-01 7.860237385426018e-01 0.000000000000000e+00
5.708931480525221e-01 7.884512158990742e-01 0.000000000000000e+00
5.648157719922852e-01 7.901014698864753e-01 0.000000000000000e+00
5.577616583555691e-01 7.921986705342139e-01 0.000000000000000e+00
5.512268877532409e-01 7.937272509146163e-01 0.000000000000000e+00
5.443435869909193e-01 7.951797701369870e-01 0.000000000000000e+00
5.374294445265694e-01 7.964204164727129e-01 0.000000000000000e+00
5.305905831757958e-01 7.974113389729247e-01 0.000000000000000e+00
5.235735130988101e-01 7.982376074031526e-01 0.000000000000000e+00
5.167421340659090e-01 7.987831945410268e-01 0.000000000000000e+00
5.096773047016073e-01 7.991826594773762e-01 0.000000000000000e+00
5.027748691256185e-01 7.993351626943466e-01 0.000000000000000e+00
4.957439627466225e-01 7.992823939823959e-01 0.000000000000000e+00
4.888269319649224e-01 7.990143833119236e-01 0.000000000000000e+00
4.817833567651643e-01 7.984964662593544e-01 0.000000000000000e+00
4.749784426965574e-01 7.978435713339631e-01 0.000000000000000e+00
4.679425323985884e-01 7.968903348173972e-01 0.000000000000000e+00
4.612604282062712e-01 7.958606092871229e-01 0.000000000000000e+00
4.541844143810779e-01 7.944265719843361e-01 0.000000000000000e+00
4.475977482094004e-01 7.929868022586296e-01 0.000000000000000e+00
4.407085742277079e-01 7.911388542973522e-01 0.000000000000000e+00
4.339978052526184e-01 7.891230775407243e-01 0.000000000000000e+00
4.276830391975240e-01 7.872683251894995e-01 0.000000000000000e+00
4.208884544842093e-01 7.847504287735582e-01 0.000000000000000e+00
4.147502502905023e-01 7.824880371247767e-01 0.000000000000000e+00
4.078995110231474e-01 7.792938730071893e-01 0.000000000000000e+00
4.020234132318817e-01 7.768108295729483e-01 0.000000000000000e+00
3.955886999938211e-01 7.735509170382675e-01 0.000000000000000e+00
3.895317072381471e-01 7.702491870404261e-01 0.000000000000000e+00
3.835926211597218e-01 7.669126149136781e-01 0.000000000000000e+00
3.774591948739316e-01 7.630884493009418e-01 0.000000000000000e+00
3.718750014968379e-01 7.594831916961425e-01 0.000000000000000e+00
3.660197560517313e-01 7.554002288361281e-01 0.000000000000000e+00
3.603827356309811e-01 7.512534859994044e-01 0.000000000000000e+00
3.550070402907423e-01 7.470672549363190e-01 0.000000000000000e+00
3.494778292877873e-01 7.425044129478590e-01 0.000000000000000e+00
3.442552172093186e-01 7.379289648292863e-01 0.000000000000000e+00
3.391972151780788e-01 7.332706238229297e-01 0.000000000000000e+00
3.341075599692943e-01 7.283550734648778e-01 0.000000000000000e+00
3.292196945498319e-01 7.233435786124230e-01 0.000000000000000e+00
3.245579564816116e-01 7.182563045138575e-01 0.000000000000000e+00
3.198252181469883e-01 7.129126501600710e-01 0.000000000000000e+00
3.153176720586633e-01 7.075503713360183e-01 0.000000000000000e+00
3.110538064129352e-01 7.021040994964554e-01 0.000000000000000e+00
3.067738749820518e-01 6.964232546361595e-01 0.000000000000000e+00
3.026811460258370e-01 6.907120789115121e-01 0.000000000000000e+00
2.987493898294413e-01 6.849241028718727e-01 0.000000000000000e+00
2.949213210534498e-01 6.789726966430475e-01 0.000000000000000e+00
2.912470075287150e-01 6.729368726390000e-01 0.000000000000000e+00
2.877708105907898e-01 6.668785356707666e-01 0.000000000000000e+00
2.842949612194517e-01 6.606225653943393e-01 0.000000000000000e+00
2.809703238297362e-01 6.542790069842380e-01 0.000000000000000e+00
2.780191855324044e-01 6.481061657096974e-01 0.000000000000000e+00
2.749730746891579e-01 6.415268497169172e-01 0.000000000000000e+00
2.720878203824688e-01 6.349995566663124e-01 0.000000000000000e+00
2.695005250730295e-01 6.286500722582050e-01 0.000000000000000e+00
2.667972124410651e-01 6.217207378249303e-01 0.000000000000000e+00
2.646096744797002e-01 6.154303221302811e-01 0.000000000000000e+00
2.621703402996249e-01 6.084327633200145e-01 0.000000000000000e+00
2.600238902463496e-01 6.015823952037808e-01 0.000000000000000e+00
2.582654724950020e-01 5.951253637687351e-01 0.000000000000000e+00
2.560986792579324e-01 5.877220899550968e-01 0.000000000000000e+00
2.548298088096343e-01 5.815914066134111e-01 0.000000000000000e+00
2.529988198939074e-01 5.741215729496593e-01 0.000000000000000e+00
2.518216667474320e-01 5.676225613862068e-01 0.000000000000000e+00
2.504418061964444e-01 5.603943923281806e-01 0.000000000000000e+00
2.493015328371311e-01 5.532928325467044e-01 0.000000000000000e+00
2.483880376774836e-01 5.464432950244393e-01 0.000000000000000e+00
2.474003233836845e-01 5.389892152412116e-01 0.000000000000000e+00
2.468208753535640e-01 5.322528068137040e-01 0.000000000000000e+00
2.461730027116635e-01 5.248657985587689e-01 0.000000000000000e+00
2.458237129370735e-01 5.179682432892621e-01 0.000000000000000e+00
2.454970678487374e-01 5.106802896635313e-01 0.000000000000000e+00
2.453726991998000e-01 5.035968255170705e-01 0.000000000000000e+00
2.453726991997986e-01 4.964031744832935e-01 0.000000000000000e+00
2.454970678487337e-01 4.893197103368189e-01 0.000000000000000e+00
2.458237129370711e-01 4.820317567110923e-01 0.000000000000000e+00
2.461730027116609e-01 4.751342014415936e-01 0.000000000000000e+00
2.468208753535540e-01 4.677471931866560e-01 0.000000000000000e+00
2.474003233836766e-01 4.610107847591474e-01 0.000000000000000e+00
2.483880376774767e-01 4.535567049759160e-01 0.000000000000000e+00
2.493015328371283e-01 4.467071674536408e-01 0.000000000000000e+00
2.504418061964293e-01 4.396056076721798e-01 0.000000000000000e+00
2.518216667474196e-01 4.323774386141457e-01 0.000000000000000e+00
2.529988198938810e-01 4.258784270507172e-01 0.000000000000000e+00
2.548298088096132e-01 4.184085933869542e-01 0.000000000000000e+00
2.560986792579060e-01 4.122779100452778e-01 0.000000000000000e+00
2.582654724949722e-01 4.048746362316377e-01 0.000000000000000e+00
2.600238902463384e-01 3.984176047965658e-01 0.000000000000000e+00
2.621703402995959e-01 3.915672366803505e-01 0.000000000000000e+00
2.646096744796747e-01 3.845696778700766e-01 0.000000000000000e+00
2.667972124410355e-01 3.782792621754352e-01 0.000000000000000e+00
2.695005250729950e-01 3.713499277421584e-01 0.000000000000000e+00
2.720878203824376e-01 3.650004433340428e-01 0.000000000000000e+00
2.749730746891253e-01 3.584731502834455e-01 0.000000000000000e+00
2.780191855323705e-01 3.518938342906566e-01 0.000000000000000e+00
2.809703238297028e-01 3.457209930161151e-01 0.000000000000000e+00
2.842949612194107e-01 3.393774346060188e-01 0.000000000000000e+00
2.877708105907531e-01 3.331214643295896e-01 0.000000000000000e+00
2.912470075286752e-01 3.270631273613518e-01 0.000000000000000e+00
2.949213210534066e-01 3.210273033573057e-01 0.000000000000000e+00
2.987493898294022e-01 3.150758971284747e-01 0.000000000000000e+00
3.026811460257949e-01 3.092879210888380e-01 0.000000000000000e+00
3.067738749820061e-01 3.035767453641872e-01 0.000000000000000e+00
3.110538064128869e-01 2.978959005038923e-01 0.000000000000000e+00
3.153176720586178e-01 2.924496286643266e-01 0.000000000000000e+00
3.198252181469357e-01 2.870873498402760e-01 0.000000000000000e+00
3.245579564815631e-01 2.817436954864795e-01 0.000000000000000e+00
3.292196945497808e-01 2.766564213879228e-01 0.000000000000000e+00
3.341075599692392e-01 2.716449265354571e-01 0.000000000000000e+00
3.391972151780278e-01 2.667293761774037e-01 0.000000000000000e+00
3.442552172092649e-01 2.620710351710501e-01 0.000000000000000e+00
3.494778292877317e-01 2.574955870524752e-01 0.000000000000000e+00
3.550070402906786e-01 2.529327450640120e-01 0.000000000000000e+00
3.603827356309320e-01 2.487465140009256e-01 0.000000000000000e+00
3.660197560516592e-01 2.445997711641996e-01 0.000000000000000e+00
3.718750014967804e-01 2.405168083041772e-01 0.000000000000000e+00
3.774591948738610e-01 2.369115506993910e-01 0.000000000000000e+00
3.835926211596535e-01 2.330873850866394e-01 0.000000000000000e+00
3.895317072380799e-01 2.297508129598920e-01 0.000000000000000e+00
3.955886999937461e-01 2.264490829620432e-01 0.000000000000000e+00
4.020234132318110e-01 2.231891704273624e-01 0.000000000000000e+00
4.078995110230604e-01 2.207061269931347e-01 0.000000000000000e+00
4.147502502904127e-01 2.175119628755399e-01 0.000000000000000e+00
4.208884544841315e-01 2.152495712267347e-01 0.000000000000000e+00
4.276830391974377e-01 2.127316748108080e-01 0.000000000000000e+00
4.339978052525422e-01 2.108769224595678e-01 0.000000000000000e+00
4.407085742276297e-01 2.088611457029262e-01 0.000000000000000e+00
4.475977482093108e-01 2.070131977416736e-01 0.000000000000000e+00
4.541844143809914e-01 2.055734280159426e-01 0.000000000000000e+00
4.612604282061931e-01 2.041393907131493e-01 0.000000000000000e+00
4.679425323984909e-01 2.031096651828785e-01 0.000000000000000e+00
4.749784426964751e-01 2.021564286662965e-01 0.000000000000000e+00
4.817833567650699e-01 2.015035337409169e-01 0.000000000000000e+00
4.888269319648337e-01 2.009856166883340e-01 0.000000000000000e+00
4.957439627465289e-01 2.007176060178593e-01 0.000000000000000e+00
5.027748691255317e-01 2.006648373059007e-01 0.000000000000000e+00
5.096773047015163e-01 2.008173405228728e-01 0.000000000000000e+00
5.167421340658190e-01 2.012168054592206e-01 0.000000000000000e+00
5.235735130987290e-01 2.017623925970837e-01 0.000000000000000e+00
5.305905831757035e-01 2.025886610273095e-01 0.000000000000000e+00
5.374294445264929e-01 2.035795835275184e-01 0.000000000000000e+00
5.443435869908311e-01 2.048202298632399e-01 0.000000000000000e+00
5.512268877531581e-01 2.062727490856102e-01 0.000000000000000e+00
5.577616583554884e-01 2.078013294660057e-01 0.000000000000000e+00
5.648157719921990e-01 2.098985301137393e-01 0.000000000000000e+00
5.708931480524437e-01 2.115487841011368e-01 0.000000000000000e+00
5.778106481828373e-01 2.139762614576161e-01 0.000000000000000e+00
5.840792030324110e-01 2.162582479518971e-01 0.000000000000000e+00
5.907748762781043e-01 2.191148722354617e-01 0.000000000000000e+00
5.971279113617632e-01 2.219603578868853e-01 0.000000000000000e+00
6.031441677881374e-01 2.246963026615433e-01 0.000000000000000e+00
6.095777691720328e-01 2.281682413331658e-01 0.000000000000000e+00
6.153095646060828e-01 2.312397088231206e-01 0.000000000000000e+00
6.215708318654167e-01 2.349927770265903e-01 0.000000000000000e+00
6.273546957636583e-01 2.386697823537839e-01 0.000000000000000e+00
6.330678362542876e-01 2.425127574069708e-01 0.000000000000000e+00
6.388985332899295e-01 2.466855754766434e-01 0.000000000000000e+00
6.442874547715102e-01 2.507647158488329e-01 0.000000000000000e+00
6.497867572040227e-01 2.551824147345113e-01 0.000000000000000e+00
6.551942694814518e-01 2.597822250608115e-01 0.000000000000000e+00
6.602775575209290e-01 2.643574844273653e-01 0.000000000000000e+00
6.653997628299901e-01 2.692106000913992e-01 0.000000000000000e+00
6.703921021767441e-01 2.741620529638435e-01 0.000000000000000e+00
6.751262449421359e-01 2.791946994675169e-01 0.000000000000000e+00
6.798254345494587e-01 2.844221647292548e-01 0.000000000000000e+00
6.844601461276003e-01 2.897730042870990e-01 0.000000000000000e+00
6.888044956836734e-01 2.951796163274784e-01 0.000000000000000e+00
6.931167028628211e-01 3.007701117660988e-01 0.000000000000000e+00
6.973196287820247e-01 3.064742500964779e-01 0.000000000000000e+00
7.013063868069034e-01 3.122096957644511e-01 0.000000000000000e+00
7.051635250992363e-01 3.180699309069954e-01 0.000000000000000e+00
7.089287237540735e-01 3.240703061882495e-01 0.000000000000000e+00
7.125280572029378e-01 3.301527543674537e-01 0.000000000000000e+00
7.159829978017784e-01 3.362747305484093e-01 0.000000000000000e+00
7.194094093456581e-01 3.426091207738005e-01 0.000000000000000e+00
7.225149151421282e-01 3.488619171051964e-01 0.000000000000000e+00
7.255022060823693e-01 3.551891910761325e-01 0.000000000000000e+00
7.285379055057496e-01 3.618441640820024e-01 0.000000000000000e+00
7.311807462147577e-01 3.681235888998886e-01 0.000000000000000e+00
7.339017793668590e-01 3.749027824054805e-01 0.000000000000000e+00
7.363874853794935e-01 3.815969533923881e-01 0.000000000000000e+00
7.385886012279474e-01 3.880307488511020e-01 0.000000000000000e+00
7.410503599039495e-01 3.952387647916075e-01 0.000000000000000e+00
7.427409774347216e-01 4.013974369904836e-01 0.000000000000000e+00
7.448418358715928e-01 4.085727030242624e-01 0.000000000000000e+00
7.465799872857863e-01 4.154125016506701e-01 0.000000000000000e+00
7.481517978148196e-01 4.222436542600390e-01 0.000000000000000e+00
7.499002499471499e-01 4.296223084642190e-01 0.000000000000000e+00
7.508773394064873e-01 4.359296310659925e-01 0.000000000000000e+00
7.523572352572007e-01 4.435384432007993e-01 0.000000000000000e+00
7.530901627696183e-01 4.498866128529640e-01 0.000000000000000e+00
7.542043202528182e-01 4.573629099474758e-01 0.000000000000000e+00
7.548604559406730e-01 4.641797293769645e-01 0.000000000000000e+00
7.555656625335121e-01 4.714716450480285e-01 0.000000000000000e+00
7.560199469187384e-01 4.785137706451484e-01 0.000000000000000e+00
7.563897327686877e-01 4.856782615154776e-01 0.000000000000000e+00
7.566133377926731e-01 4.928558693345008e-01 0.000000000000000e+00

POINT_DATA   249
SCALARS fTan double
LOOKUP_TABLE default

2.567320e-08 
3.667056e+00 
7.063820e-01 
1.172663e+01 
2.692119e+01 
4.776232e+01 
7.107880e+01 
1.168706e+02 
1.362093e+02 
1.369116e+02 
1.201393e+02 
5.733582e+01 
4.755059e+00 
4.193876e+01 
1.090049e+02 
1.230899e+02 
8.169108e+01 
3.408836e+01 
1.641431e+01 
4.920073e+01 
5.018224e+01 
3.176441e+01 
1.551512e+00 
2.202372e+01 
1.721559e+01 
3.806068e+00 
1.625263e+00 
6.817556e+00 
3.077252e+00 
1.003687e+01 
2.491476e+00 
1.246317e+01 
1.432335e+01 
4.980206e+00 
1.197728e+01 
1.219787e+01 
2.482416e+00 
2.171196e+01 
2.601827e+01 
4.526629e+00 
2.952738e+01 
4.113373e+01 
2.846670e+01 
3.166873e+00 
4.462511e+01 
7.972392e+01 
8.077070e+01 
7.018531e+01 
3.519896e+01 
3.184022e+01 
6.087404e+01 
6.600187e+01 
1.034224e+02 
1.061811e+02 
6.483279e+01 
3.237449e+01 
1.033367e+00 
1.143035e+01 
1.552733e+01 
2.124407e+01 
2.229853e+01 
1.720019e+01 
1.270008e+01 
1.089016e+01 
1.403748e+01 
2.264230e+01 
2.640618e+01 
3.391970e+01 
4.589898e+01 
4.776642e+01 
3.905957e+01 
1.257532e+01 
4.254164e+01 
6.649508e+01 
7.042002e+01 
1.017709e+02 
1.179731e+02 
8.346532e+01 
3.149666e+01 
8.624644e+00 
4.158531e+01 
5.810692e+01 
4.914229e+01 
1.402959e+01 
1.845060e+01 
3.553604e+01 
2.254708e+01 
6.702655e+00 
1.994877e+01 
7.539927e+00 
1.002417e+01 
2.379993e+01 
1.330803e+01 
8.828503e+00 
1.958258e+01 
8.645539e+00 
2.912100e+00 
7.918820e+00 
1.000872e+00 
8.146773e+00 
1.719147e+01 
5.259435e-01 
3.200108e+01 
4.082742e+01 
1.137319e+01 
2.801936e+01 
5.816062e+01 
7.781929e+01 
7.506407e+01 
2.318122e+01 
4.866803e+01 
1.021715e+02 
1.454422e+02 
1.430603e+02 
1.086733e+02 
7.539565e+01 
1.661972e+01 
2.823693e+01 
6.090571e+01 
7.581583e+01 
6.540868e+01 
5.090587e+01 
3.888826e+01 
2.107357e+01 
1.090993e+01 
1.090993e+01 
2.107357e+01 
3.888826e+01 
5.090587e+01 
6.540868e+01 
7.581583e+01 
6.090571e+01 
2.823693e+01 
1.661972e+01 
7.539565e+01 
1.086733e+02 
1.430603e+02 
1.454422e+02 
1.021715e+02 
4.866803e+01 
2.318122e+01 
7.506407e+01 
7.781929e+01 
5.816062e+01 
2.801936e+01 
1.137319e+01 
4.082742e+01 
3.200108e+01 
5.259435e-01 
1.719147e+01 
8.146773e+00 
1.000872e+00 
7.918820e+00 
2.912100e+00 
8.645539e+00 
1.958258e+01 
8.828503e+00 
1.330803e+01 
2.379993e+01 
1.002417e+01 
7.539927e+00 
1.994877e+01 
6.702655e+00 
2.254708e+01 
3.553604e+01 
1.845060e+01 
1.402959e+01 
4.914229e+01 
5.810692e+01 
4.158531e+01 
8.624644e+00 
3.149666e+01 
8.346532e+01 
1.179731e+02 
1.017709e+02 
7.042002e+01 
6.649508e+01 
4.254164e+01 
1.257532e+01 
3.905957e+01 
4.776642e+01 
4.589898e+01 
3.391970e+01 
2.640618e+01 
2.264230e+01 
1.403748e+01 
1.089016e+01 
1.270008e+01 
1.720019e+01 
2.229853e+01 
2.124407e+01 
1.552733e+01 
1.143035e+01 
1.033367e+00 
3.237449e+01 
6.483279e+01 
1.061811e+02 
1.034224e+02 
6.600187e+01 
6.087404e+01 
3.184022e+01 
3.519896e+01 
7.018531e+01 
8.077070e+01 
7.972392e+01 
4.462511e+01 
3.166873e+00 
2.846670e+01 
4.113373e+01 
2.952738e+01 
4.526629e+00 
2.601827e+01 
2.171196e+01 
2.482416e+00 
1.219787e+01 
1.197728e+01 
4.980206e+00 
1.432335e+01 
1.246317e+01 
2.491476e+00 
1.003687e+01 
3.077252e+00 
6.817556e+00 
1.625263e+00 
3.806068e+00 
1.721559e+01 
2.202372e+01 
1.551512e+00 
3.176441e+01 
5.018224e+01 
4.920073e+01 
1.641431e+01 
3.408836e+01 
8.169108e+01 
1.230899e+02 
1.090049e+02 
4.193876e+01 
4.755059e+00 
5.733582e+01 
1.201393e+02 
1.369116e+02 
1.362093e+02 
1.168706e+02 
7.107880e+01 
4.776232e+01 
2.692119e+01 
1.172663e+01 
7.063820e-01 
3.667056e+00 
