# vtk DataFile Version 2.0
fX_Lag
ASCII
DATASET UNSTRUCTURED_GRID

FIELD FieldData 1
TIME 1 1 double
1.63000000
POINTS 249 float
7.733401046795622e-01 5.000000000003774e-01 0.000000000000000e+00
7.732511598699829e-01 5.068213098566919e-01 0.000000000000000e+00
7.729981086714049e-01 5.136809033056244e-01 0.000000000000000e+00
7.725479607633440e-01 5.205387457629201e-01 0.000000000000000e+00
7.719692706773003e-01 5.272582623066244e-01 0.000000000000000e+00
7.711293026369839e-01 5.341600767326503e-01 0.000000000000000e+00
7.703224522749244e-01 5.406594392347683e-01 0.000000000000000e+00
7.690132574390002e-01 5.477824315148200e-01 0.000000000000000e+00
7.681143539085956e-01 5.539147191964443e-01 0.000000000000000e+00
7.662094031248237e-01 5.610078121382460e-01 0.000000000000000e+00
7.649312001134387e-01 5.673888353309254e-01 0.000000000000000e+00
7.629258924217220e-01 5.740760247629805e-01 0.000000000000000e+00
7.609779719589376e-01 5.806171282452260e-01 0.000000000000000e+00
7.590786281893367e-01 5.868566967568077e-01 0.000000000000000e+00
7.562670647742041e-01 5.937280095561778e-01 0.000000000000000e+00
7.544940409710751e-01 5.992924624324280e-01 0.000000000000000e+00
7.515919736969230e-01 6.060578574439072e-01 0.000000000000000e+00
7.489310807834407e-01 6.120715114211395e-01 0.000000000000000e+00
7.460799313813339e-01 6.180569371989834e-01 0.000000000000000e+00
7.426316369189424e-01 6.245753180469935e-01 0.000000000000000e+00
7.398809110130223e-01 6.298790854296894e-01 0.000000000000000e+00
7.362733805380457e-01 6.362026501972381e-01 0.000000000000000e+00
7.328476190099914e-01 6.418342004424190e-01 0.000000000000000e+00
7.292846360419730e-01 6.473363545191836e-01 0.000000000000000e+00
7.251170245990843e-01 6.533887022812256e-01 0.000000000000000e+00
7.213836308157014e-01 6.586789303542980e-01 0.000000000000000e+00
7.172422668179936e-01 6.641219215707573e-01 0.000000000000000e+00
7.129593722893912e-01 6.694642466430717e-01 0.000000000000000e+00
7.086915504479455e-01 6.745519980675080e-01 0.000000000000000e+00
7.040246065822107e-01 6.798223243479614e-01 0.000000000000000e+00
6.994161537291238e-01 6.847602286351938e-01 0.000000000000000e+00
6.947787138539046e-01 6.894880413852441e-01 0.000000000000000e+00
6.897172379243010e-01 6.944172064454904e-01 0.000000000000000e+00
6.847821716361240e-01 6.989404066161885e-01 0.000000000000000e+00
6.796843224406889e-01 7.034125456336475e-01 0.000000000000000e+00
6.744239802386151e-01 7.078234342920248e-01 0.000000000000000e+00
6.691929210771536e-01 7.119083861682973e-01 0.000000000000000e+00
6.634898177180887e-01 7.162132721293624e-01 0.000000000000000e+00
6.580458557723869e-01 7.201318948202320e-01 0.000000000000000e+00
6.525686385890034e-01 7.237643239576653e-01 0.000000000000000e+00
6.464271367567334e-01 7.276752124367987e-01 0.000000000000000e+00
6.411373879412849e-01 7.308616884155146e-01 0.000000000000000e+00
6.348757717124529e-01 7.344675857426709e-01 0.000000000000000e+00
6.289323155967261e-01 7.376483632774971e-01 0.000000000000000e+00
6.231862493778332e-01 7.405241051043405e-01 0.000000000000000e+00
6.163979656032004e-01 7.438095225242778e-01 0.000000000000000e+00
6.110134768700247e-01 7.459106518690011e-01 0.000000000000000e+00
6.043432391928497e-01 7.490089767997209e-01 0.000000000000000e+00
5.981375241489921e-01 7.511501554032001e-01 0.000000000000000e+00
5.917412346463323e-01 7.534698975667163e-01 0.000000000000000e+00
5.849467720275792e-01 7.558856460315919e-01 0.000000000000000e+00
5.789106217183618e-01 7.574367236959900e-01 0.000000000000000e+00
5.717656554774158e-01 7.597261188627067e-01 0.000000000000000e+00
5.658928466387088e-01 7.608092525712453e-01 0.000000000000000e+00
5.588026825144879e-01 7.625261580280459e-01 0.000000000000000e+00
5.523419945839393e-01 7.637483479452767e-01 0.000000000000000e+00
5.455184395633410e-01 7.649166119940458e-01 0.000000000000000e+00
5.386071216599450e-01 7.659724695069436e-01 0.000000000000000e+00
5.319313421956458e-01 7.667347767163220e-01 0.000000000000000e+00
5.249265480072326e-01 7.674125298452823e-01 0.000000000000000e+00
5.182653219431841e-01 7.678481079892099e-01 0.000000000000000e+00
5.112651353312108e-01 7.681976171462861e-01 0.000000000000000e+00
5.044916715426243e-01 7.683270613472124e-01 0.000000000000000e+00
4.975342746754343e-01 7.682802162547376e-01 0.000000000000000e+00
4.907724267080036e-01 7.680835613963481e-01 0.000000000000000e+00
4.837778300821191e-01 7.676972822707545e-01 0.000000000000000e+00
4.771684468892887e-01 7.672107082411849e-01 0.000000000000000e+00
4.700512202387824e-01 7.664256612165227e-01 0.000000000000000e+00
4.635825840481940e-01 7.656171221404466e-01 0.000000000000000e+00
4.564720372854750e-01 7.644745810410805e-01 0.000000000000000e+00
4.500414045524653e-01 7.633962847868335e-01 0.000000000000000e+00
4.431668232914308e-01 7.619421069735343e-01 0.000000000000000e+00
4.363604863687400e-01 7.602104355530207e-01 0.000000000000000e+00
4.302476342328188e-01 7.590016935772470e-01 0.000000000000000e+00
4.231739561535690e-01 7.566692137776657e-01 0.000000000000000e+00
4.170157477834949e-01 7.550780117091918e-01 0.000000000000000e+00
4.103536201584355e-01 7.524952027405000e-01 0.000000000000000e+00
4.039350114428069e-01 7.503667811040221e-01 0.000000000000000e+00
3.977329778653824e-01 7.478504306908993e-01 0.000000000000000e+00
3.911190077927365e-01 7.448131309799937e-01 0.000000000000000e+00
3.855140257231725e-01 7.424230447437880e-01 0.000000000000000e+00
3.789052981266835e-01 7.392279849990483e-01 0.000000000000000e+00
3.731429476238045e-01 7.362236608028149e-01 0.000000000000000e+00
3.673118536334509e-01 7.329657374744746e-01 0.000000000000000e+00
3.609988496215848e-01 7.292092940142226e-01 0.000000000000000e+00
3.556835701471249e-01 7.259987680757393e-01 0.000000000000000e+00
3.497326937982956e-01 7.220724977377349e-01 0.000000000000000e+00
3.441404656740220e-01 7.181837375953365e-01 0.000000000000000e+00
3.389520893581714e-01 7.144143229378490e-01 0.000000000000000e+00
3.332405593673831e-01 7.099857755253349e-01 0.000000000000000e+00
3.279707379720377e-01 7.057600681780946e-01 0.000000000000000e+00
3.230029662961863e-01 7.014804547238053e-01 0.000000000000000e+00
3.177512564953521e-01 6.967351704168929e-01 0.000000000000000e+00
3.127929252939360e-01 6.920845336293034e-01 0.000000000000000e+00
3.081266810656861e-01 6.874266047959120e-01 0.000000000000000e+00
3.033884574179660e-01 6.824402377627415e-01 0.000000000000000e+00
2.986585066877656e-01 6.772225933771095e-01 0.000000000000000e+00
2.943406631539225e-01 6.722351853675522e-01 0.000000000000000e+00
2.901699563837967e-01 6.670898224962482e-01 0.000000000000000e+00
2.856761926745927e-01 6.613470016801039e-01 0.000000000000000e+00
2.819125755688426e-01 6.561843125279226e-01 0.000000000000000e+00
2.780439852783728e-01 6.506540906359020e-01 0.000000000000000e+00
2.740291846389550e-01 6.446427509061694e-01 0.000000000000000e+00
2.707686862490318e-01 6.393066592246476e-01 0.000000000000000e+00
2.670735494697057e-01 6.331007184995641e-01 0.000000000000000e+00
2.638552626408230e-01 6.273321680734369e-01 0.000000000000000e+00
2.608239039698242e-01 6.215821852681388e-01 0.000000000000000e+00
2.575301314922488e-01 6.148628297608086e-01 0.000000000000000e+00
2.551955133410573e-01 6.094229693293198e-01 0.000000000000000e+00
2.520925448878989e-01 6.028548721516026e-01 0.000000000000000e+00
2.497616908592021e-01 5.966729803704834e-01 0.000000000000000e+00
2.474573938061939e-01 5.902465241038640e-01 0.000000000000000e+00
2.448536902966520e-01 5.836594338531363e-01 0.000000000000000e+00
2.434256178096736e-01 5.775373930960800e-01 0.000000000000000e+00
2.409878178633925e-01 5.704608082079937e-01 0.000000000000000e+00
2.397018312816773e-01 5.643169988416413e-01 0.000000000000000e+00
2.380251544821285e-01 5.575009452960096e-01 0.000000000000000e+00
2.366944759254626e-01 5.508022457248944e-01 0.000000000000000e+00
2.355528438122241e-01 5.443218131224652e-01 0.000000000000000e+00
2.343729884369478e-01 5.371794655489720e-01 0.000000000000000e+00
2.336359988918287e-01 5.308391264920901e-01 0.000000000000000e+00
2.328646774489213e-01 5.236921023018984e-01 0.000000000000000e+00
2.324099114388126e-01 5.171767946909328e-01 0.000000000000000e+00
2.320335228566972e-01 5.102039148977192e-01 0.000000000000000e+00
2.318737892821855e-01 5.034555864995588e-01 0.000000000000000e+00
2.318737892821955e-01 4.965444135020528e-01 0.000000000000000e+00
2.320335228567089e-01 4.897960851038672e-01 0.000000000000000e+00
2.324099114387961e-01 4.828232053106665e-01 0.000000000000000e+00
2.328646774488952e-01 4.763078976997218e-01 0.000000000000000e+00
2.336359988918018e-01 4.691608735095052e-01 0.000000000000000e+00
2.343729884369660e-01 4.628205344525687e-01 0.000000000000000e+00
2.355528438122108e-01 4.556781868790952e-01 0.000000000000000e+00
2.366944759254448e-01 4.491977542766880e-01 0.000000000000000e+00
2.380251544820570e-01 4.424990547056049e-01 0.000000000000000e+00
2.397018312816673e-01 4.356830011599101e-01 0.000000000000000e+00
2.409878178633032e-01 4.295391917936393e-01 0.000000000000000e+00
2.434256178095985e-01 4.224626069055513e-01 0.000000000000000e+00
2.448536902967111e-01 4.163405661483411e-01 0.000000000000000e+00
2.474573938061504e-01 4.097534758977198e-01 0.000000000000000e+00
2.497616908592007e-01 4.033270196310568e-01 0.000000000000000e+00
2.520925448878012e-01 3.971451278500832e-01 0.000000000000000e+00
2.551955133410294e-01 3.905770306722117e-01 0.000000000000000e+00
2.575301314922744e-01 3.851371702407089e-01 0.000000000000000e+00
2.608239039697552e-01 3.784178147334751e-01 0.000000000000000e+00
2.638552626408844e-01 3.726678319279750e-01 0.000000000000000e+00
2.670735494696355e-01 3.668992815020747e-01 0.000000000000000e+00
2.707686862490194e-01 3.606933407769018e-01 0.000000000000000e+00
2.740291846389474e-01 3.553572490953332e-01 0.000000000000000e+00
2.780439852782828e-01 3.493459093657292e-01 0.000000000000000e+00
2.819125755689216e-01 3.438156874735237e-01 0.000000000000000e+00
2.856761926745475e-01 3.386529983214632e-01 0.000000000000000e+00
2.901699563837492e-01 3.329101775053410e-01 0.000000000000000e+00
2.943406631539647e-01 3.277648146339276e-01 0.000000000000000e+00
2.986585066876334e-01 3.227774066245369e-01 0.000000000000000e+00
3.033884574179079e-01 3.175597622388647e-01 0.000000000000000e+00
3.081266810656988e-01 3.125733952056006e-01 0.000000000000000e+00
3.127929252938820e-01 3.079154663722622e-01 0.000000000000000e+00
3.177512564953031e-01 3.032648295846981e-01 0.000000000000000e+00
3.230029662961806e-01 2.985195452777356e-01 0.000000000000000e+00
3.279707379719972e-01 2.942399318234836e-01 0.000000000000000e+00
3.332405593672751e-01 2.900142244762919e-01 0.000000000000000e+00
3.389520893581352e-01 2.855856770637420e-01 0.000000000000000e+00
3.441404656739986e-01 2.818162624062394e-01 0.000000000000000e+00
3.497326937982291e-01 2.779275022638498e-01 0.000000000000000e+00
3.556835701470507e-01 2.740012319258535e-01 0.000000000000000e+00
3.609988496214970e-01 2.707907059874158e-01 0.000000000000000e+00
3.673118536333518e-01 2.670342625271658e-01 0.000000000000000e+00
3.731429476237890e-01 2.637763391987528e-01 0.000000000000000e+00
3.789052981266062e-01 2.607720150025400e-01 0.000000000000000e+00
3.855140257231275e-01 2.575769552578195e-01 0.000000000000000e+00
3.911190077926849e-01 2.551868690216254e-01 0.000000000000000e+00
3.977329778652710e-01 2.521495693107164e-01 0.000000000000000e+00
4.039350114427316e-01 2.496332188975995e-01 0.000000000000000e+00
4.103536201583977e-01 2.475047972610949e-01 0.000000000000000e+00
4.170157477833902e-01 2.449219882923665e-01 0.000000000000000e+00
4.231739561535116e-01 2.433307862239314e-01 0.000000000000000e+00
4.302476342327515e-01 2.409983064243564e-01 0.000000000000000e+00
4.363604863686962e-01 2.397895644485562e-01 0.000000000000000e+00
4.431668232913847e-01 2.380578930280312e-01 0.000000000000000e+00
4.500414045523974e-01 2.366037152147531e-01 0.000000000000000e+00
4.564720372854131e-01 2.355254189604981e-01 0.000000000000000e+00
4.635825840481437e-01 2.343828778611355e-01 0.000000000000000e+00
4.700512202386878e-01 2.335743387850667e-01 0.000000000000000e+00
4.771684468892207e-01 2.327892917603865e-01 0.000000000000000e+00
4.837778300820203e-01 2.323027177308271e-01 0.000000000000000e+00
4.907724267079180e-01 2.319164386052304e-01 0.000000000000000e+00
4.975342746753429e-01 2.317197837468460e-01 0.000000000000000e+00
5.044916715425226e-01 2.316729386543687e-01 0.000000000000000e+00
5.112651353311182e-01 2.318023828552941e-01 0.000000000000000e+00
5.182653219430825e-01 2.321518920123552e-01 0.000000000000000e+00
5.249265480071467e-01 2.325874701562901e-01 0.000000000000000e+00
5.319313421955437e-01 2.332652232852443e-01 0.000000000000000e+00
5.386071216598590e-01 2.340275304946351e-01 0.000000000000000e+00
5.455184395632229e-01 2.350833880075152e-01 0.000000000000000e+00
5.523419945838257e-01 2.362516520562757e-01 0.000000000000000e+00
5.588026825143854e-01 2.374738419735046e-01 0.000000000000000e+00
5.658928466385864e-01 2.391907474302988e-01 0.000000000000000e+00
5.717656554773569e-01 2.402738811388726e-01 0.000000000000000e+00
5.789106217182681e-01 2.425632763056012e-01 0.000000000000000e+00
5.849467720275799e-01 2.441143539699726e-01 0.000000000000000e+00
5.917412346462554e-01 2.465301024348164e-01 0.000000000000000e+00
5.981375241489360e-01 2.488498445983858e-01 0.000000000000000e+00
6.043432391928559e-01 2.509910232018701e-01 0.000000000000000e+00
6.110134768699989e-01 2.540893481325974e-01 0.000000000000000e+00
6.163979656031701e-01 2.561904774772786e-01 0.000000000000000e+00
6.231862493777971e-01 2.594758948971936e-01 0.000000000000000e+00
6.289323155966980e-01 2.623516367240442e-01 0.000000000000000e+00
6.348757717124276e-01 2.655324142588907e-01 0.000000000000000e+00
6.411373879413056e-01 2.691383115860528e-01 0.000000000000000e+00
6.464271367566826e-01 2.723247875647109e-01 0.000000000000000e+00
6.525686385889550e-01 2.762356760438386e-01 0.000000000000000e+00
6.580458557723359e-01 2.798681051812701e-01 0.000000000000000e+00
6.634898177180432e-01 2.837867278721456e-01 0.000000000000000e+00
6.691929210771467e-01 2.880916138332233e-01 0.000000000000000e+00
6.744239802385921e-01 2.921765657094703e-01 0.000000000000000e+00
6.796843224405926e-01 2.965874543678108e-01 0.000000000000000e+00
6.847821716361149e-01 3.010595933853124e-01 0.000000000000000e+00
6.897172379243167e-01 3.055827935560473e-01 0.000000000000000e+00
6.947787138538319e-01 3.105119586162073e-01 0.000000000000000e+00
6.994161537290835e-01 3.152397713662763e-01 0.000000000000000e+00
7.040246065821898e-01 3.201776756535455e-01 0.000000000000000e+00
7.086915504478883e-01 3.254480019339407e-01 0.000000000000000e+00
7.129593722893413e-01 3.305357533583947e-01 0.000000000000000e+00
7.172422668180078e-01 3.358780784307801e-01 0.000000000000000e+00
7.213836308156568e-01 3.413210696471521e-01 0.000000000000000e+00
7.251170245990335e-01 3.466112977202519e-01 0.000000000000000e+00
7.292846360419677e-01 3.526636454823367e-01 0.000000000000000e+00
7.328476190099077e-01 3.581657995589845e-01 0.000000000000000e+00
7.362733805380465e-01 3.637973498042872e-01 0.000000000000000e+00
7.398809110129532e-01 3.701209145717377e-01 0.000000000000000e+00
7.426316369188867e-01 3.754246819544599e-01 0.000000000000000e+00
7.460799313813431e-01 3.819430628025781e-01 0.000000000000000e+00
7.489310807833841e-01 3.879284885802831e-01 0.000000000000000e+00
7.515919736969171e-01 3.939421425576015e-01 0.000000000000000e+00
7.544940409709714e-01 4.007075375689895e-01 0.000000000000000e+00
7.562670647741930e-01 4.062719904453228e-01 0.000000000000000e+00
7.590786281893911e-01 4.131433032447802e-01 0.000000000000000e+00
7.609779719589073e-01 4.193828717563018e-01 0.000000000000000e+00
7.629258924217178e-01 4.259239752385440e-01 0.000000000000000e+00
7.649312001133887e-01 4.326111646705702e-01 0.000000000000000e+00
7.662094031248196e-01 4.389921878632835e-01 0.000000000000000e+00
7.681143539085414e-01 4.460852808050348e-01 0.000000000000000e+00
7.690132574389797e-01 4.522175684867069e-01 0.000000000000000e+00
7.703224522749614e-01 4.593405607668218e-01 0.000000000000000e+00
7.711293026369958e-01 4.658399232688976e-01 0.000000000000000e+00
7.719692706772876e-01 4.727417376948536e-01 0.000000000000000e+00
7.725479607633225e-01 4.794612542385885e-01 0.000000000000000e+00
7.729981086714125e-01 4.863190966960860e-01 0.000000000000000e+00
7.732511598700065e-01 4.931786901452233e-01 0.000000000000000e+00

POINT_DATA   249
SCALARS fX_Lag double
LOOKUP_TABLE default

-1.778936e+01 
-1.641095e+01 
-1.970998e+01 
-1.285424e+01 
-2.612803e+01 
3.311524e+00 
-5.023495e+01 
4.102871e+01 
-1.006053e+02 
6.267575e+01 
-7.271058e+01 
5.737527e+00 
4.857016e+00 
-9.122099e+01 
1.038532e+02 
-1.129055e+02 
2.411986e+01 
-1.902680e+01 
-5.971450e+01 
6.975438e+01 
-8.567998e+01 
1.817903e+01 
-1.372288e+01 
-6.046207e+01 
4.341984e+01 
-4.079729e+01 
-1.415089e+01 
1.506008e+00 
-3.991210e+01 
5.848970e+00 
-2.898242e+00 
-4.240335e+01 
1.263992e+01 
-1.627767e+01 
-1.624943e+01 
2.929163e+00 
-4.720350e+01 
2.591137e+01 
-3.323978e+00 
-6.642730e+01 
8.517488e+01 
-9.718691e+01 
3.181501e+01 
1.974048e+01 
-1.042212e+02 
1.403813e+02 
-1.285783e+02 
4.645468e+01 
-1.905837e+01 
-3.981799e+01 
7.583440e+01 
-1.108845e+02 
1.272193e+02 
-1.217384e+02 
6.294852e+01 
-3.628669e+01 
-8.775916e+00 
2.355416e+01 
-3.290169e+01 
3.435666e+01 
-3.389632e+01 
2.267251e+01 
-1.839305e+01 
1.955463e+01 
-2.327505e+01 
3.852125e+01 
-5.078385e+01 
6.485915e+01 
-6.419121e+01 
6.799109e+01 
-4.439530e+01 
6.824777e+00 
6.934867e+01 
-9.608398e+01 
9.154806e+01 
-5.039381e+01 
2.435398e+01 
2.165624e+01 
-4.119263e+01 
1.008975e+02 
-1.003751e+02 
8.463793e+01 
-6.876298e+00 
-4.818885e+01 
9.977174e+01 
-6.356015e+01 
3.586451e+01 
4.038525e+01 
-5.231370e+01 
4.416865e+01 
3.020333e+01 
-2.839078e+01 
2.933666e+01 
2.920597e+01 
-7.195445e+00 
8.286556e-01 
4.120803e+01 
1.471486e+01 
-3.230518e+01 
7.301227e+01 
-1.049629e+01 
-1.462099e+01 
7.543093e+01 
-4.346229e+01 
4.768283e+01 
1.869399e+01 
-2.624274e+01 
9.591575e+01 
-7.683281e+01 
7.721097e+01 
2.655716e+00 
-2.994165e+01 
1.175647e+02 
-1.009720e+02 
1.151803e+02 
-3.906888e+01 
3.460055e+01 
1.890539e+01 
-3.822609e+00 
4.428677e+01 
-3.432940e+00 
3.165614e+01 
7.838092e+00 
2.166585e+01 
1.597360e+01 
1.597360e+01 
2.166585e+01 
7.838092e+00 
3.165614e+01 
-3.432940e+00 
4.428677e+01 
-3.822609e+00 
1.890539e+01 
3.460055e+01 
-3.906888e+01 
1.151803e+02 
-1.009720e+02 
1.175647e+02 
-2.994165e+01 
2.655716e+00 
7.721097e+01 
-7.683281e+01 
9.591575e+01 
-2.624274e+01 
1.869399e+01 
4.768283e+01 
-4.346229e+01 
7.543093e+01 
-1.462099e+01 
-1.049629e+01 
7.301227e+01 
-3.230518e+01 
1.471486e+01 
4.120803e+01 
8.286556e-01 
-7.195445e+00 
2.920597e+01 
2.933666e+01 
-2.839078e+01 
3.020333e+01 
4.416865e+01 
-5.231370e+01 
4.038525e+01 
3.586451e+01 
-6.356015e+01 
9.977174e+01 
-4.818885e+01 
-6.876298e+00 
8.463793e+01 
-1.003751e+02 
1.008975e+02 
-4.119263e+01 
2.165624e+01 
2.435398e+01 
-5.039381e+01 
9.154806e+01 
-9.608398e+01 
6.934867e+01 
6.824777e+00 
-4.439530e+01 
6.799109e+01 
-6.419121e+01 
6.485915e+01 
-5.078385e+01 
3.852125e+01 
-2.327505e+01 
1.955463e+01 
-1.839305e+01 
2.267251e+01 
-3.389632e+01 
3.435666e+01 
-3.290169e+01 
2.355416e+01 
-8.775916e+00 
-3.628669e+01 
6.294852e+01 
-1.217384e+02 
1.272193e+02 
-1.108845e+02 
7.583440e+01 
-3.981799e+01 
-1.905837e+01 
4.645468e+01 
-1.285783e+02 
1.403813e+02 
-1.042212e+02 
1.974048e+01 
3.181501e+01 
-9.718691e+01 
8.517488e+01 
-6.642730e+01 
-3.323978e+00 
2.591137e+01 
-4.720350e+01 
2.929163e+00 
-1.624943e+01 
-1.627767e+01 
1.263992e+01 
-4.240335e+01 
-2.898242e+00 
5.848970e+00 
-3.991210e+01 
1.506008e+00 
-1.415089e+01 
-4.079729e+01 
4.341984e+01 
-6.046207e+01 
-1.372288e+01 
1.817903e+01 
-8.567998e+01 
6.975438e+01 
-5.971450e+01 
-1.902680e+01 
2.411986e+01 
-1.129055e+02 
1.038532e+02 
-9.122099e+01 
4.857016e+00 
5.737527e+00 
-7.271058e+01 
6.267575e+01 
-1.006053e+02 
4.102871e+01 
-5.023495e+01 
3.311524e+00 
-2.612803e+01 
-1.285424e+01 
-1.970998e+01 
-1.641095e+01 
