# vtk DataFile Version 2.0
fX_Lag
ASCII
DATASET UNSTRUCTURED_GRID

FIELD FieldData 1
TIME 1 1 double
1.43000000
POINTS 249 float
7.678149956184978e-01 5.000000000001694e-01 0.000000000000000e+00
7.677346896857796e-01 5.069321035613126e-01 0.000000000000000e+00
7.674975715783640e-01 5.138897693535164e-01 0.000000000000000e+00
7.670785816446363e-01 5.208392561329664e-01 0.000000000000000e+00
7.665400210464383e-01 5.276664912894088e-01 0.000000000000000e+00
7.657400091757359e-01 5.347068720863773e-01 0.000000000000000e+00
7.649944225572849e-01 5.412990717911222e-01 0.000000000000000e+00
7.637623089324731e-01 5.485087981452614e-01 0.000000000000000e+00
7.629511509596379e-01 5.546685347411964e-01 0.000000000000000e+00
7.611651300607530e-01 5.619683163823864e-01 0.000000000000000e+00
7.600321459368515e-01 5.683236850830856e-01 0.000000000000000e+00
7.580788476924087e-01 5.752619935464947e-01 0.000000000000000e+00
7.562230267872593e-01 5.819229670687707e-01 0.000000000000000e+00
7.544730220605154e-01 5.882745352305380e-01 0.000000000000000e+00
7.519456780233436e-01 5.952892612322096e-01 0.000000000000000e+00
7.502689785265845e-01 6.008687848519433e-01 0.000000000000000e+00
7.474038016259420e-01 6.078984320502068e-01 0.000000000000000e+00
7.449455030658015e-01 6.139924943653579e-01 0.000000000000000e+00
7.422405779143744e-01 6.202553117001174e-01 0.000000000000000e+00
7.390987343386564e-01 6.268285886061955e-01 0.000000000000000e+00
7.364191838768444e-01 6.323588013763171e-01 0.000000000000000e+00
7.329325464611665e-01 6.388777677023314e-01 0.000000000000000e+00
7.296935528850352e-01 6.446870780265450e-01 0.000000000000000e+00
7.262714411139457e-01 6.505131566812870e-01 0.000000000000000e+00
7.224164054241614e-01 6.566187755944521e-01 0.000000000000000e+00
7.188088045987506e-01 6.621175524785017e-01 0.000000000000000e+00
7.148058012078282e-01 6.678658003458940e-01 0.000000000000000e+00
7.106849676532863e-01 6.734701300934358e-01 0.000000000000000e+00
7.066145477408220e-01 6.787641609487937e-01 0.000000000000000e+00
7.022147218301765e-01 6.841742772669085e-01 0.000000000000000e+00
6.977066224066709e-01 6.894164490152692e-01 0.000000000000000e+00
6.931911446294843e-01 6.944445844143486e-01 0.000000000000000e+00
6.883884136627547e-01 6.995365438841338e-01 0.000000000000000e+00
6.835575219377595e-01 7.043552405521247e-01 0.000000000000000e+00
6.786339980645563e-01 7.090463811086214e-01 0.000000000000000e+00
6.735027427147313e-01 7.137296021719333e-01 0.000000000000000e+00
6.683678698827248e-01 7.181338907519259e-01 0.000000000000000e+00
6.629381199100223e-01 7.225582565707565e-01 0.000000000000000e+00
6.575847510150801e-01 7.267336305435759e-01 0.000000000000000e+00
6.521421120231753e-01 7.307155757907265e-01 0.000000000000000e+00
6.462335253993285e-01 7.348202898126681e-01 0.000000000000000e+00
6.409231564046156e-01 7.382987631001526e-01 0.000000000000000e+00
6.348419198434092e-01 7.420745427760675e-01 0.000000000000000e+00
6.289100776128146e-01 7.455422917314991e-01 0.000000000000000e+00
6.232025765788494e-01 7.486682943284793e-01 0.000000000000000e+00
6.165810252853066e-01 7.521660727700780e-01 0.000000000000000e+00
6.112308771626180e-01 7.545020323440307e-01 0.000000000000000e+00
6.045886534623154e-01 7.577558368058175e-01 0.000000000000000e+00
5.985276246053335e-01 7.600381067833361e-01 0.000000000000000e+00
5.921606863825186e-01 7.625325524516493e-01 0.000000000000000e+00
5.853560063253062e-01 7.651752581447507e-01 0.000000000000000e+00
5.794210405364687e-01 7.668860339164653e-01 0.000000000000000e+00
5.722607948119430e-01 7.692498062339791e-01 0.000000000000000e+00
5.665120882701741e-01 7.704240197611090e-01 0.000000000000000e+00
5.594053669387622e-01 7.722860988174690e-01 0.000000000000000e+00
5.529704505599209e-01 7.736041193341316e-01 0.000000000000000e+00
5.461374830449184e-01 7.748712530734265e-01 0.000000000000000e+00
5.392191016853830e-01 7.759938892957152e-01 0.000000000000000e+00
5.325424831249181e-01 7.768204202977744e-01 0.000000000000000e+00
5.255537483537234e-01 7.775468825395921e-01 0.000000000000000e+00
5.188923640729157e-01 7.780083138924176e-01 0.000000000000000e+00
5.118842104835557e-01 7.783699706368080e-01 0.000000000000000e+00
5.051006885453109e-01 7.784970007142624e-01 0.000000000000000e+00
4.981514231533732e-01 7.784372961292492e-01 0.000000000000000e+00
4.913772593992559e-01 7.782079745794268e-01 0.000000000000000e+00
4.843896470169560e-01 7.777692900721461e-01 0.000000000000000e+00
4.777497556992066e-01 7.772188692955162e-01 0.000000000000000e+00
4.706584737506369e-01 7.763457388246979e-01 0.000000000000000e+00
4.641766560812686e-01 7.754529095947061e-01 0.000000000000000e+00
4.570883811276478e-01 7.742017359857584e-01 0.000000000000000e+00
4.506582951661194e-01 7.730161700631200e-01 0.000000000000000e+00
4.437753394621076e-01 7.713849488214308e-01 0.000000000000000e+00
4.370542443170943e-01 7.695415844705921e-01 0.000000000000000e+00
4.308900036841917e-01 7.681145522466054e-01 0.000000000000000e+00
4.238472381923581e-01 7.656594100814902e-01 0.000000000000000e+00
4.177715109189090e-01 7.638850354239178e-01 0.000000000000000e+00
4.111044605361256e-01 7.610291341413371e-01 0.000000000000000e+00
4.048533850254705e-01 7.587757979202502e-01 0.000000000000000e+00
3.985640044202970e-01 7.560092019983482e-01 0.000000000000000e+00
3.921665702488128e-01 7.528497020920962e-01 0.000000000000000e+00
3.864991907363173e-01 7.501800132512899e-01 0.000000000000000e+00
3.799916522789122e-01 7.466859941266609e-01 0.000000000000000e+00
3.744074493138087e-01 7.435121428403354e-01 0.000000000000000e+00
3.685264136421348e-01 7.399315478336921e-01 0.000000000000000e+00
3.624894059922021e-01 7.360812987520835e-01 0.000000000000000e+00
3.572112261789245e-01 7.325812043799073e-01 0.000000000000000e+00
3.513453095643711e-01 7.283432886995141e-01 0.000000000000000e+00
3.459187243669361e-01 7.242412326030465e-01 0.000000000000000e+00
3.407568080382658e-01 7.201388265754859e-01 0.000000000000000e+00
3.353001933918676e-01 7.155710635771786e-01 0.000000000000000e+00
3.302043571162254e-01 7.111011746082527e-01 0.000000000000000e+00
3.253110638272829e-01 7.064843170915053e-01 0.000000000000000e+00
3.203217675499932e-01 7.016287839862277e-01 0.000000000000000e+00
3.155384901705936e-01 6.967294436715542e-01 0.000000000000000e+00
3.109370079197102e-01 6.917142849426994e-01 0.000000000000000e+00
3.063853662027308e-01 6.865442390399232e-01 0.000000000000000e+00
3.019588718332225e-01 6.812156770381267e-01 0.000000000000000e+00
2.976951471223741e-01 6.758648929740053e-01 0.000000000000000e+00
2.936430820866648e-01 6.704733192420269e-01 0.000000000000000e+00
2.894776596167054e-01 6.646605657140239e-01 0.000000000000000e+00
2.857635223903262e-01 6.591468665831047e-01 0.000000000000000e+00
2.820561398831231e-01 6.534108543197751e-01 0.000000000000000e+00
2.782824926022522e-01 6.472750991376059e-01 0.000000000000000e+00
2.752308705691107e-01 6.417986500212730e-01 0.000000000000000e+00
2.717413207647051e-01 6.354400780398273e-01 0.000000000000000e+00
2.685740904526030e-01 6.293441235211598e-01 0.000000000000000e+00
2.657355026356141e-01 6.234463812774733e-01 0.000000000000000e+00
2.626397090901869e-01 6.166359624177019e-01 0.000000000000000e+00
2.604413715945563e-01 6.110824180173938e-01 0.000000000000000e+00
2.575690679762302e-01 6.043622065616034e-01 0.000000000000000e+00
2.553318279704859e-01 5.979947579840671e-01 0.000000000000000e+00
2.532121202805671e-01 5.915213820225869e-01 0.000000000000000e+00
2.506803906458965e-01 5.846163402694464e-01 0.000000000000000e+00
2.494151477380471e-01 5.786470857629950e-01 0.000000000000000e+00
2.472004125966216e-01 5.713956497162255e-01 0.000000000000000e+00
2.459976341017654e-01 5.652114875953793e-01 0.000000000000000e+00
2.444077197974552e-01 5.582733408492950e-01 0.000000000000000e+00
2.431445104209786e-01 5.514582715431741e-01 0.000000000000000e+00
2.420899796909046e-01 5.448628816928025e-01 0.000000000000000e+00
2.409738049250111e-01 5.376162435801406e-01 0.000000000000000e+00
2.402990769893688e-01 5.312001338990723e-01 0.000000000000000e+00
2.395763289033898e-01 5.239904127835359e-01 0.000000000000000e+00
2.391608287449946e-01 5.173829608892199e-01 0.000000000000000e+00
2.388004032356525e-01 5.103177578348727e-01 0.000000000000000e+00
2.386533413274607e-01 5.034874967820370e-01 0.000000000000000e+00
2.386533413274677e-01 4.965125032196817e-01 0.000000000000000e+00
2.388004032356523e-01 4.896822421668329e-01 0.000000000000000e+00
2.391608287449578e-01 4.826170391125063e-01 0.000000000000000e+00
2.395763289033347e-01 4.760095872181997e-01 0.000000000000000e+00
2.402990769893079e-01 4.687998661026331e-01 0.000000000000000e+00
2.409738049249802e-01 4.623837564215080e-01 0.000000000000000e+00
2.420899796908482e-01 4.551371183088675e-01 0.000000000000000e+00
2.431445104209069e-01 4.485417284584977e-01 0.000000000000000e+00
2.444077197973196e-01 4.417266591524197e-01 0.000000000000000e+00
2.459976341016450e-01 4.347885124063147e-01 0.000000000000000e+00
2.472004125964511e-01 4.286043502855387e-01 0.000000000000000e+00
2.494151477379068e-01 4.213529142387262e-01 0.000000000000000e+00
2.506803906458308e-01 4.153836597321033e-01 0.000000000000000e+00
2.532121202804162e-01 4.084786179790595e-01 0.000000000000000e+00
2.553318279703954e-01 4.020052420175215e-01 0.000000000000000e+00
2.575690679760568e-01 3.956377934401046e-01 0.000000000000000e+00
2.604413715943921e-01 3.889175819842062e-01 0.000000000000000e+00
2.626397090900259e-01 3.833640375839433e-01 0.000000000000000e+00
2.657355026353974e-01 3.765536187242134e-01 0.000000000000000e+00
2.685740904524667e-01 3.706558764803807e-01 0.000000000000000e+00
2.717413207644681e-01 3.645599219618462e-01 0.000000000000000e+00
2.752308705689337e-01 3.582013499803016e-01 0.000000000000000e+00
2.782824926020565e-01 3.527249008639609e-01 0.000000000000000e+00
2.820561398828617e-01 3.465891456818703e-01 0.000000000000000e+00
2.857635223901449e-01 3.408531334184166e-01 0.000000000000000e+00
2.894776596164359e-01 3.353394342875894e-01 0.000000000000000e+00
2.936430820863947e-01 3.295266807595684e-01 0.000000000000000e+00
2.976951471221480e-01 3.241351070275204e-01 0.000000000000000e+00
3.019588718329227e-01 3.187843229634686e-01 0.000000000000000e+00
3.063853662024594e-01 3.134557609616330e-01 0.000000000000000e+00
3.109370079194304e-01 3.082857150588441e-01 0.000000000000000e+00
3.155384901702813e-01 3.032705563300004e-01 0.000000000000000e+00
3.203217675496871e-01 2.983712160153156e-01 0.000000000000000e+00
3.253110638269917e-01 2.935156829100101e-01 0.000000000000000e+00
3.302043571159046e-01 2.888988253932829e-01 0.000000000000000e+00
3.353001933915175e-01 2.844289364243546e-01 0.000000000000000e+00
3.407568080379667e-01 2.798611734260104e-01 0.000000000000000e+00
3.459187243666243e-01 2.757587673984430e-01 0.000000000000000e+00
3.513453095640287e-01 2.716567113019933e-01 0.000000000000000e+00
3.572112261785836e-01 2.674187956215844e-01 0.000000000000000e+00
3.624894059918800e-01 2.639187012494007e-01 0.000000000000000e+00
3.685264136417870e-01 2.600684521677913e-01 0.000000000000000e+00
3.744074493134923e-01 2.564878571611089e-01 0.000000000000000e+00
3.799916522785663e-01 2.533140058747966e-01 0.000000000000000e+00
3.864991907359996e-01 2.498199867501599e-01 0.000000000000000e+00
3.921665702485018e-01 2.471502979093508e-01 0.000000000000000e+00
3.985640044199383e-01 2.439907980030795e-01 0.000000000000000e+00
4.048533850251483e-01 2.412242020811659e-01 0.000000000000000e+00
4.111044605358167e-01 2.389708658600835e-01 0.000000000000000e+00
4.177715109185765e-01 2.361149645774744e-01 0.000000000000000e+00
4.238472381920193e-01 2.343405899198996e-01 0.000000000000000e+00
4.308900036838564e-01 2.318854477547767e-01 0.000000000000000e+00
4.370542443167559e-01 2.304584155307726e-01 0.000000000000000e+00
4.437753394617760e-01 2.286150511799300e-01 0.000000000000000e+00
4.506582951657649e-01 2.269838299382539e-01 0.000000000000000e+00
4.570883811273046e-01 2.257982640155881e-01 0.000000000000000e+00
4.641766560809501e-01 2.245470904066271e-01 0.000000000000000e+00
4.706584737502825e-01 2.236542611766396e-01 0.000000000000000e+00
4.777497556988848e-01 2.227811307057961e-01 0.000000000000000e+00
4.843896470165998e-01 2.222307099291740e-01 0.000000000000000e+00
4.913772593989086e-01 2.217920254218843e-01 0.000000000000000e+00
4.981514231530209e-01 2.215627038720537e-01 0.000000000000000e+00
5.051006885449608e-01 2.215029992870176e-01 0.000000000000000e+00
5.118842104832140e-01 2.216300293644732e-01 0.000000000000000e+00
5.188923640725651e-01 2.219916861088616e-01 0.000000000000000e+00
5.255537483533902e-01 2.224531174616803e-01 0.000000000000000e+00
5.325424831245732e-01 2.231795797034803e-01 0.000000000000000e+00
5.392191016850671e-01 2.240061107055339e-01 0.000000000000000e+00
5.461374830445840e-01 2.251287469278062e-01 0.000000000000000e+00
5.529704505595993e-01 2.263958806671051e-01 0.000000000000000e+00
5.594053669384582e-01 2.277139011837605e-01 0.000000000000000e+00
5.665120882698449e-01 2.295759802400927e-01 0.000000000000000e+00
5.722607948116910e-01 2.307501937672348e-01 0.000000000000000e+00
5.794210405362127e-01 2.331139660847616e-01 0.000000000000000e+00
5.853560063250973e-01 2.348247418564547e-01 0.000000000000000e+00
5.921606863822534e-01 2.374674475495515e-01 0.000000000000000e+00
5.985276246051132e-01 2.399618932178697e-01 0.000000000000000e+00
6.045886534621323e-01 2.422441631953741e-01 0.000000000000000e+00
6.112308771624054e-01 2.454979676571676e-01 0.000000000000000e+00
6.165810252851061e-01 2.478339272311044e-01 0.000000000000000e+00
6.232025765786686e-01 2.513317056727055e-01 0.000000000000000e+00
6.289100776126507e-01 2.544577082696955e-01 0.000000000000000e+00
6.348419198432170e-01 2.579254572251083e-01 0.000000000000000e+00
6.409231564044292e-01 2.617012369010122e-01 0.000000000000000e+00
6.462335253991317e-01 2.651797101884810e-01 0.000000000000000e+00
6.521421120230141e-01 2.692844242104406e-01 0.000000000000000e+00
6.575847510149272e-01 2.732663694576007e-01 0.000000000000000e+00
6.629381199098527e-01 2.774417434303939e-01 0.000000000000000e+00
6.683678698825646e-01 2.818661092492273e-01 0.000000000000000e+00
6.735027427145767e-01 2.862703978292176e-01 0.000000000000000e+00
6.786339980643827e-01 2.909536188925197e-01 0.000000000000000e+00
6.835575219375916e-01 2.956447594490016e-01 0.000000000000000e+00
6.883884136626051e-01 3.004634561170112e-01 0.000000000000000e+00
6.931911446293090e-01 3.055554155867660e-01 0.000000000000000e+00
6.977066224065300e-01 3.105835509858632e-01 0.000000000000000e+00
7.022147218300343e-01 3.158257227342348e-01 0.000000000000000e+00
7.066145477406863e-01 3.212358390523267e-01 0.000000000000000e+00
7.106849676531360e-01 3.265298699076814e-01 0.000000000000000e+00
7.148058012077019e-01 3.321341996552465e-01 0.000000000000000e+00
7.188088045986109e-01 3.378824475225983e-01 0.000000000000000e+00
7.224164054240219e-01 3.433812244066500e-01 0.000000000000000e+00
7.262714411138491e-01 3.494868433198660e-01 0.000000000000000e+00
7.296935528848817e-01 3.553129219745216e-01 0.000000000000000e+00
7.329325464610741e-01 3.611222322988166e-01 0.000000000000000e+00
7.364191838767352e-01 3.676411986247909e-01 0.000000000000000e+00
7.390987343385406e-01 3.731714113948836e-01 0.000000000000000e+00
7.422405779142797e-01 3.797446883010161e-01 0.000000000000000e+00
7.449455030656632e-01 3.860075056356813e-01 0.000000000000000e+00
7.474038016258842e-01 3.921015679509327e-01 0.000000000000000e+00
7.502689785264859e-01 3.991312151491458e-01 0.000000000000000e+00
7.519456780232734e-01 4.047107387689125e-01 0.000000000000000e+00
7.544730220604809e-01 4.117254647706265e-01 0.000000000000000e+00
7.562230267871805e-01 4.180770329323408e-01 0.000000000000000e+00
7.580788476923515e-01 4.247380064546070e-01 0.000000000000000e+00
7.600321459367612e-01 4.316763149179796e-01 0.000000000000000e+00
7.611651300607229e-01 4.380316836187609e-01 0.000000000000000e+00
7.629511509596107e-01 4.453314652599223e-01 0.000000000000000e+00
7.637623089324559e-01 4.514912018558881e-01 0.000000000000000e+00
7.649944225572837e-01 4.587009282100553e-01 0.000000000000000e+00
7.657400091757236e-01 4.652931279147595e-01 0.000000000000000e+00
7.665400210464258e-01 4.723335087116605e-01 0.000000000000000e+00
7.670785816446224e-01 4.791607438681532e-01 0.000000000000000e+00
7.674975715783652e-01 4.861102306478098e-01 0.000000000000000e+00
7.677346896857855e-01 4.930678964402176e-01 0.000000000000000e+00

POINT_DATA   249
SCALARS fX_Lag double
LOOKUP_TABLE default

-1.606114e+01 
-1.568132e+01 
-1.818726e+01 
-1.195714e+01 
-2.614550e+01 
5.442891e+00 
-4.865261e+01 
4.209580e+01 
-9.748724e+01 
6.530433e+01 
-8.203173e+01 
9.748418e+00 
1.058112e+01 
-7.773445e+01 
8.506465e+01 
-1.188476e+02 
4.068861e+01 
-2.466280e+01 
-4.369188e+01 
4.622729e+01 
-8.070801e+01 
2.476691e+01 
-1.831210e+01 
-4.329393e+01 
2.474226e+01 
-3.953790e+01 
-1.178340e+01 
5.041788e+00 
-3.294159e+01 
-1.082754e+01 
-7.354511e-01 
-2.872688e+01 
-2.818993e+00 
-9.259086e+00 
-2.077351e+01 
-3.642119e-01 
-2.948640e+01 
7.638446e+00 
-8.926922e+00 
-4.659636e+01 
5.982048e+01 
-7.708284e+01 
1.493901e+01 
2.243408e+01 
-9.140789e+01 
1.271408e+02 
-1.292058e+02 
5.811918e+01 
-3.059124e+01 
-4.377414e+01 
8.697063e+01 
-1.225271e+02 
1.411521e+02 
-1.358001e+02 
6.718036e+01 
-3.980540e+01 
-8.541182e+00 
2.417567e+01 
-3.121118e+01 
3.273504e+01 
-3.467667e+01 
2.246272e+01 
-1.657457e+01 
1.751031e+01 
-2.134416e+01 
3.477169e+01 
-4.513886e+01 
6.094583e+01 
-6.064519e+01 
6.581864e+01 
-4.528690e+01 
1.618715e+01 
5.568293e+01 
-8.784992e+01 
9.670309e+01 
-5.913258e+01 
4.159778e+01 
-3.831975e+00 
-1.080188e+01 
7.300318e+01 
-8.401594e+01 
9.233538e+01 
-2.968613e+01 
-1.559501e+01 
7.588100e+01 
-5.877247e+01 
4.393578e+01 
2.646385e+01 
-2.947173e+01 
3.608213e+01 
2.025312e+01 
-9.602556e+00 
2.060472e+01 
1.817931e+01 
4.981628e+00 
1.251665e+01 
1.627727e+01 
2.116334e+01 
-1.133304e+01 
4.512904e+01 
6.747686e-01 
-6.627913e+00 
7.220175e+01 
-4.379113e+01 
3.223328e+01 
3.286406e+01 
-2.572251e+01 
8.974552e+01 
-6.739527e+01 
6.350649e+01 
1.175357e+01 
-4.120261e+01 
1.266494e+02 
-9.495054e+01 
1.011964e+02 
-3.871320e+01 
3.267032e+01 
2.086745e+01 
-6.164459e+00 
4.414497e+01 
-4.802165e+00 
3.072476e+01 
5.507238e+00 
2.133630e+01 
1.470607e+01 
1.470607e+01 
2.133630e+01 
5.507238e+00 
3.072476e+01 
-4.802165e+00 
4.414497e+01 
-6.164459e+00 
2.086745e+01 
3.267032e+01 
-3.871320e+01 
1.011964e+02 
-9.495054e+01 
1.266494e+02 
-4.120261e+01 
1.175357e+01 
6.350649e+01 
-6.739527e+01 
8.974552e+01 
-2.572251e+01 
3.286406e+01 
3.223328e+01 
-4.379113e+01 
7.220175e+01 
-6.627913e+00 
6.747686e-01 
4.512904e+01 
-1.133304e+01 
2.116334e+01 
1.627727e+01 
1.251665e+01 
4.981628e+00 
1.817931e+01 
2.060472e+01 
-9.602556e+00 
2.025312e+01 
3.608213e+01 
-2.947173e+01 
2.646385e+01 
4.393578e+01 
-5.877247e+01 
7.588100e+01 
-1.559501e+01 
-2.968613e+01 
9.233538e+01 
-8.401594e+01 
7.300318e+01 
-1.080188e+01 
-3.831975e+00 
4.159778e+01 
-5.913258e+01 
9.670309e+01 
-8.784992e+01 
5.568293e+01 
1.618715e+01 
-4.528690e+01 
6.581864e+01 
-6.064519e+01 
6.094583e+01 
-4.513886e+01 
3.477169e+01 
-2.134416e+01 
1.751031e+01 
-1.657457e+01 
2.246272e+01 
-3.467667e+01 
3.273504e+01 
-3.121118e+01 
2.417567e+01 
-8.541182e+00 
-3.980540e+01 
6.718036e+01 
-1.358001e+02 
1.411521e+02 
-1.225271e+02 
8.697063e+01 
-4.377414e+01 
-3.059124e+01 
5.811918e+01 
-1.292058e+02 
1.271408e+02 
-9.140789e+01 
2.243408e+01 
1.493901e+01 
-7.708284e+01 
5.982048e+01 
-4.659636e+01 
-8.926922e+00 
7.638446e+00 
-2.948640e+01 
-3.642119e-01 
-2.077351e+01 
-9.259086e+00 
-2.818993e+00 
-2.872688e+01 
-7.354511e-01 
-1.082754e+01 
-3.294159e+01 
5.041788e+00 
-1.178340e+01 
-3.953790e+01 
2.474226e+01 
-4.329393e+01 
-1.831210e+01 
2.476691e+01 
-8.070801e+01 
4.622729e+01 
-4.369188e+01 
-2.466280e+01 
4.068861e+01 
-1.188476e+02 
8.506465e+01 
-7.773445e+01 
1.058112e+01 
9.748418e+00 
-8.203173e+01 
6.530433e+01 
-9.748724e+01 
4.209580e+01 
-4.865261e+01 
5.442891e+00 
-2.614550e+01 
-1.195714e+01 
-1.818726e+01 
-1.568132e+01 
