# vtk DataFile Version 2.0
fX_Lag
ASCII
DATASET UNSTRUCTURED_GRID

FIELD FieldData 1
TIME 1 1 double
0.04000000
POINTS 249 float
7.104265577008282e-01 5.000000000000000e-01 0.000000000000000e+00
7.104162475345746e-01 5.065999468313377e-01 0.000000000000000e+00
7.103445113325378e-01 5.132000022849402e-01 0.000000000000000e+00
7.102514383773262e-01 5.198089185671869e-01 0.000000000000000e+00
7.101107615130177e-01 5.264234928945890e-01 0.000000000000000e+00
7.099264603583497e-01 5.330491975962398e-01 0.000000000000000e+00
7.097055641279576e-01 5.396898541398389e-01 0.000000000000000e+00
7.094417885561793e-01 5.463445237828014e-01 0.000000000000000e+00
7.091350191301887e-01 5.530176834786332e-01 0.000000000000000e+00
7.087841003876887e-01 5.597086135759728e-01 0.000000000000000e+00
7.083922043818703e-01 5.664244517678551e-01 0.000000000000000e+00
7.079628216487996e-01 5.731639549351873e-01 0.000000000000000e+00
7.074851831171071e-01 5.799307047221807e-01 0.000000000000000e+00
7.069496897352119e-01 5.867207307185703e-01 0.000000000000000e+00
7.063707680021127e-01 5.935437780913425e-01 0.000000000000000e+00
7.057360487811107e-01 6.003909813663121e-01 0.000000000000000e+00
7.050418142197692e-01 6.072681608591209e-01 0.000000000000000e+00
7.042937845210370e-01 6.141869086249832e-01 0.000000000000000e+00
7.034847757730338e-01 6.211397305569943e-01 0.000000000000000e+00
7.026023728372705e-01 6.281492365538278e-01 0.000000000000000e+00
7.016396925675407e-01 6.352007788536650e-01 0.000000000000000e+00
7.005914622163212e-01 6.423024019314278e-01 0.000000000000000e+00
6.994508955604970e-01 6.494350241875293e-01 0.000000000000000e+00
6.982115692886995e-01 6.565990569011405e-01 0.000000000000000e+00
6.968793333238846e-01 6.637826814885467e-01 0.000000000000000e+00
6.954423675263486e-01 6.709839957981474e-01 0.000000000000000e+00
6.938922800923394e-01 6.782137419584694e-01 0.000000000000000e+00
6.922298720749602e-01 6.854493011541840e-01 0.000000000000000e+00
6.904120443714936e-01 6.927129471338326e-01 0.000000000000000e+00
6.884361598591662e-01 6.999833203444273e-01 0.000000000000000e+00
6.862966918879134e-01 7.072732156060137e-01 0.000000000000000e+00
6.840061509518315e-01 7.145386347244757e-01 0.000000000000000e+00
6.815433201152775e-01 7.217789954585879e-01 0.000000000000000e+00
6.788957413007610e-01 7.289880730306687e-01 0.000000000000000e+00
6.760401668339918e-01 7.361573697256660e-01 0.000000000000000e+00
6.729629707194514e-01 7.432738898576441e-01 0.000000000000000e+00
6.696817810756712e-01 7.503032807517196e-01 0.000000000000000e+00
6.661639352809081e-01 7.572735259171004e-01 0.000000000000000e+00
6.624096837176143e-01 7.641290860136767e-01 0.000000000000000e+00
6.584112162160192e-01 7.708420972578358e-01 0.000000000000000e+00
6.541507238083465e-01 7.774480504262918e-01 0.000000000000000e+00
6.496258738603622e-01 7.839036119288689e-01 0.000000000000000e+00
6.448563062421132e-01 7.901554255973293e-01 0.000000000000000e+00
6.398028191770043e-01 7.962240720205471e-01 0.000000000000000e+00
6.344714061252598e-01 8.020968769641091e-01 0.000000000000000e+00
6.288966981225335e-01 8.077245133170586e-01 0.000000000000000e+00
6.230324290021303e-01 8.131351343620820e-01 0.000000000000000e+00
6.169216675058699e-01 8.182729703535377e-01 0.000000000000000e+00
6.105715207221404e-01 8.231341653395942e-01 0.000000000000000e+00
6.039428836173480e-01 8.277561172423245e-01 0.000000000000000e+00
5.971182001069741e-01 8.320494127559221e-01 0.000000000000000e+00
5.900177059909073e-01 8.360871088692657e-01 0.000000000000000e+00
5.827401745964240e-01 8.397686068763057e-01 0.000000000000000e+00
5.752576240641508e-01 8.431552820386063e-01 0.000000000000000e+00
5.676043548390148e-01 8.462103735712267e-01 0.000000000000000e+00
5.597473100933514e-01 8.489658290316080e-01 0.000000000000000e+00
5.518402198117621e-01 8.513301856346429e-01 0.000000000000000e+00
5.437343693961502e-01 8.533884840210850e-01 0.000000000000000e+00
5.355500364468426e-01 8.550575440328648e-01 0.000000000000000e+00
5.272636179492162e-01 8.563830002328354e-01 0.000000000000000e+00
5.189267981990850e-01 8.573496075912601e-01 0.000000000000000e+00
5.105055088319103e-01 8.579477529076092e-01 0.000000000000000e+00
5.021248990918370e-01 8.582135293268869e-01 0.000000000000000e+00
4.936711805594147e-01 8.581177251010322e-01 0.000000000000000e+00
4.852905641742346e-01 8.576935838968508e-01 0.000000000000000e+00
4.768857540190541e-01 8.569092809803531e-01 0.000000000000000e+00
4.685900615726416e-01 8.557675252084452e-01 0.000000000000000e+00
4.603493752584003e-01 8.542763331699167e-01 0.000000000000000e+00
4.521809055401089e-01 8.524012062951598e-01 0.000000000000000e+00
4.441941370047396e-01 8.501923109084528e-01 0.000000000000000e+00
4.363016223484046e-01 8.476167583097325e-01 0.000000000000000e+00
4.285501772240081e-01 8.447129608502242e-01 0.000000000000000e+00
4.209809117025003e-01 8.414836868782518e-01 0.000000000000000e+00
4.136091289570500e-01 8.379636820346396e-01 0.000000000000000e+00
4.064032791062231e-01 8.341072505377143e-01 0.000000000000000e+00
3.994422902677431e-01 8.299506670150693e-01 0.000000000000000e+00
3.927123126236408e-01 8.254964381915765e-01 0.000000000000000e+00
3.862200030026301e-01 8.207429582324465e-01 0.000000000000000e+00
3.799966613535520e-01 8.157469312381462e-01 0.000000000000000e+00
3.739995634545062e-01 8.104588848042301e-01 0.000000000000000e+00
3.682838976368228e-01 8.049404808585975e-01 0.000000000000000e+00
3.628355711824663e-01 7.991910066230964e-01 0.000000000000000e+00
3.576364547906577e-01 7.932103274272102e-01 0.000000000000000e+00
3.527285368366586e-01 7.870518446548518e-01 0.000000000000000e+00
3.480840866554213e-01 7.807016927568607e-01 0.000000000000000e+00
3.436850080646978e-01 7.741569097194930e-01 0.000000000000000e+00
3.395583809794384e-01 7.675014069562326e-01 0.000000000000000e+00
3.356840403824082e-01 7.607193029559447e-01 0.000000000000000e+00
3.320489336770613e-01 7.537983533106735e-01 0.000000000000000e+00
3.286518980055035e-01 7.467968458588536e-01 0.000000000000000e+00
3.254752192819305e-01 7.397273047832394e-01 0.000000000000000e+00
3.225033068331227e-01 7.325761218281388e-01 0.000000000000000e+00
3.197579958834723e-01 7.253912728089714e-01 0.000000000000000e+00
3.172008100632520e-01 7.181600480081629e-01 0.000000000000000e+00
3.148290871751711e-01 7.109128506625371e-01 0.000000000000000e+00
3.126113136025025e-01 7.036271695023381e-01 0.000000000000000e+00
3.105559047876394e-01 6.963489894399647e-01 0.000000000000000e+00
3.086571391172396e-01 6.890770336815475e-01 0.000000000000000e+00
3.069234442565675e-01 6.818318620084270e-01 0.000000000000000e+00
3.053186332844278e-01 6.745973154278990e-01 0.000000000000000e+00
3.038259581597155e-01 6.673821792342549e-01 0.000000000000000e+00
3.024432104480485e-01 6.601881707178607e-01 0.000000000000000e+00
3.011575466148020e-01 6.530150178689504e-01 0.000000000000000e+00
2.999667779959307e-01 6.458647717077242e-01 0.000000000000000e+00
2.988726027179037e-01 6.387473142825378e-01 0.000000000000000e+00
2.978685307429502e-01 6.316692221649649e-01 0.000000000000000e+00
2.969458437128319e-01 6.246372551344546e-01 0.000000000000000e+00
2.961036747913597e-01 6.176583465701814e-01 0.000000000000000e+00
2.953260079341318e-01 6.107218722933672e-01 0.000000000000000e+00
2.946033052211477e-01 6.038252084031251e-01 0.000000000000000e+00
2.939383369339202e-01 5.969638502147001e-01 0.000000000000000e+00
2.933333720387530e-01 5.901296455835154e-01 0.000000000000000e+00
2.927799797658931e-01 5.833232527276790e-01 0.000000000000000e+00
2.922760260467867e-01 5.765408666716274e-01 0.000000000000000e+00
2.918131423501822e-01 5.697918338759715e-01 0.000000000000000e+00
2.914013916457734e-01 5.630633051597207e-01 0.000000000000000e+00
2.910334783704051e-01 5.563600628591446e-01 0.000000000000000e+00
2.907046240619041e-01 5.496799373664265e-01 0.000000000000000e+00
2.904218893809239e-01 5.430143002088820e-01 0.000000000000000e+00
2.901745312687150e-01 5.363689938875864e-01 0.000000000000000e+00
2.899780432290133e-01 5.297342137487735e-01 0.000000000000000e+00
2.898211110459588e-01 5.231147533598909e-01 0.000000000000000e+00
2.896922886629522e-01 5.165037874922417e-01 0.000000000000000e+00
2.896149211336699e-01 5.099000723152142e-01 0.000000000000000e+00
2.895753373039232e-01 5.032988693245387e-01 0.000000000000000e+00
2.895753373039233e-01 4.967011306754628e-01 0.000000000000000e+00
2.896149211336699e-01 4.900999276847837e-01 0.000000000000000e+00
2.896922886629520e-01 4.834962125077579e-01 0.000000000000000e+00
2.898211110459588e-01 4.768852466401090e-01 0.000000000000000e+00
2.899780432290128e-01 4.702657862512263e-01 0.000000000000000e+00
2.901745312687153e-01 4.636310061124145e-01 0.000000000000000e+00
2.904218893809236e-01 4.569856997911176e-01 0.000000000000000e+00
2.907046240619039e-01 4.503200626335739e-01 0.000000000000000e+00
2.910334783704050e-01 4.436399371408555e-01 0.000000000000000e+00
2.914013916457732e-01 4.369366948402800e-01 0.000000000000000e+00
2.918131423501820e-01 4.302081661240287e-01 0.000000000000000e+00
2.922760260467870e-01 4.234591333283729e-01 0.000000000000000e+00
2.927799797658928e-01 4.166767472723201e-01 0.000000000000000e+00
2.933333720387530e-01 4.098703544164838e-01 0.000000000000000e+00
2.939383369339200e-01 4.030361497853002e-01 0.000000000000000e+00
2.946033052211477e-01 3.961747915968770e-01 0.000000000000000e+00
2.953260079341317e-01 3.892781277066324e-01 0.000000000000000e+00
2.961036747913594e-01 3.823416534298180e-01 0.000000000000000e+00
2.969458437128319e-01 3.753627448655459e-01 0.000000000000000e+00
2.978685307429497e-01 3.683307778350365e-01 0.000000000000000e+00
2.988726027179040e-01 3.612526857174616e-01 0.000000000000000e+00
2.999667779959300e-01 3.541352282922769e-01 0.000000000000000e+00
3.011575466148022e-01 3.469849821310512e-01 0.000000000000000e+00
3.024432104480482e-01 3.398118292821393e-01 0.000000000000000e+00
3.038259581597155e-01 3.326178207657466e-01 0.000000000000000e+00
3.053186332844278e-01 3.254026845720996e-01 0.000000000000000e+00
3.069234442565675e-01 3.181681379915738e-01 0.000000000000000e+00
3.086571391172394e-01 3.109229663184517e-01 0.000000000000000e+00
3.105559047876397e-01 3.036510105600357e-01 0.000000000000000e+00
3.126113136025025e-01 2.963728304976625e-01 0.000000000000000e+00
3.148290871751713e-01 2.890871493374621e-01 0.000000000000000e+00
3.172008100632518e-01 2.818399519918379e-01 0.000000000000000e+00
3.197579958834721e-01 2.746087271910278e-01 0.000000000000000e+00
3.225033068331223e-01 2.674238781718621e-01 0.000000000000000e+00
3.254752192819306e-01 2.602726952167607e-01 0.000000000000000e+00
3.286518980055035e-01 2.532031541411460e-01 0.000000000000000e+00
3.320489336770617e-01 2.462016466893262e-01 0.000000000000000e+00
3.356840403824081e-01 2.392806970440562e-01 0.000000000000000e+00
3.395583809794384e-01 2.324985930437664e-01 0.000000000000000e+00
3.436850080646983e-01 2.258430902805075e-01 0.000000000000000e+00
3.480840866554216e-01 2.192983072431381e-01 0.000000000000000e+00
3.527285368366577e-01 2.129481553451485e-01 0.000000000000000e+00
3.576364547906579e-01 2.067896725727905e-01 0.000000000000000e+00
3.628355711824673e-01 2.008089933769009e-01 0.000000000000000e+00
3.682838976368223e-01 1.950595191414048e-01 0.000000000000000e+00
3.739995634545057e-01 1.895411151957717e-01 0.000000000000000e+00
3.799966613535521e-01 1.842530687618542e-01 0.000000000000000e+00
3.862200030026314e-01 1.792570417675521e-01 0.000000000000000e+00
3.927123126236410e-01 1.745035618084226e-01 0.000000000000000e+00
3.994422902677420e-01 1.700493329849320e-01 0.000000000000000e+00
4.064032791062227e-01 1.658927494622865e-01 0.000000000000000e+00
4.136091289570497e-01 1.620363179653605e-01 0.000000000000000e+00
4.209809117025020e-01 1.585163131217461e-01 0.000000000000000e+00
4.285501772240059e-01 1.552870391497769e-01 0.000000000000000e+00
4.363016223484041e-01 1.523832416902680e-01 0.000000000000000e+00
4.441941370047385e-01 1.498076890915477e-01 0.000000000000000e+00
4.521809055401090e-01 1.475987937048405e-01 0.000000000000000e+00
4.603493752584004e-01 1.457236668300835e-01 0.000000000000000e+00
4.685900615726415e-01 1.442324747915542e-01 0.000000000000000e+00
4.768857540190538e-01 1.430907190196474e-01 0.000000000000000e+00
4.852905641742343e-01 1.423064161031493e-01 0.000000000000000e+00
4.936711805594142e-01 1.418822748989673e-01 0.000000000000000e+00
5.021248990918369e-01 1.417864706731138e-01 0.000000000000000e+00
5.105055088319097e-01 1.420522470923903e-01 0.000000000000000e+00
5.189267981990850e-01 1.426503924087394e-01 0.000000000000000e+00
5.272636179492157e-01 1.436169997671639e-01 0.000000000000000e+00
5.355500364468421e-01 1.449424559671341e-01 0.000000000000000e+00
5.437343693961503e-01 1.466115159789149e-01 0.000000000000000e+00
5.518402198117618e-01 1.486698143653572e-01 0.000000000000000e+00
5.597473100933511e-01 1.510341709683917e-01 0.000000000000000e+00
5.676043548390139e-01 1.537896264287712e-01 0.000000000000000e+00
5.752576240641514e-01 1.568447179613938e-01 0.000000000000000e+00
5.827401745964247e-01 1.602313931236940e-01 0.000000000000000e+00
5.900177059909071e-01 1.639128911307345e-01 0.000000000000000e+00
5.971182001069734e-01 1.679505872440752e-01 0.000000000000000e+00
6.039428836173493e-01 1.722438827576780e-01 0.000000000000000e+00
6.105715207221403e-01 1.768658346604060e-01 0.000000000000000e+00
6.169216675058693e-01 1.817270296464621e-01 0.000000000000000e+00
6.230324290021304e-01 1.868648656379187e-01 0.000000000000000e+00
6.288966981225326e-01 1.922754866829393e-01 0.000000000000000e+00
6.344714061252603e-01 1.979031230358926e-01 0.000000000000000e+00
6.398028191770043e-01 2.037759279794517e-01 0.000000000000000e+00
6.448563062421129e-01 2.098445744026710e-01 0.000000000000000e+00
6.496258738603614e-01 2.160963880711311e-01 0.000000000000000e+00
6.541507238083460e-01 2.225519495737066e-01 0.000000000000000e+00
6.584112162160189e-01 2.291579027421631e-01 0.000000000000000e+00
6.624096837176151e-01 2.358709139863263e-01 0.000000000000000e+00
6.661639352809077e-01 2.427264740828970e-01 0.000000000000000e+00
6.696817810756712e-01 2.496967192482807e-01 0.000000000000000e+00
6.729629707194514e-01 2.567261101423550e-01 0.000000000000000e+00
6.760401668339918e-01 2.638426302743339e-01 0.000000000000000e+00
6.788957413007610e-01 2.710119269693314e-01 0.000000000000000e+00
6.815433201152772e-01 2.782210045414113e-01 0.000000000000000e+00
6.840061509518310e-01 2.854613652755233e-01 0.000000000000000e+00
6.862966918879130e-01 2.927267843939867e-01 0.000000000000000e+00
6.884361598591671e-01 3.000166796555730e-01 0.000000000000000e+00
6.904120443714935e-01 3.072870528661653e-01 0.000000000000000e+00
6.922298720749599e-01 3.145506988458169e-01 0.000000000000000e+00
6.938922800923397e-01 3.217862580415305e-01 0.000000000000000e+00
6.954423675263481e-01 3.290160042018504e-01 0.000000000000000e+00
6.968793333238847e-01 3.362173185114526e-01 0.000000000000000e+00
6.982115692886992e-01 3.434009430988592e-01 0.000000000000000e+00
6.994508955604974e-01 3.505649758124718e-01 0.000000000000000e+00
7.005914622163212e-01 3.576975980685715e-01 0.000000000000000e+00
7.016396925675403e-01 3.647992211463341e-01 0.000000000000000e+00
7.026023728372707e-01 3.718507634461711e-01 0.000000000000000e+00
7.034847757730338e-01 3.788602694430067e-01 0.000000000000000e+00
7.042937845210370e-01 3.858130913750172e-01 0.000000000000000e+00
7.050418142197685e-01 3.927318391408788e-01 0.000000000000000e+00
7.057360487811105e-01 3.996090186336865e-01 0.000000000000000e+00
7.063707680021123e-01 4.064562219086584e-01 0.000000000000000e+00
7.069496897352120e-01 4.132792692814291e-01 0.000000000000000e+00
7.074851831171070e-01 4.200692952778200e-01 0.000000000000000e+00
7.079628216487991e-01 4.268360450648127e-01 0.000000000000000e+00
7.083922043818701e-01 4.335755482321468e-01 0.000000000000000e+00
7.087841003876891e-01 4.402913864240254e-01 0.000000000000000e+00
7.091350191301886e-01 4.469823165213672e-01 0.000000000000000e+00
7.094417885561792e-01 4.536554762171972e-01 0.000000000000000e+00
7.097055641279578e-01 4.603101458601617e-01 0.000000000000000e+00
7.099264603583493e-01 4.669508024037602e-01 0.000000000000000e+00
7.101107615130178e-01 4.735765071054103e-01 0.000000000000000e+00
7.102514383773261e-01 4.801910814328152e-01 0.000000000000000e+00
7.103445113325382e-01 4.867999977150592e-01 0.000000000000000e+00
7.104162475345744e-01 4.934000531686632e-01 0.000000000000000e+00

POINT_DATA   249
SCALARS fX_Lag double
LOOKUP_TABLE default

-2.065626e+00 
-6.144376e+00 
-2.137037e+00 
-4.763210e+00 
-4.365241e+00 
-3.663187e+00 
-4.290402e+00 
-4.302947e+00 
-4.417106e+00 
-4.100623e+00 
-3.751164e+00 
-4.827998e+00 
-5.787761e+00 
-4.344684e+00 
-5.580833e+00 
-5.951812e+00 
-5.379766e+00 
-6.099395e+00 
-7.341053e+00 
-8.027153e+00 
-8.555377e+00 
-9.225622e+00 
-9.868968e+00 
-9.281187e+00 
-1.047010e+01 
-1.130886e+01 
-1.123643e+01 
-1.554126e+01 
-1.579854e+01 
-1.634536e+01 
-1.509479e+01 
-1.722183e+01 
-1.847217e+01 
-2.080005e+01 
-2.215043e+01 
-2.038939e+01 
-2.364948e+01 
-2.364506e+01 
-2.441543e+01 
-2.619822e+01 
-2.642491e+01 
-2.446952e+01 
-2.840488e+01 
-2.777070e+01 
-2.433411e+01 
-2.896991e+01 
-2.463300e+01 
-2.395586e+01 
-2.785371e+01 
-1.960664e+01 
-2.758482e+01 
-1.770571e+01 
-2.050164e+01 
-1.707307e+01 
-2.038942e+01 
-5.013812e+00 
-1.988255e+01 
-7.851797e+00 
-1.020786e+01 
-5.040864e+00 
-8.444048e+00 
4.069215e+00 
-7.308446e+00 
7.307596e+00 
-2.423204e+00 
1.091456e+01 
5.495464e+00 
7.229985e+00 
1.816786e+01 
9.441262e+00 
1.410764e+01 
1.823342e+01 
1.973733e+01 
1.660443e+01 
2.448203e+01 
2.311358e+01 
2.376150e+01 
2.691432e+01 
2.262299e+01 
2.813701e+01 
2.674970e+01 
2.490444e+01 
2.911899e+01 
2.635717e+01 
2.452679e+01 
2.723952e+01 
2.521982e+01 
2.392459e+01 
2.380151e+01 
2.201942e+01 
2.046794e+01 
2.265332e+01 
1.881591e+01 
1.853837e+01 
1.538856e+01 
1.621892e+01 
1.565691e+01 
1.650025e+01 
1.289211e+01 
1.121444e+01 
1.098865e+01 
9.702614e+00 
9.480374e+00 
9.651929e+00 
9.007159e+00 
8.138802e+00 
8.052204e+00 
6.452167e+00 
5.497154e+00 
5.773105e+00 
6.000251e+00 
5.158762e+00 
4.945669e+00 
4.110661e+00 
5.116307e+00 
4.387169e+00 
3.907663e+00 
4.614100e+00 
3.540291e+00 
5.089200e+00 
3.959442e+00 
2.813809e+00 
5.149281e+00 
3.780673e+00 
3.961246e+00 
3.961246e+00 
3.780673e+00 
5.149281e+00 
2.813809e+00 
3.959442e+00 
5.089200e+00 
3.540291e+00 
4.614100e+00 
3.907663e+00 
4.387169e+00 
5.116307e+00 
4.110661e+00 
4.945669e+00 
5.158762e+00 
6.000251e+00 
5.773105e+00 
5.497154e+00 
6.452167e+00 
8.052204e+00 
8.138802e+00 
9.007159e+00 
9.651929e+00 
9.480374e+00 
9.702614e+00 
1.098865e+01 
1.121444e+01 
1.289211e+01 
1.650025e+01 
1.565691e+01 
1.621892e+01 
1.538856e+01 
1.853837e+01 
1.881591e+01 
2.265332e+01 
2.046794e+01 
2.201942e+01 
2.380151e+01 
2.392459e+01 
2.521982e+01 
2.723952e+01 
2.452679e+01 
2.635717e+01 
2.911899e+01 
2.490444e+01 
2.674970e+01 
2.813701e+01 
2.262299e+01 
2.691432e+01 
2.376150e+01 
2.311358e+01 
2.448203e+01 
1.660443e+01 
1.973733e+01 
1.823342e+01 
1.410764e+01 
9.441262e+00 
1.816786e+01 
7.229985e+00 
5.495464e+00 
1.091456e+01 
-2.423204e+00 
7.307596e+00 
-7.308446e+00 
4.069215e+00 
-8.444048e+00 
-5.040864e+00 
-1.020786e+01 
-7.851797e+00 
-1.988255e+01 
-5.013812e+00 
-2.038942e+01 
-1.707307e+01 
-2.050164e+01 
-1.770571e+01 
-2.758482e+01 
-1.960664e+01 
-2.785371e+01 
-2.395586e+01 
-2.463300e+01 
-2.896991e+01 
-2.433411e+01 
-2.777070e+01 
-2.840488e+01 
-2.446952e+01 
-2.642491e+01 
-2.619822e+01 
-2.441543e+01 
-2.364506e+01 
-2.364948e+01 
-2.038939e+01 
-2.215043e+01 
-2.080005e+01 
-1.847217e+01 
-1.722183e+01 
-1.509479e+01 
-1.634536e+01 
-1.579854e+01 
-1.554126e+01 
-1.123643e+01 
-1.130886e+01 
-1.047010e+01 
-9.281187e+00 
-9.868968e+00 
-9.225622e+00 
-8.555377e+00 
-8.027153e+00 
-7.341053e+00 
-6.099395e+00 
-5.379766e+00 
-5.951812e+00 
-5.580833e+00 
-4.344684e+00 
-5.787761e+00 
-4.827998e+00 
-3.751164e+00 
-4.100623e+00 
-4.417106e+00 
-4.302947e+00 
-4.290402e+00 
-3.663187e+00 
-4.365241e+00 
-4.763210e+00 
-2.137037e+00 
-6.144376e+00 
