# vtk DataFile Version 2.0
fX_Lag
ASCII
DATASET UNSTRUCTURED_GRID

FIELD FieldData 1
TIME 1 1 double
1.58000000
POINTS 249 float
7.779364365287069e-01 5.000000000002327e-01 0.000000000000000e+00
7.778419785716090e-01 5.068273163814606e-01 0.000000000000000e+00
7.775758378408658e-01 5.136877217302489e-01 0.000000000000000e+00
7.771049545129366e-01 5.205421147417568e-01 0.000000000000000e+00
7.765032021939269e-01 5.272607288555147e-01 0.000000000000000e+00
7.756343891277389e-01 5.341591800005545e-01 0.000000000000000e+00
7.747868457034203e-01 5.406687719089157e-01 0.000000000000000e+00
7.734210368818791e-01 5.477704272034148e-01 0.000000000000000e+00
7.724608951653650e-01 5.539234723592749e-01 0.000000000000000e+00
7.704990615097712e-01 5.609875360803261e-01 0.000000000000000e+00
7.691668286474260e-01 5.673730046487485e-01 0.000000000000000e+00
7.670777072750007e-01 5.740511549049906e-01 0.000000000000000e+00
7.650465319606891e-01 5.805715821723695e-01 0.000000000000000e+00
7.630537196351014e-01 5.868220543418883e-01 0.000000000000000e+00
7.601793315292044e-01 5.936374995009231e-01 0.000000000000000e+00
7.582981027945115e-01 5.991855963498524e-01 0.000000000000000e+00
7.552633666887374e-01 6.059136068201222e-01 0.000000000000000e+00
7.525301635394963e-01 6.118784414159832e-01 0.000000000000000e+00
7.495541039195974e-01 6.178770189927120e-01 0.000000000000000e+00
7.460293304348504e-01 6.242774066982805e-01 0.000000000000000e+00
7.431486256764842e-01 6.295630580894279e-01 0.000000000000000e+00
7.394071516240481e-01 6.358347199037410e-01 0.000000000000000e+00
7.358803835593996e-01 6.414033058982613e-01 0.000000000000000e+00
7.321758984138259e-01 6.468933648144634e-01 0.000000000000000e+00
7.279306219144220e-01 6.528092403115350e-01 0.000000000000000e+00
7.240862763033745e-01 6.580213379764940e-01 0.000000000000000e+00
7.198091778911877e-01 6.634176318717868e-01 0.000000000000000e+00
7.154202351814771e-01 6.686754947192843e-01 0.000000000000000e+00
7.110267233238181e-01 6.736945244772843e-01 0.000000000000000e+00
7.062679165388143e-01 6.788520414814461e-01 0.000000000000000e+00
7.015542945242564e-01 6.837040433740584e-01 0.000000000000000e+00
6.967921320329674e-01 6.883734634318063e-01 0.000000000000000e+00
6.916364298006816e-01 6.931900127516010e-01 0.000000000000000e+00
6.866029630581967e-01 6.976213283045904e-01 0.000000000000000e+00
6.814131604719619e-01 7.019996165965098e-01 0.000000000000000e+00
6.760198366636783e-01 7.063362855574598e-01 0.000000000000000e+00
6.706950149152582e-01 7.103385391741195e-01 0.000000000000000e+00
6.649515115324667e-01 7.145020062849778e-01 0.000000000000000e+00
6.594121286187923e-01 7.183192961342229e-01 0.000000000000000e+00
6.538251276173660e-01 7.218959724780561e-01 0.000000000000000e+00
6.476148896759172e-01 7.257015520536600e-01 0.000000000000000e+00
6.422360411730277e-01 7.288139070000355e-01 0.000000000000000e+00
6.359187099654282e-01 7.323061436126881e-01 0.000000000000000e+00
6.298920484489977e-01 7.354055951438794e-01 0.000000000000000e+00
6.240710625781799e-01 7.381971711296498e-01 0.000000000000000e+00
6.172328846239191e-01 7.413905555848201e-01 0.000000000000000e+00
6.118389807951873e-01 7.434207104655206e-01 0.000000000000000e+00
6.050759877464603e-01 7.464317815088081e-01 0.000000000000000e+00
5.988750126515325e-01 7.484594116396401e-01 0.000000000000000e+00
5.924208935945997e-01 7.507065297358182e-01 0.000000000000000e+00
5.855519949720771e-01 7.530964839039804e-01 0.000000000000000e+00
5.795409021830342e-01 7.545780333222779e-01 0.000000000000000e+00
5.723205785485762e-01 7.567625186136725e-01 0.000000000000000e+00
5.664906208154467e-01 7.577728975382340e-01 0.000000000000000e+00
5.593471670226967e-01 7.594590633880781e-01 0.000000000000000e+00
5.528628049932366e-01 7.606408767146342e-01 0.000000000000000e+00
5.460102322839402e-01 7.617637924868073e-01 0.000000000000000e+00
5.390697988029036e-01 7.627801422561503e-01 0.000000000000000e+00
5.323853794305278e-01 7.635177281926424e-01 0.000000000000000e+00
5.253689762254452e-01 7.641782101686908e-01 0.000000000000000e+00
5.186968729019303e-01 7.645930592547543e-01 0.000000000000000e+00
5.116777369620739e-01 7.649215189699854e-01 0.000000000000000e+00
5.048908979009049e-01 7.650431559422732e-01 0.000000000000000e+00
4.979267692880930e-01 7.650024225731039e-01 0.000000000000000e+00
4.911510677591692e-01 7.648150517891162e-01 0.000000000000000e+00
4.841386271750476e-01 7.644363209616771e-01 0.000000000000000e+00
4.775081081228548e-01 7.639623231763149e-01 0.000000000000000e+00
4.703796619978624e-01 7.631981570434363e-01 0.000000000000000e+00
4.638960215805036e-01 7.624221907638320e-01 0.000000000000000e+00
4.567629060276728e-01 7.613205681721351e-01 0.000000000000000e+00
4.503093233345427e-01 7.602754150316812e-01 0.000000000000000e+00
4.434009000013015e-01 7.588636755986453e-01 0.000000000000000e+00
4.365678390660770e-01 7.571847155376282e-01 0.000000000000000e+00
4.304405088216237e-01 7.560264865246172e-01 0.000000000000000e+00
4.233014118323874e-01 7.537754590497820e-01 0.000000000000000e+00
4.171304366083864e-01 7.522591721094691e-01 0.000000000000000e+00
4.103773079616991e-01 7.497056236171716e-01 0.000000000000000e+00
4.039561152303541e-01 7.476531401680782e-01 0.000000000000000e+00
3.976919120820014e-01 7.452327086734112e-01 0.000000000000000e+00
3.910443191233909e-01 7.423193876468489e-01 0.000000000000000e+00
3.853610044533226e-01 7.399843579162689e-01 0.000000000000000e+00
3.786742213942463e-01 7.368447933743174e-01 0.000000000000000e+00
3.728495877991485e-01 7.339239121977645e-01 0.000000000000000e+00
3.669250450182671e-01 7.307714269081977e-01 0.000000000000000e+00
3.605726425136432e-01 7.271683649283157e-01 0.000000000000000e+00
3.551578431829686e-01 7.240122554314666e-01 0.000000000000000e+00
3.490953283607626e-01 7.201594460831821e-01 0.000000000000000e+00
3.433892147302818e-01 7.163610028587597e-01 0.000000000000000e+00
3.381255141238890e-01 7.127038969613657e-01 0.000000000000000e+00
3.323740184939521e-01 7.084332349141933e-01 0.000000000000000e+00
3.269656042343131e-01 7.042668967271902e-01 0.000000000000000e+00
3.218511250669540e-01 7.000476484544700e-01 0.000000000000000e+00
3.165423835951565e-01 6.954721302668573e-01 0.000000000000000e+00
3.114377504925909e-01 6.908778041450532e-01 0.000000000000000e+00
3.066030407404121e-01 6.862648587234116e-01 0.000000000000000e+00
3.017915347411170e-01 6.814332695563976e-01 0.000000000000000e+00
2.969679612302371e-01 6.763404575200870e-01 0.000000000000000e+00
2.924725394998230e-01 6.713884766363096e-01 0.000000000000000e+00
2.881972252991291e-01 6.663493119486606e-01 0.000000000000000e+00
2.836005865267101e-01 6.607198173515545e-01 0.000000000000000e+00
2.796332026008246e-01 6.555432340155566e-01 0.000000000000000e+00
2.756428799339232e-01 6.501020922020997e-01 0.000000000000000e+00
2.715162736388730e-01 6.441929204480016e-01 0.000000000000000e+00
2.681631466628955e-01 6.389297537871169e-01 0.000000000000000e+00
2.643424157935447e-01 6.328119007097104e-01 0.000000000000000e+00
2.609375908152077e-01 6.270383850968830e-01 0.000000000000000e+00
2.577981837510515e-01 6.213439410075999e-01 0.000000000000000e+00
2.543909639908492e-01 6.146931280849958e-01 0.000000000000000e+00
2.519503774139273e-01 6.092856287975378e-01 0.000000000000000e+00
2.487563019078688e-01 6.027919811287317e-01 0.000000000000000e+00
2.462852741761009e-01 5.965930015744939e-01 0.000000000000000e+00
2.438974788245258e-01 5.901987883871617e-01 0.000000000000000e+00
2.411863626780605e-01 5.836411596496600e-01 0.000000000000000e+00
2.396653172268609e-01 5.775479163629320e-01 0.000000000000000e+00
2.371646773651439e-01 5.705112691516268e-01 0.000000000000000e+00
2.357835113927595e-01 5.643560506930110e-01 0.000000000000000e+00
2.340325345768577e-01 5.575538188134862e-01 0.000000000000000e+00
2.326343310133143e-01 5.508457432901896e-01 0.000000000000000e+00
2.314495867496299e-01 5.443548533912110e-01 0.000000000000000e+00
2.302161652525885e-01 5.372182186445759e-01 0.000000000000000e+00
2.294383731366702e-01 5.308628541905737e-01 0.000000000000000e+00
2.286316072003259e-01 5.237181075130364e-01 0.000000000000000e+00
2.281533183663506e-01 5.171881467504064e-01 0.000000000000000e+00
2.277600271383092e-01 5.102121971227294e-01 0.000000000000000e+00
2.275930333723272e-01 5.034565186416017e-01 0.000000000000000e+00
2.275930333723438e-01 4.965434813599900e-01 0.000000000000000e+00
2.277600271383375e-01 4.897878028788386e-01 0.000000000000000e+00
2.281533183663546e-01 4.828118532511794e-01 0.000000000000000e+00
2.286316072003243e-01 4.762818924885673e-01 0.000000000000000e+00
2.294383731366786e-01 4.691371458110025e-01 0.000000000000000e+00
2.302161652526487e-01 4.627817813569524e-01 0.000000000000000e+00
2.314495867496729e-01 4.556451466103411e-01 0.000000000000000e+00
2.326343310133512e-01 4.491542567113856e-01 0.000000000000000e+00
2.340325345768486e-01 4.424461811881156e-01 0.000000000000000e+00
2.357835113928139e-01 4.356439493085398e-01 0.000000000000000e+00
2.371646773651362e-01 4.294887308500007e-01 0.000000000000000e+00
2.396653172268748e-01 4.224520836386881e-01 0.000000000000000e+00
2.411863626781986e-01 4.163588403518184e-01 0.000000000000000e+00
2.438974788245758e-01 4.098012116144193e-01 0.000000000000000e+00
2.462852741761917e-01 4.034069984270656e-01 0.000000000000000e+00
2.487563019078715e-01 3.972080188729499e-01 0.000000000000000e+00
2.519503774140066e-01 3.907143712039927e-01 0.000000000000000e+00
2.543909639909707e-01 3.853068719165655e-01 0.000000000000000e+00
2.577981837510951e-01 3.786560589940398e-01 0.000000000000000e+00
2.609375908153634e-01 3.729616149045735e-01 0.000000000000000e+00
2.643424157935634e-01 3.671880992919703e-01 0.000000000000000e+00
2.681631466629941e-01 3.610702462144791e-01 0.000000000000000e+00
2.715162736389719e-01 3.558070795535573e-01 0.000000000000000e+00
2.756428799339442e-01 3.498979077995709e-01 0.000000000000000e+00
2.796332026009873e-01 3.444567659859576e-01 0.000000000000000e+00
2.836005865267637e-01 3.392801826500719e-01 0.000000000000000e+00
2.881972252992029e-01 3.336506880529618e-01 0.000000000000000e+00
2.924725394999538e-01 3.286115233652419e-01 0.000000000000000e+00
2.969679612302192e-01 3.236595424815954e-01 0.000000000000000e+00
3.017915347411856e-01 3.185667304452287e-01 0.000000000000000e+00
3.066030407405179e-01 3.137351412781615e-01 0.000000000000000e+00
3.114377504926250e-01 3.091221958565783e-01 0.000000000000000e+00
3.165423835952016e-01 3.045278697347891e-01 0.000000000000000e+00
3.218511250670289e-01 2.999523515471356e-01 0.000000000000000e+00
3.269656042343350e-01 2.957331032744615e-01 0.000000000000000e+00
3.323740184939227e-01 2.915667650874823e-01 0.000000000000000e+00
3.381255141239342e-01 2.872961030402755e-01 0.000000000000000e+00
3.433892147303138e-01 2.836389971428848e-01 0.000000000000000e+00
3.490953283607459e-01 2.798405539184761e-01 0.000000000000000e+00
3.551578431829463e-01 2.759877445701953e-01 0.000000000000000e+00
3.605726425136110e-01 2.728316350733725e-01 0.000000000000000e+00
3.669250450182169e-01 2.692285730934927e-01 0.000000000000000e+00
3.728495877991557e-01 2.660760878038722e-01 0.000000000000000e+00
3.786742213941808e-01 2.631552066273432e-01 0.000000000000000e+00
3.853610044532806e-01 2.600156420853979e-01 0.000000000000000e+00
3.910443191233318e-01 2.576806123548329e-01 0.000000000000000e+00
3.976919120818925e-01 2.547672913282553e-01 0.000000000000000e+00
4.039561152302801e-01 2.523468598335861e-01 0.000000000000000e+00
4.103773079616457e-01 2.502943763844841e-01 0.000000000000000e+00
4.171304366082771e-01 2.477408278921614e-01 0.000000000000000e+00
4.233014118322983e-01 2.462245409518742e-01 0.000000000000000e+00
4.304405088215295e-01 2.439735134770223e-01 0.000000000000000e+00
4.365678390659967e-01 2.428152844639925e-01 0.000000000000000e+00
4.434009000012153e-01 2.411363244029772e-01 0.000000000000000e+00
4.503093233344283e-01 2.397245849699565e-01 0.000000000000000e+00
4.567629060275632e-01 2.386794318294830e-01 0.000000000000000e+00
4.638960215804077e-01 2.375778092377835e-01 0.000000000000000e+00
4.703796619977249e-01 2.368018429581868e-01 0.000000000000000e+00
4.775081081227409e-01 2.360376768252873e-01 0.000000000000000e+00
4.841386271748940e-01 2.355636790399350e-01 0.000000000000000e+00
4.911510677590203e-01 2.351849482124894e-01 0.000000000000000e+00
4.979267692879311e-01 2.349975774284966e-01 0.000000000000000e+00
5.048908979007302e-01 2.349568440593241e-01 0.000000000000000e+00
5.116777369619018e-01 2.350784810316119e-01 0.000000000000000e+00
5.186968729017406e-01 2.354069407468281e-01 0.000000000000000e+00
5.253689762252637e-01 2.358217898329003e-01 0.000000000000000e+00
5.323853794303287e-01 2.364822718089395e-01 0.000000000000000e+00
5.390697988027187e-01 2.372198577454343e-01 0.000000000000000e+00
5.460102322837291e-01 2.382362075147591e-01 0.000000000000000e+00
5.528628049930324e-01 2.393591232869307e-01 0.000000000000000e+00
5.593471670224994e-01 2.405409366134814e-01 0.000000000000000e+00
5.664906208152214e-01 2.422271024633114e-01 0.000000000000000e+00
5.723205785484177e-01 2.432374813878939e-01 0.000000000000000e+00
5.795409021828526e-01 2.454219666792997e-01 0.000000000000000e+00
5.855519949719663e-01 2.469035160975697e-01 0.000000000000000e+00
5.924208935944119e-01 2.492934702657088e-01 0.000000000000000e+00
5.988750126513713e-01 2.515405883619230e-01 0.000000000000000e+00
6.050759877463454e-01 2.535682184927467e-01 0.000000000000000e+00
6.118389807950390e-01 2.565792895360324e-01 0.000000000000000e+00
6.172328846237739e-01 2.586094444167030e-01 0.000000000000000e+00
6.240710625780396e-01 2.618028288718648e-01 0.000000000000000e+00
6.298920484488629e-01 2.645944048576400e-01 0.000000000000000e+00
6.359187099652676e-01 2.676938563888157e-01 0.000000000000000e+00
6.422360411729003e-01 2.711860930014625e-01 0.000000000000000e+00
6.476148896757469e-01 2.742984479477997e-01 0.000000000000000e+00
6.538251276172196e-01 2.781040275234121e-01 0.000000000000000e+00
6.594121286186355e-01 2.816807038672338e-01 0.000000000000000e+00
6.649515115322833e-01 2.854979937164586e-01 0.000000000000000e+00
6.706950149151105e-01 2.896614608273217e-01 0.000000000000000e+00
6.760198366635325e-01 2.936637144439683e-01 0.000000000000000e+00
6.814131604717737e-01 2.980003834048936e-01 0.000000000000000e+00
6.866029630580496e-01 3.023786716968163e-01 0.000000000000000e+00
6.916364298005704e-01 3.068099872498453e-01 0.000000000000000e+00
6.967921320327957e-01 3.116265365695750e-01 0.000000000000000e+00
7.015542945240943e-01 3.162959566273129e-01 0.000000000000000e+00
7.062679165386665e-01 3.211479585199535e-01 0.000000000000000e+00
7.110267233236480e-01 3.263054755240649e-01 0.000000000000000e+00
7.154202351813020e-01 3.313245052820627e-01 0.000000000000000e+00
7.198091778910697e-01 3.365823681296136e-01 0.000000000000000e+00
7.240862763032073e-01 3.419786620248244e-01 0.000000000000000e+00
7.279306219142386e-01 3.471907596897892e-01 0.000000000000000e+00
7.321758984137032e-01 3.531066351869129e-01 0.000000000000000e+00
7.358803835591993e-01 3.585966941030010e-01 0.000000000000000e+00
7.394071516239210e-01 3.641652800976211e-01 0.000000000000000e+00
7.431486256763079e-01 3.704369419118592e-01 0.000000000000000e+00
7.460293304346822e-01 3.757225933030080e-01 0.000000000000000e+00
7.495541039194916e-01 3.821229810086698e-01 0.000000000000000e+00
7.525301635393249e-01 3.881215585852651e-01 0.000000000000000e+00
7.552633666886194e-01 3.940863931812059e-01 0.000000000000000e+00
7.582981027943222e-01 4.008144036513980e-01 0.000000000000000e+00
7.601793315290817e-01 4.063625005003706e-01 0.000000000000000e+00
7.630537196350432e-01 4.131779456594881e-01 0.000000000000000e+00
7.650465319605652e-01 4.194284178289556e-01 0.000000000000000e+00
7.670777072749099e-01 4.259488450963224e-01 0.000000000000000e+00
7.691668286472980e-01 4.326269953525356e-01 0.000000000000000e+00
7.704990615096884e-01 4.390124639209906e-01 0.000000000000000e+00
7.724608951652557e-01 4.460765276419933e-01 0.000000000000000e+00
7.734210368818020e-01 4.522295727978947e-01 0.000000000000000e+00
7.747868457033975e-01 4.593312280924470e-01 0.000000000000000e+00
7.756343891277019e-01 4.658408200007665e-01 0.000000000000000e+00
7.765032021938775e-01 4.727392711457281e-01 0.000000000000000e+00
7.771049545128925e-01 4.794578852595279e-01 0.000000000000000e+00
7.775758378408525e-01 4.863122782712579e-01 0.000000000000000e+00
7.778419785716192e-01 4.931726836202643e-01 0.000000000000000e+00

POINT_DATA   249
SCALARS fX_Lag double
LOOKUP_TABLE default

-1.889180e+01 
-1.716839e+01 
-2.047431e+01 
-1.308683e+01 
-2.670602e+01 
2.126536e+00 
-5.182692e+01 
4.056674e+01 
-1.001683e+02 
6.295981e+01 
-7.569063e+01 
5.795204e+00 
3.836873e+00 
-8.815638e+01 
9.931395e+01 
-1.153510e+02 
3.015445e+01 
-2.428805e+01 
-5.486875e+01 
6.440652e+01 
-8.607731e+01 
2.147045e+01 
-1.777402e+01 
-5.407612e+01 
4.009287e+01 
-4.327626e+01 
-1.118473e+01 
-4.571020e-01 
-3.652788e+01 
4.518069e+00 
-4.855848e+00 
-3.935264e+01 
1.222435e+01 
-1.563380e+01 
-2.035415e+01 
6.851542e+00 
-4.186606e+01 
2.041083e+01 
-4.763642e+00 
-6.232214e+01 
8.313813e+01 
-9.384666e+01 
2.906638e+01 
2.056664e+01 
-1.017182e+02 
1.444281e+02 
-1.369108e+02 
5.620524e+01 
-2.531696e+01 
-4.147864e+01 
8.578363e+01 
-1.209260e+02 
1.390401e+02 
-1.313525e+02 
6.591005e+01 
-3.682130e+01 
-8.786295e+00 
2.560198e+01 
-3.319848e+01 
3.443013e+01 
-3.470346e+01 
2.322980e+01 
-1.772881e+01 
1.884256e+01 
-2.367397e+01 
3.819204e+01 
-4.979251e+01 
6.448050e+01 
-6.494761e+01 
6.795335e+01 
-4.548430e+01 
7.536471e+00 
7.057354e+01 
-1.011781e+02 
9.681401e+01 
-5.821828e+01 
3.319704e+01 
1.569668e+01 
-3.833804e+01 
9.642598e+01 
-1.003462e+02 
8.621563e+01 
-9.991314e+00 
-4.278429e+01 
9.375754e+01 
-6.477182e+01 
3.564047e+01 
4.424288e+01 
-4.877842e+01 
3.430453e+01 
2.939412e+01 
-1.942359e+01 
2.040721e+01 
2.699320e+01 
2.323156e+00 
-1.208515e+00 
3.281281e+01 
2.201367e+01 
-3.213258e+01 
6.292182e+01 
-2.290253e+00 
-1.362782e+01 
7.734809e+01 
-4.676315e+01 
4.158950e+01 
2.654483e+01 
-2.678031e+01 
9.666306e+01 
-7.535011e+01 
7.230326e+01 
8.326061e+00 
-3.233275e+01 
1.190065e+02 
-9.795807e+01 
1.119463e+02 
-3.698033e+01 
3.527649e+01 
2.134701e+01 
-4.867827e+00 
4.556296e+01 
-2.897372e+00 
3.284789e+01 
8.499819e+00 
2.262985e+01 
1.669943e+01 
1.669943e+01 
2.262985e+01 
8.499819e+00 
3.284789e+01 
-2.897372e+00 
4.556296e+01 
-4.867827e+00 
2.134701e+01 
3.527649e+01 
-3.698033e+01 
1.119463e+02 
-9.795807e+01 
1.190065e+02 
-3.233275e+01 
8.326061e+00 
7.230326e+01 
-7.535011e+01 
9.666306e+01 
-2.678031e+01 
2.654483e+01 
4.158950e+01 
-4.676315e+01 
7.734809e+01 
-1.362782e+01 
-2.290253e+00 
6.292182e+01 
-3.213258e+01 
2.201367e+01 
3.281281e+01 
-1.208515e+00 
2.323156e+00 
2.699320e+01 
2.040721e+01 
-1.942359e+01 
2.939412e+01 
3.430453e+01 
-4.877842e+01 
4.424288e+01 
3.564047e+01 
-6.477182e+01 
9.375754e+01 
-4.278429e+01 
-9.991314e+00 
8.621563e+01 
-1.003462e+02 
9.642598e+01 
-3.833804e+01 
1.569668e+01 
3.319704e+01 
-5.821828e+01 
9.681401e+01 
-1.011781e+02 
7.057354e+01 
7.536471e+00 
-4.548430e+01 
6.795335e+01 
-6.494761e+01 
6.448050e+01 
-4.979251e+01 
3.819204e+01 
-2.367397e+01 
1.884256e+01 
-1.772881e+01 
2.322980e+01 
-3.470346e+01 
3.443013e+01 
-3.319848e+01 
2.560198e+01 
-8.786295e+00 
-3.682130e+01 
6.591005e+01 
-1.313525e+02 
1.390401e+02 
-1.209260e+02 
8.578363e+01 
-4.147864e+01 
-2.531696e+01 
5.620524e+01 
-1.369108e+02 
1.444281e+02 
-1.017182e+02 
2.056664e+01 
2.906638e+01 
-9.384666e+01 
8.313813e+01 
-6.232214e+01 
-4.763642e+00 
2.041083e+01 
-4.186606e+01 
6.851542e+00 
-2.035415e+01 
-1.563380e+01 
1.222435e+01 
-3.935264e+01 
-4.855848e+00 
4.518069e+00 
-3.652788e+01 
-4.571020e-01 
-1.118473e+01 
-4.327626e+01 
4.009287e+01 
-5.407612e+01 
-1.777402e+01 
2.147045e+01 
-8.607731e+01 
6.440652e+01 
-5.486875e+01 
-2.428805e+01 
3.015445e+01 
-1.153510e+02 
9.931395e+01 
-8.815638e+01 
3.836873e+00 
5.795204e+00 
-7.569063e+01 
6.295981e+01 
-1.001683e+02 
4.056674e+01 
-5.182692e+01 
2.126536e+00 
-2.670602e+01 
-1.308683e+01 
-2.047431e+01 
-1.716839e+01 
