# vtk DataFile Version 2.0
fY_Lag
ASCII
DATASET UNSTRUCTURED_GRID

FIELD FieldData 1
TIME 1 1 double
1.54000000
POINTS 249 float
7.775737174476473e-01 5.000000000002072e-01 0.000000000000000e+00
7.774781587493979e-01 5.068562149115194e-01 0.000000000000000e+00
7.772100602766338e-01 5.137348841309382e-01 0.000000000000000e+00
7.767396251945339e-01 5.206020203932622e-01 0.000000000000000e+00
7.761435424662851e-01 5.273443823032953e-01 0.000000000000000e+00
7.752854357006023e-01 5.342756455099278e-01 0.000000000000000e+00
7.744395505454564e-01 5.408177631125995e-01 0.000000000000000e+00
7.730680970812980e-01 5.479272118815529e-01 0.000000000000000e+00
7.721077190333605e-01 5.541088130059674e-01 0.000000000000000e+00
7.701764609608556e-01 5.611895928694823e-01 0.000000000000000e+00
7.688696383463627e-01 5.676100517932894e-01 0.000000000000000e+00
7.667565621638925e-01 5.743252340538654e-01 0.000000000000000e+00
7.647140426003364e-01 5.808689446992660e-01 0.000000000000000e+00
7.627379768883725e-01 5.871555132645513e-01 0.000000000000000e+00
7.599189197307622e-01 5.939772543402494e-01 0.000000000000000e+00
7.580407400414246e-01 5.995295171951256e-01 0.000000000000000e+00
7.550043859227464e-01 6.062861490716305e-01 0.000000000000000e+00
7.522872859461618e-01 6.122701744114639e-01 0.000000000000000e+00
7.492781718259465e-01 6.183587326515043e-01 0.000000000000000e+00
7.457912614064881e-01 6.247595928124761e-01 0.000000000000000e+00
7.429382596689488e-01 6.300501770689557e-01 0.000000000000000e+00
7.392256983320151e-01 6.363214426859000e-01 0.000000000000000e+00
7.357100618583795e-01 6.419093591838052e-01 0.000000000000000e+00
7.319611341558837e-01 6.475042954201389e-01 0.000000000000000e+00
7.277541846598076e-01 6.534204381197126e-01 0.000000000000000e+00
7.239391199206764e-01 6.586292441536868e-01 0.000000000000000e+00
7.196722246350792e-01 6.640547455070436e-01 0.000000000000000e+00
7.152745827235334e-01 6.693672320456313e-01 0.000000000000000e+00
7.108829023477182e-01 6.744217290623342e-01 0.000000000000000e+00
7.061709484063157e-01 6.795667111458493e-01 0.000000000000000e+00
7.014761504888833e-01 6.844333747897398e-01 0.000000000000000e+00
6.966800076722203e-01 6.891756932284764e-01 0.000000000000000e+00
6.915415330951171e-01 6.940133036856106e-01 0.000000000000000e+00
6.865395189605603e-01 6.984479504597394e-01 0.000000000000000e+00
6.813646457352068e-01 7.028431833900003e-01 0.000000000000000e+00
6.759428661326851e-01 7.072315806299617e-01 0.000000000000000e+00
6.706225641821986e-01 7.112722866717125e-01 0.000000000000000e+00
6.649384822979876e-01 7.154175782928189e-01 0.000000000000000e+00
6.594101646402100e-01 7.192386052847670e-01 0.000000000000000e+00
6.537802114897783e-01 7.228783201085537e-01 0.000000000000000e+00
6.475879461991417e-01 7.267064021691960e-01 0.000000000000000e+00
6.422031252763616e-01 7.298478548853056e-01 0.000000000000000e+00
6.359281722069450e-01 7.333372436678659e-01 0.000000000000000e+00
6.298997675554316e-01 7.364524689231001e-01 0.000000000000000e+00
6.240510980750159e-01 7.392751277010251e-01 0.000000000000000e+00
6.172242622486230e-01 7.424961789399285e-01 0.000000000000000e+00
6.118414391244801e-01 7.445536666569450e-01 0.000000000000000e+00
6.050685806366872e-01 7.475781898725326e-01 0.000000000000000e+00
5.989198617702473e-01 7.495854074831877e-01 0.000000000000000e+00
5.924580466438469e-01 7.518302981303923e-01 0.000000000000000e+00
5.855703937087295e-01 7.542667872333920e-01 0.000000000000000e+00
5.795951864617261e-01 7.557654913126741e-01 0.000000000000000e+00
5.723585068516750e-01 7.579396598601934e-01 0.000000000000000e+00
5.665816097466533e-01 7.589376773796473e-01 0.000000000000000e+00
5.594341901261350e-01 7.606421792296946e-01 0.000000000000000e+00
5.529618268669034e-01 7.618320335031465e-01 0.000000000000000e+00
5.461143914902542e-01 7.629642016307034e-01 0.000000000000000e+00
5.391728353338833e-01 7.639869868100281e-01 0.000000000000000e+00
5.324965412915548e-01 7.647307757604827e-01 0.000000000000000e+00
5.254853616924717e-01 7.653988905399716e-01 0.000000000000000e+00
5.188191838293020e-01 7.658178958870945e-01 0.000000000000000e+00
5.118007832008795e-01 7.661495699455496e-01 0.000000000000000e+00
5.050158080238913e-01 7.662759882716378e-01 0.000000000000000e+00
4.980571410486935e-01 7.662415370363796e-01 0.000000000000000e+00
4.912833775305239e-01 7.660567979066084e-01 0.000000000000000e+00
4.842733427465968e-01 7.656764331999212e-01 0.000000000000000e+00
4.776419945560230e-01 7.652030490051835e-01 0.000000000000000e+00
4.705203589406431e-01 7.644404361042128e-01 0.000000000000000e+00
4.640410325056544e-01 7.636684402580671e-01 0.000000000000000e+00
4.569136296675438e-01 7.625665115444893e-01 0.000000000000000e+00
4.504668575776564e-01 7.615139815664552e-01 0.000000000000000e+00
4.435605945902920e-01 7.600962076886641e-01 0.000000000000000e+00
4.367412863565772e-01 7.584210854802584e-01 0.000000000000000e+00
4.306244499902648e-01 7.572586801678656e-01 0.000000000000000e+00
4.234787927747703e-01 7.550032767742734e-01 0.000000000000000e+00
4.173282442826535e-01 7.534820147784759e-01 0.000000000000000e+00
4.105492396146145e-01 7.508935830502315e-01 0.000000000000000e+00
4.041730064193212e-01 7.488539469696895e-01 0.000000000000000e+00
3.979003960391661e-01 7.464346013720360e-01 0.000000000000000e+00
3.912797281795466e-01 7.435314738382147e-01 0.000000000000000e+00
3.855590507364381e-01 7.411499053149823e-01 0.000000000000000e+00
3.788672856065773e-01 7.379582273118356e-01 0.000000000000000e+00
3.730557347931022e-01 7.350306396197239e-01 0.000000000000000e+00
3.671350252070526e-01 7.318804241556390e-01 0.000000000000000e+00
3.608503719176148e-01 7.283077098226017e-01 0.000000000000000e+00
3.554248494408507e-01 7.250965248793210e-01 0.000000000000000e+00
3.493443227279168e-01 7.211879539740680e-01 0.000000000000000e+00
3.436220722439811e-01 7.173605890166309e-01 0.000000000000000e+00
3.383760937803150e-01 7.136898167346166e-01 0.000000000000000e+00
3.326944249649736e-01 7.094320041412474e-01 0.000000000000000e+00
3.272705152269039e-01 7.052057020868346e-01 0.000000000000000e+00
3.221531771799206e-01 7.009479727626340e-01 0.000000000000000e+00
3.169101806854691e-01 6.964048489336785e-01 0.000000000000000e+00
3.117814269109309e-01 6.917320936415744e-01 0.000000000000000e+00
3.069421992701174e-01 6.870641762572147e-01 0.000000000000000e+00
3.021953554247799e-01 6.822568239377670e-01 0.000000000000000e+00
2.974061976857871e-01 6.771446069189457e-01 0.000000000000000e+00
2.928792551770671e-01 6.721159956342956e-01 0.000000000000000e+00
2.886384032293632e-01 6.670653038176971e-01 0.000000000000000e+00
2.840928086440633e-01 6.614239001170599e-01 0.000000000000000e+00
2.800764230577107e-01 6.561470849010118e-01 0.000000000000000e+00
2.761218729372542e-01 6.507001518624395e-01 0.000000000000000e+00
2.720606445644525e-01 6.448013906350071e-01 0.000000000000000e+00
2.687699114289449e-01 6.395394565416456e-01 0.000000000000000e+00
2.649399577086350e-01 6.333555211004981e-01 0.000000000000000e+00
2.614954166325980e-01 6.274977102933470e-01 0.000000000000000e+00
2.583941409420326e-01 6.217909133541253e-01 0.000000000000000e+00
2.550590906618481e-01 6.151390030041644e-01 0.000000000000000e+00
2.526650956043792e-01 6.097213599952072e-01 0.000000000000000e+00
2.494871458968548e-01 6.031963561728079e-01 0.000000000000000e+00
2.469910863111618e-01 5.969520128136162e-01 0.000000000000000e+00
2.446449457860549e-01 5.905328929351581e-01 0.000000000000000e+00
2.419598473074472e-01 5.839271229499365e-01 0.000000000000000e+00
2.404538550186301e-01 5.778415150551112e-01 0.000000000000000e+00
2.379956510985695e-01 5.707789737141060e-01 0.000000000000000e+00
2.366171131238953e-01 5.645939735804059e-01 0.000000000000000e+00
2.348799480079158e-01 5.577726782077390e-01 0.000000000000000e+00
2.334792859432832e-01 5.510359570378287e-01 0.000000000000000e+00
2.323171674408223e-01 5.445118007886600e-01 0.000000000000000e+00
2.310996396682580e-01 5.373537539066996e-01 0.000000000000000e+00
2.303281713561012e-01 5.309738679164203e-01 0.000000000000000e+00
2.295244067300571e-01 5.238119927863157e-01 0.000000000000000e+00
2.290519397596136e-01 5.172504668336441e-01 0.000000000000000e+00
2.286639558796776e-01 5.102453299603790e-01 0.000000000000000e+00
2.285006205792787e-01 5.034648395664539e-01 0.000000000000000e+00
2.285006205792935e-01 4.965351604352125e-01 0.000000000000000e+00
2.286639558796972e-01 4.897546700412698e-01 0.000000000000000e+00
2.290519397595993e-01 4.827495331680226e-01 0.000000000000000e+00
2.295244067300290e-01 4.761880072153674e-01 0.000000000000000e+00
2.303281713560767e-01 4.690261320852295e-01 0.000000000000000e+00
2.310996396682825e-01 4.626462460949022e-01 0.000000000000000e+00
2.323171674408288e-01 4.554881992129606e-01 0.000000000000000e+00
2.334792859432693e-01 4.489640429638139e-01 0.000000000000000e+00
2.348799480078494e-01 4.422273217939277e-01 0.000000000000000e+00
2.366171131238819e-01 4.354060264212237e-01 0.000000000000000e+00
2.379956510984985e-01 4.292210262875986e-01 0.000000000000000e+00
2.404538550185767e-01 4.221584849465668e-01 0.000000000000000e+00
2.419598473075085e-01 4.160728770515972e-01 0.000000000000000e+00
2.446449457860363e-01 4.094671070664685e-01 0.000000000000000e+00
2.469910863111787e-01 4.030479871879931e-01 0.000000000000000e+00
2.494871458967803e-01 3.968036438289148e-01 0.000000000000000e+00
2.526650956043812e-01 3.902786400063568e-01 0.000000000000000e+00
2.550590906618688e-01 3.848609969974672e-01 0.000000000000000e+00
2.583941409419763e-01 3.782090866475806e-01 0.000000000000000e+00
2.614954166326317e-01 3.725022897081885e-01 0.000000000000000e+00
2.649399577085397e-01 3.666444789012429e-01 0.000000000000000e+00
2.687699114289603e-01 3.604605434599794e-01 0.000000000000000e+00
2.720606445644601e-01 3.551986093665949e-01 0.000000000000000e+00
2.761218729371833e-01 3.492998481392595e-01 0.000000000000000e+00
2.800764230577570e-01 3.438529151005579e-01 0.000000000000000e+00
2.840928086440095e-01 3.385760998846235e-01 0.000000000000000e+00
2.886384032293363e-01 3.329346961839676e-01 0.000000000000000e+00
2.928792551770713e-01 3.278840043673121e-01 0.000000000000000e+00
2.974061976856788e-01 3.228553930827667e-01 0.000000000000000e+00
3.021953554247688e-01 3.177431760638756e-01 0.000000000000000e+00
3.069421992701148e-01 3.129358237444029e-01 0.000000000000000e+00
3.117814269108511e-01 3.082679063601069e-01 0.000000000000000e+00
3.169101806854172e-01 3.035951510679950e-01 0.000000000000000e+00
3.221531771798981e-01 2.990520272390012e-01 0.000000000000000e+00
3.272705152268263e-01 2.947942979148541e-01 0.000000000000000e+00
3.326944249648717e-01 2.905679958604465e-01 0.000000000000000e+00
3.383760937802968e-01 2.863101832670288e-01 0.000000000000000e+00
3.436220722439253e-01 2.826394109850308e-01 0.000000000000000e+00
3.493443227277985e-01 2.788120460276272e-01 0.000000000000000e+00
3.554248494407442e-01 2.749034751223738e-01 0.000000000000000e+00
3.608503719175186e-01 2.716922901791009e-01 0.000000000000000e+00
3.671350252069470e-01 2.681195758460618e-01 0.000000000000000e+00
3.730557347930371e-01 2.649693603819331e-01 0.000000000000000e+00
3.788672856064443e-01 2.620417726898488e-01 0.000000000000000e+00
3.855590507363384e-01 2.588500946867087e-01 0.000000000000000e+00
3.912797281794332e-01 2.564685261634997e-01 0.000000000000000e+00
3.979003960390093e-01 2.535653986296535e-01 0.000000000000000e+00
4.041730064191955e-01 2.511460530319845e-01 0.000000000000000e+00
4.105492396144894e-01 2.491064169514393e-01 0.000000000000000e+00
4.173282442825026e-01 2.465179852231890e-01 0.000000000000000e+00
4.234787927746204e-01 2.449967232274095e-01 0.000000000000000e+00
4.306244499901145e-01 2.427413198337879e-01 0.000000000000000e+00
4.367412863564326e-01 2.415789145213766e-01 0.000000000000000e+00
4.435605945901450e-01 2.399037923129745e-01 0.000000000000000e+00
4.504668575774827e-01 2.384860184351988e-01 0.000000000000000e+00
4.569136296673751e-01 2.374334884571387e-01 0.000000000000000e+00
4.640410325055006e-01 2.363315597435538e-01 0.000000000000000e+00
4.705203589404446e-01 2.355595638974128e-01 0.000000000000000e+00
4.776419945558467e-01 2.347969509964214e-01 0.000000000000000e+00
4.842733427463781e-01 2.343235668016899e-01 0.000000000000000e+00
4.912833775303090e-01 2.339432020949913e-01 0.000000000000000e+00
4.980571410484659e-01 2.337584629652132e-01 0.000000000000000e+00
5.050158080236504e-01 2.337240117299443e-01 0.000000000000000e+00
5.118007832006417e-01 2.338504300560297e-01 0.000000000000000e+00
5.188191838290466e-01 2.341821041144683e-01 0.000000000000000e+00
5.254853616922216e-01 2.346011094615891e-01 0.000000000000000e+00
5.324965412912854e-01 2.352692242410653e-01 0.000000000000000e+00
5.391728353336305e-01 2.360130131915184e-01 0.000000000000000e+00
5.461143914899744e-01 2.370357983708204e-01 0.000000000000000e+00
5.529618268666302e-01 2.381679664983735e-01 0.000000000000000e+00
5.594341901258668e-01 2.393578207718145e-01 0.000000000000000e+00
5.665816097463583e-01 2.410623226218425e-01 0.000000000000000e+00
5.723585068514482e-01 2.420603401413102e-01 0.000000000000000e+00
5.795951864614839e-01 2.442345086888442e-01 0.000000000000000e+00
5.855703937085387e-01 2.457332127680997e-01 0.000000000000000e+00
5.924580466435955e-01 2.481697018710739e-01 0.000000000000000e+00
5.989198617700224e-01 2.504145925182975e-01 0.000000000000000e+00
6.050685806364909e-01 2.524218101289411e-01 0.000000000000000e+00
6.118414391242600e-01 2.554463333445288e-01 0.000000000000000e+00
6.172242622484175e-01 2.575038210615215e-01 0.000000000000000e+00
6.240510980748289e-01 2.607248723004252e-01 0.000000000000000e+00
6.298997675552450e-01 2.635475310783368e-01 0.000000000000000e+00
6.359281722067058e-01 2.666627563335287e-01 0.000000000000000e+00
6.422031252761633e-01 2.701521451160912e-01 0.000000000000000e+00
6.475879461989313e-01 2.732935978321863e-01 0.000000000000000e+00
6.537802114896119e-01 2.771216798928466e-01 0.000000000000000e+00
6.594101646400286e-01 2.807613947166058e-01 0.000000000000000e+00
6.649384822977640e-01 2.845824217085144e-01 0.000000000000000e+00
6.706225641820078e-01 2.887277133296242e-01 0.000000000000000e+00
6.759428661325158e-01 2.927684193713744e-01 0.000000000000000e+00
6.813646457350134e-01 2.971568166113197e-01 0.000000000000000e+00
6.865395189603793e-01 3.015520495415582e-01 0.000000000000000e+00
6.915415330949798e-01 3.059866963157269e-01 0.000000000000000e+00
6.966800076720487e-01 3.108243067728156e-01 0.000000000000000e+00
7.014761504887037e-01 3.155666252115215e-01 0.000000000000000e+00
7.061709484061549e-01 3.204332888554396e-01 0.000000000000000e+00
7.108829023475537e-01 3.255782709389158e-01 0.000000000000000e+00
7.152745827233560e-01 3.306327679556030e-01 0.000000000000000e+00
7.196722246349632e-01 3.359452544942489e-01 0.000000000000000e+00
7.239391199205264e-01 3.413707558475364e-01 0.000000000000000e+00
7.277541846596345e-01 3.465795618815088e-01 0.000000000000000e+00
7.319611341557731e-01 3.524957045811363e-01 0.000000000000000e+00
7.357100618581875e-01 3.580906408173484e-01 0.000000000000000e+00
7.392256983318913e-01 3.636785573153444e-01 0.000000000000000e+00
7.429382596687886e-01 3.699498229322350e-01 0.000000000000000e+00
7.457912614063329e-01 3.752404071887016e-01 0.000000000000000e+00
7.492781718258554e-01 3.816412673497686e-01 0.000000000000000e+00
7.522872859460066e-01 3.877298255896928e-01 0.000000000000000e+00
7.550043859226507e-01 3.937138509296073e-01 0.000000000000000e+00
7.580407400412710e-01 4.004704828060401e-01 0.000000000000000e+00
7.599189197306617e-01 4.060227456609353e-01 0.000000000000000e+00
7.627379768883173e-01 4.128444867367078e-01 0.000000000000000e+00
7.647140426002272e-01 4.191310553019528e-01 0.000000000000000e+00
7.667565621638233e-01 4.256747659473433e-01 0.000000000000000e+00
7.688696383462604e-01 4.323899482078936e-01 0.000000000000000e+00
7.701764609607955e-01 4.388104071317431e-01 0.000000000000000e+00
7.721077190332816e-01 4.458911869952150e-01 0.000000000000000e+00
7.730680970812439e-01 4.520727881196646e-01 0.000000000000000e+00
7.744395505454441e-01 4.591822368886652e-01 0.000000000000000e+00
7.752854357005773e-01 4.657243544913006e-01 0.000000000000000e+00
7.761435424662552e-01 4.726556176978614e-01 0.000000000000000e+00
7.767396251945091e-01 4.793979796079419e-01 0.000000000000000e+00
7.772100602766235e-01 4.862651158704765e-01 0.000000000000000e+00
7.774781587494025e-01 4.931437850901072e-01 0.000000000000000e+00

POINT_DATA   249
SCALARS fY_Lag double
LOOKUP_TABLE default

1.212364e-07 
2.245135e+00 
-1.153398e+00 
-1.247704e+01 
1.889051e+01 
-3.891494e+01 
5.673242e+01 
-9.278441e+01 
8.991849e+01 
-6.603235e+01 
2.947302e+01 
-1.714805e+01 
-2.571395e+01 
5.351696e+01 
-1.269484e+02 
1.204385e+02 
-7.726110e+01 
1.045560e+01 
3.122694e+01 
-1.110270e+02 
9.806814e+01 
-6.833373e+01 
7.047214e-01 
3.211687e+01 
-7.073391e+01 
2.167135e+01 
-1.130056e+01 
-2.580026e+01 
9.046767e+00 
-2.782986e+01 
-1.243243e+01 
9.526688e+00 
-4.029672e+01 
-3.940616e+00 
-6.825638e-01 
-3.476945e+01 
1.045631e+01 
-3.242491e+01 
-1.812923e+01 
1.883462e+01 
-6.866312e+01 
3.479263e+01 
-3.741458e+01 
-2.925640e+01 
3.983877e+01 
-1.163568e+02 
9.670298e+01 
-1.017318e+02 
2.376835e+01 
1.916113e+01 
-9.377987e+01 
6.754547e+01 
-1.176154e+02 
7.064956e+01 
-5.146533e+01 
-5.768529e+00 
-1.093868e+01 
-2.789977e+01 
-7.567485e+00 
-2.491108e+01 
-8.733411e+00 
-2.052583e+01 
-1.608709e+01 
-1.502906e+01 
-1.956295e+01 
-9.302145e+00 
-2.892305e+01 
-9.382294e-01 
-3.299376e+01 
4.939537e+00 
-3.652461e+01 
-2.573443e+01 
5.127131e+01 
-1.092998e+02 
7.341396e+01 
-1.067187e+02 
5.488184e+01 
-3.797119e+01 
-4.837812e+01 
5.215331e+01 
-8.101106e+01 
2.641112e+01 
-2.226292e+01 
-4.224821e+01 
3.615011e+01 
-6.973944e+01 
8.121281e+00 
1.565974e+01 
-5.870229e+01 
3.148734e+00 
-3.142435e+00 
-2.853655e+01 
-1.296695e+01 
4.835741e-01 
-1.394058e+01 
-3.048721e+01 
8.358159e+00 
-2.205674e+00 
-5.907057e+01 
3.645541e+01 
-1.700903e+01 
-4.518153e+01 
6.368294e+01 
-9.220282e+01 
3.261120e+01 
1.510455e+01 
-9.451065e+01 
1.234268e+02 
-1.107372e+02 
2.806574e+01 
-1.747684e+01 
-1.866634e+01 
5.201936e+01 
-9.769528e+01 
8.775488e+01 
-6.362984e+01 
8.457653e+00 
2.125619e+01 
-6.338877e+01 
7.781629e+01 
-7.819872e+01 
6.003439e+01 
-4.436115e+01 
2.246493e+01 
-1.491853e+01 
1.491853e+01 
-2.246493e+01 
4.436115e+01 
-6.003439e+01 
7.819872e+01 
-7.781629e+01 
6.338877e+01 
-2.125619e+01 
-8.457653e+00 
6.362984e+01 
-8.775488e+01 
9.769528e+01 
-5.201936e+01 
1.866634e+01 
1.747684e+01 
-2.806574e+01 
1.107372e+02 
-1.234268e+02 
9.451065e+01 
-1.510455e+01 
-3.261120e+01 
9.220282e+01 
-6.368294e+01 
4.518153e+01 
1.700903e+01 
-3.645541e+01 
5.907057e+01 
2.205674e+00 
-8.358159e+00 
3.048721e+01 
1.394058e+01 
-4.835741e-01 
1.296695e+01 
2.853655e+01 
3.142435e+00 
-3.148734e+00 
5.870229e+01 
-1.565974e+01 
-8.121281e+00 
6.973944e+01 
-3.615011e+01 
4.224821e+01 
2.226292e+01 
-2.641112e+01 
8.101106e+01 
-5.215331e+01 
4.837812e+01 
3.797119e+01 
-5.488184e+01 
1.067187e+02 
-7.341396e+01 
1.092998e+02 
-5.127131e+01 
2.573443e+01 
3.652461e+01 
-4.939537e+00 
3.299376e+01 
9.382294e-01 
2.892305e+01 
9.302145e+00 
1.956295e+01 
1.502906e+01 
1.608709e+01 
2.052583e+01 
8.733411e+00 
2.491108e+01 
7.567485e+00 
2.789977e+01 
1.093868e+01 
5.768529e+00 
5.146533e+01 
-7.064956e+01 
1.176154e+02 
-6.754547e+01 
9.377987e+01 
-1.916113e+01 
-2.376835e+01 
1.017318e+02 
-9.670298e+01 
1.163568e+02 
-3.983877e+01 
2.925640e+01 
3.741458e+01 
-3.479263e+01 
6.866312e+01 
-1.883462e+01 
1.812923e+01 
3.242491e+01 
-1.045631e+01 
3.476945e+01 
6.825638e-01 
3.940616e+00 
4.029672e+01 
-9.526688e+00 
1.243243e+01 
2.782986e+01 
-9.046767e+00 
2.580026e+01 
1.130056e+01 
-2.167135e+01 
7.073391e+01 
-3.211687e+01 
-7.047213e-01 
6.833373e+01 
-9.806814e+01 
1.110270e+02 
-3.122694e+01 
-1.045560e+01 
7.726110e+01 
-1.204385e+02 
1.269484e+02 
-5.351696e+01 
2.571395e+01 
1.714805e+01 
-2.947302e+01 
6.603235e+01 
-8.991849e+01 
9.278441e+01 
-5.673242e+01 
3.891494e+01 
-1.889051e+01 
1.247704e+01 
1.153398e+00 
-2.245135e+00 
