# vtk DataFile Version 2.0
fY_Lag
ASCII
DATASET UNSTRUCTURED_GRID

FIELD FieldData 1
TIME 1 1 double
1.34000000
POINTS 249 float
7.799844412148305e-01 5.000000000001341e-01 0.000000000000000e+00
7.798943012521429e-01 5.068722442938569e-01 0.000000000000000e+00
7.796290013254157e-01 5.137753342648999e-01 0.000000000000000e+00
7.791634902011025e-01 5.206697750609099e-01 0.000000000000000e+00
7.785697737286547e-01 5.274338264448925e-01 0.000000000000000e+00
7.776864894240730e-01 5.344093498403276e-01 0.000000000000000e+00
7.768533209432952e-01 5.409270071840148e-01 0.000000000000000e+00
7.754979372962391e-01 5.480650680246613e-01 0.000000000000000e+00
7.745753005611072e-01 5.541452956928642e-01 0.000000000000000e+00
7.726212518986980e-01 5.614222728079002e-01 0.000000000000000e+00
7.713519250040011e-01 5.676373685558548e-01 0.000000000000000e+00
7.692016072600272e-01 5.745101120718470e-01 0.000000000000000e+00
7.671755710748397e-01 5.810316257450194e-01 0.000000000000000e+00
7.652267432176376e-01 5.872831763868139e-01 0.000000000000000e+00
7.624931939447779e-01 5.941550992566834e-01 0.000000000000000e+00
7.605416663891147e-01 5.996940088428122e-01 0.000000000000000e+00
7.573632364827456e-01 6.066007120554738e-01 0.000000000000000e+00
7.547034997512704e-01 6.125043742275947e-01 0.000000000000000e+00
7.517472743877338e-01 6.186145617740636e-01 0.000000000000000e+00
7.483768998669383e-01 6.249433608483301e-01 0.000000000000000e+00
7.453506728566206e-01 6.304227395836355e-01 0.000000000000000e+00
7.415138623260891e-01 6.367447125286583e-01 0.000000000000000e+00
7.379584104543089e-01 6.424086809805321e-01 0.000000000000000e+00
7.342625518229905e-01 6.480392117608452e-01 0.000000000000000e+00
7.301751162816347e-01 6.538018274062173e-01 0.000000000000000e+00
7.262093608204885e-01 6.591211220624581e-01 0.000000000000000e+00
7.218615201401224e-01 6.646545092104874e-01 0.000000000000000e+00
7.174360975282914e-01 6.700177273002934e-01 0.000000000000000e+00
7.130763055278911e-01 6.750391197259187e-01 0.000000000000000e+00
7.083821713423594e-01 6.801534906166105e-01 0.000000000000000e+00
7.034759641156734e-01 6.852137170936131e-01 0.000000000000000e+00
6.986902182345203e-01 6.899603786897049e-01 0.000000000000000e+00
6.936801231038336e-01 6.946750023297025e-01 0.000000000000000e+00
6.884576207139730e-01 6.992937393702858e-01 0.000000000000000e+00
6.832193782034678e-01 7.037269221140799e-01 0.000000000000000e+00
6.778886599636182e-01 7.080395534889948e-01 0.000000000000000e+00
6.724633882335483e-01 7.121738333246599e-01 0.000000000000000e+00
6.667161399106817e-01 7.163310123966461e-01 0.000000000000000e+00
6.610835289911505e-01 7.202334748811273e-01 0.000000000000000e+00
6.553991358295375e-01 7.239323901460440e-01 0.000000000000000e+00
6.493051384890275e-01 7.276660765547475e-01 0.000000000000000e+00
6.437273973152751e-01 7.308979905756565e-01 0.000000000000000e+00
6.373935693922265e-01 7.344184105556325e-01 0.000000000000000e+00
6.312589574265202e-01 7.376338272136735e-01 0.000000000000000e+00
6.253657757711828e-01 7.404830355005801e-01 0.000000000000000e+00
6.185738615997689e-01 7.436199678357128e-01 0.000000000000000e+00
6.130666854809426e-01 7.457469847282242e-01 0.000000000000000e+00
6.061665366025993e-01 7.487881693240001e-01 0.000000000000000e+00
5.999810100899989e-01 7.508975124216835e-01 0.000000000000000e+00
5.934502081723906e-01 7.531540916663851e-01 0.000000000000000e+00
5.864821212137742e-01 7.555079792621940e-01 0.000000000000000e+00
5.804627129288857e-01 7.570501086051823e-01 0.000000000000000e+00
5.731593936213647e-01 7.592420956650289e-01 0.000000000000000e+00
5.673490993713625e-01 7.603091573809295e-01 0.000000000000000e+00
5.600872851389053e-01 7.619915306918592e-01 0.000000000000000e+00
5.535492738499485e-01 7.631696502867661e-01 0.000000000000000e+00
5.466194835138880e-01 7.643250773548645e-01 0.000000000000000e+00
5.396129714066621e-01 7.653521987960670e-01 0.000000000000000e+00
5.328370142294860e-01 7.661030347904092e-01 0.000000000000000e+00
5.257429489091624e-01 7.667647158650648e-01 0.000000000000000e+00
5.189899006860281e-01 7.671787830733493e-01 0.000000000000000e+00
5.118960409549310e-01 7.675132755637513e-01 0.000000000000000e+00
5.050230759000086e-01 7.676366805249381e-01 0.000000000000000e+00
4.979798905316810e-01 7.675947791500856e-01 0.000000000000000e+00
4.911104828426897e-01 7.674003863591254e-01 0.000000000000000e+00
4.840375497716626e-01 7.670085818931948e-01 0.000000000000000e+00
4.773016530987162e-01 7.665276120574925e-01 0.000000000000000e+00
4.701229779344511e-01 7.657509335719369e-01 0.000000000000000e+00
4.635436673768379e-01 7.649693247274136e-01 0.000000000000000e+00
4.563539763668921e-01 7.638458276292830e-01 0.000000000000000e+00
4.498147654008006e-01 7.627909257662381e-01 0.000000000000000e+00
4.428068310807287e-01 7.613040574149221e-01 0.000000000000000e+00
4.359848738899254e-01 7.596687969598601e-01 0.000000000000000e+00
4.297146936528060e-01 7.583896429149264e-01 0.000000000000000e+00
4.225376055476263e-01 7.561933426546608e-01 0.000000000000000e+00
4.164014438907500e-01 7.546076129310616e-01 0.000000000000000e+00
4.094893002495272e-01 7.520065235430750e-01 0.000000000000000e+00
4.031321089348164e-01 7.500331677116776e-01 0.000000000000000e+00
3.965946923248244e-01 7.474330439697678e-01 0.000000000000000e+00
3.900574665218089e-01 7.445197055912089e-01 0.000000000000000e+00
3.842345117044125e-01 7.421453451349855e-01 0.000000000000000e+00
3.775250892729129e-01 7.390377735196727e-01 0.000000000000000e+00
3.717459911165533e-01 7.361379665794060e-01 0.000000000000000e+00
3.655192692876451e-01 7.327164678174790e-01 0.000000000000000e+00
3.592605079614465e-01 7.291399176646335e-01 0.000000000000000e+00
3.537791875842422e-01 7.259603451667810e-01 0.000000000000000e+00
3.477186960668872e-01 7.221266783914494e-01 0.000000000000000e+00
3.420811694896539e-01 7.183430386592489e-01 0.000000000000000e+00
3.365463442079810e-01 7.144118118169873e-01 0.000000000000000e+00
3.307680404474168e-01 7.101435458679897e-01 0.000000000000000e+00
3.254369096365016e-01 7.059909078990176e-01 0.000000000000000e+00
3.202283515716487e-01 7.016415911354780e-01 0.000000000000000e+00
3.148781409545240e-01 6.970361399728866e-01 0.000000000000000e+00
3.098412976145101e-01 6.924446864895911e-01 0.000000000000000e+00
3.049592180924566e-01 6.877254519506982e-01 0.000000000000000e+00
3.000309801804770e-01 6.827709490562327e-01 0.000000000000000e+00
2.953410584983885e-01 6.777503681428423e-01 0.000000000000000e+00
2.907632866435216e-01 6.726505604948847e-01 0.000000000000000e+00
2.863365255849504e-01 6.674420686974223e-01 0.000000000000000e+00
2.819367033384499e-01 6.619743861486632e-01 0.000000000000000e+00
2.779050584287076e-01 6.566452588506698e-01 0.000000000000000e+00
2.738449829045590e-01 6.510752918638363e-01 0.000000000000000e+00
2.697382981556025e-01 6.451683713726687e-01 0.000000000000000e+00
2.663376227597021e-01 6.398037396782047e-01 0.000000000000000e+00
2.625960323112316e-01 6.337109647456183e-01 0.000000000000000e+00
2.591198922562626e-01 6.277486369963415e-01 0.000000000000000e+00
2.559958215504553e-01 6.219780179739171e-01 0.000000000000000e+00
2.525887396666935e-01 6.153785299884865e-01 0.000000000000000e+00
2.500935626842169e-01 6.098572690565478e-01 0.000000000000000e+00
2.469920948621347e-01 6.032934077695168e-01 0.000000000000000e+00
2.445022432175633e-01 5.970185403962203e-01 0.000000000000000e+00
2.421936250443425e-01 5.907352879862496e-01 0.000000000000000e+00
2.393918822625736e-01 5.838660639365507e-01 0.000000000000000e+00
2.379397503254456e-01 5.780418501960271e-01 0.000000000000000e+00
2.355418109312183e-01 5.708693203118684e-01 0.000000000000000e+00
2.341684852087325e-01 5.647646260061872e-01 0.000000000000000e+00
2.324030361068682e-01 5.579009582267662e-01 0.000000000000000e+00
2.309951714583802e-01 5.511603530585867e-01 0.000000000000000e+00
2.298344421374231e-01 5.446227611169853e-01 0.000000000000000e+00
2.286076305618633e-01 5.374253674862477e-01 0.000000000000000e+00
2.278424922804816e-01 5.310373183846959e-01 0.000000000000000e+00
2.270276299350114e-01 5.238691293955900e-01 0.000000000000000e+00
2.265598962806193e-01 5.172921428551321e-01 0.000000000000000e+00
2.261674508981453e-01 5.102691833757221e-01 0.000000000000000e+00
2.260071515174369e-01 5.034709684648245e-01 0.000000000000000e+00
2.260071515174423e-01 4.965290315365823e-01 0.000000000000000e+00
2.261674508981469e-01 4.897308166256719e-01 0.000000000000000e+00
2.265598962805925e-01 4.827078571462771e-01 0.000000000000000e+00
2.270276299349732e-01 4.761308706058261e-01 0.000000000000000e+00
2.278424922804352e-01 4.689626816166987e-01 0.000000000000000e+00
2.286076305618479e-01 4.625746325150993e-01 0.000000000000000e+00
2.298344421373885e-01 4.553772388843859e-01 0.000000000000000e+00
2.309951714583308e-01 4.488396469427831e-01 0.000000000000000e+00
2.324030361067631e-01 4.420990417746455e-01 0.000000000000000e+00
2.341684852086451e-01 4.352353739952034e-01 0.000000000000000e+00
2.355418109311009e-01 4.291306796895668e-01 0.000000000000000e+00
2.379397503253653e-01 4.219581498053625e-01 0.000000000000000e+00
2.393918822625457e-01 4.161339360646936e-01 0.000000000000000e+00
2.421936250442402e-01 4.092647120150917e-01 0.000000000000000e+00
2.445022432175244e-01 4.029814596050689e-01 0.000000000000000e+00
2.469920948620276e-01 3.967065922318613e-01 0.000000000000000e+00
2.500935626841176e-01 3.901427309447426e-01 0.000000000000000e+00
2.525887396666067e-01 3.846214700128240e-01 0.000000000000000e+00
2.559958215503374e-01 3.780219820274142e-01 0.000000000000000e+00
2.591198922561952e-01 3.722513630049128e-01 0.000000000000000e+00
2.625960323110855e-01 3.662890352557380e-01 0.000000000000000e+00
2.663376227595878e-01 3.601962603230921e-01 0.000000000000000e+00
2.697382981554688e-01 3.548316286286353e-01 0.000000000000000e+00
2.738449829043919e-01 3.489247081375023e-01 0.000000000000000e+00
2.779050584286141e-01 3.433547411505788e-01 0.000000000000000e+00
2.819367033382951e-01 3.380256138526460e-01 0.000000000000000e+00
2.863365255847883e-01 3.325579313038794e-01 0.000000000000000e+00
2.907632866433983e-01 3.273494395063695e-01 0.000000000000000e+00
2.953410584981950e-01 3.222496318584813e-01 0.000000000000000e+00
3.000309801802786e-01 3.172290509450807e-01 0.000000000000000e+00
3.049592180922859e-01 3.122745480505899e-01 0.000000000000000e+00
3.098412976143443e-01 3.075553135116808e-01 0.000000000000000e+00
3.148781409543426e-01 3.029638600283911e-01 0.000000000000000e+00
3.202283515714695e-01 2.983584088658021e-01 0.000000000000000e+00
3.254369096363285e-01 2.940090921022501e-01 0.000000000000000e+00
3.307680404472189e-01 2.898564541332817e-01 0.000000000000000e+00
3.365463442077715e-01 2.855881881842999e-01 0.000000000000000e+00
3.420811694894632e-01 2.816569613420166e-01 0.000000000000000e+00
3.477186960666966e-01 2.778733216098006e-01 0.000000000000000e+00
3.537791875840377e-01 2.740396548344564e-01 0.000000000000000e+00
3.592605079612287e-01 2.708600823366404e-01 0.000000000000000e+00
3.655192692873943e-01 2.672835321838074e-01 0.000000000000000e+00
3.717459911163545e-01 2.638620334218334e-01 0.000000000000000e+00
3.775250892726940e-01 2.609622264815653e-01 0.000000000000000e+00
3.842345117041926e-01 2.578546548662486e-01 0.000000000000000e+00
3.900574665215868e-01 2.554802944100409e-01 0.000000000000000e+00
3.965946923245569e-01 2.525669560314757e-01 0.000000000000000e+00
4.031321089345761e-01 2.499668322895644e-01 0.000000000000000e+00
4.094893002492968e-01 2.479934764581588e-01 0.000000000000000e+00
4.164014438905007e-01 2.453923870701261e-01 0.000000000000000e+00
4.225376055473749e-01 2.438066573465328e-01 0.000000000000000e+00
4.297146936525560e-01 2.416103570862992e-01 0.000000000000000e+00
4.359848738896733e-01 2.403312030413459e-01 0.000000000000000e+00
4.428068310804810e-01 2.386959425862586e-01 0.000000000000000e+00
4.498147654005240e-01 2.372090742349520e-01 0.000000000000000e+00
4.563539763666264e-01 2.361541723718915e-01 0.000000000000000e+00
4.635436673765876e-01 2.350306752737601e-01 0.000000000000000e+00
4.701229779341541e-01 2.342490664292393e-01 0.000000000000000e+00
4.773016530984393e-01 2.334723879436567e-01 0.000000000000000e+00
4.840375497713521e-01 2.329914181079607e-01 0.000000000000000e+00
4.911104828423901e-01 2.325996136420215e-01 0.000000000000000e+00
4.979798905313678e-01 2.324052208510620e-01 0.000000000000000e+00
5.050230758996862e-01 2.323633194761978e-01 0.000000000000000e+00
5.118960409546133e-01 2.324867244373829e-01 0.000000000000000e+00
5.189899006857005e-01 2.328212169277740e-01 0.000000000000000e+00
5.257429489088482e-01 2.332352841360498e-01 0.000000000000000e+00
5.328370142291438e-01 2.338969652107083e-01 0.000000000000000e+00
5.396129714063406e-01 2.346478012050494e-01 0.000000000000000e+00
5.466194835135372e-01 2.356749226462310e-01 0.000000000000000e+00
5.535492738496047e-01 2.368303497143265e-01 0.000000000000000e+00
5.600872851385694e-01 2.380084693092333e-01 0.000000000000000e+00
5.673490993709939e-01 2.396908426201535e-01 0.000000000000000e+00
5.731593936210574e-01 2.407579043360676e-01 0.000000000000000e+00
5.804627129285695e-01 2.429498913959125e-01 0.000000000000000e+00
5.864821212134866e-01 2.444920207388628e-01 0.000000000000000e+00
5.934502081720615e-01 2.468459083346880e-01 0.000000000000000e+00
5.999810100897068e-01 2.491024875793937e-01 0.000000000000000e+00
6.061665366023359e-01 2.512118306770753e-01 0.000000000000000e+00
6.130666854806395e-01 2.542530152728625e-01 0.000000000000000e+00
6.185738615994764e-01 2.563800321653464e-01 0.000000000000000e+00
6.253657757708929e-01 2.595169645004519e-01 0.000000000000000e+00
6.312589574262549e-01 2.623661727873892e-01 0.000000000000000e+00
6.373935693919650e-01 2.655815894454389e-01 0.000000000000000e+00
6.437273973150280e-01 2.691020094254084e-01 0.000000000000000e+00
6.493051384887445e-01 2.723339234462780e-01 0.000000000000000e+00
6.553991358292549e-01 2.760676098549615e-01 0.000000000000000e+00
6.610835289908833e-01 2.797665251198964e-01 0.000000000000000e+00
6.667161399104163e-01 2.836689876043783e-01 0.000000000000000e+00
6.724633882333028e-01 2.878261666763574e-01 0.000000000000000e+00
6.778886599633603e-01 2.919604465119985e-01 0.000000000000000e+00
6.832193782032020e-01 2.962730778869125e-01 0.000000000000000e+00
6.884576207137260e-01 3.007062606307052e-01 0.000000000000000e+00
6.936801231035898e-01 3.053249976712906e-01 0.000000000000000e+00
6.986902182342540e-01 3.100396213112496e-01 0.000000000000000e+00
7.034759641154383e-01 3.147862829073564e-01 0.000000000000000e+00
7.083821713421065e-01 3.198465093843509e-01 0.000000000000000e+00
7.130763055276567e-01 3.249608802750281e-01 0.000000000000000e+00
7.174360975280580e-01 3.299822727006554e-01 0.000000000000000e+00
7.218615201398921e-01 3.353454907904599e-01 0.000000000000000e+00
7.262093608202600e-01 3.408788779384687e-01 0.000000000000000e+00
7.301751162814109e-01 3.461981725947161e-01 0.000000000000000e+00
7.342625518227919e-01 3.519607882401062e-01 0.000000000000000e+00
7.379584104540582e-01 3.575913190203485e-01 0.000000000000000e+00
7.415138623258852e-01 3.632552874722660e-01 0.000000000000000e+00
7.453506728564161e-01 3.695772604172777e-01 0.000000000000000e+00
7.483768998667401e-01 3.750566391525706e-01 0.000000000000000e+00
7.517472743875562e-01 3.813854382268766e-01 0.000000000000000e+00
7.547034997510533e-01 3.874956257732757e-01 0.000000000000000e+00
7.573632364825854e-01 3.933992879454412e-01 0.000000000000000e+00
7.605416663889294e-01 4.003059911580658e-01 0.000000000000000e+00
7.624931939446173e-01 4.058449007442230e-01 0.000000000000000e+00
7.652267432175147e-01 4.127168236141288e-01 0.000000000000000e+00
7.671755710746957e-01 4.189683742558966e-01 0.000000000000000e+00
7.692016072599049e-01 4.254898879290650e-01 0.000000000000000e+00
7.713519250038550e-01 4.323626314450104e-01 0.000000000000000e+00
7.726212518986000e-01 4.385777271930302e-01 0.000000000000000e+00
7.745753005610136e-01 4.458547043080370e-01 0.000000000000000e+00
7.754979372961605e-01 4.519349319762704e-01 0.000000000000000e+00
7.768533209432479e-01 4.590729928169455e-01 0.000000000000000e+00
7.776864894240211e-01 4.655906501606057e-01 0.000000000000000e+00
7.785697737286098e-01 4.725661735559782e-01 0.000000000000000e+00
7.791634902010645e-01 4.793302249400023e-01 0.000000000000000e+00
7.796290013253987e-01 4.862246657361814e-01 0.000000000000000e+00
7.798943012521395e-01 4.931277557073923e-01 0.000000000000000e+00

POINT_DATA   249
SCALARS fY_Lag double
LOOKUP_TABLE default

9.808821e-08 
3.084593e+00 
-8.651335e-01 
-1.303939e+01 
2.114663e+01 
-4.578631e+01 
6.203920e+01 
-1.057818e+02 
1.196728e+02 
-1.061868e+02 
6.576352e+01 
-3.512292e+01 
-2.699435e+01 
6.203392e+01 
-1.332984e+02 
1.367753e+02 
-1.003032e+02 
2.065478e+01 
2.185865e+01 
-8.494036e+01 
8.425536e+01 
-6.579824e+01 
-3.342225e+00 
1.320480e+01 
-4.433144e+01 
2.140775e+01 
-1.701511e+01 
-3.418139e+01 
9.294757e+00 
-5.414469e+00 
-3.135306e+01 
-3.208196e+00 
-9.589249e+00 
-1.855199e+01 
-1.205796e+01 
-1.783525e+01 
2.290554e+00 
-2.547165e+01 
-2.035336e+01 
3.475213e+00 
-5.017666e+01 
2.885062e+01 
-3.049871e+01 
-3.662047e+01 
2.876978e+01 
-1.009893e+02 
9.141644e+01 
-9.318393e+01 
1.472533e+01 
9.730699e+00 
-8.117573e+01 
6.498410e+01 
-1.124902e+02 
6.153237e+01 
-5.042542e+01 
-2.269748e+00 
-1.283010e+01 
-2.762731e+01 
-8.915119e+00 
-2.476156e+01 
-7.957446e+00 
-2.110802e+01 
-1.652982e+01 
-1.524862e+01 
-1.974101e+01 
-8.916252e+00 
-2.957065e+01 
-4.924179e-01 
-3.418804e+01 
6.859460e+00 
-4.319604e+01 
-1.483919e+01 
3.561147e+01 
-9.171277e+01 
6.105651e+01 
-1.015379e+02 
6.277477e+01 
-6.267539e+01 
-3.132085e+01 
5.389656e+01 
-7.332016e+01 
2.077569e+01 
-5.216922e+01 
-1.550254e+01 
3.969620e+01 
-6.540858e+01 
5.000671e+00 
-1.475707e+01 
-3.370230e+01 
1.155998e+01 
-1.966683e+01 
-2.561234e+01 
1.397034e+00 
-1.277712e+01 
-2.352630e+01 
-6.608479e+00 
-7.922095e+00 
-1.086864e+01 
-2.591885e+01 
1.385200e+01 
-2.408105e+01 
-3.369554e+01 
5.422443e+01 
-7.281231e+01 
1.304229e+01 
1.917236e+01 
-8.288446e+01 
1.078178e+02 
-1.042566e+02 
2.889570e+01 
-8.363779e-01 
-5.859669e+01 
1.044997e+02 
-1.348302e+02 
1.067800e+02 
-7.589547e+01 
1.230586e+01 
2.030107e+01 
-6.597940e+01 
8.093333e+01 
-7.801323e+01 
5.911925e+01 
-4.459696e+01 
2.247428e+01 
-1.437196e+01 
1.437196e+01 
-2.247428e+01 
4.459696e+01 
-5.911925e+01 
7.801323e+01 
-8.093333e+01 
6.597940e+01 
-2.030107e+01 
-1.230586e+01 
7.589547e+01 
-1.067800e+02 
1.348302e+02 
-1.044997e+02 
5.859669e+01 
8.363779e-01 
-2.889570e+01 
1.042566e+02 
-1.078178e+02 
8.288446e+01 
-1.917236e+01 
-1.304229e+01 
7.281231e+01 
-5.422443e+01 
3.369554e+01 
2.408105e+01 
-1.385200e+01 
2.591885e+01 
1.086864e+01 
7.922095e+00 
6.608479e+00 
2.352630e+01 
1.277712e+01 
-1.397034e+00 
2.561234e+01 
1.966683e+01 
-1.155998e+01 
3.370230e+01 
1.475707e+01 
-5.000671e+00 
6.540858e+01 
-3.969620e+01 
1.550254e+01 
5.216922e+01 
-2.077569e+01 
7.332016e+01 
-5.389656e+01 
3.132085e+01 
6.267539e+01 
-6.277477e+01 
1.015379e+02 
-6.105651e+01 
9.171277e+01 
-3.561147e+01 
1.483919e+01 
4.319604e+01 
-6.859460e+00 
3.418804e+01 
4.924179e-01 
2.957065e+01 
8.916252e+00 
1.974101e+01 
1.524862e+01 
1.652982e+01 
2.110802e+01 
7.957446e+00 
2.476156e+01 
8.915119e+00 
2.762731e+01 
1.283010e+01 
2.269748e+00 
5.042542e+01 
-6.153237e+01 
1.124902e+02 
-6.498410e+01 
8.117573e+01 
-9.730699e+00 
-1.472533e+01 
9.318393e+01 
-9.141644e+01 
1.009893e+02 
-2.876978e+01 
3.662047e+01 
3.049871e+01 
-2.885062e+01 
5.017666e+01 
-3.475213e+00 
2.035336e+01 
2.547165e+01 
-2.290554e+00 
1.783525e+01 
1.205796e+01 
1.855199e+01 
9.589249e+00 
3.208196e+00 
3.135306e+01 
5.414469e+00 
-9.294757e+00 
3.418139e+01 
1.701511e+01 
-2.140775e+01 
4.433144e+01 
-1.320480e+01 
3.342225e+00 
6.579824e+01 
-8.425536e+01 
8.494036e+01 
-2.185865e+01 
-2.065478e+01 
1.003032e+02 
-1.367753e+02 
1.332984e+02 
-6.203392e+01 
2.699435e+01 
3.512292e+01 
-6.576352e+01 
1.061868e+02 
-1.196728e+02 
1.057818e+02 
-6.203920e+01 
4.578631e+01 
-2.114663e+01 
1.303939e+01 
8.651335e-01 
-3.084593e+00 
