# vtk DataFile Version 2.0
fMag
ASCII
DATASET UNSTRUCTURED_GRID

FIELD FieldData 1
TIME 1 1 double
0.00000000
POINTS 206 float
4.000000000000000e-01 4.000000000000000e-01 0.000000000000000e+00
4.000000000000000e-01 4.019531250000000e-01 0.000000000000000e+00
4.000000000000000e-01 4.039062500000000e-01 0.000000000000000e+00
4.000000000000000e-01 4.058593750000000e-01 0.000000000000000e+00
4.000000000000000e-01 4.078125000000000e-01 0.000000000000000e+00
4.000000000000000e-01 4.097656250000000e-01 0.000000000000000e+00
4.000000000000000e-01 4.117187500000000e-01 0.000000000000000e+00
4.000000000000000e-01 4.136718750000000e-01 0.000000000000000e+00
4.000000000000000e-01 4.156250000000000e-01 0.000000000000000e+00
4.000000000000000e-01 4.175781250000000e-01 0.000000000000000e+00
4.000000000000000e-01 4.195312500000000e-01 0.000000000000000e+00
4.000000000000000e-01 4.214843750000000e-01 0.000000000000000e+00
4.000000000000000e-01 4.234375000000000e-01 0.000000000000000e+00
4.000000000000000e-01 4.253906250000000e-01 0.000000000000000e+00
4.000000000000000e-01 4.273437500000000e-01 0.000000000000000e+00
4.000000000000000e-01 4.292968750000000e-01 0.000000000000000e+00
4.000000000000000e-01 4.312500000000000e-01 0.000000000000000e+00
4.000000000000000e-01 4.332031250000000e-01 0.000000000000000e+00
4.000000000000000e-01 4.351562500000000e-01 0.000000000000000e+00
4.000000000000000e-01 4.371093750000000e-01 0.000000000000000e+00
4.000000000000000e-01 4.390625000000000e-01 0.000000000000000e+00
4.000000000000000e-01 4.410156250000000e-01 0.000000000000000e+00
4.000000000000000e-01 4.429687500000000e-01 0.000000000000000e+00
4.000000000000000e-01 4.449218750000000e-01 0.000000000000000e+00
4.000000000000000e-01 4.468750000000000e-01 0.000000000000000e+00
4.000000000000000e-01 4.488281250000000e-01 0.000000000000000e+00
4.000000000000000e-01 4.507812500000000e-01 0.000000000000000e+00
4.000000000000000e-01 4.527343750000000e-01 0.000000000000000e+00
4.000000000000000e-01 4.546875000000000e-01 0.000000000000000e+00
4.000000000000000e-01 4.566406250000000e-01 0.000000000000000e+00
4.000000000000000e-01 4.585937500000000e-01 0.000000000000000e+00
4.000000000000000e-01 4.605468750000000e-01 0.000000000000000e+00
4.000000000000000e-01 4.625000000000000e-01 0.000000000000000e+00
4.000000000000000e-01 4.644531250000000e-01 0.000000000000000e+00
4.000000000000000e-01 4.664062500000000e-01 0.000000000000000e+00
4.000000000000000e-01 4.683593750000000e-01 0.000000000000000e+00
4.000000000000000e-01 4.703125000000000e-01 0.000000000000000e+00
4.000000000000000e-01 4.722656250000000e-01 0.000000000000000e+00
4.000000000000000e-01 4.742187500000000e-01 0.000000000000000e+00
4.000000000000000e-01 4.761718750000000e-01 0.000000000000000e+00
4.000000000000000e-01 4.781250000000000e-01 0.000000000000000e+00
4.000000000000000e-01 4.800781250000000e-01 0.000000000000000e+00
4.000000000000000e-01 4.820312500000000e-01 0.000000000000000e+00
4.000000000000000e-01 4.839843750000000e-01 0.000000000000000e+00
4.000000000000000e-01 4.859375000000000e-01 0.000000000000000e+00
4.000000000000000e-01 4.878906250000000e-01 0.000000000000000e+00
4.000000000000000e-01 4.898437500000000e-01 0.000000000000000e+00
4.000000000000000e-01 4.917968750000000e-01 0.000000000000000e+00
4.000000000000000e-01 4.937500000000000e-01 0.000000000000000e+00
4.000000000000000e-01 4.957031250000000e-01 0.000000000000000e+00
4.000000000000000e-01 4.976562500000000e-01 0.000000000000000e+00
4.000000000000000e-01 4.996093750000000e-01 0.000000000000000e+00
4.000000000000000e-01 5.015625000000000e-01 0.000000000000000e+00
4.000000000000000e-01 5.035156250000000e-01 0.000000000000000e+00
4.000000000000000e-01 5.054687500000000e-01 0.000000000000000e+00
4.000000000000000e-01 5.074218750000000e-01 0.000000000000000e+00
4.000000000000000e-01 5.093750000000000e-01 0.000000000000000e+00
4.000000000000000e-01 5.113281250000000e-01 0.000000000000000e+00
4.000000000000000e-01 5.132812500000000e-01 0.000000000000000e+00
4.000000000000000e-01 5.152343750000000e-01 0.000000000000000e+00
4.000000000000000e-01 5.171875000000000e-01 0.000000000000000e+00
4.000000000000000e-01 5.191406250000000e-01 0.000000000000000e+00
4.000000000000000e-01 5.210937500000000e-01 0.000000000000000e+00
4.000000000000000e-01 5.230468750000000e-01 0.000000000000000e+00
4.000000000000000e-01 5.250000000000000e-01 0.000000000000000e+00
4.000000000000000e-01 5.269531250000000e-01 0.000000000000000e+00
4.000000000000000e-01 5.289062500000000e-01 0.000000000000000e+00
4.000000000000000e-01 5.308593750000000e-01 0.000000000000000e+00
4.000000000000000e-01 5.328125000000000e-01 0.000000000000000e+00
4.000000000000000e-01 5.347656250000000e-01 0.000000000000000e+00
4.000000000000000e-01 5.367187500000000e-01 0.000000000000000e+00
4.000000000000000e-01 5.386718750000000e-01 0.000000000000000e+00
4.000000000000000e-01 5.406250000000000e-01 0.000000000000000e+00
4.000000000000000e-01 5.425781250000000e-01 0.000000000000000e+00
4.000000000000000e-01 5.445312500000000e-01 0.000000000000000e+00
4.000000000000000e-01 5.464843750000000e-01 0.000000000000000e+00
4.000000000000000e-01 5.484375000000000e-01 0.000000000000000e+00
4.000000000000000e-01 5.503906250000000e-01 0.000000000000000e+00
4.000000000000000e-01 5.523437500000000e-01 0.000000000000000e+00
4.000000000000000e-01 5.542968750000000e-01 0.000000000000000e+00
4.000000000000000e-01 5.562500000000000e-01 0.000000000000000e+00
4.000000000000000e-01 5.582031250000000e-01 0.000000000000000e+00
4.000000000000000e-01 5.601562500000000e-01 0.000000000000000e+00
4.000000000000000e-01 5.621093750000000e-01 0.000000000000000e+00
4.000000000000000e-01 5.640625000000000e-01 0.000000000000000e+00
4.000000000000000e-01 5.660156250000000e-01 0.000000000000000e+00
4.000000000000000e-01 5.679687500000000e-01 0.000000000000000e+00
4.000000000000000e-01 5.699218750000000e-01 0.000000000000000e+00
4.000000000000000e-01 5.718750000000000e-01 0.000000000000000e+00
4.000000000000000e-01 5.738281250000000e-01 0.000000000000000e+00
4.000000000000000e-01 5.757812500000000e-01 0.000000000000000e+00
4.000000000000000e-01 5.777343750000000e-01 0.000000000000000e+00
4.000000000000000e-01 5.796875000000000e-01 0.000000000000000e+00
4.000000000000000e-01 5.816406250000000e-01 0.000000000000000e+00
4.000000000000000e-01 5.835937500000000e-01 0.000000000000000e+00
4.000000000000000e-01 5.855468750000000e-01 0.000000000000000e+00
4.000000000000000e-01 5.875000000000000e-01 0.000000000000000e+00
4.000000000000000e-01 5.894531250000000e-01 0.000000000000000e+00
4.000000000000000e-01 5.914062500000000e-01 0.000000000000000e+00
4.000000000000000e-01 5.933593750000000e-01 0.000000000000000e+00
4.000000000000000e-01 5.953125000000000e-01 0.000000000000000e+00
4.000000000000000e-01 5.972656250000000e-01 0.000000000000000e+00
4.000000000000000e-01 5.992187500000000e-01 0.000000000000000e+00
6.000000000000000e-01 4.000000000000000e-01 0.000000000000000e+00
6.000000000000000e-01 4.019531250000000e-01 0.000000000000000e+00
6.000000000000000e-01 4.039062500000000e-01 0.000000000000000e+00
6.000000000000000e-01 4.058593750000000e-01 0.000000000000000e+00
6.000000000000000e-01 4.078125000000000e-01 0.000000000000000e+00
6.000000000000000e-01 4.097656250000000e-01 0.000000000000000e+00
6.000000000000000e-01 4.117187500000000e-01 0.000000000000000e+00
6.000000000000000e-01 4.136718750000000e-01 0.000000000000000e+00
6.000000000000000e-01 4.156250000000000e-01 0.000000000000000e+00
6.000000000000000e-01 4.175781250000000e-01 0.000000000000000e+00
6.000000000000000e-01 4.195312500000000e-01 0.000000000000000e+00
6.000000000000000e-01 4.214843750000000e-01 0.000000000000000e+00
6.000000000000000e-01 4.234375000000000e-01 0.000000000000000e+00
6.000000000000000e-01 4.253906250000000e-01 0.000000000000000e+00
6.000000000000000e-01 4.273437500000000e-01 0.000000000000000e+00
6.000000000000000e-01 4.292968750000000e-01 0.000000000000000e+00
6.000000000000000e-01 4.312500000000000e-01 0.000000000000000e+00
6.000000000000000e-01 4.332031250000000e-01 0.000000000000000e+00
6.000000000000000e-01 4.351562500000000e-01 0.000000000000000e+00
6.000000000000000e-01 4.371093750000000e-01 0.000000000000000e+00
6.000000000000000e-01 4.390625000000000e-01 0.000000000000000e+00
6.000000000000000e-01 4.410156250000000e-01 0.000000000000000e+00
6.000000000000000e-01 4.429687500000000e-01 0.000000000000000e+00
6.000000000000000e-01 4.449218750000000e-01 0.000000000000000e+00
6.000000000000000e-01 4.468750000000000e-01 0.000000000000000e+00
6.000000000000000e-01 4.488281250000000e-01 0.000000000000000e+00
6.000000000000000e-01 4.507812500000000e-01 0.000000000000000e+00
6.000000000000000e-01 4.527343750000000e-01 0.000000000000000e+00
6.000000000000000e-01 4.546875000000000e-01 0.000000000000000e+00
6.000000000000000e-01 4.566406250000000e-01 0.000000000000000e+00
6.000000000000000e-01 4.585937500000000e-01 0.000000000000000e+00
6.000000000000000e-01 4.605468750000000e-01 0.000000000000000e+00
6.000000000000000e-01 4.625000000000000e-01 0.000000000000000e+00
6.000000000000000e-01 4.644531250000000e-01 0.000000000000000e+00
6.000000000000000e-01 4.664062500000000e-01 0.000000000000000e+00
6.000000000000000e-01 4.683593750000000e-01 0.000000000000000e+00
6.000000000000000e-01 4.703125000000000e-01 0.000000000000000e+00
6.000000000000000e-01 4.722656250000000e-01 0.000000000000000e+00
6.000000000000000e-01 4.742187500000000e-01 0.000000000000000e+00
6.000000000000000e-01 4.761718750000000e-01 0.000000000000000e+00
6.000000000000000e-01 4.781250000000000e-01 0.000000000000000e+00
6.000000000000000e-01 4.800781250000000e-01 0.000000000000000e+00
6.000000000000000e-01 4.820312500000000e-01 0.000000000000000e+00
6.000000000000000e-01 4.839843750000000e-01 0.000000000000000e+00
6.000000000000000e-01 4.859375000000000e-01 0.000000000000000e+00
6.000000000000000e-01 4.878906250000000e-01 0.000000000000000e+00
6.000000000000000e-01 4.898437500000000e-01 0.000000000000000e+00
6.000000000000000e-01 4.917968750000000e-01 0.000000000000000e+00
6.000000000000000e-01 4.937500000000000e-01 0.000000000000000e+00
6.000000000000000e-01 4.957031250000000e-01 0.000000000000000e+00
6.000000000000000e-01 4.976562500000000e-01 0.000000000000000e+00
6.000000000000000e-01 4.996093750000000e-01 0.000000000000000e+00
6.000000000000000e-01 5.015625000000000e-01 0.000000000000000e+00
6.000000000000000e-01 5.035156250000000e-01 0.000000000000000e+00
6.000000000000000e-01 5.054687500000000e-01 0.000000000000000e+00
6.000000000000000e-01 5.074218750000000e-01 0.000000000000000e+00
6.000000000000000e-01 5.093750000000000e-01 0.000000000000000e+00
6.000000000000000e-01 5.113281250000000e-01 0.000000000000000e+00
6.000000000000000e-01 5.132812500000000e-01 0.000000000000000e+00
6.000000000000000e-01 5.152343750000000e-01 0.000000000000000e+00
6.000000000000000e-01 5.171875000000000e-01 0.000000000000000e+00
6.000000000000000e-01 5.191406250000000e-01 0.000000000000000e+00
6.000000000000000e-01 5.210937500000000e-01 0.000000000000000e+00
6.000000000000000e-01 5.230468750000000e-01 0.000000000000000e+00
6.000000000000000e-01 5.250000000000000e-01 0.000000000000000e+00
6.000000000000000e-01 5.269531250000000e-01 0.000000000000000e+00
6.000000000000000e-01 5.289062500000000e-01 0.000000000000000e+00
6.000000000000000e-01 5.308593750000000e-01 0.000000000000000e+00
6.000000000000000e-01 5.328125000000000e-01 0.000000000000000e+00
6.000000000000000e-01 5.347656250000000e-01 0.000000000000000e+00
6.000000000000000e-01 5.367187500000000e-01 0.000000000000000e+00
6.000000000000000e-01 5.386718750000000e-01 0.000000000000000e+00
6.000000000000000e-01 5.406250000000000e-01 0.000000000000000e+00
6.000000000000000e-01 5.425781250000000e-01 0.000000000000000e+00
6.000000000000000e-01 5.445312500000000e-01 0.000000000000000e+00
6.000000000000000e-01 5.464843750000000e-01 0.000000000000000e+00
6.000000000000000e-01 5.484375000000000e-01 0.000000000000000e+00
6.000000000000000e-01 5.503906250000000e-01 0.000000000000000e+00
6.000000000000000e-01 5.523437500000000e-01 0.000000000000000e+00
6.000000000000000e-01 5.542968750000000e-01 0.000000000000000e+00
6.000000000000000e-01 5.562500000000000e-01 0.000000000000000e+00
6.000000000000000e-01 5.582031250000000e-01 0.000000000000000e+00
6.000000000000000e-01 5.601562500000000e-01 0.000000000000000e+00
6.000000000000000e-01 5.621093750000000e-01 0.000000000000000e+00
6.000000000000000e-01 5.640625000000000e-01 0.000000000000000e+00
6.000000000000000e-01 5.660156250000000e-01 0.000000000000000e+00
6.000000000000000e-01 5.679687500000000e-01 0.000000000000000e+00
6.000000000000000e-01 5.699218750000000e-01 0.000000000000000e+00
6.000000000000000e-01 5.718750000000000e-01 0.000000000000000e+00
6.000000000000000e-01 5.738281250000000e-01 0.000000000000000e+00
6.000000000000000e-01 5.757812500000000e-01 0.000000000000000e+00
6.000000000000000e-01 5.777343750000000e-01 0.000000000000000e+00
6.000000000000000e-01 5.796875000000000e-01 0.000000000000000e+00
6.000000000000000e-01 5.816406250000000e-01 0.000000000000000e+00
6.000000000000000e-01 5.835937500000000e-01 0.000000000000000e+00
6.000000000000000e-01 5.855468750000000e-01 0.000000000000000e+00
6.000000000000000e-01 5.875000000000000e-01 0.000000000000000e+00
6.000000000000000e-01 5.894531250000000e-01 0.000000000000000e+00
6.000000000000000e-01 5.914062500000000e-01 0.000000000000000e+00
6.000000000000000e-01 5.933593750000000e-01 0.000000000000000e+00
6.000000000000000e-01 5.953125000000000e-01 0.000000000000000e+00
6.000000000000000e-01 5.972656250000000e-01 0.000000000000000e+00
6.000000000000000e-01 5.992187500000000e-01 0.000000000000000e+00

POINT_DATA   206
SCALARS fMag double
LOOKUP_TABLE default

0 
0 
0 
0 
0 
0 
0 
0 
0 
0 
0 
0 
0 
0 
0 
0 
0 
0 
0 
0 
0 
0 
0 
0 
0 
0 
0 
0 
0 
0 
0 
0 
0 
0 
0 
0 
0 
0 
0 
0 
0 
0 
0 
0 
0 
0 
0 
0 
0 
0 
0 
0 
0 
0 
0 
0 
0 
0 
0 
0 
0 
0 
0 
0 
0 
0 
0 
0 
0 
0 
0 
0 
0 
0 
0 
0 
0 
0 
0 
0 
0 
0 
0 
0 
0 
0 
0 
0 
0 
0 
0 
0 
0 
0 
0 
0 
0 
0 
0 
0 
0 
0 
0 
0 
0 
0 
0 
0 
0 
0 
0 
0 
0 
0 
0 
0 
0 
0 
0 
0 
0 
0 
0 
0 
0 
0 
0 
0 
0 
0 
0 
0 
0 
0 
0 
0 
0 
0 
0 
0 
0 
0 
0 
0 
0 
0 
0 
0 
0 
0 
0 
0 
0 
0 
0 
0 
0 
0 
0 
0 
0 
0 
0 
0 
0 
0 
0 
0 
0 
0 
0 
0 
0 
0 
0 
0 
0 
0 
0 
0 
0 
0 
0 
0 
0 
0 
0 
0 
0 
0 
0 
0 
0 
0 
0 
0 
0 
0 
0 
0 
0 
0 
0 
0 
0 
0 
