# vtk DataFile Version 2.0
Comment goes here
ASCII

DATASET STRUCTURED_POINTS
DIMENSIONS    128   128   1

ORIGIN    0.000   0.000   0.000
SPACING   0.00781250.0078125   1.000

POINT_DATA   16384
SCALARS Omega double
LOOKUP_TABLE default

1.047253e-06 -7.895991e-04 -1.605550e-03 -2.472493e-03 -3.416874e-03 -4.466251e-03 -5.649654e-03 -6.997906e-03 -8.543935e-03 -1.032303e-02 -1.237310e-02 -1.473479e-02 -1.745168e-02 -2.057024e-02 -2.413986e-02 -2.821268e-02 -3.284335e-02 -3.808863e-02 -4.400695e-02 -5.065767e-02 -5.810030e-02 -6.639348e-02 -7.559383e-02 -8.575453e-02 -9.692382e-02 -1.091432e-01 -1.224455e-01 -1.368528e-01 -1.523743e-01 -1.690039e-01 -1.867176e-01 -2.054715e-01 -2.251993e-01 -2.458095e-01 -2.671842e-01 -2.891768e-01 -3.116106e-01 -3.342782e-01 -3.569407e-01 -3.793286e-01 -4.011428e-01 -4.220565e-01 -4.417186e-01 -4.597576e-01 -4.757873e-01 -4.894125e-01 -5.002371e-01 -5.078722e-01 -5.119458e-01 -5.121124e-01 -5.080639e-01 -4.995403e-01 -4.863401e-01 -4.683303e-01 -4.454552e-01 -4.177440e-01 -3.853161e-01 -3.483843e-01 -3.072553e-01 -2.623272e-01 -2.140840e-01 -1.630870e-01 -1.099631e-01 -5.539125e-02 -8.604512e-05 5.521965e-02 1.097930e-01 1.629192e-01 2.139196e-01 2.621670e-01 3.071000e-01 3.482347e-01 3.851729e-01 4.176077e-01 4.453262e-01 4.682090e-01 4.862267e-01 4.994350e-01 5.079668e-01 5.120234e-01 5.118648e-01 5.077991e-01 5.001715e-01 4.893541e-01 4.757357e-01 4.597125e-01 4.416795e-01 4.220230e-01 4.011144e-01 3.793048e-01 3.569210e-01 3.342622e-01 3.115979e-01 2.891670e-01 2.671769e-01 2.458043e-01 2.251959e-01 2.054697e-01 1.867170e-01 1.690044e-01 1.523757e-01 1.368548e-01 1.224480e-01 1.091461e-01 9.692706e-02 8.575798e-02 7.559740e-02 6.639712e-02 5.810396e-02 5.066132e-02 4.401055e-02 3.809216e-02 3.284678e-02 2.821601e-02 2.414308e-02 2.057334e-02 1.745466e-02 1.473766e-02 1.237585e-02 1.032567e-02 8.546467e-03 7.000341e-03 5.652003e-03 4.468525e-03 3.419085e-03 2.474653e-03 1.607673e-03 7.917010e-04 
1.043224e-06 -8.529826e-04 -1.734676e-03 -2.672130e-03 -3.694275e-03 -4.831280e-03 -6.114950e-03 -7.579085e-03 -9.259830e-03 -1.119597e-02 -1.342918e-02 -1.600427e-02 -1.896927e-02 -2.237551e-02 -2.627762e-02 -3.073332e-02 -3.580326e-02 -4.155054e-02 -4.804021e-02 -5.533855e-02 -6.351221e-02 -7.262704e-02 -8.274690e-02 -9.393212e-02 -1.062378e-01 -1.197118e-01 -1.343928e-01 -1.503078e-01 -1.674698e-01 -1.858750e-01 -2.055004e-01 -2.263006e-01 -2.482057e-01 -2.711182e-01 -2.949109e-01 -3.194247e-01 -3.444669e-01 -3.698099e-01 -3.951911e-01 -4.203124e-01 -4.448421e-01 -4.684165e-01 -4.906434e-01 -5.111062e-01 -5.293702e-01 -5.449888e-01 -5.575125e-01 -5.664978e-01 -5.715184e-01 -5.721758e-01 -5.681124e-01 -5.590230e-01 -5.446677e-01 -5.248836e-01 -4.995952e-01 -4.688238e-01 -4.326941e-01 -3.914384e-01 -3.453980e-01 -2.950202e-01 -2.408528e-01 -1.835340e-01 -1.237793e-01 -6.236526e-02 -1.104135e-04 6.214505e-02 1.235610e-01 1.833186e-01 2.406416e-01 2.948142e-01 3.451982e-01 3.912458e-01 4.325094e-01 4.686477e-01 4.994284e-01 5.247263e-01 5.445204e-01 5.588858e-01 5.679855e-01 5.720591e-01 5.714117e-01 5.664009e-01 5.574250e-01 5.449104e-01 5.293004e-01 5.110446e-01 4.905893e-01 4.683695e-01 4.448015e-01 4.202777e-01 3.951617e-01 3.697853e-01 3.444465e-01 3.194081e-01 2.948976e-01 2.711077e-01 2.481976e-01 2.262946e-01 2.054962e-01 1.858723e-01 1.674683e-01 1.503073e-01 1.343931e-01 1.197128e-01 1.062393e-01 9.393406e-02 8.274916e-02 7.262952e-02 6.351486e-02 5.534132e-02 4.804304e-02 4.155339e-02 3.580612e-02 3.073616e-02 2.628041e-02 2.237826e-02 1.897196e-02 1.600689e-02 1.343173e-02 1.119844e-02 9.262235e-03 7.581423e-03 6.117226e-03 4.833500e-03 3.696449e-03 2.674266e-03 1.736785e-03 8.550747e-04 
1.023244e-06 -9.169473e-04 -1.865039e-03 -2.873840e-03 -3.974867e-03 -5.201003e-03 -6.586944e-03 -8.169596e-03 -9.988465e-03 -1.208599e-02 -1.450783e-02 -1.730311e-02 -2.052459e-02 -2.422873e-02 -2.847565e-02 -3.332905e-02 -3.885592e-02 -4.512609e-02 -5.221172e-02 -6.018650e-02 -6.912472e-02 -7.910005e-02 -9.018422e-02 -1.024453e-01 -1.159460e-01 -1.307413e-01 -1.468765e-01 -1.643841e-01 -1.832817e-01 -2.035687e-01 -2.252233e-01 -2.481999e-01 -2.724252e-01 -2.977960e-01 -3.241762e-01 -3.513942e-01 -3.792409e-01 -4.074685e-01 -4.357893e-01 -4.638758e-01 -4.913618e-01 -5.178444e-01 -5.428875e-01 -5.660261e-01 -5.867726e-01 -6.046246e-01 -6.190736e-01 -6.296157e-01 -6.357633e-01 -6.370585e-01 -6.330863e-01 -6.234896e-01 -6.079831e-01 -5.863675e-01 -5.585422e-01 -5.245164e-01 -4.844176e-01 -4.384974e-01 -3.871330e-01 -3.308254e-01 -2.701926e-01 -2.059588e-01 -1.389389e-01 -7.001964e-02 -1.376741e-04 6.974505e-02 1.386665e-01 2.056901e-01 2.699291e-01 3.305683e-01 3.868835e-01 4.382567e-01 4.841867e-01 5.242960e-01 5.583331e-01 5.861702e-01 6.077980e-01 6.233169e-01 6.329262e-01 6.369109e-01 6.356280e-01 6.294924e-01 6.189620e-01 6.045241e-01 5.866827e-01 5.659462e-01 5.428169e-01 5.177825e-01 4.913078e-01 4.638291e-01 4.357492e-01 4.074344e-01 3.792121e-01 3.513700e-01 3.241562e-01 2.977796e-01 2.724119e-01 2.481893e-01 2.252151e-01 2.035623e-01 1.832770e-01 1.643808e-01 1.468743e-01 1.307401e-01 1.159456e-01 1.024455e-01 9.018494e-02 7.910117e-02 6.912617e-02 6.018821e-02 5.221362e-02 4.512813e-02 3.885807e-02 3.333128e-02 2.847792e-02 2.423102e-02 2.052689e-02 1.730540e-02 1.451010e-02 1.208823e-02 9.990685e-03 8.171784e-03 6.589101e-03 5.203129e-03 3.976966e-03 2.875917e-03 1.867099e-03 9.189973e-04 
9.850016e-07 -9.807250e-04 -1.995083e-03 -3.075248e-03 -4.255401e-03 -5.571228e-03 -7.060415e-03 -8.763082e-03 -1.072222e-02 -1.298406e-02 -1.559842e-02 -1.861893e-02 -2.210329e-02 -2.611330e-02 -3.071491e-02 -3.597806e-02 -4.197643e-02 -4.878700e-02 -5.648946e-02 -6.516537e-02 -7.489721e-02 -8.576702e-02 -9.785504e-02 -1.112378e-01 -1.259862e-01 -1.421632e-01 -1.598212e-01 -1.789995e-01 -1.997208e-01 -2.219886e-01 -2.457834e-01 -2.710595e-01 -2.977414e-01 -3.257207e-01 -3.548528e-01 -3.849539e-01 -4.157989e-01 -4.471191e-01 -4.786014e-01 -5.098878e-01 -5.405763e-01 -5.702230e-01 -5.983450e-01 -6.244256e-01 -6.479207e-01 -6.682669e-01 -6.848911e-01 -6.972226e-01 -7.047058e-01 -7.068151e-01 -7.030707e-01 -6.930547e-01 -6.764285e-01 -6.529487e-01 -6.224829e-01 -5.850226e-01 -5.406950e-01 -4.897689e-01 -4.326594e-01 -3.699247e-01 -3.022603e-01 -2.304859e-01 -1.555282e-01 -7.839868e-02 -1.677752e-04 7.806404e-02 1.551963e-01 2.301584e-01 3.019391e-01 3.696112e-01 4.323551e-01 4.894752e-01 5.404131e-01 5.847535e-01 6.222274e-01 6.527075e-01 6.762020e-01 6.928432e-01 7.028743e-01 7.066338e-01 7.045393e-01 6.970705e-01 6.847531e-01 6.681423e-01 6.478089e-01 6.243258e-01 5.982565e-01 5.701449e-01 5.405079e-01 5.098281e-01 4.785497e-01 4.470746e-01 4.157609e-01 3.849216e-01 3.548256e-01 3.256979e-01 2.977224e-01 2.710438e-01 2.457707e-01 2.219783e-01 1.997126e-01 1.789930e-01 1.598163e-01 1.421595e-01 1.259835e-01 1.112360e-01 9.785399e-02 8.576658e-02 7.489726e-02 6.516584e-02 5.649026e-02 4.878808e-02 4.197773e-02 3.597954e-02 3.071653e-02 2.611503e-02 2.210511e-02 1.862081e-02 1.560034e-02 1.298602e-02 1.072419e-02 8.765063e-03 7.062401e-03 5.573213e-03 4.257382e-03 3.077226e-03 1.997057e-03 9.826960e-04 
9.261743e-07 -1.043438e-03 -2.123030e-03 -3.273634e-03 -4.532155e-03 -5.937149e-03 -7.529364e-03 -9.352222e-03 -1.145230e-02 -1.387975e-02 -1.668866e-02 -1.993734e-02 -2.368861e-02 -2.800984e-02 -3.297302e-02 -3.865463e-02 -4.513538e-02 -5.249971e-02 -6.083528e-02 -7.023196e-02 -8.078092e-02 -9.257315e-02 -1.056979e-01 -1.202410e-01 -1.362821e-01 -1.538929e-01 -1.731341e-01 -1.940520e-01 -2.166759e-01 -2.410139e-01 -2.670498e-01 -2.947389e-01 -3.240044e-01 -3.547333e-01 -3.867733e-01 -4.199292e-01 -4.539598e-01 -4.885762e-01 -5.234394e-01 -5.581605e-01 -5.923006e-01 -6.253730e-01 -6.568461e-01 -6.861483e-01 -7.126752e-01 -7.357974e-01 -7.548720e-01 -7.692545e-01 -7.783137e-01 -7.814481e-01 -7.781036e-01 -7.677924e-01 -7.501127e-01 -7.247678e-01 -6.915851e-01 -6.505316e-01 -6.017286e-01 -5.454603e-01 -4.821796e-01 -4.125060e-01 -3.372197e-01 -2.572465e-01 -1.736389e-01 -8.754941e-02 -2.005913e-04 8.714931e-02 1.732420e-01 2.568550e-01 3.368356e-01 4.121312e-01 4.818157e-01 5.451091e-01 6.013914e-01 6.502096e-01 6.912794e-01 7.244791e-01 7.498414e-01 7.675389e-01 7.778681e-01 7.812305e-01 7.781136e-01 7.690715e-01 7.547057e-01 7.356470e-01 7.125398e-01 6.860272e-01 6.567383e-01 6.252776e-01 5.922166e-01 5.580869e-01 5.233753e-01 4.885206e-01 4.539120e-01 4.198881e-01 3.867383e-01 3.547036e-01 3.239793e-01 2.947179e-01 2.670322e-01 2.409993e-01 2.166638e-01 1.940421e-01 1.731261e-01 1.538865e-01 1.362770e-01 1.202370e-01 1.056949e-01 9.257094e-02 8.077940e-02 7.023102e-02 6.083482e-02 5.249967e-02 4.513569e-02 3.865524e-02 3.297388e-02 2.801090e-02 2.368984e-02 1.993871e-02 1.669014e-02 1.388133e-02 1.145396e-02 9.353934e-03 7.531121e-03 5.938939e-03 4.533970e-03 3.275466e-03 2.124873e-03 1.045288e-03 
8.443410e-07 -1.104101e-03 -2.246883e-03 -3.465943e-03 -4.800943e-03 -6.293351e-03 -7.987025e-03 -9.928748e-03 -1.216876e-02 -1.476120e-02 -1.776455e-02 -2.124193e-02 -2.526141e-02 -2.989611e-02 -3.522429e-02 -4.132918e-02 -4.829878e-02 -5.622537e-02 -6.520487e-02 -7.533593e-02 -8.671885e-02 -9.945408e-02 -1.136406e-01 -1.293738e-01 -1.467433e-01 -1.658301e-01 -1.867037e-01 -2.094190e-01 -2.340122e-01 -2.604974e-01 -2.888627e-01 -3.190654e-01 -3.510282e-01 -3.846352e-01 -4.197270e-01 -4.560979e-01 -4.934916e-01 -5.315991e-01 -5.700564e-01 -6.084432e-01 -6.462834e-01 -6.830463e-01 -7.181497e-01 -7.509648e-01 -7.808230e-01 -8.070249e-01 -8.288517e-01 -8.455783e-01 -8.564901e-01 -8.609001e-01 -8.581700e-01 -8.477310e-01 -8.291070e-01 -8.019369e-01 -7.659970e-01 -7.212210e-01 -6.677174e-01 -6.057816e-01 -5.359036e-01 -4.587677e-01 -3.752459e-01 -2.863823e-01 -1.933705e-01 -9.752307e-02 -2.359058e-04 9.705254e-02 1.929038e-01 2.859219e-01 3.747942e-01 4.583269e-01 5.354759e-01 6.053687e-01 6.673210e-01 7.208425e-01 7.656376e-01 8.015974e-01 8.287881e-01 8.474330e-01 8.578930e-01 8.606439e-01 8.562545e-01 8.453627e-01 8.286555e-01 8.068473e-01 7.806630e-01 7.508214e-01 7.180218e-01 6.829328e-01 6.461832e-01 6.083552e-01 5.699794e-01 5.315320e-01 4.934334e-01 4.560476e-01 4.196838e-01 3.845982e-01 3.509967e-01 3.190385e-01 2.888399e-01 2.604782e-01 2.339960e-01 2.094054e-01 1.866924e-01 1.658207e-01 1.467355e-01 1.293674e-01 1.136354e-01 9.944991e-02 8.671556e-02 7.533340e-02 6.520299e-02 5.622405e-02 4.829795e-02 4.132877e-02 3.522425e-02 2.989638e-02 2.526195e-02 2.124270e-02 1.776551e-02 1.476233e-02 1.217002e-02 9.930124e-03 7.988491e-03 6.294890e-03 4.802539e-03 3.467581e-03 2.248549e-03 1.105784e-03 
7.371278e-07 -1.161625e-03 -2.364435e-03 -3.648795e-03 -5.057130e-03 -6.633831e-03 -8.425885e-03 -1.048346e-02 -1.286050e-02 -1.561519e-02 -1.881046e-02 -2.251432e-02 -2.680021e-02 -3.174712e-02 -3.743973e-02 -4.396822e-02 -5.142812e-02 -5.991978e-02 -6.954774e-02 -8.041976e-02 -9.264570e-02 -1.063359e-01 -1.215997e-01 -1.385427e-01 -1.572649e-01 -1.778577e-01 -2.004002e-01 -2.249565e-01 -2.515712e-01 -2.802653e-01 -3.110321e-01 -3.438325e-01 -3.785901e-01 -4.151869e-01 -4.534581e-01 -4.931886e-01 -5.341084e-01 -5.758895e-01 -6.181433e-01 -6.604190e-01 -7.022031e-01 -7.429208e-01 -7.819380e-01 -8.185666e-01 -8.520712e-01 -8.816778e-01 -9.065864e-01 -9.259847e-01 -9.390657e-01 -9.450475e-01 -9.431960e-01 -9.328489e-01 -9.134425e-01 -8.845378e-01 -8.458473e-01 -7.972593e-01 -7.388604e-01 -6.709504e-01 -5.940546e-01 -5.089242e-01 -4.165310e-01 -3.180500e-01 -2.148338e-01 -1.083769e-01 -2.734226e-04 1.078316e-01 2.142930e-01 3.175165e-01 4.160077e-01 5.084136e-01 5.935592e-01 6.704723e-01 7.384015e-01 7.968213e-01 8.454314e-01 8.841451e-01 9.130736e-01 9.325042e-01 9.428756e-01 9.447512e-01 9.387932e-01 9.257353e-01 9.063593e-01 8.814720e-01 8.518856e-01 8.184001e-01 7.817893e-01 7.427886e-01 7.020862e-01 6.603159e-01 6.180529e-01 5.758105e-01 5.340397e-01 4.931290e-01 4.534066e-01 4.151424e-01 3.785519e-01 3.437997e-01 3.110040e-01 2.802413e-01 2.515507e-01 2.249391e-01 2.003854e-01 1.778451e-01 1.572543e-01 1.385337e-01 1.215921e-01 1.063296e-01 9.264046e-02 8.041547e-02 6.954428e-02 5.991704e-02 5.142601e-02 4.396666e-02 3.743866e-02 3.174648e-02 2.679994e-02 2.251438e-02 1.881080e-02 1.561578e-02 1.286129e-02 1.048443e-02 8.426993e-03 6.635056e-03 5.058448e-03 3.650182e-03 2.365871e-03 1.163090e-03 
6.021245e-07 -1.214824e-03 -2.473282e-03 -3.818505e-03 -5.295659e-03 -6.952034e-03 -8.837731e-03 -1.100630e-02 -1.351538e-02 -1.642720e-02 -1.980918e-02 -2.373425e-02 -2.828128e-02 -3.353520e-02 -3.958720e-02 -4.653458e-02 -5.448054e-02 -6.353370e-02 -7.380746e-02 -8.541900e-02 -9.848809e-02 -1.131355e-01 -1.294810e-01 -1.476415e-01 -1.677280e-01 -1.898424e-01 -2.140751e-01 -2.404998e-01 -2.691706e-01 -3.001167e-01 -3.333381e-01 -3.688003e-01 -4.064294e-01 -4.461069e-01 -4.876644e-01 -5.308790e-01 -5.754684e-01 -6.210875e-01 -6.673246e-01 -7.136995e-01 -7.596624e-01 -8.045943e-01 -8.478093e-01 -8.885589e-01 -9.260384e-01 -9.593960e-01 -9.877451e-01 -1.010180e+00 -1.025791e+00 -1.033693e+00 -1.033042e+00 -1.023069e+00 -1.003107e+00 -9.726221e-01 -9.312471e-01 -8.788100e-01 -8.153624e-01 -7.411997e-01 -6.568776e-01 -5.632156e-01 -4.612928e-01 -3.524291e-01 -2.381566e-01 -1.201772e-01 -3.127525e-04 1.195534e-01 2.375380e-01 3.518191e-01 4.606945e-01 5.626320e-01 6.563116e-01 7.406537e-01 8.148386e-01 8.783103e-01 9.307728e-01 9.721744e-01 1.002687e+00 1.022677e+00 1.032678e+00 1.033356e+00 1.025481e+00 1.009896e+00 9.874866e-01 9.591617e-01 9.258270e-01 8.883692e-01 8.476398e-01 8.044434e-01 7.595287e-01 7.135815e-01 6.672209e-01 6.209966e-01 5.753891e-01 5.308099e-01 4.876044e-01 4.460549e-01 4.063845e-01 3.687614e-01 3.333046e-01 3.000878e-01 2.691457e-01 2.404784e-01 2.140566e-01 1.898266e-01 1.677143e-01 1.476298e-01 1.294710e-01 1.131269e-01 9.848075e-02 8.541279e-02 7.380225e-02 6.352937e-02 5.447699e-02 4.653173e-02 3.958498e-02 3.353352e-02 2.828009e-02 2.373350e-02 1.980880e-02 1.642715e-02 1.351561e-02 1.100678e-02 8.838408e-03 6.952877e-03 5.296635e-03 3.819582e-03 2.474431e-03 1.216015e-03 
4.370268e-07 -1.262425e-03 -2.570840e-03 -3.971112e-03 -5.511088e-03 -7.240900e-03 -9.213709e-03 -1.148639e-02 -1.412024e-02 -1.718151e-02 -2.074205e-02 -2.487972e-02 -2.967879e-02 -3.523019e-02 -4.163164e-02 -4.898760e-02 -5.740904e-02 -6.701300e-02 -7.792192e-02 -9.026259e-02 -1.041650e-01 -1.197606e-01 -1.371803e-01 -1.565524e-01 -1.779996e-01 -2.016355e-01 -2.275618e-01 -2.558634e-01 -2.866048e-01 -3.198246e-01 -3.555307e-01 -3.936950e-01 -4.342477e-01 -4.770718e-01 -5.219970e-01 -5.687948e-01 -6.171731e-01 -6.667715e-01 -7.171575e-01 -7.678237e-01 -8.181855e-01 -8.675816e-01 -9.152747e-01 -9.604558e-01 -1.002250e+00 -1.039724e+00 -1.071902e+00 -1.097777e+00 -1.116331e+00 -1.126561e+00 -1.127501e+00 -1.118258e+00 -1.098044e+00 -1.066212e+00 -1.022293e+00 -9.660374e-01 -8.974431e-01 -8.167885e-01 -7.246517e-01 -6.219198e-01 -5.097863e-01 -3.897316e-01 -2.634905e-01 -1.330028e-01 -3.534418e-04 1.322979e-01 2.627915e-01 3.890424e-01 5.091106e-01 6.212611e-01 7.240131e-01 8.161728e-01 8.968529e-01 9.654746e-01 1.021760e+00 1.065708e+00 1.097572e+00 1.117817e+00 1.127092e+00 1.126183e+00 1.115984e+00 1.097459e+00 1.071613e+00 1.039462e+00 1.002013e+00 9.602432e-01 9.150846e-01 8.674123e-01 8.180354e-01 7.676910e-01 7.170407e-01 6.666689e-01 6.170833e-01 5.687165e-01 5.219287e-01 4.770124e-01 4.341962e-01 3.936502e-01 3.554918e-01 3.197908e-01 2.865755e-01 2.558380e-01 2.275396e-01 2.016162e-01 1.779828e-01 1.565378e-01 1.371676e-01 1.197495e-01 1.041554e-01 9.025431e-02 7.791481e-02 6.700694e-02 5.740392e-02 4.898332e-02 4.162813e-02 3.522736e-02 2.967657e-02 2.487803e-02 2.074084e-02 1.718072e-02 1.411982e-02 1.148629e-02 9.213876e-03 7.241289e-03 5.511655e-03 3.971815e-03 2.571638e-03 1.263280e-03 
2.395693e-07 -1.303078e-03 -2.654372e-03 -4.102419e-03 -5.697649e-03 -7.492937e-03 -9.544410e-03 -1.191218e-02 -1.466109e-02 -1.786134e-02 -2.158915e-02 -2.592719e-02 -3.096511e-02 -3.679975e-02 -4.353534e-02 -5.128349e-02 -6.016296e-02 -7.029925e-02 -8.182389e-02 -9.487347e-02 -1.095883e-01 -1.261108e-01 -1.445835e-01 -1.651464e-01 -1.879343e-01 -2.130732e-01 -2.406770e-01 -2.708427e-01 -3.036461e-01 -3.391365e-01 -3.773314e-01 -4.182106e-01 -4.617103e-01 -5.077169e-01 -5.560609e-01 -6.065106e-01 -6.587666e-01 -7.124565e-01 -7.671299e-01 -8.222550e-01 -8.772155e-01 -9.313101e-01 -9.837524e-01 -1.033674e+00 -1.080130e+00 -1.122106e+00 -1.158531e+00 -1.188292e+00 -1.210255e+00 -1.223287e+00 -1.226286e+00 -1.218218e+00 -1.198151e+00 -1.165300e+00 -1.119074e+00 -1.059116e+00 -9.853493e-01 -8.980167e-01 -7.977067e-01 -6.853700e-01 -5.623205e-01 -4.302160e-01 -2.910213e-01 -1.469506e-01 -3.949666e-04 1.461629e-01 2.902405e-01 4.294463e-01 5.615662e-01 6.846349e-01 7.969946e-01 8.973307e-01 9.846921e-01 1.058490e+00 1.118481e+00 1.164742e+00 1.197627e+00 1.217730e+00 1.225833e+00 1.222869e+00 1.209871e+00 1.187941e+00 1.158212e+00 1.121817e+00 1.079869e+00 1.033440e+00 9.835429e-01 9.311234e-01 8.770499e-01 8.221085e-01 7.670008e-01 7.123430e-01 6.586671e-01 6.064235e-01 5.559848e-01 5.076505e-01 4.616524e-01 4.181601e-01 3.772873e-01 3.390980e-01 3.036124e-01 2.708132e-01 2.406512e-01 2.130505e-01 1.879143e-01 1.651288e-01 1.445680e-01 1.260972e-01 1.095764e-01 9.486299e-02 8.181476e-02 7.029132e-02 6.015613e-02 5.127765e-02 4.353041e-02 3.679563e-02 3.096173e-02 2.592446e-02 2.158701e-02 1.785973e-02 1.465993e-02 1.191142e-02 9.543986e-03 7.492795e-03 5.697733e-03 4.102678e-03 2.654753e-03 1.303533e-03 
7.648242e-09 -1.335374e-03 -2.721018e-03 -4.208038e-03 -5.849305e-03 -7.700302e-03 -9.819975e-03 -1.227153e-02 -1.512323e-02 -1.844907e-02 -2.232948e-02 -2.685185e-02 -3.211103e-02 -3.820965e-02 -4.525836e-02 -5.337580e-02 -6.268845e-02 -7.333021e-02 -8.544171e-02 -9.916932e-02 -1.146638e-01 -1.320788e-01 -1.515683e-01 -1.732846e-01 -1.973751e-01 -2.239787e-01 -2.532222e-01 -2.852153e-01 -3.200465e-01 -3.577770e-01 -3.984352e-01 -4.420108e-01 -4.884479e-01 -5.376388e-01 -5.894173e-01 -6.435516e-01 -6.997384e-01 -7.575967e-01 -8.166621e-01 -8.763825e-01 -9.361140e-01 -9.951193e-01 -1.052566e+00 -1.107531e+00 -1.158999e+00 -1.205876e+00 -1.246995e+00 -1.281133e+00 -1.307030e+00 -1.323414e+00 -1.329032e+00 -1.322686e+00 -1.303278e+00 -1.269857e+00 -1.221676e+00 -1.158240e+00 -1.079371e+00 -9.852453e-01 -8.764457e-01 -7.539775e-01 -6.192799e-01 -4.742061e-01 -3.209830e-01 -1.621430e-01 -4.367864e-04 1.612720e-01 3.201197e-01 4.733555e-01 6.184468e-01 7.531662e-01 8.756603e-01 9.844895e-01 1.078647e+00 1.157552e+00 1.221025e+00 1.269245e+00 1.302705e+00 1.322152e+00 1.328538e+00 1.322958e+00 1.306612e+00 1.280751e+00 1.246648e+00 1.205562e+00 1.158716e+00 1.107277e+00 1.052339e+00 9.949168e-01 9.359343e-01 8.762235e-01 8.165219e-01 7.574733e-01 6.996300e-01 6.434566e-01 5.893341e-01 5.375660e-01 4.883841e-01 4.419549e-01 3.983862e-01 3.577340e-01 3.200087e-01 2.851819e-01 2.531927e-01 2.239526e-01 1.973519e-01 1.732640e-01 1.515500e-01 1.320625e-01 1.146494e-01 9.915653e-02 8.543042e-02 7.332029e-02 6.267978e-02 5.336827e-02 4.525187e-02 3.820411e-02 3.210636e-02 2.684796e-02 2.232630e-02 1.844652e-02 1.512124e-02 1.227002e-02 9.818876e-03 7.699547e-03 5.848830e-03 4.207779e-03 2.720912e-03 1.335359e-03 
-2.607180e-07 -1.357863e-03 -2.767837e-03 -4.283451e-03 -5.959839e-03 -7.854905e-03 -1.003023e-02 -1.255192e-02 -1.549146e-02 -1.892644e-02 -2.294129e-02 -2.762791e-02 -3.308615e-02 -3.942425e-02 -4.675903e-02 -5.521600e-02 -6.492917e-02 -7.604067e-02 -8.870012e-02 -1.030636e-01 -1.192923e-01 -1.375509e-01 -1.580053e-01 -1.808201e-01 -2.061555e-01 -2.341639e-01 -2.649854e-01 -2.987436e-01 -3.355402e-01 -3.754499e-01 -4.185134e-01 -4.647320e-01 -5.140601e-01 -5.663984e-01 -6.215867e-01 -6.793969e-01 -7.395255e-01 -8.015871e-01 -8.651084e-01 -9.295217e-01 -9.941614e-01 -1.058259e+00 -1.120944e+00 -1.181239e+00 -1.238068e+00 -1.290256e+00 -1.336543e+00 -1.375592e+00 -1.406014e+00 -1.426385e+00 -1.435284e+00 -1.431329e+00 -1.413228e+00 -1.379830e+00 -1.330192e+00 -1.263645e+00 -1.179861e+00 -1.078922e+00 -9.613744e-01 -8.282636e-01 -6.811551e-01 -5.221171e-01 -3.536763e-01 -1.787378e-01 -4.783507e-04 1.777840e-01 3.527312e-01 5.211863e-01 6.802440e-01 8.273772e-01 9.605173e-01 1.078099e+00 1.179074e+00 1.262897e+00 1.329486e+00 1.379167e+00 1.412609e+00 1.430754e+00 1.434751e+00 1.425895e+00 1.405565e+00 1.375183e+00 1.336171e+00 1.289920e+00 1.237765e+00 1.180968e+00 1.120701e+00 1.058043e+00 9.939697e-01 9.293521e-01 8.649586e-01 8.014552e-01 7.394095e-01 6.792951e-01 6.214974e-01 5.663200e-01 5.139912e-01 4.646715e-01 4.184601e-01 3.754028e-01 3.354986e-01 2.987065e-01 2.649524e-01 2.341345e-01 2.061292e-01 1.807965e-01 1.579841e-01 1.375319e-01 1.192753e-01 1.030484e-01 8.868658e-02 7.602864e-02 6.491853e-02 5.520665e-02 4.675087e-02 3.941718e-02 3.308008e-02 2.762275e-02 2.293696e-02 1.892285e-02 1.548853e-02 1.254957e-02 1.002836e-02 7.853454e-03 5.958725e-03 4.282597e-03 2.767168e-03 1.357305e-03 
-5.673022e-07 -1.369075e-03 -2.791844e-03 -4.324075e-03 -6.022937e-03 -7.948527e-03 -1.016482e-02 -1.274059e-02 -1.575027e-02 -1.927479e-02 -2.340233e-02 -2.822899e-02 -3.385936e-02 -4.040696e-02 -4.799453e-02 -5.675412e-02 -6.682701e-02 -7.836330e-02 -9.152133e-02 -1.064666e-01 -1.233707e-01 -1.424092e-01 -1.637598e-01 -1.875994e-01 -2.141015e-01 -2.434317e-01 -2.757445e-01 -3.111776e-01 -3.498473e-01 -3.918424e-01 -4.372177e-01 -4.859880e-01 -5.381200e-01 -5.935256e-01 -6.520542e-01 -7.134846e-01 -7.775177e-01 -8.437691e-01 -9.117616e-01 -9.809192e-01 -1.050561e+00 -1.119895e+00 -1.188018e+00 -1.253910e+00 -1.316436e+00 -1.374351e+00 -1.426302e+00 -1.470842e+00 -1.506445e+00 -1.531529e+00 -1.544491e+00 -1.543739e+00 -1.527755e+00 -1.495149e+00 -1.444735e+00 -1.375615e+00 -1.287265e+00 -1.179616e+00 -1.053141e+00 -9.088999e-01 -7.485819e-01 -5.744894e-01 -3.894943e-01 -1.969416e-01 -5.191891e-04 1.959065e-01 3.884689e-01 5.734802e-01 7.475948e-01 9.079407e-01 1.052214e+00 1.178727e+00 1.286417e+00 1.374812e+00 1.443978e+00 1.494439e+00 1.527094e+00 1.543126e+00 1.543925e+00 1.531010e+00 1.505970e+00 1.470410e+00 1.425910e+00 1.373998e+00 1.316118e+00 1.253625e+00 1.187763e+00 1.119668e+00 1.050360e+00 9.807413e-01 9.116046e-01 8.436307e-01 7.773959e-01 7.133774e-01 6.519600e-01 5.934428e-01 5.380470e-01 4.859235e-01 4.371607e-01 3.917917e-01 3.498023e-01 3.111374e-01 2.757084e-01 2.433993e-01 2.140722e-01 1.875730e-01 1.637358e-01 1.423876e-01 1.233512e-01 1.064490e-01 9.150545e-02 7.834907e-02 6.681431e-02 5.674284e-02 4.798458e-02 4.039824e-02 3.385177e-02 2.822244e-02 2.339674e-02 1.927005e-02 1.574630e-02 1.273729e-02 1.016210e-02 7.946293e-03 6.021100e-03 4.322545e-03 2.790534e-03 1.367897e-03 
-9.136680e-07 -1.367545e-03 -2.790062e-03 -4.325335e-03 -6.032297e-03 -7.972958e-03 -1.021340e-02 -1.282476e-02 -1.588412e-02 -1.947542e-02 -2.369024e-02 -2.862854e-02 -3.439927e-02 -4.112086e-02 -4.892157e-02 -5.793961e-02 -6.832311e-02 -8.022975e-02 -9.382622e-02 -1.092872e-01 -1.267941e-01 -1.465332e-01 -1.686939e-01 -1.934654e-01 -2.210341e-01 -2.515796e-01 -2.852704e-01 -3.222592e-01 -3.626775e-01 -4.066294e-01 -4.541852e-01 -5.053748e-01 -5.601797e-01 -6.185258e-01 -6.802752e-01 -7.452181e-01 -8.130645e-01 -8.834364e-01 -9.558600e-01 -1.029758e+00 -1.104441e+00 -1.179106e+00 -1.252826e+00 -1.324548e+00 -1.393090e+00 -1.457143e+00 -1.515271e+00 -1.565921e+00 -1.607431e+00 -1.638056e+00 -1.655993e+00 -1.659421e+00 -1.646558e+00 -1.615727e+00 -1.565445e+00 -1.494517e+00 -1.402149e+00 -1.288059e+00 -1.152584e+00 -9.967641e-01 -8.223957e-01 -6.320366e-01 -4.289575e-01 -2.170289e-01 -5.589303e-04 2.159147e-01 4.278543e-01 6.309515e-01 8.213354e-01 9.957351e-01 1.151592e+00 1.287109e+00 1.401245e+00 1.493662e+00 1.564642e+00 1.614977e+00 1.645861e+00 1.658777e+00 1.655401e+00 1.637514e+00 1.606937e+00 1.565472e+00 1.514865e+00 1.456777e+00 1.392761e+00 1.324254e+00 1.252564e+00 1.178873e+00 1.104234e+00 1.029574e+00 9.556983e-01 8.832939e-01 8.129389e-01 7.451075e-01 6.801778e-01 6.184399e-01 5.601038e-01 5.053075e-01 4.541254e-01 4.065759e-01 3.626296e-01 3.222162e-01 2.852315e-01 2.515443e-01 2.210021e-01 1.934362e-01 1.686673e-01 1.465089e-01 1.267719e-01 1.092670e-01 9.380795e-02 8.021323e-02 6.830824e-02 5.792630e-02 4.890972e-02 4.111037e-02 3.439005e-02 2.862049e-02 2.368327e-02 1.946943e-02 1.587901e-02 1.282042e-02 1.020973e-02 7.969849e-03 6.029650e-03 4.323047e-03 2.788030e-03 1.365666e-03 
-1.301136e-06 -1.351837e-03 -2.759578e-03 -4.282751e-03 -5.981737e-03 -7.920134e-03 -1.016580e-02 -1.279186e-02 -1.587770e-02 -1.950986e-02 -2.378293e-02 -2.880028e-02 -3.467478e-02 -4.152930e-02 -4.949713e-02 -5.872212e-02 -6.935876e-02 -8.157177e-02 -9.553569e-02 -1.114338e-01 -1.294570e-01 -1.498020e-01 -1.726690e-01 -1.982596e-01 -2.267730e-01 -2.584023e-01 -2.933306e-01 -3.317258e-01 -3.737350e-01 -4.194787e-01 -4.690439e-01 -5.224774e-01 -5.797775e-01 -6.408870e-01 -7.056842e-01 -7.739749e-01 -8.454835e-01 -9.198449e-01 -9.965954e-01 -1.075165e+00 -1.154869e+00 -1.234899e+00 -1.314320e+00 -1.392059e+00 -1.466902e+00 -1.537489e+00 -1.602314e+00 -1.659727e+00 -1.707939e+00 -1.745038e+00 -1.769010e+00 -1.777782e+00 -1.769272e+00 -1.741462e+00 -1.692500e+00 -1.620812e+00 -1.525243e+00 -1.405200e+00 -1.260804e+00 -1.093011e+00 -9.037033e-01 -6.957088e-01 -4.727619e-01 -2.393673e-01 -5.974429e-04 2.381765e-01 4.715834e-01 6.945505e-01 9.025729e-01 1.091916e+00 1.259750e+00 1.404193e+00 1.524287e+00 1.619912e+00 1.691658e+00 1.740678e+00 1.768546e+00 1.777114e+00 1.768398e+00 1.744480e+00 1.707433e+00 1.659269e+00 1.601901e+00 1.537117e+00 1.466569e+00 1.391762e+00 1.314056e+00 1.234664e+00 1.154660e+00 1.074980e+00 9.964324e-01 9.197011e-01 8.453568e-01 7.738631e-01 7.055855e-01 6.407997e-01 5.797001e-01 5.224084e-01 4.689823e-01 4.194233e-01 3.736850e-01 3.316805e-01 2.932894e-01 2.583646e-01 2.267384e-01 1.982279e-01 1.726398e-01 1.497751e-01 1.294323e-01 1.114112e-01 9.551499e-02 8.155292e-02 6.934165e-02 5.870668e-02 4.948327e-02 4.151694e-02 3.466382e-02 2.879062e-02 2.377448e-02 1.950251e-02 1.587134e-02 1.278638e-02 1.016108e-02 7.916059e-03 5.978192e-03 4.279618e-03 2.756740e-03 1.349176e-03 
-1.730731e-06 -1.320576e-03 -2.697596e-03 -4.192022e-03 -5.865321e-03 -7.782305e-03 -1.001222e-02 -1.262978e-02 -1.571622e-02 -1.936026e-02 -2.365900e-02 -2.871874e-02 -3.465571e-02 -4.159665e-02 -4.967930e-02 -5.905255e-02 -6.987659e-02 -8.232257e-02 -9.657219e-02 -1.128167e-01 -1.312559e-01 -1.520960e-01 -1.755482e-01 -2.018253e-01 -2.311390e-01 -2.636960e-01 -2.996938e-01 -3.393154e-01 -3.827241e-01 -4.300574e-01 -4.814201e-01 -5.368771e-01 -5.964461e-01 -6.600890e-01 -7.277041e-01 -7.991169e-01 -8.740718e-01 -9.522228e-01 -1.033125e+00 -1.116225e+00 -1.200853e+00 -1.286212e+00 -1.371371e+00 -1.455254e+00 -1.536633e+00 -1.614119e+00 -1.686154e+00 -1.751008e+00 -1.806776e+00 -1.851387e+00 -1.882613e+00 -1.898108e+00 -1.895451e+00 -1.872225e+00 -1.826124e+00 -1.755089e+00 -1.657480e+00 -1.532268e+00 -1.379239e+00 -1.199171e+00 -9.939812e-01 -7.667811e-01 -5.218455e-01 -2.644542e-01 -6.348608e-04 2.631891e-01 5.205940e-01 7.655523e-01 9.927836e-01 1.198013e+00 1.378128e+00 1.531210e+00 1.656480e+00 1.754150e+00 1.825250e+00 1.871416e+00 1.894706e+00 1.897426e+00 1.881992e+00 1.850823e+00 1.806267e+00 1.750549e+00 1.685742e+00 1.613749e+00 1.536303e+00 1.454960e+00 1.371109e+00 1.285980e+00 1.200648e+00 1.116044e+00 1.032965e+00 9.520812e-01 8.739467e-01 7.990064e-01 7.276063e-01 6.600022e-01 5.963688e-01 5.368079e-01 4.813579e-01 4.300012e-01 3.826730e-01 3.392686e-01 2.996508e-01 2.636564e-01 2.311023e-01 2.017912e-01 1.755166e-01 1.520667e-01 1.312287e-01 1.127916e-01 9.654904e-02 8.230133e-02 6.985718e-02 5.903491e-02 4.966335e-02 4.158232e-02 3.464290e-02 2.870737e-02 2.364897e-02 1.935145e-02 1.570851e-02 1.262305e-02 1.000635e-02 7.777172e-03 5.860788e-03 4.187957e-03 2.693867e-03 1.317047e-03 
-2.203216e-06 -1.272475e-03 -2.601501e-03 -4.049120e-03 -5.677484e-03 -7.552197e-03 -9.743448e-03 -1.232710e-02 -1.538576e-02 -1.900978e-02 -2.329823e-02 -2.835976e-02 -3.431336e-02 -4.128899e-02 -4.942812e-02 -5.888399e-02 -6.982171e-02 -8.241811e-02 -9.686124e-02 -1.133496e-01 -1.320908e-01 -1.533003e-01 -1.771990e-01 -2.040105e-01 -2.339586e-01 -2.672628e-01 -3.041346e-01 -3.447722e-01 -3.893553e-01 -4.380385e-01 -4.909453e-01 -5.481602e-01 -6.097217e-01 -6.756135e-01 -7.457571e-01 -8.200020e-01 -8.981180e-01 -9.797852e-01 -1.064585e+00 -1.151993e+00 -1.241364e+00 -1.331929e+00 -1.422779e+00 -1.512855e+00 -1.600939e+00 -1.685637e+00 -1.765366e+00 -1.838343e+00 -1.902572e+00 -1.955835e+00 -1.995700e+00 -2.019533e+00 -2.024542e+00 -2.007844e+00 -1.966582e+00 -1.898079e+00 -1.800054e+00 -1.670862e+00 -1.509782e+00 -1.317275e+00 -1.095209e+00 -8.469750e-01 -5.774812e-01 -2.929665e-01 -6.717858e-04 2.916280e-01 5.761579e-01 8.456770e-01 1.093946e+00 1.316056e+00 1.508616e+00 1.669756e+00 1.799013e+00 1.897109e+00 1.965683e+00 2.007018e+00 2.023787e+00 2.018847e+00 1.995080e+00 1.955276e+00 1.902070e+00 1.837894e+00 1.764964e+00 1.685279e+00 1.600620e+00 1.512572e+00 1.422527e+00 1.331707e+00 1.241167e+00 1.151819e+00 1.064432e+00 9.796494e-01 8.979980e-01 8.198958e-01 7.456628e-01 6.755295e-01 6.096464e-01 5.480924e-01 4.908839e-01 4.379825e-01 3.893038e-01 3.447247e-01 3.040904e-01 2.672216e-01 2.339201e-01 2.039745e-01 1.771652e-01 1.532687e-01 1.320613e-01 1.133220e-01 9.683567e-02 8.239447e-02 6.979996e-02 5.886407e-02 4.941000e-02 4.127259e-02 3.429861e-02 2.834658e-02 2.328651e-02 1.899940e-02 1.537660e-02 1.231903e-02 9.736343e-03 7.545911e-03 5.671871e-03 4.044034e-03 2.596792e-03 1.267993e-03 