# vtk DataFile Version 2.0
Comment goes here
ASCII

DATASET STRUCTURED_POINTS
DIMENSIONS    128   128   1

ORIGIN    0.000   0.000   0.000
SPACING   0.00781250.0078125   1.000

POINT_DATA   16384
SCALARS Omega double
LOOKUP_TABLE default

-1.439742e-06 -4.646040e-03 -9.332146e-03 -1.410109e-02 -1.899388e-02 -2.405098e-02 -2.931216e-02 -3.481626e-02 -4.060099e-02 -4.670264e-02 -5.315585e-02 -5.999328e-02 -6.724529e-02 -7.493957e-02 -8.310078e-02 -9.175011e-02 -1.009049e-01 -1.105779e-01 -1.207774e-01 -1.315061e-01 -1.427608e-01 -1.545321e-01 -1.668037e-01 -1.795518e-01 -1.927449e-01 -2.063433e-01 -2.202986e-01 -2.345531e-01 -2.490404e-01 -2.636842e-01 -2.783988e-01 -2.930890e-01 -3.076500e-01 -3.219679e-01 -3.359202e-01 -3.493760e-01 -3.621968e-01 -3.742378e-01 -3.853483e-01 -3.953738e-01 -4.041565e-01 -4.115379e-01 -4.173602e-01 -4.214683e-01 -4.237125e-01 -4.239505e-01 -4.220502e-01 -4.178925e-01 -4.113741e-01 -4.024104e-01 -3.909382e-01 -3.769187e-01 -3.603401e-01 -3.412196e-01 -3.196058e-01 -2.955799e-01 -2.692568e-01 -2.407847e-01 -2.103454e-01 -1.781519e-01 -1.444465e-01 -1.094978e-01 -7.359613e-02 -3.704899e-02 -1.757730e-04 3.669816e-02 7.324741e-02 1.091526e-01 1.441062e-01 1.778176e-01 2.100185e-01 2.404664e-01 2.689480e-01 2.952817e-01 3.193189e-01 3.409448e-01 3.600779e-01 3.766697e-01 3.907027e-01 4.021886e-01 4.111661e-01 4.176983e-01 4.218696e-01 4.237833e-01 4.235584e-01 4.213269e-01 4.172309e-01 4.114202e-01 4.040498e-01 3.952775e-01 3.852618e-01 3.741603e-01 3.621277e-01 3.493146e-01 3.358659e-01 3.219199e-01 3.076078e-01 2.930520e-01 2.783664e-01 2.636559e-01 2.490158e-01 2.345317e-01 2.202799e-01 2.063271e-01 1.927308e-01 1.795395e-01 1.667929e-01 1.545227e-01 1.427525e-01 1.314988e-01 1.207709e-01 1.105720e-01 1.008995e-01 9.174525e-02 8.309630e-02 7.493541e-02 6.724140e-02 5.998961e-02 5.315235e-02 4.669928e-02 4.059775e-02 3.481312e-02 2.930909e-02 2.404797e-02 1.899092e-02 1.409817e-02 9.329248e-03 4.643155e-03 
-1.653576e-06 -4.843836e-03 -9.729769e-03 -1.470303e-02 -1.980685e-02 -2.508395e-02 -3.057629e-02 -3.632493e-02 -4.236975e-02 -4.874920e-02 -5.550003e-02 -6.265695e-02 -7.025233e-02 -7.831580e-02 -8.687383e-02 -9.594936e-02 -1.055613e-01 -1.157239e-01 -1.264466e-01 -1.377332e-01 -1.495814e-01 -1.619822e-01 -1.749195e-01 -1.883696e-01 -2.023005e-01 -2.166714e-01 -2.314327e-01 -2.465249e-01 -2.618791e-01 -2.774162e-01 -2.930469e-01 -3.086717e-01 -3.241811e-01 -3.394555e-01 -3.543660e-01 -3.687745e-01 -3.825349e-01 -3.954933e-01 -4.074899e-01 -4.183594e-01 -4.279333e-01 -4.360412e-01 -4.425128e-01 -4.471799e-01 -4.498792e-01 -4.504547e-01 -4.487604e-01 -4.446633e-01 -4.380466e-01 -4.288131e-01 -4.168880e-01 -4.022225e-01 -3.847966e-01 -3.646219e-01 -3.417442e-01 -3.162453e-01 -2.882441e-01 -2.578974e-01 -2.253990e-01 -1.909786e-01 -1.548993e-01 -1.174537e-01 -7.895994e-02 -3.975565e-02 -1.922545e-04 3.937192e-02 7.857855e-02 1.170762e-01 1.545271e-01 1.906132e-01 2.250417e-01 2.575495e-01 2.879068e-01 3.159196e-01 3.414310e-01 3.643221e-01 3.845108e-01 4.019512e-01 4.166316e-01 4.285719e-01 4.378206e-01 4.444524e-01 4.485646e-01 4.502737e-01 4.497126e-01 4.470272e-01 4.423735e-01 4.359147e-01 4.278189e-01 4.182563e-01 4.073974e-01 3.954107e-01 3.824614e-01 3.687094e-01 3.543085e-01 3.394049e-01 3.241367e-01 3.086330e-01 2.930131e-01 2.773868e-01 2.618536e-01 2.465027e-01 2.314134e-01 2.166547e-01 2.022860e-01 1.883570e-01 1.749085e-01 1.619725e-01 1.495728e-01 1.377256e-01 1.264398e-01 1.157178e-01 1.055557e-01 9.594422e-02 8.686907e-02 7.831133e-02 7.024811e-02 6.265293e-02 5.549617e-02 4.874548e-02 4.236613e-02 3.632140e-02 3.057282e-02 2.508053e-02 1.980348e-02 1.469969e-02 9.726446e-03 4.840525e-03 
-1.876872e-06 -5.033912e-03 -1.011194e-02 -1.528176e-02 -2.058886e-02 -2.607816e-02 -3.179387e-02 -3.777925e-02 -4.407636e-02 -5.072583e-02 -5.776654e-02 -6.523531e-02 -7.316654e-02 -8.159184e-02 -9.053959e-02 -1.000345e-01 -1.100972e-01 -1.207434e-01 -1.319841e-01 -1.438240e-01 -1.562619e-01 -1.692896e-01 -1.828913e-01 -1.970433e-01 -2.117135e-01 -2.268603e-01 -2.424330e-01 -2.583706e-01 -2.746020e-01 -2.910454e-01 -3.076081e-01 -3.241869e-01 -3.406674e-01 -3.569249e-01 -3.728241e-01 -3.882201e-01 -4.029589e-01 -4.168781e-01 -4.298081e-01 -4.415735e-01 -4.519944e-01 -4.608881e-01 -4.680713e-01 -4.733623e-01 -4.765833e-01 -4.775634e-01 -4.761413e-01 -4.721688e-01 -4.655141e-01 -4.560652e-01 -4.437338e-01 -4.284590e-01 -4.102106e-01 -3.889927e-01 -3.648463e-01 -3.378523e-01 -3.081330e-01 -2.758525e-01 -2.412174e-01 -2.044747e-01 -1.659095e-01 -1.258411e-01 -8.461809e-02 -4.261173e-02 -2.092243e-04 4.219414e-02 8.420307e-02 1.254304e-01 1.655046e-01 2.040773e-01 2.408289e-01 2.754744e-01 3.077664e-01 3.374986e-01 3.645063e-01 3.886673e-01 4.099007e-01 4.281651e-01 4.434562e-01 4.558042e-01 4.652699e-01 4.719413e-01 4.759303e-01 4.773687e-01 4.764044e-01 4.731986e-01 4.679223e-01 4.607530e-01 4.518725e-01 4.414640e-01 4.297102e-01 4.167909e-01 4.028816e-01 3.881518e-01 3.727640e-01 3.568722e-01 3.406214e-01 3.241469e-01 3.075734e-01 2.910152e-01 2.745759e-01 2.583481e-01 2.424135e-01 2.268435e-01 2.116989e-01 1.970307e-01 1.828802e-01 1.692799e-01 1.562534e-01 1.438164e-01 1.319772e-01 1.207372e-01 1.100914e-01 1.000292e-01 9.053462e-02 8.158714e-02 7.316205e-02 6.523099e-02 5.776236e-02 5.072176e-02 4.407237e-02 3.777532e-02 3.179000e-02 2.607433e-02 2.058506e-02 1.527798e-02 1.010817e-02 5.030155e-03 
-2.108081e-06 -5.214422e-03 -1.047494e-02 -1.583169e-02 -2.133237e-02 -2.702411e-02 -3.295334e-02 -3.916550e-02 -4.570487e-02 -5.261423e-02 -5.993462e-02 -6.770498e-02 -7.596178e-02 -8.473866e-02 -9.406595e-02 -1.039702e-01 -1.144738e-01 -1.255943e-01 -1.373438e-01 -1.497287e-01 -1.627486e-01 -1.763963e-01 -1.906565e-01 -2.055060e-01 -2.209124e-01 -2.368339e-01 -2.532187e-01 -2.700047e-01 -2.871189e-01 -3.044770e-01 -3.219835e-01 -3.395315e-01 -3.570022e-01 -3.742659e-01 -3.911814e-01 -4.075973e-01 -4.233518e-01 -4.382741e-01 -4.521852e-01 -4.648993e-01 -4.762249e-01 -4.859672e-01 -4.939293e-01 -4.999152e-01 -5.037318e-01 -5.051924e-01 -5.041190e-01 -5.003466e-01 -4.937263e-01 -4.841295e-01 -4.714520e-01 -4.556183e-01 -4.365855e-01 -4.143474e-01 -3.889384e-01 -3.604363e-01 -3.289650e-01 -2.946958e-01 -2.578472e-01 -2.186846e-01 -1.775168e-01 -1.346923e-01 -9.059335e-02 -4.562893e-02 -2.265859e-04 4.517670e-02 9.014392e-02 1.342475e-01 1.770785e-01 2.182544e-01 2.574268e-01 2.942867e-01 3.285686e-01 3.600539e-01 3.885710e-01 4.139961e-01 4.362511e-01 4.553014e-01 4.711531e-01 4.838487e-01 4.934638e-01 5.001025e-01 5.038930e-01 5.049841e-01 5.035408e-01 4.997408e-01 4.937709e-01 4.858240e-01 4.760961e-01 4.647839e-01 4.520824e-01 4.381828e-01 4.232712e-01 4.075264e-01 3.911194e-01 3.742117e-01 3.569552e-01 3.394907e-01 3.219484e-01 3.044467e-01 2.870928e-01 2.699823e-01 2.531995e-01 2.368173e-01 2.208981e-01 2.054936e-01 1.906457e-01 1.763868e-01 1.627402e-01 1.497212e-01 1.373371e-01 1.255881e-01 1.144681e-01 1.039649e-01 9.406087e-02 8.473379e-02 7.595708e-02 6.770041e-02 5.993015e-02 5.260983e-02 4.570052e-02 3.916120e-02 3.294906e-02 2.701986e-02 2.132813e-02 1.582747e-02 1.047072e-02 5.210204e-03 
-2.345644e-06 -5.383447e-03 -1.081493e-02 -1.634701e-02 -2.202956e-02 -2.791190e-02 -3.404264e-02 -4.046940e-02 -4.723863e-02 -5.439529e-02 -6.198256e-02 -7.004151e-02 -7.861072e-02 -8.772587e-02 -9.741930e-02 -1.077195e-01 -1.186507e-01 -1.302321e-01 -1.424775e-01 -1.553946e-01 -1.689844e-01 -1.832407e-01 -1.981491e-01 -2.136867e-01 -2.298213e-01 -2.465112e-01 -2.637038e-01 -2.813361e-01 -2.993335e-01 -3.176098e-01 -3.360669e-01 -3.545945e-01 -3.730701e-01 -3.913591e-01 -4.093151e-01 -4.267802e-01 -4.435855e-01 -4.595519e-01 -4.744913e-01 -4.882076e-01 -5.004979e-01 -5.111549e-01 -5.199679e-01 -5.267261e-01 -5.312205e-01 -5.332471e-01 -5.326103e-01 -5.291262e-01 -5.226269e-01 -5.129649e-01 -5.000173e-01 -4.836910e-01 -4.639274e-01 -4.407070e-01 -4.140544e-01 -3.840420e-01 -3.507932e-01 -3.144848e-01 -2.753473e-01 -2.336648e-01 -1.897716e-01 -1.440482e-01 -9.691452e-02 -4.882211e-02 -2.442207e-04 4.833469e-02 9.643015e-02 1.435688e-01 1.892993e-01 2.332013e-01 2.748945e-01 3.140443e-01 3.503666e-01 3.836306e-01 4.136594e-01 4.403295e-01 4.635683e-01 4.833511e-01 4.996970e-01 5.126644e-01 5.223465e-01 5.288657e-01 5.323695e-01 5.330257e-01 5.310178e-01 5.265416e-01 5.198007e-01 5.110042e-01 5.003628e-01 4.880870e-01 4.743843e-01 4.594574e-01 4.435024e-01 4.267075e-01 4.092518e-01 3.913042e-01 3.730227e-01 3.545537e-01 3.360319e-01 3.175799e-01 2.993079e-01 2.813143e-01 2.636852e-01 2.464953e-01 2.298077e-01 2.136749e-01 1.981389e-01 1.832318e-01 1.689765e-01 1.553875e-01 1.424710e-01 1.302261e-01 1.186451e-01 1.077142e-01 9.741421e-02 8.772093e-02 7.860589e-02 7.003675e-02 6.197784e-02 5.439060e-02 4.723395e-02 4.046473e-02 3.403796e-02 2.790723e-02 2.202488e-02 1.634233e-02 1.081024e-02 5.378757e-03 
-2.587806e-06 -5.539013e-03 -1.112795e-02 -1.682174e-02 -2.267238e-02 -2.873134e-02 -3.504936e-02 -4.167622e-02 -4.866050e-02 -5.604930e-02 -6.388796e-02 -7.221966e-02 -8.108509e-02 -9.052201e-02 -1.005648e-01 -1.112439e-01 -1.225855e-01 -1.346105e-01 -1.473346e-01 -1.607669e-01 -1.749100e-01 -1.897587e-01 -2.052997e-01 -2.215109e-01 -2.383606e-01 -2.558069e-01 -2.737974e-01 -2.922682e-01 -3.111437e-01 -3.303361e-01 -3.497451e-01 -3.692575e-01 -3.887476e-01 -4.080766e-01 -4.270930e-01 -4.456331e-01 -4.635213e-01 -4.805710e-01 -4.965850e-01 -5.113573e-01 -5.246739e-01 -5.363148e-01 -5.460557e-01 -5.536703e-01 -5.589332e-01 -5.616221e-01 -5.615222e-01 -5.584291e-01 -5.521537e-01 -5.425266e-01 -5.294033e-01 -5.126695e-01 -4.922473e-01 -4.681001e-01 -4.402389e-01 -4.087272e-01 -3.736852e-01 -3.352932e-01 -2.937928e-01 -2.494871e-01 -2.027379e-01 -1.539609e-01 -1.036185e-01 -5.221028e-02 -2.619923e-04 5.168740e-02 1.030989e-01 1.534468e-01 2.022314e-01 2.489902e-01 2.933074e-01 3.348211e-01 3.732282e-01 4.082867e-01 4.398163e-01 4.676965e-01 4.918636e-01 5.123066e-01 5.290616e-01 5.422066e-01 5.518554e-01 5.581525e-01 5.612671e-01 5.613880e-01 5.587195e-01 5.534763e-01 5.458804e-01 5.361574e-01 5.245333e-01 5.112324e-01 4.964746e-01 4.804740e-01 4.634365e-01 4.455594e-01 4.270292e-01 4.080217e-01 3.887006e-01 3.692175e-01 3.497110e-01 3.303073e-01 3.111194e-01 2.922477e-01 2.737801e-01 2.557923e-01 2.383481e-01 2.215003e-01 2.052905e-01 1.897507e-01 1.749029e-01 1.607605e-01 1.473287e-01 1.346050e-01 1.225802e-01 1.112388e-01 1.005598e-01 9.051710e-02 8.108021e-02 7.221478e-02 6.388306e-02 5.604437e-02 4.865552e-02 4.167120e-02 3.504430e-02 2.872625e-02 2.266726e-02 1.681659e-02 1.112279e-02 5.533841e-03 
-2.832857e-06 -5.679109e-03 -1.140995e-02 -1.724976e-02 -2.325260e-02 -2.947202e-02 -3.596084e-02 -4.277092e-02 -4.995294e-02 -5.755613e-02 -6.562791e-02 -7.421358e-02 -8.335593e-02 -9.309481e-02 -1.034666e-01 -1.145039e-01 -1.262348e-01 -1.386821e-01 -1.518632e-01 -1.657892e-01 -1.804639e-01 -1.958838e-01 -2.120366e-01 -2.289014e-01 -2.464471e-01 -2.646323e-01 -2.834048e-01 -3.027003e-01 -3.224426e-01 -3.425428e-01 -3.628988e-01 -3.833955e-01 -4.039040e-01 -4.242820e-01 -4.443738e-01 -4.640106e-01 -4.830105e-01 -5.011798e-01 -5.183132e-01 -5.341950e-01 -5.486007e-01 -5.612978e-01 -5.720484e-01 -5.806106e-01 -5.867417e-01 -5.902007e-01 -5.907518e-01 -5.881686e-01 -5.822382e-01 -5.727663e-01 -5.595831e-01 -5.425494e-01 -5.215630e-01 -4.965658e-01 -4.675503e-01 -4.345667e-01 -3.977281e-01 -3.572154e-01 -3.132799e-01 -2.662438e-01 -2.164981e-01 -1.644976e-01 -1.107525e-01 -5.581787e-02 -2.797410e-04 5.525958e-02 1.101978e-01 1.639488e-01 2.159574e-01 2.657135e-01 3.127620e-01 3.567119e-01 3.972408e-01 4.340973e-01 4.671002e-01 4.961362e-01 5.211551e-01 5.421639e-01 5.592206e-01 5.724272e-01 5.819227e-01 5.878767e-01 5.904831e-01 5.899546e-01 5.865177e-01 5.804079e-01 5.718660e-01 5.611347e-01 5.484556e-01 5.340668e-01 5.182005e-01 5.010814e-01 4.829251e-01 4.639369e-01 4.443106e-01 4.242281e-01 4.038583e-01 3.833570e-01 3.628666e-01 3.425159e-01 3.224202e-01 3.026817e-01 2.833893e-01 2.646195e-01 2.464363e-01 2.288923e-01 2.120289e-01 1.958770e-01 1.804579e-01 1.657837e-01 1.518581e-01 1.386772e-01 1.262300e-01 1.144993e-01 1.034620e-01 9.309007e-02 8.335111e-02 7.420866e-02 6.562288e-02 5.755100e-02 4.994771e-02 4.276558e-02 3.595542e-02 2.946653e-02 2.324705e-02 1.724416e-02 1.140431e-02 5.673450e-03 
-3.078899e-06 -5.801704e-03 -1.165686e-02 -1.762493e-02 -2.376195e-02 -3.012346e-02 -3.676428e-02 -4.373831e-02 -5.109825e-02 -5.889539e-02 -6.717920e-02 -7.599707e-02 -8.539387e-02 -9.541153e-02 -1.060885e-01 -1.174595e-01 -1.295544e-01 -1.423983e-01 -1.560104e-01 -1.704035e-01 -1.855832e-01 -2.015477e-01 -2.182861e-01 -2.357786e-01 -2.539953e-01 -2.728956e-01 -2.924277e-01 -3.125276e-01 -3.331188e-01 -3.541119e-01 -3.754036e-01 -3.968772e-01 -4.184017e-01 -4.398319e-01 -4.610086e-01 -4.817584e-01 -5.018944e-01 -5.212163e-01 -5.395115e-01 -5.565557e-01 -5.721138e-01 -5.859420e-01 -5.977885e-01 -6.073963e-01 -6.145051e-01 -6.188541e-01 -6.201858e-01 -6.182494e-01 -6.128057e-01 -6.036325e-01 -5.905306e-01 -5.733308e-01 -5.519014e-01 -5.261567e-01 -4.960650e-01 -4.616570e-01 -4.230339e-01 -3.803729e-01 -3.339325e-01 -2.840536e-01 -2.311584e-01 -1.757449e-01 -1.183780e-01 -5.967653e-02 -2.972913e-04 5.908322e-02 1.177885e-01 1.751618e-01 2.305840e-01 2.834903e-01 3.333825e-01 3.798384e-01 4.225167e-01 4.611591e-01 4.955878e-01 5.257016e-01 5.514696e-01 5.729232e-01 5.901479e-01 6.032751e-01 6.124737e-01 6.179428e-01 6.199042e-01 6.185971e-01 6.142718e-01 6.071860e-01 5.976000e-01 5.857741e-01 5.719653e-01 5.564252e-01 5.393977e-01 5.211176e-01 5.018095e-01 4.816859e-01 4.609471e-01 4.397801e-01 4.183584e-01 3.968413e-01 3.753740e-01 3.540877e-01 3.330992e-01 3.125117e-01 2.924149e-01 2.728852e-01 2.539868e-01 2.357716e-01 2.182802e-01 2.015426e-01 1.855788e-01 1.703993e-01 1.560064e-01 1.423944e-01 1.295505e-01 1.174554e-01 1.060843e-01 9.540709e-02 8.538923e-02 7.599221e-02 6.717413e-02 5.889012e-02 5.109281e-02 4.373269e-02 3.675852e-02 3.011758e-02 2.375597e-02 1.761887e-02 1.165075e-02 5.795557e-03 
-3.324150e-06 -5.904774e-03 -1.186461e-02 -1.794109e-02 -2.419213e-02 -3.067516e-02 -3.744690e-02 -4.456319e-02 -5.207870e-02 -6.004667e-02 -6.851859e-02 -7.754387e-02 -8.716944e-02 -9.743927e-02 -1.083939e-01 -1.200701e-01 -1.324998e-01 -1.457102e-01 -1.597224e-01 -1.745512e-01 -1.902043e-01 -2.066812e-01 -2.239730e-01 -2.420615e-01 -2.609179e-01 -2.805030e-01 -3.007656e-01 -3.216426e-01 -3.430578e-01 -3.649215e-01 -3.871304e-01 -4.095665e-01 -4.320976e-01 -4.545763e-01 -4.768408e-01 -4.987143e-01 -5.200055e-01 -5.405088e-01 -5.600051e-01 -5.782623e-01 -5.950363e-01 -6.100721e-01 -6.231052e-01 -6.338635e-01 -6.420692e-01 -6.474414e-01 -6.496995e-01 -6.485668e-01 -6.437753e-01 -6.350709e-01 -6.222206e-01 -6.050197e-01 -5.833005e-01 -5.569424e-01 -5.258816e-01 -4.901223e-01 -4.497461e-01 -4.049214e-01 -3.559097e-01 -3.030695e-01 -2.468559e-01 -1.878150e-01 -1.265742e-01 -6.382731e-02 -3.144475e-04 6.319977e-02 1.259508e-01 1.871982e-01 2.462485e-01 3.024740e-01 3.553284e-01 4.043566e-01 4.491999e-01 4.895966e-01 5.253782e-01 5.564626e-01 5.828457e-01 6.045908e-01 6.218185e-01 6.346960e-01 6.434277e-01 6.482465e-01 6.494062e-01 6.471744e-01 6.418278e-01 6.336467e-01 6.229118e-01 6.099008e-01 5.948857e-01 5.781309e-01 5.598913e-01 5.404111e-01 5.199223e-01 4.986442e-01 4.767822e-01 4.545278e-01 4.320578e-01 4.095343e-01 3.871046e-01 3.649011e-01 3.430418e-01 3.216302e-01 3.007561e-01 2.804957e-01 2.609124e-01 2.420572e-01 2.239696e-01 2.066783e-01 1.902017e-01 1.745488e-01 1.597199e-01 1.457075e-01 1.324969e-01 1.200668e-01 1.083903e-01 9.743528e-02 8.716509e-02 7.753918e-02 6.851356e-02 6.004134e-02 5.207309e-02 4.455734e-02 3.744084e-02 3.066891e-02 2.418574e-02 1.793459e-02 1.185803e-02 5.898142e-03 
-3.566663e-06 -5.986323e-03 -1.202920e-02 -1.819219e-02 -2.453498e-02 -3.111677e-02 -3.799608e-02 -4.523057e-02 -5.287676e-02 -6.098978e-02 -6.962305e-02 -7.882795e-02 -8.865337e-02 -9.914534e-02 -1.103465e-01 -1.222955e-01 -1.350266e-01 -1.485689e-01 -1.629458e-01 -1.781739e-01 -1.942630e-01 -2.112148e-01 -2.290221e-01 -2.476683e-01 -2.671267e-01 -2.873593e-01 -3.083164e-01 -3.299359e-01 -3.521426e-01 -3.748473e-01 -3.979468e-01 -4.213233e-01 -4.448437e-01 -4.683598e-01 -4.917078e-01 -5.147087e-01 -5.371679e-01 -5.588759e-01 -5.796083e-01 -5.991266e-01 -6.171787e-01 -6.334998e-01 -6.478136e-01 -6.598338e-01 -6.692654e-01 -6.758075e-01 -6.791556e-01 -6.790056e-01 -6.750579e-01 -6.670231e-01 -6.546291e-01 -6.376291e-01 -6.158119e-01 -5.890130e-01 -5.571269e-01 -5.201211e-01 -4.780486e-01 -4.310607e-01 -3.794163e-01 -3.234891e-01 -2.637680e-01 -2.008531e-01 -1.354444e-01 -6.832368e-02 -3.310065e-04 6.766311e-02 1.347882e-01 2.002040e-01 2.631287e-01 3.228624e-01 3.788048e-01 4.304667e-01 4.774744e-01 5.195687e-01 5.565982e-01 5.885095e-01 6.153351e-01 6.371801e-01 6.542086e-01 6.666317e-01 6.746958e-01 6.786728e-01 6.788517e-01 6.755318e-01 6.690172e-01 6.596119e-01 6.476168e-01 6.333266e-01 6.170275e-01 5.989959e-01 5.794963e-01 5.587808e-01 5.370880e-01 5.146424e-01 4.916534e-01 4.683158e-01 4.448087e-01 4.212960e-01 3.979259e-01 3.748316e-01 3.521312e-01 3.299280e-01 3.083111e-01 2.873560e-01 2.671248e-01 2.476674e-01 2.290217e-01 2.112146e-01 1.942629e-01 1.781736e-01 1.629450e-01 1.485678e-01 1.350249e-01 1.222933e-01 1.103437e-01 9.914198e-02 8.864947e-02 7.882354e-02 6.961817e-02 6.098446e-02 5.287105e-02 4.522452e-02 3.798974e-02 3.111019e-02 2.452820e-02 1.818526e-02 1.202215e-02 5.979211e-03 
-3.804692e-06 -6.044405e-03 -1.214672e-02 -1.837233e-02 -2.478255e-02 -3.143821e-02 -3.839950e-02 -4.572578e-02 -5.347530e-02 -6.170498e-02 -7.047006e-02 -7.982379e-02 -8.981700e-02 -1.004977e-01 -1.119104e-01 -1.240961e-01 -1.370910e-01 -1.509262e-01 -1.656274e-01 -1.812135e-01 -1.976962e-01 -2.150794e-01 -2.333580e-01 -2.525177e-01 -2.725335e-01 -2.933695e-01 -3.149776e-01 -3.372975e-01 -3.602552e-01 -3.837630e-01 -4.077186e-01 -4.320048e-01 -4.564889e-01 -4.810226e-01 -5.054417e-01 -5.295659e-01 -5.531988e-01 -5.761283e-01 -5.981264e-01 -6.189496e-01 -6.383396e-01 -6.560235e-01 -6.717147e-01 -6.851138e-01 -6.959099e-01 -7.037824e-01 -7.084029e-01 -7.094384e-01 -7.065557e-01 -6.994260e-01 -6.877327e-01 -6.711799e-01 -6.495032e-01 -6.224834e-01 -5.899613e-01 -5.518547e-01 -5.081755e-01 -4.590464e-01 -4.047156e-01 -3.455672e-01 -2.821248e-01 -2.150487e-01 -1.451232e-01 -7.323552e-02 -3.467543e-04 7.254353e-02 1.444357e-01 2.143688e-01 2.814554e-01 3.449110e-01 4.040754e-01 4.584247e-01 5.075747e-01 5.512770e-01 5.894087e-01 6.219576e-01 6.490057e-01 6.707119e-01 6.872952e-01 6.990195e-01 7.061805e-01 7.090945e-01 7.080898e-01 7.034996e-01 6.956565e-01 6.848884e-01 6.715161e-01 6.558500e-01 6.381896e-01 6.188212e-01 5.980177e-01 5.760374e-01 5.531239e-01 5.295050e-01 5.053932e-01 4.809848e-01 4.564602e-01 4.319837e-01 4.077038e-01 3.837533e-01 3.602496e-01 3.372950e-01 3.149775e-01 2.933710e-01 2.725361e-01 2.525208e-01 2.333613e-01 2.150825e-01 1.976989e-01 1.812156e-01 1.656289e-01 1.509270e-01 1.370909e-01 1.240952e-01 1.119087e-01 1.004951e-01 8.981370e-02 7.981979e-02 7.046542e-02 6.169976e-02 5.346956e-02 4.571959e-02 3.839293e-02 3.143131e-02 2.477540e-02 1.836498e-02 1.213922e-02 6.036823e-03 
-4.036354e-06 -6.077153e-03 -1.221340e-02 -1.847583e-02 -2.492717e-02 -3.162976e-02 -3.864531e-02 -4.603470e-02 -5.385782e-02 -6.217322e-02 -7.103786e-02 -8.050675e-02 -9.063256e-02 -1.014652e-01 -1.130512e-01 -1.254334e-01 -1.386503e-01 -1.527352e-01 -1.677157e-01 -1.836132e-01 -2.004416e-01 -2.182071e-01 -2.369071e-01 -2.565293e-01 -2.770513e-01 -2.984392e-01 -3.206474e-01 -3.436176e-01 -3.672778e-01 -3.915423e-01 -4.163106e-01 -4.414670e-01 -4.668801e-01 -4.924026e-01 -5.178711e-01 -5.431056e-01 -5.679093e-01 -5.920693e-01 -6.153556e-01 -6.375220e-01 -6.583058e-01 -6.774282e-01 -6.945943e-01 -7.094939e-01 -7.218019e-01 -7.311789e-01 -7.372733e-01 -7.397230e-01 -7.381588e-01 -7.322093e-01 -7.215075e-01 -7.057000e-01 -6.844588e-01 -6.574969e-01 -6.245857e-01 -5.855766e-01 -5.404234e-01 -4.892049e-01 -4.321460e-01 -3.696337e-01 -3.022255e-01 -2.306486e-01 -1.557867e-01 -7.865449e-02 -3.614892e-04 7.793312e-02 1.550701e-01 2.299400e-01 3.015278e-01 3.689500e-01 4.314791e-01 4.885575e-01 5.397979e-01 5.849754e-01 6.240108e-01 6.569503e-01 6.839422e-01 7.052146e-01 7.210544e-01 7.317892e-01 7.377720e-01 7.393695e-01 7.369527e-01 7.308906e-01 7.215448e-01 7.092669e-01 6.943957e-01 6.772562e-01 6.581587e-01 6.373977e-01 6.152520e-01 5.919844e-01 5.678411e-01 5.430519e-01 5.178301e-01 4.923725e-01 4.668591e-01 4.414535e-01 4.163033e-01 3.915399e-01 3.672792e-01 3.436217e-01 3.206535e-01 2.984464e-01 2.770591e-01 2.565372e-01 2.369147e-01 2.182141e-01 2.004477e-01 1.836183e-01 1.677198e-01 1.527381e-01 1.386521e-01 1.254341e-01 1.130507e-01 1.014636e-01 9.063002e-02 8.050330e-02 7.103358e-02 6.216819e-02 5.385213e-02 4.602844e-02 3.863855e-02 3.162260e-02 2.491968e-02 1.846808e-02 1.220548e-02 6.069116e-03 
-4.260057e-06 -6.082803e-03 -1.222572e-02 -1.849732e-02 -2.496162e-02 -3.168225e-02 -3.872227e-02 -4.614398e-02 -5.400867e-02 -6.237642e-02 -7.130577e-02 -8.085336e-02 -9.107360e-02 -1.020182e-01 -1.137356e-01 -1.262706e-01 -1.396638e-01 -1.539505e-01 -1.691609e-01 -1.853183e-01 -2.024393e-01 -2.205324e-01 -2.395975e-01 -2.596250e-01 -2.805950e-01 -3.024764e-01 -3.252261e-01 -3.487884e-01 -3.730942e-01 -3.980603e-01 -4.235886e-01 -4.495660e-01 -4.758636e-01 -5.023363e-01 -5.288226e-01 -5.551443e-01 -5.811062e-01 -6.064961e-01 -6.310847e-01 -6.546249e-01 -6.768526e-01 -6.974853e-01 -7.162232e-01 -7.327476e-01 -7.467218e-01 -7.577903e-01 -7.655795e-01 -7.696988e-01 -7.697421e-01 -7.652922e-01 -7.559260e-01 -7.412238e-01 -7.207819e-01 -6.942290e-01 -6.612485e-01 -6.216037e-01 -5.751672e-01 -5.219525e-01 -4.621426e-01 -3.961156e-01 -3.244597e-01 -2.479763e-01 -1.676666e-01 -8.470142e-02 -3.750207e-04 8.395307e-02 1.669233e-01 2.472414e-01 3.237362e-01 3.954067e-01 4.614513e-01 5.212815e-01 5.745192e-01 6.209810e-01 6.606535e-01 6.936637e-01 7.202480e-01 7.407228e-01 7.554591e-01 7.648602e-01 7.693455e-01 7.693375e-01 7.652533e-01 7.574983e-01 7.464631e-01 7.325208e-01 7.160265e-01 6.973170e-01 6.767104e-01 6.545068e-01 6.309883e-01 6.064193e-01 5.810466e-01 5.550997e-01 5.287909e-01 5.023156e-01 4.758520e-01 4.495618e-01 4.235903e-01 3.980665e-01 3.731038e-01 3.488003e-01 3.252393e-01 3.024903e-01 2.806090e-01 2.596385e-01 2.396101e-01 2.205439e-01 2.024494e-01 1.853270e-01 1.691680e-01 1.539561e-01 1.396678e-01 1.262731e-01 1.137366e-01 1.020178e-01 9.107201e-02 8.085062e-02 7.130197e-02 6.237169e-02 5.400311e-02 4.613770e-02 3.871539e-02 3.167486e-02 2.495381e-02 1.848920e-02 1.221738e-02 6.074327e-03 
-4.474120e-06 -6.059718e-03 -1.218038e-02 -1.843183e-02 -2.487916e-02 -3.158714e-02 -3.861997e-02 -4.604115e-02 -5.391326e-02 -6.229772e-02 -7.125447e-02 -8.084168e-02 -9.111535e-02 -1.021288e-01 -1.139325e-01 -1.265730e-01 -1.400929e-01 -1.545297e-01 -1.699158e-01 -1.862769e-01 -2.036321e-01 -2.219925e-01 -2.413607e-01 -2.617299e-01 -2.830831e-01 -3.053921e-01 -3.286170e-01 -3.527053e-01 -3.775911e-01 -4.031944e-01 -4.294207e-01 -4.561602e-01 -4.832874e-01 -5.106607e-01 -5.381222e-01 -5.654970e-01 -5.925932e-01 -6.192018e-01 -6.450961e-01 -6.700313e-01 -6.937444e-01 -7.159532e-01 -7.363558e-01 -7.546294e-01 -7.704291e-01 -7.833868e-01 -7.931102e-01 -7.991818e-01 -8.011593e-01 -7.985773e-01 -7.909519e-01 -7.777878e-01 -7.585918e-01 -7.328899e-01 -7.002531e-01 -6.603286e-01 -6.128779e-01 -5.578182e-01 -4.952646e-01 -4.255671e-01 -3.493372e-01 -2.674575e-01 -1.810692e-01 -9.153648e-02 -3.872101e-04 9.076384e-02 1.803019e-01 2.666989e-01 3.485907e-01 4.248358e-01 4.945516e-01 5.571264e-01 6.122099e-01 6.596870e-01 6.996402e-01 7.323080e-01 7.580427e-01 7.772733e-01 7.904731e-01 7.981354e-01 8.007547e-01 7.988147e-01 7.927802e-01 7.830932e-01 7.701707e-01 7.544048e-01 7.361632e-01 7.157905e-01 6.936093e-01 6.699215e-01 6.450091e-01 6.191351e-01 5.925443e-01 5.654635e-01 5.381018e-01 5.106513e-01 4.832870e-01 4.561669e-01 4.294330e-01 4.032108e-01 3.776102e-01 3.527262e-01 3.286386e-01 3.054137e-01 2.831041e-01 2.617499e-01 2.413792e-01 2.220092e-01 2.036469e-01 1.862897e-01 1.699265e-01 1.545383e-01 1.400995e-01 1.265777e-01 1.139353e-01 1.021300e-01 9.111489e-02 8.083980e-02 7.125129e-02 6.229339e-02 5.390792e-02 4.603493e-02 3.861301e-02 3.157956e-02 2.487108e-02 1.842336e-02 1.217165e-02 6.050823e-03 
-4.677236e-06 -6.006417e-03 -1.207440e-02 -1.827484e-02 -2.467372e-02 -3.133669e-02 -3.832891e-02 -4.571490e-02 -5.355832e-02 -6.192173e-02 -7.086633e-02 -8.045163e-02 -9.073508e-02 -1.017716e-01 -1.136133e-01 -1.263086e-01 -1.399019e-01 -1.544332e-01 -1.699366e-01 -1.864407e-01 -2.039668e-01 -2.225289e-01 -2.421324e-01 -2.627735e-01 -2.844383e-01 -3.071020e-01 -3.307283e-01 -3.552683e-01 -3.806598e-01 -4.068270e-01 -4.336793e-01 -4.611115e-01 -4.890026e-01 -5.172158e-01 -5.455979e-01 -5.739793e-01 -6.021735e-01 -6.299767e-01 -6.571676e-01 -6.835068e-01 -7.087359e-01 -7.325769e-01 -7.547303e-01 -7.748738e-01 -7.926597e-01 -8.077124e-01 -8.196255e-01 -8.279588e-01 -8.322359e-01 -8.319436e-01 -8.265330e-01 -8.154250e-01 -7.980218e-01 -7.737249e-01 -7.419640e-01 -7.022342e-01 -6.541447e-01 -5.974746e-01 -5.322319e-01 -4.587095e-01 -3.775274e-01 -2.896551e-01 -1.964015e-01 -9.937335e-02 -3.979742e-04 9.857928e-02 1.956130e-01 2.888758e-01 3.767609e-01 4.579589e-01 5.315004e-01 5.967650e-01 6.534598e-01 7.015765e-01 7.413361e-01 7.731290e-01 7.974599e-01 8.148991e-01 8.260445e-01 8.314937e-01 8.318253e-01 8.275877e-01 8.192937e-01 8.074192e-01 7.924039e-01 7.746538e-01 7.545441e-01 7.324222e-01 7.086104e-01 6.834077e-01 6.570924e-01 6.299225e-01 6.021376e-01 5.739592e-01 5.455910e-01 5.172197e-01 4.890153e-01 4.611310e-01 4.337038e-01 4.068549e-01 3.806899e-01 3.552994e-01 3.307595e-01 3.071325e-01 2.844673e-01 2.628007e-01 2.421574e-01 2.225515e-01 2.039868e-01 1.864580e-01 1.699513e-01 1.544452e-01 1.399115e-01 1.263157e-01 1.136182e-01 1.017744e-01 9.073595e-02 8.045076e-02 7.086390e-02 6.191791e-02 5.355328e-02 4.570882e-02 3.832193e-02 3.132897e-02 2.466540e-02 1.826607e-02 1.206531e-02 5.997127e-03 
-4.868064e-06 -5.921596e-03 -1.190516e-02 -1.802239e-02 -2.433991e-02 -3.092406e-02 -3.784072e-02 -4.515521e-02 -5.293205e-02 -6.123477e-02 -7.012563e-02 -7.966528e-02 -8.991248e-02 -1.009236e-01 -1.127522e-01 -1.254485e-01 -1.390588e-01 -1.536250e-01 -1.691837e-01 -1.857655e-01 -2.033947e-01 -2.220877e-01 -2.418532e-01 -2.626904e-01 -2.845890e-01 -3.075277e-01 -3.314741e-01 -3.563834e-01 -3.821979e-01 -4.088462e-01 -4.362430e-01 -4.642880e-01 -4.928660e-01 -5.218461e-01 -5.510817e-01 -5.804099e-01 -6.096516e-01 -6.386108e-01 -6.670745e-01 -6.948117e-01 -7.215731e-01 -7.470890e-01 -7.710679e-01 -7.931939e-01 -8.131231e-01 -8.304794e-01 -8.448496e-01 -8.557775e-01 -8.627583e-01 -8.652334e-01 -8.625882e-01 -8.541526e-01 -8.392094e-01 -8.170114e-01 -7.868114e-01 -7.479069e-01 -6.997004e-01 -6.417740e-01 -5.739722e-01 -4.964846e-01 -4.099142e-01 -3.153187e-01 -2.142090e-01 -1.084994e-01 -4.073546e-04 1.076868e-01 2.134024e-01 3.145220e-01 4.091310e-01 4.957181e-01 5.732256e-01 6.410501e-01 6.990019e-01 7.472363e-01 7.861713e-01 8.164042e-01 8.386373e-01 8.536177e-01 8.620923e-01 8.647778e-01 8.623438e-01 8.554046e-01 8.445182e-01 8.301888e-01 8.128720e-01 7.929806e-01 7.708904e-01 7.469448e-01 7.214595e-01 6.947259e-01 6.670133e-01 6.385714e-01 6.096310e-01 5.804053e-01 5.510903e-01 5.218655e-01 4.928937e-01 4.643221e-01 4.362814e-01 4.088875e-01 3.822405e-01 3.564262e-01 3.315161e-01 3.075681e-01 2.846271e-01 2.627259e-01 2.418856e-01 2.221170e-01 2.034206e-01 1.857881e-01 1.692029e-01 1.536410e-01 1.390717e-01 1.254584e-01 1.127594e-01 1.009283e-01 8.991489e-02 7.966561e-02 7.012409e-02 6.123159e-02 5.292743e-02 4.514934e-02 3.783379e-02 3.091625e-02 2.433140e-02 1.801334e-02 1.189573e-02 5.911935e-03 
-5.045716e-06 -5.804155e-03 -1.167045e-02 -1.767112e-02 -2.387320e-02 -3.034346e-02 -3.714829e-02 -4.435355e-02 -5.202443e-02 -6.022518e-02 -6.901890e-02 -7.846724e-02 -8.863003e-02 -9.956490e-02 -1.113268e-01 -1.239676e-01 -1.375354e-01 -1.520738e-01 -1.676218e-01 -1.842124e-01 -2.018722e-01 -2.206209e-01 -2.404699e-01 -2.614220e-01 -2.834704e-01 -3.065978e-01 -3.307759e-01 -3.559645e-01 -3.821106e-01 -4.091484e-01 -4.369980e-01 -4.655652e-01 -4.947416e-01 -5.244034e-01 -5.544118e-01 -5.846126e-01 -6.148359e-01 -6.448962e-01 -6.745915e-01 -7.037032e-01 -7.319949e-01 -7.592107e-01 -7.850732e-01 -8.092800e-01 -8.314994e-01 -8.513642e-01 -8.684644e-01 -8.823382e-01 -8.924617e-01 -8.982388e-01 -8.989919e-01 -8.939568e-01 -8.822836e-01 -8.630504e-01 -8.352923e-01 -7.980515e-01 -7.504516e-01 -6.917960e-01 -6.216828e-01 -5.401278e-01 -4.476718e-01 -3.454544e-01 -2.352289e-01 -1.193048e-01 -4.155296e-04 1.184760e-01 2.344068e-01 3.446431e-01 4.468750e-01 5.393490e-01 6.209249e-01 6.910616e-01 7.497433e-01 7.973716e-01 8.346434e-01 8.624350e-01 8.817040e-01 8.934153e-01 8.984907e-01 8.977794e-01 8.920453e-01 8.819655e-01 8.681355e-01 8.510783e-01 8.312553e-01 8.090759e-01 7.849068e-01 7.590794e-01 7.318957e-01 7.036331e-01 6.745471e-01 6.448742e-01 6.148332e-01 5.846260e-01 5.544384e-01 5.244404e-01 4.947865e-01 4.656159e-01 4.370523e-01 4.092047e-01 3.821674e-01 3.560204e-01 3.308301e-01 3.066494e-01 2.835187e-01 2.614667e-01 2.405107e-01 2.206575e-01 2.019047e-01 1.842406e-01 1.676460e-01 1.520941e-01 1.375519e-01 1.239807e-01 1.113367e-01 9.957177e-02 8.863418e-02 7.846893e-02 6.901840e-02 6.022275e-02 5.202031e-02 4.434797e-02 3.714147e-02 3.033562e-02 2.386454e-02 1.766183e-02 1.166071e-02 5.794151e-03 