# vtk DataFile Version 2.0
Comment goes here
ASCII

DATASET STRUCTURED_POINTS
DIMENSIONS    128   128   1

ORIGIN    0.000   0.000   0.000
SPACING   0.00781250.0078125   1.000

POINT_DATA   16384
SCALARS Omega double
LOOKUP_TABLE default

-4.449414e-07 -3.040871e-03 -6.125101e-03 -9.296966e-03 -1.260036e-02 -1.607925e-02 -1.977768e-02 -2.373971e-02 -2.800938e-02 -3.263053e-02 -3.764671e-02 -4.310092e-02 -4.903533e-02 -5.549095e-02 -6.250723e-02 -7.012157e-02 -7.836880e-02 -8.728054e-02 -9.688454e-02 -1.072039e-01 -1.182565e-01 -1.300535e-01 -1.425994e-01 -1.558903e-01 -1.699133e-01 -1.846456e-01 -2.000534e-01 -2.160912e-01 -2.327006e-01 -2.498100e-01 -2.673336e-01 -2.851710e-01 -3.032068e-01 -3.213104e-01 -3.393361e-01 -3.571234e-01 -3.744973e-01 -3.912697e-01 -4.072398e-01 -4.221965e-01 -4.359197e-01 -4.481826e-01 -4.587550e-01 -4.674056e-01 -4.739059e-01 -4.780340e-01 -4.795785e-01 -4.783432e-01 -4.741516e-01 -4.668516e-01 -4.563204e-01 -4.424690e-01 -4.252469e-01 -4.046455e-01 -3.807021e-01 -3.535021e-01 -3.231808e-01 -2.899240e-01 -2.539669e-01 -2.155928e-01 -1.751287e-01 -1.329413e-01 -8.943046e-02 -4.502206e-02 -1.599593e-04 4.470289e-02 8.911353e-02 1.326281e-01 1.748206e-01 2.152911e-01 2.536729e-01 2.896387e-01 3.229054e-01 3.532374e-01 3.804489e-01 4.044043e-01 4.250182e-01 4.422532e-01 4.561176e-01 4.666619e-01 4.739748e-01 4.781792e-01 4.794270e-01 4.778946e-01 4.737782e-01 4.672890e-01 4.586489e-01 4.480865e-01 4.358328e-01 4.221183e-01 4.071697e-01 3.912069e-01 3.744414e-01 3.570736e-01 3.392919e-01 3.212713e-01 3.031723e-01 2.851406e-01 2.673069e-01 2.497866e-01 2.326801e-01 2.160732e-01 2.000377e-01 1.846319e-01 1.699013e-01 1.558798e-01 1.425902e-01 1.300455e-01 1.182495e-01 1.071979e-01 9.687922e-02 8.727588e-02 7.836472e-02 7.011799e-02 6.250408e-02 5.548818e-02 4.903289e-02 4.309877e-02 3.764481e-02 3.262884e-02 2.800786e-02 2.373836e-02 1.977645e-02 1.607813e-02 1.259932e-02 9.295994e-03 6.124175e-03 3.039972e-03 
-6.669964e-07 -3.203832e-03 -6.453608e-03 -9.796641e-03 -1.327966e-02 -1.694949e-02 -2.085306e-02 -2.503738e-02 -2.954944e-02 -3.443611e-02 -3.974399e-02 -4.551915e-02 -5.180687e-02 -5.865128e-02 -6.609491e-02 -7.417823e-02 -8.293905e-02 -9.241190e-02 -1.026273e-01 -1.136108e-01 -1.253827e-01 -1.379562e-01 -1.513374e-01 -1.655237e-01 -1.805030e-01 -1.962525e-01 -2.127380e-01 -2.299127e-01 -2.477162e-01 -2.660740e-01 -2.848961e-01 -3.040771e-01 -3.234954e-01 -3.430129e-01 -3.624750e-01 -3.817109e-01 -4.005341e-01 -4.187431e-01 -4.361226e-01 -4.524454e-01 -4.674736e-01 -4.809617e-01 -4.926591e-01 -5.023132e-01 -5.096732e-01 -5.144945e-01 -5.165424e-01 -5.155980e-01 -5.114622e-01 -5.039619e-01 -4.929550e-01 -4.783355e-01 -4.600392e-01 -4.380479e-01 -4.123937e-01 -3.831624e-01 -3.504952e-01 -3.145902e-01 -2.757017e-01 -2.341381e-01 -1.902582e-01 -1.444662e-01 -9.720418e-02 -4.894465e-02 -1.806373e-04 4.858424e-02 9.684634e-02 1.441126e-01 1.899105e-01 2.337978e-01 2.753702e-01 3.142688e-01 3.501851e-01 3.828646e-01 4.121090e-01 4.377770e-01 4.597826e-01 4.780936e-01 4.927279e-01 5.037498e-01 5.112648e-01 5.154151e-01 5.163737e-01 5.143395e-01 5.095314e-01 5.021838e-01 4.925416e-01 4.808554e-01 4.673777e-01 4.523591e-01 4.360453e-01 4.186740e-01 4.004725e-01 3.816561e-01 3.624264e-01 3.429699e-01 3.234574e-01 3.040436e-01 2.848666e-01 2.660480e-01 2.476935e-01 2.298927e-01 2.127205e-01 1.962371e-01 1.804895e-01 1.655119e-01 1.513270e-01 1.379471e-01 1.253746e-01 1.136037e-01 1.026210e-01 9.240635e-02 8.293414e-02 7.417387e-02 6.609103e-02 5.864782e-02 5.180378e-02 4.551638e-02 3.974149e-02 3.443385e-02 2.954738e-02 2.503550e-02 2.085133e-02 1.694788e-02 1.327815e-02 9.795211e-03 6.452232e-03 3.202488e-03 
-9.139602e-07 -3.363156e-03 -6.774834e-03 -1.028543e-02 -1.394452e-02 -1.780182e-02 -2.190719e-02 -2.631058e-02 -3.106202e-02 -3.621143e-02 -4.180850e-02 -4.790248e-02 -5.454181e-02 -6.177382e-02 -6.964424e-02 -7.819671e-02 -8.747218e-02 -9.750820e-02 -1.083382e-01 -1.199905e-01 -1.324879e-01 -1.458459e-01 -1.600724e-01 -1.751663e-01 -1.911166e-01 -2.079009e-01 -2.254849e-01 -2.438207e-01 -2.628464e-01 -2.824845e-01 -3.026416e-01 -3.232075e-01 -3.440545e-01 -3.650374e-01 -3.859928e-01 -4.067399e-01 -4.270806e-01 -4.468001e-01 -4.656685e-01 -4.834419e-01 -4.998645e-01 -5.146710e-01 -5.275898e-01 -5.383456e-01 -5.466642e-01 -5.522761e-01 -5.549217e-01 -5.543567e-01 -5.503570e-01 -5.427257e-01 -5.312981e-01 -5.159486e-01 -4.965961e-01 -4.732100e-01 -4.458148e-01 -4.144943e-01 -3.793946e-01 -3.407258e-01 -2.987611e-01 -2.538360e-01 -2.063434e-01 -1.567283e-01 -1.054798e-01 -5.312203e-02 -2.029670e-04 5.271709e-02 1.050778e-01 1.563311e-01 2.059530e-01 2.534541e-01 2.983893e-01 3.403655e-01 3.790473e-01 4.141610e-01 4.454965e-01 4.729075e-01 4.963100e-01 5.156791e-01 5.310456e-01 5.424901e-01 5.501382e-01 5.541542e-01 5.547353e-01 5.521051e-01 5.465080e-01 5.382035e-01 5.274609e-01 5.145546e-01 4.997596e-01 4.833478e-01 4.655843e-01 4.467250e-01 4.270137e-01 4.066805e-01 3.859401e-01 3.649908e-01 3.440134e-01 3.231712e-01 3.026097e-01 2.824563e-01 2.628216e-01 2.437989e-01 2.254657e-01 2.078840e-01 1.911017e-01 1.751532e-01 1.600608e-01 1.458356e-01 1.324788e-01 1.199825e-01 1.083310e-01 9.750177e-02 8.746643e-02 7.819156e-02 6.963960e-02 6.176963e-02 5.453803e-02 4.789905e-02 4.180537e-02 3.620856e-02 3.105938e-02 2.630815e-02 2.190492e-02 1.779969e-02 1.394250e-02 1.028349e-02 6.772958e-03 3.361316e-03 
-1.186157e-06 -3.517156e-03 -7.085385e-03 -1.075819e-02 -1.458799e-02 -1.862742e-02 -2.292923e-02 -2.754639e-02 -3.253192e-02 -3.793886e-02 -4.382005e-02 -5.022791e-02 -5.721414e-02 -6.482932e-02 -7.312248e-02 -8.214055e-02 -9.192769e-02 -1.025246e-01 -1.139679e-01 -1.262888e-01 -1.395126e-01 -1.536576e-01 -1.687337e-01 -1.847415e-01 -2.016714e-01 -2.195018e-01 -2.381984e-01 -2.577129e-01 -2.779820e-01 -2.989259e-01 -3.204480e-01 -3.424336e-01 -3.647496e-01 -3.872436e-01 -4.097444e-01 -4.320610e-01 -4.539841e-01 -4.752858e-01 -4.957213e-01 -5.150302e-01 -5.329383e-01 -5.491601e-01 -5.634020e-01 -5.753652e-01 -5.847503e-01 -5.912616e-01 -5.946122e-01 -5.945298e-01 -5.907628e-01 -5.830870e-01 -5.713120e-01 -5.552886e-01 -5.349156e-01 -5.101462e-01 -4.809942e-01 -4.475391e-01 -4.099296e-01 -3.683867e-01 -3.232032e-01 -2.747424e-01 -2.234343e-01 -1.697685e-01 -1.142863e-01 -5.756925e-02 -2.270303e-04 5.711632e-02 1.138367e-01 1.693245e-01 2.229980e-01 2.743158e-01 3.227881e-01 3.679848e-01 4.095425e-01 4.471679e-01 4.806402e-01 5.098102e-01 5.345981e-01 5.549901e-01 5.710327e-01 5.828268e-01 5.905216e-01 5.943072e-01 5.944076e-01 5.910743e-01 5.845796e-01 5.752102e-01 5.632618e-01 5.490338e-01 5.328248e-01 5.149286e-01 4.956306e-01 4.752050e-01 4.539123e-01 4.319974e-01 4.096880e-01 3.871939e-01 3.647056e-01 3.423948e-01 3.204138e-01 2.988958e-01 2.779555e-01 2.576896e-01 2.381778e-01 2.194835e-01 2.016552e-01 1.847272e-01 1.687210e-01 1.536463e-01 1.395025e-01 1.262798e-01 1.139598e-01 1.025174e-01 9.192111e-02 8.213459e-02 7.311708e-02 6.482440e-02 5.720964e-02 5.022379e-02 4.381626e-02 3.793535e-02 3.252866e-02 2.754334e-02 2.292637e-02 1.862471e-02 1.458541e-02 1.075569e-02 7.082959e-03 3.514771e-03 
-1.483860e-06 -3.664036e-03 -7.381645e-03 -1.120943e-02 -1.520267e-02 -1.941684e-02 -2.390763e-02 -2.873096e-02 -3.394291e-02 -3.959959e-02 -4.575701e-02 -5.247081e-02 -5.979596e-02 -6.778639e-02 -7.649447e-02 -8.597048e-02 -9.626195e-02 -1.074129e-01 -1.194631e-01 -1.324469e-01 -1.463925e-01 -1.613209e-01 -1.772445e-01 -1.941659e-01 -2.120770e-01 -2.309575e-01 -2.507736e-01 -2.714768e-01 -2.930029e-01 -3.152703e-01 -3.381797e-01 -3.616125e-01 -3.854304e-01 -4.094750e-01 -4.335668e-01 -4.575060e-01 -4.810718e-01 -5.040239e-01 -5.261028e-01 -5.470316e-01 -5.665175e-01 -5.842546e-01 -5.999266e-01 -6.132102e-01 -6.237796e-01 -6.313111e-01 -6.354882e-01 -6.360083e-01 -6.325890e-01 -6.249751e-01 -6.129469e-01 -5.963272e-01 -5.749904e-01 -5.488692e-01 -5.179628e-01 -4.823426e-01 -4.421577e-01 -3.976381e-01 -3.490958e-01 -2.969234e-01 -2.415905e-01 -1.836358e-01 -1.236583e-01 -6.230430e-02 -2.528904e-04 6.179981e-02 1.231577e-01 1.831415e-01 2.411049e-01 2.964489e-01 3.486343e-01 3.971917e-01 4.417281e-01 4.819312e-01 5.175708e-01 5.484977e-01 5.746399e-01 5.959983e-01 6.126396e-01 6.246895e-01 6.323248e-01 6.357650e-01 6.352651e-01 6.311074e-01 6.235945e-01 6.130426e-01 5.997754e-01 5.841188e-01 5.663958e-01 5.469230e-01 5.260061e-01 5.039380e-01 4.809957e-01 4.574386e-01 4.335074e-01 4.094225e-01 3.853842e-01 3.615717e-01 3.381438e-01 3.152387e-01 2.929750e-01 2.714522e-01 2.507518e-01 2.309382e-01 2.120598e-01 1.941506e-01 1.772308e-01 1.613087e-01 1.463816e-01 1.324370e-01 1.194541e-01 1.074048e-01 9.625457e-02 8.596374e-02 7.648830e-02 6.778072e-02 5.979073e-02 5.246597e-02 4.575251e-02 3.959540e-02 3.393898e-02 2.872727e-02 2.390413e-02 1.941351e-02 1.519947e-02 1.120633e-02 7.378619e-03 3.661053e-03 
-1.807105e-06 -3.801902e-03 -7.659805e-03 -1.163340e-02 -1.578075e-02 -2.016015e-02 -2.483020e-02 -2.984973e-02 -3.527783e-02 -4.117370e-02 -4.759649e-02 -5.460509e-02 -6.225774e-02 -7.061174e-02 -7.972285e-02 -8.964480e-02 -1.004285e-01 -1.121215e-01 -1.247668e-01 -1.384020e-01 -1.530586e-01 -1.687604e-01 -1.855223e-01 -2.033496e-01 -2.222360e-01 -2.421627e-01 -2.630968e-01 -2.849903e-01 -3.077783e-01 -3.313783e-01 -3.556886e-01 -3.805874e-01 -4.059321e-01 -4.315583e-01 -4.572797e-01 -4.828876e-01 -5.081509e-01 -5.328170e-01 -5.566124e-01 -5.792439e-01 -6.004003e-01 -6.197551e-01 -6.369689e-01 -6.516934e-01 -6.635750e-01 -6.722602e-01 -6.774013e-01 -6.786622e-01 -6.757262e-01 -6.683037e-01 -6.561407e-01 -6.390276e-01 -6.168088e-01 -5.893915e-01 -5.567550e-01 -5.189583e-01 -4.761470e-01 -4.285578e-01 -3.765209e-01 -3.204592e-01 -2.608845e-01 -1.983899e-01 -1.336384e-01 -6.734926e-02 -2.805872e-04 6.678955e-02 1.330830e-01 1.978417e-01 2.603463e-01 3.199335e-01 3.760100e-01 4.280641e-01 4.756722e-01 5.185042e-01 5.563229e-01 5.889825e-01 6.164237e-01 6.386669e-01 6.558044e-01 6.679919e-01 6.754384e-01 6.783978e-01 6.771596e-01 6.720403e-01 6.633757e-01 6.515135e-01 6.368072e-01 6.196103e-01 6.002711e-01 5.791289e-01 5.565104e-01 5.327267e-01 5.080711e-01 4.828172e-01 4.572178e-01 4.315038e-01 4.058841e-01 3.805452e-01 3.556515e-01 3.313456e-01 3.077495e-01 2.849647e-01 2.630742e-01 2.421426e-01 2.222181e-01 2.033336e-01 1.855079e-01 1.687474e-01 1.530469e-01 1.383914e-01 1.247571e-01 1.121126e-01 1.004204e-01 8.963729e-02 7.971592e-02 7.060532e-02 6.225177e-02 5.459951e-02 4.759127e-02 4.116879e-02 3.527320e-02 2.984534e-02 2.482602e-02 2.015615e-02 1.577688e-02 1.162965e-02 7.656128e-03 3.798273e-03 
-2.155883e-06 -3.928784e-03 -7.915895e-03 -1.202407e-02 -1.631407e-02 -2.084699e-02 -2.568419e-02 -3.088744e-02 -3.651875e-02 -4.264037e-02 -4.931456e-02 -5.660342e-02 -6.456849e-02 -7.327041e-02 -8.276838e-02 -9.311959e-02 -1.043785e-01 -1.165961e-01 -1.298188e-01 -1.440879e-01 -1.594379e-01 -1.758959e-01 -1.934797e-01 -2.121972e-01 -2.320445e-01 -2.530047e-01 -2.750464e-01 -2.981223e-01 -3.221678e-01 -3.470996e-01 -3.728146e-01 -3.991885e-01 -4.260750e-01 -4.533049e-01 -4.806856e-01 -5.080003e-01 -5.350086e-01 -5.614465e-01 -5.870270e-01 -6.114412e-01 -6.343601e-01 -6.554366e-01 -6.743084e-01 -6.906012e-01 -7.039332e-01 -7.139197e-01 -7.201789e-01 -7.223391e-01 -7.200457e-01 -7.129702e-01 -7.008193e-01 -6.833451e-01 -6.603560e-01 -6.317273e-01 -5.974119e-01 -5.574505e-01 -5.119802e-01 -4.612409e-01 -4.055791e-01 -3.454486e-01 -2.814063e-01 -2.141048e-01 -1.442792e-01 -7.273158e-02 -3.101197e-04 7.211299e-02 1.436656e-01 2.134992e-01 2.808120e-01 3.448685e-01 4.050158e-01 4.606969e-01 5.114577e-01 5.569513e-01 5.969376e-01 6.312791e-01 6.599347e-01 6.829513e-01 7.004530e-01 7.126314e-01 7.197339e-01 7.220535e-01 7.199187e-01 7.136836e-01 7.037201e-01 6.904097e-01 6.741369e-01 6.552836e-01 6.342241e-01 6.113207e-01 5.869206e-01 5.613528e-01 5.349261e-01 5.079278e-01 4.806220e-01 4.532492e-01 4.260262e-01 3.991456e-01 3.727769e-01 3.470664e-01 3.221385e-01 2.980964e-01 2.750234e-01 2.529842e-01 2.320261e-01 2.121807e-01 1.934648e-01 1.758823e-01 1.594256e-01 1.440766e-01 1.298085e-01 1.165865e-01 1.043697e-01 9.311137e-02 8.276072e-02 7.326325e-02 6.456177e-02 5.659710e-02 4.930860e-02 4.263472e-02 3.651339e-02 3.088232e-02 2.567929e-02 2.084227e-02 1.630950e-02 1.201961e-02 7.911518e-03 3.924456e-03 
-2.529919e-06 -4.042649e-03 -8.145827e-03 -1.237523e-02 -1.679426e-02 -2.146664e-02 -2.645650e-02 -3.182838e-02 -3.764717e-02 -4.397808e-02 -5.088646e-02 -5.843753e-02 -6.669610e-02 -7.572615e-02 -8.559030e-02 -9.634924e-02 -1.080610e-01 -1.207800e-01 -1.345566e-01 -1.494352e-01 -1.654540e-01 -1.826434e-01 -2.010245e-01 -2.206082e-01 -2.413931e-01 -2.633648e-01 -2.864937e-01 -3.107340e-01 -3.360218e-01 -3.622739e-01 -3.893865e-01 -4.172336e-01 -4.456662e-01 -4.745111e-01 -5.035704e-01 -5.326206e-01 -5.614129e-01 -5.896728e-01 -6.171008e-01 -6.433736e-01 -6.681449e-01 -6.910477e-01 -7.116970e-01 -7.296926e-01 -7.446234e-01 -7.560726e-01 -7.636226e-01 -7.668630e-01 -7.653977e-01 -7.588545e-01 -7.468952e-01 -7.292271e-01 -7.056150e-01 -6.758945e-01 -6.399841e-01 -5.978988e-01 -5.497600e-01 -4.958059e-01 -4.363965e-01 -3.720158e-01 -3.032690e-01 -2.308741e-01 -1.556476e-01 -7.848597e-02 -3.414385e-04 7.780495e-02 1.549721e-01 2.302078e-01 3.026154e-01 3.713781e-01 4.357777e-01 4.952089e-01 5.491872e-01 5.973522e-01 6.394656e-01 6.754053e-01 7.051561e-01 7.287990e-01 7.464980e-01 7.584881e-01 7.650615e-01 7.665562e-01 7.633441e-01 7.558209e-01 7.443972e-01 7.294901e-01 7.115166e-01 6.908876e-01 6.680033e-01 6.432489e-01 6.169912e-01 5.895767e-01 5.613288e-01 5.325472e-01 5.035063e-01 4.744552e-01 4.456173e-01 4.171908e-01 3.893490e-01 3.622410e-01 3.359927e-01 3.107082e-01 2.864708e-01 2.633443e-01 2.413747e-01 2.205915e-01 2.010094e-01 1.826296e-01 1.654413e-01 1.494234e-01 1.345457e-01 1.207699e-01 1.080515e-01 9.634035e-02 8.558194e-02 7.571826e-02 6.668865e-02 5.843046e-02 5.087974e-02 4.397168e-02 3.764104e-02 3.182250e-02 2.645084e-02 2.146116e-02 1.678893e-02 1.237002e-02 8.140700e-03 4.037572e-03 
-2.928906e-06 -4.141428e-03 -8.345433e-03 -1.268057e-02 -1.721274e-02 -2.200822e-02 -2.713373e-02 -3.265648e-02 -3.864417e-02 -4.516485e-02 -5.228684e-02 -6.007844e-02 -6.860765e-02 -7.794175e-02 -8.814675e-02 -9.928682e-02 -1.114235e-01 -1.246151e-01 -1.389152e-01 -1.543721e-01 -1.710278e-01 -1.889160e-01 -2.080613e-01 -2.284779e-01 -2.501676e-01 -2.731186e-01 -2.973039e-01 -3.226795e-01 -3.491831e-01 -3.767323e-01 -4.052234e-01 -4.345296e-01 -4.645003e-01 -4.949596e-01 -5.257052e-01 -5.565085e-01 -5.871132e-01 -6.172361e-01 -6.465666e-01 -6.747679e-01 -7.014778e-01 -7.263106e-01 -7.488591e-01 -7.686976e-01 -7.853859e-01 -7.984738e-01 -8.075066e-01 -8.120322e-01 -8.116096e-01 -8.058177e-01 -7.942673e-01 -7.766131e-01 -7.525678e-01 -7.219173e-01 -6.845361e-01 -6.404030e-01 -5.896154e-01 -5.324021e-01 -4.691320e-01 -4.003181e-01 -3.266164e-01 -2.488169e-01 -1.678286e-01 -8.465674e-02 -3.744228e-04 8.390997e-02 1.670881e-01 2.480866e-01 3.259002e-01 3.996198e-01 4.684549e-01 5.317495e-01 5.889898e-01 6.398069e-01 6.839714e-01 7.213856e-01 7.520700e-01 7.761498e-01 7.938387e-01 8.054235e-01 8.112491e-01 8.117045e-01 8.072102e-01 7.982073e-01 7.851475e-01 7.684853e-01 7.486710e-01 7.261447e-01 7.013320e-01 6.746402e-01 6.464552e-01 6.171391e-01 5.870289e-01 5.564353e-01 5.256418e-01 4.949045e-01 4.644525e-01 4.344880e-01 4.051870e-01 3.767004e-01 3.491550e-01 3.226546e-01 2.972817e-01 2.730987e-01 2.501496e-01 2.284615e-01 2.080463e-01 1.889021e-01 1.710149e-01 1.543601e-01 1.389039e-01 1.246045e-01 1.114135e-01 9.927734e-02 8.813775e-02 7.793318e-02 6.859948e-02 6.007063e-02 5.227936e-02 4.515767e-02 3.863725e-02 3.264981e-02 2.712727e-02 2.200194e-02 1.720661e-02 1.267456e-02 8.339507e-03 4.135553e-03 
-3.352255e-06 -4.223039e-03 -8.510520e-03 -1.293373e-02 -1.756091e-02 -2.246072e-02 -2.770236e-02 -3.335556e-02 -3.949066e-02 -4.617845e-02 -5.349008e-02 -6.149685e-02 -7.026983e-02 -7.987951e-02 -9.039525e-02 -1.018847e-01 -1.144129e-01 -1.280417e-01 -1.428286e-01 -1.588256e-01 -1.760783e-01 -1.946243e-01 -2.144920e-01 -2.356989e-01 -2.582505e-01 -2.821381e-01 -3.073376e-01 -3.338077e-01 -3.614883e-01 -3.902986e-01 -4.201359e-01 -4.508739e-01 -4.823613e-01 -5.144207e-01 -5.468472e-01 -5.794081e-01 -6.118418e-01 -6.438575e-01 -6.751355e-01 -7.053274e-01 -7.340566e-01 -7.609202e-01 -7.854902e-01 -8.073165e-01 -8.259301e-01 -8.408471e-01 -8.515745e-01 -8.576167e-01 -8.584834e-01 -8.537000e-01 -8.428191e-01 -8.254343e-01 -8.011958e-01 -7.698284e-01 -7.311496e-01 -6.850895e-01 -6.317095e-01 -5.712189e-01 -5.039882e-01 -4.305566e-01 -3.516327e-01 -2.680866e-01 -1.809320e-01 -9.130101e-02 -4.088723e-04 9.048558e-02 1.801235e-01 2.672895e-01 3.508514e-01 4.297951e-01 5.032503e-01 5.705083e-01 6.310292e-01 6.844421e-01 7.305372e-01 7.692528e-01 8.006582e-01 8.249353e-01 8.423588e-01 8.532781e-01 8.580990e-01 8.572686e-01 8.512613e-01 8.405668e-01 8.256807e-01 8.070959e-01 7.852960e-01 7.607500e-01 7.339082e-01 7.051985e-01 6.750239e-01 6.437612e-01 6.117588e-01 5.793367e-01 5.467858e-01 5.143678e-01 4.823158e-01 4.508345e-01 4.201017e-01 3.902687e-01 3.614620e-01 3.337844e-01 3.073167e-01 2.821192e-01 2.582333e-01 2.356832e-01 2.144774e-01 1.946107e-01 1.760655e-01 1.588135e-01 1.428171e-01 1.280308e-01 1.144025e-01 1.018747e-01 9.038567e-02 7.987030e-02 7.026096e-02 6.148830e-02 5.348183e-02 4.617047e-02 3.948294e-02 3.334807e-02 2.769507e-02 2.245361e-02 1.755394e-02 1.292688e-02 8.503749e-03 4.216318e-03 
-3.799372e-06 -4.285411e-03 -8.636919e-03 -1.312838e-02 -1.783019e-02 -2.281323e-02 -2.814895e-02 -3.390949e-02 -4.016761e-02 -4.699670e-02 -5.447061e-02 -6.266345e-02 -7.164927e-02 -8.150165e-02 -9.229320e-02 -1.040949e-01 -1.169754e-01 -1.310001e-01 -1.462302e-01 -1.627216e-01 -1.805237e-01 -1.996781e-01 -2.202170e-01 -2.421619e-01 -2.655219e-01 -2.902922e-01 -3.164521e-01 -3.439636e-01 -3.727693e-01 -4.027912e-01 -4.339285e-01 -4.660563e-01 -4.990242e-01 -5.326546e-01 -5.667416e-01 -6.010502e-01 -6.353151e-01 -6.692403e-01 -7.024990e-01 -7.347332e-01 -7.655545e-01 -7.945447e-01 -8.212571e-01 -8.452190e-01 -8.659334e-01 -8.828839e-01 -8.955383e-01 -9.033556e-01 -9.057935e-01 -9.023183e-01 -8.924171e-01 -8.756128e-01 -8.514811e-01 -8.196715e-01 -7.799290e-01 -7.321187e-01 -6.762496e-01 -6.124976e-01 -5.412242e-01 -4.629896e-01 -3.785559e-01 -2.888812e-01 -1.951000e-01 -9.849296e-02 -4.444794e-04 9.760656e-02 1.942213e-01 2.880150e-01 3.777071e-01 4.621628e-01 5.404236e-01 6.117271e-01 6.755127e-01 7.314185e-01 7.792678e-01 8.190512e-01 8.509031e-01 8.750776e-01 8.919250e-01 9.018688e-01 9.053857e-01 9.029881e-01 8.952093e-01 8.825912e-01 8.656747e-01 8.449917e-01 8.210586e-01 7.943722e-01 7.654055e-01 7.346051e-01 7.023892e-01 6.691466e-01 6.352353e-01 6.009824e-01 5.666840e-01 5.326056e-01 4.989824e-01 4.660205e-01 4.338976e-01 4.027643e-01 3.727457e-01 3.439427e-01 3.164334e-01 2.902752e-01 2.655063e-01 2.421473e-01 2.202033e-01 1.996652e-01 1.805114e-01 1.627098e-01 1.462188e-01 1.309891e-01 1.169647e-01 1.040845e-01 9.228312e-02 8.149186e-02 7.163975e-02 6.265419e-02 5.446160e-02 4.698793e-02 4.015907e-02 3.390115e-02 2.814080e-02 2.280524e-02 1.782234e-02 1.312064e-02 8.629256e-03 4.277796e-03 
-4.269371e-06 -4.326514e-03 -8.720542e-03 -1.325832e-02 -1.801218e-02 -2.305499e-02 -2.846031e-02 -3.430240e-02 -4.065630e-02 -4.759779e-02 -5.520322e-02 -6.354936e-02 -7.271305e-02 -8.277084e-02 -9.379844e-02 -1.058701e-01 -1.190579e-01 -1.334308e-01 -1.490538e-01 -1.659866e-01 -1.842824e-01 -2.039870e-01 -2.251367e-01 -2.477571e-01 -2.718615e-01 -2.974491e-01 -3.245033e-01 -3.529899e-01 -3.828554e-01 -4.140249e-01 -4.464010e-01 -4.798613e-01 -5.142575e-01 -5.494135e-01 -5.851240e-01 -6.211538e-01 -6.572361e-01 -6.930719e-01 -7.283299e-01 -7.626454e-01 -7.956206e-01 -8.268252e-01 -8.557968e-01 -8.820420e-01 -9.050389e-01 -9.242394e-01 -9.390730e-01 -9.489527e-01 -9.532812e-01 -9.514609e-01 -9.429062e-01 -9.270583e-01 -9.034049e-01 -8.715032e-01 -8.310062e-01 -7.816927e-01 -7.234983e-01 -6.565460e-01 -5.811728e-01 -4.979506e-01 -4.076944e-01 -3.114591e-01 -2.105185e-01 -1.063296e-01 -4.808262e-04 1.053708e-01 2.095680e-01 3.105223e-01 4.067768e-01 4.970571e-01 5.803081e-01 6.557144e-01 7.227038e-01 7.809386e-01 8.302953e-01 8.708376e-01 9.027861e-01 9.264871e-01 9.423827e-01 9.509847e-01 9.528510e-01 9.485671e-01 9.387298e-01 9.239361e-01 9.047729e-01 8.818103e-01 8.555963e-01 8.266529e-01 7.954734e-01 7.625204e-01 7.282243e-01 6.929832e-01 6.571617e-01 6.210916e-01 5.850721e-01 5.493700e-01 5.142210e-01 4.798305e-01 4.463748e-01 4.140024e-01 3.828357e-01 3.529724e-01 3.244875e-01 2.974346e-01 2.718479e-01 2.477443e-01 2.251244e-01 2.039751e-01 1.842708e-01 1.659752e-01 1.490427e-01 1.334199e-01 1.190471e-01 1.058595e-01 9.378797e-02 8.276054e-02 7.270293e-02 6.353942e-02 5.519348e-02 4.758823e-02 4.064693e-02 3.429320e-02 2.845127e-02 2.304610e-02 1.800340e-02 1.324964e-02 8.711944e-03 4.317960e-03 
-4.761399e-06 -4.344390e-03 -8.757443e-03 -1.331755e-02 -1.809874e-02 -2.317565e-02 -2.862366e-02 -3.451895e-02 -4.093861e-02 -4.796056e-02 -5.566346e-02 -6.412651e-02 -7.342916e-02 -8.365073e-02 -9.486988e-02 -1.071640e-01 -1.206085e-01 -1.352757e-01 -1.512344e-01 -1.685480e-01 -1.872739e-01 -2.074619e-01 -2.291525e-01 -2.523758e-01 -2.771495e-01 -3.034774e-01 -3.313473e-01 -3.607296e-01 -3.915751e-01 -4.238136e-01 -4.573514e-01 -4.920703e-01 -5.278255e-01 -5.644439e-01 -6.017231e-01 -6.394293e-01 -6.772968e-01 -7.150265e-01 -7.522852e-01 -7.887048e-01 -8.238819e-01 -8.573774e-01 -8.887168e-01 -9.173903e-01 -9.428538e-01 -9.645309e-01 -9.818146e-01 -9.940722e-01 -1.000650e+00 -1.000884e+00 -9.941057e-01 -9.796654e-01 -9.569466e-01 -9.253943e-01 -8.845454e-01 -8.340655e-01 -7.737884e-01 -7.037572e-01 -6.242622e-01 -5.358719e-01 -4.394503e-01 -3.361582e-01 -2.274314e-01 -1.149388e-01 -5.173556e-04 1.139071e-01 2.264088e-01 3.351505e-01 4.384633e-01 5.349111e-01 6.233328e-01 7.028640e-01 7.729357e-01 8.332572e-01 8.837846e-01 9.246834e-01 9.562873e-01 9.790586e-01 9.935516e-01 1.000382e+00 1.000199e+00 9.936703e-01 9.814593e-01 9.642194e-01 9.425830e-01 9.171567e-01 8.885170e-01 8.572079e-01 8.237392e-01 7.885857e-01 7.521864e-01 7.149451e-01 6.772301e-01 6.393749e-01 6.016789e-01 5.644081e-01 5.277962e-01 4.920463e-01 4.573314e-01 4.237967e-01 3.915605e-01 3.607166e-01 3.313354e-01 3.034663e-01 2.771389e-01 2.523654e-01 2.291422e-01 2.074515e-01 1.872635e-01 1.685375e-01 1.512238e-01 1.352650e-01 1.205977e-01 1.071532e-01 9.485911e-02 8.364000e-02 7.341849e-02 6.411593e-02 5.565299e-02 4.795022e-02 4.092840e-02 3.450887e-02 2.861370e-02 2.316582e-02 1.808901e-02 1.330791e-02 8.747868e-03 4.334854e-03 
-5.274319e-06 -4.337180e-03 -8.743880e-03 -1.330039e-02 -1.808217e-02 -2.316535e-02 -2.862685e-02 -3.454454e-02 -4.099727e-02 -4.806485e-02 -5.582798e-02 -6.436807e-02 -7.376694e-02 -8.410647e-02 -9.546806e-02 -1.079320e-01 -1.215769e-01 -1.364786e-01 -1.527091e-01 -1.703359e-01 -1.894203e-01 -2.100161e-01 -2.321685e-01 -2.559120e-01 -2.812691e-01 -3.082483e-01 -3.368427e-01 -3.670276e-01 -3.987591e-01 -4.319722e-01 -4.665785e-01 -5.024648e-01 -5.394915e-01 -5.774904e-01 -6.162634e-01 -6.555811e-01 -6.951812e-01 -7.347673e-01 -7.740080e-01 -8.125353e-01 -8.499442e-01 -8.857915e-01 -9.195953e-01 -9.508341e-01 -9.789469e-01 -1.003333e+00 -1.023354e+00 -1.038332e+00 -1.047559e+00 -1.050300e+00 -1.045800e+00 -1.033305e+00 -1.012078e+00 -9.814285e-01 -9.407473e-01 -8.895527e-01 -8.275389e-01 -7.546324e-01 -6.710437e-01 -5.773150e-01 -4.743501e-01 -3.634239e-01 -2.461620e-01 -1.244900e-01 -5.533796e-04 1.233865e-01 2.450681e-01 3.623460e-01 4.732944e-01 5.762875e-01 6.700500e-01 7.536779e-01 8.266285e-01 8.886905e-01 9.399370e-01 9.806728e-01 1.011379e+00 1.032664e+00 1.045217e+00 1.049774e+00 1.047089e+00 1.037916e+00 1.022989e+00 1.003016e+00 9.786742e-01 9.506018e-01 9.193994e-01 8.856281e-01 8.498093e-01 8.124251e-01 7.739190e-01 7.346963e-01 6.951251e-01 6.555372e-01 6.162295e-01 5.774643e-01 5.394715e-01 5.024494e-01 4.665664e-01 4.319624e-01 3.987509e-01 3.670203e-01 3.368358e-01 3.082415e-01 2.812621e-01 2.559047e-01 2.321607e-01 2.100078e-01 1.894115e-01 1.703266e-01 1.526994e-01 1.364684e-01 1.215665e-01 1.079213e-01 9.545713e-02 8.409541e-02 7.375580e-02 6.435689e-02 5.581682e-02 4.805373e-02 4.098622e-02 3.453357e-02 2.861597e-02 2.315455e-02 1.807146e-02 1.328974e-02 8.733287e-03 4.326621e-03 
-5.807062e-06 -4.303159e-03 -8.676372e-03 -1.320155e-02 -1.795529e-02 -2.301490e-02 -2.845859e-02 -3.436556e-02 -4.081615e-02 -4.789178e-02 -5.567492e-02 -6.424890e-02 -7.369764e-02 -8.410531e-02 -9.555584e-02 -1.081323e-01 -1.219161e-01 -1.369863e-01 -1.534184e-01 -1.712837e-01 -1.906472e-01 -2.115671e-01 -2.340929e-01 -2.582639e-01 -2.841075e-01 -3.116376e-01 -3.408525e-01 -3.717333e-01 -4.042421e-01 -4.383198e-01 -4.738845e-01 -5.108293e-01 -5.490211e-01 -5.882984e-01 -6.284696e-01 -6.693119e-01 -7.105692e-01 -7.519512e-01 -7.931316e-01 -8.337471e-01 -8.733956e-01 -9.116352e-01 -9.479823e-01 -9.819102e-01 -1.012848e+00 -1.040176e+00 -1.063231e+00 -1.081297e+00 -1.093613e+00 -1.099372e+00 -1.097730e+00 -1.087818e+00 -1.068759e+00 -1.039700e+00 -9.998529e-01 -9.485431e-01 -8.852763e-01 -8.098104e-01 -7.222294e-01 -6.230130e-01 -5.130869e-01 -3.938467e-01 -2.671403e-01 -1.352099e-01 -5.880537e-04 1.340371e-01 2.659778e-01 3.927010e-01 5.119647e-01 6.219207e-01 7.211731e-01 8.087960e-01 8.843092e-01 9.476281e-01 9.989941e-01 1.038901e+00 1.068021e+00 1.087143e+00 1.097119e+00 1.098824e+00 1.093126e+00 1.080869e+00 1.062859e+00 1.039857e+00 1.012576e+00 9.816828e-01 9.477940e-01 9.114815e-01 8.732721e-01 8.336495e-01 7.930559e-01 7.518937e-01 7.105267e-01 6.692813e-01 6.284485e-01 5.882845e-01 5.490125e-01 5.108245e-01 4.738821e-01 4.383189e-01 4.042418e-01 3.717330e-01 3.408517e-01 3.116361e-01 2.841051e-01 2.582604e-01 2.340883e-01 2.115614e-01 1.906404e-01 1.712759e-01 1.534099e-01 1.369769e-01 1.219061e-01 1.081217e-01 9.554488e-02 8.409402e-02 7.368610e-02 6.423718e-02 5.566310e-02 4.787991e-02 4.080426e-02 3.435369e-02 2.844675e-02 2.300312e-02 1.794356e-02 1.318987e-02 8.664725e-03 4.291537e-03 
-6.358298e-06 -4.240762e-03 -8.551768e-03 -1.301625e-02 -1.771160e-02 -2.271600e-02 -2.810858e-02 -3.396961e-02 -4.038056e-02 -4.742417e-02 -5.518432e-02 -6.374598e-02 -7.319486e-02 -8.361716e-02 -9.509900e-02 -1.077259e-01 -1.215821e-01 -1.367495e-01 -1.533070e-01 -1.713293e-01 -1.908853e-01 -2.120373e-01 -2.348394e-01 -2.593357e-01 -2.855586e-01 -3.135275e-01 -3.432466e-01 -3.747033e-01 -4.078660e-01 -4.426827e-01 -4.790786e-01 -5.169547e-01 -5.561856e-01 -5.966183e-01 -6.380698e-01 -6.803263e-01 -7.231407e-01 -7.662322e-01 -8.092835e-01 -8.519405e-01 -8.938094e-01 -9.344555e-01 -9.734007e-01 -1.010121e+00 -1.044043e+00 -1.074540e+00 -1.100929e+00 -1.122468e+00 -1.138347e+00 -1.147695e+00 -1.149574e+00 -1.142993e+00 -1.126917e+00 -1.100304e+00 -1.062141e+00 -1.011508e+00 -9.476555e-01 -8.701029e-01 -7.787390e-01 -6.739257e-01 -5.565785e-01 -4.282148e-01 -2.909446e-01 -1.474038e-01 -6.204063e-04 1.461665e-01 2.897178e-01 4.270054e-01 5.553935e-01 6.727718e-01 7.776229e-01 8.690311e-01 9.466339e-01 1.010542e+00 1.061236e+00 1.099463e+00 1.126143e+00 1.142288e+00 1.148939e+00 1.147128e+00 1.137848e+00 1.122033e+00 1.100555e+00 1.074222e+00 1.043777e+00 1.009903e+00 9.732242e-01 9.343157e-01 8.937013e-01 8.518593e-01 8.092249e-01 7.661919e-01 7.231152e-01 6.803123e-01 6.380646e-01 5.966193e-01 5.561910e-01 5.169627e-01 4.790879e-01 4.426923e-01 4.078751e-01 3.747113e-01 3.432532e-01 3.135323e-01 2.855615e-01 2.593367e-01 2.348387e-01 2.120348e-01 1.908811e-01 1.713235e-01 1.533000e-01 1.367413e-01 1.215728e-01 1.077158e-01 9.508817e-02 8.360575e-02 7.318301e-02 6.373379e-02 5.517189e-02 4.741157e-02 4.036786e-02 3.395684e-02 2.809579e-02 2.270321e-02 1.769882e-02 1.300349e-02 8.539033e-03 4.228041e-03 
-6.926803e-06 -4.148619e-03 -8.367306e-03 -1.274027e-02 -1.734538e-02 -2.226130e-02 -2.756778e-02 -3.334577e-02 -3.967754e-02 -4.664678e-02 -5.433847e-02 -6.283885e-02 -7.223511e-02 -8.261511e-02 -9.406692e-02 -1.066782e-01 -1.205356e-01 -1.357238e-01 -1.523248e-01 -1.704163e-01 -1.900713e-01 -2.113561e-01 -2.343291e-01 -2.590391e-01 -2.855240e-01 -3.138088e-01 -3.439039e-01 -3.758032e-01 -4.094823e-01 -4.448968e-01 -4.819801e-01 -5.206419e-01 -5.607662e-01 -6.022099e-01 -6.448007e-01 -6.883360e-01 -7.325809e-01 -7.772670e-01 -8.220905e-01 -8.667109e-01 -9.107487e-01 -9.537833e-01 -9.953500e-01 -1.034936e+00 -1.071978e+00 -1.105852e+00 -1.135871e+00 -1.161275e+00 -1.181222e+00 -1.194783e+00 -1.200932e+00 -1.198552e+00 -1.186438e+00 -1.163324e+00 -1.127926e+00 -1.079010e+00 -1.015487e+00 -9.365401e-01 -8.417633e-01 -7.313156e-01 -6.060476e-01 -4.675889e-01 -3.183583e-01 -1.614878e-01 -6.493144e-04 1.601927e-01 3.170737e-01 4.663219e-01 6.048053e-01 7.301052e-01 8.405918e-01 9.354145e-01 1.014415e+00 1.077996e+00 1.126977e+00 1.162443e+00 1.185630e+00 1.197819e+00 1.200275e+00 1.194200e+00 1.180713e+00 1.160836e+00 1.135498e+00 1.105541e+00 1.071723e+00 1.034732e+00 9.951901e-01 9.536622e-01 9.106608e-01 8.666507e-01 8.220532e-01 7.772480e-01 7.325762e-01 6.883421e-01 6.448145e-01 6.022288e-01 5.607881e-01 5.206651e-01 4.820032e-01 4.449189e-01 4.095026e-01 3.758211e-01 3.439191e-01 3.138211e-01 2.855334e-01 2.590456e-01 2.343329e-01 2.113573e-01 1.900702e-01 1.704130e-01 1.523196e-01 1.357170e-01 1.205273e-01 1.066687e-01 9.405637e-02 8.260373e-02 7.222305e-02 6.282625e-02 5.432547e-02 4.663347e-02 3.966403e-02 3.333210e-02 2.755402e-02 2.224749e-02 1.733154e-02 1.272642e-02 8.353451e-03 4.134765e-03 