# vtk DataFile Version 2.0
Comment goes here
ASCII

DATASET STRUCTURED_POINTS
DIMENSIONS    128   128   1

ORIGIN    0.000   0.000   0.000
SPACING   0.00781250.0078125   1.000

POINT_DATA   16384
SCALARS Omega double
LOOKUP_TABLE default

-1.251315e-06 -5.856512e-03 -1.174458e-02 -1.769802e-02 -2.374891e-02 -2.992857e-02 -3.626733e-02 -4.279426e-02 -4.953690e-02 -5.652100e-02 -6.377022e-02 -7.130588e-02 -7.914662e-02 -8.730814e-02 -9.580288e-02 -1.046397e-01 -1.138237e-01 -1.233556e-01 -1.332319e-01 -1.434441e-01 -1.539788e-01 -1.648173e-01 -1.759353e-01 -1.873028e-01 -1.988838e-01 -2.106362e-01 -2.225118e-01 -2.344560e-01 -2.464082e-01 -2.583011e-01 -2.700619e-01 -2.816115e-01 -2.928652e-01 -3.037331e-01 -3.141202e-01 -3.239273e-01 -3.330513e-01 -3.413860e-01 -3.488229e-01 -3.552520e-01 -3.605631e-01 -3.646465e-01 -3.673944e-01 -3.687025e-01 -3.684711e-01 -3.666068e-01 -3.630242e-01 -3.576478e-01 -3.504135e-01 -3.412709e-01 -3.301849e-01 -3.171379e-01 -3.021313e-01 -2.851873e-01 -2.663501e-01 -2.456874e-01 -2.232905e-01 -1.992752e-01 -1.737807e-01 -1.469691e-01 -1.190236e-01 -9.014644e-02 -6.055550e-02 -3.048135e-02 -1.631141e-04 3.015569e-02 6.023156e-02 8.982533e-02 1.187064e-01 1.466569e-01 1.734744e-01 1.989759e-01 2.229990e-01 2.454045e-01 2.660766e-01 2.849238e-01 3.018784e-01 3.168961e-01 3.299545e-01 3.410522e-01 3.502067e-01 3.574531e-01 3.628416e-01 3.664362e-01 3.683124e-01 3.685555e-01 3.672588e-01 3.645220e-01 3.604493e-01 3.551484e-01 3.487290e-01 3.413013e-01 3.329753e-01 3.238594e-01 3.140599e-01 3.036798e-01 2.928183e-01 2.815705e-01 2.700262e-01 2.582702e-01 2.463815e-01 2.344332e-01 2.224924e-01 2.106197e-01 1.988699e-01 1.872911e-01 1.759255e-01 1.648091e-01 1.539719e-01 1.434383e-01 1.332270e-01 1.233515e-01 1.138201e-01 1.046366e-01 9.580007e-02 8.730556e-02 7.914419e-02 7.130355e-02 6.376795e-02 5.651874e-02 4.953463e-02 4.279196e-02 3.626499e-02 2.992619e-02 2.374649e-02 1.769557e-02 1.174210e-02 5.854015e-03 
-1.290597e-06 -6.061984e-03 -1.215709e-02 -1.832077e-02 -2.458668e-02 -3.098773e-02 -3.755579e-02 -4.432143e-02 -5.131369e-02 -5.855973e-02 -6.608460e-02 -7.391091e-02 -8.205856e-02 -9.054439e-02 -9.938191e-02 -1.085809e-01 -1.181473e-01 -1.280826e-01 -1.383837e-01 -1.490425e-01 -1.600460e-01 -1.713753e-01 -1.830059e-01 -1.949075e-01 -2.070432e-01 -2.193702e-01 -2.318388e-01 -2.443931e-01 -2.569704e-01 -2.695015e-01 -2.819107e-01 -2.941161e-01 -3.060297e-01 -3.175577e-01 -3.286010e-01 -3.390558e-01 -3.488136e-01 -3.577628e-01 -3.657887e-01 -3.727747e-01 -3.786032e-01 -3.831569e-01 -3.863199e-01 -3.879791e-01 -3.880258e-01 -3.863572e-01 -3.828784e-01 -3.775040e-01 -3.701604e-01 -3.607882e-01 -3.493435e-01 -3.358010e-01 -3.201558e-01 -3.024252e-01 -2.826508e-01 -2.608998e-01 -2.372661e-01 -2.118705e-01 -1.848608e-01 -1.564108e-01 -1.267184e-01 -9.600354e-02 -6.450436e-02 -3.247373e-02 -1.744885e-04 3.212537e-02 6.415786e-02 9.566010e-02 1.263792e-01 1.560770e-01 1.845335e-01 2.115507e-01 2.369547e-01 2.605978e-01 2.823589e-01 3.021441e-01 3.198861e-01 3.355432e-01 3.490981e-01 3.605554e-01 3.699406e-01 3.772971e-01 3.826845e-01 3.861764e-01 3.878578e-01 3.878236e-01 3.861767e-01 3.830256e-01 3.784833e-01 3.726658e-01 3.656904e-01 3.576744e-01 3.487345e-01 3.389853e-01 3.285386e-01 3.175027e-01 3.059816e-01 2.940742e-01 2.818745e-01 2.694703e-01 2.569437e-01 2.443705e-01 2.318197e-01 2.193541e-01 2.070298e-01 1.948963e-01 1.829967e-01 1.713677e-01 1.600397e-01 1.490374e-01 1.383794e-01 1.280790e-01 1.181442e-01 1.085782e-01 9.937948e-02 9.054214e-02 8.205642e-02 7.390882e-02 6.608251e-02 5.855761e-02 5.131151e-02 4.431919e-02 3.755347e-02 3.098534e-02 2.458423e-02 1.831826e-02 1.215454e-02 6.059411e-03 
-1.314134e-06 -6.256574e-03 -1.254784e-02 -1.891086e-02 -2.538090e-02 -3.199240e-02 -3.877879e-02 -4.577217e-02 -5.300304e-02 -6.050002e-02 -6.828955e-02 -7.639558e-02 -8.483928e-02 -9.363869e-02 -1.028084e-01 -1.123593e-01 -1.222981e-01 -1.326271e-01 -1.433438e-01 -1.544408e-01 -1.659051e-01 -1.777182e-01 -1.898555e-01 -2.022862e-01 -2.149732e-01 -2.278726e-01 -2.409340e-01 -2.540999e-01 -2.673060e-01 -2.804812e-01 -2.935474e-01 -3.064201e-01 -3.190081e-01 -3.312140e-01 -3.429349e-01 -3.540622e-01 -3.644829e-01 -3.740794e-01 -3.827311e-01 -3.903147e-01 -3.967055e-01 -4.017780e-01 -4.054081e-01 -4.074733e-01 -4.078552e-01 -4.064410e-01 -4.031248e-01 -3.978106e-01 -3.904138e-01 -3.808640e-01 -3.691072e-01 -3.551084e-01 -3.388546e-01 -3.203565e-01 -2.996513e-01 -2.768045e-01 -2.519111e-01 -2.250969e-01 -1.965180e-01 -1.663605e-01 -1.348383e-01 -1.021908e-01 -6.867893e-02 -3.458071e-02 -1.859507e-04 3.420948e-02 6.830970e-02 1.018249e-01 1.344770e-01 1.660050e-01 1.961695e-01 2.247565e-01 2.515798e-01 2.764832e-01 2.993410e-01 3.200578e-01 3.385682e-01 3.548349e-01 3.688469e-01 3.806174e-01 3.901811e-01 3.975918e-01 4.029200e-01 4.062501e-01 4.076782e-01 4.073097e-01 4.052577e-01 4.016404e-01 3.965801e-01 3.902012e-01 3.826287e-01 3.739876e-01 3.644010e-01 3.539897e-01 3.428709e-01 3.311580e-01 3.189592e-01 3.063779e-01 2.935111e-01 2.804502e-01 2.672797e-01 2.540778e-01 2.409155e-01 2.278573e-01 2.149606e-01 2.022759e-01 1.898472e-01 1.777115e-01 1.658998e-01 1.544365e-01 1.433403e-01 1.326242e-01 1.222957e-01 1.123572e-01 1.028065e-01 9.363692e-02 8.483755e-02 7.639383e-02 6.828774e-02 6.049811e-02 5.300103e-02 4.577004e-02 3.877655e-02 3.199005e-02 2.537845e-02 1.890834e-02 1.254526e-02 6.253958e-03 
-1.319026e-06 -6.438568e-03 -1.291340e-02 -1.946314e-02 -2.612461e-02 -3.293383e-02 -3.992574e-02 -4.713397e-02 -5.459050e-02 -6.232540e-02 -7.036652e-02 -7.873917e-02 -8.746581e-02 -9.656571e-02 -1.060547e-01 -1.159445e-01 -1.262431e-01 -1.369535e-01 -1.480740e-01 -1.595977e-01 -1.715121e-01 -1.837990e-01 -1.964338e-01 -2.093857e-01 -2.226172e-01 -2.360840e-01 -2.497347e-01 -2.635107e-01 -2.773465e-01 -2.911691e-01 -3.048985e-01 -3.184476e-01 -3.317225e-01 -3.446226e-01 -3.570411e-01 -3.688654e-01 -3.799775e-01 -3.902549e-01 -3.995707e-01 -4.077953e-01 -4.147963e-01 -4.204407e-01 -4.245950e-01 -4.271276e-01 -4.279096e-01 -4.268169e-01 -4.237322e-01 -4.185471e-01 -4.111644e-01 -4.015010e-01 -3.894907e-01 -3.750867e-01 -3.582654e-01 -3.390288e-01 -3.174075e-01 -2.934633e-01 -2.672914e-01 -2.390212e-01 -2.088171e-01 -1.768779e-01 -1.434351e-01 -1.087496e-01 -7.310807e-02 -3.681709e-02 -1.974582e-04 3.642290e-02 7.271603e-02 1.083612e-01 1.430516e-01 1.765007e-01 2.084474e-01 2.386602e-01 2.669402e-01 2.931230e-01 3.170788e-01 3.387127e-01 3.579625e-01 3.747976e-01 3.892159e-01 4.012409e-01 4.109191e-01 4.183168e-01 4.235169e-01 4.266165e-01 4.277239e-01 4.269564e-01 4.244379e-01 4.202972e-01 4.146661e-01 4.076776e-01 3.994650e-01 3.901604e-01 3.798936e-01 3.687913e-01 3.569761e-01 3.445659e-01 3.316735e-01 3.184056e-01 3.048627e-01 2.911389e-01 2.773212e-01 2.634897e-01 2.497174e-01 2.360700e-01 2.226060e-01 2.093768e-01 1.964268e-01 1.837935e-01 1.715079e-01 1.595945e-01 1.480715e-01 1.369516e-01 1.262416e-01 1.159433e-01 1.060535e-01 9.656457e-02 8.746462e-02 7.873788e-02 7.036509e-02 6.232381e-02 5.458874e-02 4.713203e-02 3.992364e-02 3.293157e-02 2.612222e-02 1.946065e-02 1.291082e-02 6.435946e-03 
-1.302524e-06 -6.606210e-03 -1.325025e-02 -1.997230e-02 -2.681072e-02 -3.380306e-02 -4.098580e-02 -4.839405e-02 -5.606127e-02 -6.401899e-02 -7.229646e-02 -8.092037e-02 -8.991451e-02 -9.929941e-02 -1.090921e-01 -1.193055e-01 -1.299484e-01 -1.410251e-01 -1.525345e-01 -1.644704e-01 -1.768211e-01 -1.895685e-01 -2.026886e-01 -2.161505e-01 -2.299166e-01 -2.439423e-01 -2.581755e-01 -2.725571e-01 -2.870201e-01 -3.014904e-01 -3.158862e-01 -3.301182e-01 -3.440902e-01 -3.576986e-01 -3.708334e-01 -3.833781e-01 -3.952103e-01 -4.062024e-01 -4.162220e-01 -4.251329e-01 -4.327957e-01 -4.390692e-01 -4.438110e-01 -4.468794e-01 -4.481347e-01 -4.474408e-01 -4.446675e-01 -4.396925e-01 -4.324045e-01 -4.227055e-01 -4.105144e-01 -3.957703e-01 -3.784359e-01 -3.585018e-01 -3.359893e-01 -3.109542e-01 -2.834895e-01 -2.537272e-01 -2.218395e-01 -1.880384e-01 -1.525743e-01 -1.157324e-01 -7.782824e-02 -3.920159e-02 -2.089683e-04 3.878443e-02 7.741341e-02 1.153214e-01 1.521687e-01 1.876396e-01 2.214487e-01 2.533458e-01 2.831187e-01 3.105950e-01 3.356426e-01 3.581686e-01 3.781169e-01 3.954660e-01 4.102254e-01 4.224322e-01 4.321471e-01 4.394511e-01 4.444421e-01 4.472314e-01 4.479410e-01 4.467012e-01 4.436478e-01 4.389206e-01 4.326611e-01 4.250117e-01 4.161135e-01 4.061058e-01 3.951250e-01 3.833032e-01 3.707681e-01 3.576421e-01 3.440417e-01 3.300770e-01 3.158514e-01 3.014615e-01 2.869963e-01 2.725376e-01 2.581599e-01 2.439300e-01 2.299071e-01 2.161433e-01 2.026833e-01 1.895647e-01 1.768184e-01 1.644687e-01 1.525334e-01 1.410244e-01 1.299481e-01 1.193052e-01 1.090918e-01 9.929908e-02 8.991402e-02 8.091968e-02 7.229554e-02 6.401782e-02 5.605985e-02 4.839238e-02 4.098390e-02 3.380096e-02 2.680844e-02 1.996988e-02 1.324773e-02 6.603626e-03 
-1.261771e-06 -6.757722e-03 -1.355482e-02 -2.043297e-02 -2.743201e-02 -3.459102e-02 -4.194795e-02 -4.953941e-02 -5.740031e-02 -6.556361e-02 -7.405999e-02 -8.291752e-02 -9.216131e-02 -1.018132e-01 -1.118915e-01 -1.224102e-01 -1.333794e-01 -1.448042e-01 -1.566846e-01 -1.690152e-01 -1.817850e-01 -1.949765e-01 -2.085661e-01 -2.225232e-01 -2.368104e-01 -2.513829e-01 -2.661884e-01 -2.811672e-01 -2.962517e-01 -3.113666e-01 -3.264287e-01 -3.413473e-01 -3.560238e-01 -3.703526e-01 -3.842204e-01 -3.975076e-01 -4.100878e-01 -4.218287e-01 -4.325928e-01 -4.422377e-01 -4.506171e-01 -4.575818e-01 -4.629803e-01 -4.666607e-01 -4.684719e-01 -4.682648e-01 -4.658952e-01 -4.612257e-01 -4.541283e-01 -4.444879e-01 -4.322057e-01 -4.172032e-01 -3.994265e-01 -3.788508e-01 -3.554847e-01 -3.293748e-01 -3.006092e-01 -2.693206e-01 -2.356880e-01 -1.999372e-01 -1.623388e-01 -1.232053e-01 -8.288574e-02 -4.175797e-02 -2.204478e-04 4.131791e-02 8.244819e-02 1.227719e-01 1.619111e-01 1.995168e-01 2.352763e-01 2.689189e-01 3.002188e-01 3.289969e-01 3.551203e-01 3.785008e-01 3.990916e-01 4.168841e-01 4.319029e-01 4.442018e-01 4.538592e-01 4.609737e-01 4.656604e-01 4.680469e-01 4.682708e-01 4.664761e-01 4.628117e-01 4.574286e-01 4.504789e-01 4.421137e-01 4.324823e-01 4.217309e-01 4.100018e-01 3.974326e-01 3.841555e-01 3.702969e-01 3.559766e-01 3.413076e-01 3.263957e-01 3.113396e-01 2.962299e-01 2.811500e-01 2.661751e-01 2.513728e-01 2.368031e-01 2.225182e-01 2.085629e-01 1.949747e-01 1.817843e-01 1.690153e-01 1.566852e-01 1.448051e-01 1.333805e-01 1.224112e-01 1.118923e-01 1.018139e-01 9.216169e-02 8.291757e-02 7.405971e-02 6.556297e-02 5.739933e-02 4.953810e-02 4.194634e-02 3.458914e-02 2.742991e-02 2.043068e-02 1.355241e-02 6.755225e-03 
-1.194166e-06 -6.891317e-03 -1.382354e-02 -2.083974e-02 -2.798125e-02 -3.528857e-02 -4.280113e-02 -5.055698e-02 -5.859247e-02 -6.694198e-02 -7.563758e-02 -8.470873e-02 -9.418191e-02 -1.040803e-01 -1.144233e-01 -1.252265e-01 -1.365009e-01 -1.482527e-01 -1.604830e-01 -1.731875e-01 -1.863558e-01 -1.999714e-01 -2.140111e-01 -2.284451e-01 -2.432361e-01 -2.583395e-01 -2.737032e-01 -2.892672e-01 -3.049635e-01 -3.207161e-01 -3.364411e-01 -3.520464e-01 -3.674320e-01 -3.824902e-01 -3.971057e-01 -4.111558e-01 -4.245109e-01 -4.370346e-01 -4.485847e-01 -4.590132e-01 -4.681673e-01 -4.758899e-01 -4.820208e-01 -4.863977e-01 -4.888574e-01 -4.892375e-01 -4.873783e-01 -4.831254e-01 -4.763322e-01 -4.668637e-01 -4.546000e-01 -4.394414e-01 -4.213127e-01 -4.001695e-01 -3.760032e-01 -3.488468e-01 -3.187801e-01 -2.859336e-01 -2.504919e-01 -2.126940e-01 -1.728332e-01 -1.312525e-01 -8.833926e-02 -4.451642e-02 -2.318659e-04 4.405359e-02 8.787914e-02 1.307968e-01 1.723837e-01 2.122524e-01 2.500595e-01 2.855121e-01 3.183707e-01 3.484507e-01 3.756215e-01 3.998031e-01 4.209625e-01 4.391080e-01 4.542841e-01 4.665655e-01 4.760521e-01 4.828635e-01 4.871346e-01 4.890118e-01 4.886496e-01 4.862074e-01 4.818476e-01 4.757331e-01 4.680262e-01 4.588872e-01 4.484729e-01 4.369362e-01 4.244250e-01 4.110815e-01 3.970420e-01 3.824362e-01 3.673867e-01 3.520090e-01 3.364107e-01 3.206918e-01 3.049446e-01 2.892529e-01 2.736928e-01 2.583324e-01 2.432316e-01 2.284428e-01 2.140105e-01 1.999721e-01 1.863574e-01 1.731897e-01 1.604856e-01 1.482554e-01 1.365035e-01 1.252290e-01 1.144255e-01 1.040821e-01 9.418333e-02 8.470969e-02 7.563807e-02 6.694199e-02 5.859203e-02 5.055612e-02 4.279989e-02 3.528699e-02 2.797938e-02 2.083765e-02 1.382129e-02 6.888962e-03 
-1.097043e-06 -7.005219e-03 -1.405285e-02 -2.118727e-02 -2.845122e-02 -3.588662e-02 -4.353431e-02 -5.143373e-02 -5.962265e-02 -6.813682e-02 -7.700972e-02 -8.627217e-02 -9.595199e-02 -1.060737e-01 -1.166581e-01 -1.277219e-01 -1.392774e-01 -1.513320e-01 -1.638881e-01 -1.769422e-01 -1.904850e-01 -2.045011e-01 -2.189679e-01 -2.338564e-01 -2.491300e-01 -2.647446e-01 -2.806483e-01 -2.967813e-01 -3.130756e-01 -3.294552e-01 -3.458355e-01 -3.621240e-01 -3.782196e-01 -3.940133e-01 -4.093882e-01 -4.242195e-01 -4.383748e-01 -4.517146e-01 -4.640926e-01 -4.753560e-01 -4.853458e-01 -4.938980e-01 -5.008437e-01 -5.060101e-01 -5.092221e-01 -5.103029e-01 -5.090765e-01 -5.053698e-01 -4.990151e-01 -4.898542e-01 -4.777425e-01 -4.625541e-01 -4.441879e-01 -4.225740e-01 -3.976807e-01 -3.695221e-01 -3.381646e-01 -3.037327e-01 -2.664140e-01 -2.264609e-01 -1.841904e-01 -1.399806e-01 -9.426360e-02 -4.751545e-02 -2.432075e-04 4.703001e-02 9.378107e-02 1.395029e-01 1.837193e-01 2.259982e-01 2.659614e-01 3.032917e-01 3.377365e-01 3.691083e-01 3.972822e-01 4.221918e-01 4.438230e-01 4.622071e-01 4.774139e-01 4.895445e-01 4.987246e-01 5.050986e-01 5.088247e-01 5.100703e-01 5.090084e-01 5.058150e-01 5.006665e-01 4.937383e-01 4.852028e-01 4.752289e-01 4.639805e-01 4.516166e-01 4.382899e-01 4.241467e-01 4.093266e-01 3.939618e-01 3.781772e-01 3.620897e-01 3.458084e-01 3.294344e-01 3.130602e-01 2.967705e-01 2.806414e-01 2.647409e-01 2.491289e-01 2.338574e-01 2.189705e-01 2.045047e-01 1.904894e-01 1.769470e-01 1.638930e-01 1.513369e-01 1.392820e-01 1.277262e-01 1.166619e-01 1.060770e-01 9.595465e-02 8.627420e-02 7.701114e-02 6.813763e-02 5.962288e-02 5.143343e-02 4.353353e-02 3.588542e-02 2.844966e-02 2.118544e-02 1.405082e-02 7.003066e-03 
-9.681037e-07 -7.097680e-03 -1.423923e-02 -2.147026e-02 -2.883483e-02 -3.637623e-02 -4.413663e-02 -5.215683e-02 -6.047595e-02 -6.913112e-02 -7.815715e-02 -8.758621e-02 -9.744749e-02 -1.077668e-01 -1.185664e-01 -1.298642e-01 -1.416738e-01 -1.540040e-01 -1.668582e-01 -1.802343e-01 -1.941242e-01 -2.085133e-01 -2.233804e-01 -2.386972e-01 -2.544280e-01 -2.705296e-01 -2.869508e-01 -3.036323e-01 -3.205066e-01 -3.374979e-01 -3.545219e-01 -3.714857e-01 -3.882883e-01 -4.048199e-01 -4.209627e-01 -4.365905e-01 -4.515694e-01 -4.657575e-01 -4.790052e-01 -4.911558e-01 -5.020453e-01 -5.115031e-01 -5.193524e-01 -5.254106e-01 -5.294903e-01 -5.314001e-01 -5.309467e-01 -5.279363e-01 -5.221778e-01 -5.134866e-01 -5.016885e-01 -4.866264e-01 -4.681666e-01 -4.462068e-01 -4.206851e-01 -3.915891e-01 -3.589650e-01 -3.229262e-01 -2.836594e-01 -2.414293e-01 -1.965788e-01 -1.495254e-01 -1.007540e-01 -5.080417e-02 -2.544614e-04 5.029630e-02 1.002493e-01 1.490259e-01 1.960864e-01 2.409460e-01 2.831868e-01 3.224660e-01 3.585187e-01 3.911580e-01 4.202704e-01 4.458095e-01 4.677876e-01 4.862664e-01 5.013481e-01 5.131662e-01 5.218778e-01 5.276567e-01 5.306876e-01 5.311613e-01 5.292715e-01 5.252115e-01 5.191724e-01 5.113415e-01 5.019013e-01 4.910285e-01 4.788938e-01 4.656609e-01 4.514866e-01 4.365204e-01 4.209041e-01 4.047718e-01 3.882496e-01 3.714555e-01 3.544990e-01 3.374814e-01 3.204956e-01 3.036259e-01 2.869482e-01 2.705301e-01 2.544310e-01 2.387020e-01 2.233866e-01 2.085204e-01 1.941318e-01 1.802421e-01 1.668659e-01 1.540114e-01 1.416808e-01 1.298706e-01 1.185721e-01 1.077717e-01 9.745160e-02 8.758950e-02 7.815965e-02 6.913285e-02 6.047697e-02 5.215719e-02 4.413640e-02 3.637549e-02 2.883367e-02 2.146876e-02 1.423749e-02 7.095793e-03 
-8.050432e-07 -7.167000e-03 -1.437929e-02 -2.168356e-02 -2.912517e-02 -3.674866e-02 -4.459749e-02 -5.271375e-02 -6.113785e-02 -6.990823e-02 -7.906102e-02 -8.862972e-02 -9.864485e-02 -1.091336e-01 -1.201195e-01 -1.316218e-01 -1.436556e-01 -1.562308e-01 -1.693524e-01 -1.830194e-01 -1.972251e-01 -2.119562e-01 -2.271926e-01 -2.429074e-01 -2.590659e-01 -2.756261e-01 -2.925378e-01 -3.097426e-01 -3.271742e-01 -3.447573e-01 -3.624084e-01 -3.800353e-01 -3.975372e-01 -4.148047e-01 -4.317200e-01 -4.481566e-01 -4.639797e-01 -4.790461e-01 -4.932045e-01 -5.062951e-01 -5.181503e-01 -5.285940e-01 -5.374423e-01 -5.445036e-01 -5.495786e-01 -5.524614e-01 -5.529404e-01 -5.507999e-01 -5.458226e-01 -5.377936e-01 -5.265045e-01 -5.117603e-01 -4.933871e-01 -4.712417e-01 -4.452222e-01 -4.152803e-01 -3.814330e-01 -3.437747e-01 -3.024863e-01 -2.578421e-01 -2.102124e-01 -1.600601e-01 -1.079323e-01 -5.444549e-02 -2.656391e-04 5.391535e-02 1.074056e-01 1.595390e-01 2.096990e-01 2.573384e-01 3.019942e-01 3.432959e-01 3.809690e-01 4.148325e-01 4.447918e-01 4.708298e-01 4.929946e-01 5.113879e-01 5.261529e-01 5.374632e-01 5.455138e-01 5.505126e-01 5.526748e-01 5.522174e-01 5.493557e-01 5.443014e-01 5.372603e-01 5.284313e-01 5.180062e-01 5.061687e-01 4.930947e-01 4.789519e-01 4.638999e-01 4.480900e-01 4.316655e-01 4.147611e-01 3.975033e-01 3.800100e-01 3.623905e-01 3.447459e-01 3.271683e-01 3.097413e-01 2.925402e-01 2.756315e-01 2.590736e-01 2.429167e-01 2.272031e-01 2.119673e-01 1.972365e-01 1.830307e-01 1.693633e-01 1.562412e-01 1.436652e-01 1.316305e-01 1.201272e-01 1.091404e-01 9.865062e-02 8.863446e-02 7.906477e-02 6.991105e-02 6.113979e-02 5.271490e-02 4.459793e-02 3.674848e-02 2.912448e-02 2.168247e-02 1.437791e-02 7.165448e-03 
-6.060398e-07 -7.211547e-03 -1.446974e-02 -2.182225e-02 -2.931561e-02 -3.699554e-02 -4.490672e-02 -5.309244e-02 -6.159434e-02 -7.045211e-02 -7.970315e-02 -8.938226e-02 -9.952126e-02 -1.101487e-01 -1.212893e-01 -1.329640e-01 -1.451890e-01 -1.579757e-01 -1.713306e-01 -1.852540e-01 -1.997407e-01 -2.147787e-01 -2.303497e-01 -2.464278e-01 -2.629802e-01 -2.799659e-01 -2.973364e-01 -3.150347e-01 -3.329957e-01 -3.511456e-01 -3.694023e-01 -3.876748e-01 -4.058635e-01 -4.238603e-01 -4.415481e-01 -4.588012e-01 -4.754854e-01 -4.914576e-01 -5.065658e-01 -5.206490e-01 -5.335370e-01 -5.450502e-01 -5.549989e-01 -5.631837e-01 -5.693943e-01 -5.734108e-01 -5.750028e-01 -5.739316e-01 -5.699513e-01 -5.628128e-01 -5.522678e-01 -5.380761e-01 -5.200146e-01 -4.978881e-01 -4.715428e-01 -4.408818e-01 -4.058809e-01 -3.666045e-01 -3.232196e-01 -2.760066e-01 -2.253638e-01 -1.718060e-01 -1.159547e-01 -5.852019e-02 -2.767563e-04 5.796791e-02 1.154061e-01 1.712635e-01 2.248296e-01 2.754829e-01 3.227084e-01 3.661075e-01 4.053998e-01 4.404179e-01 4.710975e-01 4.974623e-01 5.196094e-01 5.376922e-01 5.519058e-01 5.624732e-01 5.696344e-01 5.736375e-01 5.747316e-01 5.731623e-01 5.691682e-01 5.629794e-01 5.548159e-01 5.448876e-01 5.333940e-01 5.205246e-01 5.064588e-01 4.913669e-01 4.754098e-01 4.587394e-01 4.414987e-01 4.238222e-01 4.058354e-01 3.876555e-01 3.693906e-01 3.511404e-01 3.329959e-01 3.150394e-01 2.973446e-01 2.799769e-01 2.629932e-01 2.464423e-01 2.303650e-01 2.147944e-01 1.997563e-01 1.852692e-01 1.713451e-01 1.579894e-01 1.452016e-01 1.329754e-01 1.212995e-01 1.101576e-01 9.952891e-02 8.938866e-02 7.970835e-02 7.045617e-02 6.159734e-02 5.309449e-02 4.490793e-02 3.699602e-02 2.931548e-02 2.182166e-02 1.446880e-02 7.210404e-03 
-3.693285e-07 -7.229777e-03 -1.450749e-02 -2.188165e-02 -2.939985e-02 -3.710893e-02 -4.505465e-02 -5.328145e-02 -6.183211e-02 -7.074751e-02 -8.006625e-02 -8.982436e-02 -1.000550e-01 -1.107879e-01 -1.220492e-01 -1.338613e-01 -1.462416e-01 -1.592033e-01 -1.727540e-01 -1.868959e-01 -2.016251e-01 -2.169315e-01 -2.327980e-01 -2.492008e-01 -2.661086e-01 -2.834822e-01 -3.012750e-01 -3.194317e-01 -3.378892e-01 -3.565757e-01 -3.754109e-01 -3.943060e-01 -4.131634e-01 -4.318771e-01 -4.503320e-01 -4.684046e-01 -4.859624e-01 -5.028638e-01 -5.189580e-01 -5.340846e-01 -5.480729e-01 -5.607413e-01 -5.718969e-01 -5.813337e-01 -5.888328e-01 -5.941606e-01 -5.970689e-01 -5.972949e-01 -5.945623e-01 -5.885837e-01 -5.790651e-01 -5.657128e-01 -5.482433e-01 -5.263961e-01 -4.999504e-01 -4.687441e-01 -4.326951e-01 -3.918230e-01 -3.462692e-01 -2.963130e-01 -2.423810e-01 -1.850470e-01 -1.250222e-01 -6.313250e-02 -2.878583e-04 6.255813e-02 1.244518e-01 1.844833e-01 2.418263e-01 2.957696e-01 3.457393e-01 3.913083e-01 4.321974e-01 4.682648e-01 4.994908e-01 5.259572e-01 5.478261e-01 5.653181e-01 5.786935e-01 5.882357e-01 5.942382e-01 5.969949e-01 5.967929e-01 5.939085e-01 5.886043e-01 5.811284e-01 5.717139e-01 5.605799e-01 5.479320e-01 5.339632e-01 5.188549e-01 5.027777e-01 4.858920e-01 4.683486e-01 4.502890e-01 4.318456e-01 4.131422e-01 3.942937e-01 3.754062e-01 3.565775e-01 3.378964e-01 3.194432e-01 3.012899e-01 2.834997e-01 2.661278e-01 2.492211e-01 2.328188e-01 2.169523e-01 2.016455e-01 1.869156e-01 1.727727e-01 1.592207e-01 1.462576e-01 1.338757e-01 1.220622e-01 1.107992e-01 1.000647e-01 8.983262e-02 8.007306e-02 7.075297e-02 6.183633e-02 5.328454e-02 4.505675e-02 3.711017e-02 2.940039e-02 2.188163e-02 1.450707e-02 7.229118e-03 
-9.374226e-08 -7.220252e-03 -1.448966e-02 -2.185740e-02 -2.937205e-02 -3.708142e-02 -4.503228e-02 -5.327010e-02 -6.183874e-02 -7.078014e-02 -8.013407e-02 -8.993774e-02 -1.002255e-01 -1.110284e-01 -1.223740e-01 -1.342858e-01 -1.467829e-01 -1.598800e-01 -1.735861e-01 -1.879051e-01 -2.028348e-01 -2.183669e-01 -2.344862e-01 -2.511706e-01 -2.683909e-01 -2.861101e-01 -3.042836e-01 -3.228586e-01 -3.417742e-01 -3.609612e-01 -3.803420e-01 -3.998306e-01 -4.193325e-01 -4.387446e-01 -4.579552e-01 -4.768441e-01 -4.952821e-01 -5.131311e-01 -5.302433e-01 -5.464610e-01 -5.616154e-01 -5.755258e-01 -5.879980e-01 -5.988230e-01 -6.077748e-01 -6.146088e-01 -6.190602e-01 -6.208424e-01 -6.196470e-01 -6.151451e-01 -6.069906e-01 -5.948271e-01 -5.782980e-01 -5.570614e-01 -5.308098e-01 -4.992945e-01 -4.623530e-01 -4.199392e-01 -3.721515e-01 -3.192575e-01 -2.617096e-01 -2.001488e-01 -1.353945e-01 -6.841744e-02 -2.989905e-04 6.782094e-02 1.348025e-01 1.995640e-01 2.611346e-01 3.186948e-01 3.716033e-01 4.194074e-01 4.618394e-01 4.988004e-01 5.303366e-01 5.566100e-01 5.778695e-01 5.944223e-01 6.066101e-01 6.147893e-01 6.193164e-01 6.205372e-01 6.187804e-01 6.143542e-01 6.075449e-01 5.986174e-01 5.878160e-01 5.753665e-01 5.614778e-01 5.463438e-01 5.301453e-01 5.130509e-01 4.952183e-01 4.767952e-01 4.579197e-01 4.387209e-01 4.193193e-01 3.998265e-01 3.803456e-01 3.609712e-01 3.417894e-01 3.228779e-01 3.043061e-01 2.861349e-01 2.684171e-01 2.511975e-01 2.345132e-01 2.183935e-01 2.028606e-01 1.879297e-01 1.736092e-01 1.599015e-01 1.468027e-01 1.343036e-01 1.223899e-01 1.110424e-01 1.002376e-01 8.994807e-02 8.014270e-02 7.078717e-02 6.184430e-02 5.327436e-02 4.503538e-02 3.708352e-02 2.937333e-02 2.185804e-02 1.448984e-02 7.220157e-03 
2.217591e-07 -7.181663e-03 -1.441361e-02 -2.174553e-02 -2.922685e-02 -3.690624e-02 -4.483137e-02 -5.304862e-02 -6.160281e-02 -7.053690e-02 -7.989171e-02 -8.970555e-02 -1.000139e-01 -1.108492e-01 -1.222401e-01 -1.342116e-01 -1.467843e-01 -1.599742e-01 -1.737922e-01 -1.882438e-01 -2.033286e-01 -2.190401e-01 -2.353653e-01 -2.522842e-01 -2.697697e-01 -2.877874e-01 -3.062951e-01 -3.252427e-01 -3.445724e-01 -3.642180e-01 -3.841054e-01 -4.041520e-01 -4.242672e-01 -4.443523e-01 -4.643000e-01 -4.839949e-01 -5.033130e-01 -5.221212e-01 -5.402774e-01 -5.576289e-01 -5.740117e-01 -5.892491e-01 -6.031493e-01 -6.155035e-01 -6.260826e-01 -6.346341e-01 -6.408790e-01 -6.445087e-01 -6.451826e-01 -6.425275e-01 -6.361397e-01 -6.255897e-01 -6.104335e-01 -5.902280e-01 -5.645551e-01 -5.330508e-01 -4.954425e-01 -4.515886e-01 -4.015195e-01 -3.454735e-01 -2.839231e-01 -2.175849e-01 -1.474100e-01 -7.455123e-02 -3.102359e-04 7.393240e-02 1.467961e-01 2.169789e-01 2.833279e-01 3.448917e-01 4.009534e-01 4.510402e-01 4.949135e-01 5.325425e-01 5.640689e-01 5.897649e-01 6.099944e-01 6.251754e-01 6.357509e-01 6.421647e-01 6.448462e-01 6.441989e-01 6.405959e-01 6.343775e-01 6.258522e-01 6.152988e-01 6.029694e-01 5.890931e-01 5.738784e-01 5.575171e-01 5.401857e-01 5.220482e-01 5.032569e-01 4.839543e-01 4.642732e-01 4.443377e-01 4.242633e-01 4.041572e-01 3.841182e-01 3.642372e-01 3.445967e-01 3.252709e-01 3.063260e-01 2.878202e-01 2.698036e-01 2.523184e-01 2.353992e-01 2.190731e-01 2.033603e-01 1.882739e-01 1.738204e-01 1.600003e-01 1.468082e-01 1.342332e-01 1.222593e-01 1.108661e-01 1.000287e-01 8.971818e-02 7.990234e-02 7.054568e-02 6.160988e-02 5.305417e-02 4.483559e-02 3.690931e-02 2.922898e-02 2.174692e-02 1.441447e-02 7.182213e-03 
5.775161e-07 -7.112847e-03 -1.427700e-02 -2.154251e-02 -2.895949e-02 -3.657736e-02 -4.444456e-02 -5.260825e-02 -6.111413e-02 -7.000604e-02 -7.932576e-02 -8.911263e-02 -9.940326e-02 -1.102312e-01 -1.216264e-01 -1.336152e-01 -1.462197e-01 -1.594574e-01 -1.733409e-01 -1.878774e-01 -2.030685e-01 -2.189096e-01 -2.353900e-01 -2.524920e-01 -2.701910e-01 -2.884553e-01 -3.072455e-01 -3.265149e-01 -3.462089e-01 -3.662650e-01 -3.866132e-01 -4.071753e-01 -4.278656e-01 -4.485905e-01 -4.692488e-01 -4.897312e-01 -5.099207e-01 -5.296917e-01 -5.489097e-01 -5.674303e-01 -5.850978e-01 -6.017430e-01 -6.171811e-01 -6.312079e-01 -6.435960e-01 -6.540902e-01 -6.624018e-01 -6.682036e-01 -6.711244e-01 -6.707461e-01 -6.666019e-01 -6.581799e-01 -6.449320e-01 -6.262914e-01 -6.016983e-01 -5.706378e-01 -5.326860e-01 -4.875647e-01 -4.351994e-01 -3.757717e-01 -3.097626e-01 -2.379717e-01 -1.615110e-01 -8.176510e-02 -3.216664e-04 8.112359e-02 1.608749e-01 2.373444e-01 3.091473e-01 3.751711e-01 4.346158e-01 4.870002e-01 5.321422e-01 5.701160e-01 6.011999e-01 6.258171e-01 6.444830e-01 6.577567e-01 6.662053e-01 6.703768e-01 6.707828e-01 6.678899e-01 6.621162e-01 6.538325e-01 6.433659e-01 6.310048e-01 6.170042e-01 6.015913e-01 5.849701e-01 5.673252e-01 5.488256e-01 5.296270e-01 5.098737e-01 4.897002e-01 4.692320e-01 4.485863e-01 4.278722e-01 4.071910e-01 3.866365e-01 3.662946e-01 3.462433e-01 3.265529e-01 3.072859e-01 2.884971e-01 2.702334e-01 2.525342e-01 2.354314e-01 2.189497e-01 2.031067e-01 1.879135e-01 1.733746e-01 1.594885e-01 1.462481e-01 1.336409e-01 1.216493e-01 1.102514e-01 9.942089e-02 8.912779e-02 7.933860e-02 7.001673e-02 6.112287e-02 5.261525e-02 4.445002e-02 3.658152e-02 2.896257e-02 2.154475e-02 1.427864e-02 7.114123e-03 
9.736709e-07 -7.012806e-03 -1.407784e-02 -2.124530e-02 -2.856589e-02 -3.608961e-02 -4.386551e-02 -5.194146e-02 -6.036385e-02 -6.917734e-02 -7.842455e-02 -8.814575e-02 -9.837856e-02 -1.091576e-01 -1.205142e-01 -1.324758e-01 -1.450660e-01 -1.583039e-01 -1.722038e-01 -1.867746e-01 -2.020200e-01 -2.179375e-01 -2.345187e-01 -2.517485e-01 -2.696050e-01 -2.880593e-01 -3.070755e-01 -3.266103e-01 -3.466128e-01 -3.670251e-01 -3.877815e-01 -4.088093e-01 -4.300284e-01 -4.513517e-01 -4.726850e-01 -4.939270e-01 -5.149694e-01 -5.356964e-01 -5.559839e-01 -5.756991e-01 -5.946981e-01 -6.128241e-01 -6.299041e-01 -6.457448e-01 -6.601270e-01 -6.727994e-01 -6.834706e-01 -6.918008e-01 -6.973932e-01 -6.997860e-01 -6.984470e-01 -6.927728e-01 -6.820947e-01 -6.656946e-01 -6.428351e-01 -6.128026e-01 -5.749677e-01 -5.288581e-01 -4.742395e-01 -4.111953e-01 -3.401921e-01 -2.621177e-01 -1.782814e-01 -9.036544e-02 -3.334010e-04 8.970070e-02 1.776227e-01 2.614689e-01 3.395565e-01 4.105760e-01 4.736389e-01 5.282780e-01 5.744098e-01 6.122681e-01 6.423250e-01 6.652098e-01 6.816360e-01 6.923411e-01 6.980430e-01 6.994104e-01 6.970465e-01 6.914834e-01 6.831828e-01 6.725410e-01 6.598978e-01 6.455441e-01 6.297311e-01 6.126777e-01 5.945769e-01 5.756017e-01 5.559086e-01 5.356414e-01 5.149329e-01 4.939070e-01 4.726796e-01 4.513592e-01 4.300468e-01 4.088369e-01 3.878166e-01 3.670661e-01 3.466584e-01 3.266591e-01 3.071263e-01 2.881111e-01 2.696568e-01 2.517996e-01 2.345684e-01 2.179853e-01 2.020653e-01 1.868172e-01 1.722434e-01 1.583405e-01 1.450994e-01 1.325059e-01 1.205410e-01 1.091814e-01 9.839930e-02 8.816365e-02 7.843979e-02 6.919013e-02 6.037441e-02 5.195002e-02 4.387234e-02 3.609495e-02 2.857002e-02 2.124848e-02 1.408034e-02 7.014890e-03 
1.409586e-06 -6.880725e-03 -1.381449e-02 -2.085143e-02 -2.804269e-02 -3.543869e-02 -4.308899e-02 -5.104199e-02 -5.934466e-02 -6.804232e-02 -7.717832e-02 -8.679378e-02 -9.692723e-02 -1.076143e-01 -1.188875e-01 -1.307755e-01 -1.433033e-01 -1.564916e-01 -1.703562e-01 -1.849081e-01 -2.001529e-01 -2.160904e-01 -2.327146e-01 -2.500130e-01 -2.679668e-01 -2.865502e-01 -3.057308e-01 -3.254691e-01 -3.457187e-01 -3.664262e-01 -3.875315e-01 -4.089675e-01 -4.306608e-01 -4.525318e-01 -4.744947e-01 -4.964576e-01 -5.183230e-01 -5.399869e-01 -5.613389e-01 -5.822608e-01 -6.026251e-01 -6.222924e-01 -6.411078e-01 -6.588960e-01 -6.754544e-01 -6.905447e-01 -7.038827e-01 -7.151259e-01 -7.238603e-01 -7.295865e-01 -7.317083e-01 -7.295242e-01 -7.222286e-01 -7.089234e-01 -6.886485e-01 -6.604323e-01 -6.233668e-01 -5.767048e-01 -5.199736e-01 -4.530918e-01 -3.764727e-01 -2.910915e-01 -1.984981e-01 -1.007615e-01 -3.455231e-04 1.000728e-01 1.978163e-01 2.904209e-01 3.758170e-01 4.524540e-01 5.193563e-01 5.761098e-01 6.227954e-01 6.598855e-01 6.881273e-01 7.084284e-01 7.217607e-01 7.290842e-01 7.312969e-01 7.292047e-01 7.235087e-01 7.148051e-01 7.035929e-01 6.902860e-01 6.752265e-01 6.586984e-01 6.409395e-01 6.221522e-01 6.025116e-01 5.821723e-01 5.612736e-01 5.399429e-01 5.182982e-01 4.964500e-01 4.745021e-01 4.525523e-01 4.306923e-01 4.090081e-01 3.875795e-01 3.664800e-01 3.457766e-01 3.255298e-01 3.057930e-01 2.866128e-01 2.680288e-01 2.500738e-01 2.327733e-01 2.161465e-01 2.002060e-01 1.849578e-01 1.704023e-01 1.565340e-01 1.433420e-01 1.308104e-01 1.189186e-01 1.076419e-01 9.695135e-02 8.681465e-02 7.719616e-02 6.805736e-02 5.935718e-02 5.105226e-02 4.309731e-02 3.544533e-02 2.804796e-02 2.085563e-02 1.381792e-02 6.883697e-03 