# vtk DataFile Version 2.0
Comment goes here
ASCII

DATASET STRUCTURED_POINTS
DIMENSIONS    128   128   1

ORIGIN    0.000   0.000   0.000
SPACING   0.00781250.0078125   1.000

POINT_DATA   16384
SCALARS P double
LOOKUP_TABLE default

-1.396423e-01 -1.443661e-01 -1.396243e-01 -1.442988e-01 -1.395730e-01 -1.441640e-01 -1.394872e-01 -1.439602e-01 -1.393652e-01 -1.436850e-01 -1.392043e-01 -1.433351e-01 -1.390009e-01 -1.429062e-01 -1.387505e-01 -1.423930e-01 -1.384470e-01 -1.417887e-01 -1.380830e-01 -1.410851e-01 -1.376489e-01 -1.402723e-01 -1.371333e-01 -1.393379e-01 -1.365218e-01 -1.382676e-01 -1.357971e-01 -1.370437e-01 -1.349383e-01 -1.356457e-01 -1.339204e-01 -1.340499e-01 -1.327148e-01 -1.322291e-01 -1.312891e-01 -1.301541e-01 -1.296079e-01 -1.277944e-01 -1.276355e-01 -1.251211e-01 -1.253383e-01 -1.221109e-01 -1.226903e-01 -1.187517e-01 -1.196794e-01 -1.150496e-01 -1.163155e-01 -1.110374e-01 -1.126394e-01 -1.067829e-01 -1.087311e-01 -1.023956e-01 -1.047150e-01 -9.802956e-02 -1.007603e-01 -9.387908e-02 -9.707334e-02 -9.016703e-02 -9.388096e-02 -8.712382e-02 -9.140598e-02 -8.496008e-02 -8.983770e-02 -8.383744e-02 -8.930350e-02 -8.384372e-02 -8.984821e-02 -8.497860e-02 -9.142660e-02 -8.715370e-02 -9.391094e-02 -9.020689e-02 -9.711166e-02 -9.392718e-02 -1.008057e-01 -9.808396e-02 -1.047662e-01 -1.024543e-01 -1.087867e-01 -1.068440e-01 -1.126981e-01 -1.110991e-01 -1.163760e-01 -1.151104e-01 -1.197407e-01 -1.188105e-01 -1.227514e-01 -1.221667e-01 -1.253984e-01 -1.251731e-01 -1.276940e-01 -1.278423e-01 -1.296643e-01 -1.301977e-01 -1.313429e-01 -1.322684e-01 -1.327658e-01 -1.340849e-01 -1.339683e-01 -1.356766e-01 -1.349829e-01 -1.370708e-01 -1.358384e-01 -1.382911e-01 -1.365598e-01 -1.393583e-01 -1.371679e-01 -1.402897e-01 -1.376801e-01 -1.410999e-01 -1.381109e-01 -1.418012e-01 -1.384716e-01 -1.424034e-01 -1.387719e-01 -1.429148e-01 -1.390192e-01 -1.433420e-01 -1.392193e-01 -1.436904e-01 -1.393772e-01 -1.439643e-01 -1.394961e-01 -1.441669e-01 -1.395789e-01 -1.443005e-01 -1.396273e-01 -1.443666e-01 
-1.403183e-01 -1.454857e-01 -1.402965e-01 -1.454090e-01 -1.402269e-01 -1.452512e-01 -1.401075e-01 -1.450096e-01 -1.399350e-01 -1.446796e-01 -1.397046e-01 -1.442552e-01 -1.394100e-01 -1.437288e-01 -1.390433e-01 -1.430908e-01 -1.385945e-01 -1.423297e-01 -1.380516e-01 -1.414320e-01 -1.374005e-01 -1.403817e-01 -1.366244e-01 -1.391604e-01 -1.357037e-01 -1.377471e-01 -1.346157e-01 -1.361181e-01 -1.333348e-01 -1.342469e-01 -1.318319e-01 -1.321046e-01 -1.300753e-01 -1.296602e-01 -1.280310e-01 -1.268820e-01 -1.256640e-01 -1.237393e-01 -1.229410e-01 -1.202054e-01 -1.198334e-01 -1.162622e-01 -1.163230e-01 -1.119056e-01 -1.124081e-01 -1.071538e-01 -1.081119e-01 -1.020555e-01 -1.034919e-01 -9.669899e-02 -9.864740e-02 -9.121944e-02 -9.372618e-02 -8.580197e-02 -8.892397e-02 -8.067763e-02 -8.447685e-02 -7.610999e-02 -8.064334e-02 -7.237158e-02 -7.767722e-02 -6.971212e-02 -7.579449e-02 -6.832394e-02 -7.514108e-02 -6.831215e-02 -7.576895e-02 -6.967723e-02 -7.762730e-02 -7.231502e-02 -8.057130e-02 -7.603396e-02 -8.438577e-02 -8.058492e-02 -8.881749e-02 -8.569572e-02 -9.360820e-02 -9.110289e-02 -9.852181e-02 -9.657530e-02 -1.033623e-01 -1.019276e-01 -1.079816e-01 -1.070243e-01 -1.122797e-01 -1.117767e-01 -1.161988e-01 -1.161356e-01 -1.197150e-01 -1.200827e-01 -1.228295e-01 -1.236215e-01 -1.255602e-01 -1.267699e-01 -1.279353e-01 -1.295545e-01 -1.299878e-01 -1.320056e-01 -1.317525e-01 -1.341549e-01 -1.332632e-01 -1.360331e-01 -1.345516e-01 -1.376691e-01 -1.356467e-01 -1.390894e-01 -1.365740e-01 -1.403175e-01 -1.373564e-01 -1.413746e-01 -1.380132e-01 -1.422790e-01 -1.385614e-01 -1.430465e-01 -1.390152e-01 -1.436907e-01 -1.393866e-01 -1.442233e-01 -1.396855e-01 -1.446536e-01 -1.399199e-01 -1.449895e-01 -1.400964e-01 -1.452370e-01 -1.402195e-01 -1.454004e-01 -1.402928e-01 -1.454829e-01 
-1.404966e-01 -1.454248e-01 -1.404823e-01 -1.453654e-01 -1.404424e-01 -1.452463e-01 -1.403760e-01 -1.450658e-01 -1.402814e-01 -1.448216e-01 -1.401562e-01 -1.445105e-01 -1.399968e-01 -1.441281e-01 -1.397989e-01 -1.436689e-01 -1.395567e-01 -1.431261e-01 -1.392626e-01 -1.424911e-01 -1.389072e-01 -1.417531e-01 -1.384783e-01 -1.408990e-01 -1.379608e-01 -1.399125e-01 -1.373354e-01 -1.387735e-01 -1.365784e-01 -1.374578e-01 -1.356607e-01 -1.359359e-01 -1.345472e-01 -1.341734e-01 -1.331967e-01 -1.321306e-01 -1.315622e-01 -1.297640e-01 -1.295927e-01 -1.270287e-01 -1.272369e-01 -1.238825e-01 -1.244480e-01 -1.202933e-01 -1.211932e-01 -1.162483e-01 -1.174638e-01 -1.117660e-01 -1.132888e-01 -1.069092e-01 -1.087483e-01 -1.017969e-01 -1.039841e-01 -9.661161e-02 -9.920375e-02 -9.159768e-02 -9.467336e-02 -8.704720e-02 -9.069693e-02 -8.327205e-02 -8.758140e-02 -8.056420e-02 -8.559289e-02 -7.915147e-02 -8.491291e-02 -7.915888e-02 -8.560578e-02 -8.058601e-02 -8.760665e-02 -8.330708e-02 -9.073354e-02 -8.709363e-02 -9.471996e-02 -9.165323e-02 -9.925873e-02 -9.667379e-02 -1.040458e-01 -1.018632e-01 -1.088149e-01 -1.069773e-01 -1.133587e-01 -1.118338e-01 -1.175355e-01 -1.163140e-01 -1.212655e-01 -1.203556e-01 -1.245198e-01 -1.239405e-01 -1.273072e-01 -1.270817e-01 -1.296609e-01 -1.298119e-01 -1.316275e-01 -1.321731e-01 -1.332589e-01 -1.342107e-01 -1.346059e-01 -1.359683e-01 -1.357157e-01 -1.374856e-01 -1.366296e-01 -1.387972e-01 -1.373827e-01 -1.399325e-01 -1.380041e-01 -1.409157e-01 -1.385178e-01 -1.417669e-01 -1.389428e-01 -1.425024e-01 -1.392944e-01 -1.431353e-01 -1.395847e-01 -1.436763e-01 -1.398232e-01 -1.441339e-01 -1.400175e-01 -1.445150e-01 -1.401733e-01 -1.448251e-01 -1.402951e-01 -1.450683e-01 -1.403862e-01 -1.452480e-01 -1.404492e-01 -1.453664e-01 -1.404857e-01 -1.454251e-01 
-1.416281e-01 -1.470413e-01 -1.416112e-01 -1.469753e-01 -1.415565e-01 -1.468385e-01 -1.414620e-01 -1.466280e-01 -1.413244e-01 -1.463390e-01 -1.411386e-01 -1.459651e-01 -1.408981e-01 -1.454980e-01 -1.405944e-01 -1.449274e-01 -1.402172e-01 -1.442408e-01 -1.397535e-01 -1.434230e-01 -1.391878e-01 -1.424563e-01 -1.385016e-01 -1.413196e-01 -1.376729e-01 -1.399886e-01 -1.366756e-01 -1.384351e-01 -1.354794e-01 -1.366267e-01 -1.340493e-01 -1.345270e-01 -1.323455e-01 -1.320956e-01 -1.303236e-01 -1.292887e-01 -1.279359e-01 -1.260611e-01 -1.251332e-01 -1.223689e-01 -1.218689e-01 -1.181746e-01 -1.181048e-01 -1.134545e-01 -1.138195e-01 -1.082082e-01 -1.090195e-01 -1.024713e-01 -1.037524e-01 -9.632937e-02 -9.812067e-02 -8.993034e-02 -9.229271e-02 -8.349317e-02 -8.650741e-02 -7.730670e-02 -8.106729e-02 -7.171479e-02 -7.631645e-02 -6.708501e-02 -7.260281e-02 -6.376300e-02 -7.022911e-02 -6.201989e-02 -6.940284e-02 -6.200547e-02 -7.019843e-02 -6.372040e-02 -7.254305e-02 -6.701615e-02 -7.623059e-02 -7.162261e-02 -8.095941e-02 -7.719490e-02 -8.638228e-02 -8.336582e-02 -9.215532e-02 -8.979159e-02 -9.797589e-02 -9.618316e-02 -1.036047e-01 -1.023212e-01 -1.088726e-01 -1.080572e-01 -1.136766e-01 -1.133052e-01 -1.179683e-01 -1.180291e-01 -1.217404e-01 -1.222286e-01 -1.250138e-01 -1.259272e-01 -1.278261e-01 -1.291620e-01 -1.302237e-01 -1.319766e-01 -1.322553e-01 -1.344160e-01 -1.339685e-01 -1.365238e-01 -1.354074e-01 -1.383404e-01 -1.366119e-01 -1.399020e-01 -1.376168e-01 -1.412409e-01 -1.384526e-01 -1.423854e-01 -1.391453e-01 -1.433597e-01 -1.397168e-01 -1.441848e-01 -1.401859e-01 -1.448786e-01 -1.405681e-01 -1.454562e-01 -1.408762e-01 -1.459300e-01 -1.411209e-01 -1.463105e-01 -1.413105e-01 -1.466060e-01 -1.414519e-01 -1.468229e-01 -1.415498e-01 -1.469659e-01 -1.416078e-01 -1.470382e-01 
-1.413780e-01 -1.465445e-01 -1.413679e-01 -1.464941e-01 -1.413409e-01 -1.463926e-01 -1.412962e-01 -1.462386e-01 -1.412325e-01 -1.460299e-01 -1.411475e-01 -1.457633e-01 -1.410382e-01 -1.454347e-01 -1.409007e-01 -1.450387e-01 -1.407297e-01 -1.445687e-01 -1.405180e-01 -1.440159e-01 -1.402566e-01 -1.433696e-01 -1.399335e-01 -1.426160e-01 -1.395332e-01 -1.417378e-01 -1.390355e-01 -1.407129e-01 -1.384144e-01 -1.395136e-01 -1.376370e-01 -1.381053e-01 -1.366619e-01 -1.364457e-01 -1.354386e-01 -1.344837e-01 -1.339068e-01 -1.321605e-01 -1.319973e-01 -1.294108e-01 -1.296354e-01 -1.261679e-01 -1.267471e-01 -1.223712e-01 -1.232685e-01 -1.179789e-01 -1.191613e-01 -1.129838e-01 -1.144312e-01 -1.074335e-01 -1.091490e-01 -1.014504e-01 -1.034703e-01 -9.524664e-02 -9.764651e-02 -8.912824e-02 -9.202133e-02 -8.348018e-02 -8.700516e-02 -7.872931e-02 -8.302640e-02 -7.528658e-02 -8.046538e-02 -7.347894e-02 -7.958560e-02 -7.348788e-02 -8.048119e-02 -7.531285e-02 -8.305728e-02 -7.877129e-02 -8.704976e-02 -8.353541e-02 -9.207780e-02 -8.919370e-02 -9.771274e-02 -9.531909e-02 -1.035441e-01 -1.015266e-01 -1.092282e-01 -1.075106e-01 -1.145137e-01 -1.130592e-01 -1.192455e-01 -1.180508e-01 -1.233528e-01 -1.224381e-01 -1.268303e-01 -1.262288e-01 -1.297166e-01 -1.294652e-01 -1.320755e-01 -1.322083e-01 -1.339816e-01 -1.345251e-01 -1.355095e-01 -1.364809e-01 -1.367286e-01 -1.381348e-01 -1.376993e-01 -1.395380e-01 -1.384722e-01 -1.407328e-01 -1.390888e-01 -1.417537e-01 -1.395820e-01 -1.426286e-01 -1.399779e-01 -1.433794e-01 -1.402965e-01 -1.440233e-01 -1.405536e-01 -1.445742e-01 -1.407610e-01 -1.450428e-01 -1.409279e-01 -1.454376e-01 -1.410613e-01 -1.457653e-01 -1.411666e-01 -1.460312e-01 -1.412477e-01 -1.462395e-01 -1.413076e-01 -1.463931e-01 -1.413484e-01 -1.464943e-01 -1.413716e-01 -1.465446e-01 
-1.429766e-01 -1.486677e-01 -1.429653e-01 -1.486141e-01 -1.429280e-01 -1.485020e-01 -1.428626e-01 -1.483281e-01 -1.427658e-01 -1.480877e-01 -1.426325e-01 -1.477741e-01 -1.424562e-01 -1.473787e-01 -1.422283e-01 -1.468905e-01 -1.419381e-01 -1.462962e-01 -1.415721e-01 -1.455796e-01 -1.411140e-01 -1.447212e-01 -1.405440e-01 -1.436980e-01 -1.398378e-01 -1.424822e-01 -1.389664e-01 -1.410415e-01 -1.378953e-01 -1.393377e-01 -1.365831e-01 -1.373265e-01 -1.349816e-01 -1.349568e-01 -1.330348e-01 -1.321713e-01 -1.306801e-01 -1.289072e-01 -1.278491e-01 -1.250990e-01 -1.244717e-01 -1.206837e-01 -1.204826e-01 -1.156091e-01 -1.158312e-01 -1.098460e-01 -1.104963e-01 -1.034058e-01 -1.045047e-01 -9.636023e-02 -9.795252e-02 -8.886350e-02 -9.102517e-02 -8.116918e-02 -8.401018e-02 -7.363622e-02 -7.729462e-02 -6.671471e-02 -7.133953e-02 -6.090560e-02 -6.662783e-02 -5.669459e-02 -6.359096e-02 -5.447119e-02 -6.252992e-02 -5.445348e-02 -6.355357e-02 -5.664236e-02 -6.655522e-02 -6.082147e-02 -7.123577e-02 -6.660269e-02 -7.716520e-02 -7.350123e-02 -8.386137e-02 -8.101658e-02 -9.086347e-02 -8.869859e-02 -9.778410e-02 -9.618793e-02 -1.043350e-01 -1.032304e-01 -1.103298e-01 -1.096711e-01 -1.156715e-01 -1.154375e-01 -1.203321e-01 -1.205177e-01 -1.243321e-01 -1.249400e-01 -1.277212e-01 -1.287564e-01 -1.305642e-01 -1.320294e-01 -1.329309e-01 -1.348242e-01 -1.348890e-01 -1.372033e-01 -1.365013e-01 -1.392240e-01 -1.378235e-01 -1.409372e-01 -1.389037e-01 -1.423871e-01 -1.397833e-01 -1.436118e-01 -1.404970e-01 -1.446438e-01 -1.410737e-01 -1.455105e-01 -1.415378e-01 -1.462353e-01 -1.419091e-01 -1.468374e-01 -1.422042e-01 -1.473333e-01 -1.424363e-01 -1.477361e-01 -1.426165e-01 -1.480569e-01 -1.427534e-01 -1.483043e-01 -1.428535e-01 -1.484850e-01 -1.429220e-01 -1.486040e-01 -1.429624e-01 -1.486644e-01 
-1.422772e-01 -1.477157e-01 -1.422716e-01 -1.476753e-01 -1.422588e-01 -1.475936e-01 -1.422381e-01 -1.474693e-01 -1.422084e-01 -1.473004e-01 -1.421681e-01 -1.470841e-01 -1.421148e-01 -1.468166e-01 -1.420454e-01 -1.464932e-01 -1.419552e-01 -1.461075e-01 -1.418385e-01 -1.456515e-01 -1.416870e-01 -1.451148e-01 -1.414898e-01 -1.444839e-01 -1.412318e-01 -1.437411e-01 -1.408929e-01 -1.428634e-01 -1.404462e-01 -1.418207e-01 -1.398559e-01 -1.405738e-01 -1.390752e-01 -1.390729e-01 -1.380441e-01 -1.372552e-01 -1.366880e-01 -1.350443e-01 -1.349168e-01 -1.323508e-01 -1.326273e-01 -1.290762e-01 -1.297086e-01 -1.251212e-01 -1.260540e-01 -1.204008e-01 -1.215793e-01 -1.148656e-01 -1.162487e-01 -1.085311e-01 -1.101073e-01 -1.015097e-01 -1.033142e-01 -9.403982e-02 -9.616760e-02 -8.650097e-02 -8.910949e-02 -7.940201e-02 -8.269769e-02 -7.333339e-02 -7.753800e-02 -6.888269e-02 -7.418370e-02 -6.652826e-02 -7.302518e-02 -6.653931e-02 -7.420315e-02 -6.891504e-02 -7.757588e-02 -7.338480e-02 -8.275212e-02 -7.946908e-02 -8.917796e-02 -8.657962e-02 -9.624731e-02 -9.412574e-02 -1.034023e-01 -1.015988e-01 -1.102011e-01 -1.086197e-01 -1.163457e-01 -1.149508e-01 -1.216774e-01 -1.204803e-01 -1.261517e-01 -1.251935e-01 -1.298043e-01 -1.291404e-01 -1.327200e-01 -1.324067e-01 -1.350058e-01 -1.350919e-01 -1.367726e-01 -1.372950e-01 -1.381240e-01 -1.391055e-01 -1.391500e-01 -1.405999e-01 -1.399256e-01 -1.418410e-01 -1.405107e-01 -1.428788e-01 -1.409522e-01 -1.437524e-01 -1.412859e-01 -1.444919e-01 -1.415388e-01 -1.451201e-01 -1.417312e-01 -1.456547e-01 -1.418778e-01 -1.461091e-01 -1.419898e-01 -1.464936e-01 -1.420753e-01 -1.468163e-01 -1.421402e-01 -1.470833e-01 -1.421891e-01 -1.472994e-01 -1.422251e-01 -1.474683e-01 -1.422505e-01 -1.475928e-01 -1.422671e-01 -1.476748e-01 -1.422757e-01 -1.477156e-01 
-1.443514e-01 -1.503520e-01 -1.443466e-01 -1.503127e-01 -1.443290e-01 -1.502290e-01 -1.442969e-01 -1.500976e-01 -1.442470e-01 -1.499139e-01 -1.441744e-01 -1.496710e-01 -1.440729e-01 -1.493602e-01 -1.439340e-01 -1.489705e-01 -1.437472e-01 -1.484880e-01 -1.434989e-01 -1.478960e-01 -1.431725e-01 -1.471737e-01 -1.427474e-01 -1.462964e-01 -1.421981e-01 -1.452340e-01 -1.414931e-01 -1.439500e-01 -1.405940e-01 -1.424009e-01 -1.394537e-01 -1.405345e-01 -1.380154e-01 -1.382887e-01 -1.362109e-01 -1.355911e-01 -1.339606e-01 -1.323586e-01 -1.311735e-01 -1.284994e-01 -1.277504e-01 -1.239177e-01 -1.235900e-01 -1.185222e-01 -1.186007e-01 -1.122413e-01 -1.127183e-01 -1.050451e-01 -1.059316e-01 -9.697441e-02 -9.831390e-02 -8.817515e-02 -9.005699e-02 -7.893054e-02 -8.149873e-02 -6.968089e-02 -7.313124e-02 -6.101560e-02 -6.557507e-02 -5.362379e-02 -5.950912e-02 -4.819922e-02 -5.555978e-02 -4.531340e-02 -5.417351e-02 -4.529148e-02 -5.551352e-02 -4.813476e-02 -5.941963e-02 -5.352043e-02 -6.544797e-02 -6.087885e-02 -7.297400e-02 -6.951741e-02 -8.131980e-02 -7.874740e-02 -8.986486e-02 -8.797918e-02 -9.811639e-02 -9.677172e-02 -1.057354e-01 -1.048408e-01 -1.125287e-01 -1.120396e-01 -1.184215e-01 -1.183261e-01 -1.234238e-01 -1.237295e-01 -1.275987e-01 -1.283206e-01 -1.310368e-01 -1.321902e-01 -1.338388e-01 -1.354336e-01 -1.361033e-01 -1.381423e-01 -1.379211e-01 -1.403991e-01 -1.393718e-01 -1.422765e-01 -1.405232e-01 -1.438363e-01 -1.414323e-01 -1.451306e-01 -1.421461e-01 -1.462030e-01 -1.427032e-01 -1.470900e-01 -1.431351e-01 -1.478214e-01 -1.434675e-01 -1.484224e-01 -1.437210e-01 -1.489134e-01 -1.439125e-01 -1.493114e-01 -1.440554e-01 -1.496302e-01 -1.441605e-01 -1.498808e-01 -1.442362e-01 -1.500721e-01 -1.442891e-01 -1.502109e-01 -1.443240e-01 -1.503019e-01 -1.443441e-01 -1.503484e-01 
-1.431840e-01 -1.489282e-01 -1.431834e-01 -1.488987e-01 -1.431858e-01 -1.488387e-01 -1.431910e-01 -1.487471e-01 -1.431982e-01 -1.486223e-01 -1.432066e-01 -1.484619e-01 -1.432146e-01 -1.482628e-01 -1.432202e-01 -1.480211e-01 -1.432203e-01 -1.477314e-01 -1.432105e-01 -1.473868e-01 -1.431844e-01 -1.469780e-01 -1.431331e-01 -1.464928e-01 -1.430432e-01 -1.459144e-01 -1.428963e-01 -1.452201e-01 -1.426659e-01 -1.443789e-01 -1.423151e-01 -1.433489e-01 -1.417936e-01 -1.420738e-01 -1.410331e-01 -1.404796e-01 -1.399446e-01 -1.384713e-01 -1.384153e-01 -1.359321e-01 -1.363080e-01 -1.327242e-01 -1.334657e-01 -1.286975e-01 -1.297230e-01 -1.237052e-01 -1.249278e-01 -1.176318e-01 -1.189760e-01 -1.104333e-01 -1.118586e-01 -1.021876e-01 -1.037162e-01 -9.314592e-02 -9.488826e-02 -8.376990e-02 -8.593796e-02 -7.473167e-02 -7.762684e-02 -6.685600e-02 -7.082327e-02 -6.099727e-02 -6.634781e-02 -5.787043e-02 -6.479217e-02 -5.788439e-02 -6.637196e-02 -6.103800e-02 -7.087009e-02 -6.692028e-02 -7.769366e-02 -7.481473e-02 -8.602131e-02 -8.386612e-02 -9.498438e-02 -9.324949e-02 -1.038213e-01 -1.022932e-01 -1.119694e-01 -1.105364e-01 -1.190895e-01 -1.177288e-01 -1.250416e-01 -1.237938e-01 -1.298353e-01 -1.287761e-01 -1.335750e-01 -1.327921e-01 -1.364131e-01 -1.359893e-01 -1.385155e-01 -1.385184e-01 -1.400394e-01 -1.405171e-01 -1.411221e-01 -1.421029e-01 -1.418767e-01 -1.433707e-01 -1.423923e-01 -1.443944e-01 -1.427370e-01 -1.452303e-01 -1.429615e-01 -1.459203e-01 -1.431026e-01 -1.464954e-01 -1.431868e-01 -1.469781e-01 -1.432327e-01 -1.473851e-01 -1.432533e-01 -1.477285e-01 -1.432579e-01 -1.480175e-01 -1.432528e-01 -1.482589e-01 -1.432423e-01 -1.484580e-01 -1.432294e-01 -1.486188e-01 -1.432164e-01 -1.487442e-01 -1.432045e-01 -1.488365e-01 -1.431948e-01 -1.488974e-01 -1.431878e-01 -1.489278e-01 
-1.457386e-01 -1.520796e-01 -1.457410e-01 -1.520565e-01 -1.457457e-01 -1.520050e-01 -1.457510e-01 -1.519220e-01 -1.457539e-01 -1.518031e-01 -1.457502e-01 -1.516416e-01 -1.457341e-01 -1.514291e-01 -1.456977e-01 -1.511548e-01 -1.456310e-01 -1.508048e-01 -1.455212e-01 -1.503623e-01 -1.453520e-01 -1.498062e-01 -1.451029e-01 -1.491108e-01 -1.447479e-01 -1.482442e-01 -1.442542e-01 -1.471671e-01 -1.435805e-01 -1.458311e-01 -1.426748e-01 -1.441767e-01 -1.414723e-01 -1.421311e-01 -1.398926e-01 -1.396060e-01 -1.378379e-01 -1.364957e-01 -1.351916e-01 -1.326780e-01 -1.318196e-01 -1.280163e-01 -1.275751e-01 -1.223682e-01 -1.223109e-01 -1.156018e-01 -1.158996e-01 -1.076225e-01 -1.082664e-01 -9.841263e-02 -9.943444e-02 -8.808318e-02 -8.957897e-02 -7.693011e-02 -7.908009e-02 -6.548029e-02 -6.855464e-02 -5.450192e-02 -5.883946e-02 -4.495089e-02 -5.090125e-02 -3.783561e-02 -4.566851e-02 -3.401501e-02 -4.382101e-02 -3.398765e-02 -4.561042e-02 -3.775535e-02 -5.078935e-02 -4.482290e-02 -5.868166e-02 -5.433391e-02 -6.836131e-02 -6.528137e-02 -7.886267e-02 -7.670972e-02 -8.934867e-02 -8.785012e-02 -9.920123e-02 -9.817445e-02 -1.080384e-01 -1.073853e-01 -1.156829e-01 -1.153701e-01 -1.221098e-01 -1.221453e-01 -1.273918e-01 -1.278044e-01 -1.316552e-01 -1.324784e-01 -1.350461e-01 -1.363091e-01 -1.377106e-01 -1.394325e-01 -1.397822e-01 -1.419708e-01 -1.413774e-01 -1.440293e-01 -1.425938e-01 -1.456962e-01 -1.435118e-01 -1.470442e-01 -1.441963e-01 -1.481329e-01 -1.446994e-01 -1.490106e-01 -1.450624e-01 -1.497165e-01 -1.453184e-01 -1.502827e-01 -1.454935e-01 -1.507348e-01 -1.456083e-01 -1.510940e-01 -1.456793e-01 -1.513773e-01 -1.457194e-01 -1.515983e-01 -1.457387e-01 -1.517680e-01 -1.457452e-01 -1.518950e-01 -1.457447e-01 -1.519858e-01 -1.457416e-01 -1.520450e-01 -1.457390e-01 -1.520758e-01 
-1.440878e-01 -1.501709e-01 -1.440924e-01 -1.501532e-01 -1.441110e-01 -1.501167e-01 -1.441436e-01 -1.500606e-01 -1.441901e-01 -1.499837e-01 -1.442504e-01 -1.498843e-01 -1.443242e-01 -1.497604e-01 -1.444109e-01 -1.496090e-01 -1.445092e-01 -1.494262e-01 -1.446170e-01 -1.492069e-01 -1.447307e-01 -1.489440e-01 -1.448442e-01 -1.486273e-01 -1.449476e-01 -1.482427e-01 -1.450257e-01 -1.477696e-01 -1.450550e-01 -1.471783e-01 -1.450002e-01 -1.464264e-01 -1.448099e-01 -1.454541e-01 -1.444107e-01 -1.441781e-01 -1.437010e-01 -1.424860e-01 -1.425450e-01 -1.402312e-01 -1.407683e-01 -1.372307e-01 -1.381579e-01 -1.332697e-01 -1.344717e-01 -1.281171e-01 -1.294615e-01 -1.215581e-01 -1.229155e-01 -1.134472e-01 -1.147244e-01 -1.037838e-01 -1.049670e-01 -9.279923e-02 -9.400135e-02 -8.103496e-02 -8.252990e-02 -6.937296e-02 -7.159400e-02 -5.897543e-02 -6.245577e-02 -5.110732e-02 -5.635878e-02 -4.686316e-02 -5.422339e-02 -4.688119e-02 -5.638916e-02 -5.115974e-02 -6.251433e-02 -5.905753e-02 -7.167685e-02 -6.947786e-02 -8.263212e-02 -8.115472e-02 -9.411778e-02 -9.292598e-02 -1.050927e-01 -1.039105e-01 -1.148552e-01 -1.135683e-01 -1.230480e-01 -1.216695e-01 -1.295930e-01 -1.282163e-01 -1.346001e-01 -1.333552e-01 -1.382817e-01 -1.373023e-01 -1.408865e-01 -1.402893e-01 -1.426570e-01 -1.425316e-01 -1.438063e-01 -1.442124e-01 -1.445091e-01 -1.454787e-01 -1.449013e-01 -1.464427e-01 -1.450847e-01 -1.471877e-01 -1.451327e-01 -1.477735e-01 -1.450967e-01 -1.482424e-01 -1.450121e-01 -1.486239e-01 -1.449024e-01 -1.489383e-01 -1.447829e-01 -1.491998e-01 -1.446633e-01 -1.494183e-01 -1.445498e-01 -1.496009e-01 -1.444459e-01 -1.497526e-01 -1.443539e-01 -1.498772e-01 -1.442749e-01 -1.499774e-01 -1.442095e-01 -1.500555e-01 -1.441581e-01 -1.501130e-01 -1.441206e-01 -1.501510e-01 -1.440972e-01 -1.501702e-01 
-1.471232e-01 -1.538342e-01 -1.471335e-01 -1.538291e-01 -1.471626e-01 -1.538136e-01 -1.472091e-01 -1.537849e-01 -1.472706e-01 -1.537389e-01 -1.473436e-01 -1.536696e-01 -1.474231e-01 -1.535690e-01 -1.475023e-01 -1.534272e-01 -1.475725e-01 -1.532310e-01 -1.476221e-01 -1.529641e-01 -1.476363e-01 -1.526060e-01 -1.475955e-01 -1.521310e-01 -1.474745e-01 -1.515065e-01 -1.472405e-01 -1.506916e-01 -1.468509e-01 -1.496346e-01 -1.462504e-01 -1.482699e-01 -1.453675e-01 -1.465149e-01 -1.441107e-01 -1.442657e-01 -1.423639e-01 -1.413935e-01 -1.399832e-01 -1.377418e-01 -1.367946e-01 -1.331264e-01 -1.325966e-01 -1.273408e-01 -1.271695e-01 -1.201716e-01 -1.202974e-01 -1.114281e-01 -1.118064e-01 -1.009932e-01 -1.016259e-01 -8.889643e-02 -8.987025e-02 -7.540700e-02 -7.693309e-02 -6.112648e-02 -6.356590e-02 -4.704296e-02 -5.089344e-02 -3.449013e-02 -4.030973e-02 -2.496182e-02 -3.322414e-02 -1.978540e-02 -3.070375e-02 -1.975083e-02 -3.315005e-02 -2.486077e-02 -4.016773e-02 -3.433007e-02 -5.069485e-02 -4.683485e-02 -6.332532e-02 -6.088301e-02 -7.666625e-02 -7.514084e-02 -8.959205e-02 -8.861892e-02 -1.013491e-01 -1.007136e-01 -1.115407e-01 -1.111535e-01 -1.200497e-01 -1.199068e-01 -1.269440e-01 -1.270890e-01 -1.323951e-01 -1.328895e-01 -1.366175e-01 -1.375206e-01 -1.398296e-01 -1.411883e-01 -1.422323e-01 -1.440764e-01 -1.439990e-01 -1.463410e-01 -1.452735e-01 -1.481108e-01 -1.461719e-01 -1.494896e-01 -1.467859e-01 -1.505601e-01 -1.471870e-01 -1.513877e-01 -1.474307e-01 -1.520243e-01 -1.475598e-01 -1.525108e-01 -1.476075e-01 -1.528798e-01 -1.475990e-01 -1.531570e-01 -1.475540e-01 -1.533631e-01 -1.474877e-01 -1.535144e-01 -1.474117e-01 -1.536240e-01 -1.473349e-01 -1.537020e-01 -1.472642e-01 -1.537565e-01 -1.472045e-01 -1.537934e-01 -1.471597e-01 -1.538171e-01 -1.471321e-01 -1.538302e-01 
-1.449776e-01 -1.514322e-01 -1.449876e-01 -1.514271e-01 -1.450230e-01 -1.514156e-01 -1.450840e-01 -1.513973e-01 -1.451714e-01 -1.513717e-01 -1.452860e-01 -1.513379e-01 -1.454288e-01 -1.512950e-01 -1.456011e-01 -1.512415e-01 -1.458040e-01 -1.511754e-01 -1.460381e-01 -1.510940e-01 -1.463035e-01 -1.509932e-01 -1.465983e-01 -1.508665e-01 -1.469176e-01 -1.507037e-01 -1.472518e-01 -1.504886e-01 -1.475830e-01 -1.501961e-01 -1.478813e-01 -1.497868e-01 -1.480984e-01 -1.492013e-01 -1.481606e-01 -1.483518e-01 -1.479584e-01 -1.471120e-01 -1.473364e-01 -1.453073e-01 -1.460825e-01 -1.427057e-01 -1.439208e-01 -1.390154e-01 -1.405144e-01 -1.338953e-01 -1.354842e-01 -1.269877e-01 -1.284566e-01 -1.179836e-01 -1.191495e-01 -1.067290e-01 -1.075008e-01 -9.336685e-02 -9.382701e-02 -7.848789e-02 -7.896871e-02 -6.323036e-02 -6.434383e-02 -4.924263e-02 -5.181282e-02 -3.843476e-02 -4.330708e-02 -3.252889e-02 -4.030092e-02 -3.255276e-02 -4.334605e-02 -3.850381e-02 -5.188735e-02 -4.934978e-02 -6.444799e-02 -6.336542e-02 -7.909537e-02 -7.863948e-02 -9.396901e-02 -9.352414e-02 -1.076518e-01 -1.068828e-01 -1.193042e-01 -1.181271e-01 -1.286110e-01 -1.271162e-01 -1.356354e-01 -1.340065e-01 -1.406604e-01 -1.391082e-01 -1.440602e-01 -1.427805e-01 -1.462144e-01 -1.453653e-01 -1.474605e-01 -1.471549e-01 -1.480744e-01 -1.483814e-01 -1.482684e-01 -1.492198e-01 -1.481981e-01 -1.497962e-01 -1.479731e-01 -1.501982e-01 -1.476671e-01 -1.504851e-01 -1.473285e-01 -1.506960e-01 -1.469871e-01 -1.508559e-01 -1.466608e-01 -1.509809e-01 -1.463594e-01 -1.510808e-01 -1.460877e-01 -1.511620e-01 -1.458473e-01 -1.512285e-01 -1.456385e-01 -1.512829e-01 -1.454605e-01 -1.513272e-01 -1.453121e-01 -1.513625e-01 -1.451921e-01 -1.513900e-01 -1.450994e-01 -1.514102e-01 -1.450332e-01 -1.514238e-01 -1.449927e-01 -1.514311e-01 
-1.484887e-01 -1.555981e-01 -1.485075e-01 -1.556127e-01 -1.485630e-01 -1.556367e-01 -1.486542e-01 -1.556678e-01 -1.487795e-01 -1.557025e-01 -1.489362e-01 -1.557356e-01 -1.491207e-01 -1.557604e-01 -1.493279e-01 -1.557680e-01 -1.495509e-01 -1.557467e-01 -1.497803e-01 -1.556818e-01 -1.500035e-01 -1.555542e-01 -1.502034e-01 -1.553395e-01 -1.503570e-01 -1.550060e-01 -1.504332e-01 -1.545129e-01 -1.503903e-01 -1.538069e-01 -1.501719e-01 -1.528187e-01 -1.497024e-01 -1.514577e-01 -1.488811e-01 -1.496067e-01 -1.475759e-01 -1.471144e-01 -1.456156e-01 -1.437893e-01 -1.427839e-01 -1.393945e-01 -1.388167e-01 -1.336479e-01 -1.334057e-01 -1.262315e-01 -1.262168e-01 -1.168204e-01 -1.169308e-01 -1.051395e-01 -1.053171e-01 -9.106108e-02 -9.135072e-02 -7.474734e-02 -7.536858e-02 -5.682257e-02 -5.823554e-02 -3.852083e-02 -4.144378e-02 -2.170504e-02 -2.702636e-02 -8.633247e-03 -1.718129e-02 -1.424587e-03 -1.364541e-02 -1.380276e-03 -1.708526e-02 -8.504266e-03 -2.684337e-02 -2.150243e-02 -4.119034e-02 -3.826051e-02 -5.793257e-02 -5.652245e-02 -7.503797e-02 -7.442458e-02 -9.101239e-02 -9.073026e-02 -1.049872e-01 -1.048118e-01 -1.166208e-01 -1.165036e-01 -1.259341e-01 -1.259305e-01 -1.331539e-01 -1.333654e-01 -1.385968e-01 -1.391317e-01 -1.425951e-01 -1.435463e-01 -1.454556e-01 -1.468909e-01 -1.474420e-01 -1.494019e-01 -1.487703e-01 -1.512708e-01 -1.496115e-01 -1.526485e-01 -1.500981e-01 -1.536525e-01 -1.503309e-01 -1.543734e-01 -1.503858e-01 -1.548805e-01 -1.503194e-01 -1.552271e-01 -1.501739e-01 -1.554542e-01 -1.499806e-01 -1.555934e-01 -1.497627e-01 -1.556693e-01 -1.495375e-01 -1.557010e-01 -1.493178e-01 -1.557034e-01 -1.491132e-01 -1.556881e-01 -1.489307e-01 -1.556641e-01 -1.487756e-01 -1.556383e-01 -1.486516e-01 -1.556158e-01 -1.485614e-01 -1.556002e-01 -1.485067e-01 -1.555939e-01 
-1.458425e-01 -1.527000e-01 -1.458581e-01 -1.527081e-01 -1.459104e-01 -1.527229e-01 -1.460004e-01 -1.527444e-01 -1.461294e-01 -1.527728e-01 -1.462994e-01 -1.528082e-01 -1.465131e-01 -1.528510e-01 -1.467736e-01 -1.529014e-01 -1.470849e-01 -1.529600e-01 -1.474512e-01 -1.530270e-01 -1.478768e-01 -1.531019e-01 -1.483653e-01 -1.531833e-01 -1.489186e-01 -1.532668e-01 -1.495350e-01 -1.533433e-01 -1.502057e-01 -1.533953e-01 -1.509104e-01 -1.533915e-01 -1.516103e-01 -1.532792e-01 -1.522380e-01 -1.529731e-01 -1.526849e-01 -1.523413e-01 -1.527842e-01 -1.511880e-01 -1.522921e-01 -1.492349e-01 -1.508696e-01 -1.461065e-01 -1.480707e-01 -1.413268e-01 -1.433489e-01 -1.343431e-01 -1.360990e-01 -1.245954e-01 -1.257577e-01 -1.116553e-01 -1.119832e-01 -9.544358e-02 -9.491739e-02 -7.650573e-02 -7.548195e-02 -5.625863e-02 -5.557850e-02 -3.704521e-02 -3.798658e-02 -2.181146e-02 -2.579118e-02 -1.335353e-02 -2.143388e-02 -1.338593e-02 -2.584242e-02 -2.190468e-02 -3.808353e-02 -3.718823e-02 -5.571183e-02 -5.643598e-02 -7.564097e-02 -7.670077e-02 -9.509206e-02 -9.564123e-02 -1.121652e-01 -1.118437e-01 -1.259408e-01 -1.247663e-01 -1.362786e-01 -1.344916e-01 -1.435221e-01 -1.414510e-01 -1.482357e-01 -1.462063e-01 -1.510254e-01 -1.493117e-01 -1.524383e-01 -1.512441e-01 -1.529205e-01 -1.523794e-01 -1.528115e-01 -1.529960e-01 -1.523551e-01 -1.532897e-01 -1.517180e-01 -1.533921e-01 -1.510092e-01 -1.533883e-01 -1.502959e-01 -1.533308e-01 -1.496170e-01 -1.532505e-01 -1.489927e-01 -1.531646e-01 -1.484318e-01 -1.530820e-01 -1.479361e-01 -1.530068e-01 -1.475037e-01 -1.529404e-01 -1.471308e-01 -1.528830e-01 -1.468132e-01 -1.528342e-01 -1.465465e-01 -1.527935e-01 -1.463270e-01 -1.527604e-01 -1.461512e-01 -1.527346e-01 -1.460167e-01 -1.527158e-01 -1.459212e-01 -1.527038e-01 -1.458634e-01 -1.526985e-01 
-1.498178e-01 -1.573522e-01 -1.498457e-01 -1.573881e-01 -1.499292e-01 -1.574548e-01 -1.500680e-01 -1.575506e-01 -1.502612e-01 -1.576730e-01 -1.505077e-01 -1.578181e-01 -1.508054e-01 -1.579807e-01 -1.511515e-01 -1.581537e-01 -1.515417e-01 -1.583277e-01 -1.519695e-01 -1.584905e-01 -1.524259e-01 -1.586255e-01 -1.528976e-01 -1.587112e-01 -1.533656e-01 -1.587186e-01 -1.538029e-01 -1.586090e-01 -1.541709e-01 -1.583302e-01 -1.544155e-01 -1.578120e-01 -1.544603e-01 -1.569596e-01 -1.541999e-01 -1.556459e-01 -1.534896e-01 -1.537008e-01 -1.521347e-01 -1.509007e-01 -1.498783e-01 -1.469557e-01 -1.463903e-01 -1.415011e-01 -1.412617e-01 -1.340949e-01 -1.340117e-01 -1.242357e-01 -1.241196e-01 -1.114152e-01 -1.111031e-01 -9.523156e-02 -9.466674e-02 -7.559069e-02 -7.494266e-02 -5.300174e-02 -5.280833e-02 -2.891062e-02 -3.017935e-02 -5.896924e-03 -1.004289e-02 1.255499e-02 4.065671e-03 2.293111e-02 9.197118e-03 2.298890e-02 4.192319e-03 1.272233e-02 -9.803190e-03 -5.636717e-03 -2.985110e-02 -2.858120e-02 -5.242208e-02 -5.262880e-02 -7.452930e-02 -7.519763e-02 -9.425298e-02 -9.483697e-02 -1.107090e-01 -1.110321e-01 -1.237584e-01 -1.238722e-01 -1.336904e-01 -1.337551e-01 -1.409828e-01 -1.411867e-01 -1.461529e-01 -1.466669e-01 -1.496797e-01 -1.506364e-01 -1.519710e-01 -1.534598e-01 -1.533564e-01 -1.554266e-01 -1.540929e-01 -1.567606e-01 -1.543754e-01 -1.576317e-01 -1.543489e-01 -1.581674e-01 -1.541195e-01 -1.584624e-01 -1.537636e-01 -1.585871e-01 -1.533361e-01 -1.585938e-01 -1.528759e-01 -1.585213e-01 -1.524102e-01 -1.583985e-01 -1.519585e-01 -1.582474e-01 -1.515342e-01 -1.580843e-01 -1.511466e-01 -1.579217e-01 -1.508024e-01 -1.577690e-01 -1.505059e-01 -1.576334e-01 -1.502603e-01 -1.575202e-01 -1.500676e-01 -1.574332e-01 -1.499291e-01 -1.573752e-01 -1.498457e-01 -1.573479e-01 