# vtk DataFile Version 2.0
Comment goes here
ASCII

DATASET STRUCTURED_POINTS
DIMENSIONS    128   128   1

ORIGIN    0.000   0.000   0.000
SPACING   0.00781250.0078125   1.000

POINT_DATA   16384
SCALARS P double
LOOKUP_TABLE default

-1.198213e-01 -1.270103e-01 -1.197965e-01 -1.269106e-01 -1.197205e-01 -1.267095e-01 -1.195921e-01 -1.264048e-01 -1.194089e-01 -1.259934e-01 -1.191676e-01 -1.254708e-01 -1.188640e-01 -1.248315e-01 -1.184926e-01 -1.240687e-01 -1.180464e-01 -1.231744e-01 -1.175174e-01 -1.221395e-01 -1.168956e-01 -1.209533e-01 -1.161696e-01 -1.196042e-01 -1.153260e-01 -1.180792e-01 -1.143496e-01 -1.163645e-01 -1.132236e-01 -1.144460e-01 -1.119294e-01 -1.123094e-01 -1.104481e-01 -1.099416e-01 -1.087603e-01 -1.073319e-01 -1.068486e-01 -1.044737e-01 -1.046991e-01 -1.013668e-01 -1.023041e-01 -9.802013e-02 -9.966551e-02 -9.445507e-02 -9.679857e-02 -9.070869e-02 -9.373582e-02 -8.683687e-02 -9.053054e-02 -8.291672e-02 -8.725924e-02 -7.904731e-02 -8.402198e-02 -7.534815e-02 -8.093982e-02 -7.195453e-02 -7.814849e-02 -6.900940e-02 -7.578832e-02 -6.665191e-02 -7.399100e-02 -6.500390e-02 -7.286486e-02 -6.415616e-02 -7.248136e-02 -6.415726e-02 -7.286545e-02 -6.500710e-02 -7.399206e-02 -6.665696e-02 -7.578962e-02 -6.901588e-02 -7.814972e-02 -7.196193e-02 -8.094063e-02 -7.535590e-02 -8.402204e-02 -7.905485e-02 -8.725823e-02 -8.292353e-02 -9.052824e-02 -8.684250e-02 -9.373208e-02 -9.071280e-02 -9.679335e-02 -9.445744e-02 -9.965885e-02 -9.802065e-02 -1.022961e-01 -1.013655e-01 -1.046900e-01 -1.044706e-01 -1.068386e-01 -1.073272e-01 -1.087495e-01 -1.099355e-01 -1.104368e-01 -1.123021e-01 -1.119179e-01 -1.144378e-01 -1.132121e-01 -1.163557e-01 -1.143383e-01 -1.180700e-01 -1.153151e-01 -1.195949e-01 -1.161592e-01 -1.209442e-01 -1.168859e-01 -1.221306e-01 -1.175084e-01 -1.231661e-01 -1.180383e-01 -1.240610e-01 -1.184853e-01 -1.248245e-01 -1.188578e-01 -1.254648e-01 -1.191624e-01 -1.259883e-01 -1.194046e-01 -1.264008e-01 -1.195889e-01 -1.267066e-01 -1.197184e-01 -1.269088e-01 -1.197954e-01 -1.270097e-01 
-1.255777e-01 -1.329782e-01 -1.255892e-01 -1.329503e-01 -1.256218e-01 -1.328935e-01 -1.256757e-01 -1.328074e-01 -1.257511e-01 -1.326920e-01 -1.258486e-01 -1.325466e-01 -1.259683e-01 -1.323706e-01 -1.261103e-01 -1.321631e-01 -1.262744e-01 -1.319227e-01 -1.264598e-01 -1.316476e-01 -1.266645e-01 -1.313351e-01 -1.268855e-01 -1.309816e-01 -1.271180e-01 -1.305825e-01 -1.273549e-01 -1.301315e-01 -1.275865e-01 -1.296207e-01 -1.277998e-01 -1.290400e-01 -1.279782e-01 -1.283777e-01 -1.281014e-01 -1.276200e-01 -1.281458e-01 -1.267519e-01 -1.280848e-01 -1.257580e-01 -1.278909e-01 -1.246246e-01 -1.275377e-01 -1.233418e-01 -1.270037e-01 -1.219070e-01 -1.262764e-01 -1.203287e-01 -1.253570e-01 -1.186303e-01 -1.242661e-01 -1.168541e-01 -1.230462e-01 -1.150629e-01 -1.217637e-01 -1.133394e-01 -1.205060e-01 -1.117810e-01 -1.193741e-01 -1.104911e-01 -1.184708e-01 -1.095660e-01 -1.178854e-01 -1.090806e-01 -1.176792e-01 -1.090764e-01 -1.178741e-01 -1.095534e-01 -1.184486e-01 -1.104708e-01 -1.193418e-01 -1.117536e-01 -1.204647e-01 -1.133059e-01 -1.217148e-01 -1.150245e-01 -1.229911e-01 -1.168118e-01 -1.242065e-01 -1.185854e-01 -1.252946e-01 -1.202823e-01 -1.262124e-01 -1.218601e-01 -1.269397e-01 -1.232952e-01 -1.274748e-01 -1.245790e-01 -1.278300e-01 -1.257139e-01 -1.280267e-01 -1.267097e-01 -1.280909e-01 -1.275800e-01 -1.280503e-01 -1.283401e-01 -1.279309e-01 -1.290049e-01 -1.277564e-01 -1.295881e-01 -1.275471e-01 -1.301015e-01 -1.273194e-01 -1.305551e-01 -1.270862e-01 -1.309567e-01 -1.268572e-01 -1.313126e-01 -1.266396e-01 -1.316275e-01 -1.264380e-01 -1.319050e-01 -1.262556e-01 -1.321476e-01 -1.260943e-01 -1.323573e-01 -1.259548e-01 -1.325354e-01 -1.258376e-01 -1.326829e-01 -1.257425e-01 -1.328004e-01 -1.256693e-01 -1.328885e-01 -1.256176e-01 -1.329473e-01 -1.255871e-01 -1.329772e-01 
-1.208139e-01 -1.283552e-01 -1.207924e-01 -1.282623e-01 -1.207263e-01 -1.280745e-01 -1.206143e-01 -1.277894e-01 -1.204539e-01 -1.274031e-01 -1.202415e-01 -1.269108e-01 -1.199725e-01 -1.263059e-01 -1.196409e-01 -1.255807e-01 -1.192392e-01 -1.247257e-01 -1.187580e-01 -1.237297e-01 -1.181863e-01 -1.225801e-01 -1.175107e-01 -1.212622e-01 -1.167154e-01 -1.197596e-01 -1.157821e-01 -1.180543e-01 -1.146898e-01 -1.161269e-01 -1.134151e-01 -1.139574e-01 -1.119325e-01 -1.115258e-01 -1.102156e-01 -1.088137e-01 -1.082383e-01 -1.058062e-01 -1.059773e-01 -1.024948e-01 -1.034153e-01 -9.888087e-02 -1.005449e-01 -9.497940e-02 -9.737416e-02 -9.082415e-02 -9.393159e-02 -8.647215e-02 -9.027199e-02 -8.200779e-02 -8.648075e-02 -7.754524e-02 -8.267597e-02 -7.322792e-02 -7.900659e-02 -6.922373e-02 -7.564533e-02 -6.571519e-02 -7.277574e-02 -6.288429e-02 -7.057388e-02 -6.089346e-02 -6.918710e-02 -5.986552e-02 -6.871372e-02 -5.986672e-02 -6.918824e-02 -6.089692e-02 -7.057598e-02 -6.288967e-02 -7.277846e-02 -6.572194e-02 -7.564822e-02 -6.923118e-02 -7.900915e-02 -7.323534e-02 -8.267770e-02 -7.755192e-02 -8.648123e-02 -8.201308e-02 -9.027088e-02 -8.647555e-02 -9.392871e-02 -9.082529e-02 -9.736944e-02 -9.497808e-02 -1.005384e-01 -9.887704e-02 -1.034071e-01 -1.024886e-01 -1.059678e-01 -1.057977e-01 -1.082277e-01 -1.088032e-01 -1.102041e-01 -1.115137e-01 -1.119205e-01 -1.139441e-01 -1.134028e-01 -1.161127e-01 -1.146775e-01 -1.180396e-01 -1.157700e-01 -1.197447e-01 -1.167038e-01 -1.212475e-01 -1.174997e-01 -1.225658e-01 -1.181760e-01 -1.237162e-01 -1.187485e-01 -1.247130e-01 -1.192306e-01 -1.255691e-01 -1.196333e-01 -1.262956e-01 -1.199659e-01 -1.269019e-01 -1.202360e-01 -1.273957e-01 -1.204494e-01 -1.277835e-01 -1.206110e-01 -1.280703e-01 -1.207241e-01 -1.282598e-01 -1.207913e-01 -1.283543e-01 
-1.256286e-01 -1.334172e-01 -1.256414e-01 -1.333922e-01 -1.256779e-01 -1.333411e-01 -1.257387e-01 -1.332636e-01 -1.258242e-01 -1.331595e-01 -1.259353e-01 -1.330285e-01 -1.260728e-01 -1.328699e-01 -1.262374e-01 -1.326829e-01 -1.264295e-01 -1.324661e-01 -1.266491e-01 -1.322179e-01 -1.268951e-01 -1.319354e-01 -1.271653e-01 -1.316151e-01 -1.274555e-01 -1.312518e-01 -1.277589e-01 -1.308386e-01 -1.280655e-01 -1.303664e-01 -1.283616e-01 -1.298235e-01 -1.286286e-01 -1.291953e-01 -1.288429e-01 -1.284643e-01 -1.289757e-01 -1.276105e-01 -1.289936e-01 -1.266121e-01 -1.288601e-01 -1.254475e-01 -1.285378e-01 -1.240982e-01 -1.279935e-01 -1.225525e-01 -1.272028e-01 -1.208113e-01 -1.261578e-01 -1.188935e-01 -1.248742e-01 -1.168427e-01 -1.233980e-01 -1.147308e-01 -1.218095e-01 -1.126595e-01 -1.202210e-01 -1.107552e-01 -1.187686e-01 -1.091573e-01 -1.175954e-01 -1.079994e-01 -1.168292e-01 -1.073881e-01 -1.165587e-01 -1.073829e-01 -1.168161e-01 -1.079839e-01 -1.175698e-01 -1.091322e-01 -1.187313e-01 -1.107216e-01 -1.201735e-01 -1.126186e-01 -1.217536e-01 -1.146840e-01 -1.233355e-01 -1.167916e-01 -1.248070e-01 -1.188396e-01 -1.260878e-01 -1.207558e-01 -1.271319e-01 -1.224967e-01 -1.279232e-01 -1.240430e-01 -1.284695e-01 -1.253938e-01 -1.287946e-01 -1.265604e-01 -1.289319e-01 -1.275613e-01 -1.289182e-01 -1.284178e-01 -1.287899e-01 -1.291517e-01 -1.285802e-01 -1.297829e-01 -1.283178e-01 -1.303289e-01 -1.280262e-01 -1.308041e-01 -1.277239e-01 -1.312202e-01 -1.274245e-01 -1.315865e-01 -1.271381e-01 -1.319096e-01 -1.268714e-01 -1.321948e-01 -1.266286e-01 -1.324458e-01 -1.264120e-01 -1.326651e-01 -1.262226e-01 -1.328546e-01 -1.260605e-01 -1.330157e-01 -1.259254e-01 -1.331491e-01 -1.258164e-01 -1.332556e-01 -1.257329e-01 -1.333354e-01 -1.256741e-01 -1.333888e-01 -1.256395e-01 -1.334161e-01 
-1.218527e-01 -1.297960e-01 -1.218351e-01 -1.297114e-01 -1.217808e-01 -1.295399e-01 -1.216882e-01 -1.292786e-01 -1.215548e-01 -1.289234e-01 -1.213769e-01 -1.284688e-01 -1.211497e-01 -1.279075e-01 -1.208668e-01 -1.272305e-01 -1.205199e-01 -1.264270e-01 -1.200991e-01 -1.254842e-01 -1.195919e-01 -1.243867e-01 -1.189833e-01 -1.231170e-01 -1.182550e-01 -1.216549e-01 -1.173856e-01 -1.199778e-01 -1.163496e-01 -1.180604e-01 -1.151180e-01 -1.158759e-01 -1.136583e-01 -1.133960e-01 -1.119352e-01 -1.105928e-01 -1.099120e-01 -1.074410e-01 -1.075535e-01 -1.039210e-01 -1.048290e-01 -1.000227e-01 -1.017182e-01 -9.575151e-02 -9.821689e-02 -9.113399e-02 -9.434530e-02 -8.622513e-02 -9.015600e-02 -8.111480e-02 -8.574156e-02 -7.593285e-02 -8.123959e-02 -7.085060e-02 -7.683291e-02 -6.607699e-02 -7.274230e-02 -6.184697e-02 -6.921024e-02 -5.840167e-02 -6.647565e-02 -5.596143e-02 -6.474264e-02 -5.469580e-02 -6.414932e-02 -5.469722e-02 -6.474453e-02 -5.596553e-02 -6.647917e-02 -5.840796e-02 -6.921489e-02 -6.185471e-02 -7.274742e-02 -6.608528e-02 -7.683778e-02 -7.085847e-02 -8.124350e-02 -7.593935e-02 -8.574391e-02 -8.111916e-02 -9.015635e-02 -8.622671e-02 -9.434339e-02 -9.113240e-02 -9.821265e-02 -9.574658e-02 -1.017117e-01 -1.000145e-01 -1.048205e-01 -1.039096e-01 -1.075433e-01 -1.074269e-01 -1.099005e-01 -1.105763e-01 -1.119227e-01 -1.133776e-01 -1.136452e-01 -1.158562e-01 -1.151046e-01 -1.180398e-01 -1.163362e-01 -1.199568e-01 -1.173725e-01 -1.216340e-01 -1.182425e-01 -1.230965e-01 -1.189715e-01 -1.243670e-01 -1.195809e-01 -1.254656e-01 -1.200890e-01 -1.264099e-01 -1.205108e-01 -1.272149e-01 -1.208587e-01 -1.278937e-01 -1.211428e-01 -1.284569e-01 -1.213711e-01 -1.289135e-01 -1.215501e-01 -1.292708e-01 -1.216847e-01 -1.295343e-01 -1.217784e-01 -1.297081e-01 -1.218340e-01 -1.297949e-01 
-1.256576e-01 -1.338841e-01 -1.256716e-01 -1.338624e-01 -1.257121e-01 -1.338175e-01 -1.257797e-01 -1.337495e-01 -1.258754e-01 -1.336582e-01 -1.260004e-01 -1.335432e-01 -1.261561e-01 -1.334041e-01 -1.263441e-01 -1.332402e-01 -1.265657e-01 -1.330503e-01 -1.268218e-01 -1.328327e-01 -1.271126e-01 -1.325851e-01 -1.274370e-01 -1.323036e-01 -1.277918e-01 -1.319830e-01 -1.281712e-01 -1.316160e-01 -1.285657e-01 -1.311925e-01 -1.289610e-01 -1.306993e-01 -1.293371e-01 -1.301192e-01 -1.296673e-01 -1.294308e-01 -1.299176e-01 -1.286085e-01 -1.300465e-01 -1.276230e-01 -1.300067e-01 -1.264429e-01 -1.297471e-01 -1.250380e-01 -1.292177e-01 -1.233837e-01 -1.283768e-01 -1.214681e-01 -1.272005e-01 -1.193005e-01 -1.256939e-01 -1.169212e-01 -1.239024e-01 -1.144100e-01 -1.219202e-01 -1.118909e-01 -1.198916e-01 -1.095282e-01 -1.180014e-01 -1.075125e-01 -1.164524e-01 -1.060337e-01 -1.154309e-01 -1.052472e-01 -1.150692e-01 -1.052407e-01 -1.154156e-01 -1.060148e-01 -1.164224e-01 -1.074819e-01 -1.179579e-01 -1.094872e-01 -1.198364e-01 -1.118412e-01 -1.218554e-01 -1.143536e-01 -1.238305e-01 -1.168599e-01 -1.256172e-01 -1.192362e-01 -1.271214e-01 -1.214024e-01 -1.282974e-01 -1.233181e-01 -1.291399e-01 -1.249736e-01 -1.296723e-01 -1.263805e-01 -1.299360e-01 -1.275633e-01 -1.299807e-01 -1.285519e-01 -1.298571e-01 -1.293776e-01 -1.296124e-01 -1.300695e-01 -1.292877e-01 -1.306532e-01 -1.289169e-01 -1.311500e-01 -1.285267e-01 -1.315769e-01 -1.281370e-01 -1.319474e-01 -1.277619e-01 -1.322713e-01 -1.274111e-01 -1.325560e-01 -1.270904e-01 -1.328068e-01 -1.268028e-01 -1.330274e-01 -1.265496e-01 -1.332202e-01 -1.263307e-01 -1.333870e-01 -1.261451e-01 -1.335288e-01 -1.259916e-01 -1.336465e-01 -1.258686e-01 -1.337405e-01 -1.257747e-01 -1.338111e-01 -1.257088e-01 -1.338585e-01 -1.256700e-01 -1.338828e-01 
-1.229292e-01 -1.313239e-01 -1.229162e-01 -1.312492e-01 -1.228753e-01 -1.310971e-01 -1.228053e-01 -1.308645e-01 -1.227034e-01 -1.305470e-01 -1.225661e-01 -1.301385e-01 -1.223884e-01 -1.296310e-01 -1.221635e-01 -1.290146e-01 -1.218831e-01 -1.282770e-01 -1.215363e-01 -1.274036e-01 -1.211099e-01 -1.263768e-01 -1.205873e-01 -1.251760e-01 -1.199479e-01 -1.237771e-01 -1.191670e-01 -1.221522e-01 -1.182149e-01 -1.202700e-01 -1.170564e-01 -1.180954e-01 -1.156511e-01 -1.155907e-01 -1.139535e-01 -1.127166e-01 -1.119143e-01 -1.094345e-01 -1.094830e-01 -1.057102e-01 -1.066117e-01 -1.015182e-01 -1.032612e-01 -9.684880e-02 -9.940925e-02 -9.171613e-02 -9.506059e-02 -8.616775e-02 -9.025919e-02 -8.029493e-02 -8.510039e-02 -7.424182e-02 -7.974102e-02 -6.821101e-02 -7.440372e-02 -6.246209e-02 -6.937124e-02 -5.729946e-02 -6.496697e-02 -5.304680e-02 -6.152014e-02 -5.000852e-02 -5.931923e-02 -4.842411e-02 -5.856295e-02 -4.842594e-02 -5.932217e-02 -5.001379e-02 -6.152562e-02 -5.305482e-02 -6.497428e-02 -5.730920e-02 -6.937941e-02 -6.247228e-02 -7.441170e-02 -6.822035e-02 -7.974781e-02 -7.424906e-02 -8.510515e-02 -8.029904e-02 -9.026132e-02 -8.616798e-02 -9.505979e-02 -9.171205e-02 -9.940545e-02 -9.684027e-02 -1.032546e-01 -1.015053e-01 -1.066025e-01 -1.056934e-01 -1.094718e-01 -1.094143e-01 -1.119015e-01 -1.126935e-01 -1.139396e-01 -1.155655e-01 -1.156366e-01 -1.180687e-01 -1.170417e-01 -1.202425e-01 -1.182002e-01 -1.221245e-01 -1.191527e-01 -1.237497e-01 -1.199343e-01 -1.251494e-01 -1.205745e-01 -1.263515e-01 -1.210981e-01 -1.273798e-01 -1.215256e-01 -1.282551e-01 -1.218734e-01 -1.289948e-01 -1.221550e-01 -1.296135e-01 -1.223811e-01 -1.301235e-01 -1.225601e-01 -1.305346e-01 -1.226986e-01 -1.308548e-01 -1.228016e-01 -1.310901e-01 -1.228729e-01 -1.312450e-01 -1.229149e-01 -1.313225e-01 
-1.256614e-01 -1.343751e-01 -1.256765e-01 -1.343568e-01 -1.257207e-01 -1.343190e-01 -1.257949e-01 -1.342614e-01 -1.259004e-01 -1.341841e-01 -1.260389e-01 -1.340868e-01 -1.262127e-01 -1.339693e-01 -1.264241e-01 -1.338310e-01 -1.266756e-01 -1.336711e-01 -1.269695e-01 -1.334882e-01 -1.273075e-01 -1.332799e-01 -1.276899e-01 -1.330430e-01 -1.281154e-01 -1.327722e-01 -1.285796e-01 -1.324601e-01 -1.290743e-01 -1.320962e-01 -1.295856e-01 -1.316660e-01 -1.300931e-01 -1.311502e-01 -1.305675e-01 -1.305237e-01 -1.309697e-01 -1.297552e-01 -1.312502e-01 -1.288069e-01 -1.313487e-01 -1.276360e-01 -1.311969e-01 -1.261969e-01 -1.307229e-01 -1.244470e-01 -1.298595e-01 -1.223544e-01 -1.285569e-01 -1.199103e-01 -1.267990e-01 -1.171435e-01 -1.246223e-01 -1.141367e-01 -1.221323e-01 -1.110372e-01 -1.195121e-01 -1.080593e-01 -1.170143e-01 -1.054668e-01 -1.149308e-01 -1.035355e-01 -1.135404e-01 -1.024985e-01 -1.130459e-01 -1.024907e-01 -1.135221e-01 -1.035122e-01 -1.148952e-01 -1.054292e-01 -1.169628e-01 -1.080093e-01 -1.194471e-01 -1.109770e-01 -1.220565e-01 -1.140686e-01 -1.245387e-01 -1.170702e-01 -1.267106e-01 -1.198339e-01 -1.284666e-01 -1.222771e-01 -1.297699e-01 -1.243705e-01 -1.306361e-01 -1.261224e-01 -1.311146e-01 -1.275644e-01 -1.312720e-01 -1.287388e-01 -1.311798e-01 -1.296910e-01 -1.309061e-01 -1.304637e-01 -1.305106e-01 -1.310944e-01 -1.300428e-01 -1.316144e-01 -1.295415e-01 -1.320487e-01 -1.290359e-01 -1.324166e-01 -1.285465e-01 -1.327326e-01 -1.280870e-01 -1.330071e-01 -1.276657e-01 -1.332477e-01 -1.272870e-01 -1.334594e-01 -1.269524e-01 -1.336458e-01 -1.266614e-01 -1.338089e-01 -1.264124e-01 -1.339504e-01 -1.262032e-01 -1.340710e-01 -1.260314e-01 -1.341712e-01 -1.258946e-01 -1.342515e-01 -1.257907e-01 -1.343119e-01 -1.257180e-01 -1.343526e-01 -1.256751e-01 -1.343737e-01 
-1.240337e-01 -1.329285e-01 -1.240258e-01 -1.328655e-01 -1.240004e-01 -1.327363e-01 -1.239561e-01 -1.325377e-01 -1.238904e-01 -1.322651e-01 -1.237999e-01 -1.319119e-01 -1.236795e-01 -1.314696e-01 -1.235227e-01 -1.309274e-01 -1.233209e-01 -1.302719e-01 -1.230631e-01 -1.294869e-01 -1.227353e-01 -1.285525e-01 -1.223197e-01 -1.274451e-01 -1.217939e-01 -1.261366e-01 -1.211304e-01 -1.245939e-01 -1.202950e-01 -1.227787e-01 -1.192465e-01 -1.206473e-01 -1.179358e-01 -1.181510e-01 -1.163060e-01 -1.152369e-01 -1.142932e-01 -1.118505e-01 -1.118282e-01 -1.079385e-01 -1.088410e-01 -1.034550e-01 -1.052668e-01 -9.836847e-02 -1.010565e-01 -9.267271e-02 -9.618940e-02 -8.639945e-02 -9.069018e-02 -7.963363e-02 -8.464803e-02 -7.252880e-02 -7.823472e-02 -6.531965e-02 -7.171707e-02 -5.832655e-02 -6.545646e-02 -5.194528e-02 -5.988763e-02 -4.661568e-02 -5.547162e-02 -4.276692e-02 -5.262548e-02 -4.074612e-02 -5.164292e-02 -4.074863e-02 -5.262991e-02 -4.277410e-02 -5.547989e-02 -4.662656e-02 -5.989867e-02 -5.195839e-02 -6.546886e-02 -5.834011e-02 -7.172930e-02 -6.533184e-02 -7.824535e-02 -7.253794e-02 -8.465591e-02 -7.963837e-02 -9.069453e-02 -8.639887e-02 -9.618984e-02 -9.266634e-02 -1.010531e-01 -9.835626e-02 -1.052598e-01 -1.034372e-01 -1.088308e-01 -1.079158e-01 -1.118156e-01 -1.118236e-01 -1.142787e-01 -1.152067e-01 -1.162903e-01 -1.181183e-01 -1.179194e-01 -1.206131e-01 -1.192299e-01 -1.227437e-01 -1.202787e-01 -1.245589e-01 -1.211147e-01 -1.261022e-01 -1.217791e-01 -1.274120e-01 -1.223058e-01 -1.285211e-01 -1.227225e-01 -1.294576e-01 -1.230515e-01 -1.302450e-01 -1.233106e-01 -1.309032e-01 -1.235137e-01 -1.314483e-01 -1.236718e-01 -1.318937e-01 -1.237935e-01 -1.322501e-01 -1.238853e-01 -1.325259e-01 -1.239523e-01 -1.327278e-01 -1.239979e-01 -1.328604e-01 -1.240245e-01 -1.329268e-01 
-1.256367e-01 -1.348861e-01 -1.256527e-01 -1.348717e-01 -1.257003e-01 -1.348414e-01 -1.257805e-01 -1.347952e-01 -1.258950e-01 -1.347332e-01 -1.260461e-01 -1.346553e-01 -1.262369e-01 -1.345614e-01 -1.264708e-01 -1.344512e-01 -1.267517e-01 -1.343242e-01 -1.270832e-01 -1.341794e-01 -1.274690e-01 -1.340150e-01 -1.279115e-01 -1.338281e-01 -1.284118e-01 -1.336139e-01 -1.289680e-01 -1.333653e-01 -1.295739e-01 -1.330720e-01 -1.302177e-01 -1.327189e-01 -1.308794e-01 -1.322853e-01 -1.315289e-01 -1.317432e-01 -1.321233e-01 -1.310560e-01 -1.326048e-01 -1.301774e-01 -1.328999e-01 -1.290516e-01 -1.329196e-01 -1.276144e-01 -1.325634e-01 -1.257986e-01 -1.317285e-01 -1.235428e-01 -1.303247e-01 -1.208067e-01 -1.282976e-01 -1.175934e-01 -1.256579e-01 -1.139754e-01 -1.225130e-01 -1.101207e-01 -1.190896e-01 -1.063055e-01 -1.157337e-01 -1.028996e-01 -1.128727e-01 -1.003133e-01 -1.109347e-01 -9.890824e-02 -1.102413e-01 -9.889852e-02 -1.109128e-01 -1.002847e-01 -1.128300e-01 -1.028536e-01 -1.156722e-01 -1.062444e-01 -1.190122e-01 -1.100476e-01 -1.224233e-01 -1.138935e-01 -1.255597e-01 -1.175059e-01 -1.281947e-01 -1.207166e-01 -1.302208e-01 -1.234524e-01 -1.316267e-01 -1.257100e-01 -1.324662e-01 -1.275289e-01 -1.328287e-01 -1.289701e-01 -1.328166e-01 -1.301006e-01 -1.325296e-01 -1.309841e-01 -1.320564e-01 -1.316763e-01 -1.314702e-01 -1.322234e-01 -1.308285e-01 -1.326619e-01 -1.301739e-01 -1.330197e-01 -1.295366e-01 -1.333175e-01 -1.289365e-01 -1.335704e-01 -1.283854e-01 -1.337888e-01 -1.278896e-01 -1.339798e-01 -1.274508e-01 -1.341480e-01 -1.270683e-01 -1.342965e-01 -1.267396e-01 -1.344271e-01 -1.264611e-01 -1.345407e-01 -1.262292e-01 -1.346380e-01 -1.260401e-01 -1.347192e-01 -1.258904e-01 -1.347844e-01 -1.257773e-01 -1.348337e-01 -1.256983e-01 -1.348671e-01 -1.256517e-01 -1.348846e-01 
-1.251554e-01 -1.345981e-01 -1.251533e-01 -1.345486e-01 -1.251451e-01 -1.344459e-01 -1.251297e-01 -1.342870e-01 -1.251049e-01 -1.340669e-01 -1.250673e-01 -1.337789e-01 -1.250123e-01 -1.334141e-01 -1.249337e-01 -1.329612e-01 -1.248232e-01 -1.324058e-01 -1.246700e-01 -1.317302e-01 -1.244597e-01 -1.309129e-01 -1.241741e-01 -1.299272e-01 -1.237896e-01 -1.287414e-01 -1.232759e-01 -1.273169e-01 -1.225954e-01 -1.256085e-01 -1.217007e-01 -1.235630e-01 -1.205344e-01 -1.211196e-01 -1.190272e-01 -1.182099e-01 -1.170986e-01 -1.147602e-01 -1.146577e-01 -1.106941e-01 -1.116067e-01 -1.059386e-01 -1.078475e-01 -1.004323e-01 -1.032927e-01 -9.413763e-02 -9.788179e-02 -8.705809e-02 -9.160376e-02 -7.925893e-02 -8.452506e-02 -7.089176e-02 -7.682053e-02 -6.221862e-02 -6.880045e-02 -5.362860e-02 -6.092265e-02 -4.563573e-02 -5.377473e-02 -3.884446e-02 -4.801299e-02 -3.387297e-02 -4.425568e-02 -3.123974e-02 -4.295073e-02 -3.124329e-02 -4.426222e-02 -3.388311e-02 -4.802522e-02 -3.885979e-02 -5.379105e-02 -4.565413e-02 -6.094098e-02 -5.364754e-02 -6.881854e-02 -6.223551e-02 -7.683634e-02 -7.090430e-02 -8.453700e-02 -7.926536e-02 -9.161082e-02 -8.705728e-02 -9.788358e-02 -9.412910e-02 -1.032893e-01 -1.004161e-01 -1.078395e-01 -1.059154e-01 -1.115949e-01 -1.106648e-01 -1.146429e-01 -1.147257e-01 -1.170818e-01 -1.181715e-01 -1.190091e-01 -1.210785e-01 -1.205157e-01 -1.235203e-01 -1.216821e-01 -1.255652e-01 -1.225772e-01 -1.272739e-01 -1.232585e-01 -1.286995e-01 -1.237732e-01 -1.298871e-01 -1.241590e-01 -1.308750e-01 -1.244460e-01 -1.316951e-01 -1.246576e-01 -1.323737e-01 -1.248123e-01 -1.329324e-01 -1.249242e-01 -1.333889e-01 -1.250042e-01 -1.337574e-01 -1.250606e-01 -1.340491e-01 -1.250996e-01 -1.342731e-01 -1.251258e-01 -1.344360e-01 -1.251425e-01 -1.345426e-01 -1.251520e-01 -1.345962e-01 
-1.255809e-01 -1.354131e-01 -1.255977e-01 -1.354029e-01 -1.256481e-01 -1.353808e-01 -1.257332e-01 -1.353469e-01 -1.258554e-01 -1.353013e-01 -1.260175e-01 -1.352443e-01 -1.262234e-01 -1.351759e-01 -1.264778e-01 -1.350961e-01 -1.267857e-01 -1.350048e-01 -1.271530e-01 -1.349014e-01 -1.275852e-01 -1.347847e-01 -1.280877e-01 -1.346526e-01 -1.286643e-01 -1.345011e-01 -1.293167e-01 -1.343239e-01 -1.300422e-01 -1.341115e-01 -1.308326e-01 -1.338494e-01 -1.316706e-01 -1.335165e-01 -1.325274e-01 -1.330836e-01 -1.333587e-01 -1.325101e-01 -1.341005e-01 -1.317424e-01 -1.346664e-01 -1.307114e-01 -1.349446e-01 -1.293319e-01 -1.348001e-01 -1.275055e-01 -1.340814e-01 -1.251286e-01 -1.326379e-01 -1.221103e-01 -1.303492e-01 -1.184025e-01 -1.271706e-01 -1.140426e-01 -1.231867e-01 -1.092038e-01 -1.186645e-01 -1.042335e-01 -1.140751e-01 -9.965389e-02 -1.100542e-01 -9.609057e-02 -1.072787e-01 -9.412522e-02 -1.062774e-01 -9.411318e-02 -1.072521e-01 -9.605514e-02 -1.100025e-01 -9.959713e-02 -1.140008e-01 -1.041586e-01 -1.185714e-01 -1.091147e-01 -1.230794e-01 -1.139438e-01 -1.270540e-01 -1.182980e-01 -1.302285e-01 -1.220040e-01 -1.325174e-01 -1.250233e-01 -1.339650e-01 -1.274034e-01 -1.346906e-01 -1.292345e-01 -1.348440e-01 -1.306196e-01 -1.345758e-01 -1.316566e-01 -1.340204e-01 -1.324304e-01 -1.332888e-01 -1.330098e-01 -1.324674e-01 -1.334486e-01 -1.316197e-01 -1.337870e-01 -1.307898e-01 -1.340545e-01 -1.300068e-01 -1.342720e-01 -1.292875e-01 -1.344540e-01 -1.286406e-01 -1.346101e-01 -1.280685e-01 -1.347466e-01 -1.275699e-01 -1.348675e-01 -1.271408e-01 -1.349749e-01 -1.267762e-01 -1.350701e-01 -1.264704e-01 -1.351536e-01 -1.262178e-01 -1.352256e-01 -1.260132e-01 -1.352862e-01 -1.258523e-01 -1.353352e-01 -1.257311e-01 -1.353725e-01 -1.256467e-01 -1.353979e-01 -1.255971e-01 -1.354115e-01 
-1.262827e-01 -1.363194e-01 -1.262869e-01 -1.362851e-01 -1.262978e-01 -1.362128e-01 -1.263144e-01 -1.360993e-01 -1.263347e-01 -1.359398e-01 -1.263560e-01 -1.357275e-01 -1.263743e-01 -1.354533e-01 -1.263840e-01 -1.351057e-01 -1.263775e-01 -1.346697e-01 -1.263446e-01 -1.341269e-01 -1.262716e-01 -1.334540e-01 -1.261402e-01 -1.326222e-01 -1.259264e-01 -1.315961e-01 -1.255986e-01 -1.303324e-01 -1.251160e-01 -1.287787e-01 -1.244265e-01 -1.268722e-01 -1.234644e-01 -1.245392e-01 -1.221483e-01 -1.216943e-01 -1.203801e-01 -1.182417e-01 -1.180443e-01 -1.140775e-01 -1.150102e-01 -1.090944e-01 -1.111373e-01 -1.031912e-01 -1.062864e-01 -9.628540e-02 -1.003378e-01 -8.833408e-02 -9.321988e-02 -7.936151e-02 -8.494813e-02 -6.949543e-02 -7.567476e-02 -5.900890e-02 -6.574056e-02 -4.835952e-02 -5.571368e-02 -3.820870e-02 -4.638881e-02 -2.939401e-02 -3.871508e-02 -2.282649e-02 -3.363477e-02 -1.930755e-02 -3.185634e-02 -1.931266e-02 -3.364436e-02 -2.284112e-02 -3.873300e-02 -2.941610e-02 -4.641267e-02 -3.823514e-02 -5.574038e-02 -4.838663e-02 -6.576678e-02 -5.903300e-02 -7.569756e-02 -6.951335e-02 -8.496531e-02 -7.937093e-02 -9.323020e-02 -8.833366e-02 -1.003410e-01 -9.627473e-02 -1.062827e-01 -1.031706e-01 -1.111277e-01 -1.090650e-01 -1.149959e-01 -1.140404e-01 -1.180266e-01 -1.181986e-01 -1.203601e-01 -1.216467e-01 -1.221271e-01 -1.244886e-01 -1.234427e-01 -1.268201e-01 -1.244052e-01 -1.287262e-01 -1.250955e-01 -1.302806e-01 -1.255792e-01 -1.315460e-01 -1.259084e-01 -1.325744e-01 -1.261238e-01 -1.334092e-01 -1.262568e-01 -1.340855e-01 -1.263314e-01 -1.346321e-01 -1.263660e-01 -1.350721e-01 -1.263740e-01 -1.354239e-01 -1.263659e-01 -1.357025e-01 -1.263491e-01 -1.359193e-01 -1.263292e-01 -1.360833e-01 -1.263103e-01 -1.362014e-01 -1.262951e-01 -1.362783e-01 -1.262856e-01 -1.363171e-01 
-1.254921e-01 -1.359522e-01 -1.255095e-01 -1.359464e-01 -1.255618e-01 -1.359330e-01 -1.256506e-01 -1.359123e-01 -1.257786e-01 -1.358844e-01 -1.259493e-01 -1.358497e-01 -1.261674e-01 -1.358085e-01 -1.264388e-01 -1.357611e-01 -1.267701e-01 -1.357078e-01 -1.271691e-01 -1.356486e-01 -1.276439e-01 -1.355829e-01 -1.282029e-01 -1.355095e-01 -1.288537e-01 -1.354255e-01 -1.296024e-01 -1.353262e-01 -1.304517e-01 -1.352035e-01 -1.313986e-01 -1.350446e-01 -1.324316e-01 -1.348302e-01 -1.335267e-01 -1.345317e-01 -1.346419e-01 -1.341078e-01 -1.357118e-01 -1.335003e-01 -1.366399e-01 -1.326293e-01 -1.372929e-01 -1.313886e-01 -1.374963e-01 -1.296432e-01 -1.370369e-01 -1.272335e-01 -1.356771e-01 -1.239914e-01 -1.331899e-01 -1.197774e-01 -1.294212e-01 -1.145447e-01 -1.243813e-01 -1.084302e-01 -1.183504e-01 -1.018474e-01 -1.119569e-01 -9.553172e-02 -1.061582e-01 -9.046099e-02 -1.020572e-01 -8.760884e-02 -1.005612e-01 -8.759383e-02 -1.020247e-01 -9.041686e-02 -1.060950e-01 -9.546121e-02 -1.118663e-01 -1.017549e-01 -1.182372e-01 -1.083211e-01 -1.242516e-01 -1.144250e-01 -1.292817e-01 -1.196526e-01 -1.330469e-01 -1.238662e-01 -1.355364e-01 -1.271113e-01 -1.369031e-01 -1.295264e-01 -1.373727e-01 -1.312785e-01 -1.371814e-01 -1.325267e-01 -1.365416e-01 -1.334053e-01 -1.356267e-01 -1.340202e-01 -1.345696e-01 -1.344512e-01 -1.334660e-01 -1.347565e-01 -1.323816e-01 -1.349772e-01 -1.313578e-01 -1.351420e-01 -1.304189e-01 -1.352704e-01 -1.295765e-01 -1.353750e-01 -1.288334e-01 -1.354639e-01 -1.281872e-01 -1.355421e-01 -1.276320e-01 -1.356123e-01 -1.271602e-01 -1.356759e-01 -1.267636e-01 -1.357333e-01 -1.264341e-01 -1.357847e-01 -1.261641e-01 -1.358298e-01 -1.259470e-01 -1.358683e-01 -1.257771e-01 -1.358998e-01 -1.256497e-01 -1.359242e-01 -1.255613e-01 -1.359411e-01 -1.255092e-01 -1.359505e-01 
-1.274034e-01 -1.380775e-01 -1.274144e-01 -1.380605e-01 -1.274459e-01 -1.380223e-01 -1.274970e-01 -1.379602e-01 -1.275666e-01 -1.378693e-01 -1.276523e-01 -1.377432e-01 -1.277512e-01 -1.375732e-01 -1.278587e-01 -1.373476e-01 -1.279684e-01 -1.370517e-01 -1.280714e-01 -1.366664e-01 -1.281552e-01 -1.361677e-01 -1.282027e-01 -1.355252e-01 -1.281904e-01 -1.347007e-01 -1.280867e-01 -1.336466e-01 -1.278495e-01 -1.323040e-01 -1.274231e-01 -1.306011e-01 -1.267352e-01 -1.284507e-01 -1.256936e-01 -1.257498e-01 -1.241828e-01 -1.223782e-01 -1.220613e-01 -1.182003e-01 -1.191615e-01 -1.130682e-01 -1.152919e-01 -1.068295e-01 -1.102459e-01 -9.934022e-02 -1.038205e-01 -9.048726e-02 -9.584789e-02 -8.022188e-02 -8.624759e-02 -6.860947e-02 -7.509962e-02 -5.589625e-02 -6.273629e-02 -4.258712e-02 -4.983303e-02 -2.951237e-02 -3.745518e-02 -1.783488e-02 -2.699402e-02 -8.928558e-03 -1.992948e-02 -4.081580e-03 -1.743014e-02 -4.089016e-03 -1.994350e-02 -8.949842e-03 -2.702018e-02 -1.786702e-02 -3.748992e-02 -2.955077e-02 -4.987166e-02 -4.262635e-02 -6.277386e-02 -5.593099e-02 -7.513184e-02 -6.863532e-02 -8.627148e-02 -8.023582e-02 -9.586197e-02 -9.048778e-02 -1.038247e-01 -9.932713e-02 -1.102411e-01 -1.068036e-01 -1.152796e-01 -1.130312e-01 -1.191436e-01 -1.181540e-01 -1.220394e-01 -1.223248e-01 -1.241585e-01 -1.256913e-01 -1.256684e-01 -1.283892e-01 -1.267100e-01 -1.305382e-01 -1.273986e-01 -1.322412e-01 -1.278263e-01 -1.335851e-01 -1.280651e-01 -1.346416e-01 -1.281706e-01 -1.354693e-01 -1.281848e-01 -1.361156e-01 -1.281393e-01 -1.366185e-01 -1.280574e-01 -1.370083e-01 -1.279562e-01 -1.373090e-01 -1.278483e-01 -1.375396e-01 -1.277424e-01 -1.377147e-01 -1.276451e-01 -1.378459e-01 -1.275609e-01 -1.379419e-01 -1.274928e-01 -1.380093e-01 -1.274431e-01 -1.380526e-01 -1.274130e-01 -1.380749e-01 
-1.253696e-01 -1.364996e-01 -1.253870e-01 -1.364984e-01 -1.254403e-01 -1.364944e-01 -1.255311e-01 -1.364876e-01 -1.256625e-01 -1.364785e-01 -1.258386e-01 -1.364675e-01 -1.260650e-01 -1.364552e-01 -1.263487e-01 -1.364420e-01 -1.266978e-01 -1.364287e-01 -1.271222e-01 -1.364158e-01 -1.276327e-01 -1.364036e-01 -1.282410e-01 -1.363916e-01 -1.289593e-01 -1.363785e-01 -1.297991e-01 -1.363612e-01 -1.307697e-01 -1.363341e-01 -1.318763e-01 -1.362876e-01 -1.331163e-01 -1.362060e-01 -1.344751e-01 -1.360649e-01 -1.359197e-01 -1.358265e-01 -1.373899e-01 -1.354341e-01 -1.387877e-01 -1.348032e-01 -1.399642e-01 -1.338117e-01 -1.407067e-01 -1.322881e-01 -1.407297e-01 -1.300050e-01 -1.396788e-01 -1.266849e-01 -1.371624e-01 -1.220365e-01 -1.328293e-01 -1.158408e-01 -1.265097e-01 -1.081027e-01 -1.184153e-01 -9.925128e-02 -1.093420e-01 -9.030211e-02 -1.007381e-01 -8.281707e-02 -9.445823e-02 -7.849767e-02 -9.213274e-02 -7.847881e-02 -9.441827e-02 -8.276166e-02 -1.006602e-01 -9.021371e-02 -1.092304e-01 -9.913588e-02 -1.182763e-01 -1.079680e-01 -1.263513e-01 -1.156949e-01 -1.326606e-01 -1.218869e-01 -1.369918e-01 -1.265374e-01 -1.395135e-01 -1.298636e-01 -1.405753e-01 -1.321553e-01 -1.405670e-01 -1.336884e-01 -1.398411e-01 -1.346898e-01 -1.386817e-01 -1.353301e-01 -1.373005e-01 -1.357314e-01 -1.358457e-01 -1.359781e-01 -1.344150e-01 -1.361269e-01 -1.330683e-01 -1.362155e-01 -1.318387e-01 -1.362686e-01 -1.307409e-01 -1.363017e-01 -1.297774e-01 -1.363247e-01 -1.289435e-01 -1.363432e-01 -1.282297e-01 -1.363602e-01 -1.276250e-01 -1.363774e-01 -1.271172e-01 -1.363949e-01 -1.266949e-01 -1.364126e-01 -1.263471e-01 -1.364300e-01 -1.260645e-01 -1.364465e-01 -1.258386e-01 -1.364615e-01 -1.256628e-01 -1.364744e-01 -1.255316e-01 -1.364850e-01 -1.254407e-01 -1.364928e-01 -1.253873e-01 -1.364977e-01 