# vtk DataFile Version 2.0
Comment goes here
ASCII

DATASET STRUCTURED_POINTS
DIMENSIONS    128   128   1

ORIGIN    0.000   0.000   0.000
SPACING   0.00781250.0078125   1.000

POINT_DATA   16384
VECTORS u double

0.000005 0.025547 1.000000 -0.000612 0.025567 1.000000 -0.001233 0.025613 1.000000 -0.001858 0.025698 1.000000 -0.002494 0.025808 1.000000 -0.003140 0.025955 1.000000 -0.003802 0.026123 1.000000 -0.004479 0.026325 1.000000 -0.005179 0.026544 1.000000 -0.005898 0.026790 1.000000 -0.006648 0.027048 1.000000 -0.007420 0.027326 1.000000 -0.008228 0.027608 1.000000 -0.009063 0.027900 1.000000 -0.009940 0.028186 1.000000 -0.010847 0.028471 1.000000 -0.011800 0.028736 1.000000 -0.012786 0.028987 1.000000 -0.013821 0.029203 1.000000 -0.014890 0.029389 1.000000 -0.016012 0.029523 1.000000 -0.017166 0.029606 1.000000 -0.018373 0.029618 1.000000 -0.019611 0.029558 1.000000 -0.020901 0.029404 1.000000 -0.022216 0.029155 1.000000 -0.023578 0.028789 1.000000 -0.024958 0.028302 1.000000 -0.026378 0.027672 1.000000 -0.027804 0.026896 1.000000 -0.029259 0.025954 1.000000 -0.030706 0.024838 1.000000 -0.032165 0.023533 1.000000 -0.033597 0.022031 1.000000 -0.035023 0.020319 1.000000 -0.036397 0.018391 1.000000 -0.037741 0.016238 1.000000 -0.039006 0.013854 1.000000 -0.040211 0.011236 1.000000 -0.041306 0.008382 1.000000 -0.042308 0.005296 1.000000 -0.043166 0.001978 1.000000 -0.043894 -0.001558 1.000000 -0.044443 -0.005309 1.000000 -0.044824 -0.009251 1.000000 -0.044988 -0.013375 1.000000 -0.044949 -0.017647 1.000000 -0.044659 -0.022053 1.000000 -0.044131 -0.026548 1.000000 -0.043325 -0.031111 1.000000 -0.042253 -0.035690 1.000000 -0.040884 -0.040258 1.000000 -0.039234 -0.044753 1.000000 -0.037279 -0.049146 1.000000 -0.035040 -0.053369 1.000000 -0.032506 -0.057393 1.000000 -0.029702 -0.061147 1.000000 -0.026630 -0.064604 1.000000 -0.023322 -0.067698 1.000000 -0.019791 -0.070406 1.000000 -0.016076 -0.072669 1.000000 -0.012201 -0.074474 1.000000 -0.008208 -0.075776 1.000000 -0.004132 -0.076573 1.000000 -0.000016 -0.076834 1.000000 0.004101 -0.076576 1.000000 0.008178 -0.075781 1.000000 0.012171 -0.074483 1.000000 0.016046 -0.072680 1.000000 0.019763 -0.070419 1.000000 0.023294 -0.067714 1.000000 0.026604 -0.064623 1.000000 0.029677 -0.061168 1.000000 0.032482 -0.057415 1.000000 0.035018 -0.053393 1.000000 0.037259 -0.049171 1.000000 0.039216 -0.044780 1.000000 0.040868 -0.040286 1.000000 0.042239 -0.035719 1.000000 0.043312 -0.031141 1.000000 0.044120 -0.026578 1.000000 0.044650 -0.022083 1.000000 0.044942 -0.017678 1.000000 0.044983 -0.013405 1.000000 0.044820 -0.009282 1.000000 0.044441 -0.005339 1.000000 0.043894 -0.001588 1.000000 0.043167 0.001949 1.000000 0.042310 0.005268 1.000000 0.041310 0.008354 1.000000 0.040216 0.011209 1.000000 0.039012 0.013828 1.000000 0.037748 0.016213 1.000000 0.036405 0.018367 1.000000 0.035031 0.020296 1.000000 0.033607 0.022009 1.000000 0.032175 0.023512 1.000000 0.030716 0.024818 1.000000 0.029270 0.025935 1.000000 0.027815 0.026878 1.000000 0.026389 0.027656 1.000000 0.024970 0.028286 1.000000 0.023590 0.028774 1.000000 0.022228 0.029141 1.000000 0.020913 0.029391 1.000000 0.019624 0.029546 1.000000 0.018386 0.029606 1.000000 0.017178 0.029595 1.000000 0.016024 0.029513 1.000000 0.014902 0.029380 1.000000 0.013833 0.029195 1.000000 0.012798 0.028979 1.000000 0.011812 0.028729 1.000000 0.010859 0.028464 1.000000 0.009952 0.028179 1.000000 0.009075 0.027894 1.000000 0.008240 0.027602 1.000000 0.007431 0.027322 1.000000 0.006659 0.027044 1.000000 0.005910 0.026787 1.000000 0.005190 0.026540 1.000000 0.004490 0.026322 1.000000 0.003813 0.026121 1.000000 0.003151 0.025953 1.000000 0.002505 0.025807 1.000000 0.001869 0.025697 1.000000 0.001244 0.025613 1.000000 0.000623 0.025567 1.000000 
0.000006 0.026151 1.000000 -0.000565 0.026173 1.000000 -0.001140 0.026223 1.000000 -0.001720 0.026316 1.000000 -0.002310 0.026436 1.000000 -0.002910 0.026596 1.000000 -0.003527 0.026781 1.000000 -0.004160 0.027001 1.000000 -0.004816 0.027242 1.000000 -0.005492 0.027513 1.000000 -0.006199 0.027798 1.000000 -0.006930 0.028107 1.000000 -0.007698 0.028420 1.000000 -0.008494 0.028748 1.000000 -0.009333 0.029070 1.000000 -0.010204 0.029394 1.000000 -0.011124 0.029700 1.000000 -0.012077 0.029993 1.000000 -0.013083 0.030253 1.000000 -0.014125 0.030483 1.000000 -0.015222 0.030661 1.000000 -0.016355 0.030789 1.000000 -0.017545 0.030844 1.000000 -0.018769 0.030827 1.000000 -0.020049 0.030714 1.000000 -0.021358 0.030504 1.000000 -0.022719 0.030172 1.000000 -0.024103 0.029716 1.000000 -0.025532 0.029112 1.000000 -0.026972 0.028356 1.000000 -0.028447 0.027426 1.000000 -0.029920 0.026316 1.000000 -0.031412 0.025006 1.000000 -0.032882 0.023490 1.000000 -0.034353 0.021752 1.000000 -0.035778 0.019785 1.000000 -0.037179 0.017579 1.000000 -0.038508 0.015127 1.000000 -0.039782 0.012426 1.000000 -0.040952 0.009472 1.000000 -0.042034 0.006268 1.000000 -0.042975 0.002814 1.000000 -0.043791 -0.000878 1.000000 -0.044428 -0.004803 1.000000 -0.044899 -0.008938 1.000000 -0.045154 -0.013274 1.000000 -0.045202 -0.017777 1.000000 -0.044997 -0.022431 1.000000 -0.044549 -0.027189 1.000000 -0.043815 -0.032030 1.000000 -0.042807 -0.036897 1.000000 -0.041491 -0.041761 1.000000 -0.039882 -0.046557 1.000000 -0.037953 -0.051253 1.000000 -0.035727 -0.055775 1.000000 -0.033188 -0.060090 1.000000 -0.030364 -0.064123 1.000000 -0.027255 -0.067841 1.000000 -0.023893 -0.071173 1.000000 -0.020294 -0.074092 1.000000 -0.016496 -0.076534 1.000000 -0.012527 -0.078484 1.000000 -0.008431 -0.079890 1.000000 -0.004246 -0.080752 1.000000 -0.000016 -0.081034 1.000000 0.004214 -0.080755 1.000000 0.008400 -0.079896 1.000000 0.012496 -0.078493 1.000000 0.016466 -0.076546 1.000000 0.020264 -0.074107 1.000000 0.023865 -0.071190 1.000000 0.027228 -0.067861 1.000000 0.030339 -0.064145 1.000000 0.033164 -0.060114 1.000000 0.035705 -0.055801 1.000000 0.037933 -0.051280 1.000000 0.039864 -0.046586 1.000000 0.041475 -0.041791 1.000000 0.042793 -0.036927 1.000000 0.043803 -0.032061 1.000000 0.044539 -0.027221 1.000000 0.044989 -0.022463 1.000000 0.045196 -0.017810 1.000000 0.045149 -0.013307 1.000000 0.044897 -0.008970 1.000000 0.044427 -0.004834 1.000000 0.043792 -0.000909 1.000000 0.042977 0.002784 1.000000 0.042038 0.006238 1.000000 0.040957 0.009443 1.000000 0.039788 0.012398 1.000000 0.038515 0.015100 1.000000 0.037188 0.017553 1.000000 0.035787 0.019760 1.000000 0.034362 0.021728 1.000000 0.032893 0.023467 1.000000 0.031423 0.024984 1.000000 0.029931 0.026295 1.000000 0.028459 0.027407 1.000000 0.026984 0.028338 1.000000 0.025544 0.029095 1.000000 0.024115 0.029700 1.000000 0.022732 0.030157 1.000000 0.021371 0.030490 1.000000 0.020062 0.030701 1.000000 0.018782 0.030815 1.000000 0.017558 0.030833 1.000000 0.016369 0.030778 1.000000 0.015235 0.030651 1.000000 0.014138 0.030474 1.000000 0.013096 0.030244 1.000000 0.012090 0.029985 1.000000 0.011136 0.029693 1.000000 0.010217 0.029387 1.000000 0.009346 0.029064 1.000000 0.008506 0.028742 1.000000 0.007710 0.028415 1.000000 0.006942 0.028102 1.000000 0.006211 0.027794 1.000000 0.005504 0.027510 1.000000 0.004828 0.027239 1.000000 0.004171 0.026999 1.000000 0.003539 0.026778 1.000000 0.002921 0.026594 1.000000 0.002321 0.026435 1.000000 0.001731 0.026315 1.000000 0.001151 0.026223 1.000000 0.000577 0.026173 1.000000 
0.000006 0.026690 1.000000 -0.000516 0.026713 1.000000 -0.001041 0.026768 1.000000 -0.001572 0.026868 1.000000 -0.002113 0.026998 1.000000 -0.002664 0.027172 1.000000 -0.003233 0.027373 1.000000 -0.003818 0.027613 1.000000 -0.004427 0.027876 1.000000 -0.005056 0.028173 1.000000 -0.005717 0.028486 1.000000 -0.006402 0.028825 1.000000 -0.007126 0.029172 1.000000 -0.007879 0.029536 1.000000 -0.008677 0.029896 1.000000 -0.009507 0.030261 1.000000 -0.010388 0.030609 1.000000 -0.011304 0.030947 1.000000 -0.012276 0.031251 1.000000 -0.013286 0.031528 1.000000 -0.014353 0.031753 1.000000 -0.015460 0.031929 1.000000 -0.016627 0.032032 1.000000 -0.017831 0.032061 1.000000 -0.019095 0.031993 1.000000 -0.020392 0.031826 1.000000 -0.021747 0.031534 1.000000 -0.023128 0.031114 1.000000 -0.024561 0.030542 1.000000 -0.026010 0.029812 1.000000 -0.027501 0.028901 1.000000 -0.028995 0.027803 1.000000 -0.030515 0.026495 1.000000 -0.032020 0.024972 1.000000 -0.033532 0.023216 1.000000 -0.035006 0.021218 1.000000 -0.036463 0.018967 1.000000 -0.037854 0.016457 1.000000 -0.039198 0.013680 1.000000 -0.040443 0.010634 1.000000 -0.041607 0.007319 1.000000 -0.042635 0.003735 1.000000 -0.043542 -0.000106 1.000000 -0.044273 -0.004200 1.000000 -0.044842 -0.008525 1.000000 -0.045194 -0.013072 1.000000 -0.045340 -0.017804 1.000000 -0.045228 -0.022706 1.000000 -0.044870 -0.027730 1.000000 -0.044220 -0.032853 1.000000 -0.043288 -0.038014 1.000000 -0.042036 -0.043183 1.000000 -0.040479 -0.048291 1.000000 -0.038588 -0.053301 1.000000 -0.036384 -0.058135 1.000000 -0.033850 -0.062755 1.000000 -0.031013 -0.067081 1.000000 -0.027873 -0.071075 1.000000 -0.024463 -0.074659 1.000000 -0.020798 -0.077803 1.000000 -0.016920 -0.080435 1.000000 -0.012857 -0.082539 1.000000 -0.008657 -0.084057 1.000000 -0.004361 -0.084988 1.000000 -0.000016 -0.085293 1.000000 0.004328 -0.084991 1.000000 0.008625 -0.084064 1.000000 0.012825 -0.082549 1.000000 0.016889 -0.080448 1.000000 0.020768 -0.077818 1.000000 0.024434 -0.074678 1.000000 0.027846 -0.071096 1.000000 0.030988 -0.067104 1.000000 0.033826 -0.062781 1.000000 0.036362 -0.058162 1.000000 0.038569 -0.053330 1.000000 0.040461 -0.048321 1.000000 0.042020 -0.043215 1.000000 0.043274 -0.038047 1.000000 0.044208 -0.032886 1.000000 0.044861 -0.027764 1.000000 0.045221 -0.022741 1.000000 0.045334 -0.017839 1.000000 0.045190 -0.013106 1.000000 0.044841 -0.008559 1.000000 0.044274 -0.004234 1.000000 0.043544 -0.000138 1.000000 0.042638 0.003703 1.000000 0.041612 0.007288 1.000000 0.040450 0.010603 1.000000 0.039206 0.013651 1.000000 0.037863 0.016429 1.000000 0.036473 0.018941 1.000000 0.035017 0.021193 1.000000 0.033543 0.023191 1.000000 0.032032 0.024949 1.000000 0.030527 0.026473 1.000000 0.029007 0.027782 1.000000 0.027514 0.028881 1.000000 0.026024 0.029794 1.000000 0.024575 0.030524 1.000000 0.023142 0.031098 1.000000 0.021761 0.031518 1.000000 0.020406 0.031811 1.000000 0.019109 0.031980 1.000000 0.017845 0.032049 1.000000 0.016641 0.032020 1.000000 0.015474 0.031918 1.000000 0.014367 0.031743 1.000000 0.013299 0.031519 1.000000 0.012289 0.031243 1.000000 0.011318 0.030939 1.000000 0.010401 0.030602 1.000000 0.009520 0.030254 1.000000 0.008690 0.029890 1.000000 0.007892 0.029530 1.000000 0.007139 0.029167 1.000000 0.006415 0.028821 1.000000 0.005729 0.028482 1.000000 0.005068 0.028170 1.000000 0.004439 0.027873 1.000000 0.003830 0.027611 1.000000 0.003245 0.027371 1.000000 0.002676 0.027170 1.000000 0.002125 0.026997 1.000000 0.001584 0.026867 1.000000 0.001053 0.026767 1.000000 0.000528 0.026713 1.000000 
0.000006 0.027195 1.000000 -0.000462 0.027220 1.000000 -0.000934 0.027279 1.000000 -0.001410 0.027388 1.000000 -0.001898 0.027529 1.000000 -0.002396 0.027717 1.000000 -0.002912 0.027934 1.000000 -0.003443 0.028195 1.000000 -0.004000 0.028480 1.000000 -0.004577 0.028803 1.000000 -0.005186 0.029145 1.000000 -0.005821 0.029516 1.000000 -0.006494 0.029897 1.000000 -0.007198 0.030298 1.000000 -0.007947 0.030698 1.000000 -0.008731 0.031105 1.000000 -0.009566 0.031497 1.000000 -0.010438 0.031882 1.000000 -0.011368 0.032234 1.000000 -0.012337 0.032560 1.000000 -0.013368 0.032835 1.000000 -0.014439 0.033062 1.000000 -0.015574 0.033215 1.000000 -0.016749 0.033295 1.000000 -0.017989 0.033276 1.000000 -0.019265 0.033156 1.000000 -0.020604 0.032908 1.000000 -0.021974 0.032530 1.000000 -0.023401 0.031994 1.000000 -0.024850 0.031296 1.000000 -0.026347 0.030410 1.000000 -0.027853 0.029330 1.000000 -0.029393 0.028031 1.000000 -0.030924 0.026507 1.000000 -0.032471 0.024738 1.000000 -0.033986 0.022716 1.000000 -0.035493 0.020426 1.000000 -0.036941 0.017862 1.000000 -0.038351 0.015015 1.000000 -0.039669 0.011881 1.000000 -0.040913 0.008460 1.000000 -0.042028 0.004749 1.000000 -0.043029 0.000761 1.000000 -0.043858 -0.003502 1.000000 -0.044530 -0.008018 1.000000 -0.044986 -0.012777 1.000000 -0.045238 -0.017743 1.000000 -0.045232 -0.022900 1.000000 -0.044977 -0.028198 1.000000 -0.044423 -0.033612 1.000000 -0.043582 -0.039080 1.000000 -0.042411 -0.044570 1.000000 -0.040923 -0.050005 1.000000 -0.039087 -0.055348 1.000000 -0.036922 -0.060514 1.000000 -0.034410 -0.065461 1.000000 -0.031576 -0.070100 1.000000 -0.028420 -0.074392 1.000000 -0.024975 -0.078248 1.000000 -0.021257 -0.081635 1.000000 -0.017309 -0.084475 1.000000 -0.013163 -0.086746 1.000000 -0.008868 -0.088386 1.000000 -0.004468 -0.089392 1.000000 -0.000017 -0.089723 1.000000 0.004435 -0.089396 1.000000 0.008835 -0.088393 1.000000 0.013130 -0.086756 1.000000 0.017278 -0.084488 1.000000 0.021226 -0.081652 1.000000 0.024946 -0.078268 1.000000 0.028392 -0.074414 1.000000 0.031551 -0.070126 1.000000 0.034386 -0.065488 1.000000 0.036900 -0.060543 1.000000 0.039068 -0.055379 1.000000 0.040906 -0.050038 1.000000 0.042396 -0.044604 1.000000 0.043570 -0.039115 1.000000 0.044413 -0.033648 1.000000 0.044969 -0.028234 1.000000 0.045226 -0.022936 1.000000 0.045234 -0.017779 1.000000 0.044984 -0.012813 1.000000 0.044530 -0.008054 1.000000 0.043860 -0.003538 1.000000 0.043033 0.000727 1.000000 0.042033 0.004716 1.000000 0.040920 0.008427 1.000000 0.039677 0.011850 1.000000 0.038360 0.014985 1.000000 0.036952 0.017833 1.000000 0.035505 0.020399 1.000000 0.033998 0.022690 1.000000 0.032484 0.024713 1.000000 0.030937 0.026483 1.000000 0.029407 0.028008 1.000000 0.027867 0.029308 1.000000 0.026362 0.030390 1.000000 0.024865 0.031278 1.000000 0.023416 0.031977 1.000000 0.021989 0.032514 1.000000 0.020619 0.032893 1.000000 0.019281 0.033142 1.000000 0.018004 0.033263 1.000000 0.016764 0.033283 1.000000 0.015589 0.033204 1.000000 0.014454 0.033052 1.000000 0.013382 0.032825 1.000000 0.012352 0.032551 1.000000 0.011382 0.032226 1.000000 0.010452 0.031874 1.000000 0.009580 0.031490 1.000000 0.008744 0.031099 1.000000 0.007961 0.030692 1.000000 0.007211 0.030293 1.000000 0.006507 0.029892 1.000000 0.005834 0.029512 1.000000 0.005199 0.029141 1.000000 0.004590 0.028800 1.000000 0.004012 0.028477 1.000000 0.003456 0.028192 1.000000 0.002924 0.027932 1.000000 0.002408 0.027715 1.000000 0.001910 0.027527 1.000000 0.001423 0.027387 1.000000 0.000946 0.027279 1.000000 0.000474 0.027220 1.000000 
0.000006 0.027626 1.000000 -0.000405 0.027653 1.000000 -0.000819 0.027716 1.000000 -0.001239 0.027833 1.000000 -0.001670 0.027984 1.000000 -0.002111 0.028186 1.000000 -0.002570 0.028420 1.000000 -0.003045 0.028701 1.000000 -0.003545 0.029010 1.000000 -0.004066 0.029359 1.000000 -0.004620 0.029730 1.000000 -0.005199 0.030134 1.000000 -0.005818 0.030549 1.000000 -0.006468 0.030989 1.000000 -0.007164 0.031428 1.000000 -0.007896 0.031879 1.000000 -0.008680 0.032316 1.000000 -0.009503 0.032749 1.000000 -0.010384 0.033150 1.000000 -0.011308 0.033528 1.000000 -0.012295 0.033855 1.000000 -0.013325 0.034136 1.000000 -0.014422 0.034342 1.000000 -0.015562 0.034476 1.000000 -0.016770 0.034509 1.000000 -0.018019 0.034441 1.000000 -0.019334 0.034243 1.000000 -0.020686 0.033911 1.000000 -0.022101 0.033418 1.000000 -0.023543 0.032758 1.000000 -0.025039 0.031904 1.000000 -0.026551 0.030848 1.000000 -0.028104 0.029567 1.000000 -0.029656 0.028050 1.000000 -0.031232 0.026278 1.000000 -0.032785 0.024241 1.000000 -0.034339 0.021922 1.000000 -0.035842 0.019315 1.000000 -0.037316 0.016408 1.000000 -0.038706 0.013196 1.000000 -0.040032 0.009678 1.000000 -0.041236 0.005851 1.000000 -0.042334 0.001724 1.000000 -0.043267 -0.002700 1.000000 -0.044048 -0.007398 1.000000 -0.044617 -0.012363 1.000000 -0.044986 -0.017558 1.000000 -0.045096 -0.022968 1.000000 -0.044956 -0.028539 1.000000 -0.044513 -0.034247 1.000000 -0.043777 -0.040026 1.000000 -0.042701 -0.045842 1.000000 -0.041297 -0.051614 1.000000 -0.039530 -0.057302 1.000000 -0.037418 -0.062812 1.000000 -0.034939 -0.068101 1.000000 -0.032119 -0.073071 1.000000 -0.028956 -0.077677 1.000000 -0.025483 -0.081822 1.000000 -0.021716 -0.085468 1.000000 -0.017702 -0.088530 1.000000 -0.013473 -0.090980 1.000000 -0.009082 -0.092752 1.000000 -0.004577 -0.093839 1.000000 -0.000017 -0.094196 1.000000 0.004544 -0.093843 1.000000 0.009049 -0.092759 1.000000 0.013440 -0.090992 1.000000 0.017670 -0.088544 1.000000 0.021686 -0.085487 1.000000 0.025454 -0.081843 1.000000 0.028929 -0.077701 1.000000 0.032094 -0.073098 1.000000 0.034916 -0.068131 1.000000 0.037397 -0.062844 1.000000 0.039512 -0.057335 1.000000 0.041281 -0.051650 1.000000 0.042687 -0.045879 1.000000 0.043766 -0.040064 1.000000 0.044504 -0.034286 1.000000 0.044949 -0.028577 1.000000 0.045091 -0.023006 1.000000 0.044984 -0.017597 1.000000 0.044617 -0.012402 1.000000 0.044050 -0.007435 1.000000 0.043270 -0.002736 1.000000 0.042340 0.001688 1.000000 0.041243 0.005816 1.000000 0.040041 0.009644 1.000000 0.038716 0.013163 1.000000 0.037327 0.016377 1.000000 0.035854 0.019285 1.000000 0.034352 0.021894 1.000000 0.032799 0.024214 1.000000 0.031247 0.026252 1.000000 0.029671 0.028026 1.000000 0.028120 0.029544 1.000000 0.026566 0.030827 1.000000 0.025055 0.031883 1.000000 0.023559 0.032739 1.000000 0.022117 0.033400 1.000000 0.020703 0.033895 1.000000 0.019351 0.034227 1.000000 0.018035 0.034427 1.000000 0.016786 0.034496 1.000000 0.015578 0.034464 1.000000 0.014437 0.034331 1.000000 0.013341 0.034125 1.000000 0.012310 0.033845 1.000000 0.011323 0.033519 1.000000 0.010400 0.033142 1.000000 0.009518 0.032741 1.000000 0.008694 0.032310 1.000000 0.007910 0.031873 1.000000 0.007178 0.031423 1.000000 0.006482 0.030984 1.000000 0.005832 0.030545 1.000000 0.005213 0.030129 1.000000 0.004633 0.029726 1.000000 0.004080 0.029356 1.000000 0.003558 0.029007 1.000000 0.003058 0.028699 1.000000 0.002583 0.028418 1.000000 0.002124 0.028184 1.000000 0.001682 0.027983 1.000000 0.001252 0.027832 1.000000 0.000832 0.027715 1.000000 0.000417 0.027652 1.000000 
0.000006 0.028017 1.000000 -0.000343 0.028046 1.000000 -0.000696 0.028114 1.000000 -0.001055 0.028238 1.000000 -0.001424 0.028400 1.000000 -0.001803 0.028617 1.000000 -0.002201 0.028868 1.000000 -0.002614 0.029170 1.000000 -0.003053 0.029501 1.000000 -0.003513 0.029878 1.000000 -0.004005 0.030278 1.000000 -0.004523 0.030715 1.000000 -0.005082 0.031166 1.000000 -0.005671 0.031644 1.000000 -0.006307 0.032125 1.000000 -0.006979 0.032621 1.000000 -0.007705 0.033104 1.000000 -0.008471 0.033586 1.000000 -0.009297 0.034039 1.000000 -0.010166 0.034471 1.000000 -0.011100 0.034852 1.000000 -0.012079 0.035189 1.000000 -0.013128 0.035452 1.000000 -0.014223 0.035643 1.000000 -0.015389 0.035733 1.000000 -0.016600 0.035721 1.000000 -0.017882 0.035576 1.000000 -0.019204 0.035296 1.000000 -0.020594 0.034851 1.000000 -0.022018 0.034235 1.000000 -0.023503 0.033418 1.000000 -0.025009 0.032395 1.000000 -0.026565 0.031137 1.000000 -0.028128 0.029635 1.000000 -0.029723 0.027867 1.000000 -0.031304 0.025822 1.000000 -0.032896 0.023483 1.000000 -0.034445 0.020839 1.000000 -0.035978 0.017880 1.000000 -0.037435 0.014597 1.000000 -0.038840 0.010989 1.000000 -0.040131 0.007051 1.000000 -0.041327 0.002792 1.000000 -0.042365 -0.001789 1.000000 -0.043261 -0.006668 1.000000 -0.043950 -0.011839 1.000000 -0.044445 -0.017264 1.000000 -0.044683 -0.022930 1.000000 -0.044673 -0.028780 1.000000 -0.044357 -0.034791 1.000000 -0.043743 -0.040893 1.000000 -0.042782 -0.047050 1.000000 -0.041483 -0.053176 1.000000 -0.039806 -0.059227 1.000000 -0.037768 -0.065105 1.000000 -0.035344 -0.070759 1.000000 -0.032559 -0.076084 1.000000 -0.029407 -0.081028 1.000000 -0.025923 -0.085487 1.000000 -0.022124 -0.089416 1.000000 -0.018056 -0.092719 1.000000 -0.013755 -0.095366 1.000000 -0.009279 -0.097281 1.000000 -0.004679 -0.098457 1.000000 -0.000017 -0.098844 1.000000 0.004644 -0.098461 1.000000 0.009245 -0.097289 1.000000 0.013722 -0.095378 1.000000 0.018024 -0.092735 1.000000 0.022093 -0.089435 1.000000 0.025894 -0.085510 1.000000 0.029380 -0.081055 1.000000 0.032534 -0.076113 1.000000 0.035322 -0.070791 1.000000 0.037748 -0.065139 1.000000 0.039789 -0.059263 1.000000 0.041467 -0.053213 1.000000 0.042769 -0.047089 1.000000 0.043733 -0.040933 1.000000 0.044349 -0.034832 1.000000 0.044668 -0.028821 1.000000 0.044680 -0.022970 1.000000 0.044445 -0.017305 1.000000 0.043952 -0.011879 1.000000 0.043265 -0.006707 1.000000 0.042371 -0.001827 1.000000 0.041335 0.002754 1.000000 0.040140 0.007015 1.000000 0.038851 0.010954 1.000000 0.037447 0.014563 1.000000 0.035991 0.017847 1.000000 0.034460 0.020808 1.000000 0.032911 0.023453 1.000000 0.031320 0.025795 1.000000 0.029740 0.027841 1.000000 0.028145 0.029611 1.000000 0.026583 0.031113 1.000000 0.025027 0.032373 1.000000 0.023520 0.033398 1.000000 0.022036 0.034216 1.000000 0.020612 0.034833 1.000000 0.019222 0.035280 1.000000 0.017899 0.035561 1.000000 0.016617 0.035707 1.000000 0.015406 0.035720 1.000000 0.014240 0.035631 1.000000 0.013145 0.035441 1.000000 0.012096 0.035179 1.000000 0.011116 0.034843 1.000000 0.010182 0.034462 1.000000 0.009312 0.034031 1.000000 0.008487 0.033579 1.000000 0.007721 0.033098 1.000000 0.006994 0.032615 1.000000 0.006322 0.032120 1.000000 0.005686 0.031639 1.000000 0.005096 0.031162 1.000000 0.004537 0.030711 1.000000 0.004019 0.030274 1.000000 0.003526 0.029875 1.000000 0.003066 0.029499 1.000000 0.002628 0.029167 1.000000 0.002214 0.028866 1.000000 0.001816 0.028615 1.000000 0.001437 0.028399 1.000000 0.001067 0.028237 1.000000 0.000709 0.028113 1.000000 0.000356 0.028045 1.000000 
0.000007 0.028325 1.000000 -0.000278 0.028355 1.000000 -0.000567 0.028428 1.000000 -0.000860 0.028560 1.000000 -0.001164 0.028733 1.000000 -0.001479 0.028963 1.000000 -0.001812 0.029231 1.000000 -0.002160 0.029553 1.000000 -0.002533 0.029908 1.000000 -0.002927 0.030311 1.000000 -0.003354 0.030740 1.000000 -0.003807 0.031210 1.000000 -0.004300 0.031697 1.000000 -0.004824 0.032214 1.000000 -0.005395 0.032737 1.000000 -0.006003 0.033277 1.000000 -0.006665 0.033808 1.000000 -0.007367 0.034340 1.000000 -0.008131 0.034845 1.000000 -0.008939 0.035331 1.000000 -0.009813 0.035769 1.000000 -0.010735 0.036164 1.000000 -0.011729 0.036485 1.000000 -0.012771 0.036737 1.000000 -0.013887 0.036886 1.000000 -0.015052 0.036934 1.000000 -0.016291 0.036847 1.000000 -0.017576 0.036624 1.000000 -0.018934 0.036232 1.000000 -0.020331 0.035666 1.000000 -0.021796 0.034895 1.000000 -0.023289 0.033911 1.000000 -0.024841 0.032685 1.000000 -0.026406 0.031208 1.000000 -0.028015 0.029454 1.000000 -0.029617 0.027413 1.000000 -0.031241 0.025064 1.000000 -0.032834 0.022397 1.000000 -0.034421 0.019398 1.000000 -0.035944 0.016058 1.000000 -0.037427 0.012374 1.000000 -0.038806 0.008338 1.000000 -0.040103 0.003959 1.000000 -0.041252 -0.000766 1.000000 -0.042269 -0.005813 1.000000 -0.043087 -0.011179 1.000000 -0.043718 -0.016826 1.000000 -0.044096 -0.022740 1.000000 -0.044230 -0.028864 1.000000 -0.044057 -0.035177 1.000000 -0.043584 -0.041601 1.000000 -0.042756 -0.048103 1.000000 -0.041579 -0.054590 1.000000 -0.040011 -0.061016 1.000000 -0.038065 -0.067274 1.000000 -0.035712 -0.073311 1.000000 -0.032975 -0.079009 1.000000 -0.029846 -0.084312 1.000000 -0.026361 -0.089105 1.000000 -0.022535 -0.093335 1.000000 -0.018417 -0.096898 1.000000 -0.014046 -0.099757 1.000000 -0.009482 -0.101828 1.000000 -0.004783 -0.103101 1.000000 -0.000017 -0.103519 1.000000 0.004749 -0.103105 1.000000 0.009449 -0.101837 1.000000 0.014013 -0.099770 1.000000 0.018385 -0.096915 1.000000 0.022505 -0.093357 1.000000 0.026332 -0.089130 1.000000 0.029820 -0.084341 1.000000 0.032950 -0.079040 1.000000 0.035690 -0.073345 1.000000 0.038045 -0.067311 1.000000 0.039995 -0.061055 1.000000 0.041565 -0.054630 1.000000 0.042744 -0.048145 1.000000 0.043576 -0.041644 1.000000 0.044052 -0.035220 1.000000 0.044227 -0.028908 1.000000 0.044096 -0.022783 1.000000 0.043720 -0.016869 1.000000 0.043091 -0.011222 1.000000 0.042275 -0.005855 1.000000 0.041260 -0.000806 1.000000 0.040113 0.003920 1.000000 0.038818 0.008300 1.000000 0.037440 0.012337 1.000000 0.035958 0.016023 1.000000 0.034436 0.019364 1.000000 0.032850 0.022365 1.000000 0.031259 0.025034 1.000000 0.029635 0.027385 1.000000 0.028033 0.029427 1.000000 0.026425 0.031183 1.000000 0.024860 0.032662 1.000000 0.023309 0.033889 1.000000 0.021815 0.034874 1.000000 0.020351 0.035647 1.000000 0.018954 0.036214 1.000000 0.017595 0.036608 1.000000 0.016310 0.036832 1.000000 0.015070 0.036920 1.000000 0.013906 0.036873 1.000000 0.012789 0.036725 1.000000 0.011746 0.036475 1.000000 0.010753 0.036154 1.000000 0.009831 0.035760 1.000000 0.008956 0.035323 1.000000 0.008147 0.034837 1.000000 0.007384 0.034333 1.000000 0.006681 0.033802 1.000000 0.006019 0.033271 1.000000 0.005411 0.032732 1.000000 0.004839 0.032210 1.000000 0.004315 0.031693 1.000000 0.003822 0.031207 1.000000 0.003368 0.030737 1.000000 0.002941 0.030308 1.000000 0.002547 0.029906 1.000000 0.002173 0.029551 1.000000 0.001825 0.029230 1.000000 0.001492 0.028962 1.000000 0.001178 0.028732 1.000000 0.000873 0.028559 1.000000 0.000580 0.028427 1.000000 0.000291 0.028355 1.000000 
0.000007 0.028587 1.000000 -0.000209 0.028619 1.000000 -0.000429 0.028696 1.000000 -0.000653 0.028836 1.000000 -0.000888 0.029019 1.000000 -0.001133 0.029264 1.000000 -0.001396 0.029549 1.000000 -0.001674 0.029891 1.000000 -0.001977 0.030269 1.000000 -0.002300 0.030699 1.000000 -0.002656 0.031157 1.000000 -0.003037 0.031660 1.000000 -0.003459 0.032183 1.000000 -0.003911 0.032740 1.000000 -0.004410 0.033304 1.000000 -0.004946 0.033890 1.000000 -0.005536 0.034469 1.000000 -0.006167 0.035052 1.000000 -0.006860 0.035610 1.000000 -0.007598 0.036153 1.000000 -0.008403 0.036649 1.000000 -0.009257 0.037104 1.000000 -0.010185 0.037487 1.000000 -0.011163 0.037802 1.000000 -0.012218 0.038014 1.000000 -0.013325 0.038125 1.000000 -0.014510 0.038101 1.000000 -0.015745 0.037939 1.000000 -0.017058 0.037606 1.000000 -0.018415 0.037096 1.000000 -0.019846 0.036376 1.000000 -0.021313 0.035440 1.000000 -0.022846 0.034253 1.000000 -0.024401 0.032809 1.000000 -0.026010 0.031078 1.000000 -0.027621 0.029049 1.000000 -0.029267 0.026700 1.000000 -0.030892 0.024019 1.000000 -0.032525 0.020990 1.000000 -0.034105 0.017603 1.000000 -0.035660 0.013852 1.000000 -0.037123 0.009728 1.000000 -0.038519 0.005238 1.000000 -0.039779 0.000377 1.000000 -0.040920 -0.004833 1.000000 -0.041873 -0.010390 1.000000 -0.042650 -0.016255 1.000000 -0.043181 -0.022417 1.000000 -0.043475 -0.028819 1.000000 -0.043463 -0.035438 1.000000 -0.043151 -0.042195 1.000000 -0.042478 -0.049055 1.000000 -0.041450 -0.055920 1.000000 -0.040017 -0.062742 1.000000 -0.038189 -0.069404 1.000000 -0.035934 -0.075849 1.000000 -0.033270 -0.081950 1.000000 -0.030189 -0.087642 1.000000 -0.026723 -0.092798 1.000000 -0.022889 -0.097360 1.000000 -0.018737 -0.101208 1.000000 -0.014309 -0.104301 1.000000 -0.009669 -0.106544 1.000000 -0.004880 -0.107923 1.000000 -0.000017 -0.108376 1.000000 0.004846 -0.107927 1.000000 0.009635 -0.106553 1.000000 0.014276 -0.104315 1.000000 0.018705 -0.101226 1.000000 0.022859 -0.097382 1.000000 0.026695 -0.092825 1.000000 0.030163 -0.087673 1.000000 0.033246 -0.081983 1.000000 0.035913 -0.075886 1.000000 0.038170 -0.069443 1.000000 0.040002 -0.062783 1.000000 0.041437 -0.055963 1.000000 0.042469 -0.049099 1.000000 0.043144 -0.042240 1.000000 0.043459 -0.035483 1.000000 0.043474 -0.028865 1.000000 0.043183 -0.022463 1.000000 0.042655 -0.016300 1.000000 0.041880 -0.010434 1.000000 0.040929 -0.004876 1.000000 0.039790 0.000335 1.000000 0.038532 0.005197 1.000000 0.037138 0.009688 1.000000 0.035675 0.013814 1.000000 0.034122 0.017567 1.000000 0.032543 0.020955 1.000000 0.030911 0.023986 1.000000 0.029287 0.026669 1.000000 0.027642 0.029020 1.000000 0.026030 0.031051 1.000000 0.024422 0.032784 1.000000 0.022867 0.034230 1.000000 0.021334 0.035417 1.000000 0.019868 0.036356 1.000000 0.018436 0.037077 1.000000 0.017079 0.037588 1.000000 0.015765 0.037923 1.000000 0.014531 0.038086 1.000000 0.013345 0.038111 1.000000 0.012238 0.038001 1.000000 0.011182 0.037790 1.000000 0.010204 0.037477 1.000000 0.009276 0.037095 1.000000 0.008421 0.036640 1.000000 0.007615 0.036145 1.000000 0.006877 0.035603 1.000000 0.006184 0.035046 1.000000 0.005553 0.034463 1.000000 0.004962 0.033885 1.000000 0.004426 0.033300 1.000000 0.003926 0.032735 1.000000 0.003474 0.032179 1.000000 0.003052 0.031657 1.000000 0.002670 0.031154 1.000000 0.002314 0.030696 1.000000 0.001991 0.030267 1.000000 0.001688 0.029889 1.000000 0.001409 0.029547 1.000000 0.001147 0.029263 1.000000 0.000901 0.029018 1.000000 0.000666 0.028835 1.000000 0.000442 0.028695 1.000000 0.000222 0.028619 1.000000 