# vtk DataFile Version 2.0
Comment goes here
ASCII

DATASET STRUCTURED_POINTS
DIMENSIONS    128   128   1

ORIGIN    0.000   0.000   0.000
SPACING   0.00781250.0078125   1.000

POINT_DATA   16384
VECTORS u double

-0.000006 0.017174 1.000000 -0.000462 0.017199 1.000000 -0.000922 0.017226 1.000000 -0.001385 0.017304 1.000000 -0.001858 0.017384 1.000000 -0.002339 0.017513 1.000000 -0.002839 0.017643 1.000000 -0.003349 0.017821 1.000000 -0.003885 0.017999 1.000000 -0.004436 0.018223 1.000000 -0.005022 0.018443 1.000000 -0.005626 0.018707 1.000000 -0.006272 0.018964 1.000000 -0.006943 0.019262 1.000000 -0.007664 0.019547 1.000000 -0.008414 0.019868 1.000000 -0.009224 0.020172 1.000000 -0.010067 0.020503 1.000000 -0.010980 0.020810 1.000000 -0.011930 0.021136 1.000000 -0.012961 0.021428 1.000000 -0.014032 0.021728 1.000000 -0.015194 0.021981 1.000000 -0.016400 0.022230 1.000000 -0.017704 0.022416 1.000000 -0.019054 0.022580 1.000000 -0.020510 0.022663 1.000000 -0.022012 0.022704 1.000000 -0.023624 0.022644 1.000000 -0.025277 0.022515 1.000000 -0.027041 0.022261 1.000000 -0.028839 0.021910 1.000000 -0.030742 0.021406 1.000000 -0.032663 0.020772 1.000000 -0.034678 0.019956 1.000000 -0.036686 0.018976 1.000000 -0.038767 0.017785 1.000000 -0.040808 0.016393 1.000000 -0.042888 0.014763 1.000000 -0.044884 0.012900 1.000000 -0.046873 0.010777 1.000000 -0.048721 0.008395 1.000000 -0.050503 0.005741 1.000000 -0.052075 0.002813 1.000000 -0.053512 -0.000382 1.000000 -0.054661 -0.003850 1.000000 -0.055595 -0.007558 1.000000 -0.056161 -0.011516 1.000000 -0.056430 -0.015664 1.000000 -0.056254 -0.020011 1.000000 -0.055705 -0.024469 1.000000 -0.054646 -0.029047 1.000000 -0.053155 -0.033630 1.000000 -0.051112 -0.038230 1.000000 -0.048605 -0.042705 1.000000 -0.045540 -0.047075 1.000000 -0.042012 -0.051178 1.000000 -0.037961 -0.055045 1.000000 -0.033491 -0.058505 1.000000 -0.028578 -0.061605 1.000000 -0.023328 -0.064172 1.000000 -0.017757 -0.066278 1.000000 -0.011968 -0.067758 1.000000 -0.006010 -0.068708 1.000000 0.000023 -0.068982 1.000000 0.006057 -0.068704 1.000000 0.012013 -0.067749 1.000000 0.017802 -0.066265 1.000000 0.023371 -0.064155 1.000000 0.028619 -0.061584 1.000000 0.033530 -0.058480 1.000000 0.037999 -0.055018 1.000000 0.042046 -0.051147 1.000000 0.045572 -0.047042 1.000000 0.048633 -0.042669 1.000000 0.051138 -0.038193 1.000000 0.053177 -0.033591 1.000000 0.054666 -0.029007 1.000000 0.055722 -0.024427 1.000000 0.056268 -0.019969 1.000000 0.056442 -0.015621 1.000000 0.056169 -0.011474 1.000000 0.055601 -0.007515 1.000000 0.054664 -0.003808 1.000000 0.053513 -0.000340 1.000000 0.052074 0.002854 1.000000 0.050500 0.005782 1.000000 0.048716 0.008433 1.000000 0.046867 0.010815 1.000000 0.044876 0.012937 1.000000 0.042880 0.014799 1.000000 0.040798 0.016427 1.000000 0.038756 0.017818 1.000000 0.036674 0.019008 1.000000 0.034665 0.019987 1.000000 0.032649 0.020801 1.000000 0.030728 0.021434 1.000000 0.028824 0.021936 1.000000 0.027027 0.022287 1.000000 0.025262 0.022539 1.000000 0.023609 0.022667 1.000000 0.021996 0.022726 1.000000 0.020495 0.022684 1.000000 0.019039 0.022599 1.000000 0.017689 0.022434 1.000000 0.016384 0.022247 1.000000 0.015179 0.021998 1.000000 0.014017 0.021744 1.000000 0.012946 0.021442 1.000000 0.011915 0.021150 1.000000 0.010966 0.020823 1.000000 0.010052 0.020515 1.000000 0.009210 0.020183 1.000000 0.008399 0.019879 1.000000 0.007650 0.019557 1.000000 0.006928 0.019270 1.000000 0.006259 0.018972 1.000000 0.005612 0.018714 1.000000 0.005008 0.018449 1.000000 0.004423 0.018228 1.000000 0.003872 0.018004 1.000000 0.003336 0.017826 1.000000 0.002826 0.017647 1.000000 0.002326 0.017516 1.000000 0.001845 0.017386 1.000000 0.001371 0.017306 1.000000 0.000909 0.017228 1.000000 0.000449 0.017200 1.000000 
-0.000007 0.017630 1.000000 -0.000435 0.017656 1.000000 -0.000866 0.017688 1.000000 -0.001301 0.017773 1.000000 -0.001748 0.017862 1.000000 -0.002202 0.018004 1.000000 -0.002675 0.018149 1.000000 -0.003160 0.018346 1.000000 -0.003671 0.018545 1.000000 -0.004199 0.018794 1.000000 -0.004762 0.019042 1.000000 -0.005346 0.019338 1.000000 -0.005975 0.019630 1.000000 -0.006628 0.019966 1.000000 -0.007336 0.020293 1.000000 -0.008074 0.020660 1.000000 -0.008877 0.021012 1.000000 -0.009716 0.021397 1.000000 -0.010630 0.021760 1.000000 -0.011585 0.022148 1.000000 -0.012626 0.022503 1.000000 -0.013714 0.022872 1.000000 -0.014900 0.023196 1.000000 -0.016137 0.023520 1.000000 -0.017481 0.023782 1.000000 -0.018880 0.024027 1.000000 -0.020396 0.024192 1.000000 -0.021969 0.024316 1.000000 -0.023664 0.024338 1.000000 -0.025414 0.024292 1.000000 -0.027290 0.024116 1.000000 -0.029213 0.023841 1.000000 -0.031259 0.023406 1.000000 -0.033337 0.022835 1.000000 -0.035528 0.022070 1.000000 -0.037729 0.021130 1.000000 -0.040021 0.019961 1.000000 -0.042287 0.018575 1.000000 -0.044611 0.016928 1.000000 -0.046861 0.015023 1.000000 -0.049120 0.012829 1.000000 -0.051244 0.010345 1.000000 -0.053312 0.007553 1.000000 -0.055168 0.004449 1.000000 -0.056889 0.001037 1.000000 -0.058310 -0.002690 1.000000 -0.059505 -0.006703 1.000000 -0.060305 -0.011008 1.000000 -0.060785 -0.015546 1.000000 -0.060777 -0.020323 1.000000 -0.060358 -0.025248 1.000000 -0.059372 -0.030326 1.000000 -0.057901 -0.035432 1.000000 -0.055811 -0.040573 1.000000 -0.053192 -0.045594 1.000000 -0.049939 -0.050509 1.000000 -0.046156 -0.055141 1.000000 -0.041775 -0.059513 1.000000 -0.036909 -0.063437 1.000000 -0.031533 -0.066955 1.000000 -0.025767 -0.069878 1.000000 -0.019629 -0.072273 1.000000 -0.013238 -0.073962 1.000000 -0.006650 -0.075043 1.000000 0.000025 -0.075359 1.000000 0.006701 -0.075039 1.000000 0.013287 -0.073952 1.000000 0.019678 -0.072259 1.000000 0.025814 -0.069859 1.000000 0.031579 -0.066933 1.000000 0.036952 -0.063410 1.000000 0.041816 -0.059483 1.000000 0.046193 -0.055107 1.000000 0.049974 -0.050473 1.000000 0.053223 -0.045555 1.000000 0.055839 -0.040532 1.000000 0.057925 -0.035389 1.000000 0.059393 -0.030283 1.000000 0.060376 -0.025203 1.000000 0.060792 -0.020279 1.000000 0.060797 -0.015500 1.000000 0.060314 -0.010963 1.000000 0.059511 -0.006657 1.000000 0.058313 -0.002646 1.000000 0.056890 0.001081 1.000000 0.055166 0.004491 1.000000 0.053308 0.007595 1.000000 0.051238 0.010385 1.000000 0.049113 0.012869 1.000000 0.046852 0.015061 1.000000 0.044601 0.016965 1.000000 0.042275 0.018610 1.000000 0.040008 0.019995 1.000000 0.037715 0.021162 1.000000 0.035515 0.022102 1.000000 0.033322 0.022864 1.000000 0.031244 0.023434 1.000000 0.029197 0.023868 1.000000 0.027274 0.024142 1.000000 0.025398 0.024316 1.000000 0.023648 0.024361 1.000000 0.021952 0.024338 1.000000 0.020380 0.024213 1.000000 0.018864 0.024047 1.000000 0.017465 0.023801 1.000000 0.016120 0.023537 1.000000 0.014884 0.023212 1.000000 0.013698 0.022887 1.000000 0.012610 0.022517 1.000000 0.011569 0.022161 1.000000 0.010614 0.021772 1.000000 0.009700 0.021409 1.000000 0.008862 0.021023 1.000000 0.008059 0.020670 1.000000 0.007321 0.020302 1.000000 0.006613 0.019974 1.000000 0.005960 0.019637 1.000000 0.005332 0.019345 1.000000 0.004748 0.019049 1.000000 0.004185 0.018800 1.000000 0.003658 0.018550 1.000000 0.003146 0.018351 1.000000 0.002661 0.018153 1.000000 0.002188 0.018007 1.000000 0.001734 0.017864 1.000000 0.001288 0.017774 1.000000 0.000852 0.017689 1.000000 0.000421 0.017657 1.000000 
-0.000007 0.018030 1.000000 -0.000404 0.018058 1.000000 -0.000805 0.018093 1.000000 -0.001211 0.018186 1.000000 -0.001627 0.018284 1.000000 -0.002052 0.018440 1.000000 -0.002496 0.018601 1.000000 -0.002953 0.018818 1.000000 -0.003437 0.019038 1.000000 -0.003939 0.019314 1.000000 -0.004478 0.019590 1.000000 -0.005038 0.019919 1.000000 -0.005645 0.020246 1.000000 -0.006279 0.020623 1.000000 -0.006970 0.020994 1.000000 -0.007695 0.021410 1.000000 -0.008487 0.021813 1.000000 -0.009318 0.022256 1.000000 -0.010230 0.022679 1.000000 -0.011187 0.023133 1.000000 -0.012237 0.023557 1.000000 -0.013339 0.024002 1.000000 -0.014546 0.024403 1.000000 -0.015812 0.024811 1.000000 -0.017195 0.025159 1.000000 -0.018643 0.025495 1.000000 -0.020219 0.025752 1.000000 -0.021864 0.025972 1.000000 -0.023645 0.026089 1.000000 -0.025494 0.026141 1.000000 -0.027487 0.026060 1.000000 -0.029541 0.025878 1.000000 -0.031739 0.025530 1.000000 -0.033986 0.025042 1.000000 -0.036367 0.024348 1.000000 -0.038775 0.023468 1.000000 -0.041296 0.022343 1.000000 -0.043811 0.020983 1.000000 -0.046403 0.019337 1.000000 -0.048938 0.017410 1.000000 -0.051499 0.015160 1.000000 -0.053935 0.012586 1.000000 -0.056326 0.009665 1.000000 -0.058508 0.006390 1.000000 -0.060556 0.002760 1.000000 -0.062295 -0.001233 1.000000 -0.063796 -0.005563 1.000000 -0.064876 -0.010236 1.000000 -0.065609 -0.015193 1.000000 -0.065810 -0.020438 1.000000 -0.065554 -0.025874 1.000000 -0.064671 -0.031504 1.000000 -0.063240 -0.037192 1.000000 -0.061113 -0.042939 1.000000 -0.058383 -0.048576 1.000000 -0.054933 -0.054110 1.000000 -0.050870 -0.059342 1.000000 -0.046123 -0.064292 1.000000 -0.040812 -0.068747 1.000000 -0.034914 -0.072747 1.000000 -0.028560 -0.076077 1.000000 -0.021775 -0.078807 1.000000 -0.014694 -0.080737 1.000000 -0.007384 -0.081971 1.000000 0.000028 -0.082333 1.000000 0.007440 -0.081965 1.000000 0.014748 -0.080726 1.000000 0.021829 -0.078792 1.000000 0.028611 -0.076056 1.000000 0.034964 -0.072722 1.000000 0.040858 -0.068717 1.000000 0.046167 -0.064260 1.000000 0.050910 -0.059305 1.000000 0.054970 -0.054071 1.000000 0.058415 -0.048534 1.000000 0.061143 -0.042896 1.000000 0.063266 -0.037145 1.000000 0.064693 -0.031457 1.000000 0.065572 -0.025826 1.000000 0.065825 -0.020390 1.000000 0.065620 -0.015143 1.000000 0.064885 -0.010188 1.000000 0.063801 -0.005514 1.000000 0.062297 -0.001187 1.000000 0.060556 0.002807 1.000000 0.058505 0.006435 1.000000 0.056321 0.009709 1.000000 0.053928 0.012628 1.000000 0.051490 0.015202 1.000000 0.048927 0.017449 1.000000 0.046391 0.019376 1.000000 0.043798 0.021020 1.000000 0.041283 0.022378 1.000000 0.038760 0.023501 1.000000 0.036351 0.024380 1.000000 0.033970 0.025072 1.000000 0.031722 0.025559 1.000000 0.029524 0.025906 1.000000 0.027470 0.026086 1.000000 0.025477 0.026166 1.000000 0.023628 0.026113 1.000000 0.021846 0.025994 1.000000 0.020202 0.025773 1.000000 0.018626 0.025515 1.000000 0.017178 0.025178 1.000000 0.015795 0.024828 1.000000 0.014529 0.024420 1.000000 0.013322 0.024017 1.000000 0.012220 0.023571 1.000000 0.011170 0.023146 1.000000 0.010213 0.022691 1.000000 0.009302 0.022267 1.000000 0.008471 0.021824 1.000000 0.007679 0.021419 1.000000 0.006955 0.021003 1.000000 0.006264 0.020632 1.000000 0.005630 0.020254 1.000000 0.005023 0.019926 1.000000 0.004463 0.019596 1.000000 0.003924 0.019319 1.000000 0.003423 0.019043 1.000000 0.002938 0.018822 1.000000 0.002482 0.018604 1.000000 0.002037 0.018443 1.000000 0.001613 0.018287 1.000000 0.001196 0.018188 1.000000 0.000791 0.018094 1.000000 0.000390 0.018059 1.000000 
-0.000007 0.018424 1.000000 -0.000371 0.018455 1.000000 -0.000738 0.018494 1.000000 -0.001110 0.018594 1.000000 -0.001493 0.018703 1.000000 -0.001885 0.018873 1.000000 -0.002297 0.019050 1.000000 -0.002722 0.019288 1.000000 -0.003176 0.019532 1.000000 -0.003648 0.019834 1.000000 -0.004157 0.020141 1.000000 -0.004690 0.020506 1.000000 -0.005271 0.020871 1.000000 -0.005881 0.021291 1.000000 -0.006550 0.021708 1.000000 -0.007255 0.022176 1.000000 -0.008031 0.022635 1.000000 -0.008850 0.023140 1.000000 -0.009752 0.023629 1.000000 -0.010706 0.024155 1.000000 -0.011757 0.024655 1.000000 -0.012868 0.025181 1.000000 -0.014090 0.025669 1.000000 -0.015380 0.026169 1.000000 -0.016796 0.026614 1.000000 -0.018286 0.027051 1.000000 -0.019917 0.027412 1.000000 -0.021628 0.027742 1.000000 -0.023491 0.027969 1.000000 -0.025438 0.028133 1.000000 -0.027545 0.028163 1.000000 -0.029731 0.028093 1.000000 -0.032082 0.027850 1.000000 -0.034502 0.027462 1.000000 -0.037079 0.026859 1.000000 -0.039705 0.026059 1.000000 -0.042470 0.024997 1.000000 -0.045248 0.023682 1.000000 -0.048131 0.022055 1.000000 -0.050974 0.020119 1.000000 -0.053867 0.017826 1.000000 -0.056649 0.015172 1.000000 -0.059404 0.012126 1.000000 -0.061952 0.008679 1.000000 -0.064376 0.004823 1.000000 -0.066479 0.000549 1.000000 -0.068338 -0.004121 1.000000 -0.069750 -0.009195 1.000000 -0.070787 -0.014613 1.000000 -0.071245 -0.020378 1.000000 -0.071200 -0.026387 1.000000 -0.070457 -0.032640 1.000000 -0.069099 -0.038989 1.000000 -0.066957 -0.045430 1.000000 -0.064127 -0.051775 1.000000 -0.060478 -0.058022 1.000000 -0.056123 -0.063951 1.000000 -0.050980 -0.069571 1.000000 -0.045184 -0.074647 1.000000 -0.038707 -0.079208 1.000000 -0.031699 -0.083017 1.000000 -0.024190 -0.086139 1.000000 -0.016334 -0.088353 1.000000 -0.008211 -0.089765 1.000000 0.000030 -0.090183 1.000000 0.008273 -0.089759 1.000000 0.016393 -0.088341 1.000000 0.024249 -0.086122 1.000000 0.031755 -0.082994 1.000000 0.038762 -0.079180 1.000000 0.045234 -0.074614 1.000000 0.051028 -0.069535 1.000000 0.056166 -0.063910 1.000000 0.060518 -0.057979 1.000000 0.064162 -0.051728 1.000000 0.066989 -0.045382 1.000000 0.069126 -0.038939 1.000000 0.070480 -0.032590 1.000000 0.071218 -0.026335 1.000000 0.071260 -0.020326 1.000000 0.070798 -0.014560 1.000000 0.069757 -0.009144 1.000000 0.068342 -0.004069 1.000000 0.066480 0.000598 1.000000 0.064374 0.004873 1.000000 0.061948 0.008726 1.000000 0.059397 0.012173 1.000000 0.056640 0.015217 1.000000 0.053857 0.017870 1.000000 0.050962 0.020160 1.000000 0.048118 0.022095 1.000000 0.045234 0.023719 1.000000 0.042455 0.025033 1.000000 0.039689 0.026093 1.000000 0.037062 0.026892 1.000000 0.034484 0.027493 1.000000 0.032064 0.027880 1.000000 0.029713 0.028120 1.000000 0.027526 0.028189 1.000000 0.025418 0.028158 1.000000 0.023473 0.027992 1.000000 0.021609 0.027764 1.000000 0.019898 0.027433 1.000000 0.018267 0.027070 1.000000 0.016777 0.026632 1.000000 0.015361 0.026186 1.000000 0.014072 0.025685 1.000000 0.012850 0.025196 1.000000 0.011740 0.024669 1.000000 0.010689 0.024168 1.000000 0.009735 0.023641 1.000000 0.008833 0.023151 1.000000 0.008014 0.022646 1.000000 0.007238 0.022186 1.000000 0.006533 0.021717 1.000000 0.005865 0.021299 1.000000 0.005255 0.020878 1.000000 0.004674 0.020512 1.000000 0.004141 0.020147 1.000000 0.003632 0.019840 1.000000 0.003161 0.019536 1.000000 0.002707 0.019292 1.000000 0.002282 0.019054 1.000000 0.001870 0.018876 1.000000 0.001479 0.018706 1.000000 0.001095 0.018596 1.000000 0.000724 0.018495 1.000000 0.000356 0.018455 1.000000 
-0.000008 0.018757 1.000000 -0.000335 0.018789 1.000000 -0.000666 0.018832 1.000000 -0.001001 0.018941 1.000000 -0.001348 0.019060 1.000000 -0.001705 0.019244 1.000000 -0.002081 0.019438 1.000000 -0.002472 0.019696 1.000000 -0.002891 0.019964 1.000000 -0.003330 0.020295 1.000000 -0.003806 0.020632 1.000000 -0.004309 0.021033 1.000000 -0.004859 0.021437 1.000000 -0.005442 0.021902 1.000000 -0.006085 0.022368 1.000000 -0.006767 0.022890 1.000000 -0.007522 0.023408 1.000000 -0.008325 0.023978 1.000000 -0.009215 0.024535 1.000000 -0.010161 0.025138 1.000000 -0.011209 0.025719 1.000000 -0.012324 0.026334 1.000000 -0.013557 0.026915 1.000000 -0.014867 0.027516 1.000000 -0.016312 0.028066 1.000000 -0.017842 0.028617 1.000000 -0.019526 0.029094 1.000000 -0.021303 0.029547 1.000000 -0.023247 0.029899 1.000000 -0.025292 0.030194 1.000000 -0.027516 0.030354 1.000000 -0.029839 0.030416 1.000000 -0.032349 0.030301 1.000000 -0.034952 0.030039 1.000000 -0.037738 0.029551 1.000000 -0.040597 0.028859 1.000000 -0.043624 0.027886 1.000000 -0.046690 0.026644 1.000000 -0.049890 0.025063 1.000000 -0.053075 0.023146 1.000000 -0.056337 0.020835 1.000000 -0.059507 0.018122 1.000000 -0.062671 0.014969 1.000000 -0.065639 0.011362 1.000000 -0.068491 0.007286 1.000000 -0.071019 0.002729 1.000000 -0.073296 -0.002292 1.000000 -0.075100 -0.007788 1.000000 -0.076501 -0.013697 1.000000 -0.077275 -0.020025 1.000000 -0.077491 -0.026662 1.000000 -0.076934 -0.033605 1.000000 -0.075684 -0.040691 1.000000 -0.073551 -0.047911 1.000000 -0.070630 -0.055056 1.000000 -0.066774 -0.062115 1.000000 -0.062103 -0.068840 1.000000 -0.056524 -0.075231 1.000000 -0.050184 -0.081020 1.000000 -0.043054 -0.086231 1.000000 -0.035301 -0.090594 1.000000 -0.026964 -0.094173 1.000000 -0.018220 -0.096715 1.000000 -0.009163 -0.098335 1.000000 0.000033 -0.098817 1.000000 0.009231 -0.098328 1.000000 0.018285 -0.096702 1.000000 0.027029 -0.094154 1.000000 0.035362 -0.090569 1.000000 0.043113 -0.086201 1.000000 0.050238 -0.080984 1.000000 0.056576 -0.075191 1.000000 0.062149 -0.068795 1.000000 0.066817 -0.062068 1.000000 0.070667 -0.055005 1.000000 0.073584 -0.047859 1.000000 0.075712 -0.040636 1.000000 0.076958 -0.033550 1.000000 0.077509 -0.026606 1.000000 0.077290 -0.019970 1.000000 0.076512 -0.013641 1.000000 0.075107 -0.007733 1.000000 0.073299 -0.002237 1.000000 0.071019 0.002782 1.000000 0.068488 0.007339 1.000000 0.065633 0.011411 1.000000 0.062663 0.015017 1.000000 0.059496 0.018169 1.000000 0.056325 0.020880 1.000000 0.053061 0.023189 1.000000 0.049875 0.025104 1.000000 0.046674 0.026682 1.000000 0.043607 0.027923 1.000000 0.040579 0.028894 1.000000 0.037719 0.029585 1.000000 0.034932 0.030070 1.000000 0.032330 0.030331 1.000000 0.029819 0.030444 1.000000 0.027496 0.030380 1.000000 0.025271 0.030219 1.000000 0.023227 0.029922 1.000000 0.021282 0.029569 1.000000 0.019506 0.029114 1.000000 0.017822 0.028636 1.000000 0.016292 0.028084 1.000000 0.014847 0.027533 1.000000 0.013538 0.026931 1.000000 0.012305 0.026349 1.000000 0.011191 0.025733 1.000000 0.010142 0.025151 1.000000 0.009197 0.024547 1.000000 0.008307 0.023989 1.000000 0.007505 0.023418 1.000000 0.006750 0.022900 1.000000 0.006068 0.022376 1.000000 0.005425 0.021910 1.000000 0.004843 0.021444 1.000000 0.004292 0.021039 1.000000 0.003790 0.020638 1.000000 0.003313 0.020300 1.000000 0.002875 0.019968 1.000000 0.002456 0.019700 1.000000 0.002066 0.019441 1.000000 0.001689 0.019247 1.000000 0.001333 0.019062 1.000000 0.000986 0.018942 1.000000 0.000651 0.018833 1.000000 0.000319 0.018790 1.000000 
-0.000008 0.019079 1.000000 -0.000295 0.019113 1.000000 -0.000586 0.019160 1.000000 -0.000883 0.019277 1.000000 -0.001190 0.019407 1.000000 -0.001507 0.019606 1.000000 -0.001845 0.019817 1.000000 -0.002197 0.020098 1.000000 -0.002578 0.020389 1.000000 -0.002979 0.020750 1.000000 -0.003419 0.021120 1.000000 -0.003885 0.021559 1.000000 -0.004401 0.022004 1.000000 -0.004951 0.022517 1.000000 -0.005562 0.023033 1.000000 -0.006215 0.023614 1.000000 -0.006943 0.024193 1.000000 -0.007722 0.024832 1.000000 -0.008592 0.025465 1.000000 -0.009523 0.026149 1.000000 -0.010561 0.026818 1.000000 -0.011671 0.027529 1.000000 -0.012907 0.028212 1.000000 -0.014227 0.028924 1.000000 -0.015693 0.029589 1.000000 -0.017255 0.030265 1.000000 -0.018982 0.030872 1.000000 -0.020817 0.031464 1.000000 -0.022836 0.031957 1.000000 -0.024971 0.032401 1.000000 -0.027307 0.032711 1.000000 -0.029764 0.032927 1.000000 -0.032432 0.032963 1.000000 -0.035217 0.032851 1.000000 -0.038215 0.032504 1.000000 -0.041315 0.031946 1.000000 -0.044615 0.031090 1.000000 -0.047985 0.029948 1.000000 -0.051523 0.028440 1.000000 -0.055075 0.026566 1.000000 -0.058739 0.024258 1.000000 -0.062335 0.021506 1.000000 -0.065954 0.018258 1.000000 -0.069392 0.014499 1.000000 -0.072732 0.010203 1.000000 -0.075745 0.005353 1.000000 -0.078507 -0.000040 1.000000 -0.080773 -0.005989 1.000000 -0.082610 -0.012438 1.000000 -0.083766 -0.019388 1.000000 -0.084310 -0.026728 1.000000 -0.083997 -0.034447 1.000000 -0.082906 -0.042373 1.000000 -0.080818 -0.050484 1.000000 -0.077831 -0.058551 1.000000 -0.073775 -0.066549 1.000000 -0.068777 -0.074201 1.000000 -0.062731 -0.081491 1.000000 -0.055797 -0.088117 1.000000 -0.047945 -0.094090 1.000000 -0.039362 -0.099107 1.000000 -0.030096 -0.103221 1.000000 -0.020351 -0.106154 1.000000 -0.010240 -0.108017 1.000000 0.000037 -0.108578 1.000000 0.010314 -0.108010 1.000000 0.020422 -0.106139 1.000000 0.030167 -0.103199 1.000000 0.039428 -0.099078 1.000000 0.048009 -0.094056 1.000000 0.055856 -0.088077 1.000000 0.062787 -0.081446 1.000000 0.068827 -0.074151 1.000000 0.073821 -0.066496 1.000000 0.077870 -0.058495 1.000000 0.080853 -0.050427 1.000000 0.082934 -0.042313 1.000000 0.084022 -0.034387 1.000000 0.084329 -0.026667 1.000000 0.083780 -0.019328 1.000000 0.082619 -0.012377 1.000000 0.080778 -0.005931 1.000000 0.078509 0.000019 1.000000 0.075744 0.005409 1.000000 0.072727 0.010259 1.000000 0.069384 0.014551 1.000000 0.065944 0.018310 1.000000 0.062323 0.021554 1.000000 0.058725 0.024305 1.000000 0.055059 0.026610 1.000000 0.051506 0.028482 1.000000 0.047966 0.029987 1.000000 0.044596 0.031128 1.000000 0.041294 0.031981 1.000000 0.038195 0.032538 1.000000 0.035195 0.032882 1.000000 0.032411 0.032993 1.000000 0.029742 0.032955 1.000000 0.027286 0.032737 1.000000 0.024949 0.032426 1.000000 0.022814 0.031981 1.000000 0.020795 0.031485 1.000000 0.018961 0.030893 1.000000 0.017233 0.030284 1.000000 0.015672 0.029607 1.000000 0.014206 0.028940 1.000000 0.012887 0.028227 1.000000 0.011651 0.027544 1.000000 0.010541 0.026831 1.000000 0.009503 0.026162 1.000000 0.008573 0.025476 1.000000 0.007703 0.024843 1.000000 0.006925 0.024203 1.000000 0.006196 0.023623 1.000000 0.005544 0.023042 1.000000 0.004933 0.022524 1.000000 0.004384 0.022011 1.000000 0.003868 0.021565 1.000000 0.003402 0.021126 1.000000 0.002962 0.020755 1.000000 0.002561 0.020394 1.000000 0.002180 0.020101 1.000000 0.001829 0.019820 1.000000 0.001491 0.019608 1.000000 0.001174 0.019409 1.000000 0.000866 0.019279 1.000000 0.000571 0.019161 1.000000 0.000279 0.019113 1.000000 
-0.000008 0.019331 1.000000 -0.000253 0.019368 1.000000 -0.000501 0.019419 1.000000 -0.000755 0.019544 1.000000 -0.001020 0.019685 1.000000 -0.001295 0.019898 1.000000 -0.001590 0.020127 1.000000 -0.001900 0.020429 1.000000 -0.002239 0.020746 1.000000 -0.002599 0.021136 1.000000 -0.002998 0.021539 1.000000 -0.003424 0.022015 1.000000 -0.003901 0.022503 1.000000 -0.004413 0.023063 1.000000 -0.004988 0.023632 1.000000 -0.005607 0.024272 1.000000 -0.006303 0.024915 1.000000 -0.007054 0.025626 1.000000 -0.007898 0.026336 1.000000 -0.008807 0.027107 1.000000 -0.009829 0.027867 1.000000 -0.010929 0.028681 1.000000 -0.012162 0.029471 1.000000 -0.013487 0.030302 1.000000 -0.014967 0.031093 1.000000 -0.016555 0.031906 1.000000 -0.018321 0.032655 1.000000 -0.020209 0.033401 1.000000 -0.022298 0.034053 1.000000 -0.024522 0.034665 1.000000 -0.026969 0.035146 1.000000 -0.029559 0.035541 1.000000 -0.032388 0.035754 1.000000 -0.035362 0.035822 1.000000 -0.038582 0.035649 1.000000 -0.041935 0.035259 1.000000 -0.045526 0.034556 1.000000 -0.049222 0.033551 1.000000 -0.053126 0.032154 1.000000 -0.057081 0.030363 1.000000 -0.061186 0.028094 1.000000 -0.065257 0.025337 1.000000 -0.069385 0.022026 1.000000 -0.073356 0.018139 1.000000 -0.077250 0.013640 1.000000 -0.080825 0.008505 1.000000 -0.084150 0.002735 1.000000 -0.086959 -0.003685 1.000000 -0.089313 -0.010704 1.000000 -0.090935 -0.018325 1.000000 -0.091882 -0.026431 1.000000 -0.091882 -0.035009 1.000000 -0.091005 -0.043871 1.000000 -0.089005 -0.052986 1.000000 -0.085975 -0.062099 1.000000 -0.081723 -0.071169 1.000000 -0.076378 -0.079884 1.000000 -0.069821 -0.088211 1.000000 -0.062223 -0.095807 1.000000 -0.053556 -0.102666 1.000000 -0.044028 -0.108443 1.000000 -0.033700 -0.113184 1.000000 -0.022805 -0.116571 1.000000 -0.011481 -0.118722 1.000000 0.000040 -0.119372 1.000000 0.011563 -0.118714 1.000000 0.022883 -0.116555 1.000000 0.033778 -0.113160 1.000000 0.044101 -0.108411 1.000000 0.053626 -0.102628 1.000000 0.062287 -0.095762 1.000000 0.069881 -0.088162 1.000000 0.076431 -0.079829 1.000000 0.081772 -0.071111 1.000000 0.086017 -0.062037 1.000000 0.089041 -0.052923 1.000000 0.091034 -0.043805 1.000000 0.091906 -0.034944 1.000000 0.091900 -0.026364 1.000000 0.090948 -0.018260 1.000000 0.089321 -0.010639 1.000000 0.086963 -0.003623 1.000000 0.084150 0.002798 1.000000 0.080821 0.008564 1.000000 0.077243 0.013698 1.000000 0.073346 0.018194 1.000000 0.069373 0.022079 1.000000 0.065242 0.025388 1.000000 0.061170 0.028143 1.000000 0.057062 0.030408 1.000000 0.053106 0.032198 1.000000 0.049201 0.033592 1.000000 0.045505 0.034595 1.000000 0.041912 0.035295 1.000000 0.038559 0.035684 1.000000 0.035339 0.035854 1.000000 0.032365 0.035785 1.000000 0.029536 0.035569 1.000000 0.026946 0.035173 1.000000 0.024498 0.034690 1.000000 0.022275 0.034076 1.000000 0.020185 0.033422 1.000000 0.018298 0.032676 1.000000 0.016532 0.031925 1.000000 0.014945 0.031111 1.000000 0.013465 0.030319 1.000000 0.012140 0.029487 1.000000 0.010908 0.028695 1.000000 0.009808 0.027880 1.000000 0.008787 0.027119 1.000000 0.007878 0.026347 1.000000 0.007034 0.025637 1.000000 0.006284 0.024925 1.000000 0.005588 0.024280 1.000000 0.004970 0.023640 1.000000 0.004395 0.023071 1.000000 0.003883 0.022510 1.000000 0.003406 0.022021 1.000000 0.002980 0.021544 1.000000 0.002581 0.021140 1.000000 0.002222 0.020750 1.000000 0.001883 0.020433 1.000000 0.001573 0.020130 1.000000 0.001278 0.019901 1.000000 0.001003 0.019687 1.000000 0.000738 0.019546 1.000000 0.000485 0.019420 1.000000 0.000236 0.019368 1.000000 
-0.000008 0.019568 1.000000 -0.000207 0.019606 1.000000 -0.000410 0.019662 1.000000 -0.000617 0.019796 1.000000 -0.000836 0.019947 1.000000 -0.001065 0.020176 1.000000 -0.001314 0.020422 1.000000 -0.001578 0.020747 1.000000 -0.001871 0.021088 1.000000 -0.002186 0.021509 1.000000 -0.002539 0.021946 1.000000 -0.002921 0.022462 1.000000 -0.003353 0.022993 1.000000 -0.003822 0.023604 1.000000 -0.004353 0.024227 1.000000 -0.004932 0.024929 1.000000 -0.005588 0.025640 1.000000 -0.006302 0.026427 1.000000 -0.007111 0.027218 1.000000 -0.007990 0.028081 1.000000 -0.008986 0.028940 1.000000 -0.010065 0.029862 1.000000 -0.011284 0.030770 1.000000 -0.012603 0.031729 1.000000 -0.014085 0.032657 1.000000 -0.015687 0.033618 1.000000 -0.017479 0.034526 1.000000 -0.019407 0.035441 1.000000 -0.021555 0.036271 1.000000 -0.023856 0.037072 1.000000 -0.026403 0.037748 1.000000 -0.029118 0.038346 1.000000 -0.032101 0.038766 1.000000 -0.035258 0.039044 1.000000 -0.038697 0.039077 1.000000 -0.042304 0.038890 1.000000 -0.046193 0.038376 1.000000 -0.050225 0.037547 1.000000 -0.054514 0.036299 1.000000 -0.058895 0.034627 1.000000 -0.063477 0.032435 1.000000 -0.068062 0.029705 1.000000 -0.072751 0.026357 1.000000 -0.077312 0.022364 1.000000 -0.081831 0.017673 1.000000 -0.086043 0.012253 1.000000 -0.090017 0.006094 1.000000 -0.093460 -0.000826 1.000000 -0.096427 -0.008463 1.000000 -0.098607 -0.016820 1.000000 -0.100053 -0.025780 1.000000 -0.100452 -0.035324 1.000000 -0.099868 -0.045250 1.000000 -0.098017 -0.055514 1.000000 -0.094989 -0.065833 1.000000 -0.090561 -0.076147 1.000000 -0.084865 -0.086104 1.000000 -0.077765 -0.095645 1.000000 -0.069448 -0.104382 1.000000 -0.059880 -0.112285 1.000000 -0.049299 -0.118962 1.000000 -0.037777 -0.124444 1.000000 -0.025585 -0.128373 1.000000 -0.012887 -0.130862 1.000000 0.000044 -0.131621 1.000000 0.012977 -0.130853 1.000000 0.025671 -0.128354 1.000000 0.037862 -0.124417 1.000000 0.049378 -0.118926 1.000000 0.059956 -0.112242 1.000000 0.069517 -0.104331 1.000000 0.077830 -0.095590 1.000000 0.084922 -0.086042 1.000000 0.090612 -0.076082 1.000000 0.095032 -0.065765 1.000000 0.098054 -0.055445 1.000000 0.099897 -0.045178 1.000000 0.100476 -0.035253 1.000000 0.100070 -0.025708 1.000000 0.098619 -0.016750 1.000000 0.096434 -0.008393 1.000000 0.093461 -0.000759 1.000000 0.090015 0.006161 1.000000 0.086036 0.012316 1.000000 0.081822 0.017734 1.000000 0.077299 0.022422 1.000000 0.072736 0.026413 1.000000 0.068044 0.029757 1.000000 0.063457 0.032485 1.000000 0.058874 0.034674 1.000000 0.054492 0.036344 1.000000 0.050202 0.037589 1.000000 0.046169 0.038416 1.000000 0.042279 0.038927 1.000000 0.038672 0.039112 1.000000 0.035232 0.039076 1.000000 0.032075 0.038796 1.000000 0.029092 0.038374 1.000000 0.026378 0.037775 1.000000 0.023831 0.037097 1.000000 0.021530 0.036294 1.000000 0.019382 0.035462 1.000000 0.017455 0.034546 1.000000 0.015662 0.033637 1.000000 0.014062 0.032674 1.000000 0.012579 0.031745 1.000000 0.011261 0.030785 1.000000 0.010043 0.029876 1.000000 0.008964 0.028952 1.000000 0.007969 0.028092 1.000000 0.007090 0.027229 1.000000 0.006281 0.026437 1.000000 0.005568 0.025649 1.000000 0.004911 0.024937 1.000000 0.004334 0.024235 1.000000 0.003802 0.023611 1.000000 0.003334 0.023000 1.000000 0.002902 0.022468 1.000000 0.002521 0.021951 1.000000 0.002168 0.021513 1.000000 0.001854 0.021092 1.000000 0.001561 0.020750 1.000000 0.001297 0.020425 1.000000 0.001048 0.020178 1.000000 0.000819 0.019949 1.000000 0.000600 0.019797 1.000000 0.000393 0.019663 1.000000 0.000190 0.019606 1.000000 