# vtk DataFile Version 2.0
Comment goes here
ASCII

DATASET STRUCTURED_POINTS
DIMENSIONS    128   128   1

ORIGIN    0.000   0.000   0.000
SPACING   0.00781250.0078125   1.000

POINT_DATA   16384
SCALARS uMag double
LOOKUP_TABLE default

2.372868e-02 2.375730e-02 2.383521e-02 2.397037e-02 2.415491e-02 2.439662e-02 2.468786e-02 2.503607e-02 2.543394e-02 2.588840e-02 2.639254e-02 2.695253e-02 2.756198e-02 2.822607e-02 2.893894e-02 2.970451e-02 3.051757e-02 3.138044e-02 3.228862e-02 3.324255e-02 3.423850e-02 3.527473e-02 3.634842e-02 3.745536e-02 3.859383e-02 3.975695e-02 4.094438e-02 4.214653e-02 4.336484e-02 4.458710e-02 4.581715e-02 4.704053e-02 4.826421e-02 4.947218e-02 5.067546e-02 5.185747e-02 5.303424e-02 5.418986e-02 5.534612e-02 5.648905e-02 5.764640e-02 5.880699e-02 6.000362e-02 6.122785e-02 6.251484e-02 6.385752e-02 6.528880e-02 6.680010e-02 6.841611e-02 7.012318e-02 7.193184e-02 7.382069e-02 7.578221e-02 7.778677e-02 7.980850e-02 8.181199e-02 8.375653e-02 8.560578e-02 8.731062e-02 8.883986e-02 9.014373e-02 9.120210e-02 9.197215e-02 9.244926e-02 9.260370e-02 9.244842e-02 9.197048e-02 9.119961e-02 9.014044e-02 8.883582e-02 8.730585e-02 8.560034e-02 8.375046e-02 8.180537e-02 7.980137e-02 7.777924e-02 7.577432e-02 7.381256e-02 7.192352e-02 7.011480e-02 6.840770e-02 6.679181e-02 6.528063e-02 6.384960e-02 6.250717e-02 6.122053e-02 5.999664e-02 5.880043e-02 5.764023e-02 5.648331e-02 5.534081e-02 5.418497e-02 5.302978e-02 5.185340e-02 5.067181e-02 4.946886e-02 4.826129e-02 4.703789e-02 4.581488e-02 4.458506e-02 4.336313e-02 4.214500e-02 4.094315e-02 3.975585e-02 3.859299e-02 3.745462e-02 3.634790e-02 3.527427e-02 3.423822e-02 3.324230e-02 3.228853e-02 3.138036e-02 3.051761e-02 2.970454e-02 2.893907e-02 2.822617e-02 2.756216e-02 2.695267e-02 2.639273e-02 2.588855e-02 2.543412e-02 2.503621e-02 2.468801e-02 2.439673e-02 2.415502e-02 2.397044e-02 2.383527e-02 2.375732e-02 
2.428015e-02 2.430950e-02 2.438947e-02 2.452817e-02 2.471762e-02 2.496581e-02 2.526498e-02 2.562283e-02 2.603191e-02 2.649945e-02 2.701836e-02 2.759518e-02 2.822327e-02 2.890820e-02 2.964383e-02 3.043447e-02 3.127456e-02 3.216679e-02 3.310625e-02 3.409368e-02 3.512489e-02 3.619834e-02 3.731067e-02 3.845777e-02 3.963732e-02 4.084239e-02 4.207203e-02 4.331639e-02 4.457642e-02 4.583942e-02 4.710893e-02 4.836986e-02 4.962925e-02 5.087037e-02 5.210492e-02 5.331569e-02 5.452030e-02 5.570248e-02 5.688689e-02 5.805969e-02 5.925298e-02 6.045638e-02 6.170850e-02 6.300220e-02 6.437951e-02 6.583452e-02 6.740702e-02 6.908839e-02 7.090871e-02 7.285193e-02 7.493111e-02 7.711921e-02 7.940774e-02 8.175822e-02 8.414065e-02 8.650839e-02 8.881454e-02 9.101055e-02 9.304050e-02 9.486148e-02 9.641794e-02 9.767981e-02 9.860083e-02 9.916932e-02 9.935537e-02 9.916843e-02 9.859905e-02 9.767716e-02 9.641444e-02 9.485717e-02 9.303542e-02 9.100475e-02 8.880808e-02 8.650134e-02 8.413305e-02 8.175020e-02 7.939933e-02 7.711055e-02 7.492224e-02 7.284300e-02 7.089975e-02 6.907955e-02 6.739831e-02 6.582608e-02 6.437135e-02 6.299441e-02 6.170109e-02 6.044941e-02 5.924646e-02 5.805362e-02 5.688129e-02 5.569733e-02 5.451561e-02 5.331141e-02 5.210109e-02 5.086689e-02 4.962619e-02 4.836710e-02 4.710656e-02 4.583728e-02 4.457463e-02 4.331479e-02 4.207074e-02 4.084123e-02 3.963643e-02 3.845698e-02 3.731011e-02 3.619784e-02 3.512458e-02 3.409341e-02 3.310613e-02 3.216668e-02 3.127458e-02 3.043448e-02 2.964394e-02 2.890828e-02 2.822343e-02 2.759530e-02 2.701854e-02 2.649959e-02 2.603209e-02 2.562296e-02 2.526513e-02 2.496591e-02 2.471772e-02 2.452823e-02 2.438952e-02 2.430952e-02 
2.479631e-02 2.482674e-02 2.490883e-02 2.505183e-02 2.524667e-02 2.550250e-02 2.581046e-02 2.617948e-02 2.660096e-02 2.708342e-02 2.761858e-02 2.821435e-02 2.886278e-02 2.957088e-02 3.033112e-02 3.114931e-02 3.201832e-02 3.294243e-02 3.391500e-02 3.493838e-02 3.600646e-02 3.711932e-02 3.827151e-02 3.946049e-02 4.068167e-02 4.192964e-02 4.320105e-02 4.448746e-02 4.578732e-02 4.708934e-02 4.839454e-02 4.968923e-02 5.097813e-02 5.224608e-02 5.350287e-02 5.473321e-02 5.595362e-02 5.715040e-02 5.834827e-02 5.953698e-02 6.075018e-02 6.198230e-02 6.327503e-02 6.462718e-02 6.608480e-02 6.764833e-02 6.936120e-02 7.122022e-02 7.325676e-02 7.545776e-02 7.783349e-02 8.035647e-02 8.301059e-02 8.575364e-02 8.854362e-02 9.132802e-02 9.404501e-02 9.663958e-02 9.903980e-02 1.011974e-01 1.030415e-01 1.045393e-01 1.056315e-01 1.063073e-01 1.065274e-01 1.063065e-01 1.056299e-01 1.045369e-01 1.030383e-01 1.011935e-01 9.903511e-02 9.663419e-02 9.403895e-02 9.132135e-02 8.853637e-02 8.574589e-02 8.300238e-02 8.034793e-02 7.782463e-02 7.544875e-02 7.324761e-02 7.121110e-02 6.935213e-02 6.763947e-02 6.607614e-02 6.461886e-02 6.326706e-02 6.197475e-02 6.074306e-02 5.953032e-02 5.834209e-02 5.714468e-02 5.594838e-02 5.472840e-02 5.349854e-02 5.224212e-02 5.097464e-02 4.968605e-02 4.839178e-02 4.708684e-02 4.578520e-02 4.448555e-02 4.319947e-02 4.192822e-02 4.068055e-02 3.945947e-02 3.827075e-02 3.711863e-02 3.600598e-02 3.493795e-02 3.391474e-02 3.294220e-02 3.201823e-02 3.114921e-02 3.033114e-02 2.957088e-02 2.886286e-02 2.821441e-02 2.761871e-02 2.708351e-02 2.660109e-02 2.617957e-02 2.581057e-02 2.550258e-02 2.524675e-02 2.505189e-02 2.490887e-02 2.482676e-02 
2.525606e-02 2.528743e-02 2.537219e-02 2.551978e-02 2.572096e-02 2.598512e-02 2.630322e-02 2.668448e-02 2.712009e-02 2.761891e-02 2.817242e-02 2.878887e-02 2.946006e-02 3.019338e-02 3.098093e-02 3.182894e-02 3.272984e-02 3.368829e-02 3.469711e-02 3.575898e-02 3.686716e-02 3.802195e-02 3.921715e-02 4.045030e-02 4.171599e-02 4.300865e-02 4.432406e-02 4.565343e-02 4.699432e-02 4.833483e-02 4.967527e-02 5.100114e-02 5.231679e-02 5.360615e-02 5.487937e-02 5.612036e-02 5.734712e-02 5.854565e-02 5.974381e-02 6.093192e-02 6.214899e-02 6.339120e-02 6.470799e-02 6.610103e-02 6.762594e-02 6.928626e-02 7.113521e-02 7.317113e-02 7.543308e-02 7.790589e-02 8.060321e-02 8.349059e-02 8.655010e-02 8.972792e-02 9.297580e-02 9.622630e-02 9.940866e-02 1.024516e-01 1.052737e-01 1.078110e-01 1.099845e-01 1.117481e-01 1.130378e-01 1.138333e-01 1.140948e-01 1.138325e-01 1.130362e-01 1.117457e-01 1.099812e-01 1.078069e-01 1.052689e-01 1.024461e-01 9.940248e-02 9.621949e-02 9.296839e-02 8.972000e-02 8.654169e-02 8.348181e-02 8.059409e-02 7.789660e-02 7.542362e-02 7.316169e-02 7.112580e-02 6.927706e-02 6.761695e-02 6.609239e-02 6.469970e-02 6.338335e-02 6.214159e-02 6.092500e-02 5.973739e-02 5.853971e-02 5.734170e-02 5.611538e-02 5.487489e-02 5.360206e-02 5.231318e-02 5.099785e-02 4.967242e-02 4.833225e-02 4.699213e-02 4.565145e-02 4.432243e-02 4.300717e-02 4.171481e-02 4.044924e-02 3.921635e-02 3.802122e-02 3.686665e-02 3.575851e-02 3.469682e-02 3.368802e-02 3.272972e-02 3.182882e-02 3.098093e-02 3.019336e-02 2.946013e-02 2.878891e-02 2.817253e-02 2.761899e-02 2.712021e-02 2.668456e-02 2.630333e-02 2.598519e-02 2.572104e-02 2.551983e-02 2.537223e-02 2.528745e-02 
2.567309e-02 2.570574e-02 2.579327e-02 2.594620e-02 2.615422e-02 2.642787e-02 2.675700e-02 2.715204e-02 2.760302e-02 2.812008e-02 2.869346e-02 2.933279e-02 3.002850e-02 3.078946e-02 3.160626e-02 3.248668e-02 3.342148e-02 3.441692e-02 3.546396e-02 3.656693e-02 3.771697e-02 3.891605e-02 4.015561e-02 4.143481e-02 4.274561e-02 4.408403e-02 4.544293e-02 4.681503e-02 4.819476e-02 4.957166e-02 5.094282e-02 5.229515e-02 5.362990e-02 5.493257e-02 5.621062e-02 5.745000e-02 5.866696e-02 5.985045e-02 6.102817e-02 6.219489e-02 6.339169e-02 6.462124e-02 6.593762e-02 6.735102e-02 6.892368e-02 7.066864e-02 7.264564e-02 7.486129e-02 7.735790e-02 8.012468e-02 8.317251e-02 8.646594e-02 8.997730e-02 9.364687e-02 9.741071e-02 1.011925e-01 1.049021e-01 1.084585e-01 1.117596e-01 1.147334e-01 1.172810e-01 1.193517e-01 1.208648e-01 1.218002e-01 1.221064e-01 1.217996e-01 1.208635e-01 1.193498e-01 1.172784e-01 1.147301e-01 1.117557e-01 1.084539e-01 1.048968e-01 1.011866e-01 9.740418e-02 9.363976e-02 8.996960e-02 8.645776e-02 8.316384e-02 8.011569e-02 7.734859e-02 7.485185e-02 7.263609e-02 7.065918e-02 6.891432e-02 6.734194e-02 6.592882e-02 6.461285e-02 6.338372e-02 6.218739e-02 6.102118e-02 5.984395e-02 5.866099e-02 5.744449e-02 5.620564e-02 5.492801e-02 5.362585e-02 5.229145e-02 5.093959e-02 4.956873e-02 4.819225e-02 4.681275e-02 4.544103e-02 4.408231e-02 4.274422e-02 4.143354e-02 4.015462e-02 3.891515e-02 3.771631e-02 3.656633e-02 3.546356e-02 3.441655e-02 3.342127e-02 3.248647e-02 3.160619e-02 3.078937e-02 3.002851e-02 2.933278e-02 2.869352e-02 2.812012e-02 2.760310e-02 2.715209e-02 2.675709e-02 2.642792e-02 2.615428e-02 2.594624e-02 2.579330e-02 2.570576e-02 
2.602554e-02 2.605936e-02 2.615016e-02 2.630871e-02 2.652449e-02 2.680830e-02 2.714976e-02 2.755960e-02 2.802762e-02 2.856429e-02 2.915956e-02 2.982344e-02 3.054602e-02 3.133658e-02 3.218528e-02 3.310031e-02 3.407192e-02 3.510676e-02 3.619514e-02 3.734173e-02 3.853688e-02 3.978279e-02 4.106994e-02 4.239756e-02 4.375648e-02 4.514254e-02 4.654735e-02 4.796315e-02 4.938304e-02 5.079578e-02 5.219714e-02 5.357298e-02 5.492354e-02 5.623307e-02 5.750873e-02 5.873536e-02 5.993020e-02 6.108174e-02 6.222081e-02 6.334308e-02 6.449591e-02 6.568495e-02 6.697430e-02 6.837941e-02 6.997581e-02 7.178282e-02 7.387438e-02 7.626140e-02 7.899729e-02 8.207006e-02 8.549504e-02 8.922816e-02 9.323861e-02 9.745129e-02 1.017931e-01 1.061679e-01 1.104730e-01 1.146060e-01 1.184515e-01 1.219167e-01 1.248918e-01 1.273083e-01 1.290785e-01 1.301699e-01 1.305302e-01 1.301693e-01 1.290773e-01 1.273064e-01 1.248894e-01 1.219137e-01 1.184478e-01 1.146017e-01 1.104680e-01 1.061624e-01 1.017869e-01 9.744453e-02 9.323124e-02 8.922028e-02 8.548662e-02 8.206127e-02 7.898812e-02 7.625205e-02 7.386486e-02 7.177334e-02 6.996639e-02 6.837023e-02 6.696539e-02 6.567643e-02 6.448782e-02 6.333545e-02 6.221369e-02 6.107511e-02 5.992412e-02 5.872975e-02 5.750367e-02 5.622842e-02 5.491942e-02 5.356921e-02 5.219386e-02 5.079278e-02 4.938048e-02 4.796081e-02 4.654540e-02 4.514077e-02 4.375504e-02 4.239625e-02 4.106892e-02 3.978186e-02 3.853620e-02 3.734109e-02 3.619471e-02 3.510636e-02 3.407168e-02 3.310008e-02 3.218518e-02 3.133647e-02 3.054602e-02 2.982341e-02 2.915960e-02 2.856431e-02 2.802769e-02 2.755964e-02 2.714983e-02 2.680834e-02 2.652455e-02 2.630874e-02 2.615019e-02 2.605937e-02 
2.632763e-02 2.636293e-02 2.645713e-02 2.662206e-02 2.684615e-02 2.714129e-02 2.749603e-02 2.792226e-02 2.840863e-02 2.896685e-02 2.958564e-02 3.027634e-02 3.102769e-02 3.185037e-02 3.273305e-02 3.368544e-02 3.469605e-02 3.577315e-02 3.690507e-02 3.809815e-02 3.934045e-02 4.063589e-02 4.197232e-02 4.335064e-02 4.475867e-02 4.619389e-02 4.764448e-02 4.910420e-02 5.056238e-02 5.200915e-02 5.343623e-02 5.483081e-02 5.618896e-02 5.749639e-02 5.875640e-02 5.995577e-02 6.110883e-02 6.220714e-02 6.328062e-02 6.433010e-02 6.540521e-02 6.651998e-02 6.774501e-02 6.910779e-02 7.069422e-02 7.253795e-02 7.472408e-02 7.727632e-02 8.025471e-02 8.365378e-02 8.748638e-02 9.170648e-02 9.627061e-02 1.010947e-01 1.060850e-01 1.111326e-01 1.161095e-01 1.208998e-01 1.253610e-01 1.293889e-01 1.328478e-01 1.356620e-01 1.377222e-01 1.389953e-01 1.394138e-01 1.389950e-01 1.377215e-01 1.356609e-01 1.328464e-01 1.293871e-01 1.253588e-01 1.208971e-01 1.161063e-01 1.111288e-01 1.060805e-01 1.010895e-01 9.626473e-02 9.169993e-02 8.747910e-02 8.364591e-02 8.024621e-02 7.726742e-02 7.471477e-02 7.252850e-02 7.068465e-02 6.909834e-02 6.773572e-02 6.651100e-02 6.539661e-02 6.432193e-02 6.327297e-02 6.219998e-02 6.110224e-02 5.994965e-02 5.875087e-02 5.749129e-02 5.618443e-02 5.482665e-02 5.343260e-02 5.200583e-02 5.055953e-02 4.910161e-02 4.764230e-02 4.619190e-02 4.475705e-02 4.334915e-02 4.197115e-02 4.063482e-02 3.933965e-02 3.809740e-02 3.690454e-02 3.577266e-02 3.469573e-02 3.368514e-02 3.273290e-02 3.185021e-02 3.102764e-02 3.027628e-02 2.958565e-02 2.896684e-02 2.840867e-02 2.792228e-02 2.749609e-02 2.714132e-02 2.684619e-02 2.662208e-02 2.645715e-02 2.636293e-02 
2.655696e-02 2.659364e-02 2.669173e-02 2.686333e-02 2.709661e-02 2.740375e-02 2.777304e-02 2.821667e-02 2.872300e-02 2.930412e-02 2.994839e-02 3.066756e-02 3.144994e-02 3.230667e-02 3.322592e-02 3.421782e-02 3.527030e-02 3.639206e-02 3.757064e-02 3.881277e-02 4.010558e-02 4.145321e-02 4.284236e-02 4.427400e-02 4.573453e-02 4.722121e-02 4.872058e-02 5.022580e-02 5.172433e-02 5.320530e-02 5.465844e-02 5.606948e-02 5.743262e-02 5.873182e-02 5.996899e-02 6.112918e-02 6.222666e-02 6.325195e-02 6.423740e-02 6.518468e-02 6.615007e-02 6.715179e-02 6.827294e-02 6.954952e-02 7.108587e-02 7.292708e-02 7.517917e-02 7.787512e-02 8.109139e-02 8.482320e-02 8.908930e-02 9.383284e-02 9.900498e-02 1.045013e-01 1.102148e-01 1.160107e-01 1.217436e-01 1.272696e-01 1.324285e-01 1.370885e-01 1.410989e-01 1.443602e-01 1.467537e-01 1.482292e-01 1.487180e-01 1.482290e-01 1.467533e-01 1.443595e-01 1.410980e-01 1.370874e-01 1.324270e-01 1.272677e-01 1.217413e-01 1.160079e-01 1.102114e-01 1.044973e-01 9.900026e-02 9.382741e-02 8.908306e-02 8.481626e-02 8.108370e-02 7.786690e-02 7.517041e-02 7.291806e-02 7.107661e-02 6.954029e-02 6.826380e-02 6.714290e-02 6.614152e-02 6.517653e-02 6.422974e-02 6.324476e-02 6.222004e-02 6.112303e-02 5.996343e-02 5.872668e-02 5.742806e-02 5.606530e-02 5.465478e-02 5.320195e-02 5.172146e-02 5.022317e-02 4.871837e-02 4.721919e-02 4.573288e-02 4.427248e-02 4.284117e-02 4.145211e-02 4.010475e-02 3.881200e-02 3.757009e-02 3.639154e-02 3.526997e-02 3.421750e-02 3.322574e-02 3.230649e-02 3.144987e-02 3.066747e-02 2.994839e-02 2.930410e-02 2.872304e-02 2.821668e-02 2.777308e-02 2.740377e-02 2.709665e-02 2.686335e-02 2.669176e-02 2.659364e-02 
2.672829e-02 2.676665e-02 2.686881e-02 2.704785e-02 2.729094e-02 2.761130e-02 2.799618e-02 2.845886e-02 2.898660e-02 2.959264e-02 3.026416e-02 3.101418e-02 3.182965e-02 3.272312e-02 3.368121e-02 3.471559e-02 3.581238e-02 3.698193e-02 3.820971e-02 3.950417e-02 4.084997e-02 4.225305e-02 4.369721e-02 4.518520e-02 4.670003e-02 4.824067e-02 4.978969e-02 5.134187e-02 5.288008e-02 5.439488e-02 5.587087e-02 5.729504e-02 5.865607e-02 5.993910e-02 6.114053e-02 6.224692e-02 6.326773e-02 6.419617e-02 6.506189e-02 6.587184e-02 6.668387e-02 6.752616e-02 6.849004e-02 6.962798e-02 7.105993e-02 7.285275e-02 7.513123e-02 7.794877e-02 8.139429e-02 8.547310e-02 9.020200e-02 9.552052e-02 1.013630e-01 1.076116e-01 1.141323e-01 1.207723e-01 1.273537e-01 1.337142e-01 1.396587e-01 1.450393e-01 1.496716e-01 1.534456e-01 1.562140e-01 1.579246e-01 1.584889e-01 1.579249e-01 1.562145e-01 1.534462e-01 1.496724e-01 1.450401e-01 1.396595e-01 1.337148e-01 1.273541e-01 1.207722e-01 1.141317e-01 1.076103e-01 1.013609e-01 9.551746e-02 9.019785e-02 8.546795e-02 8.138802e-02 7.794163e-02 7.512319e-02 7.284414e-02 7.105080e-02 6.961867e-02 6.848064e-02 6.751690e-02 6.667487e-02 6.586321e-02 6.505373e-02 6.418848e-02 6.326063e-02 6.224030e-02 6.113454e-02 5.993357e-02 5.865115e-02 5.729052e-02 5.586692e-02 5.439126e-02 5.287698e-02 5.133903e-02 4.978731e-02 4.823849e-02 4.669824e-02 4.518356e-02 4.369591e-02 4.225185e-02 4.084905e-02 3.950332e-02 3.820910e-02 3.698136e-02 3.581200e-02 3.471523e-02 3.368099e-02 3.272291e-02 3.182955e-02 3.101407e-02 3.026414e-02 2.959261e-02 2.898662e-02 2.845886e-02 2.799622e-02 2.761132e-02 2.729098e-02 2.704787e-02 2.686884e-02 2.676666e-02 
2.681900e-02 2.685897e-02 2.696567e-02 2.715247e-02 2.740625e-02 2.774053e-02 2.814225e-02 2.862503e-02 2.917577e-02 2.980810e-02 3.050880e-02 3.129130e-02 3.214211e-02 3.307422e-02 3.407369e-02 3.515270e-02 3.629667e-02 3.751643e-02 3.879659e-02 4.014604e-02 4.154837e-02 4.300981e-02 4.451283e-02 4.606027e-02 4.763349e-02 4.923123e-02 5.083402e-02 5.243599e-02 5.401759e-02 5.556818e-02 5.706956e-02 5.850692e-02 5.986587e-02 6.112919e-02 6.229036e-02 6.333322e-02 6.426527e-02 6.507742e-02 6.579983e-02 6.643924e-02 6.705911e-02 6.769224e-02 6.844425e-02 6.938000e-02 7.064457e-02 7.232447e-02 7.457608e-02 7.747123e-02 8.112411e-02 8.554449e-02 9.075699e-02 9.668701e-02 1.032598e-01 1.103304e-01 1.177459e-01 1.253201e-01 1.328521e-01 1.401434e-01 1.469753e-01 1.531639e-01 1.585042e-01 1.628541e-01 1.660532e-01 1.680256e-01 1.686811e-01 1.680260e-01 1.660541e-01 1.628554e-01 1.585059e-01 1.531659e-01 1.469775e-01 1.401457e-01 1.328543e-01 1.253221e-01 1.177475e-01 1.103314e-01 1.032600e-01 9.668619e-02 9.075497e-02 8.554131e-02 8.111960e-02 7.746560e-02 7.456929e-02 7.231686e-02 7.063622e-02 6.937128e-02 6.843529e-02 6.768329e-02 6.705034e-02 6.643075e-02 6.579178e-02 6.506979e-02 6.425822e-02 6.332663e-02 6.228440e-02 6.112367e-02 5.986097e-02 5.850240e-02 5.706562e-02 5.556456e-02 5.401449e-02 5.243314e-02 5.083164e-02 4.922903e-02 4.763170e-02 4.605861e-02 4.451152e-02 4.300859e-02 4.154744e-02 4.014517e-02 3.879596e-02 3.751584e-02 3.629627e-02 3.515232e-02 3.407346e-02 3.307399e-02 3.214200e-02 3.129118e-02 3.050876e-02 2.980806e-02 2.917578e-02 2.862502e-02 2.814228e-02 2.774054e-02 2.740628e-02 2.715248e-02 2.696569e-02 2.685897e-02 
2.684440e-02 2.688626e-02 2.699774e-02 2.719309e-02 2.745829e-02 2.780779e-02 2.822754e-02 2.873216e-02 2.930750e-02 2.996830e-02 3.070012e-02 3.151765e-02 3.240605e-02 3.337970e-02 3.442309e-02 3.554994e-02 3.674385e-02 3.801734e-02 3.935286e-02 4.076110e-02 4.222308e-02 4.374691e-02 4.531198e-02 4.692304e-02 4.855773e-02 5.021664e-02 5.187588e-02 5.353127e-02 5.515799e-02 5.674686e-02 5.827351e-02 5.972426e-02 6.107771e-02 6.231744e-02 6.342927e-02 6.439782e-02 6.522294e-02 6.589703e-02 6.644421e-02 6.687529e-02 6.725238e-02 6.761850e-02 6.808751e-02 6.874539e-02 6.975926e-02 7.124872e-02 7.340173e-02 7.632415e-02 8.015352e-02 8.491598e-02 9.063514e-02 9.722949e-02 1.046012e-01 1.125848e-01 1.209925e-01 1.296138e-01 1.382067e-01 1.465481e-01 1.543750e-01 1.614814e-01 1.676180e-01 1.726271e-01 1.763097e-01 1.785861e-01 1.793395e-01 1.785872e-01 1.763118e-01 1.726301e-01 1.676220e-01 1.614861e-01 1.543804e-01 1.465539e-01 1.382127e-01 1.296197e-01 1.209982e-01 1.125898e-01 1.046053e-01 9.723239e-02 9.063648e-02 8.491571e-02 8.015137e-02 7.632034e-02 7.339621e-02 7.124191e-02 6.975130e-02 6.873673e-02 6.807838e-02 6.760922e-02 6.724317e-02 6.686632e-02 6.643566e-02 6.588890e-02 6.521543e-02 6.439079e-02 6.342293e-02 6.231157e-02 6.107251e-02 5.971947e-02 5.826935e-02 5.674304e-02 5.515473e-02 5.352828e-02 5.187338e-02 5.021434e-02 4.855585e-02 4.692131e-02 4.531061e-02 4.374565e-02 4.222211e-02 4.076020e-02 3.935221e-02 3.801673e-02 3.674344e-02 3.554955e-02 3.442286e-02 3.337947e-02 3.240594e-02 3.151754e-02 3.070009e-02 2.996825e-02 2.930752e-02 2.873216e-02 2.822757e-02 2.780781e-02 2.745833e-02 2.719311e-02 2.699776e-02 2.688627e-02 
2.678196e-02 2.682569e-02 2.694241e-02 2.714672e-02 2.742424e-02 2.778974e-02 2.822881e-02 2.875642e-02 2.935801e-02 3.004869e-02 3.081359e-02 3.166784e-02 3.259609e-02 3.361318e-02 3.470305e-02 3.587989e-02 3.712665e-02 3.845632e-02 3.985050e-02 4.132034e-02 4.284578e-02 4.443527e-02 4.606681e-02 4.774528e-02 4.944655e-02 5.117102e-02 5.289251e-02 5.460619e-02 5.628436e-02 5.791654e-02 5.947483e-02 6.094341e-02 6.229666e-02 6.351506e-02 6.457968e-02 6.547112e-02 6.618450e-02 6.670781e-02 6.706198e-02 6.725477e-02 6.735001e-02 6.739323e-02 6.751144e-02 6.780564e-02 6.847526e-02 6.967183e-02 7.163247e-02 7.449913e-02 7.845113e-02 8.352699e-02 8.976059e-02 9.705065e-02 1.052833e-01 1.142565e-01 1.237561e-01 1.335293e-01 1.433045e-01 1.528131e-01 1.617612e-01 1.698956e-01 1.769386e-01 1.826887e-01 1.869281e-01 1.895436e-01 1.904155e-01 1.895450e-01 1.869309e-01 1.826927e-01 1.769439e-01 1.699020e-01 1.617686e-01 1.528213e-01 1.433133e-01 1.335384e-01 1.237651e-01 1.142651e-01 1.052911e-01 9.705721e-02 8.976546e-02 8.353000e-02 7.845190e-02 7.449781e-02 7.162896e-02 6.966659e-02 6.846848e-02 6.779783e-02 6.750291e-02 6.738436e-02 6.734109e-02 6.724597e-02 6.705356e-02 6.669976e-02 6.617704e-02 6.546412e-02 6.457337e-02 6.350920e-02 6.229148e-02 6.093863e-02 5.947069e-02 5.791273e-02 5.628111e-02 5.460320e-02 5.289002e-02 5.116873e-02 4.944468e-02 4.774356e-02 4.606545e-02 4.443401e-02 4.284481e-02 4.131944e-02 3.984984e-02 3.845570e-02 3.712623e-02 3.587949e-02 3.470280e-02 3.361294e-02 3.259597e-02 3.166771e-02 3.081355e-02 3.004863e-02 2.935802e-02 2.875641e-02 2.822884e-02 2.778976e-02 2.742427e-02 2.714674e-02 2.694243e-02 2.682569e-02 
2.664760e-02 2.669344e-02 2.681573e-02 2.702985e-02 2.732057e-02 2.770348e-02 2.816325e-02 2.871574e-02 2.934539e-02 3.006830e-02 3.086848e-02 3.176219e-02 3.273279e-02 3.379646e-02 3.493562e-02 3.616599e-02 3.746872e-02 3.885851e-02 4.031484e-02 4.185072e-02 4.344350e-02 4.510365e-02 4.680600e-02 4.855751e-02 5.033016e-02 5.212643e-02 5.391538e-02 5.569411e-02 5.742910e-02 5.911154e-02 6.070642e-02 6.219915e-02 6.355557e-02 6.475675e-02 6.577375e-02 6.658703e-02 6.718047e-02 6.754159e-02 6.767995e-02 6.760414e-02 6.736988e-02 6.702949e-02 6.671303e-02 6.654413e-02 6.674904e-02 6.752776e-02 6.917054e-02 7.187993e-02 7.588129e-02 8.124249e-02 8.799800e-02 9.603218e-02 1.051970e-01 1.152594e-01 1.259600e-01 1.370144e-01 1.481008e-01 1.589195e-01 1.691202e-01 1.784197e-01 1.864813e-01 1.930800e-01 1.979452e-01 2.009555e-01 2.019546e-01 2.009577e-01 1.979495e-01 1.930864e-01 1.864897e-01 1.784298e-01 1.691320e-01 1.589325e-01 1.481148e-01 1.370290e-01 1.259747e-01 1.152737e-01 1.052104e-01 9.604408e-02 8.800771e-02 8.124972e-02 7.588546e-02 7.188118e-02 6.916874e-02 6.752352e-02 6.674264e-02 6.653628e-02 6.670416e-02 6.702010e-02 6.736037e-02 6.759471e-02 6.767093e-02 6.753296e-02 6.717251e-02 6.657958e-02 6.576706e-02 6.475057e-02 6.355013e-02 6.219416e-02 6.070212e-02 5.910760e-02 5.742577e-02 5.569106e-02 5.391285e-02 5.212412e-02 5.032828e-02 4.855579e-02 4.680465e-02 4.510241e-02 4.344256e-02 4.184984e-02 4.031421e-02 3.885792e-02 3.746833e-02 3.616562e-02 3.493541e-02 3.379625e-02 3.273270e-02 3.176209e-02 3.086847e-02 3.006827e-02 2.934542e-02 2.871576e-02 2.816329e-02 2.770351e-02 2.732061e-02 2.702988e-02 2.681576e-02 2.669345e-02 
2.641926e-02 2.646725e-02 2.659560e-02 2.682005e-02 2.712493e-02 2.752621e-02 2.800808e-02 2.858678e-02 2.924624e-02 3.000297e-02 3.084047e-02 3.177543e-02 3.279070e-02 3.390292e-02 3.509396e-02 3.638005e-02 3.774168e-02 3.919411e-02 4.071601e-02 4.232090e-02 4.398513e-02 4.571961e-02 4.749781e-02 4.932699e-02 5.117733e-02 5.305131e-02 5.491561e-02 5.676686e-02 5.856844e-02 6.031034e-02 6.195353e-02 6.348123e-02 6.485412e-02 6.604971e-02 6.703256e-02 6.777787e-02 6.826166e-02 6.846433e-02 6.838689e-02 6.802984e-02 6.744249e-02 6.667235e-02 6.585387e-02 6.512142e-02 6.473497e-02 6.494033e-02 6.610459e-02 6.850269e-02 7.243776e-02 7.800968e-02 8.526688e-02 9.406213e-02 1.042170e-01 1.154470e-01 1.274566e-01 1.399104e-01 1.524496e-01 1.647196e-01 1.763297e-01 1.869350e-01 1.961592e-01 2.037155e-01 2.093049e-01 2.127577e-01 2.139123e-01 2.127602e-01 2.093100e-01 2.037230e-01 1.961692e-01 1.869472e-01 1.763441e-01 1.647357e-01 1.524674e-01 1.399291e-01 1.274760e-01 1.154663e-01 1.042356e-01 9.407935e-02 8.528178e-02 7.802172e-02 7.244611e-02 6.850736e-02 6.610538e-02 6.493792e-02 6.472978e-02 6.511430e-02 6.584542e-02 6.666315e-02 6.743304e-02 6.802038e-02 6.837782e-02 6.845561e-02 6.825363e-02 6.777033e-02 6.702582e-02 6.604347e-02 6.484866e-02 6.347622e-02 6.194923e-02 6.030640e-02 5.856512e-02 5.676382e-02 5.491310e-02 5.304901e-02 5.117548e-02 4.932528e-02 4.749647e-02 4.571837e-02 4.398419e-02 4.232003e-02 4.071538e-02 3.919352e-02 3.774129e-02 3.637968e-02 3.509375e-02 3.390271e-02 3.279061e-02 3.177533e-02 3.084045e-02 3.000294e-02 2.924627e-02 2.858679e-02 2.800813e-02 2.752624e-02 2.712497e-02 2.682007e-02 2.659562e-02 2.646726e-02 
2.611340e-02 2.616380e-02 2.629864e-02 2.653436e-02 2.685450e-02 2.727572e-02 2.778135e-02 2.838835e-02 2.907974e-02 2.987286e-02 3.075017e-02 3.172936e-02 3.279210e-02 3.395624e-02 3.520228e-02 3.654788e-02 3.797192e-02 3.949133e-02 4.108279e-02 4.276177e-02 4.450213e-02 4.631693e-02 4.817658e-02 5.009065e-02 5.202546e-02 5.398589e-02 5.593379e-02 5.786814e-02 5.974624e-02 6.156023e-02 6.326344e-02 6.484075e-02 6.624324e-02 6.744925e-02 6.841133e-02 6.910413e-02 6.948883e-02 6.954339e-02 6.925098e-02 6.860793e-02 6.764424e-02 6.640476e-02 6.501105e-02 6.360988e-02 6.247930e-02 6.192473e-02 6.239648e-02 6.428422e-02 6.799275e-02 7.368637e-02 8.141832e-02 9.100825e-02 1.022206e-01 1.147206e-01 1.281556e-01 1.421512e-01 1.562905e-01 1.701810e-01 1.833618e-01 1.954468e-01 2.059795e-01 2.146367e-01 2.210439e-01 2.250154e-01 2.263374e-01 2.250190e-01 2.210509e-01 2.146471e-01 2.059933e-01 1.954636e-01 1.833816e-01 1.702031e-01 1.563148e-01 1.421769e-01 1.281823e-01 1.147474e-01 1.022466e-01 9.103257e-02 8.143969e-02 7.370395e-02 6.800539e-02 6.429180e-02 6.239884e-02 6.192281e-02 6.247384e-02 6.360202e-02 6.500163e-02 6.639448e-02 6.763375e-02 6.859748e-02 6.924104e-02 6.953390e-02 6.948017e-02 6.909606e-02 6.840418e-02 6.744267e-02 6.623755e-02 6.483556e-02 6.325904e-02 6.155623e-02 5.974291e-02 5.786512e-02 5.593132e-02 5.398365e-02 5.202368e-02 5.008902e-02 4.817533e-02 4.631578e-02 4.450128e-02 4.276099e-02 4.108225e-02 3.949083e-02 3.797161e-02 3.654759e-02 3.520213e-02 3.395609e-02 3.279206e-02 3.172932e-02 3.075020e-02 2.987288e-02 2.907981e-02 2.838840e-02 2.778142e-02 2.727577e-02 2.685457e-02 2.653440e-02 2.629868e-02 2.616381e-02 
2.570894e-02 2.576183e-02 2.590372e-02 2.615141e-02 2.648796e-02 2.693034e-02 2.746135e-02 2.809827e-02 2.882357e-02 2.965491e-02 3.057424e-02 3.159964e-02 3.271225e-02 3.393039e-02 3.523405e-02 3.664140e-02 3.813078e-02 3.971970e-02 4.138418e-02 4.314030e-02 4.496109e-02 4.686017e-02 4.880686e-02 5.081114e-02 5.283786e-02 5.489209e-02 5.693359e-02 5.896116e-02 6.092922e-02 6.282905e-02 6.461006e-02 6.625525e-02 6.771033e-02 6.895020e-02 6.992005e-02 7.058875e-02 7.090737e-02 7.084468e-02 7.037007e-02 6.946607e-02 6.814503e-02 6.643396e-02 6.443784e-02 6.229251e-02 6.028660e-02 5.876595e-02 5.828372e-02 5.937232e-02 6.260683e-02 6.824801e-02 7.637482e-02 8.674513e-02 9.905691e-02 1.128983e-01 1.278667e-01 1.435302e-01 1.594302e-01 1.751105e-01 1.900591e-01 2.038079e-01 2.158431e-01 2.257518e-01 2.331149e-01 2.376731e-01 2.392026e-01 2.376770e-01 2.331227e-01 2.257634e-01 2.158587e-01 2.038271e-01 1.900818e-01 1.751363e-01 1.594589e-01 1.435610e-01 1.278991e-01 1.129315e-01 9.908979e-02 8.677656e-02 7.640315e-02 6.827193e-02 6.262464e-02 5.938361e-02 5.828831e-02 5.876508e-02 6.028141e-02 6.228441e-02 6.442795e-02 6.642309e-02 6.813394e-02 6.945501e-02 7.035960e-02 7.083471e-02 7.089832e-02 7.058034e-02 6.991263e-02 6.894341e-02 6.770449e-02 6.624994e-02 6.460558e-02 6.282500e-02 6.092586e-02 5.895812e-02 5.693113e-02 5.488986e-02 5.283610e-02 5.080954e-02 4.880562e-02 4.685905e-02 4.496026e-02 4.313953e-02 4.138366e-02 3.971921e-02 3.813048e-02 3.664112e-02 3.523391e-02 3.393026e-02 3.271222e-02 3.159960e-02 3.057428e-02 2.965494e-02 2.882364e-02 2.809833e-02 2.746143e-02 2.693039e-02 2.648803e-02 2.615145e-02 2.590376e-02 2.576184e-02 
2.522280e-02 2.527843e-02 2.542798e-02 2.568874e-02 2.604308e-02 2.650845e-02 2.706686e-02 2.773612e-02 2.849781e-02 2.937025e-02 3.033442e-02 3.140925e-02 3.257482e-02 3.385053e-02 3.521516e-02 3.668827e-02 3.824676e-02 3.990979e-02 4.165168e-02 4.349046e-02 4.539698e-02 4.738717e-02 4.942755e-02 5.153071e-02 5.365791e-02 5.581706e-02 5.796333e-02 6.009851e-02 6.217110e-02 6.417538e-02 6.605313e-02 6.779001e-02 6.932192e-02 7.062562e-02 7.163351e-02 7.231474e-02 7.260344e-02 7.246571e-02 7.184810e-02 7.072538e-02 6.907875e-02 6.692002e-02 6.431441e-02 6.137967e-02 5.837588e-02 5.567547e-02 5.391220e-02 5.381668e-02 5.621528e-02 6.156517e-02 6.997972e-02 8.112986e-02 9.459479e-02 1.098717e-01 1.264868e-01 1.439649e-01 1.617872e-01 1.794552e-01 1.963711e-01 2.120098e-01 2.257448e-01 2.371044e-01 2.455566e-01 2.508112e-01 2.525658e-01 2.508163e-01 2.455668e-01 2.371194e-01 2.257648e-01 2.120343e-01 1.964002e-01 1.794881e-01 1.618236e-01 1.440040e-01 1.265280e-01 1.099139e-01 9.463668e-02 8.117008e-02 7.001604e-02 6.159562e-02 5.623733e-02 5.382975e-02 5.391646e-02 5.567295e-02 5.836843e-02 6.136914e-02 6.430221e-02 6.690701e-02 6.906581e-02 7.071271e-02 7.183631e-02 7.245463e-02 7.259351e-02 7.230562e-02 7.162558e-02 7.061844e-02 6.931582e-02 6.778453e-02 6.604858e-02 6.417131e-02 6.216780e-02 6.009555e-02 5.796098e-02 5.581496e-02 5.365629e-02 5.152926e-02 4.942647e-02 4.738621e-02 4.539630e-02 4.348985e-02 4.165129e-02 3.990945e-02 3.824658e-02 3.668812e-02 3.521513e-02 3.385050e-02 3.257489e-02 3.140931e-02 3.033454e-02 2.937035e-02 2.849795e-02 2.773623e-02 2.706699e-02 2.650855e-02 2.604318e-02 2.568880e-02 2.542803e-02 2.527846e-02 