# vtk DataFile Version 2.0
Comment goes here
ASCII

DATASET STRUCTURED_POINTS
DIMENSIONS    128   128   1

ORIGIN    0.000   0.000   0.000
SPACING   0.00781250.0078125   1.000

POINT_DATA   16384
SCALARS uX double
LOOKUP_TABLE default

7.479317e-06 -5.083387e-04 -1.024855e-03 -1.542798e-03 -2.062938e-03 -2.585814e-03 -3.112288e-03 -3.642682e-03 -4.177919e-03 -4.718069e-03 -5.264081e-03 -5.815747e-03 -6.374002e-03 -6.938334e-03 -7.509625e-03 -8.087028e-03 -8.671333e-03 -9.261330e-03 -9.857672e-03 -1.045877e-02 -1.106507e-02 -1.167459e-02 -1.228754e-02 -1.290149e-02 -1.351636e-02 -1.412929e-02 -1.473979e-02 -1.534458e-02 -1.594271e-02 -1.653046e-02 -1.710630e-02 -1.766613e-02 -1.820773e-02 -1.872661e-02 -1.921981e-02 -1.968250e-02 -2.011083e-02 -2.049974e-02 -2.084444e-02 -2.113971e-02 -2.137981e-02 -2.155956e-02 -2.167226e-02 -2.171303e-02 -2.167440e-02 -2.155208e-02 -2.133813e-02 -2.102928e-02 -2.061764e-02 -2.010146e-02 -1.947355e-02 -1.873428e-02 -1.787802e-02 -1.690782e-02 -1.582052e-02 -1.462232e-02 -1.331342e-02 -1.190335e-02 -1.039631e-02 -8.804984e-03 -7.137797e-03 -5.409897e-03 -3.633613e-03 -1.825444e-03 -7.068431e-07 1.824203e-03 3.632322e-03 5.408896e-03 7.136868e-03 8.804455e-03 1.039598e-02 1.190351e-02 1.331388e-02 1.462336e-02 1.582196e-02 1.690990e-02 1.788059e-02 1.873754e-02 1.947735e-02 2.010598e-02 2.062276e-02 2.103513e-02 2.134460e-02 2.155926e-02 2.168222e-02 2.172154e-02 2.168140e-02 2.156934e-02 2.139020e-02 2.115069e-02 2.085598e-02 2.051180e-02 2.012341e-02 1.969552e-02 1.923330e-02 1.874047e-02 1.822198e-02 1.768066e-02 1.712117e-02 1.654554e-02 1.595806e-02 1.536007e-02 1.475548e-02 1.414505e-02 1.353227e-02 1.291742e-02 1.230356e-02 1.169058e-02 1.108112e-02 1.047473e-02 9.873666e-03 9.277216e-03 8.687222e-03 8.102787e-03 7.525373e-03 6.953941e-03 6.389590e-03 5.831190e-03 5.279505e-03 4.733354e-03 4.193191e-03 3.657825e-03 3.127430e-03 2.600840e-03 2.077980e-03 1.557743e-03 1.039835e-03 5.232415e-04 
7.735807e-06 -4.640180e-04 -9.365338e-04 -1.410629e-03 -1.887127e-03 -2.366664e-03 -2.850159e-03 -3.338037e-03 -3.831278e-03 -4.330071e-03 -4.835428e-03 -5.347268e-03 -5.866602e-03 -6.393051e-03 -6.927592e-03 -7.469519e-03 -8.019732e-03 -8.577172e-03 -9.142622e-03 -9.714642e-03 -1.029385e-02 -1.087840e-02 -1.146868e-02 -1.206242e-02 -1.265974e-02 -1.325791e-02 -1.385669e-02 -1.445289e-02 -1.504581e-02 -1.563181e-02 -1.620965e-02 -1.677519e-02 -1.732657e-02 -1.785916e-02 -1.837034e-02 -1.885506e-02 -1.930978e-02 -1.972908e-02 -2.010844e-02 -2.044213e-02 -2.072459e-02 -2.094995e-02 -2.111158e-02 -2.120371e-02 -2.121879e-02 -2.115147e-02 -2.099354e-02 -2.074054e-02 -2.038412e-02 -1.992128e-02 -1.934423e-02 -1.865212e-02 -1.783869e-02 -1.690595e-02 -1.585019e-02 -1.467691e-02 -1.338601e-02 -1.198682e-02 -1.048363e-02 -8.889476e-03 -7.213357e-03 -5.471325e-03 -3.676758e-03 -1.847443e-03 -1.051584e-07 1.847428e-03 3.676662e-03 5.471533e-03 7.213600e-03 8.890125e-03 1.048443e-02 1.198812e-02 1.338757e-02 1.467904e-02 1.585267e-02 1.690907e-02 1.784225e-02 1.865637e-02 1.934899e-02 1.992675e-02 2.039016e-02 2.074730e-02 2.100091e-02 2.115954e-02 2.122749e-02 2.121309e-02 2.112159e-02 2.096059e-02 2.073584e-02 2.045396e-02 2.012084e-02 1.974199e-02 1.932321e-02 1.886892e-02 1.838468e-02 1.787385e-02 1.734166e-02 1.679056e-02 1.622535e-02 1.564770e-02 1.506197e-02 1.446916e-02 1.387317e-02 1.327445e-02 1.267642e-02 1.207909e-02 1.148544e-02 1.089510e-02 1.031060e-02 9.731297e-03 9.159297e-03 8.593716e-03 8.036272e-03 7.485908e-03 6.943962e-03 6.409260e-03 5.882786e-03 5.363288e-03 4.851425e-03 4.345911e-03 3.847102e-03 3.353715e-03 2.865836e-03 2.382213e-03 1.902692e-03 1.426086e-03 9.520291e-04 4.794283e-04 
8.134827e-06 -4.175197e-04 -8.440077e-04 -1.272210e-03 -1.703041e-03 -2.137185e-03 -2.575671e-03 -3.018966e-03 -3.468184e-03 -3.923544e-03 -4.386220e-03 -4.856157e-03 -5.334554e-03 -5.821057e-03 -6.316858e-03 -6.821275e-03 -7.335456e-03 -7.858364e-03 -8.391060e-03 -8.932130e-03 -9.482495e-03 -1.004034e-02 -1.060639e-02 -1.117840e-02 -1.175683e-02 -1.233901e-02 -1.292503e-02 -1.351176e-02 -1.409886e-02 -1.468271e-02 -1.526241e-02 -1.583388e-02 -1.639549e-02 -1.694271e-02 -1.747305e-02 -1.798153e-02 -1.846463e-02 -1.891700e-02 -1.933390e-02 -1.970970e-02 -2.003832e-02 -2.031398e-02 -2.052923e-02 -2.067834e-02 -2.075257e-02 -2.074657e-02 -2.065058e-02 -2.046010e-02 -2.016487e-02 -1.976185e-02 -1.924108e-02 -1.860179e-02 -1.783538e-02 -1.694415e-02 -1.592220e-02 -1.477563e-02 -1.350253e-02 -1.211324e-02 -1.061094e-02 -9.010125e-03 -7.319541e-03 -5.557083e-03 -3.736772e-03 -1.878416e-03 -1.465732e-07 1.878327e-03 3.736613e-03 5.557256e-03 7.319777e-03 9.010812e-03 1.061182e-02 1.211468e-02 1.350428e-02 1.477802e-02 1.592502e-02 1.694768e-02 1.783942e-02 1.860658e-02 1.924646e-02 1.976801e-02 2.017166e-02 2.046769e-02 2.065883e-02 2.075559e-02 2.076227e-02 2.068877e-02 2.054033e-02 2.032576e-02 2.005074e-02 1.972273e-02 1.934753e-02 1.893117e-02 1.847934e-02 1.799669e-02 1.748868e-02 1.695871e-02 1.641188e-02 1.585055e-02 1.527940e-02 1.469989e-02 1.411629e-02 1.352930e-02 1.294276e-02 1.235677e-02 1.177472e-02 1.119625e-02 1.062431e-02 1.005818e-02 9.500365e-03 8.949872e-03 8.408800e-03 7.875946e-03 7.353012e-03 6.838654e-03 6.334198e-03 5.838211e-03 5.351665e-03 4.873083e-03 4.403107e-03 3.940254e-03 3.484866e-03 3.035486e-03 2.592180e-03 2.153553e-03 1.719419e-03 1.288472e-03 8.603049e-04 4.337266e-04 
8.374227e-06 -3.685955e-04 -7.464552e-04 -1.126169e-03 -1.508695e-03 -1.894814e-03 -2.285599e-03 -2.681621e-03 -3.084043e-03 -3.493202e-03 -3.910328e-03 -4.335497e-03 -4.769977e-03 -5.213558e-03 -5.667516e-03 -6.131330e-03 -6.606249e-03 -7.091410e-03 -7.588001e-03 -8.094789e-03 -8.612852e-03 -9.140561e-03 -9.678831e-03 -1.022561e-02 -1.078157e-02 -1.134422e-02 -1.191393e-02 -1.248771e-02 -1.306552e-02 -1.364387e-02 -1.422220e-02 -1.479647e-02 -1.536546e-02 -1.592457e-02 -1.647175e-02 -1.700184e-02 -1.751175e-02 -1.799580e-02 -1.844964e-02 -1.886713e-02 -1.924253e-02 -1.956928e-02 -1.984015e-02 -2.004841e-02 -2.018532e-02 -2.024428e-02 -2.021528e-02 -2.009237e-02 -1.986472e-02 -1.952775e-02 -1.907067e-02 -1.849113e-02 -1.777958e-02 -1.693692e-02 -1.595633e-02 -1.484293e-02 -1.359417e-02 -1.222008e-02 -1.072368e-02 -9.119960e-03 -7.418233e-03 -5.637629e-03 -3.793485e-03 -1.907399e-03 6.127380e-07 1.908854e-03 3.794831e-03 5.639319e-03 7.419938e-03 9.122116e-03 1.072598e-02 1.222291e-02 1.359727e-02 1.484665e-02 1.596041e-02 1.694169e-02 1.778481e-02 1.849709e-02 1.907718e-02 1.953502e-02 1.987259e-02 2.010100e-02 2.022455e-02 2.025430e-02 2.019600e-02 2.005981e-02 1.985221e-02 1.958201e-02 1.925589e-02 1.888109e-02 1.846420e-02 1.801087e-02 1.752737e-02 1.701790e-02 1.648828e-02 1.594145e-02 1.538274e-02 1.481400e-02 1.424006e-02 1.366189e-02 1.308380e-02 1.250606e-02 1.193247e-02 1.136277e-02 1.080024e-02 1.024421e-02 9.697504e-03 9.159121e-03 8.631434e-03 8.113217e-03 7.606416e-03 7.109642e-03 6.624445e-03 6.149325e-03 5.685463e-03 5.231296e-03 4.787663e-03 4.352977e-03 3.927761e-03 3.510440e-03 3.101247e-03 2.698647e-03 2.302612e-03 1.911672e-03 1.525563e-03 1.142909e-03 7.632340e-04 3.852759e-04 
8.758580e-06 -3.175161e-04 -6.447449e-04 -9.739456e-04 -1.306162e-03 -1.642212e-03 -1.983279e-03 -2.329961e-03 -2.683556e-03 -3.044421e-03 -3.413951e-03 -3.792236e-03 -4.180743e-03 -4.579271e-03 -4.989333e-03 -5.410412e-03 -5.844035e-03 -6.289343e-03 -6.747841e-03 -7.218303e-03 -7.702162e-03 -8.197800e-03 -8.706527e-03 -9.226301e-03 -9.758235e-03 -1.029985e-02 -1.085196e-02 -1.141161e-02 -1.197924e-02 -1.255138e-02 -1.312793e-02 -1.370491e-02 -1.428147e-02 -1.485314e-02 -1.541812e-02 -1.597140e-02 -1.650999e-02 -1.702835e-02 -1.752206e-02 -1.798507e-02 -1.841129e-02 -1.879425e-02 -1.912594e-02 -1.939970e-02 -1.960555e-02 -1.973689e-02 -1.978194e-02 -1.973470e-02 -1.958204e-02 -1.931927e-02 -1.893287e-02 -1.842043e-02 -1.776941e-02 -1.698086e-02 -1.604498e-02 -1.496744e-02 -1.374318e-02 -1.238332e-02 -1.088927e-02 -9.277790e-03 -7.557747e-03 -5.750683e-03 -3.872774e-03 -1.948363e-03 5.892004e-07 1.949781e-03 3.874097e-03 5.752383e-03 7.559498e-03 9.280044e-03 1.089172e-02 1.238638e-02 1.374656e-02 1.497153e-02 1.604951e-02 1.698616e-02 1.777525e-02 1.842709e-02 1.894015e-02 1.932739e-02 1.959083e-02 1.974432e-02 1.979228e-02 1.974804e-02 1.961741e-02 1.941233e-02 1.913928e-02 1.880829e-02 1.842600e-02 1.800041e-02 1.753801e-02 1.704484e-02 1.652704e-02 1.598889e-02 1.543610e-02 1.487145e-02 1.430018e-02 1.372385e-02 1.314719e-02 1.257079e-02 1.199888e-02 1.143131e-02 1.087182e-02 1.031968e-02 9.778167e-03 9.246141e-03 8.726406e-03 8.217534e-03 7.721889e-03 7.237842e-03 6.767341e-03 6.308627e-03 5.863256e-03 5.429401e-03 5.008249e-03 4.597950e-03 4.199348e-03 3.810609e-03 3.432259e-03 3.062512e-03 2.701598e-03 2.347806e-03 2.001100e-03 1.659864e-03 1.323816e-03 9.914624e-04 6.622968e-04 3.349640e-04 
8.977014e-06 -2.641802e-04 -5.383379e-04 -8.145892e-04 -1.094012e-03 -1.377514e-03 -1.666308e-03 -1.961097e-03 -2.263213e-03 -2.573133e-03 -2.892291e-03 -3.220918e-03 -3.560529e-03 -3.911086e-03 -4.274162e-03 -4.649425e-03 -5.038484e-03 -5.440683e-03 -5.857635e-03 -6.288331e-03 -6.734351e-03 -7.194301e-03 -7.669679e-03 -8.158673e-03 -8.662633e-03 -9.179296e-03 -9.709780e-03 -1.025133e-02 -1.080473e-02 -1.136670e-02 -1.193752e-02 -1.251335e-02 -1.309382e-02 -1.367447e-02 -1.425403e-02 -1.482739e-02 -1.539213e-02 -1.594244e-02 -1.647447e-02 -1.698168e-02 -1.745847e-02 -1.789764e-02 -1.829154e-02 -1.863243e-02 -1.891047e-02 -1.911767e-02 -1.924203e-02 -1.927582e-02 -1.920531e-02 -1.902382e-02 -1.871678e-02 -1.827973e-02 -1.769875e-02 -1.697297e-02 -1.609116e-02 -1.505756e-02 -1.386592e-02 -1.252682e-02 -1.104115e-02 -9.426251e-03 -7.691500e-03 -5.860132e-03 -3.949981e-03 -1.987921e-03 1.520053e-06 1.991230e-03 3.953146e-03 5.863683e-03 7.695037e-03 9.430282e-03 1.104530e-02 1.253155e-02 1.387090e-02 1.506321e-02 1.609717e-02 1.697972e-02 1.770597e-02 1.828773e-02 1.872534e-02 1.903317e-02 1.921529e-02 1.928661e-02 1.925349e-02 1.912991e-02 1.892341e-02 1.864611e-02 1.830590e-02 1.791269e-02 1.747419e-02 1.699800e-02 1.649141e-02 1.595990e-02 1.541014e-02 1.484582e-02 1.427294e-02 1.369370e-02 1.311345e-02 1.253320e-02 1.195768e-02 1.138697e-02 1.082524e-02 1.027187e-02 9.730467e-03 9.199930e-03 8.683352e-03 8.179271e-03 7.690304e-03 7.214751e-03 6.754781e-03 6.308544e-03 5.877795e-03 5.460598e-03 5.058325e-03 4.669006e-03 4.293658e-03 3.930319e-03 3.579679e-03 3.239813e-03 2.911112e-03 2.591716e-03 2.281741e-03 1.979412e-03 1.684594e-03 1.395616e-03 1.112116e-03 8.325440e-04 5.563298e-04 2.820598e-04 
9.341209e-06 -2.087716e-04 -4.279391e-04 -6.492965e-04 -8.739988e-04 -1.102978e-03 -1.337553e-03 -1.578438e-03 -1.827100e-03 -2.084018e-03 -2.350797e-03 -2.627662e-03 -2.916337e-03 -3.216773e-03 -3.530798e-03 -3.858062e-03 -4.200479e-03 -4.557370e-03 -4.930707e-03 -5.319457e-03 -5.725610e-03 -6.147753e-03 -6.587845e-03 -7.044062e-03 -7.518262e-03 -8.008181e-03 -8.515488e-03 -9.037443e-03 -9.575404e-03 -1.012612e-02 -1.069047e-02 -1.126467e-02 -1.184891e-02 -1.243880e-02 -1.303359e-02 -1.362827e-02 -1.422079e-02 -1.480548e-02 -1.537862e-02 -1.593385e-02 -1.646536e-02 -1.696612e-02 -1.742783e-02 -1.784287e-02 -1.820017e-02 -1.849177e-02 -1.870376e-02 -1.882832e-02 -1.884903e-02 -1.875904e-02 -1.854037e-02 -1.818834e-02 -1.768511e-02 -1.702976e-02 -1.620700e-02 -1.522148e-02 -1.406336e-02 -1.274438e-02 -1.126295e-02 -9.638588e-03 -7.879881e-03 -6.013234e-03 -4.057580e-03 -2.043583e-03 1.491148e-06 2.046845e-03 4.060716e-03 6.016798e-03 7.883476e-03 9.642743e-03 1.126729e-02 1.274939e-02 1.406870e-02 1.522759e-02 1.621357e-02 1.703716e-02 1.769307e-02 1.819718e-02 1.854986e-02 1.876942e-02 1.886012e-02 1.884029e-02 1.871647e-02 1.850533e-02 1.821447e-02 1.785796e-02 1.744366e-02 1.698266e-02 1.648260e-02 1.595172e-02 1.539713e-02 1.482451e-02 1.424038e-02 1.364828e-02 1.305408e-02 1.245959e-02 1.187008e-02 1.128604e-02 1.071214e-02 1.014787e-02 9.597358e-03 9.059392e-03 8.537560e-03 8.030162e-03 7.540295e-03 7.065934e-03 6.609710e-03 6.169402e-03 5.747205e-03 5.340795e-03 4.951958e-03 4.578338e-03 4.221341e-03 3.878629e-03 3.551251e-03 3.236930e-03 2.936385e-03 2.647426e-03 2.370466e-03 2.103424e-03 1.846433e-03 1.597538e-03 1.356611e-03 1.121837e-03 8.928507e-04 6.679884e-04 4.466643e-04 2.273786e-04 
9.534301e-06 -1.513548e-04 -3.133329e-04 -4.776006e-04 -6.453325e-04 -8.175435e-04 -9.955653e-04 -1.180215e-03 -1.372971e-03 -1.574440e-03 -1.786239e-03 -2.008744e-03 -2.243704e-03 -2.491242e-03 -2.753227e-03 -3.029510e-03 -3.322061e-03 -3.630431e-03 -3.956676e-03 -4.300016e-03 -4.662562e-03 -5.043171e-03 -5.443969e-03 -5.863415e-03 -6.303593e-03 -6.762523e-03 -7.242167e-03 -7.740060e-03 -8.257932e-03 -8.792781e-03 -9.345951e-03 -9.913842e-03 -1.049721e-02 -1.109178e-02 -1.169745e-02 -1.230920e-02 -1.292572e-02 -1.354114e-02 -1.415253e-02 -1.475310e-02 -1.533781e-02 -1.589889e-02 -1.642869e-02 -1.691849e-02 -1.735759e-02 -1.773649e-02 -1.804123e-02 -1.826196e-02 -1.838168e-02 -1.839107e-02 -1.827088e-02 -1.801371e-02 -1.759985e-02 -1.702574e-02 -1.627385e-02 -1.534675e-02 -1.423255e-02 -1.294203e-02 -1.147243e-02 -9.843866e-03 -8.065244e-03 -6.165308e-03 -4.165058e-03 -2.098808e-03 2.612359e-06 2.104347e-03 4.170408e-03 6.171088e-03 8.070970e-03 9.850128e-03 1.147877e-02 1.294901e-02 1.423975e-02 1.535466e-02 1.628211e-02 1.703477e-02 1.760936e-02 1.802403e-02 1.828177e-02 1.840279e-02 1.839406e-02 1.827517e-02 1.805513e-02 1.775120e-02 1.737302e-02 1.693468e-02 1.644560e-02 1.591649e-02 1.535609e-02 1.477198e-02 1.417204e-02 1.356116e-02 1.294630e-02 1.233017e-02 1.171890e-02 1.111351e-02 1.051932e-02 9.936119e-03 9.368516e-03 8.815405e-03 8.280754e-03 7.762843e-03 7.265063e-03 6.785296e-03 6.326405e-03 5.886033e-03 5.466565e-03 5.065517e-03 4.684840e-03 4.322004e-03 3.978562e-03 3.652002e-03 3.343511e-03 3.050634e-03 2.774224e-03 2.511916e-03 2.264256e-03 2.028988e-03 1.806378e-03 1.594293e-03 1.392745e-03 1.199736e-03 1.015040e-03 8.368034e-04 6.645842e-04 4.966806e-04 3.324477e-04 1.703432e-04 
9.872158e-06 -9.201275e-05 -1.950285e-04 -3.004035e-04 -4.093795e-04 -5.229805e-04 -6.426356e-04 -7.691554e-04 -9.041525e-04 -1.048212e-03 -1.203126e-03 -1.369239e-03 -1.548521e-03 -1.741055e-03 -1.948980e-03 -2.172102e-03 -2.412719e-03 -2.670331e-03 -2.947382e-03 -3.243039e-03 -3.559867e-03 -3.896669e-03 -4.256097e-03 -4.636556e-03 -5.040726e-03 -5.466581e-03 -5.916745e-03 -6.388719e-03 -6.884957e-03 -7.402441e-03 -7.943281e-03 -8.503892e-03 -9.085808e-03 -9.684813e-03 -1.030155e-02 -1.093110e-02 -1.157279e-02 -1.222093e-02 -1.287302e-02 -1.352249e-02 -1.416440e-02 -1.479121e-02 -1.539491e-02 -1.596694e-02 -1.649557e-02 -1.697137e-02 -1.737844e-02 -1.770687e-02 -1.793661e-02 -1.805807e-02 -1.804788e-02 -1.789821e-02 -1.758424e-02 -1.710203e-02 -1.642853e-02 -1.556635e-02 -1.449843e-02 -1.323659e-02 -1.177431e-02 -1.013426e-02 -8.323935e-03 -6.376264e-03 -4.313679e-03 -2.175822e-03 2.546923e-06 2.181243e-03 4.318936e-03 6.382003e-03 8.329679e-03 1.014063e-02 1.178085e-02 1.324387e-02 1.450603e-02 1.557479e-02 1.643743e-02 1.711183e-02 1.759462e-02 1.790952e-02 1.805987e-02 1.807100e-02 1.795027e-02 1.772145e-02 1.739379e-02 1.698759e-02 1.651256e-02 1.598475e-02 1.541347e-02 1.481050e-02 1.418440e-02 1.354310e-02 1.289428e-02 1.224269e-02 1.159511e-02 1.095379e-02 1.032470e-02 9.708226e-03 9.109579e-03 8.527798e-03 7.967444e-03 7.426624e-03 6.909301e-03 6.412981e-03 5.941079e-03 5.490745e-03 5.064888e-03 4.660475e-03 4.279952e-03 3.920226e-03 3.583314e-03 3.266149e-03 2.970351e-03 2.692942e-03 2.435172e-03 2.194189e-03 1.970906e-03 1.762622e-03 1.569937e-03 1.390315e-03 1.224072e-03 1.068846e-03 9.246867e-04 7.894151e-04 6.628334e-04 5.429471e-04 4.293282e-04 3.201690e-04 2.148244e-04 1.116759e-04 
1.003510e-05 -3.099362e-05 -7.317301e-05 -1.177852e-04 -1.660743e-04 -2.191388e-04 -2.784010e-04 -3.447701e-04 -4.198472e-04 -5.043431e-04 -6.000392e-04 -7.074353e-04 -8.284940e-04 -9.634881e-04 -1.114561e-03 -1.281739e-03 -1.467343e-03 -1.671126e-03 -1.895584e-03 -2.140167e-03 -2.407527e-03 -2.696782e-03 -3.010714e-03 -3.348068e-03 -3.711717e-03 -4.099986e-03 -4.515771e-03 -4.956929e-03 -5.426278e-03 -5.921141e-03 -6.444108e-03 -6.991896e-03 -7.566650e-03 -8.164384e-03 -8.786498e-03 -9.428188e-03 -1.008969e-02 -1.076525e-02 -1.145340e-02 -1.214725e-02 -1.284297e-02 -1.353236e-02 -1.420844e-02 -1.486158e-02 -1.548084e-02 -1.605515e-02 -1.656892e-02 -1.700993e-02 -1.735771e-02 -1.759969e-02 -1.771107e-02 -1.768048e-02 -1.748065e-02 -1.710395e-02 -1.652403e-02 -1.574036e-02 -1.473249e-02 -1.351056e-02 -1.206560e-02 -1.042091e-02 -8.583694e-03 -6.590144e-03 -4.465230e-03 -2.253952e-03 3.884999e-06 2.262089e-03 4.473120e-03 6.598511e-03 8.591949e-03 1.042974e-02 1.207447e-02 1.352009e-02 1.474222e-02 1.575083e-02 1.653482e-02 1.711555e-02 1.749272e-02 1.769340e-02 1.772455e-02 1.761404e-02 1.737272e-02 1.702579e-02 1.658550e-02 1.607255e-02 1.549899e-02 1.488049e-02 1.422809e-02 1.355269e-02 1.286401e-02 1.216888e-02 1.147567e-02 1.078800e-02 1.011300e-02 9.451848e-03 8.810620e-03 8.188732e-03 7.591355e-03 7.016704e-03 6.469169e-03 5.946188e-03 5.451478e-03 4.982011e-03 4.540914e-03 4.124921e-03 3.736635e-03 3.372706e-03 3.035273e-03 2.721005e-03 2.431623e-03 2.163890e-03 1.919148e-03 1.694297e-03 1.490338e-03 1.304336e-03 1.136983e-03 9.855212e-04 8.503625e-04 7.289373e-04 6.213997e-04 5.253692e-04 4.407648e-04 3.653939e-04 2.989573e-04 2.394483e-04 1.863635e-04 1.378793e-04 9.329841e-05 5.097819e-05 
1.033984e-05 3.173629e-05 5.195468e-05 6.970108e-05 8.367718e-05 9.279254e-05 9.553815e-05 9.102992e-05 7.754214e-05 5.440365e-05 1.966480e-05 -2.712196e-05 -8.813796e-05 -1.635921e-04 -2.559045e-04 -3.650261e-04 -4.936207e-04 -6.413575e-04 -8.111448e-04 -1.002342e-03 -1.218095e-03 -1.457421e-03 -1.723687e-03 -2.015531e-03 -2.336502e-03 -2.684820e-03 -3.064154e-03 -3.472261e-03 -3.912826e-03 -4.383088e-03 -4.886590e-03 -5.419995e-03 -5.986465e-03 -6.582010e-03 -7.209069e-03 -7.862899e-03 -8.544742e-03 -9.248976e-03 -9.975003e-03 -1.071616e-02 -1.146919e-02 -1.222620e-02 -1.298027e-02 -1.372211e-02 -1.444005e-02 -1.512329e-02 -1.575444e-02 -1.632131e-02 -1.680021e-02 -1.717828e-02 -1.742581e-02 -1.753079e-02 -1.745942e-02 -1.720321e-02 -1.672821e-02 -1.603334e-02 -1.509057e-02 -1.391069e-02 -1.247883e-02 -1.082113e-02 -8.942237e-03 -6.883892e-03 -4.672869e-03 -2.361800e-03 3.740838e-06 2.369665e-03 4.680523e-03 6.892090e-03 8.950405e-03 1.082998e-02 1.248784e-02 1.392051e-02 1.510071e-02 1.604439e-02 1.673973e-02 1.721569e-02 1.747250e-02 1.754486e-02 1.744057e-02 1.719402e-02 1.681672e-02 1.633877e-02 1.577268e-02 1.514243e-02 1.445999e-02 1.374286e-02 1.300179e-02 1.224843e-02 1.149214e-02 1.073971e-02 9.999189e-03 9.273628e-03 8.569937e-03 7.888423e-03 7.235028e-03 6.608160e-03 6.012938e-03 5.446525e-03 4.913330e-03 4.409762e-03 3.939606e-03 3.498868e-03 3.090773e-03 2.711173e-03 2.362788e-03 2.041479e-03 1.749506e-03 1.482849e-03 1.243347e-03 1.027168e-03 8.357668e-04 6.655369e-04 5.175840e-04 3.885465e-04 2.792117e-04 1.864708e-04 1.108199e-04 4.940255e-05 2.447260e-06 -3.265522e-05 -5.592392e-05 -6.972909e-05 -7.432106e-05 -7.184007e-05 -6.275565e-05 -4.898684e-05 -3.121409e-05 -1.114295e-05 
1.046749e-05 9.572888e-05 1.798085e-04 2.613722e-04 3.391387e-04 4.119528e-04 4.783353e-04 5.373090e-04 5.871864e-04 6.271714e-04 6.553566e-04 6.711345e-04 6.723650e-04 6.586412e-04 6.275778e-04 5.789856e-04 5.102224e-04 4.213397e-04 3.094289e-04 1.748105e-04 1.430615e-05 -1.714607e-04 -3.859330e-04 -6.281439e-04 -9.017807e-04 -1.205486e-03 -1.543147e-03 -1.912961e-03 -2.318938e-03 -2.758759e-03 -3.236429e-03 -3.749028e-03 -4.300353e-03 -4.886773e-03 -5.511566e-03 -6.170253e-03 -6.865139e-03 -7.590707e-03 -8.347653e-03 -9.129181e-03 -9.933517e-03 -1.075228e-02 -1.158014e-02 -1.240679e-02 -1.322204e-02 -1.401340e-02 -1.476448e-02 -1.546057e-02 -1.607804e-02 -1.660050e-02 -1.699693e-02 -1.725080e-02 -1.732524e-02 -1.720668e-02 -1.685645e-02 -1.626872e-02 -1.540993e-02 -1.428788e-02 -1.288311e-02 -1.122204e-02 -9.307784e-03 -7.186577e-03 -4.888170e-03 -2.473244e-03 5.334016e-06 2.484341e-03 4.898946e-03 7.197876e-03 9.318892e-03 1.123376e-02 1.289479e-02 1.430027e-02 1.542245e-02 1.628202e-02 1.687005e-02 1.722112e-02 1.734012e-02 1.726655e-02 1.701325e-02 1.661770e-02 1.609591e-02 1.547930e-02 1.478394e-02 1.403369e-02 1.324310e-02 1.242861e-02 1.160272e-02 1.077554e-02 9.957488e-03 9.153717e-03 8.372833e-03 7.616323e-03 6.891304e-03 6.196717e-03 5.538470e-03 4.913835e-03 4.327737e-03 3.776436e-03 3.264042e-03 2.786269e-03 2.346545e-03 1.940354e-03 1.570540e-03 1.232572e-03 9.287838e-04 6.547680e-04 4.124091e-04 1.975051e-04 1.154347e-05 -1.494257e-04 -2.842674e-04 -3.966574e-04 -4.857750e-04 -5.550149e-04 -6.038374e-04 -6.353599e-04 -6.492956e-04 -6.484934e-04 -6.328966e-04 -6.050983e-04 -5.652531e-04 -5.157126e-04 -4.568292e-04 -3.907269e-04 -3.179468e-04 -2.403993e-04 -1.588088e-04 -7.488431e-05 
1.073185e-05 1.611503e-04 3.103759e-04 4.570800e-04 5.999424e-04 7.378341e-04 8.692034e-04 9.931175e-04 1.107777e-03 1.212446e-03 1.305059e-03 1.385085e-03 1.450171e-03 1.500000e-03 1.531912e-03 1.545824e-03 1.538746e-03 1.510851e-03 1.458799e-03 1.383048e-03 1.279897e-03 1.150123e-03 9.896522e-04 7.996219e-04 5.755991e-04 3.191229e-04 2.543271e-05 -3.034785e-04 -6.726288e-04 -1.079514e-03 -1.529282e-03 -2.018852e-03 -2.553285e-03 -3.128841e-03 -3.750164e-03 -4.412743e-03 -5.120297e-03 -5.867396e-03 -6.656103e-03 -7.479857e-03 -8.338049e-03 -9.222696e-03 -1.012918e-02 -1.104772e-02 -1.196806e-02 -1.287824e-02 -1.376054e-02 -1.460059e-02 -1.537162e-02 -1.605709e-02 -1.662050e-02 -1.704450e-02 -1.728409e-02 -1.732419e-02 -1.711578e-02 -1.665144e-02 -1.588644e-02 -1.482826e-02 -1.344796e-02 -1.177478e-02 -9.807117e-03 -7.598448e-03 -5.180692e-03 -2.625676e-03 5.052807e-06 2.636231e-03 5.190977e-03 7.609347e-03 9.817941e-03 1.178637e-02 1.345968e-02 1.484087e-02 1.589937e-02 1.666536e-02 1.713018e-02 1.733963e-02 1.730014e-02 1.706160e-02 1.663831e-02 1.607592e-02 1.539122e-02 1.462117e-02 1.378193e-02 1.290053e-02 1.199116e-02 1.107163e-02 1.015386e-02 9.248067e-03 8.364139e-03 7.506503e-03 6.683379e-03 5.895082e-03 5.148504e-03 4.441208e-03 3.779028e-03 3.157812e-03 2.582529e-03 2.048058e-03 1.558640e-03 1.108704e-03 7.018561e-04 3.324245e-04 3.452240e-06 -2.906123e-04 -5.472312e-04 -7.716998e-04 -9.619358e-04 -1.122902e-03 -1.252926e-03 -1.356601e-03 -1.432625e-03 -1.485211e-03 -1.513387e-03 -1.520991e-03 -1.507349e-03 -1.475939e-03 -1.426357e-03 -1.361736e-03 -1.281921e-03 -1.189725e-03 -1.085219e-03 -9.709212e-04 -8.471146e-04 -7.160442e-04 -5.781978e-04 -4.355670e-04 -2.888415e-04 -1.397776e-04 
1.081888e-05 2.273395e-04 4.426808e-04 6.554892e-04 8.644818e-04 1.068477e-03 1.265976e-03 1.455961e-03 1.636700e-03 1.807336e-03 1.965879e-03 2.111634e-03 2.242331e-03 2.357447e-03 2.454402e-03 2.532861e-03 2.589907e-03 2.625411e-03 2.636097e-03 2.622067e-03 2.579659e-03 2.509244e-03 2.406753e-03 2.272871e-03 2.103110e-03 1.898517e-03 1.654199e-03 1.371623e-03 1.045527e-03 6.778724e-04 2.631170e-04 -1.961979e-04 -7.057320e-04 -1.262251e-03 -1.871255e-03 -2.528666e-03 -3.239380e-03 -3.998265e-03 -4.808932e-03 -5.664900e-03 -6.567492e-03 -7.508465e-03 -8.485454e-03 -9.487913e-03 -1.050794e-02 -1.153207e-02 -1.254464e-02 -1.352871e-02 -1.445863e-02 -1.531389e-02 -1.605728e-02 -1.666586e-02 -1.709127e-02 -1.731149e-02 -1.727103e-02 -1.695526e-02 -1.631074e-02 -1.533960e-02 -1.400446e-02 -1.233393e-02 -1.032207e-02 -8.028546e-03 -5.488374e-03 -2.785763e-03 6.957493e-06 2.800180e-03 5.502368e-03 8.043109e-03 1.033633e-02 1.234884e-02 1.401923e-02 1.535510e-02 1.632630e-02 1.697164e-02 1.728765e-02 1.732898e-02 1.710918e-02 1.668466e-02 1.607665e-02 1.533415e-02 1.447957e-02 1.355052e-02 1.256720e-02 1.155544e-02 1.053210e-02 9.512818e-03 8.511133e-03 7.534792e-03 6.594544e-03 5.692475e-03 4.837149e-03 4.026862e-03 3.268509e-03 2.558022e-03 1.901019e-03 1.292088e-03 7.358446e-04 2.262355e-04 -2.329322e-04 -6.478963e-04 -1.015522e-03 -1.341942e-03 -1.624594e-03 -1.869331e-03 -2.074084e-03 -2.244335e-03 -2.378444e-03 -2.481473e-03 -2.552158e-03 -2.595131e-03 -2.609456e-03 -2.599342e-03 -2.564138e-03 -2.507652e-03 -2.429483e-03 -2.333061e-03 -2.218208e-03 -2.088003e-03 -1.942472e-03 -1.784370e-03 -1.613908e-03 -1.433550e-03 -1.243679e-03 -1.046494e-03 -8.425481e-04 -6.337982e-04 -4.209686e-04 -2.057963e-04 
1.103528e-05 2.946105e-04 5.770130e-04 8.569125e-04 1.133005e-03 1.404152e-03 1.668802e-03 1.925999e-03 2.173917e-03 2.411778e-03 2.637451e-03 2.850339e-03 3.047975e-03 3.229950e-03 3.393423e-03 3.538191e-03 3.661000e-03 3.761876e-03 3.837112e-03 3.886995e-03 3.907324e-03 3.898684e-03 3.856347e-03 3.781239e-03 3.668078e-03 3.518183e-03 3.325706e-03 3.092417e-03 2.811925e-03 2.486509e-03 2.109310e-03 1.683185e-03 1.200960e-03 6.661530e-04 7.155624e-05 -5.785496e-04 -1.290931e-03 -2.060398e-03 -2.892524e-03 -3.780983e-03 -4.729023e-03 -5.728827e-03 -6.779672e-03 -7.871731e-03 -8.998064e-03 -1.014612e-02 -1.129991e-02 -1.244337e-02 -1.354837e-02 -1.459477e-02 -1.553973e-02 -1.635962e-02 -1.699637e-02 -1.742583e-02 -1.757864e-02 -1.743699e-02 -1.693089e-02 -1.606014e-02 -1.477191e-02 -1.309668e-02 -1.101959e-02 -8.609572e-03 -5.903844e-03 -3.003254e-03 6.456994e-06 3.016696e-03 5.916938e-03 8.623362e-03 1.103324e-02 1.311119e-02 1.478652e-02 1.607575e-02 1.694683e-02 1.745403e-02 1.759619e-02 1.744450e-02 1.701568e-02 1.638004e-02 1.556088e-02 1.461697e-02 1.357136e-02 1.246734e-02 1.132470e-02 1.017179e-02 9.024551e-03 7.898993e-03 6.807715e-03 5.757514e-03 4.758420e-03 3.810876e-03 2.923026e-03 2.091233e-03 1.322253e-03 6.100367e-04 -3.971871e-05 -6.343144e-04 -1.168910e-03 -1.651288e-03 -2.077334e-03 -2.454824e-03 -2.780282e-03 -3.061180e-03 -3.294616e-03 -3.487591e-03 -3.637716e-03 -3.751443e-03 -3.826842e-03 -3.869789e-03 -3.878760e-03 -3.859061e-03 -3.809528e-03 -3.734923e-03 -3.634397e-03 -3.512201e-03 -3.367765e-03 -3.204871e-03 -3.023195e-03 -2.826091e-03 -2.613456e-03 -2.388256e-03 -2.150593e-03 -1.903082e-03 -1.646017e-03 -1.381700e-03 -1.110614e-03 -8.347770e-04 -5.548619e-04 -2.726349e-04 
1.107629e-05 3.620802e-04 7.119429e-04 1.059325e-03 1.402981e-03 1.741732e-03 2.074107e-03 2.399071e-03 2.714896e-03 3.020688e-03 3.314428e-03 3.595357e-03 3.861131e-03 4.111130e-03 4.342646e-03 4.555209e-03 4.745702e-03 4.913828e-03 5.056014e-03 5.172162e-03 5.258198e-03 5.314259e-03 5.335719e-03 5.322999e-03 5.270876e-03 5.180107e-03 5.044841e-03 4.866232e-03 4.637787e-03 4.361132e-03 4.029154e-03 3.644040e-03 3.198144e-03 2.694321e-03 2.124589e-03 1.492613e-03 7.904409e-04 2.274958e-05 -8.177475e-04 -1.725059e-03 -2.704773e-03 -3.749116e-03 -4.860373e-03 -6.028282e-03 -7.249473e-03 -8.510194e-03 -9.798204e-03 -1.109502e-02 -1.237559e-02 -1.361560e-02 -1.477320e-02 -1.581818e-02 -1.668966e-02 -1.735430e-02 -1.773456e-02 -1.780182e-02 -1.747271e-02 -1.673759e-02 -1.552844e-02 -1.387273e-02 -1.174540e-02 -9.223663e-03 -6.346814e-03 -3.235313e-03 8.759606e-06 3.253419e-03 6.364355e-03 9.241806e-03 1.176308e-02 1.389107e-02 1.554652e-02 1.675643e-02 1.749153e-02 1.782148e-02 1.775444e-02 1.737507e-02 1.671084e-02 1.584027e-02 1.479584e-02 1.363913e-02 1.239981e-02 1.112009e-02 9.824037e-03 8.536826e-03 7.276903e-03 6.056428e-03 4.889306e-03 3.778652e-03 2.735040e-03 1.755789e-03 8.491110e-04 8.917119e-06 -7.582669e-04 -1.460305e-03 -2.091917e-03 -2.661684e-03 -3.165290e-03 -3.611379e-03 -3.996418e-03 -4.328730e-03 -4.605438e-03 -4.834336e-03 -5.013106e-03 -5.148918e-03 -5.239936e-03 -5.292672e-03 -5.305705e-03 -5.284899e-03 -5.229192e-03 -5.143829e-03 -5.028053e-03 -4.886537e-03 -4.718782e-03 -4.528937e-03 -4.316725e-03 -4.085820e-03 -3.836136e-03 -3.570921e-03 -3.290259e-03 -2.997015e-03 -2.691431e-03 -2.376031e-03 -2.051206e-03 -1.719180e-03 -1.380493e-03 -1.037103e-03 -6.897061e-04 -3.400256e-04 
1.123707e-05 4.302250e-04 8.480964e-04 1.263553e-03 1.675348e-03 2.082364e-03 2.483094e-03 2.876586e-03 3.261037e-03 3.635652e-03 3.998293e-03 4.348317e-03 4.683207e-03 5.002481e-03 5.303188e-03 5.585022e-03 5.844544e-03 6.081651e-03 6.292351e-03 6.476777e-03 6.630322e-03 6.753396e-03 6.840707e-03 6.892999e-03 6.904225e-03 6.875518e-03 6.800021e-03 6.679322e-03 6.505706e-03 6.281288e-03 5.997489e-03 5.657024e-03 5.250506e-03 4.781326e-03 4.239463e-03 3.629067e-03 2.939845e-03 2.176821e-03 1.330084e-03 4.057150e-04 -6.046910e-04 -1.693675e-03 -2.866337e-03 -4.113256e-03 -5.433489e-03 -6.814679e-03 -8.245926e-03 -9.710488e-03 -1.118242e-02 -1.263888e-02 -1.403327e-02 -1.533550e-02 -1.647410e-02 -1.741328e-02 -1.805770e-02 -1.837333e-02 -1.825260e-02 -1.767966e-02 -1.656099e-02 -1.492280e-02 -1.272292e-02 -1.004952e-02 -6.943071e-03 -3.549443e-03 7.923140e-06 3.565910e-03 6.959084e-03 1.006631e-02 1.273950e-02 1.494035e-02 1.657863e-02 1.769846e-02 1.827177e-02 1.839375e-02 1.807868e-02 1.743551e-02 1.649701e-02 1.535958e-02 1.405810e-02 1.266479e-02 1.120912e-02 9.738141e-03 8.274393e-03 6.843989e-03 5.463608e-03 4.144091e-03 2.897940e-03 1.725849e-03 6.375541e-04 -3.724451e-04 -1.296239e-03 -2.142746e-03 -2.905334e-03 -3.594509e-03 -4.204618e-03 -4.746611e-03 -5.215658e-03 -5.622467e-03 -5.962943e-03 -6.247175e-03 -6.471731e-03 -6.645896e-03 -6.766839e-03 -6.842974e-03 -6.872007e-03 -6.861480e-03 -6.809574e-03 -6.722995e-03 -6.600340e-03 -6.447539e-03 -6.263545e-03 -6.053577e-03 -5.816893e-03 -5.558074e-03 -5.276635e-03 -4.976585e-03 -4.657665e-03 -4.323373e-03 -3.973647e-03 -3.611534e-03 -3.237152e-03 -2.853151e-03 -2.459817e-03 -2.059454e-03 -1.652515e-03 -1.240998e-03 -8.255320e-04 -4.078491e-04 