# vtk DataFile Version 2.0
Comment goes here
ASCII

DATASET STRUCTURED_POINTS
DIMENSIONS    128   128   1

ORIGIN    0.000   0.000   0.000
SPACING   0.00781250.0078125   1.000

POINT_DATA   16384
SCALARS uY double
LOOKUP_TABLE default

2.490884e-02 2.491087e-02 2.491547e-02 2.492278e-02 2.493121e-02 2.494019e-02 2.494739e-02 2.495156e-02 2.494964e-02 2.493975e-02 2.491814e-02 2.488228e-02 2.482778e-02 2.475158e-02 2.464867e-02 2.451551e-02 2.434657e-02 2.413792e-02 2.388361e-02 2.357945e-02 2.321915e-02 2.279844e-02 2.231086e-02 2.175217e-02 2.111598e-02 2.039824e-02 1.959283e-02 1.869614e-02 1.770258e-02 1.660919e-02 1.541120e-02 1.410656e-02 1.269163e-02 1.116553e-02 9.526110e-03 7.773948e-03 5.908731e-03 3.932769e-03 1.847980e-03 -3.413227e-04 -2.630617e-03 -5.013324e-03 -7.481976e-03 -1.002750e-02 -1.263921e-02 -1.530537e-02 -1.801190e-02 -2.074437e-02 -2.348532e-02 -2.621776e-02 -2.892111e-02 -3.157620e-02 -3.415993e-02 -3.665171e-02 -3.902689e-02 -4.126454e-02 -4.333989e-02 -4.523311e-02 -4.692106e-02 -4.838672e-02 -4.961043e-02 -5.057975e-02 -5.128025e-02 -5.170558e-02 -5.184786e-02 -5.170776e-02 -5.128458e-02 -5.058622e-02 -4.961898e-02 -4.839732e-02 -4.693363e-02 -4.524761e-02 -4.335620e-02 -4.128259e-02 -3.904656e-02 -3.667291e-02 -3.418253e-02 -3.160009e-02 -2.894615e-02 -2.624383e-02 -2.351228e-02 -2.077209e-02 -1.804024e-02 -1.533420e-02 -1.266841e-02 -1.005693e-02 -7.511520e-03 -5.042846e-03 -2.660027e-03 -3.704868e-04 1.819130e-03 3.904360e-03 5.880811e-03 7.746632e-03 9.499424e-03 1.113958e-02 1.266641e-02 1.408218e-02 1.538764e-02 1.658653e-02 1.768078e-02 1.867528e-02 1.957286e-02 2.037922e-02 2.109787e-02 2.173501e-02 2.229459e-02 2.278309e-02 2.320468e-02 2.356587e-02 2.387088e-02 2.412606e-02 2.433551e-02 2.450527e-02 2.463920e-02 2.474290e-02 2.481983e-02 2.487508e-02 2.491163e-02 2.493396e-02 2.494452e-02 2.494711e-02 2.494359e-02 2.493705e-02 2.492870e-02 2.492091e-02 2.491422e-02 2.491025e-02 
2.544974e-02 2.545225e-02 2.545872e-02 2.546885e-02 2.548144e-02 2.549548e-02 2.550900e-02 2.552028e-02 2.552662e-02 2.552563e-02 2.551389e-02 2.548836e-02 2.544496e-02 2.538006e-02 2.528897e-02 2.516755e-02 2.501055e-02 2.481342e-02 2.457047e-02 2.427685e-02 2.392653e-02 2.351451e-02 2.303459e-02 2.248177e-02 2.184988e-02 2.113411e-02 2.032851e-02 1.942869e-02 1.842921e-02 1.732629e-02 1.611531e-02 1.479337e-02 1.335697e-02 1.180439e-02 1.013358e-02 8.344308e-03 6.436349e-03 4.411252e-03 2.271027e-03 1.931552e-05 -2.339251e-03 -4.798619e-03 -7.351163e-03 -9.988114e-03 -1.269854e-02 -1.547070e-02 -1.829016e-02 -2.114204e-02 -2.400835e-02 -2.687114e-02 -2.970909e-02 -3.250146e-02 -3.522422e-02 -3.785452e-02 -4.036668e-02 -4.273688e-02 -4.493930e-02 -4.695080e-02 -4.874734e-02 -5.030843e-02 -5.161395e-02 -5.264814e-02 -5.339682e-02 -5.385081e-02 -5.400336e-02 -5.385311e-02 -5.340140e-02 -5.265498e-02 -5.162300e-02 -5.031965e-02 -4.876065e-02 -4.696613e-02 -4.495654e-02 -4.275595e-02 -4.038745e-02 -3.787689e-02 -3.524804e-02 -3.252662e-02 -2.973544e-02 -2.689855e-02 -2.403667e-02 -2.117112e-02 -1.831987e-02 -1.550089e-02 -1.272907e-02 -1.001884e-02 -7.381977e-03 -4.829369e-03 -2.369844e-03 -1.097827e-05 2.241103e-03 4.381830e-03 6.407476e-03 8.316104e-03 1.010607e-02 1.177768e-02 1.333106e-02 1.476837e-02 1.609118e-02 1.730313e-02 1.840697e-02 1.940745e-02 2.030822e-02 2.111481e-02 2.183154e-02 2.246442e-02 2.301816e-02 2.349905e-02 2.391197e-02 2.426322e-02 2.455770e-02 2.480154e-02 2.499949e-02 2.515733e-02 2.527954e-02 2.537142e-02 2.543706e-02 2.548121e-02 2.550744e-02 2.551989e-02 2.552156e-02 2.551589e-02 2.550525e-02 2.549238e-02 2.547897e-02 2.546701e-02 2.545749e-02 2.545164e-02 
2.592816e-02 2.593130e-02 2.593957e-02 2.595276e-02 2.596954e-02 2.598897e-02 2.600895e-02 2.602780e-02 2.604267e-02 2.605117e-02 2.604972e-02 2.603531e-02 2.600360e-02 2.595101e-02 2.587255e-02 2.576413e-02 2.562015e-02 2.543611e-02 2.520591e-02 2.492476e-02 2.458616e-02 2.418519e-02 2.371508e-02 2.317096e-02 2.254599e-02 2.183550e-02 2.103284e-02 2.013374e-02 1.913198e-02 1.802397e-02 1.680418e-02 1.546994e-02 1.401678e-02 1.244323e-02 1.074622e-02 8.925761e-03 6.980622e-03 4.912599e-03 2.722706e-03 4.148505e-04 -2.007251e-03 -4.537254e-03 -7.168293e-03 -9.891261e-03 -1.269572e-02 -1.556953e-02 -1.849834e-02 -2.146675e-02 -2.445635e-02 -2.744847e-02 -3.042074e-02 -3.335146e-02 -3.621480e-02 -3.898675e-02 -4.163907e-02 -4.414660e-02 -4.648037e-02 -4.861586e-02 -5.052550e-02 -5.218768e-02 -5.357874e-02 -5.468237e-02 -5.548125e-02 -5.596651e-02 -5.612905e-02 -5.596884e-02 -5.548590e-02 -5.468932e-02 -5.358793e-02 -5.219908e-02 -5.053901e-02 -4.863144e-02 -4.649789e-02 -4.416599e-02 -4.166018e-02 -3.900950e-02 -3.623903e-02 -3.337706e-02 -3.044755e-02 -2.747637e-02 -2.448517e-02 -2.149635e-02 -1.852857e-02 -1.560024e-02 -1.272678e-02 -9.922512e-03 -7.199613e-03 -4.568498e-03 -2.038315e-03 3.841092e-04 2.692364e-03 4.882790e-03 6.951397e-03 8.897242e-03 1.071843e-02 1.241628e-02 1.399068e-02 1.544478e-02 1.677993e-02 1.800072e-02 1.910970e-02 2.011249e-02 2.101256e-02 2.181626e-02 2.252772e-02 2.315370e-02 2.369878e-02 2.416987e-02 2.457176e-02 2.491131e-02 2.519333e-02 2.542442e-02 2.560928e-02 2.575411e-02 2.586330e-02 2.594255e-02 2.599587e-02 2.602833e-02 2.604344e-02 2.604559e-02 2.603774e-02 2.602354e-02 2.600532e-02 2.598597e-02 2.596715e-02 2.595097e-02 2.593838e-02 2.593071e-02 
2.637220e-02 2.637588e-02 2.638620e-02 2.640253e-02 2.642393e-02 2.644901e-02 2.647605e-02 2.650291e-02 2.652709e-02 2.654574e-02 2.655560e-02 2.655314e-02 2.653440e-02 2.649521e-02 2.643093e-02 2.633688e-02 2.620777e-02 2.603848e-02 2.582321e-02 2.555652e-02 2.523217e-02 2.484456e-02 2.438718e-02 2.385440e-02 2.323965e-02 2.253746e-02 2.174139e-02 2.084635e-02 1.984632e-02 1.873682e-02 1.751250e-02 1.616978e-02 1.470431e-02 1.311369e-02 1.139495e-02 9.547150e-03 7.569127e-03 5.461722e-03 3.226009e-03 8.649795e-04 -1.617595e-03 -4.216185e-03 -6.923843e-03 -9.732093e-03 -1.263035e-02 -1.560679e-02 -1.864679e-02 -2.173482e-02 -2.485199e-02 -2.797889e-02 -3.109237e-02 -3.416924e-02 -3.718259e-02 -4.010600e-02 -4.290989e-02 -4.556584e-02 -4.804337e-02 -5.031398e-02 -5.234876e-02 -5.412173e-02 -5.560840e-02 -5.678822e-02 -5.764392e-02 -5.816306e-02 -5.833778e-02 -5.816555e-02 -5.764886e-02 -5.679561e-02 -5.561816e-02 -5.413384e-02 -5.236310e-02 -5.033050e-02 -4.806193e-02 -4.558637e-02 -4.293223e-02 -4.013004e-02 -3.720818e-02 -3.419624e-02 -3.112063e-02 -2.800825e-02 -2.488229e-02 -2.176591e-02 -1.867850e-02 -1.563897e-02 -1.266285e-02 -9.764747e-03 -6.956525e-03 -4.248737e-03 -1.649913e-03 8.330470e-04 3.194541e-03 5.430858e-03 7.538919e-03 9.517723e-03 1.136633e-02 1.308598e-02 1.467752e-02 1.614400e-02 1.748771e-02 1.871310e-02 1.982363e-02 2.082476e-02 2.172082e-02 2.251798e-02 2.322120e-02 2.383701e-02 2.437079e-02 2.482918e-02 2.521775e-02 2.554306e-02 2.581065e-02 2.602684e-02 2.619697e-02 2.632693e-02 2.642178e-02 2.648685e-02 2.652677e-02 2.654626e-02 2.654941e-02 2.654024e-02 2.652225e-02 2.649872e-02 2.647249e-02 2.644607e-02 2.642159e-02 2.640078e-02 2.638504e-02 2.637530e-02 
2.674742e-02 2.675177e-02 2.676407e-02 2.678372e-02 2.680972e-02 2.684070e-02 2.687486e-02 2.691007e-02 2.694372e-02 2.697297e-02 2.699441e-02 2.700456e-02 2.699920e-02 2.697426e-02 2.692480e-02 2.684620e-02 2.673286e-02 2.657974e-02 2.638062e-02 2.613018e-02 2.582170e-02 2.544968e-02 2.500709e-02 2.448843e-02 2.388648e-02 2.319594e-02 2.240963e-02 2.152268e-02 2.052819e-02 1.942193e-02 1.819759e-02 1.685185e-02 1.537930e-02 1.377780e-02 1.204325e-02 1.017497e-02 8.170582e-03 6.031210e-03 3.756651e-03 1.350181e-03 -1.185684e-03 -3.845142e-03 -6.622391e-03 -9.508679e-03 -1.249433e-02 -1.556719e-02 -1.871317e-02 -2.191629e-02 -2.515759e-02 -2.841701e-02 -3.167054e-02 -3.489403e-02 -3.805874e-02 -4.113693e-02 -4.409615e-02 -4.690630e-02 -4.953307e-02 -5.194616e-02 -5.411215e-02 -5.600345e-02 -5.759095e-02 -5.885313e-02 -5.976862e-02 -6.032513e-02 -6.051179e-02 -6.032764e-02 -5.977362e-02 -5.886060e-02 -5.760083e-02 -5.601571e-02 -5.412667e-02 -5.196289e-02 -4.955187e-02 -4.692710e-02 -4.411879e-02 -4.116132e-02 -3.808469e-02 -3.492144e-02 -3.169922e-02 -2.844683e-02 -2.518837e-02 -2.194788e-02 -1.874539e-02 -1.559990e-02 -1.252734e-02 -9.541852e-03 -6.655579e-03 -3.878187e-03 -1.218470e-03 1.317806e-03 3.724772e-03 5.999969e-03 8.140035e-03 1.014525e-02 1.201437e-02 1.374989e-02 1.535234e-02 1.682595e-02 1.817272e-02 1.939818e-02 2.050550e-02 2.150112e-02 2.238914e-02 2.317657e-02 2.386816e-02 2.447120e-02 2.499088e-02 2.543451e-02 2.580748e-02 2.611695e-02 2.636830e-02 2.656834e-02 2.672230e-02 2.683650e-02 2.691588e-02 2.696613e-02 2.699180e-02 2.699789e-02 2.698842e-02 2.696766e-02 2.693904e-02 2.690603e-02 2.687142e-02 2.683787e-02 2.680746e-02 2.678204e-02 2.676295e-02 2.675121e-02 
2.708363e-02 2.708858e-02 2.710307e-02 2.712612e-02 2.715710e-02 2.719422e-02 2.723604e-02 2.728000e-02 2.732386e-02 2.736431e-02 2.739830e-02 2.742184e-02 2.743109e-02 2.742144e-02 2.738830e-02 2.732650e-02 2.723076e-02 2.709545e-02 2.691469e-02 2.668250e-02 2.639249e-02 2.603848e-02 2.561372e-02 2.511199e-02 2.452635e-02 2.385071e-02 2.307816e-02 2.220296e-02 2.121846e-02 2.011953e-02 1.890004e-02 1.755570e-02 1.608127e-02 1.447357e-02 1.272861e-02 1.084462e-02 8.819276e-03 6.652547e-03 4.344264e-03 1.896508e-03 -6.882072e-04 -3.405246e-03 -6.248817e-03 -9.211220e-03 -1.228275e-02 -1.545206e-02 -1.870490e-02 -2.202564e-02 -2.539496e-02 -2.879243e-02 -3.219333e-02 -3.557219e-02 -3.889910e-02 -4.214380e-02 -4.527218e-02 -4.825039e-02 -5.104208e-02 -5.361208e-02 -5.592493e-02 -5.794750e-02 -5.964917e-02 -6.100292e-02 -6.198704e-02 -6.258462e-02 -6.278605e-02 -6.258730e-02 -6.199238e-02 -6.101089e-02 -5.965969e-02 -5.796055e-02 -5.594038e-02 -5.362987e-02 -5.106206e-02 -4.827247e-02 -4.529619e-02 -4.216963e-02 -3.892655e-02 -3.560116e-02 -3.222360e-02 -2.882386e-02 -2.542735e-02 -2.205885e-02 -1.873872e-02 -1.548634e-02 -1.231731e-02 -9.245891e-03 -6.283451e-03 -3.439674e-03 -7.223118e-04 1.862889e-03 4.311218e-03 6.620223e-03 8.787729e-03 1.081398e-02 1.269891e-02 1.444491e-02 1.605366e-02 1.752922e-02 1.887467e-02 2.009535e-02 2.119542e-02 2.218112e-02 2.305745e-02 2.383118e-02 2.450792e-02 2.509470e-02 2.559749e-02 2.602332e-02 2.637833e-02 2.666935e-02 2.690247e-02 2.708417e-02 2.722034e-02 2.731694e-02 2.737953e-02 2.741347e-02 2.742385e-02 2.741532e-02 2.739246e-02 2.735914e-02 2.731931e-02 2.727608e-02 2.723271e-02 2.719147e-02 2.715492e-02 2.712450e-02 2.710199e-02 2.708804e-02 
2.734498e-02 2.735063e-02 2.736723e-02 2.739380e-02 2.742967e-02 2.747308e-02 2.752252e-02 2.757545e-02 2.762953e-02 2.768148e-02 2.772811e-02 2.776548e-02 2.778958e-02 2.779583e-02 2.777944e-02 2.773528e-02 2.765782e-02 2.754149e-02 2.738007e-02 2.716770e-02 2.689754e-02 2.656358e-02 2.615852e-02 2.567634e-02 2.510944e-02 2.445199e-02 2.369630e-02 2.283691e-02 2.186627e-02 2.077956e-02 1.956963e-02 1.823254e-02 1.676185e-02 1.515477e-02 1.340595e-02 1.151403e-02 9.475186e-03 7.289767e-03 4.956007e-03 2.476313e-03 -1.484509e-04 -2.913385e-03 -5.814319e-03 -8.843345e-03 -1.199221e-02 -1.524938e-02 -1.860169e-02 -2.203327e-02 -2.552522e-02 -2.905669e-02 -3.260242e-02 -3.613613e-02 -3.962611e-02 -4.304075e-02 -4.634267e-02 -4.949603e-02 -5.245981e-02 -5.519636e-02 -5.766448e-02 -5.982858e-02 -6.165194e-02 -6.310583e-02 -6.416305e-02 -6.480647e-02 -6.502257e-02 -6.480917e-02 -6.416841e-02 -6.311385e-02 -6.166253e-02 -5.984172e-02 -5.768003e-02 -5.521429e-02 -5.247994e-02 -4.951832e-02 -4.636690e-02 -4.306686e-02 -3.965387e-02 -3.616544e-02 -3.263307e-02 -2.908854e-02 -2.555806e-02 -2.206695e-02 -1.863600e-02 -1.528416e-02 -1.202727e-02 -8.878519e-03 -5.849445e-03 -2.948292e-03 -1.830115e-04 2.442266e-03 4.922565e-03 7.257087e-03 9.443324e-03 1.148312e-02 1.337603e-02 1.512594e-02 1.673411e-02 1.820599e-02 1.954424e-02 2.075540e-02 2.184329e-02 2.281517e-02 2.367572e-02 2.443263e-02 2.509122e-02 2.565928e-02 2.614253e-02 2.654869e-02 2.688366e-02 2.715484e-02 2.736815e-02 2.753051e-02 2.764769e-02 2.772602e-02 2.777096e-02 2.778814e-02 2.778260e-02 2.775922e-02 2.772251e-02 2.767653e-02 2.762518e-02 2.757171e-02 2.751935e-02 2.747047e-02 2.742760e-02 2.739225e-02 2.736620e-02 2.735012e-02 
2.756289e-02 2.756917e-02 2.758807e-02 2.761821e-02 2.765932e-02 2.770921e-02 2.776676e-02 2.782900e-02 2.789396e-02 2.795792e-02 2.801808e-02 2.807001e-02 2.811008e-02 2.813322e-02 2.813499e-02 2.810975e-02 2.805233e-02 2.795660e-02 2.781669e-02 2.762613e-02 2.737846e-02 2.706698e-02 2.668475e-02 2.622503e-02 2.568057e-02 2.504474e-02 2.431017e-02 2.347056e-02 2.251865e-02 2.144867e-02 2.025375e-02 1.892891e-02 1.746794e-02 1.586691e-02 1.412064e-02 1.222650e-02 1.018078e-02 7.982461e-03 5.629788e-03 3.123681e-03 4.649503e-04 -2.343075e-03 -5.296346e-03 -8.388523e-03 -1.161149e-02 -1.495514e-02 -1.840636e-02 -2.195032e-02 -2.556796e-02 -2.923872e-02 -3.293676e-02 -3.663494e-02 -4.030032e-02 -4.389885e-02 -4.739115e-02 -5.073711e-02 -5.389296e-02 -5.681504e-02 -5.945909e-02 -6.178231e-02 -6.374541e-02 -6.531230e-02 -6.645471e-02 -6.714931e-02 -6.738386e-02 -6.715220e-02 -6.646045e-02 -6.532089e-02 -6.375674e-02 -6.179636e-02 -5.947570e-02 -5.683416e-02 -5.391441e-02 -5.076082e-02 -4.741690e-02 -4.392655e-02 -4.032973e-02 -3.666595e-02 -3.296914e-02 -2.927232e-02 -2.560255e-02 -2.198574e-02 -1.844239e-02 -1.499161e-02 -1.164820e-02 -8.425288e-03 -5.333001e-03 -2.379435e-03 4.290166e-04 3.088350e-03 5.595152e-03 7.948683e-03 1.014792e-02 1.219469e-02 1.408991e-02 1.583737e-02 1.743959e-02 1.890184e-02 2.022792e-02 2.142416e-02 2.249539e-02 2.344862e-02 2.428946e-02 2.502531e-02 2.566233e-02 2.620800e-02 2.666884e-02 2.705221e-02 2.736473e-02 2.761345e-02 2.780496e-02 2.794583e-02 2.804243e-02 2.810072e-02 2.812674e-02 2.812575e-02 2.810333e-02 2.806397e-02 2.801268e-02 2.795316e-02 2.788979e-02 2.782541e-02 2.776372e-02 2.770671e-02 2.765734e-02 2.761674e-02 2.758709e-02 2.756868e-02 
2.770039e-02 2.770738e-02 2.772846e-02 2.776224e-02 2.780843e-02 2.786485e-02 2.793034e-02 2.800195e-02 2.807764e-02 2.815373e-02 2.822731e-02 2.829400e-02 2.835003e-02 2.839040e-02 2.841049e-02 2.840474e-02 2.836772e-02 2.829345e-02 2.817572e-02 2.800823e-02 2.778410e-02 2.749683e-02 2.713899e-02 2.670407e-02 2.618421e-02 2.557306e-02 2.486250e-02 2.404660e-02 2.311715e-02 2.206884e-02 2.089366e-02 1.958711e-02 1.814170e-02 1.655399e-02 1.481731e-02 1.292954e-02 1.088526e-02 8.683909e-03 6.321832e-03 3.800360e-03 1.118200e-03 -1.721019e-03 -4.715441e-03 -7.858580e-03 -1.114447e-02 -1.456297e-02 -1.810285e-02 -2.174932e-02 -2.548454e-02 -2.928784e-02 -3.313354e-02 -3.699393e-02 -4.083464e-02 -4.462028e-02 -4.830796e-02 -5.185520e-02 -5.521255e-02 -5.833302e-02 -6.116484e-02 -6.366151e-02 -6.577542e-02 -6.746754e-02 -6.870201e-02 -6.945459e-02 -6.970776e-02 -6.945748e-02 -6.870774e-02 -6.747612e-02 -6.578675e-02 -6.367557e-02 -6.118146e-02 -5.835219e-02 -5.523405e-02 -5.187901e-02 -4.833382e-02 -4.464815e-02 -4.086426e-02 -3.702521e-02 -3.316621e-02 -2.932179e-02 -2.551950e-02 -2.178516e-02 -1.813933e-02 -1.459991e-02 -1.118165e-02 -7.895823e-03 -4.752567e-03 -1.757837e-03 1.081830e-03 3.764623e-03 6.286826e-03 8.649804e-03 1.085211e-02 1.289750e-02 1.478640e-02 1.652433e-02 1.811328e-02 1.956003e-02 2.086786e-02 2.204441e-02 2.309402e-02 2.402483e-02 2.484201e-02 2.555388e-02 2.616624e-02 2.668736e-02 2.712341e-02 2.748241e-02 2.777073e-02 2.799592e-02 2.816437e-02 2.828305e-02 2.835819e-02 2.839607e-02 2.840259e-02 2.838328e-02 2.834360e-02 2.828826e-02 2.822219e-02 2.814923e-02 2.807371e-02 2.799857e-02 2.792749e-02 2.786251e-02 2.780657e-02 2.776086e-02 2.772754e-02 2.770693e-02 
2.779034e-02 2.779798e-02 2.782140e-02 2.785885e-02 2.791041e-02 2.797349e-02 2.804735e-02 2.812859e-02 2.821560e-02 2.830424e-02 2.839202e-02 2.847409e-02 2.854711e-02 2.860558e-02 2.864530e-02 2.866021e-02 2.864528e-02 2.859398e-02 2.850054e-02 2.835805e-02 2.816005e-02 2.789942e-02 2.756913e-02 2.716197e-02 2.667048e-02 2.608757e-02 2.540551e-02 2.461750e-02 2.371574e-02 2.269394e-02 2.154447e-02 2.026176e-02 1.883862e-02 1.727040e-02 1.555068e-02 1.367597e-02 1.164100e-02 9.443650e-03 7.080310e-03 4.550519e-03 1.852904e-03 -1.010918e-03 -4.039313e-03 -7.227975e-03 -1.057127e-02 -1.406129e-02 -1.768716e-02 -2.143605e-02 -2.529035e-02 -2.923069e-02 -3.323112e-02 -3.726393e-02 -4.129363e-02 -4.528281e-02 -4.918624e-02 -5.295678e-02 -5.654130e-02 -5.988539e-02 -6.293269e-02 -6.562714e-02 -6.791682e-02 -6.975251e-02 -7.109600e-02 -7.191443e-02 -7.219136e-02 -7.191754e-02 -7.110218e-02 -6.976176e-02 -6.792900e-02 -6.564224e-02 -6.295052e-02 -5.990592e-02 -5.656430e-02 -5.298219e-02 -4.921380e-02 -4.531246e-02 -4.132508e-02 -3.729708e-02 -3.326569e-02 -2.926655e-02 -2.532723e-02 -2.147378e-02 -1.772549e-02 -1.410004e-02 -1.061021e-02 -7.266901e-03 -4.078044e-03 -1.049250e-03 1.815114e-03 4.513467e-03 7.044094e-03 9.408447e-03 1.160686e-02 1.364305e-02 1.551900e-02 1.724008e-02 1.880964e-02 2.023423e-02 2.151833e-02 2.266926e-02 2.369244e-02 2.459564e-02 2.538499e-02 2.606844e-02 2.665261e-02 2.714539e-02 2.755373e-02 2.788522e-02 2.814693e-02 2.834601e-02 2.848948e-02 2.858389e-02 2.863606e-02 2.865185e-02 2.863772e-02 2.859877e-02 2.854098e-02 2.846864e-02 2.838716e-02 2.829999e-02 2.821189e-02 2.812542e-02 2.804466e-02 2.797130e-02 2.790867e-02 2.785756e-02 2.782055e-02 2.779755e-02 
2.779506e-02 2.780340e-02 2.782902e-02 2.787012e-02 2.792681e-02 2.799649e-02 2.807841e-02 2.816918e-02 2.826717e-02 2.836825e-02 2.846989e-02 2.856729e-02 2.865701e-02 2.873362e-02 2.879279e-02 2.882856e-02 2.883573e-02 2.880789e-02 2.873900e-02 2.862235e-02 2.845113e-02 2.821844e-02 2.791682e-02 2.753934e-02 2.707796e-02 2.652597e-02 2.587489e-02 2.511838e-02 2.424771e-02 2.325714e-02 2.213789e-02 2.088502e-02 1.948994e-02 1.794870e-02 1.625323e-02 1.440073e-02 1.238399e-02 1.020158e-02 7.847600e-03 5.322197e-03 2.621407e-03 -2.527441e-04 -3.301473e-03 -6.520333e-03 -9.906690e-03 -1.345280e-02 -1.715069e-02 -2.098795e-02 -2.494937e-02 -2.901602e-02 -3.316320e-02 -3.736325e-02 -4.157997e-02 -4.577496e-02 -4.989948e-02 -5.390377e-02 -5.772787e-02 -6.131288e-02 -6.459258e-02 -6.750520e-02 -6.998730e-02 -7.198450e-02 -7.344781e-02 -7.434206e-02 -7.464347e-02 -7.434514e-02 -7.345393e-02 -7.199366e-02 -6.999936e-02 -6.752019e-02 -6.461027e-02 -6.133331e-02 -5.775075e-02 -5.392912e-02 -4.992699e-02 -4.580462e-02 -4.161148e-02 -3.739653e-02 -3.319795e-02 -2.905212e-02 -2.498654e-02 -2.102603e-02 -1.718940e-02 -1.349196e-02 -9.946061e-03 -6.559706e-03 -3.340650e-03 -2.915094e-04 2.583204e-03 5.284765e-03 7.811041e-03 1.016608e-02 1.234961e-02 1.436763e-02 1.622142e-02 1.791832e-02 1.946095e-02 2.085754e-02 2.211185e-02 2.323262e-02 2.422462e-02 2.509678e-02 2.585467e-02 2.650718e-02 2.706047e-02 2.752317e-02 2.790184e-02 2.820468e-02 2.843846e-02 2.861077e-02 2.872840e-02 2.879825e-02 2.882696e-02 2.882065e-02 2.878563e-02 2.872720e-02 2.865126e-02 2.856219e-02 2.846537e-02 2.836430e-02 2.826373e-02 2.816625e-02 2.807594e-02 2.799448e-02 2.792522e-02 2.786894e-02 2.782824e-02 2.780302e-02 
2.774861e-02 2.775761e-02 2.778556e-02 2.783032e-02 2.789237e-02 2.796873e-02 2.805904e-02 2.815953e-02 2.826896e-02 2.838282e-02 2.849897e-02 2.861221e-02 2.871951e-02 2.881500e-02 2.889481e-02 2.895249e-02 2.898328e-02 2.898029e-02 2.893794e-02 2.884895e-02 2.870701e-02 2.850461e-02 2.823476e-02 2.788989e-02 2.746244e-02 2.694496e-02 2.632946e-02 2.560878e-02 2.477467e-02 2.382045e-02 2.273781e-02 2.152074e-02 2.016107e-02 1.865362e-02 1.699066e-02 1.516797e-02 1.317859e-02 1.101936e-02 8.684525e-03 6.172163e-03 3.478254e-03 6.023807e-04 -2.456967e-03 -5.698193e-03 -9.119203e-03 -1.271544e-02 -1.647965e-02 -2.040273e-02 -2.447015e-02 -2.866584e-02 -3.296542e-02 -3.734276e-02 -4.176094e-02 -4.618058e-02 -5.055047e-02 -5.481613e-02 -5.891285e-02 -6.277257e-02 -6.632231e-02 -6.948735e-02 -7.219706e-02 -7.438256e-02 -7.599012e-02 -7.697207e-02 -7.730519e-02 -7.697542e-02 -7.599676e-02 -7.439250e-02 -7.221013e-02 -6.950355e-02 -6.634142e-02 -6.279456e-02 -5.893744e-02 -5.484330e-02 -5.057990e-02 -4.621223e-02 -4.179449e-02 -3.737811e-02 -3.300226e-02 -2.870403e-02 -2.450939e-02 -2.044284e-02 -1.652037e-02 -1.275654e-02 -9.160441e-03 -5.739343e-03 -2.497825e-03 5.620444e-04 3.438594e-03 6.133397e-03 8.646756e-03 1.098278e-02 1.314326e-02 1.513405e-02 1.695816e-02 1.862266e-02 2.013163e-02 2.149291e-02 2.271153e-02 2.379579e-02 2.475153e-02 2.558721e-02 2.630935e-02 2.692634e-02 2.744517e-02 2.787399e-02 2.822010e-02 2.849120e-02 2.869471e-02 2.883777e-02 2.892774e-02 2.897107e-02 2.897493e-02 2.894498e-02 2.888805e-02 2.880898e-02 2.871413e-02 2.860747e-02 2.849479e-02 2.837918e-02 2.826581e-02 2.815685e-02 2.805679e-02 2.796690e-02 2.789092e-02 2.782925e-02 2.778485e-02 2.775726e-02 
2.761304e-02 2.762271e-02 2.765282e-02 2.770115e-02 2.776824e-02 2.785107e-02 2.794935e-02 2.805926e-02 2.817961e-02 2.830588e-02 2.843597e-02 2.856467e-02 2.868897e-02 2.880303e-02 2.890294e-02 2.898232e-02 2.903635e-02 2.905822e-02 2.904221e-02 2.898122e-02 2.886868e-02 2.869734e-02 2.845982e-02 2.814891e-02 2.775653e-02 2.727565e-02 2.669761e-02 2.601580e-02 2.522107e-02 2.430741e-02 2.326537e-02 2.208972e-02 2.077088e-02 1.930455e-02 1.768125e-02 1.589771e-02 1.394483e-02 1.182042e-02 9.516133e-03 7.030936e-03 4.357734e-03 1.496763e-03 -1.557049e-03 -4.801849e-03 -8.239536e-03 -1.186584e-02 -1.567773e-02 -1.966697e-02 -2.382307e-02 -2.813121e-02 -3.257005e-02 -3.711453e-02 -4.172857e-02 -4.637267e-02 -5.099274e-02 -5.553176e-02 -5.991710e-02 -6.407490e-02 -6.791900e-02 -7.136605e-02 -7.432889e-02 -7.672972e-02 -7.849890e-02 -7.958367e-02 -7.995024e-02 -7.958694e-02 -7.850539e-02 -7.673946e-02 -7.434168e-02 -7.138196e-02 -6.793774e-02 -6.409656e-02 -5.994133e-02 -5.555863e-02 -5.102188e-02 -4.640412e-02 -4.176195e-02 -3.714982e-02 -3.260690e-02 -2.816951e-02 -2.386249e-02 -1.970735e-02 -1.571876e-02 -1.190730e-02 -8.281173e-03 -4.843418e-03 -1.598333e-03 1.456013e-03 4.317678e-03 6.991815e-03 9.478048e-03 1.178359e-02 1.390929e-02 1.586366e-02 1.764867e-02 1.927360e-02 2.074150e-02 2.206203e-02 2.323928e-02 2.428301e-02 2.519824e-02 2.599460e-02 2.667790e-02 2.725747e-02 2.773973e-02 2.813352e-02 2.844569e-02 2.868446e-02 2.885693e-02 2.897059e-02 2.903256e-02 2.904954e-02 2.902852e-02 2.897533e-02 2.889667e-02 2.879748e-02 2.868404e-02 2.856035e-02 2.843217e-02 2.830260e-02 2.817678e-02 2.805686e-02 2.794734e-02 2.784945e-02 2.776696e-02 2.770020e-02 2.765220e-02 2.762241e-02 
2.742338e-02 2.743367e-02 2.746603e-02 2.751791e-02 2.759020e-02 2.767954e-02 2.778601e-02 2.790545e-02 2.803707e-02 2.817599e-02 2.832051e-02 2.846506e-02 2.860706e-02 2.874030e-02 2.886129e-02 2.896327e-02 2.904187e-02 2.908985e-02 2.910198e-02 2.907067e-02 2.898987e-02 2.885179e-02 2.864960e-02 2.837547e-02 2.802190e-02 2.758118e-02 2.704522e-02 2.640664e-02 2.565687e-02 2.478904e-02 2.379426e-02 2.266629e-02 2.139610e-02 1.997819e-02 1.840357e-02 1.666753e-02 1.476138e-02 1.268116e-02 1.041877e-02 7.970955e-03 5.330665e-03 2.495328e-03 -5.404054e-04 -3.778193e-03 -7.220619e-03 -1.086768e-02 -1.471749e-02 -1.876669e-02 -2.300624e-02 -2.742632e-02 -3.200693e-02 -3.672699e-02 -4.155072e-02 -4.643979e-02 -5.133804e-02 -5.618449e-02 -6.090072e-02 -6.540190e-02 -6.959208e-02 -7.337003e-02 -7.663673e-02 -7.929295e-02 -8.125990e-02 -8.246595e-02 -8.287645e-02 -8.246956e-02 -8.126704e-02 -7.930364e-02 -7.665075e-02 -7.338740e-02 -6.961250e-02 -6.542540e-02 -6.092693e-02 -5.621344e-02 -5.136936e-02 -4.647347e-02 -4.158639e-02 -3.676458e-02 -3.204609e-02 -2.746692e-02 -2.304793e-02 -1.880928e-02 -1.476068e-02 -1.091122e-02 -7.264239e-03 -3.821633e-03 -5.834437e-04 2.452956e-03 5.289124e-03 7.930492e-03 1.037949e-02 1.264328e-02 1.472495e-02 1.663273e-02 1.837039e-02 1.994676e-02 2.136638e-02 2.263838e-02 2.376807e-02 2.476464e-02 2.563414e-02 2.638561e-02 2.702576e-02 2.756332e-02 2.800548e-02 2.836050e-02 2.863593e-02 2.883941e-02 2.897863e-02 2.906056e-02 2.909286e-02 2.908171e-02 2.903457e-02 2.895680e-02 2.885553e-02 2.873523e-02 2.860259e-02 2.846117e-02 2.831711e-02 2.817307e-02 2.803457e-02 2.790335e-02 2.778425e-02 2.767813e-02 2.758909e-02 2.751709e-02 2.746550e-02 2.743341e-02 
2.714183e-02 2.715275e-02 2.718716e-02 2.724240e-02 2.731950e-02 2.741500e-02 2.752909e-02 2.765757e-02 2.779974e-02 2.795067e-02 2.810880e-02 2.826851e-02 2.842732e-02 2.857902e-02 2.872020e-02 2.884412e-02 2.894644e-02 2.902002e-02 2.905957e-02 2.905768e-02 2.900814e-02 2.890343e-02 2.873644e-02 2.849972e-02 2.818534e-02 2.778608e-02 2.729326e-02 2.670012e-02 2.599727e-02 2.517863e-02 2.423423e-02 2.315877e-02 2.194182e-02 2.057900e-02 1.905952e-02 1.737996e-02 1.552931e-02 1.350501e-02 1.129610e-02 8.900662e-03 6.308132e-03 3.517046e-03 5.177916e-04 -2.690683e-03 -6.116028e-03 -9.758453e-03 -1.362187e-02 -1.770419e-02 -2.200258e-02 -2.650956e-02 -3.121082e-02 -3.608811e-02 -4.110922e-02 -4.623767e-02 -5.141619e-02 -5.658238e-02 -6.164928e-02 -6.652507e-02 -7.109632e-02 -7.524880e-02 -7.885915e-02 -8.181268e-02 -8.400602e-02 -8.535707e-02 -8.581525e-02 -8.536054e-02 -8.401288e-02 -8.182298e-02 -7.887264e-02 -7.526560e-02 -7.111605e-02 -6.654790e-02 -6.167477e-02 -5.661069e-02 -5.144688e-02 -4.627084e-02 -4.114445e-02 -3.612541e-02 -3.124978e-02 -2.655010e-02 -2.204432e-02 -1.774695e-02 -1.366530e-02 -9.802320e-03 -6.160028e-03 -2.734531e-03 4.743302e-04 3.474266e-03 6.266200e-03 8.859859e-03 1.125652e-02 1.346691e-02 1.549272e-02 1.734507e-02 1.902633e-02 2.054765e-02 2.191224e-02 2.313109e-02 2.420832e-02 2.515459e-02 2.597495e-02 2.667956e-02 2.727432e-02 2.776878e-02 2.816951e-02 2.848537e-02 2.872340e-02 2.889169e-02 2.899755e-02 2.904822e-02 2.905109e-02 2.901251e-02 2.893976e-02 2.883825e-02 2.871501e-02 2.857450e-02 2.842336e-02 2.826510e-02 2.810584e-02 2.794816e-02 2.779760e-02 2.765579e-02 2.752762e-02 2.741382e-02 2.731858e-02 2.724173e-02 2.718672e-02 2.715253e-02 
2.680408e-02 2.681558e-02 2.685210e-02 2.691066e-02 2.699264e-02 2.709429e-02 2.721613e-02 2.735367e-02 2.750659e-02 2.766967e-02 2.784173e-02 2.801686e-02 2.819299e-02 2.836360e-02 2.852574e-02 2.867231e-02 2.879948e-02 2.889971e-02 2.896825e-02 2.899726e-02 2.898110e-02 2.891177e-02 2.878278e-02 2.858612e-02 2.831451e-02 2.796013e-02 2.751494e-02 2.697152e-02 2.632116e-02 2.555698e-02 2.466971e-02 2.365314e-02 2.249752e-02 2.119737e-02 1.974258e-02 1.812835e-02 1.634432e-02 1.438615e-02 1.224341e-02 9.911912e-03 7.381353e-03 4.647265e-03 1.699924e-03 -1.465746e-03 -4.858080e-03 -8.482608e-03 -1.234469e-02 -1.644900e-02 -2.079497e-02 -2.538302e-02 -3.020164e-02 -3.524043e-02 -4.046937e-02 -4.585725e-02 -5.134625e-02 -5.687265e-02 -6.234327e-02 -6.765410e-02 -7.267785e-02 -7.727554e-02 -8.130427e-02 -8.461646e-02 -8.709141e-02 -8.861702e-02 -8.913857e-02 -8.862092e-02 -8.709910e-02 -8.462797e-02 -8.131929e-02 -7.729414e-02 -7.269961e-02 -6.767912e-02 -6.237109e-02 -5.690337e-02 -5.137943e-02 -4.589294e-02 -4.050715e-02 -3.528028e-02 -3.024316e-02 -2.542608e-02 -2.083919e-02 -1.649417e-02 -1.239045e-02 -8.528699e-03 -4.904190e-03 -1.511567e-03 1.654635e-03 4.602817e-03 7.337918e-03 9.869778e-03 1.220268e-02 1.434706e-02 1.630691e-02 1.809282e-02 1.970890e-02 2.116568e-02 2.246775e-02 2.362539e-02 2.464387e-02 2.553311e-02 2.629911e-02 2.695132e-02 2.749643e-02 2.794332e-02 2.829923e-02 2.857236e-02 2.877036e-02 2.890068e-02 2.897117e-02 2.898847e-02 2.896044e-02 2.889286e-02 2.879344e-02 2.866707e-02 2.852116e-02 2.835966e-02 2.818958e-02 2.801396e-02 2.783925e-02 2.766759e-02 2.750484e-02 2.735223e-02 2.721496e-02 2.709336e-02 2.699193e-02 2.691015e-02 2.685176e-02 2.681541e-02 
2.637302e-02 2.638508e-02 2.642348e-02 2.648511e-02 2.657151e-02 2.667879e-02 2.680769e-02 2.695358e-02 2.711636e-02 2.729069e-02 2.747560e-02 2.766512e-02 2.785737e-02 2.804579e-02 2.822757e-02 2.839568e-02 2.854635e-02 2.867216e-02 2.876840e-02 2.882740e-02 2.884347e-02 2.880887e-02 2.871697e-02 2.856012e-02 2.833076e-02 2.802156e-02 2.762405e-02 2.713145e-02 2.653437e-02 2.582681e-02 2.499850e-02 2.404437e-02 2.295332e-02 2.172125e-02 2.033625e-02 1.879519e-02 1.708534e-02 1.520426e-02 1.313849e-02 1.088582e-02 8.432104e-03 5.774733e-03 2.899114e-03 -1.984857e-04 -3.532491e-03 -7.108149e-03 -1.093829e-02 -1.502901e-02 -1.938854e-02 -2.402084e-02 -2.892385e-02 -3.409258e-02 -3.950519e-02 -4.513594e-02 -5.093015e-02 -5.682581e-02 -6.272239e-02 -6.850870e-02 -7.403491e-02 -7.914290e-02 -8.365308e-02 -8.739093e-02 -9.019595e-02 -9.193480e-02 -9.252740e-02 -9.193847e-02 -9.020315e-02 -8.740178e-02 -8.366720e-02 -7.916052e-02 -7.405550e-02 -6.853256e-02 -6.274896e-02 -5.685540e-02 -5.096221e-02 -4.517071e-02 -3.954215e-02 -3.413184e-02 -2.896494e-02 -2.406368e-02 -1.943270e-02 -1.507428e-02 -1.098429e-02 -7.154562e-03 -3.578999e-03 -2.447370e-04 2.853370e-03 5.729855e-03 8.388260e-03 1.084334e-02 1.309746e-02 1.516498e-02 1.704780e-02 1.875963e-02 2.030262e-02 2.168972e-02 2.292378e-02 2.401696e-02 2.497305e-02 2.580341e-02 2.651284e-02 2.711184e-02 2.760617e-02 2.800544e-02 2.831618e-02 2.854709e-02 2.870530e-02 2.879854e-02 2.883430e-02 2.881936e-02 2.876134e-02 2.866604e-02 2.854102e-02 2.839111e-02 2.822364e-02 2.804246e-02 2.785454e-02 2.766276e-02 2.747362e-02 2.728907e-02 2.711501e-02 2.695251e-02 2.680682e-02 2.667812e-02 2.657100e-02 2.648474e-02 2.642325e-02 2.638496e-02 