# vtk DataFile Version 2.0
Comment goes here
ASCII

DATASET STRUCTURED_POINTS
DIMENSIONS    128   128   1

ORIGIN    0.000   0.000   0.000
SPACING   0.00781250.0078125   1.000

POINT_DATA   16384
SCALARS uY double
LOOKUP_TABLE default

2.372868e-02 2.375036e-02 2.380727e-02 2.390714e-02 2.404153e-02 2.421779e-02 2.442705e-02 2.467623e-02 2.495596e-02 2.527264e-02 2.561623e-02 2.599247e-02 2.639054e-02 2.681528e-02 2.725492e-02 2.771317e-02 2.817708e-02 2.864895e-02 2.911445e-02 2.957415e-02 3.001210e-02 3.042685e-02 3.080061e-02 3.112961e-02 3.139412e-02 3.158776e-02 3.168887e-02 3.168835e-02 3.156275e-02 3.130030e-02 3.087615e-02 3.027619e-02 2.947493e-02 2.845652e-02 2.719598e-02 2.567681e-02 2.387612e-02 2.177828e-02 1.936462e-02 1.662238e-02 1.353962e-02 1.010891e-02 6.327921e-03 2.197218e-03 -2.272924e-03 -7.071328e-03 -1.217241e-02 -1.755220e-02 -2.316786e-02 -2.898143e-02 -3.493226e-02 -4.096873e-02 -4.701374e-02 -5.300441e-02 -5.885084e-02 -6.448363e-02 -6.980617e-02 -7.474938e-02 -7.921804e-02 -8.315171e-02 -8.646570e-02 -8.911675e-02 -9.103943e-02 -9.221488e-02 -9.260370e-02 -9.221585e-02 -9.104137e-02 -8.911964e-02 -8.646951e-02 -8.315641e-02 -7.922358e-02 -7.475573e-02 -6.981325e-02 -6.449142e-02 -5.885923e-02 -5.301337e-02 -4.702313e-02 -4.097855e-02 -3.494235e-02 -2.899178e-02 -2.317832e-02 -1.756277e-02 -1.218293e-02 -7.081835e-03 -2.283232e-03 2.187036e-03 6.318054e-03 1.009925e-02 1.353037e-02 1.661341e-02 1.935612e-02 2.177010e-02 2.386843e-02 2.566945e-02 2.718914e-02 2.845001e-02 2.946893e-02 3.027051e-02 3.087096e-02 3.129540e-02 3.155832e-02 3.168418e-02 3.168513e-02 3.158425e-02 3.139099e-02 3.112669e-02 3.079804e-02 3.042445e-02 3.001000e-02 2.957220e-02 2.911275e-02 2.864738e-02 2.817573e-02 2.771192e-02 2.725386e-02 2.681430e-02 2.638973e-02 2.599171e-02 2.561562e-02 2.527207e-02 2.495551e-02 2.467582e-02 2.442673e-02 2.421751e-02 2.404133e-02 2.390698e-02 2.380718e-02 2.375030e-02 
2.428015e-02 2.430367e-02 2.436598e-02 2.447497e-02 2.462208e-02 2.481486e-02 2.504435e-02 2.531769e-02 2.562542e-02 2.597415e-02 2.635382e-02 2.677032e-02 2.721283e-02 2.768629e-02 2.817892e-02 2.869446e-02 2.921992e-02 2.975754e-02 3.029286e-02 3.082623e-02 3.134151e-02 3.183678e-02 3.229396e-02 3.270852e-02 3.306027e-02 3.334173e-02 3.353058e-02 3.361620e-02 3.357421e-02 3.339088e-02 3.304018e-02 3.250550e-02 3.175989e-02 3.078452e-02 2.955268e-02 2.804446e-02 2.623504e-02 2.410510e-02 2.163396e-02 1.880508e-02 1.560472e-02 1.202186e-02 8.052884e-03 3.695408e-03 -1.040698e-03 -6.146026e-03 -1.159409e-02 -1.736093e-02 -2.340110e-02 -2.967433e-02 -3.611537e-02 -4.266760e-02 -4.924722e-02 -5.578360e-02 -6.217836e-02 -6.835191e-02 -7.419812e-02 -7.963617e-02 -8.456143e-02 -8.890149e-02 -9.256380e-02 -9.549450e-02 -9.762330e-02 -9.892367e-02 -9.935537e-02 -9.892474e-02 -9.762545e-02 -9.549770e-02 -9.256801e-02 -8.890669e-02 -8.456756e-02 -7.964320e-02 -7.420596e-02 -6.836053e-02 -6.218763e-02 -5.579349e-02 -4.925759e-02 -4.267842e-02 -3.612647e-02 -2.968571e-02 -2.341258e-02 -1.737251e-02 -1.160560e-02 -6.157488e-03 -1.051923e-03 3.684351e-03 8.042192e-03 1.201143e-02 1.559475e-02 1.879544e-02 2.162485e-02 2.409635e-02 2.622686e-02 2.803665e-02 2.954544e-02 3.077765e-02 3.175358e-02 3.249955e-02 3.303476e-02 3.338579e-02 3.356961e-02 3.361189e-02 3.352672e-02 3.333813e-02 3.305708e-02 3.270554e-02 3.229135e-02 3.183435e-02 3.133940e-02 3.082427e-02 3.029117e-02 2.975597e-02 2.921860e-02 2.869323e-02 2.817788e-02 2.768533e-02 2.721204e-02 2.676959e-02 2.635323e-02 2.597361e-02 2.562499e-02 2.531730e-02 2.504406e-02 2.481460e-02 2.462190e-02 2.447482e-02 2.436589e-02 2.430362e-02 
2.479631e-02 2.482197e-02 2.488961e-02 2.500824e-02 2.516823e-02 2.537831e-02 2.562846e-02 2.592703e-02 2.626350e-02 2.664575e-02 2.706262e-02 2.752130e-02 2.800984e-02 2.853452e-02 2.908231e-02 2.965834e-02 3.024825e-02 3.085561e-02 3.146448e-02 3.207650e-02 3.267379e-02 3.325565e-02 3.380202e-02 3.430941e-02 3.475534e-02 3.513317e-02 3.541790e-02 3.559946e-02 3.565040e-02 3.555717e-02 3.529021e-02 3.483269e-02 3.415368e-02 3.323371e-02 3.204166e-02 3.055653e-02 2.874884e-02 2.659777e-02 2.407790e-02 2.117099e-02 1.785873e-02 1.412845e-02 9.972610e-03 5.387524e-03 3.803602e-04 -5.039995e-03 -1.084787e-02 -1.701858e-02 -2.350492e-02 -3.026420e-02 -3.722620e-02 -4.432995e-02 -5.148308e-02 -5.860872e-02 -6.559640e-02 -7.235886e-02 -7.877502e-02 -8.475598e-02 -9.018061e-02 -9.496945e-02 -9.901372e-02 -1.022552e-01 -1.046097e-01 -1.060505e-01 -1.065274e-01 -1.060518e-01 -1.046122e-01 -1.022590e-01 -9.901867e-02 -9.497555e-02 -9.018780e-02 -8.476421e-02 -7.878419e-02 -7.236890e-02 -6.560720e-02 -5.862020e-02 -5.149511e-02 -4.434245e-02 -3.723901e-02 -3.027728e-02 -2.351809e-02 -1.703182e-02 -1.086099e-02 -5.053008e-03 3.676483e-04 5.375058e-03 9.960587e-03 1.411678e-02 1.784761e-02 2.116028e-02 2.406781e-02 2.658813e-02 2.873984e-02 3.054799e-02 3.203376e-02 3.322626e-02 3.414686e-02 3.482629e-02 3.528439e-02 3.555173e-02 3.564551e-02 3.559490e-02 3.541383e-02 3.512939e-02 3.475200e-02 3.430631e-02 3.379931e-02 3.325314e-02 3.267162e-02 3.207449e-02 3.146277e-02 3.085403e-02 3.024691e-02 2.965711e-02 2.908129e-02 2.853357e-02 2.800906e-02 2.752059e-02 2.706204e-02 2.664522e-02 2.626309e-02 2.592665e-02 2.562818e-02 2.537806e-02 2.516806e-02 2.500810e-02 2.488952e-02 2.482193e-02 
2.525606e-02 2.528366e-02 2.535695e-02 2.548517e-02 2.565854e-02 2.588602e-02 2.615752e-02 2.648164e-02 2.684783e-02 2.726419e-02 2.771958e-02 2.822144e-02 2.875780e-02 2.933516e-02 2.994054e-02 3.057915e-02 3.123667e-02 3.191669e-02 3.260322e-02 3.329774e-02 3.398229e-02 3.465575e-02 3.529785e-02 3.590440e-02 3.645252e-02 3.693450e-02 3.732470e-02 3.761153e-02 3.776661e-02 3.777433e-02 3.760387e-02 3.723575e-02 3.663742e-02 3.578611e-02 3.464874e-02 3.320042e-02 3.140941e-02 2.925047e-02 2.669578e-02 2.372237e-02 2.030962e-02 1.644015e-02 1.210453e-02 7.294901e-03 2.017400e-03 -3.722069e-03 -9.897442e-03 -1.648507e-02 -2.343534e-02 -3.070390e-02 -3.821557e-02 -4.590435e-02 -5.367018e-02 -6.142741e-02 -6.905536e-02 -7.645451e-02 -8.349189e-02 -9.006385e-02 -9.603712e-02 -1.013168e-01 -1.057837e-01 -1.093656e-01 -1.119718e-01 -1.135654e-01 -1.140948e-01 -1.135668e-01 -1.119746e-01 -1.093698e-01 -1.057891e-01 -1.013235e-01 -9.604505e-02 -9.007291e-02 -8.350199e-02 -7.646557e-02 -6.906724e-02 -6.144004e-02 -5.368340e-02 -4.591807e-02 -3.822963e-02 -3.071822e-02 -2.344974e-02 -1.649952e-02 -9.911732e-03 -3.736211e-03 2.003613e-03 7.281418e-03 1.209156e-02 1.642760e-02 2.029768e-02 2.371092e-02 2.668501e-02 2.924022e-02 3.139987e-02 3.319141e-02 3.464044e-02 3.577829e-02 3.663029e-02 3.722908e-02 3.759783e-02 3.776870e-02 3.776157e-02 3.760684e-02 3.732054e-02 3.693065e-02 3.644913e-02 3.590127e-02 3.529513e-02 3.465324e-02 3.398013e-02 3.329575e-02 3.260153e-02 3.191514e-02 3.123537e-02 3.057795e-02 2.993955e-02 2.933426e-02 2.875706e-02 2.822076e-02 2.771904e-02 2.726370e-02 2.684745e-02 2.648130e-02 2.615727e-02 2.588580e-02 2.565838e-02 2.548504e-02 2.535688e-02 2.528362e-02 
2.567309e-02 2.570289e-02 2.578171e-02 2.591990e-02 2.610665e-02 2.635210e-02 2.664513e-02 2.699558e-02 2.739186e-02 2.784341e-02 2.833801e-02 2.888448e-02 2.946975e-02 3.010175e-02 3.076630e-02 3.147008e-02 3.219747e-02 3.295351e-02 3.372075e-02 3.450211e-02 3.527793e-02 3.604847e-02 3.679147e-02 3.750396e-02 3.816073e-02 3.875510e-02 3.925866e-02 3.966055e-02 3.992913e-02 4.004916e-02 3.998600e-02 3.972007e-02 3.921443e-02 3.844572e-02 3.737587e-02 3.597886e-02 3.421746e-02 3.206485e-02 2.948738e-02 2.646011e-02 2.295660e-02 1.895736e-02 1.444761e-02 9.417621e-03 3.869309e-03 -2.192541e-03 -8.744136e-03 -1.576157e-02 -2.319460e-02 -3.099658e-02 -3.908790e-02 -4.739772e-02 -5.581697e-02 -6.425250e-02 -7.256987e-02 -8.065984e-02 -8.837148e-02 -9.559040e-02 -1.021628e-01 -1.079840e-01 -1.129141e-01 -1.168744e-01 -1.197562e-01 -1.215215e-01 -1.221064e-01 -1.215232e-01 -1.197594e-01 -1.168792e-01 -1.129204e-01 -1.079918e-01 -1.021721e-01 -9.560092e-02 -8.838320e-02 -8.067263e-02 -7.258361e-02 -6.426706e-02 -5.583218e-02 -4.741346e-02 -3.910399e-02 -3.101293e-02 -2.321099e-02 -1.577796e-02 -8.760303e-03 -2.208477e-03 3.853818e-03 9.402536e-03 1.443314e-02 1.894342e-02 2.294339e-02 2.644750e-02 2.947557e-02 3.205366e-02 3.420708e-02 3.596909e-02 3.736690e-02 3.843733e-02 3.920680e-02 3.971297e-02 3.997960e-02 4.004322e-02 3.992384e-02 3.965565e-02 3.925433e-02 3.875111e-02 3.815724e-02 3.750075e-02 3.678869e-02 3.604592e-02 3.527576e-02 3.450011e-02 3.371907e-02 3.295196e-02 3.219619e-02 3.146891e-02 3.076534e-02 3.010088e-02 2.946905e-02 2.888384e-02 2.833751e-02 2.784295e-02 2.739151e-02 2.699526e-02 2.664490e-02 2.635190e-02 2.610651e-02 2.591978e-02 2.578164e-02 2.570285e-02 
2.602554e-02 2.605732e-02 2.614190e-02 2.628987e-02 2.649027e-02 2.675354e-02 2.706845e-02 2.744516e-02 2.787204e-02 2.835887e-02 2.889342e-02 2.948485e-02 3.012014e-02 3.080750e-02 3.153283e-02 3.230304e-02 3.310258e-02 3.393661e-02 3.478773e-02 3.565883e-02 3.653020e-02 3.740185e-02 3.825136e-02 3.907520e-02 3.984784e-02 4.056161e-02 4.118756e-02 4.171333e-02 4.210644e-02 4.234953e-02 4.240676e-02 4.225575e-02 4.185790e-02 4.118629e-02 4.020077e-02 3.887094e-02 3.715709e-02 3.502726e-02 3.244502e-02 2.937973e-02 2.580205e-02 2.168657e-02 1.701586e-02 1.177454e-02 5.962675e-03 -4.195834e-04 -7.348829e-03 -1.480379e-02 -2.273233e-02 -3.108737e-02 -3.978435e-02 -4.874781e-02 -5.786018e-02 -6.701877e-02 -7.607705e-02 -8.491131e-02 -9.335582e-02 -1.012778e-01 -1.085078e-01 -1.149210e-01 -1.203638e-01 -1.247388e-01 -1.279283e-01 -1.298807e-01 -1.305302e-01 -1.298825e-01 -1.279319e-01 -1.247441e-01 -1.203707e-01 -1.149296e-01 -1.085179e-01 -1.012893e-01 -9.336864e-02 -8.492531e-02 -7.609208e-02 -6.703468e-02 -5.787680e-02 -4.876499e-02 -3.980190e-02 -3.110517e-02 -2.275016e-02 -1.482157e-02 -7.366342e-03 -4.368045e-04 5.945972e-03 1.175832e-02 1.700034e-02 2.167166e-02 2.578797e-02 2.936633e-02 3.243250e-02 3.501545e-02 3.714617e-02 3.886070e-02 4.019140e-02 4.117756e-02 4.185000e-02 4.224841e-02 4.240018e-02 4.234345e-02 4.210104e-02 4.170835e-02 4.118318e-02 4.055759e-02 3.984435e-02 3.907200e-02 3.824860e-02 3.739933e-02 3.652806e-02 3.565688e-02 3.478610e-02 3.393512e-02 3.310135e-02 3.230192e-02 3.153193e-02 3.080668e-02 3.011949e-02 2.948426e-02 2.889297e-02 2.835845e-02 2.787173e-02 2.744488e-02 2.706825e-02 2.675336e-02 2.649016e-02 2.628977e-02 2.614185e-02 2.605729e-02 
2.632763e-02 2.636160e-02 2.645174e-02 2.660971e-02 2.682359e-02 2.710494e-02 2.744159e-02 2.784493e-02 2.830238e-02 2.882502e-02 2.939967e-02 3.003686e-02 3.072257e-02 3.146648e-02 3.225338e-02 3.309173e-02 3.396476e-02 3.487921e-02 3.581626e-02 3.678040e-02 3.775030e-02 3.872748e-02 3.968762e-02 4.062859e-02 4.152257e-02 4.236312e-02 4.311848e-02 4.377731e-02 4.430374e-02 4.468104e-02 4.486932e-02 4.484637e-02 4.456883e-02 4.400937e-02 4.312233e-02 4.187629e-02 4.022528e-02 3.813569e-02 3.556424e-02 3.247808e-02 2.884072e-02 2.462416e-02 1.980398e-02 1.436225e-02 8.292882e-03 1.594107e-03 -5.714975e-03 -1.361364e-02 -2.205096e-02 -3.097813e-02 -4.030732e-02 -4.995819e-02 -5.980423e-02 -6.973419e-02 -7.958620e-02 -8.922454e-02 -9.846210e-02 -1.071520e-01 -1.150992e-01 -1.221653e-01 -1.281699e-01 -1.330063e-01 -1.365331e-01 -1.386963e-01 -1.394138e-01 -1.386984e-01 -1.365372e-01 -1.330124e-01 -1.281780e-01 -1.221751e-01 -1.151109e-01 -1.071653e-01 -9.847686e-02 -8.924061e-02 -7.960343e-02 -6.975239e-02 -5.982321e-02 -4.997775e-02 -4.032725e-02 -3.099827e-02 -2.207109e-02 -1.363364e-02 -5.734614e-03 1.574874e-03 8.274287e-03 1.434427e-02 1.978684e-02 2.460777e-02 2.882529e-02 3.246347e-02 3.555065e-02 3.812293e-02 4.021353e-02 4.186533e-02 4.311235e-02 4.400012e-02 4.456049e-02 4.483867e-02 4.486244e-02 4.467472e-02 4.429815e-02 4.377220e-02 4.311401e-02 4.235903e-02 4.151903e-02 4.062537e-02 3.968486e-02 3.872498e-02 3.774819e-02 3.677849e-02 3.581468e-02 3.487777e-02 3.396360e-02 3.309068e-02 3.225254e-02 3.146572e-02 3.072198e-02 3.003633e-02 2.939927e-02 2.882465e-02 2.830212e-02 2.784469e-02 2.744143e-02 2.710479e-02 2.682349e-02 2.660963e-02 2.645170e-02 2.636158e-02 
2.655696e-02 2.659289e-02 2.668869e-02 2.685631e-02 2.708364e-02 2.738262e-02 2.774094e-02 2.817038e-02 2.865832e-02 2.921624e-02 2.983099e-02 3.051351e-02 3.124984e-02 3.205008e-02 3.289911e-02 3.380576e-02 3.475336e-02 3.574893e-02 3.677376e-02 3.783244e-02 3.890370e-02 3.998898e-02 4.106389e-02 4.212591e-02 4.314700e-02 4.411991e-02 4.501246e-02 4.581194e-02 4.648175e-02 4.700316e-02 4.733515e-02 4.745272e-02 4.731092e-02 4.687871e-02 4.610833e-02 4.496366e-02 4.339609e-02 4.136631e-02 3.882791e-02 3.574144e-02 3.206694e-02 2.776918e-02 2.282029e-02 1.719495e-02 1.088419e-02 3.879507e-03 -3.801534e-03 -1.214312e-02 -2.109349e-02 -3.060542e-02 -4.058672e-02 -5.095373e-02 -6.157096e-02 -7.231753e-02 -8.301758e-02 -9.351880e-02 -1.036158e-01 -1.131389e-01 -1.218728e-01 -1.296529e-01 -1.362803e-01 -1.416231e-01 -1.455276e-01 -1.479208e-01 -1.487180e-01 -1.479230e-01 -1.455321e-01 -1.416297e-01 -1.362890e-01 -1.296636e-01 -1.218854e-01 -1.131533e-01 -1.036318e-01 -9.353622e-02 -8.303627e-02 -7.233726e-02 -6.159152e-02 -5.097490e-02 -4.060828e-02 -3.062717e-02 -2.111520e-02 -1.216465e-02 -3.822640e-03 3.858884e-03 1.086430e-02 1.717577e-02 2.280206e-02 2.775180e-02 3.205064e-02 3.572605e-02 3.881365e-02 4.135296e-02 4.338386e-02 4.495229e-02 4.609802e-02 4.686919e-02 4.730238e-02 4.744486e-02 4.732817e-02 4.699677e-02 4.647613e-02 4.580681e-02 4.500800e-02 4.411585e-02 4.314351e-02 4.212275e-02 4.106121e-02 3.998655e-02 3.890168e-02 3.783061e-02 3.677226e-02 3.574757e-02 3.475228e-02 3.380478e-02 3.289835e-02 3.204939e-02 3.124932e-02 3.051304e-02 2.983065e-02 2.921593e-02 2.865811e-02 2.817018e-02 2.774081e-02 2.738250e-02 2.708358e-02 2.685625e-02 2.668866e-02 2.659288e-02 
2.672829e-02 2.676634e-02 2.686751e-02 2.704480e-02 2.728520e-02 2.760172e-02 2.798121e-02 2.843663e-02 2.895450e-02 2.954760e-02 3.020190e-02 3.092976e-02 3.171627e-02 3.257306e-02 3.348401e-02 3.445955e-02 3.548188e-02 3.655970e-02 3.767301e-02 3.882814e-02 4.000226e-02 4.119855e-02 4.239075e-02 4.357804e-02 4.473009e-02 4.584121e-02 4.687643e-02 4.782438e-02 4.864503e-02 4.932065e-02 4.980608e-02 5.007684e-02 5.008299e-02 4.979343e-02 4.915449e-02 4.812928e-02 4.666231e-02 4.471276e-02 4.222639e-02 3.916147e-02 3.546952e-02 3.111237e-02 2.605329e-02 2.026375e-02 1.372628e-02 6.429431e-03 -1.616246e-03 -1.039670e-02 -1.986420e-02 -2.997091e-02 -4.062374e-02 -5.173467e-02 -6.316041e-02 -7.477083e-02 -8.637373e-02 -9.780243e-02 -1.088264e-01 -1.192577e-01 -1.288489e-01 -1.374167e-01 -1.447276e-01 -1.506350e-01 -1.549543e-01 -1.576077e-01 -1.584889e-01 -1.576103e-01 -1.549594e-01 -1.506425e-01 -1.447375e-01 -1.374290e-01 -1.288633e-01 -1.192741e-01 -1.088446e-01 -9.782225e-02 -8.639496e-02 -7.479318e-02 -6.318366e-02 -5.175855e-02 -4.064798e-02 -2.999529e-02 -1.988846e-02 -1.042068e-02 -1.639666e-03 6.406644e-03 1.370438e-02 2.024273e-02 2.603339e-02 3.109349e-02 3.545188e-02 3.914491e-02 4.221111e-02 4.469854e-02 4.664934e-02 4.811729e-02 4.914367e-02 4.978350e-02 5.007412e-02 5.006873e-02 4.979892e-02 4.931414e-02 4.863934e-02 4.781922e-02 4.687198e-02 4.583718e-02 4.472665e-02 4.357494e-02 4.238815e-02 4.119621e-02 4.000033e-02 3.882641e-02 3.767162e-02 3.655845e-02 3.548090e-02 3.445867e-02 3.348335e-02 3.257247e-02 3.171585e-02 3.092937e-02 3.020165e-02 2.954737e-02 2.895436e-02 2.843649e-02 2.798113e-02 2.760165e-02 2.728517e-02 2.704477e-02 2.686750e-02 2.676633e-02 
2.681900e-02 2.685891e-02 2.696541e-02 2.715182e-02 2.740495e-02 2.773820e-02 2.813828e-02 2.861861e-02 2.916566e-02 2.979269e-02 3.048567e-02 3.125748e-02 3.209331e-02 3.300528e-02 3.397741e-02 3.502061e-02 3.611724e-02 3.727644e-02 3.847835e-02 3.972960e-02 4.100752e-02 4.231536e-02 4.362696e-02 4.494128e-02 4.622794e-02 4.748068e-02 4.866424e-02 4.976615e-02 5.074583e-02 5.158376e-02 5.223385e-02 5.266897e-02 5.283781e-02 5.270561e-02 5.221672e-02 5.132944e-02 4.998567e-02 4.813849e-02 4.573041e-02 4.271229e-02 3.903182e-02 3.464226e-02 2.950273e-02 2.357533e-02 1.683860e-02 9.271746e-03 8.822855e-04 -8.323808e-03 -1.829959e-02 -2.900217e-02 -4.033540e-02 -5.221071e-02 -6.447613e-02 -7.699300e-02 -8.955359e-02 -1.019729e-01 -1.139982e-01 -1.254138e-01 -1.359457e-01 -1.453764e-01 -1.534467e-01 -1.599763e-01 -1.647623e-01 -1.677007e-01 -1.686811e-01 -1.677034e-01 -1.647677e-01 -1.599843e-01 -1.534574e-01 -1.453894e-01 -1.359611e-01 -1.254314e-01 -1.140178e-01 -1.019942e-01 -8.957635e-02 -7.701695e-02 -6.450105e-02 -5.223627e-02 -4.036135e-02 -2.902824e-02 -1.832549e-02 -8.349359e-03 8.573734e-04 9.247561e-03 1.681542e-02 2.355314e-02 2.948178e-02 3.462246e-02 3.901339e-02 4.269505e-02 4.571457e-02 4.812380e-02 4.997234e-02 5.131717e-02 5.220571e-02 5.269555e-02 5.282888e-02 5.266085e-02 5.222672e-02 5.157730e-02 5.074023e-02 4.976109e-02 4.865991e-02 4.747677e-02 4.622465e-02 4.493832e-02 4.362450e-02 4.231317e-02 4.100573e-02 3.972801e-02 3.847709e-02 3.727531e-02 3.611639e-02 3.501984e-02 3.397686e-02 3.300479e-02 3.209298e-02 3.125718e-02 3.048549e-02 2.979252e-02 2.916558e-02 2.861853e-02 2.813825e-02 2.773817e-02 2.740495e-02 2.715181e-02 2.696541e-02 2.685890e-02 
2.684440e-02 2.688625e-02 2.699771e-02 2.719306e-02 2.745826e-02 2.780778e-02 2.822754e-02 2.873210e-02 2.930717e-02 2.996728e-02 3.069762e-02 3.151246e-02 3.239618e-02 3.336242e-02 3.439429e-02 3.550439e-02 3.667404e-02 3.791416e-02 3.920371e-02 4.055119e-02 4.193249e-02 4.335280e-02 4.478420e-02 4.622762e-02 4.765050e-02 4.904845e-02 5.038353e-02 5.164500e-02 5.278894e-02 5.379729e-02 5.461981e-02 5.523045e-02 5.557281e-02 5.561263e-02 5.528810e-02 5.455733e-02 5.335484e-02 5.163263e-02 4.932460e-02 4.637957e-02 4.273540e-02 3.834235e-02 3.314874e-02 2.711293e-02 2.020225e-02 1.239187e-02 3.678809e-03 -5.934373e-03 -1.640881e-02 -2.770289e-02 -3.972364e-02 -5.237968e-02 -6.551412e-02 -7.897932e-02 -9.255150e-02 -1.060292e-01 -1.191307e-01 -1.316171e-01 -1.431741e-01 -1.535582e-01 -1.624644e-01 -1.696904e-01 -1.749913e-01 -1.782542e-01 -1.793395e-01 -1.782573e-01 -1.749975e-01 -1.696995e-01 -1.624764e-01 -1.535730e-01 -1.431916e-01 -1.316369e-01 -1.191528e-01 -1.060531e-01 -9.257709e-02 -7.900618e-02 -6.554199e-02 -5.240819e-02 -3.975250e-02 -2.773178e-02 -1.643741e-02 -5.962474e-03 3.651509e-03 1.236548e-02 2.017706e-02 2.708893e-02 3.312619e-02 3.832113e-02 4.271575e-02 4.636129e-02 4.930790e-02 5.161724e-02 5.334095e-02 5.454463e-02 5.527679e-02 5.560235e-02 5.556375e-02 5.522227e-02 5.461268e-02 5.379088e-02 5.278343e-02 5.164007e-02 5.037935e-02 4.904471e-02 4.764738e-02 4.622485e-02 4.478194e-02 4.335079e-02 4.193089e-02 4.054978e-02 3.920263e-02 3.791321e-02 3.667335e-02 3.550377e-02 3.439388e-02 3.336205e-02 3.239597e-02 3.151228e-02 3.069754e-02 2.996720e-02 2.930717e-02 2.873209e-02 2.822757e-02 2.780780e-02 2.745830e-02 2.719308e-02 2.699774e-02 2.688626e-02 
2.678196e-02 2.682550e-02 2.694170e-02 2.714523e-02 2.742183e-02 2.778640e-02 2.822471e-02 2.875185e-02 2.935342e-02 3.004454e-02 3.081038e-02 3.166583e-02 3.259532e-02 3.361315e-02 3.470253e-02 3.587671e-02 3.711717e-02 3.843544e-02 3.981066e-02 4.125185e-02 4.273508e-02 4.426591e-02 4.581657e-02 4.738808e-02 4.894796e-02 5.049155e-02 5.198086e-02 5.340434e-02 5.471780e-02 5.590172e-02 5.690526e-02 5.770008e-02 5.822869e-02 5.845349e-02 5.831104e-02 5.775478e-02 5.671693e-02 5.514331e-02 5.296471e-02 5.012207e-02 4.654930e-02 4.218704e-02 3.697891e-02 3.087199e-02 2.382851e-02 1.581129e-02 6.812556e-03 -3.177330e-03 -1.412268e-02 -2.599180e-02 -3.869116e-02 -5.213376e-02 -6.615573e-02 -8.060424e-02 -9.523934e-02 -1.098410e-01 -1.241011e-01 -1.377472e-01 -1.504304e-01 -1.618623e-01 -1.717020e-01 -1.796999e-01 -1.855845e-01 -1.892051e-01 -1.904155e-01 -1.892083e-01 -1.855909e-01 -1.797094e-01 -1.717147e-01 -1.618778e-01 -1.504487e-01 -1.377680e-01 -1.241243e-01 -1.098663e-01 -9.526638e-02 -8.063262e-02 -6.618520e-02 -5.216389e-02 -3.872164e-02 -2.602228e-02 -1.415283e-02 -3.206898e-03 6.783891e-03 1.578365e-02 2.380219e-02 3.084699e-02 3.695551e-02 4.216510e-02 4.652907e-02 5.010332e-02 5.294767e-02 5.512767e-02 5.670291e-02 5.774203e-02 5.829975e-02 5.844329e-02 5.821977e-02 5.769207e-02 5.689835e-02 5.589554e-02 5.471254e-02 5.339965e-02 5.197693e-02 5.048807e-02 4.894510e-02 4.738555e-02 4.581454e-02 4.426412e-02 4.273370e-02 4.125063e-02 3.980977e-02 3.843465e-02 3.711664e-02 3.587624e-02 3.470226e-02 3.361291e-02 3.259523e-02 3.166575e-02 3.081040e-02 3.004455e-02 2.935350e-02 2.875191e-02 2.822480e-02 2.778646e-02 2.742191e-02 2.714528e-02 2.694174e-02 2.682552e-02 
2.664760e-02 2.669282e-02 2.681330e-02 2.702457e-02 2.731164e-02 2.769039e-02 2.814590e-02 2.869432e-02 2.932061e-02 3.004108e-02 3.084024e-02 3.173434e-02 3.270708e-02 3.377429e-02 3.491842e-02 3.615435e-02 3.746271e-02 3.885684e-02 4.031483e-02 4.184768e-02 4.343018e-02 4.507000e-02 4.673776e-02 4.843670e-02 5.013231e-02 5.182221e-02 5.346582e-02 5.505385e-02 5.653887e-02 5.790344e-02 5.909270e-02 6.008007e-02 6.080306e-02 6.122539e-02 6.127742e-02 6.091326e-02 6.005756e-02 5.865591e-02 5.662997e-02 5.391933e-02 5.044711e-02 4.615128e-02 4.096294e-02 3.482522e-02 2.768636e-02 1.950414e-02 1.025614e-02 -7.266312e-05 -1.146015e-02 -2.387882e-02 -3.724461e-02 -5.147089e-02 -6.639468e-02 -8.185613e-02 -9.760219e-02 -1.133951e-01 -1.288952e-01 -1.438008e-01 -1.577127e-01 -1.703061e-01 -1.811781e-01 -1.900461e-01 -1.965792e-01 -2.006111e-01 -2.019546e-01 -2.006147e-01 -1.965864e-01 -1.900568e-01 -1.811923e-01 -1.703235e-01 -1.577333e-01 -1.438241e-01 -1.289212e-01 -1.134233e-01 -9.763226e-02 -8.188760e-02 -6.642725e-02 -5.150407e-02 -3.727807e-02 -2.391213e-02 -1.149298e-02 -1.047174e-04 1.022520e-02 1.947444e-02 2.765822e-02 3.479862e-02 4.093817e-02 4.612819e-02 5.042594e-02 5.389984e-02 5.661237e-02 5.863988e-02 6.004330e-02 6.090038e-02 6.126612e-02 6.121526e-02 6.079430e-02 6.007227e-02 5.908605e-02 5.789755e-02 5.653393e-02 5.504949e-02 5.346224e-02 5.181906e-02 5.012979e-02 4.843449e-02 4.673605e-02 4.506852e-02 4.342908e-02 4.184674e-02 4.031419e-02 3.885630e-02 3.746241e-02 3.615410e-02 3.491834e-02 3.377424e-02 3.270715e-02 3.173440e-02 3.084039e-02 3.004120e-02 2.932079e-02 2.869447e-02 2.814607e-02 2.769052e-02 2.731177e-02 2.702466e-02 2.681337e-02 2.669285e-02 
2.641926e-02 2.646589e-02 2.659026e-02 2.680833e-02 2.710482e-02 2.749613e-02 2.796712e-02 2.853455e-02 2.918322e-02 2.993011e-02 3.075968e-02 3.168888e-02 3.270144e-02 3.381394e-02 3.500891e-02 3.630203e-02 3.767408e-02 3.913916e-02 4.067559e-02 4.229506e-02 4.397263e-02 4.571655e-02 4.749770e-02 4.931972e-02 5.114833e-02 5.298123e-02 5.477802e-02 5.652904e-02 5.818687e-02 5.973314e-02 6.111274e-02 6.229735e-02 6.322390e-02 6.385330e-02 6.411487e-02 6.395855e-02 6.330728e-02 6.210084e-02 6.025834e-02 5.771152e-02 5.437991e-02 5.019127e-02 4.507194e-02 3.895220e-02 3.177440e-02 2.348093e-02 1.404272e-02 3.427614e-03 -8.348572e-03 -2.127513e-02 -3.527156e-02 -5.026376e-02 -6.608564e-02 -8.257942e-02 -9.947730e-02 -1.165259e-01 -1.333550e-01 -1.496245e-01 -1.648898e-01 -1.787664e-01 -1.908005e-01 -2.006411e-01 -2.079176e-01 -2.124076e-01 -2.139123e-01 -2.124112e-01 -2.079250e-01 -2.006521e-01 -1.908150e-01 -1.787842e-01 -1.649109e-01 -1.496485e-01 -1.333819e-01 -1.165550e-01 -9.950851e-02 -8.261210e-02 -6.611950e-02 -5.029825e-02 -3.530634e-02 -2.130972e-02 -8.382619e-03 3.394425e-03 1.401075e-02 2.345032e-02 3.174548e-02 3.892496e-02 4.504667e-02 5.016781e-02 5.435852e-02 5.769192e-02 6.024075e-02 6.208491e-02 6.329322e-02 6.394593e-02 6.410390e-02 6.384355e-02 6.321555e-02 6.228998e-02 6.110654e-02 5.972770e-02 5.818239e-02 5.652513e-02 5.477487e-02 5.297850e-02 5.114620e-02 4.931788e-02 4.749634e-02 4.571539e-02 4.397184e-02 4.229440e-02 4.067521e-02 3.913885e-02 3.767399e-02 3.630197e-02 3.500901e-02 3.381404e-02 3.270166e-02 3.168907e-02 3.075995e-02 2.993034e-02 2.918349e-02 2.853477e-02 2.796735e-02 2.749631e-02 2.710499e-02 2.680844e-02 2.659035e-02 2.646593e-02 
2.611340e-02 2.616137e-02 2.628907e-02 2.651323e-02 2.681797e-02 2.722053e-02 2.770520e-02 2.828972e-02 2.895834e-02 2.972916e-02 3.058608e-02 3.154733e-02 3.259605e-02 3.375028e-02 3.499190e-02 3.633824e-02 3.776930e-02 3.930105e-02 4.091089e-02 4.261258e-02 4.438001e-02 4.622375e-02 4.811319e-02 5.005447e-02 5.201146e-02 5.398448e-02 5.593079e-02 5.784346e-02 5.967209e-02 6.140105e-02 6.297145e-02 6.435762e-02 6.549171e-02 6.633701e-02 6.681686e-02 6.688307e-02 6.645117e-02 6.546199e-02 6.382549e-02 6.147333e-02 5.831379e-02 5.427304e-02 4.926369e-02 4.321257e-02 3.604558e-02 2.769955e-02 1.812641e-02 7.286586e-03 -4.824526e-03 -1.820426e-02 -3.279091e-02 -4.851600e-02 -6.522469e-02 -8.275720e-02 -1.008405e-01 -1.192048e-01 -1.374486e-01 -1.551962e-01 -1.719412e-01 -1.872475e-01 -2.005762e-01 -2.115247e-01 -2.196360e-01 -2.246596e-01 -2.263374e-01 -2.246636e-01 -2.196441e-01 -2.115368e-01 -2.005923e-01 -1.872673e-01 -1.719647e-01 -1.552229e-01 -1.374783e-01 -1.192369e-01 -1.008748e-01 -8.279295e-02 -6.526161e-02 -4.855343e-02 -3.282849e-02 -1.824146e-02 -4.860983e-03 7.251231e-03 1.809252e-02 2.766728e-02 3.601525e-02 4.318417e-02 4.923751e-02 5.424890e-02 5.829194e-02 6.145346e-02 6.380782e-02 6.544612e-02 6.643731e-02 6.687076e-02 6.680631e-02 6.632773e-02 6.548391e-02 6.435081e-02 6.296586e-02 6.139622e-02 5.966822e-02 5.784014e-02 5.592822e-02 5.398231e-02 5.200987e-02 5.005314e-02 4.811231e-02 4.622304e-02 4.437964e-02 4.261230e-02 4.091087e-02 3.930108e-02 3.776951e-02 3.633845e-02 3.499226e-02 3.375061e-02 3.259648e-02 3.154771e-02 3.058651e-02 2.972954e-02 2.895874e-02 2.829005e-02 2.770553e-02 2.722078e-02 2.681820e-02 2.651340e-02 2.628919e-02 2.616142e-02 
2.570894e-02 2.575795e-02 2.588842e-02 2.611754e-02 2.642909e-02 2.684089e-02 2.733696e-02 2.793568e-02 2.862111e-02 2.941208e-02 3.029236e-02 3.128098e-02 3.236106e-02 3.355147e-02 3.483414e-02 3.622729e-02 3.771107e-02 3.930236e-02 4.097874e-02 4.275490e-02 4.460499e-02 4.654043e-02 4.853093e-02 5.058335e-02 5.266190e-02 5.476744e-02 5.685755e-02 5.892550e-02 6.092117e-02 6.282864e-02 6.458920e-02 6.617617e-02 6.752173e-02 6.858720e-02 6.929561e-02 6.959555e-02 6.940174e-02 6.865011e-02 6.724907e-02 6.512321e-02 6.217818e-02 5.833023e-02 5.348790e-02 4.756451e-02 4.047997e-02 3.215337e-02 2.252846e-02 1.154342e-02 -8.162095e-04 -1.457335e-02 -2.967580e-02 -4.607995e-02 -6.363519e-02 -8.219743e-02 -1.014844e-01 -1.212199e-01 -1.409703e-01 -1.603187e-01 -1.786996e-01 -1.955979e-01 -2.103997e-01 -2.226020e-01 -2.316847e-01 -2.373110e-01 -2.392026e-01 -2.373150e-01 -2.316927e-01 -2.226140e-01 -2.104156e-01 -1.956176e-01 -1.787231e-01 -1.603454e-01 -1.410003e-01 -1.212524e-01 -1.015192e-01 -8.223378e-02 -6.367278e-02 -4.611806e-02 -2.971407e-02 -1.461120e-02 -8.532527e-04 1.150756e-02 2.249416e-02 3.212079e-02 4.044948e-02 4.753604e-02 5.346179e-02 5.830626e-02 6.215663e-02 6.510373e-02 6.723190e-02 6.863480e-02 6.938853e-02 6.958393e-02 6.928580e-02 6.857867e-02 6.751470e-02 6.617013e-02 6.458436e-02 6.282453e-02 6.091802e-02 5.892286e-02 5.685564e-02 5.476587e-02 5.266088e-02 5.058254e-02 4.853053e-02 4.654016e-02 4.460503e-02 4.275499e-02 4.097905e-02 3.930268e-02 3.771155e-02 3.622775e-02 3.483471e-02 3.355199e-02 3.236166e-02 3.128151e-02 3.029293e-02 2.941257e-02 2.862161e-02 2.793609e-02 2.733736e-02 2.684120e-02 2.642937e-02 2.611774e-02 2.588856e-02 2.575802e-02 
2.522280e-02 2.527270e-02 2.540531e-02 2.563843e-02 2.595538e-02 2.637468e-02 2.687992e-02 2.749032e-02 2.818951e-02 2.899730e-02 2.989705e-02 3.090894e-02 3.201560e-02 3.323729e-02 3.455540e-02 3.598974e-02 3.751980e-02 3.916431e-02 4.090005e-02 4.274383e-02 4.466878e-02 4.668872e-02 4.877207e-02 5.092841e-02 5.312027e-02 5.535151e-02 5.757758e-02 5.979502e-02 6.195099e-02 6.403304e-02 6.597903e-02 6.776587e-02 6.932138e-02 7.061046e-02 7.155068e-02 7.209395e-02 7.214815e-02 7.165202e-02 7.050533e-02 6.863456e-02 6.593443e-02 6.232159e-02 5.769064e-02 5.195308e-02 4.501093e-02 3.677837e-02 2.717636e-02 1.613439e-02 3.610014e-03 -1.043205e-02 -2.597088e-02 -4.297638e-02 -6.132603e-02 -8.088359e-02 -1.013783e-01 -1.225245e-01 -1.438646e-01 -1.649418e-01 -1.851163e-01 -2.038005e-01 -2.202607e-01 -2.339108e-01 -2.441004e-01 -2.504416e-01 -2.525658e-01 -2.504459e-01 -2.441092e-01 -2.339239e-01 -2.202782e-01 -2.038222e-01 -1.851421e-01 -1.649711e-01 -1.438974e-01 -1.225599e-01 -1.014161e-01 -8.092278e-02 -6.136637e-02 -4.301703e-02 -2.601148e-02 -1.047197e-02 3.571168e-03 1.609701e-02 2.714082e-02 3.674482e-02 4.497974e-02 5.192417e-02 5.766434e-02 6.229764e-02 6.591311e-02 6.861547e-02 7.048872e-02 7.163739e-02 7.213573e-02 7.208319e-02 7.154180e-02 7.060289e-02 6.931535e-02 6.776082e-02 6.597519e-02 6.402991e-02 6.194878e-02 5.979328e-02 5.757653e-02 5.535075e-02 5.312002e-02 5.092831e-02 4.877234e-02 4.668905e-02 4.466937e-02 4.274443e-02 4.090083e-02 3.916506e-02 3.752067e-02 3.599055e-02 3.455629e-02 3.323810e-02 3.201645e-02 3.090969e-02 2.989782e-02 2.899797e-02 2.819016e-02 2.749086e-02 2.688043e-02 2.637509e-02 2.595573e-02 2.563868e-02 2.540548e-02 2.527279e-02 