# vtk DataFile Version 2.0
Comment goes here
ASCII

DATASET STRUCTURED_POINTS
DIMENSIONS    128   128   1

ORIGIN    0.000   0.000   0.000
SPACING   0.00781250.0078125   1.000

POINT_DATA   16384
SCALARS uY double
LOOKUP_TABLE default

2.444118e-02 2.444207e-02 2.443788e-02 2.443416e-02 2.442406e-02 2.441247e-02 2.439188e-02 2.436661e-02 2.432843e-02 2.428118e-02 2.421595e-02 2.413609e-02 2.403208e-02 2.390687e-02 2.375035e-02 2.356518e-02 2.334072e-02 2.307940e-02 2.277021e-02 2.241542e-02 2.200377e-02 2.153751e-02 2.100527e-02 2.040939e-02 1.973862e-02 1.899548e-02 1.816909e-02 1.726225e-02 1.626478e-02 1.517983e-02 1.399825e-02 1.272367e-02 1.134832e-02 9.876401e-03 8.301975e-03 6.629862e-03 4.856425e-03 2.987184e-03 1.021283e-03 -1.034988e-03 -3.179199e-03 -5.404237e-03 -7.703890e-03 -1.007018e-02 -1.249267e-02 -1.496252e-02 -1.746472e-02 -1.998961e-02 -2.251747e-02 -2.503801e-02 -2.752689e-02 -2.997355e-02 -3.234954e-02 -3.464461e-02 -3.682714e-02 -3.888809e-02 -4.079406e-02 -4.253841e-02 -4.408775e-02 -4.543921e-02 -4.656140e-02 -4.745662e-02 -4.809744e-02 -4.849237e-02 -4.861958e-02 -4.849435e-02 -4.810137e-02 -4.746251e-02 -4.656919e-02 -4.544889e-02 -4.409923e-02 -4.255168e-02 -4.080899e-02 -3.890467e-02 -3.684521e-02 -3.466416e-02 -3.237040e-02 -2.999568e-02 -2.755011e-02 -2.506228e-02 -2.254261e-02 -2.001558e-02 -1.749132e-02 -1.498970e-02 -1.252025e-02 -1.009811e-02 -7.731985e-03 -5.432457e-03 -3.207368e-03 -1.063072e-03 9.934466e-04 2.959622e-03 4.829283e-03 6.603159e-03 8.275839e-03 9.850840e-03 1.132345e-02 1.269947e-02 1.397484e-02 1.515718e-02 1.624297e-02 1.724126e-02 1.814898e-02 1.897622e-02 1.972027e-02 2.039190e-02 2.098869e-02 2.152179e-02 2.198894e-02 2.240145e-02 2.275710e-02 2.306713e-02 2.332928e-02 2.355455e-02 2.374053e-02 2.389782e-02 2.402380e-02 2.412856e-02 2.420916e-02 2.427511e-02 2.432308e-02 2.436194e-02 2.438790e-02 2.440918e-02 2.442143e-02 2.443220e-02 2.443658e-02 2.444141e-02 
2.496308e-02 2.496438e-02 2.496169e-02 2.496029e-02 2.495353e-02 2.494608e-02 2.493057e-02 2.491108e-02 2.487954e-02 2.483948e-02 2.478215e-02 2.471060e-02 2.461541e-02 2.449922e-02 2.435202e-02 2.417611e-02 2.396095e-02 2.370860e-02 2.340809e-02 2.306132e-02 2.265704e-02 2.219711e-02 2.167017e-02 2.107812e-02 2.040969e-02 1.966693e-02 1.883896e-02 1.792807e-02 1.692402e-02 1.582946e-02 1.463514e-02 1.334419e-02 1.194872e-02 1.045239e-02 8.849139e-03 7.143264e-03 5.330971e-03 3.417289e-03 1.401209e-03 -7.114222e-04 -2.918297e-03 -5.212649e-03 -7.588325e-03 -1.003754e-02 -1.254979e-02 -1.511620e-02 -1.772153e-02 -2.035574e-02 -2.299865e-02 -2.563916e-02 -2.825219e-02 -3.082588e-02 -3.333070e-02 -3.575461e-02 -3.806460e-02 -4.024940e-02 -4.227404e-02 -4.412932e-02 -4.578035e-02 -4.722161e-02 -4.842053e-02 -4.937699e-02 -5.006296e-02 -5.048511e-02 -5.062178e-02 -5.048720e-02 -5.006713e-02 -4.938322e-02 -4.842878e-02 -4.723185e-02 -4.579249e-02 -4.414334e-02 -4.228981e-02 -4.026689e-02 -3.808367e-02 -3.577521e-02 -3.335267e-02 -3.084916e-02 -2.827660e-02 -2.566465e-02 -2.302502e-02 -2.038295e-02 -1.774937e-02 -1.514462e-02 -1.257860e-02 -1.006667e-02 -7.617595e-03 -5.242009e-03 -2.947569e-03 -7.405636e-04 1.372361e-03 3.388768e-03 5.302923e-03 7.115712e-03 8.822210e-03 1.042610e-02 1.192317e-02 1.331938e-02 1.461117e-02 1.580630e-02 1.690176e-02 1.790668e-02 1.881851e-02 1.964738e-02 2.039108e-02 2.106042e-02 2.165341e-02 2.218126e-02 2.264211e-02 2.304726e-02 2.339492e-02 2.369629e-02 2.394950e-02 2.416548e-02 2.434221e-02 2.449020e-02 2.460716e-02 2.470311e-02 2.477541e-02 2.483346e-02 2.487423e-02 2.490646e-02 2.492664e-02 2.494282e-02 2.495093e-02 2.495835e-02 2.496040e-02 2.496374e-02 
2.542338e-02 2.542527e-02 2.542398e-02 2.542516e-02 2.542176e-02 2.541880e-02 2.540849e-02 2.539527e-02 2.537059e-02 2.533836e-02 2.528930e-02 2.522685e-02 2.514102e-02 2.503488e-02 2.489774e-02 2.473237e-02 2.452749e-02 2.428566e-02 2.399510e-02 2.365825e-02 2.326296e-02 2.281167e-02 2.229200e-02 2.170652e-02 2.104284e-02 2.030372e-02 1.947704e-02 1.856586e-02 1.755861e-02 1.645876e-02 1.525561e-02 1.395315e-02 1.254197e-02 1.102663e-02 9.399450e-03 7.665633e-03 5.819783e-03 3.867779e-03 1.807071e-03 -3.557107e-04 -2.619656e-03 -4.977311e-03 -7.423662e-03 -9.950349e-03 -1.254762e-02 -1.520612e-02 -1.791082e-02 -2.065131e-02 -2.340687e-02 -2.616613e-02 -2.890257e-02 -3.160408e-02 -3.423875e-02 -3.679429e-02 -3.923434e-02 -4.154742e-02 -4.369440e-02 -4.566603e-02 -4.742267e-02 -4.895918e-02 -5.023805e-02 -5.126020e-02 -5.199298e-02 -5.244498e-02 -5.259062e-02 -5.244708e-02 -5.199716e-02 -5.126645e-02 -5.024631e-02 -4.896944e-02 -4.743484e-02 -4.568010e-02 -4.371022e-02 -4.156499e-02 -3.925349e-02 -3.681500e-02 -3.426084e-02 -3.162751e-02 -2.892714e-02 -2.619181e-02 -2.343345e-02 -2.067875e-02 -1.793890e-02 -1.523480e-02 -1.257668e-02 -9.979753e-03 -7.453204e-03 -5.006947e-03 -2.649195e-03 -3.851145e-04 1.777976e-03 3.839023e-03 5.791521e-03 7.637885e-03 9.372351e-03 1.100018e-02 1.251630e-02 1.392825e-02 1.523157e-02 1.643556e-02 1.753633e-02 1.854449e-02 1.945662e-02 2.028423e-02 2.102431e-02 2.168892e-02 2.227536e-02 2.279594e-02 2.324817e-02 2.364435e-02 2.398210e-02 2.427352e-02 2.451621e-02 2.472191e-02 2.488810e-02 2.502602e-02 2.513294e-02 2.521952e-02 2.528270e-02 2.533247e-02 2.536540e-02 2.539076e-02 2.540466e-02 2.541562e-02 2.541923e-02 2.542326e-02 2.542272e-02 2.542464e-02 
2.585046e-02 2.585284e-02 2.585324e-02 2.585708e-02 2.585751e-02 2.585931e-02 2.585488e-02 2.584838e-02 2.583144e-02 2.580771e-02 2.576804e-02 2.571560e-02 2.564052e-02 2.554555e-02 2.542015e-02 2.526672e-02 2.507412e-02 2.484453e-02 2.456624e-02 2.424135e-02 2.385772e-02 2.341742e-02 2.290810e-02 2.233189e-02 2.167640e-02 2.094395e-02 2.012236e-02 1.921425e-02 1.820793e-02 1.710639e-02 1.589882e-02 1.458865e-02 1.316633e-02 1.163582e-02 9.989279e-03 8.231280e-03 6.356211e-03 4.369321e-03 2.267813e-03 5.769782e-05 -2.260361e-03 -4.679477e-03 -7.194843e-03 -9.798545e-03 -1.248094e-02 -1.523290e-02 -1.803929e-02 -2.088962e-02 -2.376278e-02 -2.664677e-02 -2.951434e-02 -3.235213e-02 -3.512701e-02 -3.782471e-02 -4.040723e-02 -4.286042e-02 -4.514312e-02 -4.724292e-02 -4.911808e-02 -5.076009e-02 -5.212969e-02 -5.322466e-02 -5.401132e-02 -5.449590e-02 -5.465287e-02 -5.449813e-02 -5.401576e-02 -5.323130e-02 -5.213847e-02 -5.077099e-02 -4.913100e-02 -4.725783e-02 -4.515989e-02 -4.287902e-02 -4.042750e-02 -3.784660e-02 -3.515033e-02 -3.237684e-02 -2.954024e-02 -2.667379e-02 -2.379072e-02 -2.091842e-02 -1.806874e-02 -1.526292e-02 -1.251133e-02 -9.829251e-03 -7.225653e-03 -4.710337e-03 -2.291078e-03 2.716936e-05 2.237649e-03 4.339558e-03 6.327004e-03 8.202653e-03 9.961366e-03 1.160863e-02 1.313998e-02 1.456314e-02 1.587423e-02 1.708271e-02 1.818523e-02 1.919251e-02 2.010163e-02 2.092419e-02 2.165766e-02 2.231412e-02 2.289133e-02 2.340161e-02 2.384287e-02 2.422742e-02 2.455324e-02 2.483240e-02 2.506287e-02 2.525632e-02 2.541057e-02 2.553677e-02 2.563252e-02 2.570834e-02 2.576153e-02 2.580190e-02 2.582633e-02 2.584394e-02 2.585110e-02 2.585618e-02 2.585502e-02 2.585522e-02 2.585200e-02 2.585223e-02 
2.621016e-02 2.621318e-02 2.621516e-02 2.622188e-02 2.622611e-02 2.623296e-02 2.623444e-02 2.623505e-02 2.622600e-02 2.621128e-02 2.618126e-02 2.613949e-02 2.607557e-02 2.599265e-02 2.587957e-02 2.573922e-02 2.555971e-02 2.534378e-02 2.507890e-02 2.476774e-02 2.439725e-02 2.397017e-02 2.347307e-02 2.290884e-02 2.226390e-02 2.154140e-02 2.072781e-02 1.982666e-02 1.882479e-02 1.772616e-02 1.651831e-02 1.520574e-02 1.377711e-02 1.223746e-02 1.057706e-02 8.801578e-03 6.903418e-03 4.888882e-03 2.753196e-03 5.033282e-04 -1.861949e-03 -4.334927e-03 -6.912471e-03 -9.586013e-03 -1.234719e-02 -1.518640e-02 -1.808921e-02 -2.104478e-02 -2.403184e-02 -2.703819e-02 -3.003532e-02 -3.300965e-02 -3.592555e-02 -3.876848e-02 -4.149658e-02 -4.409535e-02 -4.651858e-02 -4.875359e-02 -5.075272e-02 -5.250751e-02 -5.397250e-02 -5.514630e-02 -5.598941e-02 -5.651007e-02 -5.667791e-02 -5.651229e-02 -5.599383e-02 -5.515292e-02 -5.398124e-02 -5.251839e-02 -5.076560e-02 -4.876849e-02 -4.653533e-02 -4.411395e-02 -4.151685e-02 -3.879040e-02 -3.594892e-02 -3.303444e-02 -3.006132e-02 -2.706535e-02 -2.405994e-02 -2.107376e-02 -1.811885e-02 -1.521666e-02 -1.237782e-02 -9.616972e-03 -6.943535e-03 -4.366050e-03 -1.892922e-03 4.725466e-04 2.722795e-03 4.858893e-03 6.874007e-03 8.772766e-03 1.054899e-02 1.221014e-02 1.375065e-02 1.518015e-02 1.649368e-02 1.770246e-02 1.880211e-02 1.980497e-02 2.070715e-02 2.152174e-02 2.224528e-02 2.289121e-02 2.345646e-02 2.395453e-02 2.438259e-02 2.475401e-02 2.506610e-02 2.533187e-02 2.554868e-02 2.572902e-02 2.587020e-02 2.598407e-02 2.606776e-02 2.613243e-02 2.617492e-02 2.620563e-02 2.622104e-02 2.623075e-02 2.623078e-02 2.622993e-02 2.622370e-02 2.622008e-02 2.621397e-02 2.621258e-02 
2.653237e-02 2.653593e-02 2.653977e-02 2.654944e-02 2.655791e-02 2.657007e-02 2.657810e-02 2.658626e-02 2.658595e-02 2.658087e-02 2.656159e-02 2.653137e-02 2.647995e-02 2.641022e-02 2.631112e-02 2.618526e-02 2.602086e-02 2.582033e-02 2.557123e-02 2.527590e-02 2.492136e-02 2.450995e-02 2.402833e-02 2.347896e-02 2.284828e-02 2.213901e-02 2.133762e-02 2.044714e-02 1.945436e-02 1.836271e-02 1.715966e-02 1.584909e-02 1.441952e-02 1.287535e-02 1.120664e-02 9.418335e-03 7.502572e-03 5.464872e-03 3.300124e-03 1.014470e-03 -1.393700e-03 -3.917516e-03 -6.554232e-03 -9.296060e-03 -1.213496e-02 -1.506194e-02 -1.806271e-02 -2.112670e-02 -2.423248e-02 -2.736752e-02 -3.050267e-02 -3.362326e-02 -3.669234e-02 -3.969330e-02 -4.258225e-02 -4.534158e-02 -4.792245e-02 -5.030818e-02 -5.244818e-02 -5.432959e-02 -5.590432e-02 -5.716678e-02 -5.807583e-02 -5.863647e-02 -5.881825e-02 -5.863885e-02 -5.808055e-02 -5.717385e-02 -5.591365e-02 -5.434119e-02 -5.246191e-02 -5.032403e-02 -4.794027e-02 -4.536134e-02 -4.260377e-02 -3.971653e-02 -3.671708e-02 -3.364946e-02 -3.053012e-02 -2.739615e-02 -2.426206e-02 -2.115717e-02 -1.809384e-02 -1.509366e-02 -1.216703e-02 -9.328419e-03 -6.586655e-03 -3.949944e-03 -1.425923e-03 9.825038e-04 3.268603e-03 5.433836e-03 7.472187e-03 9.388626e-03 1.117775e-02 1.284729e-02 1.439239e-02 1.582290e-02 1.713450e-02 1.833857e-02 1.943129e-02 2.042512e-02 2.131670e-02 2.211915e-02 2.282951e-02 2.346122e-02 2.401165e-02 2.449428e-02 2.490670e-02 2.526220e-02 2.555850e-02 2.580850e-02 2.600993e-02 2.617518e-02 2.630188e-02 2.640176e-02 2.647228e-02 2.652443e-02 2.655538e-02 2.657534e-02 2.658110e-02 2.658206e-02 2.657453e-02 2.656712e-02 2.655557e-02 2.654769e-02 2.653861e-02 2.653535e-02 
2.678174e-02 2.678596e-02 2.679156e-02 2.680433e-02 2.681697e-02 2.683463e-02 2.684917e-02 2.686515e-02 2.687359e-02 2.687853e-02 2.687009e-02 2.685192e-02 2.681324e-02 2.675736e-02 2.667266e-02 2.656220e-02 2.641353e-02 2.622960e-02 2.599720e-02 2.571927e-02 2.538193e-02 2.498824e-02 2.452378e-02 2.399184e-02 2.337764e-02 2.268481e-02 2.189841e-02 2.102253e-02 2.004234e-02 1.896243e-02 1.776844e-02 1.646551e-02 1.504013e-02 1.349804e-02 1.182704e-02 1.003344e-02 8.106999e-03 6.054535e-03 3.868456e-03 1.556104e-03 -8.866190e-04 -3.451825e-03 -6.139116e-03 -8.939929e-03 -1.184823e-02 -1.485453e-02 -1.794593e-02 -2.111159e-02 -2.433055e-02 -2.759017e-02 -3.086047e-02 -3.412663e-02 -3.734925e-02 -4.051141e-02 -4.356490e-02 -4.649158e-02 -4.923647e-02 -5.178221e-02 -5.407073e-02 -5.608872e-02 -5.778003e-02 -5.913952e-02 -6.011847e-02 -6.072390e-02 -6.091924e-02 -6.072624e-02 -6.012313e-02 -5.914650e-02 -5.778926e-02 -5.610019e-02 -5.408432e-02 -5.179793e-02 -4.925415e-02 -4.651122e-02 -4.358630e-02 -4.053456e-02 -3.737392e-02 -3.415282e-02 -3.088791e-02 -2.761886e-02 -2.436020e-02 -2.114218e-02 -1.797719e-02 -1.488643e-02 -1.188050e-02 -8.972509e-03 -6.171766e-03 -3.484493e-03 -9.190780e-04 1.523901e-03 3.836713e-03 6.023288e-03 8.076426e-03 1.000357e-02 1.179801e-02 1.346986e-02 1.501294e-02 1.643929e-02 1.774327e-02 1.893831e-02 2.001933e-02 2.100060e-02 2.187761e-02 2.266509e-02 2.335903e-02 2.397430e-02 2.450731e-02 2.497280e-02 2.536751e-02 2.570583e-02 2.598472e-02 2.621803e-02 2.640286e-02 2.655237e-02 2.666367e-02 2.674915e-02 2.680580e-02 2.684520e-02 2.686409e-02 2.687319e-02 2.686892e-02 2.686111e-02 2.684574e-02 2.683180e-02 2.681472e-02 2.680265e-02 2.679044e-02 2.678541e-02 
2.698950e-02 2.699432e-02 2.700190e-02 2.701785e-02 2.703506e-02 2.705845e-02 2.708009e-02 2.710430e-02 2.712228e-02 2.713783e-02 2.714127e-02 2.713596e-02 2.711133e-02 2.707040e-02 2.700170e-02 2.690803e-02 2.677707e-02 2.661148e-02 2.639817e-02 2.613977e-02 2.582249e-02 2.544906e-02 2.500514e-02 2.449365e-02 2.389986e-02 2.322698e-02 2.246010e-02 2.160284e-02 2.064036e-02 1.957672e-02 1.839748e-02 1.710721e-02 1.569223e-02 1.415759e-02 1.249090e-02 1.069766e-02 8.767292e-03 6.705721e-03 4.504922e-03 2.171197e-03 -3.000826e-04 -2.902172e-03 -5.635283e-03 -8.492040e-03 -1.146703e-02 -1.455186e-02 -1.773414e-02 -2.100386e-02 -2.434021e-02 -2.773080e-02 -3.114521e-02 -3.456791e-02 -3.795818e-02 -4.129704e-02 -4.453391e-02 -4.764700e-02 -5.057792e-02 -5.330422e-02 -5.576375e-02 -5.793724e-02 -5.976463e-02 -6.123495e-02 -6.229680e-02 -6.295272e-02 -6.316568e-02 -6.295524e-02 -6.230181e-02 -6.124245e-02 -5.977454e-02 -5.794954e-02 -5.577832e-02 -5.332103e-02 -5.059681e-02 -4.766795e-02 -4.455670e-02 -4.132166e-02 -3.798438e-02 -3.459567e-02 -3.117427e-02 -2.776111e-02 -2.437150e-02 -2.103607e-02 -1.776702e-02 -1.458534e-02 -1.150084e-02 -8.526118e-03 -5.669380e-03 -2.936222e-03 -3.338572e-04 2.137756e-03 4.472018e-03 6.673399e-03 8.735728e-03 1.066688e-02 1.246106e-02 1.412869e-02 1.566439e-02 1.708042e-02 1.837184e-02 1.955220e-02 2.061702e-02 2.158066e-02 2.243910e-02 2.320713e-02 2.388117e-02 2.447608e-02 2.498869e-02 2.543367e-02 2.580816e-02 2.612644e-02 2.638583e-02 2.660007e-02 2.676657e-02 2.689838e-02 2.699290e-02 2.706238e-02 2.710408e-02 2.712943e-02 2.713544e-02 2.713266e-02 2.711776e-02 2.710039e-02 2.707678e-02 2.705572e-02 2.703289e-02 2.701624e-02 2.700083e-02 2.699378e-02 
2.711946e-02 2.712497e-02 2.713442e-02 2.715364e-02 2.717528e-02 2.720451e-02 2.723310e-02 2.726567e-02 2.729307e-02 2.731943e-02 2.733468e-02 2.734253e-02 2.733197e-02 2.730641e-02 2.725389e-02 2.717765e-02 2.706476e-02 2.691843e-02 2.672483e-02 2.648724e-02 2.619099e-02 2.583957e-02 2.541757e-02 2.492884e-02 2.435736e-02 2.370743e-02 2.296262e-02 2.212779e-02 2.118632e-02 2.014370e-02 1.898343e-02 1.771160e-02 1.631226e-02 1.479208e-02 1.313607e-02 1.135142e-02 9.424724e-03 7.363556e-03 5.156834e-03 2.812401e-03 3.224343e-04 -2.305010e-03 -5.073326e-03 -7.974170e-03 -1.100507e-02 -1.415709e-02 -1.742021e-02 -2.078427e-02 -2.422986e-02 -2.774472e-02 -3.129828e-02 -3.487518e-02 -3.843244e-02 -4.195098e-02 -4.537540e-02 -4.868324e-02 -5.180865e-02 -5.472793e-02 -5.736933e-02 -5.971221e-02 -6.168590e-02 -6.327893e-02 -6.442995e-02 -6.514309e-02 -6.537354e-02 -6.514555e-02 -6.443484e-02 -6.328627e-02 -6.169558e-02 -5.972426e-02 -5.738361e-02 -5.474446e-02 -5.182722e-02 -4.870389e-02 -4.539790e-02 -4.197535e-02 -3.845841e-02 -3.490276e-02 -3.132719e-02 -2.777495e-02 -2.426111e-02 -2.081651e-02 -1.745315e-02 -1.419068e-02 -1.103903e-02 -8.008427e-03 -5.107616e-03 -2.339274e-03 2.884460e-04 2.778742e-03 5.123725e-03 7.331042e-03 9.392992e-03 1.132050e-02 1.310611e-02 1.476310e-02 1.628438e-02 1.768481e-02 1.895781e-02 2.011924e-02 2.116309e-02 2.210574e-02 2.294179e-02 2.368777e-02 2.433890e-02 2.491152e-02 2.540139e-02 2.582447e-02 2.617696e-02 2.647422e-02 2.671280e-02 2.690734e-02 2.705457e-02 2.716831e-02 2.724538e-02 2.729868e-02 2.732499e-02 2.733626e-02 2.732910e-02 2.731449e-02 2.728876e-02 2.726195e-02 2.722996e-02 2.720191e-02 2.717323e-02 2.715211e-02 2.713340e-02 2.712446e-02 
2.720402e-02 2.721014e-02 2.722167e-02 2.724422e-02 2.727065e-02 2.730591e-02 2.734199e-02 2.738327e-02 2.742082e-02 2.745852e-02 2.748652e-02 2.750828e-02 2.751300e-02 2.750384e-02 2.746903e-02 2.741154e-02 2.731865e-02 2.719326e-02 2.702174e-02 2.680705e-02 2.653469e-02 2.620784e-02 2.581123e-02 2.534833e-02 2.480326e-02 2.417993e-02 2.346199e-02 2.265385e-02 2.173896e-02 2.072225e-02 1.958724e-02 1.833942e-02 1.696274e-02 1.546315e-02 1.382548e-02 1.205606e-02 1.014116e-02 8.087317e-03 5.882957e-03 3.534688e-03 1.034012e-03 -1.612481e-03 -4.409037e-03 -7.348975e-03 -1.043081e-02 -1.364734e-02 -1.698953e-02 -2.044885e-02 -2.400658e-02 -2.765154e-02 -3.135323e-02 -3.509625e-02 -3.883656e-02 -4.255329e-02 -4.618835e-02 -4.971522e-02 -5.306361e-02 -5.620335e-02 -5.905691e-02 -6.159547e-02 -6.374241e-02 -6.547794e-02 -6.673630e-02 -6.751515e-02 -6.776857e-02 -6.751782e-02 -6.674160e-02 -6.548587e-02 -6.375288e-02 -6.160847e-02 -5.907229e-02 -5.622112e-02 -5.308356e-02 -4.973735e-02 -4.621243e-02 -4.257929e-02 -3.886424e-02 -3.512557e-02 -3.138391e-02 -2.768355e-02 -2.403962e-02 -2.048286e-02 -1.702422e-02 -1.368264e-02 -1.046642e-02 -7.384834e-03 -4.444864e-03 -1.648203e-03 9.986467e-04 3.499745e-03 5.848656e-03 8.053708e-03 1.010843e-02 1.202425e-02 1.379473e-02 1.543348e-02 1.693426e-02 1.831213e-02 1.956121e-02 2.069747e-02 2.171548e-02 2.263163e-02 2.344106e-02 2.416024e-02 2.478482e-02 2.533107e-02 2.579515e-02 2.619288e-02 2.652084e-02 2.679423e-02 2.700994e-02 2.718241e-02 2.730872e-02 2.740247e-02 2.746079e-02 2.749638e-02 2.750628e-02 2.750226e-02 2.748117e-02 2.745379e-02 2.741670e-02 2.737972e-02 2.733900e-02 2.730345e-02 2.726871e-02 2.724277e-02 2.722071e-02 2.720966e-02 
2.720652e-02 2.721333e-02 2.722679e-02 2.725270e-02 2.728372e-02 2.732500e-02 2.736832e-02 2.741827e-02 2.746570e-02 2.751473e-02 2.755522e-02 2.759094e-02 2.761073e-02 2.761812e-02 2.760089e-02 2.756249e-02 2.748961e-02 2.738574e-02 2.723654e-02 2.704566e-02 2.679776e-02 2.649682e-02 2.612654e-02 2.569140e-02 2.517422e-02 2.458010e-02 2.389115e-02 2.311317e-02 2.222776e-02 2.124147e-02 2.013563e-02 1.891753e-02 1.756858e-02 1.609671e-02 1.448383e-02 1.273837e-02 1.084326e-02 8.807186e-03 6.614871e-03 4.274951e-03 1.774922e-03 -8.768697e-04 -3.688855e-03 -6.653052e-03 -9.772110e-03 -1.303815e-02 -1.644585e-02 -1.998667e-02 -2.364463e-02 -2.740913e-02 -3.125065e-02 -3.515459e-02 -3.907527e-02 -4.299220e-02 -4.684219e-02 -5.059808e-02 -5.418054e-02 -5.755742e-02 -6.063866e-02 -6.339263e-02 -6.572829e-02 -6.762366e-02 -6.899936e-02 -6.985366e-02 -7.013045e-02 -6.985623e-02 -6.900445e-02 -6.763130e-02 -6.573837e-02 -6.340520e-02 -6.065354e-02 -5.757467e-02 -5.419993e-02 -5.061968e-02 -4.686573e-02 -4.301773e-02 -3.910249e-02 -3.518354e-02 -3.128101e-02 -2.744090e-02 -2.367749e-02 -2.002059e-02 -1.648051e-02 -1.307349e-02 -9.807804e-03 -6.689042e-03 -3.724839e-03 -9.127781e-04 1.739363e-03 4.239807e-03 6.580381e-03 8.773401e-03 1.081038e-02 1.270643e-02 1.445299e-02 1.606699e-02 1.754008e-02 1.889027e-02 2.010967e-02 2.121680e-02 2.220443e-02 2.309114e-02 2.387045e-02 2.456067e-02 2.515606e-02 2.567446e-02 2.611080e-02 2.648222e-02 2.678427e-02 2.703322e-02 2.722511e-02 2.737526e-02 2.748005e-02 2.755378e-02 2.759301e-02 2.761100e-02 2.760434e-02 2.758523e-02 2.755016e-02 2.751028e-02 2.746183e-02 2.741495e-02 2.736552e-02 2.732270e-02 2.728191e-02 2.725135e-02 2.722590e-02 2.721288e-02 
2.716026e-02 2.716770e-02 2.718328e-02 2.721258e-02 2.724850e-02 2.729595e-02 2.734696e-02 2.740589e-02 2.746382e-02 2.752464e-02 2.757845e-02 2.762880e-02 2.766475e-02 2.768962e-02 2.769139e-02 2.767329e-02 2.762223e-02 2.754147e-02 2.741686e-02 2.725181e-02 2.703118e-02 2.675868e-02 2.641818e-02 2.601387e-02 2.552875e-02 2.496757e-02 2.431258e-02 2.356920e-02 2.271913e-02 2.176846e-02 2.069857e-02 1.951620e-02 1.820273e-02 1.676541e-02 1.518600e-02 1.347207e-02 1.160626e-02 9.596157e-03 7.425970e-03 5.102942e-03 2.613790e-03 -3.490558e-05 -2.852661e-03 -5.833669e-03 -8.981964e-03 -1.229221e-02 -1.576065e-02 -1.938144e-02 -2.314011e-02 -2.702842e-02 -3.101778e-02 -3.509481e-02 -3.921339e-02 -4.335206e-02 -4.744493e-02 -5.146054e-02 -5.531399e-02 -5.896495e-02 -6.231515e-02 -6.532157e-02 -6.788397e-02 -6.996807e-02 -7.148720e-02 -7.242984e-02 -7.273756e-02 -7.243264e-02 -7.149277e-02 -6.997642e-02 -6.789497e-02 -6.533525e-02 -6.233132e-02 -5.898364e-02 -5.533496e-02 -5.148382e-02 -4.747025e-02 -4.337942e-02 -3.924252e-02 -3.512569e-02 -3.105010e-02 -2.706215e-02 -2.317493e-02 -1.941728e-02 -1.579720e-02 -1.232938e-02 -9.019444e-03 -5.871366e-03 -2.890272e-03 -7.234483e-05 2.576799e-03 5.066474e-03 7.390265e-03 9.561273e-03 1.157240e-02 1.343927e-02 1.515441e-02 1.673505e-02 1.817370e-02 1.948851e-02 2.067229e-02 2.174356e-02 2.269565e-02 2.354710e-02 2.429188e-02 2.494820e-02 2.551072e-02 2.599711e-02 2.640267e-02 2.674433e-02 2.701798e-02 2.723968e-02 2.740576e-02 2.753133e-02 2.761303e-02 2.766493e-02 2.768386e-02 2.768283e-02 2.765869e-02 2.762341e-02 2.757369e-02 2.752046e-02 2.746019e-02 2.740279e-02 2.734436e-02 2.729382e-02 2.724681e-02 2.721133e-02 2.718245e-02 2.716728e-02 
2.702858e-02 2.703668e-02 2.705422e-02 2.708687e-02 2.712742e-02 2.718091e-02 2.723925e-02 2.730695e-02 2.737494e-02 2.744732e-02 2.751399e-02 2.757873e-02 2.763037e-02 2.767252e-02 2.769286e-02 2.769501e-02 2.766543e-02 2.760791e-02 2.750772e-02 2.736894e-02 2.717564e-02 2.693240e-02 2.662210e-02 2.624998e-02 2.579780e-02 2.527159e-02 2.465206e-02 2.394616e-02 2.313371e-02 2.222263e-02 2.119197e-02 2.005063e-02 1.877718e-02 1.738131e-02 1.584147e-02 1.416789e-02 1.233936e-02 1.036624e-02 8.228353e-03 5.935660e-03 3.469967e-03 8.402896e-04 -1.968239e-03 -4.947943e-03 -8.108455e-03 -1.144343e-02 -1.495460e-02 -1.863618e-02 -2.247843e-02 -2.647423e-02 -3.059793e-02 -3.483791e-02 -3.914786e-02 -4.350777e-02 -4.784685e-02 -5.213350e-02 -5.627206e-02 -6.021947e-02 -6.386091e-02 -6.714821e-02 -6.996108e-02 -7.225989e-02 -7.393867e-02 -7.498420e-02 -7.532431e-02 -7.498685e-02 -7.394391e-02 -7.226778e-02 -6.997147e-02 -6.716119e-02 -6.387626e-02 -6.023731e-02 -5.629212e-02 -5.215590e-02 -4.787128e-02 -4.353433e-02 -3.917623e-02 -3.486815e-02 -3.062968e-02 -2.650752e-02 -2.251290e-02 -1.867180e-02 -1.499100e-02 -1.148056e-02 -8.145954e-03 -4.985732e-03 -2.005983e-03 8.026793e-04 3.432790e-03 5.898998e-03 8.192465e-03 1.033119e-02 1.230536e-02 1.413497e-02 1.580982e-02 1.735092e-02 1.874818e-02 2.002301e-02 2.116581e-02 2.219789e-02 2.311045e-02 2.392432e-02 2.463165e-02 2.525255e-02 2.578013e-02 2.623361e-02 2.660699e-02 2.691848e-02 2.716288e-02 2.735725e-02 2.749707e-02 2.759823e-02 2.765666e-02 2.768708e-02 2.768574e-02 2.766614e-02 2.762469e-02 2.757369e-02 2.750955e-02 2.744345e-02 2.737160e-02 2.730409e-02 2.723686e-02 2.717895e-02 2.712588e-02 2.708573e-02 2.705347e-02 2.703631e-02 
2.684539e-02 2.685411e-02 2.687374e-02 2.690976e-02 2.695517e-02 2.701483e-02 2.708085e-02 2.715756e-02 2.723612e-02 2.732044e-02 2.740065e-02 2.748036e-02 2.754862e-02 2.760887e-02 2.764903e-02 2.767252e-02 2.766607e-02 2.763325e-02 2.755959e-02 2.744895e-02 2.728568e-02 2.707410e-02 2.679737e-02 2.646044e-02 2.604534e-02 2.555779e-02 2.497875e-02 2.431483e-02 2.354604e-02 2.267990e-02 2.169563e-02 2.060163e-02 1.937655e-02 1.802947e-02 1.653878e-02 1.491393e-02 1.313349e-02 1.120674e-02 9.113047e-03 6.860910e-03 4.431328e-03 1.831336e-03 -9.551879e-04 -3.923215e-03 -7.084158e-03 -1.043506e-02 -1.397996e-02 -1.771710e-02 -2.163934e-02 -2.574376e-02 -3.000703e-02 -3.442091e-02 -3.893996e-02 -4.354502e-02 -4.816318e-02 -5.275907e-02 -5.723036e-02 -6.152393e-02 -6.551340e-02 -6.913452e-02 -7.225257e-02 -7.480921e-02 -7.668604e-02 -7.785450e-02 -7.823779e-02 -7.785744e-02 -7.669187e-02 -7.481794e-02 -7.226407e-02 -6.914882e-02 -6.553028e-02 -6.154346e-02 -5.725226e-02 -5.278340e-02 -4.818964e-02 -4.357366e-02 -3.897047e-02 -3.445330e-02 -3.004096e-02 -2.577921e-02 -2.167595e-02 -1.775482e-02 -1.401842e-02 -1.047418e-02 -7.123571e-03 -3.962821e-03 -9.946489e-04 1.792124e-03 4.392669e-03 6.822895e-03 9.075935e-03 1.117060e-02 1.309853e-02 1.488020e-02 1.650644e-02 1.799852e-02 1.934711e-02 2.057369e-02 2.166926e-02 2.265505e-02 2.352275e-02 2.429305e-02 2.495848e-02 2.553895e-02 2.602792e-02 2.644437e-02 2.678261e-02 2.706057e-02 2.727333e-02 2.743770e-02 2.754938e-02 2.762401e-02 2.765775e-02 2.766504e-02 2.764235e-02 2.760291e-02 2.754334e-02 2.747570e-02 2.739657e-02 2.731689e-02 2.723307e-02 2.715497e-02 2.707869e-02 2.701307e-02 2.695379e-02 2.690874e-02 2.687307e-02 2.685377e-02 
2.657448e-02 2.658383e-02 2.660539e-02 2.664463e-02 2.669460e-02 2.676013e-02 2.683338e-02 2.691870e-02 2.700724e-02 2.710301e-02 2.719608e-02 2.729022e-02 2.737435e-02 2.745216e-02 2.751136e-02 2.755572e-02 2.757164e-02 2.756317e-02 2.751538e-02 2.743277e-02 2.729902e-02 2.711930e-02 2.687588e-02 2.657479e-02 2.619689e-02 2.574927e-02 2.521136e-02 2.459148e-02 2.386770e-02 2.304962e-02 2.211404e-02 2.107182e-02 1.989867e-02 1.860653e-02 1.717021e-02 1.560239e-02 1.387737e-02 1.200795e-02 9.968436e-03 7.770974e-03 5.390694e-03 2.838083e-03 9.036595e-05 -2.844591e-03 -5.985523e-03 -9.327777e-03 -1.288306e-02 -1.664958e-02 -2.062756e-02 -2.481595e-02 -2.919729e-02 -3.376674e-02 -3.848131e-02 -4.332546e-02 -4.822266e-02 -5.313906e-02 -5.796003e-02 -6.262934e-02 -6.699867e-02 -7.099521e-02 -7.445540e-02 -7.730983e-02 -7.941161e-02 -8.072554e-02 -8.115549e-02 -8.072822e-02 -7.941691e-02 -7.731783e-02 -7.446593e-02 -7.100840e-02 -6.701428e-02 -6.264754e-02 -5.798051e-02 -5.316202e-02 -4.824776e-02 -4.335286e-02 -3.851064e-02 -3.379812e-02 -2.923033e-02 -2.485070e-02 -2.066361e-02 -1.668691e-02 -1.292127e-02 -9.366774e-03 -6.024913e-03 -2.884268e-03 5.077606e-05 2.798693e-03 5.351837e-03 7.732752e-03 9.931130e-03 1.197164e-02 1.384227e-02 1.556857e-02 1.713782e-02 1.857559e-02 1.986930e-02 2.104400e-02 2.208784e-02 2.302499e-02 2.384469e-02 2.457002e-02 2.519146e-02 2.573084e-02 2.617992e-02 2.655919e-02 2.686160e-02 2.710627e-02 2.728718e-02 2.742203e-02 2.750569e-02 2.755445e-02 2.756382e-02 2.754873e-02 2.750515e-02 2.744666e-02 2.736950e-02 2.728597e-02 2.719238e-02 2.709982e-02 2.700451e-02 2.691639e-02 2.683146e-02 2.675858e-02 2.669338e-02 2.664374e-02 2.660480e-02 2.658353e-02 
2.625005e-02 2.625998e-02 2.628356e-02 2.632606e-02 2.638071e-02 2.645222e-02 2.653292e-02 2.662703e-02 2.672592e-02 2.683343e-02 2.693989e-02 2.704891e-02 2.714967e-02 2.724571e-02 2.732500e-02 2.739115e-02 2.743088e-02 2.744805e-02 2.742803e-02 2.737515e-02 2.727340e-02 2.712777e-02 2.692083e-02 2.665843e-02 2.632174e-02 2.591761e-02 2.542580e-02 2.485435e-02 2.418165e-02 2.341698e-02 2.253741e-02 2.155343e-02 2.044093e-02 1.921138e-02 1.783968e-02 1.633786e-02 1.468014e-02 1.287839e-02 1.090659e-02 8.775525e-03 6.459598e-03 3.967279e-03 1.274512e-03 -1.613796e-03 -4.718431e-03 -8.038926e-03 -1.158999e-02 -1.537538e-02 -1.939929e-02 -2.366732e-02 -2.816640e-02 -3.289840e-02 -3.782372e-02 -4.293117e-02 -4.814409e-02 -5.342691e-02 -5.865803e-02 -6.376965e-02 -6.859747e-02 -7.304594e-02 -7.692862e-02 -8.014671e-02 -8.253171e-02 -8.402309e-02 -8.451564e-02 -8.402614e-02 -8.253774e-02 -8.015577e-02 -7.694051e-02 -7.306075e-02 -6.861492e-02 -6.378985e-02 -5.868066e-02 -5.345210e-02 -4.817150e-02 -4.296093e-02 -3.785545e-02 -3.293218e-02 -2.820186e-02 -2.370445e-02 -1.943770e-02 -1.541501e-02 -1.163043e-02 -8.080069e-03 -4.759873e-03 -1.655406e-03 1.233113e-03 3.926221e-03 6.419218e-03 8.735932e-03 1.086807e-02 1.284102e-02 1.464414e-02 1.630329e-02 1.780669e-02 1.917998e-02 2.041123e-02 2.152541e-02 2.251113e-02 2.339239e-02 2.415877e-02 2.483311e-02 2.540618e-02 2.589953e-02 2.630517e-02 2.664329e-02 2.690706e-02 2.711526e-02 2.726211e-02 2.736498e-02 2.741891e-02 2.743990e-02 2.742363e-02 2.738472e-02 2.731933e-02 2.724072e-02 2.714531e-02 2.704512e-02 2.693662e-02 2.683063e-02 2.672354e-02 2.662503e-02 2.653128e-02 2.645089e-02 2.637968e-02 2.632530e-02 2.628306e-02 2.625974e-02 
2.583688e-02 2.584737e-02 2.587278e-02 2.591830e-02 2.597728e-02 2.605434e-02 2.614194e-02 2.624424e-02 2.635273e-02 2.647125e-02 2.659020e-02 2.671325e-02 2.682961e-02 2.694296e-02 2.704121e-02 2.712825e-02 2.719059e-02 2.723252e-02 2.723908e-02 2.721517e-02 2.714429e-02 2.703221e-02 2.686077e-02 2.663685e-02 2.634059e-02 2.598024e-02 2.553412e-02 2.501207e-02 2.439060e-02 2.368121e-02 2.285858e-02 2.193595e-02 2.088615e-02 1.972398e-02 1.842051e-02 1.699172e-02 1.540708e-02 1.368298e-02 1.178766e-02 9.736765e-03 7.497870e-03 5.084357e-03 2.464144e-03 -3.534612e-04 -3.398475e-03 -6.667350e-03 -1.018509e-02 -1.395469e-02 -1.799117e-02 -2.230257e-02 -2.688600e-02 -3.174905e-02 -3.685917e-02 -4.221273e-02 -4.773288e-02 -5.338961e-02 -5.904869e-02 -6.464039e-02 -6.997159e-02 -7.493350e-02 -7.929712e-02 -8.294226e-02 -8.565616e-02 -8.736133e-02 -8.792400e-02 -8.736397e-02 -8.566137e-02 -8.295017e-02 -7.930751e-02 -7.494660e-02 -6.998708e-02 -6.465857e-02 -5.906919e-02 -5.341276e-02 -4.775827e-02 -4.224065e-02 -3.688920e-02 -3.178138e-02 -2.692020e-02 -2.233872e-02 -1.802881e-02 -1.399378e-02 -1.022519e-02 -6.708331e-03 -3.439888e-03 -3.951619e-04 2.422577e-03 5.043076e-03 7.457243e-03 9.696923e-03 1.174891e-02 1.364541e-02 1.537093e-02 1.695704e-02 1.838748e-02 1.969261e-02 2.085655e-02 2.190810e-02 2.283253e-02 2.365691e-02 2.436806e-02 2.499123e-02 2.551496e-02 2.596265e-02 2.632455e-02 2.662226e-02 2.684756e-02 2.702029e-02 2.713360e-02 2.720560e-02 2.723056e-02 2.722496e-02 2.718392e-02 2.712238e-02 2.703608e-02 2.693849e-02 2.682574e-02 2.670992e-02 2.658735e-02 2.646884e-02 2.635070e-02 2.624255e-02 2.614056e-02 2.605324e-02 2.597643e-02 2.591768e-02 2.587238e-02 2.584717e-02 