# vtk DataFile Version 2.0
Comment goes here
ASCII

DATASET STRUCTURED_POINTS
DIMENSIONS    64   64   1

ORIGIN    0.000   0.000   0.000
SPACING   0.0781250.078125   1.000

POINT_DATA   4096
SCALARS Omega double
LOOKUP_TABLE default

6.546839e-15 1.122692e-14 1.425475e-14 1.500264e-14 1.665813e-14 1.577399e-14 1.341626e-14 7.530640e-15 2.176527e-16 9.198650e-16 6.091675e-15 6.794310e-15 1.061830e-14 3.665994e-15 2.051248e-16 -1.444395e-15 -8.352905e-15 2.311005e-15 -7.081654e-15 -3.504845e-15 -1.144129e-14 -1.569890e-14 -9.470447e-15 -1.920119e-14 -1.595259e-14 -2.410342e-14 -1.780780e-14 -3.394945e-15 -1.716822e-15 -1.725229e-15 -3.157151e-15 -6.370103e-16 5.578351e-15 4.487642e-15 7.297098e-15 8.103060e-15 1.978049e-15 1.528090e-14 1.284748e-14 3.527303e-15 9.039760e-15 -6.247578e-15 -9.688661e-15 -6.164134e-15 1.967361e-15 6.543755e-15 2.904005e-15 -5.168137e-15 -3.873154e-15 -2.079134e-15 1.294838e-14 2.645423e-15 2.375754e-15 6.696565e-15 1.818561e-15 -3.819800e-16 -6.384888e-15 -1.155809e-14 -9.723414e-15 -3.292651e-15 -5.911864e-15 -3.185563e-15 -3.246988e-16 1.940124e-15 
3.374954e-04 3.479195e-04 3.674219e-04 3.965055e-04 4.347452e-04 4.809617e-04 5.337806e-04 5.904966e-04 6.489038e-04 7.057329e-04 7.588040e-04 8.060526e-04 8.463225e-04 8.803759e-04 9.081863e-04 9.336459e-04 9.566782e-04 9.830956e-04 1.011109e-03 1.046626e-03 1.085249e-03 1.131489e-03 1.178895e-03 1.229845e-03 1.277639e-03 1.322647e-03 1.359992e-03 1.388940e-03 1.407500e-03 1.415137e-03 1.412188e-03 1.399393e-03 1.377833e-03 1.349827e-03 1.315831e-03 1.279111e-03 1.239203e-03 1.199101e-03 1.158115e-03 1.117822e-03 1.078217e-03 1.039002e-03 1.001130e-03 9.630096e-04 9.257661e-04 8.881384e-04 8.498424e-04 8.121219e-04 7.717113e-04 7.340359e-04 6.921263e-04 6.556194e-04 6.143640e-04 5.803990e-04 5.420233e-04 5.111758e-04 4.768231e-04 4.490385e-04 4.193570e-04 3.954509e-04 3.721943e-04 3.550780e-04 3.418438e-04 3.361626e-04 
6.794240e-04 7.044699e-04 7.489667e-04 8.143191e-04 8.998874e-04 1.003199e-03 1.121192e-03 1.247671e-03 1.377421e-03 1.502749e-03 1.618544e-03 1.719870e-03 1.804403e-03 1.873729e-03 1.928718e-03 1.977882e-03 2.022441e-03 2.074707e-03 2.132242e-03 2.206984e-03 2.290646e-03 2.391783e-03 2.497296e-03 2.611171e-03 2.719238e-03 2.821531e-03 2.907269e-03 2.974620e-03 3.018735e-03 3.038581e-03 3.034448e-03 3.008098e-03 2.961854e-03 2.900690e-03 2.826009e-03 2.744704e-03 2.656270e-03 2.567168e-03 2.476042e-03 2.386591e-03 2.298388e-03 2.211160e-03 2.126287e-03 2.040346e-03 1.955462e-03 1.868322e-03 1.778940e-03 1.689062e-03 1.593245e-03 1.502476e-03 1.403711e-03 1.317551e-03 1.223577e-03 1.147841e-03 1.065449e-03 1.002039e-03 9.331484e-04 8.800548e-04 8.234924e-04 7.794895e-04 7.362717e-04 7.053989e-04 6.818049e-04 6.734598e-04 
1.017296e-03 1.072171e-03 1.160291e-03 1.284727e-03 1.444766e-03 1.636286e-03 1.853329e-03 2.084245e-03 2.318475e-03 2.541174e-03 2.742280e-03 2.912378e-03 3.047897e-03 3.152064e-03 3.228700e-03 3.293683e-03 3.352215e-03 3.426134e-03 3.513807e-03 3.635288e-03 3.777678e-03 3.954388e-03 4.143032e-03 4.348728e-03 4.546571e-03 4.734603e-03 4.893959e-03 5.019486e-03 5.103350e-03 5.142327e-03 5.138057e-03 5.093116e-03 5.012546e-03 4.905305e-03 4.774239e-03 4.631782e-03 4.477026e-03 4.321137e-03 4.161767e-03 4.004653e-03 3.849269e-03 3.694298e-03 3.542148e-03 3.386465e-03 3.230267e-03 3.068082e-03 2.898862e-03 2.726486e-03 2.541319e-03 2.363390e-03 2.172148e-03 2.003515e-03 1.826487e-03 1.684483e-03 1.539530e-03 1.431838e-03 1.323218e-03 1.244723e-03 1.165625e-03 1.108160e-03 1.053535e-03 1.018049e-03 9.941403e-04 9.940544e-04 
1.375058e-03 1.486902e-03 1.652608e-03 1.878915e-03 2.165978e-03 2.507188e-03 2.891463e-03 3.297209e-03 3.703585e-03 4.082451e-03 4.414498e-03 4.682151e-03 4.880700e-03 5.016407e-03 5.101116e-03 5.162955e-03 5.218094e-03 5.302197e-03 5.419770e-03 5.600031e-03 5.827501e-03 6.118299e-03 6.439492e-03 6.793430e-03 7.140725e-03 7.473518e-03 7.760162e-03 7.989742e-03 8.147704e-03 8.228223e-03 8.232882e-03 8.166101e-03 8.036711e-03 7.859153e-03 7.640204e-03 7.399403e-03 7.137635e-03 6.872627e-03 6.601476e-03 6.334027e-03 6.068016e-03 5.802302e-03 5.537822e-03 5.264300e-03 4.984417e-03 4.687445e-03 4.372934e-03 4.044311e-03 3.692076e-03 3.346807e-03 2.985003e-03 2.664502e-03 2.344877e-03 2.095501e-03 1.860693e-03 1.701494e-03 1.556887e-03 1.470146e-03 1.389634e-03 1.344309e-03 1.302277e-03 1.285581e-03 1.282489e-03 1.311850e-03 
1.741254e-03 1.977513e-03 2.301812e-03 2.728190e-03 3.258375e-03 3.881335e-03 4.575061e-03 5.298889e-03 6.010951e-03 6.658026e-03 7.203070e-03 7.614435e-03 7.887161e-03 8.035164e-03 8.088447e-03 8.098875e-03 8.105824e-03 8.169556e-03 8.307691e-03 8.564462e-03 8.920590e-03 9.395891e-03 9.938597e-03 1.054526e-02 1.115069e-02 1.173474e-02 1.224437e-02 1.265522e-02 1.294388e-02 1.309658e-02 1.311809e-02 1.301463e-02 1.280311e-02 1.250855e-02 1.214350e-02 1.174149e-02 1.130452e-02 1.086140e-02 1.040785e-02 9.957900e-03 9.508282e-03 9.054593e-03 8.597513e-03 8.118748e-03 7.619612e-03 7.082604e-03 6.503749e-03 5.890039e-03 5.227780e-03 4.569098e-03 3.887081e-03 3.276694e-03 2.691708e-03 2.239523e-03 1.849490e-03 1.605966e-03 1.422840e-03 1.348924e-03 1.305956e-03 1.320598e-03 1.343594e-03 1.397965e-03 1.467896e-03 1.580011e-03 
2.183708e-03 2.666716e-03 3.297622e-03 4.104908e-03 5.094352e-03 6.245937e-03 7.515609e-03 8.824949e-03 1.008997e-02 1.120938e-02 1.211235e-02 1.274281e-02 1.309856e-02 1.321139e-02 1.315034e-02 1.301255e-02 1.288519e-02 1.286945e-02 1.301182e-02 1.337459e-02 1.393866e-02 1.471966e-02 1.564150e-02 1.668163e-02 1.773709e-02 1.876175e-02 1.966705e-02 2.040576e-02 2.093488e-02 2.122995e-02 2.129548e-02 2.114205e-02 2.079873e-02 2.030568e-02 1.968965e-02 1.900275e-02 1.825578e-02 1.749349e-02 1.671273e-02 1.593687e-02 1.515737e-02 1.436952e-02 1.356536e-02 1.271551e-02 1.181355e-02 1.082645e-02 9.748405e-03 8.583727e-03 7.326145e-03 6.056942e-03 4.762404e-03 3.598414e-03 2.523403e-03 1.710429e-03 1.067261e-03 7.167516e-04 5.245845e-04 5.436655e-04 6.417079e-04 8.351664e-04 1.039549e-03 1.276259e-03 1.522265e-03 1.818080e-03 
2.727243e-03 3.713588e-03 4.953884e-03 6.503785e-03 8.374533e-03 1.052721e-02 1.287144e-02 1.525517e-02 1.751162e-02 1.945054e-02 2.094042e-02 2.188696e-02 2.230162e-02 2.225809e-02 2.190562e-02 2.142763e-02 2.100088e-02 2.079694e-02 2.091124e-02 2.143297e-02 2.233825e-02 2.363451e-02 2.519795e-02 2.697598e-02 2.879637e-02 3.056960e-02 3.214639e-02 3.343630e-02 3.436844e-02 3.489368e-02 3.502286e-02 3.477182e-02 3.419210e-02 3.335469e-02 3.230530e-02 3.113536e-02 2.986305e-02 2.856285e-02 2.723071e-02 2.590016e-02 2.455882e-02 2.319189e-02 2.178438e-02 2.028282e-02 1.866788e-02 1.688332e-02 1.490919e-02 1.275438e-02 1.041160e-02 8.021291e-03 5.591655e-03 3.386867e-03 1.394210e-03 -1.070810e-04 -1.213929e-03 -1.756312e-03 -1.925390e-03 -1.688872e-03 -1.260000e-03 -6.658300e-04 -4.796931e-05 5.969408e-04 1.236217e-03 1.930701e-03 
3.557553e-03 5.500163e-03 7.884133e-03 1.081303e-02 1.430616e-02 1.828377e-02 2.256330e-02 2.685157e-02 3.082532e-02 3.413465e-02 3.654407e-02 3.790548e-02 3.827187e-02 3.781144e-02 3.683124e-02 3.567626e-02 3.468339e-02 3.413593e-02 3.420764e-02 3.500854e-02 3.650499e-02 3.866487e-02 4.129624e-02 4.428052e-02 4.734875e-02 5.033550e-02 5.300052e-02 5.518754e-02 5.677403e-02 5.767908e-02 5.791171e-02 5.749911e-02 5.652533e-02 5.510328e-02 5.331961e-02 5.131586e-02 4.913911e-02 4.690477e-02 4.461661e-02 4.233083e-02 4.002066e-02 3.766875e-02 3.522795e-02 3.261237e-02 2.976583e-02 2.658422e-02 2.302949e-02 1.909726e-02 1.480554e-02 1.037761e-02 5.893323e-03 1.799733e-03 -1.841490e-03 -4.558539e-03 -6.451202e-03 -7.260885e-03 -7.287254e-03 -6.539367e-03 -5.387181e-03 -3.945759e-03 -2.466974e-03 -9.866724e-04 4.456492e-04 1.926681e-03 
4.843358e-03 8.579410e-03 1.307528e-02 1.851491e-02 2.492023e-02 3.212532e-02 3.976584e-02 4.728660e-02 5.408043e-02 5.952595e-02 6.322706e-02 6.497932e-02 6.495112e-02 6.351432e-02 6.127910e-02 5.887824e-02 5.691726e-02 5.584240e-02 5.592670e-02 5.727787e-02 5.980980e-02 6.341123e-02 6.775615e-02 7.263670e-02 7.762066e-02 8.244619e-02 8.673459e-02 9.023164e-02 9.275089e-02 9.415129e-02 9.445552e-02 9.370397e-02 9.203200e-02 8.963297e-02 8.663916e-02 8.329525e-02 7.966893e-02 7.595260e-02 7.215073e-02 6.834464e-02 6.449650e-02 6.056118e-02 5.646264e-02 5.204761e-02 4.720603e-02 4.175988e-02 3.561503e-02 2.875972e-02 2.121036e-02 1.333998e-02 5.328164e-03 -2.066695e-03 -8.618629e-03 -1.353626e-02 -1.684791e-02 -1.816514e-02 -1.791079e-02 -1.620455e-02 -1.366328e-02 -1.059649e-02 -7.447693e-03 -4.346499e-03 -1.373796e-03 1.623472e-03 
7.044413e-03 1.395227e-02 2.214260e-02 3.192117e-02 4.329375e-02 5.591631e-02 6.908171e-02 8.176502e-02 9.286768e-02 1.013316e-01 1.065376e-01 1.082640e-01 1.069569e-01 1.034120e-01 9.880183e-02 9.426799e-02 9.084114e-02 8.917858e-02 8.963613e-02 9.220908e-02 9.665718e-02 1.026548e-01 1.096670e-01 1.173253e-01 1.250107e-01 1.323433e-01 1.387915e-01 1.439940e-01 1.476765e-01 1.496385e-01 1.498998e-01 1.485255e-01 1.457138e-01 1.417519e-01 1.368579e-01 1.313916e-01 1.254884e-01 1.194354e-01 1.132609e-01 1.071007e-01 1.008819e-01 9.455669e-02 8.795354e-02 8.083937e-02 7.297890e-02 6.405783e-02 5.389717e-02 4.241581e-02 2.966760e-02 1.621068e-02 2.427563e-03 -1.042629e-02 -2.182837e-02 -3.041730e-02 -3.609703e-02 -3.820880e-02 -3.738069e-02 -3.390073e-02 -2.881573e-02 -2.278097e-02 -1.658162e-02 -1.052619e-02 -4.752570e-03 9.810231e-04 
1.066285e-02 2.300551e-02 3.743480e-02 5.442350e-02 7.389724e-02 9.515557e-02 1.168622e-01 1.371818e-01 1.542095e-01 1.662389e-01 1.724060e-01 1.726240e-01 1.679644e-01 1.600620e-01 1.511170e-01 1.431302e-01 1.377724e-01 1.359004e-01 1.378209e-01 1.431443e-01 1.511947e-01 1.612019e-01 1.722159e-01 1.836992e-01 1.947757e-01 2.050524e-01 2.138502e-01 2.207434e-01 2.254131e-01 2.275721e-01 2.272868e-01 2.246408e-01 2.199100e-01 2.135425e-01 2.058132e-01 1.973052e-01 1.881709e-01 1.788696e-01 1.694207e-01 1.600179e-01 1.505621e-01 1.409483e-01 1.309289e-01 1.201230e-01 1.081362e-01 9.446275e-02 7.873127e-02 6.076828e-02 4.054032e-02 1.887206e-02 -3.665967e-03 -2.506082e-02 -4.426850e-02 -5.901013e-02 -6.880002e-02 -7.250782e-02 -7.092001e-02 -6.460994e-02 -5.527201e-02 -4.418417e-02 -3.271447e-02 -2.151412e-02 -1.084234e-02 -3.299176e-04 
1.662392e-02 3.777140e-02 6.216775e-02 9.046878e-02 1.223697e-01 1.564831e-01 1.903678e-01 2.208582e-01 2.448142e-01 2.596634e-01 2.643893e-01 2.593837e-01 2.469710e-01 2.303600e-01 2.136099e-01 2.002272e-01 1.928321e-01 1.923646e-01 1.986631e-01 2.102728e-01 2.254304e-01 2.423296e-01 2.592969e-01 2.755514e-01 2.901152e-01 3.028324e-01 3.131142e-01 3.206701e-01 3.252281e-01 3.265019e-01 3.245927e-01 3.196158e-01 3.119068e-01 3.020374e-01 2.903740e-01 2.776770e-01 2.641872e-01 2.505330e-01 2.367694e-01 2.232141e-01 2.096886e-01 1.961296e-01 1.820564e-01 1.669759e-01 1.501657e-01 1.308189e-01 1.082838e-01 8.208798e-02 5.209162e-02 1.929404e-02 -1.551221e-02 -4.926195e-02 -8.016103e-02 -1.043724e-01 -1.208122e-01 -1.273526e-01 -1.249135e-01 -1.143646e-01 -9.837115e-02 -7.920211e-02 -5.917801e-02 -3.955459e-02 -2.081811e-02 -2.441652e-03 
2.590189e-02 6.070441e-02 1.002784e-01 1.453948e-01 1.951857e-01 2.469914e-01 2.965110e-01 3.385242e-01 3.681778e-01 3.819535e-01 3.790281e-01 3.608718e-01 3.320181e-01 2.984399e-01 2.676102e-01 2.457706e-01 2.370517e-01 2.420926e-01 2.592769e-01 2.846190e-01 3.138346e-01 3.429780e-01 3.689262e-01 3.908276e-01 4.077837e-01 4.207215e-01 4.295637e-01 4.346391e-01 4.360609e-01 4.336020e-01 4.276040e-01 4.181754e-01 4.056977e-01 3.909270e-01 3.741458e-01 3.564527e-01 3.379632e-01 3.195993e-01 3.013164e-01 2.835434e-01 2.660427e-01 2.486957e-01 2.308953e-01 2.119865e-01 1.909226e-01 1.665953e-01 1.378431e-01 1.037771e-01 6.363436e-02 1.840313e-02 -3.148553e-02 -8.168607e-02 -1.293255e-01 -1.681924e-01 -1.958274e-01 -2.082452e-01 -2.060231e-01 -1.902619e-01 -1.649172e-01 -1.337868e-01 -1.007216e-01 -6.801051e-02 -3.660830e-02 -5.832739e-03 
3.985618e-02 9.461316e-02 1.559021e-01 2.243311e-01 2.978209e-01 3.714750e-01 4.380636e-01 4.895219e-01 5.190777e-01 5.226813e-01 5.003727e-01 4.550941e-01 3.942943e-01 3.282609e-01 2.710069e-01 2.344679e-01 2.258034e-01 2.448165e-01 2.862944e-01 3.406088e-01 3.978896e-01 4.496569e-01 4.901141e-01 5.185075e-01 5.350500e-01 5.432228e-01 5.446202e-01 5.410624e-01 5.335184e-01 5.222066e-01 5.078479e-01 4.906320e-01 4.709643e-01 4.495545e-01 4.265823e-01 4.031708e-01 3.793780e-01 3.562740e-01 3.337950e-01 3.126213e-01 2.923446e-01 2.731534e-01 2.539638e-01 2.343161e-01 2.125282e-01 1.872011e-01 1.565565e-01 1.187359e-01 7.200625e-02 1.641081e-02 -4.892347e-02 -1.184397e-01 -1.881326e-01 -2.478302e-01 -2.932533e-01 -3.167241e-01 -3.177282e-01 -2.970406e-01 -2.601217e-01 -2.128858e-01 -1.614564e-01 -1.098151e-01 -5.977397e-02 -1.062101e-02 
5.965151e-02 1.420002e-01 2.324797e-01 3.308725e-01 4.327314e-01 5.294726e-01 6.096981e-01 6.621993e-01 6.792961e-01 6.581193e-01 6.002367e-01 5.083316e-01 3.908787e-01 2.638540e-01 1.544554e-01 8.767450e-02 7.810563e-02 1.243742e-01 2.136658e-01 3.245239e-01 4.355181e-01 5.293017e-01 5.951170e-01 6.333601e-01 6.465072e-01 6.437446e-01 6.295109e-01 6.083758e-01 5.830089e-01 5.542821e-01 5.242364e-01 4.932887e-01 4.620772e-01 4.313873e-01 4.008175e-01 3.717271e-01 3.434820e-01 3.174836e-01 2.932402e-01 2.716042e-01 2.520891e-01 2.350229e-01 2.193302e-01 2.049829e-01 1.900240e-01 1.733677e-01 1.524124e-01 1.240906e-01 8.401173e-02 2.949106e-02 -4.545958e-02 -1.349133e-01 -2.333196e-01 -3.241002e-01 -3.991832e-01 -4.443571e-01 -4.564487e-01 -4.348943e-01 -3.866433e-01 -3.202500e-01 -2.451498e-01 -1.679497e-01 -9.207534e-02 -1.711650e-02 
8.642465e-02 2.044010e-01 3.311870e-01 4.644270e-01 5.954602e-01 7.101993e-01 7.924551e-01 8.299061e-01 8.187983e-01 7.622533e-01 6.622185e-01 5.106553e-01 3.051237e-01 6.618415e-02 -1.513122e-01 -2.908350e-01 -3.176406e-01 -2.317777e-01 -6.028399e-02 1.518377e-01 3.602288e-01 5.308123e-01 6.442450e-01 7.031669e-01 7.153413e-01 6.993042e-01 6.641454e-01 6.179759e-01 5.655335e-01 5.093610e-01 4.539118e-01 4.010737e-01 3.523972e-01 3.084649e-01 2.682302e-01 2.322868e-01 1.992549e-01 1.703620e-01 1.450175e-01 1.246858e-01 1.088575e-01 9.917988e-02 9.398215e-02 9.520462e-02 1.002969e-01 1.093710e-01 1.194310e-01 1.249915e-01 1.175947e-01 8.703412e-02 1.564437e-02 -9.260910e-02 -2.297316e-01 -3.651843e-01 -4.861924e-01 -5.681757e-01 -6.046482e-01 -5.920774e-01 -5.378676e-01 -4.530119e-01 -3.510846e-01 -2.425538e-01 -1.335889e-01 -2.485502e-02 
1.205152e-01 2.813501e-01 4.495276e-01 6.183847e-01 7.725646e-01 8.910700e-01 9.552157e-01 9.602601e-01 9.206088e-01 8.560030e-01 7.596282e-01 5.775454e-01 2.585222e-01 -1.776644e-01 -6.187234e-01 -9.357060e-01 -1.044552e+00 -9.327020e-01 -6.484732e-01 -2.799748e-01 8.714438e-02 3.899560e-01 5.955267e-01 7.104313e-01 7.466947e-01 7.364943e-01 6.920243e-01 6.247435e-01 5.420511e-01 4.489002e-01 3.560631e-01 2.697722e-01 1.942571e-01 1.312301e-01 7.758936e-02 3.332138e-02 -5.754032e-03 -3.828105e-02 -6.589732e-02 -8.648939e-02 -9.949175e-02 -1.021622e-01 -9.408397e-02 -7.038785e-02 -3.183611e-02 2.563651e-02 9.944574e-02 1.810695e-01 2.531810e-01 2.885783e-01 2.369493e-01 9.562333e-02 -1.154185e-01 -3.297163e-01 -5.210412e-01 -6.559462e-01 -7.327459e-01 -7.448816e-01 -6.975800e-01 -6.014260e-01 -4.741396e-01 -3.311602e-01 -1.831405e-01 -3.315748e-02 
1.616089e-01 3.697489e-01 5.800468e-01 7.784583e-01 9.404206e-01 1.039262e+00 1.064189e+00 1.042388e+00 1.040409e+00 1.114244e+00 1.215659e+00 1.152283e+00 7.344452e-01 -2.541561e-02 -9.008225e-01 -1.616569e+00 -1.985262e+00 -1.947724e+00 -1.569711e+00 -1.007872e+00 -4.135747e-01 1.069934e-01 4.981757e-01 7.609168e-01 9.026282e-01 9.632436e-01 9.561283e-01 8.939895e-01 7.879696e-01 6.518072e-01 5.072594e-01 3.742778e-01 2.629786e-01 1.774925e-01 1.106309e-01 5.789318e-02 9.210067e-03 -3.632290e-02 -8.071318e-02 -1.195196e-01 -1.484902e-01 -1.601310e-01 -1.507341e-01 -1.083236e-01 -2.990455e-02 9.456021e-02 2.661403e-01 4.697330e-01 6.726892e-01 8.083945e-01 7.541692e-01 4.912392e-01 8.650433e-02 -2.779825e-01 -5.428425e-01 -7.044354e-01 -8.104512e-01 -8.565689e-01 -8.346808e-01 -7.434556e-01 -6.002920e-01 -4.255299e-01 -2.362655e-01 -4.013021e-02 
2.080004e-01 4.634884e-01 7.106926e-01 9.248068e-01 1.071485e+00 1.127007e+00 1.116334e+00 1.152265e+00 1.419212e+00 2.032084e+00 2.807875e+00 3.216234e+00 2.774726e+00 1.525709e+00 -9.007257e-02 -1.556593e+00 -2.533495e+00 -2.849495e+00 -2.534643e+00 -1.826626e+00 -9.577525e-01 -8.458673e-02 7.024814e-01 1.354800e+00 1.810554e+00 2.094014e+00 2.215839e+00 2.195339e+00 2.063172e+00 1.856961e+00 1.621780e+00 1.410728e+00 1.243421e+00 1.133015e+00 1.060624e+00 1.013036e+00 9.631680e-01 9.044822e-01 8.284383e-01 7.409423e-01 6.551029e-01 5.823181e-01 5.440033e-01 5.574687e-01 6.435405e-01 8.216534e-01 1.100339e+00 1.452094e+00 1.812122e+00 2.032075e+00 1.795144e+00 1.054932e+00 6.638415e-02 -6.351574e-01 -8.703140e-01 -8.585875e-01 -8.667931e-01 -9.059483e-01 -9.176241e-01 -8.522897e-01 -7.109185e-01 -5.141193e-01 -2.867799e-01 -4.370271e-02 
2.573106e-01 5.545686e-01 8.270161e-01 1.036705e+00 1.144099e+00 1.151334e+00 1.176081e+00 1.513436e+00 2.566123e+00 4.503422e+00 6.784027e+00 8.183817e+00 7.759157e+00 5.801898e+00 3.157971e+00 6.018050e-01 -1.411940e+00 -2.555587e+00 -2.655621e+00 -1.974106e+00 -7.938257e-01 7.127092e-01 2.392739e+00 3.968977e+00 5.165566e+00 5.930227e+00 6.292608e+00 6.308741e+00 6.069214e+00 5.684984e+00 5.233440e+00 4.845085e+00 4.555627e+00 4.392552e+00 4.316575e+00 4.289066e+00 4.246415e+00 4.162933e+00 4.017602e+00 3.818482e+00 3.596435e+00 3.370408e+00 3.188283e+00 3.071628e+00 3.071421e+00 3.204231e+00 3.493041e+00 3.891242e+00 4.252450e+00 4.279053e+00 3.240190e+00 1.015978e+00 -1.550217e+00 -2.928521e+00 -2.575215e+00 -1.643408e+00 -1.085653e+00 -9.232755e-01 -9.261652e-01 -8.996226e-01 -7.830309e-01 -5.815798e-01 -3.261027e-01 -4.099496e-02 
3.058307e-01 6.340734e-01 9.156148e-01 1.100072e+00 1.156438e+00 1.156234e+00 1.402507e+00 2.509483e+00 5.197580e+00 9.563730e+00 1.423322e+01 1.678348e+01 1.585604e+01 1.276826e+01 9.086933e+00 5.548501e+00 2.575421e+00 3.593404e-01 -4.761177e-01 3.591017e-02 1.676150e+00 4.368778e+00 7.979631e+00 1.148353e+01 1.403099e+01 1.559786e+01 1.626972e+01 1.625421e+01 1.572308e+01 1.494244e+01 1.401367e+01 1.319687e+01 1.257413e+01 1.218673e+01 1.199464e+01 1.190203e+01 1.180381e+01 1.164046e+01 1.135792e+01 1.094120e+01 1.045023e+01 9.882414e+00 9.364851e+00 8.866524e+00 8.506526e+00 8.295070e+00 8.222567e+00 8.239988e+00 8.011325e+00 7.087570e+00 3.842711e+00 -2.112607e+00 -8.245566e+00 -1.070855e+01 -8.078879e+00 -4.287272e+00 -1.975946e+00 -1.079036e+00 -8.983142e-01 -8.805439e-01 -8.029035e-01 -6.162520e-01 -3.474272e-01 -3.047042e-02 
3.503313e-01 6.950863e-01 9.682102e-01 1.111713e+00 1.126067e+00 1.212422e+00 1.971530e+00 4.469250e+00 9.741635e+00 1.740038e+01 2.437704e+01 2.655202e+01 2.283237e+01 1.798911e+01 1.408748e+01 1.008266e+01 7.956512e+00 6.186824e+00 5.161560e+00 5.911631e+00 8.467356e+00 1.303430e+01 2.027462e+01 2.632687e+01 2.986304e+01 3.196008e+01 3.267327e+01 3.281326e+01 3.211123e+01 3.130677e+01 2.994156e+01 2.855401e+01 2.736582e+01 2.629286e+01 2.560486e+01 2.500610e+01 2.451464e+01 2.396180e+01 2.336593e+01 2.251518e+01 2.157173e+01 2.033939e+01 1.917086e+01 1.782393e+01 1.647114e+01 1.526357e+01 1.380271e+01 1.250249e+01 1.022156e+01 6.855496e+00 3.321048e-01 -1.247755e+01 -2.548783e+01 -2.972198e+01 -2.137400e+01 -1.091869e+01 -4.475261e+00 -1.726807e+00 -9.444986e-01 -8.182124e-01 -7.675847e-01 -6.106545e-01 -3.454855e-01 -1.097707e-02 
3.865782e-01 7.322241e-01 9.812124e-01 1.074891e+00 1.068834e+00 1.346913e+00 2.885505e+00 7.231248e+00 1.548141e+01 2.589436e+01 3.236782e+01 2.865323e+01 1.545924e+01 1.219578e+01 1.357515e+01 5.638431e+00 6.612474e+00 1.201610e+01 1.357920e+01 1.587622e+01 1.942070e+01 2.483678e+01 3.834268e+01 4.402941e+01 4.192010e+01 3.999747e+01 3.790673e+01 3.813398e+01 3.801857e+01 4.098957e+01 4.131406e+01 4.192237e+01 4.106323e+01 3.872519e+01 3.698186e+01 3.431336e+01 3.254252e+01 3.118508e+01 3.152805e+01 3.150128e+01 3.173666e+01 3.052597e+01 2.944214e+01 2.697663e+01 2.336643e+01 2.085149e+01 1.599616e+01 1.213314e+01 6.017035e+00 -1.249569e+00 -5.011255e+00 -2.276906e+01 -5.254187e+01 -6.303878e+01 -4.588596e+01 -2.395017e+01 -9.805447e+00 -3.379731e+00 -1.252248e+00 -7.733724e-01 -6.936299e-01 -5.680743e-01 -3.210592e-01 1.538867e-02 
4.122887e-01 7.439207e-01 9.554109e-01 9.901398e-01 9.639922e-01 1.444975e+00 3.751150e+00 9.751963e+00 2.014515e+01 3.082211e+01 3.081879e+01 7.933357e+00 -3.239468e+01 -2.437717e+00 2.842155e+01 -1.797408e+01 -1.993034e+01 1.144599e+01 2.146935e+01 2.617577e+01 2.780085e+01 2.277865e+01 4.574376e+01 4.126346e+01 1.982215e+01 -1.932860e+00 -2.290493e+01 -3.213027e+01 -3.625206e+01 -1.985579e+01 -1.420268e+01 2.053857e+00 3.471616e+00 4.075096e+00 6.023353e+00 -2.520182e+00 -9.045495e+00 -1.576819e+01 -9.694477e+00 -2.533854e+00 1.037077e+01 1.826383e+01 2.784964e+01 3.200634e+01 2.886998e+01 3.136267e+01 2.544369e+01 2.062213e+01 1.442526e+01 9.290634e+00 3.302819e+01 5.084772e+01 -2.377447e+01 -8.804295e+01 -7.663540e+01 -4.316859e+01 -1.828284e+01 -6.232088e+00 -1.900757e+00 -7.765662e-01 -5.923940e-01 -4.927663e-01 -2.760647e-01 4.678414e-02 
4.235957e-01 7.288720e-01 8.918404e-01 8.501283e-01 7.499300e-01 1.261060e+00 3.870462e+00 1.052212e+01 2.141840e+01 3.042285e+01 2.053964e+01 -4.598513e+01 -1.325180e+02 -3.126121e+01 6.040626e+01 -7.194784e+01 -9.382745e+01 -4.778785e+00 2.220478e+01 2.747792e+01 1.677842e+01 -9.670136e-01 -1.575205e+01 -4.201933e+01 -1.447513e+01 -2.868639e+01 -7.625639e+01 -1.084184e+02 -1.397860e+02 -1.189397e+02 -1.074196e+02 -7.367899e+01 -4.997437e+01 -4.509344e+01 -4.771612e+01 -6.570463e+01 -8.674588e+01 -1.068396e+02 -1.000172e+02 -8.395400e+01 -5.192869e+01 -2.906642e+01 9.267491e+00 3.320911e+01 3.773786e+01 6.015791e+01 5.529187e+01 4.065409e+01 6.402378e+01 3.421757e+01 9.508866e+01 3.264109e+02 2.413782e+02 -2.119070e+01 -9.209591e+01 -6.068107e+01 -2.689013e+01 -9.235534e+00 -2.569510e+00 -7.510359e-01 -4.563431e-01 -3.916320e-01 -2.177059e-01 7.761970e-02 
4.194697e-01 6.894830e-01 7.973805e-01 6.595390e-01 3.952204e-01 6.371252e-01 2.814516e+00 8.814969e+00 1.901748e+01 2.816539e+01 1.996131e+01 -5.125333e+01 -1.280245e+02 -6.078714e+01 1.299069e+01 -9.291829e+01 -1.295020e+02 -3.837479e+01 1.061861e+01 1.389356e+01 -2.968474e+01 -3.375155e+01 -2.630718e+01 -1.818115e+01 4.718830e+01 4.323244e+01 -8.347425e+00 -4.460031e+01 -8.901356e+01 -8.927920e+01 -8.183116e+01 -6.822188e+01 -2.441747e+01 -2.450899e+01 -5.006576e+01 -7.650171e+01 -1.177039e+02 -1.576369e+02 -1.802701e+02 -1.810421e+02 -1.668306e+02 -1.474105e+02 -9.011167e+01 -3.940163e+01 -3.711466e+00 6.700317e+01 9.443395e+01 9.883040e+01 2.075348e+02 1.794075e+02 1.842369e+02 4.455794e+02 3.547099e+02 1.001564e+01 -9.331976e+01 -6.304970e+01 -2.862564e+01 -9.807604e+00 -2.492392e+00 -5.178501e-01 -2.618820e-01 -2.697150e-01 -1.519711e-01 1.044815e-01 
3.960489e-01 6.271335e-01 6.834505e-01 4.504893e-01 -2.696747e-02 -2.689118e-01 9.336493e-01 5.367010e+00 1.413547e+01 2.492037e+01 2.831641e+01 5.360802e+00 -8.292717e+00 -1.384379e+01 -6.909140e+00 -6.390938e+01 -1.587671e+02 -8.820329e+01 9.934150e+00 2.336072e+01 -1.310254e+01 -3.867626e+01 1.124404e+01 6.580138e+01 7.273865e+01 5.874767e+01 3.461714e+01 2.377750e+01 9.053334e+00 2.322368e+00 7.902049e+00 -7.587351e+00 1.356707e+01 3.098169e+00 -2.921285e+01 -4.468775e+01 -6.685186e+01 -8.521465e+01 -1.088924e+02 -1.187256e+02 -1.365268e+02 -1.393552e+02 -1.224256e+02 -9.691527e+01 -6.565901e+01 -1.253260e+01 1.948995e+01 4.022797e+01 1.238313e+02 9.999994e+01 5.960974e+01 1.396065e+02 9.829532e+01 -4.863912e+01 -8.006440e+01 -4.771757e+01 -2.071821e+01 -6.591820e+00 -1.286719e+00 -4.360518e-02 -4.565305e-02 -1.573819e-01 -9.602190e-02 1.186183e-01 
3.528619e-01 5.438518e-01 5.628154e-01 2.724203e-01 -3.654499e-01 -1.066300e+00 -9.357954e-01 1.566065e+00 8.036433e+00 1.858008e+01 2.985263e+01 3.715456e+01 4.803716e+01 4.188896e+01 1.621069e+01 -3.109264e+01 -7.942843e+01 -5.587996e+01 -2.128000e+01 -1.291068e+01 -1.993857e+01 -1.640431e+01 2.050260e+01 2.876297e+01 -3.453629e-02 -7.305218e+00 -8.562365e+00 -5.848742e+00 -3.843047e+00 -4.283361e+00 1.238912e+00 -1.097541e+01 -1.259446e+01 -2.017448e+01 -3.327844e+01 -3.286640e+01 -2.852971e+01 -2.017373e+01 -1.962048e+01 -1.890834e+01 -3.264557e+01 -3.994894e+01 -5.556218e+01 -6.625105e+01 -6.828647e+01 -7.390322e+01 -7.411984e+01 -7.380149e+01 -7.684672e+01 -9.908490e+01 -1.001665e+02 -7.682472e+01 -6.215087e+01 -6.289365e+01 -4.821720e+01 -2.464444e+01 -9.142260e+00 -1.950809e+00 2.810155e-01 4.443415e-01 1.279973e-01 -7.268434e-02 -5.481787e-02 1.184292e-01 
2.888829e-01 4.389965e-01 4.398969e-01 1.552453e-01 -5.040202e-01 -1.416691e+00 -2.005546e+00 -1.107129e+00 2.858425e+00 1.110357e+01 2.326470e+01 3.705077e+01 4.836851e+01 4.412968e+01 7.914755e+00 -3.765468e+01 4.726399e+00 -2.952432e+01 -9.855505e+01 -4.090674e+01 -1.936478e+01 4.452710e+00 1.769944e+01 -1.591623e+01 -3.612146e+01 -3.661685e+01 -3.353202e+01 -3.064581e+01 -2.944778e+01 -3.055886e+01 -3.038423e+01 -3.301060e+01 -3.459331e+01 -3.438749e+01 -3.448219e+01 -3.274072e+01 -3.088675e+01 -2.958501e+01 -3.036305e+01 -3.112435e+01 -3.399893e+01 -3.478156e+01 -3.941226e+01 -4.287000e+01 -4.578332e+01 -5.398544e+01 -5.622561e+01 -5.844484e+01 -6.265927e+01 -6.415808e+01 -5.996958e+01 -5.381828e+01 -4.592123e+01 -3.363320e+01 -1.932517e+01 -7.562200e+00 -1.243891e+00 9.943893e-01 1.153570e+00 6.571692e-01 1.950089e-01 -2.743912e-02 -3.092342e-02 1.027449e-01 
2.057128e-01 3.108041e-01 3.072625e-01 8.694808e-02 -4.429189e-01 -1.255625e+00 -2.028575e+00 -2.008753e+00 9.146325e-03 5.342728e+00 1.479462e+01 2.777265e+01 4.055383e+01 4.427288e+01 2.418240e+01 -3.589130e+01 -1.896003e+01 -2.243050e+01 -7.215310e+01 -2.233703e+01 3.171373e-01 -5.120773e+00 -1.546361e+01 -4.059878e+01 -4.303032e+01 -3.601787e+01 -2.905730e+01 -2.430176e+01 -2.183769e+01 -2.114056e+01 -2.101215e+01 -2.135808e+01 -2.164822e+01 -2.151467e+01 -2.131978e+01 -2.103410e+01 -2.093203e+01 -2.108772e+01 -2.159358e+01 -2.204361e+01 -2.277285e+01 -2.309296e+01 -2.411040e+01 -2.477930e+01 -2.544224e+01 -2.730752e+01 -2.756168e+01 -2.808791e+01 -2.827198e+01 -2.748055e+01 -2.492710e+01 -2.162111e+01 -1.718252e+01 -1.047217e+01 -4.176760e+00 -4.807553e-02 1.625130e+00 1.726841e+00 1.176252e+00 5.758825e-01 1.698504e-01 -8.602877e-03 -1.681707e-02 7.542014e-02 
1.071762e-01 1.618418e-01 1.597070e-01 4.150601e-02 -2.497470e-01 -7.182099e-01 -1.224162e+00 -1.399969e+00 -5.963934e-01 2.027236e+00 7.289723e+00 1.554819e+01 2.557211e+01 3.327474e+01 2.824224e+01 1.582453e+01 4.484602e+01 1.174681e+02 7.538127e+01 -3.241673e+01 -5.675491e+01 -3.636102e+01 -2.621729e+01 -3.322476e+01 -2.866486e+01 -2.137836e+01 -1.558246e+01 -1.189494e+01 -9.907294e+00 -9.050502e+00 -8.807278e+00 -8.836988e+00 -8.926605e+00 -8.988416e+00 -9.034787e+00 -9.091901e+00 -9.194806e+00 -9.345923e+00 -9.522450e+00 -9.668889e+00 -9.827309e+00 -9.873392e+00 -1.001144e+01 -9.989117e+00 -9.978732e+00 -1.006061e+01 -9.787298e+00 -9.591139e+00 -8.989466e+00 -8.130085e+00 -6.950813e+00 -5.528988e+00 -3.738388e+00 -1.532872e+00 2.892205e-01 1.272605e+00 1.436472e+00 1.130669e+00 6.893080e-01 3.209861e-01 9.348927e-02 -2.864174e-03 -7.875059e-03 3.970379e-02 
3.781451e-14 3.122870e-14 1.941151e-14 4.806156e-14 8.101621e-14 9.566719e-14 1.355780e-13 1.255976e-13 6.698003e-14 -6.159647e-14 -1.979770e-13 -2.012591e-13 6.022083e-15 5.889554e-13 2.284623e-12 3.658774e-12 5.411702e-12 -3.934885e-13 -3.895003e-13 1.338599e-11 1.850277e-11 8.281994e-12 1.025911e-12 2.736104e-13 2.837565e-13 1.906321e-13 1.567264e-13 2.696674e-13 3.710231e-13 3.890325e-13 3.455547e-13 2.806241e-13 1.480333e-13 1.381287e-13 4.927880e-14 -3.677435e-14 -8.092596e-14 -1.270481e-14 1.304173e-14 1.075376e-13 1.238152e-13 1.357390e-13 2.035284e-13 9.831817e-14 1.896759e-13 -6.944853e-15 4.337047e-14 -1.983455e-13 -4.320539e-13 -7.860314e-13 -1.097406e-12 -1.204691e-12 -1.174971e-12 -9.681547e-13 -5.898898e-13 -2.521850e-13 -1.005323e-14 1.280189e-13 1.587194e-13 1.319426e-13 9.800549e-14 5.692306e-14 2.440032e-14 3.258513e-14 
-1.071762e-01 -1.618418e-01 -1.597070e-01 -4.150601e-02 2.497470e-01 7.182099e-01 1.224162e+00 1.399969e+00 5.963934e-01 -2.027236e+00 -7.289723e+00 -1.554819e+01 -2.557211e+01 -3.327474e+01 -2.824224e+01 -1.582453e+01 -4.484602e+01 -1.174681e+02 -7.538127e+01 3.241673e+01 5.675491e+01 3.636102e+01 2.621729e+01 3.322476e+01 2.866486e+01 2.137836e+01 1.558246e+01 1.189494e+01 9.907294e+00 9.050502e+00 8.807278e+00 8.836988e+00 8.926605e+00 8.988416e+00 9.034787e+00 9.091901e+00 9.194806e+00 9.345923e+00 9.522450e+00 9.668889e+00 9.827309e+00 9.873392e+00 1.001144e+01 9.989117e+00 9.978732e+00 1.006061e+01 9.787298e+00 9.591139e+00 8.989466e+00 8.130085e+00 6.950813e+00 5.528988e+00 3.738388e+00 1.532872e+00 -2.892205e-01 -1.272605e+00 -1.436472e+00 -1.130669e+00 -6.893080e-01 -3.209861e-01 -9.348927e-02 2.864174e-03 7.875059e-03 -3.970379e-02 