# vtk DataFile Version 2.0
Comment goes here
ASCII

DATASET STRUCTURED_POINTS
DIMENSIONS    64   64   1

ORIGIN    0.000   0.000   0.000
SPACING   0.0781250.078125   1.000

POINT_DATA   4096
SCALARS Omega double
LOOKUP_TABLE default

-3.279635e-16 2.751209e-15 2.787414e-15 6.116381e-15 8.296441e-15 1.143708e-14 9.219551e-15 5.921096e-16 -2.072827e-15 -9.820943e-15 -2.676360e-15 -1.079008e-17 -5.804019e-15 -8.817943e-15 4.127641e-15 -8.549522e-15 -1.154738e-14 -1.276039e-14 -1.590971e-14 -1.246400e-14 -2.642523e-15 -2.156839e-17 -2.315917e-16 1.848846e-15 -1.107889e-14 -7.827658e-15 -3.018697e-15 6.442794e-15 8.861205e-15 8.491715e-15 -1.207112e-14 1.447545e-15 -9.658187e-16 7.529101e-15 -7.492349e-16 7.484940e-15 5.869508e-15 2.302660e-14 2.801579e-14 1.724272e-14 1.562115e-15 -4.661090e-15 -6.942407e-15 -7.561802e-15 2.746121e-15 8.027051e-15 5.314580e-15 -7.756548e-15 3.835169e-18 1.216535e-14 1.482043e-14 6.340516e-15 6.667115e-15 2.017964e-14 9.498295e-15 7.134884e-15 -1.079467e-15 -1.599825e-15 2.219078e-15 2.371518e-15 -1.431138e-15 -3.481477e-15 -4.459353e-15 -3.656853e-15 
3.391598e-04 3.544077e-04 3.800000e-04 4.155057e-04 4.611608e-04 5.156786e-04 5.771990e-04 6.430048e-04 7.097693e-04 7.743564e-04 8.332676e-04 8.851874e-04 9.277299e-04 9.632728e-04 9.907986e-04 1.016187e-03 1.038928e-03 1.065930e-03 1.096278e-03 1.134554e-03 1.179508e-03 1.230834e-03 1.288090e-03 1.345280e-03 1.404389e-03 1.454774e-03 1.502172e-03 1.533507e-03 1.558620e-03 1.564217e-03 1.563450e-03 1.544011e-03 1.520914e-03 1.482824e-03 1.445150e-03 1.397009e-03 1.352835e-03 1.302323e-03 1.257170e-03 1.209217e-03 1.164976e-03 1.121131e-03 1.076662e-03 1.035322e-03 9.881871e-04 9.457418e-04 8.944333e-04 8.475521e-04 7.933101e-04 7.416419e-04 6.887293e-04 6.359824e-04 5.897254e-04 5.415866e-04 5.052598e-04 4.656797e-04 4.389098e-04 4.084394e-04 3.887762e-04 3.664326e-04 3.526825e-04 3.390228e-04 3.333689e-04 3.317494e-04 
6.833503e-04 7.224066e-04 7.839748e-04 8.676074e-04 9.739516e-04 1.100036e-03 1.241674e-03 1.392084e-03 1.543649e-03 1.688353e-03 1.818465e-03 1.930264e-03 2.019187e-03 2.090307e-03 2.142692e-03 2.189653e-03 2.231369e-03 2.283535e-03 2.344822e-03 2.425700e-03 2.523263e-03 2.637196e-03 2.765600e-03 2.895782e-03 3.030571e-03 3.147357e-03 3.256808e-03 3.331408e-03 3.390660e-03 3.407073e-03 3.407408e-03 3.366752e-03 3.316024e-03 3.232607e-03 3.148434e-03 3.041710e-03 2.942506e-03 2.829811e-03 2.728138e-03 2.620471e-03 2.520503e-03 2.421018e-03 2.319713e-03 2.224167e-03 2.115180e-03 2.014759e-03 1.893945e-03 1.781137e-03 1.651620e-03 1.527135e-03 1.400552e-03 1.275725e-03 1.167161e-03 1.057810e-03 9.769499e-04 8.930331e-04 8.390152e-04 7.801357e-04 7.451747e-04 7.059283e-04 6.843883e-04 6.632260e-04 6.580458e-04 6.613399e-04 
1.034161e-03 1.119444e-03 1.243387e-03 1.407200e-03 1.611613e-03 1.851645e-03 2.118832e-03 2.399764e-03 2.679344e-03 2.941352e-03 3.171256e-03 3.361346e-03 3.504753e-03 3.610849e-03 3.681125e-03 3.740139e-03 3.791871e-03 3.864404e-03 3.958150e-03 4.091011e-03 4.258920e-03 4.460672e-03 4.691932e-03 4.930629e-03 5.178657e-03 5.398033e-03 5.602727e-03 5.747837e-03 5.861902e-03 5.901584e-03 5.907890e-03 5.843038e-03 5.755412e-03 5.611558e-03 5.461962e-03 5.274029e-03 5.095787e-03 4.894490e-03 4.710068e-03 4.514348e-03 4.330747e-03 4.145373e-03 3.956193e-03 3.772758e-03 3.565220e-03 3.367384e-03 3.132915e-03 2.907777e-03 2.652891e-03 2.405065e-03 2.155319e-03 1.912019e-03 1.702164e-03 1.499644e-03 1.353605e-03 1.213439e-03 1.130495e-03 1.048501e-03 1.009136e-03 9.673322e-04 9.534977e-04 9.414238e-04 9.529386e-04 9.787532e-04 
1.412074e-03 1.590749e-03 1.833057e-03 2.143941e-03 2.524766e-03 2.966512e-03 3.453238e-03 3.958259e-03 4.453223e-03 4.905575e-03 5.289878e-03 5.590111e-03 5.798422e-03 5.931078e-03 5.998113e-03 6.043139e-03 6.080430e-03 6.158767e-03 6.283194e-03 6.484088e-03 6.754718e-03 7.093519e-03 7.489319e-03 7.907212e-03 8.342949e-03 8.737366e-03 9.103753e-03 9.374051e-03 9.584454e-03 9.672174e-03 9.693813e-03 9.597931e-03 9.453606e-03 9.217473e-03 8.962701e-03 8.646625e-03 8.339657e-03 7.996445e-03 7.676463e-03 7.337935e-03 7.016540e-03 6.689101e-03 6.352993e-03 6.019083e-03 5.641872e-03 5.269944e-03 4.832746e-03 4.400429e-03 3.915895e-03 3.438963e-03 2.962207e-03 2.504055e-03 2.112819e-03 1.753676e-03 1.503526e-03 1.287874e-03 1.178545e-03 1.090576e-03 1.075576e-03 1.065955e-03 1.096781e-03 1.131249e-03 1.196167e-03 1.282468e-03 
1.833304e-03 2.201359e-03 2.673495e-03 3.263527e-03 3.972700e-03 4.785125e-03 5.669106e-03 6.573410e-03 7.443343e-03 8.217069e-03 8.848961e-03 9.310108e-03 9.593233e-03 9.729640e-03 9.748725e-03 9.728529e-03 9.705717e-03 9.762574e-03 9.915705e-03 1.021245e-02 1.064388e-02 1.120441e-02 1.187172e-02 1.258917e-02 1.333963e-02 1.403200e-02 1.467263e-02 1.516113e-02 1.553834e-02 1.571707e-02 1.577068e-02 1.563384e-02 1.540051e-02 1.501999e-02 1.459361e-02 1.407076e-02 1.355022e-02 1.297285e-02 1.242415e-02 1.184333e-02 1.128466e-02 1.070770e-02 1.011310e-02 9.506472e-03 8.825406e-03 8.132446e-03 7.327353e-03 6.510916e-03 5.605133e-03 4.703532e-03 3.807512e-03 2.954563e-03 2.230624e-03 1.594420e-03 1.164681e-03 8.373110e-04 7.067030e-04 6.488901e-04 7.169404e-04 8.122324e-04 9.644653e-04 1.124500e-03 1.319498e-03 1.545789e-03 
2.364470e-03 3.104917e-03 4.019295e-03 5.136956e-03 6.459256e-03 7.955175e-03 9.562562e-03 1.118203e-02 1.270950e-02 1.402820e-02 1.505846e-02 1.574932e-02 1.610211e-02 1.617757e-02 1.604884e-02 1.585590e-02 1.568055e-02 1.566209e-02 1.583683e-02 1.627932e-02 1.697218e-02 1.790351e-02 1.902604e-02 2.025033e-02 2.153136e-02 2.273020e-02 2.383477e-02 2.469705e-02 2.535780e-02 2.569624e-02 2.580497e-02 2.560377e-02 2.521889e-02 2.459674e-02 2.387646e-02 2.300395e-02 2.211659e-02 2.114154e-02 2.019997e-02 1.920672e-02 1.824101e-02 1.723712e-02 1.619730e-02 1.511669e-02 1.390366e-02 1.263823e-02 1.117329e-02 9.655428e-03 7.978078e-03 6.291335e-03 4.619293e-03 3.038739e-03 1.703256e-03 5.724593e-04 -1.688176e-04 -6.633788e-04 -7.920983e-04 -7.381019e-04 -4.624641e-04 -1.137565e-04 3.160361e-04 7.583350e-04 1.235855e-03 1.756396e-03 
3.087960e-03 4.541305e-03 6.286707e-03 8.381571e-03 1.082377e-02 1.355236e-02 1.644394e-02 1.931046e-02 2.195471e-02 2.416563e-02 2.580565e-02 2.679654e-02 2.716438e-02 2.703533e-02 2.656822e-02 2.601629e-02 2.554221e-02 2.537551e-02 2.558397e-02 2.627298e-02 2.740877e-02 2.895669e-02 3.082852e-02 3.287806e-02 3.501512e-02 3.702850e-02 3.887300e-02 4.033277e-02 4.144109e-02 4.203268e-02 4.222140e-02 4.191270e-02 4.127393e-02 4.025718e-02 3.905076e-02 3.760609e-02 3.611096e-02 3.448042e-02 3.288391e-02 3.120181e-02 2.955118e-02 2.782132e-02 2.602432e-02 2.412491e-02 2.199870e-02 1.973586e-02 1.712822e-02 1.438110e-02 1.135284e-02 8.278441e-03 5.229371e-03 2.351257e-03 -8.133614e-05 -2.091844e-03 -3.385273e-03 -4.149717e-03 -4.239458e-03 -3.923722e-03 -3.211211e-03 -2.329409e-03 -1.327516e-03 -3.041284e-04 7.457531e-04 1.853840e-03 
4.194649e-03 6.959988e-03 1.021614e-02 1.406374e-02 1.849024e-02 2.337238e-02 2.847047e-02 3.343376e-02 3.789938e-02 4.149632e-02 4.399954e-02 4.530053e-02 4.549488e-02 4.483897e-02 4.366331e-02 4.241870e-02 4.141035e-02 4.100641e-02 4.130967e-02 4.245654e-02 4.436041e-02 4.693970e-02 5.002306e-02 5.338002e-02 5.684453e-02 6.010536e-02 6.306642e-02 6.541712e-02 6.717783e-02 6.812159e-02 6.838932e-02 6.787168e-02 6.679047e-02 6.511627e-02 6.310346e-02 6.072339e-02 5.823276e-02 5.553895e-02 5.287876e-02 5.008807e-02 4.733610e-02 4.444653e-02 4.143918e-02 3.822857e-02 3.462945e-02 3.074019e-02 2.624782e-02 2.144534e-02 1.613390e-02 1.068857e-02 5.266709e-03 1.404025e-04 -4.204061e-03 -7.739924e-03 -9.986308e-03 -1.118412e-02 -1.115559e-02 -1.030328e-02 -8.737038e-03 -6.819478e-03 -4.712997e-03 -2.572776e-03 -4.283524e-04 1.790187e-03 
5.945683e-03 1.104014e-02 1.694260e-02 2.381737e-02 3.161885e-02 4.010093e-02 4.880628e-02 5.709952e-02 6.433311e-02 6.988602e-02 7.341234e-02 7.480201e-02 7.431144e-02 7.246752e-02 6.991684e-02 6.745865e-02 6.562251e-02 6.497034e-02 6.561956e-02 6.769112e-02 7.097400e-02 7.526166e-02 8.024311e-02 8.555095e-02 9.092123e-02 9.591705e-02 1.003856e-01 1.039032e-01 1.064772e-01 1.078070e-01 1.080678e-01 1.071385e-01 1.053082e-01 1.025851e-01 9.930385e-02 9.547963e-02 9.145269e-02 8.713432e-02 8.284668e-02 7.836624e-02 7.393740e-02 6.927523e-02 6.442631e-02 5.920241e-02 5.335178e-02 4.695180e-02 3.954632e-02 3.153277e-02 2.262431e-02 1.339042e-02 4.127461e-03 -4.698845e-03 -1.223849e-02 -1.835679e-02 -2.224818e-02 -2.418971e-02 -2.395689e-02 -2.213665e-02 -1.903682e-02 -1.523707e-02 -1.111941e-02 -6.938416e-03 -2.796676e-03 1.436988e-03 
8.792978e-03 1.784698e-02 2.819332e-02 4.007370e-02 5.335998e-02 6.756781e-02 8.185087e-02 9.509251e-02 1.061848e-01 1.141372e-01 1.184684e-01 1.191418e-01 1.167688e-01 1.123883e-01 1.072427e-01 1.027183e-01 9.970901e-02 9.901937e-02 1.006893e-01 1.046985e-01 1.105131e-01 1.176602e-01 1.255541e-01 1.336404e-01 1.415353e-01 1.486867e-01 1.549154e-01 1.596875e-01 1.630288e-01 1.645549e-01 1.644970e-01 1.627253e-01 1.596098e-01 1.552207e-01 1.499849e-01 1.439919e-01 1.376834e-01 1.309887e-01 1.243434e-01 1.174498e-01 1.106578e-01 1.035325e-01 9.615155e-02 8.817493e-02 7.922776e-02 6.934589e-02 5.781429e-02 4.517530e-02 3.095761e-02 1.602005e-02 8.503495e-04 -1.378125e-02 -2.642572e-02 -3.674539e-02 -4.337603e-02 -4.658977e-02 -4.606500e-02 -4.264297e-02 -3.695950e-02 -2.994845e-02 -2.236835e-02 -1.465890e-02 -7.051574e-03 6.657770e-04 
1.332946e-02 2.883486e-02 4.631568e-02 6.608421e-02 8.781889e-02 1.105931e-01 1.328905e-01 1.528226e-01 1.685834e-01 1.786912e-01 1.825640e-01 1.804241e-01 1.735799e-01 1.640429e-01 1.541217e-01 1.462359e-01 1.418220e-01 1.419486e-01 1.463273e-01 1.544406e-01 1.650346e-01 1.770156e-01 1.893197e-01 2.011141e-01 2.119469e-01 2.212484e-01 2.289369e-01 2.344595e-01 2.379397e-01 2.389438e-01 2.377937e-01 2.343661e-01 2.291159e-01 2.222023e-01 2.141314e-01 2.051091e-01 1.956673e-01 1.857867e-01 1.760224e-01 1.659925e-01 1.561865e-01 1.459458e-01 1.354321e-01 1.240440e-01 1.112982e-01 9.711121e-02 8.041204e-02 6.187952e-02 4.069121e-02 1.801853e-02 -5.448751e-03 -2.858544e-02 -4.897488e-02 -6.593621e-02 -7.712433e-02 -8.264501e-02 -8.196449e-02 -7.619282e-02 -6.649616e-02 -5.433751e-02 -4.111794e-02 -2.759731e-02 -1.424799e-02 -7.603958e-04 
2.038081e-02 4.590353e-02 7.428238e-02 1.058290e-01 1.398124e-01 1.745207e-01 2.073488e-01 2.352560e-01 2.554781e-01 2.659671e-01 2.661558e-01 2.567955e-01 2.404184e-01 2.207161e-01 2.019700e-01 1.884170e-01 1.824643e-01 1.854056e-01 1.960771e-01 2.126981e-01 2.323924e-01 2.527852e-01 2.718793e-01 2.885083e-01 3.022883e-01 3.129274e-01 3.207524e-01 3.254063e-01 3.273184e-01 3.260853e-01 3.222083e-01 3.156050e-01 3.068114e-01 2.961089e-01 2.840371e-01 2.709543e-01 2.574519e-01 2.435826e-01 2.300398e-01 2.163451e-01 2.031939e-01 1.896551e-01 1.760287e-01 1.613843e-01 1.450594e-01 1.268126e-01 1.049263e-01 8.023381e-02 5.113015e-02 1.912674e-02 -1.503355e-02 -4.982786e-02 -8.134190e-02 -1.083680e-01 -1.268911e-01 -1.365626e-01 -1.363609e-01 -1.276134e-01 -1.122166e-01 -9.240043e-02 -7.056286e-02 -4.801676e-02 -2.564757e-02 -3.072691e-03 
3.090439e-02 7.122628e-02 1.153779e-01 1.634728e-01 2.139760e-01 2.638640e-01 3.088945e-01 3.444931e-01 3.667880e-01 3.732338e-01 3.634205e-01 3.388175e-01 3.037209e-01 2.646255e-01 2.293952e-01 2.058088e-01 1.980687e-01 2.077211e-01 2.316601e-01 2.652218e-01 3.022116e-01 3.375474e-01 3.675802e-01 3.906639e-01 4.068850e-01 4.168565e-01 4.218972e-01 4.223435e-01 4.192639e-01 4.125165e-01 4.029491e-01 3.906202e-01 3.761496e-01 3.599771e-01 3.425536e-01 3.244285e-01 3.061236e-01 2.878272e-01 2.703099e-01 2.530303e-01 2.369377e-01 2.207555e-01 2.051084e-01 1.885764e-01 1.705137e-01 1.503837e-01 1.256614e-01 9.719336e-02 6.186354e-02 2.113723e-02 -2.471990e-02 -7.417253e-02 -1.209438e-01 -1.630095e-01 -1.934581e-01 -2.107776e-01 -2.130249e-01 -2.014155e-01 -1.788420e-01 -1.485172e-01 -1.143583e-01 -7.857047e-02 -4.275645e-02 -6.555197e-03 
4.594098e-02 1.069443e-01 1.725848e-01 2.423505e-01 3.132640e-01 3.802997e-01 4.370704e-01 4.774329e-01 4.967390e-01 4.923000e-01 4.636116e-01 4.120863e-01 3.435423e-01 2.685732e-01 2.017858e-01 1.580828e-01 1.459778e-01 1.676670e-01 2.163968e-01 2.816329e-01 3.505395e-01 4.128386e-01 4.617475e-01 4.950384e-01 5.138362e-01 5.207046e-01 5.189263e-01 5.102000e-01 4.968590e-01 4.793878e-01 4.593664e-01 4.372702e-01 4.138676e-01 3.898622e-01 3.654129e-01 3.412443e-01 3.175917e-01 2.947506e-01 2.735337e-01 2.533411e-01 2.355781e-01 2.186459e-01 2.038324e-01 1.892537e-01 1.744426e-01 1.585881e-01 1.378002e-01 1.127915e-01 7.727476e-02 3.203621e-02 -2.454706e-02 -9.150264e-02 -1.586857e-01 -2.228140e-01 -2.720692e-01 -3.028380e-01 -3.116340e-01 -2.990051e-01 -2.689287e-01 -2.257300e-01 -1.753971e-01 -1.215185e-01 -6.686582e-02 -1.135933e-02 
6.642846e-02 1.546491e-01 2.476387e-01 3.435019e-01 4.369291e-01 5.202573e-01 5.850523e-01 6.247756e-01 6.356066e-01 6.153346e-01 5.613307e-01 4.708088e-01 3.480962e-01 2.092220e-01 8.137442e-02 -5.226695e-03 -3.240975e-02 4.899548e-03 9.406663e-02 2.136649e-01 3.387669e-01 4.492847e-01 5.329647e-01 5.861933e-01 6.118307e-01 6.156865e-01 6.041135e-01 5.811721e-01 5.512512e-01 5.161960e-01 4.791747e-01 4.417435e-01 4.051328e-01 3.705410e-01 3.374266e-01 3.066369e-01 2.775828e-01 2.507178e-01 2.266330e-01 2.048532e-01 1.873754e-01 1.723176e-01 1.623955e-01 1.550375e-01 1.511829e-01 1.494499e-01 1.448939e-01 1.373485e-01 1.148703e-01 7.516581e-02 1.170205e-02 -7.713785e-02 -1.737437e-01 -2.719354e-01 -3.511633e-01 -4.042158e-01 -4.264866e-01 -4.171455e-01 -3.814413e-01 -3.245099e-01 -2.548919e-01 -1.780916e-01 -9.869840e-02 -1.740550e-02 
9.293896e-02 2.146360e-01 3.397922e-01 4.639877e-01 5.786598e-01 6.736529e-01 7.406037e-01 7.768949e-01 7.838900e-01 7.602810e-01 6.938651e-01 5.647925e-01 3.657074e-01 1.185166e-01 -1.262441e-01 -3.068647e-01 -3.825160e-01 -3.390965e-01 -1.964687e-01 6.204767e-03 2.234457e-01 4.185907e-01 5.692398e-01 6.679973e-01 7.183794e-01 7.298094e-01 7.129181e-01 6.746366e-01 6.232807e-01 5.632323e-01 5.012143e-01 4.414991e-01 3.865174e-01 3.386875e-01 2.959767e-01 2.591275e-01 2.256092e-01 1.957127e-01 1.694196e-01 1.463858e-01 1.299022e-01 1.179560e-01 1.163402e-01 1.217805e-01 1.384694e-01 1.641972e-01 1.929212e-01 2.222945e-01 2.295413e-01 2.056128e-01 1.328230e-01 5.607538e-03 -1.413586e-01 -2.950868e-01 -4.189642e-01 -5.029282e-01 -5.453744e-01 -5.450680e-01 -5.083798e-01 -4.398793e-01 -3.502143e-01 -2.470924e-01 -1.376399e-01 -2.416388e-02 
1.255074e-01 2.853488e-01 4.449487e-01 5.960096e-01 7.264759e-01 8.262703e-01 8.940501e-01 9.419119e-01 9.853825e-01 1.021777e+00 1.008627e+00 8.777885e-01 5.881393e-01 1.682241e-01 -2.896933e-01 -6.615217e-01 -8.636958e-01 -8.578791e-01 -6.679032e-01 -3.566551e-01 6.752342e-04 3.411839e-01 6.241888e-01 8.286730e-01 9.524022e-01 1.005657e+00 1.003933e+00 9.578655e-01 8.838086e-01 7.911176e-01 6.946708e-01 6.047512e-01 5.264973e-01 4.651065e-01 4.149642e-01 3.763711e-01 3.421894e-01 3.123875e-01 2.849383e-01 2.601636e-01 2.427290e-01 2.305111e-01 2.350068e-01 2.503684e-01 2.896127e-01 3.468970e-01 4.195482e-01 4.986213e-01 5.449761e-01 5.324215e-01 4.214410e-01 1.983246e-01 -5.811445e-02 -3.142725e-01 -5.004023e-01 -6.104661e-01 -6.654917e-01 -6.716691e-01 -6.371166e-01 -5.614364e-01 -4.541688e-01 -3.240899e-01 -1.811781e-01 -3.043195e-02 
1.633084e-01 3.629239e-01 5.553878e-01 7.275379e-01 8.657790e-01 9.680783e-01 1.056363e+00 1.179159e+00 1.380590e+00 1.644849e+00 1.851577e+00 1.823419e+00 1.450182e+00 7.749265e-01 -4.071531e-02 -7.637999e-01 -1.235206e+00 -1.369348e+00 -1.181292e+00 -7.545166e-01 -1.980826e-01 3.909789e-01 9.368703e-01 1.377348e+00 1.681144e+00 1.850226e+00 1.908542e+00 1.870260e+00 1.772736e+00 1.634880e+00 1.488485e+00 1.356408e+00 1.247875e+00 1.174679e+00 1.123091e+00 1.092659e+00 1.066352e+00 1.042893e+00 1.015416e+00 9.846557e-01 9.574202e-01 9.306468e-01 9.265091e-01 9.323135e-01 9.776338e-01 1.047569e+00 1.147307e+00 1.253311e+00 1.299179e+00 1.228518e+00 9.593095e-01 4.721160e-01 -3.538979e-02 -4.871220e-01 -7.381908e-01 -8.171543e-01 -8.233527e-01 -7.989998e-01 -7.550205e-01 -6.743579e-01 -5.547822e-01 -4.010591e-01 -2.247085e-01 -3.441661e-02 
2.047613e-01 4.416310e-01 6.610589e-01 8.455364e-01 9.864549e-01 1.107162e+00 1.283369e+00 1.635455e+00 2.250966e+00 3.063548e+00 3.779254e+00 4.014255e+00 3.565224e+00 2.532840e+00 1.187720e+00 -7.197143e-02 -9.910711e-01 -1.409224e+00 -1.313784e+00 -7.852646e-01 5.165325e-02 1.066872e+00 2.121385e+00 3.035848e+00 3.697922e+00 4.093683e+00 4.269445e+00 4.248343e+00 4.113892e+00 3.901518e+00 3.673539e+00 3.475435e+00 3.319107e+00 3.230239e+00 3.177350e+00 3.159648e+00 3.143280e+00 3.126450e+00 3.093870e+00 3.047152e+00 2.992093e+00 2.922314e+00 2.875618e+00 2.817997e+00 2.810739e+00 2.813065e+00 2.853587e+00 2.875860e+00 2.782290e+00 2.465570e+00 1.764882e+00 6.237769e-01 -4.565084e-01 -1.300095e+00 -1.577090e+00 -1.426630e+00 -1.176246e+00 -9.845286e-01 -8.691845e-01 -7.678101e-01 -6.386342e-01 -4.675360e-01 -2.618902e-01 -3.378268e-02 
2.475296e-01 5.147805e-01 7.519083e-01 9.405448e-01 1.090565e+00 1.280513e+00 1.686243e+00 2.543974e+00 3.981373e+00 5.788394e+00 7.332297e+00 7.907720e+00 7.275775e+00 5.749801e+00 3.729697e+00 1.805259e+00 3.880215e-01 -3.286554e-01 -3.460411e-01 3.041682e-01 1.547004e+00 3.253586e+00 5.190474e+00 6.908178e+00 8.110664e+00 8.799935e+00 9.108678e+00 9.075477e+00 8.858056e+00 8.524633e+00 8.162292e+00 7.855119e+00 7.602860e+00 7.458026e+00 7.360985e+00 7.309895e+00 7.256795e+00 7.197166e+00 7.112297e+00 6.997832e+00 6.862057e+00 6.684282e+00 6.540235e+00 6.343220e+00 6.210547e+00 6.051830e+00 5.907580e+00 5.685334e+00 5.183805e+00 4.331229e+00 2.747375e+00 1.831887e-01 -2.079186e+00 -3.710398e+00 -3.908775e+00 -3.079020e+00 -2.084073e+00 -1.388064e+00 -1.030812e+00 -8.472725e-01 -6.971029e-01 -5.138907e-01 -2.863163e-01 -2.641366e-02 
2.887672e-01 5.759926e-01 8.202142e-01 1.009438e+00 1.192788e+00 1.544229e+00 2.393797e+00 4.125105e+00 6.846465e+00 1.001065e+01 1.238720e+01 1.286165e+01 1.145911e+01 9.178835e+00 6.497019e+00 4.050038e+00 2.597122e+00 2.160146e+00 2.406902e+00 3.361472e+00 5.135037e+00 7.693439e+00 1.079229e+01 1.344119e+01 1.499916e+01 1.566780e+01 1.590758e+01 1.576390e+01 1.537851e+01 1.490970e+01 1.436590e+01 1.391670e+01 1.349555e+01 1.320849e+01 1.295397e+01 1.270575e+01 1.244765e+01 1.214400e+01 1.183231e+01 1.147145e+01 1.111390e+01 1.068340e+01 1.041022e+01 1.003306e+01 9.878688e+00 9.682775e+00 9.461038e+00 9.272193e+00 8.216621e+00 7.072126e+00 4.674101e+00 -5.181061e-01 -5.484545e+00 -9.019078e+00 -9.133601e+00 -6.843313e+00 -4.180843e+00 -2.315755e+00 -1.359166e+00 -9.469340e-01 -7.329566e-01 -5.347632e-01 -2.933350e-01 -1.109130e-02 
3.256661e-01 6.203409e-01 8.612500e-01 1.052303e+00 1.304876e+00 1.927266e+00 3.442036e+00 6.358993e+00 1.059046e+01 1.488316e+01 1.702664e+01 1.551019e+01 1.153667e+01 7.827508e+00 4.315212e+00 2.179206e+00 3.138650e+00 4.988411e+00 6.724859e+00 8.353553e+00 1.028779e+01 1.260177e+01 1.576246e+01 1.854695e+01 1.922200e+01 1.841360e+01 1.815591e+01 1.782864e+01 1.712976e+01 1.668821e+01 1.586489e+01 1.527238e+01 1.455835e+01 1.406626e+01 1.360866e+01 1.302109e+01 1.243748e+01 1.156225e+01 1.067452e+01 9.520193e+00 8.526420e+00 7.287666e+00 6.919745e+00 6.275188e+00 6.924511e+00 7.828121e+00 8.429944e+00 1.158236e+01 1.054185e+01 1.228522e+01 1.296049e+01 3.941279e+00 -7.604731e+00 -1.663413e+01 -1.793066e+01 -1.366680e+01 -8.172979e+00 -4.158653e+00 -2.026621e+00 -1.129007e+00 -7.626798e-01 -5.314588e-01 -2.813970e-01 1.212504e-02 
3.547911e-01 6.436326e-01 8.704978e-01 1.062073e+00 1.405731e+00 2.360094e+00 4.632788e+00 8.752304e+00 1.410193e+01 1.804461e+01 1.664221e+01 7.733702e+00 -4.621123e+00 -1.272138e+01 -1.897073e+01 -1.551783e+01 -2.525551e+00 5.481508e+00 1.063837e+01 1.272729e+01 1.181530e+01 7.141996e+00 4.022011e+00 4.653996e+00 1.853821e+00 -4.379041e+00 -3.576885e+00 -2.815426e+00 -3.185136e+00 -2.101003e+00 -3.772277e+00 -4.608831e+00 -6.605165e+00 -7.540233e+00 -7.834528e+00 -8.207263e+00 -8.284239e+00 -9.527217e+00 -1.096706e+01 -1.412241e+01 -1.620364e+01 -1.992912e+01 -2.003946e+01 -2.288306e+01 -2.052084e+01 -1.654476e+01 -1.832529e+01 1.453603e+00 4.708190e-01 1.413326e+01 3.920035e+01 2.955134e+01 3.630411e+00 -2.081644e+01 -2.828541e+01 -2.318582e+01 -1.422613e+01 -7.111754e+00 -3.143298e+00 -1.441292e+00 -8.041763e-01 -5.098020e-01 -2.529101e-01 4.084802e-02 
3.737674e-01 6.430362e-01 8.419386e-01 1.017584e+00 1.424341e+00 2.645511e+00 5.511145e+00 1.040863e+01 1.572798e+01 1.597122e+01 2.430031e+00 -3.140339e+01 -6.551192e+01 -7.965873e+01 -9.752091e+01 -6.711096e+01 -1.271857e+01 2.268855e+00 1.125083e+01 1.076775e+01 -3.017068e+00 -4.103916e+01 -7.879256e+01 -7.542621e+01 -7.364678e+01 -9.949285e+01 -8.750301e+01 -7.826781e+01 -7.313130e+01 -5.900123e+01 -6.003729e+01 -5.654859e+01 -6.438597e+01 -7.124470e+01 -7.370251e+01 -7.366687e+01 -6.909216e+01 -6.645457e+01 -6.293276e+01 -6.675669e+01 -6.396070e+01 -6.610362e+01 -6.221906e+01 -6.354983e+01 -6.207770e+01 -5.587471e+01 -6.427678e+01 -2.799708e+01 -3.988747e+01 -2.468975e+00 5.169253e+01 5.718072e+01 5.423843e+01 8.317653e+00 -2.498188e+01 -2.989666e+01 -2.063907e+01 -1.063399e+01 -4.528885e+00 -1.828558e+00 -8.439738e-01 -4.682821e-01 -2.092008e-01 7.304800e-02 
3.790955e-01 6.159756e-01 7.693742e-01 8.921573e-01 1.269837e+00 2.545896e+00 5.596829e+00 1.066162e+01 1.515868e+01 9.493771e+00 -2.721441e+01 -1.278039e+02 -1.921027e+02 -1.247405e+02 -8.839027e+01 -9.844674e+01 -4.057707e+01 7.225905e+00 1.030395e+01 -5.757185e-01 -4.422784e+01 -1.131886e+02 -2.184525e+02 -2.395949e+02 -1.923484e+02 -2.104520e+02 -1.810638e+02 -1.529305e+02 -1.360647e+02 -1.018198e+02 -9.595930e+01 -9.033600e+01 -1.047123e+02 -1.230349e+02 -1.278229e+02 -1.256044e+02 -1.106199e+02 -8.634795e+01 -5.608881e+01 -3.460051e+01 -4.710247e+00 1.306004e+01 1.843989e+01 2.750321e+01 1.692877e+01 6.181408e+00 2.659815e+01 1.083065e+01 1.029947e+01 6.929154e+01 2.042389e+01 1.059280e+02 2.290793e+02 1.304987e+02 1.245876e+01 -2.805467e+01 -2.482781e+01 -1.333548e+01 -5.590154e+00 -2.085744e+00 -8.282325e-01 -4.000273e-01 -1.542899e-01 1.038641e-01 
3.697457e-01 5.639052e-01 6.551765e-01 6.802475e-01 9.038601e-01 1.946688e+00 4.669480e+00 9.398512e+00 1.381856e+01 8.845068e+00 -3.014799e+01 -1.568878e+02 -2.324012e+02 -1.337735e+02 -5.145303e+01 -6.695292e+01 -1.247147e+01 4.194741e+01 1.689329e+01 -1.348549e+01 -9.809855e+01 -1.818627e+02 -2.053852e+02 -1.544635e+02 -1.124780e+02 -1.330730e+02 -1.309352e+02 -1.095633e+02 -9.392819e+01 -6.023589e+01 -3.976214e+01 -4.524719e+01 -5.640165e+01 -7.648660e+01 -7.828804e+01 -6.752147e+01 -4.275245e+01 4.974279e+00 5.217389e+01 8.911702e+01 1.168490e+02 1.308788e+02 1.232408e+02 1.345435e+02 1.242181e+02 1.156843e+02 1.772241e+02 1.187974e+02 1.761203e+02 2.097759e+02 9.304405e+01 2.716329e+02 3.746802e+02 1.736900e+02 1.152489e+01 -3.044786e+01 -2.525529e+01 -1.318346e+01 -5.391206e+00 -1.886636e+00 -6.672182e-01 -2.878969e-01 -8.876284e-02 1.306806e-01 
3.437606e-01 4.914205e-01 5.158164e-01 4.215015e-01 4.130909e-01 1.028604e+00 3.093546e+00 7.209664e+00 1.227040e+01 1.292168e+01 -6.623945e+00 -7.768521e+01 -1.199197e+02 -7.886511e+01 -5.774573e+01 -5.503045e+01 -2.337699e+01 1.585541e+01 3.068760e+01 6.006160e-01 -5.597918e+01 -1.354438e+02 -4.425814e+01 9.497189e+01 6.723736e+01 3.806054e+01 1.158749e+01 1.294219e+01 1.004500e+01 8.577717e+00 1.921270e+01 1.369638e+00 1.369178e+00 -1.779990e+00 3.122434e+00 1.506334e+01 2.774149e+01 5.441736e+01 7.244260e+01 8.583880e+01 8.715159e+01 8.445246e+01 7.630029e+01 8.067851e+01 7.995385e+01 8.457783e+01 1.228363e+02 9.468089e+01 1.546483e+02 1.592125e+02 1.317286e+02 2.744893e+02 2.663362e+02 8.183087e+01 -2.074463e+01 -3.322567e+01 -2.205571e+01 -1.059847e+01 -4.051154e+00 -1.271022e+00 -3.854026e-01 -1.516180e-01 -2.537421e-02 1.464048e-01 
3.015975e-01 4.060621e-01 3.760120e-01 1.818454e-01 -4.900749e-02 9.766834e-02 1.355091e+00 4.502049e+00 9.515820e+00 1.405829e+01 1.109623e+01 -9.396687e+00 -2.094768e+01 -4.298439e+00 -3.352622e+01 -6.438545e+01 -6.973687e+01 -1.228396e+01 5.091541e+01 -4.574109e+00 -2.037027e+01 -2.496209e+01 4.013638e+01 1.086400e+02 6.251957e+01 5.260108e+01 3.939919e+01 3.907098e+01 3.137735e+01 1.507474e+01 1.098896e+01 -7.049742e-01 3.226651e+00 7.669147e+00 1.091172e+01 1.297194e+01 9.022390e+00 7.125299e+00 2.762124e+00 2.301597e+00 1.875513e+00 2.584237e+00 2.722667e+00 2.091633e+00 -1.736043e+00 -5.577456e+00 -4.705563e+00 -1.355003e+01 2.218559e+00 7.940509e+00 2.411178e+01 8.861576e+01 8.972180e+01 9.646275e+00 -3.073360e+01 -2.654472e+01 -1.503226e+01 -6.471964e+00 -2.129688e+00 -4.880709e-01 -7.919532e-02 -2.619484e-02 2.326675e-02 1.468056e-01 
2.439158e-01 3.129276e-01 2.543021e-01 1.741383e-02 -3.392550e-01 -5.355406e-01 5.253270e-03 2.055033e+00 6.156159e+00 1.179089e+01 1.653639e+01 1.713344e+01 1.777814e+01 1.670131e+01 -1.604570e+01 -6.867967e+01 -8.791988e+01 1.594249e+01 7.479583e+01 -2.581367e+01 -3.845193e+01 3.991458e+01 6.279681e+01 3.742891e+01 1.003283e+01 1.096292e-01 -5.506735e+00 -6.021459e+00 -7.006476e+00 -9.471866e+00 -9.102570e+00 -1.003856e+01 -9.177672e+00 -1.003990e+01 -1.201232e+01 -1.398780e+01 -1.681739e+01 -1.856246e+01 -1.980149e+01 -2.008079e+01 -2.044206e+01 -2.089318e+01 -2.258164e+01 -2.515172e+01 -2.896753e+01 -3.299528e+01 -3.630970e+01 -3.985112e+01 -3.901733e+01 -3.760611e+01 -2.806738e+01 -4.567342e+00 3.043825e+00 -1.455647e+01 -2.239646e+01 -1.529342e+01 -7.476100e+00 -2.627876e+00 -4.988915e-01 1.130241e-01 1.312351e-01 5.255597e-02 4.768918e-02 1.297845e-01 
1.720223e-01 2.138391e-01 1.559959e-01 -5.216927e-02 -3.954188e-01 -7.113629e-01 -6.123507e-01 5.016896e-01 3.268649e+00 7.937329e+00 1.395628e+01 1.991484e+01 2.427834e+01 2.197609e+01 1.655502e-01 -7.517126e+01 -1.701131e+02 -1.419082e+02 -3.917007e+01 4.348706e+01 9.989371e+01 1.376260e+02 9.989147e+01 1.433526e+01 -1.210838e+01 -1.835881e+01 -1.875044e+01 -1.698830e+01 -1.535298e+01 -1.459146e+01 -1.393215e+01 -1.409224e+01 -1.429379e+01 -1.496512e+01 -1.587881e+01 -1.654500e+01 -1.716406e+01 -1.744894e+01 -1.762829e+01 -1.778567e+01 -1.819905e+01 -1.880006e+01 -1.983843e+01 -2.115312e+01 -2.278266e+01 -2.449088e+01 -2.606752e+01 -2.724025e+01 -2.758290e+01 -2.756402e+01 -2.368872e+01 -1.660491e+01 -1.334526e+01 -1.290174e+01 -1.104844e+01 -6.269262e+00 -2.419954e+00 -3.833599e-01 3.062370e-01 3.418566e-01 1.885585e-01 7.110563e-02 4.615052e-02 9.615622e-02 
8.919845e-02 1.089176e-01 7.413111e-02 -4.614816e-02 -2.527320e-01 -4.735632e-01 -5.160621e-01 -5.410000e-02 1.317946e+00 3.908932e+00 7.715109e+00 1.213177e+01 1.565311e+01 1.475440e+01 1.664214e-01 -4.798279e+01 -1.371902e+02 -2.265630e+02 -1.578189e+02 6.259893e+01 1.599721e+02 1.227350e+02 6.090362e+01 4.339783e+00 -1.188407e+01 -1.455800e+01 -1.350568e+01 -1.163916e+01 -1.013011e+01 -9.249443e+00 -8.797307e+00 -8.757751e+00 -8.854230e+00 -9.042731e+00 -9.249602e+00 -9.360880e+00 -9.415789e+00 -9.413725e+00 -9.425654e+00 -9.478781e+00 -9.625074e+00 -9.830428e+00 -1.014631e+01 -1.053139e+01 -1.100518e+01 -1.150193e+01 -1.196118e+01 -1.222787e+01 -1.226722e+01 -1.212304e+01 -1.073301e+01 -8.707600e+00 -7.544620e+00 -5.737084e+00 -3.778624e+00 -1.715205e+00 -3.443839e-01 2.550430e-01 3.578432e-01 2.552735e-01 1.259842e-01 4.681244e-02 2.761302e-02 5.123390e-02 
1.656827e-14 2.474810e-14 3.763549e-14 6.760808e-14 7.246076e-14 1.264794e-13 1.341068e-13 1.417450e-13 1.254110e-13 7.970345e-14 4.551982e-14 4.818749e-15 -1.572079e-13 -6.320328e-13 -1.798738e-12 2.402543e-12 8.061525e-12 -2.236477e-12 -3.180543e-12 -6.515446e-12 -1.681661e-11 -2.315835e-12 1.919389e-12 -1.153980e-12 -1.333821e-12 -7.688769e-13 -2.065545e-13 1.860714e-13 3.381835e-13 3.966877e-13 3.519558e-13 2.582343e-13 1.344924e-13 3.103072e-14 -5.355493e-14 -1.021566e-13 -1.356347e-13 -1.565599e-13 -5.605877e-14 -5.408476e-15 1.456931e-13 1.438664e-13 2.339865e-13 2.447884e-13 4.208846e-13 4.236313e-13 5.923069e-13 4.251884e-13 1.223047e-13 -3.479688e-13 -8.540310e-13 -1.090228e-12 -1.360994e-12 -1.065418e-12 -7.531045e-13 -4.227702e-13 -1.356869e-13 1.800489e-14 1.078480e-13 1.089904e-13 9.589845e-14 7.867273e-14 4.925995e-14 2.053578e-14 
-8.919845e-02 -1.089176e-01 -7.413111e-02 4.614816e-02 2.527320e-01 4.735632e-01 5.160621e-01 5.410000e-02 -1.317946e+00 -3.908932e+00 -7.715109e+00 -1.213177e+01 -1.565311e+01 -1.475440e+01 -1.664214e-01 4.798279e+01 1.371902e+02 2.265630e+02 1.578189e+02 -6.259893e+01 -1.599721e+02 -1.227350e+02 -6.090362e+01 -4.339783e+00 1.188407e+01 1.455800e+01 1.350568e+01 1.163916e+01 1.013011e+01 9.249443e+00 8.797307e+00 8.757751e+00 8.854230e+00 9.042731e+00 9.249602e+00 9.360880e+00 9.415789e+00 9.413725e+00 9.425654e+00 9.478781e+00 9.625074e+00 9.830428e+00 1.014631e+01 1.053139e+01 1.100518e+01 1.150193e+01 1.196118e+01 1.222787e+01 1.226722e+01 1.212304e+01 1.073301e+01 8.707600e+00 7.544620e+00 5.737084e+00 3.778624e+00 1.715205e+00 3.443839e-01 -2.550430e-01 -3.578432e-01 -2.552735e-01 -1.259842e-01 -4.681244e-02 -2.761302e-02 -5.123390e-02 