# vtk DataFile Version 2.0
Comment goes here
ASCII

DATASET STRUCTURED_POINTS
DIMENSIONS    64   64   1

ORIGIN    0.000   0.000   0.000
SPACING   0.0781250.078125   1.000

POINT_DATA   4096
SCALARS Omega double
LOOKUP_TABLE default

6.498001e-15 7.732531e-15 7.539298e-15 9.838011e-15 1.294463e-14 8.880101e-15 2.242606e-15 1.024729e-15 -2.956694e-15 -3.907185e-15 -6.435560e-15 -3.699895e-15 9.986312e-16 5.894420e-15 -1.165216e-15 -7.298679e-15 4.342542e-16 -5.385160e-16 1.097553e-15 3.496366e-15 6.592196e-15 -3.477579e-15 9.368226e-16 -5.094076e-15 -1.458434e-14 -2.325958e-14 -2.469761e-14 -7.943969e-15 1.121545e-15 4.254630e-16 -4.741290e-15 -5.833826e-15 -3.843716e-15 5.211158e-15 7.869654e-15 3.548417e-15 -5.318601e-16 -9.426409e-16 6.037676e-16 2.693302e-15 5.014878e-15 9.604689e-15 9.223088e-15 9.268997e-15 5.676784e-15 -1.788340e-16 4.345846e-15 6.045413e-15 4.177419e-15 -4.544150e-15 -9.332742e-15 -2.848937e-15 -1.656135e-14 1.749764e-15 -1.209152e-14 -1.021029e-14 -1.067121e-14 -1.069192e-14 -1.076292e-14 -6.656811e-15 -4.226050e-15 -4.351489e-15 -2.676515e-15 3.327645e-15 
8.266514e-05 8.281616e-05 8.579863e-05 9.081499e-05 9.797087e-05 1.072993e-04 1.176977e-04 1.298499e-04 1.417682e-04 1.546213e-04 1.659944e-04 1.774383e-04 1.866057e-04 1.954207e-04 2.019067e-04 2.084241e-04 2.131932e-04 2.191316e-04 2.239166e-04 2.312718e-04 2.373275e-04 2.469909e-04 2.541623e-04 2.652204e-04 2.719866e-04 2.821597e-04 2.865679e-04 2.934096e-04 2.941802e-04 2.961983e-04 2.932843e-04 2.904032e-04 2.848076e-04 2.781540e-04 2.712864e-04 2.626271e-04 2.556080e-04 2.467744e-04 2.399948e-04 2.324829e-04 2.255770e-04 2.203449e-04 2.125802e-04 2.099556e-04 2.008504e-04 2.004628e-04 1.902491e-04 1.910238e-04 1.805806e-04 1.809573e-04 1.712020e-04 1.696499e-04 1.608941e-04 1.565030e-04 1.483840e-04 1.411970e-04 1.332371e-04 1.242223e-04 1.164608e-04 1.072240e-04 1.004216e-04 9.280411e-05 8.818779e-05 8.386810e-05 
1.664064e-04 1.664722e-04 1.723528e-04 1.823990e-04 1.968423e-04 2.156590e-04 2.367001e-04 2.612169e-04 2.853301e-04 3.112571e-04 3.342989e-04 3.574432e-04 3.761611e-04 3.941785e-04 4.077582e-04 4.214545e-04 4.319782e-04 4.449257e-04 4.559247e-04 4.721677e-04 4.860450e-04 5.072763e-04 5.234346e-04 5.475564e-04 5.625630e-04 5.846032e-04 5.942123e-04 6.088778e-04 6.103844e-04 6.144628e-04 6.078460e-04 6.011832e-04 5.886573e-04 5.736986e-04 5.583288e-04 5.389366e-04 5.231949e-04 5.034410e-04 4.882996e-04 4.715972e-04 4.564578e-04 4.450724e-04 4.285478e-04 4.233238e-04 4.044970e-04 4.046421e-04 3.840090e-04 3.870403e-04 3.663352e-04 3.685806e-04 3.494755e-04 3.473237e-04 3.301373e-04 3.214834e-04 3.051997e-04 2.902080e-04 2.737886e-04 2.547204e-04 2.383997e-04 2.188340e-04 2.043927e-04 1.882744e-04 1.783832e-04 1.691849e-04 
2.453632e-04 2.457017e-04 2.549117e-04 2.705233e-04 2.930271e-04 3.222716e-04 3.552822e-04 3.937676e-04 4.321383e-04 4.735530e-04 5.110566e-04 5.489746e-04 5.804359e-04 6.108971e-04 6.345945e-04 6.582828e-04 6.768984e-04 6.988278e-04 7.174089e-04 7.435137e-04 7.655693e-04 7.983537e-04 8.229791e-04 8.592980e-04 8.814173e-04 9.139353e-04 9.273982e-04 9.485195e-04 9.496456e-04 9.550424e-04 9.442243e-04 9.340812e-04 9.149543e-04 8.930835e-04 8.703489e-04 8.423542e-04 8.195799e-04 7.911280e-04 7.694016e-04 7.451135e-04 7.229856e-04 7.059243e-04 6.806972e-04 6.720762e-04 6.419161e-04 6.406967e-04 6.063324e-04 6.089294e-04 5.735163e-04 5.744534e-04 5.413786e-04 5.353446e-04 5.058102e-04 4.900162e-04 4.627802e-04 4.379444e-04 4.113883e-04 3.811812e-04 3.554827e-04 3.252607e-04 3.029185e-04 2.784046e-04 2.632866e-04 2.494857e-04 
3.260439e-04 3.259277e-04 3.382107e-04 3.594645e-04 3.904848e-04 4.306863e-04 4.764735e-04 5.295951e-04 5.831112e-04 6.406964e-04 6.936123e-04 7.471304e-04 7.925992e-04 8.368019e-04 8.726656e-04 9.085926e-04 9.386802e-04 9.732326e-04 1.004329e-03 1.045486e-03 1.081812e-03 1.132596e-03 1.171933e-03 1.227244e-03 1.261496e-03 1.310198e-03 1.330117e-03 1.360927e-03 1.361398e-03 1.368138e-03 1.350304e-03 1.333564e-03 1.303254e-03 1.268909e-03 1.233317e-03 1.189832e-03 1.154404e-03 1.110404e-03 1.076981e-03 1.039684e-03 1.006383e-03 9.807803e-04 9.437769e-04 9.320490e-04 8.886479e-04 8.893308e-04 8.405562e-04 8.478304e-04 7.982277e-04 8.028826e-04 7.570735e-04 7.501685e-04 7.092113e-04 6.863761e-04 6.477915e-04 6.107214e-04 5.720706e-04 5.270546e-04 4.890739e-04 4.444981e-04 4.113295e-04 3.755180e-04 3.529365e-04 3.327429e-04 
3.946102e-04 3.946995e-04 4.108369e-04 4.386537e-04 4.795933e-04 5.323855e-04 5.933957e-04 6.640891e-04 7.367215e-04 8.152215e-04 8.892765e-04 9.648945e-04 1.031352e-03 1.096625e-03 1.151727e-03 1.206757e-03 1.254326e-03 1.306883e-03 1.354623e-03 1.414141e-03 1.466610e-03 1.536364e-03 1.590109e-03 1.663122e-03 1.707522e-03 1.769512e-03 1.793103e-03 1.830439e-03 1.827789e-03 1.834023e-03 1.807999e-03 1.785221e-03 1.744371e-03 1.700668e-03 1.654643e-03 1.600492e-03 1.556046e-03 1.501466e-03 1.460168e-03 1.413265e-03 1.371449e-03 1.338006e-03 1.289245e-03 1.272275e-03 1.211853e-03 1.210134e-03 1.139194e-03 1.145403e-03 1.071156e-03 1.072682e-03 1.003278e-03 9.880471e-04 9.265272e-04 8.898858e-04 8.335294e-04 7.794616e-04 7.248881e-04 6.626345e-04 6.104991e-04 5.509186e-04 5.062980e-04 4.594722e-04 4.294762e-04 4.034704e-04 
4.605554e-04 4.595622e-04 4.790798e-04 5.136730e-04 5.654493e-04 6.318174e-04 7.095685e-04 7.989411e-04 8.922463e-04 9.927060e-04 1.089512e-03 1.188541e-03 1.278171e-03 1.366800e-03 1.445044e-03 1.523684e-03 1.595906e-03 1.674252e-03 1.749543e-03 1.838575e-03 1.920712e-03 2.023278e-03 2.105275e-03 2.210660e-03 2.276223e-03 2.363722e-03 2.396399e-03 2.446881e-03 2.440036e-03 2.445395e-03 2.404730e-03 2.369062e-03 2.307790e-03 2.243098e-03 2.175219e-03 2.096373e-03 2.031584e-03 1.952776e-03 1.893705e-03 1.826710e-03 1.768701e-03 1.722282e-03 1.656416e-03 1.635534e-03 1.554779e-03 1.558092e-03 1.463602e-03 1.479907e-03 1.381606e-03 1.390422e-03 1.299226e-03 1.280908e-03 1.199841e-03 1.148127e-03 1.072203e-03 9.951100e-04 9.196575e-04 8.321716e-04 7.592382e-04 6.771228e-04 6.147300e-04 5.512470e-04 5.092074e-04 4.740401e-04 
5.016084e-04 5.003614e-04 5.241778e-04 5.664797e-04 6.307405e-04 7.123817e-04 8.098607e-04 9.214043e-04 1.040696e-03 1.169635e-03 1.297598e-03 1.429838e-03 1.553504e-03 1.677396e-03 1.790956e-03 1.906155e-03 2.015655e-03 2.132319e-03 2.246195e-03 2.374688e-03 2.493863e-03 2.634922e-03 2.748214e-03 2.886726e-03 2.972648e-03 3.082177e-03 3.120587e-03 3.178916e-03 3.163986e-03 3.164723e-03 3.107081e-03 3.058937e-03 2.977800e-03 2.897344e-03 2.811257e-03 2.716265e-03 2.636968e-03 2.542720e-03 2.472138e-03 2.390626e-03 2.320807e-03 2.261637e-03 2.178551e-03 2.148932e-03 2.040823e-03 2.041429e-03 1.908537e-03 1.925650e-03 1.782460e-03 1.786543e-03 1.651101e-03 1.614472e-03 1.494905e-03 1.413906e-03 1.305991e-03 1.197058e-03 1.094267e-03 9.781412e-04 8.816497e-04 7.767427e-04 6.957409e-04 6.165264e-04 5.625179e-04 5.192099e-04 
5.260914e-04 5.226116e-04 5.498727e-04 6.003481e-04 6.788084e-04 7.776921e-04 8.981679e-04 1.034661e-03 1.183950e-03 1.344204e-03 1.506476e-03 1.672727e-03 1.830779e-03 1.988972e-03 2.139695e-03 2.295948e-03 2.454710e-03 2.624657e-03 2.800249e-03 2.991592e-03 3.177377e-03 3.386339e-03 3.562013e-03 3.766162e-03 3.898464e-03 4.057964e-03 4.115656e-03 4.196693e-03 4.171849e-03 4.166713e-03 4.078126e-03 4.002746e-03 3.881096e-03 3.761385e-03 3.634231e-03 3.495964e-03 3.380426e-03 3.245252e-03 3.145235e-03 3.030458e-03 2.936214e-03 2.856109e-03 2.748137e-03 2.713955e-03 2.574017e-03 2.587801e-03 2.413707e-03 2.454124e-03 2.264066e-03 2.281069e-03 2.098710e-03 2.046603e-03 1.884068e-03 1.764854e-03 1.618466e-03 1.465125e-03 1.325861e-03 1.168248e-03 1.036761e-03 8.973804e-04 7.867101e-04 6.829258e-04 6.088213e-04 5.521299e-04 
5.045884e-04 4.997672e-04 5.313289e-04 5.908241e-04 6.859319e-04 8.052935e-04 9.557740e-04 1.126789e-03 1.320637e-03 1.528534e-03 1.741733e-03 1.954139e-03 2.152612e-03 2.347259e-03 2.537426e-03 2.743867e-03 2.968865e-03 3.216438e-03 3.481318e-03 3.764020e-03 4.041899e-03 4.342714e-03 4.601258e-03 4.888890e-03 5.083934e-03 5.303627e-03 5.390174e-03 5.494818e-03 5.460593e-03 5.444564e-03 5.320005e-03 5.213938e-03 5.047396e-03 4.891870e-03 4.723759e-03 4.552373e-03 4.405249e-03 4.240986e-03 4.118202e-03 3.976829e-03 3.863307e-03 3.759449e-03 3.626010e-03 3.576498e-03 3.393190e-03 3.407222e-03 3.164184e-03 3.213335e-03 2.929787e-03 2.931284e-03 2.641787e-03 2.527277e-03 2.268602e-03 2.072242e-03 1.862249e-03 1.654293e-03 1.477520e-03 1.285568e-03 1.124548e-03 9.591245e-04 8.222700e-04 6.989008e-04 6.061477e-04 5.383788e-04 
4.381323e-04 4.296309e-04 4.647789e-04 5.364286e-04 6.564775e-04 8.112040e-04 1.018276e-03 1.261438e-03 1.550622e-03 1.857740e-03 2.162875e-03 2.430350e-03 2.641684e-03 2.813319e-03 2.977620e-03 3.183813e-03 3.460347e-03 3.796999e-03 4.194364e-03 4.617564e-03 5.056063e-03 5.520186e-03 5.947906e-03 6.417360e-03 6.770310e-03 7.152808e-03 7.338415e-03 7.530190e-03 7.503387e-03 7.481450e-03 7.290070e-03 7.113831e-03 6.847853e-03 6.595593e-03 6.327130e-03 6.057186e-03 5.824666e-03 5.573170e-03 5.385811e-03 5.176647e-03 5.017347e-03 4.872001e-03 4.700382e-03 4.643468e-03 4.410908e-03 4.456153e-03 4.133781e-03 4.228476e-03 3.820411e-03 3.806318e-03 3.347695e-03 3.112445e-03 2.693349e-03 2.362781e-03 2.066735e-03 1.795770e-03 1.592884e-03 1.379313e-03 1.196425e-03 1.008463e-03 8.396888e-04 6.914630e-04 5.705231e-04 4.859841e-04 
2.964099e-04 2.870276e-04 3.300292e-04 4.237006e-04 5.930533e-04 8.310693e-04 1.183531e-03 1.636028e-03 2.207135e-03 2.816192e-03 3.379009e-03 3.763916e-03 3.916265e-03 3.883712e-03 3.800703e-03 3.825366e-03 4.052235e-03 4.455938e-03 5.019940e-03 5.646778e-03 6.322487e-03 7.046207e-03 7.761606e-03 8.561292e-03 9.247917e-03 9.970491e-03 1.042604e-02 1.082833e-02 1.089250e-02 1.089055e-02 1.062096e-02 1.033615e-02 9.913771e-03 9.513952e-03 9.086089e-03 8.680820e-03 8.318343e-03 7.956468e-03 7.673954e-03 7.374445e-03 7.147792e-03 6.928635e-03 6.700317e-03 6.596794e-03 6.286434e-03 6.327622e-03 5.855725e-03 5.943622e-03 5.244932e-03 5.060509e-03 4.151355e-03 3.525550e-03 2.685366e-03 2.047374e-03 1.607392e-03 1.321585e-03 1.197219e-03 1.093755e-03 9.951512e-04 8.714667e-04 7.205126e-04 5.812480e-04 4.469244e-04 3.550373e-04 
6.813906e-05 6.192628e-05 1.251056e-04 2.792926e-04 5.861513e-04 1.084453e-03 1.900131e-03 3.055969e-03 4.574649e-03 6.214104e-03 7.635523e-03 8.380098e-03 8.246105e-03 7.374852e-03 6.236518e-03 5.346867e-03 5.032795e-03 5.247992e-03 5.926219e-03 6.794868e-03 7.851140e-03 9.053875e-03 1.041541e-02 1.204506e-02 1.366011e-02 1.538680e-02 1.669143e-02 1.779229e-02 1.821888e-02 1.835898e-02 1.795066e-02 1.740088e-02 1.658788e-02 1.577156e-02 1.491163e-02 1.409262e-02 1.335169e-02 1.263606e-02 1.205790e-02 1.148173e-02 1.104399e-02 1.063280e-02 1.025724e-02 1.005613e-02 9.605481e-03 9.638830e-03 8.910469e-03 8.940170e-03 7.651265e-03 6.974719e-03 5.030561e-03 3.393580e-03 1.574860e-03 2.547408e-04 -3.973895e-04 -5.289121e-04 -2.666932e-04 7.668443e-05 3.292908e-04 4.626895e-04 4.330221e-04 3.606456e-04 2.304734e-04 1.394259e-04 
-2.580340e-04 -2.359109e-04 -1.024909e-04 2.325006e-04 9.474454e-04 2.250912e-03 4.511452e-03 7.913833e-03 1.246532e-02 1.744433e-02 2.165600e-02 2.362742e-02 2.265321e-02 1.917012e-02 1.462940e-02 1.064468e-02 8.199472e-03 7.283712e-03 7.644512e-03 8.644179e-03 1.021157e-02 1.231606e-02 1.509422e-02 1.871805e-02 2.275325e-02 2.711821e-02 3.085087e-02 3.392003e-02 3.557407e-02 3.625759e-02 3.572597e-02 3.464701e-02 3.299472e-02 3.125218e-02 2.940650e-02 2.766911e-02 2.604404e-02 2.454105e-02 2.323593e-02 2.200140e-02 2.098901e-02 2.002669e-02 1.920206e-02 1.856415e-02 1.769722e-02 1.740071e-02 1.599242e-02 1.547184e-02 1.260431e-02 1.024394e-02 5.459142e-03 9.299685e-04 -3.523297e-03 -6.511928e-03 -7.481852e-03 -6.802773e-03 -5.140430e-03 -3.268772e-03 -1.805824e-03 -7.971677e-04 -3.388376e-04 -1.342393e-04 -1.592263e-04 -1.987004e-04 
-6.925258e-04 -5.762014e-04 -2.292155e-04 6.409953e-04 2.552431e-03 6.250758e-03 1.281283e-02 2.296367e-02 3.663866e-02 5.174209e-02 6.450049e-02 7.048521e-02 6.746698e-02 5.667300e-02 4.226581e-02 2.892372e-02 1.954882e-02 1.436501e-02 1.268178e-02 1.299804e-02 1.512911e-02 1.907978e-02 2.538525e-02 3.427963e-02 4.486161e-02 5.645198e-02 6.685484e-02 7.541886e-02 8.056545e-02 8.293232e-02 8.229867e-02 7.999360e-02 7.629799e-02 7.218188e-02 6.781159e-02 6.360334e-02 5.960897e-02 5.588348e-02 5.252926e-02 4.937880e-02 4.665142e-02 4.406951e-02 4.182625e-02 3.984823e-02 3.768564e-02 3.620238e-02 3.294993e-02 3.053709e-02 2.365234e-02 1.654127e-02 4.521737e-03 -7.588176e-03 -1.862330e-02 -2.555586e-02 -2.684916e-02 -2.354445e-02 -1.784574e-02 -1.179603e-02 -7.065959e-03 -3.771645e-03 -2.010703e-03 -1.085509e-03 -8.029343e-04 -6.925446e-04 
-1.165156e-03 -7.708920e-04 1.895019e-04 2.541810e-03 7.738568e-03 1.802292e-02 3.639885e-02 6.511819e-02 1.038560e-01 1.467865e-01 1.830823e-01 2.004942e-01 1.928448e-01 1.635391e-01 1.235937e-01 8.552310e-02 5.693392e-02 3.898182e-02 3.008723e-02 2.711911e-02 2.954659e-02 3.775203e-02 5.283207e-02 7.497444e-02 1.019922e-01 1.314307e-01 1.584918e-01 1.806818e-01 1.948433e-01 2.017210e-01 2.014109e-01 1.966296e-01 1.884880e-01 1.790883e-01 1.689932e-01 1.591744e-01 1.496580e-01 1.407518e-01 1.323865e-01 1.245035e-01 1.172409e-01 1.102327e-01 1.038559e-01 9.766236e-02 9.149637e-02 8.574498e-02 7.717604e-02 6.851111e-02 5.090546e-02 3.046052e-02 -5.503808e-04 -3.263882e-02 -6.053332e-02 -7.683711e-02 -7.786264e-02 -6.660134e-02 -4.975487e-02 -3.272562e-02 -1.960920e-02 -1.064430e-02 -5.632237e-03 -2.953909e-03 -1.865988e-03 -1.367198e-03 
-1.588368e-03 -4.851890e-04 2.058614e-03 8.197188e-03 2.174309e-02 4.873920e-02 9.700894e-02 1.726146e-01 2.743627e-01 3.869523e-01 4.819418e-01 5.282873e-01 5.108371e-01 4.386406e-01 3.385878e-01 2.413248e-01 1.654147e-01 1.144358e-01 8.533894e-02 7.218826e-02 7.428217e-02 9.292192e-02 1.301440e-01 1.849578e-01 2.511417e-01 3.221338e-01 3.871200e-01 4.401717e-01 4.745564e-01 4.917750e-01 4.924842e-01 4.825926e-01 4.650223e-01 4.442090e-01 4.216838e-01 3.994240e-01 3.775624e-01 3.567525e-01 3.367573e-01 3.175706e-01 2.992436e-01 2.812065e-01 2.640504e-01 2.467366e-01 2.295067e-01 2.116940e-01 1.887941e-01 1.625864e-01 1.177494e-01 6.258426e-02 -1.580046e-02 -9.780956e-02 -1.663672e-01 -2.038115e-01 -2.015042e-01 -1.684310e-01 -1.231499e-01 -7.956823e-02 -4.683232e-02 -2.510726e-02 -1.290993e-02 -6.461239e-03 -3.625212e-03 -2.282842e-03 
-1.621228e-03 1.140636e-03 7.454587e-03 2.251359e-02 5.560266e-02 1.215042e-01 2.389462e-01 4.222647e-01 6.672769e-01 9.360017e-01 1.159816e+00 1.267254e+00 1.226933e+00 1.063082e+00 8.366513e-01 6.158779e-01 4.395417e-01 3.163331e-01 2.412259e-01 2.051042e-01 2.082315e-01 2.546440e-01 3.456439e-01 4.751173e-01 6.258583e-01 7.823995e-01 9.235507e-01 1.037422e+00 1.111481e+00 1.148850e+00 1.151565e+00 1.131802e+00 1.095928e+00 1.052960e+00 1.006169e+00 9.595708e-01 9.132003e-01 8.686317e-01 8.247081e-01 7.819582e-01 7.395198e-01 6.968332e-01 6.544172e-01 6.100939e-01 5.653505e-01 5.162999e-01 4.579048e-01 3.865485e-01 2.756960e-01 1.344908e-01 -5.902161e-02 -2.622461e-01 -4.268571e-01 -5.101754e-01 -4.927746e-01 -4.012566e-01 -2.853401e-01 -1.795743e-01 -1.028701e-01 -5.387154e-02 -2.675468e-02 -1.275460e-02 -6.423135e-03 -3.406609e-03 
-7.701686e-04 5.514677e-03 1.998301e-02 5.423196e-02 1.291072e-01 2.775881e-01 5.405479e-01 9.477363e-01 1.485380e+00 2.064841e+00 2.533991e+00 2.744681e+00 2.644369e+00 2.297722e+00 1.832654e+00 1.387226e+00 1.033168e+00 7.830566e-01 6.262381e-01 5.524940e-01 5.685184e-01 6.846929e-01 8.973359e-01 1.184146e+00 1.498969e+00 1.811564e+00 2.085029e+00 2.301852e+00 2.440539e+00 2.509377e+00 2.512293e+00 2.472810e+00 2.403058e+00 2.319424e+00 2.228350e+00 2.136879e+00 2.044997e+00 1.955618e+00 1.866126e+00 1.777613e+00 1.687615e+00 1.595240e+00 1.500412e+00 1.399147e+00 1.294415e+00 1.176398e+00 1.039936e+00 8.662749e-01 6.090101e-01 2.718808e-01 -1.818712e-01 -6.599872e-01 -1.034921e+00 -1.211171e+00 -1.143127e+00 -9.055071e-01 -6.239387e-01 -3.804194e-01 -2.109473e-01 -1.072469e-01 -5.140604e-02 -2.342390e-02 -1.075550e-02 -4.709276e-03 
1.909693e-03 1.502775e-02 4.557343e-02 1.174284e-01 2.735207e-01 5.808194e-01 1.119851e+00 1.943525e+00 3.009678e+00 4.123122e+00 4.972895e+00 5.284089e+00 5.003169e+00 4.304487e+00 3.447368e+00 2.676124e+00 2.091778e+00 1.696567e+00 1.451831e+00 1.353258e+00 1.429023e+00 1.706449e+00 2.161636e+00 2.735222e+00 3.316073e+00 3.855176e+00 4.309328e+00 4.661963e+00 4.882712e+00 4.986615e+00 4.980517e+00 4.902944e+00 4.774520e+00 4.621657e+00 4.455907e+00 4.288404e+00 4.119344e+00 3.953697e+00 3.785807e+00 3.618284e+00 3.444805e+00 3.264343e+00 3.075096e+00 2.869528e+00 2.654528e+00 2.405292e+00 2.126354e+00 1.753920e+00 1.214139e+00 4.805708e-01 -5.079303e-01 -1.562291e+00 -2.377011e+00 -2.738894e+00 -2.531922e+00 -1.950344e+00 -1.298966e+00 -7.638853e-01 -4.078439e-01 -2.001003e-01 -9.224600e-02 -4.018669e-02 -1.695430e-02 -5.914617e-03 
7.602099e-03 3.267184e-02 9.173103e-02 2.299179e-01 5.279472e-01 1.109090e+00 2.115166e+00 3.622581e+00 5.513930e+00 7.383614e+00 8.644056e+00 8.845062e+00 8.030504e+00 6.665298e+00 5.245277e+00 4.146278e+00 3.474177e+00 3.130362e+00 2.947008e+00 2.934522e+00 3.177540e+00 3.744876e+00 4.569519e+00 5.547385e+00 6.436071e+00 7.176612e+00 7.774176e+00 8.232922e+00 8.512595e+00 8.628036e+00 8.590826e+00 8.443731e+00 8.224417e+00 7.963849e+00 7.683532e+00 7.396708e+00 7.108145e+00 6.821890e+00 6.534052e+00 6.244213e+00 5.949294e+00 5.639572e+00 5.324317e+00 4.976943e+00 4.627197e+00 4.198934e+00 3.750455e+00 3.093202e+00 2.132996e+00 7.416710e-01 -1.170936e+00 -3.280584e+00 -4.966406e+00 -5.738282e+00 -5.252897e+00 -3.961211e+00 -2.559100e+00 -1.451975e+00 -7.451372e-01 -3.513695e-01 -1.553098e-01 -6.456983e-02 -2.513846e-02 -6.568879e-03 
1.749939e-02 6.128320e-02 1.654811e-01 4.079579e-01 9.264940e-01 1.925511e+00 3.624819e+00 6.099077e+00 9.051957e+00 1.168317e+01 1.295493e+01 1.222731e+01 9.956809e+00 7.346208e+00 5.336034e+00 4.299906e+00 4.227410e+00 4.713455e+00 5.144407e+00 5.530266e+00 6.080555e+00 6.956934e+00 7.997007e+00 9.192039e+00 1.008047e+01 1.057590e+01 1.098833e+01 1.135185e+01 1.158285e+01 1.164260e+01 1.155866e+01 1.131127e+01 1.099552e+01 1.060738e+01 1.019495e+01 9.759068e+00 9.330598e+00 8.886951e+00 8.463284e+00 8.023474e+00 7.621867e+00 7.189052e+00 6.844909e+00 6.424796e+00 6.154135e+00 5.662600e+00 5.324352e+00 4.600940e+00 3.381400e+00 1.334877e+00 -1.648589e+00 -5.221503e+00 -8.766014e+00 -1.072462e+01 -9.978209e+00 -7.468200e+00 -4.719550e+00 -2.595143e+00 -1.281716e+00 -5.798232e-01 -2.449133e-01 -9.683794e-02 -3.476296e-02 -5.987088e-03 
3.223282e-02 1.016743e-01 2.683539e-01 6.540756e-01 1.471135e+00 3.022752e+00 5.602235e+00 9.203711e+00 1.314583e+01 1.590668e+01 1.574975e+01 1.196648e+01 6.403949e+00 1.663055e+00 -9.184049e-01 -5.701145e-01 2.077363e+00 5.201679e+00 7.430457e+00 8.708165e+00 9.418330e+00 9.826081e+00 9.507484e+00 9.689885e+00 9.511433e+00 8.337398e+00 7.792483e+00 7.707041e+00 7.691540e+00 7.641901e+00 7.570011e+00 7.216696e+00 6.954457e+00 6.520715e+00 6.122436e+00 5.619254e+00 5.161913e+00 4.543469e+00 4.069806e+00 3.417276e+00 3.084849e+00 2.534184e+00 2.713846e+00 2.415247e+00 3.273003e+00 3.359015e+00 4.215714e+00 5.122950e+00 4.758112e+00 3.409174e+00 1.069394e+00 -2.721839e+00 -1.037636e+01 -1.613677e+01 -1.638088e+01 -1.259381e+01 -7.947056e+00 -4.287541e+00 -2.052296e+00 -8.925666e-01 -3.598109e-01 -1.346752e-01 -4.422632e-02 -3.254334e-03 
5.066394e-02 1.501937e-01 3.906918e-01 9.438661e-01 2.103291e+00 4.268903e+00 7.767341e+00 1.236450e+01 1.664045e+01 1.775871e+01 1.282844e+01 1.451613e+00 -1.006113e+01 -1.838025e+01 -2.253578e+01 -1.639651e+01 -5.687541e+00 2.607047e+00 8.244755e+00 1.064129e+01 1.017543e+01 6.911655e+00 -9.035002e-01 -5.140975e+00 -8.036559e+00 -1.419215e+01 -1.620626e+01 -1.627344e+01 -1.624106e+01 -1.564100e+01 -1.524006e+01 -1.570006e+01 -1.543675e+01 -1.591274e+01 -1.573561e+01 -1.603425e+01 -1.596977e+01 -1.684825e+01 -1.679313e+01 -1.828012e+01 -1.780117e+01 -1.946200e+01 -1.685873e+01 -1.833712e+01 -1.391796e+01 -1.181490e+01 -9.525454e+00 -3.066086e-01 1.346920e+00 5.125123e+00 1.236619e+01 1.538548e+01 1.637973e-01 -1.466246e+01 -2.097886e+01 -1.801205e+01 -1.180071e+01 -6.380339e+00 -2.995386e+00 -1.260460e+00 -4.858305e-01 -1.717049e-01 -5.108499e-02 2.033244e-03 
7.004465e-02 1.980285e-01 5.090501e-01 1.219964e+00 2.693773e+00 5.400503e+00 9.639455e+00 1.479200e+01 1.824297e+01 1.464086e+01 -1.941896e+00 -3.300936e+01 -5.282731e+01 -6.448096e+01 -7.066193e+01 -4.342517e+01 -1.639086e+01 -4.303325e+00 5.566050e+00 7.855437e+00 2.065467e+00 -1.149233e+01 -4.676039e+01 -6.129522e+01 -6.116383e+01 -7.699867e+01 -7.941413e+01 -7.503331e+01 -7.218037e+01 -6.632178e+01 -6.283803e+01 -6.327349e+01 -6.147920e+01 -6.327402e+01 -6.129806e+01 -6.052267e+01 -5.748165e+01 -5.730086e+01 -5.252891e+01 -5.491064e+01 -4.930135e+01 -5.279702e+01 -4.439262e+01 -4.867631e+01 -4.176118e+01 -3.730094e+01 -3.699062e+01 -1.917679e+01 -2.170651e+01 -3.011123e+00 1.557418e+01 3.530937e+01 3.509175e+01 1.444921e+01 -1.284222e+01 -1.936226e+01 -1.467910e+01 -8.263392e+00 -3.870858e+00 -1.590290e+00 -5.880022e-01 -1.953847e-01 -5.128158e-02 1.026201e-02 
8.549028e-02 2.325774e-01 5.918165e-01 1.408014e+00 3.083614e+00 6.120462e+00 1.077096e+01 1.609503e+01 1.828910e+01 8.401680e+00 -2.843595e+01 -1.128013e+02 -1.565814e+02 -9.915857e+01 -5.397424e+01 -6.836705e+01 -5.134913e+01 -1.114555e+01 -5.023998e-01 -2.155915e+00 -2.193240e+01 -5.094775e+01 -1.190559e+02 -1.611063e+02 -1.453383e+02 -1.328401e+02 -1.225794e+02 -1.073611e+02 -9.578066e+01 -8.250293e+01 -6.952206e+01 -6.826662e+01 -6.561226e+01 -6.787411e+01 -6.408191e+01 -5.608047e+01 -4.514184e+01 -3.276347e+01 -1.385835e+01 -6.846293e+00 5.914103e+00 9.181575e+00 1.095029e+01 9.534197e+00 6.437327e+00 -3.336845e+00 8.587102e+00 -2.573264e+00 -1.003641e+01 3.435910e+01 4.818598e+00 4.722492e+01 1.304945e+02 9.316130e+01 1.470794e+01 -1.433911e+01 -1.519279e+01 -9.146522e+00 -4.318274e+00 -1.744373e+00 -6.210208e-01 -1.930575e-01 -4.262521e-02 1.995419e-02 
9.313696e-02 2.436108e-01 6.132964e-01 1.449148e+00 3.152754e+00 6.220807e+00 1.090145e+01 1.631270e+01 1.869742e+01 8.833982e+00 -3.213909e+01 -1.408232e+02 -2.108417e+02 -1.147567e+02 -3.928515e+01 -7.612999e+01 -4.208873e+01 -4.667766e-01 -8.994856e+00 -1.382349e+01 -5.339917e+01 -1.072073e+02 -1.176185e+02 -8.639918e+01 -6.364399e+01 -4.835972e+01 -4.324176e+01 -3.319254e+01 -2.192579e+01 -1.524523e+01 -2.105231e+00 -5.620512e-01 -2.280079e-01 1.453671e+00 5.381680e+00 2.026142e+01 3.362204e+01 5.378552e+01 7.268859e+01 8.580131e+01 9.123825e+01 1.005022e+02 8.772147e+01 9.603255e+01 8.642635e+01 7.152612e+01 1.020301e+02 6.597131e+01 7.994287e+01 1.179243e+02 5.383368e+01 1.186519e+02 2.158052e+02 1.245396e+02 2.079814e+01 -1.259940e+01 -1.414324e+01 -8.556872e+00 -4.025872e+00 -1.597783e+00 -5.460450e-01 -1.550704e-01 -2.387047e-02 2.985870e-02 
9.022667e-02 2.274324e-01 5.670991e-01 1.333668e+00 2.893998e+00 5.715736e+00 1.010485e+01 1.554952e+01 1.943058e+01 1.525509e+01 -9.849263e+00 -7.631825e+01 -1.273347e+02 -7.611452e+01 -5.143007e+01 -7.125296e+01 -4.629370e+01 -2.137858e+01 5.221034e+00 -5.189556e+00 -2.784072e+01 -6.080253e+01 -2.594428e+01 6.745026e+01 7.592210e+01 5.552493e+01 4.400396e+01 4.040926e+01 4.161437e+01 3.623325e+01 3.777228e+01 3.700439e+01 3.518594e+01 3.893007e+01 4.051768e+01 4.967927e+01 5.462921e+01 6.386287e+01 6.746962e+01 7.295073e+01 6.922226e+01 7.430734e+01 6.408003e+01 7.317091e+01 6.958867e+01 6.760610e+01 8.976615e+01 7.404363e+01 9.825974e+01 1.070233e+02 8.305116e+01 1.359036e+02 1.651935e+02 7.142600e+01 2.515562e+00 -1.461079e+01 -1.251690e+01 -7.089544e+00 -3.234960e+00 -1.238829e+00 -3.975521e-01 -9.654692e-02 -2.120470e-03 3.625662e-02 
7.826230e-02 1.898073e-01 4.687307e-01 1.099096e+00 2.387069e+00 4.743063e+00 8.519946e+00 1.358921e+01 1.855576e+01 1.969637e+01 1.054078e+01 -1.438698e+01 -3.299350e+01 -1.333937e+01 -2.799365e+01 -6.888286e+01 -8.835668e+01 -4.494537e+01 4.497868e+01 1.338082e+01 -1.475955e+01 -4.279927e+00 2.518806e+01 7.426149e+01 5.465939e+01 3.470756e+01 2.739976e+01 2.395369e+01 2.281236e+01 1.823232e+01 1.617065e+01 1.501514e+01 1.341992e+01 1.437856e+01 1.335739e+01 1.434601e+01 1.368479e+01 1.429221e+01 1.328004e+01 1.409524e+01 1.243087e+01 1.366643e+01 1.119647e+01 1.338223e+01 1.219337e+01 1.255612e+01 1.759899e+01 1.704233e+01 2.465524e+01 2.469484e+01 2.644793e+01 5.006804e+01 5.914412e+01 1.840745e+01 -9.958527e+00 -1.377982e+01 -9.647112e+00 -5.076561e+00 -2.208455e+00 -7.951627e-01 -2.268565e-01 -3.637523e-02 1.633706e-02 3.778741e-02 
6.014946e-02 1.407430e-01 3.446137e-01 8.071777e-01 1.759161e+00 3.527243e+00 6.453888e+00 1.065999e+01 1.562164e+01 1.960098e+01 1.982142e+01 1.484815e+01 1.143271e+01 1.268908e+01 -1.082389e+01 -5.212366e+01 -9.687251e+01 -6.193688e+01 8.517077e+01 1.543736e+01 -6.188105e+01 2.788788e+01 5.478617e+01 4.497166e+01 1.186139e+01 -2.256562e+00 -7.174427e+00 -8.243166e+00 -7.773433e+00 -8.048621e+00 -8.208107e+00 -8.514003e+00 -9.294727e+00 -9.736725e+00 -1.069424e+01 -1.122245e+01 -1.175049e+01 -1.193751e+01 -1.214052e+01 -1.204366e+01 -1.235346e+01 -1.245155e+01 -1.322424e+01 -1.347004e+01 -1.437365e+01 -1.448377e+01 -1.431486e+01 -1.401185e+01 -1.345189e+01 -1.471042e+01 -1.270568e+01 -3.234689e+00 3.504539e+00 -5.309443e+00 -1.182639e+01 -1.010105e+01 -6.246344e+00 -3.077416e+00 -1.259197e+00 -4.092716e-01 -8.990997e-02 5.587712e-03 2.525856e-02 3.344236e-02 
3.986316e-02 9.031660e-02 2.194149e-01 5.138759e-01 1.125085e+00 2.278075e+00 4.242122e+00 7.219609e+00 1.114727e+01 1.541697e+01 1.899150e+01 2.117422e+01 2.274907e+01 2.175472e+01 6.660463e+00 -3.566999e+01 -1.337763e+02 -1.767516e+02 -5.829319e+01 4.413542e+00 5.813773e+01 1.477072e+02 1.035736e+02 2.782346e+01 -6.639250e+00 -1.665102e+01 -1.836343e+01 -1.744317e+01 -1.599545e+01 -1.506365e+01 -1.456672e+01 -1.442374e+01 -1.457781e+01 -1.471289e+01 -1.493463e+01 -1.504126e+01 -1.506923e+01 -1.501084e+01 -1.493981e+01 -1.485571e+01 -1.489587e+01 -1.499406e+01 -1.525129e+01 -1.547834e+01 -1.579350e+01 -1.588332e+01 -1.598317e+01 -1.589320e+01 -1.616298e+01 -1.703365e+01 -1.636720e+01 -1.287017e+01 -9.405884e+00 -9.036787e+00 -8.400455e+00 -5.910807e+00 -3.361815e+00 -1.557671e+00 -5.885668e-01 -1.600472e-01 -1.347038e-02 2.192354e-02 2.365354e-02 2.460446e-02 
1.959579e-02 4.343019e-02 1.049781e-01 2.460292e-01 5.409485e-01 1.104226e+00 2.084190e+00 3.624113e+00 5.788849e+00 8.450845e+00 1.129669e+01 1.393406e+01 1.592045e+01 1.557497e+01 7.017778e+00 -2.376182e+01 -9.630250e+01 -1.818141e+02 -2.120376e+02 -3.025301e+01 1.497676e+02 1.286210e+02 6.361785e+01 1.072164e+01 -8.807914e+00 -1.334552e+01 -1.330193e+01 -1.207665e+01 -1.084903e+01 -1.002012e+01 -9.554988e+00 -9.336825e+00 -9.270952e+00 -9.235687e+00 -9.215454e+00 -9.169960e+00 -9.098672e+00 -9.010688e+00 -8.924661e+00 -8.850163e+00 -8.808904e+00 -8.797090e+00 -8.817098e+00 -8.837582e+00 -8.864501e+00 -8.831726e+00 -8.807443e+00 -8.736546e+00 -8.841778e+00 -9.143220e+00 -8.955601e+00 -7.822032e+00 -6.417026e+00 -5.238487e+00 -4.006178e+00 -2.565415e+00 -1.377408e+00 -6.035479e-01 -2.078413e-01 -4.191938e-02 8.654934e-03 1.684894e-02 1.393620e-02 1.291034e-02 
-4.925741e-15 -2.449837e-15 6.151290e-15 -5.804138e-15 -4.534665e-15 -1.445041e-14 5.466371e-16 2.258921e-15 5.765323e-15 1.088092e-14 3.582204e-14 4.501994e-14 -1.109873e-15 -1.993855e-13 -2.810294e-13 9.509169e-13 2.582123e-12 2.425389e-12 -7.115745e-12 -1.071703e-11 6.572169e-14 1.073077e-12 -4.554771e-12 -1.834063e-12 1.427160e-13 5.367899e-13 3.566930e-13 1.791131e-13 1.239213e-13 9.044947e-14 5.160385e-14 3.085733e-14 -2.820214e-14 -3.494644e-14 -5.606732e-14 -4.821779e-14 -4.231571e-14 -2.629597e-14 -8.820055e-15 1.182168e-14 7.169623e-14 5.378447e-14 4.185987e-14 2.724229e-14 2.368183e-14 -1.527781e-14 -3.384481e-14 -1.222681e-13 -2.070881e-13 -2.266397e-13 -2.655868e-13 -2.180196e-13 -1.663515e-13 -1.182790e-13 -1.115846e-13 -1.008444e-13 -7.468706e-14 -4.299376e-14 -2.403635e-14 -1.110242e-14 -8.717109e-15 -6.103233e-15 1.054197e-15 -3.940611e-15 
-1.959579e-02 -4.343019e-02 -1.049781e-01 -2.460292e-01 -5.409485e-01 -1.104226e+00 -2.084190e+00 -3.624113e+00 -5.788849e+00 -8.450845e+00 -1.129669e+01 -1.393406e+01 -1.592045e+01 -1.557497e+01 -7.017778e+00 2.376182e+01 9.630250e+01 1.818141e+02 2.120376e+02 3.025301e+01 -1.497676e+02 -1.286210e+02 -6.361785e+01 -1.072164e+01 8.807914e+00 1.334552e+01 1.330193e+01 1.207665e+01 1.084903e+01 1.002012e+01 9.554988e+00 9.336825e+00 9.270952e+00 9.235687e+00 9.215454e+00 9.169960e+00 9.098672e+00 9.010688e+00 8.924661e+00 8.850163e+00 8.808904e+00 8.797090e+00 8.817098e+00 8.837582e+00 8.864501e+00 8.831726e+00 8.807443e+00 8.736546e+00 8.841778e+00 9.143220e+00 8.955601e+00 7.822032e+00 6.417026e+00 5.238487e+00 4.006178e+00 2.565415e+00 1.377408e+00 6.035479e-01 2.078413e-01 4.191938e-02 -8.654934e-03 -1.684894e-02 -1.393620e-02 -1.291034e-02 
-3.986316e-02 -9.031660e-02 -2.194149e-01 -5.138759e-01 -1.125085e+00 -2.278075e+00 -4.242122e+00 -7.219609e+00 -1.114727e+01 -1.541697e+01 -1.899150e+01 -2.117422e+01 -2.274907e+01 -2.175472e+01 -6.660463e+00 3.566999e+01 1.337763e+02 1.767516e+02 5.829319e+01 -4.413542e+00 -5.813773e+01 -1.477072e+02 -1.035736e+02 -2.782346e+01 6.639250e+00 1.665102e+01 1.836343e+01 1.744317e+01 1.599545e+01 1.506365e+01 1.456672e+01 1.442374e+01 1.457781e+01 1.471289e+01 1.493463e+01 1.504126e+01 1.506923e+01 1.501084e+01 1.493981e+01 1.485571e+01 1.489587e+01 1.499406e+01 1.525129e+01 1.547834e+01 1.579350e+01 1.588332e+01 1.598317e+01 1.589320e+01 1.616298e+01 1.703365e+01 1.636720e+01 1.287017e+01 9.405884e+00 9.036787e+00 8.400455e+00 5.910807e+00 3.361815e+00 1.557671e+00 5.885668e-01 1.600472e-01 1.347038e-02 -2.192354e-02 -2.365354e-02 -2.460446e-02 