# vtk DataFile Version 2.0
Comment goes here
ASCII

DATASET STRUCTURED_POINTS
DIMENSIONS    64   64   1

ORIGIN    0.000   0.000   0.000
SPACING   0.0781250.078125   1.000

POINT_DATA   4096
SCALARS Omega double
LOOKUP_TABLE default

-2.967815e-15 -6.534722e-15 1.320709e-15 1.937084e-15 1.364391e-14 9.331449e-15 1.039394e-14 1.480589e-14 1.341311e-14 1.082694e-14 8.655416e-16 -2.926349e-15 -1.185077e-14 -8.505631e-15 2.413628e-15 1.035151e-14 1.409194e-15 6.797783e-16 -1.350209e-14 -2.697313e-14 -2.884525e-14 -2.812440e-14 -2.054576e-14 -1.183910e-14 -7.731834e-15 -2.088174e-14 -1.726374e-14 -4.902299e-15 -2.458322e-14 -2.404859e-14 -1.949133e-14 -6.384145e-15 -1.667971e-14 -1.084442e-14 -9.867970e-17 2.051044e-15 1.153880e-14 1.755167e-14 1.930109e-14 7.834982e-15 1.436986e-16 -7.951943e-15 -5.402191e-15 -6.212043e-16 3.467026e-15 7.466229e-15 1.622203e-14 1.870236e-14 2.002151e-14 1.214955e-14 1.071834e-14 5.426771e-15 9.622122e-15 6.317530e-15 4.774042e-15 4.220516e-15 3.553072e-15 2.605012e-15 2.039221e-15 3.381486e-15 1.870505e-15 -1.308627e-15 -2.400382e-16 8.046043e-16 
3.440473e-04 3.809446e-04 4.294716e-04 4.901044e-04 5.622932e-04 6.450296e-04 7.334448e-04 8.264791e-04 9.144412e-04 9.997609e-04 1.069208e-03 1.132381e-03 1.174857e-03 1.213879e-03 1.236234e-03 1.262431e-03 1.282350e-03 1.312942e-03 1.347895e-03 1.396090e-03 1.453782e-03 1.522313e-03 1.597717e-03 1.677942e-03 1.756541e-03 1.832365e-03 1.896689e-03 1.951320e-03 1.987665e-03 2.010155e-03 2.012883e-03 2.001404e-03 1.973396e-03 1.934082e-03 1.883836e-03 1.826666e-03 1.764001e-03 1.698313e-03 1.630765e-03 1.562296e-03 1.493245e-03 1.423230e-03 1.351844e-03 1.277920e-03 1.200803e-03 1.119525e-03 1.033914e-03 9.444414e-04 8.520167e-04 7.593004e-04 6.681402e-04 5.828022e-04 5.048955e-04 4.384698e-04 3.834047e-04 3.418243e-04 3.114585e-04 2.923398e-04 2.812925e-04 2.776111e-04 2.791733e-04 2.860218e-04 2.982281e-04 3.169601e-04 
7.001072e-04 7.942077e-04 9.144049e-04 1.062103e-03 1.235936e-03 1.433164e-03 1.642543e-03 1.860192e-03 2.064372e-03 2.258385e-03 2.413624e-03 2.549548e-03 2.636298e-03 2.711025e-03 2.747598e-03 2.790947e-03 2.821992e-03 2.877730e-03 2.946902e-03 3.048316e-03 3.175209e-03 3.329614e-03 3.502836e-03 3.689629e-03 3.874604e-03 4.054758e-03 4.209210e-03 4.341551e-03 4.431642e-03 4.488834e-03 4.499845e-03 4.476590e-03 4.414498e-03 4.324975e-03 4.209735e-03 4.077716e-03 3.932883e-03 3.780801e-03 3.624561e-03 3.466143e-03 3.306476e-03 3.144312e-03 2.978674e-03 2.806334e-03 2.625698e-03 2.434042e-03 2.231072e-03 2.017705e-03 1.796606e-03 1.574170e-03 1.355771e-03 1.151752e-03 9.671540e-04 8.115954e-04 6.857671e-04 5.942126e-04 5.318973e-04 4.979354e-04 4.845297e-04 4.889725e-04 5.056857e-04 5.341275e-04 5.739822e-04 6.279638e-04 
1.094018e-03 1.292960e-03 1.538570e-03 1.833602e-03 2.175829e-03 2.558530e-03 2.961453e-03 3.373461e-03 3.756543e-03 4.111387e-03 4.390335e-03 4.624022e-03 4.765211e-03 4.878411e-03 4.923539e-03 4.980724e-03 5.020360e-03 5.108648e-03 5.226896e-03 5.408093e-03 5.639511e-03 5.923435e-03 6.243366e-03 6.588066e-03 6.930100e-03 7.261753e-03 7.547186e-03 7.790110e-03 7.956988e-03 8.061874e-03 8.083667e-03 8.041468e-03 7.929255e-03 7.765822e-03 7.555603e-03 7.313484e-03 7.047207e-03 6.766010e-03 6.475579e-03 6.179028e-03 5.877869e-03 5.569606e-03 5.252146e-03 4.919475e-03 4.568416e-03 4.193930e-03 3.795697e-03 3.375672e-03 2.939991e-03 2.501374e-03 2.072151e-03 1.672873e-03 1.315794e-03 1.019741e-03 7.881160e-04 6.288001e-04 5.327869e-04 4.961121e-04 5.030643e-04 5.456317e-04 6.118461e-04 6.985838e-04 8.043553e-04 9.336691e-04 
1.550063e-03 1.950082e-03 2.429101e-03 2.992885e-03 3.636825e-03 4.346457e-03 5.085502e-03 5.827260e-03 6.507426e-03 7.117097e-03 7.581753e-03 7.944679e-03 8.139222e-03 8.269274e-03 8.283862e-03 8.315138e-03 8.328055e-03 8.430364e-03 8.600356e-03 8.888233e-03 9.276760e-03 9.764713e-03 1.032398e-02 1.093240e-02 1.154076e-02 1.213402e-02 1.264865e-02 1.308847e-02 1.339592e-02 1.359141e-02 1.364107e-02 1.357394e-02 1.338324e-02 1.309865e-02 1.273117e-02 1.230520e-02 1.183642e-02 1.134029e-02 1.082781e-02 1.030378e-02 9.770990e-03 9.223836e-03 8.658106e-03 8.061437e-03 7.427487e-03 6.745691e-03 6.015506e-03 5.239860e-03 4.431688e-03 3.614829e-03 2.815846e-03 2.073820e-03 1.416619e-03 8.796078e-04 4.736076e-04 2.116464e-04 7.888209e-05 6.401958e-05 1.368729e-04 2.778310e-04 4.622725e-04 6.810861e-04 9.294138e-04 1.214847e-03 
2.139522e-03 2.914804e-03 3.820207e-03 4.865597e-03 6.042019e-03 7.318825e-03 8.632882e-03 9.926215e-03 1.109391e-02 1.210571e-02 1.285125e-02 1.339132e-02 1.363955e-02 1.376390e-02 1.370527e-02 1.368160e-02 1.365060e-02 1.378746e-02 1.405944e-02 1.454275e-02 1.520462e-02 1.603573e-02 1.698543e-02 1.801174e-02 1.903404e-02 2.002301e-02 2.087955e-02 2.160430e-02 2.211082e-02 2.242580e-02 2.250181e-02 2.237995e-02 2.205545e-02 2.157196e-02 2.095142e-02 2.023051e-02 1.943682e-02 1.859374e-02 1.771978e-02 1.682170e-02 1.590354e-02 1.495522e-02 1.396843e-02 1.292163e-02 1.180268e-02 1.059279e-02 9.290650e-03 7.901021e-03 6.448489e-03 4.975757e-03 3.534994e-03 2.197728e-03 1.021322e-03 7.105126e-05 -6.264578e-04 -1.048699e-03 -1.218985e-03 -1.162971e-03 -9.363520e-04 -5.822408e-04 -1.486097e-04 3.418348e-04 8.774735e-04 1.469506e-03 
2.944210e-03 4.403840e-03 6.075035e-03 7.974534e-03 1.008218e-02 1.233716e-02 1.462672e-02 1.683537e-02 1.878979e-02 2.041910e-02 2.156158e-02 2.230394e-02 2.254461e-02 2.255540e-02 2.228520e-02 2.208800e-02 2.192762e-02 2.207724e-02 2.249700e-02 2.328849e-02 2.439817e-02 2.579122e-02 2.738022e-02 2.908956e-02 3.078374e-02 3.241640e-02 3.382502e-02 3.501096e-02 3.583682e-02 3.634088e-02 3.645306e-02 3.623255e-02 3.567961e-02 3.485950e-02 3.381434e-02 3.260153e-02 3.126989e-02 2.985730e-02 2.839543e-02 2.689477e-02 2.536134e-02 2.377602e-02 2.212278e-02 2.036128e-02 1.846799e-02 1.640645e-02 1.417190e-02 1.176948e-02 9.242260e-03 6.664343e-03 4.133063e-03 1.777094e-03 -2.908141e-04 -1.950977e-03 -3.143642e-03 -3.827916e-03 -4.038205e-03 -3.825729e-03 -3.290739e-03 -2.519896e-03 -1.604440e-03 -5.931951e-04 4.877606e-04 1.655203e-03 
4.139009e-03 6.799986e-03 9.796671e-03 1.315226e-02 1.682323e-02 2.069106e-02 2.455763e-02 2.820515e-02 3.135411e-02 3.386448e-02 3.551114e-02 3.642777e-02 3.651695e-02 3.622976e-02 3.554790e-02 3.505493e-02 3.471906e-02 3.496976e-02 3.572715e-02 3.712057e-02 3.903086e-02 4.137029e-02 4.397811e-02 4.672276e-02 4.939211e-02 5.191705e-02 5.406033e-02 5.582770e-02 5.702619e-02 5.771114e-02 5.779168e-02 5.735045e-02 5.640006e-02 5.503256e-02 5.332004e-02 5.134499e-02 4.918624e-02 4.689891e-02 4.453288e-02 4.210261e-02 3.961607e-02 3.704139e-02 3.434970e-02 3.147351e-02 2.836967e-02 2.497388e-02 2.127262e-02 1.726786e-02 1.302833e-02 8.673815e-03 4.373624e-03 3.492270e-04 -3.190917e-03 -6.031397e-03 -8.048181e-03 -9.162449e-03 -9.419193e-03 -8.910154e-03 -7.808055e-03 -6.276675e-03 -4.482131e-03 -2.523451e-03 -4.536945e-04 1.748456e-03 
5.941678e-03 1.063963e-02 1.585479e-02 2.161437e-02 2.782387e-02 3.426230e-02 4.058217e-02 4.639527e-02 5.125294e-02 5.490700e-02 5.705260e-02 5.790986e-02 5.742814e-02 5.636203e-02 5.478961e-02 5.366734e-02 5.299485e-02 5.342072e-02 5.479902e-02 5.724404e-02 6.051821e-02 6.440484e-02 6.861875e-02 7.293900e-02 7.703170e-02 8.082326e-02 8.395874e-02 8.648236e-02 8.811494e-02 8.895248e-02 8.887479e-02 8.800171e-02 8.636769e-02 8.410428e-02 8.133043e-02 7.816833e-02 7.474210e-02 7.113680e-02 6.742912e-02 6.364167e-02 5.978428e-02 5.580307e-02 5.164744e-02 4.720064e-02 4.238437e-02 3.708052e-02 3.125194e-02 2.488407e-02 1.807318e-02 1.100250e-02 3.949416e-03 -2.715396e-03 -8.621528e-03 -1.338659e-02 -1.676413e-02 -1.859817e-02 -1.893552e-02 -1.792576e-02 -1.585596e-02 -1.301762e-02 -9.704822e-03 -6.104938e-03 -2.322987e-03 1.664771e-03 
8.710561e-03 1.672789e-02 2.550765e-02 3.506389e-02 4.520165e-02 5.551937e-02 6.542452e-02 7.425543e-02 8.131669e-02 8.620200e-02 8.853151e-02 8.868642e-02 8.675880e-02 8.402528e-02 8.076771e-02 7.857568e-02 7.747817e-02 7.846525e-02 8.118995e-02 8.568297e-02 9.140719e-02 9.789074e-02 1.045992e-01 1.111726e-01 1.171172e-01 1.223906e-01 1.265316e-01 1.296799e-01 1.314931e-01 1.321456e-01 1.315097e-01 1.297587e-01 1.269677e-01 1.233113e-01 1.189703e-01 1.141054e-01 1.088973e-01 1.034598e-01 9.790340e-02 9.225783e-02 8.653591e-02 8.065608e-02 7.453853e-02 6.800024e-02 6.090964e-02 5.306390e-02 4.437709e-02 3.478464e-02 2.439719e-02 1.345877e-02 2.389451e-03 -8.225593e-03 -1.775812e-02 -2.554542e-02 -3.111598e-02 -3.415823e-02 -3.468755e-02 -3.292316e-02 -2.931660e-02 -2.436147e-02 -1.855693e-02 -1.224396e-02 -5.620192e-03 1.326249e-03 
1.287970e-02 2.608919e-02 4.036096e-02 5.565849e-02 7.159633e-02 8.747662e-02 1.023173e-01 1.150491e-01 1.246210e-01 1.304100e-01 1.319639e-01 1.299363e-01 1.247137e-01 1.184439e-01 1.118317e-01 1.075269e-01 1.056584e-01 1.076980e-01 1.129409e-01 1.211004e-01 1.310857e-01 1.418726e-01 1.524953e-01 1.623730e-01 1.707726e-01 1.778057e-01 1.828679e-01 1.863552e-01 1.878543e-01 1.877132e-01 1.858197e-01 1.824401e-01 1.777202e-01 1.718956e-01 1.652302e-01 1.579373e-01 1.502664e-01 1.423752e-01 1.344142e-01 1.264289e-01 1.184354e-01 1.103136e-01 1.019458e-01 9.304452e-02 8.339689e-02 7.265216e-02 6.061880e-02 4.711043e-02 3.219134e-02 1.613630e-02 -4.763865e-04 -1.675878e-02 -3.168138e-02 -4.411305e-02 -5.317832e-02 -5.826552e-02 -5.928486e-02 -5.651990e-02 -5.064750e-02 -4.246014e-02 -3.277699e-02 -2.218872e-02 -1.105799e-02 5.859890e-04 
1.901696e-02 4.000328e-02 6.236028e-02 8.591737e-02 1.099557e-01 1.333145e-01 1.544404e-01 1.716959e-01 1.835623e-01 1.891194e-01 1.878604e-01 1.808355e-01 1.689723e-01 1.558421e-01 1.429512e-01 1.347976e-01 1.316738e-01 1.358799e-01 1.459305e-01 1.608893e-01 1.784811e-01 1.966568e-01 2.135878e-01 2.283421e-01 2.398505e-01 2.485691e-01 2.538499e-01 2.565903e-01 2.564446e-01 2.540890e-01 2.495383e-01 2.432152e-01 2.353973e-01 2.263772e-01 2.165166e-01 2.060453e-01 1.952772e-01 1.843843e-01 1.735583e-01 1.628552e-01 1.523079e-01 1.417665e-01 1.310899e-01 1.198770e-01 1.078202e-01 9.435059e-02 7.908722e-02 6.156556e-02 4.165945e-02 1.952015e-02 -4.162202e-03 -2.813455e-02 -5.075895e-02 -7.013661e-02 -8.467913e-02 -9.321976e-02 -9.541243e-02 -9.156695e-02 -8.263657e-02 -6.983385e-02 -5.444384e-02 -3.745111e-02 -1.949386e-02 -7.110806e-04 
2.773781e-02 5.983784e-02 9.352448e-02 1.283528e-01 1.630672e-01 1.958603e-01 2.244212e-01 2.464183e-01 2.597384e-01 2.630229e-01 2.555854e-01 2.388823e-01 2.146053e-01 1.885584e-01 1.637353e-01 1.478899e-01 1.418249e-01 1.492337e-01 1.674301e-01 1.940676e-01 2.248474e-01 2.557056e-01 2.833152e-01 3.060979e-01 3.223850e-01 3.333502e-01 3.382485e-01 3.389879e-01 3.353947e-01 3.287837e-01 3.194829e-01 3.082143e-01 2.955105e-01 2.817618e-01 2.674426e-01 2.527865e-01 2.381375e-01 2.236763e-01 2.096167e-01 1.960464e-01 1.830339e-01 1.704201e-01 1.580855e-01 1.454912e-01 1.322374e-01 1.174141e-01 1.002860e-01 7.983381e-02 5.539783e-02 2.670086e-02 -5.634190e-03 -3.990087e-02 -7.351199e-02 -1.032741e-01 -1.263669e-01 -1.406645e-01 -1.453510e-01 -1.407059e-01 -1.280206e-01 -1.090597e-01 -8.575397e-02 -5.966302e-02 -3.186793e-02 -2.736221e-03 
3.963682e-02 8.685961e-02 1.356258e-01 1.850045e-01 2.329731e-01 2.769540e-01 3.138085e-01 3.405124e-01 3.542404e-01 3.528304e-01 3.349373e-01 3.019940e-01 2.565849e-01 2.078611e-01 1.614663e-01 1.310050e-01 1.183361e-01 1.300680e-01 1.614877e-01 2.080488e-01 2.617285e-01 3.150411e-01 3.616768e-01 3.988330e-01 4.236244e-01 4.383388e-01 4.423013e-01 4.390970e-01 4.291989e-01 4.150452e-01 3.977298e-01 3.785425e-01 3.585123e-01 3.381466e-01 3.180386e-01 2.982767e-01 2.791430e-01 2.606929e-01 2.431215e-01 2.265389e-01 2.111175e-01 1.967891e-01 1.835983e-01 1.709624e-01 1.584826e-01 1.447952e-01 1.286002e-01 1.077828e-01 8.052570e-02 4.538295e-02 2.530336e-03 -4.581905e-02 -9.546806e-02 -1.409639e-01 -1.773472e-01 -2.009578e-01 -2.103005e-01 -2.056734e-01 -1.888208e-01 -1.622145e-01 -1.285947e-01 -9.029595e-02 -4.904690e-02 -5.639037e-03 
5.522053e-02 1.219443e-01 1.896866e-01 2.567935e-01 3.203436e-01 3.771638e-01 4.235905e-01 4.562588e-01 4.714322e-01 4.652036e-01 4.339762e-01 3.776246e-01 2.990994e-01 2.123951e-01 1.277072e-01 6.931445e-02 4.144096e-02 5.639124e-02 1.070744e-01 1.852764e-01 2.774618e-01 3.700353e-01 4.516097e-01 5.166390e-01 5.595613e-01 5.842271e-01 5.895621e-01 5.821106e-01 5.634525e-01 5.380422e-01 5.085401e-01 4.773529e-01 4.464572e-01 4.166670e-01 3.886635e-01 3.622815e-01 3.375162e-01 3.141840e-01 2.923380e-01 2.721575e-01 2.540104e-01 2.380738e-01 2.248355e-01 2.137559e-01 2.046547e-01 1.954969e-01 1.840140e-01 1.661457e-01 1.376768e-01 9.483544e-02 3.665647e-02 -3.375208e-02 -1.091126e-01 -1.796916e-01 -2.368126e-01 -2.746196e-01 -2.911772e-01 -2.874004e-01 -2.659591e-01 -2.302502e-01 -1.839049e-01 -1.301260e-01 -7.146886e-02 -9.393278e-03 
7.465296e-02 1.651638e-01 2.555033e-01 3.431674e-01 4.245855e-01 4.968798e-01 5.569658e-01 6.020511e-01 6.269179e-01 6.235298e-01 5.822481e-01 4.977011e-01 3.719976e-01 2.259751e-01 7.767503e-02 -2.955258e-02 -8.794212e-02 -7.324197e-02 4.143236e-03 1.318017e-01 2.875937e-01 4.487507e-01 5.941192e-01 7.126190e-01 7.926373e-01 8.396322e-01 8.521411e-01 8.412361e-01 8.110843e-01 7.694921e-01 7.221098e-01 6.734047e-01 6.270497e-01 5.843520e-01 5.460481e-01 5.112936e-01 4.794044e-01 4.495356e-01 4.213675e-01 3.951171e-01 3.715291e-01 3.513828e-01 3.361110e-01 3.255729e-01 3.202626e-01 3.172234e-01 3.127411e-01 2.992231e-01 2.680798e-01 2.108847e-01 1.245346e-01 1.387935e-02 -1.072237e-01 -2.203423e-01 -3.099788e-01 -3.675348e-01 -3.922614e-01 -3.880277e-01 -3.599925e-01 -3.129975e-01 -2.513845e-01 -1.789517e-01 -9.900448e-02 -1.385815e-02 
9.789343e-02 2.157358e-01 3.315338e-01 4.422130e-01 5.447038e-01 6.387277e-01 7.242903e-01 8.008438e-01 8.599625e-01 8.842021e-01 8.498168e-01 7.391409e-01 5.509907e-01 3.164393e-01 6.691942e-02 -1.190217e-01 -2.302843e-01 -2.217753e-01 -1.076181e-01 9.342151e-02 3.491334e-01 6.224368e-01 8.773062e-01 1.091298e+00 1.241245e+00 1.333951e+00 1.365646e+00 1.355743e+00 1.312533e+00 1.249264e+00 1.176698e+00 1.102813e+00 1.033946e+00 9.725233e-01 9.191441e-01 8.719977e-01 8.290798e-01 7.884949e-01 7.490949e-01 7.111599e-01 6.759488e-01 6.452768e-01 6.223441e-01 6.076032e-01 6.030594e-01 6.041442e-01 6.046790e-01 5.912270e-01 5.470221e-01 4.555152e-01 3.094123e-01 1.174015e-01 -9.239958e-02 -2.824804e-01 -4.239886e-01 -5.052637e-01 -5.319941e-01 -5.176930e-01 -4.745919e-01 -4.104224e-01 -3.295634e-01 -2.351798e-01 -1.304772e-01 -1.843281e-02 
1.242556e-01 2.716914e-01 4.149586e-01 5.516052e-01 6.818605e-01 8.125737e-01 9.512012e-01 1.101374e+00 1.246563e+00 1.348944e+00 1.355772e+00 1.226064e+00 9.550610e-01 5.911370e-01 1.925375e-01 -9.985479e-02 -2.812765e-01 -2.736888e-01 -1.025970e-01 2.053351e-01 6.049150e-01 1.043706e+00 1.462305e+00 1.821922e+00 2.077884e+00 2.238855e+00 2.297630e+00 2.287873e+00 2.225852e+00 2.131948e+00 2.024212e+00 1.915290e+00 1.815319e+00 1.727959e+00 1.653827e+00 1.589301e+00 1.530490e+00 1.473510e+00 1.415572e+00 1.356700e+00 1.298745e+00 1.245488e+00 1.202965e+00 1.173325e+00 1.161453e+00 1.160656e+00 1.161516e+00 1.140747e+00 1.067599e+00 9.090299e-01 6.479249e-01 2.963289e-01 -8.762139e-02 -4.227843e-01 -6.508400e-01 -7.557838e-01 -7.616712e-01 -7.076491e-01 -6.244792e-01 -5.268387e-01 -4.177999e-01 -2.967455e-01 -1.641854e-01 -2.249743e-02 
1.530133e-01 3.306649e-01 5.027650e-01 6.701683e-01 8.415628e-01 1.038212e+00 1.280951e+00 1.578081e+00 1.893355e+00 2.148302e+00 2.236471e+00 2.079875e+00 1.676004e+00 1.106980e+00 4.887498e-01 8.906501e-02 -1.307317e-01 -7.488723e-02 2.030307e-01 6.508059e-01 1.213412e+00 1.828518e+00 2.420896e+00 2.937384e+00 3.305999e+00 3.538475e+00 3.605242e+00 3.576141e+00 3.479709e+00 3.340085e+00 3.185985e+00 3.032631e+00 2.893768e+00 2.774237e+00 2.674605e+00 2.588901e+00 2.511877e+00 2.436717e+00 2.357960e+00 2.274256e+00 2.187339e+00 2.103614e+00 2.033699e+00 1.983765e+00 1.965011e+00 1.970168e+00 1.986459e+00 1.977517e+00 1.887909e+00 1.650970e+00 1.218653e+00 5.886817e-01 -1.257838e-01 -7.400093e-01 -1.125825e+00 -1.254113e+00 -1.189169e+00 -1.028594e+00 -8.473375e-01 -6.775046e-01 -5.193387e-01 -3.621763e-01 -1.979627e-01 -2.503042e-02 
1.826046e-01 3.894987e-01 5.918258e-01 7.984028e-01 1.034256e+00 1.344663e+00 1.769434e+00 2.316220e+00 2.903819e+00 3.376791e+00 3.534479e+00 3.248799e+00 2.548135e+00 1.588352e+00 6.402744e-01 2.296575e-01 1.625564e-01 4.290726e-01 9.159950e-01 1.505870e+00 2.126601e+00 2.756367e+00 3.344020e+00 3.872190e+00 4.238546e+00 4.459748e+00 4.419104e+00 4.284109e+00 4.109129e+00 3.895542e+00 3.692830e+00 3.503134e+00 3.342412e+00 3.211696e+00 3.111175e+00 3.029671e+00 2.964910e+00 2.904707e+00 2.840161e+00 2.764429e+00 2.676826e+00 2.585500e+00 2.505162e+00 2.456924e+00 2.463842e+00 2.532883e+00 2.659457e+00 2.794018e+00 2.848942e+00 2.679479e+00 2.144203e+00 1.132461e+00 -1.604560e-01 -1.307050e+00 -2.009673e+00 -2.191151e+00 -1.983967e+00 -1.601608e+00 -1.214239e+00 -8.962160e-01 -6.461689e-01 -4.335238e-01 -2.310082e-01 -2.580473e-02 
2.116872e-01 4.455360e-01 6.797723e-01 9.375467e-01 1.269699e+00 1.754744e+00 2.451457e+00 3.347220e+00 4.266896e+00 4.918170e+00 4.946726e+00 4.170182e+00 2.713477e+00 8.662991e-01 -7.246912e-01 -7.841322e-01 -2.693144e-02 7.840444e-01 1.676178e+00 2.308455e+00 2.562855e+00 2.603958e+00 2.578455e+00 2.604809e+00 2.631624e+00 2.620593e+00 2.110296e+00 1.634188e+00 1.275025e+00 9.058750e-01 6.710905e-01 4.979278e-01 4.002549e-01 3.676737e-01 3.829681e-01 4.210676e-01 4.940458e-01 5.803430e-01 6.774221e-01 7.647825e-01 8.324302e-01 8.733414e-01 8.985716e-01 9.616392e-01 1.113841e+00 1.420282e+00 1.929176e+00 2.597253e+00 3.308838e+00 3.776641e+00 3.608022e+00 2.314547e+00 1.385910e-01 -1.967343e+00 -3.326637e+00 -3.708575e+00 -3.322083e+00 -2.575496e+00 -1.823184e+00 -1.235029e+00 -8.201478e-01 -5.172395e-01 -2.640400e-01 -2.487260e-02 
2.376877e-01 4.947490e-01 7.618082e-01 1.083096e+00 1.543949e+00 2.260199e+00 3.296941e+00 4.574889e+00 5.737498e+00 6.254374e+00 5.514424e+00 3.280148e+00 -1.142743e-01 -4.180325e+00 -7.266821e+00 -5.804672e+00 -2.325780e+00 -5.983326e-01 1.064997e+00 1.592499e+00 6.187673e-01 -1.012579e+00 -2.590719e+00 -3.996502e+00 -4.972801e+00 -5.842965e+00 -7.795882e+00 -9.068853e+00 -9.926496e+00 -1.075996e+01 -1.102874e+01 -1.115285e+01 -1.100777e+01 -1.065968e+01 -1.020765e+01 -9.723872e+00 -9.185766e+00 -8.644034e+00 -8.049432e+00 -7.428692e+00 -6.802567e+00 -6.252074e+00 -5.788966e+00 -5.354297e+00 -4.801228e+00 -3.953316e+00 -2.571796e+00 -6.188422e-01 1.760328e+00 4.153307e+00 5.552671e+00 4.656423e+00 1.551634e+00 -2.024232e+00 -4.638386e+00 -5.639696e+00 -5.217792e+00 -4.033825e+00 -2.754560e+00 -1.745696e+00 -1.066832e+00 -6.231139e-01 -3.001022e-01 -2.385206e-02 
2.583303e-01 5.328434e-01 8.301248e-01 1.220108e+00 1.825975e+00 2.793072e+00 4.155324e+00 5.669601e+00 6.638445e+00 6.115102e+00 3.094630e+00 -2.679301e+00 -1.032644e+01 -1.986193e+01 -2.758364e+01 -2.030900e+01 -8.939316e+00 -7.142482e+00 -3.712279e+00 -2.756333e+00 -5.642695e+00 -9.205568e+00 -1.148015e+01 -1.496293e+01 -1.738375e+01 -2.094152e+01 -2.679140e+01 -2.877317e+01 -3.136430e+01 -3.368521e+01 -3.416508e+01 -3.500352e+01 -3.461052e+01 -3.371482e+01 -3.239941e+01 -3.095990e+01 -2.950823e+01 -2.820153e+01 -2.688691e+01 -2.541465e+01 -2.382041e+01 -2.240179e+01 -2.093796e+01 -1.994639e+01 -1.863362e+01 -1.688106e+01 -1.424231e+01 -9.871357e+00 -4.741689e+00 1.649298e+00 6.262749e+00 7.447169e+00 4.985855e+00 -5.913250e-02 -4.686063e+00 -7.163577e+00 -7.266989e+00 -5.834221e+00 -3.981961e+00 -2.435005e+00 -1.395083e+00 -7.557311e-01 -3.409487e-01 -2.397271e-02 
2.705200e-01 5.528414e-01 8.698566e-01 1.316637e+00 2.049566e+00 3.222219e+00 4.776103e+00 6.141122e+00 5.999858e+00 2.618253e+00 -5.694437e+00 -1.925814e+01 -3.408949e+01 -5.541339e+01 -7.768946e+01 -4.918143e+01 -1.845135e+01 -2.395524e+01 -1.638444e+01 -1.164556e+01 -1.496000e+01 -1.558013e+01 -9.042095e+00 -1.272420e+01 -1.348389e+01 -2.343384e+01 -3.690235e+01 -3.199478e+01 -4.220408e+01 -4.642774e+01 -4.564254e+01 -5.281963e+01 -5.266013e+01 -5.459770e+01 -5.370384e+01 -5.233638e+01 -5.124495e+01 -5.008485e+01 -4.975526e+01 -4.879274e+01 -4.744367e+01 -4.719302e+01 -4.494062e+01 -4.520063e+01 -4.377209e+01 -4.089611e+01 -3.886595e+01 -2.977216e+01 -2.242294e+01 -8.399509e+00 2.998699e-01 5.445062e+00 1.089664e+01 5.976127e+00 -1.312366e+00 -6.681731e+00 -8.511771e+00 -7.487386e+00 -5.284541e+00 -3.211386e+00 -1.769661e+00 -9.025786e-01 -3.830167e-01 -2.558295e-02 
2.724813e-01 5.482613e-01 8.645132e-01 1.334799e+00 2.136580e+00 3.409118e+00 4.940338e+00 5.612946e+00 2.891162e+00 -7.085810e+00 -2.828802e+01 -6.159899e+01 -7.524173e+01 -9.327437e+01 -1.251745e+02 -6.295595e+01 -2.434470e+01 -5.420162e+01 -4.012460e+01 -2.182412e+01 -1.934969e+01 -6.720393e-01 3.876376e+01 4.742625e+01 5.838577e+01 3.924463e+01 2.074363e+01 4.555302e+01 1.108632e+01 2.953160e+00 7.051100e+00 -1.427828e+01 -1.593370e+01 -3.066044e+01 -3.761298e+01 -4.592235e+01 -5.418031e+01 -5.891677e+01 -6.351872e+01 -6.559554e+01 -6.403501e+01 -6.994377e+01 -6.692160e+01 -7.277347e+01 -7.566740e+01 -6.977150e+01 -7.611067e+01 -6.004535e+01 -5.607256e+01 -3.053622e+01 -1.860419e+01 -1.363548e+01 1.454525e+01 1.702711e+01 7.837676e+00 -2.514622e+00 -7.890494e+00 -8.350453e+00 -6.294107e+00 -3.881717e+00 -2.099965e+00 -1.026233e+00 -4.132661e-01 -2.569903e-02 
2.641632e-01 5.150177e-01 8.021730e-01 1.245431e+00 2.029932e+00 3.281338e+00 4.668252e+00 4.525423e+00 -1.454872e+00 -2.218695e+01 -7.145744e+01 -1.633893e+02 -1.689537e+02 -8.320969e+01 -8.742522e+01 -9.906446e+01 -7.205721e+01 -8.901821e+01 -7.570738e+01 -2.672174e+01 -4.754643e+00 6.713048e+01 1.653432e+02 2.158674e+02 2.159356e+02 1.529761e+02 1.411209e+02 1.586334e+02 1.028710e+02 8.658551e+01 8.537603e+01 6.646395e+01 5.629219e+01 3.392019e+01 1.339297e+01 -1.325942e+01 -4.024321e+01 -6.221200e+01 -7.766661e+01 -8.592849e+01 -8.084581e+01 -8.293418e+01 -7.259154e+01 -6.845702e+01 -7.074524e+01 -5.813714e+01 -6.661092e+01 -5.592646e+01 -5.404479e+01 -3.095901e+01 -7.780190e+00 -2.458680e+01 -1.338166e+00 2.829876e+01 2.190910e+01 4.748439e+00 -5.579781e+00 -8.246920e+00 -6.738894e+00 -4.237240e+00 -2.268394e+00 -1.073445e+00 -4.118497e-01 -1.876880e-02 
2.464655e-01 4.540886e-01 6.832765e-01 1.045338e+00 1.717675e+00 2.835001e+00 4.093960e+00 3.874653e+00 -2.459405e+00 -2.545924e+01 -8.649432e+01 -2.189712e+02 -2.640851e+02 -1.233218e+02 -8.273637e+01 -1.418833e+02 -8.042570e+01 -7.010298e+01 -8.184302e+01 -2.054430e+01 2.642715e+01 1.375877e+02 2.485726e+02 2.588278e+02 1.935764e+02 1.374084e+02 1.528965e+02 1.414884e+02 1.253479e+02 1.157776e+02 1.085775e+02 1.162378e+02 1.001761e+02 9.065187e+01 6.927395e+01 4.318794e+01 1.715612e+01 -7.841562e+00 -2.442443e+01 -3.440285e+01 -3.357912e+01 -2.766385e+01 -2.009604e+01 -4.930109e+00 -2.427300e+00 6.066484e+00 1.048549e+01 6.213795e+00 1.533271e+01 1.822692e+01 4.550694e+01 1.533665e+01 3.979915e-01 3.927658e+01 3.131392e+01 9.528081e+00 -3.895216e+00 -7.821238e+00 -6.634736e+00 -4.169571e+00 -2.193335e+00 -1.004639e+00 -3.644552e-01 -1.007486e-03 
2.222241e-01 3.750447e-01 5.297693e-01 7.772381e-01 1.277611e+00 2.190415e+00 3.378814e+00 3.757016e+00 -2.488410e-02 -1.559280e+01 -5.898552e+01 -1.562233e+02 -2.264270e+02 -1.624975e+02 -1.418986e+02 -1.394178e+02 -6.544631e+01 -3.855529e+01 1.082276e+01 3.884005e+01 2.213570e+01 7.003211e+01 1.535674e+02 1.376097e+02 6.886769e+01 6.547175e+01 8.659692e+01 7.467994e+01 9.505321e+01 9.931286e+01 9.688454e+01 1.133538e+02 1.055541e+02 1.073737e+02 9.838935e+01 8.880346e+01 7.976584e+01 6.992618e+01 6.341472e+01 5.865518e+01 5.350583e+01 5.604929e+01 5.160166e+01 5.706904e+01 5.653363e+01 5.471156e+01 6.196130e+01 5.548580e+01 6.539472e+01 5.945503e+01 7.376764e+01 5.406216e+01 2.892852e+01 4.405270e+01 2.885271e+01 7.771772e+00 -4.383570e+00 -7.487128e+00 -6.045768e+00 -3.671867e+00 -1.866774e+00 -8.186402e-01 -2.727831e-01 2.668342e-02 
1.912298e-01 2.883770e-01 3.695843e-01 4.991166e-01 8.104914e-01 1.475447e+00 2.531470e+00 3.457982e+00 2.414921e+00 -5.070730e+00 -2.775084e+01 -7.803476e+01 -1.218647e+02 -1.065192e+02 -1.146268e+02 -1.305277e+02 -1.759862e+02 -1.714825e+02 -2.039431e+01 3.236935e+01 -1.838589e+01 1.282522e+01 1.049266e+02 1.234948e+02 7.597927e+01 5.679394e+01 5.719849e+01 5.376575e+01 6.071856e+01 6.605479e+01 6.722363e+01 7.282689e+01 7.294841e+01 7.462681e+01 7.406342e+01 7.316281e+01 7.209062e+01 7.066529e+01 6.946691e+01 6.832153e+01 6.551855e+01 6.467858e+01 5.963957e+01 5.779309e+01 5.405521e+01 5.051799e+01 5.049357e+01 4.860079e+01 5.202339e+01 5.120419e+01 5.692109e+01 4.830249e+01 3.677929e+01 3.442354e+01 1.824505e+01 2.247979e+00 -5.693377e+00 -6.810319e+00 -4.968161e+00 -2.841825e+00 -1.371429e+00 -5.641725e-01 -1.611309e-01 5.435829e-02 
1.538158e-01 2.049110e-01 2.297174e-01 2.661585e-01 4.128761e-01 8.233502e-01 1.625484e+00 2.673530e+00 3.167313e+00 8.579047e-01 -8.363549e+00 -2.973958e+01 -4.985456e+01 -4.902240e+01 -5.356429e+01 -9.348260e+01 -2.163301e+02 -3.396115e+02 -2.702025e+02 -1.371164e+02 -7.913547e+01 3.028459e+01 1.334564e+02 1.350384e+02 8.093893e+01 4.335657e+01 3.048529e+01 2.610981e+01 2.589630e+01 2.716387e+01 2.746264e+01 2.855096e+01 2.926203e+01 3.009855e+01 3.092245e+01 3.155600e+01 3.210258e+01 3.252365e+01 3.284220e+01 3.298261e+01 3.253268e+01 3.174882e+01 2.969431e+01 2.759612e+01 2.475973e+01 2.237460e+01 2.065848e+01 2.041912e+01 2.218477e+01 2.498079e+01 2.909273e+01 2.848764e+01 2.521884e+01 1.877058e+01 6.984372e+00 -2.336730e+00 -5.886386e+00 -5.392782e+00 -3.533755e+00 -1.878678e+00 -8.440113e-01 -3.133741e-01 -6.169169e-02 7.066908e-02 
1.083458e-01 1.291102e-01 1.238145e-01 1.102301e-01 1.506883e-01 3.559364e-01 8.590613e-01 1.680987e+00 2.576752e+00 2.579124e+00 2.999516e-02 -7.143647e+00 -1.488494e+01 -1.638407e+01 -1.997439e+01 -3.924095e+01 -1.118005e+02 -2.567923e+02 -2.999191e+02 -2.265328e+02 -1.606952e+02 -3.758112e+01 7.573424e+01 8.756841e+01 5.370277e+01 2.456741e+01 1.205455e+01 7.668012e+00 6.243705e+00 5.958559e+00 5.666355e+00 5.560472e+00 5.553441e+00 5.633025e+00 5.801811e+00 5.971637e+00 6.171377e+00 6.414291e+00 6.693816e+00 6.945332e+00 6.981276e+00 6.700178e+00 5.923398e+00 4.795179e+00 3.411792e+00 2.172534e+00 1.421462e+00 1.817207e+00 3.613989e+00 6.716340e+00 1.024413e+01 1.182619e+01 1.079752e+01 6.389439e+00 2.468268e-01 -3.731489e+00 -4.541914e+00 -3.504431e+00 -2.090866e+00 -1.027097e+00 -4.197465e-01 -1.306534e-01 -1.708000e-03 6.568822e-02 
5.632472e-02 6.209866e-02 5.189555e-02 3.175935e-02 3.101009e-02 1.067270e-01 3.386687e-01 7.735931e-01 1.373691e+00 1.822475e+00 1.577105e+00 -5.880595e-02 -2.177773e+00 -2.826179e+00 -4.429100e+00 -1.127324e+01 -3.925451e+01 -9.772685e+01 -1.235831e+02 -1.240706e+02 -1.260087e+02 -6.715583e+01 1.130411e+01 3.390771e+01 2.371609e+01 9.783097e+00 3.077590e+00 6.618432e-01 -1.601943e-01 -4.446536e-01 -6.563516e-01 -8.325562e-01 -9.800475e-01 -1.097146e+00 -1.187359e+00 -1.258066e+00 -1.293367e+00 -1.280539e+00 -1.223073e+00 -1.159033e+00 -1.165924e+00 -1.310859e+00 -1.643588e+00 -2.143500e+00 -2.720336e+00 -3.224966e+00 -3.445872e+00 -3.109433e+00 -2.053365e+00 -3.063388e-01 1.641789e+00 2.830833e+00 2.647472e+00 8.667029e-01 -1.333920e+00 -2.472897e+00 -2.364746e+00 -1.648126e+00 -9.166725e-01 -4.186744e-01 -1.533689e-01 -3.552960e-02 1.375367e-02 3.960299e-02 
1.567768e-14 4.201572e-14 1.880303e-14 5.057823e-14 7.308298e-14 9.460222e-14 8.973307e-14 1.316640e-13 1.186440e-13 1.048575e-13 4.169252e-14 -1.180561e-13 -3.071126e-13 -8.614877e-13 -2.420782e-12 -4.515678e-12 -2.602122e-12 1.394233e-12 2.200754e-13 -2.109983e-12 -3.741406e-12 -4.040625e-12 -3.821425e-12 -2.220603e-12 -1.806350e-12 -1.604936e-12 -1.091064e-12 -5.621243e-13 -1.964117e-13 -4.478518e-14 -4.241826e-15 -1.361321e-13 -1.723334e-13 -2.490086e-13 -2.511957e-13 -3.349569e-13 -2.487424e-13 -1.687551e-13 -4.345328e-14 3.624037e-14 1.603413e-13 2.603794e-13 4.638805e-13 7.953667e-13 1.245058e-12 1.692538e-12 1.937976e-12 1.782065e-12 1.229900e-12 4.643095e-13 -2.543727e-13 -7.707805e-13 -1.150747e-12 -1.178412e-12 -1.012678e-12 -6.550309e-13 -3.746848e-13 -1.378149e-13 -5.254351e-14 2.093431e-14 6.324114e-14 5.563603e-14 5.634720e-14 5.366484e-14 
-5.632472e-02 -6.209866e-02 -5.189555e-02 -3.175935e-02 -3.101009e-02 -1.067270e-01 -3.386687e-01 -7.735931e-01 -1.373691e+00 -1.822475e+00 -1.577105e+00 5.880595e-02 2.177773e+00 2.826179e+00 4.429100e+00 1.127324e+01 3.925451e+01 9.772685e+01 1.235831e+02 1.240706e+02 1.260087e+02 6.715583e+01 -1.130411e+01 -3.390771e+01 -2.371609e+01 -9.783097e+00 -3.077590e+00 -6.618432e-01 1.601943e-01 4.446536e-01 6.563516e-01 8.325562e-01 9.800475e-01 1.097146e+00 1.187359e+00 1.258066e+00 1.293367e+00 1.280539e+00 1.223073e+00 1.159033e+00 1.165924e+00 1.310859e+00 1.643588e+00 2.143500e+00 2.720336e+00 3.224966e+00 3.445872e+00 3.109433e+00 2.053365e+00 3.063388e-01 -1.641789e+00 -2.830833e+00 -2.647472e+00 -8.667029e-01 1.333920e+00 2.472897e+00 2.364746e+00 1.648126e+00 9.166725e-01 4.186744e-01 1.533689e-01 3.552960e-02 -1.375367e-02 -3.960299e-02 