# vtk DataFile Version 2.0
Comment goes here
ASCII

DATASET STRUCTURED_POINTS
DIMENSIONS    64   64   1

ORIGIN    0.000   0.000   0.000
SPACING   0.0781250.078125   1.000

POINT_DATA   4096
SCALARS P double
LOOKUP_TABLE default

3.944077e+01 3.700372e+01 3.809689e+01 3.645041e+01 3.876567e+01 3.797745e+01 4.144969e+01 4.157776e+01 4.612122e+01 4.720978e+01 5.271475e+01 5.478701e+01 6.111536e+01 6.416410e+01 7.114489e+01 7.512203e+01 8.254849e+01 8.735598e+01 9.498497e+01 1.004691e+02 1.080238e+02 1.139746e+02 1.211511e+02 1.273075e+02 1.337851e+02 1.398480e+02 1.453054e+02 1.509575e+02 1.550946e+02 1.600271e+02 1.625917e+02 1.665344e+02 1.673485e+02 1.700972e+02 1.690798e+02 1.705154e+02 1.676949e+02 1.677904e+02 1.633048e+02 1.621198e+02 1.562056e+02 1.538694e+02 1.468399e+02 1.435290e+02 1.357467e+02 1.316626e+02 1.235100e+02 1.188600e+02 1.107116e+02 1.056972e+02 9.789703e+01 9.270706e+01 8.555163e+01 8.036018e+01 7.408895e+01 6.905394e+01 6.384669e+01 5.910963e+01 5.508936e+01 5.077544e+01 4.801540e+01 4.423447e+01 4.276702e+01 3.961543e+01 
3.569234e+01 3.326087e+01 3.434836e+01 3.266949e+01 3.494999e+01 3.409186e+01 3.750276e+01 3.752528e+01 4.198480e+01 4.293575e+01 4.833910e+01 5.024715e+01 5.646134e+01 5.932647e+01 6.618531e+01 6.996792e+01 7.726867e+01 8.187973e+01 8.938266e+01 9.467703e+01 1.021087e+02 1.078837e+02 1.149440e+02 1.209443e+02 1.273171e+02 1.332478e+02 1.386168e+02 1.441636e+02 1.482336e+02 1.530905e+02 1.556132e+02 1.595124e+02 1.603124e+02 1.630514e+02 1.620484e+02 1.635091e+02 1.607300e+02 1.608855e+02 1.564654e+02 1.553736e+02 1.495447e+02 1.473318e+02 1.404029e+02 1.372412e+02 1.295710e+02 1.256560e+02 1.176236e+02 1.131560e+02 1.051334e+02 1.003073e+02 9.263568e+01 8.763250e+01 8.060514e+01 7.559118e+01 6.944345e+01 6.456951e+01 5.947609e+01 5.487731e+01 5.095560e+01 4.675188e+01 4.406967e+01 4.036672e+01 3.895178e+01 3.584294e+01 
3.844381e+01 3.596912e+01 3.708569e+01 3.540594e+01 3.775445e+01 3.693794e+01 4.045381e+01 4.056048e+01 4.515944e+01 4.623683e+01 5.181112e+01 5.388696e+01 6.030043e+01 6.337252e+01 7.045572e+01 7.448060e+01 8.202722e+01 8.691004e+01 9.467595e+01 1.002638e+02 1.079695e+02 1.140499e+02 1.213864e+02 1.276924e+02 1.343309e+02 1.405531e+02 1.461613e+02 1.519686e+02 1.562330e+02 1.613017e+02 1.639562e+02 1.680021e+02 1.688576e+02 1.716668e+02 1.706360e+02 1.720857e+02 1.691965e+02 1.692627e+02 1.646592e+02 1.634097e+02 1.573389e+02 1.549143e+02 1.477033e+02 1.442916e+02 1.363178e+02 1.321296e+02 1.237891e+02 1.190379e+02 1.107171e+02 1.056076e+02 9.765865e+01 9.238118e+01 8.510552e+01 7.983467e+01 7.347319e+01 6.836711e+01 6.309810e+01 5.829824e+01 5.424123e+01 4.987229e+01 4.709608e+01 4.326702e+01 4.179963e+01 3.860566e+01 
3.376523e+01 3.125927e+01 3.239287e+01 3.064699e+01 3.299145e+01 3.207480e+01 3.556893e+01 3.554502e+01 4.011058e+01 4.103371e+01 4.657053e+01 4.847848e+01 5.485815e+01 5.776145e+01 6.482106e+01 6.869017e+01 7.622779e+01 8.098097e+01 8.875444e+01 9.424890e+01 1.019787e+02 1.080074e+02 1.153831e+02 1.216785e+02 1.283682e+02 1.346143e+02 1.402801e+02 1.461349e+02 1.504554e+02 1.555824e+02 1.582824e+02 1.623860e+02 1.632683e+02 1.661271e+02 1.650986e+02 1.665876e+02 1.636744e+02 1.637727e+02 1.591208e+02 1.579031e+02 1.517654e+02 1.493802e+02 1.420925e+02 1.387347e+02 1.306846e+02 1.265681e+02 1.181628e+02 1.135002e+02 1.051353e+02 1.001268e+02 9.216084e+01 8.699031e+01 7.972665e+01 7.456108e+01 6.823795e+01 6.322822e+01 5.801692e+01 5.329783e+01 4.930810e+01 4.499851e+01 4.228854e+01 3.849234e+01 3.708064e+01 3.388892e+01 
3.543708e+01 3.284983e+01 3.403726e+01 3.225699e+01 3.470463e+01 3.380122e+01 3.744645e+01 3.748553e+01 4.224893e+01 4.328827e+01 4.906849e+01 5.114994e+01 5.781726e+01 6.095468e+01 6.834456e+01 7.250945e+01 8.041742e+01 8.552538e+01 9.370483e+01 9.960610e+01 1.077697e+02 1.142455e+02 1.220698e+02 1.288349e+02 1.359675e+02 1.426812e+02 1.487555e+02 1.550440e+02 1.597039e+02 1.651951e+02 1.681307e+02 1.724959e+02 1.734822e+02 1.764763e+02 1.754055e+02 1.768945e+02 1.737937e+02 1.737636e+02 1.687955e+02 1.673413e+02 1.607871e+02 1.580859e+02 1.503159e+02 1.465923e+02 1.380299e+02 1.335233e+02 1.246079e+02 1.195498e+02 1.107032e+02 1.053071e+02 9.690701e+01 9.136652e+01 8.372876e+01 7.821950e+01 7.158876e+01 6.626955e+01 6.081880e+01 5.583101e+01 5.166820e+01 4.713512e+01 4.431474e+01 4.034237e+01 3.887860e+01 3.555840e+01 
2.988245e+01 2.722827e+01 2.845530e+01 2.657420e+01 2.904499e+01 2.800749e+01 3.166444e+01 3.154097e+01 3.631384e+01 3.717206e+01 4.297109e+01 4.486816e+01 5.157536e+01 5.454479e+01 6.200497e+01 6.603966e+01 7.405335e+01 7.908827e+01 8.740888e+01 9.330787e+01 1.016443e+02 1.081931e+02 1.162154e+02 1.231220e+02 1.304675e+02 1.373725e+02 1.436584e+02 1.501601e+02 1.550084e+02 1.607034e+02 1.637802e+02 1.683120e+02 1.693715e+02 1.724769e+02 1.713982e+02 1.729376e+02 1.697453e+02 1.697126e+02 1.645767e+02 1.630846e+02 1.563026e+02 1.535502e+02 1.455155e+02 1.417473e+02 1.329097e+02 1.283781e+02 1.192034e+02 1.141445e+02 1.050776e+02 9.970202e+01 9.113727e+01 8.563137e+01 7.789232e+01 7.242347e+01 6.575295e+01 6.047206e+01 5.503269e+01 5.007407e+01 4.595789e+01 4.143833e+01 3.868213e+01 3.470157e+01 3.330360e+01 2.994801e+01 
3.037518e+01 2.760175e+01 2.890931e+01 2.695945e+01 2.956991e+01 2.851496e+01 3.237019e+01 3.228495e+01 3.731514e+01 3.827515e+01 4.439125e+01 4.646402e+01 5.354875e+01 5.677827e+01 6.467699e+01 6.906344e+01 7.757625e+01 8.305588e+01 9.193314e+01 9.836405e+01 1.073073e+02 1.144624e+02 1.231264e+02 1.306918e+02 1.386864e+02 1.462673e+02 1.531657e+02 1.603101e+02 1.656779e+02 1.719227e+02 1.753669e+02 1.802988e+02 1.815258e+02 1.848408e+02 1.837041e+02 1.852477e+02 1.817738e+02 1.815531e+02 1.759399e+02 1.741042e+02 1.666963e+02 1.634940e+02 1.547411e+02 1.504658e+02 1.408749e+02 1.358174e+02 1.259042e+02 1.203251e+02 1.105737e+02 1.046965e+02 9.552832e+01 8.954819e+01 8.130275e+01 7.539553e+01 6.832191e+01 6.264765e+01 5.690678e+01 5.160742e+01 4.728415e+01 4.248069e+01 3.960192e+01 3.539474e+01 3.394891e+01 3.042183e+01 
2.399115e+01 2.111728e+01 2.248709e+01 2.040076e+01 2.305632e+01 2.182822e+01 2.571920e+01 2.542920e+01 3.049988e+01 3.123630e+01 3.741551e+01 3.926744e+01 4.645610e+01 4.949679e+01 5.755448e+01 6.181672e+01 7.054979e+01 7.599933e+01 8.515515e+01 9.167045e+01 1.009418e+02 1.083018e+02 1.173333e+02 1.252114e+02 1.335973e+02 1.415651e+02 1.488516e+02 1.564064e+02 1.621195e+02 1.687415e+02 1.724436e+02 1.776695e+02 1.790291e+02 1.825223e+02 1.813705e+02 1.829678e+02 1.793273e+02 1.790517e+02 1.731346e+02 1.711695e+02 1.633500e+02 1.599859e+02 1.507540e+02 1.463224e+02 1.362307e+02 1.310472e+02 1.206573e+02 1.149908e+02 1.048264e+02 9.889622e+01 8.940808e+01 8.339864e+01 7.494051e+01 6.901678e+01 6.183570e+01 5.614887e+01 5.038908e+01 4.507380e+01 4.079422e+01 3.596453e+01 3.316377e+01 2.891275e+01 2.755441e+01 2.395847e+01 
2.318952e+01 2.015994e+01 2.163920e+01 1.944854e+01 2.228051e+01 2.099958e+01 2.513528e+01 2.485047e+01 3.023695e+01 3.104998e+01 3.761892e+01 3.963794e+01 4.729310e+01 5.061220e+01 5.921673e+01 6.388509e+01 7.324880e+01 7.923848e+01 8.910895e+01 9.629416e+01 1.063606e+02 1.145084e+02 1.244031e+02 1.331651e+02 1.424504e+02 1.513535e+02 1.595137e+02 1.679804e+02 1.744523e+02 1.818670e+02 1.861164e+02 1.919219e+02 1.935380e+02 1.973303e+02 1.961030e+02 1.976955e+02 1.936517e+02 1.930918e+02 1.864897e+02 1.840245e+02 1.753130e+02 1.713160e+02 1.610733e+02 1.559546e+02 1.448187e+02 1.389492e+02 1.275533e+02 1.212283e+02 1.101496e+02 1.035953e+02 9.331847e+01 8.672200e+01 7.761899e+01 7.115318e+01 6.347526e+01 5.730364e+01 5.118761e+01 4.545541e+01 4.094461e+01 3.577015e+01 3.284448e+01 2.831842e+01 2.692421e+01 2.311647e+01 
1.602323e+01 1.286374e+01 1.442762e+01 1.206501e+01 1.495574e+01 1.345693e+01 1.763779e+01 1.709255e+01 2.253209e+01 2.305673e+01 2.971425e+01 3.144596e+01 3.925426e+01 4.233042e+01 5.117580e+01 5.569604e+01 6.539722e+01 7.137933e+01 8.167455e+01 8.902506e+01 9.958598e+01 1.080839e+02 1.185315e+02 1.278121e+02 1.376953e+02 1.472322e+02 1.559975e+02 1.651295e+02 1.721483e+02 1.801645e+02 1.848266e+02 1.910862e+02 1.929173e+02 1.969634e+02 1.957175e+02 1.973515e+02 1.930515e+02 1.923501e+02 1.852786e+02 1.825503e+02 1.732032e+02 1.688958e+02 1.579139e+02 1.525026e+02 1.405946e+02 1.344897e+02 1.223594e+02 1.158651e+02 1.041515e+02 9.748138e+01 8.671500e+01 8.003639e+01 7.061145e+01 6.408127e+01 5.624504e+01 5.001741e+01 4.387822e+01 3.809210e+01 3.365044e+01 2.841731e+01 2.560825e+01 2.100995e+01 1.974241e+01 1.583865e+01 
1.380030e+01 1.045284e+01 1.215669e+01 9.653427e+00 1.275538e+01 1.116107e+01 1.562965e+01 1.504229e+01 2.085254e+01 2.140863e+01 2.852489e+01 3.039328e+01 3.875260e+01 4.210822e+01 5.160439e+01 5.657806e+01 6.704058e+01 7.366214e+01 8.483361e+01 9.300419e+01 1.045612e+02 1.140513e+02 1.256170e+02 1.360523e+02 1.471486e+02 1.579563e+02 1.679464e+02 1.783564e+02 1.864714e+02 1.956178e+02 2.010868e+02 2.081731e+02 2.103913e+02 2.148497e+02 2.135065e+02 2.151022e+02 2.102316e+02 2.090861e+02 2.010467e+02 1.975787e+02 1.869856e+02 1.817838e+02 1.694127e+02 1.630794e+02 1.497642e+02 1.427867e+02 1.293299e+02 1.220319e+02 1.091396e+02 1.017203e+02 8.996189e+01 8.257571e+01 7.236322e+01 6.517508e+01 5.675594e+01 4.994173e+01 4.340734e+01 3.712400e+01 3.244586e+01 2.680947e+01 2.389037e+01 1.897497e+01 1.769610e+01 1.354707e+01 
5.910604e+00 2.411274e+00 4.220436e+00 1.512762e+00 4.673978e+00 2.812462e+00 7.313055e+00 6.393544e+00 1.224044e+01 1.241250e+01 1.961229e+01 2.108179e+01 2.961874e+01 3.262529e+01 4.243399e+01 4.718900e+01 5.811495e+01 6.471902e+01 7.647942e+01 8.488505e+01 9.711564e+01 1.071191e+02 1.194383e+02 1.306536e+02 1.425938e+02 1.543683e+02 1.652479e+02 1.766746e+02 1.856155e+02 1.956719e+02 2.017728e+02 2.095268e+02 2.120786e+02 2.168786e+02 2.155176e+02 2.171129e+02 2.118720e+02 2.104372e+02 2.017158e+02 1.977766e+02 1.862611e+02 1.805349e+02 1.670937e+02 1.602919e+02 1.458629e+02 1.385313e+02 1.240205e+02 1.164838e+02 1.026892e+02 9.511108e+01 8.267107e+01 7.516609e+01 6.452668e+01 5.723608e+01 4.863660e+01 4.172955e+01 3.521095e+01 2.884275e+01 2.430418e+01 1.858552e+01 1.585900e+01 1.085298e+01 9.764899e+00 5.502371e+00 
2.135569e+00 -1.574796e+00 4.040385e-01 -2.479608e+00 9.212365e-01 -1.088136e+00 3.735141e+00 2.704072e+00 8.969762e+00 9.094105e+00 1.681528e+01 1.835097e+01 2.751375e+01 3.076734e+01 4.131790e+01 4.655998e+01 5.837232e+01 6.572004e+01 7.851365e+01 8.789902e+01 1.013265e+02 1.125386e+02 1.262609e+02 1.389513e+02 1.525048e+02 1.659975e+02 1.785956e+02 1.918237e+02 2.023601e+02 2.140413e+02 2.213403e+02 2.302795e+02 2.334140e+02 2.387762e+02 2.372852e+02 2.387641e+02 2.327090e+02 2.305601e+02 2.204689e+02 2.154093e+02 2.021589e+02 1.951495e+02 1.798157e+02 1.717796e+02 1.554817e+02 1.470713e+02 1.308459e+02 1.223748e+02 1.070976e+02 9.865808e+01 8.500512e+01 7.666426e+01 6.509460e+01 5.700879e+01 4.775779e+01 4.014489e+01 3.322159e+01 2.627160e+01 2.152377e+01 1.535127e+01 1.255726e+01 7.206112e+00 6.149660e+00 1.622375e+00 
-6.391718e+00 -1.026278e+01 -8.162775e+00 -1.127454e+01 -7.834391e+00 -1.016042e+01 -5.352500e+00 -6.803815e+00 -5.633523e-01 -9.600391e-01 6.788477e+00 7.744154e+00 1.706417e+01 1.977792e+01 3.069344e+01 3.557337e+01 4.799946e+01 5.526850e+01 6.885763e+01 7.852438e+01 9.281323e+01 1.047178e+02 1.193888e+02 1.332054e+02 1.478985e+02 1.628319e+02 1.767167e+02 1.914730e+02 2.032470e+02 2.162845e+02 2.245399e+02 2.344452e+02 2.380854e+02 2.438933e+02 2.423863e+02 2.437696e+02 2.371893e+02 2.344960e+02 2.234384e+02 2.175708e+02 2.030181e+02 1.951606e+02 1.783218e+02 1.695826e+02 1.517252e+02 1.428406e+02 1.251495e+02 1.164057e+02 9.988978e+01 9.128861e+01 7.672762e+01 6.825540e+01 5.616239e+01 4.794344e+01 3.854126e+01 3.080112e+01 2.400560e+01 1.694568e+01 1.247896e+01 6.211626e+00 3.740837e+00 -1.705064e+00 -2.473100e+00 -7.116512e+00 
-1.183975e+01 -1.592757e+01 -1.363500e+01 -1.695313e+01 -1.326038e+01 -1.579791e+01 -1.064885e+01 -1.231338e+01 -5.617338e+00 -6.197350e+00 2.127497e+00 3.004801e+00 1.300776e+01 1.587098e+01 2.758556e+01 3.296599e+01 4.639865e+01 5.453546e+01 6.929980e+01 8.011668e+01 9.576692e+01 1.090664e+02 1.254302e+02 1.410736e+02 1.578927e+02 1.751587e+02 1.914891e+02 2.088339e+02 2.229807e+02 2.384029e+02 2.484670e+02 2.601005e+02 2.646170e+02 2.711928e+02 2.694948e+02 2.706027e+02 2.628361e+02 2.589669e+02 2.459467e+02 2.383345e+02 2.213503e+02 2.116092e+02 1.921924e+02 1.817991e+02 1.614803e+02 1.513216e+02 1.314496e+02 1.217114e+02 1.033707e+02 9.384320e+01 7.783484e+01 6.838366e+01 5.522208e+01 4.602287e+01 3.593353e+01 2.733459e+01 2.017733e+01 1.244793e+01 7.853277e+00 1.100962e+00 -1.352253e+00 -7.143289e+00 -7.811583e+00 -1.271340e+01 
-2.087225e+01 -2.510839e+01 -2.268940e+01 -2.624095e+01 -2.255939e+01 -2.545263e+01 -2.041664e+01 -2.260027e+01 -1.606242e+01 -1.735436e+01 -9.147000e+00 -9.144260e+00 9.061441e-01 2.889738e+00 1.497189e+01 1.973614e+01 3.399842e+01 4.192045e+01 5.780917e+01 6.891059e+01 8.560110e+01 9.976243e+01 1.171803e+02 1.344292e+02 1.527390e+02 1.721579e+02 1.903769e+02 2.100273e+02 2.260600e+02 2.435060e+02 2.550227e+02 2.680518e+02 2.733174e+02 2.804635e+02 2.787383e+02 2.795625e+02 2.710472e+02 2.661926e+02 2.518159e+02 2.428344e+02 2.240347e+02 2.129359e+02 1.914301e+02 1.800146e+02 1.575421e+02 1.468158e+02 1.249320e+02 1.149770e+02 9.495664e+01 8.534524e+01 6.814791e+01 5.858534e+01 4.481712e+01 3.544773e+01 2.533129e+01 1.656087e+01 9.770444e+00 1.909324e+00 -2.150874e+00 -8.995337e+00 -1.091804e+01 -1.678696e+01 -1.702800e+01 -2.202639e+01 
-2.808166e+01 -3.251116e+01 -2.989580e+01 -3.367227e+01 -2.975863e+01 -3.293742e+01 -2.757664e+01 -3.011936e+01 -2.311002e+01 -2.481553e+01 -1.598161e+01 -1.634737e+01 -5.584788e+00 -3.689939e+00 9.142459e+00 1.439674e+01 2.982082e+01 3.882159e+01 5.601919e+01 6.849256e+01 8.658670e+01 1.021669e+02 1.214925e+02 1.408693e+02 1.619513e+02 1.845827e+02 2.063783e+02 2.298720e+02 2.495512e+02 2.705975e+02 2.849034e+02 3.005078e+02 3.070784e+02 3.152809e+02 3.132312e+02 3.134779e+02 3.031843e+02 2.963599e+02 2.791201e+02 2.673398e+02 2.450888e+02 2.311368e+02 2.061042e+02 1.924640e+02 1.667724e+02 1.546752e+02 1.300679e+02 1.192683e+02 9.705767e+01 8.657431e+01 6.769245e+01 5.695649e+01 4.197927e+01 3.132333e+01 2.054243e+01 1.069465e+01 3.679167e+00 -4.932765e+00 -8.950472e+00 -1.626602e+01 -1.802306e+01 -2.418454e+01 -2.422567e+01 -2.943227e+01 
-3.741732e+01 -4.195205e+01 -3.922517e+01 -4.320840e+01 -3.939946e+01 -4.294281e+01 -3.786457e+01 -4.101810e+01 -3.441260e+01 -3.708906e+01 -2.867881e+01 -3.041788e+01 -1.990840e+01 -1.953672e+01 -6.501707e+00 -2.265047e+00 1.437400e+01 2.293674e+01 4.199292e+01 5.470533e+01 7.396591e+01 9.045764e+01 1.105652e+02 1.322623e+02 1.552576e+02 1.811747e+02 2.058795e+02 2.329024e+02 2.555529e+02 2.796389e+02 2.961639e+02 3.137898e+02 3.214234e+02 3.303476e+02 3.282033e+02 3.278242e+02 3.164437e+02 3.078742e+02 2.887377e+02 2.746303e+02 2.498642e+02 2.337205e+02 2.058054e+02 1.907032e+02 1.620561e+02 1.494002e+02 1.220436e+02 1.112982e+02 8.680634e+01 7.647495e+01 5.602918e+01 4.523236e+01 2.956838e+01 1.864993e+01 8.155119e+00 -1.946218e+00 -8.126528e+00 -1.688986e+01 -1.994737e+01 -2.732678e+01 -2.824727e+01 -3.443758e+01 -3.387044e+01 -3.912255e+01 
-4.640787e+01 -5.106959e+01 -4.818341e+01 -5.238859e+01 -4.843659e+01 -5.234434e+01 -4.703739e+01 -5.075325e+01 -4.371741e+01 -4.720330e+01 -3.811265e+01 -4.082213e+01 -2.957997e+01 -2.988676e+01 -1.656646e+01 -1.187337e+01 6.347150e+00 1.651094e+01 3.709951e+01 5.170556e+01 7.209180e+01 8.945937e+01 1.114194e+02 1.352363e+02 1.617607e+02 1.922572e+02 2.224241e+02 2.554265e+02 2.839286e+02 3.136121e+02 3.345309e+02 3.560707e+02 3.655799e+02 3.759615e+02 3.731822e+02 3.716800e+02 3.575602e+02 3.456636e+02 3.222675e+02 3.035334e+02 2.737825e+02 2.531338e+02 2.203586e+02 2.022351e+02 1.694221e+02 1.556225e+02 1.249603e+02 1.140689e+02 8.704595e+01 7.616493e+01 5.382330e+01 4.146780e+01 2.438478e+01 1.155367e+01 5.274438e-01 -1.098303e+01 -1.707573e+01 -2.662224e+01 -2.932146e+01 -3.705668e+01 -3.757516e+01 -4.391217e+01 -4.300882e+01 -4.835125e+01 
-5.575132e+01 -6.043787e+01 -5.748903e+01 -6.182919e+01 -5.813175e+01 -6.235339e+01 -5.759909e+01 -6.197120e+01 -5.577602e+01 -6.057377e+01 -5.252757e+01 -5.750992e+01 -4.720163e+01 -5.043293e+01 -3.770939e+01 -3.452117e+01 -1.430905e+01 -4.872164e+00 1.972741e+01 3.462164e+01 5.615462e+01 7.391805e+01 9.501878e+01 1.224259e+02 1.514997e+02 1.871902e+02 2.222571e+02 2.607561e+02 2.941351e+02 3.284009e+02 3.527005e+02 3.771650e+02 3.880467e+02 3.993436e+02 3.962355e+02 3.935347e+02 3.778075e+02 3.628686e+02 3.368437e+02 3.141086e+02 2.808909e+02 2.566239e+02 2.198765e+02 1.996786e+02 1.628285e+02 1.487682e+02 1.143566e+02 1.042991e+02 7.414262e+01 6.395029e+01 3.950369e+01 2.712124e+01 9.174007e+00 -4.218466e+00 -1.421282e+01 -2.614617e+01 -3.050521e+01 -4.020688e+01 -4.127106e+01 -4.899044e+01 -4.826311e+01 -5.452975e+01 -5.281362e+01 -5.810972e+01 
-6.641806e+01 -7.111280e+01 -6.811419e+01 -7.264257e+01 -6.902159e+01 -7.367878e+01 -6.898418e+01 -7.418990e+01 -6.781505e+01 -7.411466e+01 -6.534461e+01 -7.256376e+01 -6.110666e+01 -6.655746e+01 -5.586675e+01 -5.228543e+01 -2.872297e+01 -1.630768e+01 1.043907e+01 2.915899e+01 5.068698e+01 6.686019e+01 8.909036e+01 1.175596e+02 1.507735e+02 1.935289e+02 2.375284e+02 2.859340e+02 3.292316e+02 3.723985e+02 4.037549e+02 4.342465e+02 4.475649e+02 4.608422e+02 4.563829e+02 4.516356e+02 4.316271e+02 4.111011e+02 3.786277e+02 3.480197e+02 3.074341e+02 2.756523e+02 2.321394e+02 2.077322e+02 1.656009e+02 1.515031e+02 1.132902e+02 1.051784e+02 7.229019e+01 6.246072e+01 3.605637e+01 2.106701e+01 1.076549e+00 -1.570534e+01 -2.581257e+01 -3.960183e+01 -4.320220e+01 -5.352182e+01 -5.368526e+01 -6.143003e+01 -5.995694e+01 -6.607392e+01 -6.385523e+01 -6.903326e+01 
-7.536172e+01 -7.997008e+01 -7.700749e+01 -8.155631e+01 -7.840504e+01 -8.324078e+01 -7.950853e+01 -8.530106e+01 -8.056570e+01 -8.855906e+01 -8.209212e+01 -9.306708e+01 -8.346691e+01 -9.544410e+01 -8.858692e+01 -8.638278e+01 -5.949570e+01 -4.849089e+01 -1.077346e+01 9.085171e+00 3.121083e+01 4.471978e+01 5.948382e+01 9.472296e+01 1.323765e+02 1.837288e+02 2.371540e+02 2.943159e+02 3.459526e+02 3.960216e+02 4.324540e+02 4.671407e+02 4.818424e+02 4.963324e+02 4.908873e+02 4.840939e+02 4.616934e+02 4.359376e+02 3.999119e+02 3.622862e+02 3.169445e+02 2.789565e+02 2.299463e+02 2.025836e+02 1.549901e+02 1.416566e+02 9.837058e+01 9.311933e+01 5.583399e+01 4.778702e+01 1.851087e+01 3.336072e+00 -1.835835e+01 -3.665870e+01 -4.376124e+01 -5.825782e+01 -5.840560e+01 -6.879182e+01 -6.635691e+01 -7.389796e+01 -7.073041e+01 -7.660345e+01 -7.340575e+01 -7.840193e+01 
-8.739243e+01 -9.184723e+01 -8.904562e+01 -9.371992e+01 -9.107858e+01 -9.639663e+01 -9.344827e+01 -1.004007e+02 -9.649098e+01 -1.070967e+02 -1.001137e+02 -1.153434e+02 -1.001624e+02 -1.182393e+02 -1.244100e+02 -1.220685e+02 -8.383848e+01 -6.740430e+01 -2.697476e+01 3.942265e+00 2.179322e+01 2.430536e+01 3.861839e+01 7.107906e+01 1.120970e+02 1.765915e+02 2.465883e+02 3.217004e+02 3.914380e+02 4.556593e+02 5.036845e+02 5.477192e+02 5.645957e+02 5.815776e+02 5.731701e+02 5.628952e+02 5.338555e+02 4.989655e+02 4.530119e+02 4.016087e+02 3.449783e+02 2.935081e+02 2.349677e+02 2.013290e+02 1.473860e+02 1.373243e+02 9.016962e+01 9.256503e+01 5.263235e+01 4.726403e+01 1.679245e+01 -4.234741e+00 -3.062305e+01 -5.609267e+01 -6.177334e+01 -7.825819e+01 -7.620819e+01 -8.640421e+01 -8.222937e+01 -8.906036e+01 -8.472191e+01 -8.994866e+01 -8.608362e+01 -9.066305e+01 
-9.540795e+01 -9.966995e+01 -9.706152e+01 -1.016507e+02 -9.975022e+01 -1.050686e+02 -1.036561e+02 -1.109365e+02 -1.101326e+02 -1.223868e+02 -1.202286e+02 -1.390227e+02 -1.227827e+02 -1.580632e+02 -1.808063e+02 -1.752394e+02 -1.339451e+02 -1.239407e+02 -4.982608e+01 -1.427723e+01 2.418417e-01 -1.428548e+01 -3.164453e+01 2.020236e+01 7.526381e+01 1.547530e+02 2.456944e+02 3.354270e+02 4.196926e+02 4.940215e+02 5.495071e+02 5.993244e+02 6.162676e+02 6.350738e+02 6.239448e+02 6.106327e+02 5.780126e+02 5.342106e+02 4.836762e+02 4.196028e+02 3.563915e+02 2.936366e+02 2.273667e+02 1.893293e+02 1.282936e+02 1.216690e+02 6.788744e+01 7.852291e+01 3.201316e+01 3.057037e+01 -3.236345e+00 -2.524358e+01 -5.774808e+01 -8.784959e+01 -8.425975e+01 -1.015442e+02 -9.296278e+01 -1.027533e+02 -9.496002e+01 -1.011843e+02 -9.490151e+01 -9.961848e+01 -9.477614e+01 -9.901139e+01 
-1.081806e+02 -1.121324e+02 -1.099790e+02 -1.146359e+02 -1.139173e+02 -1.197557e+02 -1.206085e+02 -1.293623e+02 -1.325877e+02 -1.486528e+02 -1.491143e+02 -1.705923e+02 -1.188835e+02 -1.703676e+02 -2.600194e+02 -2.546046e+02 -1.637690e+02 -1.493677e+02 -7.983145e+01 -7.253612e+00 -1.498084e+01 -7.442107e+01 -8.798224e+01 -4.730627e+01 2.579252e+00 1.142738e+02 2.420609e+02 3.673135e+02 4.865132e+02 5.809240e+02 6.558846e+02 7.204102e+02 7.348219e+02 7.558568e+02 7.384411e+02 7.197140e+02 6.774067e+02 6.196689e+02 5.534996e+02 4.647737e+02 3.830669e+02 2.939084e+02 2.140411e+02 1.651012e+02 9.763867e+01 1.027222e+02 4.637836e+01 8.004716e+01 3.052879e+01 3.815501e+01 8.963467e+00 -2.925315e+01 -7.871858e+01 -1.264093e+02 -1.146940e+02 -1.311269e+02 -1.176551e+02 -1.247408e+02 -1.142252e+02 -1.184202e+02 -1.106145e+02 -1.140341e+02 -1.084352e+02 -1.119305e+02 
-1.146265e+02 -1.183515e+02 -1.165844e+02 -1.211923e+02 -1.214850e+02 -1.273850e+02 -1.303917e+02 -1.393458e+02 -1.478007e+02 -1.642393e+02 -1.773024e+02 -1.868494e+02 -1.460441e+02 -2.458944e+02 -3.498388e+02 -2.842120e+02 -2.282878e+02 -2.808269e+02 -8.871107e+01 9.296463e+00 -1.858317e+01 -1.613882e+02 -2.987048e+02 -1.683135e+02 -5.074023e+01 5.376819e+01 2.022330e+02 3.336544e+02 4.560968e+02 5.573734e+02 6.363559e+02 7.028743e+02 7.132187e+02 7.370456e+02 7.141832e+02 6.930855e+02 6.481834e+02 5.782518e+02 5.131031e+02 4.097841e+02 3.281797e+02 2.320140e+02 1.492880e+02 1.026662e+02 3.240687e+01 4.117359e+01 -1.892616e+01 2.720504e+01 -3.061565e+01 -1.389755e+01 -3.922189e+01 -7.318088e+01 -1.443547e+02 -1.880242e+02 -1.427340e+02 -1.575035e+02 -1.343788e+02 -1.395195e+02 -1.255509e+02 -1.284146e+02 -1.191225e+02 -1.217079e+02 -1.154671e+02 -1.184820e+02 
-1.271461e+02 -1.304893e+02 -1.294097e+02 -1.340904e+02 -1.361697e+02 -1.427306e+02 -1.498922e+02 -1.608993e+02 -1.806341e+02 -2.038348e+02 -2.530921e+02 -2.791355e+02 -3.545124e+02 -4.648147e+02 -4.160380e+02 -3.606510e+02 -3.652095e+02 -3.557204e+02 -7.279597e+01 9.598600e+01 -1.881039e+01 -2.530594e+02 -3.436925e+02 -2.790569e+02 -1.944579e+02 -2.069075e+02 -2.160315e+02 -2.217313e+02 -2.571486e+02 -2.545097e+02 -2.770958e+02 -2.836083e+02 -2.968745e+02 -2.892904e+02 -2.988341e+02 -2.963579e+02 -2.934499e+02 -3.040940e+02 -2.864299e+02 -2.906354e+02 -2.756140e+02 -2.626343e+02 -2.661796e+02 -2.494283e+02 -2.681930e+02 -2.679689e+02 -2.986561e+02 -2.900915e+02 -3.273616e+02 -3.091428e+02 -3.224897e+02 -2.699750e+02 -2.934456e+02 -2.638940e+02 -2.013950e+02 -1.950576e+02 -1.657861e+02 -1.631809e+02 -1.463998e+02 -1.458004e+02 -1.350497e+02 -1.358645e+02 -1.289443e+02 -1.310370e+02 
-1.313101e+02 -1.345024e+02 -1.339380e+02 -1.388186e+02 -1.419903e+02 -1.493398e+02 -1.587816e+02 -1.721477e+02 -1.972190e+02 -2.284798e+02 -2.936067e+02 -3.527205e+02 -4.738675e+02 -5.280121e+02 -4.768334e+02 -5.064090e+02 -6.129789e+02 -7.510960e+02 -2.413824e+02 6.586730e+01 -1.799041e+02 -3.926659e+02 -3.476787e+02 -3.005273e+02 -2.958832e+02 -3.247308e+02 -4.059589e+02 -4.653841e+02 -5.673347e+02 -6.157525e+02 -6.878008e+02 -7.289345e+02 -7.526255e+02 -7.569225e+02 -7.558800e+02 -7.401063e+02 -7.123628e+02 -6.822077e+02 -6.288966e+02 -5.750085e+02 -5.186154e+02 -4.539565e+02 -4.200393e+02 -3.781836e+02 -3.700580e+02 -3.692404e+02 -3.794041e+02 -3.889315e+02 -4.051340e+02 -3.871740e+02 -4.001388e+02 -3.310779e+02 -3.126462e+02 -2.558670e+02 -2.182552e+02 -2.007660e+02 -1.766025e+02 -1.696914e+02 -1.538282e+02 -1.512319e+02 -1.405494e+02 -1.403419e+02 -1.334285e+02 -1.350165e+02 
-1.423480e+02 -1.452025e+02 -1.452378e+02 -1.501791e+02 -1.547094e+02 -1.625565e+02 -1.742401e+02 -1.884762e+02 -2.157188e+02 -2.472690e+02 -3.089682e+02 -3.706947e+02 -4.690648e+02 -5.225519e+02 -5.681085e+02 -6.311025e+02 -8.412954e+02 -1.097658e+03 -6.223303e+02 -5.107636e+02 -6.316176e+02 -6.123084e+02 -5.910984e+02 -4.645157e+02 -4.189671e+02 -4.124113e+02 -4.410523e+02 -4.699970e+02 -5.330569e+02 -5.662759e+02 -6.188149e+02 -6.467235e+02 -6.698204e+02 -6.748198e+02 -6.762614e+02 -6.648520e+02 -6.447111e+02 -6.205981e+02 -5.826659e+02 -5.433775e+02 -5.037359e+02 -4.585100e+02 -4.337424e+02 -4.008267e+02 -3.940565e+02 -3.814301e+02 -3.873403e+02 -3.786036e+02 -3.891615e+02 -3.622853e+02 -3.712258e+02 -3.289339e+02 -3.161936e+02 -2.728620e+02 -2.428731e+02 -2.218749e+02 -1.979882e+02 -1.875059e+02 -1.707192e+02 -1.657713e+02 -1.542441e+02 -1.526239e+02 -1.452428e+02 -1.460423e+02 
-1.435758e+02 -1.463752e+02 -1.468364e+02 -1.520352e+02 -1.572015e+02 -1.657003e+02 -1.781266e+02 -1.932777e+02 -2.200008e+02 -2.510413e+02 -3.055107e+02 -3.622860e+02 -4.393184e+02 -4.963508e+02 -5.428988e+02 -6.276041e+02 -7.350891e+02 -8.142266e+02 -6.198936e+02 -6.549812e+02 -6.351837e+02 -5.464794e+02 -5.200755e+02 -4.758917e+02 -4.447487e+02 -4.393416e+02 -4.707681e+02 -4.961403e+02 -5.519397e+02 -5.825317e+02 -6.297279e+02 -6.535462e+02 -6.774915e+02 -6.830654e+02 -6.856658e+02 -6.746580e+02 -6.574583e+02 -6.322483e+02 -6.000039e+02 -5.616124e+02 -5.263083e+02 -4.834386e+02 -4.575025e+02 -4.242668e+02 -4.118809e+02 -3.941332e+02 -3.926870e+02 -3.789947e+02 -3.819998e+02 -3.570879e+02 -3.570607e+02 -3.159182e+02 -3.024543e+02 -2.647820e+02 -2.427832e+02 -2.198586e+02 -2.003653e+02 -1.878195e+02 -1.729175e+02 -1.666005e+02 -1.558716e+02 -1.534780e+02 -1.465047e+02 -1.469399e+02 
-1.521263e+02 -1.546904e+02 -1.554969e+02 -1.606970e+02 -1.666111e+02 -1.753194e+02 -1.886279e+02 -2.038578e+02 -2.301464e+02 -2.595755e+02 -3.083349e+02 -3.604670e+02 -4.273113e+02 -4.861888e+02 -5.313683e+02 -6.002716e+02 -6.295145e+02 -6.934500e+02 -5.110644e+02 -4.814106e+02 -4.582062e+02 -4.523480e+02 -4.760408e+02 -4.560599e+02 -4.582373e+02 -4.530662e+02 -4.762702e+02 -4.905118e+02 -5.302107e+02 -5.508706e+02 -5.872352e+02 -6.040147e+02 -6.246891e+02 -6.288766e+02 -6.322601e+02 -6.232983e+02 -6.104250e+02 -5.898162e+02 -5.653290e+02 -5.349758e+02 -5.082400e+02 -4.743563e+02 -4.545034e+02 -4.254936e+02 -4.158847e+02 -3.947478e+02 -3.934099e+02 -3.737553e+02 -3.757780e+02 -3.493890e+02 -3.488030e+02 -3.161089e+02 -3.052460e+02 -2.735113e+02 -2.542709e+02 -2.321922e+02 -2.133350e+02 -1.999698e+02 -1.846810e+02 -1.773676e+02 -1.660822e+02 -1.629284e+02 -1.555855e+02 -1.555362e+02 
-1.500429e+02 -1.526411e+02 -1.536567e+02 -1.590444e+02 -1.651112e+02 -1.741537e+02 -1.873998e+02 -2.028829e+02 -2.280130e+02 -2.565414e+02 -3.006286e+02 -3.492017e+02 -4.071027e+02 -4.641620e+02 -5.037951e+02 -5.611090e+02 -5.710949e+02 -5.895007e+02 -4.605802e+02 -4.450179e+02 -3.982327e+02 -4.034023e+02 -4.294986e+02 -4.428915e+02 -4.539722e+02 -4.617560e+02 -4.889636e+02 -5.078529e+02 -5.482298e+02 -5.707883e+02 -6.074618e+02 -6.246072e+02 -6.463042e+02 -6.508097e+02 -6.548807e+02 -6.453770e+02 -6.330820e+02 -6.109114e+02 -5.870431e+02 -5.551591e+02 -5.280335e+02 -4.929245e+02 -4.707067e+02 -4.401811e+02 -4.266466e+02 -4.035061e+02 -3.976317e+02 -3.765710e+02 -3.740321e+02 -3.477061e+02 -3.429227e+02 -3.099164e+02 -2.980680e+02 -2.668081e+02 -2.498051e+02 -2.269745e+02 -2.102877e+02 -1.960042e+02 -1.821114e+02 -1.741493e+02 -1.636890e+02 -1.601861e+02 -1.533306e+02 -1.531518e+02 
-1.554903e+02 -1.579606e+02 -1.590347e+02 -1.643359e+02 -1.706678e+02 -1.796602e+02 -1.932736e+02 -2.086868e+02 -2.339305e+02 -2.621636e+02 -3.053130e+02 -3.532838e+02 -4.087472e+02 -4.663383e+02 -5.007302e+02 -5.567513e+02 -5.447291e+02 -5.666968e+02 -4.250305e+02 -3.926947e+02 -3.518686e+02 -3.727161e+02 -4.165409e+02 -4.311967e+02 -4.529348e+02 -4.567382e+02 -4.822411e+02 -4.948804e+02 -5.294223e+02 -5.465841e+02 -5.784376e+02 -5.921212e+02 -6.115043e+02 -6.149849e+02 -6.189188e+02 -6.105038e+02 -5.998991e+02 -5.805638e+02 -5.598929e+02 -5.321551e+02 -5.090427e+02 -4.781448e+02 -4.598641e+02 -4.318286e+02 -4.215847e+02 -3.984467e+02 -3.950525e+02 -3.728694e+02 -3.722685e+02 -3.459622e+02 -3.428946e+02 -3.126434e+02 -3.022269e+02 -2.732718e+02 -2.566618e+02 -2.349003e+02 -2.177600e+02 -2.037568e+02 -1.891479e+02 -1.811297e+02 -1.700417e+02 -1.663826e+02 -1.591125e+02 -1.587745e+02 
-1.500429e+02 -1.526411e+02 -1.536567e+02 -1.590444e+02 -1.651112e+02 -1.741537e+02 -1.873998e+02 -2.028829e+02 -2.280130e+02 -2.565414e+02 -3.006286e+02 -3.492017e+02 -4.071027e+02 -4.641620e+02 -5.037951e+02 -5.611090e+02 -5.710949e+02 -5.895007e+02 -4.605802e+02 -4.450179e+02 -3.982327e+02 -4.034023e+02 -4.294986e+02 -4.428915e+02 -4.539722e+02 -4.617560e+02 -4.889636e+02 -5.078529e+02 -5.482298e+02 -5.707883e+02 -6.074618e+02 -6.246072e+02 -6.463042e+02 -6.508097e+02 -6.548807e+02 -6.453770e+02 -6.330820e+02 -6.109114e+02 -5.870431e+02 -5.551591e+02 -5.280335e+02 -4.929245e+02 -4.707067e+02 -4.401811e+02 -4.266466e+02 -4.035061e+02 -3.976317e+02 -3.765710e+02 -3.740321e+02 -3.477061e+02 -3.429227e+02 -3.099164e+02 -2.980680e+02 -2.668081e+02 -2.498051e+02 -2.269745e+02 -2.102877e+02 -1.960042e+02 -1.821114e+02 -1.741493e+02 -1.636890e+02 -1.601861e+02 -1.533306e+02 -1.531518e+02 