# vtk DataFile Version 2.0
Comment goes here
ASCII

DATASET STRUCTURED_POINTS
DIMENSIONS    64   64   1

ORIGIN    0.000   0.000   0.000
SPACING   0.0781250.078125   1.000

POINT_DATA   4096
SCALARS P double
LOOKUP_TABLE default

3.441322e+01 3.973041e+01 4.699428e+01 5.181635e+01 5.727505e+01 6.147825e+01 6.494863e+01 6.833308e+01 6.962463e+01 7.191898e+01 7.084764e+01 7.173021e+01 6.814289e+01 6.728081e+01 6.108812e+01 5.819248e+01 4.940525e+01 4.429463e+01 3.305846e+01 2.571848e+01 1.234006e+01 2.964328e+00 -1.207665e+01 -2.307570e+01 -3.913470e+01 -5.115004e+01 -6.744868e+01 -7.973468e+01 -9.541385e+01 -1.071641e+02 -1.213538e+02 -1.317881e+02 -1.436848e+02 -1.521328e+02 -1.610735e+02 -1.670429e+02 -1.725638e+02 -1.757866e+02 -1.776595e+02 -1.781080e+02 -1.763493e+02 -1.742222e+02 -1.690761e+02 -1.647555e+02 -1.566530e+02 -1.506395e+02 -1.401429e+02 -1.329808e+02 -1.207205e+02 -1.129269e+02 -9.954175e+01 -9.155133e+01 -7.763970e+01 -6.977489e+01 -5.586206e+01 -4.832768e+01 -3.485063e+01 -2.774934e+01 -1.505726e+01 -8.417824e+00 3.215515e+00 9.404495e+00 1.976115e+01 2.551745e+01 
3.610020e+01 4.088550e+01 4.789490e+01 5.224682e+01 5.748863e+01 6.129440e+01 6.458683e+01 6.765936e+01 6.881329e+01 7.089454e+01 6.972817e+01 7.050820e+01 6.687272e+01 6.602699e+01 5.984025e+01 5.708369e+01 4.836709e+01 4.351780e+01 3.242993e+01 2.546949e+01 1.232986e+01 3.444573e+00 -1.125827e+01 -2.166759e+01 -3.728808e+01 -4.863221e+01 -6.440167e+01 -7.596065e+01 -9.104143e+01 -1.020429e+02 -1.155971e+02 -1.253017e+02 -1.365655e+02 -1.443472e+02 -1.526997e+02 -1.581098e+02 -1.631266e+02 -1.659348e+02 -1.674191e+02 -1.676259e+02 -1.656135e+02 -1.634329e+02 -1.581735e+02 -1.539884e+02 -1.459059e+02 -1.402037e+02 -1.298431e+02 -1.231424e+02 -1.111112e+02 -1.038944e+02 -9.080687e+01 -8.347114e+01 -6.990213e+01 -6.273366e+01 -4.918776e+01 -4.236096e+01 -2.925766e+01 -2.285226e+01 -1.052660e+01 -4.555604e+00 6.729604e+00 1.228807e+01 2.232293e+01 2.749435e+01 
3.542294e+01 4.076794e+01 4.811862e+01 5.300298e+01 5.855410e+01 6.285844e+01 6.642572e+01 6.994786e+01 7.133387e+01 7.379175e+01 7.279985e+01 7.385173e+01 7.031186e+01 6.959661e+01 6.340038e+01 6.059658e+01 5.173690e+01 4.663288e+01 3.524185e+01 2.780265e+01 1.418121e+01 4.595434e+00 -1.077212e+01 -2.207921e+01 -3.853201e+01 -5.092455e+01 -6.765682e+01 -8.034942e+01 -9.646632e+01 -1.086084e+02 -1.232007e+02 -1.339701e+02 -1.461972e+02 -1.548890e+02 -1.640587e+02 -1.701586e+02 -1.757894e+02 -1.790217e+02 -1.808817e+02 -1.812266e+02 -1.793419e+02 -1.770203e+02 -1.716557e+02 -1.670826e+02 -1.586975e+02 -1.524111e+02 -1.415993e+02 -1.341795e+02 -1.216009e+02 -1.135915e+02 -9.990898e+01 -9.175949e+01 -7.758730e+01 -6.962225e+01 -5.549293e+01 -4.790918e+01 -3.425925e+01 -2.714522e+01 -1.431762e+01 -7.685210e+00 4.056046e+00 1.023514e+01 2.068316e+01 2.644204e+01 
3.803093e+01 4.286302e+01 5.004376e+01 5.450922e+01 5.993436e+01 6.392950e+01 6.741425e+01 7.074879e+01 7.208925e+01 7.448573e+01 7.347391e+01 7.458423e+01 7.103641e+01 7.048055e+01 6.427621e+01 6.170389e+01 5.282950e+01 4.799752e+01 3.658725e+01 2.943584e+01 1.580141e+01 6.507785e+00 -8.849148e+00 -1.985666e+01 -3.625502e+01 -4.832784e+01 -6.494313e+01 -7.728137e+01 -9.320563e+01 -1.049501e+02 -1.192701e+02 -1.296008e+02 -1.414832e+02 -1.497096e+02 -1.584806e+02 -1.641141e+02 -1.693195e+02 -1.721186e+02 -1.735578e+02 -1.735420e+02 -1.712716e+02 -1.687010e+02 -1.630116e+02 -1.583349e+02 -1.497041e+02 -1.434819e+02 -1.325134e+02 -1.253313e+02 -1.126880e+02 -1.050774e+02 -9.141848e+01 -8.380065e+01 -6.973124e+01 -6.239272e+01 -4.843131e+01 -4.152872e+01 -2.809382e+01 -2.167875e+01 -9.093041e+00 -3.146599e+00 8.346355e+00 1.387730e+01 2.408928e+01 2.925845e+01 
3.842422e+01 4.384326e+01 5.145017e+01 5.651682e+01 6.234610e+01 6.695589e+01 7.082054e+01 7.476626e+01 7.644797e+01 7.941630e+01 7.867949e+01 8.026743e+01 7.688877e+01 7.664647e+01 7.045745e+01 6.795935e+01 5.889571e+01 5.383195e+01 4.198206e+01 3.425016e+01 1.989498e+01 9.666223e+00 -6.697425e+00 -1.895745e+01 -3.661909e+01 -5.018298e+01 -6.825184e+01 -8.220841e+01 -9.967781e+01 -1.130376e+02 -1.288746e+02 -1.406836e+02 -1.539310e+02 -1.633769e+02 -1.732506e+02 -1.797495e+02 -1.857139e+02 -1.889664e+02 -1.907782e+02 -1.907899e+02 -1.885060e+02 -1.855682e+02 -1.795194e+02 -1.741513e+02 -1.648869e+02 -1.577466e+02 -1.459592e+02 -1.377390e+02 -1.241816e+02 -1.155100e+02 -1.009194e+02 -9.229047e+01 -7.732922e+01 -6.907128e+01 -5.429272e+01 -4.657495e+01 -3.241242e+01 -2.527692e+01 -1.205239e+01 -5.457826e+00 6.596220e+00 1.273035e+01 2.344213e+01 2.919589e+01 
4.183669e+01 4.674431e+01 5.426005e+01 5.894304e+01 6.473736e+01 6.911390e+01 7.299747e+01 7.687496e+01 7.861415e+01 8.167888e+01 8.101065e+01 8.283674e+01 7.950230e+01 7.959121e+01 7.338638e+01 7.124370e+01 6.207798e+01 5.732183e+01 4.527446e+01 3.775002e+01 2.311282e+01 1.297497e+01 -3.725683e+00 -1.598892e+01 -3.399889e+01 -4.760898e+01 -6.598624e+01 -7.996976e+01 -9.765643e+01 -1.109678e+02 -1.268887e+02 -1.385357e+02 -1.517086e+02 -1.608643e+02 -1.705022e+02 -1.765933e+02 -1.821796e+02 -1.849413e+02 -1.862692e+02 -1.857618e+02 -1.829345e+02 -1.795179e+02 -1.729144e+02 -1.671806e+02 -1.573945e+02 -1.500647e+02 -1.378251e+02 -1.296312e+02 -1.157185e+02 -1.072957e+02 -9.246355e+01 -8.428099e+01 -6.919656e+01 -6.153541e+01 -4.674361e+01 -3.971727e+01 -2.563115e+01 -1.922832e+01 -6.141441e+00 -2.751436e-01 1.161181e+01 1.705953e+01 2.760560e+01 3.274634e+01 
4.332617e+01 4.883582e+01 5.685468e+01 6.220796e+01 6.850301e+01 7.362677e+01 7.800926e+01 8.269485e+01 8.491161e+01 8.879794e+01 8.854442e+01 9.112350e+01 8.807943e+01 8.874000e+01 8.262577e+01 8.074518e+01 7.138959e+01 6.646704e+01 5.387412e+01 4.567319e+01 3.008094e+01 1.873583e+01 6.569444e-01 -1.329247e+01 -3.306302e+01 -4.871813e+01 -6.913847e+01 -8.535527e+01 -1.052157e+02 -1.207508e+02 -1.387915e+02 -1.524518e+02 -1.675013e+02 -1.782809e+02 -1.893880e+02 -1.965776e+02 -2.031100e+02 -2.063681e+02 -2.080651e+02 -2.074433e+02 -2.044207e+02 -2.003401e+02 -1.930512e+02 -1.862254e+02 -1.753856e+02 -1.666973e+02 -1.531810e+02 -1.435330e+02 -1.282616e+02 -1.184366e+02 -1.022787e+02 -9.284549e+01 -7.654530e+01 -6.782904e+01 -5.197107e+01 -4.408042e+01 -2.908593e+01 -2.197293e+01 -8.121037e+00 -1.647053e+00 1.088982e+01 1.689700e+01 2.801220e+01 3.371362e+01 
4.739259e+01 5.236573e+01 6.036219e+01 6.534375e+01 7.169645e+01 7.664748e+01 8.116480e+01 8.590120e+01 8.830511e+01 9.246783e+01 9.240616e+01 9.545136e+01 9.253886e+01 9.377109e+01 8.765934e+01 8.633000e+01 7.679401e+01 7.226698e+01 5.928755e+01 5.123017e+01 3.505751e+01 2.357982e+01 4.772784e+00 -9.533532e+00 -3.010635e+01 -4.623571e+01 -6.744109e+01 -8.412226e+01 -1.046523e+02 -1.205268e+02 -1.390328e+02 -1.528230e+02 -1.680712e+02 -1.787256e+02 -1.897405e+02 -1.965466e+02 -2.027118e+02 -2.053663e+02 -2.064700e+02 -2.051015e+02 -2.013289e+02 -1.964667e+02 -1.883483e+02 -1.808311e+02 -1.691563e+02 -1.599850e+02 -1.456928e+02 -1.358523e+02 -1.199176e+02 -1.102161e+02 -9.354636e+01 -8.452114e+01 -6.787988e+01 -5.978611e+01 -4.375356e+01 -3.661769e+01 -2.158892e+01 -1.528763e+01 -1.500599e+00 4.165612e+00 1.658593e+01 2.183697e+01 3.283036e+01 3.786700e+01 
4.995347e+01 5.551624e+01 6.407542e+01 6.978689e+01 7.673541e+01 8.258132e+01 8.773512e+01 9.352291e+01 9.658120e+01 1.018965e+02 1.024499e+02 1.066355e+02 1.042092e+02 1.063990e+02 1.005333e+02 9.977256e+01 9.012094e+01 8.557417e+01 7.199695e+01 6.318753e+01 4.583912e+01 3.283010e+01 1.223245e+01 -4.313793e+00 -2.724441e+01 -4.614323e+01 -7.013313e+01 -8.986029e+01 -1.133774e+02 -1.322846e+02 -1.537022e+02 -1.702197e+02 -1.880199e+02 -2.008379e+02 -2.138040e+02 -2.220179e+02 -2.293693e+02 -2.325714e+02 -2.340272e+02 -2.323414e+02 -2.281169e+02 -2.221718e+02 -2.129204e+02 -2.037487e+02 -1.904548e+02 -1.793137e+02 -1.631458e+02 -1.512875e+02 -1.334349e+02 -1.218896e+02 -1.034223e+02 -9.286264e+01 -7.464143e+01 -6.536087e+01 -4.800405e+01 -3.999066e+01 -2.388635e+01 -1.693616e+01 -2.285536e+00 3.894082e+00 1.701917e+01 2.273661e+01 3.433455e+01 3.986757e+01 
5.447834e+01 5.944221e+01 6.803129e+01 7.334758e+01 8.044787e+01 8.615559e+01 9.158336e+01 9.753741e+01 1.009584e+02 1.067646e+02 1.076965e+02 1.126594e+02 1.105197e+02 1.136470e+02 1.078552e+02 1.079765e+02 9.808933e+01 9.412221e+01 7.995751e+01 7.125219e+01 5.297926e+01 3.956282e+01 1.777271e+01 4.094512e-01 -2.386847e+01 -4.379648e+01 -6.914625e+01 -8.989032e+01 -1.146188e+02 -1.343379e+02 -1.566652e+02 -1.736501e+02 -1.919470e+02 -2.048085e+02 -2.178105e+02 -2.256269e+02 -2.325730e+02 -2.349817e+02 -2.356644e+02 -2.328954e+02 -2.276364e+02 -2.204808e+02 -2.100501e+02 -1.997422e+02 -1.852342e+02 -1.732333e+02 -1.559119e+02 -1.436157e+02 -1.247524e+02 -1.132362e+02 -9.396682e+01 -8.384598e+01 -6.506931e+01 -5.651856e+01 -3.885114e+01 -3.173049e+01 -1.552148e+01 -9.522215e+00 5.089560e+00 1.033467e+01 2.334764e+01 2.819956e+01 3.967941e+01 4.445864e+01 
5.801188e+01 6.350492e+01 7.268434e+01 7.876395e+01 8.654594e+01 9.330271e+01 9.952528e+01 1.068273e+02 1.111346e+02 1.185359e+02 1.203704e+02 1.270303e+02 1.256826e+02 1.303586e+02 1.250887e+02 1.262841e+02 1.164758e+02 1.127795e+02 9.806080e+01 8.857504e+01 6.894305e+01 5.360089e+01 2.956044e+01 9.224758e+00 -1.814865e+01 -4.182336e+01 -7.092357e+01 -9.581608e+01 -1.246231e+02 -1.484763e+02 -1.747909e+02 -1.954752e+02 -2.172403e+02 -2.329968e+02 -2.485947e+02 -2.582318e+02 -2.666724e+02 -2.696833e+02 -2.706706e+02 -2.672808e+02 -2.611896e+02 -2.523384e+02 -2.401310e+02 -2.273499e+02 -2.104282e+02 -1.955787e+02 -1.755675e+02 -1.604677e+02 -1.389643e+02 -1.250266e+02 -1.033901e+02 -9.141157e+01 -7.065125e+01 -6.081916e+01 -4.157461e+01 -3.364253e+01 -1.622608e+01 -9.731207e+00 5.790724e+00 1.136715e+01 2.508156e+01 3.022992e+01 4.229360e+01 4.744114e+01 
6.274129e+01 6.752290e+01 7.675707e+01 8.236276e+01 9.038786e+01 9.699089e+01 1.036570e+02 1.112174e+02 1.161325e+02 1.242744e+02 1.267785e+02 1.346508e+02 1.338624e+02 1.400560e+02 1.350268e+02 1.376819e+02 1.276254e+02 1.248663e+02 1.093455e+02 9.996147e+01 7.899329e+01 6.286834e+01 3.705928e+01 1.525038e+01 -1.415705e+01 -3.963956e+01 -7.083572e+01 -9.749029e+01 -1.282041e+02 -1.534821e+02 -1.812628e+02 -2.028328e+02 -2.254409e+02 -2.414272e+02 -2.571704e+02 -2.663508e+02 -2.742737e+02 -2.761948e+02 -2.761217e+02 -2.711487e+02 -2.636202e+02 -2.529259e+02 -2.390779e+02 -2.245122e+02 -2.059002e+02 -1.896670e+02 -1.680414e+02 -1.522120e+02 -1.292834e+02 -1.153365e+02 -9.256865e+01 -8.117780e+01 -5.964799e+01 -5.077991e+01 -3.112596e+01 -2.432800e+01 -6.797046e+00 -1.465612e+00 1.397443e+01 1.843793e+01 3.197795e+01 3.610886e+01 4.800008e+01 5.226117e+01 
6.704391e+01 7.221913e+01 8.201694e+01 8.836505e+01 9.713288e+01 1.049223e+02 1.125592e+02 1.218117e+02 1.279157e+02 1.382362e+02 1.420528e+02 1.524255e+02 1.528907e+02 1.615488e+02 1.574886e+02 1.620513e+02 1.524587e+02 1.505099e+02 1.346532e+02 1.245560e+02 1.021338e+02 8.359193e+01 5.502800e+01 2.924287e+01 -4.187800e+00 -3.476632e+01 -7.100653e+01 -1.033285e+02 -1.396328e+02 -1.705667e+02 -2.038395e+02 -2.304505e+02 -2.577956e+02 -2.776773e+02 -2.968884e+02 -3.084452e+02 -3.182577e+02 -3.208381e+02 -3.209668e+02 -3.149199e+02 -3.059855e+02 -2.926850e+02 -2.761083e+02 -2.578480e+02 -2.356661e+02 -2.152851e+02 -1.898296e+02 -1.700731e+02 -1.435584e+02 -1.264300e+02 -1.006135e+02 -8.702709e+01 -6.308422e+01 -5.294435e+01 -3.149396e+01 -2.410224e+01 -5.301582e+00 2.225895e-01 1.653246e+01 2.101675e+01 3.516432e+01 3.931505e+01 5.168405e+01 5.609549e+01 
7.165461e+01 7.594125e+01 8.577278e+01 9.148208e+01 1.005680e+02 1.080912e+02 1.163715e+02 1.258985e+02 1.329507e+02 1.442655e+02 1.492072e+02 1.613886e+02 1.628877e+02 1.740044e+02 1.705189e+02 1.775833e+02 1.677964e+02 1.674580e+02 1.505690e+02 1.406237e+02 1.163565e+02 9.646624e+01 6.539364e+01 3.712598e+01 7.721101e-01 -3.277168e+01 -7.209579e+01 -1.072168e+02 -1.463764e+02 -1.795519e+02 -2.150313e+02 -2.430658e+02 -2.716766e+02 -2.920064e+02 -3.114379e+02 -3.224256e+02 -3.314870e+02 -3.325399e+02 -3.311527e+02 -3.227863e+02 -3.118348e+02 -2.957373e+02 -2.769017e+02 -2.558632e+02 -2.313863e+02 -2.088417e+02 -1.811963e+02 -1.603500e+02 -1.318900e+02 -1.148356e+02 -8.748938e+01 -7.485907e+01 -4.993182e+01 -4.119448e+01 -1.929769e+01 -1.341959e+01 5.410084e+00 9.480958e+00 2.556415e+01 2.871367e+01 4.253101e+01 4.547710e+01 5.753899e+01 6.088641e+01 
7.638389e+01 8.081999e+01 9.110074e+01 9.743158e+01 1.072667e+02 1.160453e+02 1.254746e+02 1.370484e+02 1.456778e+02 1.599095e+02 1.667459e+02 1.825813e+02 1.860125e+02 2.010275e+02 1.991754e+02 2.095232e+02 2.008838e+02 2.023255e+02 1.856447e+02 1.752405e+02 1.496135e+02 1.266754e+02 9.231436e+01 5.862945e+01 1.707677e+01 -2.346060e+01 -6.959963e+01 -1.124918e+02 -1.594025e+02 -2.003618e+02 -2.434967e+02 -2.784463e+02 -3.135766e+02 -3.391753e+02 -3.632534e+02 -3.773678e+02 -3.888201e+02 -3.906011e+02 -3.892299e+02 -3.791325e+02 -3.659133e+02 -3.458535e+02 -3.228532e+02 -2.962629e+02 -2.664775e+02 -2.378117e+02 -2.046919e+02 -1.782693e+02 -1.449835e+02 -1.237458e+02 -9.256932e+01 -7.746485e+01 -4.970877e+01 -3.995041e+01 -1.612103e+01 -1.013918e+01 9.900617e+00 1.363551e+01 3.041309e+01 3.310326e+01 4.730220e+01 4.985974e+01 6.217198e+01 6.533743e+01 
8.048338e+01 8.377590e+01 9.399403e+01 9.939243e+01 1.095725e+02 1.177954e+02 1.280779e+02 1.397510e+02 1.497829e+02 1.651537e+02 1.738224e+02 1.922151e+02 1.975089e+02 2.165265e+02 2.158871e+02 2.307169e+02 2.220141e+02 2.263146e+02 2.083593e+02 1.982100e+02 1.700915e+02 1.448821e+02 1.070292e+02 6.920503e+01 2.358651e+01 -2.172138e+01 -7.232516e+01 -1.194467e+02 -1.705865e+02 -2.148704e+02 -2.612499e+02 -2.983252e+02 -3.352518e+02 -3.615640e+02 -3.858658e+02 -3.992400e+02 -4.094995e+02 -4.091455e+02 -4.055343e+02 -3.920603e+02 -3.759778e+02 -3.516643e+02 -3.255739e+02 -2.946095e+02 -2.617780e+02 -2.297040e+02 -1.936767e+02 -1.657103e+02 -1.297880e+02 -1.089874e+02 -7.575203e+01 -6.240699e+01 -3.345400e+01 -2.586895e+01 -1.669600e+00 2.253257e+00 2.208097e+01 2.401915e+01 4.027659e+01 4.140087e+01 5.498804e+01 5.614344e+01 6.790916e+01 6.979654e+01 
8.513170e+01 8.818383e+01 9.860114e+01 1.043304e+02 1.151562e+02 1.245340e+02 1.361024e+02 1.500813e+02 1.621703e+02 1.813079e+02 1.927113e+02 2.163853e+02 2.246078e+02 2.498134e+02 2.516563e+02 2.720420e+02 2.656420e+02 2.734452e+02 2.568932e+02 2.469071e+02 2.178983e+02 1.888014e+02 1.471135e+02 1.016386e+02 4.934782e+01 -5.652620e+00 -6.553194e+01 -1.233005e+02 -1.853948e+02 -2.404816e+02 -2.977282e+02 -3.443781e+02 -3.903452e+02 -4.237966e+02 -4.543021e+02 -4.718037e+02 -4.850681e+02 -4.855622e+02 -4.816831e+02 -4.655854e+02 -4.459805e+02 -4.157017e+02 -3.832515e+02 -3.438553e+02 -3.029942e+02 -2.617100e+02 -2.177479e+02 -1.817071e+02 -1.393739e+02 -1.130708e+02 -7.521685e+01 -5.937153e+01 -2.726711e+01 -1.943938e+01 6.669469e+00 9.737879e+00 3.051823e+01 3.128051e+01 4.785695e+01 4.784885e+01 6.140977e+01 6.163138e+01 7.325852e+01 7.450388e+01 
8.828319e+01 8.985437e+01 9.999442e+01 1.043226e+02 1.154074e+02 1.236466e+02 1.362184e+02 1.497132e+02 1.637502e+02 1.837589e+02 1.980629e+02 2.249856e+02 2.365491e+02 2.682683e+02 2.725810e+02 3.015513e+02 2.951874e+02 3.081063e+02 2.900820e+02 2.804075e+02 2.480672e+02 2.151324e+02 1.685500e+02 1.160403e+02 5.836009e+01 -4.391831e+00 -7.076560e+01 -1.345670e+02 -2.030280e+02 -2.628331e+02 -3.248381e+02 -3.745476e+02 -4.229750e+02 -4.574583e+02 -4.880397e+02 -5.045708e+02 -5.158283e+02 -5.134156e+02 -5.061368e+02 -4.852260e+02 -4.614978e+02 -4.247379e+02 -3.880787e+02 -3.416127e+02 -2.968486e+02 -2.500005e+02 -2.022770e+02 -1.641146e+02 -1.181497e+02 -9.330444e+01 -5.258211e+01 -4.021401e+01 -6.725275e+00 -2.365586e+00 2.380738e+01 2.413626e+01 4.420147e+01 4.286402e+01 5.841555e+01 5.668027e+01 6.919142e+01 6.785224e+01 7.856946e+01 7.830914e+01 
9.218115e+01 9.294455e+01 1.028348e+02 1.069376e+02 1.183548e+02 1.273013e+02 1.411396e+02 1.568535e+02 1.734786e+02 1.979921e+02 2.162949e+02 2.506768e+02 2.667644e+02 3.085059e+02 3.158903e+02 3.541470e+02 3.520398e+02 3.715296e+02 3.575609e+02 3.494349e+02 3.173527e+02 2.794149e+02 2.283455e+02 1.642118e+02 9.813389e+01 2.188801e+01 -5.717629e+01 -1.353218e+02 -2.197387e+02 -2.947762e+02 -3.726177e+02 -4.357891e+02 -4.967860e+02 -5.408557e+02 -5.795431e+02 -6.014492e+02 -6.163803e+02 -6.151013e+02 -6.072364e+02 -5.826581e+02 -5.537226e+02 -5.081062e+02 -4.617130e+02 -4.022395e+02 -3.449510e+02 -2.838852e+02 -2.243343e+02 -1.741667e+02 -1.199459e+02 -8.785485e+01 -4.206313e+01 -2.791988e+01 8.844805e+00 1.152179e+01 3.932815e+01 3.708888e+01 5.754174e+01 5.383179e+01 6.904117e+01 6.534546e+01 7.718715e+01 7.427271e+01 8.426607e+01 8.278884e+01 
9.397134e+01 9.285234e+01 1.020790e+02 1.041148e+02 1.154778e+02 1.222850e+02 1.370411e+02 1.509320e+02 1.699675e+02 1.939526e+02 2.166165e+02 2.539396e+02 2.760827e+02 3.280714e+02 3.407397e+02 3.973034e+02 3.945621e+02 4.228634e+02 4.076975e+02 3.993806e+02 3.628795e+02 3.185994e+02 2.601582e+02 1.835595e+02 1.113536e+02 2.191657e+01 -6.696031e+01 -1.525685e+02 -2.470130e+02 -3.285426e+02 -4.133632e+02 -4.809291e+02 -5.451322e+02 -5.905326e+02 -6.288294e+02 -6.494428e+02 -6.608360e+02 -6.558059e+02 -6.426753e+02 -6.115705e+02 -5.765774e+02 -5.211466e+02 -4.690071e+02 -3.976514e+02 -3.357542e+02 -2.650110e+02 -2.008556e+02 -1.478419e+02 -8.837264e+01 -6.033547e+01 -1.017598e+01 -3.305883e+00 3.487768e+01 3.207073e+01 5.912574e+01 5.358709e+01 7.237955e+01 6.655190e+01 7.995516e+01 7.457956e+01 8.476758e+01 8.024172e+01 8.884067e+01 8.565494e+01 
9.635859e+01 9.367914e+01 1.019405e+02 1.028242e+02 1.138264e+02 1.202749e+02 1.358308e+02 1.509827e+02 1.729099e+02 2.012490e+02 2.298256e+02 2.769100e+02 3.070109e+02 3.762137e+02 3.899410e+02 4.615904e+02 4.668350e+02 5.073414e+02 5.027043e+02 4.990352e+02 4.649528e+02 4.146133e+02 3.501618e+02 2.530770e+02 1.710787e+02 6.327241e+01 -4.284686e+01 -1.465131e+02 -2.653916e+02 -3.692887e+02 -4.780811e+02 -5.651153e+02 -6.465336e+02 -7.042392e+02 -7.523865e+02 -7.795462e+02 -7.950100e+02 -7.918661e+02 -7.781483e+02 -7.426704e+02 -7.006857e+02 -6.324513e+02 -5.654752e+02 -4.735919e+02 -3.911962e+02 -2.978064e+02 -2.150568e+02 -1.435846e+02 -7.441391e+01 -3.673204e+01 1.746946e+01 2.330461e+01 6.478864e+01 5.581021e+01 8.389114e+01 7.303188e+01 9.116104e+01 8.155917e+01 9.355885e+01 8.541929e+01 9.401705e+01 8.729593e+01 9.438247e+01 8.934655e+01 
9.652205e+01 9.155584e+01 9.855152e+01 9.656625e+01 1.068035e+02 1.096680e+02 1.254406e+02 1.362788e+02 1.603514e+02 1.841228e+02 2.182508e+02 2.635049e+02 3.046195e+02 3.872505e+02 4.141260e+02 5.316198e+02 5.310154e+02 5.840024e+02 5.815997e+02 5.747963e+02 5.350650e+02 4.758024e+02 3.971348e+02 2.763576e+02 1.924535e+02 5.954860e+01 -6.345923e+01 -1.713279e+02 -3.072906e+02 -4.206355e+02 -5.393280e+02 -6.330541e+02 -7.180811e+02 -7.768644e+02 -8.235067e+02 -8.487253e+02 -8.575442e+02 -8.499722e+02 -8.280826e+02 -7.847919e+02 -7.336672e+02 -6.510279e+02 -5.759468e+02 -4.630736e+02 -3.765289e+02 -2.646961e+02 -1.771611e+02 -1.020407e+02 -2.446412e+01 2.809009e+00 6.484829e+01 5.440756e+01 9.653021e+01 7.962211e+01 1.049296e+02 9.127537e+01 1.060973e+02 9.512277e+01 1.042486e+02 9.484365e+01 1.010738e+02 9.285050e+01 9.799190e+01 9.111301e+01 
9.673313e+01 8.931736e+01 9.434128e+01 8.985640e+01 9.842439e+01 9.893606e+01 1.139222e+02 1.232415e+02 1.490185e+02 1.737033e+02 2.155147e+02 2.692457e+02 3.304200e+02 4.477589e+02 4.599396e+02 5.987441e+02 6.162399e+02 6.930273e+02 7.190793e+02 7.239754e+02 6.892688e+02 6.264184e+02 5.350490e+02 3.676805e+02 2.763387e+02 1.221836e+02 -2.329264e+01 -1.483670e+02 -3.251207e+02 -4.752730e+02 -6.323818e+02 -7.558942e+02 -8.630454e+02 -9.352017e+02 -9.914036e+02 -1.022920e+03 -1.034804e+03 -1.031251e+03 -1.010450e+03 -9.641784e+02 -9.057569e+02 -8.056331e+02 -7.084821e+02 -5.619301e+02 -4.393996e+02 -2.901164e+02 -1.702431e+02 -6.552275e+01 2.003702e+01 6.104242e+01 1.209198e+02 1.010002e+02 1.480721e+02 1.144945e+02 1.397383e+02 1.173923e+02 1.295785e+02 1.139362e+02 1.200247e+02 1.074806e+02 1.109283e+02 1.001078e+02 1.028114e+02 9.349525e+01 
9.532449e+01 8.533474e+01 8.829622e+01 8.022565e+01 8.675188e+01 8.208654e+01 9.532009e+01 9.672620e+01 1.218280e+02 1.329283e+02 1.770511e+02 2.084736e+02 2.903398e+02 4.090534e+02 4.631598e+02 7.416481e+02 7.235173e+02 8.000832e+02 8.491242e+02 8.397829e+02 7.988407e+02 7.330619e+02 5.983413e+02 3.813827e+02 3.207744e+02 1.086720e+02 -7.634621e+01 -1.764234e+02 -3.846818e+02 -5.555591e+02 -7.247999e+02 -8.606983e+02 -9.709490e+02 -1.041660e+03 -1.095467e+03 -1.123821e+03 -1.122347e+03 -1.114262e+03 -1.081482e+03 -1.029041e+03 -9.560593e+02 -8.368468e+02 -7.260116e+02 -5.401257e+02 -4.182881e+02 -2.291351e+02 -1.071838e+02 1.707852e+00 1.029421e+02 1.192065e+02 1.976225e+02 1.379988e+02 1.804665e+02 1.398183e+02 1.573860e+02 1.366444e+02 1.429596e+02 1.279171e+02 1.299207e+02 1.168291e+02 1.172625e+02 1.051454e+02 1.054267e+02 9.422648e+01 
9.311323e+01 7.979528e+01 7.963107e+01 6.744133e+01 7.026103e+01 6.025246e+01 6.884556e+01 6.303193e+01 8.283785e+01 8.269732e+01 1.258675e+02 1.420327e+02 3.093546e+02 5.256127e+02 4.833709e+02 7.688856e+02 8.040202e+02 9.326794e+02 1.060832e+03 1.075568e+03 1.036942e+03 9.975737e+02 8.199614e+02 4.665431e+02 4.183082e+02 2.057754e+02 -5.938324e-01 -9.391654e+01 -3.801145e+02 -6.295175e+02 -8.669324e+02 -1.054988e+03 -1.192146e+03 -1.270937e+03 -1.330797e+03 -1.361425e+03 -1.358548e+03 -1.360452e+03 -1.335448e+03 -1.287801e+03 -1.212361e+03 -1.072698e+03 -9.305561e+02 -6.854591e+02 -4.936052e+02 -2.388519e+02 -4.928911e+01 1.095003e+02 2.024328e+02 2.457658e+02 3.000906e+02 2.062242e+02 2.648160e+02 1.827073e+02 1.963868e+02 1.682741e+02 1.678566e+02 1.496437e+02 1.461627e+02 1.304771e+02 1.268174e+02 1.120750e+02 1.090647e+02 9.500263e+01 
9.066870e+01 7.477508e+01 7.174928e+01 5.572686e+01 5.473724e+01 3.860519e+01 4.157998e+01 2.484696e+01 3.512925e+01 9.782389e+00 3.047945e+01 -2.863714e+01 1.366812e+02 1.545440e+02 3.912658e+02 1.261465e+03 1.039527e+03 1.021123e+03 1.273724e+03 1.239755e+03 1.204060e+03 1.220789e+03 8.799257e+02 4.432192e+02 5.495184e+02 8.394854e+01 -2.541889e+02 -1.456863e+02 -4.408704e+02 -6.928790e+02 -8.207773e+02 -9.129385e+02 -9.523465e+02 -9.279880e+02 -9.278298e+02 -8.759343e+02 -7.488658e+02 -6.266088e+02 -4.817663e+02 -3.758814e+02 -2.673754e+02 -2.347836e+02 -2.242940e+02 -8.354842e+01 -1.517228e+02 7.653009e+01 1.579453e+02 2.390941e+02 3.724501e+02 3.361026e+02 5.505678e+02 3.170968e+02 2.161157e+02 2.023827e+02 1.984305e+02 1.876602e+02 1.792394e+02 1.638124e+02 1.555181e+02 1.394820e+02 1.325737e+02 1.165591e+02 1.109484e+02 9.505044e+01 
8.656709e+01 6.674783e+01 5.980937e+01 3.833834e+01 3.164919e+01 7.098957e+00 -5.226222e-01 -3.248675e+01 -4.833017e+01 -1.089366e+02 -1.734727e+02 -3.352172e+02 -4.792502e+02 -8.003924e+02 -6.350247e+01 6.136959e+02 3.615748e+02 1.197372e+03 1.637238e+03 1.600130e+03 1.548636e+03 1.787947e+03 1.085179e+03 -6.460522e+02 -7.435335e+02 -9.774882e+02 -1.290828e+03 -7.458498e+02 -6.611270e+02 -4.604167e+02 -1.530666e+02 1.489257e+02 4.073251e+02 6.778418e+02 8.595307e+02 1.079528e+03 1.351428e+03 1.615120e+03 1.862603e+03 2.005212e+03 2.092043e+03 1.971547e+03 1.752110e+03 1.616724e+03 1.104360e+03 1.056426e+03 7.790646e+02 5.516848e+02 6.759236e+02 3.729251e+02 7.148664e+02 4.352721e+02 1.402174e+02 2.424036e+02 2.063760e+02 2.211603e+02 1.985769e+02 1.862042e+02 1.702215e+02 1.528056e+02 1.410598e+02 1.225804e+02 1.133078e+02 9.433640e+01 
8.411556e+01 6.218135e+01 5.206985e+01 2.737551e+01 1.560234e+01 -1.440047e+01 -3.161159e+01 -7.350771e+01 -1.103408e+02 -1.895611e+02 -3.070225e+02 -5.087762e+02 -8.507158e+02 -1.174173e+03 -8.543925e+02 -1.174716e+03 -6.841918e+02 1.340886e+03 1.910082e+03 1.776437e+03 1.759890e+03 2.078411e+03 7.887542e+02 -1.870948e+03 -2.083895e+03 -1.702767e+03 -1.706381e+03 -1.112764e+03 -8.265532e+02 -3.954756e+02 -1.694236e+01 3.689646e+02 6.553393e+02 9.350293e+02 1.135408e+03 1.348975e+03 1.567556e+03 1.782421e+03 1.970295e+03 2.088010e+03 2.142651e+03 2.077316e+03 1.893014e+03 1.764876e+03 1.352184e+03 1.221305e+03 9.436572e+02 6.678624e+02 7.396878e+02 4.170739e+02 5.965087e+02 4.104988e+02 2.195752e+02 2.718570e+02 2.377685e+02 2.417222e+02 2.160617e+02 1.996265e+02 1.804697e+02 1.608425e+02 1.465256e+02 1.264204e+02 1.148910e+02 9.428470e+01 
7.942372e+01 5.358460e+01 3.994600e+01 9.770576e+00 -6.873118e+00 -4.507581e+01 -6.945323e+01 -1.235858e+02 -1.683123e+02 -2.605519e+02 -3.637984e+02 -5.481062e+02 -7.694656e+02 -1.028210e+03 -1.064971e+03 -1.274594e+03 -8.460746e+02 8.870807e+02 2.078339e+03 2.086637e+03 2.146214e+03 2.058600e+03 -2.066169e+02 -2.202554e+03 -2.028576e+03 -1.697325e+03 -1.513175e+03 -1.060288e+03 -7.934833e+02 -4.118174e+02 -1.049367e+02 2.327637e+02 4.933889e+02 7.652540e+02 9.722918e+02 1.188685e+03 1.383201e+03 1.564431e+03 1.708997e+03 1.802665e+03 1.834212e+03 1.804014e+03 1.670095e+03 1.583678e+03 1.315234e+03 1.201316e+03 1.009457e+03 7.928308e+02 8.065460e+02 5.478150e+02 6.187043e+02 4.460782e+02 3.386656e+02 3.254171e+02 2.876482e+02 2.731826e+02 2.409184e+02 2.188748e+02 1.947569e+02 1.719584e+02 1.538324e+02 1.309575e+02 1.162850e+02 9.261582e+01 
7.813862e+01 5.122802e+01 3.517807e+01 3.412499e+00 -1.709279e+01 -5.790553e+01 -8.862531e+01 -1.464546e+02 -1.997169e+02 -2.923166e+02 -3.945415e+02 -5.523062e+02 -7.153672e+02 -9.017479e+02 -9.282035e+02 -1.027551e+03 -1.113413e+03 -2.461525e+02 1.286637e+03 1.611143e+03 1.235127e+03 6.737467e+02 -1.338140e+03 -2.320432e+03 -1.906468e+03 -1.687648e+03 -1.445577e+03 -1.064509e+03 -7.879575e+02 -4.136938e+02 -1.153441e+02 2.231536e+02 4.839359e+02 7.584097e+02 9.676895e+02 1.182432e+03 1.357097e+03 1.522548e+03 1.641071e+03 1.726531e+03 1.745010e+03 1.727747e+03 1.616600e+03 1.530378e+03 1.327470e+03 1.196715e+03 1.038543e+03 8.466729e+02 8.148612e+02 6.063506e+02 6.210481e+02 4.775137e+02 4.079409e+02 3.629828e+02 3.210438e+02 2.906906e+02 2.565274e+02 2.287166e+02 2.030268e+02 1.776630e+02 1.580514e+02 1.338166e+02 1.176854e+02 9.303625e+01 
7.410265e+01 4.400851e+01 2.560580e+01 -1.057721e+01 -3.416038e+01 -8.133251e+01 -1.161684e+02 -1.827270e+02 -2.399443e+02 -3.412804e+02 -4.407585e+02 -5.989457e+02 -7.539829e+02 -9.538336e+02 -1.091605e+03 -1.294146e+03 -1.513284e+03 -1.540699e+03 -1.196071e+03 -1.100649e+03 -1.808870e+03 -2.347947e+03 -2.634056e+03 -2.493226e+03 -2.075269e+03 -1.745854e+03 -1.453516e+03 -1.085689e+03 -8.071899e+02 -4.558261e+02 -1.806629e+02 1.351490e+02 3.804452e+02 6.449382e+02 8.485620e+02 1.058316e+03 1.221778e+03 1.375893e+03 1.480299e+03 1.560757e+03 1.578076e+03 1.575374e+03 1.493427e+03 1.428435e+03 1.281713e+03 1.169388e+03 1.045982e+03 8.824644e+02 8.361114e+02 6.566954e+02 6.433069e+02 5.072576e+02 4.574568e+02 3.932934e+02 3.516997e+02 3.098792e+02 2.741064e+02 2.411596e+02 2.131953e+02 1.848854e+02 1.630173e+02 1.364247e+02 1.182175e+02 9.105601e+01 
7.468455e+01 4.497008e+01 2.563557e+01 -1.001626e+01 -3.512797e+01 -8.160245e+01 -1.185873e+02 -1.837571e+02 -2.422906e+02 -3.387382e+02 -4.320812e+02 -5.743502e+02 -7.051994e+02 -8.839535e+02 -1.016194e+03 -1.234021e+03 -1.516525e+03 -1.906059e+03 -2.286277e+03 -2.371352e+03 -2.804220e+03 -3.014588e+03 -2.721421e+03 -2.356773e+03 -2.015850e+03 -1.701358e+03 -1.414433e+03 -1.066958e+03 -7.859410e+02 -4.384083e+02 -1.619280e+02 1.563402e+02 4.038177e+02 6.711378e+02 8.751997e+02 1.085112e+03 1.242227e+03 1.392400e+03 1.487836e+03 1.565126e+03 1.577480e+03 1.574521e+03 1.498018e+03 1.428822e+03 1.297060e+03 1.178024e+03 1.060522e+03 9.022973e+02 8.414919e+02 6.771041e+02 6.469611e+02 5.209251e+02 4.753504e+02 4.045121e+02 3.624250e+02 3.155587e+02 2.795630e+02 2.443077e+02 2.160768e+02 1.868147e+02 1.646353e+02 1.377974e+02 1.192137e+02 9.219887e+01 
7.216182e+01 4.053515e+01 2.042884e+01 -1.787225e+01 -4.388359e+01 -9.410068e+01 -1.323558e+02 -2.027319e+02 -2.632949e+02 -3.663091e+02 -4.630655e+02 -6.117325e+02 -7.496961e+02 -9.322683e+02 -1.079310e+03 -1.275724e+03 -1.497842e+03 -1.747543e+03 -2.021698e+03 -2.196274e+03 -2.450217e+03 -2.519953e+03 -2.496100e+03 -2.305344e+03 -2.018852e+03 -1.721385e+03 -1.434147e+03 -1.090706e+03 -8.117950e+02 -4.725185e+02 -2.046157e+02 1.035961e+02 3.434150e+02 6.040630e+02 8.040490e+02 1.010350e+03 1.165014e+03 1.312583e+03 1.406983e+03 1.484792e+03 1.500507e+03 1.504115e+03 1.438324e+03 1.380151e+03 1.264313e+03 1.156926e+03 1.051576e+03 9.033388e+02 8.455172e+02 6.869118e+02 6.553740e+02 5.291126e+02 4.870561e+02 4.121728e+02 3.715072e+02 3.217926e+02 2.857574e+02 2.488260e+02 2.198850e+02 1.894121e+02 1.663595e+02 1.383293e+02 1.189076e+02 9.045171e+01 
7.468455e+01 4.497008e+01 2.563557e+01 -1.001626e+01 -3.512797e+01 -8.160245e+01 -1.185873e+02 -1.837571e+02 -2.422906e+02 -3.387382e+02 -4.320812e+02 -5.743502e+02 -7.051994e+02 -8.839535e+02 -1.016194e+03 -1.234021e+03 -1.516525e+03 -1.906059e+03 -2.286277e+03 -2.371352e+03 -2.804220e+03 -3.014588e+03 -2.721421e+03 -2.356773e+03 -2.015850e+03 -1.701358e+03 -1.414433e+03 -1.066958e+03 -7.859410e+02 -4.384083e+02 -1.619280e+02 1.563402e+02 4.038177e+02 6.711378e+02 8.751997e+02 1.085112e+03 1.242227e+03 1.392400e+03 1.487836e+03 1.565126e+03 1.577480e+03 1.574521e+03 1.498018e+03 1.428822e+03 1.297060e+03 1.178024e+03 1.060522e+03 9.022973e+02 8.414919e+02 6.771041e+02 6.469611e+02 5.209251e+02 4.753504e+02 4.045121e+02 3.624250e+02 3.155587e+02 2.795630e+02 2.443077e+02 2.160768e+02 1.868147e+02 1.646353e+02 1.377974e+02 1.192137e+02 9.219887e+01 