# vtk DataFile Version 2.0
Comment goes here
ASCII

DATASET STRUCTURED_POINTS
DIMENSIONS    64   64   1

ORIGIN    0.000   0.000   0.000
SPACING   0.0781250.078125   1.000

POINT_DATA   4096
SCALARS P double
LOOKUP_TABLE default

-7.095125e+01 -7.474696e+01 -7.692816e+01 -8.041368e+01 -8.145908e+01 -8.453184e+01 -8.436356e+01 -8.685220e+01 -8.537591e+01 -8.704289e+01 -8.416115e+01 -8.472111e+01 -8.035555e+01 -7.951156e+01 -7.363199e+01 -7.112758e+01 -6.378413e+01 -5.946330e+01 -5.081569e+01 -4.467839e+01 -3.501567e+01 -2.725487e+01 -1.699932e+01 -8.008423e+00 2.301696e+00 1.195651e+01 2.170725e+01 3.134784e+01 3.990966e+01 4.883024e+01 5.562851e+01 6.318777e+01 6.777059e+01 7.347336e+01 7.556326e+01 7.911603e+01 7.863641e+01 7.996742e+01 7.704030e+01 7.628334e+01 7.120095e+01 6.864972e+01 6.182731e+01 5.787289e+01 4.979252e+01 4.485815e+01 3.601375e+01 3.049943e+01 2.135161e+01 1.559583e+01 6.541149e+00 8.014428e-01 -7.842877e+00 -1.339327e+01 -2.139148e+01 -2.665539e+01 -3.384543e+01 -3.878646e+01 -4.506584e+01 -4.968916e+01 -5.499727e+01 -5.932847e+01 -6.362811e+01 -6.769121e+01 
-7.113109e+01 -7.474118e+01 -7.677170e+01 -8.009294e+01 -8.098092e+01 -8.392120e+01 -8.359309e+01 -8.599057e+01 -8.435739e+01 -8.598161e+01 -8.295266e+01 -8.352122e+01 -7.902635e+01 -7.823989e+01 -7.225829e+01 -6.985249e+01 -6.244383e+01 -5.825112e+01 -4.958339e+01 -4.359159e+01 -3.395904e+01 -2.635167e+01 -1.617707e+01 -7.342517e+00 2.841191e+00 1.233779e+01 2.192781e+01 3.140754e+01 3.978985e+01 4.854686e+01 5.516407e+01 6.255925e+01 6.697505e+01 7.251784e+01 7.446593e+01 7.786895e+01 7.727793e+01 7.847591e+01 7.546715e+01 7.459972e+01 6.946070e+01 6.682633e+01 5.996596e+01 5.595933e+01 4.785416e+01 4.290115e+01 3.404216e+01 2.854454e+01 1.939243e+01 1.368942e+01 4.643345e+00 -1.008169e+00 -9.627308e+00 -1.505640e+01 -2.300952e+01 -2.812313e+01 -3.524631e+01 -4.001379e+01 -4.620455e+01 -5.063817e+01 -5.583756e+01 -5.997109e+01 -6.414465e+01 -6.801118e+01 
-7.162826e+01 -7.544502e+01 -7.765430e+01 -8.119068e+01 -8.227455e+01 -8.543248e+01 -8.531087e+01 -8.791781e+01 -8.648987e+01 -8.829929e+01 -8.545673e+01 -8.616537e+01 -8.181541e+01 -8.110046e+01 -7.519691e+01 -7.277181e+01 -6.534993e+01 -6.103059e+01 -5.223978e+01 -4.600714e+01 -3.613409e+01 -2.817706e+01 -1.765242e+01 -8.378141e+00 2.239588e+00 1.223435e+01 2.230091e+01 3.229551e+01 4.114576e+01 5.038808e+01 5.741330e+01 6.522102e+01 6.994330e+01 7.579345e+01 7.792212e+01 8.151114e+01 8.097078e+01 8.223506e+01 7.916188e+01 7.825804e+01 7.296792e+01 7.022100e+01 6.315733e+01 5.899099e+01 5.066330e+01 4.552853e+01 3.645339e+01 3.076938e+01 2.142279e+01 1.553781e+01 6.324104e+00 4.974121e-01 -8.265106e+00 -1.386433e+01 -2.194374e+01 -2.722596e+01 -3.446732e+01 -3.940575e+01 -4.571538e+01 -5.032580e+01 -5.565239e+01 -5.997139e+01 -6.428638e+01 -6.834887e+01 
-7.248476e+01 -7.612655e+01 -7.820946e+01 -8.162194e+01 -8.258251e+01 -8.568361e+01 -8.544349e+01 -8.807049e+01 -8.652728e+01 -8.843344e+01 -8.547461e+01 -8.634300e+01 -8.187002e+01 -8.134954e+01 -7.531049e+01 -7.307491e+01 -6.550121e+01 -6.132366e+01 -5.236438e+01 -4.619139e+01 -3.613770e+01 -2.814285e+01 -1.743539e+01 -8.035025e+00 2.752821e+00 1.293017e+01 2.313636e+01 3.332426e+01 4.226629e+01 5.166464e+01 5.872016e+01 6.660768e+01 7.129127e+01 7.712266e+01 7.914311e+01 8.261214e+01 8.190023e+01 8.295887e+01 7.966273e+01 7.849678e+01 7.294866e+01 6.991926e+01 6.258184e+01 5.814871e+01 4.955184e+01 4.419627e+01 3.487569e+01 2.903795e+01 1.948576e+01 1.352498e+01 4.157146e+00 -1.666025e+00 -1.052489e+01 -1.604753e+01 -2.416492e+01 -2.930939e+01 -3.653518e+01 -4.129035e+01 -4.753993e+01 -5.193957e+01 -5.717316e+01 -6.127323e+01 -6.547421e+01 -6.932970e+01 
-7.362920e+01 -7.750105e+01 -7.979302e+01 -8.347748e+01 -8.467902e+01 -8.809373e+01 -8.811871e+01 -9.108962e+01 -8.981767e+01 -9.207242e+01 -8.936182e+01 -9.054246e+01 -8.625545e+01 -8.595780e+01 -7.999727e+01 -7.783826e+01 -7.019154e+01 -6.589571e+01 -5.667778e+01 -5.016317e+01 -3.965075e+01 -3.109118e+01 -1.973896e+01 -9.583795e+00 1.987242e+00 1.304449e+01 2.409425e+01 3.519737e+01 4.494717e+01 5.519579e+01 6.292792e+01 7.150888e+01 7.666283e+01 8.296518e+01 8.520900e+01 8.889866e+01 8.816182e+01 8.920308e+01 8.566810e+01 8.429234e+01 7.835093e+01 7.498430e+01 6.716936e+01 6.233952e+01 5.324722e+01 4.749207e+01 3.770931e+01 3.150641e+01 2.155582e+01 1.528150e+01 5.589582e+00 -4.940050e-01 -9.607270e+00 -1.534531e+01 -2.366124e+01 -2.898874e+01 -3.637518e+01 -4.129517e+01 -4.768625e+01 -5.224696e+01 -5.762032e+01 -6.189187e+01 -6.624584e+01 -7.029648e+01 
-7.513274e+01 -7.882129e+01 -8.100614e+01 -8.459120e+01 -8.570192e+01 -8.912572e+01 -8.907514e+01 -9.217762e+01 -9.083632e+01 -9.334109e+01 -9.055105e+01 -9.207100e+01 -8.767308e+01 -8.774668e+01 -8.162120e+01 -7.978563e+01 -7.190095e+01 -6.779516e+01 -5.825597e+01 -5.173053e+01 -4.081667e+01 -3.201874e+01 -2.020484e+01 -9.609183e+00 2.446514e+00 1.407321e+01 2.558058e+01 3.727937e+01 4.740605e+01 5.816945e+01 6.615090e+01 7.507795e+01 8.032210e+01 8.674963e+01 8.891265e+01 9.249647e+01 9.151602e+01 9.224987e+01 8.833419e+01 8.650857e+01 8.008845e+01 7.620393e+01 6.785915e+01 6.251762e+01 5.289259e+01 4.669336e+01 3.641818e+01 2.988027e+01 1.951109e+01 1.303098e+01 3.015910e+00 -3.142559e+00 -1.247428e+01 -1.816855e+01 -2.660068e+01 -3.178727e+01 -3.920031e+01 -4.390930e+01 -5.025737e+01 -5.456684e+01 -5.985096e+01 -6.386225e+01 -6.810361e+01 -7.191674e+01 
-7.685866e+01 -8.079378e+01 -8.321764e+01 -8.713201e+01 -8.853672e+01 -9.238162e+01 -9.267292e+01 -9.627962e+01 -9.530495e+01 -9.836289e+01 -9.592233e+01 -9.798005e+01 -9.385453e+01 -9.435930e+01 -8.835713e+01 -8.674271e+01 -7.875950e+01 -7.457231e+01 -6.465344e+01 -5.768533e+01 -4.608030e+01 -3.646940e+01 -2.366822e+01 -1.193743e+01 1.329009e+00 1.430741e+01 2.712186e+01 4.023670e+01 5.160658e+01 6.367729e+01 7.267914e+01 8.264631e+01 8.856554e+01 9.565554e+01 9.808610e+01 1.019129e+02 1.007976e+02 1.013848e+02 9.699648e+01 9.472267e+01 8.759689e+01 8.308257e+01 7.391971e+01 6.788788e+01 5.744333e+01 5.058941e+01 3.957547e+01 3.247640e+01 2.149432e+01 1.456758e+01 4.076598e+00 -2.419405e+00 -1.210272e+01 -1.804498e+01 -2.672988e+01 -3.209967e+01 -3.969705e+01 -4.455024e+01 -5.104493e+01 -5.548555e+01 -6.090709e+01 -6.506260e+01 -6.945714e+01 -7.345350e+01 
-7.894610e+01 -8.266008e+01 -8.498952e+01 -8.880458e+01 -9.015220e+01 -9.405836e+01 -9.432630e+01 -9.818037e+01 -9.719879e+01 -1.006895e+02 -9.822797e+01 -1.008622e+02 -9.666086e+01 -9.779379e+01 -9.161658e+01 -9.054545e+01 -8.224876e+01 -7.836756e+01 -6.797171e+01 -6.094895e+01 -4.870159e+01 -3.862609e+01 -2.504670e+01 -1.248733e+01 1.628896e+00 1.566692e+01 2.931121e+01 4.353172e+01 5.561086e+01 6.864322e+01 7.814522e+01 8.877720e+01 9.492749e+01 1.022968e+02 1.046658e+02 1.083715e+02 1.069148e+02 1.070336e+02 1.020678e+02 9.908190e+01 9.120978e+01 8.586791e+01 7.587087e+01 6.902100e+01 5.773692e+01 5.017418e+01 3.838726e+01 3.075171e+01 1.911641e+01 1.185220e+01 8.597262e-01 -5.777306e+00 -1.579873e+01 -2.170846e+01 -3.057502e+01 -3.577366e+01 -4.341974e+01 -4.800419e+01 -5.444948e+01 -5.856712e+01 -6.388032e+01 -6.770255e+01 -7.196662e+01 -7.566357e+01 
-8.114108e+01 -8.509897e+01 -8.769256e+01 -9.188553e+01 -9.358760e+01 -9.803145e+01 -9.874157e+01 -1.032949e+02 -1.028176e+02 -1.071310e+02 -1.051806e+02 -1.086699e+02 -1.048998e+02 -1.067762e+02 -1.008404e+02 -1.002279e+02 -9.186685e+01 -8.800005e+01 -7.713388e+01 -6.957623e+01 -5.638960e+01 -4.520429e+01 -3.022177e+01 -1.604066e+01 -1.582704e-01 1.585618e+01 3.143194e+01 4.774300e+01 6.166018e+01 7.661571e+01 8.760479e+01 9.973428e+01 1.068268e+02 1.150921e+02 1.177677e+02 1.217088e+02 1.199430e+02 1.196981e+02 1.139208e+02 1.101284e+02 1.011178e+02 9.473241e+01 8.346576e+01 7.553581e+01 6.302593e+01 5.449540e+01 4.164796e+01 3.323422e+01 2.076027e+01 1.292172e+01 1.314123e+00 -5.717997e+00 -1.616270e+01 -2.232818e+01 -3.147125e+01 -3.682730e+01 -4.465058e+01 -4.933255e+01 -5.590093e+01 -6.009363e+01 -6.551692e+01 -6.943016e+01 -7.382750e+01 -7.767157e+01 
-8.370681e+01 -8.736248e+01 -8.986560e+01 -9.392103e+01 -9.560376e+01 -1.001360e+02 -1.008928e+02 -1.058106e+02 -1.054200e+02 -1.103914e+02 -1.085198e+02 -1.129159e+02 -1.091502e+02 -1.120490e+02 -1.059681e+02 -1.062718e+02 -9.754752e+01 -9.422635e+01 -8.272946e+01 -7.512251e+01 -6.102273e+01 -4.909985e+01 -3.295727e+01 -1.742537e+01 -2.353050e-01 1.751520e+01 3.439481e+01 5.251265e+01 6.756080e+01 8.407839e+01 9.587892e+01 1.090809e+02 1.165690e+02 1.252828e+02 1.279033e+02 1.316549e+02 1.294061e+02 1.284282e+02 1.218093e+02 1.169144e+02 1.068087e+02 9.916103e+01 8.667331e+01 7.751922e+01 6.379106e+01 5.422373e+01 4.026947e+01 3.109098e+01 1.769713e+01 9.391934e+00 -2.907234e+00 -1.012366e+01 -2.101916e+01 -2.712829e+01 -3.649489e+01 -4.160834e+01 -4.946733e+01 -5.377929e+01 -6.025259e+01 -6.400653e+01 -6.926552e+01 -7.272831e+01 -7.694749e+01 -8.038602e+01 
-8.619783e+01 -9.005796e+01 -9.283772e+01 -9.729451e+01 -9.939544e+01 -1.045811e+02 -1.059068e+02 -1.117580e+02 -1.120658e+02 -1.182218e+02 -1.171109e+02 -1.228246e+02 -1.197605e+02 -1.238895e+02 -1.182850e+02 -1.194452e+02 -1.107918e+02 -1.076860e+02 -9.569121e+01 -8.748222e+01 -7.218903e+01 -5.879517e+01 -4.073121e+01 -2.293209e+01 -3.220954e+00 1.737283e+01 3.706854e+01 5.823407e+01 7.597371e+01 9.528942e+01 1.092382e+02 1.245715e+02 1.333601e+02 1.432625e+02 1.462090e+02 1.501275e+02 1.472817e+02 1.455665e+02 1.376224e+02 1.313568e+02 1.194836e+02 1.101785e+02 9.579465e+01 8.502177e+01 6.953991e+01 5.861420e+01 4.322092e+01 3.303279e+01 1.857266e+01 9.589823e+00 -3.432115e+00 -1.106128e+01 -2.240667e+01 -2.873811e+01 -3.835733e+01 -4.356363e+01 -5.154721e+01 -5.587230e+01 -6.240386e+01 -6.613819e+01 -7.144368e+01 -7.490416e+01 -7.920625e+01 -8.271533e+01 
-8.908143e+01 -9.249741e+01 -9.517843e+01 -9.939906e+01 -1.015245e+02 -1.067768e+02 -1.082461e+02 -1.145629e+02 -1.151003e+02 -1.221864e+02 -1.213221e+02 -1.284084e+02 -1.255054e+02 -1.312750e+02 -1.256260e+02 -1.283414e+02 -1.193253e+02 -1.172296e+02 -1.044653e+02 -9.630494e+01 -7.979077e+01 -6.530938e+01 -4.560177e+01 -2.569884e+01 -4.067980e+00 1.925560e+01 4.090056e+01 6.489159e+01 8.433213e+01 1.060564e+02 1.212251e+02 1.381736e+02 1.475573e+02 1.580915e+02 1.609669e+02 1.645326e+02 1.609927e+02 1.581060e+02 1.489506e+02 1.409822e+02 1.275379e+02 1.163375e+02 1.002167e+02 8.766428e+01 7.047660e+01 5.810129e+01 4.119167e+01 2.998423e+01 1.429586e+01 4.732823e+00 -9.183422e+00 -1.699855e+01 -2.889389e+01 -3.509058e+01 -4.493547e+01 -4.976852e+01 -5.771739e+01 -6.151215e+01 -6.784107e+01 -7.096357e+01 -7.599335e+01 -7.882966e+01 -8.286279e+01 -8.580211e+01 
-9.162064e+01 -9.513938e+01 -9.808385e+01 -1.026753e+02 -1.052749e+02 -1.112701e+02 -1.134585e+02 -1.209744e+02 -1.224735e+02 -1.312274e+02 -1.314976e+02 -1.405879e+02 -1.388261e+02 -1.466022e+02 -1.418478e+02 -1.460863e+02 -1.374418e+02 -1.359391e+02 -1.227755e+02 -1.139958e+02 -9.606386e+01 -7.967426e+01 -5.739471e+01 -3.435485e+01 -9.139432e+00 1.826938e+01 4.403780e+01 7.249009e+01 9.589624e+01 1.217125e+02 1.399963e+02 1.599864e+02 1.711564e+02 1.832515e+02 1.864206e+02 1.899673e+02 1.853482e+02 1.810797e+02 1.697995e+02 1.595494e+02 1.433948e+02 1.295975e+02 1.106830e+02 9.575111e+01 7.610929e+01 6.189639e+01 4.311081e+01 3.067864e+01 1.372511e+01 3.447850e+00 -1.122854e+01 -1.939962e+01 -3.169584e+01 -3.802014e+01 -4.802402e+01 -5.283506e+01 -6.079366e+01 -6.446961e+01 -7.073697e+01 -7.369485e+01 -7.865926e+01 -8.134440e+01 -8.536789e+01 -8.824053e+01 
-9.459353e+01 -9.744488e+01 -1.002649e+02 -1.044283e+02 -1.071021e+02 -1.130484e+02 -1.155132e+02 -1.235337e+02 -1.254775e+02 -1.354598e+02 -1.362512e+02 -1.473602e+02 -1.460405e+02 -1.564336e+02 -1.518522e+02 -1.587478e+02 -1.498321e+02 -1.502207e+02 -1.361926e+02 -1.277324e+02 -1.082387e+02 -9.028684e+01 -6.572746e+01 -3.943379e+01 -1.143396e+01 2.023489e+01 4.888073e+01 8.169426e+01 1.076068e+02 1.370569e+02 1.571139e+02 1.794532e+02 1.914596e+02 2.043707e+02 2.074095e+02 2.102741e+02 2.046435e+02 1.984772e+02 1.854583e+02 1.725664e+02 1.541702e+02 1.375363e+02 1.161718e+02 9.869035e+01 7.669664e+01 6.052067e+01 3.971030e+01 2.599508e+01 7.458611e+00 -3.467972e+00 -1.925230e+01 -2.753770e+01 -4.046295e+01 -4.649147e+01 -5.665868e+01 -6.088358e+01 -6.864380e+01 -7.155276e+01 -7.741451e+01 -7.951798e+01 -8.401530e+01 -8.583597e+01 -8.944095e+01 -9.150893e+01 
-9.685017e+01 -9.960525e+01 -1.026291e+02 -1.070309e+02 -1.102037e+02 -1.169018e+02 -1.202417e+02 -1.297196e+02 -1.329642e+02 -1.452378e+02 -1.477103e+02 -1.618521e+02 -1.623738e+02 -1.760435e+02 -1.730582e+02 -1.825938e+02 -1.746019e+02 -1.762439e+02 -1.621613e+02 -1.531374e+02 -1.321300e+02 -1.117640e+02 -8.383073e+01 -5.324001e+01 -2.010970e+01 1.746637e+01 5.224614e+01 9.168476e+01 1.235336e+02 1.590536e+02 1.836731e+02 2.103966e+02 2.248396e+02 2.397842e+02 2.429646e+02 2.454074e+02 2.378880e+02 2.292325e+02 2.128291e+02 1.961596e+02 1.736081e+02 1.529050e+02 1.274259e+02 1.064796e+02 8.109230e+01 6.252803e+01 3.937144e+01 2.431788e+01 4.422163e+00 -7.103809e+00 -2.354076e+01 -3.199565e+01 -4.515526e+01 -5.113723e+01 -6.127622e+01 -6.531014e+01 -7.288607e+01 -7.549235e+01 -8.110445e+01 -8.283861e+01 -8.709902e+01 -8.854872e+01 -9.199721e+01 -9.377701e+01 
-9.960660e+01 -1.013709e+02 -1.042193e+02 -1.078646e+02 -1.111613e+02 -1.175250e+02 -1.213143e+02 -1.311727e+02 -1.351763e+02 -1.489213e+02 -1.523545e+02 -1.693672e+02 -1.708125e+02 -1.886470e+02 -1.862372e+02 -2.003443e+02 -1.923258e+02 -1.975467e+02 -1.826057e+02 -1.744782e+02 -1.515784e+02 -1.289733e+02 -9.789600e+01 -6.219965e+01 -2.499469e+01 1.929089e+01 5.835085e+01 1.045242e+02 1.400524e+02 1.809936e+02 2.081444e+02 2.382006e+02 2.537514e+02 2.696609e+02 2.725664e+02 2.737148e+02 2.647118e+02 2.529605e+02 2.340657e+02 2.132657e+02 1.875070e+02 1.625437e+02 1.335951e+02 1.090295e+02 8.041506e+01 5.928039e+01 3.347531e+01 1.692059e+01 -4.947036e+00 -1.709378e+01 -3.485736e+01 -4.323077e+01 -5.708544e+01 -6.249018e+01 -7.262478e+01 -7.574845e+01 -8.280611e+01 -8.431384e+01 -8.917062e+01 -8.972997e+01 -9.322181e+01 -9.349724e+01 -9.630399e+01 -9.696787e+01 
-1.011762e+02 -1.025047e+02 -1.054206e+02 -1.089968e+02 -1.127417e+02 -1.196805e+02 -1.244599e+02 -1.359177e+02 -1.416204e+02 -1.583905e+02 -1.642891e+02 -1.858846e+02 -1.902942e+02 -2.135756e+02 -2.139081e+02 -2.325289e+02 -2.262996e+02 -2.338627e+02 -2.196895e+02 -2.110801e+02 -1.869510e+02 -1.614362e+02 -1.260535e+02 -8.460104e+01 -3.994641e+01 1.297809e+01 6.139669e+01 1.176416e+02 1.622598e+02 2.123848e+02 2.463006e+02 2.827520e+02 3.015600e+02 3.200810e+02 3.227117e+02 3.226468e+02 3.104110e+02 2.942834e+02 2.700193e+02 2.429495e+02 2.107786e+02 1.793781e+02 1.443133e+02 1.147253e+02 8.145070e+01 5.740275e+01 2.884059e+01 1.114314e+01 -1.189956e+01 -2.422406e+01 -4.224656e+01 -5.039030e+01 -6.415721e+01 -6.926812e+01 -7.907847e+01 -8.180677e+01 -8.839304e+01 -8.936728e+01 -9.370710e+01 -9.362700e+01 -9.664269e+01 -9.624352e+01 -9.868315e+01 -9.872958e+01 
-1.033376e+02 -1.032462e+02 -1.058997e+02 -1.082090e+02 -1.121088e+02 -1.181446e+02 -1.235748e+02 -1.349298e+02 -1.418347e+02 -1.600393e+02 -1.676039e+02 -1.930684e+02 -1.992207e+02 -2.291411e+02 -2.307324e+02 -2.572496e+02 -2.514700e+02 -2.659834e+02 -2.511475e+02 -2.444573e+02 -2.182899e+02 -1.895577e+02 -1.498051e+02 -1.000869e+02 -4.930785e+01 1.438755e+01 6.931795e+01 1.360284e+02 1.860518e+02 2.441664e+02 2.816454e+02 3.226920e+02 3.428368e+02 3.623602e+02 3.643980e+02 3.619673e+02 3.475744e+02 3.263870e+02 2.985853e+02 2.649920e+02 2.281938e+02 1.903398e+02 1.502807e+02 1.155960e+02 7.788328e+01 5.063753e+01 1.870492e+01 -5.239519e-01 -2.589816e+01 -3.863992e+01 -5.819756e+01 -6.586116e+01 -8.045852e+01 -8.454741e+01 -9.399730e+01 -9.534274e+01 -1.008104e+02 -1.002398e+02 -1.032492e+02 -1.015968e+02 -1.034028e+02 -1.014629e+02 -1.029587e+02 -1.015134e+02 
-1.037856e+02 -1.027382e+02 -1.052074e+02 -1.068695e+02 -1.110159e+02 -1.170836e+02 -1.234726e+02 -1.361950e+02 -1.451786e+02 -1.670629e+02 -1.781982e+02 -2.105595e+02 -2.215677e+02 -2.609641e+02 -2.672260e+02 -3.013716e+02 -2.983137e+02 -3.168884e+02 -3.046048e+02 -2.971043e+02 -2.710005e+02 -2.392079e+02 -1.942049e+02 -1.372328e+02 -7.540215e+01 1.149069e+00 7.086166e+01 1.534238e+02 2.177507e+02 2.900700e+02 3.376972e+02 3.881472e+02 4.123925e+02 4.351450e+02 4.359185e+02 4.308202e+02 4.110308e+02 3.823122e+02 3.460646e+02 3.019869e+02 2.551805e+02 2.069417e+02 1.576029e+02 1.156454e+02 7.155757e+01 4.121177e+01 6.431803e+00 -1.294206e+01 -3.864421e+01 -5.059118e+01 -6.945072e+01 -7.614812e+01 -9.022750e+01 -9.381077e+01 -1.025465e+02 -1.033236e+02 -1.079267e+02 -1.065567e+02 -1.086941e+02 -1.060612e+02 -1.070843e+02 -1.040755e+02 -1.049296e+02 -1.024158e+02 
-1.049338e+02 -1.019622e+02 -1.040329e+02 -1.037177e+02 -1.079872e+02 -1.121690e+02 -1.193885e+02 -1.308347e+02 -1.416177e+02 -1.640888e+02 -1.780726e+02 -2.150870e+02 -2.292873e+02 -2.794480e+02 -2.880672e+02 -3.356377e+02 -3.337612e+02 -3.666905e+02 -3.541639e+02 -3.497178e+02 -3.222699e+02 -2.860854e+02 -2.347823e+02 -1.637119e+02 -9.225184e+01 2.011133e+00 8.200381e+01 1.809668e+02 2.531549e+02 3.369551e+02 3.895428e+02 4.460378e+02 4.715476e+02 4.951047e+02 4.946072e+02 4.853973e+02 4.625987e+02 4.256338e+02 3.845107e+02 3.299911e+02 2.764127e+02 2.182452e+02 1.614637e+02 1.123936e+02 6.214534e+01 2.821135e+01 -1.063009e+01 -3.101194e+01 -5.916071e+01 -7.111135e+01 -9.163084e+01 -9.710812e+01 -1.126481e+02 -1.145861e+02 -1.221680e+02 -1.208834e+02 -1.232149e+02 -1.197154e+02 -1.196141e+02 -1.149531e+02 -1.141823e+02 -1.092520e+02 -1.088077e+02 -1.044079e+02 
-1.038956e+02 -9.925922e+01 -1.007431e+02 -9.884635e+01 -1.029021e+02 -1.059492e+02 -1.137453e+02 -1.254292e+02 -1.384242e+02 -1.644818e+02 -1.835247e+02 -2.305741e+02 -2.530806e+02 -3.213672e+02 -3.385190e+02 -3.984950e+02 -3.983823e+02 -4.382823e+02 -4.324614e+02 -4.243532e+02 -4.008710e+02 -3.631960e+02 -3.059370e+02 -2.273242e+02 -1.390347e+02 -2.504130e+01 7.941069e+01 2.046825e+02 3.000757e+02 4.062823e+02 4.742907e+02 5.445864e+02 5.743575e+02 6.014839e+02 5.975059e+02 5.831410e+02 5.517083e+02 5.021559e+02 4.480315e+02 3.757732e+02 3.063006e+02 2.307977e+02 1.593906e+02 9.973983e+01 4.077244e+01 4.770611e+00 -3.599771e+01 -5.351261e+01 -7.964268e+01 -8.906541e+01 -1.067323e+02 -1.098890e+02 -1.248642e+02 -1.266064e+02 -1.330307e+02 -1.311651e+02 -1.320901e+02 -1.274749e+02 -1.260518e+02 -1.199802e+02 -1.180714e+02 -1.115928e+02 -1.101898e+02 -1.041630e+02 
-1.036534e+02 -9.661466e+01 -9.750310e+01 -9.279773e+01 -9.679730e+01 -9.651684e+01 -1.051621e+02 -1.132860e+02 -1.288134e+02 -1.526436e+02 -1.766700e+02 -2.272690e+02 -2.555869e+02 -3.425741e+02 -3.638054e+02 -4.443915e+02 -4.461249e+02 -5.199079e+02 -5.141619e+02 -5.070279e+02 -4.866406e+02 -4.454871e+02 -3.780429e+02 -2.729790e+02 -1.685662e+02 -2.483577e+01 9.696586e+01 2.483670e+02 3.546563e+02 4.764508e+02 5.516398e+02 6.292881e+02 6.591143e+02 6.865414e+02 6.798220e+02 6.588291e+02 6.236388e+02 5.607234e+02 5.003837e+02 4.110601e+02 3.314398e+02 2.402259e+02 1.569971e+02 8.751412e+01 1.985866e+01 -1.915886e+01 -6.419861e+01 -8.059886e+01 -1.084453e+02 -1.176602e+02 -1.365159e+02 -1.369302e+02 -1.564335e+02 -1.559074e+02 -1.588810e+02 -1.539116e+02 -1.502520e+02 -1.427571e+02 -1.377854e+02 -1.292369e+02 -1.249078e+02 -1.162049e+02 -1.131961e+02 -1.049694e+02 
-1.010009e+02 -9.148131e+01 -9.123412e+01 -8.368304e+01 -8.664738e+01 -8.323237e+01 -9.138967e+01 -9.687528e+01 -1.139054e+02 -1.384673e+02 -1.689738e+02 -2.308936e+02 -2.735847e+02 -4.010613e+02 -4.419129e+02 -5.394100e+02 -5.300171e+02 -6.189992e+02 -6.329293e+02 -6.088015e+02 -6.038042e+02 -5.706112e+02 -4.968218e+02 -3.890637e+02 -2.581613e+02 -8.203244e+01 8.341996e+01 2.825041e+02 4.278690e+02 5.852454e+02 6.847337e+02 7.824976e+02 8.133639e+02 8.433370e+02 8.282248e+02 7.982620e+02 7.502310e+02 6.672991e+02 5.878069e+02 4.678731e+02 3.623102e+02 2.404198e+02 1.326739e+02 4.754089e+01 -3.199168e+01 -6.843121e+01 -1.116383e+02 -1.168440e+02 -1.372482e+02 -1.422779e+02 -1.529713e+02 -1.477731e+02 -1.695393e+02 -1.716318e+02 -1.726524e+02 -1.672275e+02 -1.612759e+02 -1.521200e+02 -1.452962e+02 -1.347709e+02 -1.289677e+02 -1.181886e+02 -1.139258e+02 -1.034806e+02 
-9.917502e+01 -8.699823e+01 -8.590368e+01 -7.487999e+01 -7.733855e+01 -6.903841e+01 -7.756990e+01 -7.605134e+01 -9.610265e+01 -1.114184e+02 -1.504313e+02 -2.035853e+02 -2.561828e+02 -4.221672e+02 -4.692269e+02 -5.845467e+02 -5.780700e+02 -7.670790e+02 -7.782632e+02 -7.315293e+02 -7.535260e+02 -7.361896e+02 -6.391757e+02 -4.695657e+02 -3.092353e+02 -8.417397e+01 1.147631e+02 3.576030e+02 5.149633e+02 6.900714e+02 8.029260e+02 9.088057e+02 9.343279e+02 9.643911e+02 9.430073e+02 9.036357e+02 8.519367e+02 7.472111e+02 6.611646e+02 5.122692e+02 3.909071e+02 2.427678e+02 1.143810e+02 1.567479e+01 -7.614341e+01 -1.122264e+02 -1.581025e+02 -1.548779e+02 -1.744621e+02 -1.822738e+02 -1.895483e+02 -1.769701e+02 -2.176725e+02 -2.182368e+02 -2.066608e+02 -1.959894e+02 -1.809362e+02 -1.679828e+02 -1.562431e+02 -1.429865e+02 -1.344807e+02 -1.214217e+02 -1.155145e+02 -1.027923e+02 
-9.521450e+01 -7.986953e+01 -7.706030e+01 -6.193078e+01 -6.222605e+01 -4.826847e+01 -5.422406e+01 -4.490651e+01 -6.333794e+01 -6.913074e+01 -1.116920e+02 -1.548051e+02 -2.317149e+02 -5.073644e+02 -6.162646e+02 -7.336318e+02 -6.478173e+02 -8.933250e+02 -9.745939e+02 -8.549362e+02 -9.262959e+02 -9.570100e+02 -8.462974e+02 -6.924647e+02 -4.906142e+02 -2.063995e+02 7.838875e+01 4.186355e+02 6.417357e+02 8.685477e+02 1.023874e+03 1.159132e+03 1.168657e+03 1.194952e+03 1.154796e+03 1.101884e+03 1.033771e+03 9.003937e+02 7.884667e+02 5.851532e+02 4.195202e+02 2.119059e+02 3.872018e+01 -8.412173e+01 -1.916592e+02 -2.108126e+02 -2.430674e+02 -2.045909e+02 -2.071167e+02 -2.167974e+02 -1.985381e+02 -1.672106e+02 -2.275937e+02 -2.449416e+02 -2.267701e+02 -2.138631e+02 -1.948077e+02 -1.787369e+02 -1.646889e+02 -1.487145e+02 -1.385919e+02 -1.229969e+02 -1.156856e+02 -1.002869e+02 
-9.197549e+01 -7.418578e+01 -7.028307e+01 -5.172568e+01 -5.073961e+01 -3.146000e+01 -3.623368e+01 -1.753810e+01 -3.696035e+01 -2.211813e+01 -7.509980e+01 -4.571226e+01 -1.523333e+02 -4.228529e+02 -4.294981e+02 -3.987039e+02 -4.431099e+02 -1.240168e+03 -1.277005e+03 -9.658286e+02 -1.179159e+03 -1.344395e+03 -1.070470e+03 -6.149709e+02 -2.959389e+02 3.999338e+01 2.716235e+02 5.810755e+02 7.335435e+02 9.279672e+02 1.112027e+03 1.243098e+03 1.230678e+03 1.258292e+03 1.207285e+03 1.144712e+03 1.079929e+03 9.130887e+02 8.069008e+02 5.713094e+02 4.047033e+02 1.908093e+02 1.611738e+01 -1.002602e+02 -2.051655e+02 -2.299309e+02 -2.726676e+02 -2.221329e+02 -2.336668e+02 -2.709828e+02 -2.339212e+02 -1.841156e+02 -3.346440e+02 -3.474859e+02 -2.695341e+02 -2.437775e+02 -2.103046e+02 -1.898320e+02 -1.714703e+02 -1.531712e+02 -1.412655e+02 -1.238157e+02 -1.153925e+02 -9.803827e+01 
-8.754036e+01 -6.638358e+01 -6.044841e+01 -3.728583e+01 -3.324895e+01 -6.948278e+00 -6.630324e+00 2.416382e+01 1.412836e+01 5.346845e+01 2.101885e+01 1.218591e+02 9.435957e+01 1.679211e+02 3.904763e+02 5.021317e+02 2.063184e+02 -1.225714e+03 -1.491613e+03 -1.052086e+03 -1.371883e+03 -1.522577e+03 -2.023442e+02 7.702524e+02 8.243063e+02 9.403682e+02 7.401384e+02 6.584620e+02 4.144209e+02 3.012481e+02 2.472890e+02 1.833596e+02 1.141584e+02 9.788444e+01 7.183284e+01 3.324285e+01 4.746953e+01 -3.067461e+01 7.078664e+00 -3.978084e+01 -5.503453e-02 9.371402e+00 3.303286e+01 3.609371e+01 2.648107e+01 -2.120093e+01 -8.617177e+01 -1.182241e+02 -1.874607e+02 -2.397352e+02 -2.762097e+02 -2.683318e+02 -4.439291e+02 -4.040814e+02 -3.067219e+02 -2.646032e+02 -2.263141e+02 -1.999220e+02 -1.797333e+02 -1.581831e+02 -1.450198e+02 -1.249247e+02 -1.152336e+02 -9.511670e+01 
-8.354156e+01 -6.068739e+01 -5.357216e+01 -2.807978e+01 -2.199104e+01 7.328366e+00 1.127759e+01 4.493442e+01 4.190323e+01 7.811775e+01 6.125586e+01 1.243332e+02 1.593142e+02 3.589420e+02 5.255244e+02 5.640431e+02 3.606397e+02 -6.340934e+02 -5.383142e+02 -2.042866e+02 -3.781270e+02 -2.683009e+02 8.323151e+02 1.413999e+03 1.194042e+03 1.117799e+03 7.924718e+02 5.742809e+02 2.335033e+02 1.510110e+01 -1.842844e+02 -3.390037e+02 -4.235919e+02 -4.733632e+02 -4.824980e+02 -5.019435e+02 -4.543353e+02 -4.535599e+02 -3.573620e+02 -2.925654e+02 -1.702048e+02 -7.353641e+01 2.271486e+01 6.167165e+01 8.463293e+01 4.057831e+01 -1.552491e+01 -8.101006e+01 -1.583923e+02 -1.908155e+02 -2.694276e+02 -2.863683e+02 -3.707898e+02 -3.179948e+02 -2.789221e+02 -2.437434e+02 -2.194633e+02 -1.941179e+02 -1.777484e+02 -1.558630e+02 -1.437034e+02 -1.227621e+02 -1.130568e+02 -9.171169e+01 
-7.979378e+01 -5.404940e+01 -4.515468e+01 -1.587342e+01 -7.127073e+00 2.736981e+01 3.564612e+01 7.645346e+01 8.111081e+01 1.259334e+02 1.205073e+02 1.727915e+02 1.927240e+02 3.049547e+02 3.781580e+02 4.098438e+02 3.577642e+02 9.949909e+01 6.595828e+02 6.996836e+02 7.881894e+02 9.777692e+02 1.053090e+03 1.100064e+03 9.642326e+02 9.103653e+02 6.940157e+02 5.577345e+02 3.103092e+02 1.476356e+02 -2.443526e+01 -1.528600e+02 -2.416997e+02 -3.032800e+02 -3.266397e+02 -3.563990e+02 -3.285086e+02 -3.351721e+02 -2.679550e+02 -2.358123e+02 -1.533142e+02 -1.054076e+02 -4.515591e+01 -2.712860e+01 -1.500418e+01 -3.947809e+01 -7.640884e+01 -1.132492e+02 -1.701931e+02 -1.938979e+02 -2.541783e+02 -2.574795e+02 -3.162569e+02 -2.864423e+02 -2.730986e+02 -2.425502e+02 -2.240295e+02 -1.978915e+02 -1.826114e+02 -1.589788e+02 -1.464955e+02 -1.235243e+02 -1.129310e+02 -8.923913e+01 
-7.609480e+01 -4.959428e+01 -3.977180e+01 -9.397247e+00 1.317150e+00 3.714566e+01 4.924684e+01 9.137003e+01 1.039390e+02 1.501830e+02 1.612499e+02 2.119088e+02 2.439630e+02 3.274973e+02 3.901435e+02 3.902667e+02 4.140436e+02 3.982707e+02 7.276560e+02 7.113986e+02 8.754413e+02 9.637882e+02 1.012620e+03 1.027340e+03 9.194584e+02 8.606349e+02 6.607792e+02 5.278684e+02 3.082974e+02 1.603163e+02 -3.046813e+00 -1.210068e+02 -2.137013e+02 -2.811188e+02 -3.119814e+02 -3.440882e+02 -3.257501e+02 -3.287927e+02 -2.745049e+02 -2.450403e+02 -1.752043e+02 -1.328467e+02 -7.707368e+01 -5.694072e+01 -3.977341e+01 -5.375921e+01 -7.854730e+01 -1.062512e+02 -1.525800e+02 -1.706768e+02 -2.215460e+02 -2.246696e+02 -2.661766e+02 -2.451132e+02 -2.459455e+02 -2.203237e+02 -2.110673e+02 -1.870451e+02 -1.762279e+02 -1.532813e+02 -1.427329e+02 -1.197675e+02 -1.098126e+02 -8.571296e+01 
-7.406252e+01 -4.552048e+01 -3.457022e+01 -1.732976e+00 1.045502e+01 4.914856e+01 6.334354e+01 1.084200e+02 1.243710e+02 1.726995e+02 1.890490e+02 2.347641e+02 2.640221e+02 3.147009e+02 3.785224e+02 3.843167e+02 4.728747e+02 4.336107e+02 7.427057e+02 8.128977e+02 9.439693e+02 9.890754e+02 9.739645e+02 9.517013e+02 8.427658e+02 7.845664e+02 6.227691e+02 5.212976e+02 3.430553e+02 2.244447e+02 8.103014e+01 -2.135331e+01 -1.107756e+02 -1.780447e+02 -2.146110e+02 -2.518004e+02 -2.445267e+02 -2.564253e+02 -2.184949e+02 -2.071631e+02 -1.578960e+02 -1.377167e+02 -1.001800e+02 -9.159717e+01 -8.197820e+01 -9.201500e+01 -1.121484e+02 -1.300883e+02 -1.677721e+02 -1.801839e+02 -2.221185e+02 -2.214348e+02 -2.550547e+02 -2.384257e+02 -2.439762e+02 -2.207940e+02 -2.143021e+02 -1.903396e+02 -1.802043e+02 -1.562746e+02 -1.454326e+02 -1.210528e+02 -1.103976e+02 -8.459206e+01 
-7.174654e+01 -4.338881e+01 -3.206363e+01 7.293381e-01 1.403698e+01 5.283862e+01 6.934594e+01 1.148536e+02 1.353019e+02 1.852093e+02 2.096636e+02 2.587020e+02 2.953899e+02 3.446198e+02 4.108626e+02 4.325253e+02 5.359803e+02 5.622759e+02 8.019675e+02 8.481403e+02 9.944868e+02 1.009671e+03 9.971520e+02 9.500801e+02 8.448152e+02 7.736826e+02 6.143697e+02 5.064977e+02 3.319714e+02 2.122402e+02 6.863296e+01 -3.382484e+01 -1.259968e+02 -1.949690e+02 -2.345056e+02 -2.710291e+02 -2.662602e+02 -2.745478e+02 -2.388577e+02 -2.240582e+02 -1.757925e+02 -1.524440e+02 -1.130159e+02 -1.001631e+02 -8.604549e+01 -9.120151e+01 -1.056747e+02 -1.202169e+02 -1.530777e+02 -1.639247e+02 -2.016761e+02 -2.016430e+02 -2.311045e+02 -2.171315e+02 -2.262745e+02 -2.055938e+02 -2.032494e+02 -1.808524e+02 -1.734887e+02 -1.504777e+02 -1.412282e+02 -1.174083e+02 -1.075425e+02 -8.207942e+01 
-7.195305e+01 -4.248696e+01 -3.081073e+01 3.163496e+00 1.658260e+01 5.650477e+01 7.278206e+01 1.189004e+02 1.386755e+02 1.876319e+02 2.110582e+02 2.554119e+02 2.909285e+02 3.287301e+02 3.992547e+02 4.120934e+02 5.342149e+02 5.428506e+02 7.913752e+02 8.619173e+02 9.945881e+02 1.011759e+03 9.755573e+02 9.270604e+02 8.178165e+02 7.529278e+02 6.050515e+02 5.114941e+02 3.516347e+02 2.450172e+02 1.110069e+02 1.616001e+01 -7.231579e+01 -1.395470e+02 -1.798386e+02 -2.188607e+02 -2.180485e+02 -2.324169e+02 -2.033593e+02 -1.980653e+02 -1.584641e+02 -1.455716e+02 -1.147302e+02 -1.088673e+02 -1.002752e+02 -1.070361e+02 -1.228928e+02 -1.358092e+02 -1.675980e+02 -1.766064e+02 -2.125051e+02 -2.108589e+02 -2.388401e+02 -2.248230e+02 -2.337434e+02 -2.129179e+02 -2.099695e+02 -1.869499e+02 -1.787005e+02 -1.548209e+02 -1.447006e+02 -1.199147e+02 -1.093239e+02 -8.283112e+01 
-7.174654e+01 -4.338881e+01 -3.206363e+01 7.293381e-01 1.403698e+01 5.283862e+01 6.934594e+01 1.148536e+02 1.353019e+02 1.852093e+02 2.096636e+02 2.587020e+02 2.953899e+02 3.446198e+02 4.108626e+02 4.325253e+02 5.359803e+02 5.622759e+02 8.019675e+02 8.481403e+02 9.944868e+02 1.009671e+03 9.971520e+02 9.500801e+02 8.448152e+02 7.736826e+02 6.143697e+02 5.064977e+02 3.319714e+02 2.122402e+02 6.863296e+01 -3.382484e+01 -1.259968e+02 -1.949690e+02 -2.345056e+02 -2.710291e+02 -2.662602e+02 -2.745478e+02 -2.388577e+02 -2.240582e+02 -1.757925e+02 -1.524440e+02 -1.130159e+02 -1.001631e+02 -8.604549e+01 -9.120151e+01 -1.056747e+02 -1.202169e+02 -1.530777e+02 -1.639247e+02 -2.016761e+02 -2.016430e+02 -2.311045e+02 -2.171315e+02 -2.262745e+02 -2.055938e+02 -2.032494e+02 -1.808524e+02 -1.734887e+02 -1.504777e+02 -1.412282e+02 -1.174083e+02 -1.075425e+02 -8.207942e+01 