# vtk DataFile Version 2.0
Comment goes here
ASCII

DATASET STRUCTURED_POINTS
DIMENSIONS    64   64   1

ORIGIN    0.000   0.000   0.000
SPACING   0.0781250.078125   1.000

POINT_DATA   4096
SCALARS P double
LOOKUP_TABLE default

-3.448007e+02 -3.237918e+02 -3.098391e+02 -2.908421e+02 -2.773676e+02 -2.606286e+02 -2.477732e+02 -2.335116e+02 -2.214169e+02 -2.098744e+02 -1.987306e+02 -1.902076e+02 -1.802946e+02 -1.751660e+02 -1.668743e+02 -1.655755e+02 -1.593995e+02 -1.623750e+02 -1.588726e+02 -1.664937e+02 -1.662183e+02 -1.786824e+02 -1.821020e+02 -1.993388e+02 -2.067540e+02 -2.283617e+02 -2.398346e+02 -2.650582e+02 -2.803577e+02 -3.081113e+02 -3.266839e+02 -3.556095e+02 -3.765869e+02 -4.051432e+02 -4.273941e+02 -4.539710e+02 -4.761995e+02 -4.992513e+02 -5.201286e+02 -5.383137e+02 -5.566199e+02 -5.689249e+02 -5.836739e+02 -5.895036e+02 -6.000276e+02 -5.992447e+02 -6.052306e+02 -5.981422e+02 -5.996202e+02 -5.869163e+02 -5.842117e+02 -5.668666e+02 -5.605270e+02 -5.396816e+02 -5.303912e+02 -5.072326e+02 -4.957259e+02 -4.713810e+02 -4.583675e+02 -4.338255e+02 -4.199321e+02 -3.960024e+02 -3.817405e+02 -3.590445e+02 
-3.432759e+02 -3.227858e+02 -3.094884e+02 -2.910058e+02 -2.781848e+02 -2.619354e+02 -2.497210e+02 -2.359025e+02 -2.244182e+02 -2.132480e+02 -2.026584e+02 -1.944104e+02 -1.849631e+02 -1.799863e+02 -1.720383e+02 -1.707458e+02 -1.647625e+02 -1.675861e+02 -1.641081e+02 -1.714184e+02 -1.709981e+02 -1.830051e+02 -1.861259e+02 -2.027830e+02 -2.097752e+02 -2.307106e+02 -2.416737e+02 -2.661656e+02 -2.809084e+02 -3.079036e+02 -3.259106e+02 -3.540817e+02 -3.745168e+02 -4.023482e+02 -4.241050e+02 -4.500052e+02 -4.718043e+02 -4.942385e+02 -5.147617e+02 -5.323926e+02 -5.504283e+02 -5.622453e+02 -5.768163e+02 -5.822299e+02 -5.926803e+02 -5.915639e+02 -5.975924e+02 -5.902676e+02 -5.919119e+02 -5.790829e+02 -5.766670e+02 -5.593176e+02 -5.533768e+02 -5.326494e+02 -5.238476e+02 -5.009212e+02 -4.899695e+02 -4.659560e+02 -4.535415e+02 -4.294102e+02 -4.161427e+02 -3.926811e+02 -3.790610e+02 -3.568687e+02 
-3.439119e+02 -3.227408e+02 -3.086930e+02 -2.895697e+02 -2.760197e+02 -2.591643e+02 -2.462302e+02 -2.318389e+02 -2.196393e+02 -2.079368e+02 -1.966434e+02 -1.879237e+02 -1.778069e+02 -1.724538e+02 -1.639092e+02 -1.623840e+02 -1.559269e+02 -1.587165e+02 -1.549384e+02 -1.624640e+02 -1.619591e+02 -1.744643e+02 -1.777407e+02 -1.951868e+02 -2.025802e+02 -2.245752e+02 -2.361738e+02 -2.619503e+02 -2.775361e+02 -3.059775e+02 -3.249920e+02 -3.546942e+02 -3.762415e+02 -4.056047e+02 -4.285034e+02 -4.558502e+02 -4.787382e+02 -5.024538e+02 -5.239321e+02 -5.426137e+02 -5.614020e+02 -5.739934e+02 -5.890650e+02 -5.949529e+02 -6.056241e+02 -6.046799e+02 -6.106445e+02 -6.032072e+02 -6.045205e+02 -5.913294e+02 -5.883531e+02 -5.704415e+02 -5.637654e+02 -5.423337e+02 -5.326842e+02 -5.089711e+02 -4.971193e+02 -4.722893e+02 -4.589716e+02 -4.340338e+02 -4.198925e+02 -3.956589e+02 -3.812091e+02 -3.582901e+02 
-3.414810e+02 -3.206861e+02 -3.072045e+02 -2.884890e+02 -2.755276e+02 -2.590670e+02 -2.467127e+02 -2.326588e+02 -2.209904e+02 -2.095262e+02 -1.986692e+02 -1.900538e+02 -1.802329e+02 -1.748288e+02 -1.664041e+02 -1.646724e+02 -1.581444e+02 -1.605971e+02 -1.565694e+02 -1.636763e+02 -1.627817e+02 -1.748479e+02 -1.776534e+02 -1.946991e+02 -2.016103e+02 -2.232874e+02 -2.344619e+02 -2.600269e+02 -2.753046e+02 -3.036447e+02 -3.225033e+02 -3.522015e+02 -3.737516e+02 -4.031779e+02 -4.262131e+02 -4.536422e+02 -4.767493e+02 -5.005060e+02 -5.222229e+02 -5.408436e+02 -5.598338e+02 -5.722177e+02 -5.874221e+02 -5.929415e+02 -6.036743e+02 -6.022209e+02 -6.081997e+02 -6.001632e+02 -6.014799e+02 -5.876677e+02 -5.847208e+02 -5.662375e+02 -5.596445e+02 -5.377523e+02 -5.282562e+02 -5.042364e+02 -4.926164e+02 -4.676527e+02 -4.546469e+02 -4.297456e+02 -4.159936e+02 -3.919455e+02 -3.779560e+02 -3.553381e+02 
-3.411529e+02 -3.195203e+02 -3.052071e+02 -2.857308e+02 -2.719773e+02 -2.547962e+02 -2.416488e+02 -2.268853e+02 -2.143900e+02 -2.022134e+02 -1.904804e+02 -1.811617e+02 -1.704288e+02 -1.643753e+02 -1.550511e+02 -1.528050e+02 -1.454703e+02 -1.476520e+02 -1.430066e+02 -1.501990e+02 -1.489651e+02 -1.615626e+02 -1.643742e+02 -1.824385e+02 -1.897402e+02 -2.129092e+02 -2.248718e+02 -2.523384e+02 -2.687886e+02 -2.993396e+02 -3.197080e+02 -3.517988e+02 -3.751064e+02 -4.069581e+02 -4.318665e+02 -4.615926e+02 -4.865293e+02 -5.122972e+02 -5.356392e+02 -5.558529e+02 -5.761277e+02 -5.895960e+02 -6.056512e+02 -6.117053e+02 -6.228107e+02 -6.213503e+02 -6.272262e+02 -6.186926e+02 -6.194748e+02 -6.047635e+02 -6.009297e+02 -5.812590e+02 -5.735313e+02 -5.502888e+02 -5.395250e+02 -5.141112e+02 -5.011968e+02 -4.748916e+02 -4.606461e+02 -4.345177e+02 -4.196292e+02 -3.944947e+02 -3.794876e+02 -3.559199e+02 
-3.377055e+02 -3.163500e+02 -3.025363e+02 -2.834060e+02 -2.702072e+02 -2.533701e+02 -2.407813e+02 -2.262909e+02 -2.142934e+02 -2.022556e+02 -1.908867e+02 -1.815226e+02 -1.709509e+02 -1.646441e+02 -1.552309e+02 -1.525402e+02 -1.448594e+02 -1.464707e+02 -1.412635e+02 -1.478683e+02 -1.459414e+02 -1.580590e+02 -1.601582e+02 -1.779578e+02 -1.846488e+02 -2.078314e+02 -2.193979e+02 -2.471693e+02 -2.635242e+02 -2.946445e+02 -3.152603e+02 -3.481282e+02 -3.720088e+02 -4.047594e+02 -4.304861e+02 -4.611137e+02 -4.869807e+02 -5.135089e+02 -5.377376e+02 -5.584275e+02 -5.794089e+02 -5.929641e+02 -6.094646e+02 -6.151768e+02 -6.264556e+02 -6.242599e+02 -6.300850e+02 -6.205213e+02 -6.211080e+02 -6.052083e+02 -6.011173e+02 -5.802465e+02 -5.722694e+02 -5.479456e+02 -5.369924e+02 -5.107133e+02 -4.977060e+02 -4.708050e+02 -4.565865e+02 -4.301415e+02 -4.154114e+02 -3.902131e+02 -3.754950e+02 -3.520659e+02 
-3.362359e+02 -3.139217e+02 -2.992350e+02 -2.792609e+02 -2.652479e+02 -2.476058e+02 -2.341841e+02 -2.188612e+02 -2.059407e+02 -1.929991e+02 -1.805688e+02 -1.702245e+02 -1.584496e+02 -1.511389e+02 -1.404422e+02 -1.368467e+02 -1.279294e+02 -1.289189e+02 -1.226858e+02 -1.291567e+02 -1.265683e+02 -1.392079e+02 -1.411242e+02 -1.601859e+02 -1.672433e+02 -1.924139e+02 -2.049344e+02 -2.353253e+02 -2.532302e+02 -2.874545e+02 -3.101733e+02 -3.464452e+02 -3.728619e+02 -4.090937e+02 -4.375853e+02 -4.715180e+02 -5.001172e+02 -5.295190e+02 -5.561793e+02 -5.790954e+02 -6.019866e+02 -6.169770e+02 -6.347226e+02 -6.410215e+02 -6.528217e+02 -6.503876e+02 -6.560258e+02 -6.454919e+02 -6.452608e+02 -6.278104e+02 -6.224006e+02 -5.995912e+02 -5.899646e+02 -5.635246e+02 -5.507772e+02 -5.224005e+02 -5.076224e+02 -4.787928e+02 -4.629495e+02 -4.348307e+02 -4.186858e+02 -3.920907e+02 -3.761782e+02 -3.516011e+02 
-3.315597e+02 -3.094931e+02 -2.952769e+02 -2.756578e+02 -2.622172e+02 -2.449376e+02 -2.321178e+02 -2.170669e+02 -2.046833e+02 -1.918303e+02 -1.797605e+02 -1.692443e+02 -1.575426e+02 -1.497591e+02 -1.387714e+02 -1.344271e+02 -1.248471e+02 -1.249249e+02 -1.177336e+02 -1.233233e+02 -1.196268e+02 -1.316391e+02 -1.324804e+02 -1.513502e+02 -1.575563e+02 -1.830594e+02 -1.951261e+02 -2.263660e+02 -2.443474e+02 -2.798691e+02 -3.032563e+02 -3.411736e+02 -3.688149e+02 -4.069010e+02 -4.370264e+02 -4.728238e+02 -5.032202e+02 -5.342433e+02 -5.625741e+02 -5.866080e+02 -6.107902e+02 -6.262005e+02 -6.447139e+02 -6.506617e+02 -6.626985e+02 -6.592044e+02 -6.646475e+02 -6.525161e+02 -6.518080e+02 -6.324560e+02 -6.264331e+02 -6.016645e+02 -5.914046e+02 -5.631656e+02 -5.498491e+02 -5.199952e+02 -5.047753e+02 -4.748779e+02 -4.587650e+02 -4.300023e+02 -4.137853e+02 -3.869274e+02 -3.711449e+02 -3.466078e+02 
-3.286505e+02 -3.055794e+02 -2.905225e+02 -2.700536e+02 -2.558560e+02 -2.377542e+02 -2.241341e+02 -2.081724e+02 -1.948188e+02 -1.808754e+02 -1.675623e+02 -1.557357e+02 -1.424776e+02 -1.332118e+02 -1.204282e+02 -1.146038e+02 -1.031927e+02 -1.020917e+02 -9.331090e+01 -9.837793e+01 -9.358244e+01 -1.060226e+02 -1.064205e+02 -1.268100e+02 -1.333197e+02 -1.614019e+02 -1.745814e+02 -2.093068e+02 -2.292598e+02 -2.689656e+02 -2.951713e+02 -3.377285e+02 -3.688909e+02 -4.117689e+02 -4.458144e+02 -4.861816e+02 -5.204815e+02 -5.554574e+02 -5.872481e+02 -6.142842e+02 -6.411446e+02 -6.583980e+02 -6.786090e+02 -6.851713e+02 -6.978617e+02 -6.938033e+02 -6.988970e+02 -6.851699e+02 -6.832293e+02 -6.614812e+02 -6.535361e+02 -6.258669e+02 -6.132555e+02 -5.819377e+02 -5.661313e+02 -5.333255e+02 -5.157360e+02 -4.832367e+02 -4.650490e+02 -4.341437e+02 -4.162231e+02 -3.876859e+02 -3.705633e+02 -3.447399e+02 
-3.224137e+02 -2.996614e+02 -2.850986e+02 -2.650948e+02 -2.515602e+02 -2.339383e+02 -2.210581e+02 -2.054601e+02 -1.927941e+02 -1.789654e+02 -1.661190e+02 -1.540329e+02 -1.408358e+02 -1.308512e+02 -1.175810e+02 -1.105903e+02 -9.812269e+01 -9.557485e+01 -8.529404e+01 -8.896318e+01 -8.246194e+01 -9.394577e+01 -9.271622e+01 -1.128987e+02 -1.181431e+02 -1.468857e+02 -1.594221e+02 -1.956110e+02 -2.157523e+02 -2.575861e+02 -2.849194e+02 -3.301314e+02 -3.633196e+02 -4.092075e+02 -4.459493e+02 -4.893983e+02 -5.266525e+02 -5.643699e+02 -5.988665e+02 -6.278545e+02 -6.567319e+02 -6.748092e+02 -6.961171e+02 -7.022555e+02 -7.151452e+02 -7.095300e+02 -7.141349e+02 -6.980090e+02 -6.951643e+02 -6.705554e+02 -6.615261e+02 -6.309211e+02 -6.172076e+02 -5.832119e+02 -5.663937e+02 -5.314107e+02 -5.129849e+02 -4.789307e+02 -4.601504e+02 -4.283160e+02 -4.100873e+02 -3.811659e+02 -3.640293e+02 -3.382422e+02 
-3.176174e+02 -2.939429e+02 -2.786904e+02 -2.579602e+02 -2.438546e+02 -2.255120e+02 -2.119928e+02 -1.954985e+02 -1.819207e+02 -1.668560e+02 -1.526243e+02 -1.388482e+02 -1.236666e+02 -1.115451e+02 -9.575973e+01 -8.641121e+01 -7.123813e+01 -6.659775e+01 -5.391169e+01 -5.637307e+01 -4.816803e+01 -5.984326e+01 -5.781716e+01 -7.980939e+01 -8.523280e+01 -1.173003e+02 -1.310599e+02 -1.718110e+02 -1.943612e+02 -2.417054e+02 -2.727212e+02 -3.241172e+02 -3.621191e+02 -4.144868e+02 -4.567232e+02 -5.064035e+02 -5.491614e+02 -5.922446e+02 -6.315680e+02 -6.645428e+02 -6.970644e+02 -7.174613e+02 -7.409810e+02 -7.477097e+02 -7.613425e+02 -7.546872e+02 -7.586575e+02 -7.400774e+02 -7.353895e+02 -7.072414e+02 -6.954239e+02 -6.606285e+02 -6.435697e+02 -6.052267e+02 -5.849636e+02 -5.459513e+02 -5.243811e+02 -4.869420e+02 -4.655602e+02 -4.311097e+02 -4.108956e+02 -3.800823e+02 -3.615246e+02 -3.344243e+02 
-3.093472e+02 -2.862001e+02 -2.715313e+02 -2.515099e+02 -2.382529e+02 -2.206406e+02 -2.081308e+02 -1.922257e+02 -1.796547e+02 -1.648550e+02 -1.513792e+02 -1.373384e+02 -1.223441e+02 -1.092426e+02 -9.279430e+01 -8.169247e+01 -6.494061e+01 -5.798743e+01 -4.302090e+01 -4.317489e+01 -3.238249e+01 -4.246516e+01 -3.797639e+01 -5.962918e+01 -6.311502e+01 -9.623789e+01 -1.089580e+02 -1.519291e+02 -1.746754e+02 -2.251212e+02 -2.577699e+02 -3.130061e+02 -3.540684e+02 -4.108885e+02 -4.573000e+02 -5.116929e+02 -5.590694e+02 -6.064620e+02 -6.499648e+02 -6.860602e+02 -7.215522e+02 -7.432925e+02 -7.682116e+02 -7.743255e+02 -7.879086e+02 -7.789072e+02 -7.818210e+02 -7.596604e+02 -7.534067e+02 -7.210515e+02 -7.075170e+02 -6.684768e+02 -6.497395e+02 -6.075973e+02 -5.857930e+02 -5.437818e+02 -5.209111e+02 -4.814252e+02 -4.590846e+02 -4.234987e+02 -4.027293e+02 -3.715341e+02 -3.528361e+02 -3.259067e+02 
-3.020323e+02 -2.782430e+02 -2.632090e+02 -2.427784e+02 -2.293280e+02 -2.112828e+02 -1.985047e+02 -1.818863e+02 -1.686661e+02 -1.526009e+02 -1.377244e+02 -1.216046e+02 -1.041263e+02 -8.800162e+01 -6.797194e+01 -5.314282e+01 -3.231285e+01 -2.172846e+01 -3.133811e+00 -8.765595e-01 1.243388e+01 2.617631e+00 8.325751e+00 -1.553062e+01 -1.900299e+01 -5.647744e+01 -7.039383e+01 -1.192995e+02 -1.448111e+02 -2.023753e+02 -2.397224e+02 -3.030724e+02 -3.507003e+02 -4.162386e+02 -4.703975e+02 -5.333036e+02 -5.884737e+02 -6.431595e+02 -6.933620e+02 -7.347162e+02 -7.750662e+02 -7.996618e+02 -8.273392e+02 -8.339161e+02 -8.482353e+02 -8.374968e+02 -8.393163e+02 -8.135087e+02 -8.045331e+02 -7.670580e+02 -7.494782e+02 -7.044622e+02 -6.809260e+02 -6.326927e+02 -6.060879e+02 -5.586430e+02 -5.316096e+02 -4.878307e+02 -4.622874e+02 -4.236548e+02 -4.006686e+02 -3.675130e+02 -3.474343e+02 -3.193525e+02 
-2.910925e+02 -2.682176e+02 -2.539324e+02 -2.346198e+02 -2.223131e+02 -2.054173e+02 -1.940868e+02 -1.784707e+02 -1.668268e+02 -1.513818e+02 -1.378656e+02 -1.216552e+02 -1.047648e+02 -8.744774e+01 -6.663600e+01 -4.924628e+01 -2.609456e+01 -1.176314e+01 1.029011e+01 1.647482e+01 3.368550e+01 2.663597e+01 3.604003e+01 1.279520e+01 1.230248e+01 -2.685744e+01 -3.900500e+01 -9.117759e+01 -1.166995e+02 -1.784914e+02 -2.179976e+02 -2.865104e+02 -3.385588e+02 -4.103529e+02 -4.708466e+02 -5.407633e+02 -6.031022e+02 -6.644484e+02 -7.210687e+02 -7.672931e+02 -8.119196e+02 -8.385505e+02 -8.677986e+02 -8.733363e+02 -8.869083e+02 -8.725326e+02 -8.722282e+02 -8.410489e+02 -8.294874e+02 -7.858696e+02 -7.657512e+02 -7.146987e+02 -6.888099e+02 -6.353024e+02 -6.065219e+02 -5.551037e+02 -5.262013e+02 -4.799207e+02 -4.529862e+02 -4.131665e+02 -3.893627e+02 -3.560253e+02 -3.357063e+02 -3.081259e+02 
-2.804149e+02 -2.574585e+02 -2.433619e+02 -2.242221e+02 -2.123559e+02 -1.955821e+02 -1.846709e+02 -1.688075e+02 -1.571567e+02 -1.406853e+02 -1.260887e+02 -1.075376e+02 -8.767141e+01 -6.619105e+01 -4.011489e+01 -1.681394e+01 1.275378e+01 3.339048e+01 6.096690e+01 7.169950e+01 9.243694e+01 8.644069e+01 9.739576e+01 7.123031e+01 7.094530e+01 2.583536e+01 1.287010e+01 -4.702005e+01 -7.531503e+01 -1.460381e+02 -1.913448e+02 -2.703088e+02 -3.313802e+02 -4.149534e+02 -4.865980e+02 -5.683313e+02 -6.419004e+02 -7.132837e+02 -7.792250e+02 -8.323467e+02 -8.832973e+02 -9.133019e+02 -9.457675e+02 -9.514384e+02 -9.655357e+02 -9.484237e+02 -9.463503e+02 -9.098836e+02 -8.944069e+02 -8.434649e+02 -8.174681e+02 -7.579118e+02 -7.250168e+02 -6.629031e+02 -6.273266e+02 -5.685872e+02 -5.341798e+02 -4.825899e+02 -4.518226e+02 -4.086812e+02 -3.825754e+02 -3.474839e+02 -3.260392e+02 -2.977646e+02 
-2.659969e+02 -2.445565e+02 -2.314498e+02 -2.140208e+02 -2.036972e+02 -1.886849e+02 -1.798478e+02 -1.656485e+02 -1.564971e+02 -1.413351e+02 -1.292570e+02 -1.111701e+02 -9.287228e+01 -7.023027e+01 -4.340002e+01 -1.653350e+01 1.651915e+01 4.335201e+01 7.626688e+01 9.389100e+01 1.204868e+02 1.194254e+02 1.358157e+02 1.106731e+02 1.148980e+02 6.674834e+01 5.684282e+01 -7.996781e+00 -3.576289e+01 -1.118847e+02 -1.597893e+02 -2.451042e+02 -3.123331e+02 -4.043248e+02 -4.855683e+02 -5.777274e+02 -6.626082e+02 -7.444384e+02 -8.204143e+02 -8.811836e+02 -9.382594e+02 -9.712107e+02 -1.005010e+03 -1.008724e+03 -1.020422e+03 -9.975087e+02 -9.913232e+02 -9.467241e+02 -9.271307e+02 -8.672308e+02 -8.377370e+02 -7.696987e+02 -7.337901e+02 -6.643931e+02 -6.258732e+02 -5.620131e+02 -5.249885e+02 -4.705916e+02 -4.378952e+02 -3.938157e+02 -3.666190e+02 -3.318624e+02 -3.101250e+02 -2.829520e+02 
-2.509031e+02 -2.303067e+02 -2.182068e+02 -2.018520e+02 -1.928932e+02 -1.788991e+02 -1.715980e+02 -1.580555e+02 -1.502140e+02 -1.348273e+02 -1.228305e+02 -1.026531e+02 -8.127021e+01 -5.321118e+01 -1.825291e+01 1.809551e+01 6.199591e+01 9.998658e+01 1.414469e+02 1.675115e+02 1.986306e+02 1.998961e+02 2.175392e+02 1.878116e+02 1.921171e+02 1.351454e+02 1.257149e+02 5.079930e+01 2.129013e+01 -6.530249e+01 -1.199608e+02 -2.182940e+02 -2.981421e+02 -4.062932e+02 -5.041697e+02 -6.132785e+02 -7.148273e+02 -8.107990e+02 -8.998020e+02 -9.694844e+02 -1.034444e+03 -1.070989e+03 -1.108026e+03 -1.111149e+03 -1.122737e+03 -1.095743e+03 -1.086939e+03 -1.034876e+03 -1.009970e+03 -9.396724e+02 -9.016196e+02 -8.214707e+02 -7.750130e+02 -6.931153e+02 -6.447255e+02 -5.709294e+02 -5.266726e+02 -4.659665e+02 -4.289408e+02 -3.816744e+02 -3.524372e+02 -3.166321e+02 -2.943866e+02 -2.674233e+02 
-2.320544e+02 -2.138051e+02 -2.029944e+02 -1.891086e+02 -1.821392e+02 -1.706994e+02 -1.662405e+02 -1.553235e+02 -1.513488e+02 -1.384917e+02 -1.311582e+02 -1.127744e+02 -9.527142e+01 -6.679492e+01 -3.144945e+01 9.280288e+00 5.875744e+01 1.073556e+02 1.573836e+02 1.959640e+02 2.358435e+02 2.461661e+02 2.714724e+02 2.433292e+02 2.541856e+02 1.906520e+02 1.866444e+02 1.036047e+02 7.572271e+01 -1.697662e+01 -7.429670e+01 -1.791032e+02 -2.670301e+02 -3.858706e+02 -4.983928e+02 -6.233524e+02 -7.433589e+02 -8.563667e+02 -9.616188e+02 -1.043581e+03 -1.117340e+03 -1.157897e+03 -1.194926e+03 -1.194084e+03 -1.199575e+03 -1.163083e+03 -1.146461e+03 -1.081989e+03 -1.050810e+03 -9.674330e+02 -9.250657e+02 -8.332744e+02 -7.835754e+02 -6.914400e+02 -6.390743e+02 -5.588507e+02 -5.108426e+02 -4.474472e+02 -4.077834e+02 -3.604047e+02 -3.298291e+02 -2.953712e+02 -2.728854e+02 -2.479752e+02 
-2.113769e+02 -1.953119e+02 -1.865584e+02 -1.749604e+02 -1.705029e+02 -1.613294e+02 -1.599789e+02 -1.512252e+02 -1.509730e+02 -1.398027e+02 -1.357561e+02 -1.170689e+02 -9.823722e+01 -6.368754e+01 -1.487857e+01 4.136974e+01 1.113122e+02 1.803931e+02 2.437543e+02 2.981169e+02 3.427767e+02 3.575172e+02 3.816874e+02 3.446122e+02 3.538439e+02 2.756159e+02 2.759499e+02 1.795711e+02 1.536872e+02 5.105071e+01 -1.322933e+01 -1.331174e+02 -2.392058e+02 -3.809903e+02 -5.196541e+02 -6.702961e+02 -8.160867e+02 -9.497350e+02 -1.073199e+03 -1.166152e+03 -1.248810e+03 -1.292007e+03 -1.330943e+03 -1.328034e+03 -1.331888e+03 -1.289813e+03 -1.269868e+03 -1.195267e+03 -1.157895e+03 -1.059807e+03 -1.004923e+03 -8.960982e+02 -8.296672e+02 -7.182177e+02 -6.509596e+02 -5.571142e+02 -4.998662e+02 -4.296379e+02 -3.857395e+02 -3.362657e+02 -3.046482e+02 -2.707109e+02 -2.489142e+02 -2.257372e+02 
-1.871213e+02 -1.744226e+02 -1.672742e+02 -1.589780e+02 -1.568574e+02 -1.511187e+02 -1.533082e+02 -1.484542e+02 -1.538414e+02 -1.473052e+02 -1.518397e+02 -1.378847e+02 -1.286229e+02 -9.589546e+01 -4.768048e+01 1.158468e+01 9.161297e+01 1.801494e+02 2.581637e+02 3.360733e+02 3.937096e+02 4.256441e+02 4.596860e+02 4.254555e+02 4.432442e+02 3.483183e+02 3.591034e+02 2.477413e+02 2.249725e+02 1.178022e+02 5.178504e+01 -7.096204e+01 -1.860383e+02 -3.399275e+02 -5.011358e+02 -6.770448e+02 -8.544436e+02 -1.017563e+03 -1.168602e+03 -1.281826e+03 -1.377163e+03 -1.425025e+03 -1.459796e+03 -1.448420e+03 -1.438082e+03 -1.380185e+03 -1.345445e+03 -1.251917e+03 -1.205724e+03 -1.088320e+03 -1.029205e+03 -9.056431e+02 -8.376660e+02 -7.107113e+02 -6.374483e+02 -5.358862e+02 -4.727816e+02 -4.010692e+02 -3.535841e+02 -3.058969e+02 -2.728664e+02 -2.420208e+02 -2.202840e+02 -2.005209e+02 
-1.598780e+02 -1.510691e+02 -1.471011e+02 -1.424786e+02 -1.439477e+02 -1.419133e+02 -1.489359e+02 -1.483968e+02 -1.613592e+02 -1.605629e+02 -1.764368e+02 -1.684694e+02 -1.671389e+02 -1.305102e+02 -5.762191e+01 2.781305e+01 1.528105e+02 2.811381e+02 3.787603e+02 4.866529e+02 5.467001e+02 5.872054e+02 6.123322e+02 5.572044e+02 5.651211e+02 4.425391e+02 4.697329e+02 3.395640e+02 3.289573e+02 2.207022e+02 1.494698e+02 1.205256e+01 -1.301524e+02 -3.189709e+02 -5.241873e+02 -7.421757e+02 -9.615821e+02 -1.156276e+03 -1.332334e+03 -1.457212e+03 -1.560009e+03 -1.605818e+03 -1.637592e+03 -1.621366e+03 -1.605921e+03 -1.541885e+03 -1.504242e+03 -1.397911e+03 -1.348068e+03 -1.209382e+03 -1.131653e+03 -9.861464e+02 -8.894106e+02 -7.285238e+02 -6.315613e+02 -5.115015e+02 -4.376960e+02 -3.605572e+02 -3.106606e+02 -2.640226e+02 -2.323613e+02 -2.049760e+02 -1.859634e+02 -1.702126e+02 
-1.295292e+02 -1.251474e+02 -1.230549e+02 -1.224357e+02 -1.262282e+02 -1.283552e+02 -1.390272e+02 -1.439193e+02 -1.642726e+02 -1.722162e+02 -2.040362e+02 -2.084136e+02 -2.317843e+02 -1.993381e+02 -1.279764e+02 -5.265142e+01 9.436248e+01 2.640211e+02 3.888724e+02 5.420268e+02 6.208157e+02 6.946639e+02 7.299830e+02 6.843480e+02 6.993751e+02 5.285831e+02 5.806842e+02 4.194742e+02 4.107147e+02 3.080257e+02 2.380096e+02 1.119726e+02 -3.413542e+01 -2.327692e+02 -4.731383e+02 -7.347466e+02 -1.011865e+03 -1.261476e+03 -1.486844e+03 -1.645885e+03 -1.766742e+03 -1.815069e+03 -1.831523e+03 -1.796454e+03 -1.749284e+03 -1.658916e+03 -1.592979e+03 -1.458552e+03 -1.398853e+03 -1.229635e+03 -1.149662e+03 -9.918849e+02 -9.032342e+02 -7.135425e+02 -6.036597e+02 -4.757108e+02 -3.914483e+02 -3.166989e+02 -2.622007e+02 -2.211057e+02 -1.885926e+02 -1.669911e+02 -1.488883e+02 -1.382780e+02 
-9.559080e+01 -9.692785e+01 -9.889634e+01 -1.031783e+02 -1.109623e+02 -1.179352e+02 -1.342066e+02 -1.457300e+02 -1.781660e+02 -1.999169e+02 -2.618829e+02 -2.935066e+02 -3.620705e+02 -3.342245e+02 -2.122311e+02 -9.232212e+01 1.733349e+02 4.273835e+02 5.695645e+02 7.793184e+02 8.522416e+02 9.472488e+02 9.556716e+02 8.542890e+02 8.234796e+02 5.969665e+02 7.080557e+02 5.130875e+02 5.396669e+02 4.757290e+02 4.060363e+02 2.716557e+02 8.379549e+01 -1.752735e+02 -4.966434e+02 -8.342602e+02 -1.184436e+03 -1.485584e+03 -1.743092e+03 -1.907899e+03 -2.027173e+03 -2.057426e+03 -2.057183e+03 -2.012500e+03 -1.952172e+03 -1.860237e+03 -1.794637e+03 -1.646449e+03 -1.599922e+03 -1.395113e+03 -1.285508e+03 -1.112714e+03 -9.698219e+02 -7.049236e+02 -5.544445e+02 -4.044519e+02 -3.120528e+02 -2.393169e+02 -1.884095e+02 -1.553793e+02 -1.289526e+02 -1.155537e+02 -1.031877e+02 -9.953836e+01 
-5.940472e+01 -6.597657e+01 -6.999498e+01 -7.851667e+01 -8.795447e+01 -9.915052e+01 -1.176726e+02 -1.358940e+02 -1.757876e+02 -2.150552e+02 -3.055966e+02 -3.735435e+02 -5.066902e+02 -4.634480e+02 -3.423646e+02 -3.070899e+02 1.333354e+01 3.816409e+02 5.783248e+02 8.719380e+02 9.701079e+02 1.126155e+03 1.139532e+03 1.089511e+03 1.042538e+03 6.588336e+02 8.532346e+02 5.904753e+02 5.954164e+02 5.780015e+02 5.167556e+02 4.343481e+02 2.729380e+02 1.765577e+01 -3.624258e+02 -7.866318e+02 -1.253290e+03 -1.667397e+03 -2.018379e+03 -2.241156e+03 -2.384098e+03 -2.402729e+03 -2.357725e+03 -2.268510e+03 -2.138339e+03 -2.003303e+03 -1.880522e+03 -1.695501e+03 -1.649567e+03 -1.381899e+03 -1.268173e+03 -1.122792e+03 -1.035692e+03 -6.948930e+02 -4.976933e+02 -3.455549e+02 -2.326776e+02 -1.721198e+02 -1.171190e+02 -9.601804e+01 -7.112732e+01 -6.702394e+01 -5.746229e+01 -6.074664e+01 
-2.061051e+01 -3.435510e+01 -4.272399e+01 -5.677640e+01 -6.926170e+01 -8.534755e+01 -1.069538e+02 -1.319593e+02 -1.822371e+02 -2.425976e+02 -3.854951e+02 -5.196365e+02 -8.287937e+02 -8.321727e+02 -6.363403e+02 -5.136151e+02 1.592943e+02 7.348372e+02 8.671057e+02 1.251619e+03 1.334727e+03 1.566528e+03 1.534326e+03 1.315899e+03 1.062351e+03 5.722163e+02 9.985246e+02 6.328921e+02 7.112470e+02 8.925779e+02 8.432854e+02 7.613657e+02 5.382828e+02 1.572874e+02 -3.936937e+02 -9.740387e+02 -1.584282e+03 -2.095774e+03 -2.482015e+03 -2.683760e+03 -2.792036e+03 -2.739647e+03 -2.639457e+03 -2.529353e+03 -2.364678e+03 -2.249823e+03 -2.129180e+03 -1.935638e+03 -1.977419e+03 -1.618039e+03 -1.440170e+03 -1.373216e+03 -1.185934e+03 -6.207479e+02 -3.399935e+02 -1.798925e+02 -7.767299e+01 -4.207859e+01 -4.651632e+00 -4.027865e+00 7.469379e+00 -2.666194e+00 -2.396892e+00 -1.559379e+01 
1.919782e+01 6.275220e-02 -1.046125e+01 -2.821059e+01 -4.110968e+01 -6.002133e+01 -8.017363e+01 -1.095991e+02 -1.580888e+02 -2.383625e+02 -3.880722e+02 -6.014866e+02 -8.859359e+02 -6.422357e+02 -4.652558e+02 -8.973712e+02 -2.780505e+02 6.325625e+02 9.327238e+02 1.427700e+03 1.535156e+03 1.833598e+03 1.812779e+03 1.896239e+03 1.534390e+03 4.044232e+02 1.150920e+03 7.171463e+02 5.790482e+02 8.427708e+02 8.080335e+02 8.773198e+02 8.634614e+02 7.333154e+02 4.452361e+02 2.493455e+02 1.202608e+02 1.233831e+02 2.582780e+02 5.047587e+02 6.880397e+02 9.173955e+02 1.030456e+03 9.960456e+02 9.965818e+02 7.406925e+02 5.919365e+02 3.730349e+02 -7.762079e+01 4.838673e+01 -2.404489e+02 -6.590081e+02 -1.186813e+03 -7.515390e+02 -2.058846e+02 -7.702857e+01 5.668991e+01 6.057370e+01 9.329343e+01 7.414695e+01 7.780166e+01 5.528530e+01 4.946207e+01 2.821052e+01 
5.793781e+01 3.120952e+01 1.663616e+01 -6.526388e+00 -2.073972e+01 -4.346873e+01 -6.022103e+01 -9.133461e+01 -1.225808e+02 -1.983475e+02 -2.746383e+02 -4.529508e+02 -4.114496e+02 1.142135e+02 5.719757e+01 -7.691447e+02 3.922372e+02 1.710511e+03 1.453943e+03 1.913021e+03 2.034241e+03 2.728821e+03 2.614296e+03 1.552185e+03 1.593287e+03 5.742111e+02 9.058119e+02 7.184287e+02 1.844790e+02 9.492233e+01 7.260810e+01 4.484974e+02 9.435421e+02 1.567594e+03 2.093901e+03 2.679060e+03 3.220896e+03 3.709046e+03 4.137286e+03 4.522552e+03 4.756923e+03 4.966945e+03 5.046728e+03 4.987673e+03 4.940818e+03 4.626989e+03 4.396892e+03 3.995522e+03 3.454664e+03 3.223282e+03 2.471454e+03 1.818053e+03 4.200036e+02 3.370467e+01 3.431323e+02 2.610200e+02 3.093581e+02 2.395045e+02 2.337013e+02 1.812033e+02 1.646846e+02 1.239494e+02 1.064960e+02 7.396721e+01 
9.640028e+01 6.503730e+01 4.818003e+01 2.242396e+01 8.333908e+00 -1.475703e+01 -2.824478e+01 -5.433158e+01 -7.440465e+01 -1.214011e+02 -1.575428e+02 -2.179618e+02 -1.146036e+02 3.498156e+02 2.790213e+02 2.476352e+02 1.652872e+03 2.250828e+03 1.812857e+03 2.295856e+03 2.242547e+03 2.889678e+03 2.779629e+03 2.874160e+02 4.620203e+02 6.105008e+02 5.433510e+02 6.487427e+02 2.673797e+02 7.833461e+01 1.134932e+02 5.263889e+02 1.056618e+03 1.756815e+03 2.362781e+03 2.941906e+03 3.408715e+03 3.795836e+03 4.086640e+03 4.342773e+03 4.495498e+03 4.633940e+03 4.684153e+03 4.656948e+03 4.605198e+03 4.419504e+03 4.221659e+03 3.954700e+03 3.581169e+03 3.313681e+03 2.714247e+03 2.316503e+03 1.273690e+03 8.022049e+02 7.300827e+02 5.548305e+02 4.972347e+02 3.893649e+02 3.447466e+02 2.720388e+02 2.373892e+02 1.846239e+02 1.575706e+02 1.175736e+02 
1.276536e+02 8.973483e+01 6.925167e+01 3.856547e+01 2.251015e+01 -4.709686e+00 -1.891256e+01 -4.842148e+01 -6.783579e+01 -1.122072e+02 -1.516854e+02 -2.020234e+02 -2.376183e+02 -1.072229e+02 -2.993816e+02 -5.136553e+02 -6.079545e+02 5.033231e+02 1.521579e+03 1.928449e+03 1.934421e+03 8.244834e+02 7.136269e+02 -9.940781e+01 6.321998e+01 4.424621e+02 5.161911e+02 6.087310e+02 4.779723e+02 5.028537e+02 6.056287e+02 9.640556e+02 1.364002e+03 1.888599e+03 2.333839e+03 2.787913e+03 3.157709e+03 3.506980e+03 3.785385e+03 4.046383e+03 4.216559e+03 4.355817e+03 4.409911e+03 4.389586e+03 4.322819e+03 4.159487e+03 3.946808e+03 3.709693e+03 3.320782e+03 3.078113e+03 2.542864e+03 2.218705e+03 1.520499e+03 1.182400e+03 9.741748e+02 7.711887e+02 6.598628e+02 5.248460e+02 4.517221e+02 3.588219e+02 3.076204e+02 2.411190e+02 2.041716e+02 1.548534e+02 
1.580332e+02 1.170075e+02 9.450256e+01 6.206936e+01 4.591514e+01 1.796658e+01 5.538994e+00 -2.337328e+01 -3.739371e+01 -7.858491e+01 -1.063288e+02 -1.709109e+02 -2.186803e+02 -2.918756e+02 -4.631527e+02 -1.099202e+03 -1.447221e+03 5.164419e+01 1.788418e+03 2.606635e+03 2.625824e+03 9.691522e+02 2.418655e+02 2.170139e+02 4.853711e+02 5.364358e+02 5.938720e+02 6.791767e+02 6.550660e+02 7.518271e+02 8.853249e+02 1.199797e+03 1.536834e+03 1.988230e+03 2.389944e+03 2.817235e+03 3.166649e+03 3.497632e+03 3.744448e+03 3.968637e+03 4.106428e+03 4.218330e+03 4.251251e+03 4.238982e+03 4.162020e+03 4.035552e+03 3.832080e+03 3.627550e+03 3.287666e+03 3.040276e+03 2.570806e+03 2.279891e+03 1.740845e+03 1.441092e+03 1.165373e+03 9.512730e+02 7.886365e+02 6.392390e+02 5.366293e+02 4.322334e+02 3.646744e+02 2.902492e+02 2.443366e+02 1.899259e+02 
1.755180e+02 1.301338e+02 1.051955e+02 6.927235e+01 5.132444e+01 2.038396e+01 6.505953e+00 -2.462526e+01 -3.909153e+01 -7.909948e+01 -1.035591e+02 -1.636089e+02 -2.048453e+02 -2.954270e+02 -3.571815e+02 -7.021473e+02 -6.471190e+02 -2.202086e+02 1.161110e+03 2.120386e+03 1.882255e+03 1.358404e+03 7.592390e+02 3.509470e+02 5.463913e+02 5.270726e+02 6.257981e+02 6.950342e+02 7.506390e+02 8.871954e+02 1.045800e+03 1.338057e+03 1.631933e+03 2.017889e+03 2.355318e+03 2.726643e+03 3.030014e+03 3.335123e+03 3.567484e+03 3.786968e+03 3.926788e+03 4.039988e+03 4.074001e+03 4.067309e+03 3.985632e+03 3.870916e+03 3.662968e+03 3.475411e+03 3.141015e+03 2.914561e+03 2.489022e+03 2.229347e+03 1.785777e+03 1.527656e+03 1.245830e+03 1.038793e+03 8.613956e+02 7.065591e+02 5.921833e+02 4.796347e+02 4.039815e+02 3.223013e+02 2.710443e+02 2.109586e+02 
1.920725e+02 1.457608e+02 1.198578e+02 8.353216e+01 6.572929e+01 3.447604e+01 2.158189e+01 -1.027835e+01 -2.259565e+01 -6.428533e+01 -8.408211e+01 -1.490607e+02 -1.824524e+02 -2.793782e+02 -3.117519e+02 -4.558816e+02 -3.496970e+02 -2.326131e+01 1.020882e+03 1.501875e+03 1.216836e+03 9.789899e+02 8.261511e+02 5.966138e+02 6.741178e+02 6.340878e+02 7.026332e+02 7.677213e+02 8.368293e+02 9.860660e+02 1.149729e+03 1.431236e+03 1.710911e+03 2.078975e+03 2.405818e+03 2.769248e+03 3.066060e+03 3.363612e+03 3.583836e+03 3.789510e+03 3.914640e+03 4.017224e+03 4.040706e+03 4.035827e+03 3.951310e+03 3.848397e+03 3.648963e+03 3.471437e+03 3.160286e+03 2.933942e+03 2.538820e+03 2.283569e+03 1.877634e+03 1.625319e+03 1.331875e+03 1.121843e+03 9.250456e+02 7.647855e+02 6.356127e+02 5.183600e+02 4.334439e+02 3.485752e+02 2.920849e+02 2.301432e+02 
1.925170e+02 1.445278e+02 1.179315e+02 8.011585e+01 6.140247e+01 2.899586e+01 1.516852e+01 -1.696760e+01 -2.938776e+01 -6.911169e+01 -8.529853e+01 -1.449399e+02 -1.628700e+02 -2.530259e+02 -2.302004e+02 -3.463654e+02 -1.110671e+02 2.178597e+02 1.072713e+03 1.559503e+03 1.434091e+03 1.224550e+03 8.986648e+02 6.298137e+02 6.747570e+02 6.105322e+02 6.935013e+02 7.491517e+02 8.398784e+02 9.916142e+02 1.162985e+03 1.437518e+03 1.706831e+03 2.056568e+03 2.363604e+03 2.708352e+03 2.989650e+03 3.278275e+03 3.495133e+03 3.701788e+03 3.831151e+03 3.937536e+03 3.964814e+03 3.962291e+03 3.877250e+03 3.776119e+03 3.572500e+03 3.399587e+03 3.084813e+03 2.867914e+03 2.479702e+03 2.236508e+03 1.847887e+03 1.608771e+03 1.322320e+03 1.118747e+03 9.256084e+02 7.669262e+02 6.397371e+02 5.216693e+02 4.375974e+02 3.510820e+02 2.946888e+02 2.309655e+02 