# vtk DataFile Version 2.0
Comment goes here
ASCII

DATASET STRUCTURED_POINTS
DIMENSIONS    64   64   1

ORIGIN    0.000   0.000   0.000
SPACING   0.0781250.078125   1.000

POINT_DATA   4096
VECTORS u double

-0.371374 0.000000 1.000000 -0.401837 0.000000 1.000000 -0.433883 0.000000 1.000000 -0.460631 0.000000 1.000000 -0.487191 0.000000 1.000000 -0.507245 0.000000 1.000000 -0.524828 0.000000 1.000000 -0.534808 0.000000 1.000000 -0.539668 0.000000 1.000000 -0.536238 0.000000 1.000000 -0.524961 -0.000000 1.000000 -0.505476 -0.000000 1.000000 -0.475770 -0.000000 1.000000 -0.439028 -0.000000 1.000000 -0.390543 -0.000000 1.000000 -0.337445 -0.000000 1.000000 -0.272365 -0.000000 1.000000 -0.206219 -0.000000 1.000000 -0.129342 -0.000000 1.000000 -0.055621 -0.000000 1.000000 0.026224 -0.000000 1.000000 0.100677 -0.000000 1.000000 0.179753 -0.000000 1.000000 0.247886 -0.000000 1.000000 0.316914 -0.000000 1.000000 0.372673 -0.000000 1.000000 0.426052 -0.000000 1.000000 0.465320 -0.000000 1.000000 0.499886 -0.000000 1.000000 0.520960 -0.000000 1.000000 0.536175 -0.000000 1.000000 0.539737 -0.000000 1.000000 0.537368 -0.000000 1.000000 0.526041 -0.000000 1.000000 0.509491 -0.000000 1.000000 0.487121 -0.000000 1.000000 0.460619 -0.000000 1.000000 0.431477 -0.000000 1.000000 0.399287 -0.000000 1.000000 0.367312 -0.000000 1.000000 0.333085 -0.000000 1.000000 0.301326 -0.000000 1.000000 0.267676 -0.000000 1.000000 0.237970 -0.000000 1.000000 0.206310 -0.000000 1.000000 0.179261 -0.000000 1.000000 0.149882 -0.000000 1.000000 0.125086 -0.000000 1.000000 0.097442 -0.000000 1.000000 0.073881 -0.000000 1.000000 0.046968 -0.000000 1.000000 0.023445 -0.000000 1.000000 -0.003826 -0.000000 1.000000 -0.028348 -0.000000 1.000000 -0.056879 -0.000000 1.000000 -0.083098 -0.000000 1.000000 -0.113460 -0.000000 1.000000 -0.141681 -0.000000 1.000000 -0.174055 -0.000000 1.000000 -0.204183 -0.000000 1.000000 -0.238310 -0.000000 1.000000 -0.269813 0.000000 1.000000 -0.304908 -0.000000 1.000000 -0.336729 0.000000 1.000000 
-0.370796 0.032554 1.000000 -0.402103 0.031254 1.000000 -0.435042 0.029397 1.000000 -0.462730 0.026654 1.000000 -0.490285 0.023307 1.000000 -0.511347 0.018818 1.000000 -0.529990 0.013782 1.000000 -0.540998 0.007420 1.000000 -0.546911 0.000715 1.000000 -0.544446 -0.007353 1.000000 -0.534112 -0.015381 1.000000 -0.515428 -0.024596 1.000000 -0.486432 -0.033224 1.000000 -0.450227 -0.042614 1.000000 -0.402112 -0.050791 1.000000 -0.349211 -0.059089 1.000000 -0.284100 -0.065613 1.000000 -0.217786 -0.071512 1.000000 -0.140477 -0.075299 1.000000 -0.066247 -0.077783 1.000000 0.016364 -0.078149 1.000000 0.091601 -0.076764 1.000000 0.171680 -0.073604 1.000000 0.240785 -0.068581 1.000000 0.310949 -0.062394 1.000000 0.367780 -0.054569 1.000000 0.422340 -0.046324 1.000000 0.462700 -0.036917 1.000000 0.498426 -0.027820 1.000000 0.520546 -0.018144 1.000000 0.536857 -0.009389 1.000000 0.541371 -0.000597 1.000000 0.539996 0.006848 1.000000 0.529494 0.013939 1.000000 0.513807 0.019460 1.000000 0.492123 0.024436 1.000000 0.466330 0.027822 1.000000 0.437733 0.030666 1.000000 0.406081 0.032082 1.000000 0.374525 0.033101 1.000000 0.340662 0.032993 1.000000 0.309212 0.032705 1.000000 0.275759 0.031678 1.000000 0.246268 0.030683 1.000000 0.214653 0.029355 1.000000 0.187731 0.028214 1.000000 0.158266 0.027087 1.000000 0.133503 0.026220 1.000000 0.105659 0.025602 1.000000 0.082025 0.025237 1.000000 0.054816 0.025218 1.000000 0.031104 0.025397 1.000000 0.003458 0.025897 1.000000 -0.021366 0.026526 1.000000 -0.050334 0.027375 1.000000 -0.076958 0.028290 1.000000 -0.107808 0.029291 1.000000 -0.136522 0.030298 1.000000 -0.169434 0.031251 1.000000 -0.200136 0.032128 1.000000 -0.234864 0.032815 1.000000 -0.267023 0.033299 1.000000 -0.302800 0.033458 1.000000 -0.335369 0.033233 1.000000 
-0.373406 0.066735 1.000000 -0.405053 0.064247 1.000000 -0.438550 0.060626 1.000000 -0.466798 0.055242 1.000000 -0.495115 0.048618 1.000000 -0.516871 0.039706 1.000000 -0.536341 0.029651 1.000000 -0.548004 0.016920 1.000000 -0.554584 0.003449 1.000000 -0.552490 -0.012799 1.000000 -0.542371 -0.029018 1.000000 -0.523496 -0.047680 1.000000 -0.493971 -0.065201 1.000000 -0.456785 -0.084320 1.000000 -0.407211 -0.101015 1.000000 -0.352464 -0.118012 1.000000 -0.284989 -0.131426 1.000000 -0.216111 -0.143623 1.000000 -0.135824 -0.151538 1.000000 -0.058689 -0.156841 1.000000 0.027016 -0.157848 1.000000 0.104984 -0.155316 1.000000 0.187687 -0.149184 1.000000 0.258834 -0.139270 1.000000 0.330652 -0.126995 1.000000 0.388457 -0.111390 1.000000 0.443408 -0.094920 1.000000 0.483519 -0.076086 1.000000 0.518347 -0.057847 1.000000 0.539076 -0.038431 1.000000 0.553408 -0.020824 1.000000 0.555662 -0.003139 1.000000 0.551595 0.011877 1.000000 0.538350 0.026188 1.000000 0.519693 0.037371 1.000000 0.495198 0.047477 1.000000 0.466575 0.054390 1.000000 0.435471 0.060249 1.000000 0.401466 0.063208 1.000000 0.367979 0.065419 1.000000 0.332456 0.065314 1.000000 0.299788 0.064903 1.000000 0.265443 0.062944 1.000000 0.235447 0.061106 1.000000 0.203653 0.058537 1.000000 0.176819 0.056387 1.000000 0.147727 0.054228 1.000000 0.123453 0.052607 1.000000 0.096326 0.051478 1.000000 0.073378 0.050844 1.000000 0.047023 0.050921 1.000000 0.024033 0.051358 1.000000 -0.002776 0.052471 1.000000 -0.026939 0.053792 1.000000 -0.055175 0.055591 1.000000 -0.081235 0.057473 1.000000 -0.111501 0.059564 1.000000 -0.139767 0.061627 1.000000 -0.172269 0.063615 1.000000 -0.202663 0.065429 1.000000 -0.237182 0.066887 1.000000 -0.269213 0.067936 1.000000 -0.305020 0.068346 1.000000 -0.337684 0.067995 1.000000 
-0.374654 0.099923 1.000000 -0.408336 0.096398 1.000000 -0.444190 0.091143 1.000000 -0.474904 0.083219 1.000000 -0.506014 0.073380 1.000000 -0.530538 0.060045 1.000000 -0.553032 0.044914 1.000000 -0.567491 0.025662 1.000000 -0.576953 0.005201 1.000000 -0.577266 -0.019566 1.000000 -0.569369 -0.044375 1.000000 -0.552010 -0.072995 1.000000 -0.523484 -0.099935 1.000000 -0.486464 -0.129374 1.000000 -0.436232 -0.155113 1.000000 -0.380058 -0.181311 1.000000 -0.310152 -0.201965 1.000000 -0.238348 -0.220677 1.000000 -0.154156 -0.232722 1.000000 -0.073033 -0.240622 1.000000 0.017394 -0.241822 1.000000 0.099745 -0.237435 1.000000 0.187178 -0.227454 1.000000 0.262397 -0.211546 1.000000 0.338223 -0.192016 1.000000 0.399222 -0.167325 1.000000 0.456986 -0.141386 1.000000 0.499094 -0.111856 1.000000 0.535389 -0.083378 1.000000 0.556867 -0.053205 1.000000 0.571445 -0.025974 1.000000 0.573373 0.001216 1.000000 0.568634 0.024160 1.000000 0.554312 0.045841 1.000000 0.534439 0.062611 1.000000 0.508506 0.077554 1.000000 0.478487 0.087549 1.000000 0.445960 0.095775 1.000000 0.410685 0.099574 1.000000 0.376090 0.102111 1.000000 0.339630 0.101185 1.000000 0.306350 0.099717 1.000000 0.271496 0.096018 1.000000 0.241422 0.092474 1.000000 0.209524 0.087983 1.000000 0.183042 0.084139 1.000000 0.154138 0.080453 1.000000 0.130437 0.077621 1.000000 0.103615 0.075677 1.000000 0.081222 0.074540 1.000000 0.055118 0.074563 1.000000 0.032475 0.075196 1.000000 0.005742 0.076869 1.000000 -0.018373 0.078926 1.000000 -0.046761 0.081672 1.000000 -0.073078 0.084616 1.000000 -0.103738 0.087824 1.000000 -0.132549 0.091065 1.000000 -0.165707 0.094147 1.000000 -0.196941 0.097041 1.000000 -0.232436 0.099365 1.000000 -0.265647 0.101137 1.000000 -0.302830 0.101929 1.000000 -0.337078 0.101619 1.000000 
-0.378797 0.137992 1.000000 -0.414034 0.133783 1.000000 -0.451970 0.127195 1.000000 -0.484848 0.117067 1.000000 -0.518629 0.104251 1.000000 -0.545736 0.086724 1.000000 -0.571186 0.066604 1.000000 -0.588244 0.040841 1.000000 -0.600399 0.013224 1.000000 -0.602709 -0.020383 1.000000 -0.596486 -0.054275 1.000000 -0.579778 -0.093565 1.000000 -0.551095 -0.130747 1.000000 -0.512724 -0.171573 1.000000 -0.459916 -0.207421 1.000000 -0.400094 -0.244092 1.000000 -0.325140 -0.273136 1.000000 -0.247666 -0.299619 1.000000 -0.156585 -0.316853 1.000000 -0.068633 -0.328391 1.000000 0.029321 -0.330626 1.000000 0.118426 -0.325100 1.000000 0.212601 -0.311837 1.000000 0.293242 -0.290315 1.000000 0.373790 -0.263820 1.000000 0.437953 -0.230154 1.000000 0.497698 -0.194792 1.000000 0.540310 -0.154489 1.000000 0.575754 -0.115619 1.000000 0.595220 -0.074486 1.000000 0.606566 -0.037330 1.000000 0.604540 -0.000328 1.000000 0.594981 0.030938 1.000000 0.575587 0.060384 1.000000 0.550226 0.083177 1.000000 0.518994 0.103429 1.000000 0.483694 0.116936 1.000000 0.446439 0.128050 1.000000 0.406791 0.133077 1.000000 0.368625 0.136475 1.000000 0.329143 0.135054 1.000000 0.293751 0.133038 1.000000 0.257379 0.127872 1.000000 0.226644 0.123077 1.000000 0.194604 0.116916 1.000000 0.168633 0.111773 1.000000 0.140616 0.106833 1.000000 0.118150 0.103130 1.000000 0.092786 0.100693 1.000000 0.071873 0.099341 1.000000 0.047355 0.099668 1.000000 0.026077 0.100733 1.000000 0.000749 0.103318 1.000000 -0.022295 0.106295 1.000000 -0.049608 0.110297 1.000000 -0.075182 0.114451 1.000000 -0.105136 0.119034 1.000000 -0.133522 0.123597 1.000000 -0.166372 0.128007 1.000000 -0.197531 0.132158 1.000000 -0.233181 0.135593 1.000000 -0.266759 0.138331 1.000000 -0.304665 0.139778 1.000000 -0.339835 0.139819 1.000000 
-0.380932 0.174122 1.000000 -0.419438 0.169571 1.000000 -0.461285 0.161957 1.000000 -0.498315 0.149879 1.000000 -0.536926 0.134268 1.000000 -0.568865 0.112601 1.000000 -0.599710 0.087422 1.000000 -0.621781 0.054875 1.000000 -0.639193 0.019667 1.000000 -0.645877 -0.023479 1.000000 -0.643736 -0.067307 1.000000 -0.629723 -0.118386 1.000000 -0.602764 -0.166989 1.000000 -0.564430 -0.220553 1.000000 -0.510045 -0.267742 1.000000 -0.447072 -0.316087 1.000000 -0.366980 -0.354393 1.000000 -0.283382 -0.389231 1.000000 -0.184273 -0.411755 1.000000 -0.088196 -0.426529 1.000000 0.019235 -0.428881 1.000000 0.117009 -0.420714 1.000000 0.220351 -0.402271 1.000000 0.308705 -0.372735 1.000000 0.396581 -0.336726 1.000000 0.466355 -0.291234 1.000000 0.530675 -0.243743 1.000000 0.576222 -0.189912 1.000000 0.613299 -0.138288 1.000000 0.633033 -0.084017 1.000000 0.643471 -0.035294 1.000000 0.639520 0.012802 1.000000 0.627255 0.053114 1.000000 0.604504 0.090595 1.000000 0.575495 0.119205 1.000000 0.540342 0.144085 1.000000 0.501259 0.160104 1.000000 0.460329 0.172678 1.000000 0.417418 0.177388 1.000000 0.376457 0.179759 1.000000 0.334666 0.176059 1.000000 0.297727 0.171482 1.000000 0.260182 0.163125 1.000000 0.229207 0.155249 1.000000 0.197059 0.145994 1.000000 0.171905 0.138127 1.000000 0.144555 0.130936 1.000000 0.123478 0.125452 1.000000 0.099134 0.121954 1.000000 0.079632 0.119970 1.000000 0.056070 0.120359 1.000000 0.035800 0.121803 1.000000 0.011082 0.125241 1.000000 -0.011531 0.129282 1.000000 -0.038679 0.134558 1.000000 -0.064374 0.140145 1.000000 -0.094604 0.146164 1.000000 -0.123586 0.152301 1.000000 -0.157167 0.158156 1.000000 -0.189398 0.163850 1.000000 -0.226336 0.168593 1.000000 -0.261568 0.172621 1.000000 -0.301488 0.175005 1.000000 -0.339054 0.175751 1.000000 
-0.385311 0.218375 1.000000 -0.426656 0.214136 1.000000 -0.472259 0.206072 1.000000 -0.513297 0.192708 1.000000 -0.556851 0.174801 1.000000 -0.593725 0.149507 1.000000 -0.630261 0.119519 1.000000 -0.657550 0.080324 1.000000 -0.680487 0.037321 1.000000 -0.691574 -0.015840 1.000000 -0.693401 -0.070429 1.000000 -0.681553 -0.134537 1.000000 -0.655393 -0.196040 1.000000 -0.615628 -0.264292 1.000000 -0.557592 -0.324780 1.000000 -0.488883 -0.387157 1.000000 -0.400417 -0.436826 1.000000 -0.307182 -0.482326 1.000000 -0.196080 -0.512039 1.000000 -0.088032 -0.531899 1.000000 0.032760 -0.535831 1.000000 0.142531 -0.526215 1.000000 0.257926 -0.503533 1.000000 0.355972 -0.466545 1.000000 0.452318 -0.421470 1.000000 0.527808 -0.364248 1.000000 0.595758 -0.304659 1.000000 0.642389 -0.237114 1.000000 0.678194 -0.172430 1.000000 0.694710 -0.104659 1.000000 0.699869 -0.043816 1.000000 0.689451 0.015889 1.000000 0.669328 0.065953 1.000000 0.638307 0.112143 1.000000 0.600442 0.147339 1.000000 0.556733 0.177665 1.000000 0.509250 0.196948 1.000000 0.460817 0.211892 1.000000 0.411103 0.216950 1.000000 0.364667 0.219226 1.000000 0.318381 0.213784 1.000000 0.278481 0.207521 1.000000 0.238964 0.196391 1.000000 0.207493 0.186201 1.000000 0.175637 0.174219 1.000000 0.151921 0.164278 1.000000 0.126490 0.155260 1.000000 0.107933 0.148550 1.000000 0.086296 0.144539 1.000000 0.069501 0.142404 1.000000 0.048636 0.143500 1.000000 0.030615 0.145722 1.000000 0.008069 0.150650 1.000000 -0.012988 0.156056 1.000000 -0.038647 0.163140 1.000000 -0.063413 0.170375 1.000000 -0.092789 0.178246 1.000000 -0.121348 0.186160 1.000000 -0.154677 0.193819 1.000000 -0.187003 0.201327 1.000000 -0.224387 0.207762 1.000000 -0.260400 0.213482 1.000000 -0.301672 0.217264 1.000000 -0.340948 0.219262 1.000000 
-0.386518 0.259830 1.000000 -0.432429 0.256518 1.000000 -0.483662 0.248598 1.000000 -0.530832 0.234471 1.000000 -0.581703 0.214696 1.000000 -0.626074 0.186011 1.000000 -0.671178 0.151247 1.000000 -0.706610 0.105101 1.000000 -0.738293 0.053691 1.000000 -0.756817 -0.010565 1.000000 -0.765802 -0.077328 1.000000 -0.758820 -0.156394 1.000000 -0.736042 -0.232914 1.000000 -0.696695 -0.318353 1.000000 -0.636392 -0.394487 1.000000 -0.562569 -0.473263 1.000000 -0.465576 -0.536095 1.000000 -0.362044 -0.593568 1.000000 -0.237361 -0.630904 1.000000 -0.115626 -0.655369 1.000000 0.021107 -0.659444 1.000000 0.145277 -0.645880 1.000000 0.275743 -0.615712 1.000000 0.386223 -0.567127 1.000000 0.494067 -0.508562 1.000000 0.578101 -0.434674 1.000000 0.652524 -0.358324 1.000000 0.702980 -0.272348 1.000000 0.740155 -0.190609 1.000000 0.755969 -0.105691 1.000000 0.758323 -0.030035 1.000000 0.743628 0.043342 1.000000 0.717934 0.104257 1.000000 0.680443 0.159481 1.000000 0.635733 0.200779 1.000000 0.584857 0.235278 1.000000 0.530600 0.256020 1.000000 0.475666 0.270824 1.000000 0.420316 0.273538 1.000000 0.369088 0.272481 1.000000 0.318998 0.262245 1.000000 0.276619 0.250899 1.000000 0.235405 0.234113 1.000000 0.203853 0.218576 1.000000 0.172251 0.201566 1.000000 0.150383 0.187274 1.000000 0.126613 0.174923 1.000000 0.110918 0.165646 1.000000 0.091544 0.160387 1.000000 0.077552 0.157630 1.000000 0.058742 0.159245 1.000000 0.042672 0.162369 1.000000 0.021462 0.168844 1.000000 0.001263 0.175998 1.000000 -0.023869 0.184983 1.000000 -0.048670 0.194286 1.000000 -0.078188 0.204099 1.000000 -0.107415 0.214189 1.000000 -0.141486 0.223811 1.000000 -0.175062 0.233560 1.000000 -0.213930 0.241989 1.000000 -0.251973 0.249906 1.000000 -0.295784 0.255553 1.000000 -0.338202 0.259390 1.000000 
-0.388830 0.312602 1.000000 -0.438950 0.311280 1.000000 -0.495836 0.304474 1.000000 -0.549254 0.290750 1.000000 -0.607940 0.270043 1.000000 -0.660407 0.238982 1.000000 -0.715008 0.200055 1.000000 -0.759514 0.147440 1.000000 -0.801052 0.087528 1.000000 -0.827885 0.011669 1.000000 -0.844779 -0.068427 1.000000 -0.842831 -0.164296 1.000000 -0.823058 -0.258165 1.000000 -0.782862 -0.363942 1.000000 -0.718057 -0.458906 1.000000 -0.635968 -0.557974 1.000000 -0.526146 -0.637352 1.000000 -0.407455 -0.710541 1.000000 -0.263463 -0.758456 1.000000 -0.122372 -0.790366 1.000000 0.036151 -0.796734 1.000000 0.179798 -0.780852 1.000000 0.329806 -0.744479 1.000000 0.455822 -0.684869 1.000000 0.577054 -0.613349 1.000000 0.669934 -0.522704 1.000000 0.749637 -0.429537 1.000000 0.801381 -0.324745 1.000000 0.835941 -0.225419 1.000000 0.846266 -0.122827 1.000000 0.839872 -0.031476 1.000000 0.814782 0.056277 1.000000 0.776655 0.129138 1.000000 0.726231 0.194345 1.000000 0.667908 0.242926 1.000000 0.603951 0.282798 1.000000 0.537110 0.306139 1.000000 0.471007 0.322176 1.000000 0.405802 0.323529 1.000000 0.346795 0.320544 1.000000 0.290609 0.306252 1.000000 0.244561 0.291114 1.000000 0.201274 0.269157 1.000000 0.170028 0.249355 1.000000 0.139903 0.227689 1.000000 0.121376 0.209915 1.000000 0.101539 0.194725 1.000000 0.090699 0.183620 1.000000 0.076244 0.177905 1.000000 0.067003 0.175206 1.000000 0.052691 0.178380 1.000000 0.040160 0.183002 1.000000 0.022197 0.192059 1.000000 0.004093 0.201387 1.000000 -0.019102 0.213073 1.000000 -0.042865 0.224695 1.000000 -0.071414 0.236991 1.000000 -0.100243 0.249458 1.000000 -0.134086 0.261466 1.000000 -0.167844 0.273770 1.000000 -0.207340 0.284673 1.000000 -0.246442 0.295336 1.000000 -0.292117 0.303494 1.000000 -0.336944 0.309997 1.000000 
-0.386163 0.361837 1.000000 -0.442220 0.363524 1.000000 -0.506669 0.358901 1.000000 -0.568640 0.346575 1.000000 -0.637818 0.325850 1.000000 -0.701415 0.293079 1.000000 -0.769061 0.250354 1.000000 -0.826386 0.191145 1.000000 -0.882071 0.122061 1.000000 -0.921352 0.033163 1.000000 -0.950682 -0.062382 1.000000 -0.957606 -0.178116 1.000000 -0.944660 -0.292882 1.000000 -0.906242 -0.423354 1.000000 -0.838986 -0.541381 1.000000 -0.749401 -0.665174 1.000000 -0.626423 -0.764608 1.000000 -0.491495 -0.856251 1.000000 -0.325748 -0.915987 1.000000 -0.162849 -0.954984 1.000000 0.021164 -0.961615 1.000000 0.187468 -0.939535 1.000000 0.361005 -0.891736 1.000000 0.505957 -0.814375 1.000000 0.644196 -0.722674 1.000000 0.749284 -0.607257 1.000000 0.837364 -0.489770 1.000000 0.893585 -0.358652 1.000000 0.928304 -0.235495 1.000000 0.936014 -0.109623 1.000000 0.923540 0.001450 1.000000 0.890491 0.106559 1.000000 0.842508 0.192808 1.000000 0.781090 0.268229 1.000000 0.711477 0.323060 1.000000 0.635857 0.366075 1.000000 0.558299 0.388964 1.000000 0.481941 0.402132 1.000000 0.408149 0.397749 1.000000 0.341866 0.387675 1.000000 0.280226 0.364480 1.000000 0.230806 0.340234 1.000000 0.185577 0.308646 1.000000 0.155009 0.279946 1.000000 0.126188 0.250219 1.000000 0.111626 0.225638 1.000000 0.095435 0.205600 1.000000 0.090210 0.190940 1.000000 0.080306 0.184083 1.000000 0.076308 0.181184 1.000000 0.065921 0.186088 1.000000 0.056775 0.192864 1.000000 0.041194 0.204911 1.000000 0.024369 0.217297 1.000000 0.002059 0.231940 1.000000 -0.021845 0.246598 1.000000 -0.050467 0.261477 1.000000 -0.080139 0.276862 1.000000 -0.114696 0.291412 1.000000 -0.149821 0.306813 1.000000 -0.190847 0.320586 1.000000 -0.232198 0.334683 1.000000 -0.280761 0.346055 1.000000 -0.329353 0.356104 1.000000 
-0.382771 0.425469 1.000000 -0.444499 0.431786 1.000000 -0.516771 0.430895 1.000000 -0.587783 0.421898 1.000000 -0.668499 0.402818 1.000000 -0.744579 0.370226 1.000000 -0.827166 0.325026 1.000000 -0.899409 0.260450 1.000000 -0.971740 0.182494 1.000000 -1.025797 0.080280 1.000000 -1.069891 -0.032172 1.000000 -1.087188 -0.170318 1.000000 -1.081852 -0.309529 1.000000 -1.044490 -0.469616 1.000000 -0.972496 -0.615747 1.000000 -0.871472 -0.770536 1.000000 -0.729330 -0.895258 1.000000 -0.571094 -1.011217 1.000000 -0.374881 -1.087102 1.000000 -0.181388 -1.137278 1.000000 0.037318 -1.147050 1.000000 0.234381 -1.120693 1.000000 0.438622 -1.062968 1.000000 0.607514 -0.968059 1.000000 0.765873 -0.856676 1.000000 0.883714 -0.715872 1.000000 0.978470 -0.573837 1.000000 1.035394 -0.415684 1.000000 1.064425 -0.267848 1.000000 1.062563 -0.118062 1.000000 1.035506 0.014047 1.000000 0.985865 0.137309 1.000000 0.918485 0.238539 1.000000 0.837216 0.325376 1.000000 0.747165 0.388158 1.000000 0.652026 0.435976 1.000000 0.556152 0.460056 1.000000 0.463626 0.472326 1.000000 0.376048 0.463603 1.000000 0.299111 0.448467 1.000000 0.229646 0.417312 1.000000 0.176124 0.385763 1.000000 0.129340 0.344954 1.000000 0.100976 0.308744 1.000000 0.076077 0.271072 1.000000 0.068466 0.240669 1.000000 0.059907 0.216141 1.000000 0.063747 0.198748 1.000000 0.062676 0.191807 1.000000 0.066905 0.189592 1.000000 0.063998 0.197913 1.000000 0.060268 0.207729 1.000000 0.049405 0.224465 1.000000 0.035114 0.240522 1.000000 0.015060 0.259287 1.000000 -0.007991 0.277221 1.000000 -0.035729 0.295285 1.000000 -0.065164 0.313687 1.000000 -0.099555 0.331149 1.000000 -0.134864 0.349921 1.000000 -0.176570 0.367050 1.000000 -0.219060 0.385250 1.000000 -0.269817 0.400649 1.000000 -0.321369 0.415399 1.000000 
-0.371789 0.484967 1.000000 -0.440870 0.497525 1.000000 -0.522863 0.502185 1.000000 -0.605413 0.498303 1.000000 -0.700677 0.482645 1.000000 -0.792876 0.451746 1.000000 -0.894825 0.405185 1.000000 -0.986894 0.335719 1.000000 -1.081713 0.248449 1.000000 -1.156394 0.131314 1.000000 -1.221901 -0.000991 1.000000 -1.255265 -0.166155 1.000000 -1.263445 -0.335581 1.000000 -1.230967 -0.532709 1.000000 -1.157379 -0.714399 1.000000 -1.045714 -0.908340 1.000000 -0.883613 -1.064987 1.000000 -0.700166 -1.210700 1.000000 -0.469456 -1.305692 1.000000 -0.241719 -1.367183 1.000000 0.017267 -1.377384 1.000000 0.249382 -1.340840 1.000000 0.489812 -1.264870 1.000000 0.686878 -1.141625 1.000000 0.869699 -0.998874 1.000000 1.004341 -0.819854 1.000000 1.108979 -0.641450 1.000000 1.170455 -0.444607 1.000000 1.196575 -0.262664 1.000000 1.188579 -0.080703 1.000000 1.149876 0.078148 1.000000 1.086477 0.223580 1.000000 1.002806 0.341456 1.000000 0.903851 0.439549 1.000000 0.796260 0.508251 1.000000 0.683076 0.557088 1.000000 0.571171 0.577363 1.000000 0.463242 0.582237 1.000000 0.363287 0.562265 1.000000 0.275820 0.534077 1.000000 0.199016 0.487466 1.000000 0.141211 0.440540 1.000000 0.092629 0.383794 1.000000 0.066589 0.333209 1.000000 0.045082 0.282729 1.000000 0.045343 0.241808 1.000000 0.044042 0.210318 1.000000 0.058515 0.188172 1.000000 0.066120 0.180925 1.000000 0.079893 0.179862 1.000000 0.084132 0.192726 1.000000 0.085946 0.207457 1.000000 0.078938 0.230065 1.000000 0.066084 0.251642 1.000000 0.047067 0.275045 1.000000 0.023257 0.297387 1.000000 -0.004738 0.318650 1.000000 -0.035444 0.340687 1.000000 -0.070548 0.361113 1.000000 -0.107286 0.383829 1.000000 -0.150397 0.404782 1.000000 -0.195133 0.427930 1.000000 -0.248884 0.448364 1.000000 -0.304625 0.469057 1.000000 
-0.357275 0.561714 1.000000 -0.433532 0.582860 1.000000 -0.525736 0.595439 1.000000 -0.620748 0.599712 1.000000 -0.732236 0.590281 1.000000 -0.842870 0.564374 1.000000 -0.967325 0.519043 1.000000 -1.082973 0.447338 1.000000 -1.204826 0.351995 1.000000 -1.304786 0.220468 1.000000 -1.396712 0.066698 1.000000 -1.450034 -0.128774 1.000000 -1.474808 -0.333826 1.000000 -1.447659 -0.575682 1.000000 -1.370463 -0.801000 1.000000 -1.243122 -1.044301 1.000000 -1.052265 -1.240806 1.000000 -0.833030 -1.425374 1.000000 -0.554166 -1.545548 1.000000 -0.278220 -1.624001 1.000000 0.035773 -1.638152 1.000000 0.316168 -1.593239 1.000000 0.604463 -1.500463 1.000000 0.837832 -1.347946 1.000000 1.050168 -1.174140 1.000000 1.202299 -0.955153 1.000000 1.314052 -0.739952 1.000000 1.374087 -0.503280 1.000000 1.388260 -0.285972 1.000000 1.363674 -0.071364 1.000000 1.300799 0.116149 1.000000 1.211171 0.284379 1.000000 1.097673 0.421165 1.000000 0.968639 0.531922 1.000000 0.830873 0.608933 1.000000 0.688944 0.661064 1.000000 0.550789 0.679890 1.000000 0.419718 0.680210 1.000000 0.300769 0.651025 1.000000 0.198865 0.612739 1.000000 0.112311 0.551921 1.000000 0.050301 0.492149 1.000000 0.001526 0.419576 1.000000 -0.018820 0.356291 1.000000 -0.032171 0.292318 1.000000 -0.018687 0.241708 1.000000 -0.006085 0.202970 1.000000 0.024734 0.176670 1.000000 0.047856 0.170429 1.000000 0.075656 0.171579 1.000000 0.092243 0.191859 1.000000 0.102003 0.212923 1.000000 0.101521 0.244328 1.000000 0.091053 0.272393 1.000000 0.074037 0.302114 1.000000 0.050180 0.329026 1.000000 0.022479 0.353986 1.000000 -0.008394 0.379497 1.000000 -0.043502 0.402990 1.000000 -0.080283 0.429769 1.000000 -0.123963 0.454897 1.000000 -0.169626 0.483737 1.000000 -0.225644 0.510141 1.000000 -0.284655 0.538304 1.000000 
-0.331566 0.633844 1.000000 -0.416495 0.665986 1.000000 -0.520625 0.689401 1.000000 -0.630626 0.704803 1.000000 -0.761495 0.704767 1.000000 -0.894718 0.686835 1.000000 -1.046927 0.645288 1.000000 -1.192445 0.573220 1.000000 -1.349166 0.470262 1.000000 -1.482788 0.323199 1.000000 -1.611079 0.144256 1.000000 -1.693115 -0.088059 1.000000 -1.743885 -0.337955 1.000000 -1.727604 -0.637054 1.000000 -1.651581 -0.918937 1.000000 -1.508627 -1.226538 1.000000 -1.286846 -1.475079 1.000000 -1.028225 -1.708799 1.000000 -0.694244 -1.860502 1.000000 -0.364646 -1.957121 1.000000 0.012897 -1.971771 1.000000 0.347117 -1.909530 1.000000 0.690836 -1.786534 1.000000 0.965373 -1.587330 1.000000 1.212121 -1.363340 1.000000 1.386444 -1.083738 1.000000 1.508001 -0.813238 1.000000 1.571468 -0.518815 1.000000 1.576085 -0.252251 1.000000 1.539327 0.006758 1.000000 1.455699 0.230650 1.000000 1.343334 0.426705 1.000000 1.204177 0.583988 1.000000 1.047594 0.706349 1.000000 0.883613 0.787946 1.000000 0.714535 0.837172 1.000000 0.553108 0.846589 1.000000 0.399428 0.832257 1.000000 0.263064 0.783118 1.000000 0.146084 0.722535 1.000000 0.049827 0.636030 1.000000 -0.017762 0.551324 1.000000 -0.067930 0.452915 1.000000 -0.083402 0.366907 1.000000 -0.090162 0.282596 1.000000 -0.062351 0.215721 1.000000 -0.036666 0.166898 1.000000 0.013500 0.134231 1.000000 0.052373 0.130002 1.000000 0.097151 0.135474 1.000000 0.126357 0.166379 1.000000 0.144649 0.198179 1.000000 0.149894 0.241015 1.000000 0.140007 0.279126 1.000000 0.123444 0.315917 1.000000 0.097107 0.348945 1.000000 0.068444 0.377225 1.000000 0.035545 0.406668 1.000000 -0.000273 0.433002 1.000000 -0.038338 0.464290 1.000000 -0.083030 0.494125 1.000000 -0.130566 0.529611 1.000000 -0.189338 0.563393 1.000000 -0.252624 0.600688 1.000000 
-0.298170 0.725584 1.000000 -0.391546 0.771919 1.000000 -0.508111 0.809570 1.000000 -0.634289 0.840582 1.000000 -0.786605 0.854373 1.000000 -0.945624 0.849806 1.000000 -1.129972 0.816770 1.000000 -1.311203 0.749577 1.000000 -1.510198 0.642339 1.000000 -1.685922 0.482381 1.000000 -1.860304 0.277025 1.000000 -1.979431 0.004032 1.000000 -2.063895 -0.299337 1.000000 -2.061119 -0.667986 1.000000 -1.985177 -1.019977 1.000000 -1.819733 -1.409037 1.000000 -1.553016 -1.721208 1.000000 -1.238776 -2.017976 1.000000 -0.827720 -2.209127 1.000000 -0.421997 -2.331142 1.000000 0.042469 -2.349915 1.000000 0.452180 -2.271178 1.000000 0.870151 -2.118719 1.000000 1.198708 -1.869231 1.000000 1.487569 -1.595211 1.000000 1.683911 -1.251033 1.000000 1.809866 -0.924976 1.000000 1.866465 -0.571364 1.000000 1.846769 -0.253831 1.000000 1.781724 0.049022 1.000000 1.658601 0.312143 1.000000 1.505361 0.535901 1.000000 1.321300 0.716904 1.000000 1.119762 0.852485 1.000000 0.912002 0.941992 1.000000 0.700980 0.991569 1.000000 0.502259 0.994996 1.000000 0.315514 0.970255 1.000000 0.153060 0.904370 1.000000 0.016380 0.825976 1.000000 -0.091888 0.715767 1.000000 -0.163562 0.609906 1.000000 -0.211578 0.485215 1.000000 -0.215851 0.378523 1.000000 -0.208119 0.271267 1.000000 -0.157010 0.188211 1.000000 -0.107669 0.127119 1.000000 -0.029003 0.087632 1.000000 0.036517 0.086778 1.000000 0.104942 0.097595 1.000000 0.154553 0.144362 1.000000 0.183799 0.189387 1.000000 0.197385 0.248970 1.000000 0.187980 0.298843 1.000000 0.171566 0.345014 1.000000 0.142887 0.384026 1.000000 0.113061 0.415548 1.000000 0.079520 0.448214 1.000000 0.043623 0.476873 1.000000 0.006186 0.512526 1.000000 -0.038549 0.547125 1.000000 -0.086249 0.590045 1.000000 -0.146903 0.632199 1.000000 -0.213324 0.680533 1.000000 
-0.248808 0.812066 1.000000 -0.351563 0.875928 1.000000 -0.481600 0.932145 1.000000 -0.625947 0.983297 1.000000 -0.802325 1.016102 1.000000 -0.991252 1.030201 1.000000 -1.213342 1.010867 1.000000 -1.438166 0.953446 1.000000 -1.690023 0.844980 1.000000 -1.920791 0.673305 1.000000 -2.157236 0.437766 1.000000 -2.328480 0.115533 1.000000 -2.462638 -0.256267 1.000000 -2.481431 -0.715772 1.000000 -2.412586 -1.160322 1.000000 -2.220689 -1.658699 1.000000 -1.902260 -2.056036 1.000000 -1.524955 -2.434095 1.000000 -1.024142 -2.677281 1.000000 -0.534384 -2.827311 1.000000 0.029508 -2.845949 1.000000 0.520495 -2.737211 1.000000 1.022219 -2.533061 1.000000 1.408157 -2.204748 1.000000 1.742887 -1.848544 1.000000 1.965393 -1.406036 1.000000 2.095551 -0.995791 1.000000 2.151659 -0.555718 1.000000 2.108432 -0.167511 1.000000 2.021232 0.194926 1.000000 1.863118 0.507013 1.000000 1.673509 0.764007 1.000000 1.451002 0.969587 1.000000 1.207577 1.115646 1.000000 0.961969 1.206728 1.000000 0.710933 1.246915 1.000000 0.479057 1.232055 1.000000 0.259711 1.181455 1.000000 0.073107 1.082252 1.000000 -0.085044 0.967483 1.000000 -0.205933 0.815972 1.000000 -0.285512 0.671015 1.000000 -0.334444 0.505203 1.000000 -0.330750 0.363448 1.000000 -0.312451 0.223756 1.000000 -0.237045 0.115271 1.000000 -0.165998 0.038891 1.000000 -0.052801 -0.009954 1.000000 0.040825 -0.003944 1.000000 0.139916 0.017438 1.000000 0.212421 0.087522 1.000000 0.254531 0.155346 1.000000 0.276399 0.236834 1.000000 0.264129 0.304946 1.000000 0.245630 0.361010 1.000000 0.210549 0.407449 1.000000 0.178128 0.440592 1.000000 0.141777 0.476106 1.000000 0.105595 0.506336 1.000000 0.067890 0.546462 1.000000 0.023225 0.586559 1.000000 -0.025160 0.637965 1.000000 -0.087683 0.690469 1.000000 -0.157771 0.751955 1.000000 