# vtk DataFile Version 2.0
Comment goes here
ASCII

DATASET STRUCTURED_POINTS
DIMENSIONS    64   64   1

ORIGIN    0.000   0.000   0.000
SPACING   0.0781250.078125   1.000

POINT_DATA   4096
VECTORS u double

-0.243485 -0.000000 1.000000 -0.279442 -0.000000 1.000000 -0.308433 -0.000000 1.000000 -0.341103 -0.000000 1.000000 -0.366485 -0.000000 1.000000 -0.394349 -0.000000 1.000000 -0.414751 -0.000000 1.000000 -0.435884 -0.000000 1.000000 -0.449628 -0.000000 1.000000 -0.461882 -0.000000 1.000000 -0.467194 -0.000000 1.000000 -0.468550 -0.000000 1.000000 -0.463915 -0.000000 1.000000 -0.452965 -0.000000 1.000000 -0.437548 -0.000000 1.000000 -0.413965 -0.000000 1.000000 -0.387981 -0.000000 1.000000 -0.352807 -0.000000 1.000000 -0.317657 -0.000000 1.000000 -0.273252 -0.000000 1.000000 -0.231351 -0.000000 1.000000 -0.180983 -0.000000 1.000000 -0.135307 -0.000000 1.000000 -0.082539 -0.000000 1.000000 -0.036060 -0.000000 1.000000 0.015851 -0.000000 1.000000 0.060614 -0.000000 1.000000 0.109109 -0.000000 1.000000 0.150299 -0.000000 1.000000 0.193629 -0.000000 1.000000 0.230006 -0.000000 1.000000 0.267117 -0.000000 1.000000 0.297867 -0.000000 1.000000 0.328169 -0.000000 1.000000 0.352696 -0.000000 1.000000 0.375829 -0.000000 1.000000 0.393621 -0.000000 1.000000 0.409303 -0.000000 1.000000 0.419911 -0.000000 1.000000 0.427885 -0.000000 1.000000 0.430980 -0.000000 1.000000 0.431057 -0.000000 1.000000 0.426526 -0.000000 1.000000 0.418674 -0.000000 1.000000 0.406704 -0.000000 1.000000 0.391152 -0.000000 1.000000 0.372274 -0.000000 1.000000 0.349591 -0.000000 1.000000 0.324687 -0.000000 1.000000 0.295806 -0.000000 1.000000 0.266060 -0.000000 1.000000 0.232230 -0.000000 1.000000 0.199019 -0.000000 1.000000 0.161664 -0.000000 1.000000 0.126398 -0.000000 1.000000 0.086926 -0.000000 1.000000 0.050868 -0.000000 1.000000 0.010498 -0.000000 1.000000 -0.025362 -0.000000 1.000000 -0.065686 -0.000000 1.000000 -0.100642 -0.000000 1.000000 -0.140202 -0.000000 1.000000 -0.173735 -0.000000 1.000000 -0.211883 -0.000000 1.000000 
-0.247032 0.033780 1.000000 -0.283266 0.032474 1.000000 -0.312380 0.030831 1.000000 -0.345342 0.029026 1.000000 -0.370822 0.026623 1.000000 -0.398976 0.024133 1.000000 -0.419432 0.020768 1.000000 -0.440816 0.017438 1.000000 -0.454543 0.012999 1.000000 -0.466947 0.008783 1.000000 -0.472137 0.003334 1.000000 -0.473473 -0.001640 1.000000 -0.468575 -0.007793 1.000000 -0.457370 -0.013183 1.000000 -0.441533 -0.019500 1.000000 -0.417428 -0.024784 1.000000 -0.390870 -0.030579 1.000000 -0.354929 -0.035162 1.000000 -0.319089 -0.039778 1.000000 -0.273745 -0.043153 1.000000 -0.231102 -0.046134 1.000000 -0.179742 -0.048022 1.000000 -0.133345 -0.049222 1.000000 -0.079662 -0.049624 1.000000 -0.032558 -0.049195 1.000000 0.020078 -0.048337 1.000000 0.065312 -0.046629 1.000000 0.114271 -0.044842 1.000000 0.155744 -0.042260 1.000000 0.199256 -0.039853 1.000000 0.235723 -0.036744 1.000000 0.272763 -0.033931 1.000000 0.303430 -0.030526 1.000000 0.333471 -0.027414 1.000000 0.357779 -0.023830 1.000000 0.380545 -0.020463 1.000000 0.398030 -0.016737 1.000000 0.413317 -0.013145 1.000000 0.423572 -0.009291 1.000000 0.431184 -0.005535 1.000000 0.433917 -0.001586 1.000000 0.433694 0.002227 1.000000 0.428812 0.006192 1.000000 0.420722 0.009911 1.000000 0.408416 0.013761 1.000000 0.392665 0.017215 1.000000 0.373459 0.020781 1.000000 0.350581 0.023793 1.000000 0.325346 0.026892 1.000000 0.296246 0.029313 1.000000 0.266158 0.031788 1.000000 0.232073 0.033520 1.000000 0.198518 0.035283 1.000000 0.160879 0.036311 1.000000 0.125285 0.037369 1.000000 0.085520 0.037765 1.000000 0.049168 0.038214 1.000000 0.008513 0.038115 1.000000 -0.027596 0.038092 1.000000 -0.068190 0.037640 1.000000 -0.103351 0.037258 1.000000 -0.143171 0.036546 1.000000 -0.176874 0.035841 1.000000 -0.215285 0.034875 1.000000 
-0.245944 0.067981 1.000000 -0.282458 0.065348 1.000000 -0.311959 0.062076 1.000000 -0.345402 0.058441 1.000000 -0.371485 0.053633 1.000000 -0.400328 0.048611 1.000000 -0.421587 0.041840 1.000000 -0.443813 0.035111 1.000000 -0.458461 0.026132 1.000000 -0.471739 0.017594 1.000000 -0.477823 0.006526 1.000000 -0.479895 -0.003562 1.000000 -0.475684 -0.016103 1.000000 -0.464903 -0.027043 1.000000 -0.449384 -0.039942 1.000000 -0.425284 -0.050663 1.000000 -0.398602 -0.062500 1.000000 -0.362254 -0.071781 1.000000 -0.325903 -0.081184 1.000000 -0.279872 -0.087987 1.000000 -0.236495 -0.094003 1.000000 -0.184358 -0.097757 1.000000 -0.137211 -0.100080 1.000000 -0.082829 -0.100787 1.000000 -0.035107 -0.099740 1.000000 0.018070 -0.097870 1.000000 0.063749 -0.094193 1.000000 0.113107 -0.090432 1.000000 0.154910 -0.084985 1.000000 0.198763 -0.079979 1.000000 0.235545 -0.073507 1.000000 0.272954 -0.067707 1.000000 0.304007 -0.060708 1.000000 0.334497 -0.054350 1.000000 0.359289 -0.047074 1.000000 0.382574 -0.040251 1.000000 0.400605 -0.032772 1.000000 0.416427 -0.025542 1.000000 0.427213 -0.017867 1.000000 0.435296 -0.010344 1.000000 0.438461 -0.002510 1.000000 0.438568 0.005105 1.000000 0.433959 0.012972 1.000000 0.426008 0.020396 1.000000 0.413787 0.028057 1.000000 0.397968 0.034957 1.000000 0.378667 0.042084 1.000000 0.355536 0.048114 1.000000 0.330060 0.054335 1.000000 0.300575 0.059187 1.000000 0.270159 0.064173 1.000000 0.235635 0.067640 1.000000 0.201735 0.071194 1.000000 0.163689 0.073233 1.000000 0.127803 0.075359 1.000000 0.087730 0.076117 1.000000 0.051182 0.077007 1.000000 0.010342 0.076764 1.000000 -0.025869 0.076703 1.000000 -0.066554 0.075755 1.000000 -0.101772 0.074981 1.000000 -0.141659 0.073523 1.000000 -0.175450 0.072114 1.000000 -0.213993 0.070158 1.000000 
-0.251960 0.102244 1.000000 -0.289311 0.098489 1.000000 -0.319456 0.093775 1.000000 -0.353986 0.088552 1.000000 -0.380890 0.081549 1.000000 -0.411047 0.074235 1.000000 -0.433252 0.064253 1.000000 -0.456885 0.054312 1.000000 -0.472461 0.040925 1.000000 -0.486991 0.028145 1.000000 -0.493760 0.011490 1.000000 -0.496592 -0.003778 1.000000 -0.492564 -0.022785 1.000000 -0.481729 -0.039483 1.000000 -0.465680 -0.059119 1.000000 -0.440519 -0.075566 1.000000 -0.412529 -0.093609 1.000000 -0.374163 -0.107861 1.000000 -0.335860 -0.122160 1.000000 -0.287149 -0.132561 1.000000 -0.241480 -0.141648 1.000000 -0.186457 -0.147307 1.000000 -0.137047 -0.150751 1.000000 -0.080029 -0.151728 1.000000 -0.030385 -0.150094 1.000000 0.024850 -0.147193 1.000000 0.071945 -0.141667 1.000000 0.122649 -0.136003 1.000000 0.165350 -0.127915 1.000000 0.209878 -0.120488 1.000000 0.247136 -0.110936 1.000000 0.284708 -0.102393 1.000000 0.315945 -0.092068 1.000000 0.346282 -0.082696 1.000000 0.371077 -0.071908 1.000000 0.394072 -0.061779 1.000000 0.411991 -0.050590 1.000000 0.427504 -0.039754 1.000000 0.438083 -0.028160 1.000000 0.445886 -0.016782 1.000000 0.448743 -0.004858 1.000000 0.448585 0.006730 1.000000 0.443546 0.018752 1.000000 0.435287 0.030083 1.000000 0.422494 0.041801 1.000000 0.406248 0.052334 1.000000 0.386216 0.063212 1.000000 0.362477 0.072401 1.000000 0.336110 0.081853 1.000000 0.305821 0.089214 1.000000 0.274393 0.096729 1.000000 0.238917 0.101944 1.000000 0.203973 0.107229 1.000000 0.164936 0.110243 1.000000 0.128087 0.113327 1.000000 0.087103 0.114386 1.000000 0.049761 0.115602 1.000000 0.008159 0.115166 1.000000 -0.028655 0.114988 1.000000 -0.069966 0.113543 1.000000 -0.105645 0.112363 1.000000 -0.146110 0.110225 1.000000 -0.180323 0.108175 1.000000 -0.219518 0.105369 1.000000 
-0.253011 0.137774 1.000000 -0.291160 0.132845 1.000000 -0.322184 0.126751 1.000000 -0.357979 0.119875 1.000000 -0.386224 0.110694 1.000000 -0.418125 0.100973 1.000000 -0.442092 0.087679 1.000000 -0.467800 0.074320 1.000000 -0.485362 0.056237 1.000000 -0.501974 0.038892 1.000000 -0.510599 0.016127 1.000000 -0.515061 -0.004757 1.000000 -0.512308 -0.030966 1.000000 -0.502173 -0.053927 1.000000 -0.486412 -0.081152 1.000000 -0.460726 -0.103813 1.000000 -0.431860 -0.128856 1.000000 -0.391783 -0.148451 1.000000 -0.351605 -0.168198 1.000000 -0.300395 -0.182367 1.000000 -0.252322 -0.194696 1.000000 -0.194597 -0.202190 1.000000 -0.142827 -0.206508 1.000000 -0.083432 -0.207448 1.000000 -0.031897 -0.204619 1.000000 0.025110 -0.200200 1.000000 0.073497 -0.191992 1.000000 0.125375 -0.183837 1.000000 0.168908 -0.172214 1.000000 0.214208 -0.161765 1.000000 0.252102 -0.148336 1.000000 0.290293 -0.136515 1.000000 0.322197 -0.122282 1.000000 0.353182 -0.109482 1.000000 0.378772 -0.094865 1.000000 0.402505 -0.081164 1.000000 0.421295 -0.066203 1.000000 0.437577 -0.051635 1.000000 0.448962 -0.036249 1.000000 0.457434 -0.021004 1.000000 0.460869 -0.005208 1.000000 0.461137 0.010302 1.000000 0.456333 0.026270 1.000000 0.448145 0.041447 1.000000 0.435198 0.057095 1.000000 0.418615 0.071235 1.000000 0.398051 0.085854 1.000000 0.373580 0.098220 1.000000 0.346366 0.110992 1.000000 0.315033 0.120905 1.000000 0.282557 0.131077 1.000000 0.245884 0.138059 1.000000 0.209855 0.145174 1.000000 0.169668 0.149119 1.000000 0.131872 0.153192 1.000000 0.089962 0.154443 1.000000 0.051936 0.155951 1.000000 0.009706 0.155179 1.000000 -0.027521 0.154827 1.000000 -0.069220 0.152746 1.000000 -0.105152 0.151125 1.000000 -0.145932 0.148200 1.000000 -0.180420 0.145522 1.000000 -0.220072 0.141795 1.000000 
-0.261181 0.173332 1.000000 -0.300696 0.167662 1.000000 -0.332890 0.160594 1.000000 -0.370625 0.152592 1.000000 -0.400506 0.141695 1.000000 -0.434918 0.130103 1.000000 -0.460905 0.113928 1.000000 -0.489465 0.097581 1.000000 -0.509156 0.075100 1.000000 -0.528477 0.053382 1.000000 -0.538873 0.024576 1.000000 -0.545210 -0.002069 1.000000 -0.543297 -0.035673 1.000000 -0.533494 -0.065378 1.000000 -0.517153 -0.100566 1.000000 -0.489815 -0.130119 1.000000 -0.458767 -0.162552 1.000000 -0.415127 -0.188116 1.000000 -0.371436 -0.213549 1.000000 -0.315365 -0.231843 1.000000 -0.263097 -0.247446 1.000000 -0.200154 -0.256802 1.000000 -0.144296 -0.261916 1.000000 -0.080243 -0.262658 1.000000 -0.025351 -0.258636 1.000000 0.035158 -0.252587 1.000000 0.085895 -0.241931 1.000000 0.139940 -0.231414 1.000000 0.184881 -0.216748 1.000000 0.231185 -0.203682 1.000000 0.269810 -0.187020 1.000000 0.308202 -0.172487 1.000000 0.340456 -0.154958 1.000000 0.371233 -0.139271 1.000000 0.397000 -0.121231 1.000000 0.420421 -0.104302 1.000000 0.439296 -0.085662 1.000000 0.455329 -0.067421 1.000000 0.466685 -0.048017 1.000000 0.474999 -0.028690 1.000000 0.478225 -0.008561 1.000000 0.478346 0.011265 1.000000 0.473087 0.031744 1.000000 0.464626 0.051218 1.000000 0.450922 0.071331 1.000000 0.433784 0.089481 1.000000 0.412122 0.108247 1.000000 0.386691 0.124086 1.000000 0.358030 0.140399 1.000000 0.325303 0.153023 1.000000 0.291101 0.165878 1.000000 0.252715 0.174647 1.000000 0.214863 0.183446 1.000000 0.172890 0.188225 1.000000 0.133426 0.193033 1.000000 0.089928 0.194323 1.000000 0.050586 0.195858 1.000000 0.007124 0.194623 1.000000 -0.031018 0.193913 1.000000 -0.073632 0.191174 1.000000 -0.110201 0.189075 1.000000 -0.151778 0.185493 1.000000 -0.186853 0.182315 1.000000 -0.227458 0.177960 1.000000 
-0.263691 0.211012 1.000000 -0.304448 0.204554 1.000000 -0.337995 0.196681 1.000000 -0.377832 0.187491 1.000000 -0.409902 0.174987 1.000000 -0.447326 0.161372 1.000000 -0.476298 0.142226 1.000000 -0.508550 0.122571 1.000000 -0.531697 0.095249 1.000000 -0.554810 0.068609 1.000000 -0.568498 0.032860 1.000000 -0.577843 -0.000333 1.000000 -0.578197 -0.042682 1.000000 -0.569659 -0.080071 1.000000 -0.553742 -0.124831 1.000000 -0.525296 -0.162199 1.000000 -0.492446 -0.203544 1.000000 -0.445400 -0.235782 1.000000 -0.398014 -0.267960 1.000000 -0.337070 -0.290705 1.000000 -0.280190 -0.309906 1.000000 -0.212130 -0.320991 1.000000 -0.151923 -0.326419 1.000000 -0.083576 -0.326394 1.000000 -0.025433 -0.320021 1.000000 0.038039 -0.311446 1.000000 0.090744 -0.296773 1.000000 0.146512 -0.282823 1.000000 0.192510 -0.263459 1.000000 0.239760 -0.246694 1.000000 0.279114 -0.225354 1.000000 0.318203 -0.207162 1.000000 0.351326 -0.185314 1.000000 0.382917 -0.166026 1.000000 0.409867 -0.144053 1.000000 0.434337 -0.123460 1.000000 0.454589 -0.101111 1.000000 0.471794 -0.079024 1.000000 0.484431 -0.055919 1.000000 0.493798 -0.032543 1.000000 0.497906 -0.008556 1.000000 0.498704 0.015440 1.000000 0.493738 0.039990 1.000000 0.485384 0.063612 1.000000 0.471328 0.087937 1.000000 0.453631 0.110034 1.000000 0.431005 0.132948 1.000000 0.404348 0.152311 1.000000 0.374197 0.172380 1.000000 0.339687 0.187834 1.000000 0.303631 0.203666 1.000000 0.263158 0.214298 1.000000 0.223364 0.224999 1.000000 0.179370 0.230557 1.000000 0.138219 0.236154 1.000000 0.093118 0.237282 1.000000 0.052600 0.238756 1.000000 0.008113 0.236784 1.000000 -0.030667 0.235583 1.000000 -0.073832 0.231929 1.000000 -0.110702 0.229271 1.000000 -0.152670 0.224852 1.000000 -0.188053 0.221202 1.000000 -0.229290 0.216122 1.000000 
-0.273290 0.248490 1.000000 -0.315873 0.241965 1.000000 -0.351139 0.233977 1.000000 -0.393880 0.224499 1.000000 -0.428592 0.211190 1.000000 -0.470066 0.196499 1.000000 -0.502514 0.175151 1.000000 -0.539643 0.152981 1.000000 -0.566664 0.121360 1.000000 -0.594685 0.090183 1.000000 -0.611829 0.047609 1.000000 -0.624878 0.007630 1.000000 -0.627203 -0.043857 1.000000 -0.619801 -0.089833 1.000000 -0.603404 -0.144929 1.000000 -0.572620 -0.191415 1.000000 -0.536440 -0.242447 1.000000 -0.483676 -0.282547 1.000000 -0.430595 -0.321878 1.000000 -0.361711 -0.349668 1.000000 -0.298002 -0.372386 1.000000 -0.221547 -0.385069 1.000000 -0.154868 -0.390470 1.000000 -0.079312 -0.389147 1.000000 -0.016162 -0.380250 1.000000 0.052378 -0.368764 1.000000 0.108259 -0.350405 1.000000 0.166815 -0.333181 1.000000 0.214446 -0.309997 1.000000 0.262663 -0.290286 1.000000 0.302714 -0.265463 1.000000 0.341673 -0.244699 1.000000 0.375134 -0.219672 1.000000 0.406195 -0.197812 1.000000 0.433464 -0.172651 1.000000 0.457485 -0.149024 1.000000 0.478098 -0.123119 1.000000 0.495145 -0.097262 1.000000 0.508059 -0.070020 1.000000 0.517530 -0.042165 1.000000 0.521660 -0.013467 1.000000 0.522637 0.015434 1.000000 0.517309 0.045064 1.000000 0.508950 0.073629 1.000000 0.494072 0.103084 1.000000 0.475906 0.129804 1.000000 0.451924 0.157531 1.000000 0.424091 0.180894 1.000000 0.391985 0.205060 1.000000 0.355496 0.223590 1.000000 0.316939 0.242408 1.000000 0.273858 0.254914 1.000000 0.231315 0.267233 1.000000 0.184550 0.273369 1.000000 0.140883 0.279285 1.000000 0.093395 0.279942 1.000000 0.050997 0.280864 1.000000 0.004822 0.277890 1.000000 -0.035105 0.275858 1.000000 -0.079330 0.271209 1.000000 -0.116852 0.267913 1.000000 -0.159632 0.262843 1.000000 -0.195600 0.258935 1.000000 -0.237915 0.253599 1.000000 
-0.276099 0.288970 1.000000 -0.320271 0.282403 1.000000 -0.357359 0.274688 1.000000 -0.403158 0.264945 1.000000 -0.441124 0.251173 1.000000 -0.487285 0.235293 1.000000 -0.524420 0.211804 1.000000 -0.567572 0.186722 1.000000 -0.600257 0.150291 1.000000 -0.634725 0.113774 1.000000 -0.657479 0.063052 1.000000 -0.675857 0.015041 1.000000 -0.682213 -0.047758 1.000000 -0.677209 -0.103871 1.000000 -0.661699 -0.172012 1.000000 -0.629106 -0.229163 1.000000 -0.589853 -0.292488 1.000000 -0.531180 -0.341627 1.000000 -0.471667 -0.389925 1.000000 -0.394395 -0.423298 1.000000 -0.322782 -0.450070 1.000000 -0.237839 -0.464126 1.000000 -0.164093 -0.468654 1.000000 -0.081917 -0.465100 1.000000 -0.014059 -0.451711 1.000000 0.058474 -0.435867 1.000000 0.116581 -0.411210 1.000000 0.176918 -0.389010 1.000000 0.225236 -0.359307 1.000000 0.274054 -0.334961 1.000000 0.314484 -0.304364 1.000000 0.353888 -0.279582 1.000000 0.388297 -0.249836 1.000000 0.420285 -0.224356 1.000000 0.449318 -0.195343 1.000000 0.474888 -0.168094 1.000000 0.497758 -0.138771 1.000000 0.516709 -0.108985 1.000000 0.531765 -0.078303 1.000000 0.543019 -0.046144 1.000000 0.548617 -0.013664 1.000000 0.550804 0.019791 1.000000 0.545981 0.053677 1.000000 0.537963 0.086850 1.000000 0.522613 0.120982 1.000000 0.503789 0.152182 1.000000 0.478463 0.184762 1.000000 0.448953 0.212250 1.000000 0.414717 0.240975 1.000000 0.375631 0.262880 1.000000 0.334315 0.285303 1.000000 0.288064 0.299922 1.000000 0.242537 0.314307 1.000000 0.192659 0.320989 1.000000 0.146405 0.327309 1.000000 0.096527 0.327168 1.000000 0.052438 0.327329 1.000000 0.004915 0.322886 1.000000 -0.035737 0.319734 1.000000 -0.080453 0.313676 1.000000 -0.118092 0.309573 1.000000 -0.161062 0.303600 1.000000 -0.197131 0.299485 1.000000 -0.240020 0.293812 1.000000 
-0.285823 0.328741 1.000000 -0.332191 0.323225 1.000000 -0.371622 0.316865 1.000000 -0.421483 0.308265 1.000000 -0.463446 0.295317 1.000000 -0.515760 0.279795 1.000000 -0.558485 0.255438 1.000000 -0.609512 0.228818 1.000000 -0.648748 0.188513 1.000000 -0.691612 0.147405 1.000000 -0.720560 0.088741 1.000000 -0.745756 0.032363 1.000000 -0.756070 -0.042505 1.000000 -0.753779 -0.110347 1.000000 -0.738168 -0.193032 1.000000 -0.702383 -0.263261 1.000000 -0.658140 -0.340373 1.000000 -0.590484 -0.400733 1.000000 -0.521967 -0.458663 1.000000 -0.432059 -0.498553 1.000000 -0.349674 -0.528942 1.000000 -0.251693 -0.543758 1.000000 -0.168158 -0.546392 1.000000 -0.075413 -0.539182 1.000000 -0.000641 -0.520642 1.000000 0.078589 -0.499403 1.000000 0.140363 -0.468849 1.000000 0.203634 -0.441836 1.000000 0.253218 -0.407132 1.000000 0.302278 -0.379534 1.000000 0.342850 -0.345297 1.000000 0.381174 -0.318513 1.000000 0.415658 -0.286069 1.000000 0.446409 -0.258833 1.000000 0.475947 -0.227254 1.000000 0.500835 -0.197464 1.000000 0.524580 -0.164940 1.000000 0.543608 -0.131269 1.000000 0.559533 -0.096330 1.000000 0.571451 -0.059017 1.000000 0.577538 -0.021252 1.000000 0.580603 0.018069 1.000000 0.575706 0.057906 1.000000 0.568352 0.096996 1.000000 0.552322 0.137258 1.000000 0.533505 0.173954 1.000000 0.506799 0.212368 1.000000 0.476191 0.244639 1.000000 0.439657 0.278381 1.000000 0.398071 0.303992 1.000000 0.353434 0.329975 1.000000 0.303467 0.346692 1.000000 0.254016 0.362639 1.000000 0.200034 0.369501 1.000000 0.150159 0.375416 1.000000 0.096866 0.373909 1.000000 0.050256 0.372476 1.000000 0.000618 0.366064 1.000000 -0.041277 0.361226 1.000000 -0.086956 0.353565 1.000000 -0.125006 0.348523 1.000000 -0.168482 0.341882 1.000000 -0.204885 0.337892 1.000000 -0.248712 0.332567 1.000000 
-0.287087 0.372449 1.000000 -0.335294 0.368202 1.000000 -0.377073 0.363980 1.000000 -0.431163 0.356769 1.000000 -0.477807 0.345450 1.000000 -0.537111 0.330332 1.000000 -0.586965 0.305555 1.000000 -0.647460 0.276985 1.000000 -0.695711 0.232392 1.000000 -0.749221 0.185586 1.000000 -0.787523 0.117196 1.000000 -0.821990 0.050550 1.000000 -0.839409 -0.039735 1.000000 -0.841661 -0.121772 1.000000 -0.827987 -0.223408 1.000000 -0.789435 -0.309191 1.000000 -0.740209 -0.404387 1.000000 -0.662606 -0.477800 1.000000 -0.583226 -0.548350 1.000000 -0.479312 -0.595592 1.000000 -0.383735 -0.630436 1.000000 -0.272236 -0.645641 1.000000 -0.177669 -0.644934 1.000000 -0.075431 -0.632617 1.000000 0.005487 -0.605713 1.000000 0.089246 -0.576871 1.000000 0.152542 -0.536255 1.000000 0.216653 -0.501865 1.000000 0.265388 -0.457951 1.000000 0.313778 -0.424594 1.000000 0.353617 -0.383260 1.000000 0.391629 -0.352390 1.000000 0.427037 -0.315071 1.000000 0.458832 -0.284645 1.000000 0.491186 -0.249769 1.000000 0.518540 -0.216726 1.000000 0.546177 -0.181545 1.000000 0.568456 -0.143939 1.000000 0.588081 -0.106145 1.000000 0.603098 -0.064149 1.000000 0.611650 -0.022816 1.000000 0.616876 0.021622 1.000000 0.612824 0.065928 1.000000 0.606297 0.110233 1.000000 0.589706 0.155828 1.000000 0.570304 0.197705 1.000000 0.541959 0.242076 1.000000 0.509334 0.279392 1.000000 0.470129 0.319096 1.000000 0.425080 0.349103 1.000000 0.376700 0.379908 1.000000 0.322192 0.399341 1.000000 0.268428 0.417740 1.000000 0.209868 0.424845 1.000000 0.156238 0.430477 1.000000 0.099592 0.427071 1.000000 0.050750 0.423577 1.000000 -0.000423 0.414419 1.000000 -0.042906 0.407308 1.000000 -0.088668 0.397405 1.000000 -0.126314 0.391100 1.000000 -0.169384 0.383479 1.000000 -0.205375 0.379714 1.000000 -0.249416 0.374749 1.000000 
-0.294780 0.414620 1.000000 -0.345460 0.413211 1.000000 -0.390381 0.412734 1.000000 -0.449973 0.408998 1.000000 -0.502510 0.401265 1.000000 -0.570860 0.388953 1.000000 -0.629376 0.365787 1.000000 -0.702152 0.337563 1.000000 -0.761012 0.290275 1.000000 -0.828401 0.239217 1.000000 -0.877249 0.161510 1.000000 -0.923769 0.084250 1.000000 -0.948467 -0.022834 1.000000 -0.956298 -0.121769 1.000000 -0.943290 -0.245257 1.000000 -0.900282 -0.351038 1.000000 -0.843443 -0.467202 1.000000 -0.751586 -0.557717 1.000000 -0.657981 -0.641957 1.000000 -0.533962 -0.698043 1.000000 -0.421460 -0.736018 1.000000 -0.289945 -0.749823 1.000000 -0.180831 -0.743197 1.000000 -0.063604 -0.722338 1.000000 0.026289 -0.685319 1.000000 0.118179 -0.646458 1.000000 0.184811 -0.596255 1.000000 0.251030 -0.554683 1.000000 0.299549 -0.504258 1.000000 0.346287 -0.467763 1.000000 0.384879 -0.423148 1.000000 0.419916 -0.391932 1.000000 0.454861 -0.353272 1.000000 0.484217 -0.322981 1.000000 0.517526 -0.286962 1.000000 0.543945 -0.252456 1.000000 0.573523 -0.214856 1.000000 0.596453 -0.173173 1.000000 0.618059 -0.130972 1.000000 0.634804 -0.082586 1.000000 0.644615 -0.035030 1.000000 0.651947 0.016896 1.000000 0.648241 0.068485 1.000000 0.643572 0.120114 1.000000 0.626618 0.173251 1.000000 0.608242 0.221701 1.000000 0.578841 0.273338 1.000000 0.545670 0.316469 1.000000 0.504167 0.362635 1.000000 0.456232 0.397421 1.000000 0.403692 0.432862 1.000000 0.343979 0.454964 1.000000 0.284675 0.474963 1.000000 0.220034 0.481690 1.000000 0.161232 0.485692 1.000000 0.099764 0.479398 1.000000 0.047684 0.472492 1.000000 -0.005927 0.459719 1.000000 -0.049471 0.449471 1.000000 -0.095682 0.436973 1.000000 -0.133097 0.429238 1.000000 -0.175893 0.420944 1.000000 -0.211647 0.417924 1.000000 -0.256136 0.414279 1.000000 
-0.291650 0.461773 1.000000 -0.344344 0.463804 1.000000 -0.392280 0.468492 1.000000 -0.457551 0.468898 1.000000 -0.516666 0.466337 1.000000 -0.595082 0.457198 1.000000 -0.664081 0.436848 1.000000 -0.751241 0.408621 1.000000 -0.823977 0.358641 1.000000 -0.908498 0.301824 1.000000 -0.972520 0.212563 1.000000 -1.034876 0.121768 1.000000 -1.071795 -0.007206 1.000000 -1.087962 -0.126949 1.000000 -1.078873 -0.279425 1.000000 -1.031442 -0.409037 1.000000 -0.966457 -0.553083 1.000000 -0.857682 -0.663262 1.000000 -0.745786 -0.765975 1.000000 -0.598418 -0.832113 1.000000 -0.463899 -0.874453 1.000000 -0.311226 -0.886270 1.000000 -0.185195 -0.871275 1.000000 -0.055254 -0.839738 1.000000 0.041607 -0.787496 1.000000 0.137154 -0.735393 1.000000 0.202409 -0.669106 1.000000 0.266552 -0.616604 1.000000 0.310503 -0.553208 1.000000 0.353783 -0.509923 1.000000 0.389359 -0.456889 1.000000 0.422695 -0.422372 1.000000 0.458640 -0.379371 1.000000 0.489397 -0.347311 1.000000 0.527657 -0.309498 1.000000 0.558336 -0.272724 1.000000 0.594913 -0.234052 1.000000 0.623548 -0.188475 1.000000 0.651604 -0.144496 1.000000 0.673668 -0.090705 1.000000 0.687413 -0.039960 1.000000 0.698307 0.017996 1.000000 0.695593 0.074304 1.000000 0.692305 0.131857 1.000000 0.674337 0.191158 1.000000 0.655436 0.245481 1.000000 0.624047 0.304648 1.000000 0.588592 0.354067 1.000000 0.544088 0.408533 1.000000 0.491767 0.449577 1.000000 0.434458 0.492161 1.000000 0.368380 0.518359 1.000000 0.302954 0.541685 1.000000 0.231645 0.548288 1.000000 0.167494 0.550747 1.000000 0.101500 0.540620 1.000000 0.046718 0.529269 1.000000 -0.008253 0.511573 1.000000 -0.051783 0.497063 1.000000 -0.097051 0.481032 1.000000 -0.133023 0.471310 1.000000 -0.174260 0.462029 1.000000 -0.208727 0.459958 1.000000 -0.252722 0.457882 1.000000 
-0.293841 0.506242 1.000000 -0.349161 0.513840 1.000000 -0.401306 0.525941 1.000000 -0.473786 0.533385 1.000000 -0.541351 0.538796 1.000000 -0.632545 0.536368 1.000000 -0.714459 0.521946 1.000000 -0.820090 0.497459 1.000000 -0.909384 0.447532 1.000000 -1.016260 0.387761 1.000000 -1.097597 0.287887 1.000000 -1.180725 0.183524 1.000000 -1.230141 0.030252 1.000000 -1.256742 -0.114691 1.000000 -1.249299 -0.301777 1.000000 -1.194843 -0.463454 1.000000 -1.117459 -0.640962 1.000000 -0.985416 -0.778388 1.000000 -0.850998 -0.901222 1.000000 -0.671444 -0.979930 1.000000 -0.510377 -1.023210 1.000000 -0.327403 -1.028528 1.000000 -0.180331 -0.999168 1.000000 -0.030277 -0.949139 1.000000 0.076970 -0.877727 1.000000 0.180914 -0.807261 1.000000 0.247118 -0.725654 1.000000 0.310576 -0.662776 1.000000 0.350777 -0.591488 1.000000 0.388646 -0.546619 1.000000 0.420359 -0.492061 1.000000 0.447538 -0.461214 1.000000 0.482354 -0.419974 1.000000 0.508935 -0.391999 1.000000 0.549390 -0.355901 1.000000 0.579085 -0.319712 1.000000 0.619840 -0.280069 1.000000 0.650389 -0.229864 1.000000 0.682437 -0.181092 1.000000 0.708089 -0.118395 1.000000 0.724102 -0.059669 1.000000 0.738949 0.008715 1.000000 0.736721 0.074486 1.000000 0.736922 0.141370 1.000000 0.718684 0.210119 1.000000 0.702328 0.271991 1.000000 0.670532 0.340183 1.000000 0.635716 0.396428 1.000000 0.589581 0.459460 1.000000 0.534273 0.507051 1.000000 0.472064 0.556249 1.000000 0.398674 0.586468 1.000000 0.325315 0.611699 1.000000 0.244786 0.617150 1.000000 0.173185 0.615836 1.000000 0.100448 0.600175 1.000000 0.041800 0.582245 1.000000 -0.015474 0.558220 1.000000 -0.059186 0.538269 1.000000 -0.103523 0.518212 1.000000 -0.137908 0.506446 1.000000 -0.177343 0.496648 1.000000 -0.210576 0.496386 1.000000 -0.254081 0.497203 1.000000 
-0.281956 0.556853 1.000000 -0.339354 0.571270 1.000000 -0.395327 0.593117 1.000000 -0.475096 0.608943 1.000000 -0.551537 0.625097 1.000000 -0.656533 0.630306 1.000000 -0.753227 0.624392 1.000000 -0.879979 0.603546 1.000000 -0.990096 0.554811 1.000000 -1.124228 0.490036 1.000000 -1.229873 0.377029 1.000000 -1.340021 0.254313 1.000000 -1.409979 0.068811 1.000000 -1.451463 -0.107792 1.000000 -1.451268 -0.341323 1.000000 -1.388588 -0.540877 1.000000 -1.296974 -0.762510 1.000000 -1.135121 -0.929723 1.000000 -0.969814 -1.079946 1.000000 -0.751085 -1.172733 1.000000 -0.553045 -1.218494 1.000000 -0.337846 -1.216316 1.000000 -0.165737 -1.168400 1.000000 -0.001253 -1.097039 1.000000 0.110739 -0.998686 1.000000 0.213374 -0.905541 1.000000 0.270019 -0.798768 1.000000 0.324464 -0.720262 1.000000 0.352285 -0.631278 1.000000 0.381611 -0.579505 1.000000 0.406446 -0.515780 1.000000 0.430040 -0.484367 1.000000 0.466741 -0.440768 1.000000 0.495935 -0.414347 1.000000 0.545859 -0.379649 1.000000 0.583382 -0.343173 1.000000 0.637115 -0.305356 1.000000 0.677869 -0.251072 1.000000 0.721238 -0.202195 1.000000 0.755919 -0.132370 1.000000 0.777808 -0.070821 1.000000 0.798013 0.005377 1.000000 0.795856 0.076331 1.000000 0.797463 0.149894 1.000000 0.776350 0.225752 1.000000 0.758921 0.293634 1.000000 0.724373 0.371260 1.000000 0.687039 0.435018 1.000000 0.638316 0.509977 1.000000 0.578010 0.567094 1.000000 0.510535 0.627760 1.000000 0.428668 0.665107 1.000000 0.346870 0.695573 1.000000 0.256724 0.700419 1.000000 0.177638 0.695085 1.000000 0.099103 0.672004 1.000000 0.037709 0.645190 1.000000 -0.019777 0.612560 1.000000 -0.061796 0.585111 1.000000 -0.102932 0.559754 1.000000 -0.133912 0.545130 1.000000 -0.169787 0.534697 1.000000 -0.200395 0.536696 1.000000 -0.242284 0.541146 1.000000 
-0.273142 0.603312 1.000000 -0.333008 0.627211 1.000000 -0.394462 0.661683 1.000000 -0.483102 0.689595 1.000000 -0.571165 0.720233 1.000000 -0.693336 0.738057 1.000000 -0.808812 0.745392 1.000000 -0.962820 0.734328 1.000000 -1.098969 0.691780 1.000000 -1.269567 0.627538 1.000000 -1.404202 0.503680 1.000000 -1.550787 0.363630 1.000000 -1.641595 0.141695 1.000000 -1.701775 -0.073402 1.000000 -1.703664 -0.364653 1.000000 -1.627181 -0.617749 1.000000 -1.512773 -0.894429 1.000000 -1.311372 -1.105547 1.000000 -1.110920 -1.285257 1.000000 -0.840361 -1.396700 1.000000 -0.600828 -1.436450 1.000000 -0.341348 -1.415837 1.000000 -0.141006 -1.335762 1.000000 0.046467 -1.225615 1.000000 0.166311 -1.092353 1.000000 0.273325 -0.966540 1.000000 0.323247 -0.836744 1.000000 0.370128 -0.745042 1.000000 0.386936 -0.648635 1.000000 0.404299 -0.600779 1.000000 0.421095 -0.540490 1.000000 0.433853 -0.521509 1.000000 0.469244 -0.485868 1.000000 0.492166 -0.471117 1.000000 0.547518 -0.443348 1.000000 0.584788 -0.410967 1.000000 0.647458 -0.374556 1.000000 0.692912 -0.313987 1.000000 0.744070 -0.259142 1.000000 0.785731 -0.174964 1.000000 0.811130 -0.101763 1.000000 0.838060 -0.009333 1.000000 0.835450 0.075036 1.000000 0.842437 0.160876 1.000000 0.820114 0.248662 1.000000 0.807163 0.323969 1.000000 0.773402 0.412065 1.000000 0.739310 0.482485 1.000000 0.691895 0.568489 1.000000 0.630222 0.634833 1.000000 0.558791 0.705591 1.000000 0.467766 0.750133 1.000000 0.375139 0.783642 1.000000 0.271048 0.786382 1.000000 0.181281 0.773457 1.000000 0.093436 0.740103 1.000000 0.028004 0.701125 1.000000 -0.030467 0.657725 1.000000 -0.070259 0.621424 1.000000 -0.107334 0.590328 1.000000 -0.134046 0.573301 1.000000 -0.165354 0.563131 1.000000 -0.193091 0.568883 1.000000 -0.232904 0.578763 1.000000 