# vtk DataFile Version 2.0
Comment goes here
ASCII

DATASET STRUCTURED_POINTS
DIMENSIONS    64   64   1

ORIGIN    0.000   0.000   0.000
SPACING   0.0781250.078125   1.000

POINT_DATA   4096
VECTORS u double

-0.390376 -0.000000 1.000000 -0.305886 -0.000000 1.000000 -0.230373 -0.000000 1.000000 -0.144767 -0.000000 1.000000 -0.068891 0.000000 1.000000 0.014230 -0.000000 1.000000 0.087191 0.000000 1.000000 0.164820 -0.000000 1.000000 0.232130 -0.000000 1.000000 0.301955 -0.000000 1.000000 0.361555 -0.000000 1.000000 0.422030 -0.000000 1.000000 0.472616 0.000000 1.000000 0.522944 -0.000000 1.000000 0.563927 0.000000 1.000000 0.603912 -0.000000 1.000000 0.635248 -0.000000 1.000000 0.665039 -0.000000 1.000000 0.686973 -0.000000 1.000000 0.706764 -0.000000 1.000000 0.719563 0.000000 1.000000 0.729345 0.000000 1.000000 0.733095 -0.000000 1.000000 0.732537 -0.000000 1.000000 0.727052 -0.000000 1.000000 0.715517 -0.000000 1.000000 0.700364 -0.000000 1.000000 0.677053 -0.000000 1.000000 0.651686 -0.000000 1.000000 0.615852 -0.000000 1.000000 0.579808 -0.000000 1.000000 0.530997 0.000000 1.000000 0.484117 -0.000000 1.000000 0.422413 0.000000 1.000000 0.365052 -0.000000 1.000000 0.291304 0.000000 1.000000 0.224518 0.000000 1.000000 0.140554 0.000000 1.000000 0.066231 0.000000 1.000000 -0.025006 0.000000 1.000000 -0.104078 0.000000 1.000000 -0.198512 0.000000 1.000000 -0.278704 0.000000 1.000000 -0.371287 0.000000 1.000000 -0.448314 0.000000 1.000000 -0.533402 0.000000 1.000000 -0.602651 0.000000 1.000000 -0.674565 0.000000 1.000000 -0.731539 0.000000 1.000000 -0.785253 0.000000 1.000000 -0.826076 0.000000 1.000000 -0.857885 0.000000 1.000000 -0.879784 0.000000 1.000000 -0.887811 0.000000 1.000000 -0.889478 0.000000 1.000000 -0.873859 0.000000 1.000000 -0.855579 0.000000 1.000000 -0.818295 -0.000000 1.000000 -0.781815 -0.000000 1.000000 -0.726236 -0.000000 1.000000 -0.674422 -0.000000 1.000000 -0.604739 -0.000000 1.000000 -0.541154 -0.000000 1.000000 -0.461862 -0.000000 1.000000 
-0.397806 -0.077988 1.000000 -0.312449 -0.080001 1.000000 -0.236258 -0.080559 1.000000 -0.149832 -0.080741 1.000000 -0.073228 -0.079498 1.000000 0.010684 -0.078041 1.000000 0.084439 -0.075295 1.000000 0.162857 -0.072469 1.000000 0.231044 -0.068568 1.000000 0.301688 -0.064713 1.000000 0.362262 -0.060038 1.000000 0.423615 -0.055531 1.000000 0.475279 -0.050457 1.000000 0.526563 -0.045655 1.000000 0.568717 -0.040484 1.000000 0.609735 -0.035661 1.000000 0.642295 -0.030564 1.000000 0.673160 -0.025863 1.000000 0.696299 -0.020862 1.000000 0.717129 -0.016295 1.000000 0.731018 -0.011290 1.000000 0.741707 -0.006766 1.000000 0.746330 -0.001596 1.000000 0.746440 0.003022 1.000000 0.741518 0.008510 1.000000 0.730327 0.013344 1.000000 0.715361 0.019232 1.000000 0.692011 0.024339 1.000000 0.666427 0.030601 1.000000 0.630151 0.035939 1.000000 0.593495 0.042427 1.000000 0.543852 0.047845 1.000000 0.496008 0.054292 1.000000 0.433116 0.059533 1.000000 0.374506 0.065554 1.000000 0.299274 0.070267 1.000000 0.231034 0.075375 1.000000 0.145362 0.079143 1.000000 0.069472 0.082780 1.000000 -0.023608 0.085155 1.000000 -0.104274 0.086753 1.000000 -0.200579 0.087313 1.000000 -0.282305 0.086388 1.000000 -0.376670 0.084805 1.000000 -0.455094 0.081057 1.000000 -0.541746 0.077168 1.000000 -0.612191 0.070582 1.000000 -0.685333 0.064444 1.000000 -0.743249 0.055344 1.000000 -0.797763 0.047268 1.000000 -0.839235 0.036316 1.000000 -0.871374 0.026854 1.000000 -0.893616 0.014963 1.000000 -0.901520 0.004847 1.000000 -0.903237 -0.006976 1.000000 -0.887121 -0.016949 1.000000 -0.868642 -0.027782 1.000000 -0.830600 -0.036882 1.000000 -0.793733 -0.046030 1.000000 -0.737257 -0.053697 1.000000 -0.684930 -0.060748 1.000000 -0.614310 -0.066634 1.000000 -0.550137 -0.071438 1.000000 -0.469929 -0.075389 1.000000 
-0.395001 -0.157480 1.000000 -0.308470 -0.161548 1.000000 -0.231127 -0.162617 1.000000 -0.143721 -0.163030 1.000000 -0.066208 -0.160516 1.000000 0.018415 -0.157667 1.000000 0.092743 -0.152173 1.000000 0.171525 -0.146605 1.000000 0.239862 -0.138831 1.000000 0.310459 -0.131218 1.000000 0.370709 -0.121927 1.000000 0.431582 -0.113017 1.000000 0.482461 -0.102948 1.000000 0.532885 -0.093438 1.000000 0.573889 -0.083172 1.000000 0.613799 -0.073578 1.000000 0.645013 -0.063425 1.000000 0.674707 -0.054004 1.000000 0.696508 -0.043969 1.000000 0.716302 -0.034719 1.000000 0.729055 -0.024578 1.000000 0.739003 -0.015312 1.000000 0.742845 -0.004734 1.000000 0.742603 0.004812 1.000000 0.737333 0.016114 1.000000 0.726196 0.026157 1.000000 0.711315 0.038315 1.000000 0.688377 0.048934 1.000000 0.663240 0.061860 1.000000 0.627633 0.072932 1.000000 0.591668 0.086299 1.000000 0.542817 0.097488 1.000000 0.495760 0.110736 1.000000 0.433631 0.121502 1.000000 0.375744 0.133842 1.000000 0.301085 0.143472 1.000000 0.233354 0.153912 1.000000 0.147920 0.161562 1.000000 0.072206 0.168970 1.000000 -0.021068 0.173745 1.000000 -0.101954 0.176971 1.000000 -0.198909 0.178032 1.000000 -0.281243 0.176090 1.000000 -0.376648 0.172789 1.000000 -0.455980 0.165076 1.000000 -0.543906 0.157097 1.000000 -0.615403 0.143587 1.000000 -0.689830 0.131058 1.000000 -0.748743 0.112429 1.000000 -0.804306 0.095986 1.000000 -0.846517 0.073611 1.000000 -0.879263 0.054381 1.000000 -0.901818 0.030146 1.000000 -0.909773 0.009621 1.000000 -0.911298 -0.014399 1.000000 -0.894686 -0.034595 1.000000 -0.875533 -0.056520 1.000000 -0.836562 -0.074909 1.000000 -0.798648 -0.093344 1.000000 -0.740971 -0.108803 1.000000 -0.687374 -0.122947 1.000000 -0.615444 -0.134794 1.000000 -0.549923 -0.144381 1.000000 -0.468425 -0.152331 1.000000 
-0.407050 -0.237943 1.000000 -0.317613 -0.243875 1.000000 -0.237769 -0.245308 1.000000 -0.147762 -0.245660 1.000000 -0.067899 -0.241635 1.000000 0.018990 -0.236992 1.000000 0.095460 -0.228405 1.000000 0.176156 -0.219589 1.000000 0.246381 -0.207501 1.000000 0.318539 -0.195560 1.000000 0.380407 -0.181161 1.000000 0.442535 -0.167283 1.000000 0.494796 -0.151760 1.000000 0.546275 -0.137084 1.000000 0.588511 -0.121398 1.000000 0.629416 -0.106785 1.000000 0.661803 -0.091472 1.000000 0.692547 -0.077357 1.000000 0.715514 -0.062457 1.000000 0.736449 -0.048842 1.000000 0.750353 -0.033992 1.000000 0.761475 -0.020556 1.000000 0.766374 -0.005196 1.000000 0.767206 0.008533 1.000000 0.762779 0.024917 1.000000 0.752440 0.039362 1.000000 0.738048 0.057051 1.000000 0.715464 0.072414 1.000000 0.690331 0.091344 1.000000 0.654497 0.107511 1.000000 0.617957 0.127243 1.000000 0.568196 0.143754 1.000000 0.519929 0.163479 1.000000 0.456133 0.179548 1.000000 0.396388 0.198100 1.000000 0.319259 0.212657 1.000000 0.249042 0.228540 1.000000 0.160340 0.240291 1.000000 0.081578 0.251768 1.000000 -0.015682 0.259314 1.000000 -0.100059 0.264595 1.000000 -0.201529 0.266602 1.000000 -0.287613 0.264126 1.000000 -0.387747 0.259542 1.000000 -0.470848 0.248315 1.000000 -0.563295 0.236591 1.000000 -0.638290 0.216506 1.000000 -0.716547 0.197784 1.000000 -0.778378 0.169821 1.000000 -0.836634 0.145042 1.000000 -0.880896 0.111272 1.000000 -0.914889 0.082155 1.000000 -0.938429 0.045474 1.000000 -0.946113 0.014327 1.000000 -0.947502 -0.022063 1.000000 -0.929286 -0.052714 1.000000 -0.908998 -0.085906 1.000000 -0.867463 -0.113767 1.000000 -0.827664 -0.141621 1.000000 -0.766894 -0.164970 1.000000 -0.710953 -0.186276 1.000000 -0.635774 -0.204086 1.000000 -0.567701 -0.218457 1.000000 -0.483055 -0.230311 1.000000 
-0.408604 -0.322923 1.000000 -0.315876 -0.330829 1.000000 -0.232955 -0.332467 1.000000 -0.140094 -0.332900 1.000000 -0.057591 -0.327268 1.000000 0.031589 -0.321026 1.000000 0.110083 -0.309339 1.000000 0.192362 -0.297526 1.000000 0.263816 -0.281214 1.000000 0.336719 -0.265244 1.000000 0.398898 -0.245923 1.000000 0.460892 -0.227407 1.000000 0.512564 -0.206688 1.000000 0.563147 -0.187153 1.000000 0.604087 -0.166312 1.000000 0.643622 -0.146870 1.000000 0.674336 -0.126555 1.000000 0.703616 -0.107715 1.000000 0.724913 -0.087872 1.000000 0.744655 -0.069558 1.000000 0.757228 -0.049604 1.000000 0.767679 -0.031333 1.000000 0.771810 -0.010465 1.000000 0.772589 0.008407 1.000000 0.768029 0.030880 1.000000 0.758193 0.050889 1.000000 0.744226 0.075292 1.000000 0.722526 0.096650 1.000000 0.698191 0.122827 1.000000 0.663385 0.145306 1.000000 0.627764 0.172601 1.000000 0.578910 0.195515 1.000000 0.531411 0.222799 1.000000 0.468114 0.245043 1.000000 0.408717 0.270716 1.000000 0.331394 0.290817 1.000000 0.260860 0.312830 1.000000 0.171027 0.329027 1.000000 0.091111 0.344993 1.000000 -0.008353 0.355382 1.000000 -0.094774 0.362818 1.000000 -0.199482 0.365586 1.000000 -0.288402 0.362309 1.000000 -0.392554 0.356024 1.000000 -0.479023 0.340624 1.000000 -0.575805 0.324538 1.000000 -0.654299 0.296840 1.000000 -0.736599 0.271146 1.000000 -0.801572 0.232516 1.000000 -0.862936 0.198504 1.000000 -0.909488 0.151866 1.000000 -0.945138 0.111914 1.000000 -0.969728 0.061370 1.000000 -0.977383 0.018694 1.000000 -0.978413 -0.031226 1.000000 -0.958597 -0.073100 1.000000 -0.936652 -0.118344 1.000000 -0.892336 -0.156243 1.000000 -0.849907 -0.193912 1.000000 -0.785677 -0.225514 1.000000 -0.726536 -0.254067 1.000000 -0.647669 -0.278046 1.000000 -0.576189 -0.297099 1.000000 -0.487952 -0.312982 1.000000 
-0.424949 -0.410019 1.000000 -0.327210 -0.419524 1.000000 -0.239897 -0.421090 1.000000 -0.142624 -0.421025 1.000000 -0.056094 -0.413318 1.000000 0.036844 -0.404665 1.000000 0.118875 -0.389178 1.000000 0.204189 -0.373322 1.000000 0.278560 -0.351858 1.000000 0.353720 -0.330642 1.000000 0.418125 -0.305334 1.000000 0.481645 -0.280948 1.000000 0.534918 -0.254015 1.000000 0.586514 -0.228606 1.000000 0.628652 -0.201872 1.000000 0.669029 -0.177034 1.000000 0.700812 -0.151466 1.000000 0.731080 -0.127934 1.000000 0.753518 -0.103495 1.000000 0.774559 -0.081157 1.000000 0.788416 -0.057017 1.000000 0.800446 -0.035138 1.000000 0.805939 -0.010106 1.000000 0.808368 0.012314 1.000000 0.805071 0.039314 1.000000 0.796657 0.063165 1.000000 0.783608 0.092718 1.000000 0.762794 0.118450 1.000000 0.738778 0.150485 1.000000 0.704064 0.177938 1.000000 0.667958 0.211718 1.000000 0.618190 0.240106 1.000000 0.569254 0.274274 1.000000 0.503853 0.302243 1.000000 0.441967 0.334821 1.000000 0.361187 0.360514 1.000000 0.287069 0.388907 1.000000 0.192327 0.410041 1.000000 0.107762 0.431148 1.000000 0.001980 0.445199 1.000000 -0.090011 0.455723 1.000000 -0.202190 0.460231 1.000000 -0.297321 0.457198 1.000000 -0.409573 0.450162 1.000000 -0.502470 0.431566 1.000000 -0.607209 0.411868 1.000000 -0.691810 0.377300 1.000000 -0.780992 0.345058 1.000000 -0.851144 0.296157 1.000000 -0.917398 0.252958 1.000000 -0.967605 0.193474 1.000000 -1.005491 0.142395 1.000000 -1.031761 0.077719 1.000000 -1.038809 0.023012 1.000000 -1.039398 -0.040849 1.000000 -1.016496 -0.094475 1.000000 -0.992230 -0.152168 1.000000 -0.943111 -0.200511 1.000000 -0.897009 -0.248279 1.000000 -0.827117 -0.288342 1.000000 -0.763547 -0.324284 1.000000 -0.678864 -0.354433 1.000000 -0.602691 -0.378174 1.000000 -0.508932 -0.397895 1.000000 
-0.430297 -0.504645 1.000000 -0.327013 -0.515881 1.000000 -0.234526 -0.517054 1.000000 -0.132397 -0.516702 1.000000 -0.041317 -0.506736 1.000000 0.055634 -0.495995 1.000000 0.141319 -0.476684 1.000000 0.229565 -0.457212 1.000000 0.306363 -0.430745 1.000000 0.383102 -0.404809 1.000000 0.448437 -0.373847 1.000000 0.512047 -0.344199 1.000000 0.564733 -0.311558 1.000000 0.615110 -0.280887 1.000000 0.655473 -0.248827 1.000000 0.693836 -0.219030 1.000000 0.723240 -0.188607 1.000000 0.751385 -0.160421 1.000000 0.771486 -0.131351 1.000000 0.790921 -0.104455 1.000000 0.803027 -0.075490 1.000000 0.814362 -0.048856 1.000000 0.819026 -0.018387 1.000000 0.821762 0.009274 1.000000 0.818623 0.042591 1.000000 0.811333 0.072352 1.000000 0.799240 0.109155 1.000000 0.780017 0.141480 1.000000 0.757398 0.181557 1.000000 0.724340 0.216127 1.000000 0.689651 0.258476 1.000000 0.641191 0.294220 1.000000 0.593276 0.337136 1.000000 0.528400 0.372330 1.000000 0.466728 0.413382 1.000000 0.385232 0.445714 1.000000 0.310146 0.481690 1.000000 0.213038 0.508334 1.000000 0.126047 0.535340 1.000000 0.016010 0.553156 1.000000 -0.079946 0.566988 1.000000 -0.198203 0.572895 1.000000 -0.298657 0.569691 1.000000 -0.418367 0.561173 1.000000 -0.517492 0.538260 1.000000 -0.630238 0.513879 1.000000 -0.721275 0.470624 1.000000 -0.817899 0.430480 1.000000 -0.893833 0.368922 1.000000 -0.965766 0.314965 1.000000 -1.020207 0.239959 1.000000 -1.061032 0.176070 1.000000 -1.089257 0.094688 1.000000 -1.096080 0.026331 1.000000 -1.096033 -0.053539 1.000000 -1.070032 -0.120267 1.000000 -1.042801 -0.191729 1.000000 -0.988549 -0.251464 1.000000 -0.937831 -0.309906 1.000000 -0.861767 -0.358976 1.000000 -0.792705 -0.402320 1.000000 -0.701631 -0.438902 1.000000 -0.619717 -0.467032 1.000000 -0.519862 -0.490724 1.000000 
-0.450182 -0.602868 1.000000 -0.339697 -0.615294 1.000000 -0.240802 -0.615707 1.000000 -0.132395 -0.614234 1.000000 -0.035489 -0.601349 1.000000 0.066783 -0.587302 1.000000 0.157527 -0.563109 1.000000 0.249985 -0.538366 1.000000 0.330801 -0.505395 1.000000 0.410444 -0.472716 1.000000 0.478542 -0.434279 1.000000 0.543730 -0.397244 1.000000 0.598013 -0.357078 1.000000 0.649018 -0.319346 1.000000 0.690272 -0.280599 1.000000 0.729004 -0.244801 1.000000 0.759170 -0.209015 1.000000 0.788076 -0.176180 1.000000 0.809217 -0.143031 1.000000 0.830143 -0.112697 1.000000 0.843727 -0.080458 1.000000 0.857247 -0.051138 1.000000 0.863755 -0.017506 1.000000 0.869018 0.012717 1.000000 0.867809 0.049743 1.000000 0.862871 0.082548 1.000000 0.852376 0.124034 1.000000 0.834831 0.160292 1.000000 0.813055 0.206163 1.000000 0.780616 0.245685 1.000000 0.745682 0.294867 1.000000 0.696490 0.336482 1.000000 0.647005 0.387066 1.000000 0.579753 0.428791 1.000000 0.515008 0.477989 1.000000 0.429167 0.517095 1.000000 0.349367 0.561101 1.000000 0.245670 0.594140 1.000000 0.152285 0.628175 1.000000 0.033340 0.651192 1.000000 -0.070548 0.669936 1.000000 -0.199753 0.678942 1.000000 -0.309297 0.677362 1.000000 -0.441250 0.668997 1.000000 -0.549999 0.643437 1.000000 -0.675070 0.615651 1.000000 -0.775430 0.564961 1.000000 -0.882900 0.517616 1.000000 -0.966868 0.444024 1.000000 -1.046550 0.379332 1.000000 -1.106701 0.288741 1.000000 -1.150937 0.211444 1.000000 -1.181684 0.112766 1.000000 -1.187196 0.029788 1.000000 -1.186161 -0.066896 1.000000 -1.154830 -0.147707 1.000000 -1.123567 -0.233651 1.000000 -1.061412 -0.305482 1.000000 -1.004635 -0.375062 1.000000 -0.919634 -0.433468 1.000000 -0.843566 -0.484420 1.000000 -0.743662 -0.527421 1.000000 -0.654591 -0.559943 1.000000 -0.546622 -0.587316 1.000000 
-0.458359 -0.711570 1.000000 -0.339939 -0.725261 1.000000 -0.233560 -0.724356 1.000000 -0.118142 -0.722015 1.000000 -0.014504 -0.705914 1.000000 0.093742 -0.689010 1.000000 0.190101 -0.659886 1.000000 0.287108 -0.630486 1.000000 0.371819 -0.591204 1.000000 0.454008 -0.552551 1.000000 0.523675 -0.507134 1.000000 0.588997 -0.463670 1.000000 0.642363 -0.416846 1.000000 0.691307 -0.373146 1.000000 0.729723 -0.328813 1.000000 0.765111 -0.287928 1.000000 0.791542 -0.247678 1.000000 0.817038 -0.210468 1.000000 0.834627 -0.173419 1.000000 0.853137 -0.138965 1.000000 0.864215 -0.102594 1.000000 0.876923 -0.068883 1.000000 0.882474 -0.030158 1.000000 0.888585 0.005220 1.000000 0.888012 0.048738 1.000000 0.885168 0.087784 1.000000 0.876516 0.137195 1.000000 0.861673 0.180802 1.000000 0.842311 0.235771 1.000000 0.812568 0.283500 1.000000 0.779971 0.342602 1.000000 0.732926 0.392896 1.000000 0.685124 0.453874 1.000000 0.618881 0.504328 1.000000 0.554594 0.563967 1.000000 0.467929 0.611355 1.000000 0.386783 0.665187 1.000000 0.279726 0.705416 1.000000 0.182725 0.747671 1.000000 0.057414 0.775988 1.000000 -0.052536 0.800080 1.000000 -0.191105 0.811644 1.000000 -0.308915 0.811189 1.000000 -0.452593 0.801875 1.000000 -0.571126 0.772079 1.000000 -0.708990 0.739311 1.000000 -0.819583 0.678454 1.000000 -0.939089 0.621918 1.000000 -1.032378 0.532572 1.000000 -1.121282 0.454798 1.000000 -1.188346 0.344345 1.000000 -1.237223 0.251053 1.000000 -1.271144 0.130948 1.000000 -1.275938 0.030808 1.000000 -1.273729 -0.085904 1.000000 -1.236961 -0.182861 1.000000 -1.200743 -0.285147 1.000000 -1.130106 -0.370396 1.000000 -1.065949 -0.451684 1.000000 -0.971243 -0.520044 1.000000 -0.886763 -0.578291 1.000000 -0.777250 -0.627877 1.000000 -0.679699 -0.664072 1.000000 -0.562872 -0.695133 1.000000 
-0.480399 -0.825801 1.000000 -0.352575 -0.840093 1.000000 -0.237659 -0.837504 1.000000 -0.114066 -0.833289 1.000000 -0.002617 -0.813232 1.000000 0.112662 -0.791906 1.000000 0.215876 -0.756475 1.000000 0.318471 -0.720084 1.000000 0.408510 -0.672295 1.000000 0.494268 -0.624572 1.000000 0.567147 -0.569268 1.000000 0.633721 -0.515932 1.000000 0.688216 -0.459388 1.000000 0.736710 -0.406706 1.000000 0.775130 -0.354403 1.000000 0.809760 -0.306621 1.000000 0.836237 -0.260942 1.000000 0.861920 -0.219265 1.000000 0.880288 -0.179130 1.000000 0.900513 -0.142285 1.000000 0.913332 -0.104244 1.000000 0.929179 -0.069397 1.000000 0.937330 -0.029168 1.000000 0.947361 0.007179 1.000000 0.949797 0.053160 1.000000 0.950733 0.094044 1.000000 0.944784 0.147529 1.000000 0.932791 0.194496 1.000000 0.915130 0.255267 1.000000 0.886830 0.308024 1.000000 0.854462 0.374509 1.000000 0.807163 0.431329 1.000000 0.757842 0.501111 1.000000 0.689275 0.559321 1.000000 0.621468 0.628941 1.000000 0.529847 0.684906 1.000000 0.442894 0.749303 1.000000 0.327648 0.798199 1.000000 0.222362 0.850488 1.000000 0.085276 0.886453 1.000000 -0.035348 0.918455 1.000000 -0.189082 0.935321 1.000000 -0.319483 0.938851 1.000000 -0.480762 0.931208 1.000000 -0.612946 0.899834 1.000000 -0.769059 0.864108 1.000000 -0.893178 0.795059 1.000000 -1.029107 0.730411 1.000000 -1.134322 0.626217 1.000000 -1.235069 0.535300 1.000000 -1.310759 0.404683 1.000000 -1.364596 0.294243 1.000000 -1.402214 0.151481 1.000000 -1.404284 0.032372 1.000000 -1.400073 -0.105874 1.000000 -1.354279 -0.220692 1.000000 -1.311297 -0.340506 1.000000 -1.228119 -0.440275 1.000000 -1.154435 -0.533925 1.000000 -1.046375 -0.612653 1.000000 -0.951515 -0.678412 1.000000 -0.829550 -0.734485 1.000000 -0.721942 -0.774322 1.000000 -0.594211 -0.808657 1.000000 
-0.489884 -0.953206 1.000000 -0.351735 -0.968001 1.000000 -0.226862 -0.962865 1.000000 -0.093988 -0.957057 1.000000 0.026735 -0.932642 1.000000 0.150336 -0.907503 1.000000 0.261725 -0.865695 1.000000 0.371067 -0.823120 1.000000 0.467072 -0.767001 1.000000 0.556751 -0.711188 1.000000 0.631993 -0.646587 1.000000 0.698529 -0.584739 1.000000 0.751208 -0.519835 1.000000 0.795884 -0.460060 1.000000 0.829374 -0.401862 1.000000 0.858110 -0.349035 1.000000 0.878414 -0.299839 1.000000 0.898337 -0.254520 1.000000 0.911066 -0.212011 1.000000 0.927448 -0.172009 1.000000 0.936498 -0.131261 1.000000 0.951357 -0.092881 1.000000 0.958373 -0.048340 1.000000 0.970202 -0.007246 1.000000 0.974137 0.045366 1.000000 0.978771 0.092797 1.000000 0.976182 0.155137 1.000000 0.968617 0.210456 1.000000 0.955039 0.281732 1.000000 0.931019 0.344168 1.000000 0.902487 0.422269 1.000000 0.858763 0.489515 1.000000 0.812357 0.571762 1.000000 0.745985 0.640702 1.000000 0.679463 0.723395 1.000000 0.587615 0.789930 1.000000 0.499410 0.867386 1.000000 0.380284 0.925949 1.000000 0.270368 0.990042 1.000000 0.124805 1.033698 1.000000 -0.004222 1.074438 1.000000 -0.171239 1.095779 1.000000 -0.313530 1.102868 1.000000 -0.492093 1.095338 1.000000 -0.638685 1.060377 1.000000 -0.814204 1.019543 1.000000 -0.953710 0.938502 1.000000 -1.108324 0.863062 1.000000 -1.227901 0.738534 1.000000 -1.343168 0.631234 1.000000 -1.429791 0.473872 1.000000 -1.490739 0.342508 1.000000 -1.533363 0.170635 1.000000 -1.533573 0.028667 1.000000 -1.527082 -0.135909 1.000000 -1.471831 -0.271637 1.000000 -1.420550 -0.411308 1.000000 -1.323715 -0.527257 1.000000 -1.238492 -0.633428 1.000000 -1.115874 -0.722965 1.000000 -1.008715 -0.795116 1.000000 -0.873268 -0.857450 1.000000 -0.753965 -0.899411 1.000000 -0.614440 -0.936676 1.000000 
-0.511805 -1.088506 1.000000 -0.362319 -1.103114 1.000000 -0.226816 -1.095251 1.000000 -0.083959 -1.086887 1.000000 0.046791 -1.057555 1.000000 0.179440 -1.026896 1.000000 0.300047 -0.977207 1.000000 0.416926 -0.925432 1.000000 0.520157 -0.857978 1.000000 0.614369 -0.789492 1.000000 0.693236 -0.711047 1.000000 0.760081 -0.635147 1.000000 0.812461 -0.556744 1.000000 0.854212 -0.484872 1.000000 0.885649 -0.416629 1.000000 0.911238 -0.355660 1.000000 0.930174 -0.301169 1.000000 0.949124 -0.251917 1.000000 0.962134 -0.208241 1.000000 0.980547 -0.167717 1.000000 0.991694 -0.128153 1.000000 1.011279 -0.091271 1.000000 1.022092 -0.048014 1.000000 1.040142 -0.008585 1.000000 1.048871 0.044592 1.000000 1.059500 0.091999 1.000000 1.061417 0.157683 1.000000 1.058351 0.215639 1.000000 1.047803 0.292865 1.000000 1.026342 0.360576 1.000000 0.998790 0.446765 1.000000 0.955670 0.521459 1.000000 0.908051 0.613889 1.000000 0.839973 0.692215 1.000000 0.769769 0.787311 1.000000 0.672961 0.864958 1.000000 0.578042 0.956633 1.000000 0.449482 1.027241 1.000000 0.329302 1.105967 1.000000 0.168906 1.161043 1.000000 0.025991 1.214499 1.000000 -0.161363 1.244629 1.000000 -0.320597 1.259705 1.000000 -0.523901 1.256363 1.000000 -0.689352 1.221945 1.000000 -0.891513 1.179132 1.000000 -1.050219 1.089180 1.000000 -1.229581 1.004602 1.000000 -1.366672 0.861060 1.000000 -1.500166 0.737190 1.000000 -1.599969 0.552254 1.000000 -1.668209 0.397815 1.000000 -1.716478 0.194315 1.000000 -1.711156 0.026091 1.000000 -1.700718 -0.167616 1.000000 -1.629953 -0.327225 1.000000 -1.567170 -0.488622 1.000000 -1.450451 -0.622333 1.000000 -1.350321 -0.741766 1.000000 -1.208216 -0.842430 1.000000 -1.086121 -0.921018 1.000000 -0.933951 -0.989236 1.000000 -0.801257 -1.033149 1.000000 -0.648088 -1.072738 1.000000 
-0.520321 -1.238975 1.000000 -0.358547 -1.252990 1.000000 -0.210721 -1.241225 1.000000 -0.056397 -1.230664 1.000000 0.086583 -1.196041 1.000000 0.230513 -1.160760 1.000000 0.362968 -1.103181 1.000000 0.490042 -1.043230 1.000000 0.602703 -0.964444 1.000000 0.703343 -0.884266 1.000000 0.785943 -0.792300 1.000000 0.852400 -0.703965 1.000000 0.900998 -0.613966 1.000000 0.935469 -0.533247 1.000000 0.958014 -0.458888 1.000000 0.972944 -0.393560 1.000000 0.981481 -0.337725 1.000000 0.990522 -0.286479 1.000000 0.994460 -0.243434 1.000000 1.006654 -0.201570 1.000000 1.011988 -0.161993 1.000000 1.030461 -0.123280 1.000000 1.039948 -0.077203 1.000000 1.061623 -0.034025 1.000000 1.073473 0.026008 1.000000 1.090565 0.080251 1.000000 1.098493 0.156286 1.000000 1.102457 0.224071 1.000000 1.098630 0.313740 1.000000 1.083591 0.393180 1.000000 1.062055 0.492941 1.000000 1.024616 0.580255 1.000000 0.981857 0.687459 1.000000 0.918215 0.778984 1.000000 0.851026 0.890407 1.000000 0.755831 0.981656 1.000000 0.660602 1.090864 1.000000 0.528601 1.174689 1.000000 0.403175 1.270619 1.000000 0.232406 1.337008 1.000000 0.078465 1.404707 1.000000 -0.126885 1.442368 1.000000 -0.302602 1.465406 1.000000 -0.530630 1.464093 1.000000 -0.716649 1.427989 1.000000 -0.947668 1.380409 1.000000 -1.128920 1.276570 1.000000 -1.337057 1.179516 1.000000 -1.495961 1.009119 1.000000 -1.652499 0.864531 1.000000 -1.769770 0.641915 1.000000 -1.849119 0.459016 1.000000 -1.905596 0.213582 1.000000 -1.895873 0.012907 1.000000 -1.880783 -0.217112 1.000000 -1.793136 -0.405185 1.000000 -1.715926 -0.590810 1.000000 -1.577077 -0.744106 1.000000 -1.458761 -0.875662 1.000000 -1.295269 -0.987165 1.000000 -1.155627 -1.069382 1.000000 -0.985486 -1.142314 1.000000 -0.837535 -1.185273 1.000000 -0.669858 -1.226128 1.000000 
-0.538694 -1.399817 1.000000 -0.364601 -1.412715 1.000000 -0.204544 -1.397401 1.000000 -0.038851 -1.384191 1.000000 0.116574 -1.344466 1.000000 0.272144 -1.303281 1.000000 0.417361 -1.236735 1.000000 0.555411 -1.165167 1.000000 0.678804 -1.071280 1.000000 0.786163 -0.972731 1.000000 0.873122 -0.860104 1.000000 0.937962 -0.750203 1.000000 0.982665 -0.639812 1.000000 1.008730 -0.541888 1.000000 1.024735 -0.454104 1.000000 1.031730 -0.379128 1.000000 1.036514 -0.318746 1.000000 1.042571 -0.264896 1.000000 1.046094 -0.224373 1.000000 1.060922 -0.185246 1.000000 1.068798 -0.151960 1.000000 1.094759 -0.119231 1.000000 1.109913 -0.079176 1.000000 1.141800 -0.042109 1.000000 1.161494 0.015649 1.000000 1.188049 0.066979 1.000000 1.203460 0.145791 1.000000 1.214010 0.215501 1.000000 1.215119 0.311731 1.000000 1.203782 0.397152 1.000000 1.184128 0.505740 1.000000 1.148513 0.601657 1.000000 1.105131 0.720291 1.000000 1.041355 0.823046 1.000000 0.970889 0.949695 1.000000 0.871958 1.055382 1.000000 0.769624 1.183863 1.000000 0.627879 1.284668 1.000000 0.490277 1.402162 1.000000 0.301732 1.485753 1.000000 0.130121 1.573791 1.000000 -0.101831 1.625696 1.000000 -0.299982 1.663450 1.000000 -0.562387 1.670410 1.000000 -0.774035 1.638983 1.000000 -1.043882 1.591403 1.000000 -1.252024 1.478568 1.000000 -1.497848 1.371643 1.000000 -1.682509 1.176503 1.000000 -1.868033 1.010999 1.000000 -2.006247 0.748874 1.000000 -2.097043 0.533642 1.000000 -2.163176 0.241070 1.000000 -2.142230 0.001278 1.000000 -2.119216 -0.270353 1.000000 -2.003953 -0.492082 1.000000 -1.906361 -0.704681 1.000000 -1.735524 -0.879498 1.000000 -1.593545 -1.023573 1.000000 -1.402067 -1.145564 1.000000 -1.241357 -1.230802 1.000000 -1.049903 -1.307328 1.000000 -0.885110 -1.348776 1.000000 -0.701817 -1.389951 1.000000 
-0.543057 -1.576192 1.000000 -0.356108 -1.587140 1.000000 -0.182202 -1.566974 1.000000 -0.003494 -1.551781 1.000000 0.167408 -1.507036 1.000000 0.338112 -1.461547 1.000000 0.500874 -1.386448 1.000000 0.655237 -1.304673 1.000000 0.794789 -1.195197 1.000000 0.914120 -1.078584 1.000000 1.007977 -0.944099 1.000000 1.072161 -0.813508 1.000000 1.108737 -0.684734 1.000000 1.120603 -0.575318 1.000000 1.120212 -0.481888 1.000000 1.107676 -0.405338 1.000000 1.094988 -0.348565 1.000000 1.084007 -0.296060 1.000000 1.073046 -0.261785 1.000000 1.077819 -0.224274 1.000000 1.076571 -0.195829 1.000000 1.101627 -0.164394 1.000000 1.115260 -0.124244 1.000000 1.154449 -0.085607 1.000000 1.180389 -0.020241 1.000000 1.218394 0.038285 1.000000 1.244607 0.130325 1.000000 1.265943 0.212412 1.000000 1.277823 0.323969 1.000000 1.275183 0.424170 1.000000 1.264187 0.548210 1.000000 1.236891 0.659252 1.000000 1.201018 0.794617 1.000000 1.145519 0.913225 1.000000 1.081302 1.059804 1.000000 0.988084 1.182922 1.000000 0.888002 1.334944 1.000000 0.745163 1.454036 1.000000 0.602553 1.596765 1.000000 0.402457 1.697164 1.000000 0.216875 1.808271 1.000000 -0.038670 1.872470 1.000000 -0.259265 1.925962 1.000000 -0.556427 1.938146 1.000000 -0.796908 1.909484 1.000000 -1.109298 1.858398 1.000000 -1.349864 1.730537 1.000000 -1.640195 1.610001 1.000000 -1.857748 1.379304 1.000000 -2.080978 1.188270 1.000000 -2.248102 0.870925 1.000000 -2.357423 0.615946 1.000000 -2.438542 0.258769 1.000000 -2.407531 -0.031053 1.000000 -2.374408 -0.355389 1.000000 -2.227629 -0.618041 1.000000 -2.103496 -0.859239 1.000000 -1.896108 -1.056922 1.000000 -1.724924 -1.209119 1.000000 -1.502571 -1.339353 1.000000 -1.317422 -1.421546 1.000000 -1.103464 -1.498562 1.000000 -0.920142 -1.533359 1.000000 -0.720869 -1.572544 1.000000 
-0.553185 -1.764578 1.000000 -0.355280 -1.773571 1.000000 -0.169113 -1.750016 1.000000 0.021128 -1.733800 1.000000 0.206787 -1.686071 1.000000 0.392642 -1.636747 1.000000 0.574033 -1.553860 1.000000 0.746342 -1.459083 1.000000 0.904377 -1.330163 1.000000 1.036564 -1.185919 1.000000 1.137260 -1.018145 1.000000 1.196314 -0.850963 1.000000 1.219886 -0.688255 1.000000 1.210853 -0.553363 1.000000 1.194262 -0.441177 1.000000 1.164656 -0.353903 1.000000 1.145281 -0.295077 1.000000 1.128573 -0.242954 1.000000 1.116786 -0.218186 1.000000 1.125485 -0.188771 1.000000 1.126984 -0.175767 1.000000 1.164355 -0.157921 1.000000 1.186377 -0.131998 1.000000 1.243124 -0.107238 1.000000 1.282341 -0.048296 1.000000 1.335242 0.002761 1.000000 1.373971 0.098242 1.000000 1.403901 0.182285 1.000000 1.423097 0.302491 1.000000 1.424309 0.410788 1.000000 1.415595 0.544031 1.000000 1.391479 0.664826 1.000000 1.355781 0.811663 1.000000 1.303427 0.942762 1.000000 1.237555 1.107130 1.000000 1.144284 1.248682 1.000000 1.037968 1.426784 1.000000 0.887137 1.570117 1.000000 0.730867 1.744868 1.000000 0.510883 1.871431 1.000000 0.303110 2.014918 1.000000 0.013673 2.101836 1.000000 -0.236414 2.181207 1.000000 -0.580907 2.208053 1.000000 -0.855714 2.191854 1.000000 -1.224722 2.144359 1.000000 -1.502251 2.009466 1.000000 -1.850769 1.879528 1.000000 -2.105978 1.617285 1.000000 -2.377640 1.401352 1.000000 -2.579824 1.025319 1.000000 -2.709487 0.724081 1.000000 -2.810392 0.291178 1.000000 -2.755983 -0.062856 1.000000 -2.705862 -0.450256 1.000000 -2.507470 -0.762994 1.000000 -2.345048 -1.036202 1.000000 -2.085337 -1.258069 1.000000 -1.875947 -1.417110 1.000000 -1.614478 -1.553067 1.000000 -1.400530 -1.629909 1.000000 -1.161648 -1.704608 1.000000 -0.959007 -1.731371 1.000000 -0.744540 -1.767036 1.000000 