# vtk DataFile Version 2.0
Comment goes here
ASCII

DATASET STRUCTURED_POINTS
DIMENSIONS    64   64   1

ORIGIN    0.000   0.000   0.000
SPACING   0.0781250.078125   1.000

POINT_DATA   4096
SCALARS uMag double
LOOKUP_TABLE default

1.520693e-01 1.006637e-01 4.619160e-02 7.652165e-03 6.241537e-02 1.173458e-01 1.711649e-01 2.255435e-01 2.769089e-01 3.287693e-01 3.758770e-01 4.229869e-01 4.638281e-01 5.038644e-01 5.364105e-01 5.672082e-01 5.896315e-01 6.094293e-01 6.202825e-01 6.278927e-01 6.262124e-01 6.210935e-01 6.064460e-01 5.887016e-01 5.612139e-01 5.315533e-01 4.919466e-01 4.516276e-01 4.012406e-01 3.519958e-01 2.927766e-01 2.367264e-01 1.711794e-01 1.107344e-01 4.182101e-02 2.042213e-02 8.942785e-02 1.507970e-01 2.164954e-01 2.743608e-01 3.334522e-01 3.853503e-01 4.348842e-01 4.786442e-01 5.162698e-01 5.501378e-01 5.743190e-01 5.970755e-01 6.072250e-01 6.182764e-01 6.147672e-01 6.141783e-01 5.982080e-01 5.866415e-01 5.599700e-01 5.385280e-01 5.031577e-01 4.731695e-01 4.310580e-01 3.938883e-01 3.467613e-01 3.036918e-01 2.529808e-01 2.051842e-01 
1.606962e-01 1.137745e-01 7.126878e-02 5.480196e-02 8.280823e-02 1.288656e-01 1.789158e-01 2.309067e-01 2.807843e-01 3.314012e-01 3.775582e-01 4.237839e-01 4.638479e-01 5.031469e-01 5.349890e-01 5.651420e-01 5.869316e-01 6.061969e-01 6.165382e-01 6.237915e-01 6.218013e-01 6.165847e-01 6.019158e-01 5.844180e-01 5.572734e-01 5.282780e-01 4.894450e-01 4.502811e-01 4.011921e-01 3.537252e-01 2.966094e-01 2.434512e-01 1.821302e-01 1.287410e-01 7.845958e-02 6.814373e-02 1.085506e-01 1.606054e-01 2.215923e-01 2.764792e-01 3.337597e-01 3.841750e-01 4.328532e-01 4.758754e-01 5.131376e-01 5.467636e-01 5.708766e-01 5.937360e-01 6.039957e-01 6.153723e-01 6.120772e-01 6.119374e-01 5.962453e-01 5.851849e-01 5.588469e-01 5.379367e-01 5.029732e-01 4.735479e-01 4.319633e-01 3.954379e-01 3.490593e-01 3.068554e-01 2.573765e-01 2.111090e-01 
1.864333e-01 1.472236e-01 1.180771e-01 1.085916e-01 1.259746e-01 1.603820e-01 2.036455e-01 2.512534e-01 2.986136e-01 3.475784e-01 3.927786e-01 4.384982e-01 4.783367e-01 5.176887e-01 5.497079e-01 5.801825e-01 6.023802e-01 6.220621e-01 6.329278e-01 6.405823e-01 6.391390e-01 6.342469e-01 6.200723e-01 6.028149e-01 5.760847e-01 5.473187e-01 5.089036e-01 4.701670e-01 4.218149e-01 3.754691e-01 3.202898e-01 2.702677e-01 2.148085e-01 1.708421e-01 1.365553e-01 1.315226e-01 1.582632e-01 1.991092e-01 2.532356e-01 3.037606e-01 3.586546e-01 4.069524e-01 4.545564e-01 4.962593e-01 5.327751e-01 5.654192e-01 5.887812e-01 6.108339e-01 6.202638e-01 6.309505e-01 6.268008e-01 6.260753e-01 6.096208e-01 5.980985e-01 5.712279e-01 5.500295e-01 5.149014e-01 4.854462e-01 4.442173e-01 4.080697e-01 3.628107e-01 3.217234e-01 2.747072e-01 2.312360e-01 
2.225983e-01 1.910390e-01 1.708700e-01 1.643163e-01 1.771600e-01 2.028327e-01 2.388558e-01 2.803349e-01 3.234736e-01 3.689627e-01 4.116162e-01 4.552232e-01 4.933323e-01 5.312577e-01 5.619840e-01 5.914057e-01 6.126240e-01 6.315348e-01 6.417656e-01 6.489862e-01 6.473627e-01 6.425209e-01 6.287556e-01 6.122301e-01 5.866437e-01 5.595224e-01 5.231826e-01 4.873029e-01 4.423372e-01 4.005628e-01 3.509417e-01 3.082085e-01 2.621428e-01 2.289257e-01 2.047657e-01 2.007935e-01 2.182624e-01 2.472642e-01 2.913844e-01 3.337934e-01 3.834107e-01 4.269150e-01 4.718001e-01 5.107382e-01 5.458007e-01 5.770209e-01 5.995471e-01 6.210834e-01 6.299752e-01 6.407244e-01 6.362170e-01 6.358904e-01 6.192809e-01 6.083584e-01 5.816475e-01 5.612290e-01 5.267399e-01 4.983325e-01 4.584393e-01 4.238235e-01 3.809405e-01 3.423201e-01 2.993946e-01 2.602995e-01 
2.658408e-01 2.394103e-01 2.246411e-01 2.193890e-01 2.302896e-01 2.508073e-01 2.818534e-01 3.185469e-01 3.582551e-01 4.010371e-01 4.418542e-01 4.842762e-01 5.216097e-01 5.592726e-01 5.899100e-01 6.195741e-01 6.411651e-01 6.605544e-01 6.714750e-01 6.792540e-01 6.785160e-01 6.742450e-01 6.614446e-01 6.455220e-01 6.209175e-01 5.945678e-01 5.593230e-01 5.246923e-01 4.813264e-01 4.418343e-01 3.951454e-01 3.565157e-01 3.156713e-01 2.881622e-01 2.690632e-01 2.665616e-01 2.816851e-01 3.058006e-01 3.451924e-01 3.826965e-01 4.293010e-01 4.692376e-01 5.123213e-01 5.486601e-01 5.823110e-01 6.115846e-01 6.326539e-01 6.527189e-01 6.600034e-01 6.696389e-01 6.634965e-01 6.623378e-01 6.443162e-01 6.328315e-01 6.052196e-01 5.845755e-01 5.499654e-01 5.218098e-01 4.828239e-01 4.491658e-01 4.085093e-01 3.719325e-01 3.329719e-01 2.975681e-01 
3.146147e-01 2.925384e-01 2.820868e-01 2.779031e-01 2.879285e-01 3.047254e-01 3.317484e-01 3.637652e-01 3.996665e-01 4.388675e-01 4.768101e-01 5.167624e-01 5.519163e-01 5.878028e-01 6.166907e-01 6.449598e-01 6.651604e-01 6.834530e-01 6.934690e-01 7.005811e-01 6.996499e-01 6.954181e-01 6.833581e-01 6.685242e-01 6.457771e-01 6.219098e-01 5.898197e-01 5.593603e-01 5.206806e-01 4.872192e-01 4.469486e-01 4.158660e-01 3.824217e-01 3.615563e-01 3.465143e-01 3.440412e-01 3.550522e-01 3.721351e-01 4.040772e-01 4.335086e-01 4.743225e-01 5.079840e-01 5.474878e-01 5.796913e-01 6.112193e-01 6.381991e-01 6.578797e-01 6.770295e-01 6.832236e-01 6.928204e-01 6.857517e-01 6.850091e-01 6.663305e-01 6.554839e-01 6.277274e-01 6.079257e-01 5.739640e-01 5.470016e-01 5.097251e-01 4.778721e-01 4.402453e-01 4.064346e-01 3.720303e-01 3.406140e-01 
3.657679e-01 3.464018e-01 3.389515e-01 3.353002e-01 3.450937e-01 3.596065e-01 3.842419e-01 4.132404e-01 4.467176e-01 4.837764e-01 5.201208e-01 5.591024e-01 5.935261e-01 6.293475e-01 6.582123e-01 6.869671e-01 7.077173e-01 7.267618e-01 7.378004e-01 7.457442e-01 7.461613e-01 7.427379e-01 7.321194e-01 7.180537e-01 6.966153e-01 6.735837e-01 6.426229e-01 6.133309e-01 5.758513e-01 5.442544e-01 5.057329e-01 4.773988e-01 4.464473e-01 4.285153e-01 4.155999e-01 4.142980e-01 4.254035e-01 4.409818e-01 4.716087e-01 4.981064e-01 5.375497e-01 5.680036e-01 6.062727e-01 6.354844e-01 6.655421e-01 6.899617e-01 7.076522e-01 7.247533e-01 7.284598e-01 7.364719e-01 7.267377e-01 7.247700e-01 7.037344e-01 6.919863e-01 6.626667e-01 6.423773e-01 6.080143e-01 5.811526e-01 5.448498e-01 5.138901e-01 4.786873e-01 4.467371e-01 4.160788e-01 3.874229e-01 
4.216376e-01 4.048197e-01 4.003266e-01 3.974906e-01 4.077350e-01 4.207961e-01 4.438787e-01 4.703522e-01 5.016317e-01 5.363098e-01 5.705280e-01 6.076029e-01 6.400243e-01 6.742055e-01 7.010774e-01 7.282287e-01 7.470885e-01 7.645989e-01 7.742368e-01 7.810410e-01 7.810364e-01 7.773800e-01 7.676918e-01 7.548577e-01 7.358819e-01 7.159819e-01 6.890305e-01 6.648913e-01 6.328067e-01 6.079739e-01 5.756810e-01 5.544178e-01 5.289933e-01 5.158837e-01 5.050413e-01 5.035284e-01 5.117056e-01 5.220434e-01 5.469914e-01 5.661205e-01 6.002983e-01 6.239433e-01 6.585857e-01 6.828625e-01 7.106497e-01 7.322938e-01 7.483476e-01 7.644654e-01 7.666267e-01 7.747332e-01 7.634165e-01 7.619213e-01 7.395098e-01 7.282449e-01 6.981800e-01 6.784114e-01 6.443276e-01 6.182711e-01 5.835064e-01 5.539222e-01 5.215563e-01 4.917436e-01 4.649873e-01 4.391029e-01 
4.779318e-01 4.627005e-01 4.605493e-01 4.581923e-01 4.690930e-01 4.812998e-01 5.037214e-01 5.288322e-01 5.590878e-01 5.928379e-01 6.263295e-01 6.632842e-01 6.954794e-01 7.302382e-01 7.574003e-01 7.855689e-01 8.052931e-01 8.240183e-01 8.351575e-01 8.431795e-01 8.451663e-01 8.425551e-01 8.348833e-01 8.227883e-01 8.052849e-01 7.858309e-01 7.595227e-01 7.357842e-01 7.037068e-01 6.796256e-01 6.472687e-01 6.273757e-01 6.023825e-01 5.910665e-01 5.812608e-01 5.812266e-01 5.906796e-01 6.013897e-01 6.275144e-01 6.456178e-01 6.806478e-01 7.020805e-01 7.368751e-01 7.582644e-01 7.850479e-01 8.037400e-01 8.173897e-01 8.309331e-01 8.294935e-01 8.354831e-01 8.200388e-01 8.167195e-01 7.905412e-01 7.776705e-01 7.449705e-01 7.239849e-01 6.888539e-01 6.622320e-01 6.281012e-01 5.987964e-01 5.685446e-01 5.398819e-01 5.162466e-01 4.921027e-01 
5.389420e-01 5.253847e-01 5.258823e-01 5.245345e-01 5.369282e-01 5.492227e-01 5.720795e-01 5.967484e-01 6.268281e-01 6.600850e-01 6.929965e-01 7.294105e-01 7.604166e-01 7.941819e-01 8.192983e-01 8.457451e-01 8.628258e-01 8.793350e-01 8.881411e-01 8.941440e-01 8.951306e-01 8.916123e-01 8.849038e-01 8.739218e-01 8.594734e-01 8.437238e-01 8.222882e-01 8.047062e-01 7.786698e-01 7.621848e-01 7.359461e-01 7.232090e-01 7.027524e-01 6.957731e-01 6.870955e-01 6.867907e-01 6.934336e-01 6.993733e-01 7.204440e-01 7.312424e-01 7.614480e-01 7.755235e-01 8.070486e-01 8.229061e-01 8.477835e-01 8.635796e-01 8.757264e-01 8.886866e-01 8.853307e-01 8.919005e-01 8.739850e-01 8.711758e-01 8.424631e-01 8.294904e-01 7.949324e-01 7.734915e-01 7.377652e-01 7.108697e-01 6.776008e-01 6.486163e-01 6.205297e-01 5.929373e-01 5.723512e-01 5.498538e-01 
5.992300e-01 5.867844e-01 5.896395e-01 5.890647e-01 6.030227e-01 6.156496e-01 6.394137e-01 6.643714e-01 6.950994e-01 7.290753e-01 7.626284e-01 8.002845e-01 8.319079e-01 8.672000e-01 8.929539e-01 9.210686e-01 9.392186e-01 9.574614e-01 9.682754e-01 9.759577e-01 9.798603e-01 9.776762e-01 9.738842e-01 9.634957e-01 9.507069e-01 9.346309e-01 9.129811e-01 8.945141e-01 8.667611e-01 8.496069e-01 8.212387e-01 8.087599e-01 7.870331e-01 7.814820e-01 7.732677e-01 7.751614e-01 7.840907e-01 7.920520e-01 8.165443e-01 8.281202e-01 8.617397e-01 8.747528e-01 9.084626e-01 9.216596e-01 9.464904e-01 9.589499e-01 9.683234e-01 9.781774e-01 9.696619e-01 9.735361e-01 9.493099e-01 9.437844e-01 9.091807e-01 8.932923e-01 8.544616e-01 8.303604e-01 7.925494e-01 7.637934e-01 7.305336e-01 7.007541e-01 6.742820e-01 6.469195e-01 6.289020e-01 6.073429e-01 
6.638072e-01 6.526309e-01 6.583244e-01 6.592548e-01 6.759225e-01 6.901891e-01 7.165435e-01 7.434270e-01 7.766423e-01 8.128285e-01 8.483610e-01 8.878285e-01 9.199102e-01 9.554141e-01 9.791776e-01 1.005331e+00 1.019391e+00 1.034147e+00 1.040786e+00 1.044851e+00 1.046595e+00 1.042223e+00 1.039308e+00 1.029630e+00 1.020689e+00 1.009041e+00 9.934690e-01 9.825924e-01 9.618684e-01 9.537176e-01 9.317722e-01 9.272884e-01 9.097156e-01 9.087852e-01 9.010862e-01 9.027688e-01 9.084594e-01 9.114741e-01 9.306887e-01 9.342707e-01 9.631278e-01 9.677491e-01 9.987957e-01 1.005773e+00 1.029719e+00 1.039569e+00 1.048177e+00 1.058632e+00 1.047944e+00 1.053511e+00 1.025470e+00 1.020346e+00 9.812375e-01 9.637233e-01 9.210459e-01 8.943561e-01 8.543846e-01 8.233375e-01 7.897877e-01 7.586715e-01 7.334250e-01 7.058247e-01 6.900427e-01 6.691745e-01 
7.266436e-01 7.164741e-01 7.249423e-01 7.272678e-01 7.467346e-01 7.627947e-01 7.920801e-01 8.214423e-01 8.577992e-01 8.972550e-01 9.357499e-01 9.786248e-01 1.012594e+00 1.050692e+00 1.075032e+00 1.103159e+00 1.117726e+00 1.134368e+00 1.143175e+00 1.149316e+00 1.155379e+00 1.152837e+00 1.154590e+00 1.145477e+00 1.138746e+00 1.125690e+00 1.108731e+00 1.095117e+00 1.070334e+00 1.059740e+00 1.033161e+00 1.027943e+00 1.007351e+00 1.007944e+00 1.000281e+00 1.005365e+00 1.014458e+00 1.021505e+00 1.046632e+00 1.053079e+00 1.088538e+00 1.093390e+00 1.129525e+00 1.133945e+00 1.159518e+00 1.165423e+00 1.170991e+00 1.177843e+00 1.159732e+00 1.162193e+00 1.124521e+00 1.115405e+00 1.067207e+00 1.044301e+00 9.948528e-01 9.627747e-01 9.191785e-01 8.840675e-01 8.496675e-01 8.161992e-01 7.919975e-01 7.635757e-01 7.499289e-01 7.293733e-01 
7.923074e-01 7.832746e-01 7.950830e-01 7.996925e-01 8.234669e-01 8.430992e-01 8.778536e-01 9.123980e-01 9.553430e-01 1.001380e+00 1.046419e+00 1.095282e+00 1.132868e+00 1.173040e+00 1.195336e+00 1.220430e+00 1.227577e+00 1.237993e+00 1.238800e+00 1.238446e+00 1.240279e+00 1.233421e+00 1.236104e+00 1.227090e+00 1.225667e+00 1.218391e+00 1.209559e+00 1.205899e+00 1.189755e+00 1.190408e+00 1.170951e+00 1.175258e+00 1.158787e+00 1.164809e+00 1.157158e+00 1.162234e+00 1.167175e+00 1.168695e+00 1.187431e+00 1.184379e+00 1.214528e+00 1.209130e+00 1.243481e+00 1.240687e+00 1.267558e+00 1.271808e+00 1.278599e+00 1.288821e+00 1.268657e+00 1.275301e+00 1.231776e+00 1.222591e+00 1.166502e+00 1.138328e+00 1.081417e+00 1.042396e+00 9.939891e-01 9.531820e-01 9.168187e-01 8.797204e-01 8.556111e-01 8.254721e-01 8.132813e-01 7.925826e-01 
8.549925e-01 8.470977e-01 8.623652e-01 8.693242e-01 8.976486e-01 9.211761e-01 9.620318e-01 1.002704e+00 1.053463e+00 1.107795e+00 1.160736e+00 1.217259e+00 1.258954e+00 1.302384e+00 1.323547e+00 1.349135e+00 1.353586e+00 1.364348e+00 1.366005e+00 1.367603e+00 1.376097e+00 1.372265e+00 1.383635e+00 1.376079e+00 1.378582e+00 1.368767e+00 1.357082e+00 1.347983e+00 1.324400e+00 1.320102e+00 1.292520e+00 1.294906e+00 1.273167e+00 1.281037e+00 1.272849e+00 1.283048e+00 1.292535e+00 1.300833e+00 1.328373e+00 1.330994e+00 1.371901e+00 1.368322e+00 1.412068e+00 1.406426e+00 1.438023e+00 1.437174e+00 1.441290e+00 1.447852e+00 1.417187e+00 1.421515e+00 1.363537e+00 1.348877e+00 1.279129e+00 1.240539e+00 1.172756e+00 1.122911e+00 1.068380e+00 1.019786e+00 9.813862e-01 9.398109e-01 9.161056e-01 8.839918e-01 8.735397e-01 8.526474e-01 
9.175864e-01 9.108288e-01 9.300829e-01 9.403158e-01 9.750228e-01 1.004718e+00 1.055391e+00 1.106574e+00 1.171446e+00 1.240987e+00 1.310008e+00 1.381181e+00 1.432881e+00 1.480764e+00 1.498824e+00 1.516830e+00 1.504958e+00 1.502698e+00 1.487880e+00 1.477783e+00 1.478793e+00 1.467708e+00 1.481411e+00 1.473758e+00 1.485059e+00 1.484495e+00 1.485027e+00 1.490080e+00 1.477576e+00 1.487528e+00 1.467562e+00 1.481092e+00 1.463154e+00 1.477251e+00 1.468333e+00 1.478705e+00 1.482264e+00 1.483976e+00 1.502374e+00 1.492727e+00 1.526311e+00 1.509132e+00 1.552099e+00 1.537595e+00 1.574945e+00 1.574679e+00 1.585025e+00 1.601350e+00 1.570302e+00 1.585070e+00 1.518931e+00 1.503452e+00 1.420459e+00 1.368101e+00 1.285748e+00 1.219929e+00 1.155761e+00 1.095844e+00 1.053072e+00 1.004938e+00 9.800129e-01 9.446365e-01 9.348226e-01 9.130437e-01 
9.755398e-01 9.701271e-01 9.935646e-01 1.007324e+00 1.048935e+00 1.085693e+00 1.148037e+00 1.212688e+00 1.296078e+00 1.386588e+00 1.476784e+00 1.566805e+00 1.627630e+00 1.677101e+00 1.686482e+00 1.696943e+00 1.670681e+00 1.660969e+00 1.640511e+00 1.630112e+00 1.642231e+00 1.637855e+00 1.670997e+00 1.669795e+00 1.690451e+00 1.687623e+00 1.684194e+00 1.679805e+00 1.654624e+00 1.655222e+00 1.621044e+00 1.630008e+00 1.602535e+00 1.617798e+00 1.606225e+00 1.622994e+00 1.630784e+00 1.642369e+00 1.671719e+00 1.671306e+00 1.720388e+00 1.706874e+00 1.765461e+00 1.746736e+00 1.795012e+00 1.787210e+00 1.798015e+00 1.812669e+00 1.768313e+00 1.787038e+00 1.701337e+00 1.680982e+00 1.579658e+00 1.505998e+00 1.404571e+00 1.315849e+00 1.240146e+00 1.165739e+00 1.118850e+00 1.063428e+00 1.038051e+00 9.995206e-01 9.909115e-01 9.685008e-01 
1.028835e+00 1.024477e+00 1.052389e+00 1.070440e+00 1.121047e+00 1.167814e+00 1.247638e+00 1.333752e+00 1.448428e+00 1.575830e+00 1.706413e+00 1.833410e+00 1.918445e+00 1.973998e+00 1.974930e+00 1.960257e+00 1.890728e+00 1.848581e+00 1.791035e+00 1.759159e+00 1.760165e+00 1.747008e+00 1.790624e+00 1.792622e+00 1.832220e+00 1.849489e+00 1.868225e+00 1.885855e+00 1.875011e+00 1.891913e+00 1.862746e+00 1.881448e+00 1.854139e+00 1.873631e+00 1.857983e+00 1.873152e+00 1.869570e+00 1.871301e+00 1.883244e+00 1.864063e+00 1.898414e+00 1.863964e+00 1.921008e+00 1.889759e+00 1.952497e+00 1.949794e+00 1.979894e+00 2.019764e+00 1.983243e+00 2.031087e+00 1.939799e+00 1.921418e+00 1.801769e+00 1.695161e+00 1.562688e+00 1.437699e+00 1.341359e+00 1.245705e+00 1.190297e+00 1.124712e+00 1.096434e+00 1.053153e+00 1.044129e+00 1.020109e+00 
1.075473e+00 1.072472e+00 1.104927e+00 1.127711e+00 1.188321e+00 1.247477e+00 1.350159e+00 1.467271e+00 1.628896e+00 1.814650e+00 2.007623e+00 2.189550e+00 2.298402e+00 2.345076e+00 2.310551e+00 2.260700e+00 2.139021e+00 2.059540e+00 1.972298e+00 1.930080e+00 1.952588e+00 1.959966e+00 2.056840e+00 2.087085e+00 2.153755e+00 2.176143e+00 2.193583e+00 2.195368e+00 2.163110e+00 2.160215e+00 2.102595e+00 2.107302e+00 2.057814e+00 2.070504e+00 2.041373e+00 2.057050e+00 2.047093e+00 2.056683e+00 2.072647e+00 2.063515e+00 2.113237e+00 2.082517e+00 2.161479e+00 2.120937e+00 2.207338e+00 2.190643e+00 2.234877e+00 2.282142e+00 2.236716e+00 2.317364e+00 2.211679e+00 2.205553e+00 2.073555e+00 1.921719e+00 1.747222e+00 1.568090e+00 1.443399e+00 1.319114e+00 1.254106e+00 1.177186e+00 1.146690e+00 1.099016e+00 1.090083e+00 1.064904e+00 
1.111485e+00 1.109099e+00 1.146002e+00 1.174134e+00 1.247457e+00 1.323893e+00 1.460456e+00 1.626543e+00 1.865589e+00 2.151617e+00 2.456124e+00 2.741178e+00 2.907301e+00 2.954971e+00 2.893794e+00 2.760043e+00 2.512113e+00 2.342953e+00 2.166056e+00 2.084028e+00 2.100496e+00 2.115404e+00 2.261591e+00 2.312730e+00 2.428010e+00 2.503955e+00 2.568918e+00 2.605432e+00 2.590061e+00 2.597052e+00 2.529762e+00 2.530057e+00 2.464196e+00 2.466508e+00 2.417979e+00 2.418460e+00 2.375131e+00 2.359511e+00 2.326635e+00 2.276979e+00 2.280692e+00 2.207312e+00 2.269404e+00 2.203994e+00 2.318295e+00 2.312029e+00 2.410854e+00 2.520139e+00 2.515810e+00 2.687522e+00 2.610441e+00 2.638295e+00 2.500580e+00 2.275705e+00 2.021437e+00 1.753095e+00 1.574401e+00 1.407044e+00 1.323087e+00 1.230435e+00 1.193738e+00 1.139530e+00 1.128250e+00 1.100463e+00 
1.139044e+00 1.137667e+00 1.178883e+00 1.213368e+00 1.301560e+00 1.401263e+00 1.585579e+00 1.827815e+00 2.192891e+00 2.649017e+00 3.142703e+00 3.592422e+00 3.817740e+00 3.800504e+00 3.616975e+00 3.388469e+00 2.990612e+00 2.690987e+00 2.410214e+00 2.287197e+00 2.360888e+00 2.457297e+00 2.774532e+00 2.934962e+00 3.126761e+00 3.232099e+00 3.305460e+00 3.309065e+00 3.254736e+00 3.215432e+00 3.086022e+00 3.047782e+00 2.928520e+00 2.895797e+00 2.799073e+00 2.763657e+00 2.664747e+00 2.624008e+00 2.543862e+00 2.482980e+00 2.468865e+00 2.387756e+00 2.461090e+00 2.368875e+00 2.527326e+00 2.481242e+00 2.639736e+00 2.775512e+00 2.794837e+00 3.103948e+00 3.067480e+00 3.207545e+00 3.122751e+00 2.800650e+00 2.420682e+00 2.003778e+00 1.735422e+00 1.501578e+00 1.389573e+00 1.277012e+00 1.232743e+00 1.171927e+00 1.157913e+00 1.127916e+00 
1.149288e+00 1.147861e+00 1.193221e+00 1.235371e+00 1.343306e+00 1.476958e+00 1.733801e+00 2.097760e+00 2.666969e+00 3.396992e+00 4.185880e+00 4.888392e+00 5.191710e+00 5.110918e+00 4.855647e+00 4.394646e+00 3.675800e+00 3.171760e+00 2.692082e+00 2.508645e+00 2.644898e+00 2.869113e+00 3.383498e+00 3.593775e+00 3.878100e+00 4.111717e+00 4.272294e+00 4.313036e+00 4.268356e+00 4.210166e+00 4.036231e+00 3.965601e+00 3.802464e+00 3.731742e+00 3.592026e+00 3.504231e+00 3.325948e+00 3.216317e+00 3.005355e+00 2.844750e+00 2.684642e+00 2.503732e+00 2.474729e+00 2.320109e+00 2.492426e+00 2.435759e+00 2.726078e+00 2.967420e+00 3.116788e+00 3.684490e+00 3.811695e+00 4.154406e+00 4.169517e+00 3.703269e+00 3.080276e+00 2.412842e+00 1.976479e+00 1.635273e+00 1.470236e+00 1.326901e+00 1.266802e+00 1.195265e+00 1.174563e+00 1.140067e+00 
1.150309e+00 1.149870e+00 1.199679e+00 1.252385e+00 1.384678e+00 1.565281e+00 1.924382e+00 2.470843e+00 3.351856e+00 4.495977e+00 5.729755e+00 6.769696e+00 7.067193e+00 6.581137e+00 5.961824e+00 5.469894e+00 4.524619e+00 3.728353e+00 2.999015e+00 2.725339e+00 3.055481e+00 3.579559e+00 4.568811e+00 5.047736e+00 5.416492e+00 5.629907e+00 5.735963e+00 5.654060e+00 5.516125e+00 5.363524e+00 5.075926e+00 4.962111e+00 4.739769e+00 4.631090e+00 4.440552e+00 4.270310e+00 3.984305e+00 3.788226e+00 3.444383e+00 3.231973e+00 2.998801e+00 2.808554e+00 2.758221e+00 2.571726e+00 2.792295e+00 2.609946e+00 3.035666e+00 3.217218e+00 3.411063e+00 4.313551e+00 4.568096e+00 5.382394e+00 5.819281e+00 5.198585e+00 4.182440e+00 3.074832e+00 2.344380e+00 1.822355e+00 1.569023e+00 1.380638e+00 1.296809e+00 1.212587e+00 1.182707e+00 1.143873e+00 
1.126718e+00 1.126617e+00 1.181312e+00 1.247578e+00 1.412107e+00 1.658909e+00 2.163892e+00 2.968038e+00 4.276346e+00 5.940142e+00 7.670977e+00 8.949233e+00 8.878472e+00 7.971448e+00 7.272454e+00 6.394805e+00 5.082461e+00 4.174217e+00 3.155727e+00 2.846310e+00 3.507997e+00 4.525384e+00 5.816142e+00 5.933376e+00 6.101933e+00 6.390006e+00 6.522011e+00 6.382974e+00 6.199215e+00 5.983653e+00 5.610825e+00 5.481545e+00 5.271031e+00 5.190789e+00 5.075159e+00 4.927191e+00 4.666709e+00 4.491956e+00 4.090380e+00 3.804193e+00 3.481001e+00 3.200116e+00 3.037528e+00 2.840169e+00 3.028040e+00 2.836577e+00 3.470741e+00 3.513062e+00 3.865655e+00 5.045884e+00 5.428962e+00 6.750506e+00 7.961116e+00 7.431465e+00 5.882327e+00 4.123162e+00 2.915301e+00 2.107580e+00 1.705739e+00 1.444826e+00 1.320733e+00 1.215846e+00 1.171199e+00 1.125052e+00 
1.093725e+00 1.096555e+00 1.157702e+00 1.242592e+00 1.443319e+00 1.767550e+00 2.433115e+00 3.521279e+00 5.300036e+00 7.519226e+00 9.796516e+00 1.118186e+01 1.030774e+01 7.332573e+00 5.415268e+00 6.263293e+00 5.630044e+00 4.203233e+00 2.793300e+00 2.328109e+00 3.398973e+00 4.769210e+00 5.992867e+00 5.989572e+00 5.634228e+00 4.988392e+00 4.833401e+00 4.588133e+00 4.401110e+00 4.359932e+00 3.940364e+00 3.916768e+00 3.926972e+00 4.078872e+00 4.383694e+00 4.609252e+00 4.709713e+00 4.997840e+00 5.014908e+00 5.145542e+00 5.172707e+00 5.270825e+00 5.052512e+00 4.996943e+00 4.992144e+00 4.434844e+00 5.310668e+00 4.436100e+00 4.773701e+00 5.977377e+00 4.897552e+00 6.376272e+00 9.845917e+00 1.003846e+01 8.110798e+00 5.520101e+00 3.663126e+00 2.474159e+00 1.869590e+00 1.519195e+00 1.341593e+00 1.213683e+00 1.150216e+00 1.097347e+00 
1.026786e+00 1.032686e+00 1.099648e+00 1.202766e+00 1.436166e+00 1.834651e+00 2.650290e+00 4.007536e+00 6.258477e+00 9.026967e+00 1.186699e+01 1.209959e+01 7.589274e+00 3.500851e+00 1.251954e+00 3.395942e+00 4.795345e+00 4.165767e+00 2.201776e+00 1.239965e+00 2.750157e+00 4.662627e+00 3.921913e+00 1.758126e+00 2.560257e+00 4.272999e+00 4.922581e+00 5.729458e+00 6.057394e+00 6.362190e+00 6.380009e+00 6.349177e+00 6.375327e+00 6.783187e+00 7.296707e+00 8.265366e+00 8.752737e+00 9.760086e+00 9.841705e+00 1.029062e+01 9.810275e+00 1.009321e+01 8.956087e+00 9.182866e+00 8.458640e+00 7.571084e+00 8.667364e+00 6.430835e+00 7.712558e+00 7.605273e+00 5.374376e+00 7.224986e+00 9.219893e+00 1.112144e+01 1.009288e+01 6.959763e+00 4.452103e+00 2.861777e+00 2.029494e+00 1.576688e+00 1.336814e+00 1.181218e+00 1.096696e+00 1.035933e+00 
9.494228e-01 9.619051e-01 1.036144e+00 1.158865e+00 1.413255e+00 1.858894e+00 2.730504e+00 4.203019e+00 6.610294e+00 9.697625e+00 1.295496e+01 1.325332e+01 5.639067e+00 4.269531e+00 2.349164e+00 2.269662e+00 5.243492e+00 4.116022e+00 3.506914e+00 2.752572e+00 4.555316e+00 5.996232e+00 9.518364e+00 1.452234e+01 1.455754e+01 1.425870e+01 1.321080e+01 1.239674e+01 1.153014e+01 1.067607e+01 9.853942e+00 9.385372e+00 8.958022e+00 9.097316e+00 9.094604e+00 9.376896e+00 9.068279e+00 9.008139e+00 7.925293e+00 7.144677e+00 5.899738e+00 5.171099e+00 4.059278e+00 4.378938e+00 3.511071e+00 4.264334e+00 4.491825e+00 3.293737e+00 5.911044e+00 3.003918e+00 3.031667e+00 4.617989e+00 4.615499e+00 1.215362e+01 1.093098e+01 7.591254e+00 4.748113e+00 3.057164e+00 2.101899e+00 1.603187e+00 1.311738e+00 1.135502e+00 1.029436e+00 9.629805e-01 
8.303453e-01 8.504010e-01 9.279201e-01 1.058490e+00 1.299695e+00 1.725389e+00 2.505771e+00 3.857837e+00 5.983385e+00 8.935162e+00 1.207753e+01 1.432765e+01 1.241007e+01 9.382538e+00 6.216761e+00 4.890504e+00 4.360320e+00 5.436009e+00 6.899453e+00 6.000099e+00 8.385814e+00 1.173963e+01 1.410552e+01 1.459581e+01 1.240564e+01 1.108120e+01 9.939867e+00 8.972089e+00 7.945213e+00 7.175651e+00 6.259422e+00 5.778405e+00 5.432767e+00 5.252516e+00 5.169050e+00 5.009047e+00 4.849086e+00 4.780622e+00 4.844616e+00 4.771321e+00 5.112471e+00 5.283110e+00 5.296032e+00 5.784165e+00 5.681611e+00 5.846704e+00 6.648248e+00 5.944586e+00 6.681949e+00 7.593365e+00 5.896867e+00 7.447122e+00 1.077416e+01 1.302794e+01 1.011956e+01 6.911690e+00 4.336968e+00 2.868453e+00 1.984624e+00 1.515902e+00 1.215304e+00 1.032303e+00 9.140475e-01 8.452589e-01 
7.038610e-01 7.347838e-01 8.188310e-01 9.556654e-01 1.177400e+00 1.556096e+00 2.203191e+00 3.324479e+00 5.042442e+00 7.515008e+00 1.024396e+01 1.286908e+01 1.343928e+01 1.144193e+01 9.908009e+00 7.908829e+00 5.092413e+00 8.415624e+00 9.583121e+00 6.992948e+00 7.730386e+00 1.106831e+01 1.111986e+01 8.054874e+00 6.297310e+00 5.527018e+00 5.015450e+00 4.649781e+00 4.113174e+00 3.906485e+00 3.448741e+00 3.164993e+00 3.043043e+00 2.929277e+00 3.168784e+00 3.557513e+00 4.110832e+00 4.799644e+00 5.438633e+00 6.006159e+00 6.405596e+00 6.975918e+00 7.067897e+00 7.738774e+00 8.053499e+00 8.305564e+00 9.506117e+00 9.364151e+00 1.033784e+01 1.135074e+01 1.051911e+01 1.180246e+01 1.266955e+01 1.119445e+01 8.288209e+00 5.704053e+00 3.735806e+00 2.581854e+00 1.838558e+00 1.413280e+00 1.113361e+00 9.216052e-01 7.902078e-01 7.181575e-01 
5.450725e-01 5.947279e-01 6.915793e-01 8.373533e-01 1.035984e+00 1.355981e+00 1.852141e+00 2.707423e+00 3.993586e+00 5.898627e+00 8.141343e+00 1.049473e+01 1.188733e+01 1.127851e+01 1.116085e+01 1.020931e+01 6.607387e+00 8.451271e+00 8.051645e+00 7.251033e+00 1.074028e+01 1.320540e+01 1.065179e+01 6.517959e+00 5.770148e+00 4.719791e+00 4.426543e+00 4.014169e+00 3.665788e+00 3.447376e+00 3.054908e+00 2.717583e+00 2.463164e+00 2.212687e+00 2.279068e+00 2.531890e+00 2.991528e+00 3.634017e+00 4.251355e+00 4.939834e+00 5.428888e+00 6.092529e+00 6.371417e+00 6.950425e+00 7.332763e+00 7.596385e+00 8.429038e+00 8.565810e+00 9.177481e+00 9.897239e+00 9.639804e+00 1.034777e+01 1.061565e+01 8.763254e+00 6.538556e+00 4.616277e+00 3.199960e+00 2.298026e+00 1.685156e+00 1.285893e+00 9.881622e-01 7.792290e-01 6.326383e-01 5.541630e-01 
3.847744e-01 4.606250e-01 5.760186e-01 7.306119e-01 9.111447e-01 1.176427e+00 1.547019e+00 2.161033e+00 3.067826e+00 4.419224e+00 6.110959e+00 7.997921e+00 9.629262e+00 1.034714e+01 1.157797e+01 1.240760e+01 9.969553e+00 8.574974e+00 9.865082e+00 9.730080e+00 1.454891e+01 9.470364e+00 7.570619e+00 5.694426e+00 5.610100e+00 4.790486e+00 4.923315e+00 4.688822e+00 4.520594e+00 4.248111e+00 3.856795e+00 3.429128e+00 2.993631e+00 2.458289e+00 2.057804e+00 1.694750e+00 1.700851e+00 2.058479e+00 2.547574e+00 3.201946e+00 3.676464e+00 4.325533e+00 4.682341e+00 5.240997e+00 5.689334e+00 6.045325e+00 6.745588e+00 7.013548e+00 7.526602e+00 8.005264e+00 7.950486e+00 8.299621e+00 8.208662e+00 6.699525e+00 5.182764e+00 3.794387e+00 2.800728e+00 2.074440e+00 1.562827e+00 1.176198e+00 8.795121e-01 6.479178e-01 4.797183e-01 3.860958e-01 
2.189841e-01 3.484001e-01 4.944406e-01 6.667055e-01 8.427916e-01 1.079769e+00 1.375762e+00 1.836097e+00 2.499278e+00 3.473245e+00 4.781832e+00 6.294809e+00 7.989091e+00 9.441545e+00 1.171081e+01 1.482518e+01 1.730203e+01 1.797732e+01 1.329206e+01 1.383952e+01 8.054088e+00 9.466447e-02 2.482017e+00 3.426078e+00 4.733365e+00 5.160603e+00 5.761935e+00 5.657713e+00 5.529329e+00 5.172914e+00 4.754667e+00 4.245929e+00 3.719895e+00 3.058850e+00 2.442801e+00 1.676334e+00 1.091586e+00 8.382279e-01 1.239497e+00 1.963005e+00 2.526831e+00 3.219364e+00 3.670069e+00 4.204396e+00 4.673051e+00 5.024701e+00 5.588149e+00 5.888611e+00 6.264115e+00 6.631073e+00 6.643950e+00 6.793975e+00 6.631443e+00 5.503509e+00 4.448733e+00 3.369388e+00 2.607162e+00 1.962153e+00 1.501325e+00 1.107610e+00 8.042789e-01 5.414228e-01 3.376431e-01 2.010114e-01 
1.156565e-01 2.937894e-01 4.532831e-01 6.285149e-01 7.990678e-01 1.019518e+00 1.283059e+00 1.679927e+00 2.245544e+00 3.071825e+00 4.222300e+00 5.596449e+00 7.285739e+00 9.002754e+00 1.164928e+01 1.574347e+01 2.057319e+01 2.434500e+01 2.213375e+01 1.119400e+01 2.463335e-01 2.267866e+00 3.073882e-01 2.229261e+00 4.594152e+00 5.410264e+00 6.107998e+00 6.017504e+00 5.896426e+00 5.519464e+00 5.101470e+00 4.581887e+00 4.044899e+00 3.368859e+00 2.719475e+00 1.888308e+00 1.147531e+00 2.474789e-01 4.794098e-01 1.327477e+00 1.926188e+00 2.646453e+00 3.129282e+00 3.692121e+00 4.200932e+00 4.601513e+00 5.187760e+00 5.523476e+00 5.925664e+00 6.262355e+00 6.299948e+00 6.391724e+00 6.175217e+00 5.149891e+00 4.221744e+00 3.230052e+00 2.535715e+00 1.914420e+00 1.470238e+00 1.075527e+00 7.711520e-01 4.972071e-01 2.726736e-01 6.383847e-02 
2.189841e-01 3.484001e-01 4.944406e-01 6.667055e-01 8.427916e-01 1.079769e+00 1.375762e+00 1.836097e+00 2.499278e+00 3.473245e+00 4.781832e+00 6.294809e+00 7.989091e+00 9.441545e+00 1.171081e+01 1.482518e+01 1.730203e+01 1.797732e+01 1.329206e+01 1.383952e+01 8.054088e+00 9.466447e-02 2.482017e+00 3.426078e+00 4.733365e+00 5.160603e+00 5.761935e+00 5.657713e+00 5.529329e+00 5.172914e+00 4.754667e+00 4.245929e+00 3.719895e+00 3.058850e+00 2.442801e+00 1.676334e+00 1.091586e+00 8.382279e-01 1.239497e+00 1.963005e+00 2.526831e+00 3.219364e+00 3.670069e+00 4.204396e+00 4.673051e+00 5.024701e+00 5.588149e+00 5.888611e+00 6.264115e+00 6.631073e+00 6.643950e+00 6.793975e+00 6.631443e+00 5.503509e+00 4.448733e+00 3.369388e+00 2.607162e+00 1.962153e+00 1.501325e+00 1.107610e+00 8.042789e-01 5.414228e-01 3.376431e-01 2.010114e-01 
3.847744e-01 4.606250e-01 5.760186e-01 7.306119e-01 9.111447e-01 1.176427e+00 1.547019e+00 2.161033e+00 3.067826e+00 4.419224e+00 6.110959e+00 7.997921e+00 9.629262e+00 1.034714e+01 1.157797e+01 1.240760e+01 9.969553e+00 8.574974e+00 9.865082e+00 9.730080e+00 1.454891e+01 9.470364e+00 7.570619e+00 5.694426e+00 5.610100e+00 4.790486e+00 4.923315e+00 4.688822e+00 4.520594e+00 4.248111e+00 3.856795e+00 3.429128e+00 2.993631e+00 2.458289e+00 2.057804e+00 1.694750e+00 1.700851e+00 2.058479e+00 2.547574e+00 3.201946e+00 3.676464e+00 4.325533e+00 4.682341e+00 5.240997e+00 5.689334e+00 6.045325e+00 6.745588e+00 7.013548e+00 7.526602e+00 8.005264e+00 7.950486e+00 8.299621e+00 8.208662e+00 6.699525e+00 5.182764e+00 3.794387e+00 2.800728e+00 2.074440e+00 1.562827e+00 1.176198e+00 8.795121e-01 6.479178e-01 4.797183e-01 3.860958e-01 