# vtk DataFile Version 2.0
Comment goes here
ASCII

DATASET STRUCTURED_POINTS
DIMENSIONS    64   64   1

ORIGIN    0.000   0.000   0.000
SPACING   0.0781250.078125   1.000

POINT_DATA   4096
SCALARS uMag double
LOOKUP_TABLE default

2.434854e-01 2.794419e-01 3.084333e-01 3.411030e-01 3.664852e-01 3.943489e-01 4.147511e-01 4.358842e-01 4.496280e-01 4.618819e-01 4.671939e-01 4.685504e-01 4.639148e-01 4.529647e-01 4.375482e-01 4.139652e-01 3.879808e-01 3.528071e-01 3.176572e-01 2.732515e-01 2.313514e-01 1.809829e-01 1.353070e-01 8.253871e-02 3.605997e-02 1.585122e-02 6.061436e-02 1.091092e-01 1.502990e-01 1.936291e-01 2.300056e-01 2.671171e-01 2.978667e-01 3.281688e-01 3.526955e-01 3.758287e-01 3.936213e-01 4.093030e-01 4.199112e-01 4.278855e-01 4.309803e-01 4.310574e-01 4.265262e-01 4.186742e-01 4.067036e-01 3.911516e-01 3.722739e-01 3.495906e-01 3.246870e-01 2.958064e-01 2.660602e-01 2.322300e-01 1.990194e-01 1.616638e-01 1.263984e-01 8.692640e-02 5.086845e-02 1.049815e-02 2.536154e-02 6.568565e-02 1.006420e-01 1.402015e-01 1.737349e-01 2.118826e-01 
2.493308e-01 2.851212e-01 3.138981e-01 3.465599e-01 3.717761e-01 3.997049e-01 4.199462e-01 4.411603e-01 4.547287e-01 4.670299e-01 4.721486e-01 4.734760e-01 4.686402e-01 4.575604e-01 4.419630e-01 4.181635e-01 3.920644e-01 3.566663e-01 3.215587e-01 2.771257e-01 2.356615e-01 1.860463e-01 1.421397e-01 9.385360e-02 5.899316e-02 5.234139e-02 8.024907e-02 1.227546e-01 1.613756e-01 2.032025e-01 2.385695e-01 2.748651e-01 3.049613e-01 3.345961e-01 3.585722e-01 3.810952e-01 3.983818e-01 4.135259e-01 4.236742e-01 4.312195e-01 4.339196e-01 4.336994e-01 4.288563e-01 4.208387e-01 4.086478e-01 3.930421e-01 3.740371e-01 3.513879e-01 3.264553e-01 2.976928e-01 2.680499e-01 2.344809e-01 2.016295e-01 1.649254e-01 1.307395e-01 9.348702e-02 6.227210e-02 3.905406e-02 4.703754e-02 7.788866e-02 1.098619e-01 1.477619e-01 1.804687e-01 2.180915e-01 
2.551663e-01 2.899184e-01 3.180752e-01 3.503109e-01 3.753366e-01 4.032684e-01 4.236584e-01 4.451995e-01 4.592048e-01 4.720674e-01 4.778675e-01 4.799080e-01 4.759565e-01 4.656888e-01 4.511558e-01 4.282907e-01 4.034723e-01 3.692973e-01 3.358625e-01 2.933767e-01 2.544931e-01 2.086729e-01 1.698317e-01 1.304554e-01 1.057383e-01 9.952443e-02 1.137372e-01 1.448145e-01 1.766904e-01 2.142503e-01 2.467481e-01 2.812262e-01 3.100094e-01 3.388833e-01 3.623594e-01 3.846859e-01 4.019427e-01 4.172098e-01 4.275868e-01 4.354190e-01 4.384684e-01 4.385982e-01 4.341525e-01 4.264955e-01 4.147370e-01 3.995000e-01 3.809987e-01 3.587768e-01 3.345028e-01 3.063475e-01 2.776765e-01 2.451508e-01 2.139292e-01 1.793241e-01 1.483664e-01 1.161482e-01 9.246447e-02 7.745755e-02 8.094758e-02 1.008377e-01 1.264109e-01 1.596019e-01 1.896924e-01 2.252005e-01 
2.719144e-01 3.056157e-01 3.329349e-01 3.648935e-01 3.895217e-01 4.176963e-01 4.379907e-01 4.601021e-01 4.742307e-01 4.878035e-01 4.938936e-01 4.966068e-01 4.930912e-01 4.833443e-01 4.694174e-01 4.469537e-01 4.230165e-01 3.893997e-01 3.573861e-01 3.162704e-01 2.799583e-01 2.376244e-01 2.037343e-01 1.715397e-01 1.531384e-01 1.492755e-01 1.588884e-01 1.831384e-01 2.090524e-01 2.420045e-01 2.708932e-01 3.025602e-01 3.290862e-01 3.560190e-01 3.779802e-01 3.988855e-01 4.150851e-01 4.293480e-01 4.389875e-01 4.462015e-01 4.487691e-01 4.486351e-01 4.439420e-01 4.363248e-01 4.245568e-01 4.096055e-01 3.913546e-01 3.696374e-01 3.459330e-01 3.185679e-01 2.909428e-01 2.597574e-01 2.304410e-01 1.983872e-01 1.710243e-01 1.437746e-01 1.258570e-01 1.154550e-01 1.185042e-01 1.333686e-01 1.542283e-01 1.830233e-01 2.102813e-01 2.434966e-01 
2.880907e-01 3.200340e-01 3.462201e-01 3.775167e-01 4.017742e-01 4.301439e-01 4.507025e-01 4.736667e-01 4.886087e-01 5.034784e-01 5.108534e-01 5.150827e-01 5.132427e-01 5.050600e-01 4.931354e-01 4.722772e-01 4.506733e-01 4.189650e-01 3.897645e-01 3.514181e-01 3.187055e-01 2.806221e-01 2.510877e-01 2.235972e-01 2.070903e-01 2.017684e-01 2.055788e-01 2.225196e-01 2.412213e-01 2.684271e-01 2.925052e-01 3.207901e-01 3.446212e-01 3.697623e-01 3.904709e-01 4.106071e-01 4.264648e-01 4.406133e-01 4.504230e-01 4.579160e-01 4.608986e-01 4.612516e-01 4.570889e-01 4.500575e-01 4.389273e-01 4.246328e-01 4.072049e-01 3.862759e-01 3.637153e-01 3.374373e-01 3.114802e-01 2.819919e-01 2.551756e-01 2.258842e-01 2.021340e-01 1.787340e-01 1.643720e-01 1.554826e-01 1.572538e-01 1.676984e-01 1.841080e-01 2.079890e-01 2.317927e-01 2.617965e-01 
3.134632e-01 3.442796e-01 3.696028e-01 4.008085e-01 4.248326e-01 4.539604e-01 4.747767e-01 4.990977e-01 5.146650e-01 5.311664e-01 5.394328e-01 5.452137e-01 5.444664e-01 5.374853e-01 5.268401e-01 5.068034e-01 4.867140e-01 4.557606e-01 4.284477e-01 3.914153e-01 3.611781e-01 3.255904e-01 2.990339e-01 2.746417e-01 2.598756e-01 2.550222e-01 2.567269e-01 2.704364e-01 2.848877e-01 3.081118e-01 3.282894e-01 3.531860e-01 3.740621e-01 3.964979e-01 4.150979e-01 4.331663e-01 4.475703e-01 4.602936e-01 4.691491e-01 4.758643e-01 4.783015e-01 4.784791e-01 4.741504e-01 4.674405e-01 4.565286e-01 4.429170e-01 4.261012e-01 4.061123e-01 3.845748e-01 3.594972e-01 3.350457e-01 3.071911e-01 2.825214e-01 2.555769e-01 2.346576e-01 2.141223e-01 2.022854e-01 1.947531e-01 1.963784e-01 2.048637e-01 2.188462e-01 2.396748e-01 2.610614e-01 2.888026e-01 
3.377267e-01 3.667849e-01 3.910547e-01 4.217935e-01 4.456903e-01 4.755435e-01 4.970791e-01 5.231125e-01 5.401610e-01 5.590361e-01 5.694464e-01 5.778432e-01 5.797699e-01 5.752588e-01 5.676383e-01 5.497672e-01 5.328542e-01 5.039589e-01 4.798104e-01 4.451134e-01 4.177894e-01 3.847526e-01 3.600412e-01 3.369242e-01 3.210296e-01 3.137601e-01 3.103367e-01 3.185199e-01 3.262986e-01 3.440100e-01 3.587326e-01 3.796961e-01 3.972039e-01 4.173612e-01 4.344449e-01 4.515430e-01 4.656979e-01 4.783668e-01 4.876473e-01 4.948688e-01 4.979798e-01 4.989432e-01 4.953550e-01 4.895349e-01 4.794612e-01 4.667854e-01 4.510439e-01 4.320832e-01 4.119930e-01 3.881608e-01 3.656107e-01 3.393753e-01 3.170425e-01 2.921128e-01 2.736298e-01 2.548998e-01 2.444812e-01 2.369230e-01 2.375704e-01 2.433975e-01 2.545979e-01 2.717843e-01 2.903345e-01 3.150912e-01 
3.693706e-01 3.978980e-01 4.219521e-01 4.533666e-01 4.777994e-01 5.094838e-01 5.321635e-01 5.609081e-01 5.795138e-01 6.014845e-01 6.136789e-01 6.249243e-01 6.287349e-01 6.262776e-01 6.205646e-01 6.037660e-01 5.886834e-01 5.601566e-01 5.376040e-01 5.030927e-01 4.769451e-01 4.442533e-01 4.200609e-01 3.971475e-01 3.805937e-01 3.724651e-01 3.667473e-01 3.726078e-01 3.769418e-01 3.914815e-01 4.026241e-01 4.202592e-01 4.347199e-01 4.518009e-01 4.665825e-01 4.811452e-01 4.936962e-01 5.046078e-01 5.128614e-01 5.192444e-01 5.218335e-01 5.228649e-01 5.192686e-01 5.142487e-01 5.047115e-01 4.932904e-01 4.785930e-01 4.610598e-01 4.423824e-01 4.199642e-01 3.990137e-01 3.741383e-01 3.534407e-01 3.298325e-01 3.128065e-01 2.951105e-01 2.854562e-01 2.779314e-01 2.780826e-01 2.825733e-01 2.922874e-01 3.075207e-01 3.245096e-01 3.477296e-01 
3.996680e-01 4.269951e-01 4.507311e-01 4.824233e-01 5.076202e-01 5.411192e-01 5.655772e-01 5.974973e-01 6.187860e-01 6.448418e-01 6.604959e-01 6.760246e-01 6.838822e-01 6.851284e-01 6.836908e-01 6.695445e-01 6.583886e-01 6.315544e-01 6.119732e-01 5.785575e-01 5.538514e-01 5.215169e-01 4.965508e-01 4.722591e-01 4.519295e-01 4.397715e-01 4.274162e-01 4.273513e-01 4.240667e-01 4.327872e-01 4.376498e-01 4.510021e-01 4.617280e-01 4.764192e-01 4.899443e-01 5.037603e-01 5.167405e-01 5.280779e-01 5.374991e-01 5.449764e-01 5.487868e-01 5.511599e-01 5.486130e-01 5.449284e-01 5.364337e-01 5.262729e-01 5.128971e-01 4.965969e-01 4.796452e-01 4.584810e-01 4.395048e-01 4.158537e-01 3.970052e-01 3.743676e-01 3.585603e-01 3.411109e-01 3.315028e-01 3.229238e-01 3.217252e-01 3.238291e-01 3.313328e-01 3.436770e-01 3.585411e-01 3.793874e-01 
4.356209e-01 4.634923e-01 4.883707e-01 5.221827e-01 5.495401e-01 5.867654e-01 6.141287e-01 6.510469e-01 6.755824e-01 7.071464e-01 7.260044e-01 7.464576e-01 7.572636e-01 7.618132e-01 7.629898e-01 7.500986e-01 7.409469e-01 7.136233e-01 6.948537e-01 6.597194e-01 6.340753e-01 5.991843e-01 5.716825e-01 5.444303e-01 5.206422e-01 5.055491e-01 4.894089e-01 4.865037e-01 4.794540e-01 4.851987e-01 4.865967e-01 4.967329e-01 5.045863e-01 5.160185e-01 5.274182e-01 5.383562e-01 5.498991e-01 5.592331e-01 5.677647e-01 5.744904e-01 5.779290e-01 5.808846e-01 5.786109e-01 5.765694e-01 5.691218e-01 5.611488e-01 5.494957e-01 5.353565e-01 5.203792e-01 5.008709e-01 4.835281e-01 4.607465e-01 4.427537e-01 4.201719e-01 4.043326e-01 3.862527e-01 3.758515e-01 3.660645e-01 3.635763e-01 3.641007e-01 3.702628e-01 3.811427e-01 3.951570e-01 4.152814e-01 
4.702527e-01 4.979910e-01 5.240853e-01 5.596301e-01 5.896059e-01 6.305616e-01 6.617342e-01 7.042192e-01 7.334979e-01 7.718645e-01 7.961951e-01 8.235424e-01 8.403492e-01 8.504240e-01 8.575976e-01 8.478245e-01 8.434686e-01 8.169083e-01 8.005247e-01 7.645059e-01 7.380392e-01 7.006891e-01 6.689587e-01 6.370978e-01 6.057375e-01 5.837339e-01 5.575286e-01 5.466324e-01 5.292918e-01 5.279548e-01 5.214722e-01 5.268321e-01 5.306884e-01 5.399534e-01 5.510425e-01 5.620089e-01 5.755590e-01 5.863964e-01 5.975840e-01 6.065002e-01 6.120755e-01 6.172550e-01 6.163599e-01 6.162365e-01 6.099469e-01 6.036009e-01 5.935656e-01 5.809309e-01 5.681931e-01 5.500595e-01 5.350072e-01 5.131093e-01 4.965484e-01 4.738547e-01 4.579528e-01 4.385299e-01 4.266067e-01 4.144193e-01 4.095617e-01 4.071770e-01 4.109916e-01 4.192221e-01 4.316966e-01 4.501610e-01 
5.087286e-01 5.385959e-01 5.681079e-01 6.080746e-01 6.430631e-01 6.907717e-01 7.279521e-01 7.790804e-01 8.144926e-01 8.622493e-01 8.919929e-01 9.276030e-01 9.487417e-01 9.640197e-01 9.746524e-01 9.662996e-01 9.641963e-01 9.359115e-01 9.192654e-01 8.788514e-01 8.481462e-01 8.039298e-01 7.648798e-01 7.251326e-01 6.858229e-01 6.571718e-01 6.242399e-01 6.088425e-01 5.865197e-01 5.819939e-01 5.720019e-01 5.744045e-01 5.759333e-01 5.820505e-01 5.917603e-01 5.996756e-01 6.124477e-01 6.210838e-01 6.317839e-01 6.401532e-01 6.455663e-01 6.521663e-01 6.518488e-01 6.546848e-01 6.501274e-01 6.473871e-01 6.401337e-01 6.307996e-01 6.210382e-01 6.050549e-01 5.918930e-01 5.703628e-01 5.537411e-01 5.295664e-01 5.117545e-01 4.896683e-01 4.748918e-01 4.597576e-01 4.521849e-01 4.473260e-01 4.493998e-01 4.562146e-01 4.684598e-01 4.870657e-01 
5.461631e-01 5.776567e-01 6.110390e-01 6.551477e-01 6.959990e-01 7.504350e-01 7.948830e-01 8.551807e-01 8.986441e-01 9.573225e-01 9.954791e-01 1.042015e+00 1.071819e+00 1.095343e+00 1.114471e+00 1.109588e+00 1.113526e+00 1.084221e+00 1.069072e+00 1.024947e+00 9.898843e-01 9.393278e-01 8.907394e-01 8.415535e-01 7.885939e-01 7.480732e-01 6.990507e-01 6.717515e-01 6.343899e-01 6.206319e-01 6.002893e-01 5.975529e-01 5.952085e-01 6.001118e-01 6.117280e-01 6.213831e-01 6.392978e-01 6.514098e-01 6.674326e-01 6.797471e-01 6.885734e-01 6.985385e-01 6.995508e-01 7.047502e-01 7.009082e-01 6.998986e-01 6.944392e-01 6.868797e-01 6.803904e-01 6.662988e-01 6.564879e-01 6.359247e-01 6.206478e-01 5.952134e-01 5.756531e-01 5.500653e-01 5.313265e-01 5.116398e-01 4.997530e-01 4.907248e-01 4.897224e-01 4.937984e-01 5.051018e-01 5.229955e-01 
5.853407e-01 6.212449e-01 6.615590e-01 7.134229e-01 7.637816e-01 8.293394e-01 8.848048e-01 9.591731e-01 1.013541e+00 1.087723e+00 1.134724e+00 1.194903e+00 1.230513e+00 1.261964e+00 1.285230e+00 1.281577e+00 1.288235e+00 1.255759e+00 1.239515e+00 1.187897e+00 1.143435e+00 1.079381e+00 1.015311e+00 9.496219e-01 8.810952e-01 8.272846e-01 7.665777e-01 7.319356e-01 6.876791e-01 6.706995e-01 6.471671e-01 6.426574e-01 6.395646e-01 6.423996e-01 6.545947e-01 6.614798e-01 6.801761e-01 6.898143e-01 7.060556e-01 7.179185e-01 7.265564e-01 7.390007e-01 7.404772e-01 7.503599e-01 7.487705e-01 7.531559e-01 7.518891e-01 7.491932e-01 7.474685e-01 7.365787e-01 7.295591e-01 7.091445e-01 6.928242e-01 6.639234e-01 6.397245e-01 6.085221e-01 5.837439e-01 5.584348e-01 5.415130e-01 5.284515e-01 5.248870e-01 5.273610e-01 5.392045e-01 5.583618e-01 
6.241670e-01 6.644623e-01 7.127914e-01 7.723521e-01 8.336302e-01 9.101216e-01 9.783741e-01 1.067066e+00 1.134947e+00 1.226387e+00 1.286366e+00 1.363939e+00 1.411657e+00 1.455460e+00 1.490866e+00 1.490209e+00 1.504514e+00 1.467271e+00 1.451490e+00 1.392635e+00 1.338128e+00 1.262365e+00 1.180097e+00 1.097040e+00 1.004807e+00 9.303401e-01 8.431730e-01 7.899709e-01 7.229221e-01 6.938679e-01 6.566792e-01 6.477237e-01 6.419686e-01 6.462463e-01 6.649028e-01 6.768329e-01 7.065111e-01 7.228720e-01 7.490446e-01 7.674211e-01 7.810252e-01 7.980311e-01 7.995084e-01 8.114285e-01 8.085072e-01 8.137457e-01 8.139720e-01 8.131806e-01 8.170213e-01 8.097479e-01 8.091527e-01 7.912796e-01 7.772652e-01 7.459850e-01 7.174248e-01 6.792721e-01 6.462912e-01 6.128793e-01 5.883657e-01 5.691394e-01 5.613373e-01 5.610065e-01 5.728878e-01 5.929089e-01 
6.622625e-01 7.101328e-01 7.703407e-01 8.419790e-01 9.192194e-01 1.012641e+00 1.099902e+00 1.210893e+00 1.298573e+00 1.416194e+00 1.491803e+00 1.592849e+00 1.647699e+00 1.703358e+00 1.742252e+00 1.740498e+00 1.757409e+00 1.715206e+00 1.698832e+00 1.630024e+00 1.557043e+00 1.456404e+00 1.343184e+00 1.226496e+00 1.104941e+00 1.004443e+00 8.970111e-01 8.319151e-01 7.552798e-01 7.241501e-01 6.851648e-01 6.783804e-01 6.754683e-01 6.813062e-01 7.045091e-01 7.147520e-01 7.479930e-01 7.607330e-01 7.879051e-01 8.049760e-01 8.174887e-01 8.381123e-01 8.388133e-01 8.576600e-01 8.569833e-01 8.697512e-01 8.763266e-01 8.828204e-01 8.954873e-01 8.945347e-01 9.000594e-01 8.840272e-01 8.688062e-01 8.317837e-01 7.944174e-01 7.459781e-01 7.016844e-01 6.584305e-01 6.253834e-01 6.000070e-01 5.887637e-01 5.869063e-01 6.007595e-01 6.238681e-01 
7.014830e-01 7.578225e-01 8.318466e-01 9.159609e-01 1.011481e+00 1.121744e+00 1.231299e+00 1.365247e+00 1.477965e+00 1.624890e+00 1.723322e+00 1.854040e+00 1.925748e+00 2.001032e+00 2.058269e+00 2.056233e+00 2.081056e+00 2.023756e+00 2.006042e+00 1.925236e+00 1.830052e+00 1.707349e+00 1.558800e+00 1.408356e+00 1.244804e+00 1.106244e+00 9.536530e-01 8.588040e-01 7.472797e-01 7.019569e-01 6.454902e-01 6.389336e-01 6.357906e-01 6.491688e-01 6.856646e-01 7.057118e-01 7.590643e-01 7.822623e-01 8.267796e-01 8.533914e-01 8.725672e-01 8.988593e-01 8.955350e-01 9.147095e-01 9.076813e-01 9.186996e-01 9.263154e-01 9.353622e-01 9.601916e-01 9.691272e-01 9.905508e-01 9.844038e-01 9.766117e-01 9.372446e-01 8.912629e-01 8.297561e-01 7.693136e-01 7.118199e-01 6.659286e-01 6.318489e-01 6.153782e-01 6.115753e-01 6.276462e-01 6.545636e-01 
7.374442e-01 8.054686e-01 8.975363e-01 9.988621e-01 1.119264e+00 1.254658e+00 1.397621e+00 1.568986e+00 1.722195e+00 1.917857e+00 2.049772e+00 2.224805e+00 2.304583e+00 2.398729e+00 2.455740e+00 2.443447e+00 2.466451e+00 2.400678e+00 2.386155e+00 2.294057e+00 2.157487e+00 1.982511e+00 1.767255e+00 1.543014e+00 1.323794e+00 1.133976e+00 9.468557e-01 8.352945e-01 7.133433e-01 6.746170e-01 6.227301e-01 6.340258e-01 6.404393e-01 6.669069e-01 7.115836e-01 7.307927e-01 7.882227e-01 8.003318e-01 8.436276e-01 8.624123e-01 8.764678e-01 9.069015e-01 8.993760e-01 9.291587e-01 9.239611e-01 9.447999e-01 9.627442e-01 9.827369e-01 1.026326e+00 1.050895e+00 1.089405e+00 1.094860e+00 1.090947e+00 1.045483e+00 9.851494e-01 9.058343e-01 8.248648e-01 7.503233e-01 6.905953e-01 6.478997e-01 6.279594e-01 6.241597e-01 6.453413e-01 6.786982e-01 
7.776014e-01 8.596524e-01 9.726999e-01 1.092938e+00 1.242502e+00 1.405041e+00 1.589545e+00 1.802793e+00 2.009699e+00 2.260855e+00 2.438939e+00 2.665118e+00 2.762962e+00 2.889834e+00 2.980973e+00 2.962149e+00 2.987868e+00 2.876930e+00 2.860141e+00 2.750206e+00 2.557242e+00 2.330449e+00 2.040176e+00 1.745314e+00 1.452979e+00 1.194823e+00 9.355232e-01 7.864490e-01 6.268130e-01 5.913770e-01 5.315165e-01 5.672167e-01 5.717954e-01 6.176598e-01 6.706141e-01 6.988522e-01 7.799454e-01 7.980166e-01 8.667413e-01 8.936472e-01 9.146308e-01 9.500675e-01 9.277474e-01 9.524320e-01 9.285553e-01 9.385337e-01 9.538533e-01 9.732543e-01 1.041235e+00 1.089103e+00 1.165549e+00 1.204084e+00 1.226588e+00 1.185013e+00 1.110927e+00 1.008369e+00 8.963108e-01 7.963024e-01 7.151079e-01 6.607482e-01 6.359593e-01 6.337131e-01 6.618802e-01 7.044340e-01 
8.134975e-01 9.120334e-01 1.049527e+00 1.193182e+00 1.380114e+00 1.581687e+00 1.827566e+00 2.108718e+00 2.402819e+00 2.746132e+00 2.994942e+00 3.294496e+00 3.380066e+00 3.530240e+00 3.611873e+00 3.562224e+00 3.575145e+00 3.457932e+00 3.475940e+00 3.372654e+00 3.083471e+00 2.738669e+00 2.302698e+00 1.846498e+00 1.460977e+00 1.118980e+00 8.097121e-01 6.562931e-01 5.099957e-01 5.300506e-01 5.133162e-01 6.180542e-01 6.444025e-01 7.312632e-01 7.877395e-01 8.164241e-01 8.902134e-01 8.738712e-01 9.277300e-01 9.212863e-01 9.228396e-01 9.575981e-01 9.200393e-01 9.576676e-01 9.287187e-01 9.380956e-01 9.561138e-01 9.713484e-01 1.060168e+00 1.127418e+00 1.232956e+00 1.306753e+00 1.353260e+00 1.315825e+00 1.227128e+00 1.099066e+00 9.524383e-01 8.228679e-01 7.191820e-01 6.529778e-01 6.265201e-01 6.289677e-01 6.682281e-01 7.229479e-01 
8.597271e-01 9.786636e-01 1.144226e+00 1.316029e+00 1.547967e+00 1.796818e+00 2.121162e+00 2.482547e+00 2.887825e+00 3.323699e+00 3.643378e+00 3.978367e+00 4.002982e+00 4.172356e+00 4.334654e+00 4.305416e+00 4.323200e+00 4.095141e+00 4.177490e+00 4.126801e+00 3.736453e+00 3.292713e+00 2.733619e+00 2.152664e+00 1.659815e+00 1.219369e+00 7.751999e-01 5.736868e-01 3.924775e-01 4.566484e-01 4.671726e-01 6.192860e-01 6.492357e-01 7.741516e-01 8.579283e-01 9.130399e-01 1.046944e+00 1.054896e+00 1.169320e+00 1.187289e+00 1.200201e+00 1.238273e+00 1.151996e+00 1.157384e+00 1.061535e+00 1.012209e+00 9.813479e-01 9.420447e-01 1.030560e+00 1.098004e+00 1.239914e+00 1.377912e+00 1.495406e+00 1.487081e+00 1.390866e+00 1.235156e+00 1.036458e+00 8.632317e-01 7.237808e-01 6.416917e-01 6.126130e-01 6.238102e-01 6.774181e-01 7.488715e-01 
9.059147e-01 1.045158e+00 1.239003e+00 1.441718e+00 1.725940e+00 2.035771e+00 2.464711e+00 2.939296e+00 3.502607e+00 4.063612e+00 4.463633e+00 4.789117e+00 4.580353e+00 4.687685e+00 4.824806e+00 4.802054e+00 4.849252e+00 4.686942e+00 5.042546e+00 5.262922e+00 4.791215e+00 4.161797e+00 3.365366e+00 2.516401e+00 1.975360e+00 1.570052e+00 1.106215e+00 8.843634e-01 6.345026e-01 5.764873e-01 5.301628e-01 7.103009e-01 8.418831e-01 1.036019e+00 1.265719e+00 1.388242e+00 1.632670e+00 1.672383e+00 1.824653e+00 1.844136e+00 1.833794e+00 1.878515e+00 1.738426e+00 1.730100e+00 1.568558e+00 1.445762e+00 1.325417e+00 1.166626e+00 1.183113e+00 1.165435e+00 1.245512e+00 1.400944e+00 1.559693e+00 1.583994e+00 1.510319e+00 1.353433e+00 1.116569e+00 8.985203e-01 7.221279e-01 6.221618e-01 5.930974e-01 6.156706e-01 6.858839e-01 7.750442e-01 
9.716132e-01 1.135181e+00 1.359963e+00 1.602282e+00 1.947856e+00 2.335247e+00 2.889758e+00 3.493233e+00 4.228544e+00 4.851696e+00 5.221349e+00 5.224222e+00 4.396382e+00 4.280256e+00 4.722563e+00 5.185053e+00 5.362854e+00 4.856848e+00 5.716158e+00 6.709566e+00 6.360601e+00 5.564371e+00 4.651716e+00 3.681229e+00 3.017308e+00 2.572999e+00 1.954710e+00 1.685885e+00 1.454814e+00 1.411226e+00 1.340851e+00 1.429396e+00 1.636381e+00 1.795172e+00 2.196814e+00 2.412896e+00 2.872469e+00 3.057603e+00 3.373785e+00 3.499800e+00 3.508010e+00 3.553327e+00 3.272173e+00 3.150235e+00 2.790351e+00 2.475606e+00 2.143897e+00 1.733353e+00 1.574906e+00 1.331624e+00 1.239719e+00 1.381078e+00 1.630999e+00 1.697390e+00 1.652057e+00 1.530643e+00 1.251819e+00 9.800985e-01 7.495330e-01 6.258395e-01 5.928129e-01 6.276218e-01 7.127106e-01 8.209716e-01 
1.048684e+00 1.231615e+00 1.481139e+00 1.760312e+00 2.164524e+00 2.633362e+00 3.321840e+00 4.063689e+00 4.980152e+00 5.602721e+00 5.828202e+00 5.185360e+00 3.304855e+00 2.789480e+00 3.337812e+00 4.559639e+00 5.328843e+00 4.862006e+00 6.491113e+00 9.052957e+00 8.956111e+00 7.391705e+00 5.655901e+00 4.267513e+00 3.681773e+00 3.297204e+00 2.719016e+00 2.507637e+00 2.494607e+00 2.618508e+00 2.620321e+00 2.824849e+00 3.113708e+00 3.294883e+00 3.836067e+00 4.148426e+00 4.800646e+00 5.098410e+00 5.521073e+00 5.703205e+00 5.680624e+00 5.738532e+00 5.338734e+00 5.136198e+00 4.653031e+00 4.148286e+00 3.630851e+00 2.900229e+00 2.514822e+00 1.924651e+00 1.384709e+00 1.310118e+00 1.502275e+00 1.545937e+00 1.582059e+00 1.610071e+00 1.376982e+00 1.085733e+00 8.143354e-01 6.683440e-01 6.293109e-01 6.715771e-01 7.641016e-01 8.853685e-01 
1.148167e+00 1.352719e+00 1.626609e+00 1.951965e+00 2.416487e+00 2.986371e+00 3.812608e+00 4.717334e+00 5.787240e+00 6.274176e+00 6.061032e+00 4.153109e+00 1.751599e+00 1.106307e+00 9.924485e-01 4.651292e+00 6.610118e+00 4.555710e+00 6.465160e+00 1.200137e+01 1.206991e+01 8.814072e+00 7.002991e+00 6.004339e+00 4.746752e+00 2.832255e+00 1.346928e+00 6.147727e-01 6.049909e-01 1.189179e+00 1.236556e+00 1.913198e+00 2.324337e+00 2.794239e+00 3.476833e+00 4.092171e+00 4.981415e+00 5.517244e+00 6.194372e+00 6.477995e+00 6.497191e+00 6.425359e+00 5.851075e+00 5.351482e+00 4.793075e+00 4.066401e+00 3.673554e+00 2.874601e+00 2.778363e+00 2.685880e+00 2.104431e+00 1.723658e+00 1.759275e+00 1.491671e+00 1.382172e+00 1.626237e+00 1.487567e+00 1.209509e+00 9.143030e-01 7.549757e-01 7.104242e-01 7.539083e-01 8.460985e-01 9.759040e-01 
1.268312e+00 1.486243e+00 1.774031e+00 2.133921e+00 2.639086e+00 3.289419e+00 4.215153e+00 5.262585e+00 6.428518e+00 6.735681e+00 5.963221e+00 3.616589e+00 5.545885e+00 1.631103e+00 5.242478e+00 7.104073e+00 1.047471e+01 9.376602e+00 8.576631e+00 1.605118e+01 1.639737e+01 1.126128e+01 1.001493e+01 8.767351e+00 7.800736e+00 5.811195e+00 3.415955e+00 8.847812e-01 1.246897e+00 1.447745e+00 2.360959e+00 2.782830e+00 3.169210e+00 3.313071e+00 4.028848e+00 4.053445e+00 4.354334e+00 3.763705e+00 3.223352e+00 1.960343e+00 1.136583e+00 1.634658e+00 2.458070e+00 3.249390e+00 3.819740e+00 4.179192e+00 4.426142e+00 4.711949e+00 5.282807e+00 5.785676e+00 4.966061e+00 4.379845e+00 3.230216e+00 1.095955e+00 7.779774e-01 1.386442e+00 1.492940e+00 1.297416e+00 1.022494e+00 8.732190e-01 8.318363e-01 8.765397e-01 9.635409e-01 1.095104e+00 
1.392192e+00 1.624408e+00 1.923160e+00 2.318840e+00 2.851414e+00 3.583787e+00 4.577363e+00 5.840509e+00 7.163942e+00 7.925794e+00 6.887710e+00 3.651777e+00 7.537806e+00 7.911616e+00 9.775729e+00 8.376934e+00 9.158908e+00 1.080579e+01 1.291498e+01 2.277207e+01 2.102999e+01 1.309165e+01 1.038990e+01 8.087894e+00 9.207406e+00 9.580480e+00 8.767530e+00 6.825746e+00 4.327813e+00 2.807930e+00 1.213780e+00 4.687588e-01 1.988461e+00 2.664778e+00 4.445501e+00 5.178192e+00 6.534226e+00 7.032331e+00 7.438490e+00 7.700488e+00 7.423100e+00 7.773346e+00 7.071528e+00 6.977107e+00 6.215487e+00 5.789478e+00 5.207104e+00 4.855012e+00 4.749201e+00 4.197488e+00 2.546025e+00 1.916066e+00 2.227664e+00 1.600215e+00 4.131110e-01 1.061113e+00 1.397152e+00 1.283836e+00 1.082441e+00 9.713363e-01 9.516983e-01 1.000831e+00 1.085157e+00 1.218368e+00 
1.532490e+00 1.772055e+00 2.076580e+00 2.491721e+00 3.036181e+00 3.804969e+00 4.825197e+00 6.217577e+00 7.746848e+00 9.214756e+00 9.104637e+00 6.952891e+00 1.788248e+00 4.255088e+00 5.297509e+00 2.702776e+00 7.479187e+00 1.171776e+01 1.723529e+01 2.560298e+01 2.112916e+01 1.126258e+01 6.357636e+00 4.379688e+00 5.284040e+00 6.717838e+00 7.128983e+00 6.950729e+00 6.168756e+00 5.078937e+00 4.658264e+00 3.743496e+00 2.755651e+00 2.302003e+00 1.590358e+00 1.661806e+00 1.804475e+00 2.452551e+00 2.781390e+00 3.035482e+00 2.920816e+00 2.851171e+00 2.288391e+00 2.027693e+00 1.794853e+00 1.702191e+00 1.956361e+00 2.378314e+00 2.829348e+00 3.559344e+00 3.698283e+00 3.288250e+00 3.010091e+00 2.246352e+00 1.160256e+00 1.314088e+00 1.510462e+00 1.343629e+00 1.173775e+00 1.091565e+00 1.091580e+00 1.144267e+00 1.227229e+00 1.359852e+00 
1.643124e+00 1.890472e+00 2.197567e+00 2.623603e+00 3.163135e+00 3.929974e+00 4.919029e+00 6.307131e+00 7.911639e+00 9.772674e+00 1.089332e+01 1.095638e+01 8.893071e+00 6.706916e+00 7.285597e+00 6.236849e+00 6.536616e+00 1.404665e+01 1.943714e+01 2.268948e+01 2.077307e+01 1.319316e+01 4.672117e+00 2.414334e+00 3.819754e+00 4.607176e+00 3.873909e+00 3.564185e+00 3.002018e+00 2.628767e+00 2.785626e+00 2.608946e+00 2.588751e+00 2.430331e+00 2.373597e+00 2.100970e+00 1.781974e+00 1.571073e+00 1.131349e+00 8.984053e-01 7.128638e-01 6.724936e-01 8.610803e-01 1.048155e+00 1.313620e+00 1.430481e+00 1.638384e+00 1.982425e+00 2.340616e+00 2.999823e+00 3.248499e+00 3.326679e+00 2.731734e+00 1.434245e+00 1.108137e+00 1.317146e+00 1.399485e+00 1.238506e+00 1.153512e+00 1.139232e+00 1.175862e+00 1.242966e+00 1.331723e+00 1.468993e+00 
1.757722e+00 2.008991e+00 2.319805e+00 2.748962e+00 3.285949e+00 4.033092e+00 4.987205e+00 6.306911e+00 7.905525e+00 9.872560e+00 1.169718e+01 1.307310e+01 1.339751e+01 1.281631e+01 1.379052e+01 1.420615e+01 1.306117e+01 1.276656e+01 1.624405e+01 1.830500e+01 1.875779e+01 1.585726e+01 1.077864e+01 7.077587e+00 6.225140e+00 5.406916e+00 4.319519e+00 3.590325e+00 2.550897e+00 2.102816e+00 1.469226e+00 1.010126e+00 5.649228e-01 2.536620e-01 2.251738e-01 7.368126e-01 1.030498e+00 1.502671e+00 1.842939e+00 2.090336e+00 2.325390e+00 2.358429e+00 2.368749e+00 2.213017e+00 2.088691e+00 1.758528e+00 1.552073e+00 1.197314e+00 1.009782e+00 1.082984e+00 1.181398e+00 1.354552e+00 1.066994e+00 6.838926e-01 1.026907e+00 1.178038e+00 1.211749e+00 1.137961e+00 1.161814e+00 1.205972e+00 1.269753e+00 1.345850e+00 1.440656e+00 1.580882e+00 
1.820218e+00 2.076852e+00 2.390154e+00 2.820939e+00 3.353240e+00 4.076548e+00 4.992950e+00 6.218402e+00 7.756800e+00 9.638925e+00 1.174791e+01 1.366764e+01 1.528522e+01 1.581310e+01 1.713556e+01 1.789690e+01 1.829332e+01 1.678812e+01 1.411243e+01 1.281879e+01 1.255979e+01 1.230644e+01 1.082728e+01 8.782118e+00 7.993242e+00 7.019996e+00 6.003038e+00 5.138207e+00 4.165330e+00 3.670467e+00 2.962997e+00 2.678161e+00 2.270846e+00 2.265961e+00 2.164285e+00 2.417965e+00 2.584163e+00 2.899774e+00 3.157233e+00 3.326233e+00 3.478025e+00 3.438705e+00 3.400572e+00 3.172520e+00 2.998647e+00 2.620313e+00 2.371176e+00 1.927632e+00 1.635960e+00 1.232100e+00 9.472971e-01 7.489952e-01 5.753367e-01 7.256596e-01 8.348648e-01 8.516717e-01 9.146020e-01 9.869112e-01 1.116137e+00 1.211958e+00 1.299349e+00 1.388656e+00 1.491989e+00 1.639342e+00 
1.880208e+00 2.138207e+00 2.454268e+00 2.883689e+00 3.414893e+00 4.118989e+00 5.010066e+00 6.160494e+00 7.628438e+00 9.385336e+00 1.150268e+01 1.353640e+01 1.561175e+01 1.675873e+01 1.833830e+01 1.938667e+01 2.015120e+01 1.938445e+01 1.604698e+01 1.152857e+01 7.254396e+00 6.245635e+00 7.852198e+00 8.418245e+00 8.418852e+00 7.488578e+00 6.511571e+00 5.623092e+00 4.745551e+00 4.266464e+00 3.640981e+00 3.426136e+00 3.075434e+00 3.097841e+00 3.009054e+00 3.217655e+00 3.353601e+00 3.615267e+00 3.836726e+00 3.983195e+00 4.095937e+00 4.023526e+00 3.924566e+00 3.632963e+00 3.385925e+00 2.965353e+00 2.692504e+00 2.272804e+00 2.038324e+00 1.685042e+00 1.446440e+00 1.165177e+00 8.909033e-01 7.385496e-01 4.987459e-01 4.722299e-01 7.171681e-01 9.394192e-01 1.132165e+00 1.248761e+00 1.345693e+00 1.438846e+00 1.546783e+00 1.696340e+00 
1.881759e+00 2.142285e+00 2.459279e+00 2.890255e+00 3.421750e+00 4.122077e+00 5.008087e+00 6.135993e+00 7.588090e+00 9.298034e+00 1.142296e+01 1.345773e+01 1.567063e+01 1.695633e+01 1.861470e+01 1.970792e+01 2.069818e+01 2.039265e+01 1.703492e+01 1.207844e+01 5.640403e+00 6.548558e-01 5.898325e+00 8.035031e+00 8.515230e+00 7.744346e+00 6.833484e+00 5.959574e+00 5.096639e+00 4.594776e+00 3.956269e+00 3.721125e+00 3.344689e+00 3.337212e+00 3.212137e+00 3.376990e+00 3.465877e+00 3.682042e+00 3.857835e+00 3.969756e+00 4.053813e+00 3.961043e+00 3.859500e+00 3.565847e+00 3.333761e+00 2.933287e+00 2.688457e+00 2.310050e+00 2.116808e+00 1.811842e+00 1.607661e+00 1.323047e+00 1.009256e+00 7.376023e-01 2.663542e-01 1.616485e-01 6.009824e-01 8.891181e-01 1.104450e+00 1.231597e+00 1.333958e+00 1.432234e+00 1.543254e+00 1.696354e+00 
1.880208e+00 2.138207e+00 2.454268e+00 2.883689e+00 3.414893e+00 4.118989e+00 5.010066e+00 6.160494e+00 7.628438e+00 9.385336e+00 1.150268e+01 1.353640e+01 1.561175e+01 1.675873e+01 1.833830e+01 1.938667e+01 2.015120e+01 1.938445e+01 1.604698e+01 1.152857e+01 7.254396e+00 6.245635e+00 7.852198e+00 8.418245e+00 8.418852e+00 7.488578e+00 6.511571e+00 5.623092e+00 4.745551e+00 4.266464e+00 3.640981e+00 3.426136e+00 3.075434e+00 3.097841e+00 3.009054e+00 3.217655e+00 3.353601e+00 3.615267e+00 3.836726e+00 3.983195e+00 4.095937e+00 4.023526e+00 3.924566e+00 3.632963e+00 3.385925e+00 2.965353e+00 2.692504e+00 2.272804e+00 2.038324e+00 1.685042e+00 1.446440e+00 1.165177e+00 8.909033e-01 7.385496e-01 4.987459e-01 4.722299e-01 7.171681e-01 9.394192e-01 1.132165e+00 1.248761e+00 1.345693e+00 1.438846e+00 1.546783e+00 1.696340e+00 
1.820218e+00 2.076852e+00 2.390154e+00 2.820939e+00 3.353240e+00 4.076548e+00 4.992950e+00 6.218402e+00 7.756800e+00 9.638925e+00 1.174791e+01 1.366764e+01 1.528522e+01 1.581310e+01 1.713556e+01 1.789690e+01 1.829332e+01 1.678812e+01 1.411243e+01 1.281879e+01 1.255979e+01 1.230644e+01 1.082728e+01 8.782118e+00 7.993242e+00 7.019996e+00 6.003038e+00 5.138207e+00 4.165330e+00 3.670467e+00 2.962997e+00 2.678161e+00 2.270846e+00 2.265961e+00 2.164285e+00 2.417965e+00 2.584163e+00 2.899774e+00 3.157233e+00 3.326233e+00 3.478025e+00 3.438705e+00 3.400572e+00 3.172520e+00 2.998647e+00 2.620313e+00 2.371176e+00 1.927632e+00 1.635960e+00 1.232100e+00 9.472971e-01 7.489952e-01 5.753367e-01 7.256596e-01 8.348648e-01 8.516717e-01 9.146020e-01 9.869112e-01 1.116137e+00 1.211958e+00 1.299349e+00 1.388656e+00 1.491989e+00 1.639342e+00 