# vtk DataFile Version 2.0
Comment goes here
ASCII

DATASET STRUCTURED_POINTS
DIMENSIONS    64   64   1

ORIGIN    0.000   0.000   0.000
SPACING   0.0781250.078125   1.000

POINT_DATA   4096
SCALARS uMag double
LOOKUP_TABLE default

1.213238e-01 1.192210e-01 1.039201e-01 9.959452e-02 8.345630e-02 7.655759e-02 5.927657e-02 4.964548e-02 3.111991e-02 1.890384e-02 6.310673e-04 1.492869e-02 3.486239e-02 5.043667e-02 6.985912e-02 8.575907e-02 1.036189e-01 1.189425e-01 1.342143e-01 1.482549e-01 1.600497e-01 1.723356e-01 1.799362e-01 1.901682e-01 1.930121e-01 2.009516e-01 1.986024e-01 2.039715e-01 1.961145e-01 1.985562e-01 1.850361e-01 1.841533e-01 1.650580e-01 1.605220e-01 1.362977e-01 1.279923e-01 9.955980e-02 8.771257e-02 5.653725e-02 4.178772e-02 9.850771e-03 6.782575e-03 3.715345e-02 5.441453e-02 8.085601e-02 9.747049e-02 1.179816e-01 1.328912e-01 1.462107e-01 1.587489e-01 1.645837e-01 1.745367e-01 1.735449e-01 1.810816e-01 1.746083e-01 1.801129e-01 1.697843e-01 1.736592e-01 1.609898e-01 1.635008e-01 1.496269e-01 1.508244e-01 1.363973e-01 1.361121e-01 
1.171836e-01 1.157664e-01 1.012290e-01 9.765630e-02 8.245556e-02 7.640863e-02 6.037004e-02 5.185360e-02 3.555540e-02 2.593524e-02 1.699496e-02 2.091779e-02 3.600983e-02 4.948588e-02 6.747202e-02 8.218873e-02 9.915978e-02 1.135944e-01 1.282292e-01 1.415978e-01 1.529735e-01 1.648257e-01 1.722397e-01 1.823161e-01 1.852193e-01 1.933073e-01 1.912577e-01 1.970761e-01 1.897313e-01 1.928886e-01 1.800528e-01 1.800955e-01 1.618231e-01 1.583611e-01 1.351089e-01 1.279864e-01 1.008244e-01 9.032348e-02 6.145816e-02 4.888664e-02 2.681903e-02 2.395551e-02 4.208664e-02 5.585937e-02 8.046905e-02 9.546482e-02 1.151572e-01 1.290080e-01 1.417083e-01 1.535340e-01 1.588138e-01 1.683401e-01 1.668712e-01 1.742359e-01 1.674192e-01 1.729768e-01 1.624901e-01 1.666096e-01 1.539925e-01 1.569040e-01 1.432905e-01 1.450100e-01 1.310311e-01 1.313599e-01 
1.234782e-01 1.216488e-01 1.070159e-01 1.030711e-01 8.800838e-02 8.172137e-02 6.635755e-02 5.808593e-02 4.411567e-02 3.664681e-02 3.253918e-02 3.585936e-02 4.863051e-02 6.081283e-02 7.834363e-02 9.279257e-02 1.100285e-01 1.244893e-01 1.395595e-01 1.529816e-01 1.647485e-01 1.765790e-01 1.842309e-01 1.941785e-01 1.971096e-01 2.049683e-01 2.027220e-01 2.082408e-01 2.005017e-01 2.033333e-01 1.899773e-01 1.897196e-01 1.709308e-01 1.672530e-01 1.437233e-01 1.365600e-01 1.098738e-01 9.974881e-02 7.359295e-02 6.279836e-02 4.864079e-02 4.664107e-02 6.074964e-02 7.103773e-02 9.412062e-02 1.075506e-01 1.271934e-01 1.403301e-01 1.531680e-01 1.646882e-01 1.699272e-01 1.793200e-01 1.775674e-01 1.848143e-01 1.775324e-01 1.828998e-01 1.718673e-01 1.756995e-01 1.625476e-01 1.650932e-01 1.510169e-01 1.523267e-01 1.379884e-01 1.378949e-01 
1.216426e-01 1.208023e-01 1.077093e-01 1.049330e-01 9.195277e-02 8.712848e-02 7.467534e-02 6.845572e-02 5.858315e-02 5.365369e-02 5.162419e-02 5.322434e-02 6.221861e-02 7.086164e-02 8.551044e-02 9.733478e-02 1.128476e-01 1.253277e-01 1.393260e-01 1.512199e-01 1.623615e-01 1.731147e-01 1.805218e-01 1.899198e-01 1.929592e-01 2.008683e-01 1.990546e-01 2.052443e-01 1.982264e-01 2.023038e-01 1.899378e-01 1.914035e-01 1.739172e-01 1.723248e-01 1.506067e-01 1.458043e-01 1.219555e-01 1.144742e-01 9.309699e-02 8.511147e-02 7.559299e-02 7.251881e-02 8.247878e-02 8.738989e-02 1.069415e-01 1.160942e-01 1.340466e-01 1.442422e-01 1.558567e-01 1.654787e-01 1.694447e-01 1.777460e-01 1.746572e-01 1.814145e-01 1.729266e-01 1.782353e-01 1.663389e-01 1.704198e-01 1.568803e-01 1.599065e-01 1.459608e-01 1.479408e-01 1.342306e-01 1.349719e-01 
1.295214e-01 1.284902e-01 1.157337e-01 1.128752e-01 1.005979e-01 9.586848e-02 8.463960e-02 7.889112e-02 7.093184e-02 6.693989e-02 6.663583e-02 6.860446e-02 7.786421e-02 8.619099e-02 1.009269e-01 1.125223e-01 1.284478e-01 1.407986e-01 1.553773e-01 1.671126e-01 1.788177e-01 1.893316e-01 1.971506e-01 2.062481e-01 2.094608e-01 2.170673e-01 2.151520e-01 2.211112e-01 2.137392e-01 2.177303e-01 2.048515e-01 2.064350e-01 1.884660e-01 1.872414e-01 1.654058e-01 1.612602e-01 1.382240e-01 1.317247e-01 1.127543e-01 1.059144e-01 9.941823e-02 9.623302e-02 1.066574e-01 1.094713e-01 1.287374e-01 1.356846e-01 1.537576e-01 1.624073e-01 1.739914e-01 1.827161e-01 1.861175e-01 1.939288e-01 1.897470e-01 1.961572e-01 1.862941e-01 1.912329e-01 1.779789e-01 1.816313e-01 1.669805e-01 1.695674e-01 1.548740e-01 1.564690e-01 1.423993e-01 1.428487e-01 
1.296604e-01 1.299156e-01 1.194252e-01 1.181262e-01 1.087404e-01 1.058963e-01 9.811807e-02 9.454331e-02 8.998547e-02 8.770357e-02 8.878304e-02 9.027940e-02 9.793406e-02 1.038231e-01 1.160170e-01 1.247008e-01 1.384437e-01 1.480223e-01 1.610162e-01 1.703296e-01 1.810493e-01 1.897014e-01 1.971119e-01 2.051455e-01 2.084921e-01 2.160178e-01 2.147230e-01 2.216437e-01 2.153136e-01 2.212216e-01 2.097679e-01 2.140162e-01 1.978936e-01 1.997984e-01 1.803845e-01 1.795019e-01 1.596732e-01 1.561327e-01 1.408597e-01 1.357930e-01 1.313350e-01 1.270620e-01 1.360083e-01 1.347023e-01 1.515856e-01 1.535760e-01 1.698483e-01 1.742493e-01 1.840694e-01 1.897910e-01 1.910148e-01 1.970641e-01 1.904238e-01 1.960401e-01 1.838959e-01 1.886826e-01 1.737597e-01 1.776612e-01 1.621891e-01 1.653090e-01 1.506855e-01 1.530650e-01 1.398882e-01 1.413716e-01 
1.382356e-01 1.385170e-01 1.286396e-01 1.275372e-01 1.190902e-01 1.165752e-01 1.099847e-01 1.068851e-01 1.036494e-01 1.019618e-01 1.042241e-01 1.062626e-01 1.147887e-01 1.210923e-01 1.340609e-01 1.430735e-01 1.576807e-01 1.674405e-01 1.813735e-01 1.906471e-01 2.022649e-01 2.106669e-01 2.187898e-01 2.264470e-01 2.301923e-01 2.373379e-01 2.360548e-01 2.427277e-01 2.360298e-01 2.419470e-01 2.298540e-01 2.344597e-01 2.176524e-01 2.203031e-01 2.005134e-01 2.007248e-01 1.812720e-01 1.789836e-01 1.651026e-01 1.609796e-01 1.584314e-01 1.540483e-01 1.645145e-01 1.617455e-01 1.797741e-01 1.796853e-01 1.967897e-01 1.994141e-01 2.092493e-01 2.138669e-01 2.139264e-01 2.193552e-01 2.105513e-01 2.156393e-01 2.009043e-01 2.050294e-01 1.876905e-01 1.908284e-01 1.735133e-01 1.759344e-01 1.601955e-01 1.620920e-01 1.485031e-01 1.497750e-01 
1.395422e-01 1.414074e-01 1.344682e-01 1.353491e-01 1.304015e-01 1.302130e-01 1.273622e-01 1.266933e-01 1.267072e-01 1.268551e-01 1.307305e-01 1.330327e-01 1.409717e-01 1.457245e-01 1.566119e-01 1.628545e-01 1.749390e-01 1.813593e-01 1.930622e-01 1.989694e-01 2.090405e-01 2.146044e-01 2.220203e-01 2.279184e-01 2.318042e-01 2.386755e-01 2.382907e-01 2.463021e-01 2.411255e-01 2.498187e-01 2.397555e-01 2.481613e-01 2.338296e-01 2.407485e-01 2.238334e-01 2.281520e-01 2.117974e-01 2.127494e-01 2.015826e-01 1.989980e-01 1.977071e-01 1.923247e-01 2.022599e-01 1.958106e-01 2.125536e-01 2.071691e-01 2.227521e-01 2.200747e-01 2.275974e-01 2.281457e-01 2.247326e-01 2.277445e-01 2.148201e-01 2.188394e-01 2.003306e-01 2.041888e-01 1.841936e-01 1.874755e-01 1.689098e-01 1.717643e-01 1.561243e-01 1.587888e-01 1.464521e-01 1.488912e-01 
1.476516e-01 1.498868e-01 1.438988e-01 1.454243e-01 1.417202e-01 1.422851e-01 1.407706e-01 1.408720e-01 1.421699e-01 1.430783e-01 1.481086e-01 1.511805e-01 1.601648e-01 1.657213e-01 1.776418e-01 1.846569e-01 1.978722e-01 2.048352e-01 2.178080e-01 2.238917e-01 2.352707e-01 2.406642e-01 2.492135e-01 2.547070e-01 2.593239e-01 2.657166e-01 2.655132e-01 2.731743e-01 2.676064e-01 2.762905e-01 2.653946e-01 2.743039e-01 2.589936e-01 2.670174e-01 2.493934e-01 2.553613e-01 2.390008e-01 2.418317e-01 2.316153e-01 2.304858e-01 2.309540e-01 2.258005e-01 2.379024e-01 2.301182e-01 2.490874e-01 2.414409e-01 2.586873e-01 2.539951e-01 2.616034e-01 2.610462e-01 2.555277e-01 2.579975e-01 2.412222e-01 2.444910e-01 2.215613e-01 2.241568e-01 2.002620e-01 2.020415e-01 1.806897e-01 1.822697e-01 1.650913e-01 1.670336e-01 1.542642e-01 1.565960e-01 
1.488296e-01 1.530178e-01 1.507113e-01 1.548227e-01 1.553354e-01 1.589466e-01 1.617812e-01 1.650403e-01 1.701365e-01 1.736241e-01 1.809838e-01 1.851744e-01 1.943400e-01 1.990393e-01 2.090643e-01 2.133898e-01 2.234501e-01 2.263976e-01 2.361169e-01 2.376128e-01 2.465311e-01 2.477284e-01 2.550567e-01 2.577739e-01 2.625146e-01 2.683335e-01 2.694567e-01 2.789763e-01 2.756647e-01 2.882959e-01 2.803214e-01 2.945174e-01 2.825572e-01 2.962853e-01 2.821240e-01 2.933134e-01 2.800531e-01 2.868206e-01 2.787857e-01 2.795952e-01 2.810325e-01 2.752024e-01 2.874060e-01 2.760409e-01 2.947663e-01 2.812045e-01 2.974470e-01 2.861539e-01 2.907276e-01 2.848470e-01 2.737499e-01 2.731263e-01 2.495380e-01 2.514597e-01 2.225853e-01 2.246228e-01 1.968924e-01 1.983419e-01 1.753967e-01 1.768957e-01 1.599984e-01 1.624012e-01 1.513756e-01 1.549140e-01 
1.550078e-01 1.602608e-01 1.595429e-01 1.651453e-01 1.675691e-01 1.727857e-01 1.775760e-01 1.823701e-01 1.892585e-01 1.941040e-01 2.029487e-01 2.082778e-01 2.185483e-01 2.242264e-01 2.350717e-01 2.403121e-01 2.512545e-01 2.548406e-01 2.658595e-01 2.675566e-01 2.781507e-01 2.791689e-01 2.881689e-01 2.904301e-01 2.963886e-01 3.015923e-01 3.031918e-01 3.121855e-01 3.085265e-01 3.210674e-01 3.120980e-01 3.269565e-01 3.138074e-01 3.291607e-01 3.141875e-01 3.279714e-01 3.147413e-01 3.246735e-01 3.177199e-01 3.213003e-01 3.247894e-01 3.200504e-01 3.350703e-01 3.223781e-01 3.443719e-01 3.278333e-01 3.467613e-01 3.328493e-01 3.375533e-01 3.307244e-01 3.158496e-01 3.150397e-01 2.846934e-01 2.853442e-01 2.491372e-01 2.484885e-01 2.147500e-01 2.130869e-01 1.861935e-01 1.852840e-01 1.664609e-01 1.677671e-01 1.564694e-01 1.601983e-01 
1.542331e-01 1.620421e-01 1.659936e-01 1.751662e-01 1.828961e-01 1.923924e-01 2.027487e-01 2.121171e-01 2.241649e-01 2.330699e-01 2.456214e-01 2.533228e-01 2.646921e-01 2.701252e-01 2.789010e-01 2.812136e-01 2.876013e-01 2.859778e-01 2.919148e-01 2.871202e-01 2.937144e-01 2.884338e-01 2.953399e-01 2.932295e-01 2.992715e-01 3.034461e-01 3.070787e-01 3.187279e-01 3.184961e-01 3.367061e-01 3.320438e-01 3.542981e-01 3.458916e-01 3.689540e-01 3.585245e-01 3.791849e-01 3.694926e-01 3.846775e-01 3.797433e-01 3.863594e-01 3.907027e-01 3.861409e-01 4.019445e-01 3.859005e-01 4.090982e-01 3.857070e-01 4.047174e-01 3.822669e-01 3.829540e-01 3.690897e-01 3.449525e-01 3.403474e-01 2.986360e-01 2.974899e-01 2.523105e-01 2.501164e-01 2.114649e-01 2.079184e-01 1.794640e-01 1.769255e-01 1.588339e-01 1.596894e-01 1.508123e-01 1.556994e-01 
1.568011e-01 1.670943e-01 1.737966e-01 1.859777e-01 1.968723e-01 2.095006e-01 2.231440e-01 2.355555e-01 2.506908e-01 2.622476e-01 2.772179e-01 2.867036e-01 2.992402e-01 3.054386e-01 3.140737e-01 3.168378e-01 3.227804e-01 3.211995e-01 3.277485e-01 3.225517e-01 3.309974e-01 3.251739e-01 3.344379e-01 3.317229e-01 3.397262e-01 3.431172e-01 3.478016e-01 3.587122e-01 3.583947e-01 3.764490e-01 3.707796e-01 3.939849e-01 3.844470e-01 4.099619e-01 3.991655e-01 4.239656e-01 4.151038e-01 4.357145e-01 4.327304e-01 4.446681e-01 4.517847e-01 4.502156e-01 4.695471e-01 4.524055e-01 4.800457e-01 4.522485e-01 4.755457e-01 4.492059e-01 4.502960e-01 4.361129e-01 4.052237e-01 4.014369e-01 3.478154e-01 3.437842e-01 2.866390e-01 2.781597e-01 2.306874e-01 2.205025e-01 1.868962e-01 1.797848e-01 1.596358e-01 1.589598e-01 1.504111e-01 1.563662e-01 
1.518654e-01 1.658990e-01 1.786920e-01 1.960562e-01 2.139201e-01 2.328172e-01 2.541289e-01 2.735858e-01 2.964507e-01 3.147892e-01 3.360403e-01 3.499644e-01 3.650569e-01 3.714330e-01 3.772647e-01 3.761346e-01 3.743976e-01 3.652020e-01 3.632871e-01 3.483141e-01 3.501892e-01 3.345902e-01 3.403085e-01 3.306025e-01 3.386837e-01 3.404472e-01 3.484745e-01 3.634253e-01 3.684905e-01 3.949110e-01 3.957257e-01 4.294777e-01 4.269729e-01 4.631094e-01 4.589235e-01 4.930551e-01 4.890217e-01 5.170256e-01 5.163510e-01 5.333749e-01 5.412488e-01 5.417549e-01 5.627045e-01 5.432495e-01 5.745903e-01 5.389363e-01 5.649701e-01 5.270822e-01 5.231452e-01 4.994952e-01 4.527016e-01 4.446505e-01 3.720635e-01 3.649130e-01 2.954476e-01 2.820925e-01 2.299364e-01 2.134156e-01 1.793528e-01 1.665487e-01 1.479287e-01 1.445853e-01 1.393474e-01 1.464659e-01 
1.497457e-01 1.689827e-01 1.863256e-01 2.090889e-01 2.320930e-01 2.565582e-01 2.835465e-01 3.087961e-01 3.374600e-01 3.612296e-01 3.872178e-01 4.043725e-01 4.209640e-01 4.268833e-01 4.301150e-01 4.276413e-01 4.217291e-01 4.103410e-01 4.068797e-01 3.893767e-01 3.929111e-01 3.756151e-01 3.846684e-01 3.741405e-01 3.854627e-01 3.864050e-01 3.968225e-01 4.109261e-01 4.167609e-01 4.431119e-01 4.431552e-01 4.783994e-01 4.752139e-01 5.150181e-01 5.118814e-01 5.524476e-01 5.514068e-01 5.884539e-01 5.918432e-01 6.187154e-01 6.307349e-01 6.381734e-01 6.632898e-01 6.438795e-01 6.808506e-01 6.383451e-01 6.716860e-01 6.274292e-01 6.255239e-01 6.038768e-01 5.453117e-01 5.410403e-01 4.475508e-01 4.321342e-01 3.436223e-01 3.147024e-01 2.506213e-01 2.198678e-01 1.800888e-01 1.585228e-01 1.383939e-01 1.332706e-01 1.298961e-01 1.405594e-01 
1.392281e-01 1.646457e-01 1.899546e-01 2.202512e-01 2.524724e-01 2.860923e-01 3.240393e-01 3.604120e-01 4.013562e-01 4.370371e-01 4.742983e-01 4.999075e-01 5.218983e-01 5.277497e-01 5.265786e-01 5.176826e-01 4.967594e-01 4.725223e-01 4.543312e-01 4.210574e-01 4.139245e-01 3.809167e-01 3.841027e-01 3.622168e-01 3.741020e-01 3.732392e-01 3.900623e-01 4.110899e-01 4.258837e-01 4.650241e-01 4.748192e-01 5.253583e-01 5.327495e-01 5.873333e-01 5.945232e-01 6.478733e-01 6.545217e-01 7.020470e-01 7.088065e-01 7.439809e-01 7.563761e-01 7.694790e-01 7.968508e-01 7.782111e-01 8.232007e-01 7.725826e-01 8.152761e-01 7.546582e-01 7.481354e-01 7.138105e-01 6.273816e-01 6.200589e-01 4.962670e-01 4.727919e-01 3.710770e-01 3.271278e-01 2.624273e-01 2.146320e-01 1.773811e-01 1.406436e-01 1.225755e-01 1.093402e-01 1.103056e-01 1.230646e-01 
1.353863e-01 1.701121e-01 2.017580e-01 2.402954e-01 2.801491e-01 3.226432e-01 3.700170e-01 4.166345e-01 4.683678e-01 5.152698e-01 5.629580e-01 5.964488e-01 6.221918e-01 6.244056e-01 6.153593e-01 6.008888e-01 5.665048e-01 5.335774e-01 5.088350e-01 4.671570e-01 4.609774e-01 4.236657e-01 4.320907e-01 4.099404e-01 4.281249e-01 4.278833e-01 4.513363e-01 4.724288e-01 4.906825e-01 5.303740e-01 5.396843e-01 5.925550e-01 5.996959e-01 6.592532e-01 6.701603e-01 7.326586e-01 7.464816e-01 8.079409e-01 8.226771e-01 8.747643e-01 8.934417e-01 9.208668e-01 9.521921e-01 9.371143e-01 9.876458e-01 9.263333e-01 9.823139e-01 9.101865e-01 9.127503e-01 8.883056e-01 7.827800e-01 7.888902e-01 6.295475e-01 5.798575e-01 4.480348e-01 3.658303e-01 2.866758e-01 2.104219e-01 1.690420e-01 1.153674e-01 9.721243e-02 8.238131e-02 8.908098e-02 1.127516e-01 
1.239238e-01 1.682800e-01 2.089936e-01 2.573443e-01 3.085539e-01 3.634486e-01 4.258693e-01 4.888458e-01 5.593345e-01 6.269602e-01 6.961337e-01 7.491616e-01 7.889990e-01 7.908463e-01 7.762522e-01 7.507675e-01 6.828932e-01 6.240110e-01 5.730914e-01 5.038789e-01 4.809225e-01 4.177984e-01 4.171730e-01 3.771613e-01 4.000996e-01 4.026300e-01 4.424898e-01 4.786102e-01 5.136437e-01 5.739055e-01 5.970882e-01 6.720561e-01 6.940712e-01 7.735624e-01 8.003604e-01 8.794140e-01 9.057151e-01 9.804838e-01 1.000027e+00 1.063306e+00 1.079665e+00 1.117203e+00 1.148398e+00 1.140646e+00 1.204694e+00 1.137957e+00 1.219031e+00 1.122349e+00 1.128310e+00 1.088342e+00 9.344387e-01 9.471467e-01 7.460197e-01 6.704852e-01 5.302057e-01 4.082091e-01 3.339218e-01 2.250123e-01 1.871702e-01 1.062477e-01 8.564427e-02 4.637314e-02 5.906798e-02 9.202318e-02 
1.342335e-01 1.883281e-01 2.346700e-01 2.927862e-01 3.536688e-01 4.203238e-01 4.955316e-01 5.715151e-01 6.566724e-01 7.436141e-01 8.384425e-01 9.216456e-01 9.831779e-01 9.794401e-01 9.479542e-01 9.129125e-01 8.098760e-01 7.208585e-01 6.518417e-01 5.576083e-01 5.337336e-01 4.621886e-01 4.732255e-01 4.404084e-01 4.814893e-01 4.958992e-01 5.587337e-01 6.017153e-01 6.479950e-01 7.118980e-01 7.330442e-01 8.118961e-01 8.317836e-01 9.164242e-01 9.501119e-01 1.039022e+00 1.077439e+00 1.168428e+00 1.198863e+00 1.284582e+00 1.306158e+00 1.367093e+00 1.395739e+00 1.398423e+00 1.458913e+00 1.375679e+00 1.479651e+00 1.358746e+00 1.400740e+00 1.395700e+00 1.217115e+00 1.278829e+00 1.020311e+00 8.615215e-01 6.648148e-01 4.578446e-01 3.640459e-01 2.141362e-01 1.754917e-01 7.744588e-02 5.387192e-02 1.642875e-02 4.322254e-02 9.959801e-02 
1.417203e-01 2.034451e-01 2.564518e-01 3.245532e-01 3.966197e-01 4.758333e-01 5.647838e-01 6.531190e-01 7.546574e-01 8.732104e-01 1.024030e+00 1.184142e+00 1.307390e+00 1.311306e+00 1.275819e+00 1.226712e+00 1.040334e+00 8.809311e-01 7.625937e-01 6.131021e-01 5.626221e-01 4.508297e-01 4.534984e-01 4.001280e-01 4.709433e-01 5.190827e-01 6.332519e-01 7.182494e-01 7.987031e-01 8.985020e-01 9.343825e-01 1.044414e+00 1.081164e+00 1.191082e+00 1.247410e+00 1.354459e+00 1.410022e+00 1.509550e+00 1.540229e+00 1.627174e+00 1.628188e+00 1.690240e+00 1.695228e+00 1.708427e+00 1.774056e+00 1.694696e+00 1.854630e+00 1.693014e+00 1.778606e+00 1.761828e+00 1.506227e+00 1.624035e+00 1.326046e+00 1.083763e+00 8.658788e-01 5.719942e-01 4.642537e-01 2.776383e-01 2.252363e-01 1.208070e-01 8.232533e-02 4.642061e-02 4.544976e-02 1.057267e-01 
1.846697e-01 2.489115e-01 3.047653e-01 3.818651e-01 4.628561e-01 5.503592e-01 6.417017e-01 7.199366e-01 8.154160e-01 9.749189e-01 1.254393e+00 1.594422e+00 1.847548e+00 1.831351e+00 1.725356e+00 1.682298e+00 1.414527e+00 1.130328e+00 9.524299e-01 7.275935e-01 6.677761e-01 5.526790e-01 6.032906e-01 6.051070e-01 7.435357e-01 8.522308e-01 1.037080e+00 1.152012e+00 1.255812e+00 1.368408e+00 1.386574e+00 1.503567e+00 1.528365e+00 1.643271e+00 1.713759e+00 1.829541e+00 1.901310e+00 2.005391e+00 2.035139e+00 2.122695e+00 2.100071e+00 2.168294e+00 2.127064e+00 2.144011e+00 2.143722e+00 2.035441e+00 2.208217e+00 1.980983e+00 2.199887e+00 2.291282e+00 2.036369e+00 2.355797e+00 1.964129e+00 1.460302e+00 1.084779e+00 6.251770e-01 4.806151e-01 2.771341e-01 2.223942e-01 1.516389e-01 1.115320e-01 1.154171e-01 1.058815e-01 1.563555e-01 
2.206427e-01 2.894619e-01 3.492294e-01 4.343957e-01 5.198200e-01 6.060583e-01 6.782580e-01 7.130524e-01 7.983288e-01 1.123050e+00 1.741536e+00 2.449305e+00 2.913285e+00 2.844933e+00 2.633121e+00 2.562485e+00 2.097561e+00 1.583521e+00 1.286950e+00 9.393685e-01 8.345808e-01 6.896706e-01 7.851899e-01 8.037009e-01 1.061968e+00 1.319727e+00 1.649272e+00 1.871577e+00 2.032939e+00 2.196166e+00 2.199412e+00 2.345982e+00 2.375710e+00 2.519274e+00 2.626900e+00 2.768070e+00 2.868339e+00 2.964520e+00 2.976751e+00 3.011883e+00 2.901869e+00 2.886226e+00 2.713187e+00 2.674351e+00 2.566567e+00 2.475375e+00 2.711133e+00 2.404830e+00 2.825736e+00 2.926779e+00 2.597971e+00 3.216389e+00 2.812245e+00 2.029201e+00 1.473726e+00 8.185116e-01 5.880118e-01 3.537680e-01 2.628421e-01 2.004473e-01 1.465821e-01 1.565889e-01 1.426887e-01 1.930595e-01 
2.837418e-01 3.536112e-01 4.162008e-01 5.085723e-01 5.951008e-01 6.683320e-01 6.856849e-01 6.080728e-01 7.356454e-01 1.534689e+00 2.780178e+00 4.063833e+00 4.784160e+00 4.328000e+00 3.692360e+00 3.802893e+00 3.289589e+00 2.363233e+00 1.856847e+00 1.337228e+00 1.213886e+00 1.166597e+00 1.541485e+00 1.844222e+00 2.285912e+00 2.679475e+00 3.159352e+00 3.423619e+00 3.607280e+00 3.775002e+00 3.679178e+00 3.810408e+00 3.784366e+00 3.918676e+00 4.072279e+00 4.240519e+00 4.381634e+00 4.472950e+00 4.457980e+00 4.418483e+00 4.201583e+00 4.086399e+00 3.753386e+00 3.622179e+00 3.234882e+00 3.100327e+00 3.151308e+00 2.653340e+00 3.502054e+00 3.830127e+00 3.697247e+00 5.250219e+00 4.686857e+00 3.010484e+00 1.866457e+00 8.179507e-01 5.120968e-01 3.423104e-01 2.649390e-01 2.605345e-01 2.073697e-01 2.300097e-01 2.134779e-01 2.594230e-01 
3.346918e-01 4.126437e-01 4.803345e-01 5.792800e-01 6.567871e-01 6.974034e-01 6.042699e-01 3.460983e-01 9.596442e-01 2.541197e+00 4.556428e+00 6.467021e+00 7.152383e+00 5.999212e+00 4.841419e+00 5.149401e+00 4.645586e+00 3.424705e+00 2.679373e+00 2.002412e+00 1.926282e+00 2.105049e+00 2.720236e+00 3.057499e+00 3.665074e+00 4.376571e+00 5.159831e+00 5.561476e+00 5.818025e+00 5.988826e+00 5.752215e+00 5.861137e+00 5.786203e+00 5.922885e+00 6.153165e+00 6.386805e+00 6.613373e+00 6.719593e+00 6.702750e+00 6.567732e+00 6.196484e+00 5.846996e+00 5.254531e+00 4.825795e+00 4.099846e+00 4.046387e+00 4.021813e+00 3.519969e+00 4.963994e+00 5.235094e+00 5.314377e+00 8.143112e+00 7.740841e+00 5.091433e+00 3.012997e+00 1.244413e+00 5.863286e-01 2.986884e-01 2.125983e-01 2.507429e-01 2.099741e-01 2.535975e-01 2.476184e-01 3.034784e-01 
3.999223e-01 4.803953e-01 5.523046e-01 6.562699e-01 7.259885e-01 7.349719e-01 5.191479e-01 1.693921e-01 1.545183e+00 3.863799e+00 6.661126e+00 9.139103e+00 8.985914e+00 5.584688e+00 3.518543e+00 5.490682e+00 6.109471e+00 4.508595e+00 3.344498e+00 2.558068e+00 2.578058e+00 3.164579e+00 4.402820e+00 5.407233e+00 5.616842e+00 5.821250e+00 6.601917e+00 6.784886e+00 7.150129e+00 7.281688e+00 6.862935e+00 6.934150e+00 6.719525e+00 6.756410e+00 7.176447e+00 7.525458e+00 7.943436e+00 8.249609e+00 8.407520e+00 8.377026e+00 8.095621e+00 7.759825e+00 7.218065e+00 6.686602e+00 5.680041e+00 5.756934e+00 4.997433e+00 4.405478e+00 6.412803e+00 6.677369e+00 7.492816e+00 1.305596e+01 1.413505e+01 8.821788e+00 4.806795e+00 1.817977e+00 6.581262e-01 2.458280e-01 2.094520e-01 2.939595e-01 2.659712e-01 3.126368e-01 3.109301e-01 3.657930e-01 
4.552085e-01 5.466134e-01 6.280536e-01 7.416931e-01 8.075101e-01 7.975860e-01 4.934675e-01 4.093370e-01 2.178369e+00 5.062849e+00 8.555241e+00 1.042845e+01 5.912030e+00 3.384214e+00 1.934787e+00 4.840366e+00 5.020357e+00 5.376578e+00 3.850374e+00 3.110191e+00 3.434481e+00 4.719774e+00 4.354254e+00 3.370826e+00 2.194368e+00 2.295710e+00 2.828112e+00 2.032446e+00 2.116791e+00 1.634555e+00 1.555149e+00 1.596206e+00 1.630201e+00 1.752751e+00 2.589747e+00 3.004796e+00 3.735070e+00 4.593623e+00 5.728286e+00 6.743839e+00 7.673664e+00 8.156580e+00 8.536808e+00 8.071337e+00 7.332255e+00 7.417959e+00 5.779472e+00 5.902750e+00 7.484654e+00 5.575739e+00 8.998380e+00 1.020094e+01 1.748374e+01 1.418319e+01 8.220224e+00 3.506752e+00 1.354204e+00 3.771742e-01 1.042019e-01 2.275959e-01 2.442976e-01 3.195958e-01 3.395603e-01 4.082859e-01 
5.165209e-01 6.093433e-01 6.962379e-01 8.146526e-01 8.863561e-01 8.849985e-01 5.921175e-01 4.057496e-01 2.156276e+00 5.037229e+00 8.810120e+00 1.057338e+01 5.823024e+00 4.476470e+00 2.589089e+00 3.229422e+00 3.176797e+00 4.175530e+00 2.418951e+00 1.735313e+00 1.320840e+00 1.674107e+00 1.257302e+00 4.012383e+00 4.128852e+00 4.896999e+00 5.379040e+00 5.471324e+00 5.313552e+00 5.075341e+00 4.364345e+00 4.320708e+00 3.603977e+00 3.797048e+00 3.601269e+00 3.334998e+00 2.787330e+00 2.196480e+00 2.103377e+00 3.386778e+00 4.910514e+00 6.414849e+00 8.191615e+00 8.373506e+00 9.169228e+00 9.095215e+00 8.326578e+00 7.995041e+00 7.759095e+00 5.337517e+00 7.243549e+00 8.296816e+00 1.441547e+01 1.584028e+01 8.797204e+00 4.228466e+00 1.623060e+00 6.861351e-01 2.907699e-01 3.232777e-01 3.140788e-01 3.761230e-01 3.984473e-01 4.648665e-01 
5.729731e-01 6.731719e-01 7.743022e-01 9.102983e-01 1.017649e+00 1.076901e+00 9.150072e-01 4.771174e-01 1.280145e+00 3.550518e+00 6.711075e+00 9.351299e+00 9.575186e+00 7.014428e+00 5.466955e+00 6.333505e+00 2.692714e+00 3.040548e+00 2.855375e+00 1.740575e+00 1.372746e+00 1.340637e+00 3.305039e+00 2.444611e+00 1.334001e+00 1.786372e+00 2.638430e+00 2.599580e+00 3.021536e+00 3.093449e+00 2.577507e+00 2.768228e+00 2.300189e+00 2.584917e+00 3.102847e+00 3.425442e+00 3.788680e+00 4.253191e+00 4.394583e+00 4.563880e+00 4.533913e+00 4.862900e+00 5.867996e+00 6.304246e+00 7.995028e+00 9.031182e+00 1.016772e+01 1.090414e+01 1.233606e+01 1.293420e+01 1.302823e+01 1.742107e+01 1.564379e+01 1.217205e+01 6.269637e+00 3.099309e+00 1.159330e+00 5.687645e-01 3.143162e-01 3.486627e-01 3.542812e-01 4.100126e-01 4.425629e-01 5.114497e-01 
6.299622e-01 7.306726e-01 8.393096e-01 9.836295e-01 1.120550e+00 1.237338e+00 1.220288e+00 9.740188e-01 7.555107e-01 1.928601e+00 4.083119e+00 6.396458e+00 7.344803e+00 6.177986e+00 6.525948e+00 6.404865e+00 5.854822e+00 5.688354e+00 2.276938e+00 2.000487e+00 2.836704e-01 1.724801e+00 2.395304e+00 6.907284e-01 1.354576e+00 1.653143e+00 1.303540e+00 9.219831e-01 1.222640e+00 1.270945e+00 1.225721e+00 1.552925e+00 1.603996e+00 1.865369e+00 2.407515e+00 2.784826e+00 3.116273e+00 3.486503e+00 3.649304e+00 3.675042e+00 3.665787e+00 3.558186e+00 3.939461e+00 4.177982e+00 5.136158e+00 6.527579e+00 7.173455e+00 8.596546e+00 9.831094e+00 9.739852e+00 9.949066e+00 1.158301e+01 1.076241e+01 7.278367e+00 3.974505e+00 2.120781e+00 9.334623e-01 5.793092e-01 4.052756e-01 4.178723e-01 4.203967e-01 4.647451e-01 4.988932e-01 5.645406e-01 
6.737900e-01 7.748177e-01 8.919908e-01 1.046169e+00 1.213800e+00 1.387013e+00 1.499582e+00 1.461056e+00 1.178709e+00 8.407685e-01 1.703632e+00 3.288421e+00 4.504203e+00 4.686183e+00 6.017169e+00 4.922939e+00 4.516206e+00 4.118210e+00 2.839575e+00 3.183287e+00 2.502235e+00 3.202732e+00 2.040217e+00 1.789444e+00 1.708447e+00 1.615636e+00 2.087481e+00 2.303993e+00 2.745041e+00 3.044308e+00 3.166001e+00 3.458552e+00 3.677407e+00 3.903882e+00 4.282676e+00 4.533825e+00 4.673156e+00 4.736502e+00 4.617321e+00 4.350442e+00 4.063248e+00 3.612526e+00 3.497279e+00 3.142809e+00 3.372270e+00 3.856743e+00 3.950929e+00 4.852345e+00 5.507764e+00 5.446627e+00 5.624959e+00 6.372024e+00 6.295007e+00 4.150532e+00 2.449765e+00 1.363108e+00 7.699836e-01 5.563361e-01 4.864067e-01 4.724377e-01 4.817844e-01 5.091522e-01 5.450244e-01 6.047956e-01 
7.167056e-01 8.192885e-01 9.429927e-01 1.104307e+00 1.295212e+00 1.511150e+00 1.728248e+00 1.877260e+00 1.898667e+00 1.651161e+00 1.207845e+00 1.008385e+00 1.806427e+00 2.907173e+00 5.178876e+00 6.486300e+00 5.650986e+00 6.002723e+00 6.610888e+00 4.034558e+00 2.514734e+00 2.597812e+00 1.811218e+00 2.675315e+00 3.150575e+00 3.605104e+00 4.230120e+00 4.524042e+00 4.887131e+00 5.155932e+00 5.328381e+00 5.564927e+00 5.767892e+00 5.950316e+00 6.209850e+00 6.384887e+00 6.487071e+00 6.490183e+00 6.347121e+00 6.009654e+00 5.582124e+00 4.864644e+00 4.246019e+00 3.220824e+00 2.680524e+00 2.083300e+00 1.908575e+00 2.480838e+00 2.900083e+00 3.053405e+00 3.155526e+00 3.334276e+00 3.352341e+00 2.163755e+00 1.509415e+00 9.144949e-01 6.901276e-01 5.460902e-01 5.276343e-01 5.070307e-01 5.234186e-01 5.462674e-01 5.851751e-01 6.442596e-01 
7.334317e-01 8.320146e-01 9.561868e-01 1.116703e+00 1.315899e+00 1.549439e+00 1.818069e+00 2.069237e+00 2.283688e+00 2.333363e+00 2.212041e+00 1.795500e+00 1.263790e+00 7.366537e-01 1.617787e+00 3.809702e+00 5.211092e+00 4.733186e+00 6.287586e+00 5.941252e+00 4.602096e+00 4.630573e+00 4.515886e+00 5.474390e+00 5.974122e+00 6.204022e+00 6.413211e+00 6.428468e+00 6.549974e+00 6.657562e+00 6.763230e+00 6.927518e+00 7.091920e+00 7.240133e+00 7.418017e+00 7.512602e+00 7.533383e+00 7.430701e+00 7.202553e+00 6.776925e+00 6.283824e+00 5.515515e+00 4.839371e+00 3.780242e+00 3.057951e+00 1.944474e+00 1.242440e+00 9.238028e-01 1.202814e+00 1.524434e+00 1.816375e+00 2.001585e+00 2.182421e+00 1.496541e+00 1.257813e+00 8.365023e-01 7.604881e-01 6.092860e-01 6.025968e-01 5.556701e-01 5.674358e-01 5.753142e-01 6.108406e-01 6.623934e-01 
7.495200e-01 8.519863e-01 9.806269e-01 1.146940e+00 1.356005e+00 1.605078e+00 1.904605e+00 2.208944e+00 2.519646e+00 2.722721e+00 2.831673e+00 2.717144e+00 2.492095e+00 1.964509e+00 1.151832e+00 5.577618e-01 1.073101e-01 2.087382e+00 1.819076e-01 4.373553e+00 7.867654e+00 7.763165e+00 6.806950e+00 7.094155e+00 7.115597e+00 7.055552e+00 7.053741e+00 6.961701e+00 7.019202e+00 7.090414e+00 7.191537e+00 7.343591e+00 7.504033e+00 7.649513e+00 7.822537e+00 7.919903e+00 7.956009e+00 7.867017e+00 7.659886e+00 7.242318e+00 6.744001e+00 5.943854e+00 5.203243e+00 4.058720e+00 3.211684e+00 1.931302e+00 1.059473e+00 4.256486e-02 7.446398e-01 1.215935e+00 1.523202e+00 1.625036e+00 1.785872e+00 1.192572e+00 1.081722e+00 7.202007e-01 7.052963e-01 5.713324e-01 5.843520e-01 5.455596e-01 5.659050e-01 5.794001e-01 6.194212e-01 6.751109e-01 
7.334317e-01 8.320146e-01 9.561868e-01 1.116703e+00 1.315899e+00 1.549439e+00 1.818069e+00 2.069237e+00 2.283688e+00 2.333363e+00 2.212041e+00 1.795500e+00 1.263790e+00 7.366537e-01 1.617787e+00 3.809702e+00 5.211092e+00 4.733186e+00 6.287586e+00 5.941252e+00 4.602096e+00 4.630573e+00 4.515886e+00 5.474390e+00 5.974122e+00 6.204022e+00 6.413211e+00 6.428468e+00 6.549974e+00 6.657562e+00 6.763230e+00 6.927518e+00 7.091920e+00 7.240133e+00 7.418017e+00 7.512602e+00 7.533383e+00 7.430701e+00 7.202553e+00 6.776925e+00 6.283824e+00 5.515515e+00 4.839371e+00 3.780242e+00 3.057951e+00 1.944474e+00 1.242440e+00 9.238028e-01 1.202814e+00 1.524434e+00 1.816375e+00 2.001585e+00 2.182421e+00 1.496541e+00 1.257813e+00 8.365023e-01 7.604881e-01 6.092860e-01 6.025968e-01 5.556701e-01 5.674358e-01 5.753142e-01 6.108406e-01 6.623934e-01 
7.167056e-01 8.192885e-01 9.429927e-01 1.104307e+00 1.295212e+00 1.511150e+00 1.728248e+00 1.877260e+00 1.898667e+00 1.651161e+00 1.207845e+00 1.008385e+00 1.806427e+00 2.907173e+00 5.178876e+00 6.486300e+00 5.650986e+00 6.002723e+00 6.610888e+00 4.034558e+00 2.514734e+00 2.597812e+00 1.811218e+00 2.675315e+00 3.150575e+00 3.605104e+00 4.230120e+00 4.524042e+00 4.887131e+00 5.155932e+00 5.328381e+00 5.564927e+00 5.767892e+00 5.950316e+00 6.209850e+00 6.384887e+00 6.487071e+00 6.490183e+00 6.347121e+00 6.009654e+00 5.582124e+00 4.864644e+00 4.246019e+00 3.220824e+00 2.680524e+00 2.083300e+00 1.908575e+00 2.480838e+00 2.900083e+00 3.053405e+00 3.155526e+00 3.334276e+00 3.352341e+00 2.163755e+00 1.509415e+00 9.144949e-01 6.901276e-01 5.460902e-01 5.276343e-01 5.070307e-01 5.234186e-01 5.462674e-01 5.851751e-01 6.442596e-01 