# vtk DataFile Version 2.0
Comment goes here
ASCII

DATASET STRUCTURED_POINTS
DIMENSIONS    64   64   1

ORIGIN    0.000   0.000   0.000
SPACING   0.0781250.078125   1.000

POINT_DATA   4096
SCALARS uX double
LOOKUP_TABLE default

1.213238e-01 1.192210e-01 1.039201e-01 9.959452e-02 8.345630e-02 7.655759e-02 5.927657e-02 4.964548e-02 3.111991e-02 1.890384e-02 -6.310673e-04 -1.492869e-02 -3.486239e-02 -5.043667e-02 -6.985912e-02 -8.575907e-02 -1.036189e-01 -1.189425e-01 -1.342143e-01 -1.482549e-01 -1.600497e-01 -1.723356e-01 -1.799362e-01 -1.901682e-01 -1.930121e-01 -2.009516e-01 -1.986024e-01 -2.039715e-01 -1.961145e-01 -1.985562e-01 -1.850361e-01 -1.841533e-01 -1.650580e-01 -1.605220e-01 -1.362977e-01 -1.279923e-01 -9.955980e-02 -8.771257e-02 -5.653725e-02 -4.178772e-02 -9.850771e-03 6.782575e-03 3.715345e-02 5.441453e-02 8.085601e-02 9.747049e-02 1.179816e-01 1.328912e-01 1.462107e-01 1.587489e-01 1.645837e-01 1.745367e-01 1.735449e-01 1.810816e-01 1.746083e-01 1.801129e-01 1.697843e-01 1.736592e-01 1.609898e-01 1.635008e-01 1.496269e-01 1.508244e-01 1.363973e-01 1.361121e-01 
1.168789e-01 1.154389e-01 1.007522e-01 9.711880e-02 8.164707e-02 7.544610e-02 5.885130e-02 4.990587e-02 3.206126e-02 2.050867e-02 1.633555e-03 -1.202531e-02 -3.132896e-02 -4.628887e-02 -6.511954e-02 -8.043667e-02 -9.776184e-02 -1.125596e-01 -1.273888e-01 -1.410073e-01 -1.524989e-01 -1.645255e-01 -1.720088e-01 -1.821989e-01 -1.851408e-01 -1.932871e-01 -1.912517e-01 -1.970722e-01 -1.897120e-01 -1.928091e-01 -1.799087e-01 -1.798182e-01 -1.613911e-01 -1.577069e-01 -1.341263e-01 -1.266614e-01 -9.879246e-02 -8.772454e-02 -5.700730e-02 -4.295342e-02 -1.137944e-02 4.638694e-03 3.469992e-02 5.140808e-02 7.753589e-02 9.364270e-02 1.137872e-01 1.282336e-01 1.411173e-01 1.532589e-01 1.586175e-01 1.682805e-01 1.668391e-01 1.742351e-01 1.674185e-01 1.729600e-01 1.624581e-01 1.665515e-01 1.539087e-01 1.568011e-01 1.431503e-01 1.448590e-01 1.308245e-01 1.311435e-01 
1.224754e-01 1.205751e-01 1.054361e-01 1.012849e-01 8.529811e-02 7.847762e-02 6.124559e-02 5.153900e-02 3.289371e-02 2.042408e-02 5.819427e-04 -1.411970e-02 -3.450994e-02 -5.056083e-02 -7.050995e-02 -8.686162e-02 -1.052349e-01 -1.209124e-01 -1.366293e-01 -1.509067e-01 -1.630612e-01 -1.754979e-01 -1.833812e-01 -1.937340e-01 -1.967975e-01 -2.048772e-01 -2.026867e-01 -2.082351e-01 -2.004563e-01 -2.030968e-01 -1.895326e-01 -1.888137e-01 -1.694946e-01 -1.650158e-01 -1.403302e-01 -1.319097e-01 -1.027432e-01 -9.057497e-02 -5.840778e-02 -4.314780e-02 -1.004575e-02 7.216705e-03 3.877040e-02 5.666957e-02 8.411258e-02 1.012570e-01 1.223995e-01 1.376431e-01 1.511098e-01 1.637558e-01 1.692619e-01 1.791314e-01 1.774675e-01 1.848134e-01 1.775278e-01 1.828325e-01 1.717478e-01 1.754914e-01 1.622549e-01 1.647423e-01 1.505440e-01 1.518272e-01 1.373051e-01 1.371879e-01 
1.190335e-01 1.180280e-01 1.037029e-01 1.004421e-01 8.530564e-02 7.927862e-02 6.280667e-02 5.372023e-02 3.565195e-02 2.359462e-02 4.113507e-03 -1.035387e-02 -3.056215e-02 -4.646823e-02 -6.633355e-02 -8.252879e-02 -1.008459e-01 -1.163051e-01 -1.319776e-01 -1.460105e-01 -1.581752e-01 -1.704489e-01 -1.784681e-01 -1.888686e-01 -1.922494e-01 -2.006805e-01 -1.989951e-01 -2.052149e-01 -1.980711e-01 -2.016328e-01 -1.887188e-01 -1.890336e-01 -1.702318e-01 -1.667325e-01 -1.422846e-01 -1.346396e-01 -1.053281e-01 -9.364051e-02 -6.092908e-02 -4.585101e-02 -1.190502e-02 5.389534e-03 3.787381e-02 5.587515e-02 8.405495e-02 1.012224e-01 1.226461e-01 1.377383e-01 1.508876e-01 1.632047e-01 1.678394e-01 1.772927e-01 1.744275e-01 1.814136e-01 1.729091e-01 1.780470e-01 1.660029e-01 1.698528e-01 1.560798e-01 1.589578e-01 1.446854e-01 1.466025e-01 1.324162e-01 1.331059e-01 
1.258102e-01 1.245800e-01 1.100230e-01 1.064630e-01 9.102203e-02 8.449350e-02 6.747440e-02 5.756536e-02 3.857927e-02 2.532085e-02 4.518303e-03 -1.147383e-02 -3.331341e-02 -5.089222e-02 -7.250535e-02 -9.028568e-02 -1.102548e-01 -1.270143e-01 -1.440844e-01 -1.590413e-01 -1.722670e-01 -1.851005e-01 -1.938186e-01 -2.044846e-01 -2.082052e-01 -2.166863e-01 -2.149911e-01 -2.210975e-01 -2.135952e-01 -2.168860e-01 -2.032468e-01 -2.030913e-01 -1.831583e-01 -1.789162e-01 -1.528811e-01 -1.441491e-01 -1.127658e-01 -9.961769e-02 -6.438994e-02 -4.752759e-02 -1.077447e-02 8.485193e-03 4.378669e-02 6.371744e-02 9.435431e-02 1.131765e-01 1.363276e-01 1.526038e-01 1.665041e-01 1.794386e-01 1.838270e-01 1.933625e-01 1.894793e-01 1.961550e-01 1.862362e-01 1.908644e-01 1.773788e-01 1.806895e-01 1.656993e-01 1.681141e-01 1.529562e-01 1.545239e-01 1.397750e-01 1.402103e-01 
1.231107e-01 1.230994e-01 1.096933e-01 1.073142e-01 9.303390e-02 8.747073e-02 7.137784e-02 6.205750e-02 4.357673e-02 3.044908e-02 9.671148e-03 -6.580483e-03 -2.876791e-02 -4.677329e-02 -6.888181e-02 -8.698329e-02 -1.073916e-01 -1.242049e-01 -1.415867e-01 -1.563700e-01 -1.698491e-01 -1.824879e-01 -1.915397e-01 -2.022508e-01 -2.065022e-01 -2.154631e-01 -2.145224e-01 -2.215901e-01 -2.149757e-01 -2.195908e-01 -2.067800e-01 -2.080658e-01 -1.886456e-01 -1.856603e-01 -1.595599e-01 -1.516287e-01 -1.194079e-01 -1.064454e-01 -6.957131e-02 -5.229208e-02 -1.327476e-02 6.808545e-03 4.456162e-02 6.539901e-02 9.808535e-02 1.175569e-01 1.417807e-01 1.582202e-01 1.718774e-01 1.844612e-01 1.873588e-01 1.962089e-01 1.900611e-01 1.960221e-01 1.837323e-01 1.879108e-01 1.725171e-01 1.758115e-01 1.596826e-01 1.625390e-01 1.470627e-01 1.494577e-01 1.350939e-01 1.366235e-01 
1.309428e-01 1.310466e-01 1.177971e-01 1.154654e-01 1.012608e-01 9.543252e-02 7.901001e-02 6.886251e-02 4.937898e-02 3.471061e-02 1.216204e-02 -6.273102e-03 -3.083107e-02 -5.132777e-02 -7.602705e-02 -9.646263e-02 -1.192865e-01 -1.379134e-01 -1.572862e-01 -1.732481e-01 -1.882128e-01 -2.014922e-01 -2.115398e-01 -2.225414e-01 -2.273420e-01 -2.364179e-01 -2.356123e-01 -2.427194e-01 -2.358244e-01 -2.403960e-01 -2.268376e-01 -2.278838e-01 -2.071423e-01 -2.035371e-01 -1.753956e-01 -1.662745e-01 -1.311669e-01 -1.163335e-01 -7.572252e-02 -5.593746e-02 -1.255273e-02 1.043347e-02 5.269943e-02 7.644410e-02 1.130996e-01 1.350392e-01 1.619680e-01 1.800748e-01 1.946725e-01 2.079560e-01 2.099885e-01 2.186551e-01 2.103190e-01 2.155168e-01 2.004991e-01 2.037260e-01 1.857814e-01 1.882428e-01 1.701659e-01 1.724638e-01 1.557737e-01 1.579143e-01 1.430016e-01 1.445239e-01 
1.286004e-01 1.304101e-01 1.189019e-01 1.182185e-01 1.057288e-01 1.011985e-01 8.605382e-02 7.654407e-02 5.755287e-02 4.266499e-02 1.969500e-02 2.820420e-04 -2.538006e-02 -4.714888e-02 -7.312815e-02 -9.452612e-02 -1.183578e-01 -1.372730e-01 -1.572459e-01 -1.729008e-01 -1.882254e-01 -2.010193e-01 -2.114834e-01 -2.223341e-01 -2.278537e-01 -2.374919e-01 -2.377808e-01 -2.462580e-01 -2.406962e-01 -2.472405e-01 -2.349440e-01 -2.381396e-01 -2.181685e-01 -2.163681e-01 -1.880512e-01 -1.799145e-01 -1.433133e-01 -1.283568e-01 -8.480574e-02 -6.380865e-02 -1.630836e-02 8.617304e-03 5.544604e-02 8.124248e-02 1.218359e-01 1.452801e-01 1.744128e-01 1.930264e-01 2.073887e-01 2.201207e-01 2.195702e-01 2.269781e-01 2.146475e-01 2.184837e-01 1.993747e-01 2.017025e-01 1.805961e-01 1.828957e-01 1.630288e-01 1.658924e-01 1.487572e-01 1.520381e-01 1.377614e-01 1.408084e-01 
1.371436e-01 1.395988e-01 1.289413e-01 1.288963e-01 1.171861e-01 1.128762e-01 9.788647e-02 8.769577e-02 6.771042e-02 5.087033e-02 2.551089e-02 2.918955e-03 -2.623474e-02 -5.178075e-02 -8.159147e-02 -1.064385e-01 -1.337012e-01 -1.550607e-01 -1.777018e-01 -1.946954e-01 -2.119172e-01 -2.252476e-01 -2.369642e-01 -2.479577e-01 -2.542052e-01 -2.639251e-01 -2.644966e-01 -2.731728e-01 -2.674597e-01 -2.743002e-01 -2.613395e-01 -2.647092e-01 -2.433714e-01 -2.412623e-01 -2.105750e-01 -2.012555e-01 -1.609555e-01 -1.436708e-01 -9.494198e-02 -7.047867e-02 -1.656471e-02 1.259512e-02 6.632279e-02 9.644863e-02 1.432457e-01 1.703335e-01 2.036508e-01 2.245820e-01 2.401172e-01 2.535486e-01 2.510333e-01 2.576902e-01 2.412182e-01 2.434498e-01 2.195840e-01 2.202135e-01 1.950226e-01 1.960410e-01 1.733661e-01 1.755474e-01 1.569405e-01 1.601197e-01 1.454930e-01 1.489051e-01 
1.346161e-01 1.395027e-01 1.315714e-01 1.339351e-01 1.249035e-01 1.225333e-01 1.095204e-01 1.002127e-01 8.083350e-02 6.332343e-02 3.686359e-02 1.210949e-02 -1.941394e-02 -4.768433e-02 -8.001067e-02 -1.068291e-01 -1.358070e-01 -1.576149e-01 -1.809818e-01 -1.971228e-01 -2.145191e-01 -2.265647e-01 -2.385384e-01 -2.488107e-01 -2.558950e-01 -2.661666e-01 -2.683104e-01 -2.789711e-01 -2.753459e-01 -2.852321e-01 -2.743854e-01 -2.811322e-01 -2.612750e-01 -2.619927e-01 -2.313906e-01 -2.235247e-01 -1.812015e-01 -1.634651e-01 -1.102302e-01 -8.339704e-02 -2.278689e-02 1.004427e-02 7.151916e-02 1.055020e-01 1.592362e-01 1.891345e-01 2.264948e-01 2.483366e-01 2.635551e-01 2.758839e-01 2.687591e-01 2.729828e-01 2.494744e-01 2.491361e-01 2.184350e-01 2.174454e-01 1.873997e-01 1.881234e-01 1.630367e-01 1.660626e-01 1.471498e-01 1.519739e-01 1.385787e-01 1.441492e-01 
1.431950e-01 1.495450e-01 1.436335e-01 1.476366e-01 1.406412e-01 1.394600e-01 1.276098e-01 1.181366e-01 9.801686e-02 7.809766e-02 4.833463e-02 1.877574e-02 -1.812506e-02 -5.238770e-02 -9.052953e-02 -1.225928e-01 -1.563848e-01 -1.813747e-01 -2.081016e-01 -2.254452e-01 -2.450307e-01 -2.571074e-01 -2.704766e-01 -2.804173e-01 -2.883343e-01 -2.984795e-01 -3.010448e-01 -3.120845e-01 -3.085155e-01 -3.192553e-01 -3.080154e-01 -3.157077e-01 -2.947365e-01 -2.958453e-01 -2.628655e-01 -2.540929e-01 -2.074076e-01 -1.868766e-01 -1.267782e-01 -9.514665e-02 -2.532444e-02 1.374637e-02 8.568881e-02 1.262051e-01 1.897038e-01 2.250620e-01 2.690828e-01 2.941849e-01 3.109389e-01 3.238006e-01 3.126543e-01 3.149685e-01 2.838067e-01 2.802687e-01 2.414971e-01 2.375558e-01 2.012906e-01 2.001058e-01 1.712940e-01 1.735342e-01 1.531089e-01 1.580985e-01 1.448785e-01 1.513739e-01 
1.397269e-01 1.495297e-01 1.478744e-01 1.554928e-01 1.527932e-01 1.547799e-01 1.462731e-01 1.384234e-01 1.193572e-01 9.825502e-02 6.627272e-02 3.243567e-02 -9.225081e-03 -4.897996e-02 -9.182022e-02 -1.276377e-01 -1.640480e-01 -1.894335e-01 -2.165848e-01 -2.316737e-01 -2.506261e-01 -2.596342e-01 -2.726159e-01 -2.805662e-01 -2.892910e-01 -2.998244e-01 -3.046641e-01 -3.186755e-01 -3.184380e-01 -3.340235e-01 -3.264055e-01 -3.395798e-01 -3.215569e-01 -3.273330e-01 -2.954080e-01 -2.890867e-01 -2.402195e-01 -2.189176e-01 -1.524522e-01 -1.166740e-01 -3.643402e-02 9.157149e-03 9.389383e-02 1.413046e-01 2.168266e-01 2.571532e-01 3.085263e-01 3.350546e-01 3.513493e-01 3.618772e-01 3.422365e-01 3.397597e-01 2.959000e-01 2.875083e-01 2.373837e-01 2.307362e-01 1.874649e-01 1.860406e-01 1.545352e-01 1.582395e-01 1.382178e-01 1.456449e-01 1.347938e-01 1.443228e-01 
1.471562e-01 1.596032e-01 1.617857e-01 1.726706e-01 1.741517e-01 1.791982e-01 1.738882e-01 1.672731e-01 1.483726e-01 1.245493e-01 8.785479e-02 4.637772e-02 -4.177212e-03 -5.406361e-02 -1.061324e-01 -1.503025e-01 -1.933680e-01 -2.226031e-01 -2.535394e-01 -2.689051e-01 -2.899803e-01 -2.977244e-01 -3.120334e-01 -3.186297e-01 -3.281619e-01 -3.380774e-01 -3.434464e-01 -3.580544e-01 -3.581679e-01 -3.755433e-01 -3.680681e-01 -3.835973e-01 -3.652470e-01 -3.728487e-01 -3.392508e-01 -3.328817e-01 -2.794998e-01 -2.550482e-01 -1.798758e-01 -1.374011e-01 -4.405459e-02 1.093209e-02 1.116662e-01 1.691828e-01 2.604352e-01 3.091612e-01 3.716993e-01 4.029550e-01 4.215925e-01 4.322112e-01 4.045876e-01 3.979186e-01 3.396983e-01 3.249953e-01 2.612251e-01 2.495784e-01 1.973071e-01 1.932612e-01 1.573943e-01 1.603785e-01 1.393293e-01 1.473820e-01 1.377410e-01 1.489763e-01 
1.416821e-01 1.588610e-01 1.674632e-01 1.837789e-01 1.921623e-01 2.026957e-01 2.034197e-01 2.004083e-01 1.839580e-01 1.586878e-01 1.178876e-01 6.812486e-02 7.840985e-03 -5.320489e-02 -1.141151e-01 -1.654047e-01 -2.120963e-01 -2.409803e-01 -2.709320e-01 -2.808353e-01 -2.991988e-01 -3.002314e-01 -3.125967e-01 -3.146778e-01 -3.247665e-01 -3.347491e-01 -3.435443e-01 -3.628468e-01 -3.683139e-01 -3.935699e-01 -3.921772e-01 -4.167256e-01 -4.039907e-01 -4.194799e-01 -3.892301e-01 -3.872983e-01 -3.325082e-01 -3.071068e-01 -2.235606e-01 -1.741518e-01 -6.498555e-02 1.373913e-03 1.230989e-01 1.928470e-01 3.051106e-01 3.625729e-01 4.389205e-01 4.723308e-01 4.906158e-01 4.963906e-01 4.526140e-01 4.364733e-01 3.544073e-01 3.304107e-01 2.477829e-01 2.320152e-01 1.705981e-01 1.671027e-01 1.294564e-01 1.352405e-01 1.164296e-01 1.280863e-01 1.227023e-01 1.380236e-01 
1.459946e-01 1.673140e-01 1.822899e-01 2.043237e-01 2.203477e-01 2.374034e-01 2.453518e-01 2.470116e-01 2.333375e-01 2.058259e-01 1.580558e-01 9.533276e-02 1.887071e-02 -6.051759e-02 -1.367471e-01 -2.020492e-01 -2.574544e-01 -2.899204e-01 -3.229095e-01 -3.301747e-01 -3.497730e-01 -3.468503e-01 -3.602776e-01 -3.592656e-01 -3.700367e-01 -3.785798e-01 -3.880525e-01 -4.082885e-01 -4.144876e-01 -4.431063e-01 -4.426283e-01 -4.719879e-01 -4.605295e-01 -4.805635e-01 -4.507847e-01 -4.508422e-01 -3.926899e-01 -3.641920e-01 -2.702697e-01 -2.113928e-01 -8.369483e-02 -2.777941e-03 1.436446e-01 2.294943e-01 3.677586e-01 4.385171e-01 5.348075e-01 5.753746e-01 5.983833e-01 6.035387e-01 5.440399e-01 5.194724e-01 4.094206e-01 3.726945e-01 2.669280e-01 2.429771e-01 1.696860e-01 1.632237e-01 1.218080e-01 1.274426e-01 1.091600e-01 1.221560e-01 1.196838e-01 1.376351e-01 
1.369660e-01 1.642426e-01 1.882574e-01 2.181667e-01 2.450130e-01 2.717223e-01 2.909199e-01 3.009844e-01 2.935969e-01 2.655010e-01 2.101996e-01 1.309387e-01 3.348578e-02 -6.899330e-02 -1.617412e-01 -2.403190e-01 -2.993969e-01 -3.282817e-01 -3.560034e-01 -3.507752e-01 -3.631446e-01 -3.465151e-01 -3.548909e-01 -3.447481e-01 -3.558568e-01 -3.645554e-01 -3.799785e-01 -4.084020e-01 -4.233678e-01 -4.650035e-01 -4.742125e-01 -5.182751e-01 -5.167410e-01 -5.500309e-01 -5.282155e-01 -5.364781e-01 -4.797578e-01 -4.506052e-01 -3.466713e-01 -2.764357e-01 -1.251638e-01 -2.438188e-02 1.564234e-01 2.642247e-01 4.397331e-01 5.260867e-01 6.496445e-01 6.935448e-01 7.181276e-01 7.138094e-01 6.228637e-01 5.799067e-01 4.226864e-01 3.675556e-01 2.307212e-01 2.015091e-01 1.189537e-01 1.159309e-01 7.676097e-02 8.782547e-02 7.553088e-02 9.358119e-02 9.803305e-02 1.209535e-01 
1.350178e-01 1.678578e-01 2.011729e-01 2.399767e-01 2.794806e-01 3.185283e-01 3.523823e-01 3.744717e-01 3.759994e-01 3.477234e-01 2.805807e-01 1.766539e-01 4.621899e-02 -9.059209e-02 -2.080454e-01 -3.103229e-01 -3.779606e-01 -4.053380e-01 -4.312656e-01 -4.154972e-01 -4.265784e-01 -4.012761e-01 -4.111031e-01 -3.961554e-01 -4.086166e-01 -4.156723e-01 -4.331547e-01 -4.638014e-01 -4.803697e-01 -5.281416e-01 -5.387544e-01 -5.914887e-01 -5.935746e-01 -6.359491e-01 -6.193075e-01 -6.336857e-01 -5.775242e-01 -5.462466e-01 -4.310677e-01 -3.470155e-01 -1.695249e-01 -4.524497e-02 1.740194e-01 3.084344e-01 5.277081e-01 6.356846e-01 7.972784e-01 8.525644e-01 8.899990e-01 8.851288e-01 7.638463e-01 7.062965e-01 4.917202e-01 4.093553e-01 2.334001e-01 1.913981e-01 9.630055e-02 9.146911e-02 5.229124e-02 6.471726e-02 5.620886e-02 7.641523e-02 8.603021e-02 1.122699e-01 
1.200883e-01 1.591616e-01 2.036900e-01 2.528136e-01 3.080496e-01 3.630680e-01 4.169360e-01 4.565870e-01 4.718181e-01 4.440892e-01 3.592949e-01 2.177550e-01 3.829682e-02 -1.447587e-01 -2.879871e-01 -4.107542e-01 -4.741902e-01 -4.845687e-01 -4.928660e-01 -4.492319e-01 -4.441560e-01 -3.926668e-01 -3.923321e-01 -3.611750e-01 -3.766641e-01 -3.888107e-01 -4.209914e-01 -4.692590e-01 -5.016028e-01 -5.713587e-01 -5.957900e-01 -6.713335e-01 -6.888273e-01 -7.522705e-01 -7.515919e-01 -7.806015e-01 -7.325175e-01 -7.017002e-01 -5.760103e-01 -4.730956e-01 -2.606941e-01 -1.009049e-01 1.747411e-01 3.498472e-01 6.359439e-01 7.727371e-01 9.913127e-01 1.052329e+00 1.101982e+00 1.081153e+00 8.992581e-01 8.095605e-01 4.963116e-01 3.751630e-01 1.498565e-01 1.037883e-01 7.020363e-03 1.296247e-02 -1.375944e-02 8.162823e-03 1.169978e-02 3.789562e-02 5.720688e-02 8.818760e-02 
1.070735e-01 1.519909e-01 2.078162e-01 2.685103e-01 3.417844e-01 4.163692e-01 4.951537e-01 5.570538e-01 5.882933e-01 5.568975e-01 4.389032e-01 2.368729e-01 -1.940044e-02 -2.607883e-01 -4.294075e-01 -5.851044e-01 -6.403745e-01 -6.212257e-01 -6.081206e-01 -5.326907e-01 -5.204885e-01 -4.544763e-01 -4.622042e-01 -4.311673e-01 -4.557227e-01 -4.739755e-01 -5.188702e-01 -5.770583e-01 -6.156495e-01 -6.974291e-01 -7.211269e-01 -8.098570e-01 -8.317713e-01 -9.096807e-01 -9.224134e-01 -9.643359e-01 -9.253718e-01 -8.944316e-01 -7.574093e-01 -6.320935e-01 -3.808455e-01 -1.800073e-01 1.567622e-01 3.789321e-01 7.392750e-01 9.128609e-01 1.208730e+00 1.289119e+00 1.381503e+00 1.367778e+00 1.133742e+00 1.032638e+00 5.968701e-01 4.110434e-01 1.204424e-01 5.438612e-02 -4.818508e-02 -4.044877e-02 -5.822708e-02 -3.303594e-02 -2.106704e-02 7.280721e-03 3.360812e-02 6.743889e-02 
8.262198e-02 1.313224e-01 1.977365e-01 2.686902e-01 3.604432e-01 4.557627e-01 5.622045e-01 6.480143e-01 6.922218e-01 6.419388e-01 4.572585e-01 1.458924e-01 -2.369946e-01 -5.562241e-01 -7.316643e-01 -8.945520e-01 -8.966620e-01 -8.036037e-01 -7.348299e-01 -5.967655e-01 -5.525064e-01 -4.428527e-01 -4.377435e-01 -3.868663e-01 -4.361189e-01 -4.912372e-01 -5.862839e-01 -6.924083e-01 -7.645885e-01 -8.842344e-01 -9.219726e-01 -1.041385e+00 -1.081064e+00 -1.187707e+00 -1.227775e+00 -1.293412e+00 -1.274780e+00 -1.245600e+00 -1.098321e+00 -9.391059e-01 -6.337056e-01 -3.655192e-01 6.542226e-02 3.686293e-01 8.501410e-01 1.081414e+00 1.503617e+00 1.596664e+00 1.749403e+00 1.721966e+00 1.386235e+00 1.256852e+00 6.077607e-01 3.305352e-01 -3.313454e-02 -9.865653e-02 -1.782204e-01 -1.483511e-01 -1.363837e-01 -9.932023e-02 -6.924602e-02 -3.706527e-02 -4.339047e-04 3.502587e-02 
5.181131e-02 1.036197e-01 1.793922e-01 2.602614e-01 3.700813e-01 4.854560e-01 6.179692e-01 7.199331e-01 7.590728e-01 6.487402e-01 3.291672e-01 -1.736320e-01 -7.575365e-01 -1.133066e+00 -1.255510e+00 -1.442426e+00 -1.355353e+00 -1.111796e+00 -9.520221e-01 -7.273830e-01 -6.668187e-01 -5.518267e-01 -6.015686e-01 -5.986562e-01 -6.966815e-01 -7.991812e-01 -9.532676e-01 -1.097942e+00 -1.192405e+00 -1.335077e+00 -1.356166e+00 -1.487884e+00 -1.521774e+00 -1.642883e+00 -1.709408e+00 -1.797707e+00 -1.804261e+00 -1.777614e+00 -1.616972e+00 -1.414281e+00 -1.042598e+00 -6.937429e-01 -1.597548e-01 2.374290e-01 8.441495e-01 1.145315e+00 1.732900e+00 1.862378e+00 2.170785e+00 2.199808e+00 1.822812e+00 1.788908e+00 8.842379e-01 4.218723e-01 -6.201197e-02 -1.766907e-01 -2.498997e-01 -2.200676e-01 -1.894264e-01 -1.516110e-01 -1.108097e-01 -7.963829e-02 -3.682921e-02 -1.513011e-03 
1.269610e-02 6.098149e-02 1.399881e-01 2.230894e-01 3.428936e-01 4.683677e-01 6.138926e-01 7.105568e-01 7.064901e-01 4.658785e-01 -1.003390e-01 -9.398137e-01 -1.856467e+00 -2.291910e+00 -2.258002e+00 -2.384144e+00 -2.088299e+00 -1.582953e+00 -1.274227e+00 -9.281701e-01 -8.316947e-01 -6.894038e-01 -7.675875e-01 -7.791136e-01 -9.923204e-01 -1.249654e+00 -1.559024e+00 -1.821495e+00 -1.978321e+00 -2.172247e+00 -2.178219e+00 -2.333144e+00 -2.369644e+00 -2.517366e+00 -2.626080e+00 -2.750972e+00 -2.799938e+00 -2.776085e+00 -2.603532e+00 -2.334368e+00 -1.868400e+00 -1.383391e+00 -6.855936e-01 -1.100010e-01 7.149492e-01 1.147065e+00 2.024899e+00 2.186653e+00 2.747958e+00 2.836676e+00 2.397790e+00 2.544755e+00 1.195249e+00 4.513034e-01 -1.706882e-01 -3.248000e-01 -3.505960e-01 -3.079019e-01 -2.383497e-01 -2.002055e-01 -1.439893e-01 -1.188733e-01 -7.134283e-02 -4.217353e-02 
-4.337066e-02 8.759729e-04 7.978295e-02 1.612188e-01 2.834442e-01 4.067781e-01 5.457683e-01 6.006276e-01 4.968323e-01 1.929167e-02 -9.408895e-01 -2.313441e+00 -3.696432e+00 -3.917260e+00 -3.464990e+00 -3.738651e+00 -3.265626e+00 -2.283087e+00 -1.747815e+00 -1.255608e+00 -1.182439e+00 -1.162740e+00 -1.535539e+00 -1.817492e+00 -2.166112e+00 -2.536801e+00 -3.003426e+00 -3.336347e+00 -3.529564e+00 -3.741732e+00 -3.651593e+00 -3.788499e+00 -3.770297e+00 -3.907769e+00 -4.070751e+00 -4.237271e+00 -4.343799e+00 -4.329248e+00 -4.130318e+00 -3.761599e+00 -3.155696e+00 -2.493928e+00 -1.601763e+00 -8.059985e-01 2.171253e-01 8.102134e-01 2.032485e+00 2.255037e+00 3.354250e+00 3.699670e+00 3.497175e+00 4.481351e+00 2.676759e+00 1.193090e+00 1.654576e-01 -2.475330e-01 -3.275533e-01 -3.376658e-01 -2.647920e-01 -2.439566e-01 -1.848384e-01 -1.688503e-01 -1.208616e-01 -9.754156e-02 
-1.022364e-01 -7.308994e-02 -6.729713e-03 5.773808e-02 1.629701e-01 2.604324e-01 3.641231e-01 3.459338e-01 1.119708e-01 -6.388533e-01 -2.045712e+00 -4.080244e+00 -6.028425e+00 -5.820341e+00 -4.696440e+00 -5.095970e+00 -4.471828e+00 -3.048655e+00 -2.391609e+00 -1.872315e+00 -1.919439e+00 -2.071868e+00 -2.593676e+00 -2.943292e+00 -3.496873e+00 -4.190783e+00 -4.983431e+00 -5.478658e+00 -5.752086e+00 -5.972250e+00 -5.741474e+00 -5.849836e+00 -5.778984e+00 -5.909465e+00 -6.147505e+00 -6.386713e+00 -6.592046e+00 -6.601633e+00 -6.394026e+00 -5.903665e+00 -5.121541e+00 -4.181342e+00 -3.001257e+00 -1.766192e+00 -3.906815e-01 5.493476e-01 2.372346e+00 2.644904e+00 4.496491e+00 5.203121e+00 5.309889e+00 7.651155e+00 5.087890e+00 2.401139e+00 8.015210e-01 -1.518251e-02 -1.664957e-01 -2.771183e-01 -2.119106e-01 -2.341122e-01 -1.832259e-01 -1.918006e-01 -1.527612e-01 -1.462971e-01 
-1.868006e-01 -1.705101e-01 -1.190999e-01 -7.437081e-02 6.704802e-03 7.201586e-02 1.375558e-01 6.287821e-02 -2.343340e-01 -1.138522e+00 -2.770755e+00 -5.466758e+00 -7.610788e+00 -5.561507e+00 -3.475083e+00 -5.470405e+00 -5.599482e+00 -3.617858e+00 -2.816724e+00 -2.382166e+00 -2.576968e+00 -3.111077e+00 -4.286188e+00 -5.268718e+00 -5.257111e+00 -5.326162e+00 -6.200065e+00 -6.608562e+00 -7.042078e+00 -7.265219e+00 -6.855127e+00 -6.919822e+00 -6.708449e+00 -6.724028e+00 -7.152251e+00 -7.520300e+00 -7.935290e+00 -8.142882e+00 -8.064954e+00 -7.568527e+00 -6.732197e+00 -5.613650e+00 -4.283579e+00 -2.643331e+00 -1.239605e+00 1.232218e-01 2.165624e+00 2.645974e+00 5.330631e+00 6.675003e+00 7.388104e+00 1.271660e+01 1.081845e+01 5.302510e+00 2.196809e+00 5.008880e-01 5.789066e-02 -2.238440e-01 -2.066438e-01 -2.682898e-01 -2.283821e-01 -2.508053e-01 -2.182365e-01 -2.217537e-01 
-2.652554e-01 -2.725457e-01 -2.493663e-01 -2.387962e-01 -1.988903e-01 -1.765405e-01 -1.402972e-01 -1.925524e-01 -3.216576e-01 -8.199882e-01 -1.624403e+00 -3.403569e+00 -4.404438e+00 -2.064336e+00 -1.602051e+00 -3.901928e+00 -3.940098e+00 -3.169557e+00 -2.975530e+00 -2.961633e+00 -3.387405e+00 -4.235990e+00 -3.176903e+00 -2.850771e+00 -1.865799e+00 -6.403875e-01 -1.064715e+00 -9.472400e-01 -1.462725e+00 -1.614014e+00 -1.555137e+00 -1.581370e+00 -1.627538e+00 -1.537103e+00 -2.362814e+00 -2.909976e+00 -3.733940e+00 -4.454017e+00 -5.111776e+00 -5.267865e+00 -5.409256e+00 -4.880085e+00 -4.453017e+00 -2.893269e+00 -2.621144e+00 -2.375948e-01 3.244180e-01 2.174436e+00 4.291584e+00 5.375792e+00 6.860074e+00 1.018066e+01 1.140933e+01 5.408882e+00 2.861615e+00 9.224991e-01 4.215365e-01 -2.998499e-02 -8.409503e-02 -2.171818e-01 -2.127722e-01 -2.667357e-01 -2.552550e-01 -2.798143e-01 
-3.695363e-01 -3.937877e-01 -3.954109e-01 -4.124643e-01 -4.053973e-01 -3.988454e-01 -3.402716e-01 -2.234925e-01 8.120784e-02 6.509242e-01 1.717451e+00 3.115955e+00 4.699717e+00 3.843951e+00 9.982622e-01 1.592465e+00 7.012380e-02 -2.018881e+00 -1.344053e+00 -1.655468e+00 -5.532326e-01 -1.632947e+00 1.198966e+00 4.011257e+00 4.122296e+00 4.645837e+00 4.722652e+00 5.117824e+00 4.960279e+00 5.041875e+00 4.354389e+00 4.289552e+00 3.587773e+00 3.531124e+00 3.020084e+00 2.898386e+00 2.523178e+00 2.195788e+00 1.409075e+00 7.912202e-01 -5.089475e-01 -1.134966e+00 -2.513666e+00 -2.556145e+00 -4.105413e+00 -2.648104e+00 -4.637119e+00 -2.797784e+00 -3.797566e+00 -4.772139e+00 -3.978489e+00 -8.142670e+00 -3.931229e+00 -2.759534e+00 -7.883053e-01 -5.858009e-01 -2.201541e-01 -3.194297e-01 -2.472527e-01 -3.231649e-01 -3.018571e-01 -3.473962e-01 -3.396056e-01 -3.703911e-01 
-4.562971e-01 -5.024993e-01 -5.370836e-01 -5.911710e-01 -6.337120e-01 -6.702143e-01 -6.455560e-01 -4.732968e-01 1.357583e-02 1.148121e+00 3.133573e+00 6.338717e+00 9.019047e+00 6.939903e+00 4.330896e+00 5.072558e+00 2.645859e+00 8.167192e-01 5.228461e-01 4.632704e-03 1.260281e+00 1.299564e+00 1.952727e+00 2.170596e+00 1.228297e+00 7.858626e-01 1.532053e+00 2.079034e+00 2.559346e+00 2.970280e+00 2.463444e+00 2.587537e+00 2.136750e+00 2.166508e+00 2.600350e+00 3.190868e+00 3.704441e+00 4.253180e+00 4.233035e+00 3.946288e+00 2.861670e+00 1.765946e+00 -2.605806e-01 -2.102819e+00 -4.275496e+00 -5.847580e+00 -8.472932e+00 -8.880697e+00 -1.161429e+01 -1.286882e+01 -1.279527e+01 -1.740739e+01 -1.352305e+01 -6.984968e+00 -2.949880e+00 -1.296534e+00 -5.500151e-01 -4.012733e-01 -3.074655e-01 -3.484030e-01 -3.410808e-01 -3.859832e-01 -3.943168e-01 -4.359836e-01 
-5.569561e-01 -6.214965e-01 -6.854260e-01 -7.748704e-01 -8.675893e-01 -9.619953e-01 -1.012256e+00 -9.197848e-01 -5.351236e-01 4.515364e-01 2.183092e+00 4.808354e+00 6.774826e+00 5.695258e+00 4.946955e+00 4.563062e+00 5.754384e+00 5.478168e+00 1.935620e+00 1.555632e+00 2.670993e-01 1.694192e+00 2.043542e+00 -2.845855e-01 -7.123374e-01 -1.088274e+00 -2.369170e-01 1.630055e-01 6.833148e-01 1.075133e+00 1.021546e+00 1.303142e+00 1.411220e+00 1.615638e+00 2.217553e+00 2.730850e+00 3.113880e+00 3.454207e+00 3.426811e+00 3.132576e+00 2.475452e+00 1.573429e+00 3.048706e-01 -1.335157e+00 -2.557664e+00 -4.724997e+00 -6.031817e+00 -7.415792e+00 -9.430401e+00 -9.664427e+00 -9.833106e+00 -1.155073e+01 -1.019559e+01 -5.265461e+00 -2.520126e+00 -1.140785e+00 -6.027185e-01 -4.501074e-01 -3.927080e-01 -4.157404e-01 -4.175098e-01 -4.557624e-01 -4.730811e-01 -5.203606e-01 
-6.275101e-01 -7.058882e-01 -7.950644e-01 -9.134104e-01 -1.049892e+00 -1.198431e+00 -1.331062e+00 -1.358637e+00 -1.175172e+00 -5.434256e-01 6.426714e-01 2.366389e+00 3.855436e+00 3.721724e+00 4.029743e+00 3.914737e+00 4.497101e+00 4.020898e+00 2.611318e+00 3.182471e+00 2.469141e+00 2.857146e+00 1.920818e+00 7.354667e-01 1.079586e+00 1.155887e+00 1.885041e+00 2.213216e+00 2.655882e+00 2.998525e+00 3.121278e+00 3.407150e+00 3.637681e+00 3.856930e+00 4.243538e+00 4.520337e+00 4.672615e+00 4.725495e+00 4.536723e+00 4.138543e+00 3.560611e+00 2.734803e+00 1.872720e+00 6.218734e-01 -2.064716e-01 -1.804996e+00 -2.650588e+00 -3.868908e+00 -5.166319e+00 -5.372400e+00 -5.596368e+00 -6.363596e+00 -6.093614e+00 -3.459679e+00 -2.004966e+00 -1.025784e+00 -6.957417e-01 -5.217608e-01 -4.854243e-01 -4.723014e-01 -4.785439e-01 -5.023861e-01 -5.276959e-01 -5.762801e-01 
-6.975108e-01 -7.901202e-01 -9.014325e-01 -1.047019e+00 -1.223794e+00 -1.427078e+00 -1.647755e+00 -1.815812e+00 -1.877626e+00 -1.650172e+00 -1.080067e+00 -7.519676e-02 1.033543e+00 1.877319e+00 3.211056e+00 5.084684e+00 5.566475e+00 5.992289e+00 6.601043e+00 3.877259e+00 2.504214e+00 2.588066e+00 1.587429e+00 2.234864e+00 3.064423e+00 3.578282e+00 4.224159e+00 4.521979e+00 4.881783e+00 5.151555e+00 5.321599e+00 5.555239e+00 5.759413e+00 5.941351e+00 6.203806e+00 6.383823e+00 6.486539e+00 6.481399e+00 6.311894e+00 5.934797e+00 5.428641e+00 4.626471e+00 3.838682e+00 2.615417e+00 1.753792e+00 3.131821e-01 -5.783949e-01 -1.672333e+00 -2.604957e+00 -2.952168e+00 -3.111819e+00 -3.314032e+00 -3.308116e+00 -1.950713e+00 -1.367258e+00 -7.792568e-01 -6.577908e-01 -5.238149e-01 -5.251943e-01 -5.058021e-01 -5.230701e-01 -5.446674e-01 -5.790420e-01 -6.331521e-01 
-7.280802e-01 -8.239512e-01 -9.447453e-01 -1.100817e+00 -1.295808e+00 -1.524966e+00 -1.792822e+00 -2.046258e+00 -2.269194e+00 -2.328142e+00 -2.212039e+00 -1.787454e+00 -1.206462e+00 -3.059123e-01 1.013297e+00 3.757322e+00 5.040465e+00 4.730977e+00 5.394240e+00 4.370311e+00 4.278659e+00 4.600101e+00 4.503480e+00 5.472214e+00 5.974091e+00 6.203945e+00 6.413040e+00 6.428445e+00 6.549658e+00 6.657005e+00 6.762045e+00 6.925755e+00 7.090270e+00 7.238382e+00 7.416785e+00 7.512305e+00 7.533336e+00 7.429225e+00 7.195777e+00 6.761434e+00 6.250195e+00 5.461449e+00 4.746691e+00 3.646732e+00 2.866982e+00 1.619561e+00 8.073570e-01 -1.992626e-01 -1.025089e+00 -1.473892e+00 -1.804821e+00 -1.997272e+00 -2.171683e+00 -1.454538e+00 -1.235439e+00 -8.150533e-01 -7.568367e-01 -6.062776e-01 -6.024590e-01 -5.555935e-01 -5.671835e-01 -5.746916e-01 -6.089632e-01 -6.591916e-01 
-7.495200e-01 -8.519863e-01 -9.806269e-01 -1.146940e+00 -1.356005e+00 -1.605078e+00 -1.904605e+00 -2.208944e+00 -2.519646e+00 -2.722721e+00 -2.831673e+00 -2.717144e+00 -2.492095e+00 -1.964509e+00 -1.151832e+00 5.577618e-01 1.073101e-01 -2.087382e+00 -1.819076e-01 4.373553e+00 7.867654e+00 7.763165e+00 6.806950e+00 7.094155e+00 7.115597e+00 7.055552e+00 7.053741e+00 6.961701e+00 7.019202e+00 7.090414e+00 7.191537e+00 7.343591e+00 7.504033e+00 7.649513e+00 7.822537e+00 7.919903e+00 7.956009e+00 7.867017e+00 7.659886e+00 7.242318e+00 6.744001e+00 5.943854e+00 5.203243e+00 4.058720e+00 3.211684e+00 1.931302e+00 1.059473e+00 4.256486e-02 -7.446398e-01 -1.215935e+00 -1.523202e+00 -1.625036e+00 -1.785872e+00 -1.192572e+00 -1.081722e+00 -7.202007e-01 -7.052963e-01 -5.713324e-01 -5.843520e-01 -5.455596e-01 -5.659050e-01 -5.794001e-01 -6.194212e-01 -6.751109e-01 
-7.280802e-01 -8.239512e-01 -9.447453e-01 -1.100817e+00 -1.295808e+00 -1.524966e+00 -1.792822e+00 -2.046258e+00 -2.269194e+00 -2.328142e+00 -2.212039e+00 -1.787454e+00 -1.206462e+00 -3.059123e-01 1.013297e+00 3.757322e+00 5.040465e+00 4.730977e+00 5.394240e+00 4.370311e+00 4.278659e+00 4.600101e+00 4.503480e+00 5.472214e+00 5.974091e+00 6.203945e+00 6.413040e+00 6.428445e+00 6.549658e+00 6.657005e+00 6.762045e+00 6.925755e+00 7.090270e+00 7.238382e+00 7.416785e+00 7.512305e+00 7.533336e+00 7.429225e+00 7.195777e+00 6.761434e+00 6.250195e+00 5.461449e+00 4.746691e+00 3.646732e+00 2.866982e+00 1.619561e+00 8.073570e-01 -1.992626e-01 -1.025089e+00 -1.473892e+00 -1.804821e+00 -1.997272e+00 -2.171683e+00 -1.454538e+00 -1.235439e+00 -8.150533e-01 -7.568367e-01 -6.062776e-01 -6.024590e-01 -5.555935e-01 -5.671835e-01 -5.746916e-01 -6.089632e-01 -6.591916e-01 