# vtk DataFile Version 2.0
Comment goes here
ASCII

DATASET STRUCTURED_POINTS
DIMENSIONS    64   64   1

ORIGIN    0.000   0.000   0.000
SPACING   0.0781250.078125   1.000

POINT_DATA   4096
SCALARS uX double
LOOKUP_TABLE default

4.572350e-01 5.773038e-01 6.894942e-01 8.029671e-01 9.049566e-01 1.006324e+00 1.092208e+00 1.175562e+00 1.239358e+00 1.298929e+00 1.335271e+00 1.366152e+00 1.371119e+00 1.370042e+00 1.341908e+00 1.307855e+00 1.247547e+00 1.182016e+00 1.093110e+00 9.999613e-01 8.882293e-01 7.731785e-01 6.458198e-01 5.157244e-01 3.804820e-01 2.426138e-01 1.069753e-01 -3.159976e-02 -1.610037e-01 -2.938934e-01 -4.116648e-01 -5.334736e-01 -6.356170e-01 -7.421314e-01 -8.260509e-01 -9.142850e-01 -9.786399e-01 -1.046752e+00 -1.091210e+00 -1.138330e+00 -1.163267e+00 -1.189278e+00 -1.195482e+00 -1.200818e+00 -1.189242e+00 -1.174712e+00 -1.146317e+00 -1.112984e+00 -1.068676e+00 -1.017782e+00 -9.584526e-01 -8.913857e-01 -8.180134e-01 -7.363258e-01 -6.501112e-01 -5.555596e-01 -4.580512e-01 -3.526577e-01 -2.458500e-01 -1.319787e-01 -1.839348e-02 1.011492e-01 2.183753e-01 3.402147e-01 
4.586743e-01 5.781203e-01 6.897276e-01 8.026749e-01 9.041555e-01 1.005079e+00 1.090493e+00 1.173446e+00 1.236756e+00 1.295910e+00 1.331690e+00 1.362084e+00 1.366374e+00 1.364712e+00 1.335792e+00 1.301072e+00 1.239927e+00 1.173708e+00 1.084014e+00 9.902511e-01 8.779006e-01 7.624113e-01 6.347153e-01 5.044460e-01 3.692301e-01 2.315109e-01 9.630339e-02 -4.177815e-02 -1.703533e-01 -3.024208e-01 -4.190160e-01 -5.397259e-01 -6.404329e-01 -7.456545e-01 -8.279912e-01 -9.148416e-01 -9.775946e-01 -1.044342e+00 -1.087304e+00 -1.133177e+00 -1.156833e+00 -1.181794e+00 -1.187010e+00 -1.191545e+00 -1.179318e+00 -1.164265e+00 -1.135562e+00 -1.101990e+00 -1.057694e+00 -1.006832e+00 -9.477870e-01 -8.809966e-01 -8.081212e-01 -7.269131e-01 -6.413470e-01 -5.474279e-01 -4.506619e-01 -3.459995e-01 -2.399764e-01 -1.268790e-01 -1.407496e-02 1.047035e-01 2.211910e-01 3.423212e-01 
4.605301e-01 5.830111e-01 6.978859e-01 8.141129e-01 9.190539e-01 1.023373e+00 1.112248e+00 1.198487e+00 1.264964e+00 1.326988e+00 1.365292e+00 1.397806e+00 1.403635e+00 1.403067e+00 1.374471e+00 1.339670e+00 1.277573e+00 1.210113e+00 1.118318e+00 1.022313e+00 9.069790e-01 7.884992e-01 6.572672e-01 5.235354e-01 3.845483e-01 2.431462e-01 1.041930e-01 -3.757914e-02 -1.696805e-01 -3.052685e-01 -4.250354e-01 -5.489511e-01 -6.523903e-01 -7.603974e-01 -8.449855e-01 -9.341396e-01 -9.986598e-01 -1.067207e+00 -1.111476e+00 -1.158653e+00 -1.183196e+00 -1.208990e+00 -1.214718e+00 -1.219647e+00 -1.207592e+00 -1.192530e+00 -1.163681e+00 -1.129727e+00 -1.084975e+00 -1.033385e+00 -9.735661e-01 -9.057229e-01 -8.317500e-01 -7.491838e-01 -6.621945e-01 -5.666316e-01 -4.681257e-01 -3.615500e-01 -2.534812e-01 -1.382066e-01 -2.305317e-02 9.817676e-02 2.173257e-01 3.411985e-01 
4.650953e-01 5.893554e-01 7.063420e-01 8.248131e-01 9.322323e-01 1.039102e+00 1.130552e+00 1.219331e+00 1.288064e+00 1.352178e+00 1.391917e+00 1.425606e+00 1.431614e+00 1.430952e+00 1.401047e+00 1.364768e+00 1.299942e+00 1.229770e+00 1.134179e+00 1.034600e+00 9.149348e-01 7.925001e-01 6.569755e-01 5.193761e-01 3.766317e-01 2.318240e-01 8.999460e-02 -5.446441e-02 -1.883830e-01 -3.257951e-01 -4.462938e-01 -5.711350e-01 -6.743198e-01 -7.824238e-01 -8.659708e-01 -9.545523e-01 -1.017511e+00 -1.085028e+00 -1.127506e+00 -1.173413e+00 -1.196203e+00 -1.220676e+00 -1.224896e+00 -1.228591e+00 -1.215399e+00 -1.199274e+00 -1.169689e+00 -1.134887e+00 -1.089748e+00 -1.037523e+00 -9.775585e-01 -9.092562e-01 -8.352412e-01 -7.523255e-01 -6.652678e-01 -5.693805e-01 -4.706711e-01 -3.636997e-01 -2.552000e-01 -1.393486e-01 -2.344694e-02 9.866112e-02 2.189658e-01 3.441318e-01 
4.696632e-01 5.994174e-01 7.224519e-01 8.470847e-01 9.611078e-01 1.074551e+00 1.172743e+00 1.267999e+00 1.342936e+00 1.412705e+00 1.457269e+00 1.494990e+00 1.503633e+00 1.504725e+00 1.474740e+00 1.437620e+00 1.369929e+00 1.296425e+00 1.195579e+00 1.090648e+00 9.640679e-01 8.349365e-01 6.916838e-01 5.467323e-01 3.962100e-01 2.439715e-01 9.488713e-02 -5.663844e-02 -1.969155e-01 -3.406914e-01 -4.664421e-01 -5.967013e-01 -7.039546e-01 -8.163983e-01 -9.028681e-01 -9.946943e-01 -1.059560e+00 -1.129303e+00 -1.172860e+00 -1.220102e+00 -1.243342e+00 -1.268397e+00 -1.272617e+00 -1.276266e+00 -1.262743e+00 -1.246045e+00 -1.215855e+00 -1.180023e+00 -1.133988e+00 -1.080318e+00 -1.019099e+00 -9.489485e-01 -8.732365e-01 -7.880645e-01 -6.988003e-01 -6.002414e-01 -4.987836e-01 -3.887116e-01 -2.769031e-01 -1.574812e-01 -3.767077e-02 8.855858e-02 2.134423e-01 3.433826e-01 
4.763900e-01 6.103465e-01 7.383016e-01 8.681076e-01 9.878652e-01 1.107169e+00 1.211402e+00 1.312580e+00 1.393009e+00 1.467839e+00 1.516276e+00 1.557180e+00 1.567087e+00 1.568692e+00 1.536804e+00 1.497240e+00 1.424576e+00 1.345965e+00 1.237781e+00 1.125837e+00 9.906359e-01 8.535656e-01 7.015698e-01 5.486835e-01 3.902760e-01 2.308215e-01 7.537782e-02 -8.215881e-02 -2.269243e-01 -3.752062e-01 -5.034963e-01 -6.366354e-01 -7.446165e-01 -8.583877e-01 -9.440916e-01 -1.035945e+00 -1.098999e+00 -1.167829e+00 -1.209028e+00 -1.254791e+00 -1.275598e+00 -1.298924e+00 -1.300994e+00 -1.302886e+00 -1.287709e+00 -1.269369e+00 -1.238065e+00 -1.200776e+00 -1.154066e+00 -1.099131e+00 -1.037471e+00 -9.661917e-01 -8.900291e-01 -8.037631e-01 -7.138221e-01 -6.140784e-01 -5.115633e-01 -4.000783e-01 -2.867134e-01 -1.654841e-01 -4.348589e-02 8.515055e-02 2.130161e-01 3.461815e-01 
4.822178e-01 6.241790e-01 7.611356e-01 9.002405e-01 1.030162e+00 1.159724e+00 1.274655e+00 1.386226e+00 1.476738e+00 1.560810e+00 1.617181e+00 1.664687e+00 1.678854e+00 1.683188e+00 1.650893e+00 1.609624e+00 1.531785e+00 1.447285e+00 1.329960e+00 1.208879e+00 1.061982e+00 9.138181e-01 7.491369e-01 5.844296e-01 4.136634e-01 2.425848e-01 7.600353e-02 -9.231572e-02 -2.464809e-01 -4.042137e-01 -5.399113e-01 -6.808130e-01 -7.941594e-01 -9.138400e-01 -1.003007e+00 -1.098969e+00 -1.163883e+00 -1.235237e+00 -1.277085e+00 -1.324075e+00 -1.344719e+00 -1.368251e+00 -1.369684e+00 -1.370989e+00 -1.354927e+00 -1.335376e+00 -1.303023e+00 -1.264016e+00 -1.216038e+00 -1.158928e+00 -1.095618e+00 -1.021700e+00 -9.433072e-01 -8.538945e-01 -7.609953e-01 -6.575662e-01 -5.513130e-01 -4.355808e-01 -3.176836e-01 -1.915717e-01 -6.417590e-02 7.014917e-02 2.044429e-01 3.443470e-01 
4.891377e-01 6.377317e-01 7.825974e-01 9.300888e-01 1.069509e+00 1.208868e+00 1.334160e+00 1.455956e+00 1.556270e+00 1.649387e+00 1.713059e+00 1.766546e+00 1.783613e+00 1.789349e+00 1.754458e+00 1.709482e+00 1.623719e+00 1.530954e+00 1.401665e+00 1.269152e+00 1.108185e+00 9.471703e-01 7.683160e-01 5.908938e-01 4.074491e-01 2.248585e-01 4.809310e-02 -1.298617e-01 -2.912615e-01 -4.563035e-01 -5.962082e-01 -7.418707e-01 -8.566080e-01 -9.785952e-01 -1.066823e+00 -1.163050e+00 -1.225402e+00 -1.295583e+00 -1.334043e+00 -1.379029e+00 -1.396197e+00 -1.417365e+00 -1.415796e+00 -1.414682e+00 -1.396402e+00 -1.374557e+00 -1.340814e+00 -1.299734e+00 -1.250996e+00 -1.192046e+00 -1.128244e+00 -1.052630e+00 -9.735943e-01 -8.824681e-01 -7.884378e-01 -6.831011e-01 -5.750550e-01 -4.570585e-01 -3.366113e-01 -2.076666e-01 -7.680609e-02 6.123705e-02 2.001871e-01 3.450896e-01 
4.936188e-01 6.526986e-01 8.096941e-01 9.699557e-01 1.123727e+00 1.277850e+00 1.418946e+00 1.556334e+00 1.672142e+00 1.779576e+00 1.855817e+00 1.919712e+00 1.943661e+00 1.953663e+00 1.918142e+00 1.870351e+00 1.776303e+00 1.674156e+00 1.530428e+00 1.383701e+00 1.204690e+00 1.026950e+00 8.291327e-01 6.344917e-01 4.332119e-01 2.341547e-01 4.185364e-02 -1.510927e-01 -3.251844e-01 -5.031214e-01 -6.526362e-01 -8.085695e-01 -9.298260e-01 -1.059238e+00 -1.151169e+00 -1.252149e+00 -1.315922e+00 -1.388637e+00 -1.426914e+00 -1.472741e+00 -1.488793e+00 -1.509565e+00 -1.506497e+00 -1.504083e+00 -1.484279e+00 -1.460471e+00 -1.425292e+00 -1.381753e+00 -1.331537e+00 -1.269693e+00 -1.204043e+00 -1.125041e+00 -1.043389e+00 -9.482575e-01 -8.505693e-01 -7.405559e-01 -6.277960e-01 -5.044799e-01 -3.783479e-01 -2.433794e-01 -1.057979e-01 3.925682e-02 1.862801e-01 3.396692e-01 
4.973679e-01 6.653927e-01 8.334286e-01 1.005634e+00 1.173397e+00 1.342237e+00 1.499436e+00 1.652963e+00 1.784821e+00 1.907171e+00 1.996039e+00 2.070214e+00 2.099794e+00 2.112610e+00 2.073626e+00 2.020304e+00 1.914085e+00 1.799122e+00 1.636866e+00 1.472540e+00 1.272005e+00 1.074951e+00 8.559351e-01 6.427334e-01 4.229868e-01 2.074475e-01 6.886444e-04 -2.059688e-01 -3.901137e-01 -5.783857e-01 -7.335597e-01 -8.960405e-01 -1.018862e+00 -1.151146e+00 -1.241256e+00 -1.342137e+00 -1.401796e+00 -1.472473e+00 -1.505589e+00 -1.548414e+00 -1.559390e+00 -1.576857e+00 -1.569623e+00 -1.563947e+00 -1.541317e+00 -1.514466e+00 -1.477814e+00 -1.431575e+00 -1.380878e+00 -1.316705e+00 -1.250929e+00 -1.169828e+00 -1.087678e+00 -9.903895e-01 -8.912888e-01 -7.788077e-01 -6.636140e-01 -5.373943e-01 -4.078760e-01 -2.693655e-01 -1.273191e-01 2.236982e-02 1.753948e-01 3.352020e-01 
4.962740e-01 6.769788e-01 8.602778e-01 1.049013e+00 1.236079e+00 1.425351e+00 1.605216e+00 1.781637e+00 1.937014e+00 2.081383e+00 2.190223e+00 2.280848e+00 2.321765e+00 2.341324e+00 2.301639e+00 2.243882e+00 2.124774e+00 1.995201e+00 1.810655e+00 1.624716e+00 1.397093e+00 1.175657e+00 9.293465e-01 6.922711e-01 4.480400e-01 2.104594e-01 -1.677285e-02 -2.432566e-01 -4.436158e-01 -6.487544e-01 -8.157432e-01 -9.912216e-01 -1.121437e+00 -1.262485e+00 -1.355996e+00 -1.461821e+00 -1.521784e+00 -1.594472e+00 -1.625903e+00 -1.668728e+00 -1.677083e+00 -1.693216e+00 -1.683265e+00 -1.675334e+00 -1.650425e+00 -1.620694e+00 -1.582350e+00 -1.532850e+00 -1.480792e+00 -1.413066e+00 -1.345641e+00 -1.260526e+00 -1.175649e+00 -1.073549e+00 -9.701035e-01 -8.519267e-01 -7.309582e-01 -5.984071e-01 -4.621169e-01 -3.167255e-01 -1.669508e-01 -9.414872e-03 1.528517e-01 3.223686e-01 
4.915050e-01 6.829960e-01 8.803411e-01 1.084807e+00 1.291194e+00 1.501460e+00 1.705339e+00 1.906454e+00 2.087504e+00 2.256071e+00 2.386434e+00 2.494461e+00 2.545831e+00 2.570471e+00 2.526069e+00 2.459876e+00 2.321988e+00 2.172536e+00 1.959529e+00 1.746756e+00 1.486831e+00 1.237152e+00 9.602164e-01 6.974092e-01 4.276552e-01 1.679258e-01 -7.842115e-02 -3.233002e-01 -5.365096e-01 -7.554208e-01 -9.292127e-01 -1.112912e+00 -1.244154e+00 -1.387930e+00 -1.477646e+00 -1.581971e+00 -1.635020e+00 -1.703828e+00 -1.727194e+00 -1.765353e+00 -1.766203e+00 -1.777745e+00 -1.762033e+00 -1.749815e+00 -1.721461e+00 -1.687812e+00 -1.648272e+00 -1.595415e+00 -1.543792e+00 -1.473387e+00 -1.406931e+00 -1.319604e+00 -1.234911e+00 -1.130465e+00 -1.025431e+00 -9.043521e-01 -7.802393e-01 -6.443476e-01 -5.039603e-01 -3.547716e-01 -1.999898e-01 -3.759486e-02 1.313414e-01 3.079532e-01 
4.783430e-01 6.838276e-01 8.990491e-01 1.123745e+00 1.355060e+00 1.592864e+00 1.828768e+00 2.063411e+00 2.280397e+00 2.483380e+00 2.646212e+00 2.780868e+00 2.851454e+00 2.886786e+00 2.841791e+00 2.768541e+00 2.610387e+00 2.437929e+00 2.190168e+00 1.944138e+00 1.643470e+00 1.358458e+00 1.042862e+00 7.481740e-01 4.460841e-01 1.583360e-01 -1.136571e-01 -3.839475e-01 -6.170170e-01 -8.576716e-01 -1.045490e+00 -1.245271e+00 -1.384345e+00 -1.537801e+00 -1.629717e+00 -1.738280e+00 -1.789404e+00 -1.858779e+00 -1.877901e+00 -1.914541e+00 -1.910425e+00 -1.919279e+00 -1.899097e+00 -1.883375e+00 -1.851840e+00 -1.814146e+00 -1.772913e+00 -1.715905e+00 -1.663658e+00 -1.589214e+00 -1.522093e+00 -1.430464e+00 -1.343472e+00 -1.233495e+00 -1.123241e+00 -9.951979e-01 -8.638152e-01 -7.204951e-01 -5.722077e-01 -4.156978e-01 -2.527370e-01 -8.255679e-02 9.580445e-02 2.822410e-01 
4.569708e-01 6.738311e-01 9.052298e-01 1.149125e+00 1.405678e+00 1.672321e+00 1.943189e+00 2.215285e+00 2.473382e+00 2.716148e+00 2.916322e+00 3.081007e+00 3.170967e+00 3.214794e+00 3.162724e+00 3.076006e+00 2.888069e+00 2.684153e+00 2.392140e+00 2.104497e+00 1.755225e+00 1.429124e+00 1.070061e+00 7.413867e-01 4.054312e-01 8.967966e-02 -2.059155e-01 -5.001624e-01 -7.486397e-01 -1.007431e+00 -1.202911e+00 -1.412519e+00 -1.551116e+00 -1.705883e+00 -1.790320e+00 -1.894130e+00 -1.933567e+00 -1.995623e+00 -2.002061e+00 -2.031504e+00 -2.016270e+00 -2.019017e+00 -1.990903e+00 -1.969798e+00 -1.934265e+00 -1.891584e+00 -1.850049e+00 -1.788906e+00 -1.739104e+00 -1.661845e+00 -1.598104e+00 -1.504752e+00 -1.419613e+00 -1.307522e+00 -1.195288e+00 -1.063789e+00 -9.279469e-01 -7.808672e-01 -6.277289e-01 -4.677710e-01 -3.000134e-01 -1.259234e-01 5.846142e-02 2.512148e-01 
4.222502e-01 6.523479e-01 9.025071e-01 1.169261e+00 1.456309e+00 1.758899e+00 2.074320e+00 2.395666e+00 2.709482e+00 3.007732e+00 3.262665e+00 3.472323e+00 3.595980e+00 3.656256e+00 3.603650e+00 3.505453e+00 3.284729e+00 3.043715e+00 2.695955e+00 2.355205e+00 1.943422e+00 1.565449e+00 1.152081e+00 7.830304e-01 4.065218e-01 5.798332e-02 -2.674914e-01 -5.937981e-01 -8.657885e-01 -1.153176e+00 -1.365230e+00 -1.594721e+00 -1.741005e+00 -1.905398e+00 -1.989313e+00 -2.094880e+00 -2.128349e+00 -2.187934e+00 -2.185970e+00 -2.211458e+00 -2.187691e+00 -2.186044e+00 -2.150915e+00 -2.124783e+00 -2.084967e+00 -2.036642e+00 -1.993832e+00 -1.927434e+00 -1.878846e+00 -1.797440e+00 -1.735619e+00 -1.638645e+00 -1.552913e+00 -1.434775e+00 -1.315568e+00 -1.174868e+00 -1.028842e+00 -8.726659e-01 -7.101490e-01 -5.430007e-01 -3.675810e-01 -1.873429e-01 4.771340e-03 2.053348e-01 
3.727007e-01 6.119996e-01 8.779314e-01 1.165540e+00 1.483079e+00 1.823390e+00 2.188312e+00 2.566175e+00 2.946469e+00 3.312203e+00 3.634515e+00 3.898604e+00 4.059035e+00 4.131518e+00 4.065808e+00 3.945011e+00 3.675247e+00 3.383294e+00 2.965314e+00 2.557493e+00 2.071310e+00 1.632813e+00 1.158681e+00 7.484522e-01 3.291092e-01 -5.140928e-02 -4.028454e-01 -7.604538e-01 -1.049917e+00 -1.362275e+00 -1.583209e+00 -1.824312e+00 -1.967461e+00 -2.129271e+00 -2.199217e+00 -2.293267e+00 -2.307058e+00 -2.353188e+00 -2.331349e+00 -2.346142e+00 -2.306019e+00 -2.297107e+00 -2.251123e+00 -2.218839e+00 -2.174706e+00 -2.119864e+00 -2.078587e+00 -2.006813e+00 -1.964490e+00 -1.880366e+00 -1.826797e+00 -1.730072e+00 -1.650144e+00 -1.531072e+00 -1.408130e+00 -1.262392e+00 -1.108510e+00 -9.475414e-01 -7.789754e-01 -6.095012e-01 -4.307758e-01 -2.495219e-01 -5.443383e-02 1.490162e-01 
3.034014e-01 5.509881e-01 8.324276e-01 1.142051e+00 1.493318e+00 1.877751e+00 2.302614e+00 2.752482e+00 3.220359e+00 3.679389e+00 4.098886e+00 4.444381e+00 4.666261e+00 4.760304e+00 4.692452e+00 4.553437e+00 4.229182e+00 3.876412e+00 3.365386e+00 2.867268e+00 2.281729e+00 1.764406e+00 1.214669e+00 7.592286e-01 2.941920e-01 -1.171325e-01 -4.982775e-01 -8.973037e-01 -1.214415e+00 -1.567408e+00 -1.809354e+00 -2.075631e+00 -2.225616e+00 -2.394575e+00 -2.458494e+00 -2.548155e+00 -2.548909e+00 -2.586791e+00 -2.550081e+00 -2.557436e+00 -2.503564e+00 -2.488753e+00 -2.432003e+00 -2.393159e+00 -2.343369e+00 -2.280289e+00 -2.238680e+00 -2.159841e+00 -2.122365e+00 -2.034592e+00 -1.988737e+00 -1.891974e+00 -1.816921e+00 -1.691965e+00 -1.557135e+00 -1.396743e+00 -1.225776e+00 -1.052260e+00 -8.719358e-01 -6.962685e-01 -5.121829e-01 -3.291217e-01 -1.313622e-01 7.411878e-02 
2.103660e-01 4.596401e-01 7.507331e-01 1.077657e+00 1.460378e+00 1.889497e+00 2.380441e+00 2.913743e+00 3.489585e+00 4.067908e+00 4.616435e+00 5.070088e+00 5.365339e+00 5.467552e+00 5.367081e+00 5.189506e+00 4.782160e+00 4.346585e+00 3.722163e+00 3.108800e+00 2.405260e+00 1.795137e+00 1.163032e+00 6.690948e-01 1.533455e-01 -2.856365e-01 -6.866069e-01 -1.129935e+00 -1.466588e+00 -1.858316e+00 -2.113710e+00 -2.394111e+00 -2.537057e+00 -2.694213e+00 -2.732510e+00 -2.796874e+00 -2.764432e+00 -2.778021e+00 -2.710522e+00 -2.703023e+00 -2.625579e+00 -2.604673e+00 -2.533124e+00 -2.488847e+00 -2.435141e+00 -2.362537e+00 -2.325445e+00 -2.238521e+00 -2.213923e+00 -2.123283e+00 -2.094924e+00 -2.004231e+00 -1.945533e+00 -1.823552e+00 -1.677921e+00 -1.506779e+00 -1.318797e+00 -1.137313e+00 -9.488386e-01 -7.731306e-01 -5.896445e-01 -4.116422e-01 -2.180854e-01 -1.759173e-02 
9.032827e-02 3.354743e-01 6.305138e-01 9.702311e-01 1.381914e+00 1.857538e+00 2.422316e+00 3.056862e+00 3.770037e+00 4.512514e+00 5.246031e+00 5.866044e+00 6.278592e+00 6.387540e+00 6.273459e+00 6.073492e+00 5.576213e+00 5.042806e+00 4.255248e+00 3.473161e+00 2.603208e+00 1.864856e+00 1.129350e+00 6.036666e-01 5.080756e-02 -3.925717e-01 -8.091758e-01 -1.314625e+00 -1.687435e+00 -2.146224e+00 -2.434381e+00 -2.747562e+00 -2.895020e+00 -3.050212e+00 -3.071032e+00 -3.117130e+00 -3.059373e+00 -3.054279e+00 -2.962506e+00 -2.943420e+00 -2.845208e+00 -2.819182e+00 -2.731077e+00 -2.679828e+00 -2.618995e+00 -2.532836e+00 -2.496661e+00 -2.398817e+00 -2.385263e+00 -2.291457e+00 -2.282021e+00 -2.202982e+00 -2.166477e+00 -2.040824e+00 -1.867318e+00 -1.666188e+00 -1.444439e+00 -1.243065e+00 -1.039525e+00 -8.606317e-01 -6.778107e-01 -5.069527e-01 -3.213989e-01 -1.306853e-01 
-6.384098e-02 1.665381e-01 4.542872e-01 7.959798e-01 1.227256e+00 1.743182e+00 2.383354e+00 3.131097e+00 4.014358e+00 4.974470e+00 5.974999e+00 6.846776e+00 7.420203e+00 7.481982e+00 7.263749e+00 7.004301e+00 6.367612e+00 5.706519e+00 4.735824e+00 3.735610e+00 2.664217e+00 1.769187e+00 9.337185e-01 4.145154e-01 -1.973700e-01 -6.394730e-01 -1.040794e+00 -1.626467e+00 -2.026578e+00 -2.556082e+00 -2.875783e+00 -3.205900e+00 -3.339732e+00 -3.460803e+00 -3.432879e+00 -3.425101e+00 -3.310476e+00 -3.261778e+00 -3.123514e+00 -3.086211e+00 -2.955819e+00 -2.933169e+00 -2.824485e+00 -2.773527e+00 -2.712017e+00 -2.608103e+00 -2.580036e+00 -2.468141e+00 -2.478649e+00 -2.378604e+00 -2.400389e+00 -2.340382e+00 -2.349165e+00 -2.237605e+00 -2.027380e+00 -1.797210e+00 -1.537070e+00 -1.320776e+00 -1.107619e+00 -9.339499e-01 -7.608189e-01 -6.062731e-01 -4.385809e-01 -2.673330e-01 
-2.511766e-01 -4.860955e-02 2.174089e-01 5.459059e-01 9.815398e-01 1.525355e+00 2.234516e+00 3.104120e+00 4.188689e+00 5.440372e+00 6.822445e+00 8.105741e+00 8.924626e+00 8.866930e+00 8.582049e+00 8.333695e+00 7.557740e+00 6.752269e+00 5.475932e+00 4.117867e+00 2.748613e+00 1.622094e+00 6.526141e-01 1.806787e-01 -4.229168e-01 -7.719912e-01 -1.143572e+00 -1.869684e+00 -2.339197e+00 -2.998649e+00 -3.384053e+00 -3.750623e+00 -3.876417e+00 -3.964378e+00 -3.890487e+00 -3.832440e+00 -3.669716e+00 -3.583309e+00 -3.408274e+00 -3.355557e+00 -3.196705e+00 -3.178178e+00 -3.042405e+00 -2.989091e+00 -2.921333e+00 -2.789579e+00 -2.763025e+00 -2.632228e+00 -2.664186e+00 -2.555954e+00 -2.608346e+00 -2.587739e+00 -2.665463e+00 -2.551126e+00 -2.259545e+00 -1.960866e+00 -1.635288e+00 -1.389759e+00 -1.162907e+00 -9.959520e-01 -8.380418e-01 -7.073191e-01 -5.667126e-01 -4.253481e-01 
-4.814198e-01 -3.221275e-01 -9.700730e-02 1.965358e-01 6.109598e-01 1.156116e+00 1.910839e+00 2.890786e+00 4.200051e+00 5.820796e+00 7.770567e+00 9.740832e+00 1.101070e+01 1.067172e+01 1.004133e+01 9.730965e+00 8.710653e+00 7.729575e+00 6.173540e+00 4.351961e+00 2.587078e+00 1.149879e+00 1.330422e-01 -1.239919e-01 -8.684550e-01 -1.175926e+00 -1.432722e+00 -2.396096e+00 -2.951658e+00 -3.752875e+00 -4.224960e+00 -4.590302e+00 -4.666845e+00 -4.648123e+00 -4.458568e+00 -4.273362e+00 -3.999571e+00 -3.825287e+00 -3.576613e+00 -3.500069e+00 -3.299210e+00 -3.314661e+00 -3.143218e+00 -3.108015e+00 -3.055837e+00 -2.873623e+00 -2.853555e+00 -2.700144e+00 -2.777808e+00 -2.648172e+00 -2.727721e+00 -2.738304e+00 -2.924899e+00 -2.836707e+00 -2.420245e+00 -2.054190e+00 -1.665294e+00 -1.404676e+00 -1.180876e+00 -1.034876e+00 -9.072402e-01 -8.121005e-01 -7.115428e-01 -6.119789e-01 
-7.457995e-01 -6.505774e-01 -4.913860e-01 -2.635264e-01 9.208985e-02 5.935513e-01 1.343867e+00 2.386600e+00 3.893863e+00 5.916693e+00 8.567586e+00 1.153685e+01 1.350271e+01 1.274171e+01 1.201613e+01 1.196025e+01 1.065454e+01 9.436048e+00 7.254198e+00 4.586842e+00 2.284515e+00 4.199296e-01 -6.978684e-01 -6.233888e-01 -1.358670e+00 -1.405846e+00 -1.661703e+00 -3.233370e+00 -4.079556e+00 -5.180422e+00 -5.810973e+00 -6.147270e+00 -6.104028e+00 -5.892291e+00 -5.515299e+00 -5.142526e+00 -4.717271e+00 -4.416192e+00 -4.072692e+00 -3.936453e+00 -3.676410e+00 -3.700752e+00 -3.459709e+00 -3.417422e+00 -3.373715e+00 -3.097867e+00 -3.056692e+00 -2.880445e+00 -2.991082e+00 -2.834387e+00 -2.904250e+00 -3.026308e+00 -3.391814e+00 -3.228652e+00 -2.555282e+00 -2.063337e+00 -1.602060e+00 -1.334748e+00 -1.131772e+00 -1.024339e+00 -9.443330e-01 -9.009416e-01 -8.562349e-01 -8.148160e-01 
-1.053387e+00 -1.039758e+00 -9.720840e-01 -8.442330e-01 -5.980435e-01 -2.079598e-01 4.420624e-01 1.428911e+00 2.994817e+00 5.283543e+00 8.610832e+00 1.254479e+01 1.586143e+01 1.495454e+01 1.374059e+01 1.411038e+01 1.224523e+01 1.069904e+01 8.277921e+00 4.644379e+00 1.441357e+00 -1.057445e+00 -1.582964e+00 -5.689925e-01 -2.240268e+00 -2.432951e+00 -2.562288e+00 -5.361093e+00 -6.845521e+00 -8.472429e+00 -9.555573e+00 -9.897604e+00 -9.666806e+00 -9.064176e+00 -8.249377e+00 -7.383436e+00 -6.526918e+00 -5.823634e+00 -5.178894e+00 -4.804268e+00 -4.364377e+00 -4.334257e+00 -3.926941e+00 -3.785113e+00 -3.771118e+00 -3.283495e+00 -3.085469e+00 -2.922819e+00 -3.096337e+00 -2.950042e+00 -2.882383e+00 -3.056300e+00 -3.694490e+00 -3.450851e+00 -2.410793e+00 -1.833929e+00 -1.381730e+00 -1.161664e+00 -1.029938e+00 -9.855057e-01 -9.750309e-01 -9.951761e-01 -1.018964e+00 -1.046427e+00 
-1.384674e+00 -1.475779e+00 -1.529899e+00 -1.544212e+00 -1.468139e+00 -1.280758e+00 -8.667199e-01 -1.482819e-01 1.162951e+00 3.210155e+00 6.434599e+00 9.811679e+00 1.221572e+01 1.065481e+01 1.162865e+01 1.590109e+01 1.459606e+01 1.271312e+01 9.072877e+00 3.699870e+00 6.301380e-02 -2.695489e+00 -3.165416e+00 -2.068854e+00 -3.231163e+00 -1.944488e+00 -2.762999e+00 -7.178653e+00 -9.296791e+00 -1.215689e+01 -1.432636e+01 -1.556334e+01 -1.611126e+01 -1.603335e+01 -1.551322e+01 -1.456627e+01 -1.348457e+01 -1.216904e+01 -1.096306e+01 -9.639829e+00 -8.537151e+00 -7.437731e+00 -6.503760e+00 -5.631291e+00 -4.953161e+00 -4.331083e+00 -3.676500e+00 -3.440628e+00 -3.198559e+00 -3.235606e+00 -2.678765e+00 -3.226641e+00 -4.266812e+00 -3.273358e+00 -1.840850e+00 -1.211717e+00 -8.848505e-01 -7.959977e-01 -7.994222e-01 -8.613071e-01 -9.504022e-01 -1.057226e+00 -1.168216e+00 -1.282597e+00 
-1.741346e+00 -1.946592e+00 -2.140427e+00 -2.327021e+00 -2.476689e+00 -2.585856e+00 -2.590109e+00 -2.452231e+00 -2.034137e+00 -1.282773e+00 -3.212468e-01 -1.953871e-01 -2.593499e+00 -4.231588e+00 1.454834e+00 6.814814e+00 7.609629e+00 1.002641e+01 8.382913e+00 2.556179e+00 -3.036332e+00 -7.115573e+00 -8.917545e+00 -1.001264e+01 -8.517320e+00 -6.189150e+00 -8.059103e+00 -1.012811e+01 -1.102189e+01 -1.297894e+01 -1.440142e+01 -1.604809e+01 -1.752107e+01 -1.873820e+01 -1.960950e+01 -1.976954e+01 -1.967446e+01 -1.859225e+01 -1.761546e+01 -1.546856e+01 -1.401023e+01 -1.124830e+01 -9.911607e+00 -7.990903e+00 -6.024512e+00 -5.658680e+00 -4.460501e+00 -4.047622e+00 -2.578742e+00 -2.762229e+00 -1.753175e+00 -2.692566e+00 -2.799674e+00 -1.048661e+00 -4.902781e-01 -1.568635e-01 -2.610479e-01 -3.765301e-01 -5.703708e-01 -7.478354e-01 -9.436916e-01 -1.136825e+00 -1.336122e+00 -1.539044e+00 
-2.095168e+00 -2.426244e+00 -2.776232e+00 -3.158677e+00 -3.573406e+00 -4.044433e+00 -4.587991e+00 -5.257154e+00 -6.158192e+00 -7.430322e+00 -9.512024e+00 -1.211280e+01 -1.478189e+01 -1.330974e+01 -1.072713e+01 -1.474933e+01 -1.332891e+01 -7.827810e+00 -5.330864e+00 -4.785268e+00 -7.252017e+00 -9.345481e+00 -1.235563e+01 -1.518641e+01 -1.392804e+01 -1.484356e+01 -1.512884e+01 -1.158350e+01 -9.751308e+00 -7.780389e+00 -6.161919e+00 -5.655828e+00 -5.676880e+00 -6.023994e+00 -6.577552e+00 -6.893854e+00 -7.268685e+00 -6.980491e+00 -6.865922e+00 -5.786169e+00 -5.282349e+00 -3.555556e+00 -3.025142e+00 -1.822786e+00 -5.780682e-01 -6.187580e-01 9.978663e-02 2.361566e-01 1.469803e+00 1.343503e+00 1.712672e+00 1.516825e+00 3.034244e+00 3.412155e+00 2.048909e+00 1.400937e+00 6.416761e-01 1.881614e-01 -2.432182e-01 -5.713559e-01 -8.907930e-01 -1.184576e+00 -1.481921e+00 -1.782918e+00 
-2.435727e+00 -2.880680e+00 -3.371460e+00 -3.930543e+00 -4.576454e+00 -5.357174e+00 -6.327841e+00 -7.616595e+00 -9.390072e+00 -1.191362e+01 -1.515095e+01 -1.806982e+01 -1.755436e+01 -1.371110e+01 -1.494238e+01 -2.027542e+01 -1.791404e+01 -1.915757e+01 -1.979159e+01 -1.189866e+01 -6.536499e+00 -3.911969e+00 -6.579466e+00 -1.000042e+01 -1.004300e+01 -1.093680e+01 -8.925669e+00 -3.826113e+00 -1.211969e+00 2.247422e+00 4.785579e+00 6.784568e+00 8.131314e+00 9.104497e+00 9.569918e+00 9.765057e+00 9.622024e+00 9.323059e+00 8.841815e+00 8.275785e+00 7.664757e+00 6.997749e+00 6.475225e+00 6.044403e+00 5.444162e+00 5.227201e+00 4.999192e+00 4.650661e+00 4.423981e+00 4.289715e+00 3.931192e+00 4.577386e+00 5.768837e+00 4.574119e+00 2.953445e+00 1.874163e+00 1.011854e+00 4.197400e-01 -8.842800e-02 -5.032672e-01 -8.959674e-01 -1.266121e+00 -1.640941e+00 -2.026675e+00 
-2.737990e+00 -3.287485e+00 -3.905926e+00 -4.617961e+00 -5.456858e+00 -6.469590e+00 -7.729058e+00 -9.340144e+00 -1.144894e+01 -1.419947e+01 -1.742605e+01 -2.038673e+01 -2.063619e+01 -1.819876e+01 -1.787400e+01 -1.525498e+01 -1.082321e+01 -1.220500e+01 -1.286365e+01 -1.092787e+01 -8.037390e+00 -8.377349e+00 -8.463847e+00 -6.871170e+00 -5.577186e+00 -2.895453e+00 -2.081721e-02 4.081011e+00 6.317068e+00 9.223702e+00 1.112420e+01 1.287280e+01 1.394431e+01 1.472746e+01 1.498515e+01 1.496117e+01 1.460547e+01 1.400190e+01 1.327407e+01 1.228131e+01 1.140245e+01 1.016436e+01 9.384311e+00 8.417650e+00 7.405005e+00 7.017463e+00 6.397362e+00 5.926750e+00 5.243154e+00 5.015044e+00 4.589347e+00 5.115122e+00 5.223581e+00 3.867642e+00 2.821944e+00 1.889404e+00 1.159887e+00 5.620325e-01 3.186640e-02 -4.387091e-01 -8.903143e-01 -1.327627e+00 -1.773899e+00 -2.238500e+00 
-2.989348e+00 -3.619062e+00 -4.333541e+00 -5.157576e+00 -6.130175e+00 -7.289854e+00 -8.706542e+00 -1.044091e+01 -1.259713e+01 -1.519715e+01 -1.816844e+01 -2.101539e+01 -2.271944e+01 -2.247020e+01 -2.264769e+01 -2.035210e+01 -1.762397e+01 -1.357084e+01 -9.208951e+00 -1.252466e+01 -1.094867e+01 -1.118983e+01 -8.522666e+00 -2.080262e+00 9.194214e-01 3.162267e+00 5.323961e+00 8.000736e+00 9.670495e+00 1.184407e+01 1.324012e+01 1.456900e+01 1.528093e+01 1.579292e+01 1.584539e+01 1.568420e+01 1.524252e+01 1.459614e+01 1.385511e+01 1.289628e+01 1.203117e+01 1.092194e+01 1.008791e+01 9.115484e+00 8.213064e+00 7.633146e+00 6.867974e+00 6.401286e+00 5.716267e+00 5.431624e+00 4.917021e+00 4.986085e+00 4.666360e+00 3.559957e+00 2.702048e+00 1.880232e+00 1.222668e+00 6.239324e-01 8.548445e-02 -4.224414e-01 -9.116607e-01 -1.398014e+00 -1.896149e+00 -2.421021e+00 
-3.176858e+00 -3.867025e+00 -4.652381e+00 -5.555563e+00 -6.617490e+00 -7.865359e+00 -9.361137e+00 -1.112732e+01 -1.323358e+01 -1.563113e+01 -1.827735e+01 -2.080857e+01 -2.289287e+01 -2.393331e+01 -2.539678e+01 -2.641332e+01 -2.676110e+01 -2.540480e+01 -2.010756e+01 -1.525723e+01 -8.667771e+00 -1.891083e+00 3.350152e+00 5.951515e+00 7.905577e+00 7.916713e+00 8.819474e+00 1.003408e+01 1.107444e+01 1.251046e+01 1.348259e+01 1.451977e+01 1.508027e+01 1.553286e+01 1.558808e+01 1.546533e+01 1.508234e+01 1.449658e+01 1.381568e+01 1.291747e+01 1.209306e+01 1.105861e+01 1.021928e+01 9.303440e+00 8.432959e+00 7.802201e+00 7.032991e+00 6.548293e+00 5.843464e+00 5.505162e+00 4.921079e+00 4.673278e+00 4.141063e+00 3.242745e+00 2.536230e+00 1.817833e+00 1.229435e+00 6.460536e-01 1.126370e-01 -4.148500e-01 -9.277177e-01 -1.448545e+00 -1.985303e+00 -2.555887e+00 
-3.291776e+00 -4.016801e+00 -4.843037e+00 -5.790659e+00 -6.902978e+00 -8.196648e+00 -9.733724e+00 -1.150606e+01 -1.358238e+01 -1.585916e+01 -1.835708e+01 -2.072667e+01 -2.295333e+01 -2.449507e+01 -2.627249e+01 -2.774527e+01 -2.870346e+01 -2.924830e+01 -2.424194e+01 -1.442380e+01 -7.192073e+00 1.681854e+00 8.427742e+00 8.560247e+00 9.526242e+00 9.015944e+00 9.621310e+00 1.041616e+01 1.131718e+01 1.254131e+01 1.342101e+01 1.436851e+01 1.487820e+01 1.529832e+01 1.534220e+01 1.522988e+01 1.486963e+01 1.433060e+01 1.369351e+01 1.287282e+01 1.209336e+01 1.115578e+01 1.033998e+01 9.477552e+00 8.653339e+00 7.998214e+00 7.238055e+00 6.736327e+00 6.047344e+00 5.659755e+00 5.045563e+00 4.652574e+00 4.039260e+00 3.239149e+00 2.561500e+00 1.868836e+00 1.279041e+00 6.852027e-01 1.389913e-01 -4.072755e-01 -9.386706e-01 -1.482000e+00 -2.042376e+00 -2.640110e+00 
-3.331327e+00 -4.068746e+00 -4.908720e+00 -5.871325e+00 -6.998061e+00 -8.304696e+00 -9.846982e+00 -1.161444e+01 -1.366125e+01 -1.588551e+01 -1.829699e+01 -2.058687e+01 -2.278718e+01 -2.445207e+01 -2.632637e+01 -2.795183e+01 -2.886369e+01 -2.844278e+01 -2.334253e+01 -1.409348e+01 -7.443608e+00 8.904811e-01 7.658934e+00 8.683383e+00 1.003358e+01 9.599746e+00 1.020264e+01 1.078792e+01 1.158059e+01 1.262629e+01 1.340898e+01 1.427631e+01 1.475495e+01 1.516517e+01 1.522169e+01 1.512686e+01 1.479103e+01 1.426810e+01 1.364882e+01 1.283406e+01 1.206134e+01 1.112608e+01 1.030591e+01 9.449708e+00 8.619970e+00 7.962978e+00 7.198872e+00 6.692888e+00 5.994239e+00 5.593407e+00 4.963682e+00 4.529282e+00 3.898476e+00 3.140498e+00 2.494978e+00 1.825853e+00 1.255981e+00 6.705674e-01 1.320120e-01 -4.141049e-01 -9.466525e-01 -1.495223e+00 -2.062290e+00 -2.669070e+00 
-3.291776e+00 -4.016801e+00 -4.843037e+00 -5.790659e+00 -6.902978e+00 -8.196648e+00 -9.733724e+00 -1.150606e+01 -1.358238e+01 -1.585916e+01 -1.835708e+01 -2.072667e+01 -2.295333e+01 -2.449507e+01 -2.627249e+01 -2.774527e+01 -2.870346e+01 -2.924830e+01 -2.424194e+01 -1.442380e+01 -7.192073e+00 1.681854e+00 8.427742e+00 8.560247e+00 9.526242e+00 9.015944e+00 9.621310e+00 1.041616e+01 1.131718e+01 1.254131e+01 1.342101e+01 1.436851e+01 1.487820e+01 1.529832e+01 1.534220e+01 1.522988e+01 1.486963e+01 1.433060e+01 1.369351e+01 1.287282e+01 1.209336e+01 1.115578e+01 1.033998e+01 9.477552e+00 8.653339e+00 7.998214e+00 7.238055e+00 6.736327e+00 6.047344e+00 5.659755e+00 5.045563e+00 4.652574e+00 4.039260e+00 3.239149e+00 2.561500e+00 1.868836e+00 1.279041e+00 6.852027e-01 1.389913e-01 -4.072755e-01 -9.386706e-01 -1.482000e+00 -2.042376e+00 -2.640110e+00 