# vtk DataFile Version 2.0
Comment goes here
ASCII

DATASET STRUCTURED_POINTS
DIMENSIONS    64   64   1

ORIGIN    0.000   0.000   0.000
SPACING   0.0781250.078125   1.000

POINT_DATA   4096
SCALARS uX double
LOOKUP_TABLE default

3.527571e-01 2.708090e-01 1.895864e-01 1.039358e-01 2.081964e-02 -6.664492e-02 -1.498535e-01 -2.370491e-01 -3.181691e-01 -4.026659e-01 -4.790614e-01 -5.580568e-01 -6.267281e-01 -6.971741e-01 -7.550085e-01 -8.138631e-01 -8.579696e-01 -9.024833e-01 -9.304926e-01 -9.584344e-01 -9.686775e-01 -9.784571e-01 -9.700199e-01 -9.607301e-01 -9.334399e-01 -9.048721e-01 -8.592736e-01 -8.119404e-01 -7.492925e-01 -6.844613e-01 -6.067570e-01 -5.264834e-01 -4.364835e-01 -3.436274e-01 -2.448760e-01 -1.430834e-01 -3.986173e-02 6.651239e-02 1.693385e-01 2.753896e-01 3.726501e-01 4.731802e-01 5.597954e-01 6.496611e-01 7.211032e-01 7.956397e-01 8.483916e-01 9.038709e-01 9.357976e-01 9.698460e-01 9.803882e-01 9.922459e-01 9.823643e-01 9.728739e-01 9.447325e-01 9.160221e-01 8.724896e-01 8.274495e-01 7.715724e-01 7.133101e-01 6.479079e-01 5.793429e-01 5.068054e-01 4.304726e-01 
3.528191e-01 2.705808e-01 1.890691e-01 1.031491e-01 1.971988e-02 -6.800165e-02 -1.515386e-01 -2.389759e-01 -3.204144e-01 -4.051193e-01 -4.817809e-01 -5.609185e-01 -6.297516e-01 -7.002383e-01 -7.580880e-01 -8.168601e-01 -8.608246e-01 -9.051380e-01 -9.328792e-01 -9.605371e-01 -9.704505e-01 -9.799141e-01 -9.711611e-01 -9.615761e-01 -9.340463e-01 -9.052442e-01 -8.595167e-01 -8.120291e-01 -7.493653e-01 -6.844570e-01 -6.068251e-01 -5.265299e-01 -4.366477e-01 -3.437893e-01 -2.451492e-01 -1.433291e-01 -4.016203e-02 6.630877e-02 1.691767e-01 2.754253e-01 3.728446e-01 4.736781e-01 5.605626e-01 6.508066e-01 7.225928e-01 7.975152e-01 8.506262e-01 9.064126e-01 9.386455e-01 9.728461e-01 9.835872e-01 9.954056e-01 9.855918e-01 9.758856e-01 9.476907e-01 9.186424e-01 8.749665e-01 8.295332e-01 7.734574e-01 7.148016e-01 6.491704e-01 5.802426e-01 5.074571e-01 4.308011e-01 
3.572653e-01 2.743585e-01 1.923250e-01 1.057246e-01 2.170080e-02 -6.681376e-02 -1.511226e-01 -2.395432e-01 -3.219915e-01 -4.078998e-01 -4.858044e-01 -5.663319e-01 -6.365662e-01 -7.085388e-01 -7.678230e-01 -8.280562e-01 -8.733510e-01 -9.189844e-01 -9.478330e-01 -9.765759e-01 -9.872831e-01 -9.975243e-01 -9.891824e-01 -9.800058e-01 -9.524524e-01 -9.236362e-01 -8.774158e-01 -8.294537e-01 -7.658131e-01 -6.999551e-01 -6.208703e-01 -5.391637e-01 -4.473881e-01 -3.527031e-01 -2.518052e-01 -1.478275e-01 -4.216606e-02 6.666816e-02 1.720863e-01 2.807440e-01 3.805513e-01 4.836598e-01 5.725459e-01 6.647505e-01 7.379585e-01 8.143656e-01 8.681931e-01 9.248666e-01 9.570814e-01 9.915177e-01 1.001588e+00 1.013032e+00 1.002076e+00 9.915292e-01 9.619591e-01 9.318097e-01 8.867582e-01 8.401690e-01 7.828852e-01 7.231668e-01 6.565719e-01 5.867414e-01 5.132262e-01 4.358174e-01 
3.618243e-01 2.776792e-01 1.945457e-01 1.067326e-01 2.147700e-02 -6.834997e-02 -1.541153e-01 -2.440243e-01 -3.281648e-01 -4.157274e-01 -4.954610e-01 -5.776993e-01 -6.497013e-01 -7.232630e-01 -7.840226e-01 -8.455461e-01 -8.918552e-01 -9.383737e-01 -9.677288e-01 -9.969380e-01 -1.007705e+00 -1.018041e+00 -1.009419e+00 -1.000023e+00 -9.719346e-01 -9.426190e-01 -8.956475e-01 -8.469068e-01 -7.822837e-01 -7.153442e-01 -6.349948e-01 -5.518696e-01 -4.584868e-01 -3.620141e-01 -2.591298e-01 -1.529821e-01 -4.497339e-02 6.638795e-02 1.744214e-01 2.858797e-01 3.884005e-01 4.944241e-01 5.858881e-01 6.808790e-01 7.562591e-01 8.350115e-01 8.903443e-01 9.485983e-01 9.814651e-01 1.016482e+00 1.026305e+00 1.037286e+00 1.025315e+00 1.013444e+00 9.823612e-01 9.503689e-01 9.036203e-01 8.550337e-01 7.961189e-01 7.345186e-01 6.664897e-01 5.950216e-01 5.202791e-01 4.414766e-01 
3.706442e-01 2.849633e-01 2.006127e-01 1.112628e-01 2.460136e-02 -6.700019e-02 -1.545868e-01 -2.466848e-01 -3.331778e-01 -4.233968e-01 -5.059639e-01 -5.912190e-01 -6.663121e-01 -7.430066e-01 -8.067864e-01 -8.712643e-01 -9.202087e-01 -9.692593e-01 -1.000652e+00 -1.031823e+00 -1.043921e+00 -1.055563e+00 -1.047506e+00 -1.038693e+00 -1.010361e+00 -9.808292e-01 -9.327649e-01 -8.829418e-01 -8.163464e-01 -7.474194e-01 -6.642017e-01 -5.781850e-01 -4.810552e-01 -3.808388e-01 -2.734183e-01 -1.627975e-01 -4.966844e-02 6.668241e-02 1.800820e-01 2.967421e-01 4.044282e-01 5.154921e-01 6.114285e-01 7.108877e-01 7.895893e-01 8.718271e-01 9.289909e-01 9.893903e-01 1.022457e+00 1.058066e+00 1.066576e+00 1.076637e+00 1.062219e+00 1.048251e+00 1.014137e+00 9.794019e-01 9.295909e-01 8.781500e-01 8.165415e-01 7.523528e-01 6.821743e-01 6.085444e-01 5.321654e-01 4.515961e-01 
3.795395e-01 2.917912e-01 2.056485e-01 1.142525e-01 2.551535e-02 -6.839810e-02 -1.585801e-01 -2.534449e-01 -3.431234e-01 -4.365694e-01 -5.227391e-01 -6.114603e-01 -6.901606e-01 -7.701682e-01 -8.370484e-01 -9.042899e-01 -9.554464e-01 -1.006478e+00 -1.039091e+00 -1.071434e+00 -1.083885e+00 -1.095986e+00 -1.087612e+00 -1.078637e+00 -1.049456e+00 -1.019176e+00 -9.697686e-01 -9.185789e-01 -8.500952e-01 -7.791225e-01 -6.933658e-01 -6.045636e-01 -5.041340e-01 -4.003504e-01 -2.888183e-01 -1.738489e-01 -5.586638e-02 6.553809e-02 1.843084e-01 3.065444e-01 4.197455e-01 5.365926e-01 6.376999e-01 7.426808e-01 8.256602e-01 9.125450e-01 9.725675e-01 1.036078e+00 1.070211e+00 1.106897e+00 1.114610e+00 1.123620e+00 1.106854e+00 1.090125e+00 1.052736e+00 1.014294e+00 9.609815e-01 9.056656e-01 8.408565e-01 7.731613e-01 7.003260e-01 6.237753e-01 5.452612e-01 4.623075e-01 
3.924086e-01 3.024667e-01 2.146569e-01 1.210736e-01 3.030982e-02 -6.622337e-02 -1.592031e-01 -2.574512e-01 -3.509135e-01 -4.486078e-01 -5.394482e-01 -6.330704e-01 -7.168832e-01 -8.019602e-01 -8.737500e-01 -9.456708e-01 -1.000969e+00 -1.055888e+00 -1.091577e+00 -1.126849e+00 -1.141239e+00 -1.155266e+00 -1.147683e+00 -1.139570e+00 -1.109996e+00 -1.079395e+00 -1.028354e+00 -9.755356e-01 -9.041176e-01 -8.301293e-01 -7.400761e-01 -6.468478e-01 -5.407197e-01 -4.311397e-01 -3.125711e-01 -1.905807e-01 -6.449237e-02 6.485470e-02 1.922764e-01 3.229046e-01 4.445647e-01 5.696535e-01 6.781885e-01 7.905852e-01 8.791573e-01 9.719204e-01 1.035069e+00 1.102238e+00 1.136717e+00 1.174360e+00 1.179783e+00 1.187037e+00 1.166005e+00 1.145421e+00 1.102809e+00 1.059456e+00 1.000993e+00 9.407387e-01 8.715612e-01 7.995744e-01 7.234167e-01 6.434587e-01 5.625596e-01 4.769708e-01 
4.052750e-01 3.126892e-01 2.226520e-01 1.264167e-01 3.290124e-02 -6.682949e-02 -1.635518e-01 -2.659166e-01 -3.642995e-01 -4.670706e-01 -5.637380e-01 -6.629915e-01 -7.527635e-01 -8.432608e-01 -9.201344e-01 -9.965004e-01 -1.055291e+00 -1.113299e+00 -1.150795e+00 -1.187866e+00 -1.202729e+00 -1.217522e+00 -1.209489e+00 -1.201292e+00 -1.170570e+00 -1.139055e+00 -1.086177e+00 -1.031504e+00 -9.574272e-01 -8.805071e-01 -7.867564e-01 -6.894131e-01 -5.783285e-01 -4.633779e-01 -3.384733e-01 -2.098444e-01 -7.613494e-02 6.101497e-02 1.969765e-01 3.363126e-01 4.668192e-01 6.010729e-01 7.179677e-01 8.392853e-01 9.348234e-01 1.035258e+00 1.103063e+00 1.175451e+00 1.211568e+00 1.250963e+00 1.254811e+00 1.260090e+00 1.234819e+00 1.209327e+00 1.161010e+00 1.111322e+00 1.047020e+00 9.804588e-01 9.062401e-01 8.288702e-01 7.488186e-01 6.646690e-01 5.808940e-01 4.921127e-01 
4.215775e-01 3.264936e-01 2.347318e-01 1.359885e-01 4.011362e-02 -6.288558e-02 -1.633052e-01 -2.702790e-01 -3.740924e-01 -4.830048e-01 -5.866816e-01 -6.932270e-01 -7.907681e-01 -8.887970e-01 -9.729890e-01 -1.056116e+00 -1.120815e+00 -1.184211e+00 -1.225898e+00 -1.266928e+00 -1.284394e+00 -1.301855e+00 -1.294952e+00 -1.288097e+00 -1.256973e+00 -1.225239e+00 -1.170317e+00 -1.113609e+00 -1.035742e+00 -9.548263e-01 -8.553982e-01 -7.520433e-01 -6.332191e-01 -5.102350e-01 -3.754755e-01 -2.369175e-01 -9.153146e-02 5.705188e-02 2.057545e-01 3.573433e-01 5.005115e-01 6.469582e-01 7.751172e-01 9.075949e-01 1.011724e+00 1.121218e+00 1.193880e+00 1.272053e+00 1.308660e+00 1.349538e+00 1.349612e+00 1.351825e+00 1.319571e+00 1.287515e+00 1.230811e+00 1.173040e+00 1.100784e+00 1.026489e+00 9.459073e-01 8.622381e-01 7.777300e-01 6.889685e-01 6.023374e-01 5.103135e-01 
4.377285e-01 3.398336e-01 2.458150e-01 1.441598e-01 4.510958e-02 -6.182895e-02 -1.671831e-01 -2.797981e-01 -3.907209e-01 -5.070967e-01 -6.196717e-01 -7.347916e-01 -8.416136e-01 -9.478613e-01 -1.039749e+00 -1.129302e+00 -1.198809e+00 -1.266313e+00 -1.310050e+00 -1.353297e+00 -1.371026e+00 -1.389479e+00 -1.381889e+00 -1.375133e+00 -1.342675e+00 -1.310087e+00 -1.253074e+00 -1.194239e+00 -1.113214e+00 -1.028617e+00 -9.245579e-01 -8.158079e-01 -6.904460e-01 -5.602350e-01 -4.167405e-01 -2.690594e-01 -1.128198e-01 4.667896e-02 2.078074e-01 3.717931e-01 5.280409e-01 6.878496e-01 8.285844e-01 9.745183e-01 1.089364e+00 1.210922e+00 1.290939e+00 1.377664e+00 1.416912e+00 1.460728e+00 1.458146e+00 1.456900e+00 1.417523e+00 1.377070e+00 1.311000e+00 1.242853e+00 1.161469e+00 1.077472e+00 9.895577e-01 8.982393e-01 8.086000e-01 7.144383e-01 6.244813e-01 5.287800e-01 
4.563858e-01 3.561902e-01 2.609142e-01 1.568607e-01 5.546883e-02 -5.517669e-02 -1.650956e-01 -2.836790e-01 -4.020910e-01 -5.270491e-01 -6.498562e-01 -7.755364e-01 -8.938855e-01 -1.010983e+00 -1.113396e+00 -1.212262e+00 -1.289668e+00 -1.364098e+00 -1.413060e+00 -1.461269e+00 -1.482293e+00 -1.504366e+00 -1.498479e+00 -1.493953e+00 -1.461362e+00 -1.429056e+00 -1.369812e+00 -1.308769e+00 -1.223296e+00 -1.133801e+00 -1.022844e+00 -9.064556e-01 -7.712884e-01 -6.305782e-01 -4.739949e-01 -3.129490e-01 -1.405596e-01 3.469983e-02 2.139548e-01 3.950893e-01 5.696743e-01 7.467637e-01 9.040444e-01 1.066137e+00 1.193842e+00 1.329051e+00 1.416565e+00 1.512538e+00 1.552670e+00 1.599117e+00 1.590607e+00 1.584312e+00 1.533754e+00 1.482316e+00 1.403027e+00 1.321832e+00 1.228505e+00 1.132786e+00 1.036027e+00 9.359370e-01 8.407885e-01 7.409003e-01 6.480361e-01 5.488862e-01 
4.746242e-01 3.720043e-01 2.749609e-01 1.681537e-01 6.345685e-02 -5.175358e-02 -1.679101e-01 -2.939842e-01 -4.223989e-01 -5.580768e-01 -6.942502e-01 -8.327547e-01 -9.654064e-01 -1.094645e+00 -1.208374e+00 -1.315955e+00 -1.399255e+00 -1.478418e+00 -1.528847e+00 -1.579257e+00 -1.599774e+00 -1.623013e+00 -1.616169e+00 -1.612213e+00 -1.578399e+00 -1.545762e+00 -1.484580e+00 -1.421479e+00 -1.332775e+00 -1.238983e+00 -1.122832e+00 -9.997869e-01 -8.566600e-01 -7.067738e-01 -5.387983e-01 -3.658479e-01 -1.786253e-01 1.117816e-02 2.078657e-01 4.058060e-01 5.990586e-01 7.947819e-01 9.704162e-01 1.152212e+00 1.296140e+00 1.450215e+00 1.549487e+00 1.659847e+00 1.704678e+00 1.756551e+00 1.744029e+00 1.731889e+00 1.669598e+00 1.603731e+00 1.509214e+00 1.411081e+00 1.303753e+00 1.193389e+00 1.086331e+00 9.757908e-01 8.743011e-01 7.679532e-01 6.717377e-01 5.689113e-01 
4.938616e-01 3.897398e-01 2.924809e-01 1.838364e-01 7.716188e-02 -4.201727e-02 -1.635933e-01 -2.971678e-01 -4.356089e-01 -5.829770e-01 -7.338217e-01 -8.873897e-01 -1.037033e+00 -1.181647e+00 -1.310198e+00 -1.430159e+00 -1.523307e+00 -1.610677e+00 -1.666992e+00 -1.723240e+00 -1.747937e+00 -1.776286e+00 -1.772352e+00 -1.772349e+00 -1.739094e+00 -1.707846e+00 -1.644359e+00 -1.579008e+00 -1.485328e+00 -1.385642e+00 -1.261664e+00 -1.129280e+00 -9.744405e-01 -8.113635e-01 -6.265978e-01 -4.361297e-01 -2.269502e-01 -1.580727e-02 2.063911e-01 4.278586e-01 6.473353e-01 8.668903e-01 1.066449e+00 1.271008e+00 1.433982e+00 1.608475e+00 1.719484e+00 1.845189e+00 1.892022e+00 1.949355e+00 1.927890e+00 1.907724e+00 1.827551e+00 1.743037e+00 1.627612e+00 1.508319e+00 1.383246e+00 1.255332e+00 1.136323e+00 1.013933e+00 9.060480e-01 7.930375e-01 6.944220e-01 5.884841e-01 
5.122591e-01 4.067348e-01 3.087462e-01 1.979302e-01 8.815882e-02 -3.606634e-02 -1.651243e-01 -3.082088e-01 -4.600414e-01 -6.221949e-01 -7.925999e-01 -9.650135e-01 -1.136708e+00 -1.298937e+00 -1.443889e+00 -1.574847e+00 -1.673919e+00 -1.765643e+00 -1.821216e+00 -1.879176e+00 -1.902096e+00 -1.932218e+00 -1.927477e+00 -1.929141e+00 -1.895289e+00 -1.864932e+00 -1.799983e+00 -1.732824e+00 -1.636146e+00 -1.531287e+00 -1.401976e+00 -1.261471e+00 -1.097564e+00 -9.232389e-01 -7.241130e-01 -5.185746e-01 -2.894627e-01 -5.951717e-02 1.867072e-01 4.300184e-01 6.754528e-01 9.198031e-01 1.145401e+00 1.377895e+00 1.565006e+00 1.768900e+00 1.898828e+00 2.049478e+00 2.105131e+00 2.173256e+00 2.146177e+00 2.116006e+00 2.016207e+00 1.906077e+00 1.765555e+00 1.618407e+00 1.472108e+00 1.322489e+00 1.189472e+00 1.053340e+00 9.380657e-01 8.178847e-01 7.164497e-01 6.074917e-01 
5.294116e-01 4.238250e-01 3.271949e-01 2.155455e-01 1.045790e-01 -2.350960e-02 -1.583311e-01 -3.099465e-01 -4.738989e-01 -6.506987e-01 -8.410480e-01 -1.034147e+00 -1.230560e+00 -1.413773e+00 -1.578818e+00 -1.725357e+00 -1.835157e+00 -1.935489e+00 -1.996997e+00 -2.062038e+00 -2.091545e+00 -2.130270e+00 -2.131753e+00 -2.140930e+00 -2.108761e+00 -2.081535e+00 -2.013352e+00 -1.943134e+00 -1.840324e+00 -1.727600e+00 -1.589848e+00 -1.438072e+00 -1.261186e+00 -1.070994e+00 -8.510716e-01 -6.230427e-01 -3.642935e-01 -1.056017e-01 1.764920e-01 4.516625e-01 7.342096e-01 1.010242e+00 1.269548e+00 1.532445e+00 1.746898e+00 1.980327e+00 2.128298e+00 2.304871e+00 2.364737e+00 2.444903e+00 2.404391e+00 2.361315e+00 2.232194e+00 2.088956e+00 1.914801e+00 1.733097e+00 1.561021e+00 1.385856e+00 1.237527e+00 1.086141e+00 9.641021e-01 8.367971e-01 7.341967e-01 6.231783e-01 
5.452225e-01 4.399753e-01 3.442463e-01 2.315671e-01 1.184547e-01 -1.438615e-02 -1.565985e-01 -3.184299e-01 -4.977394e-01 -6.928450e-01 -9.102532e-01 -1.130432e+00 -1.361048e+00 -1.568718e+00 -1.756525e+00 -1.914112e+00 -2.025614e+00 -2.127361e+00 -2.183176e+00 -2.250357e+00 -2.278376e+00 -2.322549e+00 -2.326022e+00 -2.339473e+00 -2.308352e+00 -2.284466e+00 -2.214881e+00 -2.142472e+00 -2.036339e+00 -1.915824e+00 -1.772795e+00 -1.610581e+00 -1.424235e+00 -1.220785e+00 -9.833418e-01 -7.366772e-01 -4.512166e-01 -1.686857e-01 1.461770e-01 4.482011e-01 7.655840e-01 1.071988e+00 1.366386e+00 1.666309e+00 1.915062e+00 2.193048e+00 2.370554e+00 2.590824e+00 2.666755e+00 2.768970e+00 2.720827e+00 2.659312e+00 2.495582e+00 2.304047e+00 2.087375e+00 1.859964e+00 1.657036e+00 1.451599e+00 1.285870e+00 1.118028e+00 9.884204e-01 8.542387e-01 7.501767e-01 6.377309e-01 
5.568424e-01 4.538014e-01 3.616422e-01 2.499007e-01 1.374541e-01 2.318413e-03 -1.435609e-01 -3.122040e-01 -5.026106e-01 -7.135524e-01 -9.568355e-01 -1.205351e+00 -1.472274e+00 -1.705283e+00 -1.916228e+00 -2.089032e+00 -2.205496e+00 -2.312194e+00 -2.372795e+00 -2.451097e+00 -2.495205e+00 -2.559285e+00 -2.580193e+00 -2.610117e+00 -2.582870e+00 -2.565296e+00 -2.488437e+00 -2.409208e+00 -2.293390e+00 -2.159754e+00 -2.008129e+00 -1.832401e+00 -1.633913e+00 -1.413148e+00 -1.151408e+00 -8.766656e-01 -5.511845e-01 -2.294209e-01 1.364854e-01 4.816783e-01 8.512076e-01 1.197540e+00 1.537308e+00 1.873444e+00 2.158786e+00 2.475663e+00 2.679066e+00 2.942791e+00 3.025956e+00 3.155627e+00 3.087053e+00 3.004142e+00 2.790282e+00 2.535395e+00 2.263019e+00 1.979482e+00 1.741863e+00 1.502563e+00 1.320316e+00 1.135476e+00 1.000595e+00 8.603817e-01 7.575922e-01 6.453024e-01 
5.668646e-01 4.670417e-01 3.784355e-01 2.681181e-01 1.565441e-01 1.954811e-02 -1.294122e-01 -3.050705e-01 -5.089318e-01 -7.421955e-01 -1.025602e+00 -1.319011e+00 -1.644170e+00 -1.907946e+00 -2.144296e+00 -2.312874e+00 -2.406260e+00 -2.500148e+00 -2.542986e+00 -2.629307e+00 -2.682353e+00 -2.769047e+00 -2.806679e+00 -2.848762e+00 -2.829177e+00 -2.823657e+00 -2.745162e+00 -2.662469e+00 -2.541287e+00 -2.392057e+00 -2.235169e+00 -2.044903e+00 -1.838965e+00 -1.604649e+00 -1.322954e+00 -1.025833e+00 -6.638665e-01 -3.112747e-01 9.990118e-02 4.761961e-01 8.908315e-01 1.269370e+00 1.653169e+00 2.032849e+00 2.363923e+00 2.745281e+00 2.992957e+00 3.334689e+00 3.446716e+00 3.625369e+00 3.550207e+00 3.433053e+00 3.155210e+00 2.802126e+00 2.454279e+00 2.097065e+00 1.819316e+00 1.544364e+00 1.345964e+00 1.146394e+00 1.006885e+00 8.629322e-01 7.616728e-01 6.512186e-01 
5.694925e-01 4.757559e-01 3.942479e-01 2.884830e-01 1.819144e-01 4.727200e-02 -9.903701e-02 -2.771879e-01 -4.907996e-01 -7.494626e-01 -1.081299e+00 -1.432012e+00 -1.822979e+00 -2.106571e+00 -2.350344e+00 -2.510749e+00 -2.567916e+00 -2.638349e+00 -2.674422e+00 -2.781757e+00 -2.883462e+00 -3.028766e+00 -3.125199e+00 -3.212846e+00 -3.207302e+00 -3.221255e+00 -3.126607e+00 -3.027508e+00 -2.888632e+00 -2.712765e+00 -2.549036e+00 -2.344099e+00 -2.133890e+00 -1.887308e+00 -1.581579e+00 -1.251947e+00 -8.356164e-01 -4.267303e-01 6.031609e-02 4.982895e-01 9.881786e-01 1.415702e+00 1.858345e+00 2.273233e+00 2.650242e+00 3.075238e+00 3.360309e+00 3.778554e+00 3.905763e+00 4.159225e+00 4.063561e+00 3.921190e+00 3.560794e+00 3.075615e+00 2.628448e+00 2.179101e+00 1.860443e+00 1.549205e+00 1.341228e+00 1.129840e+00 9.915084e-01 8.467631e-01 7.516218e-01 6.458837e-01 
5.711324e-01 4.856847e-01 4.124002e-01 3.131358e-01 2.138359e-01 8.352701e-02 -5.799993e-02 -2.420584e-01 -4.762079e-01 -7.900691e-01 -1.219946e+00 -1.692132e+00 -2.215182e+00 -2.533745e+00 -2.783592e+00 -2.857893e+00 -2.778912e+00 -2.770075e+00 -2.746277e+00 -2.878812e+00 -3.035508e+00 -3.271256e+00 -3.446604e+00 -3.573706e+00 -3.606948e+00 -3.673998e+00 -3.582117e+00 -3.478505e+00 -3.328083e+00 -3.112478e+00 -2.941888e+00 -2.715281e+00 -2.508089e+00 -2.257697e+00 -1.934878e+00 -1.580969e+00 -1.112563e+00 -6.591485e-01 -1.057243e-01 3.675086e-01 9.153723e-01 1.369463e+00 1.864946e+00 2.323790e+00 2.763386e+00 3.282512e+00 3.641514e+00 4.216188e+00 4.409814e+00 4.804933e+00 4.748935e+00 4.572512e+00 4.104217e+00 3.404344e+00 2.805094e+00 2.230904e+00 1.863418e+00 1.522076e+00 1.310322e+00 1.096890e+00 9.634458e-01 8.239349e-01 7.363694e-01 6.387714e-01 
5.628747e-01 4.904362e-01 4.301752e-01 3.420150e-01 2.543707e-01 1.315852e-01 -4.532948e-03 -2.027233e-01 -4.779990e-01 -8.941249e-01 -1.487494e+00 -2.156736e+00 -2.853168e+00 -3.147711e+00 -3.325099e+00 -3.301161e+00 -3.021499e+00 -2.862547e+00 -2.772598e+00 -2.941847e+00 -3.246987e+00 -3.674564e+00 -4.063775e+00 -4.336117e+00 -4.423520e+00 -4.561876e+00 -4.432293e+00 -4.280939e+00 -4.090195e+00 -3.805698e+00 -3.630941e+00 -3.392466e+00 -3.207379e+00 -2.972092e+00 -2.637025e+00 -2.251969e+00 -1.707688e+00 -1.163541e+00 -4.866788e-01 8.704105e-02 7.532578e-01 1.273152e+00 1.845055e+00 2.327356e+00 2.829603e+00 3.388162e+00 3.825846e+00 4.565520e+00 4.823645e+00 5.479476e+00 5.490723e+00 5.379301e+00 4.823134e+00 3.820810e+00 2.997767e+00 2.239625e+00 1.810039e+00 1.434202e+00 1.228904e+00 1.020160e+00 9.014114e-01 7.733608e-01 7.005051e-01 6.162368e-01 
5.557360e-01 5.000624e-01 4.554906e-01 3.819310e-01 3.092765e-01 1.946646e-01 6.136578e-02 -1.698736e-01 -5.243258e-01 -1.131319e+00 -2.019156e+00 -3.076373e+00 -4.123270e+00 -4.454335e+00 -4.585105e+00 -4.216293e+00 -3.433147e+00 -3.006056e+00 -2.758209e+00 -3.010030e+00 -3.539469e+00 -4.310740e+00 -5.001907e+00 -5.365001e+00 -5.574506e+00 -5.906015e+00 -5.773295e+00 -5.590892e+00 -5.354121e+00 -4.940591e+00 -4.738995e+00 -4.461468e+00 -4.309591e+00 -4.111662e+00 -3.770577e+00 -3.352642e+00 -2.713040e+00 -2.073464e+00 -1.278245e+00 -6.560347e-01 8.883691e-02 6.181770e-01 1.250711e+00 1.764883e+00 2.365517e+00 3.062871e+00 3.656105e+00 4.750114e+00 5.195119e+00 6.320865e+00 6.652117e+00 6.692863e+00 6.026971e+00 4.515472e+00 3.293866e+00 2.253549e+00 1.715927e+00 1.308186e+00 1.111555e+00 9.221714e-01 8.224443e-01 7.147761e-01 6.588528e-01 5.929972e-01 
5.382001e-01 5.067431e-01 4.843395e-01 4.319458e-01 3.776868e-01 2.714855e-01 1.310292e-01 -1.601733e-01 -6.472160e-01 -1.553062e+00 -2.882500e+00 -4.535503e+00 -6.010521e+00 -6.064810e+00 -5.904964e+00 -5.327703e+00 -3.981036e+00 -3.126546e+00 -2.728842e+00 -3.096447e+00 -4.062391e+00 -5.426928e+00 -6.814221e+00 -7.521015e+00 -7.756530e+00 -8.217649e+00 -7.907307e+00 -7.527981e+00 -7.169009e+00 -6.556652e+00 -6.347835e+00 -6.079421e+00 -6.017730e+00 -5.915725e+00 -5.579052e+00 -5.111877e+00 -4.325240e+00 -3.471496e+00 -2.417982e+00 -1.576033e+00 -6.025551e-01 4.983742e-02 7.617307e-01 1.247524e+00 1.892904e+00 2.511144e+00 3.257411e+00 4.616459e+00 5.223133e+00 7.094082e+00 7.797988e+00 8.474147e+00 8.028882e+00 5.794791e+00 3.910153e+00 2.370744e+00 1.622508e+00 1.135822e+00 9.394997e-01 7.712260e-01 6.994657e-01 6.207874e-01 5.910257e-01 5.517211e-01 
5.252593e-01 5.231427e-01 5.274650e-01 5.023990e-01 4.729277e-01 3.820192e-01 2.441696e-01 -9.687805e-02 -6.959746e-01 -1.910019e+00 -3.723822e+00 -6.215594e+00 -8.339403e+00 -8.315570e+00 -8.091897e+00 -6.605315e+00 -4.040148e+00 -2.858619e+00 -2.418772e+00 -3.102228e+00 -4.727998e+00 -7.057329e+00 -9.098922e+00 -9.488099e+00 -9.652020e+00 -1.049630e+01 -9.996067e+00 -9.406138e+00 -8.868566e+00 -7.873087e+00 -7.553911e+00 -7.237285e+00 -7.307497e+00 -7.407379e+00 -7.100999e+00 -6.536846e+00 -5.500259e+00 -4.308075e+00 -2.939650e+00 -1.930480e+00 -7.925473e-01 -9.988197e-02 6.242458e-01 1.065324e+00 1.680311e+00 2.176432e+00 3.028149e+00 4.479121e+00 5.225246e+00 7.792738e+00 9.041643e+00 1.077540e+01 1.092105e+01 7.730465e+00 4.818390e+00 2.613973e+00 1.546262e+00 9.678528e-01 7.531207e-01 6.128552e-01 5.661700e-01 5.227459e-01 5.200929e-01 5.123572e-01 
5.042441e-01 5.423003e-01 5.834391e-01 5.993156e-01 6.077355e-01 5.551053e-01 4.483365e-01 1.206065e-01 -4.930598e-01 -1.877753e+00 -4.049616e+00 -7.566162e+00 -9.888916e+00 -7.826417e+00 -6.323863e+00 -5.760814e+00 -3.468422e+00 -1.738449e+00 -1.385511e+00 -2.353877e+00 -4.503304e+00 -7.329522e+00 -1.031633e+01 -1.073037e+01 -9.827112e+00 -1.012740e+01 -9.226951e+00 -8.153664e+00 -7.430131e+00 -6.155584e+00 -5.739570e+00 -5.558229e+00 -5.795918e+00 -6.257523e+00 -6.088008e+00 -5.540659e+00 -4.356880e+00 -2.648405e+00 -6.950516e-01 1.029525e+00 2.761138e+00 4.037913e+00 4.669282e+00 5.244904e+00 5.472797e+00 4.890480e+00 6.429377e+00 5.516747e+00 6.223769e+00 8.702943e+00 7.054488e+00 1.093006e+01 1.416004e+01 1.035680e+01 5.983928e+00 2.866253e+00 1.399916e+00 7.164919e-01 4.858915e-01 3.853778e-01 3.770540e-01 3.829414e-01 4.196154e-01 4.550018e-01 
4.902273e-01 5.742064e-01 6.591999e-01 7.279277e-01 7.921333e-01 8.156653e-01 8.150614e-01 6.776059e-01 4.173417e-01 -3.662956e-01 -1.560032e+00 -4.230164e+00 -5.379782e+00 -2.317312e+00 5.089625e-01 -2.041917e-01 2.609142e-01 1.704054e+00 1.144084e+00 1.398486e-01 -1.775944e+00 -2.946854e+00 -2.239543e+00 -3.504568e-01 5.721609e-01 1.237922e+00 8.188188e-01 1.350798e+00 1.533127e+00 1.918143e+00 2.559129e+00 2.014821e+00 2.069564e+00 1.586113e+00 1.816707e+00 2.465709e+00 3.491662e+00 5.498616e+00 7.313587e+00 9.260336e+00 1.038249e+01 1.131484e+01 1.116145e+01 1.133002e+01 1.148493e+01 1.005198e+01 1.291136e+01 9.381489e+00 1.151566e+01 1.190091e+01 7.316275e+00 1.256688e+01 1.413421e+01 9.118297e+00 4.614136e+00 2.039941e+00 8.454350e-01 3.481677e-01 1.794749e-01 1.479552e-01 1.817244e-01 2.411237e-01 3.188089e-01 4.010237e-01 
4.719243e-01 6.124621e-01 7.532380e-01 8.944604e-01 1.042713e+00 1.199982e+00 1.397010e+00 1.666916e+00 2.111138e+00 2.823675e+00 3.918610e+00 5.152768e+00 6.122337e+00 5.589109e+00 4.813653e+00 4.806954e+00 3.762271e+00 4.014879e+00 5.210777e+00 4.827504e+00 6.507761e+00 7.994741e+00 1.464095e+01 2.022035e+01 1.833546e+01 1.879096e+01 1.598907e+01 1.465179e+01 1.317744e+01 1.122727e+01 1.101983e+01 9.654485e+00 9.990876e+00 1.003057e+01 1.012801e+01 1.019847e+01 9.670723e+00 9.392247e+00 8.283790e+00 7.504330e+00 5.877036e+00 4.672829e+00 3.669063e+00 2.930844e+00 3.048124e+00 2.738162e+00 3.744243e+00 2.391942e+00 4.652353e+00 2.652400e+00 2.969978e+00 4.252516e+00 3.464728e-01 -1.806904e+00 -1.900675e+00 -1.218262e+00 -8.361498e-01 -5.490284e-01 -3.905828e-01 -2.284523e-01 -9.299799e-02 5.344615e-02 1.907286e-01 3.331981e-01 
4.582695e-01 6.570955e-01 8.561554e-01 1.072149e+00 1.302669e+00 1.584300e+00 1.938111e+00 2.515763e+00 3.408659e+00 5.110857e+00 7.536448e+00 1.158548e+01 1.394780e+01 1.193611e+01 8.048508e+00 6.377113e+00 3.392149e+00 3.539402e+00 7.628503e+00 8.693990e+00 1.357616e+01 1.748420e+01 2.112464e+01 2.214478e+01 1.942877e+01 1.969454e+01 1.795234e+01 1.654319e+01 1.487264e+01 1.237295e+01 1.101975e+01 1.002647e+01 9.962366e+00 1.009035e+01 9.523090e+00 8.354733e+00 6.221033e+00 3.415737e+00 3.344326e-01 -2.196898e+00 -4.404047e+00 -6.009621e+00 -6.823974e+00 -8.064124e+00 -8.922136e+00 -9.486125e+00 -1.211781e+01 -1.184269e+01 -1.314148e+01 -1.530074e+01 -1.188758e+01 -1.503523e+01 -1.638366e+01 -1.170353e+01 -7.045672e+00 -3.834547e+00 -2.236847e+00 -1.364723e+00 -9.276428e-01 -6.012510e-01 -3.651744e-01 -1.354150e-01 6.437270e-02 2.674024e-01 
4.450076e-01 6.993514e-01 9.544941e-01 1.239622e+00 1.546735e+00 1.920523e+00 2.376990e+00 3.062769e+00 4.073287e+00 5.817160e+00 8.273320e+00 1.193341e+01 1.436740e+01 1.305510e+01 1.090566e+01 8.600846e+00 5.805564e+00 6.815149e+00 8.773640e+00 9.470471e+00 1.251877e+01 1.773801e+01 1.681903e+01 1.255002e+01 1.197866e+01 1.158901e+01 1.156858e+01 1.082499e+01 1.030135e+01 9.508783e+00 8.654937e+00 8.589321e+00 8.036356e+00 7.580755e+00 6.478217e+00 4.932385e+00 3.009013e+00 5.200192e-01 -1.800581e+00 -3.895924e+00 -5.559261e+00 -6.936835e+00 -7.958877e+00 -9.241159e+00 -1.054127e+01 -1.151006e+01 -1.419009e+01 -1.444114e+01 -1.688308e+01 -1.878795e+01 -1.756476e+01 -2.110320e+01 -1.966485e+01 -1.301432e+01 -7.908923e+00 -4.575402e+00 -2.886398e+00 -1.893549e+00 -1.359544e+00 -9.309052e-01 -6.183838e-01 -3.127165e-01 -5.577054e-02 2.052355e-01 
4.329709e-01 7.392873e-01 1.048102e+00 1.397149e+00 1.773164e+00 2.222530e+00 2.743927e+00 3.455361e+00 4.415039e+00 5.893913e+00 7.904960e+00 1.047964e+01 1.254639e+01 1.186867e+01 1.154406e+01 9.835967e+00 6.578388e+00 5.856104e+00 7.085663e+00 1.222011e+01 1.518241e+01 1.752915e+01 1.537041e+01 1.064092e+01 1.072256e+01 9.840710e+00 1.007438e+01 9.530355e+00 9.406352e+00 9.236725e+00 8.754987e+00 8.668041e+00 7.920143e+00 7.244737e+00 6.154790e+00 4.870044e+00 3.445131e+00 1.670398e+00 -7.225493e-02 -1.889132e+00 -3.544523e+00 -5.046280e+00 -6.300208e+00 -7.395177e+00 -8.551347e+00 -9.142521e+00 -1.089245e+01 -1.128608e+01 -1.290404e+01 -1.468918e+01 -1.457079e+01 -1.710712e+01 -1.621083e+01 -1.143081e+01 -7.573433e+00 -4.919740e+00 -3.416856e+00 -2.419933e+00 -1.797637e+00 -1.271347e+00 -8.710303e-01 -4.898262e-01 -1.719179e-01 1.443860e-01 
4.249833e-01 7.679758e-01 1.113858e+00 1.507291e+00 1.930296e+00 2.424118e+00 2.973473e+00 3.651886e+00 4.487051e+00 5.625471e+00 7.115181e+00 8.893199e+00 1.065300e+01 1.116478e+01 1.212039e+01 1.185887e+01 9.865514e+00 5.160794e+00 4.667539e+00 1.262845e+01 1.523602e+01 1.353705e+01 1.141041e+01 9.643811e+00 1.012979e+01 1.011990e+01 1.067621e+01 1.051346e+01 1.046874e+01 1.021379e+01 9.686477e+00 9.395793e+00 8.669341e+00 8.061357e+00 7.104299e+00 5.969539e+00 4.650019e+00 3.054464e+00 1.477273e+00 -1.212754e-01 -1.543113e+00 -2.822830e+00 -3.953735e+00 -4.912612e+00 -6.045291e+00 -6.725304e+00 -8.213681e+00 -8.837868e+00 -1.016958e+01 -1.150696e+01 -1.171297e+01 -1.326045e+01 -1.239274e+01 -9.511244e+00 -6.925674e+00 -4.977394e+00 -3.719037e+00 -2.764265e+00 -2.097852e+00 -1.505160e+00 -1.045948e+00 -6.105447e-01 -2.518506e-01 1.037059e-01 
4.176759e-01 7.885539e-01 1.164496e+00 1.591192e+00 2.052084e+00 2.579723e+00 3.156807e+00 3.814296e+00 4.578731e+00 5.486192e+00 6.675073e+00 7.990574e+00 9.722198e+00 1.111758e+01 1.373862e+01 1.692726e+01 1.997546e+01 1.808273e+01 1.302920e+01 9.291652e+00 5.906168e+00 4.366969e+00 5.115280e+00 7.784170e+00 9.677310e+00 1.058450e+01 1.130215e+01 1.126006e+01 1.122501e+01 1.101090e+01 1.056763e+01 1.025599e+01 9.545998e+00 8.887118e+00 7.916814e+00 6.822330e+00 5.568591e+00 4.124670e+00 2.661941e+00 1.154886e+00 -2.649316e-01 -1.549892e+00 -2.755815e+00 -3.695791e+00 -4.802061e+00 -5.447480e+00 -6.658809e+00 -7.330828e+00 -8.354965e+00 -9.515213e+00 -9.811873e+00 -1.083251e+01 -1.021123e+01 -8.469710e+00 -6.696175e+00 -5.161715e+00 -4.030182e+00 -3.075268e+00 -2.355632e+00 -1.704054e+00 -1.191228e+00 -7.121320e-01 -3.175605e-01 6.859451e-02 
4.170929e-01 7.934314e-01 1.173810e+00 1.607380e+00 2.073598e+00 2.607086e+00 3.181011e+00 3.824740e+00 4.542232e+00 5.371196e+00 6.425675e+00 7.630643e+00 9.341076e+00 1.115616e+01 1.452422e+01 1.927518e+01 2.456706e+01 2.723219e+01 2.114103e+01 8.531038e+00 1.343596e+00 1.197220e+00 3.752602e+00 7.538449e+00 9.878381e+00 1.102514e+01 1.178758e+01 1.177292e+01 1.169898e+01 1.140238e+01 1.090520e+01 1.051857e+01 9.799692e+00 9.143534e+00 8.187945e+00 7.106992e+00 5.852990e+00 4.420084e+00 2.981543e+00 1.522625e+00 1.731181e-01 -1.049152e+00 -2.210680e+00 -3.145582e+00 -4.279091e+00 -4.999010e+00 -6.254220e+00 -6.994205e+00 -8.048295e+00 -9.123285e+00 -9.433301e+00 -1.027348e+01 -9.613030e+00 -8.170846e+00 -6.591029e+00 -5.180261e+00 -4.080556e+00 -3.131411e+00 -2.400743e+00 -1.737154e+00 -1.214885e+00 -7.271104e-01 -3.275305e-01 6.443052e-02 
4.176759e-01 7.885539e-01 1.164496e+00 1.591192e+00 2.052084e+00 2.579723e+00 3.156807e+00 3.814296e+00 4.578731e+00 5.486192e+00 6.675073e+00 7.990574e+00 9.722198e+00 1.111758e+01 1.373862e+01 1.692726e+01 1.997546e+01 1.808273e+01 1.302920e+01 9.291652e+00 5.906168e+00 4.366969e+00 5.115280e+00 7.784170e+00 9.677310e+00 1.058450e+01 1.130215e+01 1.126006e+01 1.122501e+01 1.101090e+01 1.056763e+01 1.025599e+01 9.545998e+00 8.887118e+00 7.916814e+00 6.822330e+00 5.568591e+00 4.124670e+00 2.661941e+00 1.154886e+00 -2.649316e-01 -1.549892e+00 -2.755815e+00 -3.695791e+00 -4.802061e+00 -5.447480e+00 -6.658809e+00 -7.330828e+00 -8.354965e+00 -9.515213e+00 -9.811873e+00 -1.083251e+01 -1.021123e+01 -8.469710e+00 -6.696175e+00 -5.161715e+00 -4.030182e+00 -3.075268e+00 -2.355632e+00 -1.704054e+00 -1.191228e+00 -7.121320e-01 -3.175605e-01 6.859451e-02 