# vtk DataFile Version 2.0
Comment goes here
ASCII

DATASET STRUCTURED_POINTS
DIMENSIONS    64   64   1

ORIGIN    0.000   0.000   0.000
SPACING   0.0781250.078125   1.000

POINT_DATA   4096
SCALARS uX double
LOOKUP_TABLE default

-2.457674e-01 -2.896480e-01 -3.276520e-01 -3.674172e-01 -4.016285e-01 -4.353044e-01 -4.636603e-01 -4.890055e-01 -5.092393e-01 -5.239709e-01 -5.338985e-01 -5.360553e-01 -5.339740e-01 -5.223542e-01 -5.074681e-01 -4.820171e-01 -4.547507e-01 -4.167485e-01 -3.788113e-01 -3.307567e-01 -2.848995e-01 -2.301040e-01 -1.796344e-01 -1.216630e-01 -6.988992e-02 -1.204107e-02 3.816931e-02 9.319564e-02 1.396455e-01 1.898453e-01 2.310144e-01 2.749958e-01 3.099096e-01 3.467237e-01 3.747791e-01 4.037523e-01 4.245743e-01 4.451961e-01 4.585602e-01 4.704434e-01 4.762600e-01 4.791639e-01 4.774994e-01 4.713918e-01 4.624979e-01 4.476273e-01 4.319578e-01 4.089036e-01 3.871071e-01 3.567838e-01 3.296683e-01 2.932649e-01 2.617346e-01 2.205962e-01 1.855714e-01 1.410563e-01 1.034037e-01 5.677137e-02 1.728013e-02 -3.034060e-02 -7.091654e-02 -1.184684e-01 -1.593085e-01 -2.056801e-01 
-2.464222e-01 -2.902260e-01 -3.281247e-01 -3.678625e-01 -4.020165e-01 -4.357169e-01 -4.640567e-01 -4.894630e-01 -5.097007e-01 -5.244964e-01 -5.344143e-01 -5.365920e-01 -5.344496e-01 -5.227622e-01 -5.077349e-01 -4.821014e-01 -4.546072e-01 -4.163142e-01 -3.780849e-01 -3.296724e-01 -2.835047e-01 -2.283476e-01 -1.776047e-01 -1.193335e-01 -6.737317e-02 -9.334683e-03 4.094570e-02 9.602898e-02 1.424224e-01 1.925501e-01 2.335467e-01 2.773505e-01 3.120006e-01 3.485667e-01 3.762994e-01 4.049927e-01 4.254667e-01 4.458108e-01 4.588321e-01 4.704640e-01 4.759668e-01 4.786576e-01 4.767241e-01 4.704423e-01 4.613327e-01 4.463194e-01 4.304903e-01 4.073174e-01 3.854177e-01 3.549973e-01 3.278355e-01 2.913623e-01 2.598441e-01 2.186744e-01 1.837196e-01 1.392210e-01 1.016907e-01 5.512364e-02 1.579315e-02 -3.172481e-02 -7.212179e-02 -1.195545e-01 -1.602206e-01 -2.064822e-01 
-2.480668e-01 -2.927594e-01 -3.316186e-01 -3.723713e-01 -4.076149e-01 -4.424126e-01 -4.719034e-01 -4.983913e-01 -5.197190e-01 -5.354326e-01 -5.462134e-01 -5.489726e-01 -5.472910e-01 -5.356997e-01 -5.206029e-01 -4.945130e-01 -4.663933e-01 -4.271428e-01 -3.878318e-01 -3.381226e-01 -2.906132e-01 -2.340365e-01 -1.819142e-01 -1.222951e-01 -6.909029e-02 -9.892586e-03 4.141567e-02 9.744334e-02 1.446531e-01 1.955487e-01 2.372053e-01 2.816617e-01 3.168781e-01 3.540300e-01 3.822740e-01 4.115037e-01 4.324390e-01 4.532558e-01 4.666658e-01 4.786706e-01 4.844549e-01 4.873759e-01 4.855862e-01 4.793556e-01 4.702354e-01 4.550759e-01 4.390828e-01 4.155722e-01 3.933725e-01 3.624554e-01 3.348887e-01 2.978137e-01 2.658242e-01 2.240079e-01 1.885509e-01 1.434072e-01 1.053615e-01 5.816609e-02 1.829926e-02 -2.984885e-02 -7.083384e-02 -1.189404e-01 -1.602880e-01 -2.073144e-01 
-2.509454e-01 -2.963572e-01 -3.359603e-01 -3.776704e-01 -4.138960e-01 -4.498550e-01 -4.804861e-01 -5.082115e-01 -5.306706e-01 -5.474767e-01 -5.591389e-01 -5.625667e-01 -5.612528e-01 -5.496490e-01 -5.342069e-01 -5.072894e-01 -4.780664e-01 -4.372361e-01 -3.962131e-01 -3.444282e-01 -2.949008e-01 -2.361161e-01 -1.820189e-01 -1.204037e-01 -6.554906e-02 -4.790602e-03 4.769474e-02 1.047770e-01 1.526796e-01 2.041754e-01 2.461225e-01 2.908412e-01 3.260641e-01 3.632676e-01 3.913439e-01 4.205163e-01 4.411867e-01 4.618965e-01 4.749858e-01 4.868491e-01 4.922715e-01 4.949964e-01 4.928042e-01 4.862831e-01 4.767181e-01 4.611351e-01 4.446582e-01 4.205752e-01 3.978683e-01 3.662550e-01 3.381894e-01 3.003620e-01 2.679259e-01 2.253908e-01 1.895778e-01 1.438214e-01 1.055185e-01 5.783668e-02 1.777544e-02 -3.077606e-02 -7.196789e-02 -1.204842e-01 -1.621438e-01 -2.096910e-01 
-2.546169e-01 -3.017276e-01 -3.431651e-01 -3.869213e-01 -4.253368e-01 -4.636129e-01 -4.966523e-01 -5.267504e-01 -5.515598e-01 -5.704389e-01 -5.839927e-01 -5.887532e-01 -5.884282e-01 -5.770167e-01 -5.613205e-01 -5.332566e-01 -5.024554e-01 -4.592581e-01 -4.155839e-01 -3.606323e-01 -3.078895e-01 -2.457102e-01 -1.884085e-01 -1.236815e-01 -6.606955e-02 -2.777160e-03 5.182869e-02 1.108182e-01 1.602416e-01 2.131401e-01 2.561727e-01 3.019709e-01 3.380238e-01 3.761336e-01 4.049053e-01 4.348853e-01 4.561534e-01 4.775671e-01 4.911257e-01 5.035269e-01 5.092293e-01 5.122378e-01 5.100810e-01 5.035068e-01 4.937043e-01 4.776804e-01 4.606986e-01 4.357894e-01 4.123483e-01 3.795912e-01 3.506309e-01 3.114702e-01 2.780689e-01 2.341634e-01 1.973985e-01 1.503533e-01 1.111501e-01 6.229580e-02 2.135367e-02 -2.831317e-02 -7.045997e-02 -1.201575e-01 -1.629687e-01 -2.119021e-01 
-2.592778e-01 -3.078637e-01 -3.508980e-01 -3.966310e-01 -4.371477e-01 -4.778501e-01 -5.133533e-01 -5.460869e-01 -5.733969e-01 -5.946761e-01 -6.102671e-01 -6.166017e-01 -6.172732e-01 -6.060387e-01 -5.898391e-01 -5.602404e-01 -5.273121e-01 -4.809905e-01 -4.338832e-01 -3.747754e-01 -3.179587e-01 -2.513822e-01 -1.901234e-01 -1.214818e-01 -6.061056e-02 5.683664e-03 6.258451e-02 1.235740e-01 1.743578e-01 2.284123e-01 2.720802e-01 3.184539e-01 3.546745e-01 3.930346e-01 4.217170e-01 4.518036e-01 4.728493e-01 4.943121e-01 5.075581e-01 5.199482e-01 5.252400e-01 5.281094e-01 5.254189e-01 5.184773e-01 5.079977e-01 4.912852e-01 4.734805e-01 4.475205e-01 4.231372e-01 3.890173e-01 3.590627e-01 3.183781e-01 2.840339e-01 2.386504e-01 2.010957e-01 1.527894e-01 1.129866e-01 6.313773e-02 2.172167e-02 -2.876494e-02 -7.141114e-02 -1.219422e-01 -1.654665e-01 -2.154638e-01 
-2.642876e-01 -3.153478e-01 -3.611091e-01 -4.099961e-01 -4.539400e-01 -4.983954e-01 -5.378419e-01 -5.745954e-01 -6.059180e-01 -6.308665e-01 -6.498225e-01 -6.586423e-01 -6.611718e-01 -6.504242e-01 -6.338676e-01 -6.023147e-01 -5.666059e-01 -5.160881e-01 -4.642526e-01 -3.995385e-01 -3.370599e-01 -2.646050e-01 -1.978833e-01 -1.240729e-01 -5.874394e-02 1.150593e-02 7.158147e-02 1.353177e-01 1.881624e-01 2.440734e-01 2.890725e-01 3.368032e-01 3.739980e-01 4.135116e-01 4.430379e-01 4.742095e-01 4.960207e-01 5.184823e-01 5.323401e-01 5.455219e-01 5.511485e-01 5.544383e-01 5.517037e-01 5.446559e-01 5.337070e-01 5.162577e-01 4.975697e-01 4.702280e-01 4.446085e-01 4.085712e-01 3.771436e-01 3.342433e-01 2.983578e-01 2.507628e-01 2.117698e-01 1.614973e-01 1.204420e-01 6.893640e-02 2.638896e-02 -2.557473e-02 -6.941996e-02 -1.215004e-01 -1.665334e-01 -2.184303e-01 
-2.698188e-01 -3.230200e-01 -3.712240e-01 -4.231597e-01 -4.704671e-01 -5.188552e-01 -5.624167e-01 -6.036505e-01 -6.393460e-01 -6.685957e-01 -6.913244e-01 -7.031960e-01 -7.078108e-01 -6.977445e-01 -6.806499e-01 -6.467330e-01 -6.075554e-01 -5.518119e-01 -4.941592e-01 -4.224198e-01 -3.530571e-01 -2.732960e-01 -2.000583e-01 -1.199890e-01 -4.952979e-02 2.524750e-02 8.870281e-02 1.552240e-01 2.098855e-01 2.672442e-01 3.129667e-01 3.613324e-01 3.986477e-01 4.384306e-01 4.678249e-01 4.991834e-01 5.207742e-01 5.434456e-01 5.570086e-01 5.703792e-01 5.755736e-01 5.788829e-01 5.755046e-01 5.681067e-01 5.562518e-01 5.378913e-01 5.180160e-01 4.890971e-01 4.620358e-01 4.238216e-01 3.908036e-01 3.454046e-01 3.079819e-01 2.579817e-01 2.177301e-01 1.654995e-01 1.235675e-01 7.065122e-02 2.750154e-02 -2.550964e-02 -6.995851e-02 -1.230796e-01 -1.690538e-01 -2.223767e-01 
-2.749036e-01 -3.312499e-01 -3.830583e-01 -4.393379e-01 -4.914966e-01 -5.454102e-01 -5.949024e-01 -6.424280e-01 -6.845227e-01 -7.198785e-01 -7.483107e-01 -7.646364e-01 -7.726864e-01 -7.638412e-01 -7.464906e-01 -7.096079e-01 -6.659682e-01 -6.033667e-01 -5.378962e-01 -4.569762e-01 -3.783785e-01 -2.892813e-01 -2.075255e-01 -1.197372e-01 -4.285262e-02 3.728750e-02 1.047938e-01 1.745756e-01 2.314499e-01 2.907260e-01 3.376539e-01 3.873605e-01 4.255715e-01 4.666250e-01 4.969647e-01 5.297082e-01 5.523127e-01 5.764034e-01 5.908485e-01 6.054327e-01 6.111222e-01 6.151471e-01 6.116942e-01 6.042442e-01 5.916803e-01 5.723046e-01 5.511103e-01 5.201497e-01 4.912403e-01 4.501054e-01 4.148760e-01 3.660849e-01 3.263810e-01 2.730933e-01 2.308379e-01 1.759006e-01 1.324280e-01 7.749914e-02 3.315464e-02 -2.144508e-02 -6.709607e-02 -1.218573e-01 -1.694730e-01 -2.249849e-01 
-2.797252e-01 -3.386871e-01 -3.937238e-01 -4.541523e-01 -5.111131e-01 -5.708140e-01 -6.265816e-01 -6.811784e-01 -7.303978e-01 -7.730460e-01 -8.080894e-01 -8.300729e-01 -8.422319e-01 -8.352371e-01 -8.176074e-01 -7.773320e-01 -7.282855e-01 -6.572857e-01 -5.823280e-01 -4.899979e-01 -4.002794e-01 -2.996532e-01 -2.078249e-01 -1.107732e-01 -2.654909e-02 5.962880e-02 1.313891e-01 2.043166e-01 2.629826e-01 3.234675e-01 3.707170e-01 4.206758e-01 4.586182e-01 4.996881e-01 5.297011e-01 5.626183e-01 5.850023e-01 6.095188e-01 6.237602e-01 6.388906e-01 6.442090e-01 6.486204e-01 6.444721e-01 6.368881e-01 6.232153e-01 6.028192e-01 5.800567e-01 5.469396e-01 5.159982e-01 4.716135e-01 4.340177e-01 3.813589e-01 3.393166e-01 2.823558e-01 2.382760e-01 1.805839e-01 1.360609e-01 7.948213e-02 3.467542e-02 -2.084967e-02 -6.687717e-02 -1.224969e-01 -1.709778e-01 -2.279497e-01 
-2.827923e-01 -3.453323e-01 -4.047385e-01 -4.707316e-01 -5.341562e-01 -6.016024e-01 -6.659422e-01 -7.301082e-01 -7.893366e-01 -8.420491e-01 -8.867490e-01 -9.167552e-01 -9.353445e-01 -9.312299e-01 -9.139170e-01 -8.693214e-01 -8.132375e-01 -7.311166e-01 -6.432968e-01 -5.360449e-01 -4.314012e-01 -3.162405e-01 -2.115095e-01 -1.035060e-01 -1.066911e-02 8.196251e-02 1.580583e-01 2.339556e-01 2.941250e-01 3.558051e-01 4.034350e-01 4.542223e-01 4.926415e-01 5.349382e-01 5.660070e-01 6.007178e-01 6.245915e-01 6.512140e-01 6.668884e-01 6.839707e-01 6.901491e-01 6.958616e-01 6.916928e-01 6.843258e-01 6.697002e-01 6.480970e-01 6.235256e-01 5.875936e-01 5.540682e-01 5.054017e-01 4.646161e-01 4.068652e-01 3.614989e-01 2.997277e-01 2.529052e-01 1.916485e-01 1.453977e-01 8.669864e-02 4.096431e-02 -1.580456e-02 -6.261975e-02 -1.194834e-01 -1.693490e-01 -2.283959e-01 
-2.843676e-01 -3.496323e-01 -4.128692e-01 -4.840402e-01 -5.538601e-01 -6.293841e-01 -7.028948e-01 -7.779236e-01 -8.485413e-01 -9.135341e-01 -9.697808e-01 -1.010276e+00 -1.036875e+00 -1.037146e+00 -1.020448e+00 -9.710727e-01 -9.064839e-01 -8.107125e-01 -7.072355e-01 -5.812826e-01 -4.586282e-01 -3.253986e-01 -2.054586e-01 -8.435874e-02 1.823270e-02 1.179305e-01 1.983986e-01 2.767378e-01 3.376081e-01 3.992381e-01 4.459029e-01 4.958606e-01 5.331327e-01 5.748552e-01 6.053010e-01 6.401427e-01 6.639499e-01 6.914086e-01 7.072150e-01 7.255373e-01 7.316167e-01 7.384946e-01 7.337183e-01 7.268497e-01 7.110111e-01 6.885878e-01 6.621416e-01 6.235186e-01 5.873474e-01 5.340070e-01 4.898494e-01 4.261778e-01 3.772916e-01 3.099241e-01 2.604758e-01 1.954633e-01 1.481274e-01 8.785972e-02 4.224576e-02 -1.471977e-02 -6.114825e-02 -1.180464e-01 -1.682148e-01 -2.282130e-01 
-2.821588e-01 -3.509818e-01 -4.190565e-01 -4.969015e-01 -5.749168e-01 -6.609631e-01 -7.466309e-01 -8.361701e-01 -9.225603e-01 -1.004454e+00 -1.077445e+00 -1.132759e+00 -1.171650e+00 -1.178358e+00 -1.163541e+00 -1.107809e+00 -1.031813e+00 -9.174537e-01 -7.921845e-01 -6.413495e-01 -4.940586e-01 -3.380536e-01 -1.987938e-01 -6.288532e-02 5.016990e-02 1.560736e-01 2.394259e-01 3.184975e-01 3.782910e-01 4.388994e-01 4.838869e-01 5.334423e-01 5.703808e-01 6.132385e-01 6.451328e-01 6.825744e-01 7.089826e-01 7.398410e-01 7.582838e-01 7.799234e-01 7.876623e-01 7.969828e-01 7.924141e-01 7.864957e-01 7.695156e-01 7.460253e-01 7.173746e-01 6.752365e-01 6.358336e-01 5.764934e-01 5.280151e-01 4.567651e-01 4.030443e-01 3.285341e-01 2.752163e-01 2.055299e-01 1.563728e-01 9.429327e-02 4.853070e-02 -8.581415e-03 -5.473865e-02 -1.117168e-01 -1.624144e-01 -2.237289e-01 
-2.766500e-01 -3.476964e-01 -4.198245e-01 -5.036213e-01 -5.897203e-01 -6.867063e-01 -7.856151e-01 -8.919319e-01 -9.968534e-01 -1.099985e+00 -1.193728e+00 -1.268955e+00 -1.323575e+00 -1.339929e+00 -1.327820e+00 -1.265039e+00 -1.174922e+00 -1.037416e+00 -8.852613e-01 -7.026871e-01 -5.254733e-01 -3.408435e-01 -1.790814e-01 -2.580258e-02 9.867185e-02 2.105910e-01 2.961257e-01 3.743210e-01 4.313922e-01 4.888082e-01 5.300375e-01 5.767466e-01 6.111451e-01 6.526397e-01 6.838668e-01 7.216959e-01 7.488519e-01 7.815553e-01 8.011857e-01 8.255198e-01 8.339858e-01 8.461153e-01 8.413980e-01 8.375433e-01 8.196048e-01 7.963895e-01 7.660711e-01 7.213139e-01 6.792016e-01 6.137169e-01 5.610160e-01 4.809187e-01 4.220165e-01 3.388130e-01 2.815102e-01 2.065813e-01 1.563451e-01 9.323528e-02 4.876911e-02 -6.886996e-03 -5.114870e-02 -1.064002e-01 -1.561625e-01 -2.171243e-01 
-2.644064e-01 -3.382677e-01 -4.151516e-01 -5.064141e-01 -6.024979e-01 -7.136235e-01 -8.299367e-01 -9.588974e-01 -1.089702e+00 -1.222606e+00 -1.346758e+00 -1.450438e+00 -1.529048e+00 -1.559098e+00 -1.552270e+00 -1.479395e+00 -1.369572e+00 -1.199332e+00 -1.008500e+00 -7.826374e-01 -5.632409e-01 -3.424049e-01 -1.523430e-01 1.905631e-02 1.532919e-01 2.667896e-01 3.490396e-01 4.211303e-01 4.705895e-01 5.220893e-01 5.576111e-01 6.019688e-01 6.351547e-01 6.782500e-01 7.124987e-01 7.549793e-01 7.875525e-01 8.264146e-01 8.514718e-01 8.818448e-01 8.938036e-01 9.106914e-01 9.068736e-01 9.058148e-01 8.868990e-01 8.639132e-01 8.318237e-01 7.839481e-01 7.393014e-01 6.666833e-01 6.095468e-01 5.188862e-01 4.533775e-01 3.594001e-01 2.961885e-01 2.147499e-01 1.623023e-01 9.808196e-02 5.473343e-02 1.001841e-03 -4.116310e-02 -9.432972e-02 -1.430108e-01 -2.036539e-01 
-2.464052e-01 -3.211409e-01 -4.017277e-01 -4.992953e-01 -6.053556e-01 -7.313852e-01 -8.674703e-01 -1.023596e+00 -1.186384e+00 -1.358158e+00 -1.521543e+00 -1.664317e+00 -1.773967e+00 -1.823931e+00 -1.823817e+00 -1.739119e+00 -1.603907e+00 -1.392492e+00 -1.153347e+00 -8.711155e-01 -6.001055e-01 -3.331677e-01 -1.113476e-01 7.977692e-02 2.230947e-01 3.350135e-01 4.111216e-01 4.730154e-01 5.115087e-01 5.535439e-01 5.802471e-01 6.189765e-01 6.482353e-01 6.897666e-01 7.247323e-01 7.691752e-01 8.053303e-01 8.486953e-01 8.779292e-01 9.142089e-01 9.291579e-01 9.523824e-01 9.498575e-01 9.545674e-01 9.360458e-01 9.169096e-01 8.853508e-01 8.376187e-01 7.931999e-01 7.151187e-01 6.555676e-01 5.533704e-01 4.813721e-01 3.738232e-01 3.038976e-01 2.142452e-01 1.598206e-01 9.513065e-02 5.442375e-02 4.718973e-03 -3.341297e-02 -8.205837e-02 -1.278777e-01 -1.859181e-01 
-2.177447e-01 -2.936113e-01 -3.781188e-01 -4.835040e-01 -6.016406e-01 -7.472066e-01 -9.096073e-01 -1.103399e+00 -1.311724e+00 -1.539330e+00 -1.760725e+00 -1.959742e+00 -2.115982e+00 -2.193012e+00 -2.204569e+00 -2.102091e+00 -1.930990e+00 -1.659857e+00 -1.349799e+00 -9.890287e-01 -6.422548e-01 -3.165525e-01 -5.521620e-02 1.530128e-01 2.969454e-01 3.941287e-01 4.496344e-01 4.887820e-01 5.056040e-01 5.328293e-01 5.472285e-01 5.818627e-01 6.103205e-01 6.561519e-01 6.990681e-01 7.533659e-01 8.017852e-01 8.573455e-01 8.983849e-01 9.462240e-01 9.687955e-01 1.001421e+00 1.001451e+00 1.013159e+00 9.946617e-01 9.800557e-01 9.498678e-01 9.035665e-01 8.628557e-01 7.812414e-01 7.233054e-01 6.101708e-01 5.317753e-01 4.083570e-01 3.282121e-01 2.276917e-01 1.682072e-01 1.020967e-01 6.294407e-02 1.755906e-02 -1.646717e-02 -6.011023e-02 -1.026697e-01 -1.578703e-01 
-1.803477e-01 -2.548039e-01 -3.420261e-01 -4.536651e-01 -5.844525e-01 -7.513494e-01 -9.454653e-01 -1.186187e+00 -1.453365e+00 -1.755392e+00 -2.052954e+00 -2.328648e+00 -2.543098e+00 -2.656812e+00 -2.681566e+00 -2.557066e+00 -2.339494e+00 -1.996335e+00 -1.599056e+00 -1.134074e+00 -6.928052e-01 -2.892781e-01 1.376353e-02 2.365248e-01 3.769860e-01 4.496423e-01 4.780408e-01 4.864660e-01 4.758266e-01 4.835795e-01 4.814178e-01 5.081494e-01 5.328301e-01 5.791263e-01 6.278756e-01 6.887879e-01 7.480473e-01 8.140792e-01 8.662360e-01 9.263292e-01 9.568080e-01 1.002418e+00 1.006498e+00 1.031191e+00 1.015730e+00 1.013059e+00 9.895181e-01 9.527163e-01 9.238121e-01 8.459289e-01 7.982449e-01 6.766995e-01 5.953206e-01 4.517860e-01 3.589600e-01 2.426551e-01 1.754099e-01 1.064925e-01 6.870555e-02 2.922392e-02 6.132761e-04 -3.542908e-02 -7.307316e-02 -1.227135e-01 
-1.277052e-01 -2.005521e-01 -2.899421e-01 -4.091524e-01 -5.548193e-01 -7.496871e-01 -9.857061e-01 -1.291475e+00 -1.641265e+00 -2.049141e+00 -2.455854e+00 -2.837987e+00 -3.133276e+00 -3.290215e+00 -3.337254e+00 -3.182995e+00 -2.905030e+00 -2.459384e+00 -1.936150e+00 -1.323902e+00 -7.341372e-01 -2.268572e-01 1.310367e-01 3.614955e-01 4.764518e-01 4.947107e-01 4.655699e-01 4.186481e-01 3.616316e-01 3.426374e-01 3.194333e-01 3.431274e-01 3.711377e-01 4.286701e-01 4.964186e-01 5.774511e-01 6.625128e-01 7.516838e-01 8.276568e-01 9.082063e-01 9.530756e-01 1.014571e+00 1.021714e+00 1.058881e+00 1.041676e+00 1.049783e+00 1.031774e+00 1.006335e+00 9.976539e-01 9.310632e-01 9.088209e-01 7.876126e-01 7.097652e-01 5.457002e-01 4.336530e-01 2.952643e-01 2.110844e-01 1.341554e-01 9.261842e-02 5.693156e-02 3.218069e-02 3.295930e-03 -2.928653e-02 -7.316620e-02 
-6.326242e-02 -1.313799e-01 -2.215164e-01 -3.459771e-01 -5.075243e-01 -7.326134e-01 -1.019319e+00 -1.404223e+00 -1.858877e+00 -2.401875e+00 -2.944781e+00 -3.460000e+00 -3.838390e+00 -4.040592e+00 -4.109496e+00 -3.920321e+00 -3.572620e+00 -3.025803e+00 -2.359505e+00 -1.545862e+00 -7.583764e-01 -9.708611e-02 3.162025e-01 5.437479e-01 6.314819e-01 5.794569e-01 4.883927e-01 3.790602e-01 2.705992e-01 2.231715e-01 1.737116e-01 1.898717e-01 2.167274e-01 2.784460e-01 3.613301e-01 4.555939e-01 5.631486e-01 6.704148e-01 7.674009e-01 8.668266e-01 9.240916e-01 1.004312e+00 1.013112e+00 1.068370e+00 1.048075e+00 1.072698e+00 1.060550e+00 1.052729e+00 1.071735e+00 1.025872e+00 1.045735e+00 9.334476e-01 8.714719e-01 6.821742e-01 5.472268e-01 3.771444e-01 2.665818e-01 1.750821e-01 1.242562e-01 9.117386e-02 6.898808e-02 4.889325e-02 2.207272e-02 -1.333855e-02 
2.075881e-02 -4.132627e-02 -1.297448e-01 -2.587151e-01 -4.358093e-01 -6.960130e-01 -1.042475e+00 -1.527339e+00 -2.115418e+00 -2.835789e+00 -3.553692e+00 -4.231387e+00 -4.690509e+00 -4.908416e+00 -5.017997e+00 -4.812165e+00 -4.402175e+00 -3.719684e+00 -2.860675e+00 -1.761196e+00 -6.362484e-01 2.423372e-01 7.401177e-01 9.637896e-01 9.812712e-01 8.061719e-01 6.083938e-01 4.036179e-01 2.247662e-01 1.504097e-01 7.347296e-02 9.546524e-02 1.347280e-01 2.155126e-01 3.320817e-01 4.569667e-01 6.066181e-01 7.471165e-01 8.804229e-01 1.003364e+00 1.075300e+00 1.166976e+00 1.161620e+00 1.219850e+00 1.167992e+00 1.188311e+00 1.155581e+00 1.144206e+00 1.182948e+00 1.149439e+00 1.230896e+00 1.142660e+00 1.112970e+00 9.054464e-01 7.400913e-01 5.316645e-01 3.778073e-01 2.602847e-01 1.884785e-01 1.510648e-01 1.268335e-01 1.129255e-01 9.137428e-02 6.438600e-02 
1.189022e-01 6.713096e-02 -1.647520e-02 -1.441639e-01 -3.336571e-01 -6.235750e-01 -1.031308e+00 -1.618758e+00 -2.355282e+00 -3.270970e+00 -4.175340e+00 -5.008435e+00 -5.460730e+00 -5.629840e+00 -5.790128e+00 -5.597472e+00 -5.150354e+00 -4.422260e+00 -3.392655e+00 -1.893286e+00 -2.955902e-01 9.245470e-01 1.471668e+00 1.641004e+00 1.615259e+00 1.322669e+00 1.057671e+00 7.885171e-01 5.608741e-01 4.840661e-01 3.801386e-01 4.051268e-01 4.492208e-01 5.323538e-01 6.711211e-01 8.072105e-01 9.856270e-01 1.140073e+00 1.294661e+00 1.425216e+00 1.496183e+00 1.590040e+00 1.552995e+00 1.606815e+00 1.498941e+00 1.497575e+00 1.407141e+00 1.358480e+00 1.377426e+00 1.315719e+00 1.442266e+00 1.368077e+00 1.385722e+00 1.153598e+00 9.641530e-01 7.193447e-01 5.150122e-01 3.677757e-01 2.671178e-01 2.234504e-01 1.937635e-01 1.868358e-01 1.703643e-01 1.544532e-01 
2.387450e-01 2.016110e-01 1.303199e-01 1.258933e-02 -1.767178e-01 -4.829774e-01 -9.359338e-01 -1.616708e+00 -2.497921e+00 -3.627487e+00 -4.728164e+00 -5.708004e+00 -6.006555e+00 -5.913078e+00 -6.228168e+00 -6.295678e+00 -5.905037e+00 -5.066223e+00 -3.846758e+00 -1.843132e+00 5.294800e-01 2.137393e+00 2.739965e+00 2.872623e+00 2.684140e+00 2.180729e+00 1.819165e+00 1.476021e+00 1.234220e+00 1.212716e+00 1.106756e+00 1.180795e+00 1.266553e+00 1.375958e+00 1.566353e+00 1.739817e+00 1.975409e+00 2.166251e+00 2.365096e+00 2.499650e+00 2.565548e+00 2.630706e+00 2.516528e+00 2.522471e+00 2.282942e+00 2.198686e+00 1.963440e+00 1.784278e+00 1.701422e+00 1.492686e+00 1.623759e+00 1.554375e+00 1.623629e+00 1.393732e+00 1.188791e+00 9.347000e-01 6.804481e-01 5.048982e-01 3.712881e-01 3.169505e-01 2.795147e-01 2.770687e-01 2.664296e-01 2.623945e-01 
3.726036e-01 3.567238e-01 3.056192e-01 2.124137e-01 4.167664e-02 -2.481316e-01 -7.087116e-01 -1.424249e+00 -2.404338e+00 -3.691785e+00 -4.967640e+00 -6.037440e+00 -5.919567e+00 -5.305076e+00 -5.953151e+00 -6.518004e+00 -6.225401e+00 -5.593683e+00 -4.303233e+00 -1.646583e+00 1.697842e+00 3.810880e+00 4.261629e+00 4.107738e+00 3.795699e+00 3.138768e+00 2.772655e+00 2.440494e+00 2.252791e+00 2.340508e+00 2.242557e+00 2.365156e+00 2.485679e+00 2.605861e+00 2.840444e+00 3.036874e+00 3.326860e+00 3.536953e+00 3.772078e+00 3.894790e+00 3.942729e+00 3.970017e+00 3.767856e+00 3.720312e+00 3.342533e+00 3.157915e+00 2.735652e+00 2.351732e+00 2.068144e+00 1.529171e+00 1.481725e+00 1.385286e+00 1.546685e+00 1.370206e+00 1.214175e+00 1.033720e+00 7.707959e-01 6.066478e-01 4.563942e-01 4.055860e-01 3.650067e-01 3.719646e-01 3.692132e-01 3.808732e-01 
5.242386e-01 5.383866e-01 5.221653e-01 4.755257e-01 3.589573e-01 1.406201e-01 -2.451359e-01 -8.837608e-01 -1.835046e+00 -3.189356e+00 -4.658716e+00 -6.077496e+00 -5.746412e+00 -3.882834e+00 -4.991952e+00 -7.047805e+00 -7.185760e+00 -6.189959e+00 -4.481812e+00 -1.323342e+00 3.305007e+00 5.491305e+00 6.422807e+00 6.595352e+00 5.549296e+00 4.292817e+00 3.584302e+00 2.949040e+00 2.739927e+00 2.833972e+00 2.653508e+00 2.797859e+00 2.910553e+00 2.999434e+00 3.227653e+00 3.454092e+00 3.795068e+00 4.063659e+00 4.374957e+00 4.468553e+00 4.526904e+00 4.413563e+00 4.116299e+00 3.918374e+00 3.408299e+00 3.103478e+00 2.551503e+00 1.941271e+00 1.490366e+00 4.789731e-01 -2.482419e-02 7.786248e-02 6.256095e-01 9.807504e-01 9.501699e-01 9.570639e-01 7.499312e-01 6.415441e-01 5.097935e-01 4.775317e-01 4.470531e-01 4.675208e-01 4.787972e-01 5.099311e-01 
6.843150e-01 7.355138e-01 7.654716e-01 7.853223e-01 7.564066e-01 6.707912e-01 4.568719e-01 6.553994e-02 -6.417452e-01 -1.746654e+00 -3.326873e+00 -5.133537e+00 -6.198427e+00 -4.489631e+00 -5.005390e+00 -7.632676e+00 -8.171044e+00 -6.800320e+00 -4.292981e+00 -5.519085e-01 5.041761e+00 7.027086e+00 9.764370e+00 1.118748e+01 9.499445e+00 8.073697e+00 6.773377e+00 5.464350e+00 4.690621e+00 3.992459e+00 3.256303e+00 2.772431e+00 2.309281e+00 1.923052e+00 1.576204e+00 1.424677e+00 1.277514e+00 1.232842e+00 1.225755e+00 1.000317e+00 9.725045e-01 5.342794e-01 3.876788e-01 -3.045539e-02 -2.512287e-01 -5.651828e-01 -7.623003e-01 -1.130074e+00 -1.339251e+00 -1.819395e+00 -2.288248e+00 -1.704958e+00 -1.222428e+00 1.541179e-01 3.050450e-01 6.309001e-01 5.450067e-01 5.661003e-01 4.978327e-01 5.155502e-01 5.122371e-01 5.562058e-01 5.873973e-01 6.425107e-01 
8.476597e-01 9.442398e-01 1.033574e+00 1.141433e+00 1.236743e+00 1.349709e+00 1.423675e+00 1.495201e+00 1.399593e+00 1.187993e+00 3.739815e-01 -6.756360e-01 -3.149658e+00 -4.720101e+00 -4.383600e+00 -5.161887e+00 -5.460010e+00 -4.220956e+00 -1.557444e+00 2.406175e+00 6.694253e+00 9.099322e+00 1.084099e+01 1.121597e+01 1.038794e+01 9.857972e+00 8.931826e+00 7.889984e+00 6.898915e+00 5.544333e+00 4.604131e+00 3.433267e+00 2.399628e+00 1.523470e+00 5.384620e-01 -2.156201e-01 -1.081004e+00 -1.732439e+00 -2.356179e+00 -2.884977e+00 -3.102144e+00 -3.494246e+00 -3.283584e+00 -3.521077e+00 -3.110500e+00 -3.138798e+00 -2.716903e+00 -2.408338e+00 -2.163457e+00 -1.341648e+00 -1.095166e+00 -7.089000e-01 -1.235866e+00 -2.492757e-01 -8.869555e-02 2.425008e-01 2.858216e-01 4.083256e-01 4.374114e-01 5.133458e-01 5.546081e-01 6.280794e-01 6.873954e-01 7.713604e-01 
1.006652e+00 1.148248e+00 1.299403e+00 1.496031e+00 1.722847e+00 2.038001e+00 2.425444e+00 2.982304e+00 3.626126e+00 4.475358e+00 5.083581e+00 5.559905e+00 4.140261e+00 1.069233e+00 6.714600e-01 9.797848e-01 -1.546793e-01 8.654822e-01 3.634382e+00 4.726656e+00 5.077984e+00 7.067790e+00 6.393226e+00 4.703943e+00 4.448077e+00 4.237824e+00 4.001791e+00 3.888019e+00 3.586218e+00 2.946555e+00 2.743257e+00 2.138537e+00 1.628955e+00 1.156827e+00 5.772750e-01 -7.106909e-03 -6.499424e-01 -1.238273e+00 -1.793930e+00 -2.126121e+00 -2.354435e+00 -2.419965e+00 -2.238563e+00 -2.210620e+00 -1.799416e+00 -1.655755e+00 -1.220920e+00 -7.242738e-01 -3.856676e-01 5.995886e-01 1.054807e+00 9.584446e-01 1.659565e-01 -1.633019e-01 -1.862523e-01 -7.742203e-02 6.644023e-02 2.486759e-01 3.755808e-01 5.027983e-01 5.914920e-01 6.933978e-01 7.825266e-01 8.947297e-01 
1.145822e+00 1.331565e+00 1.540494e+00 1.817463e+00 2.157350e+00 2.637421e+00 3.268437e+00 4.177773e+00 5.349818e+00 6.905073e+00 8.563238e+00 1.014229e+01 1.059157e+01 9.108293e+00 8.583323e+00 9.253762e+00 7.484762e+00 5.786392e+00 5.865897e+00 2.734885e+00 -1.344647e+00 -1.646198e+00 -2.127041e+00 -3.058852e+00 -2.805534e+00 -2.420024e+00 -2.113406e+00 -1.619510e+00 -1.338758e+00 -1.187491e+00 -8.881613e-01 -8.290859e-01 -7.757390e-01 -8.119997e-01 -9.003147e-01 -1.113022e+00 -1.332754e+00 -1.610077e+00 -1.861321e+00 -1.996939e+00 -2.145864e+00 -2.119732e+00 -2.080637e+00 -1.997408e+00 -1.787242e+00 -1.611273e+00 -1.345986e+00 -9.670566e-01 -7.258937e-01 -2.057433e-01 -6.674610e-02 -8.313923e-02 -2.217462e-01 -7.105989e-01 -6.681056e-01 -5.079884e-01 -2.168771e-01 6.145067e-02 2.846365e-01 4.664649e-01 6.027809e-01 7.357086e-01 8.561907e-01 9.982674e-01 
1.266477e+00 1.486889e+00 1.742844e+00 2.079835e+00 2.503467e+00 3.092289e+00 3.877698e+00 4.979984e+00 6.429729e+00 8.304889e+00 1.045492e+01 1.254876e+01 1.403112e+01 1.397853e+01 1.437382e+01 1.530346e+01 1.470641e+01 1.105252e+01 6.449928e+00 1.368273e+00 -4.602540e+00 -7.817430e+00 -8.684849e+00 -8.460910e+00 -7.478357e+00 -6.478703e+00 -5.725793e+00 -4.991830e+00 -4.478519e+00 -4.081815e+00 -3.679702e+00 -3.454418e+00 -3.251862e+00 -3.169678e+00 -3.119802e+00 -3.180055e+00 -3.253681e+00 -3.372333e+00 -3.486864e+00 -3.529170e+00 -3.586165e+00 -3.513407e+00 -3.436660e+00 -3.291561e+00 -3.077898e+00 -2.849281e+00 -2.596716e+00 -2.262887e+00 -2.061247e+00 -1.718432e+00 -1.634910e+00 -1.502634e+00 -1.279930e+00 -1.385753e+00 -1.108063e+00 -8.063167e-01 -3.848992e-01 -4.513959e-02 2.421899e-01 4.537990e-01 6.243624e-01 7.777156e-01 9.239258e-01 1.088832e+00 
1.350333e+00 1.598349e+00 1.888098e+00 2.266591e+00 2.742121e+00 3.391000e+00 4.250334e+00 5.423559e+00 6.961397e+00 8.897665e+00 1.117438e+01 1.342614e+01 1.538730e+01 1.621986e+01 1.718246e+01 1.809771e+01 1.832638e+01 1.556632e+01 9.789682e+00 3.921334e+00 -2.516585e+00 -7.668350e+00 -1.015832e+01 -1.049080e+01 -9.676537e+00 -8.725215e+00 -7.835258e+00 -7.022906e+00 -6.395113e+00 -5.889423e+00 -5.440820e+00 -5.141743e+00 -4.876193e+00 -4.729909e+00 -4.608909e+00 -4.582499e+00 -4.568088e+00 -4.588145e+00 -4.610563e+00 -4.580369e+00 -4.563323e+00 -4.446312e+00 -4.335839e+00 -4.150785e+00 -3.945726e+00 -3.698222e+00 -3.466973e+00 -3.169218e+00 -2.979715e+00 -2.699930e+00 -2.536791e+00 -2.330805e+00 -1.983895e+00 -1.832402e+00 -1.386559e+00 -9.787612e-01 -4.882012e-01 -1.158237e-01 2.029460e-01 4.333793e-01 6.263837e-01 7.974892e-01 9.640123e-01 1.149114e+00 
1.408152e+00 1.671051e+00 1.980911e+00 2.381386e+00 2.884693e+00 3.559905e+00 4.447544e+00 5.632380e+00 7.172922e+00 9.071146e+00 1.131725e+01 1.355672e+01 1.568614e+01 1.699137e+01 1.829645e+01 1.939597e+01 1.988820e+01 1.820941e+01 1.339351e+01 7.297913e+00 2.655115e-01 -5.833554e+00 -9.582612e+00 -1.083241e+01 -1.045910e+01 -9.558575e+00 -8.623218e+00 -7.758322e+00 -7.081368e+00 -6.541214e+00 -6.089424e+00 -5.780342e+00 -5.513470e+00 -5.361488e+00 -5.235354e+00 -5.191361e+00 -5.161105e+00 -5.155650e+00 -5.153932e+00 -5.105237e+00 -5.059858e+00 -4.929203e+00 -4.792935e+00 -4.588460e+00 -4.369035e+00 -4.107616e+00 -3.873309e+00 -3.587574e+00 -3.399278e+00 -3.142251e+00 -2.956083e+00 -2.706945e+00 -2.302701e+00 -2.003691e+00 -1.471648e+00 -1.013482e+00 -4.985853e-01 -1.233426e-01 2.048966e-01 4.376804e-01 6.414628e-01 8.192276e-01 9.975702e-01 1.192621e+00 
1.422108e+00 1.691486e+00 2.007845e+00 2.416133e+00 2.927267e+00 3.609443e+00 4.502194e+00 5.683814e+00 7.215098e+00 9.083996e+00 1.130166e+01 1.350945e+01 1.567035e+01 1.708053e+01 1.848510e+01 1.958458e+01 2.024065e+01 1.905879e+01 1.463011e+01 8.725605e+00 1.578539e+00 -4.926204e+00 -9.214191e+00 -1.082146e+01 -1.063204e+01 -9.824612e+00 -8.892822e+00 -8.036197e+00 -7.338963e+00 -6.782547e+00 -6.314096e+00 -5.985120e+00 -5.699094e+00 -5.526924e+00 -5.379956e+00 -5.314181e+00 -5.261683e+00 -5.234515e+00 -5.212628e+00 -5.147823e+00 -5.089894e+00 -4.950700e+00 -4.814604e+00 -4.607288e+00 -4.399498e+00 -4.142545e+00 -3.920848e+00 -3.648196e+00 -3.462923e+00 -3.219719e+00 -3.017518e+00 -2.769367e+00 -2.361232e+00 -2.035563e+00 -1.488330e+00 -1.023672e+00 -5.086656e-01 -1.347485e-01 1.937271e-01 4.288467e-01 6.358942e-01 8.183130e-01 1.000987e+00 1.201497e+00 
1.408152e+00 1.671051e+00 1.980911e+00 2.381386e+00 2.884693e+00 3.559905e+00 4.447544e+00 5.632380e+00 7.172922e+00 9.071146e+00 1.131725e+01 1.355672e+01 1.568614e+01 1.699137e+01 1.829645e+01 1.939597e+01 1.988820e+01 1.820941e+01 1.339351e+01 7.297913e+00 2.655115e-01 -5.833554e+00 -9.582612e+00 -1.083241e+01 -1.045910e+01 -9.558575e+00 -8.623218e+00 -7.758322e+00 -7.081368e+00 -6.541214e+00 -6.089424e+00 -5.780342e+00 -5.513470e+00 -5.361488e+00 -5.235354e+00 -5.191361e+00 -5.161105e+00 -5.155650e+00 -5.153932e+00 -5.105237e+00 -5.059858e+00 -4.929203e+00 -4.792935e+00 -4.588460e+00 -4.369035e+00 -4.107616e+00 -3.873309e+00 -3.587574e+00 -3.399278e+00 -3.142251e+00 -2.956083e+00 -2.706945e+00 -2.302701e+00 -2.003691e+00 -1.471648e+00 -1.013482e+00 -4.985853e-01 -1.233426e-01 2.048966e-01 4.376804e-01 6.414628e-01 8.192276e-01 9.975702e-01 1.192621e+00 