# vtk DataFile Version 2.0
Comment goes here
ASCII

DATASET STRUCTURED_POINTS
DIMENSIONS    64   64   1

ORIGIN    0.000   0.000   0.000
SPACING   0.0781250.078125   1.000

POINT_DATA   4096
SCALARS uX double
LOOKUP_TABLE default

-3.713737e-01 -4.018367e-01 -4.338826e-01 -4.606313e-01 -4.871911e-01 -5.072450e-01 -5.248279e-01 -5.348082e-01 -5.396677e-01 -5.362381e-01 -5.249612e-01 -5.054759e-01 -4.757699e-01 -4.390278e-01 -3.905426e-01 -3.374450e-01 -2.723653e-01 -2.062195e-01 -1.293418e-01 -5.562087e-02 2.622419e-02 1.006771e-01 1.797528e-01 2.478856e-01 3.169144e-01 3.726728e-01 4.260522e-01 4.653199e-01 4.998855e-01 5.209596e-01 5.361745e-01 5.397373e-01 5.373679e-01 5.260405e-01 5.094905e-01 4.871211e-01 4.606195e-01 4.314765e-01 3.992867e-01 3.673122e-01 3.330853e-01 3.013256e-01 2.676760e-01 2.379700e-01 2.063097e-01 1.792608e-01 1.498824e-01 1.250858e-01 9.744219e-02 7.388116e-02 4.696787e-02 2.344522e-02 -3.826131e-03 -2.834841e-02 -5.687901e-02 -8.309842e-02 -1.134597e-01 -1.416814e-01 -1.740548e-01 -2.041834e-01 -2.383098e-01 -2.698125e-01 -3.049077e-01 -3.367293e-01 
-3.707955e-01 -4.021033e-01 -4.350423e-01 -4.627295e-01 -4.902847e-01 -5.113471e-01 -5.299904e-01 -5.409978e-01 -5.469108e-01 -5.444464e-01 -5.341117e-01 -5.154281e-01 -4.864319e-01 -4.502267e-01 -4.021115e-01 -3.492114e-01 -2.840999e-01 -2.177856e-01 -1.404772e-01 -6.624723e-02 1.636409e-02 9.160091e-02 1.716796e-01 2.407850e-01 3.109493e-01 3.677802e-01 4.223398e-01 4.626998e-01 4.984260e-01 5.205464e-01 5.368566e-01 5.413708e-01 5.399959e-01 5.294939e-01 5.138075e-01 4.921232e-01 4.663301e-01 4.377331e-01 4.060813e-01 3.745255e-01 3.406622e-01 3.092116e-01 2.757588e-01 2.462678e-01 2.146531e-01 1.877312e-01 1.582663e-01 1.335030e-01 1.056593e-01 8.202515e-02 5.481573e-02 3.110442e-02 3.458157e-03 -2.136642e-02 -5.033434e-02 -7.695780e-02 -1.078078e-01 -1.365216e-01 -1.694345e-01 -2.001362e-01 -2.348639e-01 -2.670228e-01 -3.028001e-01 -3.353688e-01 
-3.734059e-01 -4.050526e-01 -4.385499e-01 -4.667983e-01 -4.951148e-01 -5.168711e-01 -5.363411e-01 -5.480039e-01 -5.545836e-01 -5.524903e-01 -5.423708e-01 -5.234959e-01 -4.939714e-01 -4.567847e-01 -4.072108e-01 -3.524636e-01 -2.849888e-01 -2.161112e-01 -1.358235e-01 -5.868867e-02 2.701569e-02 1.049840e-01 1.876867e-01 2.588340e-01 3.306519e-01 3.884566e-01 4.434081e-01 4.835187e-01 5.183471e-01 5.390764e-01 5.534078e-01 5.556618e-01 5.515950e-01 5.383497e-01 5.196930e-01 4.951982e-01 4.665747e-01 4.354711e-01 4.014663e-01 3.679792e-01 3.324558e-01 2.997876e-01 2.654432e-01 2.354472e-01 2.036526e-01 1.768187e-01 1.477272e-01 1.234531e-01 9.632613e-02 7.337815e-02 4.702332e-02 2.403301e-02 -2.775581e-03 -2.693873e-02 -5.517502e-02 -8.123537e-02 -1.115012e-01 -1.397675e-01 -1.722688e-01 -2.026633e-01 -2.371820e-01 -2.692134e-01 -3.050203e-01 -3.376835e-01 
-3.746536e-01 -4.083358e-01 -4.441896e-01 -4.749041e-01 -5.060144e-01 -5.305378e-01 -5.530324e-01 -5.674907e-01 -5.769529e-01 -5.772662e-01 -5.693694e-01 -5.520097e-01 -5.234845e-01 -4.864641e-01 -4.362321e-01 -3.800580e-01 -3.101520e-01 -2.383477e-01 -1.541562e-01 -7.303334e-02 1.739369e-02 9.974476e-02 1.871782e-01 2.623972e-01 3.382231e-01 3.992223e-01 4.569864e-01 4.990945e-01 5.353892e-01 5.568672e-01 5.714449e-01 5.733727e-01 5.686338e-01 5.543118e-01 5.344386e-01 5.085056e-01 4.784870e-01 4.459598e-01 4.106853e-01 3.760901e-01 3.396298e-01 3.063502e-01 2.714956e-01 2.414222e-01 2.095240e-01 1.830424e-01 1.541379e-01 1.304373e-01 1.036152e-01 8.122208e-02 5.511787e-02 3.247458e-02 5.741964e-03 -1.837269e-02 -4.676055e-02 -7.307823e-02 -1.037376e-01 -1.325486e-01 -1.657075e-01 -1.969407e-01 -2.324361e-01 -2.656467e-01 -3.028305e-01 -3.370785e-01 
-3.787970e-01 -4.140345e-01 -4.519696e-01 -4.848481e-01 -5.186294e-01 -5.457362e-01 -5.711860e-01 -5.882440e-01 -6.003990e-01 -6.027095e-01 -5.964859e-01 -5.797782e-01 -5.510950e-01 -5.127243e-01 -4.599164e-01 -4.000944e-01 -3.251397e-01 -2.476662e-01 -1.565854e-01 -6.863348e-02 2.932140e-02 1.184259e-01 2.126005e-01 2.932425e-01 3.737899e-01 4.379526e-01 4.976983e-01 5.403097e-01 5.757543e-01 5.952201e-01 6.065661e-01 6.045400e-01 5.949805e-01 5.755870e-01 5.502258e-01 5.189936e-01 4.836943e-01 4.464385e-01 4.067911e-01 3.686246e-01 3.291434e-01 2.937507e-01 2.573791e-01 2.266436e-01 1.946039e-01 1.686331e-01 1.406164e-01 1.181500e-01 9.278554e-02 7.187312e-02 4.735547e-02 2.607707e-02 7.488060e-04 -2.229496e-02 -4.960757e-02 -7.518169e-02 -1.051357e-01 -1.335217e-01 -1.663718e-01 -1.975308e-01 -2.331810e-01 -2.667587e-01 -3.046646e-01 -3.398351e-01 
-3.809316e-01 -4.194377e-01 -4.612848e-01 -4.983150e-01 -5.369262e-01 -5.688647e-01 -5.997097e-01 -6.217806e-01 -6.391932e-01 -6.458773e-01 -6.437362e-01 -6.297233e-01 -6.027643e-01 -5.644304e-01 -5.100453e-01 -4.470718e-01 -3.669801e-01 -2.833816e-01 -1.842726e-01 -8.819567e-02 1.923526e-02 1.170087e-01 2.203506e-01 3.087052e-01 3.965806e-01 4.663550e-01 5.306746e-01 5.762219e-01 6.132991e-01 6.330330e-01 6.434714e-01 6.395196e-01 6.272546e-01 6.045042e-01 5.754948e-01 5.403419e-01 5.012590e-01 4.603294e-01 4.174178e-01 3.764566e-01 3.346660e-01 2.977268e-01 2.601825e-01 2.292074e-01 1.970592e-01 1.719053e-01 1.445547e-01 1.234784e-01 9.913395e-02 7.963242e-02 5.607048e-02 3.580043e-02 1.108215e-02 -1.153130e-02 -3.867906e-02 -6.437409e-02 -9.460392e-02 -1.235859e-01 -1.571673e-01 -1.893984e-01 -2.263359e-01 -2.615678e-01 -3.014877e-01 -3.390543e-01 
-3.853112e-01 -4.266556e-01 -4.722585e-01 -5.132970e-01 -5.568511e-01 -5.937254e-01 -6.302609e-01 -6.575505e-01 -6.804867e-01 -6.915744e-01 -6.934010e-01 -6.815530e-01 -6.553928e-01 -6.156281e-01 -5.575925e-01 -4.888832e-01 -4.004166e-01 -3.071817e-01 -1.960799e-01 -8.803227e-02 3.276028e-02 1.425307e-01 2.579256e-01 3.559723e-01 4.523176e-01 5.278078e-01 5.957578e-01 6.423888e-01 6.781943e-01 6.947099e-01 6.998687e-01 6.894508e-01 6.693281e-01 6.383074e-01 6.004422e-01 5.567325e-01 5.092497e-01 4.608168e-01 4.111034e-01 3.646669e-01 3.183811e-01 2.784806e-01 2.389640e-01 2.074929e-01 1.756374e-01 1.519205e-01 1.264902e-01 1.079334e-01 8.629599e-02 6.950065e-02 4.863564e-02 3.061510e-02 8.068915e-03 -1.298827e-02 -3.864728e-02 -6.341257e-02 -9.278872e-02 -1.213478e-01 -1.546768e-01 -1.870031e-01 -2.243866e-01 -2.603997e-01 -3.016718e-01 -3.409476e-01 
-3.865179e-01 -4.324292e-01 -4.836617e-01 -5.308318e-01 -5.817028e-01 -6.260740e-01 -6.711779e-01 -7.066097e-01 -7.382931e-01 -7.568173e-01 -7.658021e-01 -7.588195e-01 -7.360422e-01 -6.966948e-01 -6.363924e-01 -5.625693e-01 -4.655756e-01 -3.620436e-01 -2.373605e-01 -1.156265e-01 2.110654e-02 1.452765e-01 2.757434e-01 3.862228e-01 4.940675e-01 5.781013e-01 6.525236e-01 7.029797e-01 7.401546e-01 7.559687e-01 7.583228e-01 7.436279e-01 7.179345e-01 6.804434e-01 6.357327e-01 5.848571e-01 5.305998e-01 4.756662e-01 4.203158e-01 3.690875e-01 3.189978e-01 2.766195e-01 2.354053e-01 2.038533e-01 1.722507e-01 1.503833e-01 1.266131e-01 1.109183e-01 9.154384e-02 7.755228e-02 5.874212e-02 4.267239e-02 2.146200e-02 1.263407e-03 -2.386872e-02 -4.866969e-02 -7.818843e-02 -1.074149e-01 -1.414862e-01 -1.750619e-01 -2.139297e-01 -2.519728e-01 -2.957838e-01 -3.382021e-01 
-3.888301e-01 -4.389502e-01 -4.958361e-01 -5.492536e-01 -6.079400e-01 -6.604075e-01 -7.150082e-01 -7.595141e-01 -8.010517e-01 -8.278846e-01 -8.447791e-01 -8.428306e-01 -8.230575e-01 -7.828622e-01 -7.180568e-01 -6.359681e-01 -5.261465e-01 -4.074549e-01 -2.634633e-01 -1.223724e-01 3.615116e-02 1.797982e-01 3.298062e-01 4.558223e-01 5.770538e-01 6.699340e-01 7.496365e-01 8.013805e-01 8.359408e-01 8.462664e-01 8.398721e-01 8.147817e-01 7.766548e-01 7.262311e-01 6.679076e-01 6.039505e-01 5.371104e-01 4.710067e-01 4.058023e-01 3.467954e-01 2.906086e-01 2.445608e-01 2.012737e-01 1.700282e-01 1.399028e-01 1.213756e-01 1.015388e-01 9.069905e-02 7.624450e-02 6.700312e-02 5.269115e-02 4.015978e-02 2.219666e-02 4.092868e-03 -1.910213e-02 -4.286479e-02 -7.141373e-02 -1.002432e-01 -1.340865e-01 -1.678444e-01 -2.073398e-01 -2.464416e-01 -2.921166e-01 -3.369436e-01 
-3.861631e-01 -4.422197e-01 -5.066692e-01 -5.686402e-01 -6.378178e-01 -7.014154e-01 -7.690615e-01 -8.263858e-01 -8.820715e-01 -9.213516e-01 -9.506825e-01 -9.576060e-01 -9.446604e-01 -9.062422e-01 -8.389856e-01 -7.494010e-01 -6.264234e-01 -4.914946e-01 -3.257478e-01 -1.628488e-01 2.116431e-02 1.874678e-01 3.610054e-01 5.059566e-01 6.441959e-01 7.492843e-01 8.373645e-01 8.935845e-01 9.283044e-01 9.360136e-01 9.235397e-01 8.904910e-01 8.425079e-01 7.810899e-01 7.114773e-01 6.358570e-01 5.582994e-01 4.819407e-01 4.081487e-01 3.418663e-01 2.802258e-01 2.308059e-01 1.855768e-01 1.550095e-01 1.261881e-01 1.116261e-01 9.543460e-02 9.021009e-02 8.030633e-02 7.630816e-02 6.592088e-02 5.677538e-02 4.119410e-02 2.436905e-02 2.058824e-03 -2.184529e-02 -5.046715e-02 -8.013903e-02 -1.146963e-01 -1.498213e-01 -1.908471e-01 -2.321983e-01 -2.807606e-01 -3.293533e-01 
-3.827706e-01 -4.444994e-01 -5.167708e-01 -5.877834e-01 -6.684986e-01 -7.445787e-01 -8.271655e-01 -8.994094e-01 -9.717395e-01 -1.025797e+00 -1.069891e+00 -1.087188e+00 -1.081852e+00 -1.044490e+00 -9.724964e-01 -8.714722e-01 -7.293303e-01 -5.710936e-01 -3.748815e-01 -1.813884e-01 3.731759e-02 2.343810e-01 4.386223e-01 6.075142e-01 7.658728e-01 8.837140e-01 9.784700e-01 1.035394e+00 1.064425e+00 1.062563e+00 1.035506e+00 9.858649e-01 9.184852e-01 8.372162e-01 7.471650e-01 6.520256e-01 5.561523e-01 4.636263e-01 3.760477e-01 2.991105e-01 2.296459e-01 1.761243e-01 1.293398e-01 1.009760e-01 7.607715e-02 6.846563e-02 5.990747e-02 6.374704e-02 6.267571e-02 6.690535e-02 6.399782e-02 6.026783e-02 4.940484e-02 3.511382e-02 1.506019e-02 -7.990685e-03 -3.572941e-02 -6.516375e-02 -9.955481e-02 -1.348640e-01 -1.765705e-01 -2.190598e-01 -2.698173e-01 -3.213691e-01 
-3.717887e-01 -4.408699e-01 -5.228632e-01 -6.054135e-01 -7.006771e-01 -7.928763e-01 -8.948248e-01 -9.868937e-01 -1.081713e+00 -1.156394e+00 -1.221901e+00 -1.255265e+00 -1.263445e+00 -1.230967e+00 -1.157379e+00 -1.045714e+00 -8.836133e-01 -7.001657e-01 -4.694561e-01 -2.417193e-01 1.726690e-02 2.493824e-01 4.898122e-01 6.868775e-01 8.696994e-01 1.004341e+00 1.108979e+00 1.170455e+00 1.196575e+00 1.188579e+00 1.149876e+00 1.086477e+00 1.002806e+00 9.038508e-01 7.962597e-01 6.830764e-01 5.711712e-01 4.632423e-01 3.632874e-01 2.758204e-01 1.990156e-01 1.412113e-01 9.262899e-02 6.658936e-02 4.508206e-02 4.534348e-02 4.404228e-02 5.851490e-02 6.612004e-02 7.989276e-02 8.413248e-02 8.594620e-02 7.893782e-02 6.608370e-02 4.706678e-02 2.325654e-02 -4.738158e-03 -3.544426e-02 -7.054841e-02 -1.072856e-01 -1.503966e-01 -1.951325e-01 -2.488838e-01 -3.046248e-01 
-3.572746e-01 -4.335317e-01 -5.257362e-01 -6.207479e-01 -7.322358e-01 -8.428699e-01 -9.673245e-01 -1.082973e+00 -1.204826e+00 -1.304786e+00 -1.396712e+00 -1.450034e+00 -1.474808e+00 -1.447659e+00 -1.370463e+00 -1.243122e+00 -1.052265e+00 -8.330298e-01 -5.541656e-01 -2.782196e-01 3.577302e-02 3.161678e-01 6.044633e-01 8.378319e-01 1.050168e+00 1.202299e+00 1.314052e+00 1.374087e+00 1.388260e+00 1.363674e+00 1.300799e+00 1.211171e+00 1.097673e+00 9.686392e-01 8.308731e-01 6.889436e-01 5.507893e-01 4.197182e-01 3.007693e-01 1.988652e-01 1.123107e-01 5.030121e-02 1.526337e-03 -1.881966e-02 -3.217129e-02 -1.868719e-02 -6.085183e-03 2.473359e-02 4.785581e-02 7.565632e-02 9.224329e-02 1.020032e-01 1.015211e-01 9.105265e-02 7.403669e-02 5.018034e-02 2.247896e-02 -8.393979e-03 -4.350161e-02 -8.028315e-02 -1.239627e-01 -1.696259e-01 -2.256438e-01 -2.846551e-01 
-3.315663e-01 -4.164948e-01 -5.206248e-01 -6.306260e-01 -7.614948e-01 -8.947176e-01 -1.046927e+00 -1.192445e+00 -1.349166e+00 -1.482788e+00 -1.611079e+00 -1.693115e+00 -1.743885e+00 -1.727604e+00 -1.651581e+00 -1.508627e+00 -1.286846e+00 -1.028225e+00 -6.942443e-01 -3.646463e-01 1.289703e-02 3.471170e-01 6.908363e-01 9.653730e-01 1.212121e+00 1.386444e+00 1.508001e+00 1.571468e+00 1.576085e+00 1.539327e+00 1.455699e+00 1.343334e+00 1.204177e+00 1.047594e+00 8.836135e-01 7.145352e-01 5.531083e-01 3.994285e-01 2.630637e-01 1.460839e-01 4.982662e-02 -1.776198e-02 -6.793031e-02 -8.340160e-02 -9.016243e-02 -6.235051e-02 -3.666557e-02 1.350024e-02 5.237304e-02 9.715105e-02 1.263571e-01 1.446489e-01 1.498939e-01 1.400069e-01 1.234443e-01 9.710685e-02 6.844398e-02 3.554510e-02 -2.730302e-04 -3.833809e-02 -8.302964e-02 -1.305661e-01 -1.893375e-01 -2.526243e-01 
-2.981698e-01 -3.915457e-01 -5.081112e-01 -6.342889e-01 -7.866055e-01 -9.456238e-01 -1.129972e+00 -1.311203e+00 -1.510198e+00 -1.685922e+00 -1.860304e+00 -1.979431e+00 -2.063895e+00 -2.061119e+00 -1.985177e+00 -1.819733e+00 -1.553016e+00 -1.238776e+00 -8.277201e-01 -4.219968e-01 4.246939e-02 4.521803e-01 8.701510e-01 1.198708e+00 1.487569e+00 1.683911e+00 1.809866e+00 1.866465e+00 1.846769e+00 1.781724e+00 1.658601e+00 1.505361e+00 1.321300e+00 1.119762e+00 9.120021e-01 7.009803e-01 5.022585e-01 3.155144e-01 1.530601e-01 1.638020e-02 -9.188777e-02 -1.635622e-01 -2.115783e-01 -2.158508e-01 -2.081195e-01 -1.570103e-01 -1.076691e-01 -2.900326e-02 3.651659e-02 1.049421e-01 1.545527e-01 1.837990e-01 1.973852e-01 1.879800e-01 1.715659e-01 1.428875e-01 1.130615e-01 7.951978e-02 4.362340e-02 6.185823e-03 -3.854886e-02 -8.624863e-02 -1.469028e-01 -2.133238e-01 
-2.488084e-01 -3.515632e-01 -4.816000e-01 -6.259468e-01 -8.023251e-01 -9.912524e-01 -1.213342e+00 -1.438166e+00 -1.690023e+00 -1.920791e+00 -2.157236e+00 -2.328480e+00 -2.462638e+00 -2.481431e+00 -2.412586e+00 -2.220689e+00 -1.902260e+00 -1.524955e+00 -1.024142e+00 -5.343840e-01 2.950818e-02 5.204950e-01 1.022219e+00 1.408157e+00 1.742887e+00 1.965393e+00 2.095551e+00 2.151659e+00 2.108432e+00 2.021232e+00 1.863118e+00 1.673509e+00 1.451002e+00 1.207577e+00 9.619687e-01 7.109333e-01 4.790568e-01 2.597107e-01 7.310741e-02 -8.504378e-02 -2.059326e-01 -2.855124e-01 -3.344441e-01 -3.307497e-01 -3.124511e-01 -2.370446e-01 -1.659977e-01 -5.280072e-02 4.082451e-02 1.399162e-01 2.124210e-01 2.545308e-01 2.763991e-01 2.641285e-01 2.456298e-01 2.105493e-01 1.781281e-01 1.417769e-01 1.055948e-01 6.789027e-02 2.322471e-02 -2.515978e-02 -8.768272e-02 -1.577712e-01 
-1.858620e-01 -2.972734e-01 -4.406642e-01 -6.039513e-01 -8.060427e-01 -1.028496e+00 -1.293752e+00 -1.571161e+00 -1.888295e+00 -2.190562e+00 -2.509052e+00 -2.751231e+00 -2.953324e+00 -3.000483e+00 -2.940240e+00 -2.710829e+00 -2.314671e+00 -1.848578e+00 -1.221583e+00 -6.112583e-01 8.763218e-02 6.949508e-01 1.309784e+00 1.771878e+00 2.162431e+00 2.405471e+00 2.527038e+00 2.563302e+00 2.470681e+00 2.336015e+00 2.114852e+00 1.862715e+00 1.574963e+00 1.265598e+00 9.579507e-01 6.464173e-01 3.618918e-01 9.547214e-02 -1.267504e-01 -3.116369e-01 -4.464079e-01 -5.292347e-01 -5.716624e-01 -5.481689e-01 -5.063373e-01 -3.914418e-01 -2.817605e-01 -1.185910e-01 2.202158e-02 1.634567e-01 2.730027e-01 3.309430e-01 3.637380e-01 3.465838e-01 3.225040e-01 2.798973e-01 2.430089e-01 2.058927e-01 1.702282e-01 1.353151e-01 9.223258e-02 4.562183e-02 -1.744286e-02 -8.956146e-02 
-1.010523e-01 -2.206950e-01 -3.768054e-01 -5.593175e-01 -7.879205e-01 -1.047049e+00 -1.361076e+00 -1.702017e+00 -2.101056e+00 -2.499197e+00 -2.930180e+00 -3.275071e+00 -3.576201e+00 -3.665207e+00 -3.624369e+00 -3.338315e+00 -2.843007e+00 -2.273059e+00 -1.496025e+00 -7.540772e-01 9.585919e-02 8.216526e-01 1.559131e+00 2.091576e+00 2.535144e+00 2.798167e+00 2.901621e+00 2.927663e+00 2.781928e+00 2.609303e+00 2.332941e+00 2.024166e+00 1.682949e+00 1.311419e+00 9.513149e-01 5.822672e-01 2.512359e-01 -6.058624e-02 -3.151265e-01 -5.290514e-01 -6.781482e-01 -7.721196e-01 -8.135731e-01 -7.785787e-01 -7.214509e-01 -5.661286e-01 -4.214274e-01 -1.939937e-01 5.415121e-04 2.044277e-01 3.634850e-01 4.458116e-01 4.950404e-01 4.674878e-01 4.337940e-01 3.752230e-01 3.304714e-01 2.891063e-01 2.538984e-01 2.214339e-01 1.807755e-01 1.362226e-01 7.341040e-02 -3.251962e-04 
5.078671e-03 -1.206801e-01 -2.875560e-01 -4.883150e-01 -7.433478e-01 -1.042576e+00 -1.412300e+00 -1.832401e+00 -2.336996e+00 -2.867281e+00 -3.455149e+00 -3.948253e+00 -4.391214e+00 -4.535809e+00 -4.525736e+00 -4.163539e+00 -3.513636e+00 -2.802127e+00 -1.814896e+00 -8.808990e-01 1.702774e-01 1.074041e+00 1.983267e+00 2.615053e+00 3.124513e+00 3.384165e+00 3.439314e+00 3.419222e+00 3.173009e+00 2.923434e+00 2.551709e+00 2.149843e+00 1.720082e+00 1.254808e+00 8.098557e-01 3.551801e-01 -5.012391e-02 -4.284022e-01 -7.308900e-01 -9.794125e-01 -1.140209e+00 -1.233275e+00 -1.257772e+00 -1.188610e+00 -1.095243e+00 -8.737834e-01 -6.676780e-01 -3.488638e-01 -6.459737e-02 2.274476e-01 4.699188e-01 5.857997e-01 6.589973e-01 6.191464e-01 5.649627e-01 4.848893e-01 4.239623e-01 3.787793e-01 3.433739e-01 3.169729e-01 2.806962e-01 2.413875e-01 1.809453e-01 1.080794e-01 
1.393818e-01 1.046815e-02 -1.634036e-01 -3.791975e-01 -6.578600e-01 -9.980266e-01 -1.428962e+00 -1.945101e+00 -2.584414e+00 -3.296425e+00 -4.102893e+00 -4.816890e+00 -5.463402e+00 -5.689533e+00 -5.731592e+00 -5.226818e+00 -4.364931e+00 -3.497839e+00 -2.261349e+00 -1.117610e+00 1.557792e-01 1.240167e+00 2.342115e+00 3.049876e+00 3.614320e+00 3.863580e+00 3.843925e+00 3.804585e+00 3.446098e+00 3.137460e+00 2.689819e+00 2.200899e+00 1.705940e+00 1.150148e+00 6.348155e-01 9.903642e-02 -3.732385e-01 -8.128060e-01 -1.158086e+00 -1.442690e+00 -1.614115e+00 -1.723201e+00 -1.740774e+00 -1.660342e+00 -1.551157e+00 -1.268338e+00 -1.014706e+00 -5.780811e-01 -1.902297e-01 2.391867e-01 6.038684e-01 7.831628e-01 9.116997e-01 8.562769e-01 7.736962e-01 6.507563e-01 5.587488e-01 4.978196e-01 4.569934e-01 4.342481e-01 4.022209e-01 3.687847e-01 3.121457e-01 2.419737e-01 
3.036703e-01 1.763812e-01 1.073926e-03 -2.246146e-01 -5.225543e-01 -9.042305e-01 -1.402952e+00 -2.038407e+00 -2.851188e+00 -3.814759e+00 -4.923757e+00 -5.954744e+00 -6.879564e+00 -7.186775e+00 -7.327813e+00 -6.656876e+00 -5.468590e+00 -4.425298e+00 -2.853798e+00 -1.387461e+00 1.873433e-01 1.599457e+00 3.034476e+00 3.909774e+00 4.575436e+00 4.749899e+00 4.601216e+00 4.494073e+00 3.936071e+00 3.513096e+00 2.938170e+00 2.310313e+00 1.705193e+00 1.016778e+00 3.838033e-01 -2.771607e-01 -8.654812e-01 -1.408473e+00 -1.829069e+00 -2.164294e+00 -2.341090e+00 -2.445219e+00 -2.427443e+00 -2.299774e+00 -2.152682e+00 -1.780629e+00 -1.463165e+00 -8.888521e-01 -3.609866e-01 2.327650e-01 7.784791e-01 1.035016e+00 1.248750e+00 1.197479e+00 1.066705e+00 8.860104e-01 7.354873e-01 6.470434e-01 5.907589e-01 5.701248e-01 5.419159e-01 5.162477e-01 4.658901e-01 4.016884e-01 
5.006696e-01 3.818428e-01 2.140118e-01 -1.169201e-02 -3.180499e-01 -7.327171e-01 -1.295392e+00 -2.060365e+00 -3.075609e+00 -4.357301e+00 -5.857052e+00 -7.333143e+00 -8.605026e+00 -9.011610e+00 -9.284065e+00 -8.245150e+00 -6.639995e+00 -5.508077e+00 -3.570398e+00 -1.717698e+00 2.356415e-01 2.085585e+00 4.014609e+00 5.056148e+00 5.841469e+00 5.945110e+00 5.647245e+00 5.593066e+00 4.813201e+00 4.315400e+00 3.667248e+00 2.887868e+00 2.205789e+00 1.365265e+00 6.133135e-01 -1.847399e-01 -9.056329e-01 -1.556926e+00 -2.067281e+00 -2.469845e+00 -2.667748e+00 -2.825423e+00 -2.806885e+00 -2.711544e+00 -2.594703e+00 -2.182882e+00 -1.887058e+00 -1.186013e+00 -5.726432e-01 2.151013e-01 9.571797e-01 1.321710e+00 1.732885e+00 1.715472e+00 1.534419e+00 1.257216e+00 1.007102e+00 8.588714e-01 7.655814e-01 7.360672e-01 7.059704e-01 6.869231e-01 6.438944e-01 5.889426e-01 
7.340318e-01 6.326857e-01 4.841759e-01 2.732226e-01 -2.463063e-02 -4.543773e-01 -1.064440e+00 -1.955153e+00 -3.183808e+00 -4.848227e+00 -6.818494e+00 -8.874089e+00 -1.045947e+01 -1.069832e+01 -1.120188e+01 -9.909028e+00 -7.790310e+00 -6.694197e+00 -4.342330e+00 -1.856640e+00 6.340163e-01 3.390373e+00 6.319160e+00 7.904171e+00 8.980813e+00 8.821381e+00 8.362635e+00 8.380478e+00 7.224956e+00 6.614483e+00 5.859954e+00 4.851534e+00 4.020930e+00 2.946554e+00 1.966713e+00 9.206132e-01 -6.799183e-02 -9.595451e-01 -1.677317e+00 -2.231396e+00 -2.486483e+00 -2.702661e+00 -2.662270e+00 -2.564136e+00 -2.489710e+00 -2.046636e+00 -1.853930e+00 -1.125421e+00 -5.245675e-01 3.271626e-01 1.223661e+00 1.573402e+00 2.223304e+00 2.361804e+00 2.128357e+00 1.753465e+00 1.365808e+00 1.133293e+00 9.829336e-01 9.329662e-01 8.960468e-01 8.814135e-01 8.478250e-01 8.057402e-01 
9.981023e-01 9.260108e-01 8.133385e-01 6.391535e-01 3.801221e-01 -2.302395e-02 -6.251741e-01 -1.569211e+00 -2.936135e+00 -4.926294e+00 -7.355289e+00 -1.007654e+01 -1.177810e+01 -1.153983e+01 -1.196294e+01 -1.018333e+01 -7.948024e+00 -7.333101e+00 -4.773945e+00 -1.539318e+00 1.624693e+00 5.608962e+00 9.835869e+00 1.188898e+01 1.321710e+01 1.294923e+01 1.260628e+01 1.305832e+01 1.159211e+01 1.104806e+01 1.040333e+01 9.217011e+00 8.307088e+00 6.933171e+00 5.640529e+00 4.256942e+00 2.892531e+00 1.736855e+00 7.692681e-01 3.619273e-02 -3.307039e-01 -7.603610e-01 -8.123582e-01 -9.106484e-01 -1.048171e+00 -7.060483e-01 -8.393857e-01 -2.499692e-01 8.743023e-02 8.179191e-01 1.649807e+00 1.771130e+00 2.770857e+00 3.128526e+00 2.836404e+00 2.343607e+00 1.786050e+00 1.453559e+00 1.229569e+00 1.151722e+00 1.102019e+00 1.091162e+00 1.068809e+00 1.044890e+00 
1.295326e+00 1.266322e+00 1.209346e+00 1.102706e+00 9.252929e-01 6.183359e-01 1.225130e-01 -7.243236e-01 -2.042104e+00 -4.180764e+00 -6.955556e+00 -1.047346e+01 -1.162932e+01 -8.818203e+00 -8.226379e+00 -8.809106e+00 -7.628822e+00 -6.936304e+00 -4.632756e+00 -6.668290e-01 2.806074e+00 8.190682e+00 1.363536e+01 1.685886e+01 1.799588e+01 1.699955e+01 1.719144e+01 1.717415e+01 1.578454e+01 1.528591e+01 1.466416e+01 1.404522e+01 1.306004e+01 1.186261e+01 1.032639e+01 8.630809e+00 6.875865e+00 5.356202e+00 4.190811e+00 3.364050e+00 3.084918e+00 2.827128e+00 2.872000e+00 3.018517e+00 2.799239e+00 3.055953e+00 2.732685e+00 2.661846e+00 2.671621e+00 2.589282e+00 3.238178e+00 2.446401e+00 2.832292e+00 3.672813e+00 3.337919e+00 2.795569e+00 2.131139e+00 1.739318e+00 1.474430e+00 1.376048e+00 1.321330e+00 1.314366e+00 1.308287e+00 1.307444e+00 
1.607381e+00 1.635748e+00 1.655745e+00 1.647399e+00 1.601842e+00 1.474421e+00 1.228049e+00 7.416913e-01 -1.029534e-01 -1.639481e+00 -3.946328e+00 -7.300688e+00 -9.046136e+00 -5.417141e+00 -3.592976e+00 -6.951663e+00 -6.008130e+00 -4.748686e+00 -3.512626e+00 2.639053e-01 3.342926e+00 8.667237e+00 1.263646e+01 1.419328e+01 1.274581e+01 1.150041e+01 1.254130e+01 1.102946e+01 1.191271e+01 1.187677e+01 1.160686e+01 1.276062e+01 1.206045e+01 1.241622e+01 1.156380e+01 1.088036e+01 9.920971e+00 9.010466e+00 8.306247e+00 7.916387e+00 7.671553e+00 8.086869e+00 8.121271e+00 8.789590e+00 8.965293e+00 8.783438e+00 9.157187e+00 7.913952e+00 8.132391e+00 6.564401e+00 6.669222e+00 5.110530e+00 3.370676e+00 4.014170e+00 3.297457e+00 2.808728e+00 2.168547e+00 1.853196e+00 1.625898e+00 1.552150e+00 1.513864e+00 1.523379e+00 1.542519e+00 1.573715e+00 
1.930632e+00 2.028363e+00 2.143165e+00 2.264069e+00 2.397011e+00 2.540101e+00 2.688154e+00 2.872740e+00 3.013238e+00 3.198768e+00 2.943163e+00 2.499715e+00 1.966490e-01 -9.487580e-01 -9.242827e-01 -1.778666e+00 -1.489926e+00 -1.408994e+00 -9.673418e-02 2.905994e-01 -6.914525e-03 2.567949e-01 1.726449e-01 -1.376409e+00 -3.670904e+00 -2.420243e+00 -1.193414e+00 -1.754995e+00 1.389601e+00 2.526484e+00 3.480477e+00 5.542770e+00 6.204885e+00 7.996918e+00 8.919066e+00 1.027804e+01 1.133523e+01 1.228436e+01 1.284093e+01 1.330673e+01 1.298243e+01 1.321316e+01 1.258657e+01 1.238894e+01 1.229653e+01 1.128399e+01 1.164896e+01 1.021418e+01 1.018110e+01 8.446642e+00 7.487649e+00 6.642584e+00 4.441454e+00 3.599566e+00 2.631533e+00 2.230718e+00 1.888276e+00 1.771038e+00 1.689560e+00 1.677830e+00 1.684483e+00 1.719257e+00 1.773171e+00 1.842282e+00 
2.237224e+00 2.410580e+00 2.628736e+00 2.885501e+00 3.208904e+00 3.621326e+00 4.170730e+00 4.972644e+00 6.078626e+00 7.798215e+00 9.813800e+00 1.251982e+01 1.263963e+01 8.818520e+00 6.014334e+00 4.874908e+00 -2.162372e-01 -2.489298e+00 -9.285096e-02 -1.523584e+00 -4.529453e+00 -7.000284e+00 -8.161408e+00 -8.315015e+00 -8.535148e+00 -7.508425e+00 -7.748481e+00 -7.307563e+00 -5.942802e+00 -4.959884e+00 -3.812547e+00 -2.860640e+00 -1.378115e+00 1.356741e-01 1.932187e+00 3.914347e+00 5.774986e+00 7.527756e+00 8.754712e+00 9.658162e+00 9.830667e+00 9.795622e+00 9.344104e+00 8.598178e+00 8.187116e+00 7.286572e+00 6.839801e+00 6.204946e+00 5.458652e+00 4.795963e+00 3.506648e+00 3.565523e+00 2.955676e+00 1.532418e+00 1.146038e+00 1.142266e+00 1.340520e+00 1.515656e+00 1.644837e+00 1.725281e+00 1.799608e+00 1.873114e+00 1.972397e+00 2.086985e+00 
2.517420e+00 2.762649e+00 3.078233e+00 3.458260e+00 3.948981e+00 4.575717e+00 5.421331e+00 6.596477e+00 8.240301e+00 1.057305e+01 1.356958e+01 1.710262e+01 1.937725e+01 1.669085e+01 1.433399e+01 1.035740e+01 1.657179e+00 -5.096437e+00 -7.777676e+00 -7.262605e+00 -7.111259e+00 -6.531073e+00 -7.427004e+00 -7.973286e+00 -8.679361e+00 -9.876560e+00 -1.116442e+01 -1.118264e+01 -1.129167e+01 -1.095640e+01 -1.013495e+01 -9.724074e+00 -8.337222e+00 -7.172860e+00 -5.470927e+00 -3.747248e+00 -2.046357e+00 -4.501130e-01 8.112848e-01 1.774129e+00 2.424850e+00 2.613697e+00 2.790136e+00 2.426622e+00 2.264043e+00 1.844298e+00 1.296118e+00 1.056075e+00 2.537546e-01 2.133254e-01 -6.519888e-01 -2.111703e-01 8.517274e-02 -6.094057e-01 -2.264548e-01 2.843029e-01 9.139636e-01 1.317568e+00 1.602750e+00 1.756637e+00 1.891118e+00 2.002739e+00 2.147554e+00 2.306961e+00 
2.749011e+00 3.059981e+00 3.462086e+00 3.948046e+00 4.576058e+00 5.365166e+00 6.411478e+00 7.794448e+00 9.671314e+00 1.215417e+01 1.530460e+01 1.874191e+01 2.155458e+01 2.067109e+01 2.020980e+01 1.834775e+01 1.415302e+01 7.280726e+00 -1.714450e+00 -5.136417e+00 -6.204442e+00 -7.335632e+00 -9.772803e+00 -1.179884e+01 -1.260197e+01 -1.331552e+01 -1.410447e+01 -1.408474e+01 -1.402455e+01 -1.377891e+01 -1.307459e+01 -1.259602e+01 -1.143823e+01 -1.042332e+01 -8.980281e+00 -7.569980e+00 -6.091441e+00 -4.738646e+00 -3.563573e+00 -2.657800e+00 -1.931714e+00 -1.589226e+00 -1.221327e+00 -1.279573e+00 -1.226124e+00 -1.385823e+00 -1.695016e+00 -1.799670e+00 -2.377152e+00 -2.303716e+00 -2.840418e+00 -2.327731e+00 -1.885235e+00 -1.834002e+00 -9.674907e-01 -1.502206e-01 6.836217e-01 1.183926e+00 1.552920e+00 1.752744e+00 1.938913e+00 2.087988e+00 2.278466e+00 2.481880e+00 
2.923950e+00 3.283595e+00 3.750251e+00 4.310461e+00 5.034463e+00 5.921636e+00 7.081846e+00 8.533698e+00 1.045827e+01 1.282389e+01 1.580794e+01 1.888379e+01 2.181934e+01 2.252164e+01 2.342358e+01 2.443649e+01 2.513792e+01 2.496849e+01 1.835031e+01 9.779682e+00 2.590179e+00 -4.934645e+00 -1.094769e+01 -1.370733e+01 -1.434124e+01 -1.447457e+01 -1.472581e+01 -1.455353e+01 -1.445113e+01 -1.417210e+01 -1.354421e+01 -1.305937e+01 -1.202726e+01 -1.114279e+01 -9.877491e+00 -8.699145e+00 -7.413631e+00 -6.267549e+00 -5.197326e+00 -4.362455e+00 -3.607392e+00 -3.162176e+00 -2.691899e+00 -2.535302e+00 -2.361944e+00 -2.336848e+00 -2.528724e+00 -2.568338e+00 -3.058659e+00 -3.051645e+00 -3.454077e+00 -3.095167e+00 -2.642681e+00 -2.159990e+00 -1.119560e+00 -2.222154e-01 6.260978e-01 1.131054e+00 1.523858e+00 1.748226e+00 1.969877e+00 2.149152e+00 2.375523e+00 2.613303e+00 
3.031219e+00 3.424301e+00 3.932939e+00 4.542298e+00 5.324858e+00 6.271771e+00 7.489123e+00 8.963463e+00 1.086526e+01 1.308683e+01 1.583796e+01 1.854583e+01 2.134871e+01 2.269256e+01 2.432783e+01 2.630074e+01 2.830396e+01 3.173051e+01 2.896221e+01 2.148628e+01 1.343477e+01 2.469002e+00 -7.562084e+00 -1.261569e+01 -1.451475e+01 -1.483468e+01 -1.498913e+01 -1.473418e+01 -1.446465e+01 -1.408498e+01 -1.340469e+01 -1.281083e+01 -1.178947e+01 -1.088266e+01 -9.657766e+00 -8.533684e+00 -7.297013e+00 -6.215341e+00 -5.177556e+00 -4.371459e+00 -3.626172e+00 -3.156028e+00 -2.678422e+00 -2.460497e+00 -2.262236e+00 -2.196643e+00 -2.349070e+00 -2.404151e+00 -2.867855e+00 -2.932201e+00 -3.312659e+00 -3.039307e+00 -2.629057e+00 -2.010147e+00 -1.002165e+00 -1.587805e-01 6.286208e-01 1.100980e+00 1.494731e+00 1.730228e+00 1.975955e+00 2.176476e+00 2.428636e+00 2.690798e+00 
3.067841e+00 3.470280e+00 3.992141e+00 4.614979e+00 5.416441e+00 6.378638e+00 7.614386e+00 9.089653e+00 1.098325e+01 1.315433e+01 1.583134e+01 1.844939e+01 2.121907e+01 2.285726e+01 2.472572e+01 2.705321e+01 2.945253e+01 3.295973e+01 3.054154e+01 2.430909e+01 1.739330e+01 5.945210e+00 -5.526415e+00 -1.164516e+01 -1.407104e+01 -1.451502e+01 -1.466398e+01 -1.440854e+01 -1.417152e+01 -1.380528e+01 -1.316990e+01 -1.260732e+01 -1.162479e+01 -1.076546e+01 -9.580988e+00 -8.511796e+00 -7.315235e+00 -6.276579e+00 -5.256866e+00 -4.459591e+00 -3.699787e+00 -3.199072e+00 -2.691850e+00 -2.421988e+00 -2.197435e+00 -2.088119e+00 -2.224107e+00 -2.264595e+00 -2.718379e+00 -2.805285e+00 -3.173769e+00 -2.948986e+00 -2.555484e+00 -1.915691e+00 -9.354702e-01 -1.229521e-01 6.358738e-01 1.095533e+00 1.487787e+00 1.727937e+00 1.981098e+00 2.188926e+00 2.448921e+00 2.718359e+00 
3.031219e+00 3.424301e+00 3.932939e+00 4.542298e+00 5.324858e+00 6.271771e+00 7.489123e+00 8.963463e+00 1.086526e+01 1.308683e+01 1.583796e+01 1.854583e+01 2.134871e+01 2.269256e+01 2.432783e+01 2.630074e+01 2.830396e+01 3.173051e+01 2.896221e+01 2.148628e+01 1.343477e+01 2.469002e+00 -7.562084e+00 -1.261569e+01 -1.451475e+01 -1.483468e+01 -1.498913e+01 -1.473418e+01 -1.446465e+01 -1.408498e+01 -1.340469e+01 -1.281083e+01 -1.178947e+01 -1.088266e+01 -9.657766e+00 -8.533684e+00 -7.297013e+00 -6.215341e+00 -5.177556e+00 -4.371459e+00 -3.626172e+00 -3.156028e+00 -2.678422e+00 -2.460497e+00 -2.262236e+00 -2.196643e+00 -2.349070e+00 -2.404151e+00 -2.867855e+00 -2.932201e+00 -3.312659e+00 -3.039307e+00 -2.629057e+00 -2.010147e+00 -1.002165e+00 -1.587805e-01 6.286208e-01 1.100980e+00 1.494731e+00 1.730228e+00 1.975955e+00 2.176476e+00 2.428636e+00 2.690798e+00 