# vtk DataFile Version 2.0
Comment goes here
ASCII

DATASET STRUCTURED_POINTS
DIMENSIONS    64   64   1

ORIGIN    0.000   0.000   0.000
SPACING   0.0781250.078125   1.000

POINT_DATA   4096
SCALARS uY double
LOOKUP_TABLE default

-1.907871e-14 -1.587444e-14 -1.964888e-14 -1.734961e-14 -2.213345e-14 -2.022736e-14 -2.584599e-14 -2.425442e-14 -2.986501e-14 -2.870829e-14 -3.517535e-14 -3.591339e-14 -4.242814e-14 -4.321565e-14 -4.921286e-14 -5.068429e-14 -5.537956e-14 -5.687614e-14 -5.937025e-14 -6.306883e-14 -6.681525e-14 -6.873442e-14 -6.886602e-14 -7.094112e-14 -6.817206e-14 -7.032776e-14 -6.595229e-14 -6.886703e-14 -6.376258e-14 -6.699102e-14 -6.109938e-14 -6.393593e-14 -5.687298e-14 -5.939657e-14 -5.279472e-14 -5.555708e-14 -4.925711e-14 -5.152117e-14 -4.529713e-14 -4.645683e-14 -4.144728e-14 -4.281095e-14 -3.897990e-14 -3.947143e-14 -3.685182e-14 -3.694997e-14 -3.456436e-14 -3.297153e-14 -3.173499e-14 -3.012263e-14 -2.923264e-14 -2.683805e-14 -2.701184e-14 -2.455645e-14 -2.526872e-14 -2.229163e-14 -2.342373e-14 -1.990121e-14 -2.109678e-14 -1.745458e-14 -1.964684e-14 -1.648820e-14 -1.943069e-14 -1.609336e-14 
7.134331e-02 6.993268e-02 6.785036e-02 6.501551e-02 6.123902e-02 5.671373e-02 5.096924e-02 4.456967e-02 3.673200e-02 2.847680e-02 1.870430e-02 8.928020e-03 -2.235043e-03 -1.282793e-02 -2.444372e-02 -3.483915e-02 -4.570978e-02 -5.477769e-02 -6.370895e-02 -7.048070e-02 -7.658860e-02 -8.050837e-02 -8.343711e-02 -8.447441e-02 -8.442794e-02 -8.300729e-02 -8.059793e-02 -7.739809e-02 -7.340598e-02 -6.913469e-02 -6.428774e-02 -5.951858e-02 -5.435645e-02 -4.945851e-02 -4.428913e-02 -3.943367e-02 -3.435754e-02 -2.956737e-02 -2.453779e-02 -1.974989e-02 -1.464615e-02 -9.771889e-03 -4.472954e-03 5.492386e-04 6.099030e-03 1.126169e-02 1.700647e-02 2.220924e-02 2.797031e-02 3.302531e-02 3.853497e-02 4.320692e-02 4.817986e-02 5.224835e-02 5.645889e-02 5.977149e-02 6.309521e-02 6.558041e-02 6.797805e-02 6.961151e-02 7.106875e-02 7.181478e-02 7.227302e-02 7.203290e-02 
1.429503e-01 1.401911e-01 1.361421e-01 1.305516e-01 1.231209e-01 1.141382e-01 1.027372e-01 8.996023e-02 7.429107e-02 5.772502e-02 3.806536e-02 1.836368e-02 -4.208263e-03 -2.562119e-02 -4.919423e-02 -7.023897e-02 -9.233717e-02 -1.106802e-01 -1.288176e-01 -1.424567e-01 -1.547934e-01 -1.625926e-01 -1.684035e-01 -1.703297e-01 -1.700683e-01 -1.670338e-01 -1.619995e-01 -1.554260e-01 -1.472457e-01 -1.385861e-01 -1.287514e-01 -1.191555e-01 -1.087492e-01 -9.893306e-02 -8.855388e-02 -7.883091e-02 -6.865695e-02 -5.905108e-02 -4.897110e-02 -3.934849e-02 -2.911192e-02 -1.930044e-02 -8.663346e-03 1.447590e-03 1.259377e-02 2.297509e-02 3.451259e-02 4.495157e-02 5.651346e-02 6.662587e-02 7.766506e-02 8.697663e-02 9.691365e-02 1.049874e-01 1.133718e-01 1.199160e-01 1.265131e-01 1.314052e-01 1.361588e-01 1.393710e-01 1.422748e-01 1.437506e-01 1.447017e-01 1.442479e-01 
2.166177e-01 2.126442e-01 2.067034e-01 1.984696e-01 1.874177e-01 1.740281e-01 1.569203e-01 1.377015e-01 1.140263e-01 8.892098e-02 5.905264e-02 2.901291e-02 -5.420207e-03 -3.821731e-02 -7.426508e-02 -1.065817e-01 -1.403858e-01 -1.685547e-01 -1.962274e-01 -2.170935e-01 -2.357677e-01 -2.475536e-01 -2.561330e-01 -2.588195e-01 -2.580689e-01 -2.531312e-01 -2.451278e-01 -2.348268e-01 -2.221299e-01 -2.087501e-01 -1.936774e-01 -1.790082e-01 -1.632205e-01 -1.483610e-01 -1.327569e-01 -1.181712e-01 -1.029920e-01 -8.868632e-02 -7.371954e-02 -5.944552e-02 -4.425640e-02 -2.969645e-02 -1.385697e-02 1.215088e-03 1.791793e-02 3.350383e-02 5.091461e-02 6.670910e-02 8.425937e-02 9.966041e-02 1.164772e-01 1.307176e-01 1.458679e-01 1.582326e-01 1.709963e-01 1.810132e-01 1.910309e-01 1.985171e-01 2.057296e-01 2.106698e-01 2.151036e-01 2.174435e-01 2.189702e-01 2.184376e-01 
2.910175e-01 2.860350e-01 2.785781e-01 2.679679e-01 2.537031e-01 2.361450e-01 2.136408e-01 1.880774e-01 1.564517e-01 1.226532e-01 8.223971e-02 4.139659e-02 -5.672728e-03 -5.058801e-02 -1.002154e-01 -1.446385e-01 -1.913156e-01 -2.299951e-01 -2.680976e-01 -2.964999e-01 -3.218861e-01 -3.375084e-01 -3.486704e-01 -3.516086e-01 -3.497893e-01 -3.423053e-01 -3.306211e-01 -3.160355e-01 -2.981997e-01 -2.797484e-01 -2.590141e-01 -2.391225e-01 -2.177263e-01 -1.977932e-01 -1.768669e-01 -1.574050e-01 -1.371740e-01 -1.181002e-01 -9.819383e-02 -7.912325e-02 -5.889658e-02 -3.938722e-02 -1.822562e-02 2.020505e-03 2.442486e-02 4.539437e-02 6.883067e-02 9.008882e-02 1.137581e-01 1.344588e-01 1.571225e-01 1.761925e-01 1.965308e-01 2.129864e-01 2.300088e-01 2.432383e-01 2.565058e-01 2.663327e-01 2.758589e-01 2.823500e-01 2.882686e-01 2.914203e-01 2.936254e-01 2.931014e-01 
3.695754e-01 3.638757e-01 3.550851e-01 3.423655e-01 3.249965e-01 3.034232e-01 2.754616e-01 2.434703e-01 2.035627e-01 1.606288e-01 1.090046e-01 5.649441e-02 -4.185851e-03 -6.244330e-02 -1.267905e-01 -1.846943e-01 -2.453080e-01 -2.957154e-01 -3.449729e-01 -3.816874e-01 -4.140013e-01 -4.336556e-01 -4.471094e-01 -4.499672e-01 -4.464403e-01 -4.357378e-01 -4.196018e-01 -3.999407e-01 -3.762515e-01 -3.520058e-01 -3.250787e-01 -2.994401e-01 -2.721551e-01 -2.468931e-01 -2.206315e-01 -1.963238e-01 -1.712643e-01 -1.476991e-01 -1.232353e-01 -9.979753e-02 -7.495600e-02 -5.094247e-02 -2.478331e-02 3.274027e-04 2.832734e-02 5.463002e-02 8.426399e-02 1.112439e-01 1.414526e-01 1.679697e-01 1.970374e-01 2.215802e-01 2.476551e-01 2.688211e-01 2.905339e-01 3.074746e-01 3.242798e-01 3.368124e-01 3.488383e-01 3.571591e-01 3.647129e-01 3.689316e-01 3.719785e-01 3.717355e-01 
4.491458e-01 4.431381e-01 4.337383e-01 4.194561e-01 3.998084e-01 3.747407e-01 3.420072e-01 3.038633e-01 2.559063e-01 2.036336e-01 1.402754e-01 7.526368e-02 -4.480815e-04 -7.346050e-02 -1.546634e-01 -2.277093e-01 -3.045650e-01 -3.680794e-01 -4.302446e-01 -4.758712e-01 -5.157750e-01 -5.390965e-01 -5.543491e-01 -5.560347e-01 -5.495521e-01 -5.343223e-01 -5.123108e-01 -4.865217e-01 -4.558287e-01 -4.252134e-01 -3.913962e-01 -3.598605e-01 -3.263874e-01 -2.958628e-01 -2.641947e-01 -2.351008e-01 -2.052008e-01 -1.770568e-01 -1.479780e-01 -1.199096e-01 -9.031617e-02 -6.141761e-02 -3.005347e-02 3.239278e-04 3.417645e-02 6.614711e-02 1.022602e-01 1.351674e-01 1.721745e-01 2.045408e-01 2.401674e-01 2.700132e-01 3.017921e-01 3.273013e-01 3.534676e-01 3.736269e-01 3.936158e-01 4.083672e-01 4.225782e-01 4.323874e-01 4.414543e-01 4.466403e-01 4.506956e-01 4.509064e-01 
5.350386e-01 5.292211e-01 5.195749e-01 5.042446e-01 4.825994e-01 4.544128e-01 4.169282e-01 3.726383e-01 3.161900e-01 2.539655e-01 1.778198e-01 9.891451e-02 6.518640e-03 -8.334718e-02 -1.834085e-01 -2.740215e-01 -3.690173e-01 -4.477927e-01 -5.241430e-01 -5.800005e-01 -6.278057e-01 -6.550213e-01 -6.714460e-01 -6.712398e-01 -6.605882e-01 -6.395629e-01 -6.103001e-01 -5.769787e-01 -5.380653e-01 -4.998479e-01 -4.582721e-01 -4.199741e-01 -3.798818e-01 -3.437001e-01 -3.066505e-01 -2.728700e-01 -2.385639e-01 -2.063742e-01 -1.734015e-01 -1.415159e-01 -1.079759e-01 -7.504808e-02 -3.911635e-02 -4.091633e-03 3.537583e-02 7.287130e-02 1.157495e-01 1.550243e-01 1.995903e-01 2.387381e-01 2.819374e-01 3.182417e-01 3.566939e-01 3.876141e-01 4.189404e-01 4.431093e-01 4.666900e-01 4.841741e-01 5.007893e-01 5.124450e-01 5.232021e-01 5.296967e-01 5.349978e-01 5.360751e-01 
6.218701e-01 6.169621e-01 6.082968e-01 5.929112e-01 5.707505e-01 5.404582e-01 4.995792e-01 4.498054e-01 3.855472e-01 3.132377e-01 2.237033e-01 1.296226e-01 1.827836e-02 -9.086558e-02 -2.134890e-01 -3.246685e-01 -4.419427e-01 -5.385200e-01 -6.321773e-01 -6.993227e-01 -7.560319e-01 -7.863225e-01 -8.027252e-01 -7.984541e-01 -7.811529e-01 -7.519014e-01 -7.128205e-01 -6.702156e-01 -6.212400e-01 -5.746887e-01 -5.244513e-01 -4.794606e-01 -4.325569e-01 -3.911118e-01 -3.488110e-01 -3.106214e-01 -2.720391e-01 -2.357279e-01 -1.988334e-01 -1.626917e-01 -1.250087e-01 -8.739720e-02 -4.658637e-02 -6.240876e-03 3.922724e-02 8.278981e-02 1.328794e-01 1.788569e-01 2.314412e-01 2.774505e-01 3.285479e-01 3.710735e-01 4.161943e-01 4.519448e-01 4.880214e-01 5.153780e-01 5.418907e-01 5.612787e-01 5.796875e-01 5.926082e-01 6.047746e-01 6.124114e-01 6.191765e-01 6.214215e-01 
7.172690e-01 7.140528e-01 7.070371e-01 6.925138e-01 6.704616e-01 6.388719e-01 5.948717e-01 5.399192e-01 4.673969e-01 3.843255e-01 2.798986e-01 1.686110e-01 3.571729e-02 -9.605703e-02 -2.445415e-01 -3.803209e-01 -5.230725e-01 -6.410556e-01 -7.541499e-01 -8.346705e-01 -9.006479e-01 -9.341283e-01 -9.492097e-01 -9.393923e-01 -9.132591e-01 -8.735359e-01 -8.223640e-01 -7.681763e-01 -7.072540e-01 -6.504512e-01 -5.902737e-01 -5.372949e-01 -4.829896e-01 -4.357320e-01 -3.882948e-01 -3.459286e-01 -3.038396e-01 -2.643498e-01 -2.247952e-01 -1.858321e-01 -1.454461e-01 -1.046973e-01 -6.019323e-02 -1.570301e-02 3.526149e-02 8.453340e-02 1.422655e-01 1.956402e-01 2.575467e-01 3.120207e-01 3.727800e-01 4.235132e-01 4.769315e-01 5.192520e-01 5.611417e-01 5.928219e-01 6.227381e-01 6.446213e-01 6.649704e-01 6.794885e-01 6.931908e-01 7.023255e-01 7.108523e-01 7.148150e-01 
8.129531e-01 8.126114e-01 8.091900e-01 7.972141e-01 7.777685e-01 7.467221e-01 7.021235e-01 6.434140e-01 5.642841e-01 4.706546e-01 3.509579e-01 2.206697e-01 6.286491e-02 -9.553585e-02 -2.761115e-01 -4.417825e-01 -6.173362e-01 -7.613554e-01 -8.993966e-01 -9.951448e-01 -1.071790e+00 -1.106678e+00 -1.117670e+00 -1.098010e+00 -1.058193e+00 -1.003566e+00 -9.358345e-01 -8.673165e-01 -7.917339e-01 -7.240329e-01 -6.530511e-01 -5.928617e-01 -5.314643e-01 -4.795580e-01 -4.276391e-01 -3.818273e-01 -3.366578e-01 -2.939311e-01 -2.517242e-01 -2.091726e-01 -1.657701e-01 -1.207574e-01 -7.210470e-02 -2.238013e-02 3.459742e-02 9.038622e-02 1.563940e-01 2.176484e-01 2.896511e-01 3.527500e-01 4.238447e-01 4.825058e-01 5.443399e-01 5.923766e-01 6.394027e-01 6.740936e-01 7.062273e-01 7.292555e-01 7.504232e-01 7.656020e-01 7.802713e-01 7.906474e-01 8.011830e-01 8.073590e-01 
9.195015e-01 9.232035e-01 9.245386e-01 9.166549e-01 9.010480e-01 8.721156e-01 8.277345e-01 7.662421e-01 6.802349e-01 5.755498e-01 4.385572e-01 2.864743e-01 9.976605e-02 -9.048559e-02 -3.084625e-01 -5.106385e-01 -7.242935e-01 -9.003198e-01 -1.066842e+00 -1.181037e+00 -1.268629e+00 -1.304572e+00 -1.308791e+00 -1.276309e+00 -1.218971e+00 -1.145611e+00 -1.057759e+00 -9.713514e-01 -8.783885e-01 -7.969788e-01 -7.134385e-01 -6.441944e-01 -5.749368e-01 -5.176358e-01 -4.614805e-01 -4.126487e-01 -3.656540e-01 -3.212496e-01 -2.784939e-01 -2.347774e-01 -1.908533e-01 -1.442844e-01 -9.363715e-02 -4.085693e-02 2.110121e-02 8.258021e-02 1.574665e-01 2.276434e-01 3.119428e-01 3.864061e-01 4.708971e-01 5.409095e-01 6.138906e-01 6.704602e-01 7.241492e-01 7.633773e-01 7.981098e-01 8.227761e-01 8.446309e-01 8.605750e-01 8.761576e-01 8.880203e-01 9.009029e-01 9.099625e-01 
1.024771e+00 1.034347e+00 1.043338e+00 1.042229e+00 1.034437e+00 1.010765e+00 9.710543e-01 9.096025e-01 8.203349e-01 7.057197e-01 5.520390e-01 3.759112e-01 1.556457e-01 -7.290401e-02 -3.386745e-01 -5.866563e-01 -8.515309e-01 -1.068089e+00 -1.273016e+00 -1.408987e+00 -1.509308e+00 -1.542477e+00 -1.533622e+00 -1.479702e+00 -1.395349e+00 -1.295191e+00 -1.179634e+00 -1.071295e+00 -9.573503e-01 -8.623894e-01 -7.661553e-01 -6.903729e-01 -6.148747e-01 -5.549047e-01 -4.962366e-01 -4.458972e-01 -3.979634e-01 -3.517359e-01 -3.083550e-01 -2.620054e-01 -2.169245e-01 -1.667790e-01 -1.134337e-01 -5.583012e-02 1.170392e-02 7.997142e-02 1.644860e-01 2.441355e-01 3.419597e-01 4.280328e-01 5.272950e-01 6.084057e-01 6.930060e-01 7.569186e-01 8.161483e-01 8.578322e-01 8.930379e-01 9.171775e-01 9.377386e-01 9.530072e-01 9.684758e-01 9.814748e-01 9.969564e-01 1.009685e+00 
1.143094e+00 1.160211e+00 1.178763e+00 1.186884e+00 1.189138e+00 1.173556e+00 1.140386e+00 1.081292e+00 9.891061e-01 8.647850e-01 6.917834e-01 4.879378e-01 2.279328e-01 -4.703270e-02 -3.690439e-01 -6.736764e-01 -9.984351e-01 -1.265460e+00 -1.514763e+00 -1.677369e+00 -1.790168e+00 -1.818833e+00 -1.791205e+00 -1.709866e+00 -1.591905e+00 -1.458731e+00 -1.310332e+00 -1.174978e+00 -1.036509e+00 -9.241496e-01 -8.129901e-01 -7.281242e-01 -6.453664e-01 -5.816547e-01 -5.207961e-01 -4.695542e-01 -4.225400e-01 -3.768964e-01 -3.362560e-01 -2.912287e-01 -2.492307e-01 -2.001424e-01 -1.479530e-01 -8.948581e-02 -1.842554e-02 5.480677e-02 1.496986e-01 2.402611e-01 3.552650e-01 4.576285e-01 5.770160e-01 6.752423e-01 7.761350e-01 8.520398e-01 9.189026e-01 9.649196e-01 1.000492e+00 1.024077e+00 1.042538e+00 1.056640e+00 1.071571e+00 1.085649e+00 1.104098e+00 1.121251e+00 
1.257137e+00 1.284442e+00 1.316576e+00 1.337916e+00 1.356169e+00 1.353797e+00 1.334711e+00 1.283361e+00 1.195697e+00 1.064982e+00 8.760260e-01 6.421228e-01 3.365950e-01 4.930134e-03 -3.906114e-01 -7.682424e-01 -1.176923e+00 -1.510399e+00 -1.822584e+00 -2.018036e+00 -2.145145e+00 -2.161072e+00 -2.100222e+00 -1.973643e+00 -1.803380e+00 -1.622563e+00 -1.429010e+00 -1.261479e+00 -1.094741e+00 -9.679034e-01 -8.441492e-01 -7.565641e-01 -6.710471e-01 -6.092062e-01 -5.497953e-01 -5.003067e-01 -4.556180e-01 -4.099400e-01 -3.714316e-01 -3.247412e-01 -2.843235e-01 -2.325034e-01 -1.802597e-01 -1.179855e-01 -4.293091e-02 3.653534e-02 1.422583e-01 2.439112e-01 3.778060e-01 4.966214e-01 6.389149e-01 7.542312e-01 8.728745e-01 9.593300e-01 1.031949e+00 1.078997e+00 1.111080e+00 1.130638e+00 1.143603e+00 1.154422e+00 1.167156e+00 1.181937e+00 1.203619e+00 1.226409e+00 
1.385849e+00 1.425596e+00 1.474269e+00 1.512549e+00 1.550682e+00 1.566468e+00 1.565488e+00 1.526945e+00 1.445831e+00 1.310864e+00 1.102503e+00 8.337447e-01 4.724540e-01 7.124372e-02 -4.110529e-01 -8.794871e-01 -1.385848e+00 -1.802596e+00 -2.188481e+00 -2.424003e+00 -2.563421e+00 -2.561113e+00 -2.454087e+00 -2.269879e+00 -2.036399e+00 -1.798789e+00 -1.553974e+00 -1.348131e+00 -1.149420e+00 -1.003354e+00 -8.644424e-01 -7.706632e-01 -6.808684e-01 -6.191462e-01 -5.612509e-01 -5.140650e-01 -4.741145e-01 -4.318604e-01 -4.007072e-01 -3.586706e-01 -3.270154e-01 -2.802830e-01 -2.348357e-01 -1.758241e-01 -1.007325e-01 -1.896131e-02 9.824895e-02 2.125257e-01 3.711000e-01 5.142458e-01 6.888543e-01 8.321704e-01 9.770239e-01 1.082226e+00 1.163452e+00 1.213558e+00 1.240662e+00 1.254660e+00 1.259873e+00 1.265622e+00 1.275092e+00 1.289934e+00 1.315267e+00 1.344471e+00 
1.505062e+00 1.560781e+00 1.631089e+00 1.691882e+00 1.758313e+00 1.800421e+00 1.830039e+00 1.814524e+00 1.754720e+00 1.623610e+00 1.405691e+00 1.100527e+00 6.778838e-01 1.909236e-01 -4.063454e-01 -9.939219e-01 -1.643423e+00 -2.174557e+00 -2.670930e+00 -2.959374e+00 -3.112117e+00 -3.074071e+00 -2.886679e+00 -2.605857e+00 -2.271688e+00 -1.950939e+00 -1.636633e+00 -1.388350e+00 -1.156776e+00 -1.002063e+00 -8.567570e-01 -7.711069e-01 -6.872820e-01 -6.361832e-01 -5.865449e-01 -5.456392e-01 -5.120503e-01 -4.711863e-01 -4.451194e-01 -4.016609e-01 -3.751708e-01 -3.262234e-01 -2.852482e-01 -2.243526e-01 -1.494257e-01 -6.441985e-02 6.300277e-02 1.881329e-01 3.728906e-01 5.394779e-01 7.518512e-01 9.238458e-01 1.099292e+00 1.222638e+00 1.309636e+00 1.357871e+00 1.373050e+00 1.375896e+00 1.367636e+00 1.365273e+00 1.369021e+00 1.383683e+00 1.413011e+00 1.450419e+00 
1.639023e+00 1.713585e+00 1.809949e+00 1.898789e+00 2.000341e+00 2.077590e+00 2.146634e+00 2.165023e+00 2.132942e+00 2.012026e+00 1.779182e+00 1.430391e+00 9.267650e-01 3.335741e-01 -3.973007e-01 -1.131976e+00 -1.944492e+00 -2.620601e+00 -3.251998e+00 -3.605843e+00 -3.766280e+00 -3.677493e+00 -3.376868e+00 -2.971154e+00 -2.519293e+00 -2.104780e+00 -1.717459e+00 -1.422081e+00 -1.155576e+00 -9.869102e-01 -8.324069e-01 -7.498709e-01 -6.692154e-01 -6.254651e-01 -5.829167e-01 -5.480217e-01 -5.232188e-01 -4.883031e-01 -4.752870e-01 -4.404814e-01 -4.315669e-01 -3.935635e-01 -3.692533e-01 -3.186995e-01 -2.511306e-01 -1.709530e-01 -3.331680e-02 1.027726e-01 3.217445e-01 5.241105e-01 7.900572e-01 1.010651e+00 1.233261e+00 1.391084e+00 1.488383e+00 1.536790e+00 1.535632e+00 1.522205e+00 1.495254e+00 1.480224e+00 1.475975e+00 1.488688e+00 1.522437e+00 1.568693e+00 
1.755192e+00 1.852823e+00 1.980958e+00 2.105205e+00 2.253117e+00 2.378477e+00 2.507065e+00 2.578433e+00 2.601600e+00 2.507901e+00 2.282509e+00 1.890184e+00 1.305389e+00 5.829392e-01 -3.213190e-01 -1.247372e+00 -2.312384e+00 -3.199694e+00 -4.048760e+00 -4.501046e+00 -4.670194e+00 -4.495900e+00 -3.996820e+00 -3.372491e+00 -2.724611e+00 -2.169356e+00 -1.687453e+00 -1.349842e+00 -1.058211e+00 -9.046882e-01 -7.640712e-01 -7.141116e-01 -6.571840e-01 -6.384735e-01 -6.141164e-01 -5.897776e-01 -5.742409e-01 -5.398370e-01 -5.334252e-01 -4.953662e-01 -4.957789e-01 -4.544257e-01 -4.417732e-01 -3.915160e-01 -3.327074e-01 -2.572810e-01 -1.156377e-01 2.379772e-02 2.752465e-01 5.072565e-01 8.354699e-01 1.105055e+00 1.386653e+00 1.583454e+00 1.687677e+00 1.730410e+00 1.701269e+00 1.662893e+00 1.607860e+00 1.575582e+00 1.559739e+00 1.570379e+00 1.608943e+00 1.666389e+00 
1.883148e+00 2.007137e+00 2.173273e+00 2.340986e+00 2.547191e+00 2.736319e+00 2.943261e+00 3.089554e+00 3.183829e+00 3.129690e+00 2.898406e+00 2.445592e+00 1.733721e+00 8.546470e-01 -2.323127e-01 -1.381324e+00 -2.718033e+00 -3.884169e+00 -5.027910e+00 -5.609956e+00 -5.778961e+00 -5.482714e+00 -4.691050e+00 -3.773732e+00 -2.908668e+00 -2.211930e+00 -1.646248e+00 -1.269241e+00 -9.532379e-01 -8.068371e-01 -6.750621e-01 -6.484910e-01 -6.085008e-01 -6.078349e-01 -5.965485e-01 -5.793480e-01 -5.732132e-01 -5.441412e-01 -5.560343e-01 -5.309786e-01 -5.630153e-01 -5.406602e-01 -5.614662e-01 -5.308445e-01 -4.913181e-01 -4.340177e-01 -2.870827e-01 -1.483206e-01 1.444543e-01 4.219864e-01 8.331007e-01 1.183007e+00 1.555595e+00 1.826308e+00 1.945103e+00 1.984006e+00 1.917879e+00 1.842258e+00 1.748627e+00 1.688926e+00 1.656677e+00 1.661098e+00 1.704395e+00 1.773025e+00 
1.981491e+00 2.135851e+00 2.344864e+00 2.564602e+00 2.842026e+00 3.113808e+00 3.427640e+00 3.680192e+00 3.888396e+00 3.900029e+00 3.699416e+00 3.182945e+00 2.367210e+00 1.317527e+00 3.554533e-02 -1.374411e+00 -3.172487e+00 -4.784066e+00 -6.430764e+00 -7.230180e+00 -7.407714e+00 -6.937649e+00 -5.635478e+00 -4.177798e+00 -2.925767e+00 -2.012257e+00 -1.360862e+00 -9.831218e-01 -6.781904e-01 -6.068975e-01 -5.338369e-01 -5.843734e-01 -5.963527e-01 -6.375939e-01 -6.539758e-01 -6.444741e-01 -6.423791e-01 -6.057184e-01 -6.196627e-01 -5.854224e-01 -6.308824e-01 -5.992281e-01 -6.417852e-01 -6.079015e-01 -5.877080e-01 -5.452990e-01 -4.061312e-01 -2.847873e-01 3.906827e-02 3.386333e-01 8.374728e-01 1.252764e+00 1.739848e+00 2.102565e+00 2.228153e+00 2.257886e+00 2.137941e+00 2.013817e+00 1.868279e+00 1.774377e+00 1.720556e+00 1.718106e+00 1.766071e+00 1.848076e+00 
2.083393e+00 2.270693e+00 2.529651e+00 2.811218e+00 3.177591e+00 3.555725e+00 4.010233e+00 4.405651e+00 4.758348e+00 4.846598e+00 4.633085e+00 3.993518e+00 2.941721e+00 1.721764e+00 3.519610e-01 -1.281420e+00 -3.525404e+00 -5.793270e+00 -8.212306e+00 -9.280911e+00 -9.447335e+00 -8.744787e+00 -6.659001e+00 -4.452252e+00 -2.829949e+00 -1.774998e+00 -1.102106e+00 -7.439437e-01 -4.431547e-01 -4.191021e-01 -3.861729e-01 -4.905714e-01 -5.345816e-01 -6.005617e-01 -6.278213e-01 -6.119633e-01 -6.036181e-01 -5.603927e-01 -5.918152e-01 -5.753415e-01 -6.765218e-01 -6.752291e-01 -7.802376e-01 -7.689556e-01 -7.757663e-01 -7.593238e-01 -6.066672e-01 -5.075695e-01 -1.408275e-01 1.985911e-01 7.918332e-01 1.299024e+00 1.955642e+00 2.482922e+00 2.615472e+00 2.627064e+00 2.437857e+00 2.241458e+00 2.027896e+00 1.881507e+00 1.797577e+00 1.780219e+00 1.831026e+00 1.924639e+00 
2.140478e+00 2.361925e+00 2.670833e+00 3.019612e+00 3.481950e+00 3.984643e+00 4.604811e+00 5.178588e+00 5.716515e+00 5.900064e+00 5.705248e+00 4.918476e+00 3.724937e+00 2.405572e+00 1.206571e+00 -5.057044e-01 -3.696575e+00 -7.196451e+00 -1.089837e+01 -1.229616e+01 -1.245590e+01 -1.160875e+01 -8.235996e+00 -4.562424e+00 -2.175017e+00 -9.148103e-01 -3.653655e-01 -1.816445e-01 3.672987e-02 -1.272848e-01 -2.297905e-01 -4.721175e-01 -5.954024e-01 -7.025489e-01 -7.527588e-01 -7.134624e-01 -6.771595e-01 -6.037617e-01 -6.186125e-01 -5.853574e-01 -7.053673e-01 -6.798548e-01 -8.215151e-01 -7.788614e-01 -8.019689e-01 -7.912649e-01 -6.405954e-01 -5.813435e-01 -1.903363e-01 1.320428e-01 8.032972e-01 1.318986e+00 2.187267e+00 2.932218e+00 3.024544e+00 2.999391e+00 2.720317e+00 2.444327e+00 2.153742e+00 1.949938e+00 1.832013e+00 1.798756e+00 1.851480e+00 1.957257e+00 
2.184354e+00 2.438581e+00 2.799987e+00 3.220475e+00 3.793050e+00 4.440903e+00 5.268032e+00 6.065314e+00 6.849106e+00 7.144413e+00 6.932089e+00 5.842275e+00 3.989580e+00 2.614147e+00 2.234140e+00 1.005287e+00 -2.982170e+00 -8.768657e+00 -1.465648e+01 -1.600066e+01 -1.600564e+01 -1.525185e+01 -9.866947e+00 -3.985078e+00 -1.053222e+00 -2.530843e-02 1.730384e-01 1.569765e-01 3.720372e-01 1.307720e-01 -4.923676e-02 -3.781911e-01 -5.385262e-01 -6.615086e-01 -7.040304e-01 -6.053075e-01 -5.058035e-01 -3.994716e-01 -4.276373e-01 -4.443360e-01 -6.857999e-01 -7.293043e-01 -1.002284e+00 -9.643834e-01 -1.001959e+00 -9.926302e-01 -7.489349e-01 -7.359449e-01 -3.074782e-01 3.053652e-02 7.342989e-01 1.256758e+00 2.465779e+00 3.613728e+00 3.615641e+00 3.473232e+00 3.079724e+00 2.688098e+00 2.310054e+00 2.030109e+00 1.871080e+00 1.813032e+00 1.864156e+00 1.977993e+00 
2.166140e+00 2.447118e+00 2.848947e+00 3.331650e+00 3.995632e+00 4.779878e+00 5.794253e+00 6.823347e+00 7.854862e+00 8.317004e+00 8.228704e+00 6.955588e+00 4.491980e+00 2.785347e+00 4.421043e+00 5.141506e+00 -1.139947e+00 -1.189007e+01 -2.074875e+01 -2.072633e+01 -2.054502e+01 -2.155998e+01 -1.354397e+01 -2.838724e+00 2.006424e+00 2.609858e+00 1.656385e+00 1.023721e+00 1.208890e+00 6.546472e-01 2.418912e-01 -2.502819e-01 -4.882764e-01 -6.247437e-01 -6.864558e-01 -4.856321e-01 -2.876182e-01 -1.530628e-01 -1.725189e-01 -2.609643e-01 -6.143808e-01 -6.879821e-01 -1.086375e+00 -9.819747e-01 -1.028882e+00 -1.012505e+00 -7.237588e-01 -7.980593e-01 -4.122416e-01 -2.020633e-01 5.048358e-01 9.150403e-01 2.589754e+00 4.310892e+00 4.108749e+00 3.799176e+00 3.304147e+00 2.821572e+00 2.382003e+00 2.041046e+00 1.851083e+00 1.772457e+00 1.822461e+00 1.942531e+00 
2.108639e+00 2.406625e+00 2.836711e+00 3.365363e+00 4.103851e+00 5.005258e+00 6.208281e+00 7.496401e+00 8.927216e+00 9.804961e+00 1.047311e+01 8.887585e+00 3.241628e+00 -2.874061e-01 4.183642e+00 1.014671e+01 4.305275e+00 -1.488933e+01 -2.840585e+01 -2.469617e+01 -2.387554e+01 -2.848620e+01 -1.783377e+01 -4.120388e-01 5.334101e+00 3.729348e+00 1.801497e+00 1.365149e+00 1.866389e+00 1.487955e+00 1.140716e+00 7.454074e-01 5.179085e-01 3.075549e-01 2.872583e-01 6.160771e-01 9.736292e-01 1.156696e+00 1.067215e+00 6.996371e-01 -8.826034e-02 -5.937591e-01 -1.423584e+00 -1.480592e+00 -1.631065e+00 -1.668400e+00 -9.868085e-01 -1.285448e+00 -1.081963e+00 -9.923152e-01 -5.872428e-01 2.073231e-01 2.477160e+00 4.888993e+00 4.642625e+00 4.000823e+00 3.456994e+00 2.879643e+00 2.405268e+00 2.013682e+00 1.801982e+00 1.705501e+00 1.752982e+00 1.874963e+00 
1.976839e+00 2.276552e+00 2.708531e+00 3.249632e+00 4.002815e+00 4.948514e+00 6.207514e+00 7.625312e+00 9.187653e+00 1.027830e+01 1.092616e+01 9.113322e+00 1.643803e+00 -1.088241e+00 3.102280e+00 9.714452e+00 8.185722e+00 -1.515367e+01 -3.113313e+01 -2.550539e+01 -2.414093e+01 -3.230950e+01 -2.297857e+01 5.963884e-01 7.243278e+00 3.189236e+00 1.814312e+00 2.059426e+00 2.212520e+00 2.229819e+00 1.923268e+00 1.660191e+00 1.514419e+00 1.291020e+00 1.474119e+00 1.817356e+00 2.221779e+00 2.433461e+00 2.292901e+00 1.852982e+00 9.567284e-01 1.262333e-01 -7.581003e-01 -1.197307e+00 -1.357212e+00 -1.600332e+00 -7.485956e-01 -1.346847e+00 -1.421095e+00 -1.057985e+00 -1.348182e+00 -1.134408e-01 1.555504e+00 3.551421e+00 3.957025e+00 3.474976e+00 3.206215e+00 2.684943e+00 2.271364e+00 1.879356e+00 1.676940e+00 1.575823e+00 1.624125e+00 1.744003e+00 
1.782690e+00 2.066446e+00 2.471363e+00 2.983387e+00 3.684290e+00 4.577978e+00 5.735302e+00 7.085651e+00 8.457988e+00 9.468430e+00 9.414530e+00 7.850509e+00 2.712418e+00 2.289680e+00 3.206609e+00 3.457928e+00 1.320381e+00 -1.505911e+01 -2.449886e+01 -2.263809e+01 -2.150306e+01 -2.538922e+01 -2.050477e+01 -1.720587e+00 4.403063e+00 1.823748e+00 2.126341e+00 2.479145e+00 2.275529e+00 2.344870e+00 2.110535e+00 1.890001e+00 1.847631e+00 1.692779e+00 1.883816e+00 2.040731e+00 2.234034e+00 2.293352e+00 2.108761e+00 1.803540e+00 1.231511e+00 6.388105e-01 1.725450e-01 -3.312039e-01 -4.285254e-01 -8.153425e-01 -4.282111e-01 -1.047847e+00 -1.184840e+00 -6.068421e-01 -1.013694e+00 -1.702491e-01 3.622272e-01 1.471336e+00 2.443597e+00 2.587571e+00 2.647444e+00 2.312299e+00 1.995370e+00 1.658725e+00 1.485751e+00 1.398367e+00 1.448230e+00 1.563205e+00 
1.520613e+00 1.771049e+00 2.125791e+00 2.575831e+00 3.182275e+00 3.959670e+00 4.946498e+00 6.126901e+00 7.304113e+00 8.279751e+00 8.213605e+00 7.266344e+00 4.009874e+00 3.427385e+00 2.853721e+00 2.114197e-01 -3.794271e+00 -1.318990e+01 -1.752308e+01 -1.932257e+01 -1.894301e+01 -1.790139e+01 -1.513680e+01 -4.865438e+00 3.897644e-02 4.749536e-01 1.583693e+00 2.021753e+00 2.097343e+00 2.247012e+00 2.197712e+00 2.098816e+00 2.087822e+00 1.967785e+00 2.024153e+00 2.037287e+00 2.070786e+00 1.998697e+00 1.792169e+00 1.502953e+00 1.075738e+00 6.366179e-01 3.064801e-01 -1.176316e-01 -2.360066e-01 -6.137313e-01 -5.056919e-01 -9.210531e-01 -9.672874e-01 -4.997078e-01 -6.444626e-01 -9.300646e-02 1.579500e-01 9.767973e-01 1.798982e+00 2.102394e+00 2.204543e+00 1.942335e+00 1.681007e+00 1.393887e+00 1.251580e+00 1.177845e+00 1.225180e+00 1.326939e+00 
1.197446e+00 1.398888e+00 1.679534e+00 2.035949e+00 2.504231e+00 3.106249e+00 3.844748e+00 4.747157e+00 5.617078e+00 6.425087e+00 6.458839e+00 6.036600e+00 4.120129e+00 3.330680e+00 2.499857e+00 3.961527e-01 -2.638610e+00 -9.392547e+00 -1.329238e+01 -1.550992e+01 -1.610759e+01 -1.536626e+01 -1.243316e+01 -4.983937e+00 -8.949566e-01 4.516060e-01 1.400412e+00 1.742774e+00 1.822752e+00 1.866188e+00 1.792447e+00 1.691811e+00 1.650350e+00 1.552249e+00 1.564892e+00 1.534335e+00 1.525923e+00 1.449138e+00 1.311403e+00 1.119859e+00 8.737758e-01 5.900696e-01 3.828594e-01 6.994074e-02 -3.880855e-02 -3.460258e-01 -3.482027e-01 -5.990519e-01 -6.371089e-01 -3.403122e-01 -3.761835e-01 6.615142e-02 2.718245e-01 8.216801e-01 1.373206e+00 1.607986e+00 1.674964e+00 1.476188e+00 1.279445e+00 1.065911e+00 9.641279e-01 9.139179e-01 9.567629e-01 1.041489e+00 
8.282165e-01 9.691519e-01 1.164512e+00 1.411699e+00 1.732110e+00 2.141406e+00 2.633455e+00 3.235752e+00 3.806821e+00 4.365776e+00 4.431439e+00 4.251299e+00 3.152148e+00 2.483665e+00 1.690079e+00 5.792154e-02 -1.914932e+00 -5.731322e+00 -8.254853e+00 -1.042609e+01 -1.125076e+01 -1.046243e+01 -8.453578e+00 -4.169630e+00 -1.502572e+00 -1.498851e-01 6.707799e-01 1.001663e+00 1.148131e+00 1.223912e+00 1.228353e+00 1.195303e+00 1.183436e+00 1.128484e+00 1.124621e+00 1.088547e+00 1.062512e+00 9.922764e-01 8.898586e-01 7.529141e-01 5.920226e-01 4.062097e-01 2.693939e-01 6.276576e-02 -2.196188e-02 -2.307716e-01 -2.645794e-01 -4.092274e-01 -4.240745e-01 -2.346779e-01 -1.864495e-01 1.327832e-01 3.125723e-01 6.846441e-01 1.004387e+00 1.143050e+00 1.157080e+00 1.011394e+00 8.724998e-01 7.272322e-01 6.602406e-01 6.274271e-01 6.590914e-01 7.187665e-01 
4.222101e-01 4.945635e-01 5.936286e-01 7.190126e-01 8.787705e-01 1.082989e+00 1.322829e+00 1.618924e+00 1.893328e+00 2.174347e+00 2.222311e+00 2.171361e+00 1.696398e+00 1.341730e+00 9.264446e-01 1.485560e-01 -7.698841e-01 -2.635057e+00 -4.033897e+00 -5.248411e+00 -5.844607e+00 -5.612128e+00 -4.543526e+00 -2.353490e+00 -9.035635e-01 -8.179051e-02 3.587126e-01 5.379149e-01 6.050891e-01 6.283784e-01 6.175092e-01 5.919535e-01 5.780816e-01 5.477254e-01 5.435194e-01 5.233454e-01 5.107979e-01 4.779598e-01 4.346125e-01 3.743822e-01 3.081740e-01 2.240458e-01 1.642510e-01 6.384756e-02 1.990344e-02 -8.650474e-02 -1.140797e-01 -1.834416e-01 -1.970507e-01 -1.094760e-01 -7.713517e-02 9.234031e-02 1.937934e-01 3.731394e-01 5.181475e-01 5.766572e-01 5.763250e-01 5.015612e-01 4.330301e-01 3.626138e-01 3.313936e-01 3.169856e-01 3.344821e-01 3.659661e-01 
-1.559604e-14 -2.456351e-14 -2.293895e-14 -3.041910e-14 -3.040528e-14 -3.161151e-14 -2.795791e-14 -1.856225e-14 -2.145249e-15 2.307311e-14 7.604121e-14 9.892759e-14 2.089198e-13 6.458477e-14 -8.519548e-15 -4.609711e-13 -6.092644e-13 -5.726004e-13 -4.641568e-13 -3.336501e-13 -2.560344e-13 -9.881026e-14 -7.673668e-16 8.310627e-14 9.057430e-15 -3.918582e-14 -1.681007e-13 -5.875858e-14 -1.316268e-13 -2.497816e-15 3.960475e-14 3.192429e-14 5.076423e-14 2.771824e-14 2.101009e-15 3.646129e-14 -2.500006e-14 2.554234e-14 -1.174457e-13 -7.144483e-14 -1.800298e-13 -1.376665e-13 -1.506289e-13 -2.038445e-13 -8.527552e-14 -1.479193e-13 2.002326e-14 7.042930e-14 1.321125e-13 1.917543e-13 1.779930e-13 1.772432e-13 1.514991e-13 1.303294e-13 1.148005e-13 5.274793e-14 3.759210e-14 -1.052735e-14 -4.888737e-15 -2.807270e-14 -1.303202e-14 -2.534190e-14 -1.241205e-14 -2.224597e-14 
-4.222101e-01 -4.945635e-01 -5.936286e-01 -7.190126e-01 -8.787705e-01 -1.082989e+00 -1.322829e+00 -1.618924e+00 -1.893328e+00 -2.174347e+00 -2.222311e+00 -2.171361e+00 -1.696398e+00 -1.341730e+00 -9.264446e-01 -1.485560e-01 7.698841e-01 2.635057e+00 4.033897e+00 5.248411e+00 5.844607e+00 5.612128e+00 4.543526e+00 2.353490e+00 9.035635e-01 8.179051e-02 -3.587126e-01 -5.379149e-01 -6.050891e-01 -6.283784e-01 -6.175092e-01 -5.919535e-01 -5.780816e-01 -5.477254e-01 -5.435194e-01 -5.233454e-01 -5.107979e-01 -4.779598e-01 -4.346125e-01 -3.743822e-01 -3.081740e-01 -2.240458e-01 -1.642510e-01 -6.384756e-02 -1.990344e-02 8.650474e-02 1.140797e-01 1.834416e-01 1.970507e-01 1.094760e-01 7.713517e-02 -9.234031e-02 -1.937934e-01 -3.731394e-01 -5.181475e-01 -5.766572e-01 -5.763250e-01 -5.015612e-01 -4.330301e-01 -3.626138e-01 -3.313936e-01 -3.169856e-01 -3.344821e-01 -3.659661e-01 