# vtk DataFile Version 2.0
Comment goes here
ASCII

DATASET STRUCTURED_POINTS
DIMENSIONS    64   64   1

ORIGIN    0.000   0.000   0.000
SPACING   0.0781250.078125   1.000

POINT_DATA   4096
SCALARS uY double
LOOKUP_TABLE default

-3.541398e-16 -1.240838e-15 -1.641683e-16 -1.093775e-15 2.551175e-16 -1.124870e-15 1.265772e-16 -1.565449e-15 -4.625259e-16 -1.853639e-15 -5.374387e-16 -1.883817e-15 1.107621e-16 -1.108453e-15 2.590726e-16 -1.049778e-15 -1.982449e-16 -1.245055e-15 -7.568828e-16 -6.318773e-16 3.367831e-16 1.599237e-16 -1.082399e-16 -1.646904e-17 -2.169291e-15 -1.738043e-15 -3.299959e-15 -1.764266e-15 -2.664723e-15 -3.471927e-16 -1.672194e-15 4.272458e-16 -1.234090e-15 1.051312e-15 -4.940603e-16 2.110277e-15 1.164306e-15 2.266069e-15 1.443360e-15 1.967365e-15 1.661048e-15 2.090862e-15 2.669259e-15 2.797421e-15 2.362618e-15 1.852932e-15 2.026270e-15 2.053032e-15 3.019304e-15 2.807880e-15 3.003215e-15 3.580836e-15 2.792224e-15 2.492076e-15 2.124508e-15 1.127203e-15 6.948043e-16 -3.312817e-17 -5.987254e-16 -1.066747e-15 -8.495567e-16 -1.342014e-15 -8.768052e-16 -1.372387e-15 
-7.798822e-02 -8.000124e-02 -8.055935e-02 -8.074102e-02 -7.949848e-02 -7.804115e-02 -7.529509e-02 -7.246932e-02 -6.856759e-02 -6.471263e-02 -6.003767e-02 -5.553066e-02 -5.045668e-02 -4.565527e-02 -4.048397e-02 -3.566064e-02 -3.056384e-02 -2.586259e-02 -2.086241e-02 -1.629457e-02 -1.129044e-02 -6.766252e-03 -1.595891e-03 3.021536e-03 8.510143e-03 1.334394e-02 1.923199e-02 2.433910e-02 3.060054e-02 3.593902e-02 4.242721e-02 4.784526e-02 5.429233e-02 5.953262e-02 6.555408e-02 7.026725e-02 7.537528e-02 7.914331e-02 8.277977e-02 8.515470e-02 8.675297e-02 8.731284e-02 8.638772e-02 8.480496e-02 8.105733e-02 7.716836e-02 7.058167e-02 6.444430e-02 5.534386e-02 4.726822e-02 3.631596e-02 2.685427e-02 1.496299e-02 4.846713e-03 -6.975989e-03 -1.694931e-02 -2.778190e-02 -3.688199e-02 -4.602963e-02 -5.369672e-02 -6.074826e-02 -6.663392e-02 -7.143839e-02 -7.538911e-02 
-1.574803e-01 -1.615479e-01 -1.626168e-01 -1.630300e-01 -1.605161e-01 -1.576671e-01 -1.521735e-01 -1.466050e-01 -1.388307e-01 -1.312185e-01 -1.219271e-01 -1.130171e-01 -1.029479e-01 -9.343779e-02 -8.317187e-02 -7.357841e-02 -6.342459e-02 -5.400362e-02 -4.396927e-02 -3.471918e-02 -2.457784e-02 -1.531152e-02 -4.733635e-03 4.811502e-03 1.611391e-02 2.615713e-02 3.831542e-02 4.893401e-02 6.185999e-02 7.293177e-02 8.629950e-02 9.748771e-02 1.107359e-01 1.215017e-01 1.338420e-01 1.434716e-01 1.539119e-01 1.615625e-01 1.689702e-01 1.737455e-01 1.769709e-01 1.780316e-01 1.760903e-01 1.727893e-01 1.650765e-01 1.570971e-01 1.435873e-01 1.310578e-01 1.124293e-01 9.598611e-02 7.361091e-02 5.438088e-02 3.014627e-02 9.620943e-03 -1.439897e-02 -3.459542e-02 -5.652041e-02 -7.490867e-02 -9.334350e-02 -1.088026e-01 -1.229467e-01 -1.347938e-01 -1.443809e-01 -1.523306e-01 
-2.379432e-01 -2.438749e-01 -2.453083e-01 -2.456601e-01 -2.416349e-01 -2.369917e-01 -2.284055e-01 -2.195888e-01 -2.075012e-01 -1.955595e-01 -1.811608e-01 -1.672828e-01 -1.517596e-01 -1.370836e-01 -1.213981e-01 -1.067845e-01 -9.147202e-02 -7.735686e-02 -6.245658e-02 -4.884238e-02 -3.399181e-02 -2.055566e-02 -5.196369e-03 8.533019e-03 2.491745e-02 3.936179e-02 5.705136e-02 7.241420e-02 9.134433e-02 1.075110e-01 1.272427e-01 1.437536e-01 1.634787e-01 1.795485e-01 1.981004e-01 2.126575e-01 2.285398e-01 2.402915e-01 2.517677e-01 2.593143e-01 2.645946e-01 2.666020e-01 2.641259e-01 2.595417e-01 2.483154e-01 2.365915e-01 2.165057e-01 1.977844e-01 1.698206e-01 1.450420e-01 1.112720e-01 8.215537e-02 4.547376e-02 1.432669e-02 -2.206284e-02 -5.271397e-02 -8.590628e-02 -1.137670e-01 -1.416206e-01 -1.649705e-01 -1.862755e-01 -2.040857e-01 -2.184567e-01 -2.303109e-01 
-3.229232e-01 -3.308287e-01 -3.324674e-01 -3.328996e-01 -3.272680e-01 -3.210259e-01 -3.093392e-01 -2.975263e-01 -2.812141e-01 -2.652443e-01 -2.459231e-01 -2.274066e-01 -2.066882e-01 -1.871525e-01 -1.663124e-01 -1.468705e-01 -1.265553e-01 -1.077148e-01 -8.787188e-02 -6.955791e-02 -4.960390e-02 -3.133291e-02 -1.046469e-02 8.406725e-03 3.087970e-02 5.088853e-02 7.529199e-02 9.665049e-02 1.228267e-01 1.453059e-01 1.726010e-01 1.955154e-01 2.227991e-01 2.450433e-01 2.707158e-01 2.908169e-01 3.128303e-01 3.290270e-01 3.449925e-01 3.553819e-01 3.628178e-01 3.655863e-01 3.623087e-01 3.560242e-01 3.406239e-01 3.245384e-01 2.968400e-01 2.711462e-01 2.325161e-01 1.985041e-01 1.518656e-01 1.119138e-01 6.137031e-02 1.869415e-02 -3.122558e-02 -7.309954e-02 -1.183440e-01 -1.562429e-01 -1.939122e-01 -2.255136e-01 -2.540669e-01 -2.780457e-01 -2.970993e-01 -3.129816e-01 
-4.100190e-01 -4.195240e-01 -4.210904e-01 -4.210245e-01 -4.133175e-01 -4.046652e-01 -3.891783e-01 -3.733216e-01 -3.518583e-01 -3.306421e-01 -3.053337e-01 -2.809485e-01 -2.540152e-01 -2.286062e-01 -2.018724e-01 -1.770338e-01 -1.514661e-01 -1.279343e-01 -1.034955e-01 -8.115654e-02 -5.701666e-02 -3.513840e-02 -1.010601e-02 1.231424e-02 3.931375e-02 6.316453e-02 9.271812e-02 1.184499e-01 1.504851e-01 1.779379e-01 2.117184e-01 2.401060e-01 2.742738e-01 3.022432e-01 3.348213e-01 3.605135e-01 3.889067e-01 4.100408e-01 4.311476e-01 4.451991e-01 4.557233e-01 4.602306e-01 4.571982e-01 4.501623e-01 4.315661e-01 4.118676e-01 3.773003e-01 3.450577e-01 2.961571e-01 2.529580e-01 1.934743e-01 1.423947e-01 7.771858e-02 2.301204e-02 -4.084892e-02 -9.447535e-02 -1.521676e-01 -2.005115e-01 -2.482794e-01 -2.883415e-01 -3.242837e-01 -3.544333e-01 -3.781737e-01 -3.978954e-01 
-5.046451e-01 -5.158809e-01 -5.170541e-01 -5.167024e-01 -5.067356e-01 -4.959945e-01 -4.766839e-01 -4.572118e-01 -4.307454e-01 -4.048092e-01 -3.738475e-01 -3.441995e-01 -3.115580e-01 -2.808867e-01 -2.488267e-01 -2.190304e-01 -1.886066e-01 -1.604211e-01 -1.313514e-01 -1.044553e-01 -7.548999e-02 -4.885589e-02 -1.838723e-02 9.274053e-03 4.259057e-02 7.235165e-02 1.091550e-01 1.414802e-01 1.815565e-01 2.161266e-01 2.584757e-01 2.942196e-01 3.371361e-01 3.723304e-01 4.133817e-01 4.457142e-01 4.816896e-01 5.083339e-01 5.353402e-01 5.531557e-01 5.669875e-01 5.728954e-01 5.696914e-01 5.611732e-01 5.382597e-01 5.138791e-01 4.706237e-01 4.304797e-01 3.689218e-01 3.149654e-01 2.399586e-01 1.760695e-01 9.468799e-02 2.633122e-02 -5.353851e-02 -1.202671e-01 -1.917289e-01 -2.514639e-01 -3.099059e-01 -3.589756e-01 -4.023195e-01 -4.389020e-01 -4.670316e-01 -4.907236e-01 
-6.028677e-01 -6.152944e-01 -6.157067e-01 -6.142336e-01 -6.013485e-01 -5.873015e-01 -5.631088e-01 -5.383659e-01 -5.053955e-01 -4.727159e-01 -4.342787e-01 -3.972442e-01 -3.570784e-01 -3.193461e-01 -2.805987e-01 -2.448009e-01 -2.090153e-01 -1.761803e-01 -1.430311e-01 -1.126974e-01 -8.045758e-02 -5.113765e-02 -1.750610e-02 1.271708e-02 4.974278e-02 8.254789e-02 1.240337e-01 1.602916e-01 2.061626e-01 2.456846e-01 2.948668e-01 3.364815e-01 3.870655e-01 4.287913e-01 4.779889e-01 5.170952e-01 5.611009e-01 5.941399e-01 6.281754e-01 6.511918e-01 6.699361e-01 6.789424e-01 6.773622e-01 6.689966e-01 6.434372e-01 6.156509e-01 5.649610e-01 5.176158e-01 4.440241e-01 3.793324e-01 2.887412e-01 2.114442e-01 1.127658e-01 2.978772e-02 -6.689624e-02 -1.477066e-01 -2.336510e-01 -3.054816e-01 -3.750617e-01 -4.334675e-01 -4.844195e-01 -5.274213e-01 -5.599427e-01 -5.873161e-01 
-7.115702e-01 -7.252608e-01 -7.243556e-01 -7.220152e-01 -7.059137e-01 -6.890104e-01 -6.598858e-01 -6.304857e-01 -5.912044e-01 -5.525507e-01 -5.071340e-01 -4.636702e-01 -4.168461e-01 -3.731458e-01 -3.288125e-01 -2.879284e-01 -2.476780e-01 -2.104679e-01 -1.734189e-01 -1.389653e-01 -1.025941e-01 -6.888348e-02 -3.015841e-02 5.220104e-03 4.873809e-02 8.778421e-02 1.371949e-01 1.808018e-01 2.357713e-01 2.834996e-01 3.426017e-01 3.928957e-01 4.538735e-01 5.043280e-01 5.639671e-01 6.113554e-01 6.651866e-01 7.054159e-01 7.476706e-01 7.759883e-01 8.000800e-01 8.116443e-01 8.111888e-01 8.018753e-01 7.720794e-01 7.393105e-01 6.784539e-01 6.219177e-01 5.325722e-01 4.547978e-01 3.443448e-01 2.510531e-01 1.309475e-01 3.080767e-02 -8.590433e-02 -1.828614e-01 -2.851474e-01 -3.703956e-01 -4.516840e-01 -5.200444e-01 -5.782909e-01 -6.278769e-01 -6.640721e-01 -6.951331e-01 
-8.258006e-01 -8.400929e-01 -8.375039e-01 -8.332894e-01 -8.132319e-01 -7.919063e-01 -7.564750e-01 -7.200843e-01 -6.722951e-01 -6.245717e-01 -5.692683e-01 -5.159321e-01 -4.593884e-01 -4.067060e-01 -3.544028e-01 -3.066206e-01 -2.609422e-01 -2.192649e-01 -1.791295e-01 -1.422853e-01 -1.042441e-01 -6.939668e-02 -2.916829e-02 7.178689e-03 5.316012e-02 9.404446e-02 1.475292e-01 1.944961e-01 2.552671e-01 3.080242e-01 3.745088e-01 4.313290e-01 5.011110e-01 5.593210e-01 6.289406e-01 6.849060e-01 7.493032e-01 7.981988e-01 8.504876e-01 8.864527e-01 9.184552e-01 9.353208e-01 9.388506e-01 9.312076e-01 8.998344e-01 8.641077e-01 7.950593e-01 7.304114e-01 6.262171e-01 5.352999e-01 4.046826e-01 2.942428e-01 1.514811e-01 3.237202e-02 -1.058739e-01 -2.206922e-01 -3.405059e-01 -4.402753e-01 -5.339246e-01 -6.126535e-01 -6.784121e-01 -7.344854e-01 -7.743215e-01 -8.086568e-01 
-9.532060e-01 -9.680008e-01 -9.628647e-01 -9.570570e-01 -9.326419e-01 -9.075030e-01 -8.656946e-01 -8.231200e-01 -7.670012e-01 -7.111877e-01 -6.465874e-01 -5.847395e-01 -5.198353e-01 -4.600596e-01 -4.018619e-01 -3.490352e-01 -2.998386e-01 -2.545195e-01 -2.120112e-01 -1.720092e-01 -1.312606e-01 -9.288150e-02 -4.833984e-02 -7.246121e-03 4.536623e-02 9.279669e-02 1.551366e-01 2.104558e-01 2.817318e-01 3.441677e-01 4.222688e-01 4.895152e-01 5.717619e-01 6.407020e-01 7.233947e-01 7.899297e-01 8.673860e-01 9.259485e-01 9.900423e-01 1.033698e+00 1.074438e+00 1.095779e+00 1.102868e+00 1.095338e+00 1.060377e+00 1.019543e+00 9.385023e-01 8.630620e-01 7.385339e-01 6.312344e-01 4.738721e-01 3.425079e-01 1.706352e-01 2.866693e-02 -1.359091e-01 -2.716375e-01 -4.113080e-01 -5.272572e-01 -6.334275e-01 -7.229651e-01 -7.951163e-01 -8.574498e-01 -8.994110e-01 -9.366761e-01 
-1.088506e+00 -1.103114e+00 -1.095251e+00 -1.086887e+00 -1.057555e+00 -1.026896e+00 -9.772066e-01 -9.254317e-01 -8.579785e-01 -7.894919e-01 -7.110467e-01 -6.351472e-01 -5.567437e-01 -4.848723e-01 -4.166288e-01 -3.556603e-01 -3.011686e-01 -2.519174e-01 -2.082410e-01 -1.677172e-01 -1.281529e-01 -9.127137e-02 -4.801375e-02 -8.584891e-03 4.459163e-02 9.199891e-02 1.576828e-01 2.156388e-01 2.928654e-01 3.605764e-01 4.467647e-01 5.214595e-01 6.138889e-01 6.922153e-01 7.873113e-01 8.649581e-01 9.566335e-01 1.027241e+00 1.105967e+00 1.161043e+00 1.214499e+00 1.244629e+00 1.259705e+00 1.256363e+00 1.221945e+00 1.179132e+00 1.089180e+00 1.004602e+00 8.610605e-01 7.371902e-01 5.522542e-01 3.978149e-01 1.943150e-01 2.609105e-02 -1.676160e-01 -3.272246e-01 -4.886223e-01 -6.223332e-01 -7.417656e-01 -8.424301e-01 -9.210182e-01 -9.892360e-01 -1.033149e+00 -1.072738e+00 
-1.238975e+00 -1.252990e+00 -1.241225e+00 -1.230664e+00 -1.196041e+00 -1.160760e+00 -1.103181e+00 -1.043230e+00 -9.644438e-01 -8.842660e-01 -7.923003e-01 -7.039651e-01 -6.139662e-01 -5.332475e-01 -4.588877e-01 -3.935600e-01 -3.377247e-01 -2.864792e-01 -2.434343e-01 -2.015700e-01 -1.619927e-01 -1.232796e-01 -7.720257e-02 -3.402494e-02 2.600769e-02 8.025070e-02 1.562861e-01 2.240705e-01 3.137405e-01 3.931798e-01 4.929414e-01 5.802547e-01 6.874585e-01 7.789840e-01 8.904073e-01 9.816563e-01 1.090864e+00 1.174689e+00 1.270619e+00 1.337008e+00 1.404707e+00 1.442368e+00 1.465406e+00 1.464093e+00 1.427989e+00 1.380409e+00 1.276570e+00 1.179516e+00 1.009119e+00 8.645312e-01 6.419152e-01 4.590165e-01 2.135819e-01 1.290736e-02 -2.171120e-01 -4.051852e-01 -5.908097e-01 -7.441064e-01 -8.756624e-01 -9.871651e-01 -1.069382e+00 -1.142314e+00 -1.185273e+00 -1.226128e+00 
-1.399817e+00 -1.412715e+00 -1.397401e+00 -1.384191e+00 -1.344466e+00 -1.303281e+00 -1.236735e+00 -1.165167e+00 -1.071280e+00 -9.727311e-01 -8.601036e-01 -7.502027e-01 -6.398124e-01 -5.418884e-01 -4.541041e-01 -3.791277e-01 -3.187462e-01 -2.648958e-01 -2.243733e-01 -1.852458e-01 -1.519598e-01 -1.192313e-01 -7.917565e-02 -4.210945e-02 1.564897e-02 6.697899e-02 1.457909e-01 2.155013e-01 3.117313e-01 3.971521e-01 5.057396e-01 6.016574e-01 7.202908e-01 8.230458e-01 9.496949e-01 1.055382e+00 1.183863e+00 1.284668e+00 1.402162e+00 1.485753e+00 1.573791e+00 1.625696e+00 1.663450e+00 1.670410e+00 1.638983e+00 1.591403e+00 1.478568e+00 1.371643e+00 1.176503e+00 1.010999e+00 7.488738e-01 5.336416e-01 2.410696e-01 1.277757e-03 -2.703535e-01 -4.920820e-01 -7.046814e-01 -8.794976e-01 -1.023573e+00 -1.145564e+00 -1.230802e+00 -1.307328e+00 -1.348776e+00 -1.389951e+00 
-1.576192e+00 -1.587140e+00 -1.566974e+00 -1.551781e+00 -1.507036e+00 -1.461547e+00 -1.386448e+00 -1.304673e+00 -1.195197e+00 -1.078584e+00 -9.440989e-01 -8.135083e-01 -6.847341e-01 -5.753177e-01 -4.818880e-01 -4.053382e-01 -3.485655e-01 -2.960596e-01 -2.617853e-01 -2.242742e-01 -1.958293e-01 -1.643943e-01 -1.242440e-01 -8.560653e-02 -2.024101e-02 3.828533e-02 1.303252e-01 2.124117e-01 3.239689e-01 4.241705e-01 5.482101e-01 6.592519e-01 7.946167e-01 9.132254e-01 1.059804e+00 1.182922e+00 1.334944e+00 1.454036e+00 1.596765e+00 1.697164e+00 1.808271e+00 1.872470e+00 1.925962e+00 1.938146e+00 1.909484e+00 1.858398e+00 1.730537e+00 1.610001e+00 1.379304e+00 1.188270e+00 8.709247e-01 6.159457e-01 2.587691e-01 -3.105278e-02 -3.553887e-01 -6.180406e-01 -8.592387e-01 -1.056922e+00 -1.209119e+00 -1.339353e+00 -1.421546e+00 -1.498562e+00 -1.533359e+00 -1.572544e+00 
-1.764578e+00 -1.773571e+00 -1.750016e+00 -1.733800e+00 -1.686071e+00 -1.636747e+00 -1.553860e+00 -1.459083e+00 -1.330163e+00 -1.185919e+00 -1.018145e+00 -8.509625e-01 -6.882551e-01 -5.533632e-01 -4.411771e-01 -3.539033e-01 -2.950766e-01 -2.429539e-01 -2.181859e-01 -1.887706e-01 -1.757672e-01 -1.579210e-01 -1.319982e-01 -1.072383e-01 -4.829595e-02 2.761464e-03 9.824218e-02 1.822848e-01 3.024912e-01 4.107880e-01 5.440314e-01 6.648262e-01 8.116626e-01 9.427620e-01 1.107130e+00 1.248682e+00 1.426784e+00 1.570117e+00 1.744868e+00 1.871431e+00 2.014918e+00 2.101836e+00 2.181207e+00 2.208053e+00 2.191854e+00 2.144359e+00 2.009466e+00 1.879528e+00 1.617285e+00 1.401352e+00 1.025319e+00 7.240813e-01 2.911777e-01 -6.285571e-02 -4.502555e-01 -7.629941e-01 -1.036202e+00 -1.258069e+00 -1.417110e+00 -1.553067e+00 -1.629909e+00 -1.704608e+00 -1.731371e+00 -1.767036e+00 
-1.965452e+00 -1.971213e+00 -1.943383e+00 -1.927681e+00 -1.878549e+00 -1.828792e+00 -1.740148e+00 -1.635018e+00 -1.485419e+00 -1.311466e+00 -1.103849e+00 -8.961344e-01 -6.992730e-01 -5.496935e-01 -4.356910e-01 -3.563570e-01 -3.124829e-01 -2.675651e-01 -2.586974e-01 -2.344715e-01 -2.346986e-01 -2.237877e-01 -2.030136e-01 -1.815703e-01 -1.123589e-01 -5.334461e-02 6.166666e-02 1.632849e-01 3.035603e-01 4.316726e-01 5.810404e-01 7.190662e-01 8.826684e-01 1.031451e+00 1.218947e+00 1.382509e+00 1.592091e+00 1.761137e+00 1.973020e+00 2.124922e+00 2.305480e+00 2.411994e+00 2.520542e+00 2.557446e+00 2.553299e+00 2.504936e+00 2.356584e+00 2.213727e+00 1.906175e+00 1.662117e+00 1.202772e+00 8.465135e-01 3.052651e-01 -1.355833e-01 -6.039015e-01 -9.788543e-01 -1.281372e+00 -1.526023e+00 -1.679978e+00 -1.814770e+00 -1.874377e+00 -1.940084e+00 -1.950467e+00 -1.978366e+00 
-2.177093e+00 -2.180699e+00 -2.151936e+00 -2.140565e+00 -2.095731e+00 -2.050449e+00 -1.961830e+00 -1.847420e+00 -1.675826e+00 -1.459073e+00 -1.192704e+00 -9.143796e-01 -6.555547e-01 -4.693364e-01 -3.293238e-01 -2.408422e-01 -2.017340e-01 -1.632062e-01 -1.764542e-01 -1.680398e-01 -2.000641e-01 -2.154563e-01 -2.234633e-01 -2.300460e-01 -1.732343e-01 -1.292436e-01 -5.678810e-03 1.008349e-01 2.561126e-01 3.986081e-01 5.556312e-01 7.033853e-01 8.744049e-01 1.033747e+00 1.239638e+00 1.425811e+00 1.670658e+00 1.875138e+00 2.135130e+00 2.327577e+00 2.559485e+00 2.701838e+00 2.854428e+00 2.915426e+00 2.937674e+00 2.898450e+00 2.749990e+00 2.600644e+00 2.256885e+00 1.989403e+00 1.441302e+00 1.021229e+00 3.465648e-01 -2.149546e-01 -7.850691e-01 -1.237835e+00 -1.571457e+00 -1.835739e+00 -1.978219e+00 -2.103769e+00 -2.140288e+00 -2.191006e+00 -2.182243e+00 -2.200031e+00 
-2.391750e+00 -2.391635e+00 -2.362459e+00 -2.358737e+00 -2.323167e+00 -2.289891e+00 -2.208030e+00 -2.091105e+00 -1.896172e+00 -1.628318e+00 -1.280429e+00 -9.092001e-01 -5.791106e-01 -3.812538e-01 -2.578058e-01 -2.069776e-01 -2.072301e-01 -1.817166e-01 -2.240577e-01 -2.209906e-01 -2.801456e-01 -3.130714e-01 -3.378629e-01 -3.591370e-01 -2.823157e-01 -2.277513e-01 -7.024581e-02 6.524769e-02 2.485399e-01 4.196711e-01 5.882127e-01 7.519183e-01 9.338908e-01 1.108914e+00 1.339235e+00 1.552786e+00 1.839874e+00 2.081727e+00 2.396569e+00 2.628364e+00 2.919281e+00 3.092385e+00 3.296954e+00 3.374260e+00 3.426375e+00 3.390076e+00 3.235986e+00 3.077300e+00 2.683507e+00 2.395755e+00 1.721270e+00 1.235269e+00 3.577270e-01 -3.813543e-01 -1.081753e+00 -1.631438e+00 -1.977924e+00 -2.250225e+00 -2.353147e+00 -2.452683e+00 -2.445156e+00 -2.468546e+00 -2.428661e+00 -2.429642e+00 
-2.609579e+00 -2.608588e+00 -2.584733e+00 -2.596852e+00 -2.581813e+00 -2.573870e+00 -2.514673e+00 -2.406801e+00 -2.195291e+00 -1.858872e+00 -1.396542e+00 -8.730520e-01 -4.322854e-01 -2.039439e-01 -5.022957e-02 5.679239e-03 -1.091654e-02 4.094814e-04 -8.376169e-02 -1.040069e-01 -2.240799e-01 -3.032405e-01 -3.815930e-01 -4.558029e-01 -3.987295e-01 -3.726583e-01 -1.885594e-01 -3.824582e-02 1.763304e-01 3.790208e-01 5.443179e-01 7.109987e-01 8.845669e-01 1.056911e+00 1.300457e+00 1.540293e+00 1.876136e+00 2.172677e+00 2.561636e+00 2.858519e+00 3.230652e+00 3.460062e+00 3.737553e+00 3.851847e+00 3.953502e+00 3.932747e+00 3.794932e+00 3.633209e+00 3.212324e+00 2.922552e+00 2.116019e+00 1.563405e+00 4.230631e-01 -5.855571e-01 -1.457368e+00 -2.124059e+00 -2.473190e+00 -2.733673e+00 -2.778471e+00 -2.832515e+00 -2.769603e+00 -2.755222e+00 -2.680073e+00 -2.661371e+00 
-2.810344e+00 -2.806849e+00 -2.791125e+00 -2.824501e+00 -2.839957e+00 -2.871278e+00 -2.850038e+00 -2.765568e+00 -2.534465e+00 -2.102247e+00 -1.456517e+00 -7.068725e-01 -1.360970e-01 3.535348e-02 9.209413e-02 3.031114e-02 -5.974547e-02 -3.716668e-02 -1.522097e-01 -1.587638e-01 -3.267696e-01 -4.433242e-01 -5.669997e-01 -6.788790e-01 -5.608958e-01 -5.123540e-01 -2.643075e-01 -6.374654e-02 1.872320e-01 4.311028e-01 5.814508e-01 7.468409e-01 9.098141e-01 1.083356e+00 1.348420e+00 1.623202e+00 2.017816e+00 2.372092e+00 2.842656e+00 3.204104e+00 3.668930e+00 3.946616e+00 4.314599e+00 4.450806e+00 4.614258e+00 4.599461e+00 4.472642e+00 4.302086e+00 3.852536e+00 3.576030e+00 2.586758e+00 2.018290e+00 4.438035e-01 -1.003571e+00 -2.078737e+00 -2.876746e+00 -3.160581e+00 -3.366511e+00 -3.295795e+00 -3.270561e+00 -3.121546e+00 -3.050766e+00 -2.926878e+00 -2.879948e+00 
-2.996214e+00 -2.995119e+00 -2.994486e+00 -3.060932e+00 -3.121888e+00 -3.214259e+00 -3.255764e+00 -3.216677e+00 -2.973668e+00 -2.407103e+00 -1.509806e+00 -4.323122e-01 2.298520e-01 2.443102e-01 3.042162e-01 2.872191e-01 2.001900e-01 2.230477e-01 5.119145e-02 3.089206e-02 -2.437655e-01 -4.229236e-01 -6.263911e-01 -8.230116e-01 -7.282181e-01 -7.369860e-01 -4.128785e-01 -1.812589e-01 1.337351e-01 4.524346e-01 5.459803e-01 6.765014e-01 7.843447e-01 9.056676e-01 1.164531e+00 1.470149e+00 1.937785e+00 2.384821e+00 2.974638e+00 3.445878e+00 4.038088e+00 4.403928e+00 4.889752e+00 5.078674e+00 5.325643e+00 5.330771e+00 5.246385e+00 5.052923e+00 4.633869e+00 4.418870e+00 3.243501e+00 2.725999e+00 5.725751e-01 -1.581818e+00 -2.920527e+00 -3.835256e+00 -3.999288e+00 -4.086293e+00 -3.862105e+00 -3.722967e+00 -3.473289e+00 -3.333753e+00 -3.157989e+00 -3.081415e+00 
-3.131160e+00 -3.130445e+00 -3.148849e+00 -3.252203e+00 -3.369334e+00 -3.536024e+00 -3.655042e+00 -3.666818e+00 -3.376282e+00 -2.576690e+00 -1.229973e+00 3.584518e-01 1.069019e+00 5.779330e-01 2.202136e-01 -1.099276e-01 -2.391598e-01 1.225707e-02 -1.028084e-01 -1.509161e-02 -3.346618e-01 -5.600175e-01 -8.844391e-01 -1.166216e+00 -8.535195e-01 -8.013291e-01 -3.755336e-01 -7.342780e-02 2.692571e-01 6.412800e-01 6.145661e-01 6.671529e-01 7.080943e-01 7.822857e-01 1.054451e+00 1.414469e+00 1.973018e+00 2.515260e+00 3.225986e+00 3.810750e+00 4.542693e+00 4.984068e+00 5.625018e+00 5.829972e+00 6.191928e+00 6.205098e+00 6.135041e+00 5.888284e+00 5.545200e+00 5.363473e+00 3.944116e+00 3.789635e+00 5.982103e-01 -2.768975e+00 -4.286441e+00 -5.235833e+00 -5.091174e+00 -4.950870e+00 -4.486613e+00 -4.184700e+00 -3.806513e+00 -3.579779e+00 -3.345310e+00 -3.232023e+00 
-3.221865e+00 -3.227434e+00 -3.268301e+00 -3.416566e+00 -3.595066e+00 -3.847605e+00 -4.045373e+00 -4.099613e+00 -3.702517e+00 -2.541477e+00 -5.640001e-01 1.647553e+00 1.809692e+00 1.621096e-01 -2.158199e-01 -1.833061e-01 -1.575208e-01 1.890610e-01 4.440410e-02 2.287821e-01 -1.770836e-01 -3.372106e-01 -6.954170e-01 -1.138263e+00 -9.490784e-01 -1.097027e+00 -4.790143e-01 -1.418517e-01 3.567795e-01 9.564933e-01 6.624475e-01 5.308355e-01 4.142591e-01 2.856621e-01 5.063757e-01 9.291550e-01 1.624089e+00 2.346952e+00 3.263523e+00 4.043184e+00 4.965495e+00 5.537578e+00 6.360994e+00 6.625724e+00 7.099670e+00 7.146659e+00 7.105615e+00 6.669158e+00 6.541756e+00 6.393031e+00 4.608068e+00 5.135826e+00 7.313881e-01 -4.412661e+00 -6.068817e+00 -6.866600e+00 -6.305320e+00 -5.823469e+00 -5.085936e+00 -4.591769e+00 -4.083716e+00 -3.768417e+00 -3.479712e+00 -3.334492e+00 
-3.218442e+00 -3.226349e+00 -3.289703e+00 -3.474623e+00 -3.709974e+00 -4.034862e+00 -4.294316e+00 -4.348897e+00 -3.749493e+00 -2.037570e+00 9.744564e-01 4.137804e+00 3.596427e+00 2.695869e-01 -1.192272e+00 -2.293669e+00 -2.058466e+00 -3.991549e-01 -1.826429e-01 3.450210e-01 2.268415e-01 2.703496e-01 -5.721507e-01 -1.469576e+00 -7.498139e-01 -8.792538e-01 -2.488680e-01 1.657878e-01 7.719255e-01 1.514103e+00 7.543954e-01 2.889363e-01 -9.952881e-03 -3.184391e-01 -8.280294e-02 4.958149e-01 1.385927e+00 2.286686e+00 3.389157e+00 4.396181e+00 5.507936e+00 6.196048e+00 7.272333e+00 7.490307e+00 8.133958e+00 8.260624e+00 8.054354e+00 7.335627e+00 7.585394e+00 6.738503e+00 4.339168e+00 6.787162e+00 5.707342e-01 -7.134941e+00 -8.344407e+00 -8.719291e+00 -7.535046e+00 -6.599789e+00 -5.568182e+00 -4.864073e+00 -4.243526e+00 -3.841568e+00 -3.512949e+00 -3.336485e+00 
-3.140590e+00 -3.155859e+00 -3.236554e+00 -3.452592e+00 -3.724488e+00 -4.099337e+00 -4.370553e+00 -4.379784e+00 -3.479777e+00 -1.153121e+00 3.158418e+00 6.972786e+00 2.944646e+00 -3.054858e+00 -2.303295e+00 -2.031854e+00 -1.529851e+00 3.919164e-01 2.388167e-01 9.988845e-01 1.301748e+00 2.156355e+00 1.524245e+00 8.621551e-02 -6.942610e-01 -2.079078e+00 -8.057728e-01 -2.787628e-01 1.080628e+00 2.752488e+00 1.117646e+00 1.607114e-02 -6.807913e-01 -1.758622e+00 -1.816089e+00 -1.053130e+00 1.445678e-01 1.473529e+00 2.983404e+00 4.355883e+00 5.726549e+00 6.578319e+00 7.834356e+00 8.169287e+00 8.658726e+00 9.153365e+00 8.806914e+00 7.272004e+00 8.159922e+00 6.000086e+00 1.777251e+00 6.530536e+00 1.963533e+00 -7.514308e+00 -9.770379e+00 -9.850595e+00 -8.350516e+00 -7.036359e+00 -5.808725e+00 -4.949143e+00 -4.258724e+00 -3.801441e+00 -3.451009e+00 -3.258883e+00 
-2.936412e+00 -2.952282e+00 -3.042950e+00 -3.265797e+00 -3.551199e+00 -3.939787e+00 -4.223114e+00 -4.248905e+00 -3.365625e+00 -1.126095e+00 3.152874e+00 6.934883e+00 1.974401e+00 -3.282583e+00 -1.289128e+00 -4.047012e+00 -3.281740e+00 2.721653e+00 2.474176e+00 2.625432e+00 4.650007e+00 4.880257e+00 1.637016e+00 7.934960e-01 8.408033e-02 -2.015325e+00 1.413798e-01 3.675216e-01 1.487018e+00 3.456871e+00 1.678188e+00 1.906550e-01 -7.503206e-01 -2.448135e+00 -3.133605e+00 -2.800071e+00 -1.953355e+00 -4.964362e-01 1.236343e+00 3.008103e+00 4.671014e+00 6.115305e+00 7.224867e+00 8.245584e+00 8.199446e+00 8.846231e+00 8.823746e+00 6.848118e+00 7.663065e+00 5.852040e+00 1.790713e+00 2.192993e+00 9.802862e-01 -5.191270e+00 -9.280240e+00 -9.212793e+00 -8.170140e+00 -6.734867e+00 -5.604656e+00 -4.699681e+00 -4.045370e+00 -3.573915e+00 -3.240766e+00 -3.044190e+00 
-2.648930e+00 -2.670008e+00 -2.763413e+00 -2.985400e+00 -3.269033e+00 -3.667548e+00 -3.994140e+00 -4.176738e+00 -3.702619e+00 -2.371921e+00 3.273315e-01 2.728483e+00 9.768687e-01 -1.029285e+00 1.057769e+00 7.588130e-01 1.002013e+00 3.460228e+00 2.791675e+00 2.997891e+00 4.700118e+00 6.426878e+00 2.619040e+00 7.956779e-02 5.799048e-01 -7.315149e-01 7.984462e-01 8.514255e-01 9.284982e-01 1.879370e+00 9.266741e-01 -1.080069e-01 -7.427108e-01 -1.780190e+00 -2.303659e+00 -2.206700e+00 -1.708403e+00 -5.391759e-01 8.640129e-01 2.439765e+00 3.842973e+00 5.341664e+00 6.000323e+00 7.136335e+00 6.867169e+00 7.101721e+00 7.230483e+00 5.784814e+00 5.822470e+00 5.290799e+00 3.704093e+00 -7.531333e-01 -2.746537e+00 -5.131794e+00 -8.283262e+00 -7.952926e+00 -7.248566e+00 -5.981174e+00 -5.049039e+00 -4.228378e+00 -3.656350e+00 -3.221385e+00 -2.923202e+00 -2.742477e+00 
-2.239767e+00 -2.257534e+00 -2.341818e+00 -2.533737e+00 -2.781759e+00 -3.133131e+00 -3.446166e+00 -3.700536e+00 -3.550264e+00 -2.944975e+00 -1.581560e+00 -2.940484e-01 -2.393584e-01 -6.419180e-01 2.237253e+00 1.458335e+00 -8.703972e-01 4.814634e+00 6.747064e+00 5.370128e+00 5.004436e+00 4.521155e+00 3.359082e+00 2.401988e+00 1.537293e+00 -1.785057e-01 3.143776e-01 2.202377e-01 3.088565e-01 7.377117e-01 2.583606e-01 -2.744792e-01 -6.801102e-01 -1.207842e+00 -1.399440e+00 -1.219041e+00 -7.711350e-01 9.993603e-02 1.049546e+00 2.150366e+00 3.046611e+00 4.095711e+00 4.467667e+00 5.234733e+00 5.071125e+00 5.140411e+00 5.146708e+00 4.161380e+00 4.001253e+00 3.528264e+00 2.761805e+00 -9.376004e-01 -3.252949e+00 -4.915422e+00 -6.615135e+00 -6.289286e+00 -5.812078e+00 -4.859094e+00 -4.182489e+00 -3.522862e+00 -3.077138e+00 -2.710973e+00 -2.469872e+00 -2.314006e+00 
-1.765548e+00 -1.782948e+00 -1.852898e+00 -2.009685e+00 -2.210517e+00 -2.500321e+00 -2.774182e+00 -3.047456e+00 -3.088950e+00 -2.908817e+00 -2.256326e+00 -1.456581e+00 -6.260703e-01 3.310433e-01 2.903608e+00 -4.870572e-01 -2.181449e+00 6.330819e+00 5.160422e+00 3.274817e+00 7.547226e+00 6.390000e+00 3.213524e+00 2.419483e+00 1.410882e+00 -2.245622e-01 -1.911274e-02 -1.541525e-01 2.209987e-02 2.676179e-01 8.332067e-02 -1.637056e-01 -3.863693e-01 -6.746366e-01 -7.839641e-01 -6.760032e-01 -4.049248e-01 1.460837e-01 7.462560e-01 1.503967e+00 2.101669e+00 2.836378e+00 3.109317e+00 3.628759e+00 3.548271e+00 3.591145e+00 3.523141e+00 2.886399e+00 2.679074e+00 1.991721e+00 1.399423e+00 -9.636957e-01 -2.542925e+00 -3.725166e+00 -4.735592e+00 -4.522738e+00 -4.279881e+00 -3.638999e+00 -3.198918e+00 -2.719798e+00 -2.400173e+00 -2.121451e+00 -1.940433e+00 -1.820461e+00 
-1.209002e+00 -1.220327e+00 -1.268957e+00 -1.375812e+00 -1.513772e+00 -1.715737e+00 -1.916304e+00 -2.146407e+00 -2.268823e+00 -2.343111e+00 -2.183564e+00 -2.014248e+00 -1.523238e+00 -8.357639e-01 1.712858e+00 3.322651e+00 2.800009e+00 3.419475e+00 1.503485e+00 2.900220e+00 7.698625e+00 7.262880e+00 2.826619e+00 1.353348e-01 -5.478924e-01 -1.097921e+00 -7.230115e-01 -5.814168e-01 -3.064698e-01 -8.805719e-02 -1.153243e-01 -2.015073e-01 -3.069415e-01 -4.333732e-01 -4.604362e-01 -3.634630e-01 -1.741825e-01 1.745055e-01 5.348175e-01 9.965066e-01 1.340844e+00 1.782912e+00 1.945094e+00 2.244621e+00 2.217323e+00 2.218194e+00 2.159500e+00 1.775199e+00 1.607903e+00 1.097122e+00 6.936360e-01 -6.768403e-01 -1.667760e+00 -2.418673e+00 -2.983967e+00 -2.894623e+00 -2.774854e+00 -2.398851e+00 -2.138403e+00 -1.833608e+00 -1.631081e+00 -1.445223e+00 -1.326731e+00 -1.244658e+00 
-6.187854e-01 -6.254526e-01 -6.509519e-01 -7.066666e-01 -7.783854e-01 -8.843509e-01 -9.940826e-01 -1.128310e+00 -1.232476e+00 -1.346790e+00 -1.420153e+00 -1.565356e+00 -1.736313e+00 -2.003390e+00 -1.955794e+00 -2.255935e+00 -3.677403e+00 3.212472e-01 8.503786e+00 1.074448e+01 7.523297e+00 3.426933e+00 3.134365e-01 -6.396612e-01 -7.895446e-01 -8.457510e-01 -5.407628e-01 -4.018227e-01 -2.097391e-01 -8.740207e-02 -7.044208e-02 -9.687002e-02 -1.382785e-01 -1.935893e-01 -2.087284e-01 -1.685592e-01 -8.664814e-02 7.333199e-02 2.403754e-01 4.648848e-01 6.326445e-01 8.519034e-01 9.372360e-01 1.085066e+00 1.077484e+00 1.079655e+00 1.043984e+00 8.575829e-01 7.644449e-01 4.708550e-01 2.584776e-01 -3.642271e-01 -8.085273e-01 -1.169685e+00 -1.434536e+00 -1.403656e+00 -1.364480e+00 -1.190711e+00 -1.073601e+00 -9.256737e-01 -8.283270e-01 -7.358272e-01 -6.772065e-01 -6.362531e-01 
-3.651849e-15 -5.052190e-16 -3.326066e-15 -2.277792e-15 -3.612130e-15 -4.797308e-15 -4.204257e-15 -9.098703e-15 -4.036531e-15 -1.407182e-14 -5.020682e-15 -2.674586e-14 -6.136873e-15 -2.563739e-14 8.715697e-14 1.899210e-13 5.807878e-13 -2.711590e-13 -8.290529e-13 1.277506e-12 5.257287e-13 -1.035240e-12 -5.329776e-13 -9.831272e-14 5.001591e-14 7.269480e-14 1.267475e-13 1.312699e-14 7.926252e-14 5.245028e-15 7.828837e-14 2.215345e-15 2.004663e-14 -8.734912e-15 -1.504906e-14 -1.291597e-14 1.545278e-14 -1.327791e-15 -2.136962e-14 -7.999528e-16 -5.493210e-14 1.261514e-14 -5.998753e-14 7.380075e-14 3.607732e-14 -7.890558e-15 4.762823e-14 7.358785e-15 7.581155e-14 1.043786e-14 -1.743481e-15 -6.478839e-14 -5.916383e-14 -4.424967e-14 -5.191658e-14 -2.421061e-14 -3.253333e-14 -8.078185e-15 -1.496592e-14 3.152104e-16 -7.062510e-15 1.610931e-15 -4.653182e-15 3.009224e-16 
6.187854e-01 6.254526e-01 6.509519e-01 7.066666e-01 7.783854e-01 8.843509e-01 9.940826e-01 1.128310e+00 1.232476e+00 1.346790e+00 1.420153e+00 1.565356e+00 1.736313e+00 2.003390e+00 1.955794e+00 2.255935e+00 3.677403e+00 -3.212472e-01 -8.503786e+00 -1.074448e+01 -7.523297e+00 -3.426933e+00 -3.134365e-01 6.396612e-01 7.895446e-01 8.457510e-01 5.407628e-01 4.018227e-01 2.097391e-01 8.740207e-02 7.044208e-02 9.687002e-02 1.382785e-01 1.935893e-01 2.087284e-01 1.685592e-01 8.664814e-02 -7.333199e-02 -2.403754e-01 -4.648848e-01 -6.326445e-01 -8.519034e-01 -9.372360e-01 -1.085066e+00 -1.077484e+00 -1.079655e+00 -1.043984e+00 -8.575829e-01 -7.644449e-01 -4.708550e-01 -2.584776e-01 3.642271e-01 8.085273e-01 1.169685e+00 1.434536e+00 1.403656e+00 1.364480e+00 1.190711e+00 1.073601e+00 9.256737e-01 8.283270e-01 7.358272e-01 6.772065e-01 6.362531e-01 