# vtk DataFile Version 2.0
Comment goes here
ASCII

DATASET STRUCTURED_POINTS
DIMENSIONS    64   64   1

ORIGIN    0.000   0.000   0.000
SPACING   0.0781250.078125   1.000

POINT_DATA   4096
SCALARS uY double
LOOKUP_TABLE default

-5.229632e-15 -3.291833e-15 -4.539686e-15 -2.749424e-15 -4.751042e-15 -3.278925e-15 -5.120650e-15 -3.325395e-15 -4.510852e-15 -1.996190e-15 -3.810762e-15 -1.606900e-15 -4.279660e-15 -3.541584e-15 -6.666801e-15 -2.863681e-15 -5.245670e-15 -3.187240e-15 -4.108702e-15 -1.958692e-15 -3.379665e-15 -2.260624e-15 -4.105769e-15 -2.265348e-15 -2.453757e-15 -1.454519e-15 -2.057571e-15 -2.853831e-15 -1.977204e-15 -2.952732e-15 -7.853975e-16 -2.531952e-15 3.193466e-16 -2.393780e-15 9.908307e-16 -2.789011e-15 1.181261e-15 -2.392658e-15 2.106016e-15 -1.129519e-15 3.417895e-15 -1.332475e-16 3.760421e-15 6.239449e-16 3.015736e-15 1.971365e-16 1.384973e-15 -7.844458e-16 8.808486e-17 -1.026331e-15 -9.311181e-16 -1.498128e-15 -2.340843e-15 -2.535807e-15 -3.784517e-15 -3.396859e-15 -5.097214e-15 -4.425449e-15 -5.900189e-15 -4.756318e-15 -6.135016e-15 -4.630905e-15 -5.834733e-15 -4.022732e-15 
4.198396e-02 4.094229e-02 3.888463e-02 3.698823e-02 3.394359e-02 3.101590e-02 2.685054e-02 2.278949e-02 1.748270e-02 1.232960e-02 6.042211e-03 3.778296e-05 -6.850548e-03 -1.325294e-02 -2.016857e-02 -2.635871e-02 -3.263431e-02 -3.796969e-02 -4.299591e-02 -4.695592e-02 -5.032635e-02 -5.263256e-02 -5.422045e-02 -5.487223e-02 -5.481099e-02 -5.402961e-02 -5.261835e-02 -5.073811e-02 -4.832482e-02 -4.568443e-02 -4.257525e-02 -3.944762e-02 -3.586398e-02 -3.243474e-02 -2.851431e-02 -2.489758e-02 -2.072189e-02 -1.699297e-02 -1.262366e-02 -8.849911e-03 -4.360224e-03 -6.196554e-04 3.886044e-03 7.500722e-03 1.188228e-02 1.527006e-02 1.936184e-02 2.242534e-02 2.605991e-02 2.871942e-02 3.175943e-02 3.396685e-02 3.633433e-02 3.808158e-02 3.976999e-02 4.108386e-02 4.214244e-02 4.306178e-02 4.355599e-02 4.409833e-02 4.406391e-02 4.419597e-02 4.360583e-02 4.322948e-02 
8.374375e-02 8.170256e-02 7.763654e-02 7.389182e-02 6.785440e-02 6.204021e-02 5.374613e-02 4.564394e-02 3.503337e-02 2.471358e-02 1.209557e-02 3.535502e-05 -1.382978e-02 -2.671475e-02 -4.066079e-02 -5.312769e-02 -6.578718e-02 -7.652224e-02 -8.664187e-02 -9.458022e-02 -1.013248e-01 -1.059000e-01 -1.090141e-01 -1.102316e-01 -1.099988e-01 -1.083189e-01 -1.053637e-01 -1.014767e-01 -9.652107e-02 -9.112429e-02 -8.480042e-02 -7.845389e-02 -7.121627e-02 -6.429882e-02 -5.642599e-02 -4.916732e-02 -4.081807e-02 -3.336537e-02 -2.465319e-02 -1.713468e-02 -8.193642e-03 -7.573756e-04 8.215356e-03 1.539149e-02 2.412288e-02 3.084239e-02 3.900198e-02 4.507255e-02 5.232014e-02 5.758217e-02 6.363493e-02 6.799145e-02 7.268799e-02 7.612449e-02 7.945334e-02 8.202892e-02 8.409738e-02 8.589755e-02 8.684845e-02 8.791494e-02 8.782966e-02 8.809878e-02 8.692776e-02 8.620158e-02 
1.274290e-01 1.244941e-01 1.184965e-01 1.129845e-01 1.039848e-01 9.530433e-02 8.282928e-02 7.060510e-02 5.452403e-02 3.882405e-02 1.958217e-02 1.115372e-03 -2.012339e-02 -3.994102e-02 -6.135530e-02 -8.056836e-02 -1.000045e-01 -1.165312e-01 -1.320162e-01 -1.441745e-01 -1.544124e-01 -1.613316e-01 -1.659619e-01 -1.676961e-01 -1.672135e-01 -1.645356e-01 -1.599543e-01 -1.539755e-01 -1.464301e-01 -1.382367e-01 -1.286883e-01 -1.191204e-01 -1.082322e-01 -9.783064e-02 -8.598805e-02 -7.506263e-02 -6.247400e-02 -5.121972e-02 -3.803846e-02 -2.663907e-02 -1.306553e-02 -1.750949e-03 1.190642e-02 2.285155e-02 3.616192e-02 4.642269e-02 5.886552e-02 6.813564e-02 7.917673e-02 8.720323e-02 9.640115e-02 1.030313e-01 1.101401e-01 1.153549e-01 1.203707e-01 1.242733e-01 1.273835e-01 1.301240e-01 1.315709e-01 1.332314e-01 1.331555e-01 1.336502e-01 1.319798e-01 1.310083e-01 
1.704100e-01 1.667174e-01 1.589497e-01 1.518276e-01 1.400390e-01 1.286302e-01 1.121026e-01 9.582846e-02 7.429856e-02 5.318196e-02 2.718556e-02 2.149204e-03 -2.674748e-02 -5.376066e-02 -8.302037e-02 -1.092682e-01 -1.358405e-01 -1.583755e-01 -1.794498e-01 -1.958926e-01 -2.096368e-01 -2.187819e-01 -2.247265e-01 -2.267014e-01 -2.256119e-01 -2.215627e-01 -2.149313e-01 -2.064616e-01 -1.959194e-01 -1.845672e-01 -1.714663e-01 -1.583954e-01 -1.436427e-01 -1.295786e-01 -1.136746e-01 -9.901019e-02 -8.219829e-02 -6.716441e-02 -4.960581e-02 -3.442036e-02 -1.634088e-02 -1.290122e-03 1.692860e-02 3.147757e-02 4.927095e-02 6.290233e-02 7.956182e-02 9.186239e-02 1.066404e-01 1.172611e-01 1.295278e-01 1.382549e-01 1.476592e-01 1.544727e-01 1.610228e-01 1.660881e-01 1.700821e-01 1.736406e-01 1.754612e-01 1.776583e-01 1.775378e-01 1.782747e-01 1.761346e-01 1.750031e-01 
2.172545e-01 2.130423e-01 2.036903e-01 1.951562e-01 1.806764e-01 1.666198e-01 1.459668e-01 1.255126e-01 9.821249e-02 7.125688e-02 3.789650e-02 5.550937e-03 -3.185991e-02 -6.704870e-02 -1.051154e-01 -1.394335e-01 -1.740029e-01 -2.034027e-01 -2.306420e-01 -2.518689e-01 -2.693345e-01 -2.808126e-01 -2.879905e-01 -2.900351e-01 -2.881179e-01 -2.824338e-01 -2.735496e-01 -2.623884e-01 -2.487521e-01 -2.341678e-01 -2.175191e-01 -2.009714e-01 -1.823949e-01 -1.647122e-01 -1.447397e-01 -1.263107e-01 -1.051558e-01 -8.619206e-02 -6.399824e-02 -4.474266e-02 -2.177644e-02 -2.602704e-03 2.063747e-02 3.922830e-02 6.198827e-02 7.942838e-02 1.007565e-01 1.164860e-01 1.353750e-01 1.489206e-01 1.645221e-01 1.755933e-01 1.874469e-01 1.960253e-01 2.041808e-01 2.105217e-01 2.154410e-01 2.199204e-01 2.221799e-01 2.250451e-01 2.249998e-01 2.261589e-01 2.237244e-01 2.226565e-01 
2.628099e-01 2.583376e-01 2.477170e-01 2.380774e-01 2.212581e-01 2.048358e-01 1.803394e-01 1.558721e-01 1.228878e-01 9.005215e-02 4.911116e-02 9.155282e-03 -3.731050e-02 -8.119475e-02 -1.288186e-01 -1.717952e-01 -2.150905e-01 -2.518044e-01 -2.856648e-01 -3.118172e-01 -3.330300e-01 -3.466171e-01 -3.546269e-01 -3.562142e-01 -3.527774e-01 -3.447577e-01 -3.328216e-01 -3.182349e-01 -3.007578e-01 -2.822896e-01 -2.615078e-01 -2.409898e-01 -2.182233e-01 -1.966211e-01 -1.724437e-01 -1.501425e-01 -1.247068e-01 -1.018732e-01 -7.524187e-02 -5.210231e-02 -2.450218e-02 -1.469018e-03 2.656076e-02 4.889883e-02 7.646303e-02 9.741951e-02 1.233265e-01 1.422056e-01 1.651436e-01 1.813356e-01 2.001671e-01 2.132837e-01 2.273869e-01 2.374109e-01 2.468838e-01 2.541972e-01 2.597337e-01 2.649056e-01 2.673639e-01 2.707911e-01 2.707150e-01 2.723301e-01 2.696561e-01 2.688145e-01 
3.141719e-01 3.098638e-01 2.983386e-01 2.879871e-01 2.690758e-01 2.505218e-01 2.221668e-01 1.935887e-01 1.544836e-01 1.151614e-01 6.567226e-02 1.690024e-02 -4.007795e-02 -9.435291e-02 -1.532250e-01 -2.066952e-01 -2.602295e-01 -3.057559e-01 -3.471916e-01 -3.790617e-01 -4.042680e-01 -4.199891e-01 -4.285227e-01 -4.291745e-01 -4.236967e-01 -4.127592e-01 -3.973614e-01 -3.789693e-01 -3.575078e-01 -3.350779e-01 -3.102489e-01 -2.858970e-01 -2.591033e-01 -2.337520e-01 -2.054376e-01 -1.792935e-01 -1.494286e-01 -1.225115e-01 -9.103785e-02 -6.355112e-02 -3.069291e-02 -3.157830e-03 3.041995e-02 5.722492e-02 9.038638e-02 1.155657e-01 1.467863e-01 1.694472e-01 1.970317e-01 2.163856e-01 2.388501e-01 2.543791e-01 2.709274e-01 2.826132e-01 2.934463e-01 3.018495e-01 3.080019e-01 3.139734e-01 3.166910e-01 3.208540e-01 3.209255e-01 3.232724e-01 3.206543e-01 3.204107e-01 
3.634531e-01 3.597428e-01 3.478567e-01 3.373204e-01 3.169537e-01 2.967854e-01 2.651347e-01 2.328014e-01 1.878330e-01 1.420305e-01 8.371145e-02 2.564171e-02 -4.276199e-02 -1.083556e-01 -1.798301e-01 -2.448897e-01 -3.100116e-01 -3.652005e-01 -4.150569e-01 -4.529193e-01 -4.821539e-01 -4.996159e-01 -5.079340e-01 -5.067428e-01 -4.980138e-01 -4.829903e-01 -4.627981e-01 -4.394175e-01 -4.127780e-01 -3.853708e-01 -3.555961e-01 -3.266707e-01 -2.953216e-01 -2.657984e-01 -2.331964e-01 -2.030917e-01 -1.689690e-01 -1.381077e-01 -1.021754e-01 -7.066730e-02 -3.300594e-02 -1.399952e-03 3.733703e-02 6.815161e-02 1.066784e-01 1.356553e-01 1.721207e-01 1.981859e-01 2.304191e-01 2.525678e-01 2.785841e-01 2.961054e-01 3.148098e-01 3.276628e-01 3.393661e-01 3.483597e-01 3.545819e-01 3.609716e-01 3.635247e-01 3.682511e-01 3.682850e-01 3.714253e-01 3.689533e-01 3.695795e-01 
4.204369e-01 4.180185e-01 4.064266e-01 3.964253e-01 3.751481e-01 3.539276e-01 3.191846e-01 2.832090e-01 2.319341e-01 1.789494e-01 1.104301e-01 4.127592e-02 -4.087309e-02 -1.205487e-01 -2.074582e-01 -2.872176e-01 -3.664708e-01 -4.338279e-01 -4.935820e-01 -5.385795e-01 -5.719629e-01 -5.908420e-01 -5.980668e-01 -5.938474e-01 -5.807214e-01 -5.604056e-01 -5.346495e-01 -5.056254e-01 -4.736582e-01 -4.412819e-01 -4.068834e-01 -3.738146e-01 -3.383678e-01 -3.051453e-01 -2.685208e-01 -2.346415e-01 -1.961238e-01 -1.610472e-01 -1.200672e-01 -8.382488e-02 -4.040732e-02 -3.729757e-03 4.132293e-02 7.723880e-02 1.223260e-01 1.561357e-01 1.989412e-01 2.293172e-01 2.670759e-01 2.927498e-01 3.228706e-01 3.428741e-01 3.639190e-01 3.781564e-01 3.906390e-01 4.002594e-01 4.064034e-01 4.132468e-01 4.156352e-01 4.211047e-01 4.213377e-01 4.256494e-01 4.237819e-01 4.258413e-01 
4.741906e-01 4.737414e-01 4.633219e-01 4.547097e-01 4.336154e-01 4.122539e-01 3.754991e-01 3.366176e-01 2.797005e-01 2.197221e-01 1.407384e-01 5.978428e-02 -3.759784e-02 -1.329802e-01 -2.377352e-01 -3.342116e-01 -4.300578e-01 -5.111580e-01 -5.823447e-01 -6.349679e-01 -6.724986e-01 -6.920704e-01 -6.968140e-01 -6.880186e-01 -6.684158e-01 -6.409286e-01 -6.074859e-01 -5.710110e-01 -5.319288e-01 -4.931052e-01 -4.528043e-01 -4.145719e-01 -3.743339e-01 -3.368813e-01 -2.961266e-01 -2.583929e-01 -2.158695e-01 -1.768656e-01 -1.315473e-01 -9.111611e-02 -4.273569e-02 -1.662967e-03 4.906936e-02 8.940836e-02 1.407473e-01 1.788139e-01 2.280003e-01 2.622443e-01 3.057452e-01 3.345483e-01 3.688388e-01 3.908066e-01 4.138129e-01 4.287033e-01 4.411379e-01 4.505749e-01 4.556837e-01 4.623570e-01 4.638565e-01 4.698037e-01 4.699322e-01 4.755260e-01 4.744061e-01 4.783269e-01 
5.373733e-01 5.399647e-01 5.318258e-01 5.258430e-01 5.060189e-01 4.857136e-01 4.476904e-01 4.066035e-01 3.438750e-01 2.763617e-01 1.851362e-01 8.987145e-02 -2.639848e-02 -1.419762e-01 -2.693667e-01 -3.878971e-01 -5.046755e-01 -6.037687e-01 -6.886538e-01 -7.504750e-01 -7.917673e-01 -8.107337e-01 -8.108013e-01 -7.946878e-01 -7.661900e-01 -7.291330e-01 -6.866426e-01 -6.416922e-01 -5.955077e-01 -5.505920e-01 -5.053006e-01 -4.630210e-01 -4.190837e-01 -3.785108e-01 -3.343004e-01 -2.932260e-01 -2.466201e-01 -2.033441e-01 -1.528239e-01 -1.070856e-01 -5.229820e-02 -5.273386e-03 5.285868e-02 9.923137e-02 1.585548e-01 2.023103e-01 2.594446e-01 2.987746e-01 3.492678e-01 3.822020e-01 4.214071e-01 4.459913e-01 4.710565e-01 4.867500e-01 4.987182e-01 5.077669e-01 5.113533e-01 5.176802e-01 5.181384e-01 5.246888e-01 5.250165e-01 5.323786e-01 5.326944e-01 5.392845e-01 
5.956099e-01 6.022430e-01 5.977298e-01 5.957006e-01 5.789592e-01 5.612886e-01 5.240386e-01 4.822641e-01 4.153110e-01 3.409615e-01 2.374803e-01 1.268786e-01 -1.072745e-02 -1.494077e-01 -3.038090e-01 -4.481752e-01 -5.904180e-01 -7.104065e-01 -8.117746e-01 -8.835752e-01 -9.283827e-01 -9.452400e-01 -9.378538e-01 -9.117099e-01 -8.707051e-01 -8.210945e-01 -7.662932e-01 -7.102205e-01 -6.544292e-01 -6.014000e-01 -5.494267e-01 -5.018017e-01 -4.533286e-01 -4.090496e-01 -3.614140e-01 -3.170418e-01 -2.671354e-01 -2.201307e-01 -1.656760e-01 -1.155178e-01 -5.569299e-02 -3.764565e-03 6.071425e-02 1.121156e-01 1.790092e-01 2.276834e-01 2.930695e-01 3.370385e-01 3.952568e-01 4.320464e-01 4.766680e-01 5.033644e-01 5.300666e-01 5.455191e-01 5.555987e-01 5.629232e-01 5.632873e-01 5.682387e-01 5.664360e-01 5.731977e-01 5.732588e-01 5.825925e-01 5.845727e-01 5.944797e-01 
6.646262e-01 6.768623e-01 6.777454e-01 6.817033e-01 6.700805e-01 6.574277e-01 6.228974e-01 5.825328e-01 5.121589e-01 4.312461e-01 3.134414e-01 1.840772e-01 1.920063e-02 -1.500853e-01 -3.399157e-01 -5.196251e-01 -6.950311e-01 -8.433974e-01 -9.647580e-01 -1.048601e+00 -1.095063e+00 -1.105999e+00 -1.085970e+00 -1.043651e+00 -9.851489e-01 -9.183890e-01 -8.490665e-01 -7.805573e-01 -7.159095e-01 -6.561879e-01 -5.998436e-01 -5.495149e-01 -4.988798e-01 -4.532628e-01 -4.036364e-01 -3.570758e-01 -3.038867e-01 -2.526454e-01 -1.929063e-01 -1.364640e-01 -6.935753e-02 -1.002521e-02 6.334581e-02 1.221299e-01 1.990251e-01 2.544513e-01 3.302335e-01 3.803155e-01 4.480109e-01 4.900205e-01 5.411354e-01 5.709621e-01 5.992875e-01 6.145781e-01 6.217224e-01 6.266104e-01 6.225899e-01 6.255223e-01 6.210131e-01 6.279581e-01 6.281519e-01 6.400544e-01 6.447066e-01 6.590290e-01 
7.261820e-01 7.454175e-01 7.536547e-01 7.655963e-01 7.620443e-01 7.571834e-01 7.292642e-01 6.935025e-01 6.233638e-01 5.378358e-01 4.064507e-01 2.567261e-01 6.024656e-02 -1.451631e-01 -3.786995e-01 -6.010735e-01 -8.180405e-01 -1.000067e+00 -1.146504e+00 -1.243363e+00 -1.290226e+00 -1.291632e+00 -1.252895e+00 -1.189463e+00 -1.107099e+00 -1.018548e+00 -9.300233e-01 -8.454870e-01 -7.689163e-01 -7.000452e-01 -6.373652e-01 -5.829093e-01 -5.292217e-01 -4.817712e-01 -4.304702e-01 -3.820270e-01 -3.269949e-01 -2.724645e-01 -2.096405e-01 -1.483179e-01 -7.628852e-02 -1.117673e-02 6.928632e-02 1.339087e-01 2.201629e-01 2.812171e-01 3.681451e-01 4.239080e-01 5.028538e-01 5.502320e-01 6.094661e-01 6.423639e-01 6.721724e-01 6.860255e-01 6.878304e-01 6.880883e-01 6.766333e-01 6.758147e-01 6.665583e-01 6.731155e-01 6.727720e-01 6.876063e-01 6.952969e-01 7.149672e-01 
7.992400e-01 8.276075e-01 8.458918e-01 8.690496e-01 8.772900e-01 8.848666e-01 8.681712e-01 8.422978e-01 7.758675e-01 6.883022e-01 5.412731e-01 3.663671e-01 1.278606e-01 -1.268629e-01 -4.196182e-01 -7.023231e-01 -9.750946e-01 -1.204469e+00 -1.381452e+00 -1.493860e+00 -1.535296e+00 -1.516897e+00 -1.447431e+00 -1.349286e+00 -1.232882e+00 -1.114137e+00 -1.003407e+00 -9.021072e-01 -8.168686e-01 -7.432095e-01 -6.797230e-01 -6.270584e-01 -5.751610e-01 -5.306069e-01 -4.803657e-01 -4.321295e-01 -3.753219e-01 -3.165647e-01 -2.483365e-01 -1.787957e-01 -9.820417e-02 -2.309525e-02 6.822246e-02 1.421045e-01 2.409267e-01 3.095266e-01 4.101986e-01 4.728378e-01 5.652757e-01 6.197751e-01 6.889325e-01 7.271314e-01 7.587735e-01 7.717670e-01 7.663727e-01 7.604965e-01 7.392578e-01 7.330912e-01 7.180932e-01 7.238547e-01 7.234835e-01 7.419020e-01 7.540308e-01 7.804246e-01 
8.614049e-01 9.007400e-01 9.318090e-01 9.692242e-01 9.941342e-01 1.019298e+00 1.021475e+00 1.012416e+00 9.579252e-01 8.729946e-01 7.126103e-01 5.091504e-01 2.198600e-01 -9.531277e-02 -4.635114e-01 -8.209841e-01 -1.164667e+00 -1.450626e+00 -1.667880e+00 -1.796605e+00 -1.828174e+00 -1.780390e+00 -1.665839e+00 -1.523905e+00 -1.362335e+00 -1.206575e+00 -1.068025e+00 -9.458742e-01 -8.494448e-01 -7.687836e-01 -7.027978e-01 -6.508976e-01 -6.000118e-01 -5.582683e-01 -5.098788e-01 -4.626250e-01 -4.065149e-01 -3.450634e-01 -2.751541e-01 -1.995466e-01 -1.144620e-01 -3.187632e-02 6.710132e-02 1.477204e-01 2.578207e-01 3.319121e-01 4.474359e-01 5.160588e-01 6.253538e-01 6.878642e-01 7.712144e-01 8.165594e-01 8.517195e-01 8.635000e-01 8.474084e-01 8.321653e-01 7.957479e-01 7.812115e-01 7.569700e-01 7.609523e-01 7.595493e-01 7.820711e-01 7.991566e-01 8.334948e-01 
9.349810e-01 9.879816e-01 1.035784e+00 1.092571e+00 1.140993e+00 1.192833e+00 1.224364e+00 1.244414e+00 1.211798e+00 1.137303e+00 9.616847e-01 7.216245e-01 3.611308e-01 -3.827616e-02 -5.105394e-01 -9.759017e-01 -1.417329e+00 -1.785661e+00 -2.052280e+00 -2.201404e+00 -2.207772e+00 -2.103935e+00 -1.916996e+00 -1.701448e+00 -1.473998e+00 -1.266826e+00 -1.098060e+00 -9.580769e-01 -8.609159e-01 -7.848340e-01 -7.287564e-01 -6.901504e-01 -6.494502e-01 -6.193545e-01 -5.775797e-01 -5.348466e-01 -4.793015e-01 -4.131644e-01 -3.372150e-01 -2.492063e-01 -1.534015e-01 -5.575055e-02 5.648463e-02 1.488935e-01 2.740303e-01 3.543206e-01 4.866877e-01 5.598499e-01 6.876009e-01 7.593254e-01 8.600031e-01 9.186615e-01 9.605873e-01 9.753302e-01 9.470379e-01 9.205014e-01 8.648528e-01 8.383543e-01 8.026309e-01 8.032659e-01 8.011528e-01 8.281046e-01 8.517909e-01 8.954996e-01 
9.934953e-01 1.062418e+00 1.130670e+00 1.211651e+00 1.291819e+00 1.380311e+00 1.456313e+00 1.520316e+00 1.527130e+00 1.472583e+00 1.285866e+00 9.992949e-01 5.480239e-01 4.315465e-02 -5.632565e-01 -1.163056e+00 -1.725399e+00 -2.191065e+00 -2.530140e+00 -2.702855e+00 -2.672970e+00 -2.486959e+00 -2.191642e+00 -1.887128e+00 -1.575453e+00 -1.307630e+00 -1.104849e+00 -9.436600e-01 -8.465583e-01 -7.743748e-01 -7.273677e-01 -7.023099e-01 -6.709886e-01 -6.533138e-01 -6.195405e-01 -5.827967e-01 -5.318062e-01 -4.632521e-01 -3.874041e-01 -2.901186e-01 -1.905504e-01 -8.156635e-02 3.832846e-02 1.384887e-01 2.759526e-01 3.581238e-01 5.077783e-01 5.817648e-01 7.321413e-01 8.134315e-01 9.404437e-01 1.019484e+00 1.076633e+00 1.099861e+00 1.056539e+00 1.015715e+00 9.319104e-01 8.879159e-01 8.342386e-01 8.290445e-01 8.242023e-01 8.557575e-01 8.864410e-01 9.407693e-01 
1.062367e+00 1.150219e+00 1.244385e+00 1.357449e+00 1.481527e+00 1.623720e+00 1.766152e+00 1.899973e+00 1.969464e+00 1.951892e+00 1.750531e+00 1.399047e+00 8.133581e-01 1.657011e-01 -6.177594e-01 -1.408125e+00 -2.140939e+00 -2.754541e+00 -3.187762e+00 -3.403417e+00 -3.304817e+00 -2.969109e+00 -2.505349e+00 -2.046863e+00 -1.607213e+00 -1.255944e+00 -1.021998e+00 -8.541386e-01 -7.849052e-01 -7.426357e-01 -7.292464e-01 -7.418548e-01 -7.349929e-01 -7.446353e-01 -7.263607e-01 -7.009408e-01 -6.535343e-01 -5.783084e-01 -4.937376e-01 -3.746251e-01 -2.597662e-01 -1.243893e-01 1.217504e-02 1.289315e-01 2.831284e-01 3.642224e-01 5.301350e-01 5.939705e-01 7.628728e-01 8.481584e-01 1.003454e+00 1.117717e+00 1.202500e+00 1.251442e+00 1.197474e+00 1.143070e+00 1.025962e+00 9.568203e-01 8.798548e-01 8.637036e-01 8.547884e-01 8.895718e-01 9.282530e-01 9.939182e-01 
1.111537e+00 1.220673e+00 1.345267e+00 1.497658e+00 1.678455e+00 1.892105e+00 2.127923e+00 2.359874e+00 2.524781e+00 2.558487e+00 2.343991e+00 1.892903e+00 1.128616e+00 3.142614e-01 -6.835278e-01 -1.699932e+00 -2.619917e+00 -3.404180e+00 -4.010082e+00 -4.303983e+00 -4.121746e+00 -3.561537e+00 -2.832476e+00 -2.202407e+00 -1.611162e+00 -1.164541e+00 -9.044522e-01 -7.258665e-01 -6.906697e-01 -6.774871e-01 -6.940679e-01 -7.453257e-01 -7.595629e-01 -7.979165e-01 -7.966884e-01 -7.846152e-01 -7.466271e-01 -6.675043e-01 -5.838160e-01 -4.468093e-01 -3.280358e-01 -1.705868e-01 -2.572939e-02 1.035254e-01 2.716246e-01 3.456495e-01 5.277470e-01 5.705799e-01 7.589981e-01 8.394314e-01 1.032868e+00 1.193746e+00 1.327906e+00 1.424106e+00 1.361569e+00 1.296360e+00 1.133973e+00 1.030241e+00 9.181468e-01 8.843127e-01 8.664829e-01 9.026729e-01 9.486728e-01 1.026104e+00 
1.168079e+00 1.300722e+00 1.461774e+00 1.663513e+00 1.918825e+00 2.230385e+00 2.597478e+00 2.972917e+00 3.277915e+00 3.390166e+00 3.146128e+00 2.535864e+00 1.490387e+00 4.931892e-01 -7.140101e-01 -2.023947e+00 -3.233420e+00 -4.296041e+00 -5.146250e+00 -5.627844e+00 -5.308351e+00 -4.345475e+00 -3.226801e+00 -2.288017e+00 -1.449596e+00 -8.830662e-01 -6.194438e-01 -4.705111e-01 -5.316970e-01 -5.913425e-01 -6.743020e-01 -8.031098e-01 -8.550402e-01 -9.419890e-01 -9.678148e-01 -9.754773e-01 -9.436840e-01 -8.521131e-01 -7.499855e-01 -5.695021e-01 -4.233783e-01 -2.107092e-01 -4.069833e-02 1.225598e-01 3.146668e-01 3.766328e-01 5.742404e-01 5.666040e-01 7.576394e-01 8.002105e-01 1.010233e+00 1.235643e+00 1.439713e+00 1.624321e+00 1.571256e+00 1.505354e+00 1.297341e+00 1.146149e+00 9.890747e-01 9.253486e-01 8.929278e-01 9.250310e-01 9.767924e-01 1.064534e+00 
1.198859e+00 1.356050e+00 1.556562e+00 1.814840e+00 2.157866e+00 2.589756e+00 3.123105e+00 3.683849e+00 4.176994e+00 4.378545e+00 4.081456e+00 3.178294e+00 1.750020e+00 6.436589e-01 -7.158951e-01 -2.339706e+00 -3.795129e+00 -5.161880e+00 -6.539056e+00 -7.401048e+00 -6.939579e+00 -5.328796e+00 -3.548933e+00 -2.345998e+00 -1.292827e+00 -6.069533e-01 -3.703005e-01 -2.290694e-01 -3.862187e-01 -4.967517e-01 -6.151286e-01 -8.144079e-01 -8.867899e-01 -1.019817e+00 -1.071545e+00 -1.099121e+00 -1.079489e+00 -9.765386e-01 -8.689599e-01 -6.483314e-01 -4.928591e-01 -2.273985e-01 -4.250427e-02 1.575792e-01 3.808639e-01 4.374497e-01 6.668428e-01 6.002951e-01 8.017591e-01 7.745909e-01 9.805106e-01 1.250290e+00 1.542385e+00 1.845675e+00 1.795822e+00 1.745501e+00 1.485542e+00 1.278136e+00 1.062472e+00 9.576669e-01 9.030975e-01 9.260721e-01 9.810554e-01 1.077567e+00 
1.228863e+00 1.409147e+00 1.650795e+00 1.970551e+00 2.414392e+00 2.989601e+00 3.731208e+00 4.534905e+00 5.288694e+00 5.620408e+00 5.226646e+00 3.814254e+00 1.695461e+00 7.148022e-01 -3.314103e-01 -2.347078e+00 -4.462874e+00 -6.354319e+00 -8.369341e+00 -1.000408e+01 -9.288876e+00 -6.555960e+00 -3.962031e+00 -2.232191e+00 -7.577020e-01 -1.809142e-02 8.526452e-02 1.144345e-01 -2.683920e-01 -4.638784e-01 -6.423809e-01 -9.629073e-01 -1.050204e+00 -1.241789e+00 -1.331674e+00 -1.384533e+00 -1.370118e+00 -1.241801e+00 -1.083384e+00 -7.699539e-01 -5.544342e-01 -1.616891e-01 6.753654e-02 3.561458e-01 6.384517e-01 6.961352e-01 9.886483e-01 8.286219e-01 1.049232e+00 8.778738e-01 9.485436e-01 1.235772e+00 1.600357e+00 2.059159e+00 2.030287e+00 2.013697e+00 1.727143e+00 1.455309e+00 1.177022e+00 1.017122e+00 9.328095e-01 9.381160e-01 9.914667e-01 1.092218e+00 
1.223008e+00 1.423034e+00 1.700872e+00 2.078783e+00 2.618411e+00 3.340144e+00 4.299223e+00 5.379475e+00 6.444530e+00 6.941848e+00 6.427111e+00 4.130221e+00 1.017656e+00 6.772426e-01 4.970333e-01 -2.067456e+00 -4.719451e+00 -7.084047e+00 -1.048616e+01 -1.340212e+01 -1.239704e+01 -7.892582e+00 -3.845791e+00 -1.880068e+00 -3.238570e-01 4.160913e-01 3.279741e-01 2.907939e-01 -2.862325e-01 -4.865177e-01 -6.397770e-01 -1.057530e+00 -1.127495e+00 -1.374582e+00 -1.502558e+00 -1.585537e+00 -1.579569e+00 -1.421756e+00 -1.226797e+00 -8.189823e-01 -5.680857e-01 -5.252607e-02 2.072003e-01 5.829019e-01 9.432610e-01 1.044331e+00 1.473026e+00 1.267803e+00 1.624320e+00 1.361010e+00 1.124396e+00 1.185330e+00 1.557465e+00 2.178185e+00 2.132308e+00 2.188881e+00 1.912614e+00 1.592538e+00 1.263534e+00 1.049054e+00 9.367190e-01 9.218655e-01 9.721468e-01 1.074176e+00 
1.200407e+00 1.411220e+00 1.713656e+00 2.133759e+00 2.749297e+00 3.593695e+00 4.755589e+00 6.124815e+00 7.594289e+00 8.444078e+00 8.114785e+00 4.901951e+00 -4.992006e-01 -3.965847e-02 2.833560e+00 -1.532694e-01 -5.320721e+00 -9.058267e+00 -1.323596e+01 -1.779090e+01 -1.610352e+01 -9.673761e+00 -5.066078e+00 -1.358680e+00 1.544833e+00 1.946902e+00 1.429042e+00 9.588097e-01 -1.533238e-01 -3.774596e-01 -6.062686e-01 -1.219952e+00 -1.251778e+00 -1.558888e+00 -1.786332e+00 -1.951948e+00 -1.979686e+00 -1.821690e+00 -1.488278e+00 -9.219013e-01 -4.994437e-01 2.489165e-01 5.627252e-01 1.064145e+00 1.453348e+00 1.552931e+00 2.150855e+00 1.889759e+00 2.511529e+00 2.393064e+00 1.349654e+00 5.853386e-01 6.974690e-01 1.734599e+00 2.053974e+00 2.213936e+00 2.042663e+00 1.695447e+00 1.341035e+00 1.079862e+00 9.428204e-01 9.063719e-01 9.490564e-01 1.046777e+00 
1.130005e+00 1.341878e+00 1.651064e+00 2.087848e+00 2.732942e+00 3.639679e+00 4.904474e+00 6.478092e+00 8.256724e+00 9.626976e+00 9.813994e+00 7.001774e+00 3.737501e-01 -5.157937e-01 3.640078e+00 1.098198e+00 -5.551806e+00 -1.096211e+01 -1.673457e+01 -2.273687e+01 -1.997604e+01 -1.261519e+01 -8.006185e+00 -1.615143e+00 2.789925e+00 3.142159e+00 2.937321e+00 2.373550e+00 1.185658e+00 9.478003e-01 5.802517e-01 -1.105074e-01 -2.781163e-01 -6.415045e-01 -1.004183e+00 -1.286847e+00 -1.387733e+00 -1.369997e+00 -9.942721e-01 -5.657320e-01 -1.020478e-01 5.322997e-01 7.719351e-01 1.221809e+00 1.477988e+00 1.555403e+00 2.037917e+00 1.844753e+00 2.313642e+00 2.310007e+00 1.009959e+00 1.195102e-01 -3.016114e-01 6.507118e-01 1.655525e+00 1.948919e+00 1.977414e+00 1.639712e+00 1.314084e+00 1.034650e+00 8.960634e-01 8.467054e-01 8.858419e-01 9.772584e-01 
1.027528e+00 1.225306e+00 1.516463e+00 1.930590e+00 2.541022e+00 3.406763e+00 4.610097e+00 6.148897e+00 7.901497e+00 9.469690e+00 9.978415e+00 8.425590e+00 3.545265e+00 1.194284e+00 3.275347e+00 9.231398e-01 -6.261652e+00 -1.296083e+01 -1.986309e+01 -2.604260e+01 -2.279667e+01 -1.382050e+01 -7.182731e+00 -9.056319e-01 2.902836e+00 3.403016e+00 3.397030e+00 2.991721e+00 2.192327e+00 1.917324e+00 1.504797e+00 9.845501e-01 6.580189e-01 3.022779e-01 -4.724161e-02 -3.324821e-01 -4.628673e-01 -5.465148e-01 -3.357399e-01 -1.759360e-01 1.098257e-01 4.303567e-01 5.895556e-01 8.910605e-01 1.071070e+00 1.159334e+00 1.420395e+00 1.336313e+00 1.444840e+00 1.324773e+00 7.169057e-01 7.260387e-01 2.378448e-01 5.874283e-01 1.562197e+00 1.839418e+00 1.876838e+00 1.543857e+00 1.236015e+00 9.626657e-01 8.280868e-01 7.735847e-01 8.057754e-01 8.865126e-01 
8.764871e-01 1.049127e+00 1.303281e+00 1.664404e+00 2.190972e+00 2.937082e+00 3.960171e+00 5.277410e+00 6.763670e+00 8.169521e+00 8.729447e+00 7.945094e+00 4.864422e+00 2.953008e+00 3.729527e+00 1.924338e+00 -5.437504e+00 -1.475117e+01 -2.059574e+01 -2.418047e+01 -2.231717e+01 -1.393043e+01 -5.642338e+00 3.300062e-01 3.256044e+00 3.588445e+00 3.287126e+00 2.789123e+00 2.127123e+00 1.790762e+00 1.388269e+00 1.003794e+00 7.035942e-01 4.101759e-01 1.597504e-01 -5.962946e-02 -1.565675e-01 -2.260101e-01 -1.064236e-01 -5.227039e-03 1.917961e-01 4.164277e-01 5.625899e-01 7.826621e-01 9.231230e-01 9.769076e-01 1.106436e+00 1.009501e+00 9.897792e-01 8.695322e-01 6.511034e-01 1.008361e+00 8.201351e-01 1.002921e+00 1.569646e+00 1.696226e+00 1.651316e+00 1.330571e+00 1.059962e+00 8.187388e-01 7.054638e-01 6.556708e-01 6.845101e-01 7.531328e-01 
6.942297e-01 8.306338e-01 1.030566e+00 1.313733e+00 1.721063e+00 2.295676e+00 3.069745e+00 4.067515e+00 5.174197e+00 6.256271e+00 6.741202e+00 6.397257e+00 4.579258e+00 3.202531e+00 3.129877e+00 2.021701e+00 -2.794282e+00 -1.134197e+01 -1.681158e+01 -1.883206e+01 -1.841559e+01 -1.303810e+01 -5.770076e+00 -2.271398e-01 2.264007e+00 2.710888e+00 2.596516e+00 2.217074e+00 1.760308e+00 1.466727e+00 1.146392e+00 8.721277e-01 6.409328e-01 4.268536e-01 2.537806e-01 9.995738e-02 3.418789e-02 -1.794785e-02 5.112194e-02 1.086068e-01 2.326185e-01 3.651292e-01 4.672324e-01 5.976655e-01 6.849346e-01 7.180786e-01 7.761786e-01 7.162207e-01 6.835264e-01 6.656258e-01 5.943016e-01 8.810388e-01 8.653044e-01 1.033788e+00 1.359587e+00 1.388190e+00 1.307399e+00 1.042344e+00 8.310005e-01 6.445212e-01 5.588430e-01 5.201749e-01 5.432166e-01 5.968814e-01 
4.784304e-01 5.727592e-01 7.103346e-01 9.037819e-01 1.178519e+00 1.562851e+00 2.072476e+00 2.725379e+00 3.438765e+00 4.144328e+00 4.485579e+00 4.368894e+00 3.434647e+00 2.610310e+00 2.404596e+00 1.591742e+00 -1.186561e+00 -6.494686e+00 -1.091149e+01 -1.312800e+01 -1.313147e+01 -9.848124e+00 -4.998858e+00 -8.764860e-01 1.273837e+00 1.835881e+00 1.800253e+00 1.541849e+00 1.217108e+00 9.919443e-01 7.608726e-01 5.759538e-01 4.188539e-01 2.781160e-01 1.701272e-01 7.424969e-02 3.571067e-02 7.172326e-03 5.041331e-02 9.407441e-02 1.760332e-01 2.669231e-01 3.407434e-01 4.239000e-01 4.808438e-01 4.957257e-01 5.200419e-01 4.740314e-01 4.453235e-01 4.431949e-01 4.353058e-01 6.533818e-01 7.032541e-01 8.310526e-01 9.902093e-01 9.730631e-01 8.901390e-01 7.034819e-01 5.610230e-01 4.365662e-01 3.815473e-01 3.561074e-01 3.733933e-01 4.105817e-01 
2.449947e-01 2.928685e-01 3.623234e-01 4.597111e-01 5.966549e-01 7.874636e-01 1.037186e+00 1.356452e+00 1.700091e+00 2.043283e+00 2.212729e+00 2.184345e+00 1.785538e+00 1.407373e+00 1.252022e+00 8.777759e-01 -2.628905e-01 -2.805268e+00 -5.166595e+00 -6.525788e+00 -6.825904e+00 -5.396365e+00 -2.947628e+00 -7.089249e-01 4.984237e-01 8.696096e-01 8.942073e-01 7.769292e-01 6.268254e-01 5.124337e-01 3.987133e-01 3.075011e-01 2.290980e-01 1.595691e-01 1.063714e-01 5.913637e-02 3.983317e-02 2.452763e-02 4.334606e-02 6.136688e-02 9.856158e-02 1.376449e-01 1.717058e-01 2.075530e-01 2.323714e-01 2.393248e-01 2.471744e-01 2.289628e-01 2.142387e-01 2.227025e-01 2.251762e-01 3.281428e-01 3.669018e-01 4.364510e-01 5.059457e-01 4.898323e-01 4.444616e-01 3.511963e-01 2.817976e-01 2.210835e-01 1.947332e-01 1.825463e-01 1.915919e-01 2.105606e-01 
1.563535e-14 1.232959e-14 9.271594e-15 6.616673e-15 2.023059e-15 -1.439983e-15 -7.575268e-15 -8.607760e-15 -1.571340e-14 -1.416662e-14 -1.878883e-14 -1.925150e-14 -1.472832e-14 -4.122003e-14 -1.083661e-14 -1.201925e-13 -7.726993e-14 -3.164245e-14 4.430400e-14 1.826770e-13 6.839475e-14 2.370876e-13 1.169713e-13 -4.987730e-14 -4.161081e-14 -1.737941e-13 -4.542435e-14 -2.132052e-13 1.062064e-14 -9.008350e-14 2.485163e-14 1.016185e-13 -2.833118e-14 4.933476e-14 -5.311917e-14 3.736091e-14 -2.540052e-14 7.508445e-14 1.381950e-14 8.508271e-14 1.867734e-15 1.223658e-13 -4.913147e-15 1.254531e-13 4.833814e-14 7.682413e-14 9.196048e-14 -5.430768e-14 2.110356e-14 -1.735681e-13 -1.340875e-13 -1.811545e-13 -1.229194e-13 -9.844722e-14 -4.115682e-14 -1.257378e-14 1.586617e-14 2.430355e-14 3.052821e-14 2.829134e-14 2.758539e-14 2.392062e-14 2.195188e-14 1.796836e-14 
-2.449947e-01 -2.928685e-01 -3.623234e-01 -4.597111e-01 -5.966549e-01 -7.874636e-01 -1.037186e+00 -1.356452e+00 -1.700091e+00 -2.043283e+00 -2.212729e+00 -2.184345e+00 -1.785538e+00 -1.407373e+00 -1.252022e+00 -8.777759e-01 2.628905e-01 2.805268e+00 5.166595e+00 6.525788e+00 6.825904e+00 5.396365e+00 2.947628e+00 7.089249e-01 -4.984237e-01 -8.696096e-01 -8.942073e-01 -7.769292e-01 -6.268254e-01 -5.124337e-01 -3.987133e-01 -3.075011e-01 -2.290980e-01 -1.595691e-01 -1.063714e-01 -5.913637e-02 -3.983317e-02 -2.452763e-02 -4.334606e-02 -6.136688e-02 -9.856158e-02 -1.376449e-01 -1.717058e-01 -2.075530e-01 -2.323714e-01 -2.393248e-01 -2.471744e-01 -2.289628e-01 -2.142387e-01 -2.227025e-01 -2.251762e-01 -3.281428e-01 -3.669018e-01 -4.364510e-01 -5.059457e-01 -4.898323e-01 -4.444616e-01 -3.511963e-01 -2.817976e-01 -2.210835e-01 -1.947332e-01 -1.825463e-01 -1.915919e-01 -2.105606e-01 