# vtk DataFile Version 2.0
Comment goes here
ASCII

DATASET STRUCTURED_POINTS
DIMENSIONS    64   64   1

ORIGIN    0.000   0.000   0.000
SPACING   0.0781250.078125   1.000

POINT_DATA   4096
VECTORS u double

-0.009563 0.000000 1.000000 0.020801 0.000000 1.000000 0.024313 0.000000 1.000000 0.053246 0.000000 1.000000 0.046726 0.000000 1.000000 0.068941 0.000000 1.000000 0.048324 0.000000 1.000000 0.059841 0.000000 1.000000 0.022626 0.000000 1.000000 0.021085 0.000000 1.000000 -0.033312 0.000000 1.000000 -0.048370 -0.000000 1.000000 -0.118300 0.000000 1.000000 -0.145213 -0.000000 1.000000 -0.226585 -0.000000 1.000000 -0.261463 -0.000000 1.000000 -0.347732 -0.000000 1.000000 -0.384625 -0.000000 1.000000 -0.467123 -0.000000 1.000000 -0.498569 -0.000000 1.000000 -0.567294 -0.000000 1.000000 -0.585310 -0.000000 1.000000 -0.630183 -0.000000 1.000000 -0.627614 -0.000000 1.000000 -0.640094 -0.000000 1.000000 -0.612115 -0.000000 1.000000 -0.586901 -0.000000 1.000000 -0.532350 -0.000000 1.000000 -0.468818 -0.000000 1.000000 -0.391022 -0.000000 1.000000 -0.293975 -0.000000 1.000000 -0.200740 -0.000000 1.000000 -0.080145 -0.000000 1.000000 0.017201 -0.000000 1.000000 0.147586 -0.000000 1.000000 0.235989 -0.000000 1.000000 0.360873 -0.000000 1.000000 0.427819 -0.000000 1.000000 0.533058 -0.000000 1.000000 0.568846 -0.000000 1.000000 0.643919 -0.000000 1.000000 0.643486 -0.000000 1.000000 0.683210 -0.000000 1.000000 0.647107 -0.000000 1.000000 0.652188 -0.000000 1.000000 0.586462 -0.000000 1.000000 0.562849 -0.000000 1.000000 0.477826 -0.000000 1.000000 0.435074 0.000000 1.000000 0.343300 -0.000000 1.000000 0.292401 -0.000000 1.000000 0.206232 -0.000000 1.000000 0.157401 -0.000000 1.000000 0.086824 -0.000000 1.000000 0.047724 -0.000000 1.000000 -0.001071 -0.000000 1.000000 -0.026345 -0.000000 1.000000 -0.051399 -0.000000 1.000000 -0.062443 -0.000000 1.000000 -0.065562 -0.000000 1.000000 -0.065056 -0.000000 1.000000 -0.050780 -0.000000 1.000000 -0.043483 0.000000 1.000000 -0.017889 -0.000000 1.000000 
-0.013831 -0.019345 1.000000 0.016514 -0.016938 1.000000 0.019682 -0.016223 1.000000 0.048579 -0.011207 1.000000 0.041710 -0.007847 1.000000 0.063842 -0.000799 1.000000 0.042814 0.004550 1.000000 0.054187 0.012849 1.000000 0.016455 0.019378 1.000000 0.014706 0.027969 1.000000 -0.040342 0.034728 1.000000 -0.055663 0.042494 1.000000 -0.126383 0.048421 1.000000 -0.153580 0.054142 1.000000 -0.235850 0.058125 1.000000 -0.270975 0.060573 1.000000 -0.358178 0.061581 1.000000 -0.395192 0.059695 1.000000 -0.478546 0.056972 1.000000 -0.509877 0.050085 1.000000 -0.579233 0.043370 1.000000 -0.596781 0.031445 1.000000 -0.641897 0.021152 1.000000 -0.638417 0.004955 1.000000 -0.650600 -0.007750 1.000000 -0.621225 -0.026597 1.000000 -0.595079 -0.039882 1.000000 -0.538682 -0.059041 1.000000 -0.473581 -0.070664 1.000000 -0.393610 -0.087422 1.000000 -0.294466 -0.095141 1.000000 -0.198937 -0.106915 1.000000 -0.075933 -0.108971 1.000000 0.023564 -0.113865 1.000000 0.156389 -0.109394 1.000000 0.246529 -0.106644 1.000000 0.373612 -0.095915 1.000000 0.441652 -0.086092 1.000000 0.548632 -0.070513 1.000000 0.584729 -0.055431 1.000000 0.660967 -0.037320 1.000000 0.660029 -0.019645 1.000000 0.700310 -0.001810 1.000000 0.662976 0.015511 1.000000 0.668044 0.030322 1.000000 0.600553 0.044670 1.000000 0.576432 0.054318 1.000000 0.489365 0.063887 1.000000 0.445709 0.067263 1.000000 0.351881 0.071337 1.000000 0.299806 0.068534 1.000000 0.211804 0.067500 1.000000 0.161677 0.059704 1.000000 0.089641 0.054839 1.000000 0.049277 0.043947 1.000000 -0.000550 0.037034 1.000000 -0.026935 0.025164 1.000000 -0.052631 0.018049 1.000000 -0.064575 0.007082 1.000000 -0.068036 0.001307 1.000000 -0.068217 -0.007391 1.000000 -0.054089 -0.010787 1.000000 -0.047305 -0.016445 1.000000 -0.021760 -0.016960 1.000000 
-0.009540 -0.038274 1.000000 0.023921 -0.033513 1.000000 0.030038 -0.032065 1.000000 0.061613 -0.022027 1.000000 0.057123 -0.015263 1.000000 0.081324 -0.001105 1.000000 0.061956 0.009654 1.000000 0.074648 0.026359 1.000000 0.037723 0.039481 1.000000 0.036409 0.056797 1.000000 -0.018813 0.070369 1.000000 -0.034708 0.086041 1.000000 -0.106686 0.097917 1.000000 -0.135547 0.109467 1.000000 -0.220195 0.117395 1.000000 -0.258054 0.122328 1.000000 -0.348659 0.124217 1.000000 -0.389289 0.120369 1.000000 -0.476791 0.114685 1.000000 -0.512235 0.100686 1.000000 -0.586001 0.086904 1.000000 -0.607599 0.062664 1.000000 -0.656743 0.041636 1.000000 -0.656592 0.008703 1.000000 -0.671718 -0.017192 1.000000 -0.644323 -0.055520 1.000000 -0.619414 -0.082542 1.000000 -0.563203 -0.121498 1.000000 -0.497261 -0.145072 1.000000 -0.415560 -0.179115 1.000000 -0.313521 -0.194673 1.000000 -0.214620 -0.218533 1.000000 -0.087137 -0.222500 1.000000 0.016740 -0.232323 1.000000 0.154776 -0.222966 1.000000 0.249441 -0.217222 1.000000 0.381401 -0.195123 1.000000 0.453201 -0.175020 1.000000 0.563700 -0.143078 1.000000 0.602021 -0.112335 1.000000 0.679689 -0.075300 1.000000 0.678980 -0.039343 1.000000 0.718352 -0.002947 1.000000 0.679225 0.032266 1.000000 0.681333 0.062423 1.000000 0.610445 0.091612 1.000000 0.582054 0.111188 1.000000 0.490761 0.130723 1.000000 0.442514 0.137484 1.000000 0.344566 0.145903 1.000000 0.288559 0.140077 1.000000 0.197400 0.138129 1.000000 0.144739 0.122163 1.000000 0.071071 0.112399 1.000000 0.029924 0.090190 1.000000 -0.019847 0.076212 1.000000 -0.045322 0.052081 1.000000 -0.069472 0.037640 1.000000 -0.079176 0.015405 1.000000 -0.080025 0.003643 1.000000 -0.077141 -0.013946 1.000000 -0.059828 -0.020912 1.000000 -0.049651 -0.032329 1.000000 -0.020786 -0.033474 1.000000 
-0.013866 -0.064053 1.000000 0.022721 -0.056516 1.000000 0.031160 -0.053914 1.000000 0.065367 -0.038292 1.000000 0.062612 -0.027558 1.000000 0.088731 -0.005632 1.000000 0.070246 0.011226 1.000000 0.083974 0.037083 1.000000 0.046848 0.057617 1.000000 0.045542 0.084504 1.000000 -0.011155 0.105845 1.000000 -0.028181 0.130368 1.000000 -0.103029 0.149261 1.000000 -0.134184 0.167652 1.000000 -0.223076 0.180632 1.000000 -0.264252 0.189038 1.000000 -0.360242 0.192816 1.000000 -0.404841 0.187828 1.000000 -0.498353 0.179918 1.000000 -0.537791 0.159295 1.000000 -0.617394 0.138734 1.000000 -0.642198 0.102187 1.000000 -0.696004 0.070145 1.000000 -0.697400 0.019931 1.000000 -0.714972 -0.020019 1.000000 -0.686731 -0.078901 1.000000 -0.661201 -0.121002 1.000000 -0.601360 -0.181194 1.000000 -0.531330 -0.218307 1.000000 -0.443343 -0.271162 1.000000 -0.334000 -0.296081 1.000000 -0.226875 -0.333299 1.000000 -0.089819 -0.340331 1.000000 0.023011 -0.355778 1.000000 0.171415 -0.342095 1.000000 0.274307 -0.333269 1.000000 0.415757 -0.299674 1.000000 0.493648 -0.268392 1.000000 0.611275 -0.219333 1.000000 0.652469 -0.171420 1.000000 0.733928 -0.114280 1.000000 0.732350 -0.058308 1.000000 0.771890 -0.002054 1.000000 0.728317 0.052530 1.000000 0.727365 0.099102 1.000000 0.649295 0.143949 1.000000 0.615519 0.174003 1.000000 0.515642 0.203428 1.000000 0.460870 0.213457 1.000000 0.354462 0.225291 1.000000 0.292021 0.215700 1.000000 0.193887 0.211320 1.000000 0.135947 0.186033 1.000000 0.057674 0.169654 1.000000 0.013100 0.134865 1.000000 -0.038645 0.112280 1.000000 -0.065491 0.074789 1.000000 -0.089287 0.051902 1.000000 -0.098551 0.017635 1.000000 -0.097366 -0.000728 1.000000 -0.092753 -0.027588 1.000000 -0.072455 -0.038277 1.000000 -0.059854 -0.055487 1.000000 -0.027696 -0.057070 1.000000 
-0.008983 -0.088691 1.000000 0.034056 -0.078539 1.000000 0.048250 -0.074711 1.000000 0.087946 -0.053479 1.000000 0.089750 -0.038627 1.000000 0.120065 -0.008739 1.000000 0.104622 0.014412 1.000000 0.120978 0.049757 1.000000 0.085076 0.077913 1.000000 0.084556 0.114800 1.000000 0.026963 0.144092 1.000000 0.008606 0.177915 1.000000 -0.069513 0.203920 1.000000 -0.104305 0.229514 1.000000 -0.198948 0.247464 1.000000 -0.246027 0.259494 1.000000 -0.350040 0.264805 1.000000 -0.402377 0.258479 1.000000 -0.505526 0.247635 1.000000 -0.553637 0.219728 1.000000 -0.643336 0.191311 1.000000 -0.676431 0.141274 1.000000 -0.739242 0.096838 1.000000 -0.747012 0.027670 1.000000 -0.770793 -0.027861 1.000000 -0.745559 -0.109291 1.000000 -0.721938 -0.167913 1.000000 -0.660741 -0.251369 1.000000 -0.587433 -0.303089 1.000000 -0.493536 -0.376445 1.000000 -0.375829 -0.411142 1.000000 -0.259029 -0.462714 1.000000 -0.109749 -0.472387 1.000000 0.014858 -0.493556 1.000000 0.177184 -0.474261 1.000000 0.291777 -0.461565 1.000000 0.446204 -0.414464 1.000000 0.533477 -0.370538 1.000000 0.660615 -0.301899 1.000000 0.707019 -0.234988 1.000000 0.792753 -0.155181 1.000000 0.791157 -0.077305 1.000000 0.829146 0.001087 1.000000 0.780336 0.076791 1.000000 0.772710 0.141445 1.000000 0.685309 0.203458 1.000000 0.641497 0.244841 1.000000 0.530188 0.285372 1.000000 0.464351 0.298663 1.000000 0.346795 0.314752 1.000000 0.274576 0.300653 1.000000 0.167733 0.294203 1.000000 0.103078 0.258376 1.000000 0.019916 0.235246 1.000000 -0.027432 0.186509 1.000000 -0.079899 0.154803 1.000000 -0.105673 0.102724 1.000000 -0.126595 0.070701 1.000000 -0.131774 0.023483 1.000000 -0.125216 -0.002155 1.000000 -0.114663 -0.038857 1.000000 -0.087701 -0.053811 1.000000 -0.068425 -0.077088 1.000000 -0.029338 -0.079463 1.000000 
-0.012928 -0.127447 1.000000 0.036703 -0.113749 1.000000 0.056210 -0.107803 1.000000 0.101427 -0.079792 1.000000 0.107314 -0.059678 1.000000 0.141717 -0.020504 1.000000 0.128677 0.010313 1.000000 0.147391 0.056629 1.000000 0.111797 0.094040 1.000000 0.111607 0.142617 1.000000 0.051833 0.181794 1.000000 0.031496 0.226843 1.000000 -0.051594 0.262172 1.000000 -0.090832 0.297087 1.000000 -0.193307 0.322354 1.000000 -0.247150 0.340129 1.000000 -0.361515 0.349167 1.000000 -0.422297 0.343313 1.000000 -0.537407 0.331178 1.000000 -0.594443 0.297105 1.000000 -0.696186 0.261528 1.000000 -0.737030 0.198093 1.000000 -0.809963 0.140726 1.000000 -0.822471 0.051482 1.000000 -0.852286 -0.021472 1.000000 -0.827150 -0.127756 1.000000 -0.803613 -0.205820 1.000000 -0.736880 -0.315699 1.000000 -0.656706 -0.385512 1.000000 -0.551697 -0.482766 1.000000 -0.420527 -0.530588 1.000000 -0.288367 -0.599380 1.000000 -0.120872 -0.614218 1.000000 0.020946 -0.642711 1.000000 0.203241 -0.619014 1.000000 0.333962 -0.602289 1.000000 0.506662 -0.541373 1.000000 0.606109 -0.482803 1.000000 0.746738 -0.392876 1.000000 0.799108 -0.303557 1.000000 0.891546 -0.198417 1.000000 0.888553 -0.094701 1.000000 0.925932 0.008766 1.000000 0.868621 0.108966 1.000000 0.853983 0.194130 1.000000 0.752645 0.275162 1.000000 0.697389 0.329123 1.000000 0.569431 0.380574 1.000000 0.490216 0.396851 1.000000 0.356434 0.415065 1.000000 0.271458 0.394762 1.000000 0.151611 0.382818 1.000000 0.076996 0.333850 1.000000 -0.014174 0.300164 1.000000 -0.067317 0.234680 1.000000 -0.122394 0.190522 1.000000 -0.149551 0.121485 1.000000 -0.168480 0.078003 1.000000 -0.171359 0.016256 1.000000 -0.159657 -0.017839 1.000000 -0.144363 -0.065103 1.000000 -0.110642 -0.084516 1.000000 -0.085472 -0.113850 1.000000 -0.039272 -0.116512 1.000000 
-0.006202 -0.164667 1.000000 0.053703 -0.147677 1.000000 0.082194 -0.139435 1.000000 0.136040 -0.104583 1.000000 0.148991 -0.078917 1.000000 0.189988 -0.030102 1.000000 0.181671 0.008738 1.000000 0.204598 0.066637 1.000000 0.170942 0.113697 1.000000 0.172159 0.174765 1.000000 0.111019 0.224202 1.000000 0.088781 0.281342 1.000000 0.000503 0.326248 1.000000 -0.044390 0.371227 1.000000 -0.156201 0.403782 1.000000 -0.219552 0.427702 1.000000 -0.347225 0.439953 1.000000 -0.420775 0.434371 1.000000 -0.552171 0.419781 1.000000 -0.623760 0.378507 1.000000 -0.742837 0.333897 1.000000 -0.797752 0.255050 1.000000 -0.886369 0.182279 1.000000 -0.909748 0.069994 1.000000 -0.950538 -0.023182 1.000000 -0.930430 -0.157964 1.000000 -0.910349 -0.258183 1.000000 -0.840907 -0.398276 1.000000 -0.754903 -0.488272 1.000000 -0.639008 -0.612623 1.000000 -0.492768 -0.674472 1.000000 -0.342963 -0.762370 1.000000 -0.153327 -0.781699 1.000000 0.009846 -0.817669 1.000000 0.217426 -0.787277 1.000000 0.369268 -0.764986 1.000000 0.565561 -0.686611 1.000000 0.681862 -0.610614 1.000000 0.839765 -0.494899 1.000000 0.901384 -0.379796 1.000000 1.001532 -0.244625 1.000000 0.998256 -0.111691 1.000000 1.032743 0.021018 1.000000 0.965628 0.148740 1.000000 0.938843 0.257421 1.000000 0.820247 0.360053 1.000000 0.746856 0.428056 1.000000 0.597883 0.492544 1.000000 0.498810 0.511660 1.000000 0.344698 0.533510 1.000000 0.242323 0.505476 1.000000 0.106836 0.488665 1.000000 0.020444 0.424161 1.000000 -0.079218 0.379559 1.000000 -0.137030 0.294729 1.000000 -0.193039 0.237037 1.000000 -0.218132 0.148809 1.000000 -0.231758 0.092509 1.000000 -0.227551 0.014660 1.000000 -0.206510 -0.029151 1.000000 -0.181282 -0.087872 1.000000 -0.136394 -0.112702 1.000000 -0.100378 -0.148458 1.000000 -0.042902 -0.152007 1.000000 
-0.008558 -0.224052 1.000000 0.061958 -0.202145 1.000000 0.099306 -0.190140 1.000000 0.161921 -0.146589 1.000000 0.181749 -0.113626 1.000000 0.229295 -0.053184 1.000000 0.225319 -0.004298 1.000000 0.252219 0.067359 1.000000 0.219770 0.126479 1.000000 0.221913 0.202539 1.000000 0.158182 0.265171 1.000000 0.133262 0.337359 1.000000 0.037974 0.395344 1.000000 -0.013678 0.453790 1.000000 -0.137255 0.497515 1.000000 -0.211466 0.531154 1.000000 -0.355379 0.550390 1.000000 -0.443060 0.548259 1.000000 -0.593902 0.534163 1.000000 -0.681005 0.487771 1.000000 -0.820341 0.435520 1.000000 -0.889380 0.341625 1.000000 -0.995741 0.252722 1.000000 -1.028678 0.115651 1.000000 -1.080942 -0.000790 1.000000 -1.062868 -0.167944 1.000000 -1.044561 -0.295343 1.000000 -0.967620 -0.471145 1.000000 -0.871605 -0.587412 1.000000 -0.738451 -0.744902 1.000000 -0.570731 -0.826632 1.000000 -0.396033 -0.938821 1.000000 -0.176536 -0.967028 1.000000 0.015042 -1.013463 1.000000 0.255648 -0.978436 1.000000 0.434395 -0.950424 1.000000 0.660839 -0.853967 1.000000 0.797656 -0.757007 1.000000 0.977426 -0.612398 1.000000 1.049260 -0.465324 1.000000 1.159563 -0.295289 1.000000 1.154100 -0.125911 1.000000 1.186294 0.041393 1.000000 1.104946 0.202865 1.000000 1.065231 0.339511 1.000000 0.923223 0.467149 1.000000 0.829825 0.551486 1.000000 0.653003 0.628620 1.000000 0.531148 0.650036 1.000000 0.350246 0.671552 1.000000 0.226610 0.632625 1.000000 0.070320 0.604697 1.000000 -0.032075 0.519904 1.000000 -0.143552 0.457638 1.000000 -0.209775 0.348501 1.000000 -0.268236 0.271624 1.000000 -0.293992 0.160204 1.000000 -0.302534 0.087423 1.000000 -0.292923 -0.008992 1.000000 -0.262090 -0.064108 1.000000 -0.227825 -0.135219 1.000000 -0.171142 -0.165419 1.000000 -0.124705 -0.207342 1.000000 -0.055421 -0.210689 1.000000 
0.002395 -0.282046 1.000000 0.087646 -0.255541 1.000000 0.137755 -0.239398 1.000000 0.212530 -0.187025 1.000000 0.242347 -0.146291 1.000000 0.299228 -0.073673 1.000000 0.302100 -0.014186 1.000000 0.335214 0.072186 1.000000 0.305930 0.144003 1.000000 0.310599 0.236352 1.000000 0.245545 0.312853 1.000000 0.218584 0.401551 1.000000 0.116507 0.473189 1.000000 0.057262 0.546456 1.000000 -0.079424 0.601570 1.000000 -0.167358 0.645826 1.000000 -0.330871 0.671546 1.000000 -0.437839 0.672894 1.000000 -0.613555 0.657726 1.000000 -0.723368 0.604945 1.000000 -0.889979 0.542272 1.000000 -0.981593 0.430450 1.000000 -1.113373 0.321577 1.000000 -1.164321 0.155195 1.000000 -1.235120 0.011008 1.000000 -1.225988 -0.194346 1.000000 -1.214424 -0.353431 1.000000 -1.133855 -0.571232 1.000000 -1.029375 -0.717441 1.000000 -0.878928 -0.913497 1.000000 -0.687228 -1.016890 1.000000 -0.483859 -1.156565 1.000000 -0.228352 -1.192775 1.000000 -0.001889 -1.249853 1.000000 0.280203 -1.206629 1.000000 0.493529 -1.170177 1.000000 0.758805 -1.049871 1.000000 0.923282 -0.927201 1.000000 1.131331 -0.746503 1.000000 1.218368 -0.561933 1.000000 1.340858 -0.349465 1.000000 1.334826 -0.138423 1.000000 1.361441 0.070173 1.000000 1.263654 0.269803 1.000000 1.203057 0.439143 1.000000 1.032166 0.595459 1.000000 0.908275 0.698276 1.000000 0.696420 0.791221 1.000000 0.541726 0.814417 1.000000 0.327313 0.838048 1.000000 0.175494 0.785401 1.000000 -0.005825 0.747350 1.000000 -0.126547 0.638033 1.000000 -0.250532 0.557259 1.000000 -0.322946 0.419413 1.000000 -0.381224 0.321254 1.000000 -0.402215 0.183108 1.000000 -0.400829 0.091440 1.000000 -0.378960 -0.025784 1.000000 -0.332612 -0.094249 1.000000 -0.282480 -0.178820 1.000000 -0.208409 -0.215822 1.000000 -0.145559 -0.264178 1.000000 -0.059536 -0.268154 1.000000 
0.004151 -0.371234 1.000000 0.104674 -0.337505 1.000000 0.167860 -0.315023 1.000000 0.255027 -0.251181 1.000000 0.295066 -0.200324 1.000000 0.361314 -0.112937 1.000000 0.371055 -0.040283 1.000000 0.410218 0.063529 1.000000 0.383699 0.151094 1.000000 0.390439 0.262924 1.000000 0.322991 0.357186 1.000000 0.293094 0.466398 1.000000 0.182284 0.556666 1.000000 0.113970 0.649721 1.000000 -0.038726 0.722136 1.000000 -0.142474 0.782601 1.000000 -0.329401 0.820871 1.000000 -0.458095 0.830943 1.000000 -0.663151 0.819692 1.000000 -0.797850 0.764195 1.000000 -0.996268 0.693745 1.000000 -1.111558 0.565019 1.000000 -1.272451 0.435451 1.000000 -1.340724 0.237399 1.000000 -1.431845 0.060877 1.000000 -1.428682 -0.188641 1.000000 -1.422628 -0.387476 1.000000 -1.332821 -0.656194 1.000000 -1.214827 -0.842339 1.000000 -1.038856 -1.087049 1.000000 -0.814536 -1.221701 1.000000 -0.572622 -1.397696 1.000000 -0.270369 -1.448998 1.000000 0.000710 -1.522018 1.000000 0.334936 -1.473854 1.000000 0.590842 -1.429027 1.000000 0.903564 -1.283720 1.000000 1.100821 -1.129533 1.000000 1.342557 -0.907484 1.000000 1.446159 -0.674851 1.000000 1.583007 -0.411747 1.000000 1.573633 -0.146495 1.000000 1.594471 0.112565 1.000000 1.473833 0.361249 1.000000 1.390832 0.570998 1.000000 1.182306 0.761931 1.000000 1.025540 0.887233 1.000000 0.769141 0.995169 1.000000 0.577967 1.019144 1.000000 0.321279 1.037785 1.000000 0.135960 0.965762 1.000000 -0.076958 0.906738 1.000000 -0.222063 0.764611 1.000000 -0.362046 0.654036 1.000000 -0.445638 0.479193 1.000000 -0.504385 0.350893 1.000000 -0.523639 0.179809 1.000000 -0.511248 0.064168 1.000000 -0.478437 -0.077209 1.000000 -0.414947 -0.160588 1.000000 -0.349231 -0.259423 1.000000 -0.256338 -0.302341 1.000000 -0.176896 -0.356216 1.000000 -0.073164 -0.358642 1.000000 
0.023655 -0.459884 1.000000 0.143949 -0.419250 1.000000 0.224137 -0.389752 1.000000 0.327240 -0.314232 1.000000 0.380563 -0.252577 1.000000 0.459178 -0.149661 1.000000 0.478429 -0.063090 1.000000 0.526368 0.059542 1.000000 0.505036 0.163782 1.000000 0.516283 0.297060 1.000000 0.448513 0.410199 1.000000 0.417392 0.542258 1.000000 0.299018 0.652312 1.000000 0.221712 0.767466 1.000000 0.052270 0.858013 1.000000 -0.070026 0.936500 1.000000 -0.284093 0.987168 1.000000 -0.440768 1.006645 1.000000 -0.682181 0.997481 1.000000 -0.851325 0.938062 1.000000 -1.091229 0.855980 1.000000 -1.242031 0.706633 1.000000 -1.443097 0.550743 1.000000 -1.541022 0.314589 1.000000 -1.663111 0.098966 1.000000 -1.676288 -0.203563 1.000000 -1.683609 -0.449292 1.000000 -1.590331 -0.779033 1.000000 -1.461451 -1.011406 1.000000 -1.259468 -1.313788 1.000000 -0.998686 -1.483123 1.000000 -0.711881 -1.700732 1.000000 -0.353147 -1.766108 1.000000 -0.027109 -1.855158 1.000000 0.372943 -1.796761 1.000000 0.683499 -1.738805 1.000000 1.058183 -1.559850 1.000000 1.299424 -1.366194 1.000000 1.585977 -1.091841 1.000000 1.714016 -0.802382 1.000000 1.869204 -0.476940 1.000000 1.859042 -0.149887 1.000000 1.869163 0.169973 1.000000 1.722011 0.473442 1.000000 1.603702 0.730670 1.000000 1.348383 0.960751 1.000000 1.141498 1.111441 1.000000 0.828390 1.238794 1.000000 0.584385 1.262279 1.000000 0.274055 1.280055 1.000000 0.044561 1.183638 1.000000 -0.206810 1.105374 1.000000 -0.379074 0.923121 1.000000 -0.535757 0.780834 1.000000 -0.625879 0.561753 1.000000 -0.680392 0.399256 1.000000 -0.688718 0.189971 1.000000 -0.657618 0.046237 1.000000 -0.603494 -0.122085 1.000000 -0.514601 -0.223455 1.000000 -0.424030 -0.337429 1.000000 -0.305002 -0.388157 1.000000 -0.201687 -0.447352 1.000000 -0.074400 -0.449200 1.000000 
0.034303 -0.589583 1.000000 0.174967 -0.537987 1.000000 0.272999 -0.498315 1.000000 0.392262 -0.407607 1.000000 0.459647 -0.332262 1.000000 0.550728 -0.210802 1.000000 0.580119 -0.107473 1.000000 0.636834 0.036922 1.000000 0.620867 0.161179 1.000000 0.636335 0.319446 1.000000 0.567518 0.456076 1.000000 0.534287 0.615893 1.000000 0.406348 0.752346 1.000000 0.318206 0.896469 1.000000 0.128580 1.013873 1.000000 -0.015384 1.118964 1.000000 -0.261572 1.191613 1.000000 -0.450382 1.229031 1.000000 -0.734525 1.230249 1.000000 -0.942328 1.173243 1.000000 -1.230761 1.084450 1.000000 -1.419932 0.916887 1.000000 -1.667555 0.734441 1.000000 -1.795547 0.457413 1.000000 -1.952757 0.196143 1.000000 -1.979650 -0.168143 1.000000 -2.000328 -0.473433 1.000000 -1.897128 -0.878352 1.000000 -1.751195 -1.173201 1.000000 -1.512146 -1.549814 1.000000 -1.202516 -1.769288 1.000000 -0.856556 -2.043235 1.000000 -0.425382 -2.133770 1.000000 -0.030399 -2.248108 1.000000 0.450992 -2.184462 1.000000 0.827572 -2.114266 1.000000 1.276070 -1.899645 1.000000 1.568765 -1.657327 1.000000 1.906423 -1.322076 1.000000 2.061037 -0.958078 1.000000 2.235629 -0.556773 1.000000 2.220517 -0.146454 1.000000 2.217882 0.249597 1.000000 2.034483 0.626711 1.000000 1.878135 0.944627 1.000000 1.563059 1.224134 1.000000 1.303560 1.407225 1.000000 0.920047 1.552283 1.000000 0.619276 1.573479 1.000000 0.242796 1.577609 1.000000 -0.038559 1.446627 1.000000 -0.337246 1.330372 1.000000 -0.546345 1.093558 1.000000 -0.723141 0.900842 1.000000 -0.826912 0.623827 1.000000 -0.875862 0.413732 1.000000 -0.876340 0.157035 1.000000 -0.822980 -0.021056 1.000000 -0.747815 -0.220226 1.000000 -0.629972 -0.340052 1.000000 -0.513637 -0.469021 1.000000 -0.365971 -0.524684 1.000000 -0.237680 -0.586818 1.000000 -0.085460 -0.583985 1.000000 
0.069908 -0.720311 1.000000 0.235427 -0.657947 1.000000 0.354683 -0.607047 1.000000 0.493391 -0.500879 1.000000 0.577409 -0.411043 1.000000 0.683905 -0.270133 1.000000 0.726009 -0.149196 1.000000 0.794726 0.018794 1.000000 0.787134 0.164281 1.000000 0.810521 0.350408 1.000000 0.744074 0.512247 1.000000 0.712412 0.703428 1.000000 0.577992 0.868393 1.000000 0.481146 1.045234 1.000000 0.272250 1.191603 1.000000 0.104681 1.326652 1.000000 -0.177450 1.422166 1.000000 -0.405988 1.479598 1.000000 -0.742116 1.489428 1.000000 -1.001548 1.434297 1.000000 -1.352144 1.333584 1.000000 -1.596700 1.143428 1.000000 -1.907126 0.926357 1.000000 -2.083831 0.599791 1.000000 -2.292740 0.283069 1.000000 -2.349809 -0.155992 1.000000 -2.396975 -0.531814 1.000000 -2.293098 -1.028166 1.000000 -2.134918 -1.396389 1.000000 -1.857372 -1.862467 1.000000 -1.492971 -2.138713 1.000000 -1.076969 -2.477866 1.000000 -0.557987 -2.592264 1.000000 -0.077521 -2.731532 1.000000 0.507262 -2.654733 1.000000 0.968881 -2.563883 1.000000 1.515663 -2.301043 1.000000 1.877434 -1.996547 1.000000 2.285714 -1.584113 1.000000 2.479548 -1.131589 1.000000 2.681203 -0.636419 1.000000 2.665474 -0.132139 1.000000 2.642518 0.356008 1.000000 2.417026 0.813189 1.000000 2.201161 1.202094 1.000000 1.811019 1.535327 1.000000 1.469656 1.754453 1.000000 0.994800 1.923077 1.000000 0.609808 1.939530 1.000000 0.147467 1.937890 1.000000 -0.202419 1.763680 1.000000 -0.559531 1.613160 1.000000 -0.808207 1.309016 1.000000 -1.005087 1.061400 1.000000 -1.112548 0.714473 1.000000 -1.146760 0.448684 1.000000 -1.123081 0.137090 1.000000 -1.034457 -0.082288 1.000000 -0.922098 -0.315094 1.000000 -0.763002 -0.457633 1.000000 -0.608303 -0.601430 1.000000 -0.422448 -0.664114 1.000000 -0.260674 -0.727864 1.000000 -0.076873 -0.721184 1.000000 
0.097921 -0.901883 1.000000 0.288555 -0.822762 1.000000 0.430344 -0.756279 1.000000 0.588455 -0.630333 1.000000 0.690511 -0.522776 1.000000 0.812559 -0.359402 1.000000 0.868918 -0.218294 1.000000 0.949980 -0.024203 1.000000 0.951960 0.145383 1.000000 0.983447 0.362506 1.000000 0.919337 0.554185 1.000000 0.888682 0.781975 1.000000 0.745836 0.983612 1.000000 0.638330 1.202211 1.000000 0.406226 1.390338 1.000000 0.210587 1.568665 1.000000 -0.113842 1.702283 1.000000 -0.389025 1.793697 1.000000 -0.786196 1.825810 1.000000 -1.104978 1.783271 1.000000 -1.528650 1.679603 1.000000 -1.834301 1.471869 1.000000 -2.218153 1.221572 1.000000 -2.445620 0.843027 1.000000 -2.714599 0.462120 1.000000 -2.800250 -0.063907 1.000000 -2.876941 -0.530144 1.000000 -2.765800 -1.140410 1.000000 -2.587993 -1.608927 1.000000 -2.256616 -2.191761 1.000000 -1.818488 -2.549691 1.000000 -1.310188 -2.978219 1.000000 -0.678014 -3.133218 1.000000 -0.091410 -3.313358 1.000000 0.620369 -3.230864 1.000000 1.182995 -3.122667 1.000000 1.844944 -2.808198 1.000000 2.286907 -2.427379 1.000000 2.772575 -1.924189 1.000000 3.009395 -1.353567 1.000000 3.235923 -0.742700 1.000000 3.213160 -0.107770 1.000000 3.163544 0.498045 1.000000 2.880434 1.068068 1.000000 2.600145 1.550634 1.000000 2.115190 1.955639 1.000000 1.691022 2.223444 1.000000 1.105016 2.412131 1.000000 0.633936 2.420811 1.000000 0.067060 2.389837 1.000000 -0.363085 2.153625 1.000000 -0.791519 1.936160 1.000000 -1.097533 1.539114 1.000000 -1.317096 1.205183 1.000000 -1.438942 0.765501 1.000000 -1.452607 0.424264 1.000000 -1.406681 0.044733 1.000000 -1.274554 -0.222039 1.000000 -1.122599 -0.491682 1.000000 -0.915752 -0.653847 1.000000 -0.719612 -0.809575 1.000000 -0.491912 -0.872313 1.000000 -0.294298 -0.932393 1.000000 -0.077487 -0.914566 1.000000 
0.162181 -1.086352 1.000000 0.381441 -0.990370 1.000000 0.547478 -0.906948 1.000000 0.727161 -0.761047 1.000000 0.848527 -0.635147 1.000000 0.988415 -0.448539 1.000000 1.061093 -0.286617 1.000000 1.158024 -0.064248 1.000000 1.173191 0.130814 1.000000 1.218198 0.383032 1.000000 1.161870 0.607013 1.000000 1.139322 0.876928 1.000000 0.994777 1.118745 1.000000 0.883214 1.384844 1.000000 0.632940 1.619346 1.000000 0.409580 1.846720 1.000000 0.039550 2.021778 1.000000 -0.291574 2.151952 1.000000 -0.762391 2.205380 1.000000 -1.158305 2.176752 1.000000 -1.674478 2.062908 1.000000 -2.065910 1.832930 1.000000 -2.546967 1.537677 1.000000 -2.854035 1.096237 1.000000 -3.209303 0.637699 1.000000 -3.350993 0.006351 1.000000 -3.480152 -0.566263 1.000000 -3.377596 -1.317114 1.000000 -3.188981 -1.905573 1.000000 -2.799679 -2.631973 1.000000 -2.277780 -3.085142 1.000000 -1.657246 -3.618340 1.000000 -0.887383 -3.811042 1.000000 -0.168247 -4.029914 1.000000 0.705280 -3.929138 1.000000 1.398399 -3.788459 1.000000 2.216655 -3.404954 1.000000 2.765643 -2.924177 1.000000 3.362845 -2.306602 1.000000 3.662748 -1.594937 1.000000 3.928466 -0.840185 1.000000 3.906311 -0.059760 1.000000 3.818393 0.688733 1.000000 3.468874 1.376588 1.000000 3.087970 1.967338 1.000000 2.482991 2.444450 1.000000 1.925149 2.764626 1.000000 1.191444 2.980163 1.000000 0.586615 2.977486 1.000000 -0.120130 2.934911 1.000000 -0.656244 2.622259 1.000000 -1.173702 2.347608 1.000000 -1.538337 1.834593 1.000000 -1.777729 1.402809 1.000000 -1.892306 0.849984 1.000000 -1.866485 0.416423 1.000000 -1.768431 -0.040963 1.000000 -1.570013 -0.366369 1.000000 -1.353178 -0.673896 1.000000 -1.080202 -0.860620 1.000000 -0.826161 -1.025270 1.000000 -0.544682 -1.089429 1.000000 -0.302388 -1.142289 1.000000 -0.045861 -1.113402 1.000000 
0.221609 -1.329185 1.000000 0.468542 -1.208060 1.000000 0.660207 -1.101998 1.000000 0.860680 -0.931382 1.000000 1.003349 -0.784031 1.000000 1.161213 -0.571968 1.000000 1.253130 -0.387903 1.000000 1.366953 -0.136301 1.000000 1.398340 0.085210 1.000000 1.457988 0.373827 1.000000 1.410624 0.633062 1.000000 1.396397 0.949068 1.000000 1.248142 1.239720 1.000000 1.131394 1.564049 1.000000 0.858812 1.863972 1.000000 0.601760 2.162054 1.000000 0.178600 2.403436 1.000000 -0.219969 2.595638 1.000000 -0.777221 2.692541 1.000000 -1.264603 2.695358 1.000000 -1.890523 2.587207 1.000000 -2.378263 2.344357 1.000000 -2.973596 2.009698 1.000000 -3.363935 1.505363 1.000000 -3.820941 0.959078 1.000000 -4.018952 0.206942 1.000000 -4.210998 -0.503542 1.000000 -4.113296 -1.431581 1.000000 -3.905376 -2.186844 1.000000 -3.435711 -3.102962 1.000000 -2.797828 -3.692124 1.000000 -2.024753 -4.368616 1.000000 -1.072413 -4.622218 1.000000 -0.189110 -4.906021 1.000000 0.883131 -4.797510 1.000000 1.726751 -4.634042 1.000000 2.725099 -4.175442 1.000000 3.396516 -3.573568 1.000000 4.109738 -2.821295 1.000000 4.479433 -1.919188 1.000000 4.773110 -0.986263 1.000000 4.740803 0.002303 1.000000 4.597844 0.935481 1.000000 4.155252 1.798491 1.000000 3.664062 2.536518 1.000000 2.908304 3.118460 1.000000 2.222397 3.514991 1.000000 1.313942 3.750665 1.000000 0.584751 3.732386 1.000000 -0.291003 3.632695 1.000000 -0.952027 3.207197 1.000000 -1.579290 2.818254 1.000000 -2.040789 2.143141 1.000000 -2.299634 1.559152 1.000000 -2.422831 0.854256 1.000000 -2.341406 0.300389 1.000000 -2.187683 -0.251739 1.000000 -1.906030 -0.637292 1.000000 -1.615714 -0.981493 1.000000 -1.266125 -1.180864 1.000000 -0.947565 -1.345095 1.000000 -0.608137 -1.396086 1.000000 -0.317531 -1.431214 1.000000 -0.020866 -1.379134 1.000000 