# vtk DataFile Version 2.0
Comment goes here
ASCII

DATASET STRUCTURED_POINTS
DIMENSIONS    64   64   1

ORIGIN    0.000   0.000   0.000
SPACING   0.0781250.078125   1.000

POINT_DATA   4096
SCALARS uX double
LOOKUP_TABLE default

-9.562820e-03 2.080105e-02 2.431269e-02 5.324614e-02 4.672635e-02 6.894087e-02 4.832447e-02 5.984067e-02 2.262554e-02 2.108492e-02 -3.331155e-02 -4.837029e-02 -1.183004e-01 -1.452131e-01 -2.265851e-01 -2.614634e-01 -3.477318e-01 -3.846252e-01 -4.671228e-01 -4.985693e-01 -5.672938e-01 -5.853099e-01 -6.301830e-01 -6.276144e-01 -6.400939e-01 -6.121147e-01 -5.869006e-01 -5.323501e-01 -4.688184e-01 -3.910220e-01 -2.939750e-01 -2.007405e-01 -8.014482e-02 1.720101e-02 1.475857e-01 2.359895e-01 3.608731e-01 4.278194e-01 5.330575e-01 5.688455e-01 6.439194e-01 6.434862e-01 6.832102e-01 6.471067e-01 6.521881e-01 5.864621e-01 5.628486e-01 4.778258e-01 4.350738e-01 3.433004e-01 2.924008e-01 2.062319e-01 1.574009e-01 8.682417e-02 4.772366e-02 -1.070519e-03 -2.634481e-02 -5.139859e-02 -6.244256e-02 -6.556190e-02 -6.505599e-02 -5.078031e-02 -4.348253e-02 -1.788939e-02 
-1.383098e-02 1.651377e-02 1.968219e-02 4.857909e-02 4.170952e-02 6.384183e-02 4.281436e-02 5.418737e-02 1.645496e-02 1.470629e-02 -4.034217e-02 -5.566306e-02 -1.263833e-01 -1.535804e-01 -2.358499e-01 -2.709755e-01 -3.581776e-01 -3.951921e-01 -4.785465e-01 -5.098769e-01 -5.792329e-01 -5.967813e-01 -6.418965e-01 -6.384168e-01 -6.505996e-01 -6.212247e-01 -5.950794e-01 -5.386824e-01 -4.735812e-01 -3.936101e-01 -2.944662e-01 -1.989368e-01 -7.593318e-02 2.356359e-02 1.563895e-01 2.465291e-01 3.736116e-01 4.416518e-01 5.486318e-01 5.847293e-01 6.609671e-01 6.600289e-01 7.003097e-01 6.629756e-01 6.680441e-01 6.005530e-01 5.764318e-01 4.893649e-01 4.457087e-01 3.518810e-01 2.998057e-01 2.118039e-01 1.616768e-01 8.964069e-02 4.927747e-02 -5.497033e-04 -2.693486e-02 -5.263080e-02 -6.457468e-02 -6.803572e-02 -6.821747e-02 -5.408946e-02 -4.730535e-02 -2.176038e-02 
-9.540401e-03 2.392147e-02 3.003830e-02 6.161296e-02 5.712300e-02 8.132393e-02 6.195633e-02 7.464841e-02 3.772275e-02 3.640919e-02 -1.881290e-02 -3.470772e-02 -1.066860e-01 -1.355474e-01 -2.201952e-01 -2.580539e-01 -3.486594e-01 -3.892893e-01 -4.767915e-01 -5.122350e-01 -5.860009e-01 -6.075992e-01 -6.567434e-01 -6.565921e-01 -6.717185e-01 -6.443227e-01 -6.194145e-01 -5.632026e-01 -4.972614e-01 -4.155601e-01 -3.135212e-01 -2.146198e-01 -8.713683e-02 1.674044e-02 1.547756e-01 2.494415e-01 3.814009e-01 4.532005e-01 5.637003e-01 6.020206e-01 6.796892e-01 6.789803e-01 7.183518e-01 6.792245e-01 6.813328e-01 6.104450e-01 5.820538e-01 4.907605e-01 4.425135e-01 3.445660e-01 2.885592e-01 1.974001e-01 1.447395e-01 7.107072e-02 2.992393e-02 -1.984702e-02 -4.532230e-02 -6.947190e-02 -7.917560e-02 -8.002507e-02 -7.714132e-02 -5.982772e-02 -4.965062e-02 -2.078593e-02 
-1.386604e-02 2.272096e-02 3.116001e-02 6.536709e-02 6.261151e-02 8.873132e-02 7.024584e-02 8.397370e-02 4.684812e-02 4.554190e-02 -1.115513e-02 -2.818102e-02 -1.030288e-01 -1.341838e-01 -2.230765e-01 -2.642525e-01 -3.602425e-01 -4.048411e-01 -4.983528e-01 -5.377915e-01 -6.173943e-01 -6.421981e-01 -6.960044e-01 -6.974001e-01 -7.149718e-01 -6.867309e-01 -6.612010e-01 -6.013603e-01 -5.313300e-01 -4.433433e-01 -3.339999e-01 -2.268746e-01 -8.981871e-02 2.301145e-02 1.714145e-01 2.743066e-01 4.157571e-01 4.936479e-01 6.112750e-01 6.524693e-01 7.339276e-01 7.323503e-01 7.718901e-01 7.283171e-01 7.273649e-01 6.492945e-01 6.155188e-01 5.156415e-01 4.608697e-01 3.544621e-01 2.920210e-01 1.938865e-01 1.359467e-01 5.767364e-02 1.309977e-02 -3.864494e-02 -6.549059e-02 -8.928736e-02 -9.855146e-02 -9.736592e-02 -9.275339e-02 -7.245476e-02 -5.985440e-02 -2.769588e-02 
-8.982761e-03 3.405609e-02 4.824983e-02 8.794553e-02 8.975028e-02 1.200652e-01 1.046217e-01 1.209783e-01 8.507574e-02 8.455573e-02 2.696260e-02 8.606459e-03 -6.951319e-02 -1.043048e-01 -1.989482e-01 -2.460268e-01 -3.500400e-01 -4.023770e-01 -5.055256e-01 -5.536374e-01 -6.433357e-01 -6.764311e-01 -7.392420e-01 -7.470120e-01 -7.707932e-01 -7.455590e-01 -7.219383e-01 -6.607412e-01 -5.874334e-01 -4.935358e-01 -3.758290e-01 -2.590291e-01 -1.097486e-01 1.485830e-02 1.771843e-01 2.917774e-01 4.462042e-01 5.334765e-01 6.606154e-01 7.070192e-01 7.927531e-01 7.911565e-01 8.291458e-01 7.803364e-01 7.727102e-01 6.853087e-01 6.414968e-01 5.301885e-01 4.643508e-01 3.467950e-01 2.745763e-01 1.677328e-01 1.030777e-01 1.991579e-02 -2.743198e-02 -7.989890e-02 -1.056732e-01 -1.265950e-01 -1.317743e-01 -1.252165e-01 -1.146633e-01 -8.770149e-02 -6.842484e-02 -2.933838e-02 
-1.292818e-02 3.670346e-02 5.621004e-02 1.014269e-01 1.073137e-01 1.417165e-01 1.286768e-01 1.473910e-01 1.117971e-01 1.116065e-01 5.183261e-02 3.149644e-02 -5.159446e-02 -9.083200e-02 -1.933073e-01 -2.471497e-01 -3.615155e-01 -4.222970e-01 -5.374075e-01 -5.944433e-01 -6.961864e-01 -7.370296e-01 -8.099628e-01 -8.224708e-01 -8.522860e-01 -8.271497e-01 -8.036126e-01 -7.368796e-01 -6.567059e-01 -5.516971e-01 -4.205274e-01 -2.883670e-01 -1.208721e-01 2.094588e-02 2.032411e-01 3.339618e-01 5.066624e-01 6.061086e-01 7.467383e-01 7.991083e-01 8.915462e-01 8.885528e-01 9.259324e-01 8.686209e-01 8.539830e-01 7.526454e-01 6.973885e-01 5.694309e-01 4.902163e-01 3.564341e-01 2.714577e-01 1.516108e-01 7.699634e-02 -1.417378e-02 -6.731688e-02 -1.223940e-01 -1.495508e-01 -1.684798e-01 -1.713589e-01 -1.596566e-01 -1.443634e-01 -1.106423e-01 -8.547214e-02 -3.927241e-02 
-6.201688e-03 5.370346e-02 8.219404e-02 1.360399e-01 1.489914e-01 1.899875e-01 1.816714e-01 2.045978e-01 1.709415e-01 1.721586e-01 1.110195e-01 8.878141e-02 5.034128e-04 -4.439031e-02 -1.562005e-01 -2.195517e-01 -3.472249e-01 -4.207752e-01 -5.521709e-01 -6.237605e-01 -7.428370e-01 -7.977521e-01 -8.863688e-01 -9.097484e-01 -9.505381e-01 -9.304305e-01 -9.103494e-01 -8.409075e-01 -7.549035e-01 -6.390077e-01 -4.927677e-01 -3.429630e-01 -1.533266e-01 9.846282e-03 2.174256e-01 3.692680e-01 5.655611e-01 6.818616e-01 8.397652e-01 9.013838e-01 1.001532e+00 9.982556e-01 1.032743e+00 9.656279e-01 9.388432e-01 8.202468e-01 7.468561e-01 5.978834e-01 4.988100e-01 3.446977e-01 2.423228e-01 1.068356e-01 2.044420e-02 -7.921788e-02 -1.370300e-01 -1.930390e-01 -2.181319e-01 -2.317581e-01 -2.275513e-01 -2.065097e-01 -1.812817e-01 -1.363936e-01 -1.003782e-01 -4.290155e-02 
-8.558066e-03 6.195768e-02 9.930583e-02 1.619212e-01 1.817486e-01 2.292953e-01 2.253191e-01 2.522186e-01 2.197697e-01 2.219129e-01 1.581824e-01 1.332624e-01 3.797356e-02 -1.367765e-02 -1.372554e-01 -2.114658e-01 -3.553792e-01 -4.430596e-01 -5.939021e-01 -6.810046e-01 -8.203406e-01 -8.893795e-01 -9.957408e-01 -1.028678e+00 -1.080942e+00 -1.062868e+00 -1.044561e+00 -9.676199e-01 -8.716050e-01 -7.384510e-01 -5.707311e-01 -3.960335e-01 -1.765357e-01 1.504227e-02 2.556480e-01 4.343951e-01 6.608387e-01 7.976556e-01 9.774258e-01 1.049260e+00 1.159563e+00 1.154100e+00 1.186294e+00 1.104946e+00 1.065231e+00 9.232230e-01 8.298249e-01 6.530026e-01 5.311482e-01 3.502459e-01 2.266102e-01 7.032047e-02 -3.207527e-02 -1.435519e-01 -2.097752e-01 -2.682360e-01 -2.939925e-01 -3.025343e-01 -2.929233e-01 -2.620904e-01 -2.278247e-01 -1.711419e-01 -1.247049e-01 -5.542123e-02 
2.394815e-03 8.764638e-02 1.377552e-01 2.125299e-01 2.423470e-01 2.992282e-01 3.021001e-01 3.352138e-01 3.059296e-01 3.105988e-01 2.455452e-01 2.185841e-01 1.165070e-01 5.726230e-02 -7.942363e-02 -1.673582e-01 -3.308710e-01 -4.378391e-01 -6.135550e-01 -7.233680e-01 -8.899792e-01 -9.815929e-01 -1.113373e+00 -1.164321e+00 -1.235120e+00 -1.225988e+00 -1.214424e+00 -1.133855e+00 -1.029375e+00 -8.789278e-01 -6.872278e-01 -4.838588e-01 -2.283524e-01 -1.888505e-03 2.802026e-01 4.935290e-01 7.588051e-01 9.232823e-01 1.131331e+00 1.218368e+00 1.340858e+00 1.334826e+00 1.361441e+00 1.263654e+00 1.203057e+00 1.032166e+00 9.082755e-01 6.964202e-01 5.417262e-01 3.273130e-01 1.754937e-01 -5.824634e-03 -1.265472e-01 -2.505323e-01 -3.229455e-01 -3.812243e-01 -4.022152e-01 -4.008293e-01 -3.789600e-01 -3.326123e-01 -2.824804e-01 -2.084088e-01 -1.455586e-01 -5.953563e-02 
4.150863e-03 1.046738e-01 1.678599e-01 2.550275e-01 2.950662e-01 3.613142e-01 3.710546e-01 4.102183e-01 3.836991e-01 3.904394e-01 3.229915e-01 2.930937e-01 1.822840e-01 1.139698e-01 -3.872600e-02 -1.424737e-01 -3.294007e-01 -4.580953e-01 -6.631513e-01 -7.978500e-01 -9.962677e-01 -1.111558e+00 -1.272451e+00 -1.340724e+00 -1.431845e+00 -1.428682e+00 -1.422628e+00 -1.332821e+00 -1.214827e+00 -1.038856e+00 -8.145361e-01 -5.726224e-01 -2.703692e-01 7.100852e-04 3.349363e-01 5.908421e-01 9.035642e-01 1.100821e+00 1.342557e+00 1.446159e+00 1.583007e+00 1.573633e+00 1.594471e+00 1.473833e+00 1.390832e+00 1.182306e+00 1.025540e+00 7.691413e-01 5.779670e-01 3.212785e-01 1.359602e-01 -7.695771e-02 -2.220633e-01 -3.620457e-01 -4.456377e-01 -5.043851e-01 -5.236393e-01 -5.112484e-01 -4.784368e-01 -4.149470e-01 -3.492310e-01 -2.563380e-01 -1.768960e-01 -7.316442e-02 
2.365549e-02 1.439491e-01 2.241370e-01 3.272405e-01 3.805633e-01 4.591783e-01 4.784286e-01 5.263682e-01 5.050359e-01 5.162832e-01 4.485133e-01 4.173925e-01 2.990183e-01 2.217121e-01 5.227025e-02 -7.002555e-02 -2.840929e-01 -4.407680e-01 -6.821808e-01 -8.513251e-01 -1.091229e+00 -1.242031e+00 -1.443097e+00 -1.541022e+00 -1.663111e+00 -1.676288e+00 -1.683609e+00 -1.590331e+00 -1.461451e+00 -1.259468e+00 -9.986857e-01 -7.118814e-01 -3.531473e-01 -2.710934e-02 3.729431e-01 6.834992e-01 1.058183e+00 1.299424e+00 1.585977e+00 1.714016e+00 1.869204e+00 1.859042e+00 1.869163e+00 1.722011e+00 1.603702e+00 1.348383e+00 1.141498e+00 8.283902e-01 5.843847e-01 2.740550e-01 4.456081e-02 -2.068102e-01 -3.790738e-01 -5.357571e-01 -6.258793e-01 -6.803916e-01 -6.887177e-01 -6.576176e-01 -6.034942e-01 -5.146010e-01 -4.240295e-01 -3.050023e-01 -2.016871e-01 -7.439958e-02 
3.430278e-02 1.749670e-01 2.729994e-01 3.922624e-01 4.596473e-01 5.507281e-01 5.801188e-01 6.368344e-01 6.208665e-01 6.363350e-01 5.675177e-01 5.342868e-01 4.063482e-01 3.182065e-01 1.285798e-01 -1.538363e-02 -2.615719e-01 -4.503817e-01 -7.345252e-01 -9.423284e-01 -1.230761e+00 -1.419932e+00 -1.667555e+00 -1.795547e+00 -1.952757e+00 -1.979650e+00 -2.000328e+00 -1.897128e+00 -1.751195e+00 -1.512146e+00 -1.202516e+00 -8.565555e-01 -4.253819e-01 -3.039870e-02 4.509919e-01 8.275725e-01 1.276070e+00 1.568765e+00 1.906423e+00 2.061037e+00 2.235629e+00 2.220517e+00 2.217882e+00 2.034483e+00 1.878135e+00 1.563059e+00 1.303560e+00 9.200469e-01 6.192764e-01 2.427965e-01 -3.855898e-02 -3.372460e-01 -5.463453e-01 -7.231413e-01 -8.269116e-01 -8.758616e-01 -8.763401e-01 -8.229802e-01 -7.478152e-01 -6.299717e-01 -5.136375e-01 -3.659712e-01 -2.376804e-01 -8.545952e-02 
6.990762e-02 2.354268e-01 3.546832e-01 4.933905e-01 5.774085e-01 6.839048e-01 7.260086e-01 7.947259e-01 7.871340e-01 8.105215e-01 7.440741e-01 7.124124e-01 5.779919e-01 4.811463e-01 2.722502e-01 1.046815e-01 -1.774501e-01 -4.059879e-01 -7.421159e-01 -1.001548e+00 -1.352144e+00 -1.596700e+00 -1.907126e+00 -2.083831e+00 -2.292740e+00 -2.349809e+00 -2.396975e+00 -2.293098e+00 -2.134918e+00 -1.857372e+00 -1.492971e+00 -1.076969e+00 -5.579870e-01 -7.752078e-02 5.072625e-01 9.688811e-01 1.515663e+00 1.877434e+00 2.285714e+00 2.479548e+00 2.681203e+00 2.665474e+00 2.642518e+00 2.417026e+00 2.201161e+00 1.811019e+00 1.469656e+00 9.947997e-01 6.098083e-01 1.474673e-01 -2.024192e-01 -5.595307e-01 -8.082074e-01 -1.005087e+00 -1.112548e+00 -1.146760e+00 -1.123081e+00 -1.034457e+00 -9.220979e-01 -7.630016e-01 -6.083030e-01 -4.224483e-01 -2.606736e-01 -7.687349e-02 
9.792100e-02 2.885551e-01 4.303439e-01 5.884552e-01 6.905115e-01 8.125589e-01 8.689176e-01 9.499802e-01 9.519598e-01 9.834474e-01 9.193366e-01 8.886816e-01 7.458361e-01 6.383297e-01 4.062264e-01 2.105873e-01 -1.138419e-01 -3.890249e-01 -7.861958e-01 -1.104978e+00 -1.528650e+00 -1.834301e+00 -2.218153e+00 -2.445620e+00 -2.714599e+00 -2.800250e+00 -2.876941e+00 -2.765800e+00 -2.587993e+00 -2.256616e+00 -1.818488e+00 -1.310188e+00 -6.780136e-01 -9.141018e-02 6.203689e-01 1.182995e+00 1.844944e+00 2.286907e+00 2.772575e+00 3.009395e+00 3.235923e+00 3.213160e+00 3.163544e+00 2.880434e+00 2.600145e+00 2.115190e+00 1.691022e+00 1.105016e+00 6.339357e-01 6.706034e-02 -3.630850e-01 -7.915189e-01 -1.097533e+00 -1.317096e+00 -1.438942e+00 -1.452607e+00 -1.406681e+00 -1.274554e+00 -1.122599e+00 -9.157521e-01 -7.196123e-01 -4.919120e-01 -2.942975e-01 -7.748656e-02 
1.621807e-01 3.814414e-01 5.474782e-01 7.271608e-01 8.485272e-01 9.884153e-01 1.061093e+00 1.158024e+00 1.173191e+00 1.218198e+00 1.161870e+00 1.139322e+00 9.947773e-01 8.832143e-01 6.329397e-01 4.095801e-01 3.955017e-02 -2.915737e-01 -7.623911e-01 -1.158305e+00 -1.674478e+00 -2.065910e+00 -2.546967e+00 -2.854035e+00 -3.209303e+00 -3.350993e+00 -3.480152e+00 -3.377596e+00 -3.188981e+00 -2.799679e+00 -2.277780e+00 -1.657246e+00 -8.873833e-01 -1.682470e-01 7.052803e-01 1.398399e+00 2.216655e+00 2.765643e+00 3.362845e+00 3.662748e+00 3.928466e+00 3.906311e+00 3.818393e+00 3.468874e+00 3.087970e+00 2.482991e+00 1.925149e+00 1.191444e+00 5.866148e-01 -1.201303e-01 -6.562437e-01 -1.173702e+00 -1.538337e+00 -1.777729e+00 -1.892306e+00 -1.866485e+00 -1.768431e+00 -1.570013e+00 -1.353178e+00 -1.080202e+00 -8.261607e-01 -5.446821e-01 -3.023879e-01 -4.586086e-02 
2.216094e-01 4.685422e-01 6.602072e-01 8.606797e-01 1.003349e+00 1.161213e+00 1.253130e+00 1.366953e+00 1.398340e+00 1.457988e+00 1.410624e+00 1.396397e+00 1.248142e+00 1.131394e+00 8.588120e-01 6.017597e-01 1.785996e-01 -2.199688e-01 -7.772206e-01 -1.264603e+00 -1.890523e+00 -2.378263e+00 -2.973596e+00 -3.363935e+00 -3.820941e+00 -4.018952e+00 -4.210998e+00 -4.113296e+00 -3.905376e+00 -3.435711e+00 -2.797828e+00 -2.024753e+00 -1.072413e+00 -1.891100e-01 8.831314e-01 1.726751e+00 2.725099e+00 3.396516e+00 4.109738e+00 4.479433e+00 4.773110e+00 4.740803e+00 4.597844e+00 4.155252e+00 3.664062e+00 2.908304e+00 2.222397e+00 1.313942e+00 5.847514e-01 -2.910028e-01 -9.520265e-01 -1.579290e+00 -2.040789e+00 -2.299634e+00 -2.422831e+00 -2.341406e+00 -2.187683e+00 -1.906030e+00 -1.615714e+00 -1.266125e+00 -9.475648e-01 -6.081368e-01 -3.175308e-01 -2.086603e-02 
3.340346e-01 6.093383e-01 8.248431e-01 1.045699e+00 1.208412e+00 1.384765e+00 1.496678e+00 1.630458e+00 1.681794e+00 1.763089e+00 1.732196e+00 1.738401e+00 1.599227e+00 1.493820e+00 1.214663e+00 9.300261e-01 4.520001e-01 -2.627845e-02 -6.886496e-01 -1.292199e+00 -2.056317e+00 -2.676568e+00 -3.420557e+00 -3.939658e+00 -4.540054e+00 -4.842250e+00 -5.138708e+00 -5.074198e+00 -4.861201e+00 -4.297097e+00 -3.520452e+00 -2.551965e+00 -1.374445e+00 -2.833538e-01 1.040282e+00 2.078382e+00 3.323633e+00 4.151869e+00 5.037360e+00 5.505181e+00 5.850449e+00 5.820354e+00 5.603979e+00 5.056406e+00 4.394612e+00 3.448640e+00 2.544494e+00 1.396848e+00 4.566854e-01 -6.543232e-01 -1.475985e+00 -2.238299e+00 -2.793270e+00 -3.060689e+00 -3.144472e+00 -2.967098e+00 -2.702173e+00 -2.297005e+00 -1.894933e+00 -1.442431e+00 -1.040322e+00 -6.298791e-01 -2.845803e-01 5.695473e-02 
4.461901e-01 7.461450e-01 9.859162e-01 1.224897e+00 1.409914e+00 1.604876e+00 1.741755e+00 1.897631e+00 1.975057e+00 2.079890e+00 2.067587e+00 2.093885e+00 1.959195e+00 1.867719e+00 1.579245e+00 1.261156e+00 7.223468e-01 1.457939e-01 -6.395815e-01 -1.388636e+00 -2.321965e+00 -3.096881e+00 -4.018376e+00 -4.670521e+00 -5.440283e+00 -5.846446e+00 -6.273586e+00 -6.249708e+00 -6.019413e+00 -5.323761e+00 -4.344147e+00 -3.087503e+00 -1.590526e+00 -2.368127e-01 1.398731e+00 2.646370e+00 4.166799e+00 5.163492e+00 6.207585e+00 6.780414e+00 7.138193e+00 7.087008e+00 6.754139e+00 6.050884e+00 5.197028e+00 4.013015e+00 2.916409e+00 1.502813e+00 4.071327e-01 -9.857646e-01 -1.998175e+00 -2.931816e+00 -3.676557e+00 -3.942805e+00 -4.006429e+00 -3.694135e+00 -3.297021e+00 -2.737107e+00 -2.202453e+00 -1.633256e+00 -1.136658e+00 -6.532032e-01 -2.494881e-01 1.339279e-01 
6.340462e-01 9.536200e-01 1.209885e+00 1.461993e+00 1.664000e+00 1.874535e+00 2.034434e+00 2.212593e+00 2.317104e+00 2.449511e+00 2.459227e+00 2.518521e+00 2.405671e+00 2.367991e+00 2.118412e+00 1.790072e+00 1.193396e+00 4.993906e-01 -4.410281e-01 -1.371079e+00 -2.521043e+00 -3.510014e+00 -4.663478e+00 -5.526732e+00 -6.532735e+00 -7.127048e+00 -7.757461e+00 -7.820046e+00 -7.582685e+00 -6.704025e+00 -5.458551e+00 -3.811400e+00 -1.909498e+00 -2.113056e-01 1.817593e+00 3.344729e+00 5.243632e+00 6.422655e+00 7.698724e+00 8.396285e+00 8.788307e+00 8.727338e+00 8.246639e+00 7.377389e+00 6.241056e+00 4.770869e+00 3.325221e+00 1.535827e+00 1.165385e-01 -1.687838e+00 -2.913545e+00 -4.034781e+00 -4.959125e+00 -5.198635e+00 -5.135757e+00 -4.605038e+00 -3.976974e+00 -3.195535e+00 -2.477849e+00 -1.759862e+00 -1.154326e+00 -5.887864e-01 -1.292276e-01 2.945150e-01 
8.270269e-01 1.157543e+00 1.427790e+00 1.688352e+00 1.908857e+00 2.134953e+00 2.325155e+00 2.528251e+00 2.668801e+00 2.824627e+00 2.850656e+00 2.925372e+00 2.810292e+00 2.841009e+00 2.637332e+00 2.305827e+00 1.666298e+00 8.349596e-01 -2.801910e-01 -1.459409e+00 -2.900163e+00 -4.169457e+00 -5.620734e+00 -6.704339e+00 -7.982133e+00 -8.733075e+00 -9.612648e+00 -9.791422e+00 -9.506781e+00 -8.385732e+00 -6.761804e+00 -4.504783e+00 -1.988873e+00 1.668612e-01 2.711370e+00 4.512435e+00 6.823311e+00 8.161632e+00 9.577369e+00 1.038461e+01 1.068367e+01 1.054749e+01 9.812853e+00 8.676396e+00 7.214301e+00 5.396030e+00 3.688508e+00 1.558948e+00 5.446905e-02 -2.234898e+00 -3.709605e+00 -5.084477e+00 -6.475927e+00 -6.659691e+00 -6.474157e+00 -5.647738e+00 -4.728245e+00 -3.682076e+00 -2.745117e+00 -1.870209e+00 -1.144454e+00 -5.043973e-01 1.056146e-02 4.638885e-01 
1.121713e+00 1.448883e+00 1.716991e+00 1.974363e+00 2.202652e+00 2.435202e+00 2.648319e+00 2.866241e+00 3.029136e+00 3.185379e+00 3.192430e+00 3.257610e+00 3.133881e+00 3.336763e+00 3.339880e+00 3.082579e+00 2.418122e+00 1.417250e+00 7.449368e-02 -1.392941e+00 -3.213222e+00 -4.878871e+00 -6.732507e+00 -8.191434e+00 -9.846488e+00 -1.088482e+01 -1.210886e+01 -1.243455e+01 -1.204327e+01 -1.053073e+01 -8.444367e+00 -5.459082e+00 -2.237257e+00 5.273815e-01 3.753421e+00 6.031843e+00 8.961910e+00 1.036112e+01 1.197212e+01 1.284150e+01 1.300778e+01 1.278213e+01 1.174704e+01 1.037555e+01 8.524223e+00 6.388529e+00 4.202170e+00 1.577316e+00 -3.984452e-01 -3.463254e+00 -5.051604e+00 -6.588513e+00 -8.482120e+00 -8.605977e+00 -8.068684e+00 -6.792830e+00 -5.439123e+00 -4.042976e+00 -2.850148e+00 -1.798694e+00 -9.644113e-01 -2.581657e-01 2.886633e-01 7.564854e-01 
1.423576e+00 1.731806e+00 1.989361e+00 2.235486e+00 2.469498e+00 2.707463e+00 2.950241e+00 3.181465e+00 3.370593e+00 3.490153e+00 3.435011e+00 3.394481e+00 3.182900e+00 3.642407e+00 3.880892e+00 3.714101e+00 3.121609e+00 1.992503e+00 4.591261e-01 -1.433247e+00 -3.810159e+00 -6.048754e+00 -8.443003e+00 -1.027784e+01 -1.229296e+01 -1.338207e+01 -1.499446e+01 -1.552889e+01 -1.483991e+01 -1.291952e+01 -1.041545e+01 -6.378049e+00 -2.159445e+00 1.392186e+00 5.581766e+00 8.319871e+00 1.200003e+01 1.337130e+01 1.486436e+01 1.573206e+01 1.542151e+01 1.494728e+01 1.340764e+01 1.163490e+01 9.371511e+00 6.924893e+00 4.525048e+00 1.786785e+00 1.827281e-01 -3.933533e+00 -5.712570e+00 -7.556426e+00 -1.092754e+01 -1.090373e+01 -9.830693e+00 -7.978626e+00 -6.067296e+00 -4.309082e+00 -2.831346e+00 -1.631962e+00 -6.954988e-01 4.534271e-02 6.102485e-01 1.068612e+00 
1.847001e+00 2.110790e+00 2.333056e+00 2.548991e+00 2.772521e+00 2.998653e+00 3.255407e+00 3.468039e+00 3.635405e+00 3.619976e+00 3.366787e+00 3.086993e+00 2.777381e+00 3.955311e+00 4.913163e+00 4.832935e+00 4.209876e+00 2.850275e+00 1.106459e+00 -1.077120e+00 -4.037449e+00 -6.919021e+00 -9.881723e+00 -1.232362e+01 -1.485909e+01 -1.624104e+01 -1.839366e+01 -1.906556e+01 -1.768409e+01 -1.484392e+01 -1.198521e+01 -7.099442e+00 -2.171782e+00 2.226981e+00 7.544368e+00 1.144639e+01 1.638932e+01 1.712804e+01 1.842303e+01 1.907582e+01 1.802898e+01 1.725011e+01 1.522165e+01 1.332966e+01 1.100832e+01 8.838193e+00 6.171711e+00 2.962159e+00 -1.488809e-02 -6.631189e+00 -7.936919e+00 -9.270257e+00 -1.428641e+01 -1.410912e+01 -1.168600e+01 -8.855416e+00 -6.246768e+00 -4.079058e+00 -2.381084e+00 -1.079403e+00 -1.213699e-01 6.047567e-01 1.128506e+00 1.540958e+00 
2.267184e+00 2.464790e+00 2.634687e+00 2.808350e+00 3.009846e+00 3.220918e+00 3.491404e+00 3.685610e+00 3.844173e+00 3.651535e+00 3.226277e+00 2.644996e+00 2.600817e+00 5.372612e+00 6.608954e+00 5.763625e+00 5.117885e+00 3.846390e+00 2.306605e+00 -2.684578e-01 -4.020525e+00 -7.631466e+00 -1.103648e+01 -1.386394e+01 -1.664409e+01 -1.762586e+01 -2.084797e+01 -2.227416e+01 -1.957684e+01 -1.572203e+01 -1.307543e+01 -6.255403e+00 7.179855e-02 5.175800e+00 1.144670e+01 1.621076e+01 2.297719e+01 2.283239e+01 2.285634e+01 2.306108e+01 2.043235e+01 1.905174e+01 1.635200e+01 1.421623e+01 1.208576e+01 1.034269e+01 7.526057e+00 4.951461e+00 2.052281e+00 -1.075902e+01 -1.369181e+01 -1.428178e+01 -2.231587e+01 -1.956731e+01 -1.365888e+01 -9.456417e+00 -5.918978e+00 -3.456119e+00 -1.592534e+00 -3.044615e-01 6.168664e-01 1.259605e+00 1.705215e+00 2.033690e+00 
2.804139e+00 2.903045e+00 2.992089e+00 3.100428e+00 3.261737e+00 3.438293e+00 3.713290e+00 3.870752e+00 4.022553e+00 3.622059e+00 3.074208e+00 2.378205e+00 3.764735e+00 1.040215e+01 1.197333e+01 8.670958e+00 6.640613e+00 4.877353e+00 3.783336e+00 1.932885e+00 -1.798693e+00 -5.040644e+00 -7.545401e+00 -1.098246e+01 -1.518906e+01 -1.809229e+01 -2.319479e+01 -2.613940e+01 -2.339287e+01 -1.666513e+01 -1.403570e+01 -7.398315e+00 -4.777343e-01 5.008843e+00 1.183343e+01 2.094568e+01 3.266786e+01 3.061567e+01 2.911363e+01 2.839456e+01 2.303199e+01 2.081439e+01 1.769343e+01 1.611150e+01 1.549752e+01 1.591507e+01 1.390413e+01 9.371497e+00 -8.496658e+00 -3.738908e+01 -4.665367e+01 -4.815027e+01 -4.193174e+01 -2.642311e+01 -1.515475e+01 -8.558834e+00 -4.294614e+00 -1.708879e+00 -2.142717e-03 1.080657e+00 1.778596e+00 2.231080e+00 2.503981e+00 2.692461e+00 
3.304455e+00 3.283450e+00 3.266576e+00 3.292918e+00 3.383664e+00 3.518576e+00 3.781200e+00 3.966332e+00 4.262133e+00 4.031682e+00 4.222764e+00 4.384428e+00 1.024936e+01 1.966080e+01 1.608090e+01 8.651426e+00 6.539552e+00 6.445359e+00 7.309346e+00 5.407196e+00 1.229484e+00 -5.064314e-01 -9.678485e-01 -5.994156e+00 -1.019410e+01 -1.845687e+01 -2.317530e+01 -2.730159e+01 -3.256202e+01 -2.825291e+01 -2.515209e+01 -2.542641e+01 -2.014158e+01 -1.155568e+01 -1.292916e+00 9.984156e+00 3.076084e+01 3.945183e+01 3.710467e+01 3.635717e+01 2.649311e+01 2.276360e+01 1.947992e+01 1.798169e+01 1.762994e+01 1.499998e+01 6.941964e+00 -4.171606e+00 -4.039113e+01 -6.465797e+01 -7.524807e+01 -7.567840e+01 -4.556255e+01 -2.473101e+01 -1.231101e+01 -5.184448e+00 -1.245226e+00 8.728340e-01 2.086647e+00 2.750708e+00 3.102876e+00 3.281281e+00 3.331021e+00 3.342392e+00 
3.872643e+00 3.706190e+00 3.561504e+00 3.484093e+00 3.485019e+00 3.559279e+00 3.811247e+00 4.064791e+00 4.656745e+00 4.895438e+00 6.167744e+00 6.676391e+00 1.338372e+01 1.528359e+01 8.697064e+00 7.027751e+00 6.070286e+00 5.381070e+00 7.700164e+00 7.328716e+00 4.777644e+00 3.104560e+00 5.197730e+00 3.152446e+00 4.206984e+00 -5.222049e-01 2.531022e+00 3.602136e+00 -3.948855e+00 -1.138949e+01 -1.390867e+01 -2.467332e+01 -2.720261e+01 -2.340839e+01 -1.714640e+01 -1.946069e+01 7.715422e-03 3.051288e+01 3.767589e+01 4.623176e+01 3.080671e+01 2.441570e+01 2.145259e+01 1.944151e+01 1.733805e+01 7.891565e+00 -9.841418e+00 -2.343019e+01 -3.884749e+01 -2.621369e+01 -2.138094e+01 -1.798461e+01 -1.199955e+00 1.444189e+00 3.289833e+00 4.495275e+00 5.037581e+00 5.193294e+00 5.143747e+00 5.001232e+00 4.780065e+00 4.562338e+00 4.308560e+00 4.095303e+00 
4.352386e+00 4.031250e+00 3.734068e+00 3.527807e+00 3.375505e+00 3.328405e+00 3.404362e+00 3.604500e+00 4.030677e+00 4.515040e+00 5.209576e+00 5.145282e+00 4.321506e+00 -1.013575e+00 6.702804e+00 1.524833e+01 1.001718e+01 9.830515e+00 1.347795e+01 1.476649e+01 1.348189e+01 1.318922e+01 1.812666e+01 2.117735e+01 2.664957e+01 3.010433e+01 3.755290e+01 4.149333e+01 4.270634e+01 3.369362e+01 2.793824e+01 1.823638e+01 7.297785e+00 -2.737991e+00 -1.421371e+01 -2.587097e+01 -2.845865e+01 -5.435856e+00 1.765531e+01 4.569362e+01 3.302738e+01 2.276043e+01 2.474822e+01 2.269645e+01 1.577891e+01 -1.566546e+00 -1.977585e+01 -2.825860e+01 -9.393299e+00 2.159276e+01 3.845841e+01 4.528734e+01 3.921350e+01 2.729023e+01 1.909660e+01 1.420003e+01 1.128798e+01 9.468787e+00 8.148812e+00 7.200302e+00 6.396018e+00 5.779430e+00 5.213030e+00 4.771246e+00 
4.815473e+00 4.339641e+00 3.886226e+00 3.535164e+00 3.200826e+00 2.980327e+00 2.799239e+00 2.819856e+00 2.914972e+00 3.442458e+00 3.554697e+00 3.669694e+00 -1.268076e+00 -3.720242e+00 1.104611e+01 2.098209e+01 1.739653e+01 1.586041e+01 1.476478e+01 1.704530e+01 2.160261e+01 2.572402e+01 2.918475e+01 3.218078e+01 3.697724e+01 4.209524e+01 4.616714e+01 4.720244e+01 4.991485e+01 4.672988e+01 4.431610e+01 4.329521e+01 3.557872e+01 2.522860e+01 8.977836e+00 4.989849e+00 -2.068248e+01 -2.333283e+01 -1.146894e+01 1.370375e+01 5.311657e+00 -6.897153e-01 1.921144e+01 1.439702e+01 -2.088089e-01 -2.450359e+01 -3.122360e+01 -2.376737e+01 7.275258e+00 3.247583e+01 4.482381e+01 5.021522e+01 4.300822e+01 3.285222e+01 2.478175e+01 1.911778e+01 1.531249e+01 1.265531e+01 1.063164e+01 9.123401e+00 7.873467e+00 6.915622e+00 6.075154e+00 5.419056e+00 
5.157723e+00 4.540639e+00 3.933730e+00 3.429597e+00 2.894305e+00 2.444764e+00 1.947999e+00 1.624395e+00 1.328141e+00 1.533932e+00 1.638228e+00 1.919073e+00 -1.318999e+00 -3.911262e+00 -5.488960e-01 9.081133e+00 2.000441e+01 1.687104e+01 1.442548e+01 1.962903e+01 2.717629e+01 3.076328e+01 2.931576e+01 3.178063e+01 3.413977e+01 3.831824e+01 4.014435e+01 4.107239e+01 4.111218e+01 3.885682e+01 3.564922e+01 3.339005e+01 2.763489e+01 2.091028e+01 1.088505e+01 6.547511e+00 -2.213561e+01 -4.267384e+01 -6.390592e+01 -5.586362e+01 -3.794651e+01 -2.613290e+01 4.130632e+00 8.767560e-01 -1.059296e+01 -2.799683e+01 -2.158648e+01 -2.073912e+00 2.089310e+01 3.736724e+01 4.247446e+01 4.459932e+01 3.939918e+01 3.331304e+01 2.714471e+01 2.226817e+01 1.820868e+01 1.516367e+01 1.262109e+01 1.070940e+01 9.084517e+00 7.852262e+00 6.769236e+00 5.930936e+00 
5.427598e+00 4.697265e+00 3.963546e+00 3.324408e+00 2.598494e+00 1.924633e+00 1.091888e+00 3.954617e-01 -3.917737e-01 -6.256839e-01 -8.264883e-01 -4.926098e-01 -2.513241e+00 -7.628498e+00 -1.412953e+01 -1.249180e+01 9.132938e-01 6.904712e+00 1.205959e+01 1.538657e+01 1.770457e+01 2.136388e+01 2.253133e+01 2.765244e+01 3.039286e+01 3.444902e+01 3.588178e+01 3.691474e+01 3.634378e+01 3.445324e+01 3.014510e+01 2.567436e+01 1.862773e+01 1.142266e+01 3.458632e+00 -5.465981e+00 -2.056015e+01 -4.517720e+01 -6.790675e+01 -8.337627e+01 -4.624026e+01 -2.276473e+01 -2.234723e+01 -2.367770e+01 -2.878297e+01 -1.897535e+01 2.474186e+00 2.036944e+01 3.265392e+01 4.043313e+01 4.139504e+01 4.210673e+01 3.795928e+01 3.358365e+01 2.834525e+01 2.397446e+01 1.992598e+01 1.672990e+01 1.394867e+01 1.180106e+01 9.959415e+00 8.540416e+00 7.298179e+00 6.324257e+00 
5.575780e+00 4.771945e+00 3.953224e+00 3.221075e+00 2.369576e+00 1.532849e+00 4.807287e-01 -4.877385e-01 -1.566189e+00 -2.086636e+00 -2.365965e+00 -1.798690e+00 -2.481530e+00 -6.367137e+00 -1.384351e+01 -2.178404e+01 -2.156464e+01 -1.288150e+01 -8.326307e+00 -4.917897e+00 3.187632e+00 1.101213e+01 1.758250e+01 2.458781e+01 2.864630e+01 3.294946e+01 3.448519e+01 3.543584e+01 3.434218e+01 3.232616e+01 2.807768e+01 2.380225e+01 1.744841e+01 1.101520e+01 4.070006e+00 -4.065288e+00 -1.117733e+01 -2.766081e+01 -3.371195e+01 -7.232474e+01 -6.686025e+01 -6.230559e+01 -8.618045e+01 -7.213997e+01 -4.586918e+01 1.094392e+00 3.046578e+01 4.227072e+01 4.551396e+01 4.576023e+01 4.321829e+01 4.170583e+01 3.757306e+01 3.381580e+01 2.905203e+01 2.499945e+01 2.095353e+01 1.770904e+01 1.476999e+01 1.249562e+01 1.050266e+01 8.972569e+00 7.617040e+00 6.558637e+00 
5.633954e+00 4.804042e+00 3.954851e+00 3.187313e+00 2.281044e+00 1.378154e+00 2.234261e-01 -8.626586e-01 -2.080041e+00 -2.740309e+00 -3.042121e+00 -2.436143e+00 -2.268977e+00 -5.272073e+00 -1.092048e+01 -2.021157e+01 -2.683841e+01 -2.128383e+01 -1.977719e+01 -1.349065e+01 1.415628e+00 1.046933e+01 1.768025e+01 2.477989e+01 2.881195e+01 3.307233e+01 3.447222e+01 3.536337e+01 3.409067e+01 3.185537e+01 2.715957e+01 2.202447e+01 1.497259e+01 7.709287e+00 2.684503e-01 -8.683298e+00 -1.714420e+01 -3.057822e+01 -3.467861e+01 -7.640153e+01 -9.459805e+01 -1.095400e+02 -1.310813e+02 -9.978063e+01 -4.184923e+01 2.256722e+01 4.929791e+01 5.711404e+01 5.442318e+01 5.087068e+01 4.556603e+01 4.291383e+01 3.818517e+01 3.434546e+01 2.947888e+01 2.540244e+01 2.130120e+01 1.800546e+01 1.502363e+01 1.270065e+01 1.067546e+01 9.107625e+00 7.727048e+00 6.639979e+00 
5.575780e+00 4.771945e+00 3.953224e+00 3.221075e+00 2.369576e+00 1.532849e+00 4.807287e-01 -4.877385e-01 -1.566189e+00 -2.086636e+00 -2.365965e+00 -1.798690e+00 -2.481530e+00 -6.367137e+00 -1.384351e+01 -2.178404e+01 -2.156464e+01 -1.288150e+01 -8.326307e+00 -4.917897e+00 3.187632e+00 1.101213e+01 1.758250e+01 2.458781e+01 2.864630e+01 3.294946e+01 3.448519e+01 3.543584e+01 3.434218e+01 3.232616e+01 2.807768e+01 2.380225e+01 1.744841e+01 1.101520e+01 4.070006e+00 -4.065288e+00 -1.117733e+01 -2.766081e+01 -3.371195e+01 -7.232474e+01 -6.686025e+01 -6.230559e+01 -8.618045e+01 -7.213997e+01 -4.586918e+01 1.094392e+00 3.046578e+01 4.227072e+01 4.551396e+01 4.576023e+01 4.321829e+01 4.170583e+01 3.757306e+01 3.381580e+01 2.905203e+01 2.499945e+01 2.095353e+01 1.770904e+01 1.476999e+01 1.249562e+01 1.050266e+01 8.972569e+00 7.617040e+00 6.558637e+00 